/*--------------------------------*- C++ -*----------------------------------*\
| =========                 |                                                 |
| \\      /  F ield         | OpenFOAM: The Open Source CFD Toolbox           |
|  \\    /   O peration     | Version:  2.4.0                                 |
|   \\  /    A nd           | Web:      www.OpenFOAM.org                      |
|    \\/     M anipulation  |                                                 |
\*---------------------------------------------------------------------------*/
FoamFile
{
    version     2.0;
    format      ascii;
    class       volScalarField;
    location    "1.9";
    object      H;
}
// * * * * * * * * * * * * * * * * * * * * * * * * * * * * * * * * * * * * * //

dimensions      [0 2 -2 0 0 0 0];

internalField   nonuniform List<scalar> 
8000
(
-11984.3
-11492.1
-10998.3
-10502.8
-10005.9
-9508.74
-9012.63
-8519.46
-8031.45
-7551
-7080.66
-6622.97
-6180.31
-5754.83
-5348.37
-4962.32
-4597.66
-4254.89
-3934.06
-3634.8
-3356.44
-3098.06
-2858.52
-2636.45
-2430.33
-2238.61
-2059.66
-1891.8
-1733.22
-1583.19
-1440.17
-1302.75
-1169.84
-1040.55
-914.365
-791.06
-670.524
-552.346
-434.693
-315.261
-197.086
-98.2491
-31.4575
-0.45459
-0.0353294
-0.0109906
-0.413796
-0.788426
-1.1305
-1.43497
-11970.2
-11449.4
-10926.1
-10399.7
-9870.57
-9339.95
-8809.76
-8282.47
-7760.96
-7248.38
-6747.91
-6262.66
-5795.5
-5348.94
-4925.02
-4525.26
-4150.65
-3801.64
-3478.16
-3179.69
-2905.34
-2653.91
-2423.96
-2213.9
-2022.04
-1846.67
-1686.1
-1538.69
-1402.87
-1277.18
-1160.28
-1050.9
-947.877
-850.146
-756.947
-667.94
-582.993
-501.758
-424.102
-350.155
-280.318
-215.333
-156.041
-102.753
-53.4751
-0.710462
-0.0456351
-0.0261928
-0.208649
-0.451235
-11953
-11398.1
-10841.3
-10282.5
-9722.44
-9162.64
-8605.42
-8053.58
-7510.3
-6978.95
-6462.84
-5965.14
-5488.66
-5035.78
-4608.32
-4207.57
-3834.22
-3488.43
-3169.83
-2877.64
-2610.71
-2367.64
-2146.8
-1946.5
-1764.96
-1600.41
-1451.18
-1315.63
-1192.27
-1079.71
-976.736
-882.222
-795.202
-714.829
-640.376
-571.224
-506.849
-446.805
-390.715
-338.253
-289.121
-242.925
-199.702
-159.342
-121.383
-85.0788
-50.1795
-20.0493
-0.286914
-0.0373925
-11945.6
-11376.8
-10807.7
-10239.1
-9671.94
-9108.14
-8549.94
-7999.98
-7461.15
-6936.41
-6428.65
-5940.53
-5474.4
-5032.17
-4615.3
-4224.71
-3860.85
-3523.67
-3212.71
-2927.13
-2665.79
-2427.35
-2210.27
-2012.95
-1833.74
-1671.02
-1523.19
-1388.77
-1266.35
-1154.63
-1052.45
-958.751
-872.586
-793.125
-719.632
-651.46
-588.036
-528.848
-473.418
-421.23
-372.08
-325.847
-282.236
-240.936
-201.64
-164
-127.576
-92.0187
-57.9245
-27.5034
-11944.8
-11374.8
-10806.2
-10240
-9677.94
-9121.89
-8574.08
-8036.94
-7512.97
-7004.67
-6514.37
-6044.21
-5595.97
-5171.07
-4770.53
-4394.93
-4044.43
-3718.84
-3417.57
-3139.78
-2884.37
-2650.06
-2435.45
-2239.07
-2059.44
-1895.06
-1744.5
-1606.39
-1479.46
-1362.51
-1254.47
-1154.34
-1061.27
-974.451
-893.212
-816.947
-745.131
-677.311
-613.092
-552.104
-493.986
-438.784
-386.273
-336.318
-288.841
-243.794
-201.137
-160.838
-122.939
-87.7318
-11951.9
-11396.6
-10843.6
-10294.8
-9751.91
-9216.98
-8692.07
-8179.29
-7680.7
-7198.28
-6733.81
-6288.85
-5864.66
-5462.19
-5082.05
-4724.54
-4389.6
-4076.9
-3785.84
-3515.59
-3265.15
-3033.37
-2819.01
-2620.8
-2437.41
-2267.55
-2109.97
-1963.45
-1826.87
-1699.16
-1579.36
-1466.59
-1360.05
-1259.04
-1162.93
-1071.2
-983.37
-899.072
-817.993
-739.895
-664.606
-592.026
-522.13
-454.994
-390.817
-329.845
-272.346
-218.624
-169.024
-123.886
-11963.1
-11430.4
-10901
-10377
-9860.23
-9352.83
-8856.64
-8373.48
-7905.02
-7452.76
-7017.97
-6601.71
-6204.75
-5827.61
-5470.53
-5133.49
-4816.24
-4518.29
-4238.98
-3977.49
-3732.86
-3504.05
-3289.96
-3089.46
-2901.41
-2724.7
-2558.23
-2400.96
-2251.92
-2110.19
-1974.92
-1845.33
-1720.72
-1600.46
-1484.01
-1370.89
-1260.67
-1153.04
-1047.79
-944.763
-843.909
-745.309
-649.202
-555.989
-466.173
-380.295
-298.969
-222.98
-152.966
-90.4132
-11978.9
-11478.1
-10980.9
-10489.7
-10006.4
-9532.97
-9071.08
-8622.21
-8187.66
-7768.5
-7365.56
-6979.45
-6610.54
-6259
-5924.76
-5607.58
-5307.02
-5022.51
-4753.35
-4498.73
-4257.77
-4029.55
-3813.09
-3607.43
-3411.59
-3224.63
-3045.64
-2873.75
-2708.11
-2547.91
-2392.45
-2241.06
-2093.13
-1948.09
-1805.43
-1664.74
-1525.67
-1387.95
-1251.44
-1116.11
-982.082
-849.693
-719.497
-592.296
-469.145
-351.026
-239.145
-137.49
-39.683
-0.422752
-11996.2
-11529.8
-11067.3
-10610.8
-10162.3
-9723.56
-9295.96
-8880.71
-8478.74
-8090.76
-7717.25
-7358.45
-7014.44
-6685.08
-6370.09
-6069.05
-5781.41
-5506.54
-5243.72
-4992.19
-4751.14
-4519.75
-4297.19
-4082.62
-3875.24
-3674.23
-3478.85
-3288.38
-3102.15
-2919.5
-2739.78
-2562.38
-2386.75
-2212.34
-2038.68
-1865.36
-1692.02
-1518.41
-1344.42
-1170.14
-995.939
-822.531
-651.088
-483.181
-323.096
-167.495
-11.4327
-0.123252
-0.004412
-0.00573882
-12013.5
-11581.7
-11153.6
-10731.3
-10316.4
-9910.44
-9514.6
-9129.76
-8756.54
-8395.33
-8046.32
-7709.48
-7384.66
-7071.54
-6769.69
-6478.62
-6197.72
-5926.37
-5663.89
-5409.61
-5162.82
-4922.84
-4688.98
-4460.58
-4236.98
-4017.54
-3801.64
-3588.65
-3377.97
-3169.01
-2961.15
-2753.81
-2546.38
-2338.28
-2128.94
-1917.83
-1704.5
-1488.6
-1269.92
-1048.59
-825.359
-601.698
-380.712
-152.429
-1.43658
-0.026112
-0.00141374
-0.0034496
-0.000127978
0.000342501
-12029.2
-11628.7
-11231.5
-10839.3
-10453.8
-10075.9
-9706.51
-9346.28
-8995.51
-8654.35
-8322.74
-8000.5
-7687.34
-7382.86
-7086.59
-6798.04
-6516.66
-6241.9
-5973.21
-5710.02
-5451.81
-5198.02
-4948.12
-4701.6
-4457.93
-4216.57
-3977
-3738.63
-3500.87
-3263.11
-3024.67
-2784.84
-2542.86
-2297.95
-2049.32
-1796.16
-1537.72
-1273.24
-1002.27
-725.276
-444.5
-159.997
-1.58433
-0.0312715
-0.0178776
-0.000536257
8.71408e-05
0.0011528
0.0104348
0.0800878
-12041.7
-11666.1
-11293.3
-10924.6
-10561.1
-10203.6
-9852.73
-9508.68
-9171.63
-8841.52
-8518.21
-8201.45
-7890.93
-7586.28
-7287.14
-6993.1
-6703.77
-6418.76
-6137.69
-5860.2
-5585.91
-5314.45
-5045.46
-4778.52
-4513.22
-4249.07
-3985.54
-3722.03
-3457.85
-3192.25
-2924.36
-2653.22
-2377.79
-2096.98
-1809.65
-1514.63
-1210.71
-896.798
-573.619
-248.196
-2.47302
-0.047147
-0.036823
-0.002257
0.000624992
0.00679824
0.0591589
0.492916
0.931852
1.38447
-12049.8
-11690
-11332.2
-10977.1
-10625.5
-10277.9
-9934.58
-9595.71
-9261.3
-8931.31
-8605.62
-8284.05
-7966.42
-7652.53
-7342.21
-7035.26
-6731.51
-6430.81
-6132.98
-5837.87
-5545.31
-5255.06
-4966.88
-4680.43
-4395.3
-4110.95
-3826.74
-3541.91
-3255.54
-2966.58
-2673.83
-2375.96
-2071.46
-1758.69
-1436.03
-1101.74
-752.889
-382.637
-3.56244
-0.0667626
-0.00538797
-0.0203835
0.0114407
0.0433462
0.367017
0.679059
0.989495
1.30259
1.63821
2.00828
-12052.8
-11698.6
-11345.4
-10993.6
-10643.5
-10295.4
-9949.42
-9605.62
-9264.07
-8924.82
-8587.89
-8253.33
-7921.2
-7591.57
-7264.54
-6940.22
-6618.72
-6300.15
-5984.6
-5672.12
-5362.69
-5056.23
-4752.53
-4451.25
-4151.87
-3853.67
-3555.77
-3257.03
-2956.14
-2651.58
-2341.65
-2024.62
-1698.6
-1360.87
-1009.75
-646.019
-272.069
-2.87099
-0.0861811
-0.0103552
0.0352557
0.30787
0.673133
1.11733
1.57711
2.02266
2.45587
2.88798
3.3311
3.79621
-12049.7
-11689.1
-11328.2
-10967.1
-10605.8
-10244.5
-9883.36
-9522.66
-9162.66
-8803.67
-8446.06
-8090.21
-7736.55
-7385.5
-7037.51
-6693.02
-6352.51
-6016.37
-5684.9
-5358.35
-5036.85
-4720.4
-4408.82
-4101.73
-3798.5
-3498.17
-3199.47
-2900.82
-2600.42
-2296.25
-1986.12
-1667.71
-1338.71
-997.935
-648.412
-301.342
-3.17665
-2.48063
-0.80812
0.531766
1.87151
3.26362
4.67281
6.03923
7.3319
8.54922
9.70602
10.8258
11.9315
13.0559
-12039.9
-11659.3
-11277.9
-10895.7
-10512.5
-10128.7
-9744.49
-9360.45
-8977.13
-8595.21
-8215.41
-7838.48
-7465.19
-7096.31
-6732.62
-6374.87
-6023.77
-5680.02
-5344.21
-5016.87
-4698.37
-4388.92
-4088.5
-3796.83
-3513.26
-3236.74
-2965.66
-2697.71
-2431.56
-2165.02
-1894.52
-1616.43
-1326.78
-1020.88
-694.256
-348.759
-3.48838
-0.244838
-0.156597
0.0876475
0.470159
4.17407
7.93278
11.9051
15.9883
20.0273
23.9672
27.8121
31.5568
35.1788
-12020.3
-11600.2
-11178.8
-10755.8
-10331.5
-9906.26
-9481.06
-9056.87
-8634.74
-8215.78
-7801.07
-7391.66
-6988.59
-6592.85
-6205.42
-5827.29
-5459.41
-5102.76
-4758.26
-4426.79
-4109.11
-3805.87
-3517.46
-3244.07
-2985.53
-2741.29
-2510.4
-2291.4
-2082.29
-1880.52
-1682.92
-1485.6
-1284.03
-1075.71
-858.189
-630.039
-388.196
-120.215
-1.62602
-0.12428
-0.00100125
0.141505
1.2281
10.5265
19.2079
27.6204
35.8029
43.6835
51.5091
59.0928
-11986
-11497.5
-11007.8
-10517.6
-10027.9
-9540.28
-9056.11
-8576.8
-8103.54
-7637.37
-7179.24
-6729.99
-6290.45
-5861.46
-5443.95
-5038.95
-4647.64
-4271.26
-3911.16
-3568.65
-3244.96
-2941.08
-2657.72
-2395.21
-2153.46
-1931.98
-1729.86
-1545.82
-1378.25
-1225.25
-1084.72
-954.424
-832.168
-715.924
-604.007
-495.183
-388.573
-282.894
-173.492
-60.837
-0.697122
-0.0284569
-0.000324628
0.00903724
0.0220894
0.0755306
0.445985
3.41021
27.3256
48.6312
-11942.5
-11368.5
-10799.2
-10238.5
-9688.99
-9152.58
-8629.85
-8120.59
-7623.99
-7138.93
-6665.83
-6204.53
-5754.7
-5316.41
-4890.15
-4476.83
-4077.79
-3694.7
-3329.59
-2984.59
-2661.54
-2361.78
-2086.19
-1835.12
-1608.4
-1405.36
-1224.88
-1065.48
-925.423
-802.751
-695.417
-601.335
-518.449
-444.772
-378.426
-317.66
-260.863
-206.599
-153.69
-101.488
-49.93
-0.467522
-0.00784342
-0.00135599
-7.2483e-06
0.00209677
0.0891062
1.78958
26.6129
51.5655
-11752.2
-10945.6
-10241.8
-9611.47
-9035.08
-8498.97
-7993.39
-7511.19
-7047.08
-6597.14
-6158.53
-5729.28
-5308.14
-4894.54
-4488.52
-4090.65
-3702.11
-3324.73
-2961.11
-2618.17
-2299.73
-2006.53
-1739.27
-1498.24
-1283.15
-1093.17
-927.003
-782.951
-659.066
-553.248
-463.357
-387.297
-323.084
-268.893
-223.089
-184.234
-151.086
-122.581
-97.8097
-75.9795
-56.3753
-38.3389
-21.3491
-5.03265
-0.04727
-0.0180383
0.0143516
0.0452186
0.0648697
5.83386
-1.70602
-1.95831
-2.19978
-2.43001
-2.65362
-2.90358
-3.12049
-3.32547
-3.52376
-3.71427
-3.89461
-4.063
-4.21876
-4.36119
-4.49022
-4.60559
-4.70724
-4.79569
-4.87119
-4.93528
-4.99027
-5.03735
-5.07704
-5.10997
-5.13668
-5.15762
-5.17296
-5.18302
-5.18805
-5.18815
-5.18348
-5.17432
-5.16063
-5.14238
-5.11966
-5.09273
-5.06084
-5.02501
-4.98522
-4.94143
-4.89412
-4.84358
-4.78998
-4.73369
-4.67522
-4.61534
-4.55485
-4.49384
-4.43356
-4.37436
-0.762255
-1.12196
-1.49983
-1.85866
-2.17046
-2.49653
-2.87408
-3.25936
-3.63459
-3.99275
-4.33122
-4.64935
-4.94633
-5.2224
-5.47778
-5.71273
-5.92756
-6.12255
-6.29796
-6.45397
-6.59071
-6.709
-6.81047
-6.89691
-6.9694
-7.02976
-7.07937
-7.11871
-7.14942
-7.17264
-7.18968
-7.2018
-7.20954
-7.2131
-7.21273
-7.20871
-7.20123
-7.18871
-7.17319
-7.15544
-7.13567
-7.11439
-7.09209
-7.06922
-7.04666
-7.02447
-7.00277
-6.98215
-6.96397
-6.94944
-0.181554
-0.351549
-0.583634
-0.872948
-1.22144
-1.60358
-1.9434
-2.27003
-2.64386
-3.04608
-3.45524
-3.86172
-4.2593
-4.64556
-5.01982
-5.38195
-5.73184
-6.06928
-6.39408
-6.70598
-7.00466
-7.28987
-7.56134
-7.81882
-8.06208
-8.29092
-8.5051
-8.70445
-8.88872
-9.05769
-9.21107
-9.34871
-9.4713
-9.57982
-9.67531
-9.75866
-9.83068
-9.89203
-9.94413
-9.98852
-10.0263
-10.0585
-10.0858
-10.109
-10.1286
-10.145
-10.1585
-10.1713
-10.1843
-10.1986
-0.362853
-0.0379555
-0.00348596
-0.297371
-0.46094
-0.666775
-0.949468
-1.26699
-1.5366
-1.85204
-2.21667
-2.59134
-2.96486
-3.33549
-3.70212
-4.06466
-4.42317
-4.7774
-5.12722
-5.47237
-5.81245
-6.14721
-6.47633
-6.79939
-7.11595
-7.42555
-7.72771
-8.02185
-8.30753
-8.58425
-8.85192
-9.11023
-9.35889
-9.59745
-9.82533
-10.0423
-10.2476
-10.4419
-10.6253
-10.7979
-10.96
-11.1119
-11.2537
-11.3857
-11.5085
-11.6226
-11.7286
-11.8273
-11.9198
-12.0068
-55.856
-27.6623
-0.308
-0.00587675
-0.269534
-0.335359
-0.450371
-0.636025
-0.818186
-1.02892
-1.28466
-1.54854
-1.8121
-2.07339
-2.3325
-2.58921
-2.84376
-3.09575
-3.34565
-3.59358
-3.84002
-4.08533
-4.32987
-4.57402
-4.81799
-5.06182
-5.30583
-5.54974
-5.79463
-6.04086
-6.28861
-6.53811
-6.78925
-7.04179
-7.29579
-7.54981
-7.80476
-8.0607
-8.3177
-8.5744
-8.83066
-9.08577
-9.33946
-9.58968
-9.83594
-10.0778
-10.3144
-10.5431
-10.7647
-10.9788
-83.4756
-48.3262
-17.293
-0.166642
-0.216129
-0.259629
-0.317377
-0.406172
-0.487475
-0.596324
-0.73705
-0.882323
-1.02777
-1.17275
-1.31671
-1.4601
-1.60275
-1.745
-1.88689
-2.02902
-2.17171
-2.31563
-2.46134
-2.60919
-2.76003
-2.91429
-3.07239
-3.23478
-3.40214
-3.57458
-3.75263
-3.93643
-4.12603
-4.32142
-4.52261
-4.72966
-4.94286
-5.16204
-5.38713
-5.61768
-5.85301
-6.09286
-6.33682
-6.58385
-6.83362
-7.08477
-7.33667
-7.58827
-7.83802
-8.08418
-33.1084
-0.333183
-0.00494601
-0.0393749
-0.0769355
-0.118238
-0.160695
-0.182453
-0.221616
-0.269654
-0.31781
-0.365508
-0.412554
-0.458952
-0.504802
-0.550443
-0.59628
-0.642761
-0.690397
-0.739726
-0.791306
-0.845705
-0.903481
-0.965152
-1.03123
-1.10213
-1.17816
-1.25957
-1.34653
-1.43919
-1.53763
-1.64189
-1.75195
-1.86776
-1.98927
-2.11644
-2.24922
-2.38751
-2.5312
-2.6801
-2.83403
-2.99278
-3.15618
-3.32401
-3.49601
-3.67163
-3.85022
-4.03153
-4.21526
-4.40101
-0.00694804
-0.00416909
-6.55477e-05
-3.01487e-06
0.000304186
0.00513192
0.0487578
0.0911099
0.132646
0.173552
0.214031
0.254145
0.2936
0.332082
0.369206
0.404499
0.437409
0.467338
0.493674
0.515809
0.533169
0.545228
0.55152
0.551651
0.545301
0.53223
0.512273
0.485341
0.451402
0.410481
0.362649
0.308023
0.246763
0.179059
0.105133
0.0252249
-0.0604031
-0.151473
-0.247689
-0.34874
-0.454299
-0.564028
-0.677574
-0.794572
-0.914638
-1.03737
-1.16236
-1.28913
-1.4172
-1.54602
-9.03355e-05
2.13972e-05
0.000574565
0.00365654
0.0310549
0.249863
0.447024
0.627874
0.795541
0.950846
1.09544
1.231
1.35931
1.48154
1.59746
1.70689
1.80959
1.90531
1.99377
2.07469
2.14779
2.21285
2.26968
2.31813
2.35812
2.38963
2.41268
2.42734
2.43374
2.43206
2.42252
2.40538
2.38093
2.34951
2.31148
2.26722
2.21714
2.16165
2.10119
2.03622
1.96718
1.89453
1.81874
1.74027
1.65958
1.57711
1.49333
1.40867
1.32356
1.23844
0.00512316
0.0421192
0.351335
0.630285
0.905627
1.17832
1.44237
1.70018
1.95096
2.1928
2.42454
2.64547
2.85514
3.0537
3.24257
3.42282
3.59406
3.75596
3.90823
4.05061
4.18288
4.30486
4.4164
4.51737
4.60771
4.68739
4.75641
4.81483
4.86276
4.90034
4.92776
4.94525
4.95311
4.95166
4.94125
4.92225
4.89507
4.86011
4.81782
4.76862
4.71297
4.65133
4.58418
4.51201
4.43531
4.35458
4.27031
4.18302
4.0932
4.00134
0.640659
1.13181
1.57331
1.97613
2.36228
2.74079
3.10677
3.45837
3.79495
4.11659
4.42383
4.71731
4.99759
5.26501
5.51969
5.76184
5.99303
6.21371
6.42354
6.62222
6.80948
6.98511
7.14893
7.30072
7.44032
7.56759
7.68245
7.78479
7.87453
7.95166
8.01617
8.06809
8.10752
8.13462
8.1496
8.1526
8.14382
8.12357
8.09209
8.04963
7.99651
7.93309
7.85977
7.77698
7.68516
7.58484
7.47658
7.36099
7.23873
7.11048
1.85818
2.35226
2.85073
3.34497
3.82745
4.29359
4.74097
5.16913
5.57893
5.97193
6.34987
6.71438
7.06683
7.40822
7.73923
8.06018
8.3708
8.67049
8.95918
9.23662
9.50246
9.75632
9.99762
10.226
10.441
10.6422
10.8292
11.0017
11.1596
11.3026
11.4306
11.5434
11.6412
11.7241
11.7917
11.8446
11.8825
11.9055
11.9137
11.9072
11.8858
11.8494
11.7977
11.7304
11.6472
11.5476
11.4318
11.3001
11.1531
10.9916
2.40799
2.8275
3.26227
3.7085
4.16322
4.62435
5.09064
5.56145
6.03661
6.51631
7.00092
7.49095
7.98697
8.48953
8.99932
9.51311
10.0235
10.5249
11.0123
11.4817
11.9299
12.3546
12.7542
13.1272
13.4733
13.792
14.0836
14.3485
14.5875
14.8012
14.9911
15.1581
15.3037
15.4293
15.5366
15.6266
15.7016
15.7634
15.8142
15.8552
15.8887
15.9148
15.9341
15.9431
15.9365
15.9076
15.8527
15.7684
15.6536
15.5081
4.29014
4.81723
5.38047
5.98181
6.62258
7.3037
8.0257
8.78882
9.59337
10.439
11.3259
12.2535
13.2184
14.1953
15.1595
16.0912
16.9777
17.8083
18.5752
19.2731
19.8992
20.4524
20.9338
21.3449
21.6886
21.9684
22.1883
22.3524
22.4654
22.5316
22.5555
22.5414
22.4938
22.4168
22.3153
22.194
22.0583
21.9143
21.7686
21.6287
21.5042
21.401
21.3205
21.2615
21.2094
21.154
21.086
20.9956
20.8759
20.7224
14.2267
15.4699
16.8018
18.2304
19.7551
21.3673
23.0508
24.7832
26.5385
28.2858
29.9892
31.6115
33.1178
34.4957
35.7359
36.8306
37.776
38.5705
39.2153
39.7144
40.0737
40.301
40.4053
40.3972
40.2878
40.0883
39.8101
39.4641
39.0612
38.6112
38.1233
37.6055
37.0653
36.509
35.9422
35.3696
34.7952
34.2223
33.6534
33.0905
32.538
32.005
31.4631
30.9222
30.3766
29.8166
29.2619
28.7092
28.1522
27.59
38.6594
41.9825
45.1344
48.1028
50.8754
53.4404
55.7864
57.9028
59.7802
61.411
62.7871
63.906
64.7661
65.3694
65.7214
65.8311
65.7105
65.3745
64.8403
64.1271
63.2548
62.244
61.1154
59.8892
58.5847
57.219
55.8089
54.3693
52.9131
51.4517
49.9946
48.5502
47.1251
45.7248
44.3537
43.0153
41.7119
40.4453
39.2165
38.026
36.8738
35.7595
34.6822
33.6406
32.633
31.6559
30.7065
29.784
28.8874
28.016
66.2041
72.689
78.4506
83.4371
87.6308
91.0401
93.6876
95.6155
96.869
97.5006
97.5652
97.1193
96.2193
94.9205
93.277
91.3403
89.1605
86.7812
84.2488
81.5977
78.868
76.0891
73.2888
70.492
67.7175
64.9914
62.3243
59.7277
57.2131
54.7885
52.4597
50.2304
48.1033
46.0789
44.1527
42.3282
40.599
38.9617
37.4132
35.9504
34.57
33.2691
32.0443
30.8922
29.8085
28.7883
27.8265
26.917
26.0544
25.2341
67.399
83.7373
97.776
109.661
119.549
127.604
133.99
138.866
142.386
144.694
145.922
146.197
145.63
144.328
142.386
139.894
136.931
133.575
129.893
125.95
121.803
117.505
113.105
108.648
104.174
99.7176
95.3109
90.9806
86.7495
82.6374
78.6603
74.8307
71.1575
67.6469
64.3028
61.1266
58.1179
55.2743
52.5927
50.0683
47.6957
45.4679
43.3766
41.4129
39.5688
37.8368
36.2097
34.6803
33.2405
31.8832
74.9707
96.474
115.87
133.076
148.098
161.085
172.199
181.597
189.417
195.782
200.798
204.558
207.146
208.636
209.102
208.615
207.243
205.06
202.136
198.546
194.363
189.663
184.519
179.003
173.186
167.136
160.916
154.586
148.199
141.807
135.452
129.173
123.004
116.974
111.106
105.42
99.9309
94.6503
89.5865
84.7448
80.1277
75.7355
71.5663
67.617
63.8829
60.3582
57.0363
53.9098
50.9709
48.2114
24.1769
42.0654
59.6415
76.9965
94.1718
111.083
127.615
143.638
159.014
173.605
187.271
199.885
211.33
221.505
230.329
237.742
243.708
248.215
251.271
252.908
253.179
252.15
249.908
246.548
242.174
236.899
230.84
224.122
216.859
209.16
201.128
192.861
184.448
175.97
167.499
159.099
150.828
142.732
134.851
127.22
119.863
112.801
106.049
99.6168
93.5086
87.7263
82.2679
77.1286
72.3015
67.7774
-4.33102
-4.29842
-4.2663
-4.23484
-4.20426
-4.17478
-4.14665
-4.12013
-4.09552
-4.07313
-4.05329
-4.03637
-4.02274
-4.01281
-4.00701
-4.00601
-4.00972
-4.01881
-4.03381
-4.05498
-4.08244
-4.11608
-4.1555
-4.19979
-4.24736
-4.29664
-4.34794
-4.40156
-4.45786
-4.51726
-4.57948
-4.64403
-4.71073
-4.7799
-4.84932
-4.91907
-4.98884
-5.05987
-5.13194
-5.20431
-5.27656
-5.34827
-5.419
-5.48827
-5.55566
-5.62075
-5.68323
-5.74277
-5.79903
-5.85166
-5.90039
-5.94496
-5.98472
-6.01945
-6.04897
-6.07338
-6.09237
-6.10586
-6.1138
-6.11606
-6.11267
-6.10379
-6.0883
-6.06683
-6.03986
-6.00808
-5.97047
-5.9262
-5.87891
-5.82895
-5.77619
-5.72107
-5.66484
-5.60885
-5.55517
-5.5037
-5.45633
-5.41187
-5.37036
-5.33172
-5.29754
-5.26854
-5.24483
-5.22776
-5.21484
-5.20762
-5.20584
-5.20964
-5.22563
-5.25613
-5.30145
-5.35861
-5.4271
-5.50735
-5.59715
-5.69658
-5.80444
-5.9164
-6.0283
-6.13629
-6.23834
-6.33226
-6.41987
-6.50108
-6.57364
-6.6342
-6.68309
-6.73656
-6.82388
-6.95304
-7.12351
-7.33054
-7.56847
-7.83177
-8.11516
-8.41389
-8.72368
-9.04032
-9.35961
-9.67758
-9.99036
-10.2949
-10.5917
-10.8807
-11.1611
-11.4303
-11.6845
-11.9204
-12.1354
-12.3269
-12.493
-12.6321
-12.743
-12.8249
-12.8772
-12.8999
-12.893
-12.8566
-12.7911
-12.6974
-12.5764
-12.4289
-12.2561
-12.0588
-11.8387
-11.5969
-11.3353
-11.0546
-10.7562
-10.4421
-10.1137
-9.77246
-9.42013
-9.05831
-8.68894
-8.31378
-7.9347
-7.55355
-7.17218
-6.79236
-6.41584
-6.04425
-5.67916
-5.322
-4.97407
-4.63653
-4.31038
-3.99645
-3.69544
-3.4079
-3.13422
-2.87463
-2.62927
-2.3981
-2.18097
-1.97768
-1.78793
-1.61136
-1.44754
-1.29599
-1.15621
-1.02765
-0.909732
-0.801895
-0.703548
-0.614103
-0.532985
-0.459627
-0.393479
-0.334005
-0.280685
-0.233019
-0.19053
-0.152769
-0.119282
-0.0897098
-0.063727
-0.0410536
-0.0214258
-0.00461601
0.00958158
0.021246
0.0305708
0.0379892
0.0437411
0.0480288
0.0510673
0.0530342
0.0540618
0.0542722
0.0537508
0.0525588
0.0508807
0.0488713
0.046571
0.0440611
0.0414283
0.0389066
0.0367276
0.0350186
0.0338413
0.0332136
0.0331216
0.0335271
0.0343772
0.0356295
0.03724
0.0391143
0.0411594
0.0432765
0.0453777
0.0473857
0.0492346
0.0508697
0.0522482
0.0533387
0.0541215
0.0545869
0.0547349
0.0545739
0.0541192
0.0533922
0.0524187
0.0512279
0.0498511
0.0483205
0.0466682
0.0449247
0.0431185
0.0412749
0.039416
0.0375598
0.035721
0.0339107
0.0321373
0.0304066
0.0287223
0.0270867
0.0255012
0.0239663
0.0224825
0.0210495
0.0196672
0.0183403
0.0170657
0.0158416
0.0146673
0.0135433
0.0124707
0.0114509
0.0104851
0.00957461
0.00871986
0.00792091
0.00717728
0.00648806
0.00585203
0.00526767
0.00473315
0.00424633
0.00380482
0.00340601
0.00304705
0.00272489
0.00243628
0.00217782
0.00194595
0.00173698
0.00154704
0.00137253
0.00121051
0.00105876
0.000915711
0.000780287
0.000651625
0.000528769
0.000410415
0.000294738
0.000179362
6.14986e-05
-6.94148
-6.93695
-6.93391
-6.93267
-6.93303
-6.93532
-6.93961
-6.94633
-6.95549
-6.96722
-6.98168
-6.99899
-7.01927
-7.04263
-7.06952
-7.09932
-7.13235
-7.1683
-7.20742
-7.24957
-7.29416
-7.34085
-7.38887
-7.43777
-7.48685
-7.53575
-7.58377
-7.63042
-7.67491
-7.71651
-7.75517
-7.79119
-7.82459
-7.85538
-7.88358
-7.90935
-7.93289
-7.95448
-7.97432
-7.99254
-8.00923
-8.0245
-8.03843
-8.05106
-8.06246
-8.07267
-8.08174
-8.08972
-8.09666
-8.10259
-8.10758
-8.11165
-8.11486
-8.11743
-8.11922
-8.12027
-8.1207
-8.12093
-8.12112
-8.12107
-8.12067
-8.12021
-8.12006
-8.12054
-8.12156
-8.12379
-8.12545
-8.12823
-8.13351
-8.14134
-8.15171
-8.16475
-8.18059
-8.19957
-8.22209
-8.24752
-8.27629
-8.30905
-8.34645
-8.38993
-8.44
-8.49713
-8.56101
-8.63075
-8.70789
-8.79033
-8.8789
-8.97536
-9.08068
-9.19449
-9.31482
-9.43997
-9.56858
-9.69851
-9.83027
-9.96312
-10.0967
-10.2315
-10.3679
-10.5059
-10.6454
-10.7861
-10.9279
-11.0704
-11.2131
-11.3557
-11.4976
-11.6386
-11.78
-11.9384
-12.1178
-12.3149
-12.5235
-12.737
-12.9498
-13.157
-13.3548
-13.5396
-13.7081
-13.8574
-13.9846
-14.0876
-14.1648
-14.2143
-14.2356
-14.2297
-14.1985
-14.1432
-14.0645
-13.9631
-13.8396
-13.6947
-13.5287
-13.3424
-13.1366
-12.9122
-12.6699
-12.4102
-12.1343
-11.8431
-11.5377
-11.2191
-10.8885
-10.5473
-10.1965
-9.83768
-9.47208
-9.10104
-8.72592
-8.34802
-7.96867
-7.58919
-7.21092
-6.83516
-6.46323
-6.09639
-5.73589
-5.38289
-5.03849
-4.70369
-4.37941
-4.06646
-3.76553
-3.4772
-3.20193
-2.94006
-2.69179
-2.45724
-2.23639
-2.02912
-1.83524
-1.65446
-1.48641
-1.3307
-1.18685
-1.05433
-0.932622
-0.821158
-0.719368
-0.626673
-0.542496
-0.466265
-0.397419
-0.335412
-0.279715
-0.229822
-0.185248
-0.145535
-0.110249
-0.078981
-0.0513476
-0.0269911
-0.00558129
0.0131806
0.0295778
0.0438863
0.0563329
0.0670826
0.0762925
0.0841116
0.0906358
0.095996
0.100307
0.103659
0.106152
0.107864
0.108865
0.10922
0.108982
0.108196
0.106908
0.105189
0.10308
0.100621
0.0979317
0.0950893
0.0921651
0.0892485
0.0864247
0.0837641
0.0813152
0.0791192
0.0772033
0.0755773
0.0742393
0.0732
0.0724739
0.0720309
0.0717938
0.0717062
0.071706
0.0717399
0.0717597
0.0717229
0.0715932
0.071341
0.0709434
0.0703843
0.0696541
0.0687496
0.0676732
0.0664327
0.0650407
0.0635137
0.0618716
0.0601362
0.0583305
0.0564769
0.0545954
0.052703
0.0508128
0.0489343
0.0470734
0.0452334
0.0434151
0.041618
0.0398409
0.0380822
0.0363406
0.0346153
0.0329064
0.031215
0.0295414
0.027879
0.0262322
0.0246069
0.0230094
0.0214469
0.0199265
0.0184553
0.0170403
0.015687
0.0143998
0.0131808
0.0120307
0.0109492
0.00993654
0.00899289
0.00811762
0.00730955
0.00656747
0.00589001
0.00527551
0.00472186
0.00422606
0.00378438
0.00339284
0.00304592
0.00273569
0.00245375
0.00219234
0.00194495
0.00170706
0.00147613
0.00125088
0.00103024
0.000812312
0.000593653
0.000368802
0.000130309
-10.2111
-10.2208
-10.2311
-10.2421
-10.2539
-10.2664
-10.2797
-10.2941
-10.3092
-10.3251
-10.3419
-10.3596
-10.3778
-10.3968
-10.4165
-10.4367
-10.4574
-10.4786
-10.5003
-10.5224
-10.5448
-10.5674
-10.59
-10.6125
-10.6348
-10.657
-10.6788
-10.7004
-10.7216
-10.7425
-10.7634
-10.7843
-10.8056
-10.8272
-10.8493
-10.8719
-10.8952
-10.9191
-10.9437
-10.969
-10.995
-11.0216
-11.049
-11.077
-11.1056
-11.1348
-11.1646
-11.1949
-11.2258
-11.2572
-11.2892
-11.3216
-11.3546
-11.3882
-11.4223
-11.457
-11.4922
-11.528
-11.5645
-11.6016
-11.6395
-11.6782
-11.7178
-11.7584
-11.8001
-11.843
-11.8871
-11.9327
-11.9798
-12.0292
-12.0809
-12.1349
-12.1914
-12.2505
-12.3118
-12.3751
-12.4402
-12.5074
-12.577
-12.6493
-12.7247
-12.803
-12.8839
-12.9671
-13.0523
-13.1389
-13.2271
-13.3175
-13.4108
-13.507
-13.6055
-13.7053
-13.8058
-13.9066
-14.0077
-14.1089
-14.2101
-14.3104
-14.4088
-14.5046
-14.5969
-14.6852
-14.7691
-14.8479
-14.9209
-14.9873
-15.0464
-15.0977
-15.1404
-15.1739
-15.1973
-15.2095
-15.2092
-15.1951
-15.1666
-15.1218
-15.0602
-14.9806
-14.8836
-14.7693
-14.6379
-14.4897
-14.3251
-14.1438
-13.9459
-13.7318
-13.5021
-13.2568
-12.9966
-12.7219
-12.4335
-12.1321
-11.8186
-11.4939
-11.1594
-10.8158
-10.4645
-10.1064
-9.74261
-9.37417
-9.00226
-8.62812
-8.25298
-7.87803
-7.50445
-7.13343
-6.76612
-6.40362
-6.04696
-5.6971
-5.35494
-5.02129
-4.6969
-4.38247
-4.0786
-3.78582
-3.50459
-3.23529
-2.97822
-2.73359
-2.50154
-2.28212
-2.07531
-1.88101
-1.69905
-1.52919
-1.37115
-1.22458
-1.08907
-0.964197
-0.849477
-0.74442
-0.648511
-0.561225
-0.482032
-0.4104
-0.345804
-0.287731
-0.235678
-0.189164
-0.147724
-0.110917
-0.0783258
-0.049555
-0.0242348
-0.00201997
0.0174097
0.0343498
0.0490731
0.0618277
0.0728419
0.0823231
0.090458
0.0974095
0.103333
0.108357
0.112598
0.116155
0.119112
0.121541
0.123496
0.125021
0.126154
0.126932
0.127391
0.127557
0.127452
0.127095
0.1265
0.1257
0.124688
0.123453
0.121996
0.12036
0.118592
0.116724
0.114784
0.112794
0.110783
0.108784
0.106818
0.10491
0.103082
0.101322
0.0996801
0.0981503
0.0967534
0.0954588
0.0942683
0.0931694
0.0921369
0.0911497
0.0901817
0.0892092
0.0882103
0.0871655
0.0860581
0.0848743
0.0836037
0.0822388
0.0807757
0.0792137
0.0775559
0.0758094
0.073986
0.072104
0.0701886
0.0682698
0.066372
0.0645087
0.062683
0.0608906
0.0591224
0.0573674
0.0556138
0.0538509
0.0520699
0.0502647
0.0484321
0.0465685
0.0446619
0.0427072
0.0407076
0.0386783
0.0366347
0.0345918
0.0325641
0.0305647
0.0286059
0.0266988
0.0248541
0.0230819
0.0213908
0.0197849
0.0182647
0.0168274
0.0154716
0.0141954
0.0129955
0.0118679
0.0108088
0.00981475
0.00888329
0.00801449
0.00720436
0.00645133
0.00575638
0.00512657
0.00457734
0.00410882
0.00370441
0.00333045
0.00296748
0.00260689
0.00224585
0.00188285
0.00151448
0.00113299
0.000724379
0.000267094
-12.07
-12.1135
-12.1562
-12.1982
-12.2395
-12.2802
-12.3205
-12.3604
-12.4
-12.4395
-12.4788
-12.518
-12.5572
-12.5964
-12.6358
-12.6753
-12.715
-12.755
-12.7953
-12.8361
-12.8773
-12.9191
-12.9613
-13.0042
-13.0477
-13.0918
-13.1365
-13.1819
-13.228
-13.2748
-13.3224
-13.3706
-13.4196
-13.4693
-13.5197
-13.5709
-13.6227
-13.6751
-13.7282
-13.7819
-13.8361
-13.8908
-13.9459
-14.0013
-14.0571
-14.113
-14.169
-14.225
-14.2809
-14.3367
-14.3921
-14.4472
-14.5018
-14.5558
-14.6094
-14.6623
-14.7148
-14.7667
-14.818
-14.8689
-14.9191
-14.9689
-15.0181
-15.0667
-15.1147
-15.1621
-15.2088
-15.2547
-15.2998
-15.344
-15.3872
-15.4292
-15.47
-15.5092
-15.5468
-15.5826
-15.6164
-15.648
-15.6773
-15.704
-15.7279
-15.7487
-15.7661
-15.7798
-15.7894
-15.7946
-15.7953
-15.791
-15.7816
-15.7667
-15.7462
-15.7199
-15.6876
-15.6489
-15.6035
-15.5515
-15.4927
-15.4269
-15.3539
-15.2736
-15.1857
-15.0887
-14.9838
-14.8708
-14.7496
-14.6202
-14.4825
-14.3364
-14.1819
-14.0192
-13.8481
-13.6688
-13.4813
-13.2859
-13.081
-12.8676
-12.6459
-12.4166
-12.1792
-11.9341
-11.6813
-11.4212
-11.1538
-10.8793
-10.5982
-10.3106
-10.0165
-9.71656
-9.41114
-9.10082
-8.78629
-8.46828
-8.14761
-7.82517
-7.50188
-7.17863
-6.85635
-6.53591
-6.21816
-5.90391
-5.59398
-5.28914
-4.99015
-4.6977
-4.41243
-4.13493
-3.86575
-3.60534
-3.35411
-3.11242
-2.88053
-2.65867
-2.44698
-2.24556
-2.05446
-1.87364
-1.70306
-1.54259
-1.39209
-1.25135
-1.12014
-0.998188
-0.885199
-0.780844
-0.684773
-0.596617
-0.515991
-0.442501
-0.375744
-0.315312
-0.260799
-0.211801
-0.16792
-0.128768
-0.0939661
-0.0631516
-0.0359758
-0.0121066
0.00877012
0.0269503
0.042711
0.0563104
0.0679882
0.0779646
0.0864435
0.0936111
0.0996358
0.10467
0.108851
0.112302
0.115131
0.117437
0.119296
0.12078
0.121959
0.12289
0.123612
0.124172
0.124592
0.124906
0.125115
0.125257
0.125334
0.125361
0.125341
0.125275
0.125147
0.124971
0.124739
0.124449
0.124099
0.123681
0.123194
0.122636
0.122001
0.121287
0.120488
0.119602
0.118639
0.117594
0.116483
0.115309
0.114087
0.112836
0.111557
0.110277
0.109006
0.107751
0.106511
0.105286
0.104069
0.102854
0.10163
0.100389
0.0991205
0.0978148
0.0964633
0.0950581
0.0935917
0.0920581
0.0904527
0.088774
0.0870244
0.0852149
0.0833718
0.0815438
0.0797845
0.0781184
0.0765296
0.0749867
0.0734587
0.0719153
0.0703278
0.0686706
0.0669222
0.0650655
0.0630886
0.0609855
0.058756
0.0564014
0.0539416
0.0513985
0.0487964
0.0461604
0.0435158
0.0408873
0.038298
0.0357689
0.0333185
0.030962
0.0287109
0.0265717
0.0245473
0.0226436
0.0208619
0.0192023
0.0176639
0.0162428
0.0149343
0.0137327
0.0126308
0.0116202
0.0106911
0.00983207
0.00903686
0.0082992
0.00762526
0.00704584
0.00654138
0.00606687
0.0055928
0.0051137
0.00462561
0.00412708
0.00361801
0.00309699
0.00255714
0.00198024
0.00132841
0.000531541
-11.1375
-11.2486
-11.3581
-11.466
-11.5723
-11.6769
-11.7799
-11.8812
-11.9809
-12.079
-12.1755
-12.2704
-12.3637
-12.4555
-12.5459
-12.6347
-12.7221
-12.8081
-12.8927
-12.9759
-13.0578
-13.1384
-13.2177
-13.2957
-13.3724
-13.4479
-13.5222
-13.5952
-13.667
-13.7375
-13.8069
-13.875
-13.9418
-14.0074
-14.0716
-14.1346
-14.1963
-14.2566
-14.3156
-14.3731
-14.4291
-14.4835
-14.5363
-14.5873
-14.6364
-14.6835
-14.7285
-14.7712
-14.8114
-14.8492
-14.8845
-14.9174
-14.9479
-14.9758
-15.0013
-15.0241
-15.0443
-15.0617
-15.0763