/*--------------------------------*- C++ -*----------------------------------*\
| =========                 |                                                 |
| \\      /  F ield         | OpenFOAM: The Open Source CFD Toolbox           |
|  \\    /   O peration     | Version:  2.4.0                                 |
|   \\  /    A nd           | Web:      www.OpenFOAM.org                      |
|    \\/     M anipulation  |                                                 |
\*---------------------------------------------------------------------------*/
FoamFile
{
    version     2.0;
    format      ascii;
    class       surfaceScalarField;
    location    "1.9";
    object      phi;
}
// * * * * * * * * * * * * * * * * * * * * * * * * * * * * * * * * * * * * * //

dimensions      [0 3 -1 0 0 0 0];

internalField   nonuniform List<scalar> 
15580
(
-1.47186e-13
-1.94442e-12
-6.25703e-13
-5.62999e-12
-1.42206e-12
-9.13308e-12
-2.49718e-12
-1.24634e-11
-3.80998e-12
-1.56209e-11
-5.31804e-12
-1.86053e-11
-6.9778e-12
-2.14168e-11
-8.7449e-12
-2.40556e-11
-1.05742e-11
-2.65218e-11
-1.24203e-11
-2.88159e-11
-1.42374e-11
-3.09383e-11
-1.59794e-11
-3.28896e-11
-1.76008e-11
-3.46708e-11
-1.90557e-11
-3.62829e-11
-2.0299e-11
-3.7727e-11
-2.12855e-11
-3.90048e-11
-2.19709e-11
-4.01176e-11
-2.23104e-11
-4.10678e-11
-2.22612e-11
-4.18569e-11
-2.17783e-11
-4.2488e-11
-2.08216e-11
-4.29627e-11
-1.93476e-11
-4.32852e-11
-1.73222e-11
-4.34569e-11
-1.47051e-11
-4.34832e-11
-1.14734e-11
-4.33651e-11
-7.5919e-12
-4.31093e-11
-3.05433e-12
-4.27157e-11
2.17145e-12
-4.21929e-11
8.07348e-12
-4.15394e-11
1.46792e-11
-4.0766e-11
2.19398e-11
-3.98699e-11
2.9861e-11
-3.88641e-11
3.83592e-11
-3.77437e-11
4.75607e-11
-3.6521e-11
5.7555e-11
-3.51881e-11
6.85822e-11
-3.37612e-11
7.96731e-11
-3.22329e-11
9.1777e-11
-3.0532e-11
1.03067e-10
-2.85493e-11
1.1504e-10
-2.62715e-11
1.25017e-10
-2.34758e-11
1.37796e-10
-2.05344e-11
1.56002e-10
-1.77608e-11
1.59968e-10
-1.56123e-11
1.32273e-10
-8.84831e-12
1.32724e-10
-5.49223e-12
1.51731e-10
-2.00224e-11
1.6147e-10
-1.70405e-11
1.82666e-10
-3.27553e-11
-4.54346e-11
2.10564e-10
-2.44933e-13
-1.69949e-12
-8.94424e-13
-4.9805e-12
-1.89432e-12
-8.13319e-12
-3.20565e-12
-1.11521e-11
-4.78949e-12
-1.4037e-11
-6.60713e-12
-1.67877e-11
-8.62006e-12
-1.94039e-11
-1.07901e-11
-2.18856e-11
-1.30791e-11
-2.42328e-11
-1.54493e-11
-2.64456e-11
-1.78634e-11
-2.85242e-11
-2.02841e-11
-3.04689e-11
-2.26748e-11
-3.22802e-11
-2.49993e-11
-3.39584e-11
-2.72216e-11
-3.55047e-11
-2.9307e-11
-3.69194e-11
-3.12206e-11
-3.8204e-11
-3.29293e-11
-3.93591e-11
-3.43997e-11
-4.03865e-11
-3.56007e-11
-4.12871e-11
-3.65005e-11
-4.20629e-11
-3.70705e-11
-4.27152e-11
-3.72812e-11
-4.32462e-11
-3.7107e-11
-4.36575e-11
-3.65208e-11
-4.39513e-11
-3.55005e-11
-4.41295e-11
-3.40218e-11
-4.41945e-11
-3.20662e-11
-4.41484e-11
-2.96126e-11
-4.39931e-11
-2.66469e-11
-4.37317e-11
-2.31523e-11
-4.33645e-11
-1.91201e-11
-4.28963e-11
-1.4539e-11
-4.23247e-11
-9.40253e-12
-4.16575e-11
-3.70338e-12
-4.08873e-11
2.56251e-12
-4.00271e-11
9.39109e-12
-3.90614e-11
1.68705e-11
-3.80114e-11
2.51688e-11
-3.68477e-11
3.45041e-11
-3.56068e-11
4.5274e-11
-3.42456e-11
5.75674e-11
-3.28278e-11
7.10962e-11
-3.12895e-11
8.50914e-11
-2.95956e-11
1.04826e-10
-2.84672e-11
1.22256e-10
-2.79514e-11
1.29508e-10
-2.76028e-11
1.40557e-10
-2.82052e-11
1.3833e-10
-3.05287e-11
-3.42604e-11
1.27156e-10
-2.2973e-13
-1.46976e-12
-8.95958e-13
-4.31428e-12
-1.96351e-12
-7.06564e-12
-3.39217e-12
-9.72347e-12
-5.14328e-12
-1.22859e-11
-7.17932e-12
-1.47516e-11
-9.46381e-12
-1.71194e-11
-1.1961e-11
-1.93884e-11
-1.46362e-11
-2.15577e-11
-1.74549e-11
-2.36268e-11
-2.03838e-11
-2.55953e-11
-2.33897e-11
-2.74629e-11
-2.64403e-11
-2.92295e-11
-2.95035e-11
-3.08953e-11
-3.25478e-11
-3.24604e-11
-3.55419e-11
-3.39253e-11
-3.84553e-11
-3.52906e-11
-4.12572e-11
-3.65572e-11
-4.39178e-11
-3.77258e-11
-4.64071e-11
-3.87978e-11
-4.86956e-11
-3.97744e-11
-5.07537e-11
-4.06571e-11
-5.25524e-11
-4.14475e-11
-5.40621e-11
-4.21477e-11
-5.5254e-11
-4.27594e-11
-5.60982e-11
-4.32853e-11
-5.65651e-11
-4.37275e-11
-5.66246e-11
-4.4089e-11
-5.62452e-11
-4.43725e-11
-5.53955e-11
-4.45814e-11
-5.4041e-11
-4.47189e-11
-5.21482e-11
-4.47892e-11
-4.96769e-11
-4.4796e-11
-4.65904e-11
-4.4744e-11
-4.28396e-11
-4.4638e-11
-3.83832e-11
-4.44834e-11
-3.31587e-11
-4.4286e-11
-2.71178e-11
-4.40523e-11
-2.0176e-11
-4.37895e-11
-1.2277e-11
-4.35059e-11
-3.31177e-12
-4.32108e-11
6.77589e-12
-4.29155e-11
1.81172e-11
-4.26308e-11
3.08954e-11
-4.23738e-11
4.45858e-11
-4.21576e-11
5.8632e-11
-4.19977e-11
7.31342e-11
-4.1954e-11
8.96351e-11
-4.21486e-11
9.93019e-11
-4.23576e-11
-4.31728e-11
1.07962e-10
-1.5256e-13
-1.3172e-12
-5.77249e-13
-3.88959e-12
-1.24916e-12
-6.39372e-12
-2.14724e-12
-8.82539e-12
-3.24988e-12
-1.11833e-11
-4.53503e-12
-1.34665e-11
-5.98014e-12
-1.56743e-11
-7.56233e-12
-1.78062e-11
-9.25834e-12
-1.98617e-11
-1.10447e-11
-2.18405e-11
-1.28978e-11
-2.37423e-11
-1.47938e-11
-2.55669e-11
-1.67089e-11
-2.73145e-11
-1.86191e-11
-2.89851e-11
-2.05006e-11
-3.05789e-11
-2.23296e-11
-3.20963e-11
-2.40823e-11
-3.35378e-11
-2.57354e-11
-3.49041e-11
-2.72654e-11
-3.61958e-11
-2.86493e-11
-3.74139e-11
-2.98643e-11
-3.85594e-11
-3.08882e-11
-3.96332e-11
-3.16988e-11
-4.06369e-11
-3.22749e-11
-4.15716e-11
-3.25954e-11
-4.2439e-11
-3.26402e-11
-4.32406e-11
-3.23895e-11
-4.39781e-11
-3.18249e-11
-4.46537e-11
-3.09283e-11
-4.52691e-11
-2.9683e-11
-4.58266e-11
-2.80737e-11
-4.63283e-11
-2.60858e-11
-4.6777e-11
-2.37071e-11
-4.71747e-11
-2.09265e-11
-4.75247e-11
-1.77356e-11
-4.7829e-11
-1.41274e-11
-4.80916e-11
-1.00992e-11
-4.83142e-11
-5.64971e-12
-4.85018e-11
-7.83548e-13
-4.86556e-11
4.49214e-12
-4.87816e-11
1.01617e-11
-4.88804e-11
1.62054e-11
-4.89592e-11
2.25922e-11
-4.90177e-11
2.92831e-11
-4.90646e-11
3.62228e-11
-4.90972e-11
4.3352e-11
-4.91269e-11
5.05453e-11
-4.91473e-11
5.75646e-11
-4.91679e-11
6.44801e-11
-4.92256e-11
-4.92698e-11
7.17924e-11
-9.25781e-14
-1.22462e-12
-3.71541e-13
-3.61062e-12
-8.27313e-13
-5.93795e-12
-1.44491e-12
-8.20779e-12
-2.20904e-12
-1.04191e-11
-3.10409e-12
-1.25714e-11
-4.11419e-12
-1.46642e-11
-5.22317e-12
-1.66972e-11
-6.41462e-12
-1.86702e-11
-7.67194e-12
-2.05831e-11
-8.9784e-12
-2.24358e-11
-1.03171e-11
-2.42282e-11
-1.16712e-11
-2.59604e-11
-1.30236e-11
-2.76326e-11
-1.43576e-11
-2.92449e-11
-1.56563e-11
-3.07976e-11
-1.6903e-11
-3.22911e-11
-1.80814e-11
-3.37258e-11
-1.91751e-11
-3.51021e-11
-2.01683e-11
-3.64207e-11
-2.10455e-11
-3.76822e-11
-2.17915e-11
-3.88872e-11
-2.2392e-11
-4.00364e-11
-2.28327e-11
-4.11309e-11
-2.31005e-11
-4.21712e-11
-2.31826e-11
-4.31585e-11
-2.30672e-11
-4.40936e-11
-2.27433e-11
-4.49775e-11
-2.22009e-11
-4.58114e-11
-2.14312e-11
-4.65964e-11
-2.04261e-11
-4.73334e-11
-1.91793e-11
-4.80238e-11
-1.76852e-11
-4.86687e-11
-1.59404e-11
-4.92695e-11
-1.39423e-11
-4.98271e-11
-1.16907e-11
-5.03431e-11
-9.18643e-12
-5.08185e-11
-6.43335e-12
-5.12549e-11
-3.43583e-12
-5.16532e-11
-2.0245e-13
-5.20149e-11
3.25829e-12
-5.23411e-11
6.93245e-12
-5.26333e-11
1.0807e-11
-5.28922e-11
1.48618e-11
-5.31195e-11
1.90801e-11
-5.33154e-11
2.34349e-11
-5.34818e-11
2.79063e-11
-5.36187e-11
3.24656e-11
-5.37271e-11
3.70459e-11
-5.38059e-11
-5.38577e-11
4.16338e-11
-8.90746e-14
-1.13555e-12
-3.29943e-13
-3.36976e-12
-7.06576e-13
-5.56132e-12
-1.2078e-12
-7.70657e-12
-1.82228e-12
-9.80465e-12
-2.53866e-12
-1.1855e-11
-3.34554e-12
-1.38573e-11
-4.23149e-12
-1.58112e-11
-5.18507e-12
-1.77167e-11
-6.19482e-12
-1.95734e-11
-7.24926e-12
-2.13814e-11
-8.33699e-12
-2.31405e-11
-9.44664e-12
-2.48508e-11
-1.05669e-11
-2.65123e-11
-1.16867e-11
-2.81251e-11
-1.27951e-11
-2.96893e-11
-1.38811e-11
-3.1205e-11
-1.49344e-11
-3.26725e-11
-1.59447e-11
-3.40919e-11
-1.6902e-11
-3.54634e-11
-1.77968e-11
-3.67874e-11
-1.862e-11
-3.8064e-11
-1.93629e-11
-3.92936e-11
-2.00173e-11
-4.04764e-11
-2.05757e-11
-4.16128e-11
-2.10312e-11
-4.27031e-11
-2.13771e-11
-4.37476e-11
-2.1608e-11
-4.47467e-11
-2.17187e-11
-4.57007e-11
-2.17051e-11
-4.66099e-11
-2.15636e-11
-4.74749e-11
-2.12917e-11
-4.82958e-11
-2.08871e-11
-4.90733e-11
-2.03491e-11
-4.98075e-11
-1.96769e-11
-5.04993e-11
-1.88713e-11
-5.11487e-11
-1.79331e-11
-5.17568e-11
-1.68644e-11
-5.23235e-11
-1.56671e-11
-5.28505e-11
-1.43445e-11
-5.33375e-11
-1.28988e-11
-5.37868e-11
-1.13343e-11
-5.41978e-11
-9.65276e-12
-5.45738e-11
-7.85857e-12
-5.49137e-11
-5.95158e-12
-5.52224e-11
-3.93501e-12
-5.54983e-11
-1.80588e-12
-5.57478e-11
4.37674e-13
-5.59707e-11
2.81396e-12
-5.61822e-11
-5.63109e-11
5.2672e-12
-3.85901e-14
-1.09696e-12
-1.63116e-13
-3.24523e-12
-3.72317e-13
-5.35211e-12
-6.59633e-13
-7.41926e-12
-1.01792e-12
-9.44637e-12
-1.43958e-12
-1.14334e-11
-1.91663e-12
-1.33803e-11
-2.44076e-12
-1.52871e-11
-3.00338e-12
-1.7154e-11
-3.59565e-12
-1.89811e-11
-4.20853e-12
-2.07685e-11
-4.8328e-12
-2.25162e-11
-5.45914e-12
-2.42245e-11
-6.07809e-12
-2.58933e-11
-6.68018e-12
-2.7523e-11
-7.25588e-12
-2.91136e-11
-7.7957e-12
-3.06652e-11
-8.29017e-12
-3.2178e-11
-8.72995e-12
-3.36521e-11
-9.10578e-12
-3.50876e-11
-9.4086e-12
-3.64845e-11
-9.62952e-12
-3.7843e-11
-9.75993e-12
-3.91632e-11
-9.79148e-12
-4.04448e-11
-9.71619e-12
-4.16881e-11
-9.52647e-12
-4.28928e-11
-9.21516e-12
-4.40589e-11
-8.77563e-12
-4.51862e-11
-8.20178e-12
-4.62745e-11
-7.48822e-12
-4.73235e-11
-6.63015e-12
-4.8333e-11
-5.62375e-12
-4.93022e-11
-4.46586e-12
-5.02312e-11
-3.1546e-12
-5.11188e-11
-1.68879e-12
-5.19651e-11
-6.90269e-14
-5.27684e-11
1.70345e-12
-5.35292e-11
3.62493e-12
-5.4245e-11
5.69123e-12
-5.49168e-11
7.89464e-12
-5.5541e-11
1.02274e-11
-5.61196e-11
1.26767e-11
-5.6647e-11
1.52305e-11
-5.71275e-11
1.78691e-11
-5.75523e-11
2.05765e-11
-5.79299e-11
2.33291e-11
-5.82509e-11
2.6117e-11
-5.85357e-11
2.8764e-11
-5.86177e-11
3.11656e-11
-5.85839e-11
-5.85135e-11
3.3186e-11
-3.83317e-14
-1.05863e-12
-1.38773e-13
-3.14479e-12
-2.9348e-13
-5.19741e-12
-4.97468e-13
-7.21527e-12
-7.45171e-13
-9.19866e-12
-1.03057e-12
-1.1148e-11
-1.34722e-12
-1.30636e-11
-1.68832e-12
-1.4946e-11
-2.04674e-12
-1.67956e-11
-2.41505e-12
-1.86128e-11
-2.78555e-12
-2.0398e-11
-3.15031e-12
-2.21515e-11
-3.50114e-12
-2.38736e-11
-3.82972e-12
-2.55648e-11
-4.1275e-12
-2.72252e-11
-4.38587e-12
-2.88552e-11
-4.59603e-12
-3.04551e-11
-4.74914e-12
-3.20249e-11
-4.83622e-12
-3.3565e-11
-4.84837e-12
-3.50754e-11
-4.77651e-12
-3.65564e-11
-4.61174e-12
-3.80078e-11
-4.34498e-12
-3.94299e-11
-3.96749e-12
-4.08223e-11
-3.47026e-12
-4.21853e-11
-2.84487e-12
-4.35182e-11
-2.08247e-12
-4.48213e-11
-1.17515e-12
-4.60935e-11
-1.14293e-13
-4.73354e-11
1.10727e-12
-4.8545e-11
2.49784e-12
-4.97235e-11
4.06359e-12
-5.0868e-11
5.81249e-12
-5.19801e-11
7.74931e-12
-5.30556e-11
9.88178e-12
-5.40976e-11
1.22128e-11
-5.50994e-11
1.47501e-11
-5.60665e-11
1.7494e-11
-5.69889e-11
2.04526e-11
-5.78754e-11
2.36229e-11
-5.87113e-11
2.7014e-11
-5.95107e-11
3.06187e-11
-6.02517e-11
3.44508e-11
-6.09597e-11
3.85057e-11
-6.16072e-11
4.2838e-11
-6.22622e-11
4.70108e-11
-6.24236e-11
5.09185e-11
-6.24434e-11
5.40749e-11
-6.23456e-11
5.01611e-11
-6.10239e-11
-5.88511e-11
4.72381e-11
-3.42441e-14
-1.02438e-12
-1.38162e-13
-3.04087e-12
-3.06311e-13
-5.02926e-12
-5.30263e-13
-6.99132e-12
-8.0205e-13
-8.92688e-12
-1.11411e-12
-1.08359e-11
-1.45924e-12
-1.27185e-11
-1.83051e-12
-1.45747e-11
-2.22129e-12
-1.64048e-11
-2.62512e-12
-1.8209e-11
-3.03573e-12
-1.99874e-11
-3.44698e-12
-2.17402e-11
-3.85283e-12
-2.34678e-11
-4.24732e-12
-2.51703e-11
-4.62456e-12
-2.6848e-11
-4.97865e-12
-2.85011e-11
-5.30376e-12
-3.01299e-11
-5.59398e-12
-3.17347e-11
-5.84346e-12
-3.33155e-11
-6.04618e-12
-3.48727e-11
-6.1962e-12
-3.64064e-11
-6.28728e-12
-3.79167e-11
-6.3133e-12
-3.94039e-11
-6.26766e-12
-4.0868e-11
-6.14392e-12
-4.2309e-11
-5.93489e-12
-4.37272e-11
-5.63366e-12
-4.51225e-11
-5.23208e-12
-4.64951e-11
-4.72249e-12
-4.7845e-11
-4.09529e-12
-4.91723e-11
-3.34166e-12
-5.04772e-11
-2.44973e-12
-5.17599e-11
-1.40895e-12
-5.30209e-11
-2.04043e-13
-5.42605e-11
1.17815e-12
-5.54797e-11
2.758e-12
-5.66793e-11
4.55242e-12
-5.78609e-11
6.58915e-12
-5.90257e-11
8.89015e-12
-6.01764e-11
1.14942e-11
-6.13153e-11
1.44338e-11
-6.24502e-11
1.77728e-11
-6.35908e-11
2.14538e-11
-6.46407e-11
2.51784e-11
-6.53318e-11
2.86716e-11
-6.58653e-11
3.06386e-11
-6.73251e-11
1.74058e-11
-6.53535e-11
1.62365e-11
-6.21269e-11
1.18533e-11
-5.66655e-11
-3.40235e-11
-1.29743e-11
-3.86521e-14
-9.85729e-13
-1.31362e-13
-2.94816e-12
-2.66006e-13
-4.89461e-12
-4.35967e-13
-6.82136e-12
-6.351e-13
-8.72774e-12
-8.5772e-13
-1.06133e-11
-1.09854e-12
-1.24777e-11
-1.35267e-12
-1.43206e-11
-1.61552e-12
-1.6142e-11
-1.88283e-12
-1.79417e-11
-2.15055e-12
-1.97196e-11
-2.41489e-12
-2.14759e-11
-2.6722e-12
-2.32105e-11
-2.91905e-12
-2.49234e-11
-3.15212e-12
-2.66149e-11
-3.36822e-12
-2.8285e-11
-3.56427e-12
-2.99339e-11
-3.73729e-12
-3.15617e-11
-3.8844e-12
-3.31684e-11
-4.00275e-12
-3.47544e-11
-4.08966e-12
-3.63195e-11
-4.14235e-12
-3.7864e-11
-4.15834e-12
-3.93879e-11
-4.13486e-12
-4.08914e-11
-4.06963e-12
-4.23743e-11
-3.95979e-12
-4.3837e-11
-3.80332e-12
-4.5279e-11
-3.59703e-12
-4.67014e-11
-3.33925e-12
-4.81028e-11
-3.02614e-12
-4.94854e-11
-2.65638e-12
-5.08469e-11
-2.225e-12
-5.21913e-11
-1.73111e-12
-5.35148e-11
-1.16776e-12
-5.48239e-11
-5.34621e-13
-5.61129e-11
1.78322e-13
-5.73922e-11
9.70445e-13
-5.8653e-11
1.85735e-12
-5.99126e-11
2.84105e-12
-6.11601e-11
3.95377e-12
-6.24281e-11
5.01367e-12
-6.35101e-11
5.92881e-12
-6.45059e-11
6.40161e-12
-6.55983e-11
-2.2207e-12
-6.68079e-11
-1.42595e-11
-6.50648e-11
-2.06781e-11
-6.10745e-11
-4.04417e-11
-4.55959e-11
-9.71317e-11
-5.43689e-12
-5.94434e-11
-9.43539e-11
1.90923e-10
-2.8439e-10
7.18186e-14
-1.05755e-12
2.63626e-13
-3.13997e-12
5.58295e-13
-5.18928e-12
9.43243e-13
-7.20631e-12
1.40802e-12
-9.19252e-12
1.94398e-12
-1.11493e-11
2.54396e-12
-1.30776e-11
3.20208e-12
-1.49787e-11
3.91346e-12
-1.68534e-11
4.67413e-12
-1.87023e-11
5.48072e-12
-2.05262e-11
6.33052e-12
-2.23257e-11
7.22107e-12
-2.4101e-11
8.15039e-12
-2.58528e-11
9.11647e-12
-2.7581e-11
1.01176e-11
-2.92862e-11
1.11518e-11
-3.09681e-11
1.22172e-11
-3.26271e-11
1.33113e-11
-3.42625e-11
1.44318e-11
-3.58749e-11
1.55752e-11
-3.74629e-11
1.67381e-11
-3.9027e-11
1.79155e-11
-4.05652e-11
1.91022e-11
-4.20781e-11
2.02907e-11
-4.35628e-11
2.14736e-11
-4.50199e-11
2.26398e-11
-4.64453e-11
2.37782e-11
-4.78397e-11
2.4873e-11
-4.91976e-11
2.59078e-11
-5.05201e-11
2.68603e-11
-5.17995e-11
2.77068e-11
-5.30377e-11
2.84163e-11
-5.42242e-11
2.89549e-11
-5.53625e-11
2.92798e-11
-5.64378e-11
2.93443e-11
-5.74568e-11
2.90912e-11
-5.83999e-11
2.84612e-11
-5.92826e-11
2.73702e-11
-6.00691e-11
2.56673e-11
-6.07251e-11
2.34773e-11
-6.1728e-11
6.86037e-12
-6.14823e-11
-1.02389e-11
-6.02082e-11
-2.21899e-11
-5.50118e-11
-9.11127e-11
3.85808e-12
-6.59587e-11
-8.6229e-11
-9.19052e-11
-1.96494e-11
-3.87166e-10
2.89824e-10
-6.97175e-10
2.15657e-10
2.3125e-10
-7.37491e-10
9.62158e-14
-1.15376e-12
3.51347e-13
-3.3951e-12
7.45746e-13
-5.58368e-12
1.26666e-12
-7.72722e-12
1.9017e-12
-9.82756e-12
2.63884e-12
-1.18864e-11
3.46634e-12
-1.39051e-11
4.37279e-12
-1.58852e-11
5.34706e-12
-1.78276e-11
6.37831e-12
-1.97336e-11
7.45598e-12
-2.16039e-11
8.5698e-12
-2.34395e-11
9.70983e-12
-2.5241e-11
1.08664e-11
-2.70093e-11
1.20301e-11
-2.87448e-11
1.31921e-11
-3.04481e-11
1.43436e-11
-3.21196e-11
1.54765e-11
-3.37599e-11
1.65829e-11
-3.5369e-11
1.76554e-11
-3.69474e-11
1.86872e-11
-3.84947e-11
1.96717e-11
-4.00115e-11
2.06033e-11
-4.14968e-11
2.14765e-11
-4.29512e-11
2.22863e-11
-4.43727e-11
2.30284e-11
-4.5762e-11
2.36983e-11
-4.71153e-11
2.42927e-11
-4.84341e-11
2.48065e-11
-4.97114e-11
2.52368e-11
-5.09504e-11
2.55757e-11
-5.21384e-11
2.58206e-11
-5.32826e-11
2.59568e-11
-5.43604e-11
2.59812e-11
-5.53869e-11
2.58679e-11
-5.63245e-11
2.5616e-11
-5.72049e-11
2.51801e-11
-5.79639e-11
2.42803e-11
-5.83829e-11
2.28117e-11
-5.86005e-11
1.00886e-11
-5.8671e-11
-1.22909e-11
-5.76672e-11
-2.30492e-11
-5.09265e-11
-9.71096e-11
1.38522e-11
-7.79163e-11
-7.42057e-11
-1.18205e-10
4.41467e-11
-3.00786e-10
9.63534e-11
-4.18768e-10
9.83409e-11
-3.86174e-10
2.5723e-10
-5.24733e-10
3.54216e-10
3.20536e-10
-6.14019e-10
2.38124e-14
-1.17758e-12
1.35662e-13
-3.50695e-12
3.46292e-13
-5.79431e-12
6.50627e-13
-8.03155e-12
1.04138e-12
-1.02183e-11
1.5093e-12
-1.23543e-11
2.0437e-12
-1.44395e-11
2.63254e-12
-1.6474e-11
3.26304e-12
-1.84581e-11
3.92149e-12
-2.0392e-11
4.59406e-12
-2.22765e-11
5.26631e-12
-2.41118e-11
5.92424e-12
-2.5899e-11
6.55338e-12
-2.76384e-11
7.14032e-12
-2.93317e-11
7.67124e-12
-3.0979e-11
8.13408e-12
-3.25825e-11
8.5163e-12
-3.41421e-11
8.80794e-12
-3.56606e-11
8.99842e-12
-3.71378e-11
9.08073e-12
-3.8577e-11
9.04702e-12
-3.99778e-11
8.89408e-12
-4.13439e-11
8.61764e-12
-4.26748e-11
8.21912e-12
-4.39741e-11
7.69877e-12
-4.52416e-11
7.0632e-12
-4.64797e-11
6.31829e-12
-4.76892e-11
5.47582e-12
-4.88689e-11
4.54849e-12
-5.00231e-11
3.55235e-12
-5.11423e-11
2.50845e-12
-5.22387e-11
1.43522e-12
-5.32872e-11
3.64112e-13
-5.43158e-11
-6.91167e-13
-5.52692e-11
-1.69741e-12
-5.61987e-11
-2.65643e-12
-5.70049e-11
-4.95113e-12
-5.85601e-11
-3.39329e-11
-5.78786e-11
-3.72719e-11
-5.56465e-11
-9.6622e-11
1.55097e-12
-9.09716e-11
-5.65769e-11
-1.19979e-10
4.28591e-11
-2.34757e-10
4.0579e-11
-2.43792e-10
5.31815e-11
-2.60844e-10
1.13406e-10
-3.23863e-10
1.6136e-10
-2.5905e-10
1.92417e-10
-1.16937e-10
2.12103e-10
2.11636e-10
-8.03746e-12
1.43563e-13
-1.32114e-12
5.1022e-13
-3.87361e-12
1.06118e-12
-6.34527e-12
1.77028e-12
-8.74065e-12
2.61232e-12
-1.10604e-11
3.563e-12
-1.3305e-11
4.59864e-12
-1.54752e-11
5.69627e-12
-1.75717e-11
6.83334e-12
-1.95952e-11
7.98783e-12
-2.15465e-11
9.13797e-12
-2.34266e-11
1.02625e-11
-2.52362e-11
1.13401e-11
-2.69766e-11
1.23501e-11
-2.86485e-11
1.32718e-11
-3.02533e-11
1.40848e-11
-3.1792e-11
1.47685e-11
-3.32662e-11
1.53033e-11
-3.46769e-11
1.56687e-11
-3.6026e-11
1.58452e-11
-3.73144e-11
1.58127e-11
-3.85444e-11
1.5552e-11
-3.97171e-11
1.50429e-11
-4.08349e-11
1.42669e-11
-4.18987e-11
1.32039e-11
-4.29112e-11
1.18356e-11
-4.38733e-11
1.01429e-11
-4.47869e-11
8.10751e-12
-4.56538e-11
5.7122e-12
-4.64736e-11
2.93911e-12
-4.725e-11
-2.25266e-13
-4.79779e-11
-3.79862e-12
-4.86653e-11
-7.78817e-12
-4.92976e-11
-1.22145e-11
-4.98894e-11
-1.70726e-11
-5.04111e-11
-2.2361e-11
-5.09103e-11
-3.95038e-11
-5.13992e-11
-6.48896e-11
-5.17099e-11
-7.00817e-11
-5.28063e-11
-6.75419e-11
-5.81864e-11
-1.58128e-11
-5.01642e-11
-4.52091e-11
-2.71806e-11
-1.57939e-11
1.34439e-11
2.94687e-12
2.18383e-11
2.90762e-11
2.70521e-11
9.91548e-11
4.33272e-11
2.02652e-10
5.7862e-11
3.21158e-10
7.39114e-11
4.54763e-10
7.84977e-11
8.40012e-11
5.82398e-10
3.90396e-14
-1.36018e-12
1.49344e-13
-3.98391e-12
3.1984e-13
-6.51577e-12
5.36652e-13
-8.95746e-12
7.84054e-13
-1.13078e-11
1.04483e-12
-1.35658e-11
1.30033e-12
-1.57307e-11
1.53078e-12
-1.78021e-11
1.71515e-12
-1.97796e-11
1.83159e-12
-2.1663e-11
1.85712e-12
-2.34521e-11
1.76813e-12
-2.51473e-11
1.53989e-12
-2.67483e-11
1.14722e-12
-2.82558e-11
5.6373e-13
-2.96698e-11
-2.37218e-13
-3.09911e-11
-1.2837e-12
-3.22198e-11
-2.60379e-12
-3.33568e-11
-4.22731e-12
-3.44024e-11
-6.18379e-12
-3.53579e-11
-8.50484e-12
-3.62234e-11
-1.12215e-11
-3.70004e-11
-1.43671e-11
-3.76893e-11
-1.79741e-11
-3.82918e-11
-2.20771e-11
-3.88082e-11
-2.67099e-11
-3.92405e-11
-3.19073e-11
-3.95895e-11
-3.7704e-11
-3.98571e-11
-4.41329e-11
-4.00448e-11
-5.12287e-11
-4.01541e-11
-5.90186e-11
-4.0188e-11
-6.75367e-11
-4.01472e-11
-7.67967e-11
-4.00376e-11
-8.68272e-11
-3.9859e-11
-9.76178e-11
-3.96205e-11
-1.13774e-10
-3.93073e-11
-1.46751e-10
-3.90296e-11
-1.59693e-10
-3.87678e-11
-1.73658e-10
-3.88419e-11
-1.81871e-10
-4.99726e-11
-1.23618e-10
-1.08417e-10
2.03252e-11
-1.71124e-10
1.86437e-10
-1.52668e-10
3.52088e-10
-1.43813e-10
4.92519e-10
-1.13379e-10
6.23687e-10
-8.78403e-11
7.46911e-10
-6.53619e-11
8.72482e-10
-5.16596e-11
9.84051e-10
-3.30716e-11
-2.12111e-11
1.08926e-09
1.3715e-13
-1.49733e-12
5.64259e-13
-4.41102e-12
1.25794e-12
-7.20945e-12
2.17693e-12
-9.87645e-12
3.28197e-12
-1.24128e-11
4.53528e-12
-1.48191e-11
5.90057e-12
-1.7096e-11
7.34245e-12
-1.9244e-11
8.82663e-12
-2.12638e-11
1.03192e-11
-2.31556e-11
1.17871e-11
-2.492e-11
1.31968e-11
-2.6557e-11
1.45154e-11
-2.8067e-11
1.57091e-11
-2.94495e-11
1.67442e-11
-3.07049e-11
1.75852e-11
-3.18321e-11
1.81966e-11
-3.28312e-11
1.85402e-11
-3.37004e-11
1.85775e-11
-3.44397e-11
1.82658e-11
-3.50462e-11
1.75626e-11
-3.55202e-11
1.64192e-11
-3.5857e-11
1.47873e-11
-3.60574e-11
1.26101e-11
-3.61146e-11
9.83241e-12
-3.60305e-11
6.38665e-12
-3.57948e-11
2.20885e-12
-3.54117e-11
-2.78224e-12
-3.4866e-11
-8.66116e-12
-3.41658e-11
-1.55267e-11
-3.32886e-11
-2.34659e-11
-3.22488e-11
-3.26004e-11
-3.10128e-11
-4.3032e-11
-2.9606e-11
-5.49117e-11
-2.79793e-11
-6.83533e-11
-2.61789e-11
-8.37038e-11
-2.4127e-11
-1.27958e-10
-2.16463e-11
-1.48028e-10
-1.93321e-11
-1.69011e-10
-1.78588e-11
-1.98516e-10
-2.04675e-11
-8.71829e-11
-2.19687e-10
-1.19367e-10
-1.3894e-10
-8.72102e-11
-1.84824e-10
3.42228e-11
-2.65246e-10
1.40527e-10
-2.19684e-10
2.3755e-10
-1.84863e-10
3.09029e-10
-1.36841e-10
3.6705e-10
-1.0968e-10
4.27326e-10
-9.33479e-11
-8.01249e-11
4.8624e-10
2.99671e-13
-1.797e-12
1.00507e-12
-5.11642e-12
2.02077e-12
-8.22514e-12
3.29999e-12
-1.11557e-11
4.79846e-12
-1.39113e-11
6.47446e-12
-1.64951e-11
8.28871e-12
-1.89102e-11
1.02042e-11
-2.11595e-11
1.21861e-11
-2.32456e-11
1.42011e-11
-2.51706e-11
1.62177e-11
-2.69366e-11
1.82054e-11
-2.85447e-11
2.01348e-11
-2.99963e-11
2.19768e-11
-3.12915e-11
2.37025e-11
-3.24307e-11
2.52829e-11
-3.34125e-11
2.6688e-11
-3.42363e-11
2.78868e-11
-3.48992e-11
2.88465e-11
-3.53994e-11
2.95322e-11
-3.57319e-11
2.99058e-11
-3.58938e-11
2.99262e-11
-3.58774e-11
2.95475e-11
-3.56788e-11
2.87197e-11
-3.52867e-11
2.73858e-11
-3.46966e-11
2.54837e-11
-3.38926e-11
2.29416e-11
-3.28696e-11
1.96811e-11
-3.16055e-11
1.56114e-11
-3.00961e-11
1.06328e-11
-2.831e-11
4.62956e-12
-2.62456e-11
-2.52448e-12
-2.38587e-11
-1.09773e-11
-2.11532e-11
-2.08908e-11
-1.80658e-11
-3.24595e-11
-1.46101e-11
-4.58902e-11
-1.06963e-11
-6.11079e-11
-6.46121e-12
-9.93969e-11
-1.73403e-12
-1.32144e-10
7.59354e-12
-1.57375e-10
4.69944e-12
-3.60098e-10
-1.69646e-11
-5.11389e-10
1.23711e-11
-4.72827e-10
-2.23217e-10
-6.53604e-10
-8.44687e-11
-7.2059e-10
-1.52697e-10
-7.9908e-10
-1.06374e-10
-8.74479e-10
-6.14415e-11
-8.99603e-10
-8.45564e-11
-8.92375e-10
-1.00577e-10
-9.43032e-11
-8.78196e-10
-8.25446e-14
-1.71445e-12
-1.82331e-13
-5.01663e-12
-2.84353e-13
-8.12312e-12
-4.38616e-13
-1.10014e-11
-6.87619e-13
-1.36623e-11
-1.06698e-12
-1.61157e-11
-1.60613e-12
-1.83711e-11
-2.32862e-12
-2.0437e-11
-3.25265e-12
-2.23216e-11
-4.39118e-12
-2.40321e-11
-5.75263e-12
-2.55751e-11
-7.34078e-12
-2.69566e-11
-9.1556e-12
-2.81815e-11
-1.11928e-11
-2.92543e-11
-1.34452e-11
-3.01783e-11
-1.59011e-11
-3.09565e-11
-1.85469e-11
-3.15905e-11
-2.13644e-11
-3.20817e-11
-2.43338e-11
-3.243e-11
-2.74304e-11
-3.26353e-11
-3.06285e-11
-3.26957e-11
-3.38963e-11
-3.26096e-11
-3.72019e-11
-3.23731e-11
-4.05053e-11
-3.19833e-11
-4.37676e-11
-3.14343e-11
-4.69386e-11
-3.07216e-11
-4.9971e-11
-2.98373e-11
-5.28008e-11
-2.87757e-11
-5.53703e-11
-2.75265e-11
-5.75973e-11
-2.6083e-11
-5.94105e-11
-2.44323e-11
-6.07022e-11
-2.25671e-11
-6.13839e-11
-2.04716e-11
-6.13111e-11
-1.81386e-11
-6.03718e-11
-1.55494e-11
-5.83719e-11
-1.26962e-11
-5.52816e-11
-9.5515e-12
-5.0913e-11
-6.10268e-12
-4.12289e-11
-3.6136e-12
-4.38014e-11
-1.08565e-12
-6.62123e-11
1.478e-12
-6.15525e-11
7.68618e-12
-2.75559e-10
-9.21024e-12
-3.70167e-10
1.01405e-11
-4.58105e-10
-6.47562e-11
-6.65163e-10
1.00694e-10
-6.57487e-10
-6.90583e-11
-6.89628e-10
-5.19636e-11
-7.33637e-10
-5.65677e-11
-2.18811e-11
-8.06059e-10
4.51888e-13
-2.16634e-12
1.23558e-12
-5.80033e-12
2.03805e-12
-8.92558e-12
2.69574e-12
-1.16591e-11
3.08537e-12
-1.40519e-11
3.11633e-12
-1.61467e-11
2.72541e-12
-1.79801e-11
1.87213e-12
-1.95837e-11
5.34999e-13
-2.09844e-11
-1.29184e-12
-2.22052e-11
-3.6011e-12
-2.32658e-11
-6.37469e-12
-2.4183e-11
-9.58522e-12
-2.4971e-11
-1.31977e-11
-2.56418e-11
-1.71703e-11
-2.62057e-11
-2.14558e-11
-2.6671e-11
-2.60015e-11
-2.70448e-11
-3.07505e-11
-2.73327e-11
-3.56415e-11
-2.7539e-11
-4.06095e-11
-2.76672e-11
-4.55857e-11
-2.77196e-11
-5.04977e-11
-2.76976e-11
-5.52693e-11
-2.76016e-11
-5.9821e-11
-2.74316e-11
-6.40693e-11
-2.7186e-11
-6.79274e-11
-2.68635e-11
-7.13041e-11
-2.64607e-11
-7.4105e-11
-2.59748e-11
-7.62313e-11
-2.54002e-11
-7.75811e-11
-2.47332e-11
-7.80484e-11
-2.3965e-11
-7.75241e-11
-2.30914e-11
-7.58964e-11
-2.20992e-11
-7.30512e-11
-2.09838e-11
-6.88746e-11
-1.97259e-11
-6.32497e-11
-1.83212e-11
-5.60597e-11
-1.67415e-11
-4.71766e-11
-1.49858e-11
-3.77791e-11
-1.30111e-11
-2.80607e-11
-1.0804e-11
-1.82568e-11
-8.47186e-12
-7.62022e-12
-6.66115e-12
-1.27666e-11
-4.12245e-12
1.70831e-12
-4.34064e-12
-6.58333e-11
2.78545e-12
4.51066e-11
-1.02441e-11
-3.20984e-11
8.17547e-12
-8.4934e-11
1.34246e-12
-2.64667e-10
1.23166e-10
5.15616e-11
-3.3811e-10
1.72337e-11
3.08333e-11
4.13077e-11
4.90486e-11
5.43967e-11
5.76501e-11
5.90699e-11
5.88862e-11
5.73017e-11
5.44965e-11
5.06307e-11
4.58477e-11
4.02767e-11
3.40349e-11
2.72292e-11
1.99581e-11
1.23133e-11
4.38061e-12
-3.75841e-12
-1.20256e-11
-2.03452e-11
-2.86428e-11
-3.68443e-11
-4.48759e-11
-5.26619e-11
-6.01254e-11
-6.71861e-11
-7.37609e-11
-7.97611e-11
-8.50943e-11
-8.96594e-11
-9.33508e-11
-9.605e-11
-9.76338e-11
-9.79597e-11
-9.68809e-11
-9.42224e-11
-8.98082e-11
-8.34193e-11
-7.48234e-11
-6.38952e-11
-5.11564e-11
-3.58802e-11
-2.15826e-11
-5.66553e-13
8.31615e-12
3.18337e-11
5.14356e-11
1.807e-10
1.80812e-10
2.30446e-10
-4.28629e-11
2.52305e-10
-4.49434e-11
2.76992e-10
-5.14514e-11
3.16252e-10
-7.84732e-11
3.91127e-10
-1.40032e-10
3.94149e-10
-8.52651e-11
4.37346e-10
-9.07367e-11
4.8243e-10
-8.80757e-11
5.222e-10
-8.09013e-11
5.58434e-10
-7.27948e-11
5.92356e-10
-6.4508e-11
6.25593e-10
-5.65053e-11
6.54914e-10
-4.93218e-11
6.67934e-10
-4.19287e-11
6.68618e-10
-3.56218e-11
6.67951e-10
-2.88777e-11
6.7827e-10
-2.17079e-11
7.06574e-10
-1.48041e-11
7.51702e-10
-8.734e-12
8.06783e-10
-9.35751e-13
8.70118e-10
6.05472e-12
9.39492e-10
1.29379e-11
1.0124e-09
2.03038e-11
1.08717e-09
2.77006e-11
1.16342e-09
3.40208e-11
1.24071e-09
4.0343e-11
1.31924e-09
4.57817e-11
1.39725e-09
5.14417e-11
1.47348e-09
5.6831e-11
1.55061e-09
6.21777e-11
1.6288e-09
6.72832e-11
1.70502e-09
7.22898e-11
1.78092e-09
7.56953e-11
1.85652e-09
7.87786e-11
1.9331e-09
8.16929e-11
2.00961e-09
8.45224e-11
2.09366e-09
8.58814e-11
2.17635e-09
9.10677e-11
2.25934e-09
9.50791e-11
2.34151e-09
9.86508e-11
2.42565e-09
1.01766e-10
2.51119e-09
1.04806e-10
2.59898e-09
1.07359e-10
2.68954e-09
1.09579e-10
2.78315e-09
1.11566e-10
2.88045e-09
1.13496e-10
2.98143e-09
1.14363e-10
3.08786e-09
1.14252e-10
3.19296e-09
1.16529e-10
1.16745e-10
3.30123e-09
1.21011e-10
-3.67179e-11
1.16058e-10
-3.99904e-11
1.08063e-10
-4.34563e-11
7.5092e-11
-4.55023e-11
-1.75318e-11
-4.74087e-11
-4.88192e-11
-5.39777e-11
-7.99087e-11
-5.96472e-11
-1.13283e-10
-5.4701e-11
-1.45021e-10
-4.91636e-11
-1.70404e-10
-4.74124e-11
-1.85862e-10
-4.90498e-11
-1.91679e-10
-5.0688e-11
-1.89075e-10
-5.19255e-11
-1.78507e-10
-5.24971e-11
-1.61983e-10
-5.2146e-11
-1.39844e-10
-5.10159e-11
-1.1229e-10
-4.9262e-11
-7.99679e-11
-4.71265e-11
-4.43926e-11
-4.43093e-11
-4.10662e-12
-4.12218e-11
3.96833e-11
-3.77352e-11
8.65915e-11
-3.39703e-11
1.36687e-10
-2.97921e-11
1.90025e-10
-2.56366e-11
2.45477e-10
-2.14311e-11
3.03255e-10
-1.74355e-11
3.63089e-10
-1.40525e-11
4.24918e-10
-1.03867e-11
4.88346e-10
-6.5972e-12
5.53625e-10
-3.10174e-12
6.20556e-10
3.51864e-13
6.89281e-10
3.56517e-12
7.57725e-10
7.2513e-12
8.25724e-10
1.07797e-11
8.94011e-10
1.34057e-11
9.62913e-10
1.56209e-11
1.03132e-09
1.74733e-11
1.10138e-09
2.10047e-11
1.17202e-09
2.44409e-11
1.2434e-09
2.72707e-11
1.31556e-09
2.96062e-11
1.38879e-09
3.15783e-11
1.46305e-09
3.30939e-11
1.53852e-09
3.41182e-11
1.61565e-09
3.44362e-11
1.69392e-09
3.52204e-11
1.76945e-09
3.88373e-11
1.843e-09
4.06992e-11
1.91739e-09
4.21383e-11
4.27012e-11
1.99143e-09
1.15298e-10
-4.4054e-11
1.20023e-10
-4.47158e-11
1.21706e-10
-4.51391e-11
1.21459e-10
-4.52557e-11
1.19106e-10
-4.50554e-11
1.09845e-10
-4.47168e-11
9.46677e-11
-4.44696e-11
8.45229e-11
-4.45562e-11
8.01992e-11
-4.48398e-11
7.80613e-11
-4.52745e-11
7.50518e-11
-4.60403e-11
7.19586e-11
-4.75947e-11
6.95939e-11
-4.95609e-11
6.81449e-11
-5.1048e-11
6.76949e-11
-5.16961e-11
6.83233e-11
-5.16442e-11
7.00699e-11
-5.10085e-11
7.27931e-11
-4.98497e-11
7.67447e-11
-4.8261e-11
8.17886e-11
-4.62656e-11
8.80555e-11
-4.40021e-11
9.56605e-11
-4.15753e-11
1.04887e-10
-3.90186e-11
1.15573e-10
-3.63221e-11
1.27743e-10
-3.36017e-11
1.41146e-10
-3.08379e-11
1.55192e-10
-2.80991e-11
1.70193e-10
-2.53871e-11
1.86421e-10
-2.28253e-11
2.03657e-10
-2.03381e-11
2.22058e-10
-1.80489e-11
2.41265e-10
-1.56423e-11
2.61593e-10
-1.30762e-11
2.82858e-10
-1.04854e-11
3.04081e-10
-7.81707e-12
3.2526e-10
-5.55792e-12
3.46412e-10
-3.67868e-12
3.69382e-10
-1.9656e-12
3.93817e-10
6.07934e-15
4.19602e-10
1.48572e-12
4.46133e-10
3.07443e-12
4.73018e-10
4.69393e-12
4.99982e-10
6.12922e-12
5.26792e-10
7.30841e-12
5.52768e-10
8.4601e-12
5.77723e-10
1.02655e-11
6.0448e-10
1.20801e-11
6.3102e-10
1.416e-11
6.57271e-10
1.5887e-11
1.74229e-11
6.82549e-10
7.41318e-11
-4.92121e-11
7.84422e-11
-4.93195e-11
8.15175e-11
-4.93237e-11
8.54987e-11
-4.92368e-11
8.95342e-11
-4.9091e-11
9.37148e-11
-4.88974e-11
9.7934e-11
-4.86887e-11
1.01906e-10
-4.85285e-11
1.05448e-10
-4.83815e-11
1.08472e-10
-4.82983e-11
1.10905e-10
-4.84734e-11
1.12643e-10
-4.93328e-11
1.13665e-10
-5.05829e-11
1.14068e-10
-5.14516e-11
1.13075e-10
-5.07029e-11
1.11192e-10
-4.97606e-11
1.08693e-10
-4.85099e-11
1.05988e-10
-4.71444e-11
1.0329e-10
-4.5563e-11
1.00758e-10
-4.37339e-11
9.87676e-11
-4.20117e-11
9.72024e-11
-4.00101e-11
9.59376e-11
-3.77538e-11
9.51075e-11
-3.5492e-11
9.46359e-11
-3.31302e-11
9.47088e-11
-3.09108e-11
9.49738e-11
-2.8364e-11
9.59061e-11
-2.63195e-11
9.7334e-11
-2.42532e-11
1.00134e-10
-2.3138e-11
1.03576e-10
-2.1491e-11