/*--------------------------------*- C++ -*----------------------------------*\
| =========                 |                                                 |
| \\      /  F ield         | OpenFOAM: The Open Source CFD Toolbox           |
|  \\    /   O peration     | Version:  2.4.0                                 |
|   \\  /    A nd           | Web:      www.OpenFOAM.org                      |
|    \\/     M anipulation  |                                                 |
\*---------------------------------------------------------------------------*/
FoamFile
{
    version     2.0;
    format      ascii;
    class       volScalarField;
    location    "1.9";
    object      T;
}
// * * * * * * * * * * * * * * * * * * * * * * * * * * * * * * * * * * * * * //

dimensions      [0 0 0 1 0 0 0];

internalField   nonuniform List<scalar> 
8000
(
293.1
293.302
293.504
293.706
293.909
294.113
294.315
294.517
294.716
294.913
295.105
295.292
295.473
295.647
295.813
295.971
296.12
296.26
296.392
296.514
296.628
296.733
296.831
296.922
297.006
297.085
297.158
297.227
297.291
297.353
297.411
297.467
297.522
297.575
297.626
297.677
297.726
297.774
297.822
297.871
297.919
297.96
297.987
298
298
298
298
298
297.999
297.999
293.106
293.319
293.533
293.748
293.965
294.182
294.398
294.614
294.827
295.037
295.241
295.44
295.631
295.813
295.987
296.15
296.303
296.446
296.578
296.7
296.812
296.915
297.009
297.095
297.173
297.245
297.311
297.371
297.426
297.478
297.526
297.57
297.612
297.652
297.691
297.727
297.762
297.795
297.827
297.857
297.885
297.912
297.936
297.958
297.978
298
298
298
298
298
293.113
293.34
293.568
293.796
294.025
294.254
294.482
294.707
294.93
295.147
295.358
295.561
295.756
295.941
296.116
296.28
296.432
296.574
296.704
296.824
296.933
297.032
297.122
297.204
297.278
297.346
297.407
297.462
297.513
297.559
297.601
297.639
297.675
297.708
297.738
297.766
297.793
297.817
297.84
297.862
297.882
297.901
297.918
297.935
297.95
297.965
297.979
297.992
298
298
293.116
293.349
293.581
293.814
294.046
294.276
294.505
294.729
294.95
295.164
295.372
295.571
295.762
295.943
296.113
296.273
296.422
296.559
296.687
296.803
296.91
297.008
297.096
297.177
297.25
297.317
297.377
297.432
297.482
297.528
297.57
297.608
297.643
297.676
297.706
297.734
297.76
297.784
297.806
297.828
297.848
297.867
297.885
297.901
297.918
297.933
297.948
297.962
297.976
297.989
293.117
293.35
293.582
293.814
294.043
294.271
294.495
294.714
294.928
295.136
295.337
295.529
295.712
295.886
296.05
296.203
296.347
296.48
296.603
296.716
296.821
296.917
297.004
297.085
297.158
297.225
297.287
297.343
297.395
297.443
297.487
297.528
297.566
297.602
297.635
297.666
297.695
297.723
297.749
297.774
297.798
297.821
297.842
297.863
297.882
297.9
297.918
297.934
297.95
297.964
293.114
293.341
293.567
293.791
294.013
294.232
294.446
294.656
294.86
295.057
295.247
295.429
295.602
295.767
295.922
296.068
296.205
296.333
296.452
296.563
296.665
296.76
296.848
296.929
297.004
297.073
297.137
297.197
297.253
297.305
297.354
297.4
297.444
297.485
297.525
297.562
297.598
297.632
297.666
297.698
297.728
297.758
297.787
297.814
297.84
297.865
297.889
297.911
297.931
297.949
293.109
293.327
293.543
293.758
293.969
294.176
294.379
294.577
294.768
294.953
295.131
295.301
295.463
295.617
295.763
295.901
296.031
296.153
296.267
296.374
296.474
296.567
296.655
296.737
296.814
296.886
296.954
297.018
297.079
297.137
297.193
297.246
297.297
297.346
297.393
297.44
297.485
297.529
297.572
297.614
297.655
297.695
297.735
297.773
297.809
297.845
297.878
297.909
297.937
297.963
293.103
293.307
293.511
293.711
293.909
294.103
294.291
294.475
294.653
294.824
294.989
295.147
295.297
295.441
295.578
295.707
295.83
295.947
296.057
296.161
296.259
296.353
296.441
296.525
296.605
296.682
296.755
296.825
296.893
296.958
297.022
297.084
297.144
297.204
297.262
297.319
297.376
297.433
297.488
297.544
297.598
297.653
297.706
297.758
297.808
297.856
297.902
297.944
297.984
298
293.096
293.286
293.475
293.662
293.845
294.025
294.2
294.369
294.534
294.692
294.845
294.992
295.132
295.267
295.396
295.519
295.636
295.749
295.856
295.959
296.058
296.152
296.243
296.331
296.416
296.498
296.578
296.656
296.732
296.806
296.88
296.952
297.024
297.096
297.167
297.237
297.308
297.379
297.45
297.522
297.593
297.664
297.734
297.802
297.868
297.932
297.995
298
298
298
293.089
293.265
293.44
293.613
293.782
293.948
294.11
294.267
294.42
294.568
294.71
294.848
294.981
295.109
295.232
295.351
295.466
295.577
295.684
295.788
295.889
295.987
296.083
296.176
296.268
296.358
296.446
296.533
296.619
296.704
296.789
296.874
296.959
297.044
297.13
297.216
297.303
297.391
297.481
297.571
297.663
297.754
297.844
297.938
297.999
298
298
298
298
298
293.082
293.246
293.408
293.569
293.726
293.881
294.032
294.179
294.322
294.462
294.597
294.729
294.857
294.982
295.103
295.221
295.336
295.448
295.558
295.666
295.771
295.875
295.977
296.078
296.177
296.276
296.374
296.472
296.569
296.666
296.763
296.861
296.96
297.061
297.162
297.266
297.371
297.479
297.59
297.703
297.818
297.935
297.999
298
298
298
298
298
298
298
293.077
293.231
293.383
293.534
293.682
293.828
293.972
294.113
294.25
294.385
294.517
294.647
294.774
294.898
295.021
295.141
295.259
295.376
295.491
295.604
295.716
295.827
295.937
296.046
296.155
296.263
296.371
296.478
296.586
296.695
296.804
296.915
297.028
297.143
297.26
297.381
297.505
297.633
297.765
297.899
297.999
298
298
298
298
298
298
298
298.001
298.001
293.074
293.221
293.367
293.512
293.656
293.798
293.938
294.077
294.214
294.349
294.482
294.613
294.743
294.871
294.998
295.124
295.248
295.371
295.493
295.613
295.733
295.852
295.969
296.086
296.203
296.319
296.436
296.552
296.669
296.787
296.907
297.029
297.153
297.281
297.413
297.55
297.692
297.844
297.999
298
298
298
298
298
298
298
298.001
298.001
298.001
298.001
293.072
293.217
293.362
293.505
293.649
293.791
293.932
294.073
294.213
294.351
294.489
294.626
294.762
294.896
295.03
295.163
295.294
295.424
295.553
295.681
295.808
295.933
296.057
296.18
296.303
296.424
296.546
296.668
296.791
296.916
297.043
297.172
297.306
297.444
297.587
297.736
297.889
297.999
298
298
298
298
298
298.001
298.001
298.001
298.001
298.002
298.002
298.002
293.074
293.221
293.369
293.516
293.664
293.812
293.959
294.107
294.254
294.401
294.547
294.692
294.837
294.981
295.123
295.264
295.403
295.54
295.676
295.809
295.941
296.07
296.198
296.323
296.447
296.57
296.692
296.814
296.937
297.061
297.188
297.318
297.453
297.592
297.735
297.877
297.999
297.999
298
298
298.001
298.002
298.003
298.003
298.004
298.005
298.005
298.006
298.007
298.007
293.078
293.233
293.389
293.546
293.702
293.859
294.016
294.173
294.33
294.486
294.641
294.795
294.948
295.099
295.247
295.394
295.537
295.678
295.815
295.949
296.079
296.206
296.328
296.448
296.564
296.677
296.788
296.897
297.006
297.115
297.225
297.339
297.458
297.583
297.716
297.857
297.999
298
298
298
298
298.002
298.004
298.007
298.009
298.011
298.013
298.015
298.017
298.019
293.086
293.257
293.43
293.603
293.776
293.95
294.124
294.297
294.47
294.641
294.811
294.978
295.143
295.305
295.463
295.618
295.768
295.914
296.055
296.19
296.32
296.444
296.562
296.674
296.779
296.879
296.974
297.063
297.149
297.231
297.312
297.393
297.475
297.56
297.649
297.742
297.841
297.951
297.999
298
298
298
298.001
298.006
298.011
298.015
298.02
298.024
298.028
298.032
293.1
293.299
293.5
293.7
293.9
294.1
294.298
294.494
294.687
294.878
295.065
295.249
295.428
295.604
295.774
295.94
296.1
296.254
296.401
296.541
296.673
296.798
296.913
297.021
297.12
297.21
297.293
297.368
297.437
297.499
297.557
297.61
297.66
297.707
297.753
297.798
297.841
297.884
297.929
297.975
298
298
298
298
298
298
298
298.002
298.015
298.027
293.118
293.352
293.585
293.814
294.039
294.258
294.472
294.68
294.883
295.081
295.275
295.463
295.647
295.826
296.001
296.17
296.333
296.489
296.639
296.78
296.912
297.034
297.147
297.25
297.342
297.425
297.499
297.564
297.622
297.672
297.716
297.754
297.788
297.818
297.845
297.87
297.893
297.916
297.937
297.959
297.98
298
298
298
298
298
298
298.001
298.015
298.028
293.195
293.525
293.813
294.071
294.306
294.525
294.732
294.929
295.119
295.303
295.482
295.658
295.83
295.999
296.165
296.328
296.486
296.641
296.789
296.93
297.06
297.18
297.289
297.387
297.475
297.553
297.621
297.68
297.731
297.774
297.811
297.842
297.868
297.89
297.909
297.925
297.938
297.95
297.96
297.969
297.977
297.984
297.991
297.998
298
298
298
298
298
298.003
297.999
297.999
297.999
297.999
297.999
297.998
297.998
297.998
297.998
297.998
297.998
297.998
297.998
297.998
297.998
297.997
297.997
297.997
297.997
297.997
297.997
297.997
297.997
297.997
297.997
297.997
297.997
297.997
297.997
297.997
297.997
297.997
297.997
297.997
297.997
297.997
297.997
297.997
297.997
297.997
297.997
297.997
297.997
297.997
297.997
297.997
297.997
297.998
297.998
297.998
298
298
297.999
297.999
297.999
297.999
297.998
297.998
297.998
297.998
297.998
297.997
297.997
297.997
297.997
297.997
297.997
297.997
297.997
297.996
297.996
297.996
297.996
297.996
297.996
297.996
297.996
297.996
297.996
297.996
297.996
297.996
297.996
297.996
297.996
297.996
297.996
297.996
297.996
297.996
297.996
297.996
297.996
297.996
297.996
297.996
297.996
297.996
297.996
297.996
298
298
298
298
297.999
297.999
297.999
297.999
297.999
297.998
297.998
297.998
297.998
297.997
297.997
297.997
297.997
297.997
297.996
297.996
297.996
297.996
297.996
297.996
297.996
297.995
297.995
297.995
297.995
297.995
297.995
297.995
297.995
297.995
297.995
297.995
297.995
297.995
297.995
297.995
297.994
297.994
297.994
297.994
297.994
297.994
297.994
297.994
297.994
297.994
298
298
298
298
298
298
298
297.999
297.999
297.999
297.999
297.999
297.998
297.998
297.998
297.998
297.998
297.997
297.997
297.997
297.997
297.997
297.996
297.996
297.996
297.996
297.996
297.996
297.995
297.995
297.995
297.995
297.995
297.995
297.995
297.994
297.994
297.994
297.994
297.994
297.994
297.994
297.994
297.994
297.994
297.994
297.994
297.993
297.993
297.993
297.977
297.989
298
298
298
298
298
298
298
297.999
297.999
297.999
297.999
297.999
297.999
297.999
297.998
297.998
297.998
297.998
297.998
297.998
297.998
297.997
297.997
297.997
297.997
297.997
297.997
297.997
297.997
297.996
297.996
297.996
297.996
297.996
297.996
297.996
297.995
297.995
297.995
297.995
297.995
297.995
297.995
297.994
297.994
297.994
297.994
297.994
297.966
297.98
297.993
298
298
298
298
298
298
298
298
298
297.999
297.999
297.999
297.999
297.999
297.999
297.999
297.999
297.999
297.999
297.999
297.999
297.998
297.998
297.998
297.998
297.998
297.998
297.998
297.998
297.998
297.998
297.998
297.997
297.997
297.997
297.997
297.997
297.997
297.997
297.997
297.996
297.996
297.996
297.996
297.996
297.996
297.996
297.986
298
298
298
298
298
298
298
298
298
298
298
298
298
298
298
298
298
298
298
298
298
298
297.999
297.999
297.999
297.999
297.999
297.999
297.999
297.999
297.999
297.999
297.999
297.999
297.999
297.999
297.999
297.999
297.999
297.998
297.998
297.998
297.998
297.998
297.998
297.998
297.998
297.998
297.998
298
298
298
298
298
298
298
298
298
298
298
298
298
298
298
298
298
298
298
298
298
298
298
298
298
298
298
298
298
298
298
298
298
298
298
298
298
298
298
298
298
298
298
298
297.999
297.999
297.999
297.999
297.999
297.999
298
298
298
298
298
298
298
298
298
298.001
298.001
298.001
298.001
298.001
298.001
298.001
298.001
298.001
298.001
298.001
298.001
298.001
298.001
298.001
298.001
298.001
298.001
298.001
298.001
298.001
298.001
298.001
298.001
298.001
298.001
298.001
298.001
298.001
298.001
298.001
298.001
298.001
298.001
298.001
298.001
298.001
298.001
298.001
298.001
298.001
298
298
298
298
298
298.001
298.001
298.001
298.001
298.001
298.001
298.001
298.002
298.002
298.002
298.002
298.002
298.002
298.002
298.002
298.002
298.002
298.002
298.002
298.003
298.003
298.003
298.003
298.003
298.003
298.003
298.003
298.003
298.003
298.003
298.003
298.003
298.003
298.003
298.003
298.003
298.003
298.003
298.002
298.002
298.002
298.002
298.002
298.002
298.002
298
298.001
298.001
298.001
298.001
298.002
298.002
298.002
298.002
298.002
298.002
298.003
298.003
298.003
298.003
298.003
298.003
298.003
298.004
298.004
298.004
298.004
298.004
298.004
298.004
298.004
298.004
298.004
298.004
298.004
298.004
298.004
298.004
298.004
298.004
298.004
298.004
298.004
298.004
298.004
298.004
298.004
298.004
298.004
298.004
298.004
298.004
298.004
298.004
298.004
298.001
298.001
298.002
298.002
298.002
298.002
298.003
298.003
298.003
298.003
298.003
298.004
298.004
298.004
298.004
298.004
298.005
298.005
298.005
298.005
298.005
298.005
298.005
298.006
298.006
298.006
298.006
298.006
298.006
298.006
298.006
298.006
298.006
298.006
298.006
298.007
298.007
298.007
298.007
298.007
298.007
298.007
298.006
298.006
298.006
298.006
298.006
298.006
298.006
298.006
298.001
298.002
298.002
298.002
298.002
298.003
298.003
298.003
298.003
298.004
298.004
298.004
298.004
298.005
298.005
298.005
298.006
298.006
298.006
298.006
298.007
298.007
298.007
298.007
298.007
298.008
298.008
298.008
298.008
298.008
298.008
298.008
298.008
298.008
298.009
298.009
298.009
298.009
298.009
298.009
298.009
298.009
298.009
298.009
298.009
298.009
298.009
298.009
298.009
298.009
298.002
298.003
298.003
298.003
298.004
298.004
298.004
298.005
298.005
298.006
298.006
298.007
298.007
298.008
298.008
298.009
298.009
298.01
298.01
298.011
298.011
298.011
298.012
298.012
298.012
298.012
298.012
298.012
298.012
298.012
298.012
298.012
298.012
298.012
298.012
298.012
298.012
298.012
298.012
298.012
298.012
298.012
298.012
298.012
298.012
298.012
298.012
298.012
298.011
298.011
298.008
298.009
298.009
298.01
298.011
298.012
298.013
298.014
298.015
298.016
298.016
298.017
298.018
298.019
298.02
298.02
298.021
298.021
298.022
298.022
298.022
298.022
298.022
298.022
298.022
298.022
298.022
298.022
298.021
298.021
298.021
298.021
298.02
298.02
298.02
298.019
298.019
298.019
298.019
298.018
298.018
298.018
298.017
298.017
298.017
298.016
298.016
298.016
298.015
298.015
298.021
298.023
298.025
298.026
298.028
298.029
298.031
298.032
298.033
298.034
298.035
298.035
298.036
298.036
298.036
298.036
298.036
298.036
298.036
298.035
298.035
298.034
298.034
298.033
298.032
298.031
298.031
298.03
298.029
298.028
298.027
298.027
298.026
298.025
298.024
298.024
298.023
298.022
298.022
298.021
298.02
298.02
298.019
298.018
298.018
298.017
298.017
298.016
298.016
298.015
298.036
298.04
298.043
298.046
298.048
298.05
298.052
298.053
298.053
298.054
298.054
298.053
298.053
298.052
298.051
298.05
298.049
298.048
298.046
298.045
298.043
298.042
298.04
298.039
298.037
298.036
298.034
298.033
298.031
298.03
298.029
298.028
298.026
298.025
298.024
298.023
298.022
298.021
298.021
298.02
298.019
298.018
298.018
298.017
298.016
298.016
298.015
298.015
298.014
298.014
298.037
298.046
298.054
298.06
298.066
298.07
298.074
298.076
298.078
298.08
298.08
298.08
298.08
298.079
298.078
298.077
298.075
298.073
298.071
298.069
298.067
298.065
298.062
298.06
298.057
298.055
298.052
298.05
298.048
298.045
298.043
298.041
298.039
298.037
298.035
298.034
298.032
298.03
298.029
298.028
298.026
298.025
298.024
298.023
298.022
298.021
298.02
298.019
298.018
298.018
298.041
298.053
298.064
298.073
298.081
298.089
298.095
298.1
298.104
298.108
298.11
298.112
298.114
298.115
298.115
298.115
298.114
298.113
298.111
298.109
298.107
298.104
298.101
298.098
298.095
298.092
298.088
298.085
298.081
298.078
298.074
298.071
298.068
298.064
298.061
298.058
298.055
298.052
298.049
298.047
298.044
298.042
298.039
298.037
298.035
298.033
298.031
298.03
298.028
298.027
298.013
298.023
298.033
298.042
298.052
298.061
298.07
298.079
298.087
298.095
298.103
298.11
298.116
298.122
298.127
298.131
298.134
298.136
298.138
298.139
298.139
298.139
298.137
298.136
298.133
298.13
298.127
298.123
298.119
298.115
298.111
298.106
298.101
298.097
298.092
298.087
298.083
298.078
298.074
298.07
298.066
298.062
298.058
298.055
298.051
298.048
298.045
298.042
298.04
298.037
297.998
297.998
297.998
297.998
297.998
297.998
297.998
297.998
297.998
297.998
297.998
297.998
297.998
297.998
297.998
297.998
297.998
297.998
297.998
297.998
297.998
297.998
297.998
297.998
297.998
297.998
297.998
297.998
297.998
297.998
297.997
297.997
297.997
297.997
297.997
297.997
297.997
297.997
297.997
297.997
297.997
297.997
297.997
297.997
297.997
297.997
297.997
297.997
297.997
297.997
297.997
297.997
297.997
297.997
297.997
297.997
297.997
297.997
297.997
297.997
297.997
297.997
297.997
297.997
297.997
297.997
297.997
297.997
297.997
297.997
297.997
297.997
297.997
297.997
297.997
297.997
297.997
297.997
297.997
297.997
297.997
297.997
297.997
297.997
297.997
297.997
297.997
297.997
297.997
297.997
297.997
297.997
297.997
297.997
297.997
297.997
297.997
297.997
297.997
297.997
297.997
297.997
297.996
297.996
297.996
297.996
297.996
297.996
297.996
297.996
297.996
297.996
297.996
297.996
297.996
297.995
297.995
297.995
297.995
297.995
297.995
297.994
297.994
297.994
297.994
297.994
297.994
297.993
297.993
297.993
297.993
297.993
297.993
297.993
297.993
297.993
297.993
297.993
297.993
297.993
297.993
297.993
297.993
297.993
297.993
297.994
297.994
297.994
297.994
297.994
297.994
297.995
297.995
297.995
297.995
297.995
297.996
297.996
297.996
297.996
297.996
297.997
297.997
297.997
297.997
297.997
297.998
297.998
297.998
297.998
297.998
297.998
297.999
297.999
297.999
297.999
297.999
297.999
297.999
297.999
297.999
297.999
297.999
298
298
298
298
298
298
298
298
298
298
298
298
298
298
298
298
298
298
298
298
298
298
298
298
298
298
298
298
298
298
298
298
298
298
298
298
298
298
298
298
298
298
298
298
298
298
298
298
298
298
298
298
298
298
298
298
298
298
298
298
298
298
298
298
298
298
298
298
298
298
298
298
298
298
298
298
298
298
298
298
298
298
298
298
298
298
298
298
298
298
298
298
298
298
298
298
298
298
298
298
298
298
298
298
298
298
298
298
298
298
298
298
298
298
298
298
298
297.996
297.996
297.996
297.996
297.996
297.996
297.996
297.996
297.996
297.996
297.996
297.996
297.996
297.996
297.996
297.996
297.996
297.996
297.996
297.996
297.996
297.996
297.996
297.996
297.996
297.996
297.996
297.996
297.996
297.996
297.996
297.996
297.996
297.996
297.996
297.996
297.996
297.996
297.996
297.996
297.996
297.996
297.996
297.996
297.996
297.996
297.996
297.996
297.996
297.996
297.996
297.996
297.996
297.996
297.996
297.996
297.996
297.996
297.996
297.996
297.996
297.996
297.996
297.996
297.996
297.996
297.996
297.996
297.996
297.996
297.996
297.996
297.996
297.995
297.995
297.995
297.995
297.995
297.995
297.995
297.995
297.995
297.995
297.995
297.995
297.995
297.995
297.995
297.995
297.995
297.995
297.995
297.995
297.995
297.995
297.995
297.994
297.994
297.994
297.994
297.994
297.994
297.994
297.994
297.994
297.994
297.994
297.994
297.994
297.993
297.993
297.993
297.993
297.993
297.993
297.993
297.993
297.993
297.992
297.992
297.992
297.992
297.992
297.992
297.992
297.992
297.992
297.992
297.992
297.992
297.992
297.992
297.993
297.993
297.993
297.993
297.993
297.993
297.993
297.993
297.994
297.994
297.994
297.994
297.994
297.995
297.995
297.995
297.995
297.995
297.996
297.996
297.996
297.996
297.996
297.997
297.997
297.997
297.997
297.997
297.998
297.998
297.998
297.998
297.998
297.998
297.999
297.999
297.999
297.999
297.999
297.999
297.999
297.999
297.999
297.999
297.999
298
298
298
298
298
298
298
298
298
298
298
298
298
298
298
298
298
298
298
298
298
298
298
298
298
298
298
298
298
298
298
298
298
298
298
298
298
298
298
298
298
298
298
298
298
298
298
298
298
298
298
298
298
298
298
298
298
298
298
298
298
298
298
298
298
298
298
298
298
298
298
298
298
298
298
298
298
298
298
298
298
298
298
298
298
298
298
298
298
298
298
298
298
298
298
298
298
298
298
298
298
298
298
298
298
298
298
298
298
298
298
298
298
298
298
298
298
298
298
298
298
298
298
297.994
297.994
297.994
297.994
297.994
297.994
297.994
297.994
297.994
297.994
297.994
297.994
297.994
297.994
297.994
297.994
297.994
297.994
297.994
297.994
297.994
297.994
297.994
297.994
297.994
297.994
297.994
297.994
297.994
297.994
297.994
297.994
297.994
297.994
297.994
297.994
297.994
297.994
297.994
297.994
297.994
297.994
297.994
297.994
297.994
297.994
297.994
297.994
297.994
297.994
297.994
297.994
297.994
297.994
297.994
297.994
297.994
297.994
297.994
297.994
297.994
297.994
297.994
297.994
297.994
297.993
297.993
297.993
297.993
297.993
297.993
297.993
297.993
297.993
297.993
297.993
297.993
297.993
297.993
297.993
297.993
297.993
297.993
297.993
297.993
297.993
297.993
297.993
297.993
297.993
297.993
297.992
297.992
297.992
297.992
297.992
297.992
297.992
297.992
297.992
297.992
297.992
297.992
297.992
297.992
297.992
297.992
297.992
297.992
297.992
297.992
297.992
297.992
297.992
297.992
297.992
297.992
297.992
297.992
297.992
297.992
297.992
297.992
297.992
297.992
297.992
297.993
297.993
297.993
297.993
297.993
297.993
297.994
297.994
297.994
297.994
297.994
297.994
297.995
297.995
297.995
297.995
297.995
297.996
297.996
297.996
297.996
297.996
297.997
297.997
297.997
297.997
297.997
297.998
297.998
297.998
297.998
297.998
297.998
297.998
297.999
297.999
297.999
297.999
297.999
297.999
297.999
297.999
297.999
297.999
298
298
298
298
298
298
298
298
298
298
298
298
298
298
298
298
298
298
298
298
298
298
298
298
298
298
298
298
298
298
298
298
298
298
298
298
298
298
298
298
298
298
298
298
298
298
298
298
298
298
298
298
298
298
298
298
298
298
298
298
298
298
298
298
298
298
298
298
298
298
298
298
298
298
298
298
298
298
298
298
298
298
298
298
298
298
298
298
298
298
298
298
298
298
298
298
298
298
298
298
298
298
298
298
298
298
298
298
298
298
298
298
298
298
298
298
298
298
298
298
298
298
298
298
298
298
298
298
298
298
297.993
297.993
297.993
297.993
297.993
297.993
297.993
297.993
297.993
297.993
297.993
297.993
297.993
297.993
297.993
297.993
297.993
297.993
297.993
297.993
297.993
297.993
297.993
297.993
297.993
297.993
297.993
297.993
297.993
297.993
297.993
297.993
297.993
297.993
297.993
297.993
297.993
297.992
297.992
297.992
297.992
297.992
297.992
297.992
297.992
297.992
297.992
297.992
297.992
297.992
297.992
297.992
297.992
297.992
297.992
297.992
297.992
297.992
297.992
297.992
297.992
297.992
297.992
297.992
297.992
297.992
297.992
297.992
297.992
297.992
297.992
297.992
297.991
297.991
297.991
297.991
297.991
297.991
297.991
297.991
297.991
297.991
297.991
297.991
297.991
297.991
297.991
297.991
297.991
297.991
297.991
297.991
297.991
297.991
297.991
297.991
297.991
297.992
297.992
297.992
297.992
297.992
297.992
297.992
297.992
297.992
297.992
297.992
297.992
297.992
297.992
297.992
297.993
297.993
297.993
297.993
297.993
297.993
297.993
297.993
297.994
297.994
297.994
297.994
297.994
297.994
297.994
297.995
297.995
297.995
297.995
297.995
297.996
297.996
297.996
297.996
297.996
297.996
297.997
297.997
297.997
297.997
297.997
297.997
297.998
297.998
297.998
297.998
297.998
297.998
297.998
297.999
297.999
297.999
297.999
297.999
297.999
297.999
297.999
297.999
297.999
297.999
298
298
298
298
298
298
298
298
298
298
298
298
298
298
298
298
298
298
298
298
298
298
298
298
298
298
298
298
298
298
298
298
298
298
298
298
298
298
298
298
298
298
298
298
298
298
298
298
298
298
298
298
298
298
298
298
298
298
298
298
298
298
298
298
298
298
298
298
298
298
298
298
298
298
298
298
298
298
298
298
298
298
298
298
298
298
298
298
298
298
298
298
298
298
298
298
298
298
298
298
298
298
298
298
298
298
298
298
298
298
298
298
298
298
298
298
298
298
298
298
298
298
298
298
298
298
298
298
298
298
298
298
298
298
298
298
298
298
297.994
297.994
297.994
297.994
297.994
297.994
297.994
297.993
297.993
297.993
297.993
297.993
297.993
297.993
297.993
297.993
297.993
297.993
297.993
297.993
297.993
297.993
297.993
297.993
297.993
297.993
297.993
297.993
297.992
297.992
297.992
297.992
297.992
297.992
297.992
297.992
297.992
297.992
297.992
297.992
297.992
297.992
297.992
297.992
297.992
297.992
297.992
297.992
297.992
297.992
297.992
297.992
297.992
297.992
297.992
297.992
297.992
297.992
297.992
297.992
297.992
297.992
297.992
297.992
297.992
297.992
297.992
297.992
297.992
297.992
297.992
297.992
297.992
297.992
297.992
297.992
297.992
297.992
297.992
297.992
297.992
297.992
297.992
297.992
297.992
297.992
297.992
297.992
297.992
297.993
297.993
297.993
297.993
297.993
297.993
297.993
297.993
297.993
297.993
297.993
297.993
297.994
297.994
297.994
297.994
297.994
297.994
297.994
297.994
297.994
297.995
297.995
297.995
297.995
297.995
297.995
297.995
297.995
297.996
297.996
297.996
297.996
297.996
297.996
297.996
297.997
297.997
297.997
297.997
297.997
297.997
297.997
297.998
297.998
297.998
297.998
297.998
297.998
297.998
297.998
297.998
297.999
297.999
297.999
297.999
297.999
297.999
297.999
297.999
297.999
297.999
297.999
297.999
298
298
298
298
298
298
298
298
298
298
298
298
298
298
298
298
298
298
298
298
298
298
298
298
298
298
298
298
298
298
298
298
298
298
298
298
298
298
298
298
298
298
298
298
298
298
298
298
298
298
298
298
298
298
298
298
298
298
298
298
298
298
298
298
298
298
298
298
298
298
298
298
298
298
298
298
298
298
298
298
298
298
298
298
298
298
298
298
298
298
298
298
298
298
298
298
298
298
298
298
298
298
298
298
298
298
298
298
298
298
298
298
298
298
298
298
298
298
298
298
298
298
298
298
298
298
298
298
298
298
298
298
298
298
298
298
298
298
298
298
298
298
298
298
298
298
298
297.995
297.995
297.995
297.995
297.995
297.995
297.995
297.995
297.995
297.995
297.995
297.995
297.995
297.995
297.995
297.994
297.994
297.994
297.994
297.994
297.994
297.994
297.994
297.994
297.994
297.994
297.994
297.994
297.994
297.994
297.994
297.994
297.994
297.994
297.994
297.994
297.994
297.994
297.994
297.993
297.993
297.993
297.993
297.993
297.993
297.993
297.993
297.993
297.993
297.993
297.993
297.993
297.993
297.993
297.993
297.993
297.993
297.993
297.993
297.993
297.993
297.993
297.994
297.994
297.994
297.994
297.994
297.994
297.994
297.994
297.994
297.994
297.994
297.994
297.994
297.994
297.994
297.994
297.994
297.994
297.994
297.994
297.994
297.995
297.995
297.995
297.995
297.995
297.995
297.995
297.995
297.995
297.995
297.995
297.995
297.996
297.996
297.996
297.996
297.996
297.996
297.996
297.996
297.996
297.996
297.996
297.997
297.997
297.997
297.997
297.997
297.997
297.997
297.997
297.997
297.997
297.998
297.998
297.998
297.998
297.998
297.998
297.998
297.998
297.998
297.998
297.998
297.999
297.999
297.999
297.999
297.999
297.999
297.999
297.999
297.999
297.999
297.999
297.999
297.999
297.999
298
298
298
298
298
298
298
298
298
298
298
298
298
298
298
298
298
298
298
298
298
298
298
298
298
298
298
298
298
298
298
298
298
298
298
298
298
298
298
298
298
298
298
298
298
298
298
298
298
298
298
298
298
298
298
298
298
298
298
298
298
298
298
298
298
298
298
298
298
298
298
298
298
298
298
298
298
298
298
298
298
298
298
298
298
298
298
298
298
298
298
298
298
298
298
298
298
298
298
298
298
298
298
298
298
298
298
298
298
298
298
298
298
298
298
298
298
298
298
298
298
298
298
298
298
298
298
298
298
298
298
298
298
298
298
298
298
298
298
298
298
298
298
298
298
298
298
298
298
298
298
298
298
298
298
298
298
298
298
297.998
297.997
297.997
297.997
297.997
297.997
297.997
297.997
297.997
297.997
297.997
297.997
297.997
297.997
297.997
297.997
297.997
297.997
297.996
297.996
297.996
297.996
297.996
297.996
297.996
297.996
297.996
297.996
297.996
297.996
297.996
297.996
297.996
297.996
297.996
297.996
297.996
297.996
297.996
297.996
297.996
297.996
297.996
297.996
297.996
297.996
297.996
297.996
297.996
297.996
297.996
297.996
297.996
297.996
297.996
297.996
297.996
297.996
297.996
297.996
297.996
297.996
297.996
297.996
297.996
297.996
297.996
297.996
297.996
297.996
297.996
297.996
297.996
297.997
297.997
297.997
297.997
297.997
297.997
297.997
297.997
297.997
297.997
297.997
297.997
297.997
297.997
297.997
297.997
297.997
297.998
297.998
297.998
297.998
297.998
297.998
297.998
297.998
297.998
297.998
297.998
297.998
297.998
297.998
297.998
297.998
297.999
297.999
297.999
297.999
297.999
297.999
297.999
297.999
297.999
297.999
297.999
297.999
297.999
297.999
297.999
297.999
297.999
297.999
297.999
298
298
298
298
298
298
298
298
298
298
298
298
298
298
298
298
298
298
298
298
298
298
298
298
298
298
298
298
298
298
298
298
298
298
298
298
298
298
298
298
298
298
298
298
298
298
298
298
298
298
298
298
298
298
298
298
298
298
298
298
298
298
298
298
298
298
298
298
298
298
298
298
298
298
298
298
298
298
298
298
298
298
298
298
298
298
298
298
298
298
298
298
298
298
298
298
298
298
298
298
298
298
298
298
298
298
298
298
298
298
298
298
298
298
298
298
298
298
298
298
298
298
298
298
298
298
298
298
298
298
298
298
298
298
298
298
298
298
298
298
298
298
298
298
298
298
298
298
298
298
298
298
298
298
298
298
298
298
298
298
298
298
298
298
298
298
298
298
298
298
298
298
298
298
298
297.999
297.999
297.999
297.999
297.999
297.999
297.999
297.999
297.999
297.999
297.999
297.999
297.999
297.999
297.999
297.999
297.999
297.998
297.998
297.998
297.998
297.998
297.998
297.998
297.998
297.998
297.998
297.998
297.998
297.998
297.998
297.998
297.998
297.998
297.998
297.998
297.998
297.998
297.998
297.998
297.998
297.998
297.998
297.998
297.998
297.998
297.998
297.998
297.998
297.998
297.998
297.998
297.998
297.998
297.998
297.998
297.998
297.998
297.998
297.998
297.998
297.998
297.998
297.998
297.998
297.998
297.998
297.998
297.999
297.999
297.999
297.999
297.999
297.999
297.999
297.999
297.999
297.999
297.999
297.999
297.999
297.999
297.999
297.999
297.999
297.999
297.999
297.999
297.999
297.999
297.999
297.999
297.999
297.999
297.999
297.999
297.999
297.999
297.999
297.999
298
298
298
298
298
298
298
298
298
298
298
298
298
298
298
298
298
298
298
298
298
298
298
298
298
298
298
298
298
298
298
298
298
298
298
298
298
298
298
298
298
298
298
298
298
298
298
298
298
298
298
298
298
298
298
298
298
298
298
298
298
298
298
298
298
298
298
298
298
298
298
298
298
298
298
298
298
298
298
298
298
298
298
298
298
298
298
298
298
298
298