/*--------------------------------*- C++ -*----------------------------------*\
| =========                 |                                                 |
| \\      /  F ield         | OpenFOAM: The Open Source CFD Toolbox           |
|  \\    /   O peration     | Version:  2.4.0                                 |
|   \\  /    A nd           | Web:      www.OpenFOAM.org                      |
|    \\/     M anipulation  |                                                 |
\*---------------------------------------------------------------------------*/
FoamFile
{
    version     2.0;
    format      ascii;
    class       volVectorField;
    location    "1.9";
    object      U;
}
// * * * * * * * * * * * * * * * * * * * * * * * * * * * * * * * * * * * * * //

dimensions      [0 1 -1 0 0 0 0];

internalField   nonuniform List<vector> 
8000
(
(-1.27729e-07 -0.000198278 0)
(-2.54397e-06 -0.000576807 0)
(-7.61505e-06 -0.000937106 0)
(-1.51511e-05 -0.00127897 0)
(-2.47916e-05 -0.00160221 0)
(-3.61617e-05 -0.00190673 0)
(-4.89268e-05 -0.00219241 0)
(-6.27174e-05 -0.00245923 0)
(-7.72018e-05 -0.00270711 0)
(-9.19842e-05 -0.00293608 0)
(-0.000106742 -0.0031461 0)
(-0.000121053 -0.00333728 0)
(-0.000134619 -0.00350962 0)
(-0.000146989 -0.00366333 0)
(-0.000157905 -0.00379842 0)
(-0.000166873 -0.00391521 0)
(-0.000173698 -0.00401373 0)
(-0.000177827 -0.00409445 0)
(-0.000179145 -0.00415738 0)
(-0.000177018 -0.00420314 0)
(-0.000171442 -0.00423173 0)
(-0.000161681 -0.00424397 0)
(-0.000147892 -0.00423979 0)
(-0.000129228 -0.00422028 0)
(-0.000106071 -0.00418528 0)
(-7.74526e-05 -0.00413612 0)
(-4.40506e-05 -0.00407251 0)
(-4.75065e-06 -0.00399604 0)
(3.94538e-05 -0.00390632 0)
(8.98336e-05 -0.00380524 0)
(0.000144964 -0.00369261 0)
(0.000206085 -0.0035705 0)
(0.000271342 -0.00343895 0)
(0.00034251 -0.00329936 0)
(0.000418803 -0.00315228 0)
(0.000502906 -0.00299862 0)
(0.000592592 -0.00284254 0)
(0.000685658 -0.00268109 0)
(0.000778404 -0.00247806 0)
(0.000871 -0.00219912 0)
(0.000960125 -0.00188564 0)
(0.00106001 -0.00145409 0)
(0.00118283 -0.001097 0)
(0.00125243 -0.000925406 0)
(0.00121623 -0.000739609 0)
(0.00108109 -4.02327e-05 0)
(0.00107906 -0.00114059 0)
(0.00120724 -0.00161826 0)
(0.0013593 -0.00346131 0)
(0.00155294 -0.00520141 0)
(-4.79248e-07 -0.000186634 0)
(-3.93775e-06 -0.000543303 0)
(-1.04926e-05 -0.000883656 0)
(-1.98029e-05 -0.00120788 0)
(-3.1468e-05 -0.00151612 0)
(-4.51595e-05 -0.00180849 0)
(-6.05545e-05 -0.00208509 0)
(-7.73677e-05 -0.002346 0)
(-9.52727e-05 -0.00259134 0)
(-0.000113993 -0.00282114 0)
(-0.000133196 -0.00303554 0)
(-0.000152619 -0.00323457 0)
(-0.000171926 -0.00341839 0)
(-0.000190872 -0.00358702 0)
(-0.000209115 -0.00374066 0)
(-0.000226432 -0.00387932 0)
(-0.000242478 -0.00400325 0)
(-0.000257054 -0.00411245 0)
(-0.000269813 -0.00420721 0)
(-0.000280585 -0.00428753 0)
(-0.000289023 -0.00435373 0)
(-0.000294988 -0.00440583 0)
(-0.000298138 -0.00444416 0)
(-0.000298365 -0.00446874 0)
(-0.000295344 -0.0044799 0)
(-0.000288992 -0.00447768 0)
(-0.000279013 -0.00446232 0)
(-0.000265338 -0.00443393 0)
(-0.000247718 -0.00439257 0)
(-0.000226084 -0.0043385 0)
(-0.000200265 -0.00427137 0)
(-0.000170171 -0.00419177 0)
(-0.000135754 -0.00409864 0)
(-9.6858e-05 -0.00399311 0)
(-5.35881e-05 -0.00387301 0)
(-5.69537e-06 -0.00374051 0)
(4.65101e-05 -0.00359171 0)
(0.00010364 -0.00343018 0)
(0.000166152 -0.0032487 0)
(0.000236535 -0.00305419 0)
(0.0003163 -0.00283632 0)
(0.000407826 -0.00260547 0)
(0.000510336 -0.00234651 0)
(0.000624508 -0.00208071 0)
(0.000764143 -0.00173086 0)
(0.000911257 -0.00165343 0)
(0.0010114 -0.00182527 0)
(0.0010792 -0.00192442 0)
(0.00112259 -0.00225934 0)
(0.00108401 -0.00278237 0)
(-3.45869e-07 -0.000155408 0)
(-3.806e-06 -0.000456023 0)
(-1.06906e-05 -0.000746242 0)
(-2.0726e-05 -0.00102584 0)
(-3.35295e-05 -0.00129461 0)
(-4.87559e-05 -0.0015524 0)
(-6.61131e-05 -0.00179907 0)
(-8.53081e-05 -0.00203452 0)
(-0.000106069 -0.00225866 0)
(-0.000128109 -0.00247143 0)
(-0.000151169 -0.00267277 0)
(-0.000174971 -0.00286269 0)
(-0.000199265 -0.00304114 0)
(-0.00022378 -0.00320817 0)
(-0.000248276 -0.00336379 0)
(-0.000272489 -0.00350808 0)
(-0.000296183 -0.00364107 0)
(-0.000319102 -0.0037629 0)
(-0.000341014 -0.00387361 0)
(-0.000361672 -0.00397341 0)
(-0.000380842 -0.00406237 0)
(-0.000398289 -0.00414072 0)
(-0.000413771 -0.00420858 0)
(-0.00042707 -0.00426623 0)
(-0.000437925 -0.00431382 0)
(-0.000446142 -0.00435168 0)
(-0.000451429 -0.00438001 0)
(-0.000453619 -0.00439917 0)
(-0.000452373 -0.00440945 0)
(-0.000447558 -0.00441123 0)
(-0.000438766 -0.00440489 0)
(-0.000425902 -0.00439087 0)
(-0.000408462 -0.00436965 0)
(-0.000386387 -0.0043417 0)
(-0.000359046 -0.0043077 0)
(-0.000326413 -0.00426811 0)
(-0.000287699 -0.00422387 0)
(-0.000242876 -0.00417548 0)
(-0.00019098 -0.00412419 0)
(-0.00013189 -0.00407067 0)
(-6.45366e-05 -0.00401668 0)
(1.14383e-05 -0.00396328 0)
(9.73895e-05 -0.00391268 0)
(0.00019349 -0.00386633 0)
(0.000299772 -0.00382668 0)
(0.000412155 -0.00379731 0)
(0.00053021 -0.00377835 0)
(0.000654239 -0.00378942 0)
(0.000758532 -0.00387667 0)
(0.000833278 -0.00400455 0)
(-2.67999e-07 -0.000137815 0)
(-2.48538e-06 -0.000405704 0)
(-6.83518e-06 -0.000665712 0)
(-1.3146e-05 -0.000917639 0)
(-2.11974e-05 -0.00116133 0)
(-3.07972e-05 -0.00139665 0)
(-4.17631e-05 -0.00162352 0)
(-5.39194e-05 -0.00184185 0)
(-6.70776e-05 -0.00205158 0)
(-8.10556e-05 -0.00225264 0)
(-9.56596e-05 -0.002445 0)
(-0.000110705 -0.00262862 0)
(-0.000125996 -0.00280351 0)
(-0.000141346 -0.00296965 0)
(-0.000156559 -0.00312709 0)
(-0.00017145 -0.00327583 0)
(-0.000185823 -0.00341595 0)
(-0.000199494 -0.00354749 0)
(-0.000212272 -0.00367057 0)
(-0.000223974 -0.00378525 0)
(-0.000234414 -0.00389169 0)
(-0.000243414 -0.00398998 0)
(-0.000250796 -0.0040803 0)
(-0.000256385 -0.0041628 0)
(-0.000260013 -0.00423769 0)
(-0.000261512 -0.00430514 0)
(-0.000260729 -0.0043654 0)
(-0.000257502 -0.00441869 0)
(-0.000251695 -0.00446528 0)
(-0.000243156 -0.00450547 0)
(-0.000231772 -0.00453952 0)
(-0.000217404 -0.00456781 0)
(-0.000199968 -0.00459063 0)
(-0.000179343 -0.00460844 0)
(-0.000155479 -0.00462153 0)
(-0.000128286 -0.00463048 0)
(-9.7751e-05 -0.00463556 0)
(-6.38318e-05 -0.00463753 0)
(-2.65604e-05 -0.00463659 0)
(1.4031e-05 -0.0046337 0)
(5.78464e-05 -0.00462901 0)
(0.000104757 -0.00462372 0)
(0.000154529 -0.00461785 0)
(0.000206958 -0.00461299 0)
(0.000261595 -0.00460887 0)
(0.000318036 -0.00460745 0)
(0.000375643 -0.00460771 0)
(0.000432799 -0.00461179 0)
(0.000490505 -0.00461799 0)
(0.000546189 -0.00464781 0)
(-1.24309e-07 -0.000126669 0)
(-1.55027e-06 -0.000373776 0)
(-4.46375e-06 -0.000614603 0)
(-8.77523e-06 -0.000849018 0)
(-1.4336e-05 -0.00107691 0)
(-2.10061e-05 -0.00129823 0)
(-2.86595e-05 -0.00151293 0)
(-3.71679e-05 -0.00172098 0)
(-4.64029e-05 -0.00192235 0)
(-5.62308e-05 -0.00211704 0)
(-6.65201e-05 -0.00230503 0)
(-7.71339e-05 -0.00248634 0)
(-8.79394e-05 -0.00266096 0)
(-9.87987e-05 -0.00282891 0)
(-0.000109579 -0.00299023 0)
(-0.000120142 -0.00314496 0)
(-0.000130358 -0.00329313 0)
(-0.00014009 -0.00343481 0)
(-0.000149211 -0.00357006 0)
(-0.00015759 -0.00369897 0)
(-0.000165102 -0.0038216 0)
(-0.000171625 -0.00393805 0)
(-0.000177039 -0.00404842 0)
(-0.000181231 -0.00415283 0)
(-0.000184091 -0.00425138 0)
(-0.000185516 -0.00434421 0)
(-0.000185404 -0.00443143 0)
(-0.000183669 -0.0045132 0)
(-0.000180221 -0.00458963 0)
(-0.000174992 -0.00466091 0)
(-0.000167904 -0.00472715 0)
(-0.000158912 -0.00478854 0)
(-0.000147953 -0.0048452 0)
(-0.000135009 -0.00489733 0)
(-0.000120034 -0.00494504 0)
(-0.000103042 -0.00498854 0)
(-8.40063e-05 -0.00502792 0)
(-6.2977e-05 -0.00506339 0)
(-3.9953e-05 -0.00509503 0)
(-1.50218e-05 -0.00512301 0)
(1.17859e-05 -0.00514738 0)
(4.03432e-05 -0.00516832 0)
(7.05785e-05 -0.00518576 0)
(0.000102322 -0.00519989 0)
(0.000135474 -0.00521052 0)
(0.000169797 -0.00521785 0)
(0.000205193 -0.00522148 0)
(0.000241254 -0.00522155 0)
(0.000277868 -0.00521723 0)
(0.000315083 -0.00520899 0)
(-1.68391e-07 -0.000117291 0)
(-1.43728e-06 -0.000346917 0)
(-3.88584e-06 -0.000571563 0)
(-7.41464e-06 -0.00079112 0)
(-1.19033e-05 -0.00100549 0)
(-1.72515e-05 -0.00121463 0)
(-2.33674e-05 -0.00141849 0)
(-3.01617e-05 -0.00161704 0)
(-3.75424e-05 -0.00181026 0)
(-4.54189e-05 -0.00199814 0)
(-5.36983e-05 -0.00218067 0)
(-6.22901e-05 -0.00235784 0)
(-7.11019e-05 -0.00252965 0)
(-8.00445e-05 -0.00269611 0)
(-8.90266e-05 -0.00285723 0)
(-9.79614e-05 -0.00301303 0)
(-0.00010676 -0.00316353 0)
(-0.000115339 -0.00330876 0)
(-0.000123612 -0.00344875 0)
(-0.000131503 -0.00358354 0)
(-0.000138929 -0.00371316 0)
(-0.00014582 -0.00383767 0)
(-0.0001521 -0.00395711 0)
(-0.000157706 -0.00407154 0)
(-0.000162572 -0.00418101 0)
(-0.000166641 -0.00428557 0)
(-0.000169858 -0.0043853 0)
(-0.000172177 -0.00448026 0)
(-0.000173551 -0.00457052 0)
(-0.00017395 -0.00465615 0)
(-0.000173333 -0.00473722 0)
(-0.000171687 -0.00481382 0)
(-0.000168981 -0.00488602 0)
(-0.000165215 -0.00495391 0)
(-0.000160371 -0.00501758 0)
(-0.000154462 -0.00507713 0)
(-0.00014748 -0.00513266 0)
(-0.000139453 -0.00518428 0)
(-0.000130378 -0.00523211 0)
(-0.000120299 -0.00527627 0)
(-0.000109211 -0.00531691 0)
(-9.71726e-05 -0.00535417 0)
(-8.41735e-05 -0.00538824 0)
(-7.02746e-05 -0.00541928 0)
(-5.54571e-05 -0.00544754 0)
(-3.97749e-05 -0.00547321 0)
(-2.31879e-05 -0.00549659 0)
(-5.70748e-06 -0.00551789 0)
(1.27873e-05 -0.0055376 0)
(3.23374e-05 -0.00555592 0)
(-3.75636e-08 -0.00011089 0)
(-6.61604e-07 -0.000328625 0)
(-1.9829e-06 -0.000542286 0)
(-3.97664e-06 -0.00075178 0)
(-6.57448e-06 -0.000957023 0)
(-9.71098e-06 -0.00115797 0)
(-1.33223e-05 -0.00135457 0)
(-1.7344e-05 -0.00154681 0)
(-2.17083e-05 -0.00173468 0)
(-2.63458e-05 -0.00191816 0)
(-3.11845e-05 -0.00209723 0)
(-3.61518e-05 -0.00227191 0)
(-4.11729e-05 -0.00244217 0)
(-4.61731e-05 -0.00260804 0)
(-5.10761e-05 -0.0027695 0)
(-5.58065e-05 -0.00292656 0)
(-6.02872e-05 -0.00307924 0)
(-6.44435e-05 -0.00322753 0)
(-6.81987e-05 -0.00337145 0)
(-7.14799e-05 -0.00351101 0)
(-7.42119e-05 -0.00364622 0)
(-7.63249e-05 -0.00377708 0)
(-7.77465e-05 -0.00390361 0)
(-7.84115e-05 -0.0040258 0)
(-7.82511e-05 -0.00414368 0)
(-7.7207e-05 -0.00425723 0)
(-7.52153e-05 -0.00436648 0)
(-7.22262e-05 -0.00447142 0)
(-6.81822e-05 -0.00457205 0)
(-6.30449e-05 -0.00466837 0)
(-5.67644e-05 -0.0047604 0)
(-4.93166e-05 -0.0048481 0)
(-4.06608e-05 -0.00493152 0)
(-3.07914e-05 -0.00501062 0)
(-1.96788e-05 -0.00508544 0)
(-7.34036e-06 -0.00515593 0)
(6.2402e-06 -0.0052222 0)
(2.10163e-05 -0.00528413 0)
(3.6988e-05 -0.00534192 0)
(5.40727e-05 -0.00539539 0)
(7.22492e-05 -0.00544485 0)
(9.13904e-05 -0.00549005 0)
(0.000111445 -0.00553147 0)
(0.000132232 -0.00556872 0)
(0.00015367 -0.00560255 0)
(0.000175568 -0.00563234 0)
(0.000197834 -0.00565918 0)
(0.000220176 -0.00568239 0)
(0.000241723 -0.00570432 0)
(0.000259435 -0.00572575 0)
(-7.85317e-08 -0.000107703 0)
(-6.12058e-07 -0.000319229 0)
(-1.62426e-06 -0.000526942 0)
(-3.06855e-06 -0.000730872 0)
(-4.88821e-06 -0.000931045 0)
(-7.03402e-06 -0.0011275 0)
(-9.45524e-06 -0.00132026 0)
(-1.21004e-05 -0.00150939 0)
(-1.49127e-05 -0.0016949 0)
(-1.78352e-05 -0.00187683 0)
(-2.08055e-05 -0.00205522 0)
(-2.37633e-05 -0.00223008 0)
(-2.66414e-05 -0.00240146 0)
(-2.93768e-05 -0.00256936 0)
(-3.18983e-05 -0.00273383 0)
(-3.41417e-05 -0.00289487 0)
(-3.60318e-05 -0.00305251 0)
(-3.75046e-05 -0.00320676 0)
(-3.8481e-05 -0.00335764 0)
(-3.88986e-05 -0.00350517 0)
(-3.86745e-05 -0.00364934 0)
(-3.77497e-05 -0.00379017 0)
(-3.60369e-05 -0.00392765 0)
(-3.34829e-05 -0.00406178 0)
(-2.99953e-05 -0.00419254 0)
(-2.55292e-05 -0.00431991 0)
(-1.99866e-05 -0.00444388 0)
(-1.33336e-05 -0.00456438 0)
(-5.46588e-06 -0.00468141 0)
(3.63598e-06 -0.00479487 0)
(1.40841e-05 -0.00490472 0)
(2.58794e-05 -0.00501085 0)
(3.91432e-05 -0.00511321 0)
(5.38536e-05 -0.00521163 0)
(7.01423e-05 -0.00530605 0)
(8.79614e-05 -0.00539622 0)
(0.000107453 -0.0054821 0)
(0.000128541 -0.00556332 0)
(0.000151377 -0.00563989 0)
(0.000175855 -0.00571124 0)
(0.000202125 -0.00577751 0)
(0.000230057 -0.0058378 0)
(0.000259827 -0.00589249 0)
(0.000291436 -0.00594014 0)
(0.000325136 -0.00598158 0)
(0.000360659 -0.00601492 0)
(0.000395706 -0.006043 0)
(0.000422425 -0.00606745 0)
(0.000419437 -0.00603279 0)
(0.000394995 -0.0059526 0)
(-4.10772e-08 -0.000104629 0)
(-5.7919e-07 -0.000310643 0)
(-1.66154e-06 -0.000513465 0)
(-3.24094e-06 -0.000713118 0)
(-5.24019e-06 -0.000909633 0)
(-7.59125e-06 -0.00110305 0)
(-1.02344e-05 -0.00129342 0)
(-1.31135e-05 -0.00148078 0)
(-1.61749e-05 -0.00166519 0)
(-1.9366e-05 -0.0018467 0)
(-2.26364e-05 -0.00202535 0)
(-2.59358e-05 -0.00220118 0)
(-2.92165e-05 -0.00237423 0)
(-3.24294e-05 -0.00254455 0)
(-3.55286e-05 -0.00271217 0)
(-3.84651e-05 -0.00287712 0)
(-4.11945e-05 -0.00303944 0)
(-4.36667e-05 -0.00319913 0)
(-4.58385e-05 -0.00335626 0)
(-4.7658e-05 -0.00351079 0)
(-4.90828e-05 -0.00366279 0)
(-5.00577e-05 -0.00381222 0)
(-5.05413e-05 -0.00395912 0)
(-5.04732e-05 -0.00410344 0)
(-4.98125e-05 -0.00424523 0)
(-4.8492e-05 -0.00438439 0)
(-4.64702e-05 -0.004521 0)
(-4.36702e-05 -0.00465486 0)
(-4.0048e-05 -0.00478615 0)
(-3.55137e-05 -0.00491454 0)
(-3.00172e-05 -0.0050403 0)
(-2.34512e-05 -0.00516295 0)
(-1.57526e-05 -0.00528291 0)
(-6.79228e-06 -0.00539947 0)
(3.51734e-06 -0.0055133 0)
(1.53324e-05 -0.00562336 0)
(2.87839e-05 -0.00573072 0)
(4.40567e-05 -0.0058338 0)
(6.13484e-05 -0.00593432 0)
(8.08705e-05 -0.00602994 0)
(0.000102969 -0.00612331 0)
(0.000128002 -0.00621089 0)
(0.000156714 -0.00629687 0)
(0.000189181 -0.00637665 0)
(0.000221791 -0.00645956 0)
(0.000237862 -0.00655308 0)
(0.000198533 -0.00648239 0)
(0.000146541 -0.00634003 0)
(0.000112632 -0.00610827 0)
(3.81861e-06 -0.00573552 0)
(-9.02989e-08 -9.94263e-05 0)
(-6.04455e-07 -0.000296322 0)
(-1.51052e-06 -0.000491194 0)
(-2.7413e-06 -0.000683962 0)
(-4.23094e-06 -0.000874565 0)
(-5.92981e-06 -0.00106296 0)
(-7.79364e-06 -0.00124911 0)
(-9.78297e-06 -0.00143299 0)
(-1.18597e-05 -0.00161459 0)
(-1.39886e-05 -0.0017939 0)
(-1.61367e-05 -0.00197092 0)
(-1.82722e-05 -0.00214565 0)
(-2.03662e-05 -0.00231809 0)
(-2.23892e-05 -0.00248825 0)
(-2.43161e-05 -0.00265615 0)
(-2.61181e-05 -0.0028218 0)
(-2.77741e-05 -0.00298521 0)
(-2.92545e-05 -0.00314642 0)
(-3.05431e-05 -0.00330544 0)
(-3.16076e-05 -0.00346229 0)
(-3.24378e-05 -0.00361699 0)
(-3.2997e-05 -0.00376959 0)
(-3.32825e-05 -0.00392006 0)
(-3.3251e-05 -0.00406851 0)
(-3.29093e-05 -0.00421487 0)
(-3.22045e-05 -0.00435929 0)
(-3.11556e-05 -0.00450169 0)
(-2.96964e-05 -0.00464227 0)
(-2.78608e-05 -0.00478089 0)
(-2.5565e-05 -0.00491788 0)
(-2.28597e-05 -0.00505303 0)
(-1.96388e-05 -0.00518685 0)
(-1.59703e-05 -0.00531901 0)
(-1.17211e-05 -0.00545029 0)
(-6.97301e-06 -0.00558021 0)
(-1.56641e-06 -0.00570997 0)
(4.39876e-06 -0.00583885 0)
(1.10907e-05 -0.00596866 0)
(1.84693e-05 -0.00609827 0)
(2.69954e-05 -0.00623029 0)
(3.72964e-05 -0.00636297 0)
(4.89199e-05 -0.00650102 0)
(5.3502e-05 -0.00664629 0)
(1.98593e-05 -0.00676443 0)
(-5.49747e-05 -0.00674382 0)
(-0.000132999 -0.00671893 0)
(-0.000252143 -0.00643496 0)
(-0.000460922 -0.00599699 0)
(-0.000681296 -0.00549539 0)
(-0.00104789 -0.00245027 0)
(1.34129e-07 -9.88676e-05 0)
(1.16219e-06 -0.000294986 0)
(3.09742e-06 -0.000489369 0)
(5.83297e-06 -0.000681923 0)
(9.25285e-06 -0.000872582 0)
(1.3274e-05 -0.00106129 0)
(1.78297e-05 -0.00124802 0)
(2.28744e-05 -0.00143274 0)
(2.83591e-05 -0.00161543 0)
(3.42572e-05 -0.00179609 0)
(4.05294e-05 -0.0019747 0)
(4.71635e-05 -0.00215127 0)
(5.41255e-05 -0.00232581 0)
(6.14134e-05 -0.00249831 0)
(6.89938e-05 -0.00266879 0)
(7.68721e-05 -0.00283725 0)
(8.5011e-05 -0.00300371 0)
(9.34206e-05 -0.00316816 0)
(0.000102056 -0.00333062 0)
(0.000110929 -0.00349109 0)
(0.000119982 -0.00364957 0)
(0.000129226 -0.00380606 0)
(0.000138587 -0.00396053 0)
(0.000148067 -0.004113 0)
(0.00015757 -0.00426341 0)
(0.000167088 -0.00441179 0)
(0.000176492 -0.00455804 0)
(0.000185753 -0.00470221 0)
(0.000194701 -0.00484417 0)
(0.000203276 -0.00498402 0)
(0.000211251 -0.00512153 0)
(0.000218525 -0.00525697 0)
(0.000224791 -0.00538991 0)
(0.000229895 -0.00552089 0)
(0.000233398 -0.00564925 0)
(0.00023502 -0.00577591 0)
(0.000234173 -0.00589982 0)
(0.00023099 -0.00602241 0)
(0.000226161 -0.006142 0)
(0.000219847 -0.00626187 0)
(0.000201117 -0.00638304 0)
(0.000125883 -0.00643867 0)
(1.62198e-06 -0.00645311 0)
(-0.000140575 -0.00641298 0)
(-0.000362177 -0.00606364 0)
(-0.000618539 -0.00573703 0)
(-0.000723715 -0.00378222 0)
(-0.00157865 0.000753168 0)
(-0.00274773 -0.00595782 0)
(-0.00847975 0.0273366 0)
(1.89414e-07 -0.000113003 0)
(1.54428e-06 -0.000333549 0)
(4.12232e-06 -0.000549033 0)
(7.80331e-06 -0.000759884 0)
(1.24554e-05 -0.000966466 0)
(1.79696e-05 -0.0011691 0)
(2.42517e-05 -0.00136804 0)
(3.12096e-05 -0.00156353 0)
(3.87549e-05 -0.00175575 0)
(4.67977e-05 -0.00194487 0)
(5.5255e-05 -0.00213102 0)
(6.40402e-05 -0.00231431 0)
(7.30764e-05 -0.00249481 0)
(8.22803e-05 -0.00267263 0)
(9.15815e-05 -0.00284776 0)
(0.0001009 -0.0030203 0)
(0.000110173 -0.00319017 0)
(0.000119324 -0.00335747 0)
(0.000128299 -0.00352204 0)
(0.000137027 -0.00368397 0)
(0.000145459 -0.00384303 0)
(0.000153535 -0.00399928 0)
(0.000161212 -0.00415237 0)
(0.000168442 -0.00430238 0)
(0.000175179 -0.00444881 0)
(0.000181402 -0.00459173 0)
(0.000187048 -0.00473042 0)
(0.000192129 -0.00486499 0)
(0.000196548 -0.00499446 0)
(0.000200363 -0.00511893 0)
(0.000203417 -0.00523711 0)
(0.00020582 -0.00534911 0)
(0.0002073 -0.00545323 0)
(0.000207959 -0.00554968 0)
(0.000207409 -0.00563616 0)
(0.000206241 -0.00571302 0)
(0.000205299 -0.00577698 0)
(0.000205121 -0.0058291 0)
(0.000194765 -0.00586686 0)
(0.000132572 -0.00589516 0)
(7.50404e-06 -0.00588931 0)
(-0.000140452 -0.00576779 0)
(-0.000340591 -0.00545049 0)
(-0.000672594 -0.00484671 0)
(-0.000915365 0.00101026 0)
(-0.00153789 -0.00546332 0)
(-0.0027167 0.000613387 0)
(-0.00313624 0.0454686 0)
(-0.00412701 0.0397134 0)
(-0.00482625 0.0380198 0)
(-3.43943e-08 -0.000115516 0)
(4.70757e-07 -0.000342175 0)
(1.74296e-06 -0.000564441 0)
(3.80513e-06 -0.000782315 0)
(6.6024e-06 -0.000995807 0)
(1.00571e-05 -0.00120494 0)
(1.4091e-05 -0.00140973 0)
(1.86071e-05 -0.00161022 0)
(2.35131e-05 -0.00180646 0)
(2.8694e-05 -0.00199848 0)
(3.40491e-05 -0.00218634 0)
(3.94539e-05 -0.00237009 0)
(4.48063e-05 -0.00254982 0)
(4.99791e-05 -0.00272556 0)
(5.48739e-05 -0.00289742 0)
(5.93683e-05 -0.00306544 0)
(6.33705e-05 -0.00322973 0)
(6.67715e-05 -0.00339036 0)
(6.94879e-05 -0.00354744 0)
(7.14352e-05 -0.00370102 0)
(7.25376e-05 -0.00385126 0)
(7.27499e-05 -0.00399818 0)
(7.19997e-05 -0.00414194 0)
(7.03014e-05 -0.00428258 0)
(6.75768e-05 -0.0044202 0)
(6.39254e-05 -0.00455489 0)
(5.92482e-05 -0.00468658 0)
(5.37604e-05 -0.00481549 0)
(4.73218e-05 -0.00494117 0)
(4.03001e-05 -0.00506417 0)
(3.24789e-05 -0.00518325 0)
(2.43635e-05 -0.00529971 0)
(1.55641e-05 -0.00541081 0)
(6.90293e-06 -0.00551929 0)
(-1.06897e-06 -0.00561966 0)
(-5.32973e-06 -0.00571742 0)
(-8.69539e-06 -0.00580367 0)
(-3.48877e-05 -0.00589178 0)
(-0.000139941 -0.00586198 0)
(-0.000272985 -0.00579848 0)
(-0.000398126 -0.00557736 0)
(-0.000721299 -0.0047591 0)
(-0.00101633 0.00196252 0)
(-0.0015559 -0.0040988 0)
(-0.0015531 0.00921573 0)
(-0.00195889 0.0160686 0)
(-0.00275241 0.0199219 0)
(-0.00251863 0.0271156 0)
(-0.00140671 0.0286499 0)
(-0.000468297 0.0280462 0)
(2.99577e-07 -0.000122984 0)
(2.28718e-06 -0.000363613 0)
(5.94285e-06 -0.000598765 0)
(1.10267e-05 -0.00082831 0)
(1.72869e-05 -0.00105216 0)
(2.45078e-05 -0.00127024 0)
(3.25007e-05 -0.00148252 0)
(4.10781e-05 -0.00168896 0)
(5.00626e-05 -0.00188961 0)
(5.92712e-05 -0.00208445 0)
(6.85344e-05 -0.00227357 0)
(7.76735e-05 -0.00245698 0)
(8.65262e-05 -0.00263483 0)
(9.49157e-05 -0.00280714 0)
(0.000102687 -0.00297411 0)
(0.000109662 -0.00313575 0)
(0.000115694 -0.00329235 0)
(0.000120603 -0.00344389 0)
(0.000124251 -0.00359076 0)
(0.000126449 -0.00373291 0)
(0.000127075 -0.00387081 0)
(0.000125928 -0.00400438 0)
(0.000122905 -0.00413419 0)
(0.000117782 -0.00426011 0)
(0.000110491 -0.00438277 0)
(0.00010077 -0.00450202 0)
(8.86032e-05 -0.00461841 0)
(7.36822e-05 -0.00473191 0)
(5.60565e-05 -0.00484271 0)
(3.53398e-05 -0.00495111 0)
(1.16205e-05 -0.00505648 0)
(-1.55362e-05 -0.00515995 0)
(-4.54284e-05 -0.00525918 0)
(-7.72097e-05 -0.00535691 0)
(-0.000110605 -0.00544786 0)
(-0.000157344 -0.00553852 0)
(-0.000252555 -0.00562016 0)
(-0.00038201 -0.00571656 0)
(-0.000501826 -0.00568295 0)
(-0.000588276 -0.00537128 0)
(-0.000612651 0.00057105 0)
(-0.000560218 -0.00294811 0)
(0.000407942 0.0104616 0)
(-0.000191458 0.00655753 0)
(0.000106751 0.00764037 0)
(0.000476385 0.00966245 0)
(0.00116264 0.0114551 0)
(0.0020551 0.0130859 0)
(0.00309922 0.0139484 0)
(0.00416107 0.0144391 0)
(6.28849e-08 -0.000139696 0)
(6.45907e-07 -0.000408885 0)
(1.77115e-06 -0.000668153 0)
(3.3472e-06 -0.000917749 0)
(5.23629e-06 -0.00115788 0)
(7.30846e-06 -0.00138876 0)
(9.40896e-06 -0.00161053 0)
(1.13974e-05 -0.00182337 0)
(1.30949e-05 -0.00202741 0)
(1.43483e-05 -0.00222279 0)
(1.49566e-05 -0.00240962 0)
(1.47581e-05 -0.00258806 0)
(1.35312e-05 -0.00275818 0)
(1.11079e-05 -0.00292014 0)
(7.24645e-06 -0.00307401 0)
(1.77413e-06 -0.00321996 0)
(-5.57121e-06 -0.00335803 0)
(-1.49671e-05 -0.00348843 0)
(-2.66956e-05 -0.00361116 0)
(-4.09405e-05 -0.00372647 0)
(-5.80023e-05 -0.00383433 0)
(-7.80745e-05 -0.00393501 0)
(-0.000101472 -0.00402846 0)
(-0.000128402 -0.00411499 0)
(-0.000159185 -0.00419447 0)
(-0.00019405 -0.00426728 0)
(-0.000233306 -0.0043332 0)
(-0.000277209 -0.00439266 0)
(-0.00032605 -0.00444535 0)
(-0.000380132 -0.00449172 0)
(-0.000439675 -0.00453139 0)
(-0.000504686 -0.0045648 0)
(-0.000574667 -0.00459147 0)
(-0.00065017 -0.00461182 0)
(-0.000738118 -0.00462532 0)
(-0.000855078 -0.00463276 0)
(-0.000992578 -0.00463691 0)
(-0.00113423 -0.00465881 0)
(-0.00130206 -0.00477551 0)
(-0.00211492 -0.00590407 0)
(-0.00106582 -0.00669113 0)
(-0.000279863 -0.00598604 0)
(0.000768022 -0.00476356 0)
(0.00212701 -0.00347531 0)
(0.00337326 -0.00208698 0)
(0.00451732 -0.000721609 0)
(0.00551485 0.000379554 0)
(0.00648584 0.00125206 0)
(0.00742953 0.00195723 0)
(0.00829364 0.00252835 0)
(1.40488e-07 -0.000131 0)
(2.34794e-06 -0.000385829 0)
(6.81742e-06 -0.000632856 0)
(1.33205e-05 -0.000871532 0)
(2.14979e-05 -0.0011014 0)
(3.1007e-05 -0.00132209 0)
(4.15569e-05 -0.00153328 0)
(5.28518e-05 -0.0017347 0)
(6.46279e-05 -0.00192616 0)
(7.65975e-05 -0.00210746 0)
(8.85109e-05 -0.00227848 0)
(0.000100081 -0.00243909 0)
(0.000111068 -0.00258923 0)
(0.000121178 -0.00272882 0)
(0.000130171 -0.00285781 0)
(0.000137736 -0.00297619 0)
(0.000143631 -0.00308394 0)
(0.000147515 -0.00318105 0)
(0.000149134 -0.00326756 0)
(0.000148106 -0.00334347 0)
(0.000144155 -0.00340885 0)
(0.000136847 -0.00346372 0)
(0.00012587 -0.00350822 0)
(0.000110725 -0.00354237 0)
(9.10494e-05 -0.00356637 0)
(6.62648e-05 -0.00358025 0)
(3.59392e-05 -0.00358436 0)
(-5.97907e-07 -0.00357868 0)
(-4.38858e-05 -0.0035638 0)
(-9.47281e-05 -0.0035396 0)
(-0.00015383 -0.00350704 0)
(-0.000221894 -0.00346583 0)
(-0.000299027 -0.00341757 0)
(-0.000385452 -0.00336165 0)
(-0.000486725 -0.00330061 0)
(-0.000623991 -0.00323251 0)
(-0.000813456 -0.00315865 0)
(-0.00101383 -0.00309566 0)
(-0.00119098 -0.00299118 0)
(-0.00151599 -0.00391914 0)
(-0.00145947 -0.0281918 0)
(-0.000886331 -0.0246663 0)
(-0.000889271 -0.0292092 0)
(1.1708e-05 -0.0248467 0)
(0.000697282 -0.0208337 0)
(0.00154116 -0.0170449 0)
(0.00220208 -0.0137178 0)
(0.00271278 -0.0111722 0)
(0.00318964 -0.00877398 0)
(0.00365737 -0.00693258 0)
(7.35356e-07 -0.000175252 0)
(4.65242e-06 -0.000506455 0)
(1.15134e-05 -0.000819073 0)
(2.07826e-05 -0.00111378 0)
(3.19937e-05 -0.00139116 0)
(4.47771e-05 -0.00165171 0)
(5.88147e-05 -0.0018959 0)
(7.38048e-05 -0.00212407 0)
(8.94626e-05 -0.00233658 0)
(0.000105514 -0.00253365 0)
(0.000121704 -0.00271554 0)
(0.00013778 -0.00288236 0)
(0.000153508 -0.00303427 0)
(0.00016865 -0.00317125 0)
(0.000182981 -0.00329341 0)
(0.000196263 -0.00340055 0)
(0.000208267 -0.00349272 0)
(0.000218744 -0.00356955 0)
(0.000227449 -0.00363105 0)
(0.0002341 -0.00367658 0)
(0.00023842 -0.00370615 0)
(0.000240078 -0.0037188 0)
(0.000238746 -0.0037146 0)
(0.000234021 -0.00369209 0)
(0.0002255 -0.0036515 0)
(0.000212682 -0.00359073 0)
(0.000195064 -0.00351029 0)
(0.000172013 -0.00340713 0)
(0.000142899 -0.00328229 0)
(0.000106907 -0.00313138 0)
(6.32147e-05 -0.00295635 0)
(1.07387e-05 -0.00275078 0)
(-5.14153e-05 -0.00251819 0)
(-0.000123899 -0.0022492 0)
(-0.000206892 -0.00194996 0)
(-0.000304807 -0.00160623 0)
(-0.000437276 -0.00122668 0)
(-0.000631136 -0.000828787 0)
(-0.000846048 -0.000286417 0)
(-0.00108309 -0.000486241 0)
(-0.00176924 -0.0031259 0)
(-0.00277552 -0.00165485 0)
(-0.00485576 -0.0277376 0)
(-0.00485356 -0.0209118 0)
(-0.00512805 -0.0314207 0)
(-0.0064399 -0.0182151 0)
(-0.00694065 -0.0126211 0)
(-0.0070567 -0.0108734 0)
(-0.00720355 -0.0100869 0)
(-0.00709734 -0.00922912 0)
(-4.42507e-07 -0.000172376 0)
(-1.03283e-06 -0.000499434 0)
(-1.77286e-06 -0.000808714 0)
(-2.74294e-06 -0.00110022 0)
(-4.28908e-06 -0.00137403 0)
(-6.73271e-06 -0.0016303 0)
(-1.03548e-05 -0.00186918 0)
(-1.53551e-05 -0.00209087 0)
(-2.19142e-05 -0.00229557 0)
(-3.01375e-05 -0.00248346 0)
(-4.01313e-05 -0.0026547 0)
(-5.19183e-05 -0.00280943 0)
(-6.55429e-05 -0.00294772 0)
(-8.09525e-05 -0.00306964 0)
(-9.81411e-05 -0.00317514 0)
(-0.000116986 -0.00326417 0)
(-0.00013744 -0.00333652 0)
(-0.000159313 -0.00339201 0)
(-0.000182526 -0.00343025 0)
(-0.000206816 -0.00345089 0)
(-0.00023208 -0.00345332 0)
(-0.000257974 -0.00343697 0)
(-0.000284376 -0.003401 0)
(-0.000310849 -0.00334461 0)
(-0.000337248 -0.00326664 0)
(-0.000363026 -0.00316602 0)
(-0.000388008 -0.00304125 0)
(-0.000411513 -0.0028909 0)
(-0.000433321 -0.00271311 0)
(-0.000452584 -0.00250601 0)
(-0.000469004 -0.00226731 0)
(-0.000481526 -0.00199458 0)
(-0.000489718 -0.00168507 0)
(-0.000492336 -0.00133563 0)
(-0.000488878 -0.000943122 0)
(-0.000477922 -0.000503433 0)
(-0.000457127 -1.28621e-05 0)
(-0.000421215 0.000535661 0)
(-0.000362823 0.00114902 0)
(-0.000344815 0.00130789 0)
(-0.000395919 0.00147977 0)
(-0.000516722 0.00204849 0)
(-0.00105686 0.000485125 0)
(-0.00185554 0.00188155 0)
(-0.00424553 -0.00420522 0)
(-0.00456477 0.0103222 0)
(-0.00681291 -0.00586522 0)
(-0.000414063 -0.00962818 0)
(-0.00908373 -0.00935993 0)
(-0.00631993 -0.00958229 0)
(1.40053e-06 -0.000187742 0)
(6.61862e-06 -0.000528238 0)
(1.31778e-05 -0.000838907 0)
(1.93167e-05 -0.00112196 0)
(2.37435e-05 -0.00137939 0)
(2.55847e-05 -0.00161302 0)
(2.42492e-05 -0.00182451 0)
(1.93323e-05 -0.00201539 0)
(1.05994e-05 -0.00218708 0)
(-2.05942e-06 -0.00234084 0)
(-1.8627e-05 -0.00247783 0)
(-3.90059e-05 -0.00259908 0)
(-6.3002e-05 -0.00270551 0)
(-9.03733e-05 -0.00279795 0)
(-0.0001208 -0.00287711 0)
(-0.000153935 -0.00294362 0)
(-0.000189365 -0.00299802 0)
(-0.000226666 -0.00304076 0)
(-0.000265347 -0.00307222 0)
(-0.000304922 -0.00309273 0)
(-0.000344834 -0.00310252 0)
(-0.000384541 -0.00310181 0)
(-0.000423425 -0.00309071 0)
(-0.000460887 -0.00306941 0)
(-0.00049625 -0.00303788 0)
(-0.00052886 -0.00299634 0)
(-0.000557977 -0.00294466 0)
(-0.000582888 -0.00288316 0)
(-0.00060279 -0.00281164 0)
(-0.000616909 -0.00273062 0)
(-0.000624384 -0.00263984 0)
(-0.000624383 -0.00254024 0)
(-0.000615998 -0.00243143 0)
(-0.000598361 -0.0023151 0)
(-0.000570496 -0.00219066 0)
(-0.00053139 -0.00206097 0)
(-0.000479907 -0.00192509 0)
(-0.000415941 -0.00178784 0)
(-0.000341429 -0.00164796 0)
(-0.000261678 -0.00151363 0)
(-0.000179573 -0.00137414 0)
(-0.000102328 -0.00130865 0)
(-7.30116e-05 -0.00158715 0)
(-6.99719e-05 -0.00183842 0)
(-0.000135399 -0.00200985 0)
(-0.000219927 -0.0034823 0)
(-7.76482e-06 -0.00280042 0)
(7.39129e-05 -0.00231364 0)
(0.000888408 0.00825494 0)
(-0.00603287 0.00541541 0)
(6.92191e-05 -0.000223781 0)
(0.000196751 -0.000601833 0)
(0.000294449 -0.000918689 0)
(0.000366875 -0.00118442 0)
(0.000418404 -0.0014073 0)
(0.000452149 -0.00159419 0)
(0.000470334 -0.00175077 0)
(0.000474848 -0.00188182 0)
(0.000467393 -0.00199136 0)
(0.00044949 -0.00208272 0)
(0.0004225 -0.0021587 0)
(0.000387629 -0.00222163 0)
(0.000345966 -0.00227345 0)
(0.000298488 -0.00231575 0)
(0.000246092 -0.00234986 0)
(0.000189592 -0.00237684 0)
(0.000129753 -0.00239755 0)
(6.72709e-05 -0.00241267 0)
(2.8277e-06 -0.0024227 0)
(-6.29572e-05 -0.002428 0)
(-0.000129449 -0.00242879 0)
(-0.000196074 -0.00242514 0)
(-0.00026221 -0.00241704 0)
(-0.000327305 -0.00240428 0)
(-0.000390715 -0.00238658 0)
(-0.000451887 -0.00236346 0)
(-0.00051013 -0.00233433 0)
(-0.000564868 -0.00229837 0)
(-0.000615324 -0.00225461 0)
(-0.000660886 -0.00220181 0)
(-0.00070065 -0.00213847 0)
(-0.000733949 -0.00206276 0)
(-0.000759704 -0.00197247 0)
(-0.000777168 -0.00186496 0)
(-0.000785032 -0.00173696 0)
(-0.000782434 -0.00158473 0)
(-0.000767765 -0.00140346 0)
(-0.000739975 -0.00118788 0)
(-0.000696987 -0.000930804 0)
(-0.000637491 -0.000624573 0)
(-0.000559524 -0.000258146 0)
(-0.000463344 0.000179254 0)
(-0.000350388 0.000706159 0)
(-0.000228997 0.00131239 0)
(-9.4977e-05 0.00222789 0)
(1.99789e-05 0.00304756 0)
(0.000163428 0.00428901 0)
(0.000363317 0.00529343 0)
(0.000694583 0.00688021 0)
(0.00109214 0.00943433 0)
(0.00176729 -0.00535166 0)
(0.00192757 -0.00553505 0)
(0.00211033 -0.00653674 0)
(0.00232015 -0.010263 0)
(0.00288379 -0.0178256 0)
(0.00320256 -0.0136115 0)
(0.00332155 -0.0120554 0)
(0.00363153 -0.011037 0)
(0.00401292 -0.0101557 0)
(0.00435223 -0.00896929 0)
(0.00462643 -0.00748288 0)
(0.00488571 -0.00579993 0)
(0.0051405 -0.00415601 0)
(0.00531811 -0.00321282 0)
(0.00535767 -0.00211873 0)
(0.0053273 -0.000965594 0)
(0.00535419 3.04583e-06 0)
(0.00551613 0.00096894 0)
(0.0058104 0.00193914 0)
(0.00621212 0.00287836 0)
(0.00669277 0.0038138 0)
(0.00723143 0.00472683 0)
(0.00780208 0.0056306 0)
(0.00839465 0.00649254 0)
(0.00900223 0.00725376 0)
(0.00961704 0.00799504 0)
(0.0102383 0.00867047 0)
(0.0108646 0.00928536 0)
(0.0114836 0.00982844 0)
(0.0120982 0.0105258 0)