/*--------------------------------*- C++ -*----------------------------------*\
| =========                 |                                                 |
| \\      /  F ield         | OpenFOAM: The Open Source CFD Toolbox           |
|  \\    /   O peration     | Version:  2.4.0                                 |
|   \\  /    A nd           | Web:      www.OpenFOAM.org                      |
|    \\/     M anipulation  |                                                 |
\*---------------------------------------------------------------------------*/
FoamFile
{
    version     2.0;
    format      ascii;
    class       volScalarField;
    location    "1.9";
    object      H;
}
// * * * * * * * * * * * * * * * * * * * * * * * * * * * * * * * * * * * * * //

dimensions      [0 2 -2 0 0 0 0];

internalField   nonuniform List<scalar> 
8000
(
-11971.9
-11455.2
-10936.9
-10416.3
-9892.72
-9365.8
-8835.23
-8300.89
-7762.86
-7221.47
-6677.3
-6131.23
-5584.39
-5038.15
-4494.06
-3953.81
-3419.15
-2892.44
-2375.72
-1870.3
-1376.43
-890.853
-414.843
-4.10919
-2.52681
-1.58945
-1.20319
-1.22824
-1.36692
-1.54251
-1.7251
-1.89767
-2.0521
-2.18578
-2.29913
-2.3939
-2.4723
-2.53626
-2.58739
-2.62706
-2.65635
-2.6761
-2.68705
-2.68979
-2.68489
-2.67287
-2.65426
-2.62957
-2.59934
-2.56409
-11962.5
-11426.5
-10888.1
-10345.8
-9798.17
-9244.36
-8683.62
-8115.59
-7540.36
-6958.47
-6370.96
-5779.28
-5185.28
-4591.07
-3998.99
-3411.46
-2831.09
-2260.63
-1703.05
-1157.73
-623.571
-83.156
-1.12368
-0.927574
-0.738072
-0.744106
-0.815589
-0.928467
-1.06394
-1.20864
-1.35245
-1.48858
-1.61318
-1.72451
-1.8221
-1.90623
-1.97753
-2.03679
-2.08486
-2.12258
-2.15073
-2.17009
-2.18136
-2.18524
-2.18235
-2.1733
-2.15866
-2.13896
-2.11473
-2.08643
-11947.2
-11379.9
-10807.4
-10227.2
-9637.05
-9035.37
-8421.35
-7794.95
-7156.99
-6509.14
-5853.89
-5194.31
-4533.91
-3876.26
-3224.86
-2583.53
-1955.18
-1340.82
-746.377
-137.31
-1.67834
-0.0665651
-0.221646
-0.416971
-0.57697
-0.741505
-0.89123
-1.02716
-1.14978
-1.25982
-1.35792
-1.44469
-1.52068
-1.58644
-1.64255
-1.68956
-1.72807
-1.75865
-1.78185
-1.7982
-1.80824
-1.81246
-1.81134
-1.80532
-1.79484
-1.78031
-1.76211
-1.74061
-1.71615
-1.68905
-11920
-11296.4
-10663.1
-10015.4
-9350.27
-8665.92
-7962.26
-7240.81
-6504.75
-5758.77
-5008.68
-4260.93
-3522.39
-2798.95
-2092.83
-1421.04
-761.153
-90.0764
-1.05531
-0.0774713
-0.229288
-0.379091
-0.511491
-0.64831
-0.78079
-0.904665
-1.01632
-1.1145
-1.19907
-1.27067
-1.33036
-1.37936
-1.41884
-1.44993
-1.4736
-1.49073
-1.50206
-1.50823
-1.5098
-1.50726
-1.50105
-1.49152
-1.47903
-1.46386
-1.4463
-1.42658
-1.40495
-1.3816
-1.35673
-1.33053
-11872.6
-11151.8
-10415
-9655.12
-8868.36
-8053.52
-7212.44
-6350.1
-5474.42
-4596.22
-3727.36
-2877.62
-2064.36
-1301.03
-453.462
-4.32016
-0.113164
-0.0695892
-0.248512
-0.350367
-0.474388
-0.589679
-0.693772
-0.786346
-0.870836
-0.946983
-1.01355
-1.07017
-1.11711
-1.15501
-1.18473
-1.20719
-1.22329
-1.23385
-1.23962
-1.24123
-1.23925
-1.23413
-1.22628
-1.21605
-1.20371
-1.18952
-1.1737
-1.15643
-1.13789
-1.11821
-1.09753
-1.07597
-1.05365
-1.03066
-11801.2
-10934.9
-10045.6
-9123.43
-8162.92
-7163.06
-6129.8
-5074.01
-4012.7
-2971.5
-1972.59
-925.942
-30.335
-0.387584
-0.114287
-0.216312
-0.273985
-0.335272
-0.418161
-0.506209
-0.591366
-0.669535
-0.739832
-0.801707
-0.855029
-0.899912
-0.936661
-0.96578
-0.987922
-1.00383
-1.01426
-1.01995
-1.02161
-1.01983
-1.01516
-1.00804
-0.998854
-0.987927
-0.975519
-0.961849
-0.947101
-0.931426
-0.914955
-0.897798
-0.88005
-0.861796
-0.843111
-0.824061
-0.804707
-0.785107
-11704.2
-10639.9
-9541.46
-8394.39
-7191.23
-5933.36
-4632.99
-3308.68
-1965.71
-594.259
-5.64046
-0.271184
-0.0488384
-0.246007
-0.326635
-0.41522
-0.486342
-0.543593
-0.591615
-0.636293
-0.67937
-0.719118
-0.754632
-0.78537
-0.811083
-0.831751
-0.847525
-0.858689
-0.865617
-0.868741
-0.868509
-0.865364
-0.859724
-0.851967
-0.842432
-0.831411
-0.819156
-0.805881
-0.791767
-0.776966
-0.761605
-0.745792
-0.729617
-0.713157
-0.696476
-0.679631
-0.66267
-0.645635
-0.628562
-0.611485
-11556.8
-10191.1
-8773.84
-7284.53
-5718.05
-4096.28
-2482.41
-997.166
-12.8591
-1.49204
-1.21978
-0.762876
-0.678083
-0.687398
-0.712374
-0.728754
-0.735052
-0.737416
-0.73961
-0.743252
-0.748531
-0.754747
-0.760994
-0.76644
-0.770443
-0.772574
-0.772602
-0.770462
-0.766208
-0.759979
-0.751965
-0.742378
-0.731439
-0.71936
-0.70634
-0.692557
-0.67817
-0.663316
-0.648114
-0.632664
-0.617051
-0.601345
-0.585605
-0.569879
-0.554207
-0.538622
-0.523149
-0.507811
-0.492625
-0.477607
-11362.3
-9604.15
-7784.93
-5885.76
-3921.09
-1959.56
-21.1231
-2.7786
-3.11789
-2.39388
-2.05656
-1.78264
-1.57783
-1.41646
-1.28938
-1.18906
-1.10845
-1.04406
-0.993039
-0.952815
-0.920952
-0.895185
-0.873538
-0.854407
-0.83658
-0.819204
-0.80174
-0.783887
-0.765526
-0.746659
-0.727362
-0.707756
-0.687972
-0.668142
-0.648387
-0.628806
-0.609484
-0.590482
-0.571847
-0.553608
-0.535785
-0.518386
-0.501412
-0.48486
-0.468723
-0.45299
-0.43765
-0.422693
-0.408107
-0.393881
-11179.4
-9059.01
-6889.2
-4666.57
-2422.2
-25.9591
-18.4898
-15.2662
-12.5183
-10.0825
-8.04023
-6.45074
-5.30797
-4.46421
-3.82801
-3.33776
-2.95231
-2.64401
-2.39354
-2.18679
-2.01319
-1.8647
-1.73516
-1.61995
-1.51569
-1.41995
-1.33109
-1.24806
-1.17018
-1.09706
-1.02847
-0.964279
-0.904374
-0.848641
-0.796942
-0.749107
-0.704933
-0.664192
-0.626638
-0.592014
-0.560065
-0.53054
-0.503202
-0.477828
-0.454215
-0.432179
-0.411555
-0.392199
-0.373981
-0.35679
-11123.7
-8916.84
-6731.21
-4589.7
-2518.17
-40.0275
-27.9066
-24.1481
-20.7553
-17.7563
-15.1554
-12.9671
-11.1761
-9.72235
-8.53468
-7.55478
-6.73678
-6.04545
-5.45385
-4.94132
-4.49194
-4.09347
-3.73648
-3.41374
-3.1198
-2.85052
-2.60403
-2.37821
-2.17124
-1.98172
-1.80847
-1.65045
-1.50672
-1.37633
-1.25834
-1.15182
-1.05583
-0.969425
-0.891713
-0.821822
-0.758931
-0.702276
-0.651156
-0.604936
-0.563046
-0.524984
-0.490302
-0.458613
-0.429575
-0.402893
-11134.3
-8950.12
-6789.62
-4673.21
-2621.6
-51.1433
-36.0806
-32.2949
-28.7775
-25.5761
-22.7289
-20.2139
-18.0049
-16.0712
-14.3803
-12.9005
-11.6029
-10.4615
-9.45359
-8.55967
-7.76301
-7.04948
-6.40729
-5.82668
-5.29966
-4.81975
-4.38174
-3.98145
-3.61546
-3.28098
-2.97566
-2.69743
-2.44446
-2.215
-2.00739
-1.82001
-1.65124
-1.49952
-1.36331
-1.24136
-1.13232
-1.03466
-0.947055
-0.86832
-0.797427
-0.733473
-0.675664
-0.623305
-0.57579
-0.532588
-11122.3
-8913.15
-6725.85
-4581.7
-2503.57
-83.7753
-56.568
-48.0166
-40.4186
-33.7621
-28.0586
-23.306
-19.4573
-16.4135
-14.0394
-12.1907
-10.7372
-9.57404
-8.62289
-7.8276
-7.14861
-6.55808
-6.0364
-5.56959
-5.1477
-4.76355
-4.41196
-4.08903
-3.79176
-3.51778
-3.26508
-3.03193
-2.81678
-2.61822
-2.43493
-2.26568
-2.10932
-1.96475
-1.83097
-1.70706
-1.59214
-1.48543
-1.3862
-1.29381
-1.20768
-1.1273
-1.05221
-0.982009
-0.91634
-0.854883
-10910.2
-8266.12
-5606.08
-2907.06
-29.4624
-22.7234
-23.0089
-23.3811
-23.3444
-22.7763
-21.7002
-20.2808
-18.7136
-17.1564
-15.705
-14.4041
-13.2546
-12.2356
-11.3186
-10.4732
-9.67519
-8.90837
-8.16467
-7.4448
-6.7569
-6.11317
-5.53408
-5.02106
-4.57158
-4.18023
-3.83995
-3.54328
-3.28323
-3.05377
-2.8499
-2.66749
-2.50315
-2.35411
-2.21813
-2.09342
-1.97851
-1.87217
-1.77335
-1.6811
-1.59467
-1.51341
-1.43679
-1.36428
-1.29545
-1.22991
-11211.6
-9178.86
-7136.17
-5030.8
-2756.86
-31.7248
-25.3437
-24.8948
-4.36896
-7.10486
-8.96395
-10.2023
-10.8972
-11.1848
-11.1852
-10.9905
-10.6869
-10.3877
-10.0915
-9.77936
-9.44951
-9.09951
-8.72977
-8.3458
-7.957
-7.57377
-7.20574
-6.86064
-6.54041
-6.24336
-5.96579
-5.70345
-5.45244
-5.21444
-4.99369
-4.79362
-4.61456
-4.45081
-4.29577
-4.14626
-4.00272
-3.86542
-3.73388
-3.60761
-3.48618
-3.36968
-3.25758
-3.14878
-3.04196
-2.93619
-11475.9
-9985.58
-8539.78
-7149.31
-5814.16
-4530.84
-3298.52
-2075.83
-715.488
-11.6924
-4.81992
-5.57149
-6.00006
-5.70123
-4.34342
-0.476149
-0.113286
-0.70956
-1.38959
-2.09167
-2.74257
-3.29935
-3.74893
-4.08618
-4.30452
-4.41756
-4.42943
-4.45096
-4.46298
-4.44966
-4.4115
-4.34705
-4.25316
-4.138
-4.02538
-3.94315
-3.91549
-3.9277
-3.95365
-3.98336
-4.00097
-4.01176
-4.01785
-4.01933
-4.01534
-4.00388
-3.98609
-3.96082
-3.92951
-3.89149
-11724.5
-10727.4
-9765.91
-8852.5
-7992.25
-7184.6
-6425.22
-5707.5
-5023.66
-4366.5
-3726.16
-3090.94
-2454.59
-1814.04
-1162.44
-489.79
-52.8492
-3.13169
-2.45533
-2.3855
-2.16294
-1.79935
-1.41985
-1.08661
-0.314455
-0.0477927
-0.216989
-0.421111
-0.657925
-0.89906
-1.11001
-1.28383
-1.45264
-1.61445
-1.77588
-1.94247
-2.14957
-2.37192
-2.54453
-2.69599
-2.8523
-3.00849
-3.15539
-3.29395
-3.41824
-3.52469
-3.61209
-3.68047
-3.73135
-3.76614
-11877.3
-11178.6
-10497.4
-9840.82
-9212.47
-8613.48
-8043.06
-7499.27
-6979.63
-6481.65
-6003.2
-5542.58
-5098.33
-4668.73
-4251.34
-3847.18
-3454.97
-3071.58
-2692.25
-2313.65
-1934.23
-1553.07
-1168.89
-781.332
-398.979
-35.8893
-1.12468
-0.500164
-0.345437
-0.164951
-0.0439527
-0.0163939
-0.195095
-0.418396
-0.689077
-0.996108
-1.27923
-1.67537
-2.09445
-2.31885
-2.58044
-2.85946
-3.08749
-3.2356
-3.30072
-3.38839
-3.46622
-3.53305
-3.59288
-3.64625
-11948.5
-11388
-10834.3
-10290.4
-9758.33
-9239.31
-8733.76
-8241.73
-7763.08
-7297.62
-6845.27
-6406.02
-5980.01
-5567.37
-5168.25
-4782.73
-4410.77
-4052.24
-3706.93
-3374.45
-3054.28
-2745.61
-2447.38
-2158.23
-1877.19
-1603.37
-1336.78
-1074.14
-812.725
-550.872
-283.967
-40.0768
-0.767956
-0.185927
-0.123201
-0.046524
-0.039837
-1.08373
-2.32999
-3.58635
-4.63985
-5.47775
-5.98316
-6.37033
-6.25479
-5.97565
-5.52679
-5.22787
-5.05254
-4.91859
-11978.4
-11475.4
-10973.4
-10473.3
-9976.04
-9482.73
-8994.51
-8512.68
-8038.62
-7573.85
-7119.95
-6678.51
-6251.05
-5838.93
-5443.3
-5064.99
-4704.49
-4361.96
-4037.19
-3729.66
-3438.55
-3162.8
-2901.2
-2652.36
-2414.89
-2187.38
-1968.53
-1757.06
-1551.53
-1350.13
-1154.04
-961.268
-769.466
-576.202
-383.237
-195.748
-2.62522
-0.464768
-19.9437
-28.8445
-31.813
-28.5289
-22.4713
-17.7662
-14.4825
-13.2849
-12.1118
-10.9713
-9.53803
-8.17213
-2.52434
-2.4806
-2.43338
-2.38316
-2.33039
-2.2755
-2.21889
-2.16094
-2.10198
-2.04231
-1.98223
-1.92198
-1.86178
-1.80183
-1.74231
-1.68337
-1.62515
-1.56776
-1.51131
-1.45587
-1.40154
-1.34836
-1.29638
-1.24566
-1.19622
-1.14809
-1.10129
-1.05583
-1.01172
-0.968966
-0.927561
-0.887502
-0.848779
-0.81138
-0.775289
-0.740488
-0.706957
-0.674674
-0.643614
-0.613752
-0.58506
-0.557512
-0.531077
-0.505725
-0.481427
-0.458152
-0.435867
-0.414543
-0.394148
-0.37465
-2.05453
-2.01945
-1.98159
-1.94132
-1.89901
-1.85497
-1.80951
-1.76291
-1.71542
-1.6673
-1.61874
-1.56995
-1.52111
-1.47238
-1.42391
-1.37582
-1.32824
-1.28126
-1.23498
-1.18948
-1.14482
-1.10106
-1.05826
-1.01646
-0.975685
-0.935972
-0.89734
-0.859805
-0.823378
-0.788064
-0.753866
-0.720781
-0.688804
-0.657926
-0.628135
-0.599418
-0.571758
-0.545137
-0.519536
-0.494933
-0.471305
-0.44863
-0.426883
-0.406039
-0.386072
-0.366956
-0.348666
-0.331175
-0.314457
-0.298485
-1.65963
-1.62816
-1.59491
-1.56014
-1.52408
-1.48694
-1.44894
-1.41025
-1.37107
-1.33153
-1.2918
-1.25202
-1.21229
-1.17275
-1.13348
-1.09459
-1.05615
-1.01824
-0.980934
-0.944277
-0.908325
-0.873122
-0.838703
-0.805102
-0.772342
-0.740446
-0.709429
-0.679303
-0.650075
-0.62175
-0.594328
-0.567807
-0.542181
-0.517445
-0.493586
-0.470596
-0.448459
-0.427161
-0.406687
-0.387018
-0.368136
-0.350023
-0.332659
-0.316023
-0.300095
-0.284853
-0.270277
-0.256344
-0.243035
-0.230327
-1.30315
-1.27477
-1.24552
-1.21555
-1.18499
-1.15396
-1.12258
-1.09096
-1.05919
-1.02737
-0.995584
-0.963917
-0.932441
-0.901225
-0.87033
-0.839814
-0.809727
-0.780116
-0.751021
-0.722479
-0.694522
-0.667176
-0.640465
-0.61441
-0.589025
-0.564324
-0.540316
-0.517008
-0.494403
-0.472504
-0.45131
-0.430818
-0.411023
-0.391918
-0.373497
-0.355748
-0.338663
-0.322228
-0.306432
-0.291261
-0.2767
-0.262736
-0.249352
-0.236533
-0.224262
-0.212525
-0.201305
-0.190584
-0.180348
-0.170579
-1.00711
-0.983081
-0.958663
-0.933934
-0.90897
-0.883842
-0.858618
-0.83336
-0.808129
-0.782981
-0.757967
-0.733136
-0.708534
-0.684203
-0.660181
-0.636502
-0.613199
-0.590301
-0.567834
-0.54582
-0.524278
-0.503228
-0.482683
-0.462655
-0.443155
-0.42419
-0.405767
-0.387888
-0.370556
-0.353771
-0.337531
-0.321835
-0.306677
-0.292053
-0.277956
-0.264379
-0.251314
-0.238751
-0.226681
-0.215094
-0.203978
-0.193322
-0.183115
-0.173344
-0.163997
-0.155062
-0.146527
-0.138378
-0.130604
-0.123191
-0.765311
-0.745368
-0.725325
-0.705225
-0.685108
-0.665014
-0.644979
-0.625039
-0.605226
-0.585572
-0.566107
-0.546857
-0.527849
-0.509107
-0.490653
-0.472507
-0.454687
-0.437211
-0.420093
-0.403347
-0.386983
-0.371013
-0.355444
-0.340283
-0.325536
-0.311206
-0.297297
-0.283809
-0.270744
-0.258099
-0.245875
-0.234066
-0.222671
-0.211684
-0.2011
-0.190914
-0.181118
-0.171706
-0.16267
-0.154003
-0.145696
-0.13774
-0.130126
-0.122846
-0.11589
-0.109249
-0.102914
-0.0968745
-0.091122
-0.085647
-0.594432
-0.57743
-0.560505
-0.543679
-0.526972
-0.510405
-0.493997
-0.477765
-0.461726
-0.445897
-0.430291
-0.414924
-0.399807
-0.384955
-0.370378
-0.356086
-0.34209
-0.328397
-0.315017
-0.301954
-0.289216
-0.276807
-0.264731
-0.252991
-0.241589
-0.230528
-0.219806
-0.209425
-0.199384
-0.18968
-0.180312
-0.171276
-0.162569
-0.154188
-0.146127
-0.138383
-0.130949
-0.12382
-0.11699
-0.110453
-0.104202
-0.0982315
-0.0925335
-0.0871015
-0.0819284
-0.0770071
-0.0723306
-0.0678916
-0.0636831
-0.0596981
-0.46277
-0.448123
-0.433675
-0.419436
-0.405412
-0.39161
-0.378035
-0.364694
-0.351592
-0.338733
-0.326124
-0.313769
-0.301671
-0.289836
-0.278267
-0.266967
-0.255941
-0.24519
-0.234717
-0.224524
-0.214613
-0.204985
-0.195641
-0.186581
-0.177806
-0.169314
-0.161105
-0.153178
-0.145531
-0.138161
-0.131067
-0.124246
-0.117695
-0.111409
-0.105387
-0.0996233
-0.0941146
-0.0888567
-0.083845
-0.0790751
-0.0745424
-0.0702421
-0.0661696
-0.06232
-0.0586885
-0.0552703
-0.0520609
-0.0490555
-0.0462495
-0.0436387
-0.380004
-0.366468
-0.353262
-0.34038
-0.327814
-0.315557
-0.303603
-0.291949
-0.280588
-0.269518
-0.258734
-0.248234
-0.238016
-0.228075
-0.218412
-0.209023
-0.199907
-0.191063
-0.182488
-0.174182
-0.166143
-0.15837
-0.15086
-0.143613
-0.136627
-0.129899
-0.12343
-0.117215
-0.111255
-0.105545
-0.100085
-0.0948721
-0.0899037
-0.0851774
-0.0806909
-0.0764417
-0.0724272
-0.0686448
-0.0650921
-0.0617665
-0.0586655
-0.0557867
-0.0531277
-0.0506865
-0.0484608
-0.0464487
-0.0446485
-0.0430586
-0.0416775
-0.0405042
-0.340529
-0.325113
-0.310469
-0.296533
-0.283249
-0.270569
-0.258451
-0.246858
-0.235757
-0.225119
-0.21492
-0.205136
-0.195749
-0.18674
-0.178094
-0.169797
-0.161835
-0.154199
-0.146878
-0.139864
-0.133148
-0.126724
-0.120585
-0.114726
-0.109141
-0.103827
-0.0987796
-0.093995
-0.0894703
-0.0852029
-0.0811905
-0.0774311
-0.0739232
-0.0706652
-0.0676563
-0.0648955
-0.0623825
-0.0601171
-0.0580993
-0.0563297
-0.0548089
-0.0535381
-0.0525188
-0.0517526
-0.0512418
-0.0509889
-0.0509971
-0.0512695
-0.0518102
-0.0526235
-0.378309
-0.355602
-0.334578
-0.315068
-0.296926
-0.280025
-0.264252
-0.24951
-0.235711
-0.222779
-0.210646
-0.199254
-0.188547
-0.178479
-0.169007
-0.160093
-0.151705
-0.143811
-0.136386
-0.129406
-0.122849
-0.116699
-0.110937
-0.105552
-0.100529
-0.0958594
-0.0915333
-0.0875434
-0.0838835
-0.0805485
-0.0775347
-0.0748392
-0.0724602
-0.0703968
-0.0686491
-0.0672181
-0.0661054
-0.0653136
-0.0648461
-0.064707
-0.0649012
-0.0654346
-0.0663135
-0.0675454
-0.0691383
-0.0711012
-0.0734439
-0.076177
-0.0793117
-0.0828602
-0.493235
-0.457324
-0.4245
-0.394452
-0.366906
-0.34162
-0.318381
-0.297
-0.27731
-0.259163
-0.242425
-0.226978
-0.212716
-0.199545
-0.18738
-0.176146
-0.165773
-0.156203
-0.147381
-0.139259
-0.131796
-0.124952
-0.118697
-0.113
-0.107837
-0.103187
-0.0990311
-0.0953545
-0.0921448
-0.089392
-0.0870886
-0.0852294
-0.0838109
-0.0828321
-0.0822934
-0.0821971
-0.0825472
-0.0833492
-0.0846103
-0.0863392
-0.0885458
-0.0912418
-0.09444
-0.0981547
-0.102402
-0.107197
-0.11256
-0.11851
-0.125065
-0.132249
-0.797355
-0.743503
-0.6931
-0.64594
-0.601835
-0.560612
-0.52211
-0.486181
-0.452683
-0.421483
-0.392454
-0.365477
-0.340435
-0.31722
-0.295728
-0.275859
-0.257519
-0.240621
-0.225082
-0.210823
-0.197773
-0.185866
-0.17504
-0.16524
-0.156414
-0.148519
-0.141514
-0.135362
-0.130034
-0.125503
-0.121746
-0.118745
-0.116486
-0.114957
-0.114152
-0.114067
-0.1147
-0.116054
-0.118134
-0.120948
-0.124508
-0.128826
-0.13392
-0.139807
-0.14651
-0.154051
-0.162456
-0.171754
-0.181974
-0.193147
-1.16735
-1.10751
-1.05017
-0.995172
-0.942359
-0.891638
-0.842937
-0.796195
-0.751372
-0.708437
-0.667369
-0.628151
-0.590769
-0.55521
-0.52146
-0.489501
-0.459312
-0.430869
-0.404142
-0.379099
-0.355703
-0.333916
-0.313707
-0.29503
-0.277842
-0.262101
-0.247769
-0.234807
-0.223181
-0.212856
-0.203803
-0.195994
-0.189404
-0.184012
-0.1798
-0.176752
-0.174856
-0.174104
-0.174489
-0.17601
-0.178668
-0.182466
-0.187412
-0.193517
-0.200792
-0.209255
-0.218924
-0.229821
-0.241969
-0.255395
-2.83091
-2.72581
-2.62066
-2.51516
-2.4092
-2.30285
-2.19635
-2.09006
-1.98439
-1.87979
-1.77677
-1.6758
-1.57736
-1.48186
-1.3897
-1.30115
-1.21648
-1.13584
-1.05936
-0.987081
-0.919024
-0.855153
-0.795402
-0.739675
-0.687856
-0.639816
-0.595415
-0.554511
-0.516964
-0.482636
-0.451393
-0.42311
-0.397669
-0.374958
-0.354875
-0.337323
-0.322215
-0.309468
-0.299009
-0.29077
-0.284691
-0.280717
-0.2788
-0.278897
-0.280974
-0.284991
-0.29091
-0.298702
-0.308345
-0.319822
-3.84624
-3.79375
-3.7339
-3.6668
-3.59271
-3.51153
-3.4235
-3.32876
-3.22766
-3.12053
-3.00774
-2.88983
-2.76751
-2.64164
-2.51333
-2.38391
-2.25489
-2.12795
-2.00463
-1.88614
-1.7732
-1.66611
-1.56487
-1.46935
-1.37927
-1.29436
-1.21434
-1.13894
-1.06797
-1.00122
-0.938575
-0.879909
-0.825138
-0.774184
-0.726982
-0.683463
-0.643564
-0.607225
-0.574382
-0.544973
-0.518933
-0.496196
-0.476685
-0.460332
-0.447058
-0.436787
-0.429434
-0.424922
-0.42317
-0.424096
-3.78657
-3.79357
-3.78832
-3.77195
-3.7453
-3.70896
-3.6634
-3.60924
-3.54701
-3.47725
-3.40064
-3.31794
-3.23015
-3.13853
-3.0446
-2.95018
-2.85729
-2.76692
-2.67996
-2.59555
-2.51302
-2.43178
-2.35149
-2.27184
-2.19265
-2.11382
-2.03535
-1.95731
-1.87982
-1.80303
-1.72714
-1.65236
-1.57887
-1.50689
-1.43659
-1.36815
-1.30179
-1.23772
-1.17613
-1.11722
-1.06117
-1.00813
-0.958247
-0.911645
-0.868426
-0.82868
-0.792483
-0.759894
-0.730962
-0.705716
-3.691
-3.72735
-3.7566
-3.77913
-3.79481
-3.80333
-3.80469
-3.79898
-3.78631
-3.76693
-3.74126
-3.70997
-3.67407
-3.6353
-3.59754
-3.56883
-3.53828
-3.50507
-3.47401
-3.45044
-3.4306
-3.41079
-3.38913
-3.36453
-3.33604
-3.30296
-3.26488
-3.22146
-3.1725
-3.11806
-3.05844
-2.99374
-2.92397
-2.84944
-2.77045
-2.687
-2.59943
-2.50817
-2.41382
-2.31701
-2.21837
-2.11861
-2.01847
-1.91874
-1.8202
-1.72367
-1.62994
-1.5398
-1.45403
-1.37336
-4.80901
-4.71922
-4.64591
-4.58587
-4.53603
-4.49364
-4.45664
-4.42299
-4.39174
-4.36186
-4.33319
-4.30624
-4.28422
-4.27086
-4.24795
-4.22741
-4.2106
-4.1889
-4.16852
-4.15623
-4.14635
-4.13626
-4.12498
-4.11175
-4.09571
-4.07635
-4.05313
-4.02534
-3.99234
-3.95388
-3.90969
-3.85957
-3.80276
-3.73934
-3.66854
-3.59055
-3.50557
-3.41388
-3.31557
-3.21095
-3.1009
-2.98607
-2.86723
-2.74539
-2.62175
-2.49765
-2.37453
-2.25389
-2.13725
-2.02609
-7.25988
-6.67521
-6.2576
-5.93547
-5.67959
-5.47865
-5.34311
-5.22487
-5.12751
-5.05137
-4.99169
-4.94463
-4.90756
-4.87842
-4.85252
-4.82788
-4.80243
-4.77686
-4.7522
-4.72892
-4.70691
-4.68601
-4.66587
-4.64596
-4.62571
-4.60463
-4.58219
-4.55816
-4.53144
-4.50171
-4.46827
-4.43145
-4.39037
-4.34398
-4.29264
-4.23621
-4.17459
-4.10798
-4.03657
-3.9601
-3.87891
-3.793
-3.70306
-3.60951
-3.51297
-3.41442
-3.31447
-3.2143
-3.11542
-3.01926
-0.360034
-0.350064
-0.340298
-0.330734
-0.321369
-0.312202
-0.303231
-0.294453
-0.285866
-0.277469
-0.269259
-0.261233
-0.25339
-0.245728
-0.238243
-0.230933
-0.223796
-0.21683
-0.210033
-0.203401
-0.196932
-0.190624
-0.184474
-0.17848
-0.172639
-0.166948
-0.161406
-0.156009
-0.150756
-0.145643
-0.140668
-0.135828
-0.131121
-0.126545
-0.122097
-0.117773
-0.113573
-0.109494
-0.105532
-0.101686
-0.0979526
-0.0943302
-0.0908161
-0.087408
-0.0841034
-0.0809001
-0.0777957
-0.0747881
-0.0718748
-0.0690538
-0.0663227
-0.0636795
-0.0611219
-0.0586479
-0.0562553
-0.0539421
-0.0517063
-0.0495459
-0.0474589
-0.0454433
-0.0434973
-0.0416189
-0.0398064
-0.0380578
-0.0363715
-0.0347457
-0.0331786
-0.0316687
-0.0302141
-0.0288134
-0.0274649
-0.026167
-0.0249183
-0.0237173
-0.0225624
-0.0214523
-0.0203856
-0.0193609
-0.0183769
-0.0174323
-0.0165257
-0.015656
-0.014822
-0.0140225
-0.0132563
-0.0125223
-0.0118194
-0.0111465
-0.0105027
-0.0098868
-0.00929795
-0.00873517
-0.00819751
-0.00768408
-0.007194
-0.00672641
-0.00628048
-0.00585542
-0.00545044
-0.00506478
-0.00469771
-0.00434852
-0.00401652
-0.00370104
-0.00340143
-0.00311707
-0.00284735
-0.00259169
-0.00234952
-0.00212029
-0.00190347
-0.00169856
-0.00150509
-0.00132262
-0.00115067
-0.000988786
-0.000836517
-0.000693439
-0.000559142
-0.000433228
-0.000315317
-0.000205039
-0.000102042
-5.98277e-06
8.3467e-05
0.000166624
0.000243794
0.00031527
0.000381336
0.000442264
0.000498316
0.000549744
0.000596791
0.000639691
0.000678667
0.000713936
0.000745704
0.000774169
0.000799524
0.000821951
0.000841625
0.000858714
0.000873379
0.000885774
0.000896046
0.000904334
0.000910773
0.00091549
0.000918605
0.000920234
0.000920485
0.000919462
0.000917261
0.000913975
0.000909689
0.000904484
0.000898436
0.000891616
0.000884089
0.000875916
0.000867154
0.000857854
0.000848064
0.000837828
0.000827185
0.000816172
0.000804822
0.000793164
0.000781225
0.000769029
0.000756596
0.000743947
0.000731098
0.000718065
0.000704862
0.0006915
0.000677992
0.000664349
0.00065058
0.000636695
0.000622704
0.000608615
0.000594439
0.000580185
0.000565863
0.000551484
0.000537059
0.0005226
0.000508118
0.000493627
0.000479141
0.000464674
0.000450241
0.000435857
0.000421539
0.000407304
0.000393167
0.000379145
0.000365257
0.00035152
0.000337949
0.000324562
0.000311376
0.000298406
0.000285668
0.000273176
0.000260944
0.000248985
0.000237311
0.000225933
0.00021486
0.000204102
0.000193665
0.000183557
0.00017378
0.000164341
0.00015524
0.00014648
0.00013806
0.00012998
0.000122237
0.000114828
0.00010775
0.000100997
9.45637e-05
8.84439e-05
8.26304e-05
7.71155e-05
7.1891e-05
6.69482e-05
6.22783e-05
5.7872e-05
5.37199e-05
4.98122e-05
4.61393e-05
4.26914e-05
3.94587e-05
3.64316e-05
3.36005e-05
3.09558e-05
2.84882e-05
2.61887e-05
2.40484e-05
2.20586e-05
2.0211e-05
1.84973e-05
1.69098e-05
1.5441e-05
1.40835e-05
1.28305e-05
1.16753e-05
1.06115e-05
9.63314e-06
8.73442e-06
7.90988e-06
7.15434e-06
6.4629e-06
5.83091e-06
5.25402e-06
4.72809e-06
4.24925e-06
3.81387e-06
3.41852e-06
3.06001e-06
2.73535e-06
2.44175e-06
2.17661e-06
1.9375e-06
1.72218e-06
1.52856e-06
1.35471e-06
1.19882e-06
1.05926e-06
9.34493e-07
8.23119e-07
7.23846e-07
6.35492e-07
5.56972e-07
4.87293e-07
4.25549e-07
3.70914e-07
3.22637e-07
2.80035e-07
2.42487e-07
2.09433e-07
1.80364e-07
1.54823e-07
1.32397e-07
1.12714e-07
9.54416e-08
8.02787e-08
6.69578e-08
5.52389e-08
4.4907e-08
3.5771e-08
2.76601e-08
2.04221e-08
1.39216e-08
8.03699e-09
2.65192e-09
-0.286495
-0.278321
-0.27032
-0.262488
-0.254825
-0.247329
-0.239998
-0.232829
-0.225822
-0.218973
-0.212281
-0.205745
-0.199361
-0.193128
-0.187044
-0.181107
-0.175314
-0.169664
-0.164155
-0.158783
-0.153547
-0.148446
-0.143476
-0.138635
-0.133922
-0.129334
-0.124868
-0.120524
-0.116298
-0.112188
-0.108193
-0.10431
-0.100537
-0.0968709
-0.0933109
-0.0898543
-0.0864991
-0.0832431
-0.0800842
-0.0770204
-0.0740496
-0.0711698
-0.0683789
-0.065675
-0.063056
-0.06052
-0.058065
-0.0556891
-0.0533905
-0.0511671
-0.0490172
-0.046939
-0.0449306
-0.0429903
-0.0411163
-0.0393068
-0.0375602
-0.0358748
-0.0342489
-0.0326809
-0.0311693
-0.0297123
-0.0283086
-0.0269566
-0.0256548
-0.0244018
-0.0231961
-0.0220363
-0.0209211
-0.019849
-0.0188189
-0.0178294
-0.0168792
-0.0159672
-0.0150921
-0.0142527
-0.0134479
-0.0126765
-0.0119376
-0.0112299
-0.0105525
-0.00990433
-0.00928443
-0.00869183
-0.00812558
-0.00758477
-0.0070685
-0.00657593
-0.0061062
-0.00565849
-0.00523202
-0.00482602
-0.00443973
-0.00407242
-0.0037234
-0.00339199
-0.00307751
-0.00277933
-0.00249683
-0.00222942
-0.00197649
-0.00173751
-0.00151192
-0.0012992
-0.00109885
-0.000910373
-0.0007333
-0.000567177
-0.000411567
-0.000266046
-0.00013021
-3.6859e-06
0.000113895
0.000222947
0.000323866
0.000417034
0.000502817
0.000581571
0.000653636
0.000719344
0.000779011
0.000832948
0.000881452
0.000924812
0.00096331
0.000997216
0.00102679
0.0010523
0.00107399
0.00109209
0.00110685
0.00111848
0.00112722
0.00113327
0.00113685
0.00113815
0.00113737
0.0011347
0.00113033
0.00112442
0.00111715
0.00110868
0.00109917
0.00108876
0.0010776
0.00106583
0.00105357
0.00104095
0.00102807
0.00101505
0.00100197
0.000988933
0.000976012
0.000963281
0.000950804
0.000938634
0.000926818
0.000915395
0.000904391
0.000893829
0.00088372
0.000874069
0.000864871
0.000856117
0.000847788
0.000839859
0.0008323
0.000825075
0.000818144
0.00081146
0.000804976
0.000798639
0.000792396
0.000786191
0.000779968
0.000773671
0.000767244
0.000760633
0.000753787
0.000746655
0.00073919
0.000731352
0.0007231
0.000714402
0.000705228
0.000695556
0.000685367
0.000674649
0.000663396
0.000651608
0.000639288
0.000626448
0.000613104
0.000599276
0.000584991
0.000570279
0.000555174
0.000539713
0.000523939
0.000507894
0.000491624
0.000475176
0.000458599
0.000441942
0.000425252
0.00040858
0.000391972
0.000375475
0.000359132
0.000342988
0.000327081
0.000311449
0.000296128
0.000281148
0.000266539
0.000252325
0.000238529
0.000225169
0.000212261
0.000199818
0.000187848
0.000176358
0.000165352
0.00015483
0.000144791
0.000135231
0.000126144
0.000117522
0.000109357
0.000101637
9.43506e-05
8.74842e-05
8.10239e-05
7.49553e-05
6.92631e-05
6.39318e-05
5.89457e-05
5.42888e-05
4.99455e-05
4.58998e-05
4.21364e-05
3.864e-05
3.53957e-05
3.2389e-05
2.96058e-05
2.70328e-05
2.46566e-05
2.2465e-05
2.04458e-05
1.85877e-05
1.68798e-05
1.53117e-05
1.38736e-05
1.25563e-05
1.1351e-05
1.02495e-05
9.24395e-06
8.32716e-06
7.49227e-06
6.73286e-06
6.04296e-06
5.41696e-06
4.84965e-06
4.33618e-06
3.87203e-06
3.453e-06
3.0752e-06
2.73502e-06
2.42913e-06
2.15443e-06
1.90809e-06
1.68748e-06
1.49019e-06
1.314e-06
1.15688e-06
1.01695e-06
8.92524e-07
7.82029e-07
6.84046e-07
5.97278e-07
5.20545e-07
4.52778e-07
3.93004e-07
3.40343e-07
2.94001e-07
2.53258e-07
2.17468e-07
1.86047e-07
1.58472e-07
1.34271e-07
1.13024e-07
9.43511e-08
7.79158e-08
6.34153e-08
5.05799e-08
3.91685e-08
2.89662e-08
1.97814e-08
1.1443e-08
3.79068e-09
-0.220773
-0.214265
-0.207897
-0.201669
-0.195578
-0.189624
-0.183804
-0.178117
-0.17256
-0.167134
-0.161834
-0.156661
-0.151612
-0.146686
-0.14188
-0.137193
-0.132624
-0.128169
-0.123828
-0.119599
-0.11548
-0.11147
-0.107565
-0.103765
-0.100068
-0.0964715
-0.0929743
-0.0895744
-0.08627
-0.0830593
-0.0799405
-0.0769119
-0.0739716
-0.0711179
-0.068349
-0.0656632
-0.0630587
-0.0605338
-0.0580869
-0.0557161
-0.0534198
-0.0511964
-0.0490441
-0.0469614
-0.0449466
-0.0429981
-0.0411144
-0.0392937
-0.0375347
-0.0358357
-0.0341953
-0.032612
-0.0310842
-0.0296106
-0.0281897
-0.0268201
-0.0255004
-0.0242293
-0.0230055
-0.0218275
-0.0206942
-0.0196042
-0.0185563
-0.0175493
-0.016582
-0.0156532
-0.0147618
-0.0139066
-0.0130865
-0.0123006
-0.0115476
-0.0108266
-0.0101365
-0.00947646
-0.00884543
-0.00824249
-0.00766673
-0.00711726
-0.00659322
-0.00609375
-0.00561804
-0.0051653
-0.00473474
-0.00432561
-0.00393718
-0.00356874
-0.00321959
-0.00288909
-0.00257656
-0.0022814
-0.00200298
-0.00174074
-0.00149409
-0.00126251
-0.00104545
-0.000842411
-0.000652906
-0.000476465
-0.000312635
-0.000160982
-2.10888e-05
0.000107445
0.000225003
0.000331954
0.00042865
0.000515429
0.000592614
0.000660513
0.000719421
0.000769616
0.000811364
0.000845045
0.000871075
0.000889852
0.000901757
0.00090716
0.000906418
0.000899883
0.000887896
0.000870795
0.000848914
0.000822581
0.000792125
0.000757872
0.000720145
0.000679269
0.000635567
0.00058936
0.000540972
0.000490723
0.000438935
0.000385927
0.000332018
0.000277525
0.000222763
0.000168042
0.000113672
5.99548e-05
7.18894e-06
-4.43346e-05
-9.43323e-05
-0.00014253
-0.000188663
-0.000232478
-0.000273736
-0.00031221
-0.000347689
-0.00037998
-0.000408907
-0.000434313
-0.000456061
-0.000474038
-0.000488151
-0.000498331
-0.000504535
-0.000506744
-0.000504964
-0.000499227
-0.000489591
-0.000476141
-0.000458984
-0.000438256
-0.000414112
-0.000386734
-0.000356323
-0.000323101
-0.000287306
-0.000249195
-0.000209037
-0.000167113
-0.000123715
-7.91413e-05
-3.36936e-05
1.23225e-05
5.86026e-05
0.000104845
0.000150754
0.00019604
0.000240426
0.000283646
0.00032545
0.000365602
0.000403885
0.000440104
0.000474082
0.000505666
0.000534723
0.000561146
0.00058485
0.000605775
0.000623882
0.000639159
0.000651611
0.000661268
0.00066818
0.000672413
0.000674055
0.000673207
0.000669985
0.000664518
0.000656944
0.000647412
0.000636078
0.000623102
0.000608648
0.00059288
0.000575964
0.000558065
0.000539341
0.000519949
0.000500039
0.000479756
0.000459234
0.000438602
0.000417979
0.000397473
0.000377184
0.000357203
0.000337609
0.000318473
0.000299855
0.000281808
0.000264373
0.000247585
0.000231471
0.000216049
0.000201331
0.000187323
0.000174026
0.000161434
0.000149539
0.000138327
0.000127783
0.000117886
0.000108616
9.99503e-05
9.18632e-05
8.43298e-05
7.73239e-05
7.08191e-05
6.47889e-05
5.9207e-05
5.40473e-05
4.92847e-05
4.48942e-05
4.08521e-05
3.71354e-05
3.3722e-05
3.05907e-05
2.77217e-05
2.50959e-05
2.26953e-05
2.05031e-05
1.85033e-05
1.66809e-05
1.5022e-05
1.35136e-05
1.21435e-05
1.09002e-05
9.77335e-06
8.75307e-06
7.83032e-06
6.99669e-06
6.24443e-06
5.56636e-06
4.95587e-06
4.40687e-06
3.91376e-06
3.47137e-06
3.07498e-06
2.72024e-06
2.40318e-06
2.12015e-06
1.86783e-06
1.64317e-06
1.4434e-06
1.266e-06
1.10867e-06
9.69318e-07
8.46051e-07
7.3715e-07
6.41058e-07
5.56369e-07
4.81812e-07
4.16242e-07
3.58625e-07
3.08035e-07
2.63635e-07
2.24678e-07
1.90492e-07
1.60475e-07
1.3409e-07
1.10854e-07
9.03387e-08
7.21586e-08