/*--------------------------------*- C++ -*----------------------------------*\
| =========                 |                                                 |
| \\      /  F ield         | OpenFOAM: The Open Source CFD Toolbox           |
|  \\    /   O peration     | Version:  2.4.0                                 |
|   \\  /    A nd           | Web:      www.OpenFOAM.org                      |
|    \\/     M anipulation  |                                                 |
\*---------------------------------------------------------------------------*/
FoamFile
{
    version     2.0;
    format      ascii;
    class       volScalarField;
    location    "0.007";
    object      H;
}
// * * * * * * * * * * * * * * * * * * * * * * * * * * * * * * * * * * * * * //

dimensions      [0 2 -2 0 0 0 0];

internalField   nonuniform List<scalar> 
125
(
-1.96346e-05
-1.65276e-05
-1.38935e-05
-1.16631e-05
-9.77722e-06
-8.1847e-06
-6.84183e-06
-5.711e-06
-4.7601e-06
-3.96165e-06
-3.2922e-06
-2.73172e-06
-2.26315e-06
-1.87207e-06
-1.54611e-06
-1.2749e-06
-1.04955e-06
-8.62635e-07
-7.07849e-07
-5.79858e-07
-4.74226e-07
-3.87165e-07
-3.15555e-07
-2.56763e-07
-2.08521e-07
-1.69072e-07
-1.36836e-07
-1.10534e-07
-8.91318e-08
-7.17558e-08
-5.76388e-08
-4.62327e-08
-3.70059e-08
-2.95571e-08
-2.3563e-08
-1.87574e-08
-1.49001e-08
-1.18054e-08
-9.34204e-09
-7.37143e-09
-5.81415e-09
-4.56931e-09
-3.57458e-09
-2.80449e-09
-2.19908e-09
-1.71388e-09
-1.31265e-09
-1.04753e-09
-7.74902e-10
-6.47805e-10
-4.71014e-10
-3.62705e-10
-2.59976e-10
-2.44522e-10
-1.64414e-10
-1.44128e-10
-7.72559e-11
-5.98315e-11
-4.86124e-11
-5.11049e-11
-5.58756e-11
-4.6667e-11
-5.08911e-11
-1.85599e-11
8.68778e-13
7.50842e-13
3.06361e-14
-2.50418e-14
-3.44349e-15
5.59536e-16
1.65417e-16
-3.89086e-18
-5.41658e-18
-3.07092e-19
1.31059e-19
1.78259e-20
-2.209e-21
-5.97539e-22
1.54684e-23
1.49438e-23
5.30139e-25
-2.9634e-25
-2.72555e-26
4.65563e-27
7.77138e-28
-5.23121e-29
-1.7153e-29
1.63026e-31
3.14766e-31
1.1399e-32
-4.8391e-33
-4.03917e-34
6.00432e-35
8.96508e-36
-5.22071e-37
-1.55404e-37
7.93007e-40
2.20763e-39
8.33596e-41
-2.56598e-41
-2.14785e-42
2.31711e-43
3.56567e-44
-1.29645e-45
-4.63064e-46
-3.73257e-48
4.91952e-48
2.27655e-49
-4.25687e-50
-3.86596e-51
2.81764e-52
4.70551e-53
-1.04815e-54
-4.65349e-55
-5.43729e-57
3.88557e-57
1.60108e-58
-2.76803e-59
-2.02283e-60
1.67438e-61
1.93348e-62
-8.46738e-64
-1.5678e-64
3.51608e-66
1.21411e-66
)
;

boundaryField
{
    BotWall
    {
        type            zeroGradient;
    }
    FreeStream
    {
        type            zeroGradient;
    }
    FrontNBack
    {
        type            empty;
    }
    LeftSide
    {
        type            symmetryPlane;
    }
    RightSide
    {
        type            symmetryPlane;
    }
    procBoundary0to1
    {
        type            processor;
        value           uniform -2.32951e-05;
    }
    procBoundary0to2
    {
        type            processor;
        value           nonuniform List<scalar> 
75
(
-4.76883e-10
-3.63503e-10
-2.68236e-10
-2.5755e-10
-1.63652e-10
-1.48487e-10
-8.68028e-11
-5.95787e-11
-5.04656e-11
-4.75036e-11
-5.52836e-11
-5.16605e-11
-4.80182e-11
-2.34042e-11
-1.14698e-13
8.91797e-13
7.46777e-14
-2.65791e-14
-5.03169e-15
4.83991e-16
2.13152e-16
2.86514e-18
-6.31951e-18
-5.80076e-19
1.35139e-19
2.51932e-20
-1.85851e-21
-7.53538e-22
3.69047e-27
1.78646e-23
9.96318e-25
-3.45549e-25
-3.98239e-26
5.24936e-27
1.08238e-27
-5.08306e-29
-2.34438e-29
-1.83363e-31
4.1791e-31
2.30803e-32
-6.05159e-33
-6.62032e-34
6.64785e-35
1.32389e-35
-4.07828e-37
-2.09554e-37
-3.25375e-39
2.70796e-39
1.54214e-40
-2.82792e-41
-3.01818e-42
2.22242e-43
4.33909e-44
-9.12785e-46
-5.06938e-46
-7.89567e-48
4.96269e-48
2.40911e-49
-4.08241e-50
-3.52718e-51
2.75225e-52
3.9598e-53
-1.37435e-54
-3.78609e-55
2.42771e-57
3.23495e-57
5.33135e-59
-2.53516e-59
-9.82348e-61
1.83274e-61
1.17977e-62
-1.19726e-63
-1.18919e-64
6.64175e-66
1.11799e-66
)
;
    }
    procBoundary0to3
    {
        type            processor;
        value           nonuniform List<scalar> 
50
(
-2.01046e-05
-1.69202e-05
-1.42209e-05
-1.1936e-05
-1.00042e-05
-8.37344e-06
-6.99848e-06
-5.84091e-06
-4.86768e-06
-4.05065e-06
-3.36572e-06
-2.79238e-06
-2.31316e-06
-1.91321e-06
-1.57996e-06
-1.30267e-06
-1.07232e-06
-8.81294e-07
-7.23103e-07
-5.92316e-07
-4.8439e-07
-3.95447e-07
-3.22304e-07
-2.62187e-07
-2.1296e-07
-1.72647e-07
-1.39736e-07
-1.1287e-07
-9.10326e-08
-7.32599e-08
-5.88711e-08
-4.72122e-08
-3.77788e-08
-3.01806e-08
-2.40712e-08
-1.91553e-08
-1.52109e-08
-1.20556e-08
-9.54499e-09
-7.52507e-09
-5.9513e-09
-4.65597e-09
-3.66634e-09
-2.85867e-09
-2.23929e-09
-1.73391e-09
-1.35777e-09
-1.08193e-09
-7.91245e-10
-6.66754e-10
)
;
    }
}


// ************************************************************************* //
