/*--------------------------------*- C++ -*----------------------------------*\
| =========                 |                                                 |
| \\      /  F ield         | OpenFOAM: The Open Source CFD Toolbox           |
|  \\    /   O peration     | Version:  2.4.0                                 |
|   \\  /    A nd           | Web:      www.OpenFOAM.org                      |
|    \\/     M anipulation  |                                                 |
\*---------------------------------------------------------------------------*/
FoamFile
{
    version     2.0;
    format      ascii;
    class       volScalarField;
    location    "0.007";
    object      p_rgh;
}
// * * * * * * * * * * * * * * * * * * * * * * * * * * * * * * * * * * * * * //

dimensions      [1 -1 -2 0 0 0 0];

internalField   nonuniform List<scalar> 
125
(
-0.0123586
-0.0123087
-0.0122587
-0.0122085
-0.012158
-0.0121074
-0.0120567
-0.0120057
-0.0119546
-0.0119032
-0.0118517
-0.0118
-0.0117481
-0.011696
-0.0116437
-0.0115912
-0.0115385
-0.0114856
-0.0114326
-0.0113793
-0.0113259
-0.0112722
-0.0112184
-0.0111643
-0.0111101
-0.0110556
-0.011001
-0.0109462
-0.0108911
-0.0108359
-0.0107804
-0.0107248
-0.0106689
-0.0106128
-0.0105566
-0.0105001
-0.0104434
-0.0103865
-0.0103294
-0.0102721
-0.0102146
-0.0101569
-0.0100989
-0.0100408
-0.00998238
-0.00992379
-0.00986499
-0.00980598
-0.00974674
-0.00968729
-0.00962762
-0.00956773
-0.00950762
-0.00944729
-0.00938673
-0.00932596
-0.00926496
-0.00920373
-0.00914229
-0.00908061
-0.00901871
-0.00895658
-0.00889422
-0.00883164
-0.00876882
-0.00870577
-0.00864249
-0.00857898
-0.00851524
-0.00845125
-0.00838704
-0.00832259
-0.0082579
-0.00819297
-0.00812781
-0.0080624
-0.00799675
-0.00793087
-0.00786474
-0.00779836
-0.00773175
-0.00766489
-0.00759778
-0.00753042
-0.00746282
-0.00739497
-0.00732687
-0.00725851
-0.00718991
-0.00712105
-0.00705195
-0.00698258
-0.00691296
-0.00684309
-0.00677296
-0.00670257
-0.00663192
-0.00656101
-0.00648984
-0.0064184
-0.00634671
-0.00627475
-0.00620253
-0.00613004
-0.00605728
-0.00598425
-0.00591096
-0.0058374
-0.00576356
-0.00568946
-0.00561508
-0.00554042
-0.0054655
-0.00539029
-0.00531481
-0.00523905
-0.00516302
-0.0050867
-0.0050101
-0.00493322
-0.00485606
-0.00477862
-0.00470092
-0.00462287
-0.00454414
)
;

boundaryField
{
    BotWall
    {
        type            fixedFluxPressure;
        gradient        nonuniform 0();
        value           nonuniform 0();
    }
    FreeStream
    {
        type            totalPressure;
        rho             rho;
        psi             none;
        gamma           1;
        p0              uniform 0;
        value           uniform -0.00450457;
    }
    FrontNBack
    {
        type            empty;
    }
    LeftSide
    {
        type            symmetryPlane;
    }
    RightSide
    {
        type            symmetryPlane;
    }
    procBoundary0to1
    {
        type            processor;
        value           uniform -0.0124083;
    }
    procBoundary0to2
    {
        type            processor;
        value           nonuniform List<scalar> 
75
(
-0.00962924
-0.00956937
-0.00950929
-0.00944898
-0.00938846
-0.00932772
-0.00926675
-0.00920556
-0.00914414
-0.0090825
-0.00902064
-0.00895854
-0.00889622
-0.00883367
-0.00877088
-0.00870787
-0.00864463
-0.00858115
-0.00851744
-0.0084535
-0.00838932
-0.0083249
-0.00826025
-0.00819536
-0.00813023
-0.00806487
-0.00799926
-0.00793341
-0.00786732
-0.00780098
-0.00773441
-0.00766758
-0.00760052
-0.0075332
-0.00746564
-0.00739783
-0.00732977
-0.00726146
-0.0071929
-0.00712409
-0.00705502
-0.00698571
-0.00691613
-0.0068463
-0.00677622
-0.00670587
-0.00663527
-0.00656441
-0.00649329
-0.0064219
-0.00635026
-0.00627835
-0.00620618
-0.00613374
-0.00606103
-0.00598806
-0.00591482
-0.00584132
-0.00576754
-0.00569349
-0.00561917
-0.00554457
-0.0054697
-0.00539456
-0.00531914
-0.00524344
-0.00516747
-0.00509121
-0.00501468
-0.00493786
-0.00486076
-0.0047834
-0.00470577
-0.00462778
-0.00454909
)
;
    }
    procBoundary0to3
    {
        type            processor;
        value           nonuniform List<scalar> 
50
(
-0.0123595
-0.0123097
-0.0122597
-0.0122095
-0.0121591
-0.0121085
-0.0120577
-0.0120068
-0.0119556
-0.0119043
-0.0118528
-0.0118011
-0.0117492
-0.0116971
-0.0116448
-0.0115923
-0.0115397
-0.0114868
-0.0114338
-0.0113805
-0.0113271
-0.0112734
-0.0112196
-0.0111656
-0.0111114
-0.0110569
-0.0110023
-0.0109475
-0.0108924
-0.0108372
-0.0107818
-0.0107261
-0.0106703
-0.0106142
-0.010558
-0.0105015
-0.0104448
-0.010388
-0.0103309
-0.0102736
-0.0102161
-0.0101584
-0.0101004
-0.0100423
-0.00998392
-0.00992535
-0.00986656
-0.00980756
-0.00974834
-0.0096889
)
;
    }
}


// ************************************************************************* //
