/*--------------------------------*- C++ -*----------------------------------*\
| =========                 |                                                 |
| \\      /  F ield         | OpenFOAM: The Open Source CFD Toolbox           |
|  \\    /   O peration     | Version:  2.4.0                                 |
|   \\  /    A nd           | Web:      www.OpenFOAM.org                      |
|    \\/     M anipulation  |                                                 |
\*---------------------------------------------------------------------------*/
FoamFile
{
    version     2.0;
    format      ascii;
    class       volScalarField;
    location    "0.004";
    object      H;
}
// * * * * * * * * * * * * * * * * * * * * * * * * * * * * * * * * * * * * * //

dimensions      [0 2 -2 0 0 0 0];

internalField   nonuniform List<scalar> 
125
(
-2.46483e-08
-1.85903e-08
-1.39863e-08
-1.0503e-08
-7.8539e-09
-5.85231e-09
-4.35947e-09
-3.24293e-09
-2.39263e-09
-1.7611e-09
-1.29653e-09
-9.56745e-10
-6.7462e-10
-5.20883e-10
-3.70227e-10
-2.61616e-10
-1.90298e-10
-1.46896e-10
-9.942e-11
-5.61715e-11
-5.47672e-11
-4.74816e-11
-5.7152e-11
-4.3702e-11
-1.65082e-11
9.56717e-14
-2.46504e-14
-4.60154e-14
-4.36459e-15
-3.86039e-17
-8.59741e-17
-2.31385e-17
-2.13991e-18
-2.52892e-19
-6.84244e-20
-1.10218e-20
-1.2885e-21
-2.21303e-22
-4.11928e-23
-5.80743e-24
-8.01089e-25
-1.32171e-25
-2.08589e-26
-2.97308e-27
-4.39538e-28
-6.71099e-29
-9.72947e-30
-1.39477e-30
-2.07846e-31
-3.04917e-32
-4.26446e-33
-5.99329e-34
-8.72449e-35
-1.25571e-35
-1.73296e-36
-2.37165e-37
-3.33485e-38
-4.70717e-39
-6.435e-40
-8.62307e-41
-1.17283e-41
-1.61246e-42
-2.17243e-43
-2.86382e-44
-3.78939e-45
-5.05821e-46
-6.67619e-47
-8.65865e-48
-1.11951e-48
-1.45241e-49
-1.87188e-50
-2.38295e-51
-3.01568e-52
-3.81188e-53
-4.79382e-54
-5.97672e-55
-7.40353e-56
-9.13543e-57
-1.12162e-57
-1.36783e-58
-1.65776e-59
-1.99899e-60
-2.39782e-61
-2.8592e-62
-3.3894e-63
-3.99609e-64
-4.6859e-65
-5.46392e-66
-6.33531e-67
-7.3054e-68
-8.37818e-69
-9.55574e-70
-1.0839e-70
-1.22278e-71
-1.37198e-72
-1.53103e-73
-1.69926e-74
-1.87578e-75
-2.05945e-76
-2.24884e-77
-2.44234e-78
-2.63806e-79
-2.83393e-80
-3.02764e-81
-3.21678e-82
-3.39878e-83
-3.57102e-84
-3.73089e-85
-3.87579e-86
-4.00327e-87
-4.11106e-88
-4.19712e-89
-4.25974e-90
-4.29758e-91
-4.3097e-92
-4.29563e-93
-4.25538e-94
-4.18944e-95
-4.09879e-96
-3.98486e-97
-3.8495e-98
-3.69496e-99
-3.5239e-100
-3.34947e-101
-3.83637e-102
)
;

boundaryField
{
    BotWall
    {
        type            zeroGradient;
    }
    FreeStream
    {
        type            zeroGradient;
    }
    FrontNBack
    {
        type            empty;
    }
    LeftSide
    {
        type            symmetryPlane;
    }
    RightSide
    {
        type            symmetryPlane;
    }
    procBoundary0to1
    {
        type            processor;
        value           uniform -3.25574e-08;
    }
    procBoundary0to2
    {
        type            processor;
        value           nonuniform List<scalar> 
75
(
-2.50401e-39
-3.80239e-40
-2.40592e-41
-4.29947e-42
-1.29798e-42
-1.95358e-43
-2.0553e-44
-3.6648e-45
-6.80384e-46
-5.82534e-47
-7.34184e-48
-3.59692e-48
-4.84928e-49
5.39e-50
3.88412e-51
-4.67448e-51
-4.61887e-52
1.23753e-52
8.20572e-54
-5.00827e-54
-3.73026e-55
1.22841e-55
6.10954e-57
-3.74919e-57
-2.18912e-58
7.5971e-59
2.53444e-60
-1.97849e-60
-9.74867e-62
3.14393e-62
5.05692e-64
-7.71079e-64
-3.66132e-65
8.70294e-66
-8.69671e-68
-2.36588e-67
-1.28979e-68
1.38605e-69
-1.21772e-70
-6.22771e-71
-4.43279e-72
-4.27337e-74
-6.15821e-74
-1.54663e-74
-1.43784e-75
-1.12724e-76
-2.23679e-77
-3.81633e-78
-4.20021e-79
-4.52452e-80
-6.54264e-81
-9.1457e-82
-1.07449e-82
-1.25238e-83
-1.60076e-84
-2.01792e-85
-2.3797e-86
-2.78153e-87
-3.3294e-88
-3.94608e-89
-4.5482e-90
-5.19307e-91
-5.936e-92
-6.72389e-93
-7.5038e-94
-8.29655e-95
-9.11829e-96
-9.93237e-97
-1.07041e-97
-1.14314e-98
-1.21103e-99
-1.27166e-100
-1.32302e-101
-1.37184e-102
-1.79875e-103
)
;
    }
    procBoundary0to3
    {
        type            processor;
        value           nonuniform List<scalar> 
50
(
-2.53466e-08
-1.90987e-08
-1.43789e-08
-1.07882e-08
-8.07495e-09
-6.01166e-09
-4.47804e-09
-3.32856e-09
-2.45307e-09
-1.82375e-09
-1.32115e-09
-9.78987e-10
-6.9388e-10
-5.42761e-10
-3.7223e-10
-2.62567e-10
-2.01763e-10
-1.54432e-10
-1.03602e-10
-6.55064e-11
-4.0584e-11
-5.70785e-11
-5.16533e-11
-4.66539e-11
-1.89027e-11
9.39394e-15
-1.51811e-14
-5.20488e-14
-5.50466e-15
-1.06734e-16
-1.08485e-16
-2.84613e-17
-2.47155e-18
-2.65275e-19
-8.07532e-20
-1.33273e-20
-1.39943e-21
-2.28144e-22
-4.59294e-23
-6.60606e-24
-8.55648e-25
-1.38723e-25
-2.28208e-26
-3.30054e-27
-4.75687e-28
-7.2162e-29
-1.07563e-29
-1.57319e-30
-2.31341e-31
-3.22683e-32
)
;
    }
}


// ************************************************************************* //
