/*--------------------------------*- C++ -*----------------------------------*\
| =========                 |                                                 |
| \\      /  F ield         | OpenFOAM: The Open Source CFD Toolbox           |
|  \\    /   O peration     | Version:  2.4.0                                 |
|   \\  /    A nd           | Web:      www.OpenFOAM.org                      |
|    \\/     M anipulation  |                                                 |
\*---------------------------------------------------------------------------*/
FoamFile
{
    version     2.0;
    format      ascii;
    class       volVectorField;
    location    "1.2";
    object      U;
}
// * * * * * * * * * * * * * * * * * * * * * * * * * * * * * * * * * * * * * //

dimensions      [0 1 -1 0 0 0 0];

internalField   nonuniform List<vector> 
125
(
(-1.25623e-09 -0.00197906 0)
(-2.18192e-09 -0.00197906 0)
(-1.02549e-09 -0.00197906 0)
(-1.3941e-09 -0.00197906 0)
(-1.04759e-09 -0.00197906 0)
(-1.31199e-09 -0.00197906 0)
(-2.27135e-09 -0.00197906 0)
(-1.04601e-09 -0.00197906 0)
(-1.25437e-09 -0.00197906 0)
(-9.24168e-10 -0.00197906 0)
(-1.36158e-09 -0.00197906 0)
(-2.3509e-09 -0.00197906 0)
(-1.06397e-09 -0.00197906 0)
(-1.12145e-09 -0.00197906 0)
(-8.0675e-10 -0.00197906 0)
(-1.40512e-09 -0.00197906 0)
(-2.42077e-09 -0.00197906 0)
(-1.07944e-09 -0.00197906 0)
(-9.95348e-10 -0.00197906 0)
(-6.95315e-10 -0.00197906 0)
(-1.44277e-09 -0.00197906 0)
(-2.48117e-09 -0.00197906 0)
(-1.0925e-09 -0.00197906 0)
(-8.76099e-10 -0.00197906 0)
(-5.89873e-10 -0.00197906 0)
(-1.47466e-09 -0.00197906 0)
(-2.53232e-09 -0.00197906 0)
(-1.10322e-09 -0.00197906 0)
(-7.63715e-10 -0.00197906 0)
(-4.90409e-10 -0.00197906 0)
(-1.50096e-09 -0.00197906 0)
(-2.57447e-09 -0.00197906 0)
(-1.11171e-09 -0.00197906 0)
(-6.58187e-10 -0.00197906 0)
(-3.96893e-10 -0.00197906 0)
(-1.52182e-09 -0.00197906 0)
(-2.60785e-09 -0.00197906 0)
(-1.11804e-09 -0.00197906 0)
(-5.59487e-10 -0.00197906 0)
(-3.0928e-10 -0.00197906 0)
(-1.5374e-09 -0.00197906 0)
(-2.63272e-09 -0.00197906 0)
(-1.12232e-09 -0.00197906 0)
(-4.67568e-10 -0.00197906 0)
(-2.27506e-10 -0.00197906 0)
(-1.54788e-09 -0.00197906 0)
(-2.64937e-09 -0.00197906 0)
(-1.12465e-09 -0.00197906 0)
(-3.82368e-10 -0.00197906 0)
(-1.51495e-10 -0.00197906 0)
(-1.55342e-09 -0.00197906 0)
(-2.65807e-09 -0.00197906 0)
(-1.12512e-09 -0.00197906 0)
(-3.03808e-10 -0.00197906 0)
(-8.11576e-11 -0.00197906 0)
(-1.55422e-09 -0.00197906 0)
(-2.65912e-09 -0.00197906 0)
(-1.12385e-09 -0.00197906 0)
(-2.31796e-10 -0.00197906 0)
(-1.63939e-11 -0.00197906 0)
(-1.55045e-09 -0.00197906 0)
(-2.65281e-09 -0.00197906 0)
(-1.12093e-09 -0.00197906 0)
(-1.66226e-10 -0.00197906 0)
(4.29073e-11 -0.00197906 0)
(-1.5423e-09 -0.00197906 0)
(-2.63947e-09 -0.00197906 0)
(-1.11649e-09 -0.00197906 0)
(-1.06978e-10 -0.00197906 0)
(9.68661e-11 -0.00197906 0)
(-1.52998e-09 -0.00197906 0)
(-2.61941e-09 -0.00197906 0)
(-1.11061e-09 -0.00197906 0)
(-5.39207e-11 -0.00197906 0)
(1.45611e-10 -0.00197906 0)
(-1.51368e-09 -0.00197906 0)
(-2.59298e-09 -0.00197906 0)
(-1.10341e-09 -0.00197906 0)
(-6.91181e-12 -0.00197906 0)
(1.8928e-10 -0.00197906 0)
(-1.4936e-09 -0.00197906 0)
(-2.5605e-09 -0.00197906 0)
(-1.09501e-09 -0.00197906 0)
(3.42032e-11 -0.00197906 0)
(2.28015e-10 -0.00197906 0)
(-1.46997e-09 -0.00197906 0)
(-2.52233e-09 -0.00197906 0)
(-1.08549e-09 -0.00197906 0)
(6.95892e-11 -0.00197906 0)
(2.61966e-10 -0.00197906 0)
(-1.44299e-09 -0.00197906 0)
(-2.47883e-09 -0.00197906 0)
(-1.07497e-09 -0.00197906 0)
(9.94212e-11 -0.00197906 0)
(2.9129e-10 -0.00197906 0)
(-1.41288e-09 -0.00197906 0)
(-2.43035e-09 -0.00197906 0)
(-1.06355e-09 -0.00197906 0)
(1.23883e-10 -0.00197906 0)
(3.16146e-10 -0.00197906 0)
(-1.37987e-09 -0.00197906 0)
(-2.37727e-09 -0.00197906 0)
(-1.05133e-09 -0.00197906 0)
(1.43164e-10 -0.00197906 0)
(3.36695e-10 -0.00197906 0)
(-1.3442e-09 -0.00197906 0)
(-2.31997e-09 -0.00197906 0)
(-1.03839e-09 -0.00197906 0)
(1.57452e-10 -0.00197906 0)
(3.53089e-10 -0.00197906 0)
(-1.30608e-09 -0.00197906 0)
(-2.25882e-09 -0.00197906 0)
(-1.02484e-09 -0.00197906 0)
(1.67023e-10 -0.00197906 0)
(3.65566e-10 -0.00197906 0)
(-1.26577e-09 -0.00197906 0)
(-2.19421e-09 -0.00197906 0)
(-1.01074e-09 -0.00197906 0)
(1.7161e-10 -0.00197906 0)
(3.73807e-10 -0.00197906 0)
(-1.2235e-09 -0.00197906 0)
(-2.12656e-09 -0.00197906 0)
(-9.96197e-10 -0.00197906 0)
(1.72145e-10 -0.00197906 0)
(3.78684e-10 -0.00197906 0)
)
;

boundaryField
{
    BotWall
    {
        type            fixedValue;
        value           nonuniform 0();
    }
    FreeStream
    {
        type            zeroGradient;
    }
    FrontNBack
    {
        type            empty;
    }
    LeftSide
    {
        type            symmetryPlane;
    }
    RightSide
    {
        type            symmetryPlane;
    }
    procBoundary2to1
    {
        type            processor;
        value           nonuniform List<vector> 5((-1.19416e-09 -0.00197906 0) (-2.08244e-09 -0.00197906 0) (-1.0023e-09 -0.00197906 0) (-1.54036e-09 -0.00197906 0) (-1.17679e-09 -0.00197906 0));
    }
    procBoundary2to3
    {
        type            processor;
        value           nonuniform List<vector> 5((-1.17951e-09 -0.00197906 0) (-2.05624e-09 -0.00197906 0) (-9.81276e-10 -0.00197906 0) (1.68342e-10 -0.00197906 0) (3.7986e-10 -0.00197906 0));
    }
}


// ************************************************************************* //
