/*--------------------------------*- C++ -*----------------------------------*\
| =========                 |                                                 |
| \\      /  F ield         | OpenFOAM: The Open Source CFD Toolbox           |
|  \\    /   O peration     | Version:  2.4.0                                 |
|   \\  /    A nd           | Web:      www.OpenFOAM.org                      |
|    \\/     M anipulation  |                                                 |
\*---------------------------------------------------------------------------*/
FoamFile
{
    version     2.0;
    format      ascii;
    class       volScalarField;
    location    "1.3";
    object      p;
}
// * * * * * * * * * * * * * * * * * * * * * * * * * * * * * * * * * * * * * //

dimensions      [1 -1 -2 0 0 0 0];

internalField   nonuniform List<scalar> 
8000
(
-0.920357
-0.921561
-0.923046
-0.924614
-0.926254
-0.927983
-0.929812
-0.931737
-0.933763
-0.935884
-0.938111
-0.940437
-0.942874
-0.945408
-0.948047
-0.950795
-0.953836
-0.95744
-0.961155
-0.960993
-0.94973
-0.940115
-1.03311
-1.40831
-1.75055
-0.908115
-0.906313
-0.906223
-0.906271
-0.906291
-0.906292
-0.90629
-0.906289
-0.906289
-0.906289
-0.906289
-0.906289
-0.906289
-0.906289
-0.906289
-0.906289
-0.906289
-0.906289
-0.906289
-0.906289
-0.906288
-0.906288
-0.906288
-0.906288
-0.906288
-0.947544
-0.947675
-0.947983
-0.948561
-0.949422
-0.950551
-0.951943
-0.953589
-0.955494
-0.957651
-0.96007
-0.962749
-0.965698
-0.968912
-0.972403
-0.976199
-0.980484
-0.985441
-0.990335
-0.991284
-0.983753
-0.987628
-1.10183
-1.43548
-1.53632
-0.929257
-0.928574
-0.928651
-0.928692
-0.928697
-0.928694
-0.928692
-0.928691
-0.928691
-0.928691
-0.92869
-0.92869
-0.92869
-0.92869
-0.928689
-0.928689
-0.928688
-0.928688
-0.928688
-0.928687
-0.928687
-0.928686
-0.928686
-0.928685
-0.928685
-0.962548
-0.963704
-0.965184
-0.966769
-0.96844
-0.970206
-0.97208
-0.974053
-0.976131
-0.978304
-0.980578
-0.982943
-0.985405
-0.987938
-0.990554
-0.993312
-0.996481
-1.00008
-1.00209
-0.996158
-0.981444
-1.00943
-1.23973
-1.68324
-1.31626
-0.951514
-0.950989
-0.951086
-0.951126
-0.951129
-0.951125
-0.951123
-0.951122
-0.951122
-0.951122
-0.951121
-0.951121
-0.95112
-0.95112
-0.95112
-0.951119
-0.951118
-0.951118
-0.951117
-0.951116
-0.951116
-0.951115
-0.951114
-0.951113
-0.951112
-0.875135
-0.879225
-0.883454
-0.887148
-0.890366
-0.893218
-0.895733
-0.897914
-0.899753
-0.901254
-0.902407
-0.903214
-0.90365
-0.903691
-0.903325
-0.90279
-0.902638
-0.902598
-0.896648
-0.869826
-0.830004
-0.928701
-1.54575
-2.46376
-1.05648
-0.973771
-0.973381
-0.973472
-0.973512
-0.973516
-0.973513
-0.973512
-0.973512
-0.973512
-0.973512
-0.973512
-0.973513
-0.973512
-0.973512
-0.973512
-0.973512
-0.973512
-0.973512
-0.973511
-0.973511
-0.97351
-0.97351
-0.973509
-0.973509
-0.973508
-0.937011
-0.939985
-0.943268
-0.946425
-0.949488
-0.952528
-0.955559
-0.95859
-0.961614
-0.964642
-0.96767
-0.970713
-0.973754
-0.976802
-0.979862
-0.983138
-0.98693
-0.990751
-0.990159
-0.97703
-0.965386
-1.06768
-1.48557
-1.89964
-1.0027
-0.996181
-0.995892
-0.995966
-0.995998
-0.996
-0.995996
-0.995993
-0.995992
-0.995991
-0.995989
-0.995988
-0.995987
-0.995985
-0.995984
-0.995982
-0.99598
-0.995979
-0.995977
-0.995975
-0.995974
-0.995972
-0.99597
-0.995968
-0.995966
-0.995964
-1.04095
-1.04104
-1.04162
-1.04269
-1.04419
-1.04612
-1.04845
-1.0512
-1.05435
-1.05793
-1.06193
-1.06636
-1.07121
-1.07652
-1.08232
-1.08884
-1.0962
-1.10334
-1.10578
-1.10023
-1.11437
-1.2588
-1.61214
-1.61156
-1.01919
-1.01827
-1.01829
-1.01834
-1.01835
-1.01835
-1.01835
-1.01835
-1.01835
-1.01835
-1.01835
-1.01835
-1.01835
-1.01835
-1.01836
-1.01836
-1.01836
-1.01836
-1.01836
-1.01836
-1.01835
-1.01835
-1.01835
-1.01835
-1.01835
-1.01835
-0.926892
-0.930809
-0.934879
-0.938408
-0.941442
-0.944071
-0.946326
-0.948194
-0.949676
-0.950751
-0.951424
-0.951648
-0.951386
-0.950599
-0.949688
-0.949679
-0.950376
-0.941603
-0.895684
-0.819197
-0.971935
-2.06264
-3.8635
-1.29438
-1.04143
-1.04079
-1.04092
-1.04097
-1.04097
-1.04096
-1.04095
-1.04094
-1.04094
-1.04093
-1.04092
-1.04092
-1.04091
-1.04091
-1.0409
-1.0409
-1.04089
-1.04089
-1.04088
-1.04088
-1.04087
-1.04087
-1.04087
-1.04086
-1.04086
-1.04085
-0.925035
-0.928968
-0.933038
-0.93675
-0.940217
-0.943531
-0.946723
-0.949782
-0.952717
-0.955519
-0.958201
-0.96074
-0.963144
-0.965414
-0.967767
-0.970519
-0.973092
-0.970662
-0.9547
-0.940983
-1.04989
-1.49163
-1.97639
-1.07242
-1.06345
-1.06314
-1.06322
-1.06325
-1.06326
-1.06325
-1.06325
-1.06325
-1.06325
-1.06325
-1.06325
-1.06325
-1.06325
-1.06325
-1.06325
-1.06325
-1.06325
-1.06325
-1.06324
-1.06324
-1.06324
-1.06324
-1.06324
-1.06324
-1.06323
-1.06323
-1.16046
-1.16097
-1.16236
-1.16435
-1.16678
-1.16963
-1.17293
-1.17666
-1.18085
-1.18549
-1.19059
-1.19614
-1.20215
-1.20874
-1.21628
-1.22479
-1.23137
-1.2273
-1.21245
-1.26176
-1.59706
-2.20349
-1.54926
-1.08661
-1.08572
-1.08575
-1.0858
-1.08581
-1.0858
-1.0858
-1.0858
-1.08579
-1.08579
-1.08579
-1.08579
-1.08578
-1.08578
-1.08578
-1.08578
-1.08577
-1.08577
-1.08577
-1.08576
-1.08576
-1.08576
-1.08575
-1.08575
-1.08574
-1.08574
-1.08574
-0.901981
-0.906232
-0.910321
-0.91388
-0.917095
-0.920088
-0.922866
-0.925431
-0.927768
-0.929887
-0.931761
-0.933389
-0.93476
-0.936102
-0.937837
-0.939569
-0.936031
-0.915687
-0.889474
-0.989717
-1.50758
-2.29376
-1.13647
-1.10848
-1.10806
-1.10816
-1.1082
-1.1082
-1.1082
-1.10819
-1.10819
-1.10819
-1.10819
-1.10819
-1.10819
-1.10818
-1.10818
-1.10818
-1.10818
-1.10818
-1.10817
-1.10817
-1.10817
-1.10817
-1.10816
-1.10816
-1.10816
-1.10815
-1.10815
-1.10815
-1.12492
-1.12582
-1.12737
-1.12931
-1.13155
-1.13407
-1.13689
-1.14001
-1.14341
-1.14711
-1.15107
-1.1553
-1.15992
-1.16538
-1.1717
-1.17528
-1.16522
-1.1411
-1.1957
-1.60576
-2.35838
-1.60971
-1.13192
-1.13075
-1.13074
-1.13079
-1.1308
-1.1308
-1.13079
-1.13079
-1.13079
-1.13078
-1.13078
-1.13077
-1.13077
-1.13077
-1.13076
-1.13076
-1.13075
-1.13075
-1.13074
-1.13074
-1.13073
-1.13073
-1.13072
-1.13072
-1.13071
-1.13071
-1.1307
-1.1307
-1.01192
-1.01303
-1.01446
-1.01618
-1.01823
-1.02059
-1.02328
-1.02625
-1.02954
-1.0331
-1.03695
-1.04109
-1.04577
-1.05129
-1.05708
-1.05807
-1.04553
-1.03635
-1.15593
-1.6175
-2.22958
-1.16706
-1.15346
-1.15307
-1.15316
-1.1532
-1.1532
-1.15319
-1.15319
-1.15319
-1.15318
-1.15318
-1.15318
-1.15317
-1.15317
-1.15317
-1.15316
-1.15316
-1.15315
-1.15315
-1.15315
-1.15314
-1.15314
-1.15313
-1.15313
-1.15312
-1.15312
-1.15311
-1.15311
-1.1531
-0.902172
-0.905934
-0.910014
-0.913913
-0.917661
-0.921371
-0.925038
-0.928689
-0.932278
-0.93581
-0.939262
-0.942944
-0.94747
-0.952506
-0.951171
-0.926864
-0.889195
-1.00911
-1.70545
-2.76549
-1.28347
-1.17638
-1.17582
-1.1759
-1.17595
-1.17595
-1.17594
-1.17593
-1.17593
-1.17592
-1.17592
-1.17591
-1.1759
-1.1759
-1.17589
-1.17588
-1.17587
-1.17587
-1.17586
-1.17585
-1.17585
-1.17584
-1.17583
-1.17582
-1.17581
-1.1758
-1.17579
-1.17578
-1.17577
-1.17576
-0.877945
-0.887432
-0.897889
-0.907282
-0.915656
-0.923186
-0.930052
-0.93617
-0.941594
-0.946227
-0.950496
-0.955076
-0.95965
-0.9557
-0.922516
-0.870293
-1.00836
-1.86272
-3.2278
-1.37936
-1.1988
-1.19813
-1.19819
-1.19824
-1.19825
-1.19824
-1.19824
-1.19823
-1.19823
-1.19823
-1.19822
-1.19822
-1.19822
-1.19821
-1.1982
-1.1982
-1.19819
-1.19819
-1.19818
-1.19818
-1.19816
-1.19817
-1.19816
-1.19815
-1.19813
-1.19814
-1.19813
-1.19808
-1.1981
-1.19809
-0.703591
-0.708884
-0.713804
-0.718259
-0.722495
-0.726768
-0.730985
-0.735268
-0.739558
-0.744422
-0.750518
-0.75732
-0.756061
-0.72856
-0.694726
-0.871114
-1.71805
-3.00723
-1.38212
-1.22186
-1.22126
-1.22133
-1.22137
-1.22138
-1.22137
-1.22136
-1.22135
-1.22135
-1.22134
-1.22133
-1.22132
-1.22131
-1.2213
-1.22128
-1.22127
-1.22122
-1.22111
-1.22115
-1.22113
-1.22112
-1.22101
-1.22111
-1.22107
-1.22106
-1.22104
-1.22106
-1.22101
-1.22098
-1.22099
-1.22103
-1.3409
-1.32256
-1.30615
-1.29536
-1.28987
-1.28897
-1.29258
-1.3007
-1.31393
-1.33269
-1.35549
-1.37364
-1.37651
-1.40547
-1.6735
-2.4873
-3.02865
-1.40428
-1.24399
-1.24317
-1.24331
-1.24336
-1.24337
-1.24336
-1.24336
-1.24336
-1.24337
-1.24337
-1.24337
-1.24336
-1.24336
-1.24336
-1.24332
-1.2433
-1.24316
-1.24334
-1.24328
-1.24326
-1.24326
-1.24326
-1.24294
-1.24323
-1.2432
-1.24321
-1.24313
-1.24325
-1.24324
-1.24291
-1.24313
-1.24312
-0.51376
-0.527171
-0.539102
-0.543745
-0.539401
-0.527288
-0.506655
-0.479439
-0.443596
-0.394613
-0.312045
-0.198462
-0.196753
-0.747817
-2.35628
-2.60417
-1.36062
-1.27009
-1.26701
-1.26748
-1.26757
-1.26757
-1.26676
-1.26749
-1.26755
-1.26748
-1.26746
-1.26739
-1.26733
-1.26727
-1.2672
-1.26714
-1.26709
-1.26703
-1.26698
-1.26693
-1.26688
-1.26684
-1.26678
-1.26674
-1.2667
-1.26666
-1.2666
-1.26658
-1.26654
-1.26651
-1.26647
-1.26643
-1.26619
-1.26636
1.37743
1.31442
1.26208
1.23
1.21628
1.21746
1.23319
1.26513
1.33278
1.46324
1.59708
1.30701
-0.13382
-4.96563
-3.63699
-1.30313
-1.28752
-1.2888
-1.28907
-1.28906
-1.28894
-1.28889
-1.28886
-1.28881
-1.28869
-1.28897
-1.28892
-1.2889
-1.28888
-1.28884
-1.28881
-1.28878
-1.28876
-1.28874
-1.28871
-1.28868
-1.28865
-1.28862
-1.2886
-1.28857
-1.28854
-1.28852
-1.2885
-1.28847
-1.28845
-1.28835
-1.2884
-1.28838
-1.28836
-1.28833
-5.23943
-5.27479
-5.32408
-5.37921
-5.44041
-5.50692
-5.56517
-5.5766
-5.55803
-5.87701
-7.50397
-10.0767
-4.68102
-1.36018
-1.28531
-1.31148
-1.31212
-1.31201
-1.31187
-1.31163
-1.3122
-1.31227
-1.31232
-1.31236
-1.31241
-1.31238
-1.31079
-1.31216
-1.31216
-1.31183
-1.31179
-1.31082
-1.31185
-1.31183
-1.31182
-1.3118
-1.31178
-1.31176
-1.31173
-1.3117
-1.31167
-1.31165
-1.31162
-1.31158
-1.31147
-1.31151
-1.31148
-1.31145
-1.31125
-1.31138
-5.77744
-5.84166
-5.91703
-5.99934
-6.08965
-6.1599
-6.13724
-6.05357
-6.65159
-9.83277
-14.6034
-3.62966
-1.32835
-1.32462
-1.3307
-1.33289
-1.33351
-1.3335
-1.33368
-1.3338
-1.33399
-1.33404
-1.33412
-1.33416
-1.33419
-1.33421
-1.33421
-1.33421
-1.33421
-1.33421
-1.3342
-1.3342
-1.33354
-1.33404
-1.33402
-1.334
-1.33397
-1.33394
-1.33391
-1.33388
-1.33384
-1.33381
-1.33377
-1.33366
-1.33368
-1.33365
-1.33361
-1.33342
-1.33338
-1.33334
-0.906287
-0.906287
-0.906286
-0.906286
-0.906286
-0.906285
-0.906285
-0.906284
-0.906283
-0.906283
-0.906282
-0.906281
-0.906281
-0.90628
-0.906279
-0.906278
-0.906277
-0.906276
-0.906275
-0.906274
-0.906273
-0.906272
-0.906271
-0.90627
-0.906269
-0.906268
-0.906267
-0.906266
-0.906264
-0.906263
-0.906262
-0.906261
-0.906259
-0.906258
-0.906257
-0.906255
-0.906254
-0.906252
-0.906251
-0.90625
-0.906248
-0.906247
-0.906245
-0.906244
-0.906242
-0.90624
-0.906239
-0.906237
-0.906236
-0.906234
-0.928684
-0.928683
-0.928683
-0.928682
-0.928681
-0.928681
-0.92868
-0.928679
-0.928678
-0.928678
-0.928677
-0.928676
-0.928675
-0.928674
-0.928673
-0.928672
-0.928671
-0.92867
-0.928669
-0.928668
-0.928667
-0.928666
-0.928665
-0.928663
-0.928662
-0.928661
-0.92866
-0.928658
-0.928657
-0.928656
-0.928655
-0.928653
-0.928652
-0.92865
-0.928649
-0.928647
-0.928646
-0.928644
-0.928643
-0.928641
-0.92864
-0.928638
-0.928637
-0.928635
-0.928633
-0.928632
-0.92863
-0.928628
-0.928626
-0.928625
-0.951111
-0.951111
-0.95111
-0.951108
-0.951107
-0.951106
-0.951105
-0.951104
-0.951103
-0.951101
-0.9511
-0.951099
-0.951098
-0.951096
-0.951095
-0.951093
-0.951092
-0.95109
-0.951089
-0.951087
-0.951086
-0.951084
-0.951082
-0.951081
-0.951079
-0.951077
-0.951076
-0.951074
-0.951072
-0.95107
-0.951068
-0.951066
-0.951065
-0.951063
-0.951061
-0.951059
-0.951057
-0.951055
-0.951053
-0.951051
-0.951049
-0.951047
-0.951045
-0.951043
-0.95104
-0.951038
-0.951036
-0.951034
-0.951032
-0.95103
-0.973507
-0.973506
-0.973506
-0.973505
-0.973504
-0.973503
-0.973502
-0.973501
-0.9735
-0.973499
-0.973497
-0.973496
-0.973495
-0.973494
-0.973492
-0.973491
-0.97349
-0.973488
-0.973487
-0.973485
-0.973484
-0.973482
-0.97348
-0.973479
-0.973477
-0.973475
-0.973473
-0.973472
-0.97347
-0.973468
-0.973466
-0.973464
-0.973462
-0.97346
-0.973458
-0.973456
-0.973454
-0.973452
-0.97345
-0.973448
-0.973445
-0.973443
-0.973441
-0.973439
-0.973436
-0.973434
-0.973432
-0.973429
-0.973427
-0.973424
-0.995962
-0.99596
-0.995958
-0.995956
-0.995954
-0.995952
-0.99595
-0.995948
-0.995946
-0.995944
-0.995941
-0.995939
-0.995937
-0.995934
-0.995932
-0.99593
-0.995927
-0.995925
-0.995922
-0.99592
-0.995917
-0.995915
-0.995912
-0.99591
-0.995907
-0.995905
-0.995902
-0.995899
-0.995897
-0.995894
-0.995891
-0.995889
-0.995886
-0.995883
-0.99588
-0.995878
-0.995875
-0.995872
-0.995869
-0.995866
-0.995863
-0.99586
-0.995857
-0.995855
-0.995852
-0.995849
-0.995846
-0.995843
-0.99584
-0.995837
-1.01835
-1.01835
-1.01835
-1.01835
-1.01835
-1.01835
-1.01834
-1.01834
-1.01834
-1.01834
-1.01834
-1.01834
-1.01833
-1.01833
-1.01833
-1.01833
-1.01833
-1.01832
-1.01832
-1.01832
-1.01832
-1.01832
-1.01831
-1.01831
-1.01831
-1.01831
-1.0183
-1.0183
-1.0183
-1.0183
-1.01829
-1.01829
-1.01829
-1.01828
-1.01828
-1.01828
-1.01828
-1.01827
-1.01827
-1.01827
-1.01826
-1.01826
-1.01826
-1.01825
-1.01825
-1.01825
-1.01824
-1.01824
-1.01824
-1.01823
-1.04085
-1.04084
-1.04084
-1.04084
-1.04083
-1.04083
-1.04082
-1.04082
-1.04082
-1.04081
-1.04081
-1.04081
-1.0408
-1.0408
-1.04079
-1.04079
-1.04079
-1.04078
-1.04078
-1.04077
-1.04077
-1.04077
-1.04076
-1.04076
-1.04076
-1.04075
-1.04075
-1.04074
-1.04074
-1.04074
-1.04073
-1.04073
-1.04072
-1.04072
-1.04072
-1.04071
-1.04071
-1.0407
-1.0407
-1.0407
-1.04069
-1.04069
-1.04068
-1.04068
-1.04068
-1.04067
-1.04067
-1.04066
-1.04066
-1.04066
-1.06323
-1.06323
-1.06323
-1.06322
-1.06322
-1.06322
-1.06322
-1.06321
-1.06321
-1.06321
-1.06321
-1.0632
-1.0632
-1.0632
-1.06319
-1.06319
-1.06319
-1.06318
-1.06318
-1.06318
-1.06317
-1.06317
-1.06317
-1.06316
-1.06316
-1.06316
-1.06315
-1.06315
-1.06314
-1.06314
-1.06314
-1.06313
-1.06313
-1.06312
-1.06312
-1.06312
-1.06311
-1.06311
-1.0631
-1.0631
-1.06309
-1.06309
-1.06309
-1.06308
-1.06308
-1.06307
-1.06307
-1.06306
-1.06306
-1.06305
-1.08573
-1.08573
-1.08572
-1.08572
-1.08572
-1.08571
-1.08571
-1.0857
-1.0857
-1.08569
-1.08569
-1.08568
-1.08568
-1.08568
-1.08567
-1.08567
-1.08566
-1.08566
-1.08565
-1.08565
-1.08564
-1.08564
-1.08563
-1.08563
-1.08562
-1.08562
-1.08561
-1.0856
-1.0856
-1.08559
-1.08559
-1.08558
-1.08558
-1.08557
-1.08557
-1.08556
-1.08556
-1.08555
-1.08554
-1.08554
-1.08553
-1.08553
-1.08552
-1.08552
-1.08551
-1.08551
-1.0855
-1.08549
-1.08549
-1.08548
-1.10814
-1.10814
-1.10814
-1.10813
-1.10813
-1.10812
-1.10812
-1.10812
-1.10811
-1.10811
-1.1081
-1.1081
-1.10809
-1.10809
-1.10808
-1.10808
-1.10807
-1.10807
-1.10806
-1.10806
-1.10805
-1.10805
-1.10804
-1.10804
-1.10803
-1.10803
-1.10802
-1.10802
-1.10801
-1.108
-1.108
-1.10799
-1.10799
-1.10798
-1.10797
-1.10797
-1.10796
-1.10796
-1.10795
-1.10794
-1.10794
-1.10793
-1.10793
-1.10792
-1.10791
-1.10791
-1.1079
-1.10789
-1.10789
-1.10788
-1.13069
-1.13068
-1.13068
-1.13067
-1.13067
-1.13066
-1.13065
-1.13065
-1.13064
-1.13063
-1.13062
-1.13062
-1.13061
-1.1306
-1.1306
-1.13059
-1.13058
-1.13057
-1.13057
-1.13056
-1.13055
-1.13054
-1.13054
-1.13053
-1.13052
-1.13051
-1.1305
-1.1305
-1.13049
-1.13048
-1.13047
-1.13046
-1.13046
-1.13045
-1.13044
-1.13043
-1.13042
-1.13042
-1.13041
-1.1304
-1.13039
-1.13038
-1.13038
-1.13037
-1.13036
-1.13035
-1.13034
-1.13034
-1.13033
-1.13032
-1.15309
-1.15309
-1.15308
-1.15308
-1.15307
-1.15306
-1.15306
-1.15305
-1.15304
-1.15304
-1.15303
-1.15302
-1.15302
-1.15301
-1.153
-1.15299
-1.15299
-1.15298
-1.15297
-1.15296
-1.15295
-1.15295
-1.15294
-1.15293
-1.15292
-1.15291
-1.15291
-1.1529
-1.15289
-1.15288
-1.15287
-1.15286
-1.15286
-1.15285
-1.15284
-1.15283
-1.15282
-1.15281
-1.15281
-1.1528
-1.15279
-1.15278
-1.15277
-1.15276
-1.15275
-1.15275
-1.15274
-1.15273
-1.15272
-1.15271
-1.17575
-1.17574
-1.17573
-1.17572
-1.17571
-1.1757
-1.17569
-1.17568
-1.17566
-1.17565
-1.17564
-1.17563
-1.17561
-1.1756
-1.17559
-1.17557
-1.17556
-1.17554
-1.17554
-1.17552
-1.17551
-1.1755
-1.17548
-1.17547
-1.17546
-1.17544
-1.17543
-1.17542
-1.17541
-1.17539
-1.17538
-1.17537
-1.17536
-1.17534
-1.17533
-1.17532
-1.17531
-1.17529
-1.17528
-1.17527
-1.17526
-1.17525
-1.17524
-1.17523
-1.17521
-1.1752
-1.17519
-1.17518
-1.17517
-1.17516
-1.19807
-1.19807
-1.19806
-1.19806
-1.19802
-1.19804
-1.19803
-1.198
-1.19799
-1.198
-1.19799
-1.19798
-1.19797
-1.19796
-1.19795
-1.19794
-1.19791
-1.19784
-1.19787
-1.19787
-1.19786
-1.19784
-1.19783
-1.19782
-1.19781
-1.1978
-1.19779
-1.19778
-1.19777
-1.19775
-1.19774
-1.19774
-1.19773
-1.19772
-1.1977
-1.19769
-1.19768
-1.19767
-1.19766
-1.19765
-1.19764
-1.19762
-1.19761
-1.1976
-1.19759
-1.19758
-1.19757
-1.19755
-1.19754
-1.19753
-1.22101
-1.22091
-1.22099
-1.22098
-1.22063
-1.22091
-1.2209
-1.2208
-1.22043
-1.22071
-1.22069
-1.22066
-1.22068
-1.22067
-1.22066
-1.22064
-1.22058
-1.22018
-1.2205
-1.22048
-1.22047
-1.22045
-1.22043
-1.22041
-1.22039
-1.22038
-1.22036
-1.22035
-1.22034
-1.22029
-1.21996
-1.22022
-1.2202
-1.22019
-1.22017
-1.22012
-1.22015
-1.22015
-1.22013
-1.22012
-1.2201
-1.22009
-1.22007
-1.22006
-1.22005
-1.22003
-1.22002
-1.22
-1.21999
-1.21998
-1.24311
-1.24312
-1.24307
-1.24307
-1.24298
-1.24267
-1.24293
-1.24292
-1.2429
-1.24264
-1.24281
-1.24277
-1.24267
-1.24291
-1.2429
-1.24289
-1.2426
-1.24286
-1.24284
-1.24283
-1.24249
-1.24277
-1.24277
-1.2427
-1.24236
-1.24263
-1.24262
-1.2426
-1.2423
-1.24256
-1.24254
-1.24268
-1.24276
-1.24257
-1.24259
-1.24258
-1.24256
-1.2424
-1.24252
-1.2425
-1.24248
-1.24247
-1.24247
-1.24245
-1.24243
-1.24242
-1.2424
-1.24239
-1.24237
-1.24235
-1.26639
-1.2663
-1.26613
-1.2662
-1.26617
-1.26613
-1.2661
-1.26607
-1.26601
-1.26602
-1.266
-1.26598
-1.26593
-1.26591
-1.26585
-1.26562
-1.26579
-1.26577
-1.26575
-1.26553
-1.26552
-1.2655
-1.26521
-1.26544
-1.26541
-1.26539
-1.26537
-1.26513
-1.26514
-1.26512
-1.26489
-1.26509
-1.26507
-1.26504
-1.26503
-1.26502
-1.26472
-1.26497
-1.26496
-1.26495
-1.26493
-1.26489
-1.26466
-1.26483
-1.26481
-1.2648
-1.26478
-1.26477
-1.26475
-1.26473
-1.28822
-1.28821
-1.28819
-1.28809
-1.28818
-1.28819
-1.28815
-1.28813
-1.28797
-1.28808
-1.28807
-1.28805
-1.28789
-1.28802
-1.288
-1.28798
-1.28796
-1.28795
-1.28777
-1.28775
-1.28775
-1.28757
-1.28774
-1.28773
-1.28772
-1.2877
-1.28756
-1.28754
-1.28753
-1.28734
-1.28732
-1.28733
-1.28705
-1.2873
-1.28729
-1.28726
-1.28743
-1.28742
-1.28741
-1.28721
-1.28737
-1.28736
-1.28735
-1.28712
-1.28732
-1.28733
-1.28731
-1.28731
-1.28725
-1.28723
-1.31134
-1.3113
-1.31126
-1.31121
-1.31117
-1.31098
-1.31107
-1.31102
-1.31098
-1.31094
-1.31089
-1.31065
-1.31078
-1.31074
-1.3107
-1.31065
-1.3106
-1.31034
-1.31034
-1.31029
-1.31007
-1.31025
-1.31021
-1.31016
-1.31011
-1.30984
-1.30982
-1.30976
-1.3095
-1.30973
-1.30972
-1.30967
-1.30961
-1.30956
-1.30927
-1.30956
-1.30961
-1.30956
-1.30924
-1.30952
-1.30957
-1.30952
-1.3092
-1.30955
-1.30963
-1.30957
-1.30933
-1.30957
-1.30962
-1.30957
-1.33314
-1.33327
-1.33322
-1.33317
-1.33313
-1.33308
-1.33287
-1.33282
-1.33283
-1.3326
-1.33279
-1.33281
-1.33276
-1.33271
-1.33266
-1.33244
-1.33239
-1.33243
-1.33221
-1.33241
-1.33245
-1.3324
-1.33218
-1.33238
-1.33243
-1.33238
-1.33226
-1.33221
-1.33225
-1.3322
-1.332
-1.33197
-1.332
-1.33183
-1.33202
-1.33204
-1.332
-1.33196
-1.33192
-1.33187
-1.33184
-1.3318
-1.33177
-1.33173
-1.3317
-1.33167
-1.33164
-1.33161
-1.33158
-1.33154
-0.906233
-0.906232
-0.906231
-0.90623
-0.906229
-0.906228
-0.906227
-0.906226
-0.906225
-0.906224
-0.906223
-0.906222
-0.906221
-0.906219
-0.906218
-0.906217
-0.906216
-0.906215
-0.906214
-0.906213
-0.906212
-0.906211
-0.906209
-0.906208
-0.906207
-0.906206
-0.906205
-0.906203
-0.906202
-0.906201
-0.9062
-0.906199
-0.906197
-0.906196
-0.906195
-0.906194
-0.906192
-0.906191
-0.90619
-0.906188
-0.906187
-0.906186
-0.906184
-0.906183
-0.906182
-0.90618
-0.906179
-0.906177
-0.906176
-0.906175
-0.906173
-0.906172
-0.90617
-0.906169
-0.906167
-0.906166
-0.906164
-0.906163
-0.906161
-0.90616
-0.906158
-0.906157
-0.906155
-0.906154
-0.906152
-0.906151
-0.906149
-0.906147
-0.906146
-0.906144
-0.906143
-0.906141
-0.906139
-0.906138
-0.906136
-0.906134
-0.906133
-0.906131
-0.906129
-0.906128
-0.906126
-0.906124
-0.906122
-0.906121
-0.906119
-0.906117
-0.906115
-0.906113
-0.906112
-0.90611
-0.906108
-0.906106
-0.906104
-0.906103
-0.906101
-0.906099
-0.906097
-0.906095
-0.906093
-0.906091
-0.906089
-0.906088
-0.906086
-0.906084
-0.906082
-0.90608
-0.906078
-0.906076
-0.906074
-0.906072
-0.90607
-0.906068
-0.906066
-0.906064
-0.906062
-0.90606
-0.906058
-0.906056
-0.906054
-0.906052
-0.90605
-0.906048
-0.906045
-0.906043
-0.906041
-0.906039
-0.906037
-0.906035
-0.906033
-0.906031
-0.906029
-0.906026
-0.906024
-0.906022
-0.90602
-0.906018
-0.906016
-0.906014
-0.906011
-0.906009
-0.906007
-0.906005
-0.906003
-0.906
-0.905998
-0.905996
-0.905994
-0.905992
-0.905989
-0.905987
-0.905985
-0.905983
-0.90598
-0.905978
-0.905976
-0.905974
-0.905971
-0.905969
-0.905967
-0.905965
-0.905962
-0.90596
-0.905958
-0.905956
-0.905953
-0.905951
-0.905949
-0.905947
-0.905944
-0.905942
-0.90594
-0.905938
-0.905935
-0.905933
-0.905931
-0.905928
-0.905926
-0.905924
-0.905922
-0.905919
-0.905917
-0.905915
-0.905913
-0.90591
-0.905908
-0.905906
-0.905904
-0.905901
-0.905899
-0.905897
-0.905895
-0.905893
-0.90589
-0.905888
-0.905886
-0.905884
-0.905881
-0.905879
-0.905877
-0.905875
-0.905873
-0.905871
-0.905868
-0.905866
-0.905864
-0.905862
-0.90586
-0.905858
-0.905856
-0.905853
-0.905851
-0.905849
-0.905847
-0.905845
-0.905843
-0.905841
-0.905839
-0.905837
-0.905835
-0.905833
-0.905831
-0.905829
-0.905827
-0.905825
-0.905823
-0.905821
-0.905819
-0.905817
-0.905815
-0.905813
-0.905811
-0.905809
-0.905807
-0.905805
-0.905804
-0.905802
-0.9058
-0.905798
-0.905796
-0.905794
-0.905793
-0.905791
-0.905789
-0.905787
-0.905786
-0.905784
-0.905782
-0.905781
-0.905779
-0.905777
-0.905776
-0.905774
-0.905772
-0.905771
-0.905769
-0.905768
-0.905766
-0.905765
-0.905763
-0.905762
-0.90576
-0.905759
-0.905757
-0.905756
-0.905754
-0.905753
-0.905752
-0.90575
-0.905749
-0.905748
-0.905746
-0.905745
-0.905744
-0.905743
-0.905742
-0.90574
-0.905739
-0.905738
-0.905737
-0.905736
-0.905735
-0.905734
-0.905733
-0.905732
-0.905731
-0.90573
-0.905729
-0.905728
-0.905727
-0.905726
-0.905725
-0.905724
-0.905724
-0.905723
-0.905722
-0.905721
-0.905721
-0.90572
-0.905719
-0.905719
-0.928623
-0.928622
-0.928621
-0.92862
-0.928619
-0.928618
-0.928617
-0.928616
-0.928614
-0.928613
-0.928612
-0.928611
-0.92861
-0.928609
-0.928607
-0.928606
-0.928605
-0.928604
-0.928603
-0.928601
-0.9286
-0.928599
-0.928598
-0.928596
-0.928595
-0.928594
-0.928593
-0.928591
-0.92859
-0.928589
-0.928587
-0.928586
-0.928584
-0.928583
-0.928582
-0.92858
-0.928579
-0.928577
-0.928576
-0.928575
-0.928573
-0.928572
-0.92857
-0.928569
-0.928567
-0.928566
-0.928564
-0.928563
-0.928561
-0.92856
-0.928558
-0.928556
-0.928555
-0.928553
-0.928552
-0.92855
-0.928548
-0.928547
-0.928545
-0.928543
-0.928542
-0.92854
-0.928538
-0.928537
-0.928535
-0.928533
-0.928532
-0.92853
-0.928528
-0.928526
-0.928524
-0.928523
-0.928521
-0.928519
-0.928517
-0.928515
-0.928514
-0.928512
-0.92851
-0.928508
-0.928506
-0.928504
-0.928502
-0.9285
-0.928498
-0.928496
-0.928495
-0.928493
-0.928491
-0.928489
-0.928487
-0.928485
-0.928483
-0.928481
-0.928479
-0.928476
-0.928474
-0.928472
-0.92847
-0.928468
-0.928466
-0.928464
-0.928462
-0.92846
-0.928458
-0.928456
-0.928453
-0.928451
-0.928449
-0.928447
-0.928445
-0.928443
-0.92844
-0.928438
-0.928436
-0.928434
-0.928432
-0.928429
-0.928427
-0.928425
-0.928423
-0.92842
-0.928418
-0.928416
-0.928413
-0.928411
-0.928409
-0.928407
-0.928404
-0.928402
-0.9284
-0.928397
-0.928395
-0.928393
-0.92839
-0.928388
-0.928386
-0.928383
-0.928381
-0.928378
-0.928376
-0.928374
-0.928371
-0.928369
-0.928367
-0.928364
-0.928362
-0.928359
-0.928357
-0.928355
-0.928352
-0.92835
-0.928347
-0.928345
-0.928343
-0.92834
-0.928338
-0.928335
-0.928333
-0.92833
-0.928328
-0.928326
-0.928323
-0.928321
-0.928318
-0.928316
-0.928313
-0.928311
-0.928309
-0.928306
-0.928304
-0.928301
-0.928299
-0.928296
-0.928294
-0.928292
-0.928289
-0.928287
-0.928284
-0.928282
-0.92828
-0.928277
-0.928275
-0.928272
-0.92827
-0.928268
-0.928265
-0.928263
-0.928261
-0.928258
-0.928256
-0.928253
-0.928251
-0.928249
-0.928246
-0.928244
-0.928242
-0.928239
-0.928237
-0.928235
-0.928233
-0.92823
-0.928228
-0.928226
-0.928223
-0.928221
-0.928219
-0.928217
-0.928215
-0.928212
-0.92821
-0.928208
-0.928206
-0.928204
-0.928201
-0.928199
-0.928197
-0.928195
-0.928193
-0.928191
-0.928189
-0.928186
-0.928184
-0.928182
-0.92818
-0.928178
-0.928176
-0.928174
-0.928172
-0.92817
-0.928168
-0.928166
-0.928164
-0.928162
-0.92816
-0.928158
-0.928157
-0.928155
-0.928153
-0.928151
-0.928149
-0.928147
-0.928145
-0.928144
-0.928142
-0.92814
-0.928138
-0.928137
-0.928135
-0.928133
-0.928132
-0.92813
-0.928128
-0.928127
-0.928125
-0.928123
-0.928122
-0.92812
-0.928119
-0.928117
-0.928116
-0.928114
-0.928113
-0.928111
-0.92811
-0.928109
-0.928107
-0.928106
-0.928104
-0.928103
-0.928102
-0.928101
-0.928099
-0.928098
-0.928097
-0.928096
-0.928094
-0.928093
-0.928092
-0.928091
-0.92809
-0.928089
-0.928088
-0.928087
-0.928086
-0.928085
-0.928084
-0.928083
-0.928082
-0.928081
-0.92808
-0.92808
-0.928079
-0.928078
-0.928077
-0.928077
-0.928076
-0.928075
-0.928075
-0.928074
-0.951028
-0.951027
-0.951025
-0.951024
-0.951023
-0.951021
-0.95102
-0.951019
-0.951017
-0.951016
-0.951014
-0.951013
-0.951011
-0.95101
-0.951009
-0.951007
-0.951006
-0.951004
-0.951003
-0.951001
-0.951
-0.950998
-0.950997
-0.950995
-0.950994
-0.950992
-0.95099
-0.950989
-0.950987
-0.950986
-0.950984
-0.950982
-0.950981
-0.950979
-0.950977
-0.950976
-0.950974
-0.950972
-0.950971
-0.950969
-0.950967
-0.950965
-0.950964
-0.950962
-0.95096
-0.950958
-0.950957
-0.950955
-0.950953
-0.950951
-0.950949
-0.950947
-0.950945
-0.950944
-0.950942
-0.95094
-0.950938
-0.950936
-0.950934
-0.950932
-0.95093
-0.950928
-0.950926
-0.950924
-0.950922
-0.95092
-0.950918
-0.950916
-0.950914
-0.950912
-0.95091
-0.950908
-0.950906
-0.950904
-0.950902
-0.9509
-0.950898
-0.950895
-0.950893
-0.950891
-0.950889
-0.950887
-0.950885
-0.950882
-0.95088
-0.950878
-0.950876
-0.950874
-0.950871
-0.950869
-0.950867
-0.950865
-0.950862
-0.95086
-0.950858
-0.950855
-0.950853
-0.950851
-0.950848
-0.950846
-0.950844
-0.950841
-0.950839
-0.950837
-0.950834
-0.950832
-0.95083
-0.950827
-0.950825
-0.950822
-0.95082
-0.950817
-0.950815
-0.950813
-0.95081
-0.950808
-0.950805
-0.950803
-0.9508
-0.950798
-0.950795
-0.950793
-0.95079
-0.950788
-0.950785
-0.950783
-0.95078
-0.950778
-0.950775
-0.950773
-0.95077
-0.950767
-0.950765
-0.950762
-0.95076
-0.950757
-0.950755
-0.950752
-0.95075
-0.950747
-0.950744
-0.950742
-0.950739
-0.950737
-0.950734
-0.950731
-0.950729
-0.950726
-0.950724
-0.950721
-0.950718
-0.950716
-0.950713
-0.950711
-0.950708
-0.950705
-0.950703
-0.9507
-0.950698
-0.950695
-0.950692
-0.95069
-0.950687
-0.950685
-0.950682
-0.950679
-0.950677
-0.950674
-0.950672
-0.950669
-0.950666
-0.950664
-0.950661
-0.950659
-0.950656
-0.950654
-0.950651
-0.950648
-0.950646
-0.950643
-0.950641
-0.950638
-0.950636
-0.950633
-0.950631
-0.950628
-0.950626
-0.950623
-0.950621
-0.950618
-0.950616
-0.950613
-0.950611
-0.950608
-0.950606
-0.950603
-0.950601
-0.950598
-0.950596
-0.950594
-0.950591
-0.950589
-0.950586
-0.950584
-0.950582
-0.950579
-0.950577
-0.950575
-0.950572
-0.95057
-0.950568
-0.950565
-0.950563
-0.950561
-0.950559
-0.950556
-0.950554
-0.950552
-0.95055
-0.950547
-0.950545
-0.950543
-0.950541
-0.950539
-0.950537
-0.950535
-0.950532
-0.95053
-0.950528
-0.950526
-0.950524
-0.950522
-0.95052
-0.950518
-0.950516
-0.950514
-0.950512
-0.95051
-0.950508
-0.950506
-0.950505
-0.950503
-0.950501
-0.950499
-0.950497
-0.950495
-0.950494
-0.950492
-0.95049
-0.950488
-0.950487
-0.950485
-0.950483
-0.950482
-0.95048
-0.950478
-0.950477
-0.950475
-0.950474
-0.950472
-0.95047
-0.950469
-0.950467
-0.950466
-0.950465
-0.950463
-0.950462
-0.95046
-0.950459
-0.950458
-0.950456
-0.950455
-0.950454
-0.950453
-0.950451
-0.95045
-0.950449
-0.950448
-0.950447
-0.950445
-0.950444
-0.950443
-0.950442
-0.950441
-0.95044
-0.950439
-0.950438
-0.950437
-0.950436
-0.950436
-0.950435
-0.950434
-0.950433
-0.950432
-0.950432
-0.950431
-0.95043
-0.95043
-0.950429
-0.950428
-0.973422
-0.973421
-0.97342
-0.973418
-0.973417
-0.973415
-0.973414
-0.973412
-0.973411
-0.973409
-0.973407
-0.973406
-0.973404
-0.973403
-0.973401
-0.973399
-0.973398
-0.973396
-0.973395
-0.973393
-0.973391
-0.97339
-0.973388
-0.973386
-0.973384
-0.973383
-0.973381
-0.973379
-0.973377
-0.973376
-0.973374
-0.973372
-0.97337
-0.973368
-0.973367
-0.973365
-0.973363
-0.973361
-0.973359
-0.973357
-0.973355
-0.973353
-0.973352
-0.97335
-0.973348
-0.973346
-0.973344
-0.973342
-0.97334
-0.973338
-0.973336
-0.973334
-0.973332
-0.973329
-0.973327
-0.973325
-0.973323
-0.973321
-0.973319
-0.973317
-0.973315
-0.973312
-0.97331
-0.973308
-0.973306
-0.973304
-0.973302
-0.973299
-0.973297
-0.973295
-0.973293
-0.97329
-0.973288
-0.973286
-0.973283
-0.973281
-0.973279
-0.973276
-0.973274
-0.973272
-0.973269
-0.973267
-0.973264
-0.973262
-0.97326
-0.973257
-0.973255
-0.973252
-0.97325
-0.973247
-0.973245
-0.973242
-0.97324
-0.973237
-0.973235
-0.973232
-0.97323
-0.973227
-0.973225
-0.973222
-0.97322
-0.973217
-0.973214
-0.973212
-0.973209
-0.973207
-0.973204
-0.973201
-0.973199
-0.973196
-0.973193
-0.973191
-0.973188
-0.973185
-0.973183
-0.97318
-0.973177
-0.973175
-0.973172
-0.973169
-0.973167
-0.973164
-0.973161
-0.973158
-0.973156
-0.973153
-0.97315
-0.973147
-0.973145
-0.973142
-0.973139
-0.973136
-0.973134
-0.973131
-0.973128
-0.973125
-0.973122
-0.97312
-0.973117
-0.973114
-0.973111
-0.973109
-0.973106
-0.973103
-0.9731
-0.973097
-0.973095
-0.973092
-0.973089
-0.973086
-0.973083
-0.973081
-0.973078
-0.973075
-0.973072
-0.973069
-0.973067
-0.973064
-0.973061
-0.973058
-0.973055
-0.973053
-0.97305
-0.973047
-0.973044
-0.973042
-0.973039
-0.973036
-0.973033
-0.973031
-0.973028
-0.973025
-0.973022
-0.97302
-0.973017
-0.973014
-0.973011
-0.973009
-0.973006
-0.973003
-0.973001
-0.972998
-0.972995
-0.972993
-0.97299
-0.972987
-0.972985
-0.972982
-0.972979
-0.972977