/*--------------------------------*- C++ -*----------------------------------*\
| =========                 |                                                 |
| \\      /  F ield         | OpenFOAM: The Open Source CFD Toolbox           |
|  \\    /   O peration     | Version:  2.4.0                                 |
|   \\  /    A nd           | Web:      www.OpenFOAM.org                      |
|    \\/     M anipulation  |                                                 |
\*---------------------------------------------------------------------------*/
FoamFile
{
    version     2.0;
    format      ascii;
    class       volScalarField;
    location    "0.009";
    object      H;
}
// * * * * * * * * * * * * * * * * * * * * * * * * * * * * * * * * * * * * * //

dimensions      [0 2 -2 0 0 0 0];

internalField   nonuniform List<scalar> 
125
(
-0.0925773
-0.0842109
-0.0765326
-0.0694917
-0.0630413
-0.057137
-0.0517376
-0.0468046
-0.042302
-0.0381962
-0.0344558
-0.0310517
-0.0279567
-0.0251456
-0.022595
-0.0202829
-0.0181894
-0.0162956
-0.0145844
-0.0130397
-0.0116468
-0.0103921
-0.00926307
-0.00824825
-0.00733705
-0.00651977
-0.00578751
-0.00513215
-0.00454625
-0.00402301
-0.00355625
-0.00314033
-0.00277013
-0.00244097
-0.00214863
-0.00188929
-0.00165947
-0.00145604
-0.00127618
-0.00111732
-0.000977183
-0.000853692
-0.000744996
-0.000649429
-0.000565502
-0.000491881
-0.000427373
-0.000370915
-0.000321559
-0.00027846
-0.00024087
-0.000208121
-0.000179623
-0.000154853
-0.000133348
-0.000114699
-9.85467e-05
-8.4572e-05
-7.24959e-05
-6.20726e-05
-5.30866e-05
-4.53488e-05
-3.86936e-05
-3.29765e-05
-2.8071e-05
-2.3867e-05
-2.02685e-05
-1.71919e-05
-1.45648e-05
-1.23242e-05
-1.04157e-05
-8.79184e-06
-7.41205e-06
-6.24106e-06
-5.24847e-06
-4.40824e-06
-3.69779e-06
-3.09789e-06
-2.59199e-06
-2.16585e-06
-1.80745e-06
-1.50636e-06
-1.25374e-06
-1.0421e-06
-8.65007e-07
-7.17023e-07
-5.93547e-07
-4.90655e-07
-4.05028e-07
-3.33876e-07
-2.74811e-07
-2.25886e-07
-1.85391e-07
-1.51945e-07
-1.2434e-07
-1.01595e-07
-8.28725e-08
-6.7527e-08
-5.49187e-08
-4.45914e-08
-3.61696e-08
-2.92665e-08
-2.36579e-08
-1.90876e-08
-1.53756e-08
-1.23659e-08
-9.92935e-09
-7.95155e-09
-6.36872e-09
-5.07781e-09
-4.04933e-09
-3.22543e-09
-2.54925e-09
-2.03555e-09
-1.60004e-09
-1.28894e-09
-9.8324e-10
-7.74588e-10
-6.4698e-10
-4.66278e-10
-3.65842e-10
-3.052e-10
-2.62771e-10
-1.51435e-10
-1.59967e-10
)
;

boundaryField
{
    BotWall
    {
        type            zeroGradient;
    }
    FreeStream
    {
        type            zeroGradient;
    }
    FrontNBack
    {
        type            empty;
    }
    LeftSide
    {
        type            symmetryPlane;
    }
    RightSide
    {
        type            symmetryPlane;
    }
    procBoundary10to7
    {
        type            processor;
        value           nonuniform List<scalar> 
50
(
-4.3446e-06
-3.64444e-06
-3.05324e-06
-2.55467e-06
-2.13472e-06
-1.7815e-06
-1.48476e-06
-1.2358e-06
-1.02721e-06
-8.52684e-07
-7.06849e-07
-5.85133e-07
-4.8371e-07
-3.99313e-07
-3.29167e-07
-2.70965e-07
-2.22728e-07
-1.82805e-07
-1.49828e-07
-1.22605e-07
-1.00198e-07
-8.17356e-08
-6.66056e-08
-5.4166e-08
-4.39864e-08
-3.56649e-08
-2.88724e-08
-2.33397e-08
-1.88299e-08
-1.51655e-08
-1.22028e-08
-9.79156e-09
-7.84842e-09
-6.27957e-09
-5.02026e-09
-3.99532e-09
-3.1647e-09
-2.53216e-09
-2.00625e-09
-1.59519e-09
-1.24184e-09
-9.8472e-10
-7.74919e-10
-6.2465e-10
-4.66616e-10
-3.67221e-10
-2.88214e-10
-2.61329e-10
-1.55717e-10
-1.58489e-10
)
;
    }
    procBoundary10to8
    {
        type            processor;
        value           nonuniform List<scalar> 
75
(
-0.0920244
-0.0836971
-0.0760553
-0.0690487
-0.0626303
-0.0567561
-0.0513849
-0.0464784
-0.0420005
-0.0379179
-0.0341992
-0.0308154
-0.0277394
-0.024946
-0.0224119
-0.0201152
-0.0180359
-0.0161554
-0.0144565
-0.0129231
-0.0115407
-0.0102957
-0.00917567
-0.00816907
-0.00726542
-0.00645506
-0.00572914
-0.00507958
-0.00449896
-0.00398055
-0.00351818
-0.00310624
-0.00273964
-0.00241375
-0.00212437
-0.00186769
-0.00164027
-0.001439
-0.00126107
-0.00110396
-0.000965373
-0.000843272
-0.000735815
-0.000641353
-0.000558407
-0.000485657
-0.000421921
-0.000366147
-0.000317395
-0.000274829
-0.000237708
-0.000205372
-0.000177236
-0.000152784
-0.000131557
-0.000113151
-9.72101e-05
-8.342e-05
-7.15044e-05
-6.12205e-05
-5.23553e-05
-4.4722e-05
-3.81573e-05
-3.25182e-05
-2.76798e-05
-2.35336e-05
-1.99847e-05
-1.69506e-05
-1.43599e-05
-1.21504e-05
-1.02684e-05
-8.66714e-06
-7.30652e-06
-6.15177e-06
-5.17295e-06
)
;
    }
    procBoundary10to9
    {
        type            processor;
        value           uniform -1.32519e-10;
    }
    procBoundary10to11
    {
        type            processor;
        value           uniform -0.101688;
    }
}


// ************************************************************************* //
