/*--------------------------------*- C++ -*----------------------------------*\
| =========                 |                                                 |
| \\      /  F ield         | OpenFOAM: The Open Source CFD Toolbox           |
|  \\    /   O peration     | Version:  2.4.0                                 |
|   \\  /    A nd           | Web:      www.OpenFOAM.org                      |
|    \\/     M anipulation  |                                                 |
\*---------------------------------------------------------------------------*/
FoamFile
{
    version     2.0;
    format      ascii;
    class       volScalarField;
    location    "0.009";
    object      p;
}
// * * * * * * * * * * * * * * * * * * * * * * * * * * * * * * * * * * * * * //

dimensions      [1 -1 -2 0 0 0 0];

internalField   nonuniform List<scalar> 
125
(
-0.0335268
-0.0337635
-0.0340012
-0.0342397
-0.0344791
-0.0347193
-0.0349605
-0.0352025
-0.0354454
-0.0356892
-0.035934
-0.0361796
-0.0364261
-0.0366735
-0.0369219
-0.0371711
-0.0374213
-0.0376724
-0.0379244
-0.0381774
-0.0384313
-0.0386861
-0.0389418
-0.0391985
-0.0394562
-0.0397147
-0.0399743
-0.0402348
-0.0404962
-0.0407587
-0.0410221
-0.0412864
-0.0415517
-0.041818
-0.0420853
-0.0423536
-0.0426229
-0.0428931
-0.0431644
-0.0434366
-0.0437099
-0.0439841
-0.0442594
-0.0445357
-0.044813
-0.0450913
-0.0453706
-0.045651
-0.0459324
-0.0462148
-0.0464983
-0.0467828
-0.0470684
-0.047355
-0.0476427
-0.0479314
-0.0482212
-0.0485121
-0.048804
-0.049097
-0.0493911
-0.0496863
-0.0499826
-0.0502799
-0.0505784
-0.0508779
-0.0511786
-0.0514803
-0.0517832
-0.0520872
-0.0523923
-0.0526985
-0.0530059
-0.0533143
-0.053624
-0.0539347
-0.0542466
-0.0545597
-0.0548739
-0.0551892
-0.0555058
-0.0558235
-0.0561423
-0.0564623
-0.0567836
-0.057106
-0.0574295
-0.0577543
-0.0580803
-0.0584074
-0.0587358
-0.0590654
-0.0593962
-0.0597282
-0.0600614
-0.0603959
-0.0607316
-0.0610685
-0.0614067
-0.0617461
-0.0620868
-0.0624287
-0.0627719
-0.0631163
-0.063462
-0.063809
-0.0641573
-0.0645068
-0.0648576
-0.0652098
-0.0655632
-0.0659179
-0.0662739
-0.0666313
-0.0669899
-0.0673499
-0.0677112
-0.0680738
-0.0684378
-0.0688031
-0.0691697
-0.0695377
-0.0699071
-0.0702778
-0.0706498
)
;

boundaryField
{
    BotWall
    {
        type            calculated;
        value           nonuniform 0();
    }
    FreeStream
    {
        type            calculated;
        value           nonuniform 0();
    }
    FrontNBack
    {
        type            empty;
    }
    LeftSide
    {
        type            symmetryPlane;
    }
    RightSide
    {
        type            symmetryPlane;
    }
    procBoundary10to7
    {
        type            processor;
        value           nonuniform List<scalar> 
50
(
-0.0539338
-0.0542457
-0.0545588
-0.054873
-0.0551884
-0.0555049
-0.0558226
-0.0561415
-0.0564615
-0.0567828
-0.0571052
-0.0574288
-0.0577535
-0.0580795
-0.0584067
-0.0587351
-0.0590647
-0.0593955
-0.0597275
-0.0600608
-0.0603952
-0.0607309
-0.0610679
-0.0614061
-0.0617455
-0.0620862
-0.0624281
-0.0627713
-0.0631157
-0.0634614
-0.0638084
-0.0641567
-0.0645063
-0.0648571
-0.0652092
-0.0655626
-0.0659174
-0.0662734
-0.0666307
-0.0669894
-0.0673494
-0.0677107
-0.0680733
-0.0684373
-0.0688026
-0.0691692
-0.0695372
-0.0699066
-0.0702773
-0.0706494
)
;
    }
    procBoundary10to8
    {
        type            processor;
        value           nonuniform List<scalar> 
75
(
-0.0335234
-0.0337602
-0.0339978
-0.0342364
-0.0344758
-0.0347161
-0.0349573
-0.0351994
-0.0354424
-0.0356862
-0.035931
-0.0361767
-0.0364233
-0.0366707
-0.0369191
-0.0371684
-0.0374186
-0.0376698
-0.0379218
-0.0381748
-0.0384288
-0.0386836
-0.0389394
-0.0391961
-0.0394538
-0.0397125
-0.039972
-0.0402326
-0.0404941
-0.0407565
-0.04102
-0.0412843
-0.0415497
-0.0418161
-0.0420834
-0.0423517
-0.042621
-0.0428913
-0.0431625
-0.0434348
-0.0437081
-0.0439824
-0.0442577
-0.044534
-0.0448113
-0.0450897
-0.045369
-0.0456494
-0.0459309
-0.0462133
-0.0464968
-0.0467814
-0.047067
-0.0473536
-0.0476413
-0.0479301
-0.0482199
-0.0485108
-0.0488028
-0.0490958
-0.0493899
-0.0496851
-0.0499814
-0.0502788
-0.0505772
-0.0508768
-0.0511775
-0.0514793
-0.0517821
-0.0520861
-0.0523913
-0.0526975
-0.0530049
-0.0533134
-0.053623
)
;
    }
    procBoundary10to9
    {
        type            processor;
        value           uniform -0.0710233;
    }
    procBoundary10to11
    {
        type            processor;
        value           uniform -0.0332909;
    }
}


// ************************************************************************* //
