/*--------------------------------*- C++ -*----------------------------------*\
| =========                 |                                                 |
| \\      /  F ield         | OpenFOAM: The Open Source CFD Toolbox           |
|  \\    /   O peration     | Version:  2.4.0                                 |
|   \\  /    A nd           | Web:      www.OpenFOAM.org                      |
|    \\/     M anipulation  |                                                 |
\*---------------------------------------------------------------------------*/
FoamFile
{
    version     2.0;
    format      ascii;
    class       volVectorField;
    location    "0.009";
    object      U;
}
// * * * * * * * * * * * * * * * * * * * * * * * * * * * * * * * * * * * * * //

dimensions      [0 1 -1 0 0 0 0];

internalField   nonuniform List<vector> 
125
(
(1.2816e-05 -0.0202313 0)
(1.26471e-05 -0.0202313 0)
(1.24791e-05 -0.0202313 0)
(1.23121e-05 -0.0202313 0)
(1.21459e-05 -0.0202313 0)
(1.19806e-05 -0.0202313 0)
(1.18162e-05 -0.0202313 0)
(1.16527e-05 -0.0202312 0)
(1.14901e-05 -0.0202312 0)
(1.13285e-05 -0.0202312 0)
(1.11678e-05 -0.0202312 0)
(1.1008e-05 -0.0202312 0)
(1.08492e-05 -0.0202312 0)
(1.06913e-05 -0.0202312 0)
(1.05344e-05 -0.0202312 0)
(1.03785e-05 -0.0202312 0)
(1.02235e-05 -0.0202312 0)
(1.00695e-05 -0.0202312 0)
(9.91651e-06 -0.0202312 0)
(9.76448e-06 -0.0202311 0)
(9.61345e-06 -0.0202311 0)
(9.46341e-06 -0.0202311 0)
(9.31438e-06 -0.0202311 0)
(9.16634e-06 -0.0202311 0)
(9.01932e-06 -0.0202311 0)
(8.87331e-06 -0.0202311 0)
(8.72832e-06 -0.0202311 0)
(8.58434e-06 -0.0202311 0)
(8.44138e-06 -0.0202311 0)
(8.29944e-06 -0.0202311 0)
(8.15853e-06 -0.0202311 0)
(8.01864e-06 -0.0202311 0)
(7.87977e-06 -0.0202311 0)
(7.74193e-06 -0.020231 0)
(7.60512e-06 -0.020231 0)
(7.46933e-06 -0.020231 0)
(7.33456e-06 -0.020231 0)
(7.20081e-06 -0.020231 0)
(7.06809e-06 -0.020231 0)
(6.93638e-06 -0.020231 0)
(6.80569e-06 -0.020231 0)
(6.67602e-06 -0.020231 0)
(6.54735e-06 -0.020231 0)
(6.41969e-06 -0.020231 0)
(6.29304e-06 -0.020231 0)
(6.16738e-06 -0.020231 0)
(6.04271e-06 -0.020231 0)
(5.91904e-06 -0.020231 0)
(5.79634e-06 -0.020231 0)
(5.67463e-06 -0.020231 0)
(5.55388e-06 -0.020231 0)
(5.4341e-06 -0.020231 0)
(5.31527e-06 -0.020231 0)
(5.1974e-06 -0.020231 0)
(5.08047e-06 -0.020231 0)
(4.96447e-06 -0.020231 0)
(4.84939e-06 -0.020231 0)
(4.73524e-06 -0.020231 0)
(4.62199e-06 -0.020231 0)
(4.50964e-06 -0.020231 0)
(4.39819e-06 -0.020231 0)
(4.28761e-06 -0.020231 0)
(4.1779e-06 -0.020231 0)
(4.06906e-06 -0.020231 0)
(3.96106e-06 -0.020231 0)
(3.8539e-06 -0.020231 0)
(3.74757e-06 -0.020231 0)
(3.64206e-06 -0.020231 0)
(3.53735e-06 -0.020231 0)
(3.43343e-06 -0.020231 0)
(3.33029e-06 -0.020231 0)
(3.22793e-06 -0.020231 0)
(3.12632e-06 -0.020231 0)
(3.02545e-06 -0.020231 0)
(2.92531e-06 -0.020231 0)
(2.82589e-06 -0.020231 0)
(2.72717e-06 -0.020231 0)
(2.62914e-06 -0.020231 0)
(2.53179e-06 -0.020231 0)
(2.43509e-06 -0.020231 0)
(2.33903e-06 -0.020231 0)
(2.24359e-06 -0.020231 0)
(2.14877e-06 -0.020231 0)
(2.05453e-06 -0.0202311 0)
(1.96087e-06 -0.0202311 0)
(1.86776e-06 -0.0202311 0)
(1.77518e-06 -0.0202311 0)
(1.68311e-06 -0.0202311 0)
(1.59153e-06 -0.0202311 0)
(1.50041e-06 -0.0202311 0)
(1.40974e-06 -0.0202311 0)
(1.31949e-06 -0.0202311 0)
(1.22962e-06 -0.0202311 0)
(1.14011e-06 -0.0202311 0)
(1.05094e-06 -0.0202311 0)
(9.62061e-07 -0.0202312 0)
(8.73453e-07 -0.0202312 0)
(7.85078e-07 -0.0202312 0)
(6.969e-07 -0.0202312 0)
(6.08884e-07 -0.0202312 0)
(5.2099e-07 -0.0202312 0)
(4.3318e-07 -0.0202312 0)
(3.45411e-07 -0.0202312 0)
(2.57644e-07 -0.0202312 0)
(1.69835e-07 -0.0202313 0)
(8.19423e-08 -0.0202313 0)
(-6.07808e-09 -0.0202313 0)
(-9.42689e-08 -0.0202313 0)
(-1.82673e-07 -0.0202313 0)
(-2.71331e-07 -0.0202313 0)
(-3.60285e-07 -0.0202313 0)
(-4.49572e-07 -0.0202314 0)
(-5.39228e-07 -0.0202314 0)
(-6.29288e-07 -0.0202314 0)
(-7.19781e-07 -0.0202314 0)
(-8.10733e-07 -0.0202314 0)
(-9.02164e-07 -0.0202314 0)
(-9.94092e-07 -0.0202314 0)
(-1.08653e-06 -0.0202315 0)
(-1.17947e-06 -0.0202315 0)
(-1.27292e-06 -0.0202315 0)
(-1.36687e-06 -0.0202315 0)
(-1.4613e-06 -0.0202315 0)
(-1.55619e-06 -0.0202315 0)
(-1.6515e-06 -0.0202316 0)
)
;

boundaryField
{
    BotWall
    {
        type            fixedValue;
        value           nonuniform 0();
    }
    FreeStream
    {
        type            zeroGradient;
    }
    FrontNBack
    {
        type            empty;
    }
    LeftSide
    {
        type            symmetryPlane;
    }
    RightSide
    {
        type            symmetryPlane;
    }
    procBoundary10to7
    {
        type            processor;
        value           nonuniform List<vector> 
50
(
(-3.75067e-06 -0.0202317 0)
(-3.70652e-06 -0.0202317 0)
(-3.663e-06 -0.0202318 0)
(-3.62008e-06 -0.0202318 0)
(-3.57775e-06 -0.0202318 0)
(-3.53596e-06 -0.0202318 0)
(-3.4947e-06 -0.0202318 0)
(-3.45394e-06 -0.0202319 0)
(-3.41363e-06 -0.0202319 0)
(-3.37375e-06 -0.0202319 0)
(-3.33426e-06 -0.0202319 0)
(-3.29512e-06 -0.0202319 0)
(-3.25628e-06 -0.0202319 0)
(-3.2177e-06 -0.0202319 0)
(-3.17933e-06 -0.020232 0)
(-3.14111e-06 -0.020232 0)
(-3.10299e-06 -0.020232 0)
(-3.06491e-06 -0.020232 0)
(-3.0268e-06 -0.020232 0)
(-2.9886e-06 -0.020232 0)
(-2.95024e-06 -0.020232 0)
(-2.91163e-06 -0.020232 0)
(-2.87271e-06 -0.020232 0)
(-2.83339e-06 -0.0202321 0)
(-2.79359e-06 -0.0202321 0)
(-2.75322e-06 -0.0202321 0)
(-2.71218e-06 -0.0202321 0)
(-2.67038e-06 -0.0202321 0)
(-2.62773e-06 -0.0202321 0)
(-2.58412e-06 -0.0202321 0)
(-2.53946e-06 -0.0202321 0)
(-2.49365e-06 -0.0202321 0)
(-2.44659e-06 -0.0202321 0)
(-2.39818e-06 -0.0202321 0)
(-2.34831e-06 -0.0202321 0)
(-2.2969e-06 -0.0202321 0)
(-2.24385e-06 -0.0202321 0)
(-2.18907e-06 -0.0202321 0)
(-2.13248e-06 -0.0202321 0)
(-2.074e-06 -0.0202321 0)
(-2.01356e-06 -0.0202321 0)
(-1.9511e-06 -0.0202321 0)
(-1.88656e-06 -0.0202321 0)
(-1.81991e-06 -0.0202321 0)
(-1.75111e-06 -0.020232 0)
(-1.68015e-06 -0.020232 0)
(-1.60701e-06 -0.020232 0)
(-1.53171e-06 -0.020232 0)
(-1.45426e-06 -0.020232 0)
(-1.37469e-06 -0.020232 0)
)
;
    }
    procBoundary10to8
    {
        type            processor;
        value           nonuniform List<vector> 
75
(
(-9.95589e-06 -0.0202282 0)
(-9.82165e-06 -0.0202283 0)
(-9.68917e-06 -0.0202284 0)
(-9.55845e-06 -0.0202284 0)
(-9.42947e-06 -0.0202285 0)
(-9.30222e-06 -0.0202286 0)
(-9.17668e-06 -0.0202287 0)
(-9.05285e-06 -0.0202287 0)
(-8.93069e-06 -0.0202288 0)
(-8.81021e-06 -0.0202289 0)
(-8.69137e-06 -0.0202289 0)
(-8.57418e-06 -0.020229 0)
(-8.4586e-06 -0.0202291 0)
(-8.34464e-06 -0.0202291 0)
(-8.23226e-06 -0.0202292 0)
(-8.12146e-06 -0.0202293 0)
(-8.01221e-06 -0.0202293 0)
(-7.90451e-06 -0.0202294 0)
(-7.79833e-06 -0.0202294 0)
(-7.69366e-06 -0.0202295 0)
(-7.59049e-06 -0.0202296 0)
(-7.48879e-06 -0.0202296 0)
(-7.38854e-06 -0.0202297 0)
(-7.28974e-06 -0.0202297 0)
(-7.19237e-06 -0.0202298 0)
(-7.0964e-06 -0.0202298 0)
(-7.00182e-06 -0.0202299 0)
(-6.90862e-06 -0.02023 0)
(-6.81678e-06 -0.02023 0)
(-6.72628e-06 -0.0202301 0)
(-6.6371e-06 -0.0202301 0)
(-6.54924e-06 -0.0202302 0)
(-6.46266e-06 -0.0202302 0)
(-6.37736e-06 -0.0202303 0)
(-6.29332e-06 -0.0202303 0)
(-6.21052e-06 -0.0202304 0)
(-6.12895e-06 -0.0202304 0)
(-6.0486e-06 -0.0202305 0)
(-5.96943e-06 -0.0202305 0)
(-5.89145e-06 -0.0202305 0)
(-5.81463e-06 -0.0202306 0)
(-5.73897e-06 -0.0202306 0)
(-5.66443e-06 -0.0202307 0)
(-5.59102e-06 -0.0202307 0)
(-5.51871e-06 -0.0202308 0)
(-5.44749e-06 -0.0202308 0)
(-5.37735e-06 -0.0202308 0)
(-5.30826e-06 -0.0202309 0)
(-5.24023e-06 -0.0202309 0)
(-5.17322e-06 -0.020231 0)
(-5.10724e-06 -0.020231 0)
(-5.04226e-06 -0.020231 0)
(-4.97828e-06 -0.0202311 0)
(-4.91527e-06 -0.0202311 0)
(-4.85323e-06 -0.0202311 0)
(-4.79214e-06 -0.0202312 0)
(-4.73199e-06 -0.0202312 0)
(-4.67277e-06 -0.0202312 0)
(-4.61447e-06 -0.0202313 0)
(-4.55707e-06 -0.0202313 0)
(-4.50055e-06 -0.0202313 0)
(-4.44492e-06 -0.0202314 0)
(-4.39015e-06 -0.0202314 0)
(-4.33623e-06 -0.0202314 0)
(-4.28315e-06 -0.0202314 0)
(-4.2309e-06 -0.0202315 0)
(-4.17946e-06 -0.0202315 0)
(-4.12881e-06 -0.0202315 0)
(-4.07896e-06 -0.0202316 0)
(-4.02987e-06 -0.0202316 0)
(-3.98155e-06 -0.0202316 0)
(-3.93396e-06 -0.0202316 0)
(-3.88709e-06 -0.0202317 0)
(-3.84094e-06 -0.0202317 0)
(-3.79547e-06 -0.0202317 0)
)
;
    }
    procBoundary10to9
    {
        type            processor;
        value           uniform (-1.74721e-06 -0.0202316 0);
    }
    procBoundary10to11
    {
        type            processor;
        value           uniform (1.29857e-05 -0.0202313 0);
    }
}


// ************************************************************************* //
