/*--------------------------------*- C++ -*----------------------------------*\
| =========                 |                                                 |
| \\      /  F ield         | OpenFOAM: The Open Source CFD Toolbox           |
|  \\    /   O peration     | Version:  2.4.0                                 |
|   \\  /    A nd           | Web:      www.OpenFOAM.org                      |
|    \\/     M anipulation  |                                                 |
\*---------------------------------------------------------------------------*/
FoamFile
{
    version     2.0;
    format      ascii;
    class       volScalarField;
    location    "0.008";
    object      p_rgh;
}
// * * * * * * * * * * * * * * * * * * * * * * * * * * * * * * * * * * * * * //

dimensions      [1 -1 -2 0 0 0 0];

internalField   nonuniform List<scalar> 
125
(
-0.0103898
-0.0103603
-0.0103306
-0.0103008
-0.0102709
-0.0102409
-0.0102108
-0.0101806
-0.0101503
-0.0101199
-0.0100893
-0.0100586
-0.0100279
-0.00999696
-0.00996594
-0.00993482
-0.00990358
-0.00987222
-0.00984075
-0.00980916
-0.00977745
-0.00974562
-0.00971368
-0.00968162
-0.00964944
-0.00961714
-0.00958472
-0.00955218
-0.00951951
-0.00948673
-0.00945383
-0.0094208
-0.00938765
-0.00935438
-0.00932098
-0.00928746
-0.00925382
-0.00922005
-0.00918616
-0.00915214
-0.00911799
-0.00908372
-0.00904932
-0.00901479
-0.00898014
-0.00894535
-0.00891044
-0.0088754
-0.00884023
-0.00880492
-0.00876949
-0.00873392
-0.00869823
-0.0086624
-0.00862644
-0.00859034
-0.00855411
-0.00851775
-0.00848125
-0.00844461
-0.00840784
-0.00837094
-0.00833389
-0.00829671
-0.0082594
-0.00822194
-0.00818434
-0.00814661
-0.00810873
-0.00807072
-0.00803256
-0.00799427
-0.00795583
-0.00791725
-0.00787852
-0.00783965
-0.00780064
-0.00776148
-0.00772218
-0.00768274
-0.00764314
-0.0076034
-0.00756352
-0.00752348
-0.0074833
-0.00744297
-0.00740248
-0.00736185
-0.00732107
-0.00728014
-0.00723905
-0.00719782
-0.00715643
-0.00711489
-0.00707319
-0.00703134
-0.00698933
-0.00694717
-0.00690485
-0.00686238
-0.00681975
-0.00677696
-0.00673401
-0.00669091
-0.00664764
-0.00660422
-0.00656063
-0.00651688
-0.00647297
-0.0064289
-0.00638467
-0.00634027
-0.00629571
-0.00625098
-0.00620609
-0.00616103
-0.0061158
-0.00607041
-0.00602485
-0.00597912
-0.00593322
-0.00588715
-0.00584091
-0.0057945
-0.00574792
)
;

boundaryField
{
    BotWall
    {
        type            fixedFluxPressure;
        gradient        nonuniform 0();
        value           nonuniform 0();
    }
    FreeStream
    {
        type            totalPressure;
        rho             rho;
        psi             none;
        gamma           1;
        p0              nonuniform 0();
        value           nonuniform 0();
    }
    FrontNBack
    {
        type            empty;
    }
    LeftSide
    {
        type            symmetryPlane;
    }
    RightSide
    {
        type            symmetryPlane;
    }
    procBoundary3to0
    {
        type            processor;
        value           nonuniform List<scalar> 
50
(
-0.00787417
-0.0078348
-0.00779528
-0.00775563
-0.00771583
-0.00767588
-0.0076358
-0.00759556
-0.00755518
-0.00751466
-0.00747398
-0.00743316
-0.00739219
-0.00735107
-0.0073098
-0.00726838
-0.00722681
-0.00718509
-0.00714322
-0.0071012
-0.00705902
-0.00701669
-0.0069742
-0.00693156
-0.00688876
-0.00684581
-0.00680271
-0.00675944
-0.00671602
-0.00667244
-0.0066287
-0.0065848
-0.00654074
-0.00649652
-0.00645214
-0.0064076
-0.0063629
-0.00631803
-0.006273
-0.0062278
-0.00618244
-0.00613692
-0.00609123
-0.00604537
-0.00599934
-0.00595315
-0.00590679
-0.00586026
-0.00581356
-0.00576669
)
;
    }
    procBoundary3to1
    {
        type            processor;
        value           nonuniform List<scalar> 
75
(
-0.0104547
-0.0104246
-0.0103945
-0.0103643
-0.010334
-0.0103035
-0.010273
-0.0102423
-0.0102115
-0.0101807
-0.0101497
-0.0101185
-0.0100873
-0.010056
-0.0100245
-0.00999298
-0.0099613
-0.00992951
-0.00989761
-0.00986559
-0.00983345
-0.00980119
-0.00976882
-0.00973634
-0.00970373
-0.00967101
-0.00963817
-0.0096052
-0.00957212
-0.00953892
-0.0095056
-0.00947216
-0.0094386
-0.00940492
-0.00937111
-0.00933718
-0.00930313
-0.00926896
-0.00923466
-0.00920023
-0.00916569
-0.00913101
-0.00909622
-0.00906129
-0.00902624
-0.00899106
-0.00895575
-0.00892032
-0.00888476
-0.00884907
-0.00881324
-0.00877729
-0.00874121
-0.008705
-0.00866865
-0.00863218
-0.00859557
-0.00855883
-0.00852195
-0.00848495
-0.0084478
-0.00841053
-0.00837311
-0.00833556
-0.00829788
-0.00826006
-0.0082221
-0.008184
-0.00814576
-0.00810739
-0.00806888
-0.00803022
-0.00799142
-0.00795248
-0.0079134
)
;
    }
    procBoundary3to2
    {
        type            processor;
        value           uniform -0.00570116;
    }
    procBoundary3to4
    {
        type            processor;
        value           uniform -0.0104193;
    }
    procBoundary3to5
    {
        type            processor;
        value           nonuniform List<scalar> 
75
(
-0.0087541
-0.0087186
-0.00868297
-0.00864721
-0.00861132
-0.0085753
-0.00853914
-0.00850285
-0.00846643
-0.00842987
-0.00839317
-0.00835634
-0.00831938
-0.00828227
-0.00824503
-0.00820766
-0.00817014
-0.00813248
-0.00809469
-0.00805675
-0.00801868
-0.00798046
-0.00794211
-0.00790361
-0.00786497
-0.00782618
-0.00778725
-0.00774818
-0.00770896
-0.0076696
-0.0076301
-0.00759044
-0.00755064
-0.0075107
-0.0074706
-0.00743036
-0.00738996
-0.00734942
-0.00730873
-0.00726789
-0.0072269
-0.00718575
-0.00714446
-0.00710301
-0.0070614
-0.00701965
-0.00697774
-0.00693567
-0.00689345
-0.00685107
-0.00680854
-0.00676584
-0.00672299
-0.00667999
-0.00663682
-0.00659349
-0.00655001
-0.00650636
-0.00646255
-0.00641858
-0.00637445
-0.00633015
-0.00628569
-0.00624107
-0.00619628
-0.00615132
-0.0061062
-0.00606092
-0.00601546
-0.00596984
-0.00592405
-0.00587809
-0.00583196
-0.00578566
-0.00573919
)
;
    }
    procBoundary3to6
    {
        type            processor;
        value           nonuniform List<scalar> 
50
(
-0.0103711
-0.0103416
-0.010312
-0.0102823
-0.0102525
-0.0102225
-0.0101925
-0.0101623
-0.010132
-0.0101017
-0.0100712
-0.0100406
-0.0100098
-0.009979
-0.00994806
-0.00991699
-0.00988581
-0.00985452
-0.00982311
-0.00979158
-0.00975994
-0.00972817
-0.0096963
-0.0096643
-0.00963218
-0.00959995
-0.0095676
-0.00953512
-0.00950253
-0.00946982
-0.00943698
-0.00940402
-0.00937094
-0.00933774
-0.00930442
-0.00927097
-0.0092374
-0.0092037
-0.00916988
-0.00913594
-0.00910187
-0.00906767
-0.00903334
-0.00899889
-0.00896431
-0.00892961
-0.00889477
-0.0088598
-0.0088247
-0.00878947
)
;
    }
}


// ************************************************************************* //
