/*--------------------------------*- C++ -*----------------------------------*\
| =========                 |                                                 |
| \\      /  F ield         | OpenFOAM: The Open Source CFD Toolbox           |
|  \\    /   O peration     | Version:  2.4.0                                 |
|   \\  /    A nd           | Web:      www.OpenFOAM.org                      |
|    \\/     M anipulation  |                                                 |
\*---------------------------------------------------------------------------*/
FoamFile
{
    version     2.0;
    format      ascii;
    class       surfaceScalarField;
    location    "3.3";
    object      phi;
}
// * * * * * * * * * * * * * * * * * * * * * * * * * * * * * * * * * * * * * //

dimensions      [0 3 -1 0 0 0 0];

internalField   nonuniform List<scalar> 
220
(
3.06963e-16
-2.2948e-10
2.77075e-16
-2.29482e-10
-1.66578e-16
-2.29484e-10
-4.05925e-16
-2.29483e-10
-2.29479e-10
2.93454e-16
-2.2948e-10
2.65211e-16
-2.29482e-10
-1.58864e-16
-2.29484e-10
-3.87957e-16
-2.29483e-10
-2.2948e-10
2.79613e-16
-2.2948e-10
2.53345e-16
-2.29482e-10
-1.51167e-16
-2.29484e-10
-3.69634e-16
-2.29483e-10
-2.2948e-10
2.65786e-16
-2.29481e-10
2.41472e-16
-2.29482e-10
-1.43443e-16
-2.29483e-10
-3.51366e-16
-2.29482e-10
-2.29481e-10
2.52107e-16
-2.29481e-10
2.29679e-16
-2.29482e-10
-1.35746e-16
-2.29483e-10
-3.33336e-16
-2.29482e-10
-2.29481e-10
2.38569e-16
-2.29481e-10
2.1801e-16
-2.29482e-10
-1.2811e-16
-2.29482e-10
-3.15547e-16
-2.29482e-10
-2.29481e-10
2.25158e-16
-2.29481e-10
2.06475e-16
-2.29482e-10
-1.20546e-16
-2.29482e-10
-2.97983e-16
-2.29482e-10
-2.29482e-10
2.1188e-16
-2.29482e-10
1.9508e-16
-2.29482e-10
-1.13058e-16
-2.29482e-10
-2.80648e-16
-2.29482e-10
-2.29482e-10
1.98748e-16
-2.29482e-10
1.83832e-16
-2.29482e-10
-1.05651e-16
-2.29482e-10
-2.63559e-16
-2.29481e-10
-2.29482e-10
1.85779e-16
-2.29482e-10
1.7274e-16
-2.29482e-10
-9.83317e-17
-2.29481e-10
-2.4673e-16
-2.29481e-10
-2.29482e-10
1.72984e-16
-2.29482e-10
1.61814e-16
-2.29482e-10
-9.11086e-17
-2.29481e-10
-2.30175e-16
-2.29481e-10
-2.29483e-10
1.60377e-16
-2.29482e-10
1.51064e-16
-2.29482e-10
-8.39888e-17
-2.29481e-10
-2.13908e-16
-2.29481e-10
-2.29483e-10
1.47969e-16
-2.29483e-10
1.405e-16
-2.29482e-10
-7.69798e-17
-2.29481e-10
-1.97942e-16
-2.29481e-10
-2.29483e-10
1.35775e-16
-2.29483e-10
1.3013e-16
-2.29482e-10
-7.00892e-17
-2.2948e-10
-1.8229e-16
-2.29481e-10
-2.29483e-10
1.23805e-16
-2.29483e-10
1.19964e-16
-2.29482e-10
-6.33245e-17
-2.2948e-10
-1.66966e-16
-2.29481e-10
-2.29483e-10
1.12074e-16
-2.29483e-10
1.10013e-16
-2.29482e-10
-5.66932e-17
-2.2948e-10
-1.51983e-16
-2.29481e-10
-2.29483e-10
1.00594e-16
-2.29483e-10
1.00284e-16
-2.29482e-10
-5.02028e-17
-2.2948e-10
-1.37353e-16
-2.29481e-10
-2.29484e-10
8.93778e-17
-2.29483e-10
9.07878e-17
-2.29482e-10
-4.38607e-17
-2.2948e-10
-1.2309e-16
-2.2948e-10
-2.29484e-10
7.84373e-17
-2.29483e-10
8.15326e-17
-2.29482e-10
-3.76745e-17
-2.2948e-10
-1.09206e-16
-2.2948e-10
-2.29484e-10
6.7785e-17
-2.29483e-10
7.25275e-17
-2.29482e-10
-3.16514e-17
-2.29479e-10
-9.57136e-17
-2.2948e-10
-2.29484e-10
5.7433e-17
-2.29483e-10
6.37813e-17
-2.29482e-10
-2.57987e-17
-2.29479e-10
-8.26252e-17
-2.2948e-10
-2.29484e-10
4.73933e-17
-2.29483e-10
5.53022e-17
-2.29482e-10
-2.01236e-17
-2.29479e-10
-6.99528e-17
-2.2948e-10
-2.29484e-10
3.76772e-17
-2.29483e-10
4.70986e-17
-2.29482e-10
-1.46328e-17
-2.29479e-10
-5.77076e-17
-2.2948e-10
-2.29484e-10
2.82962e-17
-2.29483e-10
3.91782e-17
-2.29482e-10
-9.33326e-18
-2.29479e-10
-4.59055e-17
-2.2948e-10
-2.29484e-10
1.92611e-17
3.15486e-17
-4.23142e-18
-3.45511e-17
)
;

boundaryField
{
    BotWall
    {
        type            calculated;
        value           nonuniform 0();
    }
    FreeStream
    {
        type            calculated;
        value           nonuniform 0();
    }
    FrontNBack
    {
        type            empty;
        value           nonuniform 0();
    }
    LeftSide
    {
        type            symmetryPlane;
        value           uniform 0;
    }
    RightSide
    {
        type            symmetryPlane;
        value           uniform 0;
    }
    procBoundary1to0
    {
        type            processor;
        value           nonuniform List<scalar> 5(2.2948e-10 2.29482e-10 2.29485e-10 2.29483e-10 2.29479e-10);
    }
    procBoundary1to2
    {
        type            processor;
        value           nonuniform List<scalar> 5(-2.29483e-10 -2.29482e-10 -2.29479e-10 -2.2948e-10 -2.29484e-10);
    }
}


// ************************************************************************* //
