/*--------------------------------*- C++ -*----------------------------------*\
| =========                 |                                                 |
| \\      /  F ield         | OpenFOAM: The Open Source CFD Toolbox           |
|  \\    /   O peration     | Version:  2.4.0                                 |
|   \\  /    A nd           | Web:      www.OpenFOAM.org                      |
|    \\/     M anipulation  |                                                 |
\*---------------------------------------------------------------------------*/
FoamFile
{
    version     2.0;
    format      ascii;
    class       volScalarField;
    location    "0.001";
    object      p;
}
// * * * * * * * * * * * * * * * * * * * * * * * * * * * * * * * * * * * * * //

dimensions      [1 -1 -2 0 0 0 0];

internalField   nonuniform List<scalar> 
125
(
6.74158
-0.789466
-0.253174
-0.177767
-0.197735
-0.210975
-0.212884
-0.211877
-0.21116
-0.210862
-0.210668
-0.210462
-0.210238
-0.21001
-0.209782
-0.209554
-0.209325
-0.209095
-0.208864
-0.208632
-0.2084
-0.208166
-0.207932
-0.207696
-0.20746
-0.148777
-0.148325
-0.147871
-0.147416
-0.146959
-0.146501
-0.14604
-0.145578
-0.145115
-0.144649
-0.144182
-0.143713
-0.143243
-0.14277
-0.142296
-0.141821
-0.141343
-0.140864
-0.140383
-0.1399
-0.139415
-0.138929
-0.138441
-0.137951
-0.137459
-0.136965
-0.13647
-0.135972
-0.135473
-0.134972
-0.13447
-0.133965
-0.133459
-0.13295
-0.13244
-0.131928
-0.131414
-0.130898
-0.13038
-0.12986
-0.129339
-0.128815
-0.12829
-0.127762
-0.127233
-0.126702
-0.126169
-0.125633
-0.125096
-0.124557
-0.124016
-0.123473
-0.122928
-0.122381
-0.121831
-0.12128
-0.120727
-0.120172
-0.119615
-0.119055
-0.118494
-0.11793
-0.117365
-0.116797
-0.116228
-0.115656
-0.115082
-0.114506
-0.113928
-0.113347
-0.112765
-0.112181
-0.111594
-0.111005
-0.110414
-0.109821
-0.109225
-0.108628
-0.108028
-0.107426
-0.106822
-0.106216
-0.105607
-0.104996
-0.104383
-0.103768
-0.10315
-0.10253
-0.101908
-0.101283
-0.100657
-0.100028
-0.0993962
-0.0987625
-0.0981265
-0.0974881
-0.0968477
-0.0962052
-0.0955591
-0.0949046
)
;

boundaryField
{
    BotWall
    {
        type            calculated;
        value           uniform 6.74653;
    }
    FreeStream
    {
        type            calculated;
        value           uniform -0.0945748;
    }
    FrontNBack
    {
        type            empty;
    }
    LeftSide
    {
        type            symmetryPlane;
    }
    RightSide
    {
        type            symmetryPlane;
    }
    procBoundary7to4
    {
        type            processor;
        value           nonuniform List<scalar> 
50
(
6.67738
-0.789422
-0.253129
-0.177721
-0.197688
-0.210928
-0.212837
-0.21183
-0.211112
-0.210814
-0.210619
-0.210412
-0.210189
-0.20996
-0.209732
-0.209503
-0.209273
-0.209043
-0.208811
-0.208579
-0.208346
-0.208112
-0.207877
-0.207642
-0.207405
-0.109821
-0.109226
-0.108628
-0.108028
-0.107425
-0.106821
-0.106214
-0.105605
-0.104994
-0.104381
-0.103765
-0.103147
-0.102527
-0.101904
-0.10128
-0.100653
-0.100023
-0.0993915
-0.0987575
-0.0981211
-0.0974824
-0.0968417
-0.0961989
-0.0955525
-0.0948976
)
;
    }
    procBoundary7to5
    {
        type            processor;
        value           nonuniform List<scalar> 
75
(
-0.148809
-0.148356
-0.147902
-0.147446
-0.146989
-0.146529
-0.146068
-0.145606
-0.145142
-0.144676
-0.144208
-0.143739
-0.143268
-0.142795
-0.14232
-0.141844
-0.141366
-0.140886
-0.140404
-0.139921
-0.139436
-0.138949
-0.13846
-0.13797
-0.137478
-0.136984
-0.136488
-0.13599
-0.13549
-0.134989
-0.134486
-0.133981
-0.133474
-0.132965
-0.132454
-0.131942
-0.131427
-0.130911
-0.130393
-0.129873
-0.129351
-0.128827
-0.128301
-0.127773
-0.127244
-0.126712
-0.126179
-0.125643
-0.125105
-0.124566
-0.124024
-0.123481
-0.122936
-0.122388
-0.121839
-0.121287
-0.120734
-0.120178
-0.11962
-0.119061
-0.118499
-0.117935
-0.117369
-0.116802
-0.116232
-0.115659
-0.115085
-0.114509
-0.113931
-0.11335
-0.112767
-0.112182
-0.111595
-0.111006
-0.110415
)
;
    }
    procBoundary7to6
    {
        type            processor;
        value           uniform -0.207222;
    }
    procBoundary7to8
    {
        type            processor;
        value           uniform -0.149228;
    }
    procBoundary7to9
    {
        type            processor;
        value           nonuniform List<scalar> 
75
(
5.66844
-0.789089
-0.252801
-0.177395
-0.197365
-0.210608
-0.212519
-0.211515
-0.2108
-0.210504
-0.210312
-0.210107
-0.209886
-0.209661
-0.209434
-0.209208
-0.208981
-0.208753
-0.208524
-0.208294
-0.208064
-0.207832
-0.2076
-0.207367
-0.207133
-0.124042
-0.123498
-0.122952
-0.122404
-0.121854
-0.121303
-0.120749
-0.120193
-0.119635
-0.119075
-0.118513
-0.117949
-0.117382
-0.116814
-0.116244
-0.115671
-0.115097
-0.11452
-0.113941
-0.113361
-0.112778
-0.112192
-0.111605
-0.111016
-0.110424
-0.10983
-0.109234
-0.108636
-0.108036
-0.107433
-0.106828
-0.106221
-0.105612
-0.105001
-0.104387
-0.103771
-0.103153
-0.102532
-0.101909
-0.101284
-0.100657
-0.100027
-0.099395
-0.0987607
-0.098124
-0.097485
-0.0968439
-0.0962008
-0.0955541
-0.0948989
)
;
    }
    procBoundary7to10
    {
        type            processor;
        value           nonuniform List<scalar> 
50
(
-0.148849
-0.148396
-0.147941
-0.147485
-0.147027
-0.146567
-0.146105
-0.145642
-0.145178
-0.144711
-0.144243
-0.143773
-0.143302
-0.142828
-0.142353
-0.141877
-0.141398
-0.140918
-0.140436
-0.139952
-0.139466
-0.138979
-0.13849
-0.137999
-0.137506
-0.137012
-0.136515
-0.136017
-0.135517
-0.135016
-0.134512
-0.134006
-0.133499
-0.13299
-0.132479
-0.131966
-0.131451
-0.130934
-0.130416
-0.129895
-0.129373
-0.128848
-0.128322
-0.127794
-0.127264
-0.126732
-0.126198
-0.125662
-0.125124
-0.124584
)
;
    }
}


// ************************************************************************* //
