/*--------------------------------*- C++ -*----------------------------------*\
| =========                 |                                                 |
| \\      /  F ield         | OpenFOAM: The Open Source CFD Toolbox           |
|  \\    /   O peration     | Version:  2.4.0                                 |
|   \\  /    A nd           | Web:      www.OpenFOAM.org                      |
|    \\/     M anipulation  |                                                 |
\*---------------------------------------------------------------------------*/
FoamFile
{
    version     2.0;
    format      ascii;
    class       volScalarField;
    location    "0.001";
    object      T;
}
// * * * * * * * * * * * * * * * * * * * * * * * * * * * * * * * * * * * * * //

dimensions      [0 0 0 1 0 0 0];

internalField   nonuniform List<scalar> 
125
(
294.024
297.43
297.423
297.423
297.43
297.444
297.464
297.489
297.518
297.549
297.582
297.617
297.652
297.686
297.72
297.752
297.782
297.81
297.836
297.859
297.88
297.899
297.916
297.93
297.942
298
298
298
298
298
298
298
298
298
298
298
298
298
298
298
298
298
298
298
298
298
298
298
298
298
298
298
298
298
298
298
298
298
298
298
298
298
298
298
298
298
298
298
298
298
298
298
298
298
298
298
298
298
298
298
298
298
298
298
298
298
298
298
298
298
298
298
298
298
298
298
298
298
298
298
298
298
298
298
298
298
298
298
298
298
298
298
298
298
298
298
298
298
298
298
298
298
298
298
298
)
;

boundaryField
{
    BotWall
    {
        type            fixedValue;
        value           uniform 293;
    }
    FreeStream
    {
        type            fixedValue;
        value           uniform 298;
    }
    FrontNBack
    {
        type            empty;
    }
    LeftSide
    {
        type            symmetryPlane;
    }
    RightSide
    {
        type            symmetryPlane;
    }
    procBoundary7to4
    {
        type            processor;
        value           nonuniform List<scalar> 
50
(
294.024
297.43
297.423
297.423
297.43
297.444
297.464
297.489
297.518
297.549
297.582
297.617
297.652
297.686
297.72
297.752
297.782
297.81
297.836
297.859
297.88
297.899
297.916
297.93
297.942
298
298
298
298
298
298
298
298
298
298
298
298
298
298
298
298
298
298
298
298
298
298
298
298
298
)
;
    }
    procBoundary7to5
    {
        type            processor;
        value           uniform 298;
    }
    procBoundary7to6
    {
        type            processor;
        value           uniform 297.953;
    }
    procBoundary7to8
    {
        type            processor;
        value           uniform 298;
    }
    procBoundary7to9
    {
        type            processor;
        value           nonuniform List<scalar> 
75
(
294.024
297.43
297.423
297.423
297.43
297.444
297.464
297.489
297.518
297.549
297.582
297.617
297.652
297.686
297.72
297.752
297.782
297.81
297.836
297.859
297.88
297.899
297.916
297.93
297.942
298
298
298
298
298
298
298
298
298
298
298
298
298
298
298
298
298
298
298
298
298
298
298
298
298
298
298
298
298
298
298
298
298
298
298
298
298
298
298
298
298
298
298
298
298
298
298
298
298
298
)
;
    }
    procBoundary7to10
    {
        type            processor;
        value           uniform 298;
    }
}


// ************************************************************************* //
