/*--------------------------------*- C++ -*----------------------------------*\
| =========                 |                                                 |
| \\      /  F ield         | OpenFOAM: The Open Source CFD Toolbox           |
|  \\    /   O peration     | Version:  2.4.0                                 |
|   \\  /    A nd           | Web:      www.OpenFOAM.org                      |
|    \\/     M anipulation  |                                                 |
\*---------------------------------------------------------------------------*/
FoamFile
{
    version     2.0;
    format      ascii;
    class       volScalarField;
    location    "2.8";
    object      T;
}
// * * * * * * * * * * * * * * * * * * * * * * * * * * * * * * * * * * * * * //

dimensions      [0 0 0 1 0 0 0];

internalField   nonuniform List<scalar> 
125
(
293.121
293.122
293.122
293.122
293.121
293.366
293.366
293.366
293.366
293.366
293.613
293.613
293.613
293.613
293.613
293.863
293.863
293.863
293.863
293.863
294.116
294.116
294.116
294.116
294.116
294.371
294.371
294.371
294.371
294.371
294.63
294.63
294.63
294.63
294.63
294.891
294.891
294.891
294.891
294.891
295.156
295.156
295.156
295.156
295.156
295.423
295.423
295.423
295.423
295.423
295.694
295.694
295.694
295.694
295.694
295.968
295.968
295.968
295.968
295.968
296.245
296.245
296.245
296.245
296.245
296.525
296.525
296.525
296.525
296.525
296.809
296.809
296.809
296.809
296.809
297.096
297.096
297.096
297.096
297.096
297.387
297.387
297.387
297.387
297.387
297.681
297.681
297.681
297.681
297.681
297.994
297.994
297.994
297.994
297.994
297.994
297.994
297.994
297.994
297.994
297.994
297.994
297.994
297.994
297.994
297.994
297.994
297.994
297.994
297.994
297.994
297.994
297.994
297.994
297.994
297.994
297.994
297.994
297.994
297.994
297.994
297.994
297.994
297.994
297.994
)
;

boundaryField
{
    BotWall
    {
        type            fixedValue;
        value           uniform 293;
    }
    FreeStream
    {
        type            fixedValue;
        value           nonuniform 0();
    }
    FrontNBack
    {
        type            empty;
    }
    LeftSide
    {
        type            symmetryPlane;
    }
    RightSide
    {
        type            symmetryPlane;
    }
    procBoundary0to1
    {
        type            processor;
        value           nonuniform List<scalar> 5(297.994 297.994 297.994 297.994 297.994);
    }
}


// ************************************************************************* //
