/*--------------------------------*- C++ -*----------------------------------*\
| =========                 |                                                 |
| \\      /  F ield         | OpenFOAM: The Open Source CFD Toolbox           |
|  \\    /   O peration     | Version:  2.4.0                                 |
|   \\  /    A nd           | Web:      www.OpenFOAM.org                      |
|    \\/     M anipulation  |                                                 |
\*---------------------------------------------------------------------------*/
FoamFile
{
    version     2.0;
    format      ascii;
    class       volVectorField;
    location    "2.8";
    object      U;
}
// * * * * * * * * * * * * * * * * * * * * * * * * * * * * * * * * * * * * * //

dimensions      [0 1 -1 0 0 0 0];

internalField   nonuniform List<vector> 
125
(
(8.24452e-10 1.88008e-10 0)
(2.09149e-09 1.95821e-10 0)
(4.19644e-10 2.00962e-10 0)
(-2.21441e-09 1.97458e-10 0)
(-1.34723e-09 1.87266e-10 0)
(2.52567e-09 -5.41243e-10 0)
(6.34771e-09 -5.04473e-10 0)
(1.27214e-09 -4.47838e-10 0)
(-6.72869e-09 -4.85293e-10 0)
(-4.11929e-09 -5.50314e-10 0)
(4.28902e-09 7.37418e-10 0)
(1.0703e-08 8.93716e-10 0)
(2.14332e-09 1.05934e-09 0)
(-1.13563e-08 9.50656e-10 0)
(-6.98622e-09 7.10332e-10 0)
(6.1193e-09 -1.40138e-09 0)
(1.51641e-08 -1.14039e-09 0)
(3.03416e-09 -8.04542e-10 0)
(-1.6105e-08 -1.02438e-09 0)
(-9.95485e-09 -1.45684e-09 0)
(8.01552e-09 1.18332e-09 0)
(1.9732e-08 1.69693e-09 0)
(3.94521e-09 2.26377e-09 0)
(-2.09759e-08 1.89381e-09 0)
(-1.30254e-08 1.08881e-09 0)
(9.98456e-09 -2.68212e-09 0)
(2.44161e-08 -1.97967e-09 0)
(4.87822e-09 -1.11624e-09 0)
(-2.59794e-08 -1.67906e-09 0)
(-1.62074e-08 -2.82699e-09 0)
(1.20241e-08 5.58962e-10 0)
(2.92166e-08 1.65704e-09 0)
(5.83445e-09 2.88189e-09 0)
(-3.11168e-08 2.08494e-09 0)
(-1.95011e-08 3.51867e-10 0)
(1.41425e-08 -5.56924e-09 0)
(3.41443e-08 -4.18614e-09 0)
(6.81506e-09 -2.52748e-09 0)
(-3.63997e-08 -3.6056e-09 0)
(-2.29173e-08 -5.85115e-09 0)
(1.63368e-08 4.39624e-09 0)
(3.91986e-08 6.33847e-09 0)
(7.82134e-09 8.5032e-09 0)
(-4.18285e-08 7.0983e-09 0)
(-2.64553e-08 4.02594e-09 0)
(1.86165e-08 1.62879e-08 0)
(4.4392e-08 1.86382e-08 0)
(8.85461e-09 2.13943e-08 0)
(-4.74163e-08 1.96075e-08 0)
(-3.01271e-08 1.58139e-08 0)
(2.09783e-08 4.21044e-08 0)
(4.97237e-08 4.51661e-08 0)
(9.91621e-09 4.85959e-08 0)
(-5.31638e-08 4.63756e-08 0)
(-3.39323e-08 4.15107e-08 0)
(2.3432e-08 -8.31285e-08 0)
(5.52066e-08 -7.96916e-08 0)
(1.10076e-08 -7.55379e-08 0)
(-5.90852e-08 -7.8225e-08 0)
(-3.78839e-08 -8.38515e-08 0)
(2.59727e-08 -5.77179e-07 0)
(6.08383e-08 -5.73152e-07 0)
(1.21303e-08 -5.68349e-07 0)
(-6.51788e-08 -5.71457e-07 0)
(-4.19796e-08 -5.78021e-07 0)
(2.861e-08 -1.05962e-06 0)
(6.66299e-08 -1.0548e-06 0)
(1.32853e-08 -1.04939e-06 0)
(-7.14567e-08 -1.05289e-06 0)
(-4.62314e-08 -1.06058e-06 0)
(3.13495e-08 2.00694e-06 0)
(7.25898e-08 2.01551e-06 0)
(1.44739e-08 2.02262e-06 0)
(-7.79285e-08 2.01804e-06 0)
(-5.0648e-08 2.00569e-06 0)
(3.42342e-08 1.51611e-05 0)
(7.87814e-08 1.51766e-05 0)
(1.57047e-08 1.51894e-05 0)
(-8.46622e-08 1.51813e-05 0)
(-5.52857e-08 1.51589e-05 0)
(3.7283e-08 2.72196e-05 0)
(8.5225e-08 2.72378e-05 0)
(1.69734e-08 2.72617e-05 0)
(-9.1706e-08 2.72467e-05 0)
(-6.01878e-08 2.72154e-05 0)
(4.04208e-08 -5.37724e-05 0)
(9.2055e-08 -5.38002e-05 0)
(1.83728e-08 -5.38026e-05 0)
(-9.91552e-08 -5.38013e-05 0)
(-6.53335e-08 -5.37722e-05 0)
(4.30629e-08 -0.000396685 0)
(9.81636e-08 -0.000396753 0)
(1.96891e-08 -0.000396807 0)
(-1.05851e-07 -0.000396774 0)
(-6.98745e-08 -0.000396676 0)
(4.36354e-08 -0.000947772 0)
(9.91957e-08 -0.000947733 0)
(1.98656e-08 -0.00094772 0)
(-1.0696e-07 -0.000947728 0)
(-7.07001e-08 -0.000947775 0)
(4.34464e-08 -0.00218769 0)
(9.73859e-08 -0.00218763 0)
(1.92535e-08 -0.0021876 0)
(-1.04838e-07 -0.00218762 0)
(-6.95334e-08 -0.00218769 0)
(4.11548e-08 -0.00135613 0)
(9.278e-08 -0.00135618 0)
(1.83795e-08 -0.00135619 0)
(-9.98107e-08 -0.00135619 0)
(-6.58989e-08 -0.00135613 0)
(3.92413e-08 -0.00126018 0)
(8.86034e-08 -0.00126019 0)
(1.75282e-08 -0.0012602 0)
(-9.52247e-08 -0.0012602 0)
(-6.26827e-08 -0.00126017 0)
(3.76095e-08 -0.00127805 0)
(8.48022e-08 -0.00127805 0)
(1.67153e-08 -0.00127806 0)
(-9.1034e-08 -0.00127805 0)
(-5.9812e-08 -0.00127805 0)
(3.60351e-08 -0.0013015 0)
(8.11331e-08 -0.00130149 0)
(1.59336e-08 -0.0013015 0)
(-8.69913e-08 -0.0013015 0)
(-5.70511e-08 -0.0013015 0)
)
;

boundaryField
{
    BotWall
    {
        type            fixedValue;
        value           uniform (0 0 0);
    }
    FreeStream
    {
        type            zeroGradient;
    }
    FrontNBack
    {
        type            empty;
    }
    LeftSide
    {
        type            symmetryPlane;
    }
    RightSide
    {
        type            symmetryPlane;
    }
    procBoundary0to1
    {
        type            processor;
        value           nonuniform List<vector> 5((3.44552e-08 -0.0013064 0) (7.75152e-08 -0.0013064 0) (1.51759e-08 -0.0013064 0) (-8.30131e-08 -0.0013064 0) (-5.43271e-08 -0.0013064 0));
    }
}


// ************************************************************************* //
