/*--------------------------------*- C++ -*----------------------------------*\
| =========                 |                                                 |
| \\      /  F ield         | OpenFOAM: The Open Source CFD Toolbox           |
|  \\    /   O peration     | Version:  2.4.0                                 |
|   \\  /    A nd           | Web:      www.OpenFOAM.org                      |
|    \\/     M anipulation  |                                                 |
\*---------------------------------------------------------------------------*/
FoamFile
{
    version     2.0;
    format      ascii;
    class       volScalarField;
    location    "2.9";
    object      H;
}
// * * * * * * * * * * * * * * * * * * * * * * * * * * * * * * * * * * * * * //

dimensions      [0 2 -2 0 0 0 0];

internalField   nonuniform List<scalar> 
8000
(
-11851
-11098.8
-10363.2
-9653.32
-8976.4
-8338.13
-7742.45
-7191.7
-6686.77
-6227.19
-5811.44
-5437.1
-5101.02
-4799.55
-4528.7
-4284.27
-4062.02
-3857.73
-3667.33
-3486.94
-3312.99
-3142.19
-2971.68
-2798.98
-2622.11
-2439.54
-2250.3
-2053.95
-1850.59
-1640.89
-1426.05
-1207.82
-988.417
-770.865
-556.92
-355.602
-150.73
-1.54121
-0.425142
-0.498354
-0.528727
-0.467815
-0.38926
-0.31865
-0.258415
-0.206169
-0.161
-0.122775
-0.0940373
-0.0722083
-11882.7
-11193.6
-10519.5
-9868.56
-9247.15
-8660.01
-8110.32
-7599.8
-7128.86
-6696.78
-6301.89
-5941.72
-5613.21
-5312.83
-5036.78
-4781.04
-4541.56
-4314.33
-4095.45
-3881.27
-3668.41
-3453.87
-3235.09
-3010
-2777.08
-2535.41
-2284.71
-2025.35
-1758.35
-1485.4
-1208.79
-931.683
-656.62
-394.037
-115.618
-1.18575
-0.0242223
-0.00736193
-0.0102946
-0.0180263
-0.0224784
-0.0224104
-0.0196293
-0.0161854
-0.0119713
-0.00771298
-0.00350024
0.00067306
0.00470979
0.0085072
-11912.6
-11282.7
-10666.1
-10069.9
-9499.5
-8958.7
-8450
-7974.51
-7532.2
-7122.03
-6742.13
-6389.92
-6062.3
-5755.75
-5466.51
-5190.64
-4924.2
-4663.29
-4404.23
-4143.61
-3878.41
-3606.08
-3324.62
-3032.7
-2729.65
-2415.59
-2091.36
-1758.64
-1419.84
-1078.25
-737.216
-401.757
-54.4737
-0.594228
-0.0178865
-0.0238826
-0.0162209
-0.00972199
-0.0047204
-0.000661907
0.00262953
0.00573409
0.00871825
0.0116004
0.0143814
0.0170393
0.0195299
0.0218191
0.0238796
0.0256757
-11939.1
-11361.6
-10795.5
-10246.7
-9719.74
-9217.59
-8742.02
-8293.57
-7871.75
-7475.15
-7101.62
-6748.36
-6412.1
-6089.23
-5775.91
-5468.24
-5162.35
-4854.56
-4541.5
-4220.22
-3888.35
-3544.15
-3186.65
-2815.68
-2431.94
-2036.99
-1633.18
-1223.75
-813.048
-395.842
-3.92914
-0.0720531
-0.00706563
-0.0235067
-0.0195563
-0.0139917
-0.00830948
-0.00310447
0.00166278
0.00618062
0.0103568
0.0141634
0.0175949
0.0206419
0.0233078
0.0256023
0.0275319
0.0291025
0.0303204
0.0311928
-11961.4
-11427.6
-10903.1
-10392.8
-9900.2
-9427.4
-8975.46
-8544.33
-8132.97
-7739.54
-7361.49
-6995.7
-6638.67
-6286.62
-5935.66
-5581.98
-5221.96
-4852.34
-4470.37
-4073.98
-3661.91
-3233.82
-2790.3
-2332.89
-1863.8
-1385.97
-903.241
-412.845
-3.90637
-0.0773247
-0.00199968
-0.00903007
-0.00944771
-0.0083884
-0.00545809
-0.00196873
0.0021222
0.00631507
0.010296
0.0139267
0.0171373
0.0199161
0.022279
0.0242529
0.0258682
0.0271543
0.0281368
0.028836
0.0292675
0.029443
-11978.9
-11479.4
-10987
-10505.4
-10037.1
-9583.21
-9144.15
-8719.12
-8306.48
-7903.84
-7508.2
-7116.11
-6723.81
-6327.48
-5923.35
-5507.98
-5078.35
-4632.08
-4167.53
-3684.04
-3182.24
-2663.96
-2131.97
-1589
-1035.92
-477.406
-4.53477
-0.091825
-0.0614151
-0.0363191
-0.0230995
-0.0170501
-0.013329
-0.0104243
-0.00752912
-0.00451071
-0.00147414
0.00139938
0.00405562
0.00648204
0.00866722
0.0106184
0.0123545
0.0138984
0.0152701
0.0164837
0.0175455
0.0184541
0.0192019
0.0197767
-11991.6
-11516.7
-11046.6
-10583.5
-10128.9
-9682.9
-9245.01
-8813.69
-8386.61
-7960.83
-7532.91
-7099.16
-6655.79
-6199.19
-5726.14
-5233.99
-4721.11
-4186.9
-3631.6
-3056.75
-2465.29
-1861.65
-1249.01
-623.94
-5.82364
-0.117032
-0.166666
-0.121225
-0.092908
-0.0730345
-0.0594497
-0.0500859
-0.0436587
-0.0388975
-0.0354604
-0.032788
-0.0304344
-0.0281256
-0.0257875
-0.0233996
-0.0209513
-0.0184379
-0.0158624
-0.0132366
-0.0105826
-0.00793168
-0.00532257
-0.00279988
-0.000411147
0.00179609
-11999.6
-11539.5
-11081.6
-10626.6
-10174.6
-9724.75
-9275.58
-8824.73
-8369.25
-7905.75
-7430.58
-6940.12
-6431.05
-5900.55
-5346.62
-4768.23
-4165.54
-3539.95
-2894.04
-2231.93
-1560.14
-886.829
-198.11
-2.39326
-0.498809
-0.193905
-0.13992
-0.138132
-0.143256
-0.146497
-0.146869
-0.144671
-0.140715
-0.135442
-0.129205
-0.122319
-0.115011
-0.107439
-0.099718
-0.0919321
-0.0841479
-0.0764222
-0.0688078
-0.0613578
-0.0541256
-0.0471671
-0.0405392
-0.0342973
-0.0284931
-0.0231732
-12003.1
-11549
-11094.2
-10637.9
-10178.6
-9714.66
-9243.36
-8761.7
-8266.25
-7753.43
-7219.76
-6662.14
-6078.16
-5466.35
-4826.42
-4159.48
-3468.02
-2755.9
-2028
-1291.91
-567.423
-5.72877
-0.192629
-0.275314
-0.330362
-0.378815
-0.410325
-0.425415
-0.428449
-0.422055
-0.408404
-0.389432
-0.366823
-0.34201
-0.316167
-0.290205
-0.264786
-0.240352
-0.217164
-0.195349
-0.174946
-0.155937
-0.138281
-0.121931
-0.106836
-0.0929621
-0.0802802
-0.0687659
-0.0583949
-0.0491398
-12002.2
-11545.4
-11085
-10618.3
-10142.8
-9655.31
-9152.38
-8630.42
-8085.79
-7515.06
-6915.31
-6284.43
-5621.41
-4926.61
-4202
-3451.26
-2679.87
-1895.25
-1106.76
-314.725
-4.57877
-4.07985
-2.99136
-2.51223
-2.10232
-1.74787
-1.45262
-1.21486
-1.02768
-0.882025
-0.768585
-0.678983
-0.606369
-0.545559
-0.492883
-0.445901
-0.403083
-0.363529
-0.326739
-0.29245
-0.260539
-0.230943
-0.203622
-0.178537
-0.155646
-0.134891
-0.116205
-0.0995041
-0.0846927
-0.0716651
-11996.3
-11526.6
-11050
-10562.6
-10060
-9538.34
-8993.41
-8421.37
-7818.78
-7182.86
-6511.8
-5805.12
-5063.94
-4291.11
-3490.69
-2665.76
-1813.44
-922.021
-8.66679
-0.296955
-0.654047
-1.09028
-1.45034
-1.69168
-1.81712
-1.84389
-1.79573
-1.69682
-1.56805
-1.42556
-1.2807
-1.14078
-1.01005
-0.890587
-0.783017
-0.687091
-0.602055
-0.526919
-0.460614
-0.402106
-0.350466
-0.304849
-0.264534
-0.228908
-0.197453
-0.169728
-0.145354
-0.124002
-0.105378
-0.0892177
-11984.9
-11491.2
-10987.8
-10468.9
-9929.21
-9363.95
-8768.76
-8139.97
-7474.82
-6771.76
-6030.75
-5253.54
-4443.55
-3604.58
-2737.45
-1837.62
-910.898
-8.83811
-4.92738
-2.76205
-2.10143
-1.90778
-1.92719
-2.01234
-2.08278
-2.10511
-2.07307
-1.99357
-1.87842
-1.74007
-1.5895
-1.43547
-1.28443
-1.14072
-1.007
-0.884594
-0.773944
-0.674838
-0.586688
-0.50869
-0.439948
-0.379552
-0.326627
-0.280359
-0.240006
-0.2049
-0.174442
-0.1481
-0.125398
-0.105912
-11968.3
-11440.6
-10900.9
-10342.2
-9758.42
-9144.44
-8495.98
-7809.95
-7084.67
-6320.13
-5518.33
-4683.35
-3820.29
-2931.22
-2007.26
-1028.86
-9.75523
-7.45901
-4.8012
-3.98027
-3.52661
-3.29624
-3.18338
-3.10725
-3.01902
-2.89735
-2.73952
-2.55273
-2.3478
-2.13538
-1.92423
-1.72072
-1.52906
-1.35162
-1.1895
-1.0428
-0.911135
-0.793654
-0.689347
-0.597113
-0.51584
-0.444449
-0.381921
-0.327311
-0.279753
-0.23846
-0.20272
-0.17189
-0.145392
-0.122707
-11947.1
-11376.6
-10792.7
-10187.8
-9555.3
-8890.14
-8188.4
-7447.75
-6667.58
-5849.37
-4997.22
-4118.31
-3222.53
-2319.49
-1410
-467.951
-11.6917
-8.4672
-7.65675
-6.98699
-6.35808
-5.77362
-5.23292
-4.73341
-4.27222
-3.84677
-3.45495
-3.09495
-2.76517
-2.46404
-2.19
-1.94141
-1.71664
-1.51402
-1.3319
-1.16866
-1.02276
-0.892711
-0.7771
-0.674604
-0.583989
-0.504104
-0.433886
-0.372355
-0.31861
-0.271825
-0.231243
-0.196174
-0.165989
-0.140115
-11922
-11300.9
-10665.8
-10008.9
-9323.58
-8605.05
-7849.95
-7056.59
-6225.06
-5357.53
-4459.15
-3539.43
-2613.84
-1704.09
-835.511
-12.4144
-9.17398
-8.05773
-7.34332
-6.6943
-6.10119
-5.55689
-5.05608
-4.59446
-4.16853
-3.77539
-3.4126
-3.07809
-2.77003
-2.48679
-2.22687
-1.98886
-1.77145
-1.57336
-1.39336
-1.23028
-1.08296
-0.950315
-0.831257
-0.724759
-0.629829
-0.545515
-0.470908
-0.405143
-0.347402
-0.29691
-0.252944
-0.214823
-0.181917
-0.153641
-11892.9
-11213.8
-10520.7
-9805.8
-9063.21
-8288.55
-7479.23
-6634.18
-5753.51
-4838.41
-3891.73
-2920.47
-1940.53
-982.028
-10.6838
-8.64206
-7.28356
-6.80939
-6.35743
-5.92665
-5.51595
-5.12392
-4.7489
-4.38964
-4.04543
-3.71604
-3.40166
-3.10271
-2.81969
-2.55305
-2.30315
-2.07013
-1.85395
-1.65438
-1.47102
-1.30332
-1.15062
-1.01219
-0.887219
-0.774888
-0.674339
-0.584719
-0.505182
-0.434896
-0.373059
-0.318895
-0.271664
-0.230667
-0.195245
-0.164783
-11859.7
-11114.3
-10355.3
-9575.59
-8769.68
-7934.24
-7067.95
-6171.12
-5244.48
-4286.9
-3292.46
-2250.21
-1154.35
-10.9503
-9.93858
-7.55664
-7.02242
-6.51853
-6.07269
-5.69119
-5.36584
-5.08061
-4.8177
-4.56185
-4.30262
-4.03486
-3.75798
-3.47456
-3.189
-2.90626
-2.63109
-2.36746
-2.11837
-1.88583
-1.67098
-1.47422
-1.29539
-1.13392
-0.988958
-0.859491
-0.744403
-0.642545
-0.552769
-0.473961
-0.405052
-0.345035
-0.292967
-0.247974
-0.20925
-0.176057
-11819.2
-10992.6
-10152.6
-9292.26
-8407.18
-7495.22
-6556.7
-5593.97
-4610.67
-3611.42
-2605.95
-1625.64
-764.814
-34.8525
-23.3893
-19.9341
-17.0571
-14.6738
-12.7059
-11.0774
-9.72038
-8.5776
-7.60288
-6.76094
-6.02459
-5.3737
-4.79338
-4.27273
-3.8037
-3.38027
-2.99779
-2.6525
-2.34122
-2.06116
-1.80979
-1.58475
-1.38384
-1.20498
-1.0462
-0.905674
-0.78167
-0.672581
-0.576912
-0.49328
-0.42041
-0.357131
-0.30237
-0.25515
-0.214581
-0.179858
-11767.9
-10838.4
-9894.78
-8930.62
-7942.14
-6928.03
-5888.76
-4824.41
-3729.57
-2583.44
-1340.19
-12.4947
-1.3361
-2.77877
-4.37511
-5.61507
-6.48625
-6.99957
-7.20465
-7.16708
-6.95263
-6.61855
-6.21068
-5.76286
-5.30012
-4.83926
-4.39168
-3.96464
-3.56254
-3.18778
-2.84135
-2.52326
-2.23289
-1.96918
-1.7308
-1.51622
-1.32385
-1.15206
-0.999208
-0.863709
-0.744024
-0.638689
-0.546314
-0.465598
-0.395326
-0.334372
-0.2817
-0.236357
-0.197478
-0.164274
-11699
-10630.3
-9543.18
-8428.67
-7279.88
-6092.41
-4866.44
-3611.11
-2350
-1121.64
-14.3971
-2.44888
-2.9249
-3.41764
-3.86789
-4.23213
-4.50433
-4.684
-4.77533
-4.7859
-4.72572
-4.60558
-4.43669
-4.22964
-3.99445
-3.73998
-3.47407
-3.20339
-2.93355
-2.66913
-2.41375
-2.17016
-1.94036
-1.72568
-1.52689
-1.3443
-1.17783
-1.02709
-0.891489
-0.770229
-0.662416
-0.567078
-0.48321
-0.409802
-0.34586
-0.290429
-0.242599
-0.201518
-0.166397
-0.13651
-0.0546763
-0.0401581
-0.0279694
-0.0177237
-0.00912297
-0.00196745
0.00391748
0.00869499
0.0125109
0.0154898
0.0177361
0.0193369
0.0203665
0.0208891
0.0209626
0.0206397
0.0199698
0.0189999
0.0177751
0.0163388
0.0147329
0.0129976
0.0111708
0.00928815
0.00738248
0.0054835
0.00361757
0.00180748
7.23792e-05
-0.00157222
-0.00311435
-0.00454541
-0.00586
-0.00705597
-0.00813395
-0.00909698
-0.00995006
-0.0106998
-0.0113542
-0.0119219
-0.0124117
-0.0128321
-0.0131931
-0.0135043
-0.0137752
-0.0140141
-0.0142293
-0.0144281
-0.014617
-0.0148021
0.0120049
0.0151296
0.0178616
0.0201929
0.0221247
0.023663
0.0248159
0.0255934
0.0260076
0.0260732
0.0258076
0.0252311
0.0243674
0.0232429
0.0218865
0.0203294
0.0186043
0.016745
0.0147851
0.0127584
0.0106972
0.0086325
0.00659259
0.00460274
0.00268482
0.000857195
-0.000865413
-0.0024719
-0.00395468
-0.00530948
-0.00653517
-0.00763123
-0.00859876
-0.00944448
-0.0101765
-0.0108039
-0.0113366
-0.0117849
-0.0121592
-0.01247
-0.0127271
-0.0129404
-0.0131189
-0.013271
-0.0134045
-0.0135262
-0.0136426
-0.013759
-0.0138801
-0.0140103
0.0271823
0.0283868
0.0292815
0.0298628
0.0301309
0.0300897
0.0297472
0.0291152
0.0282096
0.0270502
0.0256602
0.0240658
0.0222958
0.0203805
0.0183515
0.0162406
0.0140789
0.0118967
0.00972214
0.00758115
0.00549872
0.00350274
0.00161022
-0.000165276
-0.00181356
-0.00332778
-0.0047042
-0.00594203
-0.00704306
-0.00801141
-0.00885312
-0.0095758
-0.0101883
-0.0107004
-0.0111225
-0.0114651
-0.0117389
-0.0119544
-0.0121215
-0.0122498
-0.0123481
-0.0124245
-0.0124864
-0.0125403
-0.0125919
-0.0126464
-0.0127079
-0.0127801
-0.0128659
-0.0129679
0.0317282
0.0319367
0.0318305
0.0314241
0.0307339
0.0297787
0.0285794
0.0271591
0.0255431
0.0237582
0.0218327
0.019796
0.0176777
0.0155074
0.0133142
0.0111258
0.00896821
0.00686531
0.00483838
0.00290585
0.00108308
-0.000617724
-0.00218761
-0.00362076
-0.00491438
-0.00606845
-0.00708546
-0.00797011
-0.00872894
-0.00937004
-0.00990261
-0.0103367
-0.0106829
-0.0109519
-0.0111545
-0.0113011
-0.0114016
-0.0114656
-0.0115018
-0.011518
-0.0115214
-0.0115184
-0.0115143
-0.011514
-0.0115214
-0.0115398
-0.0115719
-0.0116198
-0.0116851
-0.0117692
0.029371
0.0290588
0.0285132
0.0277422
0.0267556
0.0255657
0.0241877
0.0226399
0.0209434
0.0191218
0.0172008
0.0152074
0.0131691
0.0111136
0.00906766
0.00705657
0.00510365
0.00322963
0.00145237
-0.000213438
-0.00175639
-0.00316841
-0.00444463
-0.00558325
-0.00658527
-0.00745418
-0.00819562
-0.008817
-0.00932714
-0.00973585
-0.0100536
-0.0102913
-0.0104598
-0.0105698
-0.0106314
-0.0106545
-0.0106479
-0.0106199
-0.0105777
-0.0105278
-0.0104759
-0.0104267
-0.0103842
-0.0103517
-0.0103319
-0.0103267
-0.0103377
-0.0103661
-0.0104127
-0.0104778
0.0201639
0.0203493
0.0203208
0.0200701
0.019594
0.0188954
0.0179837
0.0168736
0.0155856
0.0141443
0.0125779
0.0109165
0.00919168
0.00743463
0.00567567
0.00394311
0.00226261
0.000656534
-0.000856345
-0.00226111
-0.00354674
-0.00470601
-0.00573529
-0.00663421
-0.00740534
-0.00805369
-0.00858632
-0.00901187
-0.0093401
-0.00958152
-0.00974697
-0.00984735
-0.00989327
-0.0098949
-0.00986174
-0.00980253
-0.00972514
-0.00963657
-0.00954287
-0.00944924
-0.00936001
-0.00927876
-0.00920831
-0.00915087
-0.00910809
-0.00908114
-0.00907078
-0.00907745
-0.00910134
-0.00914243
0.00377702
0.00549211
0.00690916
0.00800582
0.00876596
0.00919111
0.00929358
0.00909429
0.00862135
0.00790855
0.00699365
0.00591677
0.00471872
0.00343955
0.0021173
0.000786913
-0.000520494
-0.00177822
-0.00296425
-0.00406138
-0.00505707
-0.00594325
-0.00671587
-0.0073745
-0.00792177
-0.00836285
-0.00870488
-0.00895648
-0.00912724
-0.00922728
-0.00926689
-0.00925617
-0.00920485
-0.009122
-0.00901596
-0.00889421
-0.00876336
-0.00862908
-0.00849619
-0.00836867
-0.00824971
-0.00814183
-0.0080469
-0.00796627
-0.00790083
-0.00785111
-0.0078173
-0.00779939
-0.00779717
-0.00781031
-0.0183742
-0.0141235
-0.0104596
-0.00737846
-0.00486477
-0.00289252
-0.00142627
-0.000422702
0.000167443
0.000397437
0.000322587
-1.61385e-06
-0.000521147
-0.00118488
-0.00194572
-0.00276145
-0.00359528
-0.00441617
-0.00519889
-0.00592381
-0.00657663
-0.00714792
-0.00763256
-0.00802915
-0.00833937
-0.00856739
-0.00871927
-0.00880241
-0.00882503
-0.0087958
-0.00872345
-0.00861646
-0.00848288
-0.00833012
-0.00816489
-0.00799307
-0.00781977
-0.00764926
-0.00748507
-0.00732999
-0.0071862
-0.00705526
-0.00693827
-0.0068359
-0.00674846
-0.006676
-0.00661834
-0.00657515
-0.00654597
-0.00653029
-0.0409673
-0.0338364
-0.0276975
-0.0224923
-0.018155
-0.0146134
-0.0117907
-0.00960739
-0.00798322
-0.0068389
-0.00609775
-0.00568712
-0.00553954
-0.00559358
-0.00579444
-0.00609429
-0.00645231
-0.00683465
-0.007214
-0.00756926
-0.00788489
-0.00815033
-0.00835929
-0.00850913
-0.00860011
-0.00863485
-0.00861765
-0.00855406
-0.00845036
-0.00831321
-0.00814929
-0.00796511
-0.00776677
-0.00755984
-0.0073493
-0.00713944
-0.00693392
-0.00673571
-0.00654721
-0.00637022
-0.00620605
-0.00605557
-0.00591926
-0.00579732
-0.00568966
-0.00559602
-0.00551599
-0.00544904
-0.00539459
-0.00535202
-0.0603068
-0.0504967
-0.0421091
-0.0350162
-0.0290898
-0.0242033
-0.0202335
-0.0170622
-0.0145771
-0.0126736
-0.011255
-0.0102333
-0.00952964
-0.00907425
-0.0088065
-0.0086745
-0.00863473
-0.00865147
-0.00869614
-0.00874659
-0.00878631
-0.00880375
-0.00879148
-0.00874552
-0.00866465
-0.0085498
-0.0084035
-0.0082294
-0.00803185
-0.00781557
-0.00758535
-0.00734587
-0.00710152
-0.00685629
-0.0066137
-0.00637675
-0.00614796
-0.00592931
-0.00572233
-0.00552813
-0.00534741
-0.00518057
-0.00502772
-0.00488873
-0.0047633
-0.00465099
-0.00455126
-0.0044635
-0.00438707
-0.0043213
-0.0752785
-0.0633353
-0.0531777
-0.0446083
-0.037442
-0.0315056
-0.0266381
-0.0226908
-0.0195274
-0.0170239
-0.0150692
-0.013564
-0.0124214
-0.0115656
-0.0109316
-0.0104646
-0.0101189
-0.00985718
-0.00964962
-0.0094729
-0.00930944
-0.00914646
-0.00897525
-0.00879043
-0.00858924
-0.00837102
-0.00813663
-0.00788804
-0.00762792
-0.00735939
-0.0070857
-0.00681011
-0.00653567
-0.0062652
-0.00600116
-0.00574564
-0.00550038
-0.00526669
-0.00504558
-0.0048377
-0.00464341
-0.00446283
-0.00429587
-0.00414225
-0.00400158
-0.00387334
-0.00375694
-0.00365177
-0.00355716
-0.00347246
-0.0892615
-0.0751048
-0.0631348
-0.0530743
-0.0446732
-0.0377063
-0.0319708
-0.0272852
-0.0234873
-0.0204335
-0.017997
-0.0160671
-0.0145478
-0.0133566
-0.0124235
-0.0116896
-0.0111062
-0.0106333
-0.0102389
-0.0098978
-0.00959058
-0.00930272
-0.00902383
-0.00874685
-0.00846739
-0.00818318
-0.00789354
-0.00759894
-0.00730069
-0.00700059
-0.00670072
-0.00640326
-0.00611035
-0.00582398
-0.00554592
-0.00527768
-0.00502051
-0.00477537
-0.00454295
-0.00432368
-0.00411777
-0.00392524
-0.00374591
-0.00357948
-0.00342555
-0.0032836
-0.00315307
-0.00303336
-0.00292383
-0.00282385
-0.103369
-0.0869593
-0.0731016
-0.0614595
-0.0517322
-0.0436508
-0.0369764
-0.031497
-0.0270259
-0.0233987
-0.0204723
-0.0181226
-0.0162427
-0.0147414
-0.0135415
-0.0125782
-0.0117979
-0.0111567
-0.0106191
-0.0101566
-0.00974725
-0.00937405
-0.0090244
-0.00868923
-0.00836232
-0.00803971
-0.0077192
-0.00739989
-0.00708185
-0.00676582
-0.00645293
-0.00614457
-0.0058422
-0.00554724
-0.00526103
-0.00498475
-0.00471937
-0.00446568
-0.00422424
-0.00399543
-0.00377944
-0.0035763
-0.00338586
-0.00320789
-0.00304202
-0.00288782
-0.0027448
-0.00261241
-0.00249009
-0.00237725
-0.118034
-0.0992746
-0.0834141
-0.0700704
-0.0589013
-0.0496015
-0.0418993
-0.0355544
-0.0303551
-0.0261164
-0.0226769
-0.0198974
-0.0176582
-0.0158572
-0.0144083
-0.0132391
-0.0122895
-0.0115099
-0.0108601
-0.0103078
-0.00982733
-0.00939872
-0.00900668
-0.00863979
-0.0082898
-0.00795096
-0.00761952
-0.00729324
-0.00697107
-0.00665276
-0.00633867
-0.00602953
-0.00572628
-0.00542998
-0.00514167
-0.00486232
-0.00459282
-0.00433389
-0.00408611
-0.00384991
-0.00362555
-0.00341316
-0.00321272
-0.00302412
-0.00284712
-0.00268141
-0.00252663
-0.00238232
-0.00224803
-0.00212325
-0.129457
-0.108871
-0.0914333
-0.0767354
-0.0644096
-0.054126
-0.0455904
-0.0385422
-0.0327517
-0.0280179
-0.0241656
-0.0210436
-0.018522
-0.0164899
-0.0148536
-0.0135341
-0.0124657
-0.0115941
-0.0108748
-0.0102719
-0.0097565
-0.00930582
-0.00890212
-0.00853183
-0.00818479
-0.0078536
-0.00753307
-0.00721975
-0.00691155
-0.00660737
-0.00630688
-0.00601025
-0.00571803
-0.00543096
-0.0051499
-0.00487572
-0.00460929
-0.00435135
-0.00410259
-0.00386355
-0.00363465
-0.00341619
-0.00320835
-0.0030112
-0.0028247
-0.00264873
-0.00248309
-0.0023275
-0.00218165
-0.00204519
-0.13871
-0.1165
-0.097674
-0.0817939
-0.0684655
-0.0573349
-0.0480869
-0.040442
-0.0341544
-0.0290089
-0.0248185
-0.0214216
-0.0186792
-0.016473
-0.0147025
-0.0132831
-0.012144
-0.0112265
-0.0104821
-0.00987128
-0.009362
-0.00892864
-0.00855092
-0.00821305
-0.00790291
-0.00761141
-0.00733191
-0.00705973
-0.00679175
-0.00652603
-0.0062616
-0.00599813
-0.00573583
-0.00547523
-0.00521707
-0.00496223
-0.00471164
-0.00446616
-0.00422664
-0.0039938
-0.0037683
-0.00355067
-0.00334133
-0.00314063
-0.00294877
-0.00276589
-0.00259203
-0.00242715
-0.00227117
-0.00212392
-0.147723
-0.12364
-0.103258
-0.0860859
-0.071684
-0.0596621
-0.0496755
-0.0414206
-0.034632
-0.0290782
-0.0245589
-0.0209009
-0.0179561
-0.0155975
-0.0137179
-0.0122262
-0.0110464
-0.0101148
-0.00937878
-0.00879497
-0.00832796
-0.00794909
-0.0076354
-0.00736866
-0.00713461
-0.00692226
-0.0067233
-0.00653159
-0.00634276
-0.00615382
-0.00596289
-0.00576893
-0.00557155
-0.00537085
-0.00516726
-0.00496145
-0.00475425
-0.00454657
-0.0043394
-0.0041337
-0.0039304
-0.00373038
-0.00353442
-0.00334323
-0.00315743
-0.00297753
-0.00280397
-0.00263707
-0.00247706
-0.00232406
-0.150256
-0.125122
-0.10387
-0.0859804
-0.0709891
-0.0584867
-0.048112
-0.0395485
-0.0325193
-0.0267837
-0.0221333
-0.0183882
-0.0153942
-0.0130195
-0.0111519
-0.00969673
-0.00857408
-0.00771718
-0.00707042
-0.00658782
-0.00623158
-0.00597088
-0.00578079
-0.00564132
-0.0055366
-0.00545421
-0.00538457
-0.00532043
-0.00525642
-0.00518871
-0.0051147
-0.00503275
-0.004942
-0.00484213
-0.00473331
-0.004616
-0.00449091
-0.00435889
-0.00422089
-0.00407792
-0.00393099
-0.00378109
-0.00362919
-0.00347619
-0.00332295
-0.00317025
-0.00301879
-0.00286924
-0.00272218
-0.00257817
-0.136035
-0.112122
-0.0919631
-0.0750482
-0.0609258
-0.0491967
-0.0395102
-0.0315592
-0.0250761
-0.0198287
-0.0156162
-0.0122662
-0.00963064
-0.00758349
-0.00601769
-0.00484277
-0.00398263
-0.00337359
-0.00296264
-0.00270585
-0.0025671
-0.00251682
-0.00253101
-0.00259032
-0.0026793
-0.00278576
-0.00290019
-0.00301527
-0.00312551
-0.00322689
-0.00331658
-0.00339268
-0.00345408
-0.00350025
-0.00353111
-0.00354695
-0.00354831
-0.00353594
-0.00351072
-0.0034736
-0.00342561
-0.00336778
-0.00330116
-0.00322677
-0.0031456
-0.00305863
-0.00296676
-0.00287087
-0.00277175
-0.00267018
-0.111198
-0.0898636
-0.0719727
-0.0570489
-0.0446701
-0.0344649
-0.0261074
-0.0193139
-0.013838
-0.00946702
-0.00601808
-0.00333456
-0.00128298
0.000249983
0.00136012
0.00212806
0.0026214
0.00289654
0.00300034
0.00297155
0.00284204
0.00263791
0.00238037
0.00208659
0.00177033
0.00144255
0.00111187
0.000784999
0.000467091
0.000162006
-0.000127431
-0.000399239
-0.000652108
-0.00088527
-0.00109839
-0.00129145
-0.00146472
-0.00161866
-0.00175389
-0.00187112
-0.00197117
-0.00205491
-0.00212323
-0.00217706
-0.00221733
-0.00224497
-0.00226089
-0.00226599
-0.00226116
-0.00224725
-0.0149466
-0.0150492
-0.0151545
-0.0152632
-0.015376
-0.0154933
-0.0156159
-0.0157444
-0.0158791
-0.0160208
-0.0161698
-0.0163266
-0.0164917
-0.0166655
-0.0168485
-0.0170409
-0.0172433
-0.0174559
-0.0176791
-0.0179133
-0.0181588
-0.0184159
-0.018685
-0.0189663
-0.0192602
-0.019567
-0.0198871
-0.0202207
-0.0205682
-0.0209299
-0.0213062
-0.0216974
-0.0221039
-0.0225261
-0.0229644
-0.0234191
-0.0238906
-0.0243795
-0.0248862
-0.0254111
-0.0259547
-0.0265175
-0.0271001
-0.0277029
-0.0283266
-0.0289716
-0.0296387
-0.0303284
-0.0310413
-0.0317782
-0.0325396
-0.0333264
-0.0341392
-0.0349787
-0.0358457
-0.0367411
-0.0376655
-0.0386199
-0.039605
-0.0406218
-0.0416711
-0.0427538
-0.0438708
-0.0450231
-0.0462117
-0.0474374
-0.0487013
-0.0500044
-0.0513477
-0.0527322
-0.054159
-0.0556291
-0.0571436
-0.0587035
-0.0603099
-0.0619638
-0.0636663
-0.0654186
-0.0672216
-0.0690763
-0.0709839
-0.0729454
-0.0749617
-0.0770339
-0.0791628
-0.0813495
-0.0835948
-0.0858995
-0.0882646
-0.0906907
-0.0931786
-0.0957289
-0.0983422
-0.101019
-0.10376
-0.106565
-0.109436
-0.112371
-0.115371
-0.118436
-0.121567
-0.124762
-0.128023
-0.131347
-0.134736
-0.138188
-0.141703
-0.145279
-0.148917
-0.152615
-0.156372
-0.160186
-0.164057
-0.167983
-0.171963
-0.175993
-0.180074
-0.184203
-0.188378
-0.192598
-0.196859
-0.20116
-0.205497
-0.209868
-0.21427
-0.2187
-0.223151
-0.227619
-0.232105
-0.236602
-0.241107
-0.245613
-0.250115
-0.254608
-0.25909
-0.263556
-0.268009
-0.272446
-0.27684
-0.281193
-0.28549
-0.289755
-0.293969
-0.298124
-0.30222
-0.306254
-0.310211
-0.31403
-0.317784
-0.321444
-0.324965
-0.328352
-0.33161
-0.334733
-0.337724
-0.340498
-0.343033
-0.345358
-0.347505
-0.349417
-0.351098
-0.352539
-0.353702
-0.354584
-0.35511
-0.355299
-0.355121
-0.354526
-0.353605
-0.352335
-0.350697
-0.348618
-0.346121
-0.343203
-0.339843
-0.336102
-0.332032
-0.327547
-0.322681
-0.317432
-0.311963
-0.306252
-0.300322
-0.29421
-0.288052
-0.281893
-0.275901
-0.27021
-0.265089
-0.260796
-0.257674
-0.256059
-0.256174
-0.258295
-0.26269
-0.269653
-0.279433
-0.292196
-0.308082
-0.327112
-0.349257
-0.374449
-0.402586
-0.433569
-0.467305
-0.503693
-0.542639
-0.584073
-0.62802
-0.674689
-0.724267
-0.777043
-0.832726
-0.890072
-0.947797
-1.00459
-1.05937
-1.11124
-1.15979
-1.20472
-1.24594
-1.28345
-1.31736
-1.34778
-1.37501
-1.39938
-1.42109
-1.44075
-1.45824
-1.47375
-1.48752
-1.4998
-1.51065
-1.52015
-1.52838
-1.53539
-1.54123
-1.54593
-1.54958
-1.55221
-1.55343
-1.55367
-1.55265
-1.55073
-1.5481
-1.54449
-1.53972
-1.53369
-1.52636
-1.51769
-1.50768
-1.49642
-1.48416
-1.47083
-1.45677
-1.44219
-1.42718
-1.41186
-1.39639
-1.38091
-1.36557
-1.35055
-1.336
-1.3221
-1.30903
-1.29698
-1.28612
-1.27663
-1.26869
-1.26245
-1.25805
-1.2556
-1.2552
-1.25691
-1.26075
-1.26674
-1.27487
-1.28507
-1.29726
-1.31131
-1.32706
-1.3444
-1.36297
-1.38263
-1.40321
-1.42441
-1.44594
-1.46743
-1.48851
-1.5087
-1.52735
-1.54373
-1.55629
-1.56216
-1.55544
-1.52563
-1.45403
-1.30622
-1.01939
-0.48374
-0.0141218
-0.0142041
-0.0142916
-0.0143847
-0.014484
-0.0145898
-0.0147026
-0.0148226
-0.0149504
-0.0150861
-0.0152302
-0.0153829
-0.0155445
-0.0157154
-0.0158957
-0.0160857
-0.0162857
-0.016496
-0.0167167
-0.0169482
-0.0171906
-0.0174441
-0.0177092
-0.0179858
-0.0182745
-0.0185753
-0.0188885
-0.0192145
-0.0195535
-0.0199057
-0.0202716
-0.0206514
-0.0210454
-0.0214541
-0.0218777
-0.0223166
-0.0227713
-0.0232421
-0.0237294
-0.0242338
-0.0247556
-0.0252953
-0.0258534
-0.0264305
-0.027027
-0.0276435
-0.0282807
-0.0289389
-0.029619
-0.0303214
-0.0310469
-0.0317961
-0.0325696
-0.0333682
-0.0341927
-0.0350436
-0.0359219
-0.0368282
-0.0377634
-0.0387283
-0.0397237
-0.0407505
-0.0418095
-0.0429016
-0.0440277
-0.0451887
-0.0463856
-0.0476193
-0.0488908
-0.0502009
-0.0515508
-0.0529414
-0.0543736
-0.0558485
-0.0573672
-0.0589305
-0.0605396
-0.0621954
-0.063899
-0.0656513
-0.0674534
-0.0693062
-0.0712108
-0.0731681
-0.075179
-0.0772446
-0.0793656
-0.0815429
-0.0837775
-0.0860701
-0.0884216
-0.0908326
-0.0933039
-0.0958361
-0.0984298
-0.101086
-0.103804
-0.106586
-0.109431
-0.11234
-0.115313
-0.11835
-0.121452
-0.124619
-0.12785
-0.131145
-0.134505
-0.137929
-0.141417
-0.144968
-0.148581
-0.152257
-0.155994
-0.159792
-0.163648
-0.167563
-0.171536
-0.175564
-0.179646
-0.183781
-0.187967
-0.192201
-0.196481
-0.200804
-0.205166
-0.209566
-0.214
-0.218464
-0.222957
-0.227475
-0.23201
-0.236557
-0.241119
-0.24569
-0.250266
-0.25485
-0.259443
-0.264024
-0.268588
-0.273134
-0.277674
-0.28219
-0.286677
-0.291128
-0.295543
-0.299917
-0.304246
-0.308522
-0.312715
-0.316828
-0.320835
-0.324768
-0.328601
-0.332325
-0.335921
-0.339322
-0.342522
-0.34559
-0.348472
-0.35116
-0.353668
-0.355965
-0.357932
-0.359653
-0.360992
-0.362098
-0.362956
-0.363505
-0.363726
-0.363618
-0.363201
-0.362434
-0.361349
-0.359867
-0.35795
-0.35564
-0.352914
-0.349703
-0.346215
-0.342356
-0.338115
-0.333451
-0.328404
-0.323013
-0.317308
-0.31137
-0.305249
-0.299089
-0.292934
-0.287012
-0.281477
-0.276556
-0.27265
-0.270045
-0.269008
-0.26977
-0.2725
-0.277371
-0.284576
-0.294261
-0.306582
-0.32165
-0.339566
-0.360475
-0.384493
-0.411679
-0.442103
-0.475843
-0.512984
-0.553598
-0.59768
-0.645097
-0.695419
-0.747803
-0.801285
-0.854916
-0.90783
-0.959334
-1.0089
-1.05611
-1.10068
-1.14244
-1.18135
-1.21747
-1.25075
-1.28116
-1.30919
-1.3351
-1.35895
-1.38108
-1.4015
-1.42035
-1.43763
-1.45346
-1.46785
-1.48091
-1.49264
-1.50299
-1.51193
-1.51957
-1.52586
-1.53087
-1.5345
-1.53697
-1.53833
-1.53849
-1.53745
-1.53517
-1.53165
-1.5269
-1.521
-1.51405
-1.50595
-1.49691
-1.48713
-1.47682
-1.46598
-1.4547
-1.44307
-1.43121
-1.41922
-1.40721
-1.39532
-1.38367
-1.3724
-1.36164
-1.35156
-1.34227
-1.33393
-1.32666
-1.32057
-1.31577
-1.31234
-1.31032
-1.30978
-1.31072
-1.31315
-1.31704
-1.32235
-1.32898
-1.33684
-1.34586
-1.35585
-1.36665
-1.37817
-1.39021
-1.40256
-1.41497
-1.42716
-1.43877
-1.4493
-1.45795
-1.46328
-1.46265
-1.45102
-1.41914
-1.34998
-1.21198
-0.946858
-0.451007
-0.0130627
-0.0131347
-0.013213
-0.0132979
-0.0133897
-0.0134887
-0.013595
-0.0137089
-0.0138307
-0.0139605
-0.0140985
-0.014245
-0.0144
-0.0145638
-0.0147366
-0.0149184
-0.0151096
-0.0153102
-0.0155203
-0.0157403
-0.0159703
-0.0162104
-0.0164608
-0.0167218
-0.0169935
-0.0172761
-0.01757
-0.0178752
-0.0181922
-0.018521
-0.0188621
-0.0192157
-0.019582
-0.0199615
-0.0203544
-0.0207611
-0.0211819
-0.0216173
-0.0220675
-0.0225331
-0.0230144
-0.0235118
-0.0240259
-0.0245571
-0.0251059
-0.0256728
-0.0262583
-0.0268629
-0.0274873
-0.0281319
-0.0287974
-0.0294844
-0.0301935
-0.0309254
-0.0316807
-0.0324601
-0.0332643
-0.034094
-0.0349499
-0.0358328
-0.0367435
-0.0376828
-0.0386513
-0.0396501
-0.0406798
-0.0417413
-0.0428356
-0.0439634
-0.0451257
-0.0463233
-0.0475573
-0.0488284
-0.0501377
-0.051486
-0.0528744
-0.0543039
-0.0557752
-0.0572896
-0.0588478
-0.0604509
-0.0620999
-0.0637958
-0.0655395
-0.067332
-0.0691742
-0.0710672
-0.0730118
-0.075009
-0.0770597
-0.0791649
-0.0813254
-0.0835421
-0.0858158
-0.0881474
-0.0905377
-0.0929875
-0.0954976
-0.0980686
-0.100701
-0.103396
-0.106154
-0.108976
-0.111861
-0.114811
-0.117826
-0.120907
-0.124053
-0.127266
-0.130544
-0.133889
-0.1373
-0.140777
-0.14432
-0.147928
-0.151601
-0.155338
-0.159139
-0.163002
-0.166926
-0.170911
-0.174954
-0.179054
-0.183208
-0.187414
-0.191671
-0.195976
-0.200326
-0.204719
-0.209155
-0.213629
-0.218135
-0.222671
-0.227241
-0.231837
-0.236457
-0.241104
-0.245775
-0.250444
-0.255124
-0.259818
-0.264513
-0.269203
-0.273888
-0.278561
-0.283222
-0.287857
-0.292461
-0.297015
-0.301533
-0.306002
-0.310421
-0.314803
-0.319085
-0.323251
-0.327257
-0.331156
-0.334928
-0.338537
-0.341979
-0.345246
-0.348339
-0.351227
-0.353738
-0.356133
-0.358265
-0.360141
-0.361775
-0.363144
-0.364245
-0.365128
-0.365793
-0.366006
-0.365877
-0.365416
-0.364516
-0.363195
-0.361664
-0.359758
-0.357547
-0.354892
-0.351811
-0.348321
-0.344374
-0.340158
-0.335623
-0.33078
-0.32574
-0.320559
-0.315236
-0.30997
-0.304785
-0.29983
-0.295139
-0.291013
-0.287666
-0.285317
-0.284149
-0.284486
-0.286447
-0.290218
-0.296014
-0.304029
-0.314436
-0.327475
-0.343279
-0.36195
-0.383593
-0.40831
-0.436154
-0.467083
-0.500982
-0.537655
-0.576771
-0.617868
-0.6604
-0.703801
-0.747528
-0.791056
-0.833942
-0.875827
-0.916453
-0.95566
-0.993397
-1.02953
-1.06385
-1.09633
-1.12751
-1.15735
-1.18602
-1.21354
-1.24002
-1.26527
-1.28922
-1.31202
-1.33376
-1.3543
-1.37367
-1.39182
-1.40868
-1.42426
-1.43817
-1.4503
-1.4607
-1.46931
-1.47626
-1.48168
-1.48566