/*--------------------------------*- C++ -*----------------------------------*\
| =========                 |                                                 |
| \\      /  F ield         | OpenFOAM: The Open Source CFD Toolbox           |
|  \\    /   O peration     | Version:  2.4.0                                 |
|   \\  /    A nd           | Web:      www.OpenFOAM.org                      |
|    \\/     M anipulation  |                                                 |
\*---------------------------------------------------------------------------*/
FoamFile
{
    version     2.0;
    format      ascii;
    class       volScalarField;
    location    "0.9";
    object      p_rgh;
}
// * * * * * * * * * * * * * * * * * * * * * * * * * * * * * * * * * * * * * //

dimensions      [1 -1 -2 0 0 0 0];

internalField   nonuniform List<scalar> 
8000
(
1.3138
1.30211
1.29186
1.28388
1.27726
1.27153
1.26653
1.26218
1.25842
1.25517
1.25235
1.24992
1.24781
1.24597
1.24438
1.24299
1.24176
1.24068
1.23972
1.23885
1.23806
1.23734
1.23666
1.23603
1.23542
1.23484
1.23427
1.23373
1.23321
1.23273
1.23224
1.23168
1.23104
1.23126
1.23479
1.24126
1.22805
1.13297
0.965573
0.752615
0.0558411
0.00208713
0.000162507
5.31135e-05
4.76591e-05
4.19079e-05
3.90519e-05
3.82926e-05
3.81556e-05
3.80878e-05
1.93416
1.92721
1.91858
1.9105
1.9033
1.89682
1.89093
1.88558
1.88075
1.8764
1.87252
1.8691
1.8661
1.86352
1.86134
1.85956
1.85815
1.85713
1.85647
1.85618
1.85625
1.85669
1.85748
1.85865
1.86017
1.86208
1.86435
1.86702
1.87008
1.87355
1.87739
1.88158
1.88621
1.89215
1.90096
1.90995
1.89779
1.82608
1.6597
0.713955
0.0378079
0.00201618
8.05375e-05
-3.44972e-05
-4.32302e-05
-4.86427e-05
-4.91041e-05
-4.71266e-05
-4.45344e-05
-4.18784e-05
3.5632
3.55999
3.557
3.55417
3.55124
3.54813
3.54484
3.54139
3.53778
3.534
3.53006
3.52595
3.52166
3.51719
3.51253
3.50768
3.50263
3.49736
3.49188
3.48617
3.48022
3.47401
3.46755
3.46081
3.45378
3.44645
3.4388
3.43082
3.42249
3.41379
3.40465
3.39503
3.38508
3.37571
3.36793
3.35688
3.3195
3.22973
2.78102
0.706042
0.0369366
0.00242962
0.000194049
6.18401e-05
4.62179e-05
3.6848e-05
3.32336e-05
3.21141e-05
3.18127e-05
3.17578e-05
4.58514
4.5828
4.57977
4.57673
4.5738
4.57096
4.56818
4.56546
4.56281
4.56024
4.55774
4.55531
4.55296
4.55069
4.5485
4.54639
4.54436
4.5424
4.54053
4.53874
4.53703
4.53539
4.53383
4.53235
4.53094
4.5296
4.52834
4.52715
4.52604
4.52494
4.52375
4.52242
4.5222
4.52663
4.53558
4.51751
4.38202
4.13502
2.72435
0.274653
0.0126786
0.000724395
2.65263e-05
-6.95276e-06
-1.98646e-05
-2.52253e-05
-2.59111e-05
-2.47657e-05
-2.29942e-05
-2.10615e-05
5.97199
5.97076
5.96946
5.96807
5.9665
5.96472
5.96274
5.96056
5.9582
5.95564
5.95289
5.94996
5.94684
5.94354
5.94005
5.93638
5.93253
5.9285
5.92428
5.91988
5.9153
5.91054
5.9056
5.90048
5.89518
5.88969
5.88402
5.87817
5.87215
5.8659
5.85935
5.85258
5.84658
5.84333
5.84033
5.81302
5.71133
5.33703
1.88005
0.105724
0.00554689
0.000359526
7.68112e-05
5.35531e-05
3.96464e-05
3.36075e-05
3.14023e-05
3.07571e-05
3.07541e-05
3.09215e-05
7.19442
7.19278
7.1908
7.18879
7.18678
7.18475
7.18269
7.18059
7.17847
7.17631
7.17412
7.17191
7.16967
7.1674
7.16511
7.16279
7.16044
7.15807
7.15567
7.15324
7.15079
7.14832
7.14581
7.14327
7.14071
7.13812
7.1355
7.13285
7.13015
7.12735
7.12442
7.1218
7.12093
7.12229
7.11481
7.06208
6.95263
5.27995
0.746546
0.0313764
0.00172383
0.000116246
4.43785e-05
2.30876e-05
1.23684e-05
8.29529e-06
7.20684e-06
7.37396e-06
8.08428e-06
8.85642e-06
8.52524
8.52375
8.52205
8.52029
8.51846
8.51651
8.51444
8.51226
8.50997
8.50756
8.50503
8.5024
8.49965
8.49679
8.49382
8.49073
8.48754
8.48423
8.48081
8.47729
8.47365
8.4699
8.46605
8.46208
8.45801
8.45383
8.44954
8.44515
8.44061
8.43581
8.43077
8.42665
8.42643
8.42907
8.4053
8.27919
8.01502
3.70424
0.23116
0.010295
0.000604797
0.000101232
6.81394e-05
4.96346e-05
4.07876e-05
3.70384e-05
3.56386e-05
3.53324e-05
3.54864e-05
3.55937e-05
9.82358
9.82167
9.81948
9.81731
9.81515
9.81297
9.81075
9.8085
9.80622
9.80391
9.80157
9.79919
9.79679
9.79435
9.79189
9.7894
9.78688
9.78433
9.78175
9.77914
9.77651
9.77385
9.77117
9.76846
9.76572
9.76296
9.76018
9.75738
9.75451
9.75151
9.74856
9.74672
9.74746
9.74608
9.71624
9.62132
8.32249
1.75914
0.0662299
0.00324882
0.000213776
8.18004e-05
5.45306e-05
3.94847e-05
3.25809e-05
2.9746e-05
2.88284e-05
2.88357e-05
2.91845e-05
2.93767e-05
11.1545
11.1525
11.1501
11.1478
11.1455
11.1432
11.1408
11.1384
11.1359
11.1333
11.1307
11.1281
11.1254
11.1226
11.1199
11.117
11.1141
11.1112
11.1082
11.1052
11.1021
11.099
11.0958
11.0926
11.0894
11.0861
11.0828
11.0794
11.0758
11.072
11.069
11.0697
11.0743
11.0579
10.9461
10.7356
6.80729
0.580644
0.0209931
0.00111117
0.000132794
8.04806e-05
5.66465e-05
4.47067e-05
3.93753e-05
3.72958e-05
3.68272e-05
3.71226e-05
3.76156e-05
3.78572e-05
12.4719
12.4697
12.4672
12.4647
12.4622
12.4597
12.4571
12.4545
12.4519
12.4493
12.4466
12.4438
12.4411
12.4383
12.4354
12.4325
12.4296
12.4266
12.4236
12.4206
12.4175
12.4143
12.4112
12.4079
12.4046
12.4013
12.3979
12.3945
12.3908
12.3869
12.3842
12.3854
12.3883
12.3612
12.2312
11.6919
4.13875
0.172181
0.00699971
0.000404716
0.00011393
8.07587e-05
6.0506e-05
5.01739e-05
4.53123e-05
4.3245e-05
4.26126e-05
4.26361e-05
4.27579e-05
4.26208e-05
13.8151
13.8126
13.8098
13.8071
13.8044
13.8017
13.7991
13.7964
13.7937
13.791
13.7883
13.7856
13.7829
13.7802
13.7774
13.7747
13.772
13.7693
13.7665
13.7638
13.761
13.7583
13.7555
13.7528
13.7501
13.7473
13.7446
13.7418
13.739
13.7362
13.7349
13.7365
13.7343
13.6967
13.5874
11.2834
1.83805
0.0553432
0.00255514
0.000211263
0.000108026
7.6746e-05
5.96752e-05
5.1298e-05
4.74922e-05
4.60662e-05
4.58609e-05
4.61604e-05
4.64294e-05
4.64292e-05
15.1416
15.139
15.1361
15.1332
15.1304
15.1276
15.1248
15.122
15.1192
15.1164
15.1136
15.1107
15.1079
15.105
15.1021
15.0992
15.0963
15.0934
15.0905
15.0876
15.0846
15.0817
15.0788
15.0758
15.0728
15.0699
15.0669
15.0637
15.0604
15.0579
15.0597
15.0659
15.0484
14.9241
14.6889
8.88932
0.620638
0.0192597
0.000976534
0.000143086
9.63596e-05
6.90839e-05
5.47572e-05
4.78557e-05
4.48737e-05
4.39811e-05
4.41311e-05
4.46468e-05
4.50314e-05
4.51719e-05
16.4786
16.476
16.4731
16.4702
16.4675
16.4647
16.4618
16.459
16.4562
16.4533
16.4504
16.4475
16.4446
16.4417
16.4387
16.4358
16.4328
16.4298
16.4268
16.4237
16.4206
16.4176
16.4144
16.4113
16.4081
16.4049
16.4017
16.3982
16.3945
16.3922
16.3946
16.3996
16.3704
16.219
15.6561
5.57439
0.200186
0.00725122
0.000416549
0.000143329
0.000105026
8.11942e-05
6.83295e-05
6.18323e-05
5.88412e-05
5.77428e-05
5.75551e-05
5.76307e-05
5.75331e-05
5.72562e-05
17.8153
17.8126
17.8095
17.8065
17.8036
17.8007
17.7978
17.7949
17.792
17.7892
17.7863
17.7834
17.7806
17.7777
17.7749
17.7721
17.7692
17.7664
17.7636
17.7608
17.758
17.7552
17.7524
17.7496
17.7469
17.7441
17.7413
17.7384
17.7355
17.734
17.7359
17.7361
17.7022
17.5825
15.1816
2.69087
0.0684479
0.00287708
0.000235498
0.000121827
8.52159e-05
6.45766e-05
5.40712e-05
4.91353e-05
4.7259e-05
4.70133e-05
4.75018e-05
4.81155e-05
4.85003e-05
4.87283e-05
19.1521
19.1493
19.1462
19.1432
19.1403
19.1374
19.1345
19.1316
19.1287
19.1258
19.1229
19.1201
19.1172
19.1143
19.1115
19.1086
19.1057
19.1029
19.1
19.0972
19.0943
19.0915
19.0886
19.0858
19.083
19.0801
19.0771
19.074
19.0715
19.0718
19.0757
19.0654
18.9821
18.8072
12.6716
0.976083
0.0253173
0.00121191
0.000190171
0.00013534
0.000101193
8.2378e-05
7.25696e-05
6.77034e-05
6.55942e-05
6.49355e-05
6.48931e-05
6.48971e-05
6.46915e-05
6.43931e-05
20.4826
20.48
20.477
20.4741
20.4713
20.4685
20.4657
20.4629
20.4601
20.4572
20.4544
20.4516
20.4488
20.446
20.4432
20.4403
20.4375
20.4347
20.4319
20.4291
20.4263
20.4235
20.4207
20.4179
20.4152
20.4123
20.4092
20.4057
20.4042
20.4118
20.4279
20.3904
20.1227
19.6394
8.57176
0.325405
0.00988841
0.000505988
0.000148221
0.000102914
7.53068e-05
6.01632e-05
5.2549e-05
4.9331e-05
4.85736e-05
4.90342e-05
4.99254e-05
5.07289e-05
5.12948e-05
5.17604e-05
21.8214
21.8187
21.8156
21.8127
21.8098
21.807
21.8042
21.8014
21.7986
21.7958
21.793
21.7903
21.7876
21.7849
21.7822
21.7795
21.7769
21.7743
21.7717
21.7691
21.7665
21.764
21.7615
21.759
21.7565
21.7541
21.7514
21.7487
21.7474
21.7509
21.7561
21.7262
21.5779
20.0559
4.76149
0.111959
0.00409916
0.000319921
0.000166054
0.000121548
9.5351e-05
8.10489e-05
7.36592e-05
7.02595e-05
6.90646e-05
6.89345e-05
6.91419e-05
6.92286e-05
6.9136e-05
6.89963e-05
23.1519
23.1491
23.146
23.143
23.1401
23.1372
23.1343
23.1314
23.1286
23.1257
23.1229
23.12
23.1172
23.1144
23.1115
23.1087
23.1059
23.1032
23.1004
23.0976
23.0948
23.0921
23.0894
23.0866
23.0839
23.0811
23.0782
23.0754
23.0745
23.0772
23.0749
23.0268
22.8874
18.0534
1.89991
0.040245
0.00170713
0.000222056
0.000150379
0.000108604
8.52917e-05
7.30264e-05
6.69287e-05
6.43603e-05
6.3708e-05
6.39368e-05
6.4378e-05
6.46495e-05
6.47695e-05
6.48536e-05
24.4804
24.4779
24.475
24.4722
24.4695
24.4667
24.4639
24.4611
24.4583
24.4554
24.4526
24.4497
24.4468
24.4438
24.4409
24.4379
24.4349
24.4318
24.4288
24.4257
24.4226
24.4194
24.4162
24.413
24.4097
24.4061
24.4024
24.3994
24.4006
24.4062
24.3896
24.2684
24.0301
13.7212
0.655242
0.0156274
0.000744772
0.000210672
0.000152313
0.000115159
9.43504e-05
8.32423e-05
7.76929e-05
7.53333e-05
7.46584e-05
7.47115e-05
7.48798e-05
7.48696e-05
7.47529e-05
7.46226e-05
25.8119
25.8094
25.8066
25.8039
25.8012
25.7985
25.7958
25.7931
25.7903
25.7876
25.7849
25.7822
25.7794
25.7767
25.7739
25.7712
25.7685
25.7657
25.7629
25.7602
25.7574
25.7546
25.7519
25.7491
25.7462
25.7431
25.7398
25.7381
25.7431
25.7535
25.7216
25.5186
25.0304
8.45773
0.213232
0.00629248
0.00042063
0.000199841
0.000146571
0.00011418
9.56995e-05
8.57188e-05
8.08017e-05
7.87658e-05
7.81911e-05
7.81935e-05
7.82205e-05
7.80728e-05
7.78523e-05
7.76293e-05
3.78211e-05
3.70276e-05
3.60491e-05
3.5047e-05
3.40335e-05
3.30114e-05
3.19836e-05
3.09526e-05
2.99206e-05
2.88896e-05
2.78613e-05
2.68372e-05
2.58188e-05
2.48074e-05
2.38041e-05
2.28101e-05
2.18264e-05
2.08538e-05
1.98933e-05
1.89455e-05
1.80113e-05
1.70913e-05
1.61861e-05
1.52961e-05
1.4422e-05
1.35641e-05
1.27229e-05
1.18986e-05
1.10916e-05
1.03022e-05
9.53049e-06
8.77678e-06
8.04118e-06
7.3238e-06
6.62473e-06
5.94403e-06
5.28171e-06
4.63779e-06
4.01223e-06
3.40499e-06
2.81599e-06
2.24515e-06
1.69235e-06
1.15745e-06
6.40323e-07
1.40825e-07
-3.41043e-07
-8.05215e-07
-1.25259e-06
-1.68717e-06
-3.94796e-05
-3.76164e-05
-3.59405e-05
-3.43296e-05
-3.27767e-05
-3.12801e-05
-2.98379e-05
-2.84482e-05
-2.71094e-05
-2.58197e-05
-2.45776e-05
-2.33814e-05
-2.22297e-05
-2.1121e-05
-2.00537e-05
-1.90265e-05
-1.80381e-05
-1.70869e-05
-1.61719e-05
-1.52916e-05
-1.44448e-05
-1.36304e-05
-1.28471e-05
-1.20938e-05
-1.13693e-05
-1.06726e-05
-1.00026e-05
-9.35823e-06
-8.73855e-06
-8.14257e-06
-7.56933e-06
-7.01793e-06
-6.48747e-06
-5.9771e-06
-5.48598e-06
-5.01332e-06
-4.55835e-06
-4.12031e-06
-3.69849e-06
-3.2922e-06
-2.90078e-06
-2.52358e-06
-2.15999e-06
-1.80944e-06
-1.47135e-06
-1.14517e-06
-8.30377e-07
-5.26505e-07
-2.3351e-07
4.83648e-08
3.15272e-05
3.08764e-05
3.01403e-05
2.94127e-05
2.86967e-05
2.79915e-05
2.72967e-05
2.6612e-05
2.5937e-05
2.52713e-05
2.46149e-05
2.39674e-05
2.33287e-05
2.26988e-05
2.20775e-05
2.14648e-05
2.08608e-05
2.02653e-05
1.96785e-05
1.91004e-05
1.8531e-05
1.79704e-05
1.74187e-05
1.68759e-05
1.63421e-05
1.58175e-05
1.53021e-05
1.4796e-05
1.42992e-05
1.3812e-05
1.33343e-05
1.28662e-05
1.24079e-05
1.19593e-05
1.15206e-05
1.10918e-05
1.0673e-05
1.02642e-05
9.86553e-06
9.47693e-06
9.09848e-06
8.7302e-06
8.37211e-06
8.02422e-06
7.68655e-06
7.35905e-06
7.04161e-06
6.73424e-06
6.43791e-06
6.1558e-06
-1.94323e-05
-1.81979e-05
-1.70645e-05
-1.59746e-05
-1.49255e-05
-1.3916e-05
-1.29449e-05
-1.20112e-05
-1.11137e-05
-1.02514e-05
-9.42334e-06
-8.62845e-06
-7.86572e-06
-7.13416e-06
-6.43277e-06
-5.76056e-06
-5.11655e-06
-4.4998e-06
-3.90933e-06
-3.34422e-06
-2.80354e-06
-2.28636e-06
-1.79179e-06
-1.31896e-06
-8.66976e-07
-4.35e-07
-2.21947e-08
3.72258e-07
7.49157e-07
1.10928e-06
1.45339e-06
1.78223e-06
2.09651e-06
2.39693e-06
2.68418e-06
2.9589e-06
3.22173e-06
3.47329e-06
3.71416e-06
3.94492e-06
4.16611e-06
4.37825e-06
4.58186e-06
4.77741e-06
4.96533e-06
5.14612e-06
5.32046e-06
5.48917e-06
5.65129e-06
5.8001e-06
3.07814e-05
3.03735e-05
2.99351e-05
2.95004e-05
2.90701e-05
2.86443e-05
2.82228e-05
2.78056e-05
2.73928e-05
2.69841e-05
2.65795e-05
2.61792e-05
2.57829e-05
2.53907e-05
2.50027e-05
2.46188e-05
2.42391e-05
2.38636e-05
2.34923e-05
2.31253e-05
2.27627e-05
2.24046e-05
2.20509e-05
2.17018e-05
2.13574e-05
2.10176e-05
2.06827e-05
2.03527e-05
2.00277e-05
1.97077e-05
1.93929e-05
1.90833e-05
1.87791e-05
1.84803e-05
1.81869e-05
1.78992e-05
1.7617e-05
1.73406e-05
1.707e-05
1.68052e-05
1.65464e-05
1.62935e-05
1.60467e-05
1.5806e-05
1.55715e-05
1.53431e-05
1.51207e-05
1.49045e-05
1.46959e-05
1.44989e-05
9.28037e-06
9.52038e-06
9.74088e-06
9.95831e-06
1.01726e-05
1.03835e-05
1.05905e-05
1.07934e-05
1.09919e-05
1.11856e-05
1.13744e-05
1.1558e-05
1.17364e-05
1.19093e-05
1.20768e-05
1.22387e-05
1.2395e-05
1.25458e-05
1.26909e-05
1.28305e-05
1.29646e-05
1.30933e-05
1.32166e-05
1.33347e-05
1.34476e-05
1.35556e-05
1.36586e-05
1.37569e-05
1.38506e-05
1.39398e-05
1.40248e-05
1.41057e-05
1.41826e-05
1.42557e-05
1.43252e-05
1.43913e-05
1.44542e-05
1.4514e-05
1.45708e-05
1.4625e-05
1.46765e-05
1.47257e-05
1.47726e-05
1.48175e-05
1.48603e-05
1.49014e-05
1.49412e-05
1.49804e-05
1.50179e-05
1.50463e-05
3.53717e-05
3.50399e-05
3.47048e-05
3.43745e-05
3.40487e-05
3.37273e-05
3.34102e-05
3.30971e-05
3.27878e-05
3.24821e-05
3.21801e-05
3.18814e-05
3.15862e-05
3.12942e-05
3.10055e-05
3.07199e-05
3.04375e-05
3.01583e-05
2.98822e-05
2.96092e-05
2.93394e-05
2.90728e-05
2.88094e-05
2.85493e-05
2.82924e-05
2.80389e-05
2.77887e-05
2.75419e-05
2.72986e-05
2.70588e-05
2.68226e-05
2.659e-05
2.63611e-05
2.61359e-05
2.59145e-05
2.5697e-05
2.54833e-05
2.52736e-05
2.50679e-05
2.48662e-05
2.46686e-05
2.44752e-05
2.42859e-05
2.41008e-05
2.392e-05
2.37433e-05
2.35709e-05
2.34029e-05
2.32406e-05
2.30856e-05
2.92914e-05
2.9145e-05
2.90004e-05
2.88608e-05
2.87263e-05
2.85965e-05
2.84712e-05
2.83502e-05
2.82332e-05
2.81199e-05
2.80103e-05
2.79039e-05
2.78007e-05
2.77004e-05
2.76029e-05
2.75079e-05
2.74153e-05
2.7325e-05
2.72367e-05
2.71505e-05
2.70661e-05
2.69834e-05
2.69023e-05
2.68228e-05
2.67447e-05
2.66681e-05
2.65927e-05
2.65186e-05
2.64456e-05
2.63739e-05
2.63032e-05
2.62337e-05
2.61651e-05
2.60977e-05
2.60313e-05
2.59658e-05
2.59014e-05
2.5838e-05
2.57757e-05
2.57143e-05
2.56539e-05
2.55946e-05
2.55364e-05
2.54791e-05
2.5423e-05
2.53678e-05
2.53141e-05
2.52622e-05
2.52117e-05
2.51565e-05
3.78694e-05
3.7833e-05
3.77841e-05
3.7725e-05
3.76564e-05
3.75789e-05
3.74932e-05
3.73998e-05
3.72992e-05
3.71921e-05
3.70788e-05
3.696e-05
3.6836e-05
3.67073e-05
3.65743e-05
3.64375e-05
3.62971e-05
3.61537e-05
3.60074e-05
3.58588e-05
3.5708e-05
3.55554e-05
3.54013e-05
3.5246e-05
3.50897e-05
3.49326e-05
3.47751e-05
3.46173e-05
3.44594e-05
3.43017e-05
3.41443e-05
3.39875e-05
3.38314e-05
3.36761e-05
3.35218e-05
3.33687e-05
3.32169e-05
3.30665e-05
3.29177e-05
3.27706e-05
3.26252e-05
3.24817e-05
3.23402e-05
3.22008e-05
3.20634e-05
3.19283e-05
3.17954e-05
3.16653e-05
3.15387e-05
3.14148e-05
4.23428e-05
4.2057e-05
4.17814e-05
4.1516e-05
4.12602e-05
4.10136e-05
4.07754e-05
4.05452e-05
4.03225e-05
4.01069e-05
3.9898e-05
3.96953e-05
3.94986e-05
3.93074e-05
3.91215e-05
3.89405e-05
3.87642e-05
3.85924e-05
3.84247e-05
3.82611e-05
3.81012e-05
3.79449e-05
3.77921e-05
3.76425e-05
3.7496e-05
3.73525e-05
3.72119e-05
3.7074e-05
3.69387e-05
3.6806e-05
3.66757e-05
3.65478e-05
3.64223e-05
3.62989e-05
3.61777e-05
3.60587e-05
3.59417e-05
3.58268e-05
3.57138e-05
3.56028e-05
3.54937e-05
3.53866e-05
3.52812e-05
3.51778e-05
3.50761e-05
3.49762e-05
3.48782e-05
3.47827e-05
3.46897e-05
3.45939e-05
4.63234e-05
4.62047e-05
4.60829e-05
4.59586e-05
4.58319e-05
4.57029e-05
4.55719e-05
4.5439e-05
4.53043e-05
4.51681e-05
4.50304e-05
4.48914e-05
4.47513e-05
4.46101e-05
4.4468e-05
4.43252e-05
4.41816e-05
4.40376e-05
4.38931e-05
4.37483e-05
4.36033e-05
4.34582e-05
4.33131e-05
4.31682e-05
4.30234e-05
4.2879e-05
4.27349e-05
4.25914e-05
4.24484e-05
4.23061e-05
4.21645e-05
4.20238e-05
4.1884e-05
4.17451e-05
4.16073e-05
4.14706e-05
4.13351e-05
4.12008e-05
4.10679e-05
4.09363e-05
4.08061e-05
4.06774e-05
4.05502e-05
4.04246e-05
4.03007e-05
4.01783e-05
4.00576e-05
3.99393e-05
3.98237e-05
3.97091e-05
4.52375e-05
4.52888e-05
4.53308e-05
4.53644e-05
4.53897e-05
4.54074e-05
4.54177e-05
4.54211e-05
4.54179e-05
4.54086e-05
4.53934e-05
4.53727e-05
4.53467e-05
4.53159e-05
4.52804e-05
4.52406e-05
4.51967e-05
4.5149e-05
4.50976e-05
4.50429e-05
4.49851e-05
4.49243e-05
4.48608e-05
4.47947e-05
4.47262e-05
4.46556e-05
4.45829e-05
4.45084e-05
4.44321e-05
4.43543e-05
4.42751e-05
4.41945e-05
4.41128e-05
4.40301e-05
4.39464e-05
4.38618e-05
4.37766e-05
4.36908e-05
4.36044e-05
4.35176e-05
4.34305e-05
4.33431e-05
4.32556e-05
4.31679e-05
4.30802e-05
4.29925e-05
4.29051e-05
4.28187e-05
4.2733e-05
4.2643e-05
5.69497e-05
5.66504e-05
5.63601e-05
5.60783e-05
5.58046e-05
5.55384e-05
5.52794e-05
5.50271e-05
5.47814e-05
5.45417e-05
5.43078e-05
5.40794e-05
5.38562e-05
5.36379e-05
5.34243e-05
5.32152e-05
5.30104e-05
5.28096e-05
5.26127e-05
5.24195e-05
5.22298e-05
5.20436e-05
5.18606e-05
5.16807e-05
5.15038e-05
5.13299e-05
5.11587e-05
5.09903e-05
5.08245e-05
5.06613e-05
5.05006e-05
5.03423e-05
5.01863e-05
5.00327e-05
4.98814e-05
4.97322e-05
4.95853e-05
4.94405e-05
4.92978e-05
4.91572e-05
4.90187e-05
4.88822e-05
4.87478e-05
4.86153e-05
4.84848e-05
4.83562e-05
4.82296e-05
4.81054e-05
4.79844e-05
4.78652e-05
4.89215e-05
4.91025e-05
4.92726e-05
4.94322e-05
4.95815e-05
4.97209e-05
4.98505e-05
4.99708e-05
5.0082e-05
5.01843e-05
5.02781e-05
5.03637e-05
5.04413e-05
5.05112e-05
5.05736e-05
5.06289e-05
5.06772e-05
5.07189e-05
5.07542e-05
5.07833e-05
5.08064e-05
5.08239e-05
5.08359e-05
5.08427e-05
5.08444e-05
5.08413e-05
5.08337e-05
5.08217e-05
5.08054e-05
5.07852e-05
5.07612e-05
5.07335e-05
5.07024e-05
5.0668e-05
5.06305e-05
5.05901e-05
5.05468e-05
5.0501e-05
5.04526e-05
5.0402e-05
5.03491e-05
5.02941e-05
5.02372e-05
5.01785e-05
5.0118e-05
5.00559e-05
4.99926e-05
4.99288e-05
4.9864e-05
4.97924e-05
6.40931e-05
6.38032e-05
6.35233e-05
6.32528e-05
6.2991e-05
6.27375e-05
6.24916e-05
6.2253e-05
6.20211e-05
6.17956e-05
6.15761e-05
6.13621e-05
6.11535e-05
6.09497e-05
6.07506e-05
6.05559e-05
6.03653e-05
6.01785e-05
5.99954e-05
5.98157e-05
5.96393e-05
5.9466e-05
5.92956e-05
5.9128e-05
5.89629e-05
5.88004e-05
5.86403e-05
5.84825e-05
5.83269e-05
5.81734e-05
5.80219e-05
5.78723e-05
5.77247e-05
5.75789e-05
5.74348e-05
5.72925e-05
5.7152e-05
5.7013e-05
5.68757e-05
5.674e-05
5.66058e-05
5.64732e-05
5.63421e-05
5.62126e-05
5.60845e-05
5.59578e-05
5.58326e-05
5.57092e-05
5.55886e-05
5.54706e-05
5.2192e-05
5.25978e-05
5.29791e-05
5.33368e-05
5.36723e-05
5.39865e-05
5.42803e-05
5.45548e-05
5.48109e-05
5.50494e-05
5.52712e-05
5.54771e-05
5.56678e-05
5.5844e-05
5.60065e-05
5.61558e-05
5.62927e-05
5.64178e-05
5.65315e-05
5.66345e-05
5.67273e-05
5.68103e-05
5.68841e-05
5.69491e-05
5.70058e-05
5.70545e-05
5.70957e-05
5.71298e-05
5.7157e-05
5.71778e-05
5.71924e-05
5.72012e-05
5.72046e-05
5.72027e-05
5.71958e-05
5.71843e-05
5.71683e-05
5.71482e-05
5.7124e-05
5.70962e-05
5.70648e-05
5.703e-05
5.69921e-05
5.69513e-05
5.69076e-05
5.68613e-05
5.68128e-05
5.67628e-05
5.6711e-05
5.66505e-05
6.88539e-05
6.87121e-05
6.85712e-05
6.84311e-05
6.82918e-05
6.81534e-05
6.80157e-05
6.78788e-05
6.77426e-05
6.76071e-05
6.74723e-05
6.73381e-05
6.72044e-05
6.70714e-05
6.69388e-05
6.68068e-05
6.66751e-05
6.65439e-05
6.64131e-05
6.62826e-05
6.61524e-05
6.60225e-05
6.5893e-05
6.57637e-05
6.56347e-05
6.5506e-05
6.53775e-05
6.52492e-05
6.51213e-05
6.49935e-05
6.48661e-05
6.47389e-05
6.4612e-05
6.44854e-05
6.43591e-05
6.42331e-05
6.41075e-05
6.39822e-05
6.38573e-05
6.37328e-05
6.36088e-05
6.34851e-05
6.33619e-05
6.32392e-05
6.3117e-05
6.29953e-05
6.2874e-05
6.27537e-05
6.26354e-05
6.25191e-05
6.49301e-05
6.50008e-05
6.50656e-05
6.51247e-05
6.51781e-05
6.52259e-05
6.52682e-05
6.53052e-05
6.53369e-05
6.53635e-05
6.53851e-05
6.54019e-05
6.54139e-05
6.54213e-05
6.54242e-05
6.54228e-05
6.54173e-05
6.54077e-05
6.53942e-05
6.53769e-05
6.5356e-05
6.53316e-05
6.53039e-05
6.52729e-05
6.52388e-05
6.52018e-05
6.51619e-05
6.51194e-05
6.50742e-05
6.50266e-05
6.49766e-05
6.49244e-05
6.487e-05
6.48136e-05
6.47553e-05
6.46952e-05
6.46333e-05
6.45699e-05
6.45049e-05
6.44384e-05
6.43706e-05
6.43016e-05
6.42313e-05
6.416e-05
6.40876e-05
6.40142e-05
6.39402e-05
6.38663e-05
6.37919e-05
6.37107e-05
7.44954e-05
7.43716e-05
7.42508e-05
7.41326e-05
7.40167e-05
7.39028e-05
7.37907e-05
7.368e-05
7.35705e-05
7.3462e-05
7.33544e-05
7.32475e-05
7.3141e-05
7.30349e-05
7.2929e-05
7.28232e-05
7.27174e-05
7.26115e-05
7.25053e-05
7.2399e-05
7.22922e-05
7.21851e-05
7.20776e-05
7.19696e-05
7.1861e-05
7.1752e-05
7.16423e-05
7.15322e-05
7.14214e-05
7.13101e-05
7.11982e-05
7.10857e-05
7.09727e-05
7.08591e-05
7.0745e-05
7.06304e-05
7.05154e-05
7.03999e-05
7.02839e-05
7.01676e-05
7.00509e-05
6.99338e-05
6.98165e-05
6.96989e-05
6.95811e-05
6.9463e-05
6.93447e-05
6.92266e-05
6.91098e-05
6.89939e-05
7.74129e-05
7.72031e-05
7.69993e-05
7.6801e-05
7.6608e-05
7.64198e-05
7.62362e-05
7.60568e-05
7.58814e-05
7.57097e-05
7.55415e-05
7.53766e-05
7.52147e-05
7.50558e-05
7.48996e-05
7.47459e-05
7.45948e-05
7.44459e-05
7.42993e-05
7.41548e-05
7.40123e-05
7.38716e-05
7.37329e-05
7.35959e-05
7.34605e-05
7.33269e-05
7.31947e-05
7.30641e-05
7.2935e-05
7.28073e-05
7.26809e-05
7.25559e-05
7.24322e-05
7.23098e-05
7.21886e-05
7.20686e-05
7.19498e-05
7.18322e-05
7.17157e-05
7.16003e-05
7.14861e-05
7.13729e-05
7.12608e-05
7.11497e-05
7.10396e-05
7.09305e-05
7.08226e-05
7.07166e-05
7.06122e-05
7.05032e-05
-2.01691e-06
-2.24085e-06
-2.45904e-06
-2.67365e-06
-2.88522e-06
-3.09366e-06
-3.29882e-06
-3.50065e-06
-3.69912e-06
-3.8942e-06
-4.08587e-06
-4.27411e-06
-4.45888e-06
-4.64018e-06
-4.81797e-06
-4.99225e-06
-5.16299e-06
-5.33018e-06
-5.49382e-06
-5.65389e-06
-5.81037e-06
-5.96328e-06
-6.11259e-06
-6.25831e-06
-6.40044e-06
-6.53897e-06
-6.67391e-06
-6.80526e-06
-6.93302e-06
-7.05721e-06
-7.17782e-06
-7.29487e-06
-7.40836e-06
-7.51831e-06
-7.62474e-06
-7.72765e-06
-7.82706e-06
-7.92299e-06
-8.01546e-06
-8.10447e-06
-8.19007e-06
-8.27226e-06
-8.35106e-06
-8.42651e-06
-8.49862e-06
-8.56742e-06
-8.63293e-06
-8.69518e-06
-8.7542e-06
-8.81002e-06
-8.86266e-06
-8.91216e-06
-8.95853e-06
-9.00183e-06
-9.04207e-06
-9.07928e-06
-9.11351e-06
-9.14477e-06
-9.17312e-06
-9.19857e-06
-9.22116e-06
-9.24093e-06
-9.25791e-06
-9.27214e-06
-9.28365e-06
-9.29247e-06
-9.29865e-06
-9.30222e-06
-9.30321e-06
-9.30167e-06
-9.29762e-06
-9.2911e-06
-9.28216e-06
-9.27082e-06
-9.25713e-06
-9.24111e-06
-9.22282e-06
-9.20228e-06
-9.17953e-06
-9.15461e-06
-9.12756e-06
-9.09841e-06
-9.06719e-06
-9.03396e-06
-8.99873e-06
-8.96156e-06
-8.92247e-06
-8.88151e-06
-8.8387e-06
-8.79409e-06
-8.74772e-06
-8.69961e-06
-8.64981e-06
-8.59835e-06
-8.54527e-06
-8.4906e-06
-8.43438e-06
-8.37664e-06
-8.31743e-06
-8.25678e-06
-8.19471e-06
-8.13128e-06
-8.06651e-06
-8.00044e-06
-7.9331e-06
-7.86453e-06
-7.79477e-06
-7.72385e-06
-7.65181e-06
-7.57868e-06
-7.50449e-06
-7.42928e-06
-7.35309e-06
-7.27595e-06
-7.1979e-06
-7.11896e-06
-7.03919e-06
-6.9586e-06
-6.87724e-06
-6.79513e-06
-6.71232e-06
-6.62884e-06
-6.54472e-06
-6.46e-06
-6.37471e-06
-6.28889e-06
-6.20256e-06
-6.11578e-06
-6.02855e-06
-5.94093e-06
-5.85295e-06
-5.76464e-06
-5.67602e-06
-5.58715e-06
-5.49804e-06
-5.40874e-06
-5.31927e-06
-5.22967e-06
-5.13998e-06
-5.05021e-06
-4.96041e-06
-4.87061e-06
-4.78083e-06
-4.69112e-06
-4.60149e-06
-4.51199e-06
-4.42264e-06
-4.33347e-06
-4.24452e-06
-4.1558e-06
-4.06736e-06
-3.97921e-06
-3.89139e-06
-3.80392e-06
-3.71684e-06
-3.63017e-06
-3.54393e-06
-3.45815e-06
-3.37286e-06
-3.28808e-06
-3.20383e-06
-3.12014e-06
-3.03704e-06
-2.95454e-06
-2.87266e-06
-2.79144e-06
-2.71088e-06
-2.63102e-06
-2.55186e-06
-2.47342e-06
-2.39574e-06
-2.31882e-06
-2.24267e-06
-2.16732e-06
-2.09279e-06
-2.01908e-06
-1.94621e-06
-1.87419e-06
-1.80304e-06
-1.73277e-06
-1.66339e-06
-1.59491e-06
-1.52734e-06
-1.46068e-06
-1.39496e-06
-1.33017e-06
-1.26632e-06
-1.20342e-06
-1.14148e-06
-1.08049e-06
-1.02047e-06
-9.61413e-07
-9.03326e-07
-8.46212e-07
-7.90071e-07
-7.34905e-07
-6.80713e-07
-6.27496e-07
-5.75253e-07
-5.23981e-07
-4.7368e-07
-4.24345e-07
-3.75975e-07
-3.28565e-07
-2.82111e-07
-2.36608e-07
-1.92051e-07
-1.48433e-07
-1.0575e-07
-6.39933e-08
-2.31564e-08
1.67682e-08
5.57887e-08
9.39133e-08
1.31151e-07
1.6751e-07
2.03001e-07
2.37634e-07
2.71417e-07
3.04362e-07
3.36479e-07
3.67779e-07
3.98274e-07
4.27973e-07
4.5689e-07
4.85035e-07
5.1242e-07
5.39057e-07
5.64959e-07
5.90137e-07
6.14604e-07
6.38372e-07
6.61454e-07
6.83861e-07
7.05608e-07
7.26705e-07
7.47167e-07
7.67004e-07
7.86231e-07
8.04858e-07
8.229e-07
8.40367e-07
8.57273e-07
8.7363e-07
8.89449e-07
9.04744e-07
9.19525e-07
9.33804e-07
9.47594e-07
9.60905e-07
9.7375e-07
9.86138e-07
9.98081e-07
1.00959e-06
1.02068e-06
1.03135e-06
1.04162e-06
1.05149e-06
1.06098e-06
1.0701e-06
1.07885e-06
1.08725e-06
1.09529e-06
1.103e-06
1.11037e-06
1.11742e-06
1.12415e-06
1.13056e-06
1.13667e-06
1.14249e-06
1.148e-06
1.15323e-06
1.15818e-06
1.16284e-06
1.16723e-06
1.17135e-06
1.1752e-06
1.17878e-06
1.18209e-06
1.18515e-06
1.18794e-06
1.19048e-06
1.19277e-06
1.1948e-06
1.19657e-06
1.1981e-06
1.19939e-06
1.20043e-06
1.20123e-06
1.2018e-06
1.20215e-06
1.20227e-06
1.20219e-06
1.20191e-06
1.20144e-06
1.20082e-06
1.20006e-06
1.19919e-06
1.19826e-06
1.19733e-06
2.55664e-07
3.99378e-07
5.429e-07
6.85186e-07
8.26063e-07
9.65591e-07
1.10381e-06
1.24073e-06
1.37633e-06
1.51063e-06
1.64361e-06
1.77528e-06
1.90563e-06
2.03467e-06
2.16239e-06
2.28879e-06
2.41387e-06
2.53763e-06
2.66006e-06
2.78118e-06
2.90097e-06
3.01943e-06
3.13657e-06
3.25239e-06
3.36687e-06
3.48003e-06
3.59185e-06
3.70234e-06
3.8115e-06
3.91933e-06
4.02581e-06
4.13096e-06
4.23477e-06
4.33724e-06
4.43836e-06
4.53813e-06
4.63656e-06
4.73363e-06
4.82936e-06
4.92372e-06
5.01673e-06
5.10837e-06
5.19866e-06
5.28757e-06
5.37511e-06
5.46129e-06
5.54608e-06
5.6295e-06
5.71153e-06
5.79218e-06
5.87144e-06
5.9493e-06
6.02577e-06
6.10085e-06
6.17452e-06
6.24678e-06
6.31764e-06
6.38708e-06
6.45511e-06
6.52172e-06
6.58691e-06
6.65067e-06
6.713e-06
6.77391e-06
6.83338e-06
6.89142e-06
6.94802e-06
7.00318e-06
7.05689e-06
7.10916e-06
7.15998e-06
7.20936e-06
7.25729e-06
7.30376e-06
7.34879e-06
7.39236e-06
7.43448e-06
7.47515e-06
7.51436e-06
7.55213e-06
7.58844e-06
7.62331e-06
7.65672e-06
7.68869e-06
7.71922e-06
7.7483e-06
7.77595e-06
7.80216e-06
7.82694e-06
7.8503e-06
7.87223e-06
7.89275e-06
7.91186e-06
7.92956e-06
7.94586e-06
7.96077e-06
7.9743e-06
7.98646e-06
7.99724e-06
8.00667e-06
8.01475e-06
8.02149e-06
8.02691e-06
8.03101e-06
8.0338e-06
8.0353e-06
8.03552e-06
8.03447e-06
8.03217e-06
8.02862e-06
8.02386e-06
8.01788e-06
8.01071e-06
8.00236e-06
7.99285e-06
7.9822e-06
7.97042e-06
7.95754e-06
7.94356e-06
7.92851e-06
7.91241e-06
7.89528e-06
7.87714e-06
7.85801e-06
7.83791e-06
7.81686e-06
7.79489e-06
7.77202e-06
7.74826e-06
7.72365e-06
7.6982e-06
7.67194e-06
7.64489e-06
7.61708e-06
7.58854e-06
7.55927e-06
7.52932e-06
7.49871e-06
7.46745e-06
7.43558e-06
7.40312e-06
7.3701e-06
7.33654e-06
7.30247e-06
7.26791e-06
7.23289e-06
7.19743e-06
7.16156e-06
7.12531e-06
7.0887e-06
7.05175e-06
7.01449e-06
6.97695e-06
6.93915e-06
6.90112e-06
6.86287e-06
6.82444e-06
6.78585e-06
6.74712e-06
6.70827e-06
6.66933e-06
6.63032e-06
6.59126e-06
6.55218e-06
6.51309e-06
6.47403e-06
6.435e-06
6.39603e-06
6.35713e-06
6.31834e-06
6.27966e-06
6.24112e-06
6.20273e-06
6.16451e-06
6.12648e-06
6.08865e-06
6.05104e-06
6.01367e-06
5.97654e-06
5.93968e-06
5.9031e-06
5.86681e-06
5.83082e-06
5.79514e-06
5.75979e-06
5.72478e-06
5.69011e-06
5.6558e-06
5.62185e-06
5.58828e-06
5.55508e-06
5.52227e-06
5.48986e-06
5.45785e-06
5.42623e-06
5.39503e-06
5.36425e-06
5.33388e-06
5.30393e-06
5.2744e-06
5.2453e-06
5.21662e-06
5.18837e-06
5.16055e-06
5.13315e-06
5.10619e-06
5.07964e-06
5.05352e-06
5.02783e-06
5.00255e-06
4.97769e-06
4.95324e-06
4.92921e-06
4.90558e-06
4.88235e-06
4.85952e-06
4.83708e-06
4.81503e-06
4.79336e-06
4.77206e-06
4.75114e-06
4.73057e-06
4.71036e-06
4.6905e-06
4.67098e-06
4.6518e-06
4.63294e-06
4.6144e-06
4.59617e-06
4.57825e-06
4.56061e-06
4.54327e-06
4.5262e-06
4.5094e-06
4.49286e-06
4.47657e-06
4.46053e-06
4.44472e-06
4.42913e-06
4.41376e-06
4.3986e-06
4.38363e-06
4.36886e-06
4.35426e-06
4.33984e-06
4.32558e-06
4.31147e-06
4.2975e-06
4.28368e-06
4.26997e-06
4.25639e-06
4.24292e-06
4.22954e-06
4.21626e-06
4.20307e-06
4.18994e-06
4.17689e-06
4.1639e-06
4.15095e-06
4.13805e-06
4.12519e-06
4.11235e-06
4.09953e-06
4.08673e-06
4.07393e-06
4.06113e-06
4.04832e-06
4.03549e-06
4.02265e-06
4.00977e-06
3.99687e-06
3.98392e-06
3.97092e-06
3.95788e-06
3.94478e-06
3.93161e-06
3.91838e-06
3.90508e-06
3.89171e-06
3.87826e-06
3.86472e-06
3.8511e-06
3.8374e-06
3.8236e-06
3.80971e-06
3.79573e-06
3.78165e-06
3.76748e-06
3.75322e-06
3.73886e-06
3.7244e-06
3.70985e-06
3.69521e-06
3.68048e-06
3.66567e-06
3.65076e-06
3.63577e-06
3.62069e-06
3.6056e-06
3.59072e-06
5.94816e-06
5.79615e-06
5.64025e-06
5.48513e-06
5.33206e-06
5.18098e-06
5.03179e-06
4.88447e-06
4.73908e-06
4.59567e-06
4.45428e-06
4.31494e-06
4.17769e-06
4.04258e-06
3.90963e-06
3.77889e-06
3.65038e-06
3.52414e-06
3.4002e-06
3.27858e-06
3.15933e-06
3.04245e-06
2.92799e-06
2.81596e-06
2.70638e-06
2.59928e-06
2.49469e-06
2.3926e-06
2.29306e-06
2.19606e-06
2.10162e-06
2.00977e-06
1.9205e-06
1.83383e-06
1.74976e-06
1.66831e-06
1.58948e-06
1.51327e-06
1.43968e-06
1.36872e-06
1.30039e-06
1.23468e-06
1.17159e-06
1.11111e-06
1.05324e-06
9.9798e-07
9.45308e-07
8.95219e-07
8.477e-07
8.0274e-07
7.60324e-07
7.20436e-07
6.8306e-07
6.48178e-07
6.15771e-07
5.8582e-07
5.58302e-07
5.33195e-07
5.10477e-07
4.90122e-07
4.72105e-07
4.56401e-07
4.42981e-07
4.31819e-07
4.22884e-07
4.16147e-07
4.11578e-07
4.09145e-07
4.08818e-07
4.10562e-07
4.14345e-07
4.20134e-07
4.27893e-07
4.37589e-07
4.49186e-07
4.62649e-07
4.77942e-07
4.95028e-07