/*--------------------------------*- C++ -*----------------------------------*\
| =========                 |                                                 |
| \\      /  F ield         | OpenFOAM: The Open Source CFD Toolbox           |
|  \\    /   O peration     | Version:  2.4.0                                 |
|   \\  /    A nd           | Web:      www.OpenFOAM.org                      |
|    \\/     M anipulation  |                                                 |
\*---------------------------------------------------------------------------*/
FoamFile
{
    version     2.0;
    format      ascii;
    class       volVectorField;
    location    "0.9";
    object      U;
}
// * * * * * * * * * * * * * * * * * * * * * * * * * * * * * * * * * * * * * //

dimensions      [0 1 -1 0 0 0 0];

internalField   nonuniform List<vector> 
8000
(
(-4.21238e-07 -0.000294624 0)
(-2.45319e-06 -0.0008668 0)
(-5.93163e-06 -0.00142229 0)
(-1.05901e-05 -0.00196143 0)
(-1.62378e-05 -0.0024845 0)
(-2.27467e-05 -0.00299173 0)
(-3.00194e-05 -0.00348333 0)
(-3.79703e-05 -0.00395949 0)
(-4.65251e-05 -0.00442036 0)
(-5.5618e-05 -0.00486607 0)
(-6.51939e-05 -0.00529676 0)
(-7.52031e-05 -0.00571251 0)
(-8.56055e-05 -0.00611343 0)
(-9.6363e-05 -0.00649959 0)
(-0.000107447 -0.00687105 0)
(-0.000118827 -0.00722787 0)
(-0.000130484 -0.00757009 0)
(-0.000142393 -0.00789777 0)
(-0.000154541 -0.00821094 0)
(-0.000166904 -0.00850961 0)
(-0.000179478 -0.00879382 0)
(-0.000192239 -0.00906358 0)
(-0.000205186 -0.0093189 0)
(-0.000218295 -0.0095598 0)
(-0.000231569 -0.00978627 0)
(-0.00024498 -0.00999832 0)
(-0.000258537 -0.0101959 0)
(-0.000272203 -0.0103791 0)
(-0.000285993 -0.0105478 0)
(-0.000299861 -0.0107021 0)
(-0.000313827 -0.0108419 0)
(-0.000327839 -0.0109671 0)
(-0.000341936 -0.0110778 0)
(-0.000356028 -0.0111739 0)
(-0.000369994 -0.0112553 0)
(-0.000383402 -0.0113221 0)
(-0.000396696 -0.0113739 0)
(-0.000413651 -0.0114109 0)
(-0.000443078 -0.0114341 0)
(-0.000471744 -0.0114471 0)
(-0.000485911 -0.0114499 0)
(-0.000502497 -0.0114508 0)
(-0.000521322 -0.011451 0)
(-0.000540848 -0.0114431 0)
(-0.000544397 -0.0114175 0)
(-0.000549512 -0.0113849 0)
(-0.000558853 -0.0113478 0)
(-0.000568567 -0.0113065 0)
(-0.000577438 -0.0112608 0)
(-0.000585543 -0.0112107 0)
(2.78876e-08 -0.000274937 0)
(-8.18937e-07 -0.000812718 0)
(-2.76836e-06 -0.00133811 0)
(-5.81055e-06 -0.00185083 0)
(-9.84225e-06 -0.00235066 0)
(-1.47684e-05 -0.0028374 0)
(-2.05136e-05 -0.00331088 0)
(-2.70137e-05 -0.00377096 0)
(-3.42122e-05 -0.00421751 0)
(-4.20576e-05 -0.00465043 0)
(-5.05049e-05 -0.00506962 0)
(-5.9513e-05 -0.00547502 0)
(-6.90466e-05 -0.00586655 0)
(-7.90726e-05 -0.00624416 0)
(-8.95636e-05 -0.00660781 0)
(-0.000100493 -0.00695744 0)
(-0.000111839 -0.00729303 0)
(-0.000123581 -0.00761456 0)
(-0.000135701 -0.00792199 0)
(-0.000148182 -0.00821531 0)
(-0.000161011 -0.00849451 0)
(-0.000174171 -0.00875957 0)
(-0.000187654 -0.00901049 0)
(-0.000201444 -0.00924726 0)
(-0.000215535 -0.00946989 0)
(-0.00022991 -0.00967837 0)
(-0.000244566 -0.00987271 0)
(-0.000259483 -0.0100529 0)
(-0.000274662 -0.010219 0)
(-0.000290076 -0.010371 0)
(-0.000305733 -0.0105089 0)
(-0.000321602 -0.0106328 0)
(-0.000337703 -0.0107426 0)
(-0.00035396 -0.0108385 0)
(-0.000370259 -0.0109204 0)
(-0.00038636 -0.0109884 0)
(-0.000402979 -0.0110426 0)
(-0.00042352 -0.0110832 0)
(-0.000451829 -0.0111107 0)
(-0.000480532 -0.0111277 0)
(-0.000499087 -0.0111383 0)
(-0.000526136 -0.0111484 0)
(-0.000555068 -0.0111589 0)
(-0.000574073 -0.0111661 0)
(-0.000574126 -0.0111646 0)
(-0.000582484 -0.0111554 0)
(-0.000594681 -0.0111388 0)
(-0.00060671 -0.0111149 0)
(-0.000617726 -0.011084 0)
(-0.000628002 -0.0110464 0)
(-1.16297e-07 -0.000277803 0)
(-6.15677e-07 -0.000819388 0)
(-1.5106e-06 -0.001347 0)
(-2.77201e-06 -0.00186067 0)
(-4.39919e-06 -0.00236042 0)
(-6.3992e-06 -0.00284624 0)
(-8.77812e-06 -0.00331814 0)
(-1.15378e-05 -0.00377613 0)
(-1.46777e-05 -0.00422018 0)
(-1.81945e-05 -0.0046503 0)
(-2.20843e-05 -0.00506646 0)
(-2.63413e-05 -0.00546865 0)
(-3.09602e-05 -0.00585687 0)
(-3.59335e-05 -0.00623108 0)
(-4.12556e-05 -0.00659127 0)
(-4.69186e-05 -0.00693744 0)
(-5.29173e-05 -0.00726956 0)
(-5.92437e-05 -0.00758761 0)
(-6.58941e-05 -0.00789159 0)
(-7.28607e-05 -0.00818147 0)
(-8.0142e-05 -0.00845725 0)
(-8.77303e-05 -0.00871891 0)
(-9.56274e-05 -0.00896645 0)
(-0.000103826 -0.00919985 0)
(-0.000112331 -0.0094191 0)
(-0.000121136 -0.00962421 0)
(-0.000130251 -0.00981515 0)
(-0.000139668 -0.00999194 0)
(-0.000149406 -0.0101546 0)
(-0.000159454 -0.010303 0)
(-0.000169842 -0.0104373 0)
(-0.000180564 -0.0105574 0)
(-0.000191662 -0.0106634 0)
(-0.000203083 -0.0107552 0)
(-0.00021474 -0.0108329 0)
(-0.000226551 -0.0108964 0)
(-0.000239575 -0.0109457 0)
(-0.000257363 -0.0109813 0)
(-0.000281193 -0.011005 0)
(-0.000306017 -0.0110177 0)
(-0.00032518 -0.0110253 0)
(-0.00034844 -0.0110332 0)
(-0.00037196 -0.0110415 0)
(-0.000385965 -0.0110469 0)
(-0.00039079 -0.0110448 0)
(-0.000403502 -0.0110357 0)
(-0.0004191 -0.0110194 0)
(-0.000434671 -0.0109961 0)
(-0.000449688 -0.0109663 0)
(-0.000464318 -0.0109299 0)
(1.46262e-08 -0.000271319 0)
(-2.43433e-07 -0.000801114 0)
(-8.8118e-07 -0.00131795 0)
(-1.92083e-06 -0.00182172 0)
(-3.35475e-06 -0.00231232 0)
(-5.17532e-06 -0.00278966 0)
(-7.37836e-06 -0.00325366 0)
(-9.96159e-06 -0.00370424 0)
(-1.29229e-05 -0.00414133 0)
(-1.62607e-05 -0.00456487 0)
(-1.99733e-05 -0.0049748 0)
(-2.406e-05 -0.00537107 0)
(-2.85196e-05 -0.00575362 0)
(-3.33521e-05 -0.00612241 0)
(-3.85567e-05 -0.00647739 0)
(-4.41345e-05 -0.00681852 0)
(-5.00849e-05 -0.00714577 0)
(-5.64103e-05 -0.00745908 0)
(-6.31103e-05 -0.00775844 0)
(-7.01888e-05 -0.00804379 0)
(-7.76453e-05 -0.00831512 0)
(-8.5486e-05 -0.00857239 0)
(-9.37096e-05 -0.00881557 0)
(-0.000102325 -0.00904463 0)
(-0.000111331 -0.00925954 0)
(-0.000120738 -0.00946027 0)
(-0.000130544 -0.00964679 0)
(-0.000140765 -0.00981907 0)
(-0.000151392 -0.00997708 0)
(-0.00016245 -0.0101208 0)
(-0.000173934 -0.0102502 0)
(-0.000185897 -0.0103652 0)
(-0.000198297 -0.0104658 0)
(-0.000210961 -0.0105519 0)
(-0.000223368 -0.0106236 0)
(-0.000236065 -0.0106807 0)
(-0.000254533 -0.0107232 0)
(-0.000291659 -0.0107513 0)
(-0.00033073 -0.0107683 0)
(-0.000352616 -0.0107756 0)
(-0.000377555 -0.0107809 0)
(-0.000403232 -0.010788 0)
(-0.000428034 -0.0107969 0)
(-0.000429567 -0.0108032 0)
(-0.000437233 -0.0108037 0)
(-0.000450954 -0.0107979 0)
(-0.000465658 -0.0107855 0)
(-0.00047984 -0.0107665 0)
(-0.000493569 -0.0107411 0)
(-0.000507049 -0.0107095 0)
(-3.45177e-08 -0.000272659 0)
(-2.01137e-07 -0.000804144 0)
(-5.29861e-07 -0.00132181 0)
(-1.02923e-06 -0.00182566 0)
(-1.71718e-06 -0.00231569 0)
(-2.61402e-06 -0.00279189 0)
(-3.73827e-06 -0.00325424 0)
(-5.10749e-06 -0.00370274 0)
(-6.73651e-06 -0.00413737 0)
(-8.64031e-06 -0.0045581 0)
(-1.08311e-05 -0.00496491 0)
(-1.33222e-05 -0.00535779 0)
(-1.61239e-05 -0.00573671 0)
(-1.92485e-05 -0.00610164 0)
(-2.27044e-05 -0.00645256 0)
(-2.65036e-05 -0.00678945 0)
(-3.06531e-05 -0.00711227 0)
(-3.51652e-05 -0.00742101 0)
(-4.00451e-05 -0.00771564 0)
(-4.5306e-05 -0.00799614 0)
(-5.09517e-05 -0.00826247 0)
(-5.69968e-05 -0.00851463 0)
(-6.34431e-05 -0.00875257 0)
(-7.03075e-05 -0.00897629 0)
(-7.75892e-05 -0.00918576 0)
(-8.53087e-05 -0.00938096 0)
(-9.34612e-05 -0.00956188 0)
(-0.000102072 -0.00972848 0)
(-0.00011113 -0.00988078 0)
(-0.00012067 -0.0100187 0)
(-0.000130679 -0.0101424 0)
(-0.000141208 -0.0102516 0)
(-0.000152203 -0.0103465 0)
(-0.000163555 -0.0104271 0)
(-0.000174991 -0.0104933 0)
(-0.00018727 -0.0105452 0)
(-0.00020446 -0.0105829 0)
(-0.000231933 -0.010607 0)
(-0.000261784 -0.0106193 0)
(-0.000280708 -0.0106245 0)
(-0.000303842 -0.0106294 0)
(-0.000328006 -0.010636 0)
(-0.000343026 -0.010648 0)
(-0.000345816 -0.0106576 0)
(-0.000357447 -0.0106608 0)
(-0.000372581 -0.0106571 0)
(-0.000387951 -0.0106465 0)
(-0.000402928 -0.010629 0)
(-0.000417691 -0.0106049 0)
(-0.000432352 -0.0105744 0)
(-7.49913e-09 -0.000270098 0)
(-2.04106e-07 -0.000796719 0)
(-6.51285e-07 -0.00130972 0)
(-1.36232e-06 -0.00180906 0)
(-2.3402e-06 -0.0022947 0)
(-3.59002e-06 -0.00276658 0)
(-5.11838e-06 -0.00322468 0)
(-6.93341e-06 -0.00366895 0)
(-9.04231e-06 -0.00409936 0)
(-1.14536e-05 -0.00451587 0)
(-1.41743e-05 -0.00491845 0)
(-1.72133e-05 -0.00530707 0)
(-2.05775e-05 -0.00568169 0)
(-2.42761e-05 -0.00604227 0)
(-2.83158e-05 -0.00638879 0)
(-3.27061e-05 -0.00672122 0)
(-3.74533e-05 -0.00703952 0)
(-4.25675e-05 -0.00734366 0)
(-4.80545e-05 -0.00763361 0)
(-5.3925e-05 -0.00790934 0)
(-6.01846e-05 -0.00817082 0)
(-6.68446e-05 -0.00841802 0)
(-7.39101e-05 -0.0086509 0)
(-8.13937e-05 -0.00886944 0)
(-8.93e-05 -0.0090736 0)
(-9.7643e-05 -0.00926336 0)
(-0.000106427 -0.00943867 0)
(-0.000115666 -0.00959951 0)
(-0.000125366 -0.00974585 0)
(-0.000135546 -0.00987765 0)
(-0.000146219 -0.00999487 0)
(-0.000157402 -0.0100975 0)
(-0.000169017 -0.0101854 0)
(-0.000180885 -0.0102587 0)
(-0.000193107 -0.0103172 0)
(-0.000207735 -0.0103609 0)
(-0.000230027 -0.0103902 0)
(-0.000256396 -0.0104077 0)
(-0.000281151 -0.010414 0)
(-0.000306135 -0.0104169 0)
(-0.000332915 -0.0104212 0)
(-0.000359623 -0.0104295 0)
(-0.000360687 -0.0104404 0)
(-0.000366539 -0.0104468 0)
(-0.00037994 -0.0104474 0)
(-0.000394969 -0.0104419 0)
(-0.000409736 -0.0104301 0)
(-0.000424227 -0.0104123 0)
(-0.000438642 -0.0103884 0)
(-0.00045303 -0.0103589 0)
(-2.24596e-08 -0.000269593 0)
(-2.13481e-07 -0.000794825 0)
(-6.18733e-07 -0.0013061 0)
(-1.24697e-06 -0.0018034 0)
(-2.10797e-06 -0.00228671 0)
(-3.21189e-06 -0.00275602 0)
(-4.57177e-06 -0.00321131 0)
(-6.19753e-06 -0.00365255 0)
(-8.10169e-06 -0.00407972 0)
(-1.02923e-05 -0.00449281 0)
(-1.27819e-05 -0.00489179 0)
(-1.55767e-05 -0.00527664 0)
(-1.86895e-05 -0.00564732 0)
(-2.2125e-05 -0.00600383 0)
(-2.58964e-05 -0.00634612 0)
(-3.00066e-05 -0.00667419 0)
(-3.44699e-05 -0.00698799 0)
(-3.92866e-05 -0.00728751 0)
(-4.44733e-05 -0.00757272 0)
(-5.0027e-05 -0.00784359 0)
(-5.59669e-05 -0.00810009 0)
(-6.22863e-05 -0.00834221 0)
(-6.90082e-05 -0.0085699 0)
(-7.61209e-05 -0.00878315 0)
(-8.36527e-05 -0.00898193 0)
(-9.15851e-05 -0.00916621 0)
(-9.99535e-05 -0.00933597 0)
(-0.00010873 -0.00949117 0)
(-0.000117961 -0.00963179 0)
(-0.000127614 -0.00975781 0)
(-0.000137766 -0.0098692 0)
(-0.000148337 -0.00996593 0)
(-0.000159209 -0.010048 0)
(-0.00016991 -0.0101153 0)
(-0.000181113 -0.0101679 0)
(-0.000197803 -0.0102058 0)
(-0.000229797 -0.0102293 0)
(-0.000264476 -0.0102417 0)
(-0.000282834 -0.0102452 0)
(-0.000305031 -0.0102479 0)
(-0.000328176 -0.010253 0)
(-0.000343802 -0.0102665 0)
(-0.000345032 -0.0102804 0)
(-0.000355356 -0.0102884 0)
(-0.000369582 -0.0102901 0)
(-0.000384269 -0.0102853 0)
(-0.000398689 -0.0102741 0)
(-0.000412995 -0.0102569 0)
(-0.000427295 -0.0102338 0)
(-0.000441583 -0.010205 0)
(-2.05363e-08 -0.000267838 0)
(-2.64673e-07 -0.000789551 0)
(-7.88968e-07 -0.00129728 0)
(-1.60034e-06 -0.00179101 0)
(-2.69937e-06 -0.00227071 0)
(-4.08961e-06 -0.00273636 0)
(-5.77679e-06 -0.00318793 0)
(-7.76731e-06 -0.0036254 0)
(-1.00674e-05 -0.00404874 0)
(-1.26835e-05 -0.00445794 0)
(-1.5622e-05 -0.00485295 0)
(-1.88893e-05 -0.00523377 0)
(-2.24919e-05 -0.00560037 0)
(-2.64362e-05 -0.00595271 0)
(-3.07289e-05 -0.00629078 0)
(-3.53761e-05 -0.00661455 0)
(-4.03849e-05 -0.00692399 0)
(-4.57609e-05 -0.00721908 0)
(-5.15114e-05 -0.00749979 0)
(-5.76419e-05 -0.0077661 0)
(-6.41601e-05 -0.00801797 0)
(-7.10704e-05 -0.00825538 0)
(-7.83819e-05 -0.0084783 0)
(-8.60976e-05 -0.00868671 0)
(-9.42283e-05 -0.00888057 0)
(-0.000102775 -0.00905986 0)
(-0.00011175 -0.00922454 0)
(-0.000121152 -0.00937459 0)
(-0.000130999 -0.00950997 0)
(-0.000141292 -0.00963066 0)
(-0.000152058 -0.00973662 0)
(-0.000163245 -0.00982781 0)
(-0.000174718 -0.00990419 0)
(-0.000186327 -0.0099657 0)
(-0.000199135 -0.0100123 0)
(-0.000217255 -0.0100444 0)
(-0.000243599 -0.0100636 0)
(-0.000273283 -0.0100706 0)
(-0.000296705 -0.0100724 0)
(-0.000322651 -0.0100749 0)
(-0.000348909 -0.0100813 0)
(-0.000350751 -0.0100928 0)
(-0.000354994 -0.0101007 0)
(-0.000367556 -0.0101035 0)
(-0.000382123 -0.0101009 0)
(-0.000396549 -0.0100929 0)
(-0.000410736 -0.0100796 0)
(-0.000424893 -0.0100611 0)
(-0.000439074 -0.0100374 0)
(-0.000453255 -0.0100087 0)
(-2.82803e-08 -0.000266236 0)
(-2.99222e-07 -0.000784645 0)
(-8.68081e-07 -0.00128898 0)
(-1.73921e-06 -0.0017792 0)
(-2.91319e-06 -0.0022553 0)
(-4.3936e-06 -0.00271725 0)
(-6.1865e-06 -0.00316503 0)
(-8.29767e-06 -0.00359861 0)
(-1.07331e-05 -0.00401797 0)
(-1.34982e-05 -0.00442308 0)
(-1.65988e-05 -0.00481392 0)
(-2.00399e-05 -0.00519047 0)
(-2.38274e-05 -0.0055527 0)
(-2.7966e-05 -0.00590058 0)
(-3.24616e-05 -0.0062341 0)
(-3.73187e-05 -0.00655322 0)
(-4.25429e-05 -0.00685793 0)
(-4.81388e-05 -0.00714819 0)
(-5.41115e-05 -0.00742398 0)
(-6.04657e-05 -0.00768527 0)
(-6.72059e-05 -0.00793203 0)
(-7.43372e-05 -0.00816425 0)
(-8.18629e-05 -0.00838189 0)
(-8.97888e-05 -0.00858493 0)
(-9.81167e-05 -0.00877333 0)
(-0.000106853 -0.00894708 0)
(-0.000115997 -0.00910614 0)
(-0.000125557 -0.00925048 0)
(-0.000135536 -0.00938009 0)
(-0.000145962 -0.00949492 0)
(-0.000156812 -0.00959496 0)
(-0.000167927 -0.00968016 0)
(-0.000178886 -0.00975051 0)
(-0.000190056 -0.00980593 0)
(-0.000205852 -0.00984648 0)
(-0.000236767 -0.00987245 0)
(-0.000271502 -0.0098873 0)
(-0.000295696 -0.00989111 0)
(-0.000321951 -0.00989288 0)
(-0.000347774 -0.00989678 0)
(-0.000365554 -0.00990895 0)
(-0.00036321 -0.00992383 0)
(-0.000371713 -0.00993369 0)
(-0.000385219 -0.00993792 0)
(-0.000399319 -0.00993644 0)
(-0.000413032 -0.00992931 0)
(-0.000426563 -0.00991668 0)
(-0.000440081 -0.00989873 0)
(-0.000453608 -0.00987563 0)
(-0.000467122 -0.00984755 0)
(-2.54037e-08 -0.000264354 0)
(-3.11296e-07 -0.000778938 0)
(-9.20503e-07 -0.00127938 0)
(-1.85889e-06 -0.00176567 0)
(-3.12418e-06 -0.00223777 0)
(-4.71844e-06 -0.00269568 0)
(-6.64435e-06 -0.00313936 0)
(-8.90701e-06 -0.00356879 0)
(-1.15086e-05 -0.00398396 0)
(-1.44544e-05 -0.00438484 0)
(-1.77457e-05 -0.00477141 0)
(-2.13882e-05 -0.00514364 0)
(-2.53823e-05 -0.00550151 0)
(-2.97344e-05 -0.005845 0)
(-3.44436e-05 -0.00617409 0)
(-3.95175e-05 -0.00648875 0)
(-4.49535e-05 -0.00678895 0)
(-5.07609e-05 -0.00707468 0)
(-5.69347e-05 -0.00734591 0)
(-6.34865e-05 -0.00760261 0)
(-7.04084e-05 -0.00784476 0)
(-7.77148e-05 -0.00807235 0)
(-8.53942e-05 -0.00828534 0)
(-9.3465e-05 -0.00848371 0)
(-0.000101911 -0.00866743 0)
(-0.000110755 -0.00883649 0)
(-0.000119973 -0.00899087 0)
(-0.000129599 -0.00913053 0)
(-0.000139608 -0.00925547 0)
(-0.000150057 -0.00936564 0)
(-0.000160871 -0.00946106 0)
(-0.000171896 -0.00954166 0)
(-0.000182713 -0.00960747 0)
(-0.000194168 -0.00965845 0)
(-0.000211635 -0.00969471 0)
(-0.000243463 -0.00971658 0)
(-0.000279162 -0.00972677 0)
(-0.000299695 -0.00972915 0)
(-0.00032382 -0.00973144 0)
(-0.00034943 -0.00973685 0)
(-0.000355768 -0.00974922 0)
(-0.00035789 -0.00975986 0)
(-0.000369363 -0.00976614 0)
(-0.000383542 -0.0097676 0)
(-0.000397769 -0.00976406 0)
(-0.000411737 -0.0097555 0)
(-0.000425655 -0.00974195 0)
(-0.000439602 -0.00972352 0)
(-0.000453559 -0.00970029 0)
(-0.000467494 -0.00967241 0)
(-3.51305e-08 -0.00026236 0)
(-3.71652e-07 -0.000772908 0)
(-1.07111e-06 -0.00126927 0)
(-2.13359e-06 -0.00175143 0)
(-3.55352e-06 -0.00221936 0)
(-5.32957e-06 -0.00267304 0)
(-7.46354e-06 -0.00311246 0)
(-9.9576e-06 -0.00353759 0)
(-1.2814e-05 -0.00394841 0)
(-1.60349e-05 -0.0043449 0)
(-1.96226e-05 -0.00472704 0)
(-2.35793e-05 -0.0050948 0)
(-2.79076e-05 -0.00544816 0)
(-3.261e-05 -0.0057871 0)
(-3.76888e-05 -0.0061116 0)
(-4.3147e-05 -0.00642163 0)
(-4.89866e-05 -0.00671717 0)
(-5.52111e-05 -0.0069982 0)
(-6.18222e-05 -0.00726469 0)
(-6.88239e-05 -0.00751661 0)
(-7.62174e-05 -0.00775396 0)
(-8.40076e-05 -0.00797669 0)
(-9.21947e-05 -0.00818479 0)
(-0.000100785 -0.00837823 0)
(-0.000109778 -0.00855698 0)
(-0.00011918 -0.00872102 0)
(-0.000128989 -0.00887032 0)
(-0.000139219 -0.00900485 0)
(-0.000149869 -0.0091246 0)
(-0.000160961 -0.00922952 0)
(-0.000172428 -0.00931958 0)
(-0.000184103 -0.00939475 0)
(-0.000195864 -0.00945496 0)
(-0.000209103 -0.00950023 0)
(-0.000228674 -0.00953084 0)
(-0.000256617 -0.00954891 0)
(-0.000288045 -0.0095545 0)
(-0.00031489 -0.00955567 0)
(-0.000343333 -0.00955788 0)
(-0.000368245 -0.00956583 0)
(-0.000364269 -0.00957903 0)
(-0.000370182 -0.00958877 0)
(-0.000383223 -0.00959407 0)
(-0.000397436 -0.00959464 0)
(-0.000411223 -0.00959043 0)
(-0.000424733 -0.00958144 0)
(-0.000438198 -0.00956776 0)
(-0.000451672 -0.00954946 0)
(-0.000465133 -0.00952667 0)
(-0.00047856 -0.00949947 0)
(-3.24585e-08 -0.000259966 0)
(-3.72489e-07 -0.000765753 0)
(-1.08707e-06 -0.00125738 0)
(-2.17807e-06 -0.00173481 0)
(-3.63923e-06 -0.00219802 0)
(-5.46861e-06 -0.00264699 0)
(-7.66674e-06 -0.00308169 0)
(-1.02351e-05 -0.00350209 0)
(-1.31744e-05 -0.00390818 0)
(-1.64859e-05 -0.00429992 0)
(-2.01702e-05 -0.00467729 0)
(-2.42284e-05 -0.00504026 0)
(-2.86613e-05 -0.00538882 0)
(-3.34699e-05 -0.00572293 0)
(-3.86548e-05 -0.00604257 0)
(-4.42172e-05 -0.00634772 0)
(-5.01575e-05 -0.00663835 0)
(-5.64766e-05 -0.00691443 0)
(-6.31753e-05 -0.00717595 0)
(-7.02538e-05 -0.00742288 0)
(-7.77133e-05 -0.00765518 0)
(-8.55529e-05 -0.00787285 0)
(-9.37748e-05 -0.00807584 0)
(-0.000102377 -0.00826414 0)
(-0.000111361 -0.00843773 0)
(-0.000120723 -0.00859657 0)
(-0.000130467 -0.00874064 0)
(-0.000140594 -0.00886992 0)
(-0.000151129 -0.00898438 0)
(-0.000162044 -0.00908399 0)
(-0.000173155 -0.00916874 0)
(-0.000183989 -0.00923858 0)
(-0.000194949 -0.00929345 0)
(-0.000210993 -0.00933341 0)
(-0.000243796 -0.0093588 0)
(-0.000281276 -0.00937326 0)
(-0.000307119 -0.00937654 0)
(-0.000335356 -0.00937823 0)
(-0.000363272 -0.00938275 0)
(-0.000375666 -0.00939695 0)
(-0.000372356 -0.00941276 0)
(-0.00038145 -0.00942404 0)
(-0.00039487 -0.00943034 0)
(-0.00040858 -0.00943158 0)
(-0.000421876 -0.00942781 0)
(-0.000435024 -0.00941915 0)
(-0.000448178 -0.00940575 0)
(-0.000461345 -0.00938774 0)
(-0.000474499 -0.00936527 0)
(-0.000487618 -0.00933848 0)
(-3.37867e-08 -0.000257804 0)
(-3.74839e-07 -0.000759219 0)
(-1.08971e-06 -0.00124643 0)
(-2.17934e-06 -0.00171941 0)
(-3.63861e-06 -0.00217814 0)
(-5.46458e-06 -0.0026226 0)
(-7.65915e-06 -0.00305278 0)
(-1.02217e-05 -0.00346864 0)
(-1.31547e-05 -0.00387017 0)
(-1.64561e-05 -0.00425735 0)
(-2.01286e-05 -0.00463015 0)
(-2.41693e-05 -0.00498855 0)
(-2.85815e-05 -0.00533253 0)
(-3.33609e-05 -0.00566207 0)
(-3.85118e-05 -0.00597715 0)
(-4.40281e-05 -0.00627773 0)
(-4.99159e-05 -0.00656381 0)
(-5.61666e-05 -0.00683536 0)
(-6.27884e-05 -0.00709236 0)
(-6.97697e-05 -0.00733478 0)
(-7.71218e-05 -0.0075626 0)
(-8.48291e-05 -0.00777581 0)
(-9.29068e-05 -0.00797438 0)
(-0.000101334 -0.00815829 0)
(-0.000110131 -0.00832751 0)
(-0.000119269 -0.00848204 0)
(-0.000128777 -0.00862185 0)
(-0.000138628 -0.00874693 0)
(-0.000148878 -0.00885725 0)
(-0.000159442 -0.0089528 0)
(-0.00017013 -0.00903356 0)
(-0.000180428 -0.00909953 0)
(-0.000191234 -0.00915068 0)
(-0.000208824 -0.00918711 0)
(-0.00024357 -0.00920903 0)
(-0.000283118 -0.00921918 0)
(-0.000304603 -0.00922131 0)
(-0.000328979 -0.00922338 0)
(-0.000354065 -0.00922896 0)
(-0.000356302 -0.00924175 0)
(-0.000359018 -0.00925304 0)
(-0.0003706 -0.00926069 0)
(-0.00038444 -0.00926426 0)
(-0.000398207 -0.00926354 0)
(-0.000411746 -0.00925848 0)
(-0.000425269 -0.0092491 0)
(-0.00043884 -0.00923545 0)
(-0.000452434 -0.00921759 0)
(-0.000466017 -0.0091956 0)
(-0.000479563 -0.00916956 0)
(-3.62754e-08 -0.000255454 0)
(-4.02989e-07 -0.000752171 0)
(-1.16828e-06 -0.00123468 0)
(-2.33165e-06 -0.00170297 0)
(-3.88463e-06 -0.002157 0)
(-5.82327e-06 -0.00259678 0)
(-8.14687e-06 -0.00302226 0)
(-1.08553e-05 -0.00343344 0)
(-1.39483e-05 -0.00383029 0)
(-1.74257e-05 -0.00421278 0)
(-2.12873e-05 -0.00458091 0)
(-2.5533e-05 -0.00493464 0)
(-3.01632e-05 -0.00527396 0)
(-3.51776e-05 -0.00559884 0)
(-4.0577e-05 -0.00590926 0)
(-4.63613e-05 -0.0062052 0)
(-5.25319e-05 -0.00648664 0)
(-5.90884e-05 -0.00675356 0)
(-6.60333e-05 -0.00700593 0)
(-7.33658e-05 -0.00724374 0)
(-8.109e-05 -0.00746696 0)
(-8.92043e-05 -0.00767556 0)
(-9.7715e-05 -0.00786954 0)
(-0.000106619 -0.00804886 0)
(-0.000115927 -0.00821351 0)
(-0.000125633 -0.00836347 0)
(-0.000135753 -0.00849872 0)
(-0.000146288 -0.00861923 0)
(-0.000157269 -0.008725 0)
(-0.000168638 -0.008816 0)
(-0.000180222 -0.0088922 0)
(-0.0001918 -0.00895359 0)
(-0.000204577 -0.00900018 0)
(-0.000223735 -0.00903217 0)
(-0.000254072 -0.00905102 0)
(-0.000290077 -0.00905726 0)
(-0.000318534 -0.00905874 0)
(-0.000348921 -0.00906113 0)
(-0.00037392 -0.00906972 0)
(-0.000367275 -0.00908347 0)
(-0.000372909 -0.00909398 0)
(-0.000385702 -0.00910047 0)
(-0.000399505 -0.00910277 0)
(-0.000412783 -0.00910084 0)
(-0.000425765 -0.00909474 0)
(-0.000438703 -0.00908455 0)
(-0.000451653 -0.00907035 0)
(-0.000464599 -0.00905222 0)
(-0.000477522 -0.00903024 0)
(-0.000490408 -0.00900447 0)
(-3.71421e-08 -0.000252923 0)
(-4.05646e-07 -0.000744608 0)
(-1.17327e-06 -0.00122211 0)
(-2.33913e-06 -0.00168542 0)
(-3.89504e-06 -0.00213449 0)
(-5.83676e-06 -0.00256931 0)
(-8.16395e-06 -0.00298985 0)
(-1.08758e-05 -0.0033961 0)
(-1.39725e-05 -0.00378802 0)
(-1.74527e-05 -0.00416559 0)
(-2.13169e-05 -0.00452878 0)
(-2.55634e-05 -0.00487758 0)
(-3.0193e-05 -0.00521196 0)
(-3.52038e-05 -0.00553188 0)
(-4.0597e-05 -0.00583733 0)
(-4.63704e-05 -0.00612829 0)
(-5.25256e-05 -0.00640471 0)
(-5.90597e-05 -0.00666659 0)
(-6.59753e-05 -0.00691388 0)
(-7.32685e-05 -0.00714657 0)
(-8.0943e-05 -0.00736462 0)
(-8.8994e-05 -0.007568 0)
(-9.74261e-05 -0.00775669 0)
(-0.000106233 -0.00793065 0)
(-0.000115421 -0.00808984 0)
(-0.000124982 -0.00823423 0)
(-0.000134931 -0.00836379 0)
(-0.00014527 -0.00847847 0)
(-0.000156004 -0.00857822 0)
(-0.000166992 -0.00866302 0)
(-0.000177918 -0.00873276 0)
(-0.000188931 -0.00878735 0)
(-0.000203331 -0.00882676 0)
(-0.000229451 -0.00885169 0)
(-0.000262101 -0.00886639 0)
(-0.00029206 -0.00886884 0)
(-0.000323767 -0.00886907 0)
(-0.000355646 -0.00887247 0)
(-0.000367522 -0.00888782 0)
(-0.000361868 -0.00890587 0)
(-0.000370833 -0.00891963 0)
(-0.000384441 -0.00892872 0)
(-0.000398198 -0.00893309 0)
(-0.000411388 -0.00893285 0)
(-0.000424351 -0.00892818 0)
(-0.000437272 -0.00891921 0)
(-0.000450173 -0.00890611 0)
(-0.000463036 -0.008889 0)
(-0.000475848 -0.00886799 0)
(-0.000488603 -0.0088432 0)
(-3.33372e-08 -0.000250581 0)
(-3.80031e-07 -0.000737574 0)
(-1.10728e-06 -0.00121038 0)
(-2.21649e-06 -0.00166898 0)
(-3.6998e-06 -0.00211335 0)
(-5.55477e-06 -0.00254347 0)
(-7.7797e-06 -0.00295932 0)
(-1.03757e-05 -0.00336088 0)
(-1.33402e-05 -0.00374812 0)
(-1.66744e-05 -0.00412103 0)
(-2.03744e-05 -0.00447957 0)
(-2.44417e-05 -0.00482374 0)
(-2.8871e-05 -0.0051535 0)
(-3.36646e-05 -0.00546884 0)
(-3.88148e-05 -0.00576972 0)
(-4.43253e-05 -0.00605614 0)
(-5.01853e-05 -0.00632807 0)
(-5.64006e-05 -0.00658549 0)
(-6.29562e-05 -0.00682837 0)
(-6.98606e-05 -0.00705669 0)
(-7.70932e-05 -0.00727043 0)
(-8.46668e-05 -0.00746957 0)
(-9.25524e-05 -0.00765408 0)
(-0.000100769 -0.00782395 0)
(-0.000109273 -0.00797916 0)
(-0.000118096 -0.00811967 0)
(-0.000127197 -0.00824547 0)
(-0.000136655 -0.00835653 0)
(-0.000146354 -0.00845284 0)
(-0.000155925 -0.00853436 0)
(-0.000164315 -0.00860108 0)
(-0.000172579 -0.00865293 0)
(-0.0001916 -0.00868998 0)
(-0.000245243 -0.00871241 0)
(-0.000307877 -0.00872379 0)
(-0.000335161 -0.0087258 0)
(-0.000360482 -0.00872756 0)
(-0.000379263 -0.00873362 0)
(-0.000376049 -0.00874919 0)
(-0.000377832 -0.00876373 0)
(-0.000387877 -0.00877464 0)
(-0.000399819 -0.00878151 0)
(-0.00041167 -0.00878423 0)
(-0.000423397 -0.0087828 0)
(-0.000435208 -0.0087773 0)
(-0.000447146 -0.00876781 0)
(-0.000459181 -0.00875443 0)
(-0.000471276 -0.00873725 0)
(-0.000483402 -0.00871636 0)
(-0.000495541 -0.00869184 0)
(-3.71001e-08 -0.000248286 0)
(-4.03084e-07 -0.000730688 0)
(-1.16373e-06 -0.0011989 0)
(-2.31763e-06 -0.00165291 0)
(-3.85536e-06 -0.0020927 0)
(-5.7728e-06 -0.00251824 0)
(-8.06807e-06 -0.00292952 0)
(-1.0741e-05 -0.00332652 0)
(-1.37898e-05 -0.00370921 0)
(-1.72144e-05 -0.00407758 0)
(-2.10125e-05 -0.00443162 0)
(-2.51844e-05 -0.0047713 0)
(-2.97273e-05 -0.0050966 0)
(-3.46421e-05 -0.0054075 0)
(-3.99249e-05 -0.005704 0)
(-4.55776e-05 -0.00598607 0)
(-5.1595e-05 -0.0062537 0)
(-5.79798e-05 -0.00650686 0)
(-6.47255e-05 -0.00674556 0)
(-7.1836e-05 -0.00696976 0)
(-7.93024e-05 -0.00717947 0)
(-8.71309e-05 -0.00737466 0)
(-9.53092e-05 -0.00755534 0)
(-0.000103846 -0.00772148 0)
(-0.000112724 -0.0078731 0)
(-0.000121958 -0.00801017 0)
(-0.000131535 -0.00813272 0)
(-0.000141491 -0.00824071 0)
(-0.000151758 -0.0083342 0)
(-0.000162119 -0.00841313 0)
(-0.000172121 -0.0084776 0)
(-0.000182736 -0.00852762 0)
(-0.000200226 -0.00856337 0)
(-0.000234162 -0.00858515 0)
(-0.000275664 -0.00859345 0)
(-0.00030232 -0.00859595 0)
(-0.000329932 -0.00859893 0)
(-0.000352385 -0.00860627 0)
(-0.000345535 -0.00861818 0)
(-0.000350552 -0.0086276 0)
(-0.000362617 -0.00863381 0)
(-0.000375776 -0.00863663 0)
(-0.000388534 -0.00863595 0)
(-0.000401091 -0.00863175 0)
(-0.000413677 -0.00862405 0)
(-0.000426332 -0.00861289 0)
(-0.000439033 -0.00859831 0)
(-0.000451753 -0.00858035 0)
(-0.000464475 -0.00855904 0)
(-0.000477183 -0.00853442 0)
(-3.68137e-08 -0.000245742 0)
(-4.06665e-07 -0.000723105 0)
(-1.17731e-06 -0.00118633 0)
(-2.34762e-06 -0.00163538 0)
(-3.9086e-06 -0.00207024 0)
(-5.85573e-06 -0.00249088 0)
(-8.18791e-06 -0.00289728 0)
(-1.09046e-05 -0.00328942 0)
(-1.40052e-05 -0.00366727 0)
(-1.74892e-05 -0.00403081 0)
(-2.13563e-05 -0.00438001 0)
(-2.56062e-05 -0.00471487 0)
(-3.0239e-05 -0.00503535 0)
(-3.52547e-05 -0.00534143 0)
(-4.06536e-05 -0.0056331 0)
(-4.64365e-05 -0.00591034 0)
(-5.26035e-05 -0.00617312 0)
(-5.91566e-05 -0.00642143 0)
(-6.60957e-05 -0.00665524 0)
(-7.34239e-05 -0.00687455 0)
(-8.11411e-05 -0.00707933 0)
(-8.92522e-05 -0.00726956 0)
(-9.77562e-05 -0.00744524 0)
(-0.000106661 -0.00760633 0)
(-0.000115963 -0.00775283 0)
(-0.000125677 -0.00788471 0)
(-0.00013581 -0.00800198 0)
(-0.000146383 -0.0081046 0)
(-0.000157321 -0.00819256 0)
(-0.000168402 -0.00826584 0)
(-0.000179496 -0.0083244 0)
(-0.000192413 -0.00836827 0)
(-0.000213358 -0.00839774 0)
(-0.000245072 -0.00841511 0)
(-0.000282396 -0.00841977 0)
(-0.000317372 -0.00842121 0)
(-0.000352601 -0.00842452 0)
(-0.000367166 -0.00843686 0)
(-0.000357518 -0.00845216 0)
(-0.000365036 -0.00846413 0)
(-0.000378012 -0.00847233 0)
(-0.000391136 -0.00847663 0)
(-0.000403544 -0.00847703 0)
(-0.000415657 -0.0084736 0)
(-0.000427719 -0.00846646 0)
(-0.000439773 -0.00845572 0)
(-0.000451812 -0.0084415 0)
(-0.000463829 -0.00842389 0)
(-0.000475822 -0.00840296 0)
(-0.000487789 -0.0083788 0)
(-3.25568e-08 -0.000243367 0)
(-3.65155e-07 -0.000715979 0)
(-1.06351e-06 -0.00117445 0)
(-2.12976e-06 -0.00161875 0)
(-3.55797e-06 -0.00204885 0)
(-5.34668e-06 -0.00246475 0)
(-7.4956e-06 -0.0028664 0)
(-1.0006e-05 -0.00325379 0)
(-1.2877e-05 -0.00362689 0)
(-1.61093e-05 -0.00398568 0)
(-1.97012e-05 -0.00433014 0)
(-2.36532e-05 -0.00466025 0)
(-2.79631e-05 -0.00497598 0)
(-3.26315e-05 -0.00527731 0)
(-3.76556e-05 -0.00556421 0)
(-4.30362e-05 -0.00583668 0)
(-4.87701e-05 -0.00609468 0)
(-5.48584e-05 -0.0063382 0)
(-6.12977e-05 -0.0065672 0)
(-6.80891e-05 -0.00678168 0)
(-7.52295e-05 -0.00698161 0)
(-8.27202e-05 -0.00716696 0)
(-9.0558e-05 -0.00733773 0)
(-9.87434e-05 -0.00749388 0)
(-0.000107275 -0.00763539 0)
(-0.000116161 -0.00776225 0)
(-0.00012542 -0.00787443 0)
(-0.000135038 -0.00797192 0)
(-0.000144829 -0.00805467 0)
(-0.000154338 -0.00812268 0)
(-0.000163897 -0.00817585 0)
(-0.000178347 -0.00821424 0)
(-0.000209083 -0.0082383 0)
(-0.000247255 -0.00825208 0)
(-0.000278334 -0.0082544 0)
(-0.000312242 -0.00825588 0)
(-0.000345488 -0.00826192 0)
(-0.000343575 -0.00827989 0)
(-0.000340059 -0.00829767 0)
(-0.000349952 -0.00831165 0)
(-0.000363071 -0.00832142 0)
(-0.000375972 -0.00832691 0)
(-0.000388431 -0.00832819 0)
(-0.000400792 -0.00832542 0)
(-0.00041318 -0.00831879 0)
(-0.000425584 -0.00830845 0)
(-0.000437977 -0.00829457 0)
(-0.000450343 -0.00827727 0)
(-0.00046267 -0.00825667 0)
(-0.000474953 -0.00823284 0)
(-3.14398e-08 -0.000241337 0)
(-3.6051e-07 -0.000709822 0)
(-1.05262e-06 -0.00116411 0)
(-2.10799e-06 -0.00160419 0)
(-3.52115e-06 -0.00203005 0)
(-5.28698e-06 -0.00244168 0)
(-7.40695e-06 -0.00283905 0)
(-9.87758e-06 -0.00322216 0)
(-1.27011e-05 -0.00359099 0)
(-1.5872e-05 -0.00394551 0)
(-1.93933e-05 -0.00428572 0)
(-2.32574e-05 -0.0046116 0)
(-2.74684e-05 -0.00492313 0)
(-3.20164e-05 -0.00522028 0)
(-3.69074e-05 -0.00550305 0)
(-4.21282e-05 -0.00577141 0)
(-4.76873e-05 -0.00602534 0)
(-5.35676e-05 -0.00626483 0)
(-5.97814e-05 -0.00648985 0)
(-6.63061e-05 -0.00670039 0)
(-7.31592e-05 -0.00689643 0)
(-8.03112e-05 -0.00707794 0)
(-8.77857e-05 -0.0072449 0)
(-9.55431e-05 -0.00739731 0)
(-0.000103619 -0.00753511 0)
(-0.000111974 -0.00765832 0)
(-0.000120682 -0.00776688 0)
(-0.000129643 -0.00786079 0)
(-0.000138594 -0.00794001 0)
(-0.000146768 -0.00800452 0)
(-0.000155112 -0.00805428 0)
(-0.00017197 -0.00808934 0)
(-0.000213633 -0.00810984 0)
(-0.000263897 -0.00811891 0)
(-0.000289425 -0.00811983 0)
(-0.000314925 -0.00812102 0)
(-0.000335535 -0.00812734 0)
(-0.000328393 -0.00814047 0)
(-0.000332146 -0.00815211 0)
(-0.000343264 -0.00816101 0)
(-0.000355757 -0.00816683 0)
(-0.000368043 -0.00816941 0)
(-0.000380248 -0.00816871 0)
(-0.000392558 -0.00816472 0)
(-0.000404991 -0.00815746 0)
(-0.000417502 -0.00814696 0)
(-0.00043005 -0.00813327 0)
(-0.000442609 -0.00811645 0)
(-0.000455157 -0.00809653 0)
(-0.000467677 -0.00807358 0)
(-0.000593114 -0.011156 0)
(-0.000600264 -0.0110966 0)
(-0.000607041 -0.0110324 0)
(-0.000613479 -0.0109635 0)
(-0.000619609 -0.0108901 0)
(-0.000625459 -0.010812 0)
(-0.00063105 -0.0107295 0)
(-0.000636397 -0.0106426 0)
(-0.000641514 -0.0105515 0)
(-0.00064641 -0.0104564 0)
(-0.000651091 -0.0103574 0)
(-0.000655564 -0.0102546 0)
(-0.000659832 -0.0101482 0)
(-0.000663897 -0.0100385 0)
(-0.000667762 -0.00992552 0)
(-0.000671428 -0.00980955 0)
(-0.000674896 -0.00969075 0)