/*--------------------------------*- C++ -*----------------------------------*\
| =========                 |                                                 |
| \\      /  F ield         | OpenFOAM: The Open Source CFD Toolbox           |
|  \\    /   O peration     | Version:  2.4.0                                 |
|   \\  /    A nd           | Web:      www.OpenFOAM.org                      |
|    \\/     M anipulation  |                                                 |
\*---------------------------------------------------------------------------*/
FoamFile
{
    version     2.0;
    format      ascii;
    class       volScalarField;
    location    "0.6";
    object      H;
}
// * * * * * * * * * * * * * * * * * * * * * * * * * * * * * * * * * * * * * //

dimensions      [0 2 -2 0 0 0 0];

internalField   nonuniform List<scalar> 
8000
(
-11880.6
-11183.4
-10490.9
-9806.43
-9133.14
-8474.11
-7832.28
-7210.35
-6610.83
-6035.91
-5487.49
-4967.14
-4476.09
-4015.2
-3585.01
-3185.72
-2817.19
-2479
-2170.44
-1890.54
-1638.16
-1411.94
-1210.39
-1031.91
-874.85
-737.484
-618.098
-514.991
-426.505
-351.041
-287.081
-233.195
-188.051
-150.424
-119.188
-93.3228
-71.9064
-54.108
-39.1796
-26.4459
-15.3342
-5.58638
-0.0525491
-0.035279
-0.0274491
-0.018725
-0.0144241
-0.0119943
-0.010263
-0.00897989
-11880.2
-11182.3
-10489.1
-9803.79
-9129.67
-8469.77
-7827.03
-7204.19
-6603.74
-6027.91
-5478.61
-4957.43
-4465.61
-4004.06
-3573.3
-3173.56
-2804.72
-2466.33
-2157.71
-1877.9
-1625.71
-1399.81
-1198.68
-1020.73
-864.255
-727.539
-608.844
-506.45
-418.68
-343.921
-280.637
-227.384
-182.815
-145.69
-114.873
-89.329
-68.123
-50.4071
-35.4006
-22.3611
-10.6418
-0.0978864
-0.00120756
-0.009102
-0.0107838
-0.0110071
-0.0114839
-0.0115428
-0.0112099
-0.010624
-11879.9
-11181.1
-10487.1
-9800.98
-9125.98
-8465.17
-7821.48
-7197.68
-6596.28
-6019.51
-5469.31
-4947.28
-4454.7
-3992.48
-3561.16
-3160.99
-2791.83
-2453.28
-2144.63
-1864.92
-1612.97
-1387.42
-1186.76
-1009.35
-853.506
-717.47
-599.492
-497.833
-410.797
-336.754
-274.149
-221.522
-177.513
-140.865
-110.427
-85.1497
-64.082
-46.3614
-31.2204
-18.0542
-6.55978
-0.0622343
-0.0468791
-0.0379051
-0.0263342
-0.0207137
-0.0173215
-0.0147854
-0.0128308
-0.0113045
-11879.5
-11179.9
-10485
-9798.03
-9122.11
-8460.35
-7815.7
-7190.91
-6588.53
-6010.8
-5459.69
-4936.82
-4443.47
-3980.58
-3548.71
-3148.11
-2778.67
-2439.97
-2131.32
-1851.74
-1600.06
-1374.89
-1174.72
-997.894
-842.697
-707.364
-590.121
-489.21
-402.916
-329.587
-267.653
-215.636
-172.157
-135.944
-105.83
-80.7485
-59.7237
-41.8528
-26.2967
-12.394
-0.114167
-0.00143192
-0.00887425
-0.0111964
-0.0122419
-0.0132888
-0.0137379
-0.0136522
-0.0131938
-0.0124996
-11879
-11178.6
-10482.8
-9794.91
-9118.04
-8455.3
-7809.64
-7183.85
-6580.46
-6001.76
-5449.73
-4926
-4431.88
-3968.33
-3535.93
-3134.92
-2765.21
-2426.4
-2117.77
-1838.36
-1586.97
-1362.23
-1162.57
-986.357
-831.838
-697.231
-580.74
-480.588
-395.037
-322.418
-261.139
-209.704
-166.716
-130.885
-101.023
-76.0449
-54.9642
-36.9144
-21.213
-7.27762
-0.0699077
-0.0603617
-0.0502153
-0.0357986
-0.0289744
-0.0245635
-0.021102
-0.0183223
-0.0160764
-0.014245
-11878.6
-11177.2
-10480.5
-9791.68
-9113.83
-8450.07
-7803.39
-7176.57
-6572.17
-5992.49
-5439.53
-4914.95
-4420.07
-3955.87
-3522.95
-3121.55
-2751.61
-2412.7
-2104.13
-1824.91
-1573.85
-1349.55
-1150.44
-974.858
-821.033
-687.163
-571.431
-472.035
-387.219
-315.289
-254.635
-203.74
-161.187
-125.663
-95.9608
-70.9621
-49.6314
-31.0318
-14.496
-0.133797
-0.00171534
-0.00867484
-0.011772
-0.0137458
-0.0154563
-0.0163818
-0.0166211
-0.0163562
-0.0157447
-0.014911
-11878.1
-11175.8
-10478.1
-9788.29
-9109.42
-8444.63
-7796.9
-7169.03
-6563.61
-5982.94
-5429.05
-4903.62
-4408
-3943.16
-3509.74
-3107.99
-2737.83
-2398.87
-2090.38
-1811.39
-1560.69
-1336.86
-1138.33
-963.395
-810.281
-677.159
-562.188
-463.543
-379.446
-308.179
-248.111
-197.701
-155.51
-120.203
-90.5492
-65.4267
-43.8499
-24.9863
-7.84782
-0.0766133
-0.074837
-0.0631633
-0.0464589
-0.038762
-0.0334635
-0.0291179
-0.0254922
-0.0224617
-0.0199189
-0.0177717
-11877.6
-11174.3
-10475.7
-9784.81
-9104.89
-8439.05
-7790.25
-7161.33
-6554.87
-5973.22
-5418.41
-4892.15
-4395.8
-3930.35
-3496.46
-3094.37
-2724.04
-2385.04
-2076.66
-1797.93
-1547.61
-1324.28
-1126.34
-952.074
-799.678
-667.302
-553.081
-455.168
-371.758
-301.111
-241.571
-191.572
-149.651
-114.444
-84.6792
-59.1743
-36.8568
-16.7931
-0.155658
-0.0301285
-0.0161642
-0.0154825
-0.0168257
-0.0187245
-0.0199948
-0.0205401
-0.0204798
-0.0199634
-0.0191273
-0.0180848
-11877.1
-11172.8
-10473.1
-9781.19
-9100.21
-8433.29
-7783.41
-7153.43
-6545.94
-5963.31
-5407.59
-4880.51
-4383.45
-3917.42
-3483.08
-3080.7
-2710.21
-2371.21
-2062.99
-1784.54
-1534.63
-1311.82
-1114.49
-940.898
-789.223
-657.587
-544.102
-446.893
-364.13
-294.049
-234.965
-185.286
-143.523
-108.287
-78.3073
-52.4535
-29.702
-8.62623
-0.0856182
-0.0914142
-0.0774334
-0.058741
-0.0502831
-0.0441377
-0.0389186
-0.0344327
-0.0305789
-0.0272639
-0.0244036
-0.0219246
-11876.6
-11171.2
-10470.5
-9777.49
-9095.43
-8427.41
-7776.45
-7145.4
-6536.89
-5953.3
-5396.69
-4868.81
-4371.07
-3904.48
-3469.72
-3067.08
-2696.47
-2357.51
-2049.46
-1771.32
-1521.85
-1299.57
-1102.86
-929.943
-778.98
-648.066
-535.286
-438.739
-356.568
-286.979
-228.26
-178.789
-137.039
-101.571
-71.0361
-44.2021
-20.0677
-0.186741
-0.0660277
-0.0387307
-0.0283262
-0.0255071
-0.0255964
-0.0260879
-0.0263595
-0.0262236
-0.0256667
-0.0247533
-0.0235744
-0.0222208
-11876
-11169.6
-10467.8
-9773.69
-9090.52
-8421.41
-7769.36
-7137.26
-6527.73
-5943.18
-5385.7
-4857.06
-4358.66
-3891.56
-3456.42
-3053.53
-2682.85
-2343.95
-2036.11
-1758.31
-1509.29
-1287.56
-1091.46
-919.222
-768.956
-638.739
-526.625
-430.686
-349.035
-279.849
-221.383
-171.986
-130.105
-94.3059
-63.2984
-35.8795
-10.3133
-0.103705
-0.113631
-0.0957798
-0.0744098
-0.0648273
-0.0575809
-0.0512865
-0.0457746
-0.0409546
-0.0367367
-0.0330382
-0.0297861
-0.026917
-11875.5
-11168
-10465
-9769.82
-9085.54
-8415.32
-7762.19
-7129.03
-6518.51
-5933.02
-5374.7
-4845.32
-4346.3
-3878.71
-3443.23
-3040.15
-2669.41
-2330.61
-2023
-1745.56
-1497
-1275.83
-1080.35
-908.767
-759.173
-629.612
-518.112
-422.711
-341.493
-272.601
-214.254
-164.758
-122.492
-85.9224
-53.6396
-24.5549
-0.22901
-0.0971532
-0.0621336
-0.0434242
-0.0370679
-0.0353916
-0.0349323
-0.0347157
-0.0343175
-0.0335724
-0.0324617
-0.0310406
-0.0293922
-0.0276019
-11874.9
-11166.3
-10462.2
-9765.88
-9080.49
-8409.16
-7754.95
-7120.75
-6509.24
-5922.86
-5363.72
-4833.63
-4334.03
-3865.99
-3430.2
-3026.97
-2656.22
-2317.54
-2010.19
-1733.12
-1485.04
-1264.41
-1069.54
-898.596
-749.638
-620.684
-509.729
-414.78
-333.887
-265.156
-206.774
-157.018
-114.282
-77.1093
-44.1768
-13.7473
-0.139097
-0.146728
-0.122014
-0.0958512
-0.0842152
-0.0752756
-0.0674594
-0.0605629
-0.0544761
-0.0490957
-0.04433
-0.0400992
-0.0363347
-0.032977
-11874.4
-11164.6
-10459.4
-9761.9
-9075.38
-8402.95
-7747.67
-7112.45
-6499.98
-5912.72
-5352.8
-4822.04
-4321.9
-3853.45
-3417.39
-3014.03
-2643.3
-2304.77
-1997.7
-1721.02
-1473.41
-1253.33
-1059.05
-888.701
-740.331
-611.919
-501.427
-406.827
-326.132
-257.408
-198.789
-148.468
-104.697
-65.836
-30.5962
-0.285267
-0.114709
-0.0728013
-0.051553
-0.0453666
-0.0444193
-0.0446998
-0.0450376
-0.0449454
-0.044263
-0.0430085
-0.0412835
-0.0392164
-0.036932
-0.0345371
-11873.8
-11162.8
-10456.5
-9757.87
-9070.23
-8396.7
-7740.37
-7104.15
-6490.75
-5902.64
-5341.97
-4810.58
-4309.93
-3841.12
-3404.83
-3001.38
-2630.7
-2292.35
-1985.57
-1709.28
-1462.15
-1242.59
-1048.87
-879.082
-731.239
-603.289
-493.159
-398.784
-318.135
-249.24
-190.209
-139.253
-94.7472
-55.2942
-19.4841
-0.196683
-0.195392
-0.160077
-0.125829
-0.110793
-0.099265
-0.0892105
-0.0803233
-0.0724464
-0.0654488
-0.0592204
-0.0536677
-0.0487103
-0.0442776
-0.0403068
-11873.2
-11161.1
-10453.6
-9753.83
-9065.07
-8390.46
-7733.09
-7095.88
-6481.58
-5892.66
-5331.29
-4799.31
-4298.2
-3829.05
-3392.57
-2989.06
-2618.46
-2280.3
-1973.83
-1697.93
-1451.25
-1232.2
-1039
-869.709
-722.319
-594.736
-484.85
-390.556
-309.78
-240.493
-180.701
-128.414
-81.6609
-38.7468
-0.359967
-0.0886383
-0.0505788
-0.043485
-0.0466391
-0.0519992
-0.0562963
-0.0589021
-0.0598622
-0.0594363
-0.0579377
-0.0556653
-0.0528775
-0.0497843
-0.0465485
-0.043291
-11872.6
-11159.3
-10450.6
-9749.77
-9059.89
-8384.21
-7725.82
-7087.66
-6472.49
-5882.79
-5320.74
-4788.21
-4286.68
-3817.24
-3380.6
-2977.07
-2606.56
-2268.62
-1962.45
-1686.94
-1440.7
-1222.12
-1029.38
-860.528
-713.5
-586.172
-476.389
-382.003
-300.895
-231.009
-170.384
-117.208
-69.959
-27.6235
-0.27593
-0.262882
-0.213898
-0.167305
-0.147087
-0.131639
-0.118195
-0.10632
-0.0958017
-0.0864726
-0.0781949
-0.0708481
-0.0643237
-0.0585223
-0.0533521
-0.0487302
-11872
-11157.6
-10447.7
-9745.72
-9054.74
-8378.01
-7718.62
-7079.54
-6463.53
-5873.09
-5310.42
-4777.38
-4275.46
-3805.77
-3369
-2965.47
-2595.07
-2257.35
-1951.48
-1676.34
-1430.52
-1212.36
-1020.02
-851.516
-704.743
-577.537
-467.7
-373.037
-291.374
-220.556
-158.364
-102.362
-50.0502
-0.462273
-0.00648443
-0.0297305
-0.0468852
-0.06161
-0.0731677
-0.0804563
-0.084071
-0.0848123
-0.0834234
-0.0805448
-0.0767011
-0.0723007
-0.0676461
-0.0629498
-0.0583529
-0.0539424
-11871.4
-11155.8
-10444.8
-9741.67
-9049.6
-8371.83
-7711.47
-7071.49
-6454.68
-5863.53
-5300.26
-4766.75
-4264.48
-3794.56
-3357.7
-2954.18
-2583.91
-2246.41
-1940.84
-1666.05
-1420.59
-1202.8
-1010.79
-842.535
-695.893
-568.651
-458.562
-363.375
-280.872
-208.92
-145.557
-89.1152
-38.4795
-0.378119
-0.352345
-0.287267
-0.222332
-0.194178
-0.172621
-0.153944
-0.137618
-0.123374
-0.110966
-0.100164
-0.0907525
-0.0825292
-0.0753118
-0.0689379
-0.0632673
-0.0581817
-11870.9
-11154.1
-10441.9
-9737.66
-9044.52
-8365.74
-7704.43
-7063.59
-6446
-5854.19
-5290.36
-4756.41
-4253.83
-3783.72
-3346.78
-2943.3
-2573.16
-2235.88
-1930.58
-1656.1
-1410.97
-1193.47
-1001.7
-833.572
-686.915
-559.468
-448.939
-353.031
-269.47
-195.97
-129.983
-67.6604
-0.622625
-0.00873678
-0.0947762
-0.112648
-0.125717
-0.133927
-0.135704
-0.133054
-0.127723
-0.120917
-0.113429
-0.105767
-0.0982383
-0.0910158
-0.0841874
-0.0777872
-0.0718179
-0.0662656
-0.00800516
-0.00723792
-0.00660716
-0.00606528
-0.00558199
-0.00513921
-0.00472692
-0.0043401
-0.00397656
-0.00363551
-0.00331672
-0.00302004
-0.00274513
-0.00249146
-0.00225824
-0.00204451
-0.00184917
-0.00167106
-0.00150898
-0.00136173
-0.00122816
-0.00110714
-0.000997621
-0.000898605
-0.000809169
-0.000728456
-0.000655673
-0.000590092
-0.000531047
-0.000477923
-0.000430163
-0.000387253
-0.000348729
-0.000314166
-0.000283175
-0.000255404
-0.000230534
-0.000208274
-0.000188358
-0.000170548
-0.000154626
-0.000140396
-0.000127681
-0.00011632
-0.000106169
-9.70958e-05
-8.89847e-05
-8.17296e-05
-7.52358e-05
-6.94185e-05
-0.00989878
-0.0091146
-0.00832533
-0.00756451
-0.00685092
-0.0061933
-0.0055939
-0.00505114
-0.00456136
-0.00412002
-0.00372236
-0.00336381
-0.00304018
-0.00274773
-0.00248315
-0.00224357
-0.00202647
-0.00182967
-0.00165123
-0.00148945
-0.00134281
-0.00120994
-0.00108963
-0.000980754
-0.000882299
-0.000793338
-0.000713022
-0.000640572
-0.000575273
-0.00051647
-0.00046356
-0.000415993
-0.000373263
-0.000334909
-0.00030051
-0.00026968
-0.000242069
-0.000217357
-0.000195255
-0.000175499
-0.000157849
-0.00014209
-0.000128024
-0.000115476
-0.000104285
-9.43057e-05
-8.54093e-05
-7.74782e-05
-7.04074e-05
-6.41022e-05
-0.0100897
-0.009098
-0.0082647
-0.00754403
-0.00690475
-0.00632632
-0.00579573
-0.00530501
-0.00484942
-0.00442611
-0.00403323
-0.00366942
-0.00333344
-0.00302406
-0.00273995
-0.00247973
-0.00224191
-0.00202501
-0.00182754
-0.00164802
-0.00148505
-0.00133726
-0.0012034
-0.00108226
-0.000972732
-0.00087379
-0.000784481
-0.000703933
-0.000631343
-0.000565973
-0.000507152
-0.000454262
-0.000406743
-0.00036408
-0.000325806
-0.000291495
-0.000260759
-0.000233245
-0.000208633
-0.000186632
-0.000166978
-0.000149431
-0.000133776
-0.000119817
-0.000107376
-9.62937e-05
-8.6426e-05
-7.76431e-05
-6.98282e-05
-6.28762e-05
-0.011673
-0.0107887
-0.00989838
-0.00903525
-0.00821912
-0.00746014
-0.00676202
-0.00612435
-0.00554435
-0.00501803
-0.00454093
-0.00410856
-0.00371667
-0.00336132
-0.00303898
-0.0027465
-0.00248103
-0.00224008
-0.0020214
-0.00182296
-0.00164297
-0.00147979
-0.00133193
-0.00119805
-0.0010769
-0.000967353
-0.000868384
-0.00077904
-0.00069845
-0.000625818
-0.000560411
-0.000501558
-0.000448647
-0.000401115
-0.00035845
-0.000320183
-0.000285889
-0.000255177
-0.000227695
-0.00020312
-0.000181162
-0.000161555
-0.00014406
-0.000128459
-0.000114557
-0.000102176
-9.11568e-05
-8.13543e-05
-7.26391e-05
-6.48942e-05
-0.0127319
-0.0114612
-0.0103749
-0.00942934
-0.00859261
-0.00784172
-0.0071605
-0.00653769
-0.00596549
-0.00543843
-0.00495253
-0.00450475
-0.00409255
-0.00371372
-0.00336618
-0.00304793
-0.00275702
-0.00249154
-0.00224964
-0.00202954
-0.00182951
-0.00164795
-0.00148331
-0.00133416
-0.00119917
-0.0010771
-0.000966805
-0.000867227
-0.000777397
-0.000696424
-0.000623489
-0.000557846
-0.000498811
-0.000445759
-0.00039812
-0.000355374
-0.000317047
-0.00028271
-0.000251968
-0.000224468
-0.000199884
-0.000177924
-0.000158322
-0.000140837
-0.000125251
-0.000111368
-9.90103e-05
-8.8017e-05
-7.8244e-05
-6.9561e-05
-0.0139505
-0.0129336
-0.0119102
-0.0109138
-0.00996534
-0.00907658
-0.00825273
-0.00749465
-0.00680049
-0.00616684
-0.00558953
-0.00506412
-0.00458622
-0.00415165
-0.00375655
-0.00339737
-0.0030709
-0.00277423
-0.0025047
-0.00225994
-0.00203776
-0.00183618
-0.00165341
-0.0014878
-0.00133783
-0.00120214
-0.00107945
-0.000968597
-0.000868524
-0.000778253
-0.000696887
-0.000623607
-0.00055766
-0.000498361
-0.00044508
-0.000397245
-0.000354332
-0.000315865
-0.000281409
-0.000250569
-0.000222986
-0.000198335
-0.000176321
-0.000156676
-0.000139157
-0.000123546
-0.000109645
-9.72744e-05
-8.62744e-05
-7.64994e-05
-0.015943
-0.0143699
-0.0130018
-0.011799
-0.0107302
-0.00977181
-0.00890563
-0.00811803
-0.00739869
-0.00673978
-0.00613522
-0.00558018
-0.00507065
-0.00460322
-0.00417483
-0.00378269
-0.00342421
-0.00309692
-0.00279849
-0.00252673
-0.00227952
-0.0020549
-0.00185101
-0.00166612
-0.00149861
-0.00134697
-0.00120982
-0.00108587
-0.000973949
-0.000872959
-0.000781904
-0.00069987
-0.00062602
-0.000559588
-0.000499872
-0.000446236
-0.000398095
-0.00035492
-0.000316227
-0.000281577
-0.00025057
-0.000222844
-0.00019807
-0.000175949
-0.000156213
-0.000138617
-0.00012294
-0.000108983
-9.65658e-05
-8.55268e-05
-0.016925
-0.0157153
-0.0145042
-0.0133253
-0.0122002
-0.0111415
-0.0101553
-0.00924332
-0.00840423
-0.00763489
-0.00693117
-0.00628849
-0.00570217
-0.00516766
-0.00468066
-0.00423714
-0.00383338
-0.00346598
-0.00313183
-0.00282806
-0.00255206
-0.00230144
-0.002074
-0.00186775
-0.00168083
-0.00151156
-0.00135837
-0.00121985
-0.00109468
-0.000981666
-0.000879703
-0.000787783
-0.000704979
-0.000630446
-0.000563408
-0.000503157
-0.000449048
-0.000400492
-0.000356951
-0.000317937
-0.000283005
-0.000251751
-0.000223809
-0.000198846
-0.00017656
-0.00015668
-0.000138958
-0.000123171
-0.000109118
-9.66182e-05
-0.0197642
-0.0178697
-0.0161972
-0.0147106
-0.0133806
-0.0121834
-0.0111001
-0.0101156
-0.00921776
-0.0083969
-0.00764519
-0.00695619
-0.0063245
-0.00574545
-0.00521496
-0.00472935
-0.00428525
-0.00387954
-0.0035093
-0.0031718
-0.00286447
-0.00258491
-0.00233085
-0.0021002
-0.00189097
-0.00170136
-0.00152967
-0.00137433
-0.00123389
-0.00110703
-0.000992528
-0.000889251
-0.000796173
-0.000712351
-0.000636919
-0.00056909
-0.000508143
-0.000453419
-0.00040432
-0.0003603
-0.000320863
-0.000285557
-0.000253973
-0.000225739
-0.000200518
-0.000178005
-0.000157924
-0.000140025
-0.000124082
-0.000109891
-0.0207711
-0.0192877
-0.017817
-0.0163919
-0.0150335
-0.0137545
-0.012561
-0.0114546
-0.0104337
-0.00949503
-0.00863396
-0.00784545
-0.00712428
-0.00646532
-0.00586365
-0.00531464
-0.00481398
-0.00435767
-0.00394203
-0.00356366
-0.00321942
-0.00290646
-0.0026221
-0.00236392
-0.00212968
-0.0019173
-0.00172489
-0.00155069
-0.00139311
-0.00125067
-0.00112201
-0.00100588
-0.000901151
-0.000806768
-0.000721774
-0.000645294
-0.000576528
-0.000514743
-0.000459272
-0.000409506
-0.000364893
-0.000324927
-0.000289152
-0.00025715
-0.000228545
-0.000202995
-0.000180189
-0.000159848
-0.000141718
-0.000125571
-0.0243761
-0.0221168
-0.0200992
-0.0182896
-0.0166594
-0.015185
-0.0138467
-0.0126279
-0.0115152
-0.0104975
-0.0095652
-0.00871059
-0.00792691
-0.00720833
-0.00654971
-0.00594642
-0.00539426
-0.00488935
-0.0044281
-0.00400715
-0.00362336
-0.00327379
-0.00295571
-0.00266653
-0.00240388
-0.00216553
-0.00194941
-0.00175361
-0.00157636
-0.00141604
-0.00127114
-0.00114027
-0.00102218
-0.000915692
-0.000819738
-0.000733342
-0.00065561
-0.000585725
-0.000522941
-0.000466578
-0.000416016
-0.000370692
-0.000330091
-0.000293749
-0.000261241
-0.000232185
-0.000206232
-0.000183067
-0.000162406
-0.000143992
-0.025745
-0.0238815
-0.0220563
-0.0203007
-0.0186346
-0.0170693
-0.0156097
-0.014256
-0.0130058
-0.0118544
-0.0107963
-0.00982548
-0.00893582
-0.00812129
-0.00737614
-0.00669496
-0.00607266
-0.00550452
-0.00498618
-0.00451359
-0.00408298
-0.00369092
-0.00333419
-0.00300984
-0.00271515
-0.00244761
-0.00220488
-0.00198484
-0.00178551
-0.00160508
-0.00144188
-0.00129437
-0.00116116
-0.00104094
-0.000932533
-0.000834848
-0.000746891
-0.000667753
-0.000596602
-0.00053268
-0.000475294
-0.000423814
-0.000377665
-0.000336326
-0.00029932
-0.000266219
-0.000236631
-0.000210203
-0.000186613
-0.000165572
-0.0299741
-0.027281
-0.0248582
-0.0226716
-0.0206918
-0.0188936
-0.0172556
-0.0157598
-0.0143911
-0.0131367
-0.0119858
-0.0109293
-0.00995903
-0.00906824
-0.00825073
-0.00750092
-0.00681376
-0.00618455
-0.00560896
-0.00508291
-0.00460262
-0.00416451
-0.00376526
-0.00340176
-0.0030711
-0.00277058
-0.00249767
-0.00225005
-0.00202555
-0.00182218
-0.00163809
-0.00147158
-0.00132109
-0.00118518
-0.00106254
-0.00095194
-0.000852284
-0.000762551
-0.000681815
-0.000609225
-0.000544007
-0.000485456
-0.000432928
-0.000385836
-0.000343649
-0.000305883
-0.000272098
-0.000241896
-0.000214917
-0.000190833
-0.0321164
-0.0297329
-0.0274306
-0.0252379
-0.0231715
-0.0212389
-0.0194418
-0.0177775
-0.0162408
-0.0148249
-0.0135225
-0.0123258
-0.0112274
-0.0102201
-0.00929686
-0.0084514
-0.00767765
-0.00697001
-0.00632329
-0.00573265
-0.00519361
-0.00470201
-0.00425399
-0.00384599
-0.00347471
-0.00313708
-0.0028303
-0.00255174
-0.002299
-0.00206985
-0.00186227
-0.00167434
-0.00150436
-0.0013507
-0.00121192
-0.00108667
-0.000973702
-0.0008719
-0.000780225
-0.000697729
-0.000623549
-0.000556893
-0.000497044
-0.000443343
-0.000395194
-0.000352054
-0.000313429
-0.000278872
-0.000247975
-0.00022037
-0.036742
-0.033533
-0.0306357
-0.0280113
-0.0256264
-0.0234522
-0.0214647
-0.0196435
-0.0179715
-0.0164346
-0.0150205
-0.013719
-0.0125213
-0.0114193
-0.0104059
-0.00947491
-0.00862019
-0.00783628
-0.007118
-0.00646051
-0.00585924
-0.00530991
-0.00480849
-0.00435123
-0.0039346
-0.0035553
-0.00321029
-0.00289672
-0.00261195
-0.00235354
-0.00211924
-0.00190695
-0.00171476
-0.00154089
-0.00138372
-0.00124175
-0.0011136
-0.000998018
-0.000893842
-0.000800017
-0.000715575
-0.000639633
-0.000571385
-0.000510094
-0.000455092
-0.000405767
-0.000361566
-0.000321983
-0.000286561
-0.000254885
-0.0400969
-0.0370229
-0.0341037
-0.031358
-0.0287928
-0.0264078
-0.0241978
-0.0221547
-0.0202692
-0.0185312
-0.0169308
-0.0154582
-0.0141043
-0.0128604
-0.0117184
-0.0106706
-0.00970989
-0.00882971
-0.00802386
-0.00728658
-0.00661252
-0.0059967
-0.00543448
-0.00492159
-0.00445403
-0.0040281
-0.00364038
-0.00328771
-0.00296716
-0.00267603
-0.0024118
-0.00217218
-0.00195503
-0.0017584
-0.00158048
-0.0014196
-0.00127426
-0.00114304
-0.00102465
-0.000917932
-0.000821792
-0.000735247
-0.000657397
-0.000587417
-0.000524558
-0.000468133
-0.000417522
-0.000372156
-0.000331521
-0.000295148
-0.0445819
-0.0408421
-0.0374545
-0.0343719
-0.0315549
-0.0289713
-0.0265948
-0.0244043
-0.0223822
-0.0205142
-0.0187882
-0.0171936
-0.0157214
-0.0143631
-0.0131112
-0.0119584
-0.010898
-0.00992361
-0.00902926
-0.00820918
-0.00745793
-0.0067704
-0.00614174
-0.00556743
-0.00504321
-0.00456512
-0.00412945
-0.00373276
-0.00337184
-0.00304372
-0.00274565
-0.00247508
-0.00222967
-0.00200724
-0.00180579
-0.00162347
-0.0014586
-0.00130961
-0.00117507
-0.00105367
-0.000944197
-0.000845559
-0.000756745
-0.000676832
-0.00060498
-0.000540422
-0.000482457
-0.000430448
-0.000383817
-0.000342036
-0.0497668
-0.0458485
-0.0421927
-0.0387945
-0.0356434
-0.032726
-0.0300277
-0.0275343
-0.0252317
-0.0231067
-0.021147
-0.0193408
-0.0176773
-0.0161463
-0.0147382
-0.013444
-0.0122554
-0.0111644
-0.0101638
-0.00924664
-0.00840659
-0.00763769
-0.00693439
-0.00629156
-0.0057044
-0.0051685
-0.00467972
-0.00423426
-0.00382857
-0.00345939
-0.00312367
-0.00281862
-0.00254163
-0.00229033
-0.00206249
-0.00185607
-0.00166922
-0.00150018
-0.00134739
-0.00120937
-0.00108479
-0.00097242
-0.000871139
-0.000779916
-0.000697811
-0.000623964
-0.000557592
-0.000497979
-0.000444475
-0.000396486
-0.0535839
-0.049396
-0.0455565
-0.0420178
-0.0387436
-0.0357059
-0.0328833
-0.030259
-0.0278191
-0.0255521
-0.0234478
-0.0214968
-0.0196901
-0.0180193
-0.0164762
-0.0150527
-0.0137412
-0.0125341
-0.0114244
-0.0104052
-0.00946998
-0.0086126
-0.00782726
-0.0071085
-0.00645123
-0.00585066
-0.00530232
-0.00480208
-0.00434605
-0.00393065
-0.00355255
-0.00320865
-0.0028961
-0.00261225
-0.00235466
-0.00212107
-0.0019094
-0.00171773
-0.0015443
-0.00138749
-0.0012458
-0.00111787
-0.00100244
-0.000898373
-0.000804607
-0.000720186
-0.00064423
-0.000575938
-0.00051458
-0.00045949
-0.0611082
-0.056321
-0.0518794
-0.0477598
-0.0439407
-0.040402
-0.0371252
-0.034093
-0.0312892
-0.0286984
-0.0263063
-0.024099
-0.0220636
-0.0201879
-0.0184603
-0.0168702
-0.0154073
-0.0140623
-0.0128265
-0.0116915
-0.0106499
-0.00969461
-0.00881902
-0.00801705
-0.00728302
-0.00661166
-0.00599808
-0.00543771
-0.00492632
-0.00445999
-0.00403505
-0.00364814
-0.00329611
-0.00297606
-0.0026853
-0.00242134
-0.0021819
-0.00196485
-0.00176825
-0.00159029
-0.00142933
-0.00128385
-0.00115245
-0.00103385
-0.000926879
-0.000830468
-0.000743635
-0.000665481
-0.000595188
-0.00053201
-6.53904e-05
-6.27302e-05
-6.02061e-05
-5.78109e-05
-5.55376e-05
-5.33795e-05
-5.133e-05
-4.93832e-05
-4.75331e-05
-4.57742e-05
-4.41012e-05
-4.2509e-05
-4.09929e-05
-3.95482e-05
-3.81706e-05
-3.68561e-05
-3.56008e-05
-3.44009e-05
-3.32532e-05
-3.21542e-05
-3.1101e-05
-3.00906e-05
-2.91204e-05
-2.81878e-05
-2.72903e-05
-2.64259e-05
-2.55925e-05
-2.4788e-05
-2.40107e-05
-2.32589e-05
-2.25311e-05
-2.18259e-05
-2.11419e-05
-2.04779e-05
-1.98328e-05
-1.92056e-05
-1.85953e-05
-1.80012e-05
-1.74223e-05
-1.6858e-05
-1.63077e-05
-1.57708e-05
-1.52467e-05
-1.47351e-05
-1.42354e-05
-1.37474e-05
-1.32706e-05
-1.28049e-05
-1.23499e-05
-1.19054e-05
-1.14713e-05
-1.10473e-05
-1.06333e-05
-1.02291e-05
-9.83473e-06
-9.44999e-06
-9.0748e-06
-8.7091e-06
-8.3528e-06
-8.00584e-06
-7.66816e-06
-7.33969e-06
-7.02038e-06
-6.71018e-06
-6.40901e-06
-6.11682e-06
-5.83354e-06
-5.55911e-06
-5.29345e-06
-5.03648e-06
-4.78812e-06
-4.54828e-06
-4.31685e-06
-4.09375e-06
-3.87885e-06
-3.67205e-06
-3.47322e-06
-3.28222e-06
-3.09893e-06
-2.9232e-06
-2.75489e-06
-2.59384e-06
-2.43988e-06
-2.29287e-06
-2.15262e-06
-2.01897e-06
-1.89174e-06
-1.77074e-06
-1.65581e-06
-1.54675e-06
-1.44337e-06
-1.3455e-06
-1.25293e-06
-1.16548e-06
-1.08297e-06
-1.0052e-06
-9.31979e-07
-8.63134e-07
-7.98474e-07
-7.37819e-07
-6.80989e-07
-6.27807e-07
-5.78101e-07
-5.317e-07
-4.8844e-07
-4.48159e-07
-4.10699e-07
-3.75908e-07
-3.43637e-07
-3.13743e-07
-2.86087e-07
-2.60535e-07
-2.3696e-07
-2.15238e-07
-1.9525e-07
-1.76883e-07
-1.60029e-07
-1.44586e-07
-1.30455e-07
-1.17542e-07
-1.05761e-07
-9.5027e-08
-8.52615e-08
-7.63903e-08
-6.83434e-08
-6.10551e-08
-5.44639e-08
-4.85122e-08
-4.31462e-08
-3.83158e-08
-3.39744e-08
-3.00785e-08
-2.6588e-08
-2.34657e-08
-2.06774e-08
-1.81913e-08
-1.59784e-08
-1.40119e-08
-1.22672e-08
-1.0722e-08
-9.35582e-09
-8.14993e-09
-7.08732e-09
-6.15279e-09
-5.33216e-09
-4.61287e-09
-3.98363e-09
-3.43401e-09
-2.95489e-09
-2.53801e-09
-2.17586e-09
-1.86195e-09
-1.59019e-09
-1.35554e-09
-1.15348e-09
-9.79551e-10
-8.29955e-10
-7.01686e-10
-5.92262e-10
-4.98829e-10
-4.19089e-10
-3.51108e-10
-2.93545e-10
-2.44774e-10
-2.03433e-10
-1.68889e-10
-1.39771e-10
-1.14884e-10
-9.43339e-11
-7.72431e-11
-6.2868e-11
-5.05855e-11
-3.98219e-11
-3.12808e-11
-2.45357e-11
-1.92266e-11
-1.50557e-11
-1.17819e-11
-9.21359e-12
-7.19943e-12
-5.6207e-12
-4.38408e-12
-3.4162e-12
-2.65929e-12
-2.06791e-12
-1.60629e-12
-1.24632e-12
-9.65899e-13
-7.47689e-13
-5.78075e-13
-4.46387e-13
-3.44266e-13
-2.65169e-13
-2.03983e-13
-1.5671e-13
-1.20235e-13
-9.21287e-14
-7.0499e-14
-5.38759e-14
-4.11179e-14
-3.13394e-14
-2.38549e-14
-1.81339e-14
-1.37668e-14
-1.04378e-14
-7.90348e-15
-5.97673e-15
-4.51386e-15
-3.40464e-15
-2.56469e-15
-1.92947e-15
-1.4497e-15
-1.08781e-15
-8.15186e-16
-6.10075e-16
-4.55957e-16
-3.40304e-16
-2.5363e-16
-1.8876e-16
-1.40273e-16
-1.04082e-16
-7.7107e-17
-5.70295e-17
-4.21082e-17
-3.10361e-17
-2.28333e-17
-1.67663e-17
-1.22868e-17
-8.9853e-18
-6.5567e-18
-4.77369e-18
-3.46737e-18
-2.51235e-18
-1.81574e-18
-1.30881e-18
-9.40812e-19
-6.74362e-19
-4.8195e-19
-3.43388e-19
-2.43894e-19
-1.72665e-19
-1.21829e-19
-8.56649e-20
-6.00224e-20
-4.19027e-20
-2.91439e-20
-2.01925e-20
-1.39356e-20
-9.57897e-21
-6.55734e-21
-4.47007e-21
-3.03418e-21
-2.05054e-21
-1.37962e-21
-9.24015e-22
-6.16011e-22
-4.08745e-22
-2.6992e-22
-1.77379e-22
-1.15989e-22
-7.54648e-23
-4.88486e-23
-3.1456e-23
-2.01496e-23
-1.28383e-23
-8.13559e-24
-5.12721e-24
-3.21329e-24
-2.00245e-24
-1.24075e-24
-7.64334e-25
-4.68086e-25
-2.84957e-25
-1.7243e-25
-1.03703e-25
-6.19842e-26
-3.68173e-26
-2.17305e-26
-1.27439e-26
-7.42537e-27
-4.29816e-27
-2.47152e-27
-1.41165e-27
-8.00838e-28
-4.51211e-28
-2.52465e-28
-1.40273e-28
-7.73872e-29
-4.23888e-29
-2.3051e-29
-1.24437e-29
-6.66812e-30
-3.54672e-30
-1.87248e-30
-9.81444e-31
-5.11197e-31
-2.65607e-31
-1.39642e-31
-7.8058e-32
-5.3115e-32
-5.97588e-05
-5.68995e-05
-5.41961e-05
-5.16402e-05
-4.92242e-05
-4.69404e-05
-4.47818e-05
-4.27414e-05
-4.08128e-05
-3.89895e-05
-3.72657e-05
-3.56357e-05
-3.4094e-05
-3.26354e-05
-3.1255e-05
-2.99481e-05
-2.87104e-05
-2.75376e-05
-2.64257e-05
-2.53709e-05
-2.43697e-05
-2.34188e-05
-2.25149e-05
-2.1655e-05
-2.08364e-05
-2.00564e-05
-1.93124e-05
-1.86023e-05
-1.79237e-05
-1.72747e-05
-1.66534e-05
-1.60579e-05
-1.54866e-05
-1.4938e-05
-1.44106e-05
-1.39032e-05
-1.34144e-05
-1.29432e-05
-1.24885e-05
-1.20493e-05
-1.16248e-05
-1.12141e-05
-1.08164e-05
-1.04312e-05
-1.00578e-05
-9.69552e-06
-9.34396e-06
-9.00262e-06
-8.67107e-06
-8.34893e-06
-8.03583e-06
-7.73147e-06
-7.43555e-06
-7.14783e-06
-6.86806e-06
-6.59604e-06
-6.33157e-06
-6.07449e-06
-5.82464e-06
-5.58187e-06
-5.34606e-06
-5.11708e-06
-4.89483e-06
-4.6792e-06
-4.47009e-06
-4.26741e-06
-4.07107e-06
-3.88098e-06
-3.69705e-06
-3.51922e-06
-3.34737e-06
-3.18145e-06
-3.02135e-06
-2.86699e-06
-2.71829e-06
-2.57515e-06
-2.43747e-06
-2.30517e-06
-2.17814e-06
-2.05629e-06
-1.93951e-06
-1.82768e-06
-1.72072e-06
-1.61849e-06
-1.52089e-06
-1.4278e-06
-1.3391e-06
-1.25468e-06
-1.1744e-06
-1.09815e-06
-1.02581e-06
-9.57235e-07
-8.92314e-07
-8.30917e-07
-7.72918e-07
-7.18192e-07
-6.66611e-07
-6.18053e-07
-5.72393e-07
-5.29509e-07
-4.8928e-07
-4.51588e-07
-4.16315e-07
-3.83346e-07
-3.5257e-07
-3.23877e-07
-2.97158e-07
-2.72311e-07
-2.49234e-07
-2.27828e-07
-2.07999e-07
-1.89654e-07
-1.72706e-07
-1.57068e-07
-1.4266e-07
-1.29402e-07
-1.1722e-07
-1.06042e-07
-9.57993e-08
-8.64275e-08
-7.78646e-08
-7.0052e-08
-6.29345e-08
-5.64596e-08
-5.05782e-08
-4.52436e-08
-4.04126e-08
-3.6044e-08
-3.20997e-08
-2.85441e-08
-2.53437e-08
-2.24677e-08
-1.98873e-08
-1.75757e-08
-1.55084e-08
-1.36624e-08
-1.20169e-08
-1.05525e-08
-9.25139e-09
-8.09733e-09
-7.07547e-09
-6.17216e-09
-5.37505e-09
-4.67289e-09
-4.05545e-09
-3.51345e-09
-3.03855e-09
-2.62317e-09
-2.2605e-09
-1.94445e-09
-1.66955e-09
-1.43082e-09
-1.22394e-09
-1.045e-09
-8.90466e-10
-7.57363e-10
-6.42893e-10
-5.4467e-10
-4.60475e-10
-3.88428e-10
-3.27014e-10
-2.74684e-10
-2.30263e-10
-1.92572e-10
-1.6063e-10
-1.337e-10
-1.10999e-10
-9.19062e-11
-7.58766e-11
-6.24373e-11
-5.11876e-11
-4.18348e-11
-3.40872e-11
-2.76942e-11
-2.24379e-11
-1.81311e-11
-1.46134e-11
-1.1749e-11
-9.42324e-12
-7.54015e-12
-6.01954e-12
-4.79483e-12
-3.81092e-12
-3.0224e-12
-2.39196e-12
-1.8891e-12
-1.4889e-12
-1.17112e-12
-9.19328e-13
-7.20261e-13
-5.63208e-13
-4.3956e-13
-3.42413e-13
-2.66241e-13
-2.06635e-13
-1.60084e-13
-1.23799e-13
-9.55698e-14
-7.365e-14
-5.66609e-14
-4.35174e-14
-3.33673e-14
-2.55429e-14
-1.95217e-14
-1.48961e-14
-1.13487e-14
-8.63268e-15
-6.55657e-15
-4.97217e-15
-3.76494e-15
-2.84653e-15
-2.14892e-15
-1.61984e-15
-1.21918e-15
-9.16229e-16
-6.87502e-16
-5.15073e-16
-3.8528e-16
-2.8773e-16
-2.14524e-16
-1.59674e-16
-1.18641e-16
-8.79951e-17
-6.51444e-17
-4.81353e-17
-3.54967e-17
-2.61228e-17
-1.91833e-17
-1.40562e-17
-1.02757e-17
-7.49413e-18
-5.45201e-18
-3.9562e-18
-2.86316e-18
-2.06642e-18
-1.48715e-18
-1.06713e-18
-7.63408e-19
-5.44424e-19
-3.87004e-19
-2.7419e-19
-1.93598e-19
-1.36216e-19
-9.54961e-20
-6.67019e-20
-4.64136e-20
-3.21711e-20
-2.22107e-20
-1.5272e-20
-1.04575e-20
-7.13055e-21
-4.84106e-21
-3.27224e-21
-2.20192e-21
-1.47493e-21
-9.83382e-22
-6.52553e-22
-4.30942e-22
-2.83201e-22
-1.85187e-22
-1.20485e-22
-7.79874e-23
-5.02175e-23
-3.21654e-23
-2.04924e-23
-1.29848e-23
-8.18243e-24
-5.12743e-24
-3.19489e-24
-1.97933e-24
-1.21913e-24
-7.46493e-25
-4.54368e-25
-2.74894e-25
-1.65297e-25
-9.87812e-26
-5.86626e-26
-3.46173e-26
-2.02973e-26
-1.1824e-26
-6.84284e-27
-3.93391e-27
-2.24644e-27
-1.27414e-27
-7.1772e-28
-4.01494e-28
-2.23027e-28
-1.23014e-28
-6.73658e-29
-3.66252e-29
-1.97672e-29
-1.05902e-29
-5.63159e-30
-2.97255e-30
-1.5577e-30
-8.1118e-31
-4.2139e-31
-2.21509e-31
-1.23815e-31
-8.42721e-32
-5.81004e-05
-5.4962e-05
-5.20004e-05