/*--------------------------------*- C++ -*----------------------------------*\
| =========                 |                                                 |
| \\      /  F ield         | OpenFOAM: The Open Source CFD Toolbox           |
|  \\    /   O peration     | Version:  2.4.0                                 |
|   \\  /    A nd           | Web:      www.OpenFOAM.org                      |
|    \\/     M anipulation  |                                                 |
\*---------------------------------------------------------------------------*/
FoamFile
{
    version     2.0;
    format      ascii;
    class       volVectorField;
    location    "0.6";
    object      U;
}
// * * * * * * * * * * * * * * * * * * * * * * * * * * * * * * * * * * * * * //

dimensions      [0 1 -1 0 0 0 0];

internalField   nonuniform List<vector> 
8000
(
(-4.68822e-08 -0.000322005 0)
(-5.00645e-07 -0.000951997 0)
(-1.44488e-06 -0.00156795 0)
(-2.87947e-06 -0.00216983 0)
(-4.79631e-06 -0.00275761 0)
(-7.19269e-06 -0.00333126 0)
(-1.00702e-05 -0.00389075 0)
(-1.34308e-05 -0.00443603 0)
(-1.72766e-05 -0.00496709 0)
(-2.16092e-05 -0.00548389 0)
(-2.64313e-05 -0.0059864 0)
(-3.17444e-05 -0.00647458 0)
(-3.75516e-05 -0.00694841 0)
(-4.38548e-05 -0.00740784 0)
(-5.06572e-05 -0.00785285 0)
(-5.79609e-05 -0.0082834 0)
(-6.57697e-05 -0.00869945 0)
(-7.40855e-05 -0.00910099 0)
(-8.2913e-05 -0.00948796 0)
(-9.22536e-05 -0.00986034 0)
(-0.000102113 -0.0102181 0)
(-0.000112492 -0.0105612 0)
(-0.000123398 -0.0108896 0)
(-0.00013483 -0.0112032 0)
(-0.000146797 -0.0115021 0)
(-0.000159298 -0.0117862 0)
(-0.000172343 -0.0120555 0)
(-0.00018593 -0.0123098 0)
(-0.00020007 -0.0125493 0)
(-0.00021476 -0.0127738 0)
(-0.000230014 -0.0129833 0)
(-0.000245826 -0.0131778 0)
(-0.000262213 -0.0133572 0)
(-0.000279166 -0.0135216 0)
(-0.000296709 -0.0136708 0)
(-0.000314826 -0.0138048 0)
(-0.000333546 -0.0139236 0)
(-0.000352825 -0.0140272 0)
(-0.000372669 -0.0141154 0)
(-0.00039312 -0.0141883 0)
(-0.000414728 -0.0142459 0)
(-0.000438357 -0.0142881 0)
(-0.000461555 -0.0143155 0)
(-0.000480852 -0.0143311 0)
(-0.000498014 -0.0143379 0)
(-0.000526087 -0.0143419 0)
(-0.000562311 -0.0143437 0)
(-0.000606472 -0.0143182 0)
(-0.000621435 -0.0142147 0)
(-0.000634319 -0.0140865 0)
(-4.3888e-08 -0.000318922 0)
(-5.05838e-07 -0.000942753 0)
(-1.47747e-06 -0.00155255 0)
(-2.96142e-06 -0.00214827 0)
(-4.94975e-06 -0.00272988 0)
(-7.43985e-06 -0.00329735 0)
(-1.04332e-05 -0.00385064 0)
(-1.39321e-05 -0.00438971 0)
(-1.79385e-05 -0.00491454 0)
(-2.24544e-05 -0.00542509 0)
(-2.74821e-05 -0.00592131 0)
(-3.30236e-05 -0.00640319 0)
(-3.90816e-05 -0.00687068 0)
(-4.56583e-05 -0.00732374 0)
(-5.27564e-05 -0.00776235 0)
(-6.03788e-05 -0.00818646 0)
(-6.8528e-05 -0.00859605 0)
(-7.72074e-05 -0.00899107 0)
(-8.64197e-05 -0.00937149 0)
(-9.61685e-05 -0.00973728 0)
(-0.000106457 -0.0100884 0)
(-0.000117288 -0.0104248 0)
(-0.000128666 -0.0107465 0)
(-0.000140594 -0.0110533 0)
(-0.000153076 -0.0113454 0)
(-0.000166117 -0.0116226 0)
(-0.000179719 -0.0118849 0)
(-0.000193888 -0.0121323 0)
(-0.000208626 -0.0123647 0)
(-0.000223942 -0.0125821 0)
(-0.000239833 -0.0127845 0)
(-0.000256312 -0.0129718 0)
(-0.000273376 -0.0131439 0)
(-0.000291038 -0.0133009 0)
(-0.000309295 -0.0134427 0)
(-0.000328165 -0.0135692 0)
(-0.000347629 -0.0136805 0)
(-0.000367673 -0.0137764 0)
(-0.000388247 -0.013857 0)
(-0.000409635 -0.0139221 0)
(-0.000432782 -0.0139718 0)
(-0.000458442 -0.0140063 0)
(-0.000480782 -0.0140271 0)
(-0.000498586 -0.014038 0)
(-0.000520403 -0.0140428 0)
(-0.000554421 -0.0140469 0)
(-0.000596234 -0.0140433 0)
(-0.000629709 -0.0139861 0)
(-0.000637447 -0.0138812 0)
(-0.000657107 -0.0137627 0)
(-4.96578e-08 -0.000315807 0)
(-5.4189e-07 -0.000933372 0)
(-1.56929e-06 -0.00153686 0)
(-3.13269e-06 -0.00212625 0)
(-5.22308e-06 -0.0027015 0)
(-7.83775e-06 -0.00326257 0)
(-1.09779e-05 -0.00380944 0)
(-1.4646e-05 -0.00434206 0)
(-1.88435e-05 -0.00486041 0)
(-2.35729e-05 -0.00536444 0)
(-2.88357e-05 -0.00585413 0)
(-3.46346e-05 -0.00632943 0)
(-4.09712e-05 -0.00679032 0)
(-4.78487e-05 -0.00723675 0)
(-5.52687e-05 -0.00766868 0)
(-6.3235e-05 -0.00808609 0)
(-7.17489e-05 -0.00848894 0)
(-8.0815e-05 -0.00887718 0)
(-9.04342e-05 -0.00925079 0)
(-0.000100612 -0.00960972 0)
(-0.000111349 -0.00995394 0)
(-0.000122651 -0.0102834 0)
(-0.000134519 -0.0105981 0)
(-0.000146959 -0.0108979 0)
(-0.000159972 -0.0111829 0)
(-0.000173565 -0.011453 0)
(-0.000187737 -0.0117081 0)
(-0.0002025 -0.0119483 0)
(-0.000217846 -0.0121734 0)
(-0.000233794 -0.0123835 0)
(-0.000250332 -0.0125785 0)
(-0.000267482 -0.0127583 0)
(-0.000285229 -0.012923 0)
(-0.0003036 -0.0130724 0)
(-0.000322578 -0.0132066 0)
(-0.000342191 -0.0133255 0)
(-0.000362386 -0.013429 0)
(-0.000383162 -0.0135171 0)
(-0.000404573 -0.0135898 0)
(-0.000427321 -0.013647 0)
(-0.00045257 -0.0136888 0)
(-0.000477132 -0.0137159 0)
(-0.000497463 -0.0137315 0)
(-0.000515829 -0.0137385 0)
(-0.000546303 -0.0137432 0)
(-0.000584587 -0.0137462 0)
(-0.000628962 -0.0137271 0)
(-0.000642069 -0.0136494 0)
(-0.000655799 -0.0135512 0)
(-0.000679623 -0.0134418 0)
(-4.92857e-08 -0.000312433 0)
(-5.54318e-07 -0.00092326 0)
(-1.61296e-06 -0.00152002 0)
(-3.22715e-06 -0.00210268 0)
(-5.38794e-06 -0.00267119 0)
(-8.09236e-06 -0.00322553 0)
(-1.13419e-05 -0.00376564 0)
(-1.51387e-05 -0.0042915 0)
(-1.94848e-05 -0.00480306 0)
(-2.4382e-05 -0.00530029 0)
(-2.98325e-05 -0.00578315 0)
(-3.58383e-05 -0.0062516 0)
(-4.24018e-05 -0.0067056 0)
(-4.9525e-05 -0.00714512 0)
(-5.72107e-05 -0.00757012 0)
(-6.54611e-05 -0.00798056 0)
(-7.42793e-05 -0.0083764 0)
(-8.36673e-05 -0.0087576 0)
(-9.36288e-05 -0.00912413 0)
(-0.000104166 -0.00947594 0)
(-0.000115282 -0.00981301 0)
(-0.00012698 -0.0101353 0)
(-0.000139264 -0.0104427 0)
(-0.000152136 -0.0107353 0)
(-0.000165601 -0.0110129 0)
(-0.00017966 -0.0112756 0)
(-0.00019432 -0.0115234 0)
(-0.00020958 -0.011756 0)
(-0.00022545 -0.0119737 0)
(-0.000241926 -0.0121762 0)
(-0.000259022 -0.0123635 0)
(-0.000276729 -0.0125357 0)
(-0.000295067 -0.0126926 0)
(-0.000314024 -0.0128342 0)
(-0.000333626 -0.0129605 0)
(-0.000353842 -0.0130715 0)
(-0.000374663 -0.013167 0)
(-0.00039603 -0.0132471 0)
(-0.000418276 -0.0133117 0)
(-0.000442427 -0.0133608 0)
(-0.000469155 -0.0133946 0)
(-0.000492317 -0.0134151 0)
(-0.000510729 -0.0134257 0)
(-0.000534791 -0.013431 0)
(-0.000570705 -0.0134359 0)
(-0.000614289 -0.0134345 0)
(-0.000644591 -0.0133918 0)
(-0.000652554 -0.0133145 0)
(-0.000672957 -0.0132246 0)
(-0.000698669 -0.013124 0)
(-5.16687e-08 -0.000309083 0)
(-5.76572e-07 -0.000913169 0)
(-1.67569e-06 -0.00150315 0)
(-3.35053e-06 -0.00207899 0)
(-5.59175e-06 -0.00264066 0)
(-8.39592e-06 -0.00318811 0)
(-1.17647e-05 -0.00372131 0)
(-1.56996e-05 -0.00424023 0)
(-2.02032e-05 -0.00474482 0)
(-2.52766e-05 -0.00523505 0)
(-3.09224e-05 -0.00571088 0)
(-3.71417e-05 -0.00617227 0)
(-4.39376e-05 -0.00661919 0)
(-5.1311e-05 -0.00705159 0)
(-5.92657e-05 -0.00746944 0)
(-6.78022e-05 -0.00787269 0)
(-7.6925e-05 -0.00826132 0)
(-8.66344e-05 -0.00863527 0)
(-9.69355e-05 -0.00899452 0)
(-0.000107828 -0.00933901 0)
(-0.000119318 -0.00966871 0)
(-0.000131405 -0.00998359 0)
(-0.000144096 -0.0102836 0)
(-0.000157389 -0.0105687 0)
(-0.000171293 -0.0108388 0)
(-0.000185803 -0.011094 0)
(-0.000200933 -0.0113341 0)
(-0.000216675 -0.0115592 0)
(-0.000233044 -0.0117691 0)
(-0.000250031 -0.0119639 0)
(-0.000267653 -0.0121434 0)
(-0.000285898 -0.0123078 0)
(-0.00030479 -0.0124568 0)
(-0.000324313 -0.0125905 0)
(-0.000344492 -0.0127089 0)
(-0.000365266 -0.0128118 0)
(-0.000386612 -0.0128993 0)
(-0.000408618 -0.0129712 0)
(-0.000432203 -0.0130277 0)
(-0.000459019 -0.0130686 0)
(-0.000484779 -0.013095 0)
(-0.000505801 -0.0131102 0)
(-0.000525292 -0.0131172 0)
(-0.000557841 -0.0131225 0)
(-0.000597814 -0.0131266 0)
(-0.000641264 -0.0131129 0)
(-0.000651671 -0.0130576 0)
(-0.000666375 -0.0129861 0)
(-0.000690579 -0.0129034 0)
(-0.000716531 -0.0128107 0)
(-5.4344e-08 -0.00030546 0)
(-5.97793e-07 -0.000902314 0)
(-1.73323e-06 -0.00148507 0)
(-3.46176e-06 -0.00205369 0)
(-5.77331e-06 -0.00260814 0)
(-8.66462e-06 -0.00314836 0)
(-1.21368e-05 -0.00367433 0)
(-1.61921e-05 -0.004186 0)
(-2.08321e-05 -0.00468333 0)
(-2.60587e-05 -0.00516628 0)
(-3.18734e-05 -0.00563482 0)
(-3.82785e-05 -0.00608889 0)
(-4.52754e-05 -0.00652847 0)
(-5.28668e-05 -0.00695351 0)
(-6.10539e-05 -0.00736396 0)
(-6.984e-05 -0.0077598 0)
(-7.92261e-05 -0.00814098 0)
(-8.9216e-05 -0.00850745 0)
(-9.98102e-05 -0.00885919 0)
(-0.000111014 -0.00919614 0)
(-0.000122826 -0.00951827 0)
(-0.000135253 -0.00982553 0)
(-0.000148293 -0.0101179 0)
(-0.000161955 -0.0103953 0)
(-0.000176235 -0.0106577 0)
(-0.000191142 -0.0109051 0)
(-0.000206672 -0.0111374 0)
(-0.000222837 -0.0113546 0)
(-0.000239629 -0.0115567 0)
(-0.000257065 -0.0117435 0)
(-0.000275131 -0.0119151 0)
(-0.000293851 -0.0120714 0)
(-0.000313206 -0.0122124 0)
(-0.000333229 -0.012338 0)
(-0.000353877 -0.0124482 0)
(-0.000375148 -0.0125429 0)
(-0.000396972 -0.0126222 0)
(-0.000419733 -0.0126858 0)
(-0.000444538 -0.012734 0)
(-0.000471954 -0.0127669 0)
(-0.000495707 -0.0127868 0)
(-0.000514498 -0.0127969 0)
(-0.00054073 -0.0128025 0)
(-0.000578079 -0.0128081 0)
(-0.00062294 -0.0128089 0)
(-0.000648684 -0.0127797 0)
(-0.000657064 -0.0127266 0)
(-0.000678079 -0.0126619 0)
(-0.000703817 -0.0125865 0)
(-0.000729394 -0.0125013 0)
(-5.30565e-08 -0.000301899 0)
(-6.0437e-07 -0.000891591 0)
(-1.76179e-06 -0.00146715 0)
(-3.52783e-06 -0.00202854 0)
(-5.89227e-06 -0.00257572 0)
(-8.8518e-06 -0.00310865 0)
(-1.24072e-05 -0.00362729 0)
(-1.65609e-05 -0.00413161 0)
(-2.13141e-05 -0.00462156 0)
(-2.66689e-05 -0.00509711 0)
(-3.26262e-05 -0.00555821 0)
(-3.91886e-05 -0.00600482 0)
(-4.63567e-05 -0.00643691 0)
(-5.41337e-05 -0.00685444 0)
(-6.25199e-05 -0.00725735 0)
(-7.1519e-05 -0.00764562 0)
(-8.1131e-05 -0.0080192 0)
(-9.13602e-05 -0.00837805 0)
(-0.000102206 -0.00872213 0)
(-0.000113674 -0.0090514 0)
(-0.000125762 -0.00936581 0)
(-0.000138478 -0.00966533 0)
(-0.000151817 -0.00994991 0)
(-0.000165789 -0.0102195 0)
(-0.00018039 -0.0104741 0)
(-0.000195629 -0.0107136 0)
(-0.0002115 -0.010938 0)
(-0.000228015 -0.0111473 0)
(-0.000245166 -0.0113413 0)
(-0.000262969 -0.0115202 0)
(-0.00028141 -0.0116837 0)
(-0.000300512 -0.011832 0)
(-0.000320262 -0.0119648 0)
(-0.000340678 -0.0120823 0)
(-0.00036169 -0.0121842 0)
(-0.000383244 -0.0122707 0)
(-0.00040547 -0.0123416 0)
(-0.000429578 -0.012397 0)
(-0.000457915 -0.0124369 0)
(-0.000484841 -0.0124624 0)
(-0.000506296 -0.012477 0)
(-0.000526813 -0.0124838 0)
(-0.00056086 -0.0124895 0)
(-0.000602073 -0.0124946 0)
(-0.000643226 -0.0124871 0)
(-0.000651081 -0.0124519 0)
(-0.000666672 -0.0124036 0)
(-0.000690951 -0.0123446 0)
(-0.000716639 -0.0122754 0)
(-0.000741415 -0.0121968 0)
(-5.85712e-08 -0.000298088 0)
(-6.33287e-07 -0.00088017 0)
(-1.83098e-06 -0.00144812 0)
(-3.65171e-06 -0.00200191 0)
(-6.08474e-06 -0.00254149 0)
(-9.12599e-06 -0.00306681 0)
(-1.27768e-05 -0.00357784 0)
(-1.70386e-05 -0.00407454 0)
(-2.19133e-05 -0.00455685 0)
(-2.74018e-05 -0.00502475 0)
(-3.35063e-05 -0.00547819 0)
(-4.02273e-05 -0.00591713 0)
(-4.75675e-05 -0.00634152 0)
(-5.55272e-05 -0.00675133 0)
(-6.41097e-05 -0.00714651 0)
(-7.33147e-05 -0.00752702 0)
(-8.31462e-05 -0.00789282 0)
(-9.36034e-05 -0.00824387 0)
(-0.000104691 -0.00858012 0)
(-0.000116408 -0.00890154 0)
(-0.00012876 -0.00920807 0)
(-0.000141743 -0.00949969 0)
(-0.000155367 -0.00977634 0)
(-0.000169625 -0.010038 0)
(-0.00018453 -0.0102846 0)
(-0.00020007 -0.0105161 0)
(-0.000216263 -0.0107324 0)
(-0.000233095 -0.0109336 0)
(-0.000250585 -0.0111196 0)
(-0.000268715 -0.0112903 0)
(-0.000287511 -0.0114457 0)
(-0.000306951 -0.0115857 0)
(-0.00032707 -0.0117103 0)
(-0.00034781 -0.0118195 0)
(-0.000369158 -0.0119132 0)
(-0.000391042 -0.0119914 0)
(-0.000414015 -0.012054 0)
(-0.000439676 -0.0121011 0)
(-0.00046798 -0.012133 0)
(-0.000492184 -0.0121522 0)
(-0.000511097 -0.0121618 0)
(-0.000538993 -0.0121676 0)
(-0.00057714 -0.0121738 0)
(-0.000622399 -0.0121771 0)
(-0.000643075 -0.0121611 0)
(-0.000652097 -0.0121289 0)
(-0.000673458 -0.012086 0)
(-0.000698899 -0.0120326 0)
(-0.000724082 -0.0119693 0)
(-0.000748313 -0.011897 0)
(-5.41396e-08 -0.000294344 0)
(-6.25735e-07 -0.000868904 0)
(-1.82806e-06 -0.00142931 0)
(-3.6639e-06 -0.00197552 0)
(-6.12291e-06 -0.00250749 0)
(-9.20084e-06 -0.00302518 0)
(-1.2899e-05 -0.00352856 0)
(-1.72186e-05 -0.00401758 0)
(-2.21617e-05 -0.0044922 0)
(-2.77289e-05 -0.00495237 0)
(-3.39222e-05 -0.00539807 0)
(-4.0742e-05 -0.00582924 0)
(-4.81907e-05 -0.00624585 0)
(-5.62685e-05 -0.00664785 0)
(-6.49783e-05 -0.0070352 0)
(-7.43197e-05 -0.00740785 0)
(-8.42962e-05 -0.00776578 0)
(-9.49069e-05 -0.00810893 0)
(-0.000106156 -0.00843727 0)
(-0.000118042 -0.00875074 0)
(-0.00013057 -0.00904932 0)
(-0.000143737 -0.00933295 0)
(-0.00015755 -0.00960159 0)
(-0.000172005 -0.0098552 0)
(-0.000187109 -0.0100937 0)
(-0.000202858 -0.0103172 0)
(-0.00021926 -0.0105254 0)
(-0.000236308 -0.0107185 0)
(-0.000254014 -0.0108963 0)
(-0.000272368 -0.0110588 0)
(-0.000291386 -0.011206 0)
(-0.000311061 -0.0113379 0)
(-0.000331403 -0.0114543 0)
(-0.000352335 -0.0115552 0)
(-0.000373764 -0.0116407 0)
(-0.000395861 -0.0117106 0)
(-0.000420149 -0.0117649 0)
(-0.000449763 -0.0118037 0)
(-0.000477764 -0.0118284 0)
(-0.000499495 -0.0118424 0)
(-0.000520876 -0.011849 0)
(-0.000555737 -0.0118549 0)
(-0.000597659 -0.0118613 0)
(-0.000635387 -0.0118606 0)
(-0.000641367 -0.0118431 0)
(-0.000657585 -0.0118146 0)
(-0.000681627 -0.0117759 0)
(-0.000706773 -0.0117272 0)
(-0.000731076 -0.0116691 0)
(-0.000754647 -0.0116021 0)
(-6.15901e-08 -0.000290408 0)
(-6.59193e-07 -0.000857102 0)
(-1.90235e-06 -0.00140964 0)
(-3.79076e-06 -0.00194798 0)
(-6.31249e-06 -0.00247209 0)
(-9.46358e-06 -0.00298191 0)
(-1.32443e-05 -0.0034774 0)
(-1.76568e-05 -0.00395853 0)
(-2.27014e-05 -0.00442526 0)
(-2.83801e-05 -0.00487753 0)
(-3.46927e-05 -0.00531531 0)
(-4.16417e-05 -0.00573855 0)
(-4.92267e-05 -0.00614722 0)
(-5.74504e-05 -0.00654126 0)
(-6.6312e-05 -0.00692064 0)
(-7.58152e-05 -0.00728532 0)
(-8.5958e-05 -0.00763525 0)
(-9.67453e-05 -0.00797039 0)
(-0.000108174 -0.0082907 0)
(-0.00012025 -0.00859613 0)
(-0.000132969 -0.00888664 0)
(-0.000146339 -0.00916219 0)
(-0.000160353 -0.00942274 0)
(-0.000175022 -0.00966824 0)
(-0.000190336 -0.00989865 0)
(-0.000206309 -0.0101139 0)
(-0.000222926 -0.010314 0)
(-0.000240208 -0.0104989 0)
(-0.000258133 -0.0106686 0)
(-0.000276729 -0.0108229 0)
(-0.000295969 -0.0109618 0)
(-0.000315892 -0.0110854 0)
(-0.000336435 -0.0111936 0)
(-0.000357581 -0.0112863 0)
(-0.00037925 -0.0113634 0)
(-0.000402022 -0.011425 0)
(-0.000427606 -0.0114711 0)
(-0.00045612 -0.0115021 0)
(-0.000480801 -0.0115207 0)
(-0.000499824 -0.0115298 0)
(-0.000528862 -0.0115357 0)
(-0.000567337 -0.0115423 0)
(-0.000612156 -0.0115487 0)
(-0.000628183 -0.0115453 0)
(-0.000637806 -0.0115306 0)
(-0.000659263 -0.011506 0)
(-0.000684204 -0.0114713 0)
(-0.000708819 -0.0114271 0)
(-0.000732618 -0.0113738 0)
(-0.00075589 -0.0113119 0)
(-5.50404e-08 -0.000286515 0)
(-6.41143e-07 -0.000845402 0)
(-1.87484e-06 -0.00139011 0)
(-3.75937e-06 -0.00192061 0)
(-6.28348e-06 -0.00243685 0)
(-9.4431e-06 -0.00293879 0)
(-1.32385e-05 -0.00342639 0)
(-1.76715e-05 -0.00389961 0)
(-2.27428e-05 -0.0043584 0)
(-2.84538e-05 -0.00480273 0)
(-3.48047e-05 -0.00523255 0)
(-4.17972e-05 -0.00564782 0)
(-4.94313e-05 -0.00604849 0)
(-5.7709e-05 -0.00643453 0)
(-6.66297e-05 -0.00680589 0)
(-7.6196e-05 -0.00716254 0)
(-8.64068e-05 -0.00750442 0)
(-9.72652e-05 -0.0078315 0)
(-0.00010877 -0.00814373 0)
(-0.000120923 -0.00844107 0)
(-0.000133724 -0.00872348 0)
(-0.000147177 -0.00899092 0)
(-0.000161278 -0.00924334 0)
(-0.000176032 -0.0094807 0)
(-0.000191435 -0.00970296 0)
(-0.000207494 -0.00991007 0)
(-0.000224202 -0.010102 0)
(-0.000241567 -0.0102787 0)
(-0.000259582 -0.0104401 0)
(-0.000278259 -0.0105862 0)
(-0.000297594 -0.010717 0)
(-0.00031759 -0.0108323 0)
(-0.000338166 -0.0109322 0)
(-0.000359198 -0.0110167 0)
(-0.000380881 -0.0110855 0)
(-0.00040497 -0.0111389 0)
(-0.000435202 -0.0111768 0)
(-0.000463904 -0.0112007 0)
(-0.00048588 -0.0112141 0)
(-0.000507889 -0.0112203 0)
(-0.000542948 -0.0112264 0)
(-0.000585025 -0.0112339 0)
(-0.00061881 -0.0112407 0)
(-0.000623627 -0.0112382 0)
(-0.000640171 -0.0112262 0)
(-0.00066373 -0.0112045 0)
(-0.000688161 -0.0111732 0)
(-0.000711833 -0.0111327 0)
(-0.000734914 -0.0110835 0)
(-0.000757631 -0.0110261 0)
(-6.33052e-08 -0.000282514 0)
(-6.74597e-07 -0.000833395 0)
(-1.94548e-06 -0.0013701 0)
(-3.87488e-06 -0.00189258 0)
(-6.4509e-06 -0.0024008 0)
(-9.66841e-06 -0.00289471 0)
(-1.35284e-05 -0.00337428 0)
(-1.80314e-05 -0.00383946 0)
(-2.3179e-05 -0.00429021 0)
(-2.89707e-05 -0.00472649 0)
(-3.54086e-05 -0.00514824 0)
(-4.24915e-05 -0.00555545 0)
(-5.0222e-05 -0.00594805 0)
(-5.85984e-05 -0.006326 0)
(-6.76241e-05 -0.00668928 0)
(-7.72963e-05 -0.00703783 0)
(-8.76195e-05 -0.0073716 0)
(-9.85897e-05 -0.00769057 0)
(-0.000110213 -0.00799468 0)
(-0.000122483 -0.0082839 0)
(-0.000135408 -0.00855818 0)
(-0.000148979 -0.00881748 0)
(-0.000163208 -0.00906175 0)
(-0.000178083 -0.00929097 0)
(-0.000193618 -0.00950507 0)
(-0.000209797 -0.00970403 0)
(-0.000226639 -0.0098878 0)
(-0.000244122 -0.0100563 0)
(-0.000262274 -0.0102096 0)
(-0.000281065 -0.0103476 0)
(-0.000300537 -0.0104702 0)
(-0.000320622 -0.0105774 0)
(-0.000341297 -0.0106691 0)
(-0.000362462 -0.0107454 0)
(-0.000384715 -0.0108061 0)
(-0.000409961 -0.0108515 0)
(-0.000438778 -0.0108818 0)
(-0.000464122 -0.0108999 0)
(-0.000483167 -0.0109086 0)
(-0.000512632 -0.0109144 0)
(-0.000550865 -0.0109213 0)
(-0.000594436 -0.010931 0)
(-0.000606722 -0.010939 0)
(-0.000616774 -0.0109385 0)
(-0.000638001 -0.0109289 0)
(-0.000662245 -0.0109098 0)
(-0.000686141 -0.0108816 0)
(-0.000709349 -0.0108446 0)
(-0.000732149 -0.0107992 0)
(-0.000754658 -0.0107457 0)
(-5.57974e-08 -0.000278517 0)
(-6.50482e-07 -0.000821395 0)
(-1.90232e-06 -0.00135009 0)
(-3.81419e-06 -0.00186455 0)
(-6.37483e-06 -0.00236474 0)
(-9.57924e-06 -0.00285061 0)
(-1.34281e-05 -0.00332213 0)
(-1.79221e-05 -0.00377926 0)
(-2.30625e-05 -0.00422194 0)
(-2.88491e-05 -0.00465014 0)
(-3.52833e-05 -0.00506382 0)
(-4.23645e-05 -0.00546293 0)
(-5.00942e-05 -0.00584744 0)
(-5.84716e-05 -0.00621729 0)
(-6.74985e-05 -0.00657246 0)
(-7.71735e-05 -0.00691289 0)
(-8.74987e-05 -0.00723854 0)
(-9.84723e-05 -0.00754938 0)
(-0.000110097 -0.00784536 0)
(-0.00012237 -0.00812644 0)
(-0.000135294 -0.00839257 0)
(-0.000148867 -0.00864372 0)
(-0.000163091 -0.00887984 0)
(-0.000177963 -0.0091009 0)
(-0.000193488 -0.00930684 0)
(-0.000209658 -0.00949764 0)
(-0.000226481 -0.00967324 0)
(-0.000243949 -0.0098336 0)
(-0.000262072 -0.00997869 0)
(-0.000280846 -0.0101085 0)
(-0.000300273 -0.0102229 0)
(-0.000320271 -0.0103219 0)
(-0.000340705 -0.0104054 0)
(-0.000361764 -0.0104735 0)
(-0.00038525 -0.0105261 0)
(-0.000415078 -0.0105632 0)
(-0.000443834 -0.0105867 0)
(-0.00046619 -0.0105994 0)
(-0.000488538 -0.0106054 0)
(-0.000523332 -0.0106115 0)
(-0.000565021 -0.01062 0)
(-0.000595082 -0.0106337 0)
(-0.000599216 -0.0106434 0)
(-0.000615755 -0.0106445 0)
(-0.000638673 -0.0106367 0)
(-0.00066231 -0.0106199 0)
(-0.000685277 -0.0105942 0)
(-0.000707773 -0.0105602 0)
(-0.000730007 -0.0105181 0)
(-0.000752005 -0.0104683 0)
(-6.37531e-08 -0.0002745 0)
(-6.80491e-07 -0.000809333 0)
(-1.96248e-06 -0.00132997 0)
(-3.90902e-06 -0.00183637 0)
(-6.50712e-06 -0.00232849 0)
(-9.75233e-06 -0.00280628 0)
(-1.36441e-05 -0.00326972 0)
(-1.81841e-05 -0.00371875 0)
(-2.33717e-05 -0.00415334 0)
(-2.92085e-05 -0.00457344 0)
(-3.5693e-05 -0.00497902 0)
(-4.28274e-05 -0.00537003 0)
(-5.06095e-05 -0.00574642 0)
(-5.90422e-05 -0.00610817 0)
(-6.81223e-05 -0.00645522 0)
(-7.78536e-05 -0.00678753 0)
(-8.82317e-05 -0.00710507 0)
(-9.92619e-05 -0.0074078 0)
(-0.000110938 -0.00769566 0)
(-0.000123266 -0.00796863 0)
(-0.000136239 -0.00822666 0)
(-0.000149866 -0.00846971 0)
(-0.000164134 -0.00869774 0)
(-0.000179059 -0.0089107 0)
(-0.000194621 -0.00910857 0)
(-0.000210841 -0.00929129 0)
(-0.000227695 -0.00945883 0)
(-0.00024521 -0.00961116 0)
(-0.000263357 -0.00974822 0)
(-0.000282176 -0.00986998 0)
(-0.0003016 -0.00997641 0)
(-0.000321592 -0.0100675 0)
(-0.000342018 -0.0101431 0)
(-0.000363492 -0.0102033 0)
(-0.00038823 -0.0102481 0)
(-0.000417648 -0.010278 0)
(-0.000443987 -0.0102957 0)
(-0.000462979 -0.010304 0)
(-0.000492203 -0.0103096 0)
(-0.000529665 -0.0103168 0)
(-0.000571539 -0.0103296 0)
(-0.000581154 -0.0103468 0)
(-0.000591301 -0.0103575 0)
(-0.000612 -0.0103598 0)
(-0.000635397 -0.0103533 0)
(-0.000658461 -0.0103383 0)
(-0.000680953 -0.0103149 0)
(-0.000703143 -0.0102834 0)
(-0.000725128 -0.0102443 0)
(-0.000746892 -0.0101976 0)
(-5.64115e-08 -0.000270444 0)
(-6.54561e-07 -0.000797167 0)
(-1.91252e-06 -0.00130969 0)
(-3.83312e-06 -0.00180798 0)
(-6.40432e-06 -0.00229199 0)
(-9.62142e-06 -0.00276168 0)
(-1.3484e-05 -0.00321701 0)
(-1.79935e-05 -0.00365793 0)
(-2.31494e-05 -0.00408441 0)
(-2.89528e-05 -0.0044964 0)
(-3.54027e-05 -0.00489386 0)
(-4.25003e-05 -0.00527675 0)
(-5.02443e-05 -0.00564503 0)
(-5.8636e-05 -0.00599866 0)
(-6.76735e-05 -0.0063376 0)
(-7.73586e-05 -0.0066618 0)
(-8.76888e-05 -0.00697123 0)
(-9.86664e-05 -0.00726584 0)
(-0.000110288 -0.00754559 0)
(-0.000122556 -0.00781045 0)
(-0.000135467 -0.00806038 0)
(-0.000149025 -0.00829532 0)
(-0.000163223 -0.00851524 0)
(-0.000178066 -0.00872011 0)
(-0.000193548 -0.00890988 0)
(-0.000209674 -0.00908451 0)
(-0.000226436 -0.00924395 0)
(-0.000243843 -0.00938818 0)
(-0.000261891 -0.00951715 0)
(-0.000280582 -0.00963081 0)
(-0.000299838 -0.00972914 0)
(-0.000319535 -0.00981207 0)
(-0.000339823 -0.00987957 0)
(-0.000362339 -0.00993164 0)
(-0.000390719 -0.00996841 0)
(-0.000418924 -0.00999158 0)
(-0.000441967 -0.0100039 0)
(-0.000464358 -0.0100095 0)
(-0.000498566 -0.0100154 0)
(-0.000539395 -0.0100248 0)
(-0.000566455 -0.0100441 0)
(-0.000570096 -0.010063 0)
(-0.000586347 -0.0100744 0)
(-0.00060853 -0.0100776 0)
(-0.000631351 -0.0100724 0)
(-0.000653585 -0.010059 0)
(-0.00067545 -0.0100376 0)
(-0.000697134 -0.0100085 0)
(-0.000718659 -0.00997198 0)
(-0.000739989 -0.0099283 0)
(-6.3091e-08 -0.000266452 0)
(-6.77829e-07 -0.000785173 0)
(-1.95699e-06 -0.00128968 0)
(-3.89944e-06 -0.00177994 0)
(-6.49293e-06 -0.00225591 0)
(-9.73147e-06 -0.00271755 0)
(-1.36158e-05 -0.00316482 0)
(-1.81453e-05 -0.00359768 0)
(-2.33214e-05 -0.0040161 0)
(-2.91424e-05 -0.00442002 0)
(-3.56101e-05 -0.00480942 0)
(-4.27218e-05 -0.00518425 0)
(-5.04801e-05 -0.00554447 0)
(-5.88814e-05 -0.00589004 0)
(-6.79293e-05 -0.00622092 0)
(-7.76186e-05 -0.00653708 0)
(-8.79546e-05 -0.00683846 0)
(-9.89298e-05 -0.00712504 0)
(-0.000110552 -0.00739677 0)
(-0.000122811 -0.00765362 0)
(-0.000135717 -0.00789553 0)
(-0.000149256 -0.00812249 0)
(-0.000163444 -0.00833444 0)
(-0.00017826 -0.00853135 0)
(-0.000193725 -0.00871318 0)
(-0.000209813 -0.00887989 0)
(-0.000226553 -0.00903145 0)
(-0.000243913 -0.00916782 0)
(-0.000261938 -0.00928896 0)
(-0.000280556 -0.00939484 0)
(-0.000299715 -0.00948541 0)
(-0.000319224 -0.00956065 0)
(-0.000339712 -0.00962053 0)
(-0.000363861 -0.0096651 0)
(-0.000394413 -0.0096947 0)
(-0.00042227 -0.00971227 0)
(-0.000441169 -0.00972022 0)
(-0.000469583 -0.0097256 0)
(-0.000505783 -0.00973281 0)
(-0.000545857 -0.00974789 0)
(-0.000553787 -0.00977197 0)
(-0.000563672 -0.00979096 0)
(-0.000583612 -0.0098024 0)
(-0.000606066 -0.0098059 0)
(-0.000628228 -0.00980142 0)
(-0.000649914 -0.00978915 0)
(-0.000671384 -0.00976931 0)
(-0.000692725 -0.00974213 0)
(-0.000713916 -0.00970783 0)
(-0.000734923 -0.00966666 0)
(-5.71946e-08 -0.000262376 0)
(-6.56009e-07 -0.000772959 0)
(-1.91332e-06 -0.00126934 0)
(-3.83086e-06 -0.00175148 0)
(-6.39675e-06 -0.00221934 0)
(-9.60504e-06 -0.00267288 0)
(-1.3456e-05 -0.00311206 0)
(-1.79491e-05 -0.00353683 0)
(-2.30852e-05 -0.00394717 0)
(-2.88628e-05 -0.00434301 0)
(-3.52827e-05 -0.00472434 0)
(-4.23429e-05 -0.0050911 0)
(-5.00445e-05 -0.00544326 0)
(-5.83849e-05 -0.00578078 0)
(-6.73658e-05 -0.00610361 0)
(-7.69835e-05 -0.00641172 0)
(-8.72405e-05 -0.00670507 0)
(-9.81322e-05 -0.00698361 0)
(-0.000109662 -0.00724732 0)
(-0.000121824 -0.00749614 0)
(-0.000134623 -0.00773005 0)
(-0.000148051 -0.00794899 0)
(-0.000162114 -0.00815294 0)
(-0.000176803 -0.00834185 0)
(-0.000192127 -0.00851569 0)
(-0.000208072 -0.00867442 0)
(-0.000224653 -0.008818 0)
(-0.000241858 -0.00894639 0)
(-0.000259699 -0.00905956 0)
(-0.000278102 -0.00915746 0)
(-0.000296965 -0.00924006 0)
(-0.000316367 -0.0093073 0)
(-0.000337656 -0.00935918 0)
(-0.000364001 -0.00939587 0)
(-0.000391577 -0.00941906 0)
(-0.000415804 -0.00943118 0)
(-0.000437984 -0.00943643 0)
(-0.000471342 -0.009442 0)
(-0.000510896 -0.00945169 0)
(-0.00053587 -0.00947473 0)
(-0.000539025 -0.00950017 0)
(-0.000554742 -0.0095191 0)
(-0.000576123 -0.00953069 0)
(-0.000598118 -0.00953466 0)
(-0.000619602 -0.00953104 0)
(-0.000640795 -0.00952001 0)
(-0.000661876 -0.00950175 0)
(-0.00068286 -0.00947647 0)
(-0.000703709 -0.00944439 0)
(-0.000724391 -0.0094057 0)
(-6.14061e-08 -0.000258423 0)
(-6.68377e-07 -0.000761075 0)
(-1.93325e-06 -0.00124951 0)
(-3.85606e-06 -0.00172369 0)
(-6.42328e-06 -0.00218357 0)
(-9.63032e-06 -0.00262914 0)
(-1.34753e-05 -0.00306034 0)
(-1.796e-05 -0.00347713 0)
(-2.3082e-05 -0.00387949 0)
(-2.8843e-05 -0.00426737 0)
(-3.52395e-05 -0.00464073 0)
(-4.22741e-05 -0.00499954 0)
(-4.99418e-05 -0.00534375 0)
(-5.82467e-05 -0.00567334 0)
(-6.71822e-05 -0.00598825 0)
(-7.67538e-05 -0.00628845 0)
(-8.69528e-05 -0.00657391 0)
(-9.77875e-05 -0.00684458 0)
(-0.000109246 -0.00710043 0)
(-0.00012134 -0.00734141 0)
(-0.000134054 -0.0075675 0)
(-0.000147405 -0.00777865 0)
(-0.000161372 -0.00797482 0)
(-0.000175977 -0.00815598 0)
(-0.000191193 -0.00832209 0)
(-0.000207053 -0.00847312 0)
(-0.000223523 -0.00860903 0)
(-0.000240659 -0.00872978 0)
(-0.000258391 -0.00883534 0)
(-0.000276661 -0.00892568 0)
(-0.000295196 -0.00900076 0)
(-0.000314544 -0.00906055 0)
(-0.000337725 -0.0091051 0)
(-0.000369946 -0.00913463 0)
(-0.000400268 -0.00915222 0)
(-0.000419391 -0.00915995 0)
(-0.000446889 -0.00916494 0)
(-0.000481792 -0.00917196 0)
(-0.000520513 -0.00918849 0)
(-0.000527466 -0.00921745 0)
(-0.000536665 -0.0092424 0)
(-0.000555656 -0.00926057 0)
(-0.000577099 -0.00927153 0)
(-0.000598308 -0.00927523 0)
(-0.000619117 -0.00927177 0)
(-0.00063978 -0.00926132 0)
(-0.000660375 -0.00924406 0)
(-0.000680879 -0.00922014 0)
(-0.000701256 -0.00918974 0)
(-0.000721477 -0.00915306 0)
(-5.79491e-08 -0.000254381 0)
(-6.55037e-07 -0.000748962 0)
(-1.90585e-06 -0.00122934 0)
(-3.81097e-06 -0.00169547 0)
(-6.35724e-06 -0.00214734 0)
(-9.53917e-06 -0.00258489 0)
(-1.33553e-05 -0.00300809 0)
(-1.78063e-05 -0.0034169 0)
(-2.28907e-05 -0.00381128 0)
(-2.86089e-05 -0.00419119 0)
(-3.49586e-05 -0.0045566 0)
(-4.19407e-05 -0.00490747 0)
(-4.95522e-05 -0.00524376 0)
(-5.77944e-05 -0.00556543 0)
(-6.66634e-05 -0.00587243 0)
(-7.61613e-05 -0.00616474 0)
(-8.62829e-05 -0.00644231 0)
(-9.70314e-05 -0.0067051 0)
(-0.0001084 -0.00695308 0)
(-0.000120393 -0.0071862 0)
(-0.000133002 -0.00740441 0)
(-0.000146234 -0.00760769 0)
(-0.000160076 -0.00779598 0)
(-0.000174539 -0.00796924 0)
(-0.000189605 -0.00812743 0)
(-0.000205293 -0.0082705 0)
(-0.000221584 -0.00839841 0)
(-0.0002385 -0.00851109 0)
(-0.000255967 -0.00860851 0)
(-0.000273898 -0.00869057 0)
(-0.000292274 -0.00875721 0)
(-0.000312189 -0.00880838 0)
(-0.000336594 -0.00884447 0)
(-0.000364309 -0.00886752 0)
(-0.000390488 -0.00887905 0)
(-0.000412304 -0.00888327 0)
(-0.00044451 -0.00888785 0)
(-0.000482275 -0.00889761 0)
(-0.000505954 -0.00892422 0)
(-0.000508631 -0.00895518 0)
(-0.000523648 -0.00897999 0)
(-0.000544184 -0.00899799 0)
(-0.000565349 -0.009009 0)
(-0.000586059 -0.00901308 0)
(-0.000606534 -0.00901037 0)
(-0.000626947 -0.00900101 0)
(-0.000647309 -0.00898517 0)
(-0.000667586 -0.00896297 0)
(-0.000687745 -0.00893457 0)
(-0.00070776 -0.00890013 0)
(-6.06625e-08 -0.000250435 0)
(-6.57783e-07 -0.000737131 0)
(-1.90166e-06 -0.00120963 0)
(-3.79091e-06 -0.00166788 0)
(-6.31319e-06 -0.00211187 0)
(-9.46247e-06 -0.00254154 0)
(-1.32388e-05 -0.00295686 0)
(-1.76413e-05 -0.0033578 0)
(-2.26708e-05 -0.00374432 0)
(-2.83252e-05 -0.00411638 0)
(-3.46053e-05 -0.00447394 0)
(-4.15082e-05 -0.00481697 0)
(-4.90351e-05 -0.00514543 0)
(-5.71819e-05 -0.00545929 0)
(-6.59507e-05 -0.0057585 0)
(-7.53352e-05 -0.00604304 0)
(-8.5339e-05 -0.00631287 0)
(-9.59532e-05 -0.00656794 0)
(-0.000107183 -0.00680823 0)
(-0.000119016 -0.00703369 0)
(-0.000131461 -0.0072443 0)
(-0.000144499 -0.00744002 0)
(-0.000158143 -0.00762081 0)
(-0.000172366 -0.00778663 0)
(-0.000187188 -0.00793746 0)
(-0.000202582 -0.00807325 0)
(-0.000218598 -0.00819398 0)
(-0.000235161 -0.0082996 0)
(-0.000252067 -0.00839009 0)
(-0.000268703 -0.0084654 0)
(-0.000285897 -0.0085255 0)
(-0.000309289 -0.00857041 0)
(-0.000352361 -0.00860028 0)
(-0.000394799 -0.00861816 0)
(-0.000415986 -0.00862581 0)
(-0.000442139 -0.00863032 0)
(-0.000471961 -0.00863674 0)
(-0.000505518 -0.00865316 0)
(-0.000512485 -0.00868488 0)
(-0.000521058 -0.0087138 0)
(-0.000538467 -0.00873676 0)
(-0.000558178 -0.00875329 0)
(-0.000577765 -0.00876328 0)
(-0.000597063 -0.00876679 0)
(-0.000616296 -0.00876392 0)
(-0.000635536 -0.00875477 0)
(-0.000654762 -0.00873947 0)
(-0.00067394 -0.00871814 0)
(-0.000693042 -0.00869092 0)
(-0.000712044 -0.00865795 0)
(-0.000657519 -0.0139473 0)
(-0.000682838 -0.0137994 0)
(-0.000707133 -0.013644 0)
(-0.000730184 -0.0134816 0)
(-0.000752293 -0.0133127 0)
(-0.000773598 -0.0131378 0)
(-0.000794127 -0.0129574 0)
(-0.000813887 -0.012772 0)
(-0.000832895 -0.012582 0)
(-0.000851171 -0.0123879 0)
(-0.000868734 -0.0121901 0)
(-0.000885607 -0.0119891 0)
(-0.000901807 -0.0117852 0)
(-0.000917357 -0.011579 0)
(-0.000932276 -0.0113707 0)
(-0.000946583 -0.0111608 0)
(-0.000960299 -0.0109497 0)
(-0.000973442 -0.0107376 0)
(-0.000986031 -0.0105249 0)
(-0.000998084 -0.010312 0)
(-0.00100962 -0.0100992 0)
(-0.00102066 -0.00988665 0)
(-0.00103121 -0.00967475 0)
(-0.0010413 -0.00946374 0)
(-0.00105094 -0.00925386 0)