/*--------------------------------*- C++ -*----------------------------------*\
| =========                 |                                                 |
| \\      /  F ield         | OpenFOAM: The Open Source CFD Toolbox           |
|  \\    /   O peration     | Version:  2.4.0                                 |
|   \\  /    A nd           | Web:      www.OpenFOAM.org                      |
|    \\/     M anipulation  |                                                 |
\*---------------------------------------------------------------------------*/
FoamFile
{
    version     2.0;
    format      ascii;
    class       volVectorField;
    location    "0.002";
    object      U;
}
// * * * * * * * * * * * * * * * * * * * * * * * * * * * * * * * * * * * * * //

dimensions      [0 1 -1 0 0 0 0];

internalField   nonuniform List<vector> 
125
(
(8.05529e-05 -0.0440743 0)
(7.99115e-05 -0.0440739 0)
(7.92703e-05 -0.0440735 0)
(7.86292e-05 -0.0440731 0)
(7.79883e-05 -0.0440727 0)
(7.73475e-05 -0.0440723 0)
(7.67069e-05 -0.0440719 0)
(7.60665e-05 -0.0440715 0)
(7.54263e-05 -0.0440711 0)
(7.47864e-05 -0.0440707 0)
(7.41467e-05 -0.0440703 0)
(7.35074e-05 -0.04407 0)
(7.28684e-05 -0.0440696 0)
(7.22298e-05 -0.0440692 0)
(7.15917e-05 -0.0440688 0)
(7.0954e-05 -0.0440684 0)
(7.03169e-05 -0.0440681 0)
(6.96804e-05 -0.0440677 0)
(6.90445e-05 -0.0440673 0)
(6.84094e-05 -0.0440669 0)
(6.77751e-05 -0.0440666 0)
(6.71416e-05 -0.0440662 0)
(6.65091e-05 -0.0440658 0)
(6.58776e-05 -0.0440654 0)
(6.52472e-05 -0.0440651 0)
(6.4618e-05 -0.0440647 0)
(6.39901e-05 -0.0440644 0)
(6.33635e-05 -0.044064 0)
(6.27384e-05 -0.0440636 0)
(6.21148e-05 -0.0440633 0)
(6.14929e-05 -0.0440629 0)
(6.08727e-05 -0.0440626 0)
(6.02543e-05 -0.0440622 0)
(5.96379e-05 -0.0440618 0)
(5.90235e-05 -0.0440615 0)
(5.84113e-05 -0.0440611 0)
(5.78013e-05 -0.0440608 0)
(5.71936e-05 -0.0440605 0)
(5.65883e-05 -0.0440601 0)
(5.59856e-05 -0.0440598 0)
(5.53855e-05 -0.0440594 0)
(5.47881e-05 -0.0440591 0)
(5.41935e-05 -0.0440588 0)
(5.36018e-05 -0.0440584 0)
(5.3013e-05 -0.0440581 0)
(5.24273e-05 -0.0440578 0)
(5.18447e-05 -0.0440574 0)
(5.12652e-05 -0.0440571 0)
(5.06889e-05 -0.0440568 0)
(5.01159e-05 -0.0440564 0)
(4.95462e-05 -0.0440561 0)
(4.89799e-05 -0.0440558 0)
(4.8417e-05 -0.0440555 0)
(4.78574e-05 -0.0440552 0)
(4.73014e-05 -0.0440549 0)
(4.67487e-05 -0.0440546 0)
(4.61996e-05 -0.0440542 0)
(4.56538e-05 -0.0440539 0)
(4.51116e-05 -0.0440536 0)
(4.45728e-05 -0.0440533 0)
(4.40374e-05 -0.044053 0)
(4.35054e-05 -0.0440527 0)
(4.29768e-05 -0.0440524 0)
(4.24515e-05 -0.0440521 0)
(4.19296e-05 -0.0440519 0)
(4.14108e-05 -0.0440516 0)
(4.08953e-05 -0.0440513 0)
(4.0383e-05 -0.044051 0)
(3.98737e-05 -0.0440507 0)
(3.93674e-05 -0.0440504 0)
(3.88642e-05 -0.0440502 0)
(3.83636e-05 -0.0440499 0)
(3.78663e-05 -0.0440496 0)
(3.73712e-05 -0.0440493 0)
(3.68795e-05 -0.0440491 0)
(3.63899e-05 -0.0440488 0)
(3.59032e-05 -0.0440485 0)
(3.54189e-05 -0.0440483 0)
(3.49371e-05 -0.044048 0)
(3.44577e-05 -0.0440478 0)
(3.39808e-05 -0.0440475 0)
(3.35063e-05 -0.0440473 0)
(3.30342e-05 -0.044047 0)
(3.25644e-05 -0.0440468 0)
(3.20971e-05 -0.0440465 0)
(3.16321e-05 -0.0440463 0)
(3.11695e-05 -0.0440461 0)
(3.07093e-05 -0.0440458 0)
(3.02515e-05 -0.0440456 0)
(2.97962e-05 -0.0440454 0)
(2.93433e-05 -0.0440451 0)
(2.88929e-05 -0.0440449 0)
(2.8445e-05 -0.0440447 0)
(2.79996e-05 -0.0440445 0)
(2.75568e-05 -0.0440442 0)
(2.71165e-05 -0.044044 0)
(2.66788e-05 -0.0440438 0)
(2.62437e-05 -0.0440436 0)
(2.58112e-05 -0.0440434 0)
(2.53814e-05 -0.0440432 0)
(2.49541e-05 -0.044043 0)
(2.45296e-05 -0.0440428 0)
(2.41076e-05 -0.0440426 0)
(2.36884e-05 -0.0440424 0)
(2.32718e-05 -0.0440422 0)
(2.28578e-05 -0.044042 0)
(2.24464e-05 -0.0440418 0)
(2.20377e-05 -0.0440416 0)
(2.16315e-05 -0.0440415 0)
(2.12279e-05 -0.0440413 0)
(2.08267e-05 -0.0440411 0)
(2.04281e-05 -0.0440409 0)
(2.00319e-05 -0.0440407 0)
(1.96381e-05 -0.0440406 0)
(1.92466e-05 -0.0440404 0)
(1.88573e-05 -0.0440402 0)
(1.84703e-05 -0.0440401 0)
(1.80854e-05 -0.0440399 0)
(1.77025e-05 -0.0440398 0)
(1.73216e-05 -0.0440396 0)
(1.69426e-05 -0.0440395 0)
(1.65656e-05 -0.0440393 0)
(1.61899e-05 -0.0440392 0)
(1.58162e-05 -0.044039 0)
(1.54435e-05 -0.0440389 0)
)
;

boundaryField
{
    BotWall
    {
        type            fixedValue;
        value           nonuniform 0();
    }
    FreeStream
    {
        type            zeroGradient;
    }
    FrontNBack
    {
        type            empty;
    }
    LeftSide
    {
        type            symmetryPlane;
    }
    RightSide
    {
        type            symmetryPlane;
    }
    procBoundary10to7
    {
        type            processor;
        value           nonuniform List<vector> 
50
(
(6.63629e-06 -0.0439845 0)
(6.60666e-06 -0.0439848 0)
(6.57506e-06 -0.043985 0)
(6.54154e-06 -0.0439853 0)
(6.50618e-06 -0.0439855 0)
(6.46905e-06 -0.0439858 0)
(6.43023e-06 -0.043986 0)
(6.3898e-06 -0.0439863 0)
(6.34784e-06 -0.0439865 0)
(6.30444e-06 -0.0439867 0)
(6.25968e-06 -0.043987 0)
(6.21365e-06 -0.0439872 0)
(6.16645e-06 -0.0439874 0)
(6.11815e-06 -0.0439877 0)
(6.06887e-06 -0.0439879 0)
(6.01867e-06 -0.0439881 0)
(5.96766e-06 -0.0439883 0)
(5.91591e-06 -0.0439885 0)
(5.86352e-06 -0.0439887 0)
(5.81056e-06 -0.0439889 0)
(5.7571e-06 -0.0439891 0)
(5.70322e-06 -0.0439893 0)
(5.64898e-06 -0.0439895 0)
(5.59444e-06 -0.0439897 0)
(5.53964e-06 -0.0439899 0)
(5.48463e-06 -0.04399 0)
(5.42943e-06 -0.0439902 0)
(5.37408e-06 -0.0439904 0)
(5.31857e-06 -0.0439906 0)
(5.26291e-06 -0.0439907 0)
(5.20709e-06 -0.0439909 0)
(5.15108e-06 -0.0439911 0)
(5.09485e-06 -0.0439912 0)
(5.03836e-06 -0.0439914 0)
(4.98155e-06 -0.0439915 0)
(4.92436e-06 -0.0439917 0)
(4.86669e-06 -0.0439918 0)
(4.80848e-06 -0.043992 0)
(4.74963e-06 -0.0439921 0)
(4.69005e-06 -0.0439923 0)
(4.62962e-06 -0.0439924 0)
(4.56826e-06 -0.0439925 0)
(4.50585e-06 -0.0439927 0)
(4.44229e-06 -0.0439928 0)
(4.3775e-06 -0.0439929 0)
(4.31138e-06 -0.043993 0)
(4.24404e-06 -0.0439932 0)
(4.17485e-06 -0.0439933 0)
(4.10464e-06 -0.0439934 0)
(4.0323e-06 -0.0439935 0)
)
;
    }
    procBoundary10to8
    {
        type            processor;
        value           nonuniform List<vector> 
75
(
(9.93474e-07 -0.0439522 0)
(1.19336e-06 -0.0439528 0)
(1.38951e-06 -0.0439534 0)
(1.582e-06 -0.043954 0)
(1.77073e-06 -0.0439545 0)
(1.95565e-06 -0.0439551 0)
(2.13671e-06 -0.0439557 0)
(2.3139e-06 -0.0439563 0)
(2.48719e-06 -0.0439568 0)
(2.65658e-06 -0.0439574 0)
(2.82205e-06 -0.043958 0)
(2.98361e-06 -0.0439585 0)
(3.14126e-06 -0.0439591 0)
(3.29502e-06 -0.0439596 0)
(3.44491e-06 -0.0439602 0)
(3.59094e-06 -0.0439607 0)
(3.73316e-06 -0.0439612 0)
(3.87159e-06 -0.0439618 0)
(4.00628e-06 -0.0439623 0)
(4.13727e-06 -0.0439628 0)
(4.26459e-06 -0.0439633 0)
(4.38809e-06 -0.0439638 0)
(4.50854e-06 -0.0439643 0)
(4.62485e-06 -0.0439648 0)
(4.73852e-06 -0.0439653 0)
(4.84824e-06 -0.0439658 0)
(4.95495e-06 -0.0439663 0)
(5.05822e-06 -0.0439668 0)
(5.15828e-06 -0.0439673 0)
(5.25514e-06 -0.0439678 0)
(5.34886e-06 -0.0439682 0)
(5.43949e-06 -0.0439687 0)
(5.52706e-06 -0.0439692 0)
(5.6116e-06 -0.0439696 0)
(5.69313e-06 -0.0439701 0)
(5.77169e-06 -0.0439705 0)
(5.84728e-06 -0.0439709 0)
(5.91993e-06 -0.0439714 0)
(5.98966e-06 -0.0439718 0)
(6.05647e-06 -0.0439722 0)
(6.12039e-06 -0.0439726 0)
(6.18142e-06 -0.0439731 0)
(6.23958e-06 -0.0439735 0)
(6.29487e-06 -0.0439739 0)
(6.34731e-06 -0.0439743 0)
(6.39692e-06 -0.0439747 0)
(6.44369e-06 -0.0439751 0)
(6.48764e-06 -0.0439755 0)
(6.52879e-06 -0.0439758 0)
(6.56714e-06 -0.0439762 0)
(6.60271e-06 -0.0439766 0)
(6.6355e-06 -0.043977 0)
(6.66553e-06 -0.0439773 0)
(6.69281e-06 -0.0439777 0)
(6.71736e-06 -0.043978 0)
(6.73918e-06 -0.0439784 0)
(6.7583e-06 -0.0439787 0)
(6.77472e-06 -0.0439791 0)
(6.78847e-06 -0.0439794 0)
(6.79956e-06 -0.0439797 0)
(6.80802e-06 -0.0439801 0)
(6.81385e-06 -0.0439804 0)
(6.81708e-06 -0.0439807 0)
(6.81774e-06 -0.043981 0)
(6.81584e-06 -0.0439813 0)
(6.81143e-06 -0.0439816 0)
(6.80452e-06 -0.0439819 0)
(6.79515e-06 -0.0439822 0)
(6.78335e-06 -0.0439825 0)
(6.76916e-06 -0.0439828 0)
(6.75262e-06 -0.0439831 0)
(6.73378e-06 -0.0439834 0)
(6.71267e-06 -0.0439837 0)
(6.68935e-06 -0.043984 0)
(6.66387e-06 -0.0439843 0)
)
;
    }
    procBoundary10to9
    {
        type            processor;
        value           uniform (1.50725e-05 -0.0440388 0);
    }
    procBoundary10to11
    {
        type            processor;
        value           uniform (8.11943e-05 -0.0440747 0);
    }
}


// ************************************************************************* //
