/*--------------------------------*- C++ -*----------------------------------*\
| =========                 |                                                 |
| \\      /  F ield         | OpenFOAM: The Open Source CFD Toolbox           |
|  \\    /   O peration     | Version:  2.4.0                                 |
|   \\  /    A nd           | Web:      www.OpenFOAM.org                      |
|    \\/     M anipulation  |                                                 |
\*---------------------------------------------------------------------------*/
FoamFile
{
    version     2.0;
    format      ascii;
    class       volScalarField;
    location    "3.6";
    object      alpha1;
}
// * * * * * * * * * * * * * * * * * * * * * * * * * * * * * * * * * * * * * //

dimensions      [0 0 0 0 0 0 0];

internalField   nonuniform List<scalar> 
8000
(
1
1
1
1
1.00001
1.00002
1.00001
1.00001
0.999999
1.00001
1.00002
1.00003
1.00002
1.00002
1.00003
1.00004
1.00001
0.999998
0.999999
1.00002
1.00004
1.00004
1.00001
0.999972
0.999786
0.999294
0.998647
0.998674
0.998912
0.995798
0.994315
0.998634
0.999918
0.98214
0.948722
0.847135
0.38736
0.0743079
0.0686682
0.0458545
0.0301455
0.0181076
0.0105412
0.00607501
0.0028853
0.0014785
0.000714433
0.000355244
0.000177454
0.000100875
1
1
1
1
1
1
1
1
1
1
1
1
1
1
1
1
1
0.999999
0.999999
0.999999
1
1
1
1
1
1
1
1
1
1
1
1
1
1
1
1
0.999981
0.982677
0.97521
0.818008
0.347815
0.0862856
0.0554972
0.0323734
0.0166687
0.00780135
0.00363109
0.00185654
0.00104163
0.000623343
1
1
1
1
1
1
1
1
1
1
1
1
1
1
1
1
0.999999
0.999999
0.999999
0.999999
0.999999
0.999999
0.999999
0.999999
0.999999
0.999999
1
1
1
1
1
1
1
1
1
1
1
1
1
1
0.999987
0.979521
0.931287
0.749698
0.393994
0.128621
0.0696214
0.0349859
0.016181
0.00797541
1
1
1
1
1
1
1
1
1
1
1
1
1
1
1
0.999999
0.999999
0.999999
0.999999
0.999999
0.999999
0.999999
0.999999
0.999999
0.999999
0.999999
0.999999
0.999999
0.999999
0.999999
0.999999
0.999999
0.999999
0.999999
0.999999
0.999999
1
1
1
1
1
1
1
1
1.00001
0.967537
0.901055
0.55575
0.265761
0.152522
1
1
1
1
1
1
1
1
1
1
1
1
1
1
1
1
0.999999
0.999999
0.999999
0.999999
0.999999
0.999999
0.999999
0.999999
0.999999
0.999999
0.999999
0.999999
0.999999
0.999999
0.999999
0.999999
0.999999
0.999999
0.999999
0.999999
0.999999
0.999999
0.999999
0.999999
0.999999
0.999999
0.999999
0.999999
1
1
1
0.999998
0.970524
0.835786
1
1
1
1
1
1
1
1
1
1
1
1
1
1
1
1
1
1
1
1
1
1
1
1
1
0.999999
0.999999
0.999999
0.999999
0.999999
0.999999
0.999999
0.999999
0.999999
0.999998
0.999998
0.999998
0.999998
0.999998
0.999998
0.999998
0.999997
0.999997
0.999997
0.999998
0.999998
0.999998
0.999999
1
1
1
1
1
1
1
1
1
1
1
1
1
1
1
1
1
1
1
1
1
1
1
1
1
1
1
1
1
0.999999
0.999999
0.999999
0.999999
0.999999
0.999999
0.999999
0.999998
0.999998
0.999998
0.999997
0.999997
0.999997
0.999996
0.999996
0.999996
0.999995
0.999995
0.999995
0.999996
0.999996
0.999998
0.999999
1
1
1
1
1
1
1
1
1
1
1
1
1
1
1
1
1
1
1
1
1
1
1
1
1
1
1
1
1
0.999999
0.999999
0.999999
0.999999
0.999999
0.999999
0.999998
0.999998
0.999998
0.999997
0.999997
0.999997
0.999996
0.999995
0.999995
0.999994
0.999993
0.999993
0.999994
0.999995
0.999997
1
1
1
1
1
1
1
1
1
1
1
1
1
1
1
1
1
1
1
1
1
1
1
1
1
1
1
1
1
1
1
1
1
0.999999
0.999999
0.999999
0.999999
0.999999
0.999999
0.999998
0.999998
0.999997
0.999997
0.999996
0.999995
0.999994
0.999993
0.999994
0.999995
0.999969
1
1
1
1
1
1
1
1
1
1
1
1
1
1
1
1
1
1
1
1
1
1
1
1
1
1
1
1
1
1
1
1
1
1
1
1
1
1
0.999999
0.999999
0.999999
0.999999
0.999998
0.999997
0.999996
0.999996
0.999996
0.999945
0.986943
0.850785
1
1
1
1
1
1
1
1
1
1
1
1
1
1
1
1
1
1
1
1
1
1
1
1
1
1
1
1
1
1
1
1
1
1
1
1
1
1
1
1
0.999999
0.999999
0.999998
0.999998
0.999998
0.999889
0.983751
0.794844
0.432621
0.191346
1
1
1
1
1
1
1
1
1
1
1
1
1
1
1
1
1
1
1
1
1
1
1
1
1
1
1
1
1
1
1
1
1
1
1
1
1
1
1
1
0.999999
0.999998
0.999998
0.999911
0.985363
0.70755
0.341194
0.0927724
0.00675698
0.00517862
1
1
1
1
1
1
1
1
1
1
1
1
1
1
1
1
1
1
1
1
1
1
1
1
1
1
1
1
1
1
1
1
1
1
1
1
1
1
1
0.999999
0.999998
0.999987
0.999453
0.735958
0.254426
0.0349567
0.00367701
0.00195673
7.61831e-05
4.95387e-05
1
1
1
1
1
1
1
1
1
1
1
1
1
1
1
1
1
1
1
1
1
1
1
1
1
1
1
1
1
1
1
1
1
1
1
1
1
1
0.999999
0.999996
0.999893
0.898432
0.314877
0.0261739
0.00167382
0.00063037
5.33398e-05
2.22479e-05
2.32544e-06
1.62936e-06
1
1
1
1
1
1
1
1
1
1
1
1
1
1
1
1
1
1
1
1
1
1
1
1
1
1
1
1
1
1
1
1
1
1
1
1
1
0.999999
0.999998
0.999865
0.732346
0.0614577
0.00165155
0.000421965
7.473e-05
5.80376e-05
4.6812e-05
2.81555e-05
1.84146e-05
1.27017e-05
1
1
1
1
1
1
1
1
1
1
1
1
1
1
1
1
1
1
1
1
1
1
1
1
1
1
1
1
1
1
1
1
1
1
1
1
1
0.999999
0.999999
0.98354
0.292764
0.0026598
8.34557e-05
2.11778e-05
1.41902e-05
1.31172e-05
1.05735e-05
7.10081e-06
5.28938e-06
4.40798e-06
1
1
1
1
1
1
1
1
1
1
1
1
1
1
1
1
1
1
1
1
1
1
1
1
1
1
1
1
1
1
1
1
1
1
1
1
1
1
0.999998
0.999797
0.605419
0.030323
0.0121674
0.00124291
0.000526339
3.82476e-05
1.03415e-05
3.41039e-07
1.84971e-07
8.63728e-08
1
1
1
1
1
1
1
1
1
1
1
1
1
1
1
1
1
1
1
1
1
1
1
1
1
1
1
1
1
1
1
1
1
1
1
1
1
1
1
0.999999
0.999968
0.99968
0.370174
0.0376034
0.0268563
0.00254872
0.00168488
7.79408e-05
3.84772e-05
1.02589e-07
1
1
1
1
1
1
1
1
1
1
1
1
1
1
1
1
1
1
1
1
1
1
1
1
1
1
1
1
1
1
1
1
1
1
1
1
1
0.999999
0.999999
0.999999
0.999997
0.999995
0.999942
0.968986
0.538321
0.0740971
0.0781369
0.0110506
0.00714038
1.10354e-07
1
1
1
1
1
1
1
1
1
1
1
1
1
1
1
1
1
1
1
1
1
1
1
1
1
1
1
1
1
1
1
1
1
1
1
1
1
0.999999
0.999999
0.999999
0.999999
0.999999
0.999999
1
0.999975
0.980737
0.896745
0.937079
0.486994
0.00229859
6.16562e-05
4.04651e-05
2.67745e-05
1.50246e-05
4.43682e-06
3.67473e-06
5.7775e-06
1.70366e-05
3.02916e-05
3.03363e-05
2.13479e-05
9.07074e-06
3.15765e-06
1.20425e-06
7.98077e-07
6.03122e-07
3.27284e-07
1.3012e-06
7.02109e-07
5.55531e-07
3.14945e-07
2.1054e-07
1.62616e-07
9.63847e-08
4.69867e-08
2.13654e-08
1.50484e-08
2.78047e-08
7.49071e-08
1.5389e-07
2.82091e-07
4.67423e-07
7.68672e-07
1.35694e-06
3.03344e-06
2.0445e-05
7.93328e-05
7.95577e-05
2.10498e-05
1.58186e-06
3.37932e-07
2.0907e-07
1.33251e-07
1.17174e-07
8.69844e-08
5.50823e-08
3.02035e-08
1.21049e-08
3.54186e-09
7.81124e-10
0.00039647
0.000275018
0.000195217
0.000128373
7.83923e-05
5.07558e-05
3.95779e-05
3.2816e-05
2.46209e-05
1.62906e-05
9.32511e-06
4.13184e-06
1.46097e-06
6.65997e-07
6.60513e-07
6.38918e-07
5.8884e-07
7.28877e-07
7.27e-07
7.63829e-07
4.6465e-06
2.6834e-06
5.58209e-07
3.49481e-07
3.00253e-07
3.7988e-07
5.86212e-07
1.07601e-06
6.10387e-07
4.95141e-07
4.06184e-07
4.02373e-07
4.833e-07
6.51351e-07
6.95292e-07
2.89554e-06
1.13929e-05
2.58533e-05
6.63839e-05
6.64593e-05
4.69068e-05
7.50989e-06
2.07187e-05
6.10878e-05
6.117e-05
3.12978e-05
3.94628e-06
5.01983e-07
7.10772e-07
1.631e-06
0.0042697
0.00247152
0.00153185
0.000934614
0.000523731
0.000273131
0.00013875
7.07844e-05
3.66715e-05
1.92033e-05
9.7619e-06
4.42051e-06
1.11787e-06
9.67856e-07
8.89527e-07
8.4547e-07
8.09133e-07
7.76586e-07
7.30148e-07
1.40963e-06
6.52968e-06
5.6761e-06
2.56494e-06
4.84517e-07
3.92704e-07
3.99134e-07
5.53714e-07
1.07631e-06
6.70676e-07
4.29037e-07
4.229e-07
2.3621e-06
1.00866e-05
4.81456e-06
9.66726e-07
5.09585e-07
5.06056e-07
8.02897e-07
3.58255e-06
6.71887e-06
4.66376e-05
3.17013e-05
1.23996e-05
6.3103e-06
1.85708e-05
4.80579e-05
4.81223e-05
3.72097e-05
9.93296e-06
1.06229e-06
0.0827404
0.0407529
0.0191209
0.0083286
0.00335377
0.00134658
0.000565047
0.000248537
0.000111979
4.97898e-05
2.12066e-05
8.09501e-06
1.60218e-06
1.32783e-06
1.22187e-06
1.17882e-06
1.13683e-06
1.05721e-06
1.13407e-06
5.30388e-06
6.5848e-06
4.77752e-06
1.25314e-06
4.83e-07
5.266e-07
5.48134e-07
6.01971e-07
6.14896e-07
5.19322e-07
4.90315e-07
2.48136e-06
1.09098e-05
1.16257e-05
1.16395e-05
5.41267e-06
7.80489e-07
4.99845e-07
4.97971e-07
4.99803e-07
4.98299e-07
1.63608e-06
1.03986e-05
9.52453e-06
3.76091e-06
8.2896e-07
2.22063e-06
1.8387e-05
2.16078e-05
8.40928e-06
1.28975e-06
0.61764
0.409052
0.252575
0.134625
0.0552859
0.0193768
0.00665146
0.00227068
0.000755538
0.000252843
9.38945e-05
3.73915e-05
1.37674e-05
2.70143e-06
2.31526e-06
2.21407e-06
2.11958e-06
1.95188e-06
5.12564e-06
6.54824e-06
6.52326e-06
2.5196e-06
7.93591e-07
7.86743e-07
8.04017e-07
7.91437e-07
1.06222e-06
4.20571e-06
5.43237e-06
5.4402e-06
5.43055e-06
3.46264e-06
1.29212e-06
1.28382e-06
3.10342e-06
3.46535e-06
3.45196e-06
1.98272e-06
5.11571e-07
4.93587e-07
4.94023e-07
5.08295e-07
1.10001e-06
6.80369e-07
5.93899e-07
5.94001e-07
1.06268e-06
5.56331e-06
3.14032e-06
8.79413e-07
0.995484
0.932766
0.820604
0.616765
0.359928
0.140045
0.0365527
0.00774869
0.0015789
0.000379743
0.000120387
4.6896e-05
1.75538e-05
4.97889e-06
4.2664e-06
5.26225e-06
5.25604e-06
3.82127e-06
2.39927e-06
4.69737e-06
3.1378e-06
1.93433e-06
1.87018e-06
1.68687e-06
1.34559e-06
1.22814e-06
1.19587e-06
3.74502e-06
2.57181e-06
1.22365e-06
1.21699e-06
1.21777e-06
1.21595e-06
1.3033e-06
3.25412e-06
3.45536e-06
1.47907e-06
6.39942e-07
6.32254e-07
3.32402e-06
4.45712e-06
4.46987e-06
1.15936e-06
1.16896e-06
5.77363e-06
8.41057e-06
8.40605e-06
4.10684e-06
2.992e-06
6.89326e-06
1
1
0.995154
0.918107
0.732875
0.319352
0.0679361
0.01025
0.00142983
0.00022108
5.19958e-05
1.90895e-05
6.43347e-06
1.02619e-05
6.3815e-06
5.19524e-06
4.06036e-06
3.05437e-06
2.39803e-06
1.93129e-06
1.92432e-06
1.75468e-06
1.62528e-06
1.50946e-06
1.45884e-06
1.41753e-06
1.37919e-06
1.32266e-06
1.30358e-06
1.25425e-06
1.21595e-06
1.21978e-06
1.27407e-06
1.36039e-06
1.41141e-06
1.27108e-06
2.65983e-06
9.95676e-07
1.56022e-06
3.14778e-06
1.12731e-06
1.47252e-06
1.97569e-06
2.3812e-06
1.32732e-06
1.13735e-06
9.89482e-07
2.86446e-06
3.55337e-06
7.1177e-07
0.999989
0.999976
0.977444
0.823318
0.575219
0.236906
0.0441794
0.00518737
0.000522404
4.53487e-05
8.68374e-06
5.46946e-06
5.99816e-06
7.43034e-06
8.96047e-06
3.25363e-06
3.23558e-06
2.60454e-06
2.20968e-06
1.95202e-06
1.76862e-06
1.6404e-06
1.53322e-06
1.41876e-06
1.30298e-06
1.19603e-06
1.09134e-06
9.88487e-07
8.99148e-07
8.3337e-07
7.95176e-07
7.78982e-07
7.73156e-07
7.68125e-07
7.62008e-07
7.60862e-07
7.72929e-07
7.47146e-07
7.5148e-07
7.42563e-07
7.11356e-07
6.92355e-07
6.76585e-07
6.49372e-07
6.03208e-07
5.8346e-07
5.52341e-07
1.17826e-06
5.70968e-07
4.40137e-07
0.992374
0.868203
0.628995
0.311238
0.0817811
0.0140933
0.00111735
4.66386e-05
6.20539e-06
4.80112e-06
4.88657e-06
4.88849e-06
6.03848e-06
8.73081e-06
7.92146e-06
3.09143e-06
2.80344e-06
2.51615e-06
2.25671e-06
2.01947e-06
1.87701e-06
1.76513e-06
1.66031e-06
1.53312e-06
1.39042e-06
1.24883e-06
1.11231e-06
9.91661e-07
8.95561e-07
8.25797e-07
7.61818e-07
6.89407e-07
6.38513e-07
5.98761e-07
5.61735e-07
5.27075e-07
4.98019e-07
4.72973e-07
4.50989e-07
4.26964e-07
4.01391e-07
3.74419e-07
3.49574e-07
3.28865e-07
3.17332e-07
3.12935e-07
3.08992e-07
3.00917e-07
3.16121e-07
3.01269e-07
0.574973
0.261827
0.0768709
0.0174801
0.000567075
9.70773e-05
5.22396e-06
4.07511e-06
3.95278e-06
3.55155e-06
4.51276e-06
5.4807e-06
5.21544e-06
3.60455e-06
3.61205e-06
4.60388e-06
3.22056e-06
2.6859e-06
2.421e-06
2.29366e-06
2.26991e-06
2.27685e-06
1.99461e-06
1.72065e-06
1.7155e-06
1.5949e-06
1.50658e-06
1.39209e-06
1.91283e-06
1.85522e-06
9.30205e-07
1.185e-06
1.17812e-06
1.19848e-06
1.14804e-06
9.68627e-07
7.93606e-07
7.16245e-07
6.94303e-07
6.63628e-07
5.7703e-07
4.54863e-07
4.78479e-07
3.83805e-07
3.1633e-07
2.70056e-07
2.39484e-07
2.2239e-07
2.18802e-07
2.24615e-07
0.0262341
0.00670067
0.000335673
8.08543e-05
3.85102e-06
3.85245e-06
6.88308e-06
5.28476e-06
1.83906e-06
1.77846e-06
1.8887e-06
1.89348e-06
5.74057e-06
1.38379e-05
1.87322e-05
1.12347e-05
2.82882e-06
2.27537e-06
2.08416e-06
2.14063e-06
2.5138e-06
3.1325e-06
6.99998e-06
1.06953e-05
4.52423e-06
2.57339e-06
1.85515e-06
1.76331e-06
1.76801e-06
2.5439e-06
1.48127e-06
1.74873e-06
1.82131e-06
2.6144e-06
4.14084e-06
3.57067e-06
2.10727e-06
1.70737e-06
1.41693e-06
1.32084e-06
1.16665e-06
2.38755e-06
1.20538e-06
1.12887e-06
9.40606e-07
7.81359e-07
5.00764e-07
6.2939e-07
4.83889e-07
2.59088e-06
4.49894e-05
2.86905e-05
5.36015e-06
8.53954e-06
1.09738e-05
9.292e-06
1.7301e-06
1.67534e-06
1.74596e-06
6.7327e-06
1.101e-05
1.08725e-05
5.72344e-06
6.75436e-06
1.87854e-05
1.96415e-05
1.90841e-05
5.02863e-06
1.61521e-06
1.61521e-06
1.61647e-06
1.94496e-06
9.59768e-06
1.7591e-05
1.75749e-05
1.41472e-05
2.51081e-06
1.6938e-06
1.69381e-06
1.72024e-06
1.67227e-06
1.67906e-06
5.70604e-06
1.87764e-05
2.39402e-05
2.39204e-05
9.12297e-06
2.00763e-06
1.82651e-06
1.69281e-06
1.72301e-06
2.07094e-06
1.65738e-06
1.58913e-06
1.99201e-06
3.02528e-06
4.13876e-06
3.49847e-06
5.23619e-06
7.44585e-06
1.60318e-06
1.59596e-06
1.80597e-06
2.19228e-06
9.41488e-06
1.10583e-05
7.01238e-06
1.67422e-06
1.50415e-06
1.69932e-06
4.02105e-06
1.08001e-05
5.7415e-06
1.70674e-06
1.7171e-06
4.35494e-06
1.28322e-05
6.86898e-06
1.61634e-06
1.616e-06
2.04522e-06
1.02878e-05
1.75883e-05
1.75843e-05
8.50205e-06
1.69813e-06
1.69739e-06
1.69753e-06
3.30173e-06
1.42712e-05
1.97269e-05
1.9742e-05
1.97313e-05
1.08117e-05
4.11995e-06
4.46735e-06
1.41927e-05
1.6705e-05
1.67077e-05
1.64594e-05
7.01817e-06
3.67635e-06
2.91465e-06
2.11204e-06
2.0304e-06
2.11e-06
4.34415e-06
6.87482e-06
6.85891e-06
4.02935e-06
1.62117e-06
1.58293e-06
1.61966e-06
1.57992e-06
1.57e-06
2.18468e-06
5.06458e-06
2.0641e-06
1.43814e-06
4.26782e-06
4.5922e-06
4.59889e-06
1.88002e-06
1.55117e-06
3.63639e-06
4.10525e-06
2.47448e-06
1.61199e-06
1.62254e-06
1.61519e-06
3.89084e-06
2.26514e-06
2.22204e-06
2.18102e-06
2.30146e-06
2.28222e-06
1.78091e-06
3.8106e-06
2.1431e-06
2.10387e-06
2.42111e-06
3.10655e-06
3.615e-06
3.45825e-06
4.69018e-06
3.67452e-06
1.89231e-06
1.8626e-06
4.48524e-06
1.12133e-05
5.41601e-06
1.32446e-06
1.32302e-06
3.54484e-06
6.96975e-06
6.96302e-06
4.70603e-06
1.3327e-06
1.20451e-06
1.2525e-06
8.91059e-06
6.09799e-06
3.93848e-06
2.19642e-06
7.43339e-07
6.277e-07
7.16449e-07
6.96903e-07
6.00761e-07
4.50193e-07
2.96506e-06
2.474e-06
9.23912e-07
4.54559e-07
5.65662e-07
6.31361e-07
5.345e-07
4.78858e-07
8.03677e-07
4.39072e-06
5.01637e-06
4.90278e-06
1.78346e-06
6.17954e-07
6.1165e-07
6.11374e-07
6.11807e-07
2.27933e-06
7.02858e-06
7.07893e-06
5.33465e-06
1.31473e-06
8.1377e-07
8.13204e-07
8.133e-07
4.3663e-06
3.01344e-06
1.13649e-06
4.36048e-07
5.85363e-07
6.41379e-07
6.70519e-07
7.17163e-07
7.98141e-07
8.75883e-07
9.20659e-07
9.00968e-07
9.726e-07
7.05917e-07
7.46112e-07
3.84869e-06
3.12194e-06
2.25552e-06
1.34665e-06
4.39547e-07
4.30013e-07
4.24132e-07
4.21222e-07
4.20823e-07
4.24947e-07
4.42047e-07
4.47442e-07
4.46376e-07
4.49941e-07
4.59114e-07
4.69292e-07
4.75159e-07
4.77472e-07
8.10869e-07
2.58154e-06
1.21006e-06
6.18557e-07
6.13065e-07
6.12564e-07
6.11357e-07
6.11129e-07
6.40865e-07
2.84745e-06
7.04754e-06
4.0466e-06
9.21217e-07
8.11124e-07
8.11022e-07
2.1482e-06
5.59897e-06
5.60402e-06
3.90522e-06
8.18612e-07
4.1562e-07
4.67344e-07
5.09577e-07
5.40382e-07
5.56638e-07
5.61009e-07
5.56242e-07
5.4556e-07
5.32647e-07
5.21825e-07
5.16952e-07
5.27289e-07
9.31131e-08
1.04742e-07
1.19723e-07
1.35012e-07
1.495e-07
1.57439e-07
1.6069e-07
1.59999e-07
1.55822e-07
1.49574e-07
1.47643e-07
1.66396e-07
2.21586e-07
3.08874e-07
4.15155e-07
4.17233e-07
7.10251e-07
5.91964e-07
9.57121e-07
5.91609e-07
2.21758e-06
1.15503e-06
1.27721e-06
1.17163e-06
1.77904e-06
1.94613e-06
1.71098e-06
1.94288e-06
1.50357e-06
7.50803e-07
1.85172e-06
9.88536e-07
1.21632e-06
1.11968e-06
1.03027e-06
7.64839e-07
4.76872e-07
3.31973e-07
3.03761e-07
2.99847e-07
3.00228e-07
3.02193e-07
3.06546e-07
3.14997e-07
3.29159e-07
3.49702e-07
3.775e-07
4.14596e-07
4.6087e-07
5.174e-07
1.42258e-07
1.65114e-07
1.95847e-07
2.29112e-07
2.61163e-07
2.9155e-07
3.2024e-07
3.4734e-07
3.72936e-07
3.9704e-07
4.19591e-07
4.40679e-07
4.60931e-07
4.80648e-07
4.99069e-07
5.15827e-07
5.35705e-07
5.55311e-07
5.77336e-07
5.84066e-07
6.07804e-07
5.52676e-07
5.35775e-07
5.42372e-07
5.43879e-07
5.09138e-07
4.7109e-07
4.4431e-07
3.85479e-07
3.60207e-07
3.74488e-07
3.35862e-07
3.24028e-07
3.15298e-07
3.06455e-07
3.05399e-07
3.14317e-07
3.31957e-07
3.54305e-07
3.79154e-07
4.05316e-07
4.32002e-07
4.59123e-07
4.87576e-07
5.19036e-07
5.5459e-07
5.918e-07
6.22997e-07
1.24904e-06
3.22603e-07
1.10865e-07
8.77189e-08
6.90116e-08
6.56046e-08
6.38681e-08
6.32363e-08
6.33088e-08
6.41763e-08
6.63617e-08
6.92456e-08
7.26186e-08
7.63042e-08
8.01885e-08
8.426e-08
8.84006e-08
9.25556e-08
9.62996e-08
9.95782e-08
1.02362e-07
1.04512e-07
1.06142e-07
1.06912e-07
1.07886e-07
1.08676e-07
1.0919e-07
1.09446e-07
1.10015e-07
1.10861e-07
1.1168e-07
1.13512e-07
1.15825e-07
1.18026e-07
1.20878e-07
1.24078e-07
1.27603e-07
1.31378e-07
1.3524e-07
1.38999e-07
1.42492e-07
1.45636e-07
1.4847e-07
1.51196e-07
1.54184e-07
1.57866e-07
1.6255e-07
1.68169e-07
1.74232e-07
1.80127e-07
1.85752e-07
1.89927e-07
2.77659e-06
1.46949e-06
4.297e-07
2.51286e-07
1.73828e-07
1.35338e-07
1.03774e-07
5.91353e-08
3.79824e-08
2.68449e-08
1.80049e-08
1.11914e-08
6.58157e-09
3.75362e-09
2.11391e-09
1.1838e-09
6.56889e-10
3.57465e-10
1.88592e-10
9.56487e-11
4.63844e-11
2.14417e-11
9.43394e-12
3.94731e-12
1.56997e-12
5.93552e-13
2.13453e-13
7.32209e-14
2.43115e-14
8.46047e-15
4.27868e-15
4.61428e-15
7.68765e-15
1.39783e-14
2.54231e-14
4.56096e-14
8.05521e-14
1.40012e-13
2.39499e-13
4.03143e-13
6.67703e-13
1.08782e-12
1.74291e-12
2.7452e-12
4.24721e-12
6.44217e-12
9.54086e-12
1.36995e-11
1.89321e-11
2.53133e-11
1.10321e-10
4.36066e-11
1.68969e-11
7.15289e-12
4.1045e-12
3.73805e-12
4.97869e-12
8.43652e-12
1.64305e-11
3.41564e-11
7.22886e-11
1.51809e-10
3.12336e-10
6.25449e-10
1.21438e-09
2.28551e-09
4.16888e-09
7.38338e-09
1.2607e-08
2.1208e-08
3.39506e-08
5.18189e-08
7.53552e-08
1.03158e-07
1.30758e-07
1.51473e-07
1.62542e-07
1.7242e-07
3.62382e-07
2.38127e-07
5.05922e-07
3.45991e-07
3.94084e-07
1.60722e-06
2.97058e-06
2.99555e-06
1.80514e-06
5.54855e-07
5.69739e-07
6.98518e-07
7.04306e-07
6.2172e-07
5.42316e-07
4.67618e-07
3.96018e-07
3.24144e-07
2.44641e-07
1.6946e-07
1.00005e-07
4.70935e-08
2.11057e-08
1.84347e-08
1.29879e-08
7.61896e-09
4.07333e-09
2.14779e-09
1.06593e-09
4.65213e-10
1.68414e-10
5.02273e-11
2.0093e-11
1.87025e-11
1.92079e-11
1.97371e-11
2.0291e-11
2.08705e-11
2.14763e-11
2.21092e-11
2.277e-11
2.34596e-11
2.41785e-11
2.49277e-11
2.57079e-11
2.65198e-11
2.73643e-11
2.82421e-11
2.91539e-11
3.01005e-11
3.10826e-11
3.2101e-11
3.31561e-11
3.42489e-11
3.53797e-11
3.65493e-11
3.77581e-11
3.90066e-11
4.02952e-11
4.16243e-11
4.29941e-11
4.44049e-11
4.58568e-11
4.73497e-11
4.88836e-11
5.04583e-11
5.20734e-11
5.37286e-11
5.54231e-11
5.71564e-11
5.89274e-11
6.07351e-11
6.25783e-11
6.44556e-11
6.63653e-11
6.83057e-11
7.02748e-11
7.22704e-11
7.42901e-11
7.63313e-11
7.83911e-11
8.04666e-11
8.25544e-11
8.46512e-11
8.67533e-11
8.88569e-11
9.09579e-11
9.30521e-11
9.51351e-11
9.72024e-11
9.92493e-11
1.01271e-10
1.03262e-10
1.05218e-10
1.07134e-10
1.09004e-10
1.10824e-10
1.12587e-10
1.14289e-10
1.15925e-10
1.17488e-10
1.18975e-10
1.2038e-10
1.21698e-10
1.22925e-10
1.24055e-10
1.25085e-10
1.26011e-10
1.26828e-10
1.27532e-10
1.28122e-10
1.28593e-10
1.28943e-10
1.2917e-10
1.29272e-10
1.29249e-10
1.29099e-10
1.28821e-10
1.28417e-10
1.27887e-10
1.27232e-10
1.26455e-10
1.25557e-10
1.24543e-10
1.23415e-10
1.22179e-10
1.20838e-10
1.19399e-10
1.17867e-10
1.16248e-10
1.14551e-10
1.12781e-10
1.10948e-10
1.09058e-10
1.07121e-10
1.05144e-10
1.03138e-10
1.0111e-10
9.90698e-11
9.70263e-11
9.49884e-11
9.29651e-11
9.09649e-11
8.89965e-11
8.70679e-11
8.51872e-11
8.33619e-11
8.15992e-11
7.9906e-11
7.82885e-11
7.67527e-11
7.53039e-11
7.3947e-11
7.26865e-11
7.15263e-11
7.04698e-11
6.95199e-11
6.86791e-11
6.79496e-11
6.73328e-11
6.683e-11
6.64421e-11
6.61693e-11
6.60118e-11
6.59691e-11
6.60406e-11
6.6225e-11
6.65206e-11
6.69254e-11
6.74367e-11
6.80514e-11
6.87654e-11
6.95743e-11
7.04727e-11
7.14544e-11
7.25123e-11
7.36384e-11
7.48234e-11
7.60574e-11
7.73289e-11
7.86259e-11
7.99347e-11
8.12409e-11
8.25291e-11
8.3783e-11
8.49855e-11
8.61191e-11
8.7166e-11
8.81081e-11
8.89277e-11
8.96075e-11
9.0131e-11
9.04827e-11
9.06486e-11
9.06164e-11
9.03759e-11
8.99192e-11
8.92406e-11
8.83373e-11
8.72087e-11
8.58568e-11
8.42862e-11
8.25036e-11
8.05182e-11
7.83419e-11
7.59883e-11
7.34733e-11
7.08138e-11
6.80281e-11
6.51351e-11
6.21541e-11
5.91049e-11
5.60071e-11
5.28802e-11
4.97435e-11
4.66159e-11
4.35157e-11
4.04603e-11
3.74662e-11
3.45489e-11
3.17225e-11
2.90001e-11
2.63936e-11
2.39131e-11
2.15676e-11
1.93643e-11
1.73084e-11
1.54032e-11
1.36496e-11
1.20466e-11
1.05908e-11
9.27691e-12
8.09795e-12
7.04582e-12
6.11159e-12
5.28595e-12
4.55953e-12
3.92315e-12
3.36797e-12
2.88561e-12
2.46814e-12
2.10817e-12
1.79878e-12
1.53352e-12
1.30635e-12
1.11164e-12
9.44285e-13
7.99764e-13
6.74278e-13
5.64618e-13
4.68256e-13
3.83747e-13
3.08678e-13
2.41499e-13
1.82522e-13
1.3278e-13
9.26192e-14
6.17057e-14
3.91337e-14
2.35803e-14
1.35053e-14
7.3702e-15
3.83937e-15
1.90455e-15
8.93049e-16
3.92171e-16
1.60029e-16
6.02284e-17
2.0543e-17
6.04146e-18
1.35971e-18
1.7334e-19
3.87943e-06
1.08564e-05
4.32128e-05
0.000141337
0.000199946
0.00019989
0.000115298
2.87862e-05
4.22375e-06
6.76031e-07
5.63337e-07
4.88932e-07
5.59317e-07
7.84593e-07
3.62014e-06
3.69373e-05
0.000101933
0.000101929
6.97844e-05
1.22483e-05
1.13535e-06
4.83863e-07
2.73741e-07
1.86817e-07
1.45154e-07
1.28415e-07
1.27773e-07
1.36177e-07
1.55973e-07
1.71698e-07
2.11978e-07
2.46735e-07
3.17441e-07
4.07091e-07
6.00793e-07
8.60071e-07
1.21455e-06
1.56918e-06
2.06323e-06
4.23796e-06
1.36562e-05
4.28535e-05
0.000134293
0.00035394
0.00043132
0.000434104
0.000433377
0.000252367
6.69424e-05
8.06438e-06
5.97969e-07
7.39515e-07
6.63791e-07
4.49557e-07
2.42371e-07
1.39792e-07
9.11984e-08
5.94408e-08
3.66572e-08
2.07616e-08
1.05816e-08
4.77502e-09
1.88823e-09
6.52054e-10
2.02917e-10
6.77493e-11
3.61094e-11
3.22866e-11
3.45071e-11
3.78503e-11
4.15128e-11
4.54315e-11
4.97657e-11
5.38935e-11
5.81193e-11
6.25457e-11
6.71851e-11
7.205e-11
7.71539e-11
8.25106e-11
8.81343e-11
9.40402e-11
1.00244e-10
1.06762e-10
1.1361e-10
1.20808e-10
1.28374e-10
1.36326e-10
1.44685e-10
1.53472e-10
1.62709e-10
1.72419e-10
1.82625e-10
1.93354e-10
2.0463e-10
2.16481e-10
2.28934e-10
2.42018e-10
2.55764e-10
2.70202e-10
2.85364e-10
3.01282e-10
3.17989e-10
3.3552e-10
3.53907e-10
3.73186e-10
3.9339e-10
4.14553e-10
4.36709e-10
4.5989e-10
4.84129e-10
5.09455e-10
5.35898e-10
5.63486e-10
5.92244e-10
6.22197e-10
6.53366e-10
6.8577e-10
7.19427e-10
7.54349e-10
7.90551e-10
8.28039e-10
8.66821e-10
9.069e-10
9.48277e-10
9.90948e-10
1.03491e-09
1.08015e-09
1.12667e-09
1.17444e-09
1.22346e-09
1.27369e-09
1.32513e-09
1.37774e-09
1.43149e-09
1.48637e-09
1.54233e-09
1.59933e-09
1.65735e-09
1.71633e-09
1.77622e-09
1.83696e-09
1.89849e-09
1.96073e-09
2.02357e-09
2.08691e-09
2.15062e-09
2.21454e-09
2.2785e-09
2.34229e-09
2.40569e-09
2.46844e-09
2.53028e-09
2.59091e-09
2.65004e-09
2.70735e-09
2.76251e-09
2.8152e-09
2.86509e-09
2.91188e-09
2.95523e-09
2.99485e-09
3.03044e-09
3.06171e-09
3.08841e-09
3.1103e-09
3.12719e-09
3.13897e-09
3.14559e-09
3.14712e-09
3.14372e-09
3.1357e-09
3.12349e-09
3.10762e-09
3.08866e-09
3.06722e-09
3.04379e-09
3.01872e-09
2.99212e-09
2.96379e-09
2.9332e-09
2.8995e-09
2.86162e-09
2.81837e-09
2.76862e-09
2.71147e-09
2.64639e-09
2.57336e-09
2.49293e-09
2.40619e-09
2.31467e-09
2.22031e-09
2.1252e-09
2.03154e-09
1.94146e-09
1.85693e-09
1.77968e-09
1.7111e-09
1.65217e-09
1.6034e-09
1.56477e-09
1.5357e-09
1.51518e-09
1.50186e-09
1.49426e-09
1.49105e-09
1.49122e-09
1.49426e-09
1.50014e-09
1.50921e-09
1.52194e-09
1.53871e-09
1.55959e-09
1.58417e-09
1.61168e-09
1.64101e-09
1.67096e-09
1.70041e-09
1.72849e-09
1.7546e-09
1.7784e-09
1.79974e-09
1.81856e-09
1.83476e-09
1.8482e-09
1.85863e-09
1.86576e-09
1.86924e-09
1.86876e-09
1.864e-09
1.85471e-09
1.84072e-09
1.82196e-09
1.79844e-09
1.77028e-09
1.73764e-09
1.70074e-09
1.65983e-09
1.61517e-09
1.56703e-09
1.51565e-09
1.46128e-09
1.40417e-09
1.34457e-09
1.28276e-09
1.21907e-09
1.1538e-09
1.08729e-09
1.0199e-09
9.52029e-10
8.84082e-10
8.16511e-10
7.49795e-10
6.84431e-10
6.20926e-10
5.59776e-10
5.01447e-10
4.46351e-10
3.94826e-10
3.47116e-10
3.03366e-10
2.63625e-10
2.2785e-10
1.95926e-10
1.67676e-10
1.42879e-10
1.21281e-10
1.02605e-10
8.65644e-11
7.28698e-11
6.12386e-11
5.14011e-11
4.31047e-11
3.61168e-11
3.02266e-11
2.52484e-11
2.10242e-11
1.74237e-11
1.43408e-11
1.16876e-11
9.40544e-12
7.44147e-12
5.72914e-12
4.25731e-12
3.03783e-12
2.07075e-12
1.34212e-12
8.24896e-13
4.81505e-13
2.68513e-13
1.43863e-13
7.3992e-14
3.62409e-14
1.67355e-14
7.23815e-15
2.92091e-15
1.08536e-15
3.53764e-16
8.952e-17
1.29737e-17
8.64854e-07
8.68999e-07
1.46089e-06
3.44629e-06
6.22922e-06
2.83831e-05
0.00015018
0.000162922
0.000136643
3.74494e-05
2.39712e-06
1.0642e-06
1.36915e-05
4.16786e-05
4.182e-05
3.6929e-05
1.28371e-05
2.35165e-06
1.41769e-06
3.40005e-06
3.7551e-05
0.000109495
0.000109665
9.80881e-05
3.15261e-05
2.74541e-06
1.73934e-07
2.35331e-07
4.20382e-07
6.04842e-06
1.05241e-05
1.04289e-05
5.83046e-06
9.03293e-07
2.90177e-07
2.81885e-07
2.92513e-07
3.1611e-07
3.39993e-07
1.80727e-06
3.39733e-05
0.000180523
0.000195473
0.000181429
6.24136e-05
6.03676e-06
1.00421e-06
1.16077e-06
9.77792e-07
5.85148e-07
6.76489e-07
5.5357e-06
7.92197e-06
7.89806e-06
3.86925e-06
4.4718e-07
2.20543e-07
1.59868e-07
1.19177e-07
8.31635e-08
5.34745e-08
3.14302e-08
1.67647e-08
8.06491e-09
3.48346e-09
1.35113e-09
4.78802e-10
1.68105e-10
7.42768e-11
5.29812e-11
5.28093e-11
5.81886e-11
6.51519e-11
7.2796e-11
8.10225e-11
8.9922e-11
9.95018e-11
1.09785e-10
1.20807e-10
1.32657e-10
1.45279e-10
1.58811e-10
1.732e-10
1.88281e-10
2.04351e-10
2.21487e-10
2.39754e-10
2.59223e-10
2.79969e-10
3.02071e-10
3.25612e-10
3.50681e-10
3.77371e-10
4.05781e-10
4.36015e-10
4.68182e-10
5.02399e-10
5.38785e-10
5.77468e-10
6.18581e-10
6.62265e-10
7.08666e-10
7.57935e-10
8.10233e-10
8.65725e-10
9.24582e-10
9.86984e-10
1.05311e-09
1.12316e-09
1.19733e-09
1.27581e-09
1.3588e-09
1.44653e-09
1.53919e-09
1.637e-09
1.74018e-09
1.84893e-09
1.96346e-09
2.08399e-09
2.21069e-09
2.34378e-09
2.48342e-09
2.6298e-09
2.78306e-09
2.94337e-09
3.11086e-09
3.28565e-09
3.46787e-09
3.65763e-09
3.85505e-09
4.06026e-09
4.27338e-09
4.49457e-09
4.72403e-09
4.96197e-09
5.20867e-09
5.46446e-09
5.72973e-09
6.00494e-09
6.29059e-09
6.58728e-09
6.89562e-09
7.21627e-09
7.54988e-09
7.8971e-09
8.25849e-09
8.63452e-09
9.0255e-09
9.43154e-09
9.85252e-09
1.0288e-08
1.07374e-08
1.11996e-08
1.16733e-08
1.2157e-08
1.26489e-08
1.3147e-08
1.36495e-08
1.41545e-08
1.46603e-08
1.51656e-08
1.56697e-08
1.61724e-08
1.66746e-08
1.71788e-08
1.76887e-08
1.82107e-08
1.87537e-08
1.93301e-08
1.99561e-08
2.06517e-08
2.14404e-08
2.23482e-08
2.34009e-08
2.46211e-08
2.60228e-08
2.76066e-08
2.93529e-08
3.12172e-08
3.3127e-08
3.49833e-08
3.66663e-08
3.80485e-08
3.90125e-08
3.94725e-08
3.93967e-08
3.88248e-08
3.78768e-08
3.67498e-08
3.57008e-08
3.50149e-08
3.49606e-08
3.57417e-08
3.74627e-08
4.01407e-08
4.37638e-08
4.83477e-08
5.39079e-08
6.0341e-08
6.73245e-08
7.43214e-08
8.06491e-08
8.55792e-08
8.84969e-08
8.9085e-08
8.74689e-08
8.42465e-08
8.0347e-08
7.67245e-08
7.40442e-08
7.8181e-08
8.53958e-08
8.72896e-08
8.65446e-08
8.34884e-08
7.79529e-08
7.00733e-08
6.04431e-08
5.00319e-08
4.01213e-08
3.53988e-08
3.21285e-08
3.05063e-08
2.81608e-08
2.58574e-08
2.38616e-08
2.22344e-08
2.11125e-08
2.2105e-08
2.38695e-08
2.51942e-08
2.7136e-08
2.7582e-08
2.71716e-08
2.62768e-08
2.51201e-08
2.38355e-08
2.2454e-08
2.21265e-08
2.3305e-08
2.38366e-08
2.51142e-08
2.53222e-08
2.49887e-08
2.43802e-08
2.36282e-08
2.27934e-08
2.19004e-08
2.09571e-08
1.99647e-08
1.8923e-08
1.78331e-08
1.66984e-08
1.55256e-08
1.43251e-08
1.31125e-08
1.19096e-08
1.07432e-08
9.62257e-09
9.00432e-09
8.34198e-09
7.45685e-09
6.52926e-09
5.64267e-09
4.82768e-09
4.09488e-09
3.44693e-09
2.88239e-09
2.39715e-09
1.98512e-09
1.63897e-09
1.35073e-09
1.11234e-09
9.16054e-10
7.54719e-10
6.2196e-10
5.12281e-10
4.21123e-10
3.44848e-10
2.80607e-10
2.26149e-10
1.79803e-10
1.40487e-10
1.06763e-10
7.81421e-11
5.46519e-11
3.62458e-11
2.26807e-11
1.34288e-11
7.61734e-12
4.18892e-12
2.23497e-12
1.14576e-12
5.57907e-13
2.56687e-13
1.11727e-13
4.56735e-14
1.67291e-14
4.83955e-15
8.12577e-16
8.62643e-07
8.58259e-07
8.62506e-07
8.6683e-07
8.59436e-07
8.64044e-07
5.3545e-06
0.000123947
8.26859e-05
2.66705e-05
2.85275e-06
9.1706e-07
9.09342e-07
1.28722e-06
1.41786e-05
9.63766e-06
2.71626e-06
7.8462e-07
7.74993e-07
7.75457e-07
9.65858e-07
1.26731e-06
2.03619e-06
1.03645e-05
7.08652e-05
8.08364e-05
8.12845e-05
3.3254e-05
3.57024e-06
8.06625e-07
8.01124e-07
1.15463e-06
1.6612e-05
5.3611e-05
5.38809e-05
2.98198e-05
4.95173e-06
3.362e-07
4.21031e-07
4.31256e-06
8.64089e-05
0.000195481
0.00019548
0.000124003
2.28216e-05
1.60049e-06
7.31252e-07
1.82325e-06
1.83039e-06
7.7668e-07
2.79327e-07
4.69672e-07
5.93932e-07
5.80324e-07
4.00663e-07
2.20766e-07
1.20761e-07
6.95993e-08
4.21432e-08
2.5668e-08
1.49967e-08
8.13898e-09
4.03338e-09
1.81431e-09
7.47258e-10
2.95419e-10
1.29742e-10
7.99958e-11
7.1296e-11
7.55277e-11
8.36866e-11
9.33397e-11
1.03968e-10
1.15505e-10
1.28034e-10
1.41642e-10
1.56375e-10
1.7233e-10
1.8948e-10
2.07966e-10
2.27938e-10
2.49384e-10
2.72186e-10
2.96646e-10
3.2292e-10
3.51133e-10
3.81417e-10
4.13913e-10
4.48772e-10
4.86154e-10
5.2623e-10
5.69182e-10
6.15203e-10
6.64497e-10
7.17284e-10
7.73793e-10
8.34269e-10
8.9897e-10
9.6817e-10
1.04216e-09
1.12124e-09
1.20572e-09
1.29596e-09
1.3923e-09
1.49512e-09
1.60479e-09
1.72173e-09
1.84637e-09
1.97915e-09
2.12052e-09
2.27098e-09
2.43101e-09
2.60114e-09
2.7819e-09
2.97383e-09
3.17751e-09
3.39351e-09
3.62242e-09
3.86484e-09
4.12137e-09
4.3926e-09
4.67909e-09
4.98138e-09
5.29995e-09
5.63521e-09
5.98746e-09
6.35688e-09
6.74347e-09
7.14706e-09
7.56727e-09
8.00352e-09
8.45503e-09
8.92081e-09
9.39978e-09
9.89076e-09
1.03926e-08
1.09041e-08
1.14244e-08
1.19528e-08
1.24886e-08
1.30318e-08
1.35824e-08
1.41407e-08
1.47071e-08
1.52821e-08
1.58662e-08
1.64599e-08
1.70634e-08
1.76768e-08
1.83e-08
1.89323e-08
1.95728e-08
2.022e-08
2.08716e-08
2.15251e-08
2.21775e-08
2.28258e-08
2.34675e-08
2.41011e-08
2.47263e-08
2.53452e-08
2.59641e-08
2.91414e-08
3.0038e-08
3.09831e-08
3.19871e-08
3.63039e-08
3.7734e-08
3.91985e-08
4.06584e-08
4.63981e-08
4.8263e-08
5.01856e-08
5.22261e-08
5.4435e-08
5.68394e-08
5.94473e-08
6.22588e-08