/*--------------------------------*- C++ -*----------------------------------*\
| =========                 |                                                 |
| \\      /  F ield         | OpenFOAM: The Open Source CFD Toolbox           |
|  \\    /   O peration     | Version:  2.4.0                                 |
|   \\  /    A nd           | Web:      www.OpenFOAM.org                      |
|    \\/     M anipulation  |                                                 |
\*---------------------------------------------------------------------------*/
FoamFile
{
    version     2.0;
    format      ascii;
    class       volScalarField;
    location    "3.6";
    object      H;
}
// * * * * * * * * * * * * * * * * * * * * * * * * * * * * * * * * * * * * * //

dimensions      [0 2 -2 0 0 0 0];

internalField   nonuniform List<scalar> 
8000
(
-11918.2
-11297.8
-10685.5
-10085.1
-9499.09
-8929.18
-8376.56
-7841.82
-7325.42
-6827.61
-6348.93
-5889.81
-5450.57
-5031.38
-4632.37
-4253.62
-3895.07
-3556.21
-3236.53
-2935.19
-2651.16
-2383.1
-2129.48
-1888.43
-1658.15
-1436.51
-1221.27
-1010.13
-801.693
-597.055
-401.743
-228.504
-93.6733
-1.14688
-0.117587
-0.0671289
-0.228014
-20.9535
-50.8571
-71.6221
-88.7689
-101.225
-109.807
-115.897
-120.114
-124.807
-129.077
-132.908
-136.03
-138.506
-11950.5
-11392.3
-10836.5
-10284.4
-9737.6
-9197.44
-8665.55
-8143.69
-7633.59
-7137.13
-6656.14
-6192.37
-5747.35
-5322.43
-4918.59
-4536.55
-4176.63
-3838.75
-3522.53
-3227.2
-2951.68
-2694.69
-2454.8
-2230.48
-2020.2
-1822.44
-1635.76
-1458.78
-1290.26
-1129.1
-974.365
-825.223
-680.876
-540.565
-403.878
-271.029
-140.399
-1.83604
-0.0639943
-0.0288495
-0.133183
-9.63408
-20.7048
-31.2898
-40.3283
-47.4244
-53.2067
-58.6209
-63.9126
-68.9327
-11956.7
-11409.7
-10862
-10313.9
-9766.48
-9221.19
-8680.07
-8145.53
-7620.21
-7106.92
-6608.42
-6127.38
-5666.18
-5226.85
-4811
-4419.72
-4053.64
-3712.88
-3397.11
-3105.61
-2837.31
-2590.89
-2364.84
-2157.51
-1967.2
-1792.19
-1630.74
-1481.19
-1341.94
-1211.48
-1088.42
-971.456
-859.245
-750.158
-643.962
-539.926
-437.179
-335.417
-234.862
-136.559
-46.0164
-0.59264
-0.0385544
-0.0171161
-0.0449494
-3.7107
-8.44367
-13.5825
-18.4164
-22.9435
-11951
-11392.2
-10831.7
-10269.5
-9706.54
-9144.63
-8586.1
-8033.79
-7490.83
-6960.48
-6445.96
-5950.31
-5476.2
-5025.89
-4601.1
-4203
-3832.19
-3488.75
-3172.26
-2881.88
-2616.43
-2374.48
-2154.4
-1954.46
-1772.9
-1607.94
-1457.89
-1321.1
-1196.05
-1081.33
-975.661
-877.872
-786.929
-701.916
-622.035
-546.606
-475.072
-407.007
-342.125
-280.264
-221.339
-165.178
-111.144
-59.2123
-15.3715
-0.190834
-0.0335029
-0.0365893
-1.42773
-3.41441
-11944.5
-11372.9
-10800.5
-10227.6
-9655.37
-9085.74
-8521.15
-7964.43
-7418.67
-6887.01
-6372.53
-5878.06
-5406.07
-4958.58
-4537.11
-4142.61
-3775.51
-3435.76
-3122.84
-2835.83
-2573.55
-2334.55
-2117.25
-1919.97
-1741.01
-1578.7
-1431.41
-1297.61
-1175.89
-1064.92
-963.526
-870.641
-785.314
-706.706
-634.078
-566.787
-504.274
-446.059
-391.734
-340.953
-293.422
-248.89
-207.15
-168.05
-131.506
-97.4265
-65.2455
-33.6254
-0.362715
-0.0318277
-11942.8
-11368.5
-10794.7
-10222.2
-9652.79
-9088.36
-8531.29
-7984.22
-7449.89
-6931.03
-6430.25
-5949.87
-5491.91
-5057.95
-4649.12
-4266.09
-3909.07
-3577.87
-3271.89
-2990.25
-2731.78
-2495.17
-2278.95
-2081.6
-1901.57
-1737.35
-1587.47
-1450.55
-1325.29
-1210.51
-1105.12
-1008.14
-918.694
-835.992
-759.341
-688.122
-621.788
-559.859
-501.91
-447.563
-396.479
-348.347
-302.87
-259.767
-218.78
-179.683
-142.27
-106.283
-71.2765
-36.4606
-11947.6
-11383.5
-10821.3
-10262.4
-9708.74
-9162.36
-8625.45
-8100.29
-7589.15
-7094.23
-6617.52
-6160.77
-5725.41
-5312.54
-4922.89
-4556.79
-4214.26
-3894.95
-3598.27
-3323.34
-3069.14
-2834.48
-2618.07
-2418.61
-2234.74
-2065.16
-1908.59
-1763.83
-1629.74
-1505.28
-1389.49
-1281.5
-1180.51
-1085.84
-996.853
-912.997
-833.79
-758.812
-687.699
-620.142
-555.88
-494.696
-436.41
-380.879
-327.993
-277.688
-229.956
-184.853
-142.438
-102.91
-11959.3
-11418.7
-10881
-10347.9
-9821.62
-9304.02
-8797.14
-8302.88
-7823.07
-7359.33
-6913.12
-6485.61
-6077.73
-5690.12
-5323.14
-4976.85
-4651.08
-4345.38
-4059.14
-3791.56
-3541.7
-3308.55
-3091.02
-2887.99
-2698.33
-2520.94
-2354.77
-2198.78
-2052.03
-1913.62
-1782.73
-1658.61
-1540.57
-1428
-1320.36
-1217.17
-1118
-1022.51
-930.419
-841.489
-755.552
-672.506
-592.311
-514.986
-440.602
-369.285
-301.226
-236.717
-176.202
-120.593
-11975.9
-11468.9
-10965.4
-10467.4
-9977.04
-9496.14
-9026.38
-8569.31
-8126.27
-7698.42
-7286.69
-6891.79
-6514.2
-6154.18
-5811.76
-5486.8
-5178.94
-4887.69
-4612.42
-4352.38
-4106.76
-3874.68
-3655.24
-3447.52
-3250.61
-3063.62
-2885.69
-2715.99
-2553.74
-2398.22
-2248.74
-2104.66
-1965.4
-1830.43
-1699.22
-1571.31
-1446.42
-1324.3
-1204.75
-1087.56
-972.588
-859.799
-749.25
-641.081
-535.507
-432.832
-333.545
-238.486
-148.896
-68.106
-11995.2
-11526.9
-11062.3
-10603.6
-10152.6
-9710.94
-9280.05
-8861.08
-8454.98
-8062.49
-7684.12
-7320.21
-6970.9
-6636.15
-6315.78
-6009.46
-5716.77
-5437.15
-5170.01
-4914.67
-4670.44
-4436.6
-4212.4
-3997.12
-3790.04
-3590.45
-3397.7
-3211.15
-3030.16
-2854.18
-2682.66
-2515.06
-2350.92
-2189.77
-2031.18
-1874.78
-1720.21
-1567.17
-1415.41
-1264.78
-1115.21
-966.751
-819.528
-673.72
-529.577
-387.676
-249.531
-117.261
-1.23329
-0.0182855
-12014.6
-11585
-11158.9
-10738.4
-10324.9
-9919.94
-9524.54
-9139.57
-8765.66
-8403.23
-8052.53
-7713.62
-7386.42
-7070.73
-6766.25
-6472.56
-6189.21
-5915.69
-5651.44
-5395.9
-5148.49
-4908.62
-4675.72
-4449.25
-4228.65
-4013.39
-3802.98
-3596.91
-3394.7
-3195.89
-3000.02
-2806.65
-2615.32
-2425.61
-2237.09
-2049.35
-1862
-1674.69
-1487.13
-1299.15
-1110.7
-921.773
-732.279
-541.967
-350.903
-159.841
-1.64024
-0.0267279
-0.0485862
-0.179912
-12031.8
-11636.4
-11244.2
-10856.7
-10475.5
-10101.3
-9735.23
-9377.66
-9028.99
-8689.42
-8358.97
-8037.54
-7724.94
-7420.9
-7125.07
-6837.07
-6556.49
-6282.91
-6015.88
-5754.98
-5499.78
-5249.87
-5004.82
-4764.26
-4527.78
-4295
-4065.53
-3838.98
-3614.95
-3393.02
-3172.74
-2953.67
-2735.31
-2517.15
-2298.68
-2079.34
-1858.58
-1635.88
-1410.82
-1183.1
-952.531
-718.466
-478.926
-232.432
-2.40375
-0.0407843
-0.0473857
-0.132708
-0.274456
-0.471566
-12045.5
-11677.3
-11311.6
-10949.6
-10592.2
-10240.3
-9894.29
-9554.63
-9221.48
-8894.91
-8574.88
-8261.27
-7953.88
-7652.5
-7356.88
-7066.73
-6781.78
-6501.76
-6226.4
-5955.42
-5688.58
-5425.6
-5166.25
-4910.24
-4657.31
-4407.16
-4159.45
-3913.81
-3669.83
-3427.04
-3184.91
-2942.84
-2700.22
-2456.33
-2210.44
-1961.74
-1709.39
-1452.58
-1190.68
-923.554
-651.307
-372.078
-77.1426
-0.916945
-0.331277
-0.0177073
-0.0150813
-0.0217836
-0.0352087
-0.0565863
-12053.6
-11701.2
-11350.6
-11002.4
-10657.5
-10316.2
-9978.98
-9645.98
-9317.33
-8993.08
-8673.23
-8357.71
-8046.46
-7739.41
-7436.47
-7137.55
-6842.57
-6551.45
-6264.11
-5980.48
-5700.45
-5423.93
-5150.77
-4880.83
-4613.87
-4349.63
-4087.74
-3827.74
-3569.11
-3311.18
-3053.2
-2794.33
-2533.67
-2270.24
-2002.95
-1730.61
-1451.91
-1165.52
-870.7
-568.489
-263.183
-2.5942
-0.0590448
-0.00419993
0.00297828
0.0210162
0.172772
0.305956
0.424012
0.527053
-12055.6
-11707
-11359.2
-11012.6
-10667.5
-10324.3
-9983.19
-9644.47
-9308.32
-8974.95
-8644.53
-8317.24
-7993.27
-7672.77
-7355.91
-7042.86
-6733.75
-6428.73
-6127.92
-5831.4
-5539.25
-5251.48
-4968.05
-4688.84
-4413.65
-4142.09
-3873.6
-3607.43
-3342.84
-3079.08
-2815.41
-2550.28
-2282.21
-2009.73
-1731.47
-1446.23
-1153.35
-853.408
-549.511
-248.709
-2.78725
-2.21304
-0.924004
0.0226022
1.0423
1.97852
2.80436
3.50323
4.09106
4.58525
-12049.5
-11688.3
-11327.3
-10966.6
-10606.4
-10247
-9888.92
-9532.43
-9177.98
-8826.05
-8477.08
-8131.54
-7789.86
-7452.47
-7119.78
-6792.16
-6469.96
-6153.51
-5843.11
-5539.01
-5241.43
-4950.53
-4666.4
-4388.99
-4118.18
-3853.62
-3594.81
-3340.97
-3091.06
-2843.75
-2597.38
-2349.87
-2098.37
-1840.82
-1576.18
-1302.61
-1017.58
-714.119
-377.277
-3.6329
-0.849053
-0.18695
0.353568
3.31121
6.31831
9.50787
12.8473
16.2087
19.4496
22.4141
-12033.6
-11640.6
-11247.1
-10853.2
-10459.3
-10065.9
-9673.87
-9283.95
-8897
-8513.82
-8135.2
-7761.81
-7394.29
-7033.19
-6679.05
-6332.33
-5993.51
-5663.05
-5341.4
-5029.03
-4726.36
-4433.8
-4151.68
-3880.22
-3619.52
-3369.5
-3129.86
-2900.04
-2679.16
-2465.99
-2258.89
-2055.82
-1854.27
-1651.42
-1444.2
-1229.52
-1004.09
-763.406
-507.445
-232.591
-2.93499
-0.254839
-0.00926717
0.114823
1.04699
9.19772
17.1885
25.554
34.794
44.0368
-12002.4
-11546.6
-11090
-10633.4
-10178.2
-9725.81
-9277.7
-8835.2
-8399.42
-7971.17
-7551.07
-7139.56
-6736.98
-6343.66
-5959.9
-5586.04
-5222.62
-4870.23
-4529.56
-4201.43
-3886.66
-3586.05
-3300.32
-3030.04
-2775.59
-2537.14
-2314.55
-2107.42
-1915.05
-1736.43
-1570.29
-1415.1
-1269.09
-1130.34
-996.828
-866.57
-737.725
-608.679
-477.806
-342.394
-195.431
-35.5717
-0.63734
-0.0358861
0.00171541
0.0571162
0.498903
4.4206
36.4589
68.2676
-11955
-11406.1
-10862.2
-10327.1
-9804.06
-9294.91
-8800.52
-8320.94
-7855.62
-7403.67
-6964.08
-6535.83
-6117.92
-5710.03
-5313.17
-4927.16
-4552.25
-4189.18
-3839.14
-3503.67
-3184.26
-2882.21
-2598.62
-2334.32
-2089.85
-1865.37
-1660.69
-1475.26
-1308.22
-1158.42
-1024.51
-904.988
-798.217
-702.49
-616.028
-536.994
-463.491
-393.599
-325.464
-257.485
-188.511
-118.022
-45.6235
-0.428491
-0.00662763
0.000534817
0.0312789
1.06138
13.9499
147.279
-11758
-10962.8
-10270.8
-9652.93
-9089.92
-8568.33
-8078.59
-7613.7
-7168.43
-6738.87
-6322.07
-5915.83
-5518.57
-5129.21
-4747.13
-4372.16
-4004.61
-3645.3
-3295.47
-2962.16
-2647.68
-2352.98
-2079.03
-1826.61
-1596.2
-1387.84
-1201.14
-1035.29
-889.125
-761.235
-650.019
-553.789
-470.836
-399.492
-338.167
-285.379
-239.769
-200.103
-165.277
-134.31
-106.348
-80.6371
-56.4941
-33.284
-10.2387
-0.0242348
7.95361
17.3582
2.08346
248.945
-140.193
-141.103
-141.249
-140.608
-139.208
-137.139
-134.437
-131.16
-127.341
-123
-118.201
-113.032
-107.581
-101.899
-96.0409
-90.0642
-84.0296
-78.0001
-72.0318
-66.1853
-60.5147
-55.0713
-49.901
-45.044
-40.5305
-36.3814
-32.6086
-29.2164
-26.2016
-23.5546
-21.2601
-19.2983
-17.6455
-16.275
-15.1569
-14.261
-13.5573
-12.9826
-12.5099
-12.1217
-11.777
-11.4445
-11.1044
-10.7502
-10.3838
-10.0066
-9.62015
-9.22591
-8.82928
-8.43815
-73.6713
-78.2004
-82.4678
-86.3308
-89.7303
-92.6746
-95.1696
-97.105
-98.4338
-99.1493
-99.2724
-98.8225
-97.8307
-96.3325
-94.3689
-91.9872
-89.2402
-86.1831
-82.8712
-79.3607
-75.7127
-71.9661
-68.1791
-64.4013
-60.6749
-57.0412
-53.5387
-50.2014
-47.0582
-44.1332
-41.4431
-38.9975
-36.7985
-34.8395
-33.1063
-31.5805
-30.2472
-29.095
-28.1126
-27.2423
-26.5025
-25.8226
-25.1886
-24.5939
-24.011
-23.4785
-22.9788
-22.5101
-22.0641
-21.6505
-27.4737
-32.0966
-36.7867
-41.4408
-46.0154
-50.5136
-54.9009
-59.0947
-63.011
-66.5784
-69.7368
-72.443
-74.6703
-76.4131
-77.6745
-78.4743
-78.84
-78.8047
-78.4047
-77.6791
-76.6721
-75.4083
-73.9311
-72.2817
-70.4976
-68.6111
-66.6559
-64.6642
-62.6649
-60.6872
-58.7563
-56.8959
-55.1236
-53.4363
-51.8516
-50.3729
-48.9986
-47.7305
-46.5685
-45.5089
-44.5343
-43.5614
-42.6342
-41.7833
-41.0458
-40.3906
-39.7892
-39.2603
-38.7991
-38.4491
-5.98532
-9.06808
-12.335
-15.4782
-18.5377
-21.7787
-25.2355
-28.81
-32.4159
-35.9918
-39.4875
-42.8516
-46.0335
-49.0007
-51.7205
-54.1737
-56.3494
-58.2433
-59.8575
-61.2023
-62.2794
-63.101
-63.6865
-64.0607
-64.2414
-64.248
-64.1008
-63.8199
-63.4251
-62.936
-62.3736
-61.7593
-61.0955
-60.4064
-59.6963
-58.9837
-58.2779
-57.5811
-56.8965
-56.2229
-55.5566
-54.8971
-54.2301
-53.5815
-52.9789
-52.4385
-51.965
-51.5187
-51.118
-50.7984
-0.00937633
-0.932771
-2.05041
-3.51852
-5.39326
-7.41705
-9.32146
-11.2406
-13.3079
-15.499
-17.7519
-20.0293
-22.3186
-24.6024
-26.868
-29.0974
-31.2713
-33.3759
-35.3927
-37.2989
-39.0823
-40.7265
-42.2302
-43.5939
-44.8199
-45.9133
-46.8798
-47.7285
-48.4621
-49.0898
-49.6163
-50.0485
-50.3944
-50.663
-50.8584
-50.9856
-51.0517
-51.0628
-51.0258
-50.9465
-50.8286
-50.676
-50.4928
-50.2799
-50.0395
-49.7731
-49.4838
-49.1777
-48.8511
-48.5118
-0.390043
-0.0325967
-0.00578172
-0.563849
-1.18693
-2.03724
-3.16645
-4.22541
-5.27849
-6.48653
-7.74426
-8.99542
-10.2262
-11.436
-12.6282
-13.8041
-14.9652
-16.1132
-17.2502
-18.3796
-19.5026
-20.6214
-21.7343
-22.832
-23.9061
-24.9475
-25.949
-26.9056
-27.8123
-28.6635
-29.455
-30.1748
-30.8189
-31.3837
-31.8685
-32.2717
-32.5933
-32.8365
-33.0054
-33.1069
-33.1452
-33.1236
-33.0465
-32.9266
-32.7712
-32.5842
-32.3622
-32.1131
-31.8505
-31.5852
-66.4379
-32.6887
-0.319341
-0.00731006
-0.429546
-0.879087
-1.53187
-2.28484
-3.02577
-3.9022
-4.82543
-5.75261
-6.67569
-7.59534
-8.50828
-9.4154
-10.3149
-11.2047
-12.0825
-12.9451
-13.7892
-14.6106
-15.4052
-16.1686
-16.8964
-17.584
-18.2273
-18.822
-19.3644
-19.8506
-20.2781
-20.6458
-20.9543
-21.2059
-21.4032
-21.5492
-21.6485
-21.7021
-21.7162
-21.6939
-21.6378
-21.5529
-21.4386
-21.2988
-21.1375
-20.9589
-20.7664
-20.561
-20.3442
-20.1183
-70.994
-28.3185
-0.276149
-0.314061
-0.445147
-0.751987
-1.30894
-1.90785
-2.57803
-3.35386
-4.15376
-4.9573
-5.76143
-6.56378
-7.36189
-8.15153
-8.93104
-9.69526
-10.4399
-11.1601
-11.8511
-12.5081
-13.1264
-13.702
-14.2317
-14.7132
-15.145
-15.5263
-15.8566
-16.1362
-16.3663
-16.5478
-16.6816
-16.7685
-16.8099
-16.808
-16.7656
-16.686
-16.5719
-16.427
-16.2548
-16.0578
-15.8386
-15.6001
-15.3448
-15.0744
-14.7903
-14.4946
-14.1888
-13.8739
-0.703934
-0.0107321
-0.124679
-0.321431
-0.694811
-1.20513
-1.67891
-2.27071
-2.89884
-3.53192
-4.16774
-4.80557
-5.44447
-6.08287
-6.71776
-7.34546
-7.964
-8.56959
-9.1592
-9.72998
-10.2791
-10.8036
-11.3007
-11.7675
-12.2008
-12.5972
-12.9534
-13.267
-13.536
-13.759
-13.9351
-14.0642
-14.1466
-14.1832
-14.1757
-14.1259
-14.0365
-13.91
-13.7494
-13.5578
-13.3383
-13.094
-12.8278
-12.5424
-12.2405
-11.9242
-11.5957
-11.257
-10.9097
-10.5551
-0.00178828
-0.169069
-0.45654
-0.8315
-1.13459
-1.55574
-1.9915
-2.43247
-2.87592
-3.32221
-3.77192
-4.22532
-4.68242
-5.14291
-5.60661
-6.07267
-6.5396
-7.00644
-7.47143
-7.93233
-8.3866
-8.83142
-9.26359
-9.67979
-10.0766
-10.4505
-10.7985
-11.1176
-11.4052
-11.6585
-11.8753
-12.0544
-12.194
-12.2934
-12.3523
-12.3711
-12.351
-12.2936
-12.2007
-12.0745
-11.9174
-11.7318
-11.5201
-11.2849
-11.0287
-10.7537
-10.4625
-10.1571
-9.83978
-9.51263
-0.420794
-0.715626
-0.982118
-1.30075
-1.62486
-1.94338
-2.25761
-2.56837
-2.87576
-3.18159
-3.48801
-3.79677
-4.10907
-4.42604
-4.74719
-5.07132
-5.39899
-5.73166
-6.06788
-6.40645
-6.74634
-7.08633
-7.42509
-7.7599
-8.08641
-8.40468
-8.71242
-9.0077
-9.28829
-9.55189
-9.79564
-10.0177
-10.2153
-10.3862
-10.528
-10.6389
-10.7189
-10.769
-10.7902
-10.7835
-10.7503
-10.6921
-10.6093
-10.5039
-10.3772
-10.2306
-10.0656
-9.88387
-9.6864
-9.47504
-0.635375
-0.834016
-1.03495
-1.23353
-1.42779
-1.61752
-1.80435
-1.99039
-2.17724
-2.36632
-2.55754
-2.75228
-2.95231
-3.15894
-3.3732
-3.59349
-3.82633
-4.07151
-4.32813
-4.59286
-4.86122
-5.13003
-5.39747
-5.66177
-5.92016
-6.17259
-6.41888
-6.66066
-6.8954
-7.12145
-7.337
-7.5398
-7.72817
-7.90026
-8.05105
-8.17687
-8.27898
-8.3625
-8.42882
-8.47823
-8.51188
-8.53079
-8.53545
-8.52676
-8.50531
-8.47158
-8.42602
-8.3689
-8.30139
-8.22319
-0.0698818
-0.0754224
-0.063872
-0.0286978
0.0236248
0.0870449
0.155108
0.221687
0.280843
0.327481
0.357602
0.369979
0.364242
0.340807
0.299954
0.241805
0.166543
0.0743244
-0.0345243
-0.159727
-0.300889
-0.456439
-0.624149
-0.800786
-0.984232
-1.17299
-1.36418
-1.55545
-1.74503
-1.93105
-2.11103
-2.28411
-2.44334
-2.59081
-2.7251
-2.84614
-2.9493
-3.0368
-3.11224
-3.17664
-3.23444
-3.28739
-3.33479
-3.37739
-3.41604
-3.45126
-3.48359
-3.51305
-3.53921
-3.56188
0.626958
0.733467
0.848725
0.973609
1.10733
1.24867
1.39589
1.54755
1.70324
1.86228
2.02407
2.18845
2.35533
2.52525
2.69815
2.8728
3.04787
3.22209
3.39475
3.56476
3.73157
3.8941
4.05214
4.20446
4.34689
4.47944
4.60376
4.72189
4.83448
4.94313
5.05014
5.15163
5.23994
5.3211
5.39746
5.47341
5.55245
5.63734
5.72326
5.80105
5.86735
5.92944
5.99042
6.05212
6.11461
6.1748
6.23427
6.29204
6.34747
6.40119
4.9926
5.32182
5.58125
5.78059
5.93025
6.04185
6.12827
6.2013
6.26942
6.33818
6.40647
6.47095
6.5326
6.59311
6.65416
6.71653
6.78089
6.84949
6.92399
7.00638
7.09752
7.20008
7.31507
7.4445
7.58949
7.75095
7.93037
8.129
8.348
8.58649
8.84349
9.11753
9.40775
9.71211
10.0298
10.3593
10.6973
11.0426
11.3931
11.7453
12.0946
12.4389
12.7775
13.1092
13.4307
13.7389
14.031
14.3066
14.5648
14.8044
24.9432
26.9521
28.4233
29.3853
29.8925
30.01
29.8021
29.3297
28.6526
27.8275
26.909
25.947
24.9826
24.042
23.1351
22.2666
21.4412
20.6631
19.9362
19.2629
18.6423
18.0778
17.5741
17.1329
16.7552
16.4411
16.1894
15.9992
15.8673
15.7873
15.7586
15.7788
15.8434
15.9489
16.0904
16.2632
16.4641
16.688
16.9312
17.1879
17.4532
17.7222
17.9903
18.253
18.506
18.7451
18.9665
19.1673
19.3448
19.4966
51.9005
57.7003
61.4402
63.3542
63.7687
63.0225
61.4268
59.2485
56.7067
53.9751
51.1875
48.4451
45.8012
43.2945
40.954
38.7915
36.813
35.0178
33.4016
31.9555
30.6711
29.5351
28.5388
27.6701
26.9187
26.2723
25.7206
25.2527
24.8576
24.5256
24.2504
24.0217
23.8329
23.6758
23.5431
23.4279
23.3247
23.2295
23.1371
23.0425
22.9412
22.8291
22.7026
22.5587
22.3949
22.2096
22.0015
21.7698
21.5144
21.2356
94.0142
112.137
123.081
128.073
128.526
125.753
120.851
114.677
107.866
100.871
94.0008
87.4427
81.2984
75.6352
70.4847
65.8476
61.6951
57.9865
54.6826
51.7352
49.1039
46.7537
44.6503
42.7629
41.0628
39.525
38.1265
36.849
35.6747
34.5885
33.5764
32.6251
31.7237
30.8627
30.0333
29.2286
28.4426
27.6704
26.9079
26.1515
25.3988
24.6478
23.8973
23.147
22.3972
21.6484
20.9017
20.1588
19.4215
18.6907
248.912
315.977
357.674
379.698
386.416
381.794
369.287
351.607
330.797
308.375
285.499
262.982
241.363
220.972
201.997
184.521
168.559
154.078
141.002
129.241
118.689
109.239
100.784
93.2215
86.4544
80.3913
74.9507
70.0591
65.6507
61.6668
58.055
54.7688
51.7675
49.0158
46.4825
44.1406
41.9663
39.9392
38.0413
36.2573
34.5738
32.9796
31.4649
30.0214
28.642
27.3208
26.0531
24.8345
23.6619
22.5323
2753.03
2552.57
2218.06
1976.48
1774.49
1592.26
1426.35
1275.75
1139.56
1016.79
906.422
807.498
719.083
640.274
570.19
508.002
452.934
404.225
361.179
323.159
289.589
259.95
233.775
210.653
190.216
172.14
156.139
141.961
129.384
118.215
108.282
99.4338
91.5386
84.4805
78.1576
72.4805
67.3707
62.7592
58.5856
54.7969
51.3468
48.1945
45.3045
42.6457
40.1909
37.9167
35.8024
33.8302
31.9848
30.252
-8.13831
-7.93392
-7.73482
-7.54201
-7.35694
-7.17972
-7.00975
-6.84463
-6.68167
-6.51858
-6.35375
-6.18636
-6.01622
-5.8437
-5.66959
-5.49501
-5.32136
-5.1502
-4.98199
-4.81686
-4.65418
-4.49367
-4.33539
-4.1796
-4.02674
-3.87737
-3.73206
-3.5914
-3.45594
-3.32612
-3.20239
-3.08496
-2.97405
-2.86978
-2.77207
-2.68071
-2.59561
-2.5165
-2.44325
-2.37568
-2.31365
-2.25696
-2.20524
-2.15795
-2.11447
-2.07446
-2.03507
-1.99281
-1.94422
-1.88826
-1.81866
-1.72872
-1.6186
-1.49228
-1.35546
-1.21399
-1.07336
-0.938232
-0.812238
-0.6979
-0.596643
-0.508747
-0.43284
-0.367
-0.309848
-0.260297
-0.217454
-0.180561
-0.148955
-0.122042
-0.0992821
-0.0801777
-0.0642706
-0.0511361
-0.0403836
-0.0316573
-0.0246373
-0.0190391
-0.0146137
-0.0111458
-0.0084515
-0.0063763
-0.00479159
-0.00359178
-0.00269115
-0.00202095
-0.00152662
-0.00116531
-0.000903772
-0.000716416
-0.00058377
-0.000491152
-0.000427595
-0.000384983
-0.000357365
-0.000340411
-0.000331002
-0.000326909
-0.00032655
-0.000328814
-0.000332925
-0.000338349
-0.000344716
-0.000351776
-0.000359362
-0.000367359
-0.000375694
-0.000384318
-0.000393201
-0.000402322
-0.000411669
-0.000421237
-0.000431022
-0.000441022
-0.000451237
-0.000461669
-0.000472319
-0.000483189
-0.00049428
-0.000505594
-0.000517133
-0.0005289
-0.000540895
-0.000553122
-0.00056558
-0.000578272
-0.000591198
-0.000604361
-0.00061776
-0.000631397
-0.000645271
-0.000659383
-0.000673734
-0.000688322
-0.000703147
-0.000718209
-0.000733505
-0.000749035
-0.000764796
-0.000780786
-0.000797003
-0.000813443
-0.000830102
-0.000846977
-0.000864063
-0.000881355
-0.000898846
-0.000916532
-0.000934405
-0.000952458
-0.000970683
-0.000989071
-0.00100761
-0.0010263
-0.00104512
-0.00106406
-0.00108311
-0.00110226
-0.00112149
-0.00114079
-0.00116015
-0.00117955
-0.00119897
-0.00121839
-0.00123781
-0.00125719
-0.00127652
-0.00129579
-0.00131497
-0.00133405
-0.00135299
-0.00137178
-0.00139041
-0.00140884
-0.00142705
-0.00144503
-0.00146274
-0.00148018
-0.00149731
-0.00151411
-0.00153056
-0.00154665
-0.00156233
-0.00157761
-0.00159245
-0.00160683
-0.00162073
-0.00163413
-0.00164702
-0.00165938
-0.00167119
-0.00168242
-0.00169308
-0.00170313
-0.00171257
-0.00172138
-0.00172955
-0.00173706
-0.00174391
-0.00175007
-0.00175553
-0.00176028
-0.0017643
-0.00176758
-0.0017701
-0.00177184
-0.00177278
-0.0017729
-0.00177218
-0.0017706
-0.00176814
-0.00176477
-0.00176047
-0.00175523
-0.00174901
-0.0017418
-0.00173357
-0.00172431
-0.001714
-0.00170262
-0.00169015
-0.00167658
-0.00166189
-0.00164606
-0.0016291
-0.001611
-0.00159174
-0.00157134
-0.00154979
-0.00152711
-0.00150329
-0.00147836
-0.00145233
-0.00142524
-0.00139713
-0.00136805
-0.00133804
-0.00130718
-0.00127552
-0.00124312
-0.00121006
-0.00117639
-0.00114219
-0.0011075
-0.00107241
-0.00103698
-0.00100127
-0.00096534
-0.000929257
-0.000893077
-0.000856856
-0.00082065
-0.000784512
-0.000748496
-0.000712655
-0.000677046
-0.000641725
-0.000606754
-0.000572195
-0.000538117
-0.000504592
-0.000471694
-0.000439505
-0.000408106
-0.000377585
-0.000348028
-0.000319521
-0.000292147
-0.000265982
-0.000241095
-0.000217544
-0.000195375
-0.000174618
-0.00015529
-0.000137392
-0.00012091
-0.000105817
-9.20686e-05
-7.96168e-05
-6.84113e-05
-5.83618e-05
-4.93656e-05
-4.13385e-05
-3.42302e-05
-2.79969e-05
-2.25917e-05
-1.79621e-05
-1.40503e-05
-1.07939e-05
-8.12758e-06
-5.98395e-06
-4.29543e-06
-2.99563e-06
-2.02078e-06
-1.31107e-06
-8.11871e-07
-4.74632e-07
-2.57564e-07
-1.25927e-07
-5.19948e-08
-21.3657
-21.1877
-21.0404
-20.942
-20.8511
-20.7699
-20.6786
-20.6005
-20.5536
-20.5114
-20.457
-20.3825
-20.2844
-20.1622
-20.0182
-19.8666
-19.7118
-19.5181
-19.3118
-19.0838
-18.8582
-18.6177
-18.357
-18.0742
-17.7702
-17.4456
-17.1038
-16.7491
-16.3868
-16.0222
-15.6605
-15.3065
-14.9641
-14.6368
-14.3274
-14.0381
-13.7704
-13.5259
-13.3062
-13.1135
-12.9514
-12.8239
-12.7407
-12.7145
-12.6728
-12.6351
-12.5926
-12.467
-12.2619
-11.9901
-11.6328
-11.1897
-10.672
-10.0961
-9.47557
-8.82547
-8.16059
-7.49474
-6.83754
-6.19237
-5.56338
-4.95528
-4.37426
-3.82638
-3.31627
-2.84727
-2.42138
-2.03938
-1.70088
-1.40444
-1.14778
-0.928475
-0.744073
-0.590799
-0.464849
-0.362499
-0.280224
-0.214776
-0.16324
-0.123057
-0.0920273
-0.0682893
-0.0502962
-0.0367802
-0.0267167
-0.0192882
-0.0138512
-0.009905
-0.0070644
-0.00503646
-0.00360068
-0.00259272
-0.00189134
-0.00140788
-0.00107816
-0.000856074
-0.000708814
-0.000613223
-0.000553086
-0.00051714
-0.000497623
-0.000489226
-0.000488345
-0.000492551
-0.000500219
-0.000510271
-0.000521997
-0.000534933
-0.000548778
-0.000563341
-0.0005785
-0.000594181
-0.000610337
-0.000626944
-0.000643989
-0.000661465
-0.000679372
-0.000697712
-0.00071649
-0.000735712
-0.000755384
-0.000775513
-0.000796106
-0.000817171
-0.000838713
-0.000860741
-0.000883262
-0.000906283
-0.00092981
-0.00095385
-0.00097841
-0.0010035
-0.00102911
-0.00105527
-0.00108197
-0.00110922
-0.00113702
-0.00116538
-0.0011943
-0.00122378
-0.00125384
-0.00128446
-0.00131566
-0.00134743
-0.00137977
-0.00141269
-0.00144618
-0.00148025
-0.00151488
-0.00155008
-0.00158584
-0.00162215
-0.00165901
-0.00169642
-0.00173435
-0.0017728
-0.00181177
-0.00185123
-0.00189117
-0.00193158
-0.00197243
-0.00201371
-0.0020554
-0.00209748
-0.00213992
-0.00218269
-0.00222577
-0.00226913
-0.00231275
-0.00235658
-0.00240059
-0.00244476
-0.00248905
-0.00253341
-0.00257782
-0.00262222
-0.00266659
-0.00271089
-0.00275506
-0.00279907
-0.00284288
-0.00288644
-0.0029297
-0.00297263
-0.00301517
-0.00305728
-0.00309892
-0.00314004
-0.00318059
-0.00322054
-0.00325984
-0.00329845
-0.00333635
-0.00337348
-0.00340983
-0.00344536
-0.00348005
-0.00351387
-0.0035468
-0.00357881
-0.00360989
-0.00364002
-0.00366915
-0.00369726
-0.00372431
-0.00375026
-0.00377506
-0.00379865
-0.00382098
-0.00384198
-0.00386159
-0.00387972
-0.00389633
-0.00391132
-0.00392463
-0.00393619
-0.00394592
-0.00395375
-0.00395959
-0.00396336
-0.00396499
-0.00396438
-0.00396143
-0.00395606
-0.00394816
-0.00393766
-0.00392446
-0.00390849
-0.00388966
-0.00386785
-0.00384292
-0.00381472
-0.00378315
-0.00374812
-0.00370962
-0.00366769
-0.00362239
-0.00357385
-0.00352217
-0.0034675
-0.00340994
-0.0033496
-0.00328659
-0.00322104
-0.00315307
-0.00308285
-0.00301052
-0.00293625
-0.00286018
-0.00278243
-0.00270315
-0.00262241
-0.00254033
-0.00245698
-0.00237244
-0.00228678
-0.00220007
-0.00211238
-0.0020238
-0.00193441
-0.00184432
-0.00175367
-0.0016626
-0.00157133
-0.00148009
-0.00138919
-0.00129898
-0.00120983
-0.00112217
-0.0010364
-0.00095293
-0.00087215
-0.000794415
-0.000720041
-0.000649297
-0.0005824
-0.000519511
-0.000460737
-0.000406127
-0.000355675
-0.000309393
-0.000267174
-0.00022875
-0.000193886
-0.000162482
-0.000134465
-0.000109744
-8.81976e-05
-6.96739e-05
-5.39898e-05
-4.09351e-05
-3.02765e-05
-2.17628e-05
-1.51309e-05
-1.01124e-05
-6.44174e-06
-3.86309e-06
-2.13835e-06
-1.05353e-06
-4.24211e-07
-38.2807
-38.1945
-38.1506
-38.1499
-38.1904
-38.2684
-38.4384
-38.5473
-38.6419
-38.6924
-38.7852
-38.8926
-38.9994
-39.1014
-39.1702
-39.2227
-39.2459
-39.2611
-39.2515
-39.2184
-39.1746
-39.1064
-38.9396
-38.7204
-38.4067
-38.0592
-37.6701
-37.2296
-36.741
-36.2169
-35.6617
-35.0846
-34.4898
-33.8873
-33.2857
-32.6883
-32.0978
-31.517
-30.9478
-30.3921
-29.8671
-29.4062
-28.8786
-28.3289
-27.7061
-27.0667
-26.3822
-25.6277
-24.7976
-23.8915
-22.9112
-21.8623
-20.7471
-19.5736
-18.35
-17.0885
-15.801
-14.4988
-13.1969
-11.9148
-10.67
-9.47748
-8.34946
-7.29536
-6.32175
-5.4326
-4.62947
-3.91181
-3.27731
-2.72219
-2.24155
-1.82969
-1.48041
-1.18725
-0.943703
-0.743451
-0.580473
-0.449179
-0.344479
-0.261827
-0.197234
-0.147258
-0.108978
-0.0800964
-0.0585101
-0.0424911
-0.0306896
-0.0220582
-0.0157908
-0.0112727
-0.00803926
-0.00574217
-0.00412254
-0.00298953
-0.00220359
-0.00166348
-0.00129633
-0.00105009
-0.000887867
-0.000783679
-0.000719381
-0.000682381
-0.000664006
-0.000658318
-0.000661284
-0.00067018
-0.000683181
-0.000699073
-0.000717052
-0.000736595
-0.000757362
-0.000779135
-0.000801778
-0.000825209
-0.000849379
-0.000874262
-0.000899848
-0.000926135
-0.000953127
-0.000980834
-0.00100927
-0.00103844
-0.00106836
-0.00109904
-0.00113051
-0.00116278
-0.00119586
-0.00122976
-0.00126451
-0.00130012
-0.0013366
-0.00137398
-0.00141226
-0.00145146
-0.0014916
-0.00153269
-0.00157475
-0.00161779
-0.00166183
-0.00170689
-0.00175297
-0.00180008
-0.00184826
-0.00189749
-0.00194781
-0.00199921
-0.00205171
-0.00210533
-0.00216006
-0.00221592
-0.00227291
-0.00233105
-0.00239033
-0.00245076
-0.00251235
-0.00257509
-0.00263897
-0.00270401
-0.00277019
-0.00283751
-0.00290596
-0.00297553
-0.0030462
-0.00311795
-0.00319078
-0.00326465
-0.00333955
-0.00341544
-0.00349231
-0.0035701
-0.0036488
-0.00372837
-0.00380876
-0.00388994
-0.00397185
-0.00405447
-0.00413773
-0.0042216
-0.00430601
-0.00439093
-0.00447629
-0.00456203
-0.0046481
-0.00473443
-0.00482095
-0.0049076
-0.00499429
-0.00508095
-0.00516751
-0.00525388
-0.00533999
-0.00542578
-0.00551117
-0.00559609
-0.0056805
-0.00576432
-0.00584753
-0.0059301
-0.006012
-0.00609324
-0.00617381
-0.00625371
-0.00633294
-0.00641148
-0.00648931
-0.00656641
-0.00664271
-0.00671817
-0.00679269
-0.00686619
-0.00693855
-0.00700955
-0.00707901
-0.00714672
-0.00721255
-0.00727636
-0.00733808
-0.00739761
-0.00745491
-0.00750992
-0.00756262
-0.00761282
-0.00766016
-0.00770428
-0.00774492
-0.00778201
-0.00781564
-0.00784602
-0.0078733
-0.00789742
-0.00791702
-0.0079307
-0.00793713
-0.00793549
-0.00792544
-0.00790695
-0.0078803
-0.00784592
-0.00780435
-0.00775609
-0.00770105
-0.00763891
-0.00756938
-0.0074924
-0.0074082
-0.00731713
-0.00721963
-0.00711612
-0.00700697
-0.00689252
-0.00677301
-0.00664865
-0.00651956
-0.00638581
-0.00624742
-0.00610436
-0.00595655
-0.0058039
-0.00564625
-0.00548335
-0.0053149
-0.00514064
-0.00496024
-0.0047734
-0.00458003
-0.00438031
-0.0041748
-0.00396432
-0.00374993
-0.00353286
-0.00331443
-0.00309602
-0.002879
-0.0026647
-0.00245439
-0.00224925
-0.00205036
-0.00185869
-0.00167509
-0.00150026
-0.00133475
-0.00117913
-0.00103387
-0.000898702
-0.00077336
-0.000657942
-0.000552647
-0.000457613
-0.000372873
-0.000298339
-0.000233791
-0.000178875
-0.000133096
-9.58249e-05
-6.631e-05
-4.36935e-05
-2.70376e-05
-1.53583e-05
-7.66467e-06
-3.00402e-06
-50.6304
-50.5297
-50.4581
-50.4138
-50.3913
-50.3826
-50.3806
-50.4833
-50.4376
-50.3612
-50.2983
-50.243
-50.1804
-50.1075
-50.0324
-49.9215
-49.7868
-49.6326
-49.4537
-49.2441
-48.9997
-48.7161
-48.391
-48.0232
-47.651
-47.1902
-46.6806
-46.0879
-45.4696
-44.8338
-44.1666
-43.4681
-42.7541
-42.0252
-41.2483
-40.4268
-39.5796
-38.716
-37.8211
-36.8897
-35.9689
-34.9995
-33.9128
-32.7138
-31.4352
-30.1241
-28.745
-27.2937
-25.7788
-24.2138
-22.616
-21.0038
-19.3958
-17.8106
-16.2653
-14.7744
-13.3495
-11.9991
-10.7291
-9.54276
-8.44186
-7.42649
-6.4957
-5.64765
-4.87986
-4.18931
-3.57251
-3.02556
-2.54422
-2.12393
-1.75992
-1.44728
-1.18106
-0.956326
-0.76828
-0.612334
-0.484166
-0.379777
-0.295522
-0.228133
-0.174722
-0.132785
-0.100232
-0.0752139
-0.0561185
-0.0416472
-0.0307577
-0.0226205
-0.0165823
-0.0121327
-0.00887655
-0.00651053
-0.00480374
-0.00358177
-0.00271397
-0.0021032
-0.00167777
-0.00138518
-0.00118725
-0.00105642
-0.000972937
-0.000922713
-0.000895795
-0.000885185
-0.000885995
-0.000894837
-0.000909374
-0.000928005
-0.000949645
-0.000973559
-0.000999259
-0.00102642
-0.00105483
-0.00108437
-0.00111493
-0.00114649
-0.00117901
-0.00121248
-0.00124691
-0.0012823
-0.00131867
-0.00135604
-0.00139442
-0.00143384
-0.0014743
-0.00151585
-0.00155849
-0.00160226
-0.00164718
-0.00169326
-0.00174055
-0.00178905
-0.0018388
-0.00188982
-0.00194213
-0.00199577