/*--------------------------------*- C++ -*----------------------------------*\
| =========                 |                                                 |
| \\      /  F ield         | OpenFOAM: The Open Source CFD Toolbox           |
|  \\    /   O peration     | Version:  2.4.0                                 |
|   \\  /    A nd           | Web:      www.OpenFOAM.org                      |
|    \\/     M anipulation  |                                                 |
\*---------------------------------------------------------------------------*/
FoamFile
{
    version     2.0;
    format      ascii;
    class       volScalarField;
    location    "3.6";
    object      p_rgh;
}
// * * * * * * * * * * * * * * * * * * * * * * * * * * * * * * * * * * * * * //

dimensions      [1 -1 -2 0 0 0 0];

internalField   nonuniform List<scalar> 
8000
(
84.8561
84.8288
84.8047
84.7868
84.7742
84.7686
84.7616
84.7583
84.7645
84.7652
84.7767
84.7933
84.8108
84.8302
84.8572
84.8837
84.9125
84.9622
85.0273
85.1198
85.2453
85.3902
85.5603
85.767
85.9797
86.1799
86.5153
86.7545
86.9765
87.0762
87.4514
88.3098
88.7416
83.8279
77.0313
63.7806
24.0914
5.78698
6.33724
5.93715
2.97211
0.885647
0.0880701
-0.212836
-0.426681
-0.517323
-0.575097
-0.594033
-0.596598
-0.598777
85.7468
85.743
85.7361
85.7294
85.7241
85.7209
85.7193
85.7168
85.7175
85.7198
85.7239
85.7294
85.7369
85.7448
85.7544
85.7643
85.7747
85.7861
85.7979
85.8098
85.8224
85.8335
85.8428
85.8507
85.8548
85.8555
85.8525
85.8476
85.8467
85.8666
85.9064
85.954
86.0053
86.062
86.09
86.0817
86.0525
83.0508
81.8815
62.1863
21.1706
3.83721
3.89144
3.42236
1.39065
0.0819977
-0.337791
-0.452884
-0.518612
-0.555148
89.3983
89.3691
89.3409
89.3177
89.2987
89.2831
89.2708
89.2618
89.2562
89.2538
89.2548
89.2591
89.2667
89.2775
89.2917
89.309
89.3296
89.3533
89.3803
89.4102
89.4432
89.4789
89.5173
89.558
89.601
89.6457
89.6922
89.7398
89.7887
89.8383
89.8883
89.9376
89.9867
90.0362
90.0888
90.1449
90.1988
90.2299
90.3102
90.367
90.4073
85.7032
76.3113
57.5361
27.1309
7.65949
4.75851
2.56038
0.739146
0.0978241
90.6902
90.6482
90.6032
90.5635
90.5291
90.4991
90.4729
90.4507
90.4322
90.4177
90.4069
90.3999
90.3966
90.3971
90.4014
90.4094
90.4211
90.4366
90.456
90.4791
90.5062
90.5371
90.5722
90.6112
90.6546
90.7021
90.7542
90.8109
90.8724
90.9387
91.0103
91.0871
91.1695
91.2572
91.3511
91.4509
91.5577
91.672
91.7946
91.9154
92.0189
92.1141
92.2638
92.4903
92.6975
86.1059
75.9589
43.675
20.1081
11.589
92.0432
92.0073
91.9692
91.9352
91.905
91.8778
91.8531
91.8312
91.8118
91.795
91.7808
91.7692
91.76
91.7534
91.7492
91.7475
91.7482
91.7513
91.7567
91.7646
91.7748
91.7873
91.8022
91.8194
91.8389
91.8607
91.8848
91.9112
91.9399
91.971
92.0044
92.0401
92.0783
92.1188
92.1618
92.2074
92.2554
92.3061
92.3591
92.4149
92.4741
92.5392
92.6093
92.6704
92.7217
92.7793
92.8743
92.8626
87.4425
73.0823
92.8179
92.7879
92.7563
92.7281
92.7031
92.6806
92.6603
92.6423
92.6265
92.613
92.6017
92.5928
92.586
92.5814
92.5791
92.579
92.5811
92.5853
92.5918
92.6003
92.6111
92.6239
92.6389
92.656
92.6752
92.6964
92.7198
92.7451
92.7725
92.8019
92.8333
92.8666
92.9019
92.939
92.978
93.0188
93.0614
93.1057
93.1516
93.1991
93.2482
93.2987
93.3506
93.4039
93.4592
93.5157
93.568
93.6177
93.6733
93.6778
92.8971
92.8807
92.862
92.8446
92.8285
92.8134
92.7992
92.7858
92.7733
92.7617
92.751
92.7412
92.7322
92.7241
92.7168
92.7104
92.7047
92.6999
92.6959
92.6926
92.6901
92.6882
92.6871
92.6866
92.6868
92.6875
92.6888
92.6907
92.693
92.6958
92.6989
92.7024
92.7062
92.7103
92.7145
92.7188
92.7232
92.7276
92.7319
92.736
92.7399
92.7434
92.7465
92.7491
92.7511
92.7523
92.753
92.7531
92.7515
92.7425
93.4944
93.4815
93.4685
93.457
93.4468
93.4374
93.4288
93.4211
93.4142
93.4082
93.403
93.3987
93.3952
93.3926
93.3909
93.3899
93.3899
93.3906
93.3922
93.3945
93.3977
93.4016
93.4063
93.4118
93.418
93.4249
93.4324
93.4407
93.4496
93.4591
93.4692
93.4798
93.491
93.5027
93.5149
93.5275
93.5404
93.5538
93.5674
93.5813
93.5955
93.6098
93.6242
93.6387
93.6532
93.6679
93.6827
93.6987
93.7154
93.7245
93.1931
93.1891
93.1838
93.1786
93.1737
93.1692
93.1649
93.1609
93.1572
93.1538
93.1506
93.1478
93.1452
93.1429
93.1409
93.1391
93.1377
93.1365
93.1356
93.1349
93.1344
93.1343
93.1343
93.1345
93.135
93.1356
93.1364
93.1373
93.1384
93.1396
93.1408
93.1421
93.1435
93.1448
93.1461
93.1474
93.1485
93.1495
93.1503
93.1509
93.1512
93.1511
93.1505
93.1494
93.1482
93.1483
93.1495
93.1425
93.0948
92.9154
93.7067
93.7048
93.7038
93.7035
93.7035
93.7036
93.704
93.7047
93.7055
93.7067
93.708
93.7097
93.7116
93.7137
93.7161
93.7188
93.7217
93.7249
93.7284
93.7322
93.7362
93.7405
93.7451
93.75
93.7551
93.7606
93.7663
93.7723
93.7786
93.7852
93.792
93.7992
93.8066
93.8144
93.8223
93.8306
93.8391
93.848
93.857
93.8663
93.8756
93.8852
93.8954
93.9094
93.9273
93.933
93.8665
93.549
90.8655
77.1187
93.3038
93.3065
93.3086
93.3106
93.3128
93.3152
93.318
93.321
93.3242
93.3278
93.3316
93.3357
93.3401
93.3448
93.3498
93.3552
93.361
93.3672
93.3738
93.3809
93.3885
93.3966
93.4053
93.4145
93.4245
93.4351
93.4465
93.4588
93.4719
93.486
93.5011
93.5173
93.5347
93.5534
93.5734
93.595
93.6181
93.643
93.6694
93.6976
93.7285
93.7669
93.8159
93.8525
93.7767
93.3338
89.8967
70.8324
36.4782
14.1822
93.8225
93.8299
93.8393
93.8485
93.8571
93.8652
93.8729
93.8802
93.8872
93.8937
93.9
93.9059
93.9115
93.9168
93.9219
93.9267
93.9312
93.9356
93.9397
93.9437
93.9476
93.9513
93.955
93.9586
93.9622
93.9659
93.9696
93.9734
93.9775
93.9817
93.9862
93.991
93.9962
94.0018
94.0081
94.0148
94.0222
94.0297
94.0384
94.0527
94.0805
94.1059
94.0173
93.483
89.9927
62.7346
28.0029
5.90169
-0.292854
-0.330985
93.1872
93.2028
93.2178
93.2304
93.2414
93.2511
93.2597
93.2671
93.2734
93.2786
93.2826
93.2854
93.2872
93.2878
93.2873
93.2857
93.2829
93.279
93.274
93.2678
93.2605
93.252
93.2422
93.2313
93.2191
93.2055
93.1907
93.1745
93.157
93.1379
93.1174
93.0953
93.0717
93.0462
93.0191
92.9891
92.9565
92.9244
92.9081
92.9149
92.8454
92.3269
90.9512
65.4447
19.8269
0.75242
-0.537787
-0.606239
-0.88749
-0.884544
94.2705
94.2826
94.2972
94.3104
94.3217
94.3313
94.3393
94.3458
94.3507
94.354
94.3557
94.3559
94.3544
94.3514
94.3467
94.3403
94.3323
94.3226
94.3112
94.2981
94.2832
94.2665
94.2481
94.2278
94.2056
94.1814
94.1554
94.1273
94.0972
94.065
94.0306
93.9941
93.9553
93.9139
93.8696
93.8233
93.7807
93.7497
93.7032
93.4939
92.9109
82.6591
27.0311
0.429636
-0.797091
-0.843491
-0.920421
-0.922149
-0.924748
-0.924271
93.816
93.8286
93.8395
93.848
93.8549
93.8608
93.8655
93.8691
93.8715
93.8727
93.8726
93.8714
93.8691
93.8655
93.8607
93.8549
93.8478
93.8397
93.8305
93.8203
93.809
93.7968
93.7836
93.7696
93.7547
93.7391
93.7228
93.706
93.6885
93.6708
93.6526
93.6344
93.6156
93.5969
93.5795
93.5685
93.5642
93.5293
93.3464
92.9943
67.3666
4.01253
-0.868476
-0.913955
-0.951983
-0.953801
-0.954842
-0.956998
-0.957407
-0.957645
95.7911
95.8058
95.8245
95.8418
95.8567
95.8693
95.88
95.8887
95.8956
95.9006
95.9036
95.9048
95.9041
95.9015
95.8971
95.8907
95.8824
95.8722
95.8601
95.8459
95.8297
95.8114
95.7911
95.7685
95.7437
95.7165
95.6871
95.655
95.6205
95.5832
95.5432
95.5
95.4534
95.4035
95.3557
95.3176
95.2715
95.0913
94.5659
92.5375
26.35
-0.837087
-0.997702
-0.998337
-0.99956
-0.999951
-1.00025
-1.00033
-1.00039
-1.00044
94.9717
95.0005
95.0257
95.0449
95.0598
95.0713
95.0796
95.0845
95.0861
95.0844
95.0793
95.0709
95.0593
95.0442
95.0258
95.0039
94.9786
94.9497
94.9172
94.881
94.8409
94.7969
94.7488
94.6963
94.6395
94.578
94.5118
94.4404
94.3638
94.2815
94.1935
94.0991
93.998
93.89
93.7776
93.6644
93.5411
93.3424
92.9555
92.6101
54.6007
0.997408
0.0977696
-0.962988
-0.996772
-1.04468
-1.05036
-1.05393
-1.05441
-1.0544
98.7612
98.7659
98.7751
98.7829
98.7881
98.7912
98.7929
98.7939
98.7943
98.7945
98.7949
98.7957
98.7971
98.7994
98.8027
98.8071
98.813
98.8202
98.8291
98.8396
98.8519
98.866
98.8819
98.8998
98.9195
98.9412
98.9647
98.9903
99.0176
99.0469
99.0778
99.1106
99.1448
99.1809
99.2179
99.2552
99.2924
99.3393
99.4195
99.524
99.4163
98.3062
32.5685
2.22233
1.51951
-0.981834
-1.00195
-1.11113
-1.11606
-1.1265
98.0954
98.1269
98.1496
98.1617
98.1671
98.1683
98.1664
98.1624
98.1569
98.1507
98.1444
98.1386
98.1337
98.1302
98.1284
98.1286
98.1311
98.1362
98.1441
98.1549
98.1688
98.186
98.2066
98.2306
98.258
98.289
98.3234
98.3612
98.4023
98.4467
98.4938
98.5437
98.5957
98.6495
98.7042
98.7595
98.8147
98.8703
98.9227
98.9547
98.9346
98.9078
98.7537
91.8655
43.964
0.35259
0.375521
-0.145239
0.0286803
-1.26077
104.589
104.133
103.676
103.285
102.945
102.641
102.367
102.121
101.899
101.701
101.524
101.367
101.228
101.108
101.004
100.916
100.844
100.788
100.746
100.719
100.706
100.708
100.725
100.756
100.802
100.864
100.941
101.035
101.146
101.274
101.422
101.589
101.779
101.992
102.231
102.499
102.798
103.134
103.51
103.932
104.409
104.945
105.54
106.172
106.681
103.59
90.2876
98.3851
42.6978
-1.28206
-0.601624
-0.602569
-0.602985
-0.603772
-0.603941
-0.603512
-0.604099
-0.603457
-0.601767
-0.601532
-0.60642
-0.607478
-0.607945
-0.608109
-0.608168
-0.608144
-0.60811
-0.607658
-0.608128
-0.608271
-0.608417
-0.608578
-0.608752
-0.608938
-0.609124
-0.60931
-0.609499
-0.609691
-0.609878
-0.610055
-0.610216
-0.610354
-0.610462
-0.610524
-0.610507
-0.609302
-0.593915
-0.593743
-0.617477
-0.618537
-0.618257
-0.618066
-0.617936
-0.617806
-0.617698
-0.617489
-0.617246
-0.616981
-0.616685
-0.616359
-0.57342
-0.583451
-0.591498
-0.599123
-0.604645
-0.607621
-0.609198
-0.610497
-0.611969
-0.613274
-0.614338
-0.615234
-0.615893
-0.616377
-0.616785
-0.617178
-0.617548
-0.617945
-0.618323
-0.618693
-0.616881
-0.618377
-0.618935
-0.619273
-0.61956
-0.619883
-0.620144
-0.620127
-0.620652
-0.620906
-0.621125
-0.621341
-0.621547
-0.621745
-0.62193
-0.62193
-0.621411
-0.620758
-0.618198
-0.618213
-0.629809
-0.614112
-0.620013
-0.617126
-0.617274
-0.634876
-0.637393
-0.637763
-0.638525
-0.639623
-0.172341
-0.345554
-0.460118
-0.541379
-0.592641
-0.618068
-0.63003
-0.636008
-0.639167
-0.640934
-0.642011
-0.642729
-0.643254
-0.643504
-0.643732
-0.643951
-0.644166
-0.644361
-0.644542
-0.644666
-0.643993
-0.644687
-0.646471
-0.646889
-0.647095
-0.647341
-0.647583
-0.647549
-0.648038
-0.648202
-0.648455
-0.648523
-0.644293
-0.647591
-0.648156
-0.648258
-0.648373
-0.648493
-0.648399
-0.648266
-0.625775
-0.634144
-0.635562
-0.632804
-0.637167
-0.634149
-0.633225
-0.638788
-0.640219
-0.639851
6.26966
2.88923
1.15261
0.209562
-0.294061
-0.512586
-0.597995
-0.632741
-0.647778
-0.654505
-0.657593
-0.659112
-0.659983
-0.660286
-0.66056
-0.660832
-0.661107
-0.661357
-0.661641
-0.66154
-0.661072
-0.662433
-0.663071
-0.663456
-0.663783
-0.664104
-0.664409
-0.66474
-0.665075
-0.665431
-0.665635
-0.66522
-0.665175
-0.665671
-0.666806
-0.667744
-0.668281
-0.668844
-0.669443
-0.670062
-0.670609
-0.669133
-0.670317
-0.673425
-0.673125
-0.674568
-0.673648
-0.672751
-0.681109
-0.682989
53.3396
35.3959
22.0299
11.7084
4.53401
1.17309
-0.0547968
-0.475203
-0.615939
-0.661651
-0.676143
-0.681407
-0.683701
-0.684839
-0.684999
-0.685141
-0.685247
-0.685328
-0.685234
-0.684526
-0.684698
-0.685234
-0.685553
-0.685714
-0.685882
-0.686043
-0.686188
-0.686061
-0.686104
-0.686283
-0.686519
-0.686936
-0.686956
-0.687184
-0.68782
-0.68789
-0.688214
-0.688701
-0.689172
-0.689537
-0.689926
-0.69034
-0.690545
-0.691201
-0.691702
-0.692274
-0.692897
-0.691101
-0.693138
-0.69406
92.4215
85.4525
74.7711
55.8085
32.155
11.9766
2.57079
-0.0156985
-0.56621
-0.673222
-0.69648
-0.703112
-0.705781
-0.706914
-0.706676
-0.70664
-0.70667
-0.706947
-0.706471
-0.706278
-0.70722
-0.707395
-0.707455
-0.70753
-0.707625
-0.707645
-0.707699
-0.706342
-0.707106
-0.707313
-0.707384
-0.707459
-0.707531
-0.707607
-0.707395
-0.707346
-0.708482
-0.708226
-0.708305
-0.708137
-0.707527
-0.707593
-0.706308
-0.706341
-0.705946
-0.704354
-0.704306
-0.704507
-0.703901
-0.703332
92.7273
92.6572
91.569
83.7802
66.1529
28.1035
5.37292
0.189438
-0.601644
-0.709973
-0.725118
-0.728031
-0.729122
-0.728712
-0.729007
-0.729049
-0.729078
-0.729091
-0.729056
-0.728986
-0.728894
-0.728815
-0.728724
-0.728627
-0.728519
-0.728406
-0.728283
-0.728151
-0.728018
-0.727887
-0.727735
-0.727585
-0.727431
-0.727243
-0.72707
-0.726886
-0.725915
-0.725877
-0.725902
-0.724758
-0.725631
-0.725531
-0.725455
-0.724968
-0.725268
-0.724928
-0.724581
-0.724086
-0.72338
-0.723124
93.7064
93.6016
90.9397
76.1784
52.7121
21.0017
3.25989
-0.285749
-0.707478
-0.749964
-0.752959
-0.752722
-0.75278
-0.752322
-0.751242
-0.751568
-0.751369
-0.751221
-0.751046
-0.75085
-0.750639
-0.750418
-0.750187
-0.749949
-0.749703
-0.749449
-0.749186
-0.748914
-0.748631
-0.748339
-0.748035
-0.747723
-0.747405
-0.74708
-0.746746
-0.746403
-0.74605
-0.745691
-0.745321
-0.744944
-0.744558
-0.74416
-0.743755
-0.743345
-0.742926
-0.742487
-0.74204
-0.741254
-0.741129
-0.740614
91.1585
79.1057
56.8189
27.4667
6.57234
0.421262
-0.69332
-0.77852
-0.778879
-0.778711
-0.778496
-0.778168
-0.777736
-0.775854
-0.775973
-0.776048
-0.775708
-0.775366
-0.775016
-0.774659
-0.774287
-0.773906
-0.77352
-0.773127
-0.772729
-0.772324
-0.771912
-0.771492
-0.771062
-0.770624
-0.770183
-0.769735
-0.769279
-0.768816
-0.768347
-0.767874
-0.767394
-0.766909
-0.766418
-0.765924
-0.765425
-0.764922
-0.764415
-0.763902
-0.763384
-0.762863
-0.762338
-0.761809
-0.761278
-0.760746
50.9476
21.8626
5.52529
0.47066
-0.81628
-0.799252
-0.804961
-0.804892
-0.804478
-0.803884
-0.803566
-0.802554
-0.802244
-0.801714
-0.801244
-0.800556
-0.800652
-0.800204
-0.799726
-0.799231
-0.798723
-0.798209
-0.7977
-0.797174
-0.796638
-0.79612
-0.795541
-0.794938
-0.794093
-0.793557
-0.79307
-0.792575
-0.791988
-0.791385
-0.79079
-0.790203
-0.789594
-0.788961
-0.788324
-0.787686
-0.787052
-0.786406
-0.785753
-0.785117
-0.784467
-0.783813
-0.783155
-0.782493
-0.781836
-0.781172
0.386313
-0.646387
-0.834138
-0.818948
-0.830884
-0.831012
-0.830104
-0.830224
-0.829942
-0.829364
-0.828846
-0.828262
-0.827362
-0.825951
-0.822372
-0.826251
-0.826424
-0.825841
-0.825126
-0.824497
-0.82381
-0.823085
-0.821985
-0.81914
-0.821985
-0.821467
-0.820838
-0.820097
-0.819387
-0.818233
-0.818091
-0.817471
-0.816766
-0.815903
-0.814562
-0.814061
-0.813681
-0.812959
-0.812206
-0.811389
-0.810543
-0.809057
-0.808952
-0.808167
-0.807387
-0.806599
-0.805783
-0.805021
-0.804198
-0.802433
-0.865019
-0.858832
-0.861022
-0.861607
-0.860405
-0.860687
-0.860805
-0.86031
-0.859882
-0.858962
-0.856175
-0.855789
-0.853606
-0.853511
-0.851757
-0.850663
-0.850443
-0.851286
-0.851036
-0.850428
-0.849791
-0.849086
-0.847621
-0.845912
-0.845162
-0.846472
-0.846885
-0.846211
-0.845441
-0.844662
-0.843869
-0.843085
-0.842036
-0.839857
-0.835789
-0.835039
-0.835827
-0.835643
-0.834822
-0.833963
-0.833132
-0.832174
-0.8315
-0.830646
-0.829926
-0.828991
-0.828003
-0.827247
-0.826267
-0.824095
-0.890116
-0.889737
-0.889299
-0.888921
-0.887838
-0.886397
-0.888343
-0.888349
-0.887757
-0.887304
-0.886544
-0.88188
-0.884315
-0.883724
-0.883099
-0.883314
-0.877608
-0.880549
-0.880402
-0.879729
-0.879231
-0.877758
-0.873261
-0.872582
-0.873391
-0.873336
-0.872591
-0.87182
-0.870863
-0.868949
-0.867457
-0.866493
-0.865639
-0.865683
-0.862485
-0.861702
-0.860347
-0.859062
-0.858027
-0.857201
-0.857223
-0.856559
-0.855612
-0.854616
-0.85351
-0.852454
-0.851169
-0.848776
-0.847666
-0.847079
-0.923662
-0.923219
-0.922829
-0.922422
-0.921963
-0.921442
-0.919206
-0.920377
-0.919497
-0.919918
-0.919005
-0.918246
-0.917683
-0.916733
-0.916656
-0.915491
-0.915467
-0.914563
-0.913575
-0.912554
-0.91018
-0.909952
-0.908854
-0.907725
-0.906557
-0.905397
-0.904088
-0.901726
-0.901499
-0.900274
-0.899159
-0.897847
-0.896508
-0.895231
-0.893335
-0.892545
-0.890799
-0.889469
-0.888239
-0.882835
-0.88492
-0.883919
-0.882492
-0.881906
-0.880062
-0.878572
-0.878466
-0.877252
-0.875742
-0.874228
-0.957716
-0.9577
-0.957588
-0.957399
-0.957115
-0.95664
-0.956149
-0.955609
-0.955005
-0.954321
-0.95276
-0.952322
-0.952078
-0.951252
-0.950422
-0.949521
-0.948581
-0.94758
-0.946575
-0.945155
-0.943692
-0.942649
-0.941792
-0.940683
-0.939456
-0.938199
-0.936919
-0.935453
-0.933609
-0.932222
-0.931849
-0.930785
-0.929372
-0.92793
-0.926491
-0.92295
-0.922279
-0.920945
-0.919371
-0.91788
-0.91634
-0.914784
-0.913216
-0.911626
-0.910025
-0.90843
-0.90683
-0.905189
-0.903639
-0.902029
-1.00047
-1.00048
-1.00043
-1.0003
-1.00008
-0.999683
-0.999207
-0.998653
-0.998021
-0.99731
-0.996515
-0.995643
-0.994694
-0.99367
-0.992581
-0.991425
-0.990207
-0.988928
-0.987562
-0.985143
-0.984508
-0.983058
-0.981519
-0.979942
-0.978325
-0.976673
-0.974991
-0.973062
-0.968769
-0.968833
-0.967346
-0.965458
-0.963593
-0.961578
-0.959293
-0.957341
-0.956397
-0.95475
-0.95281
-0.950848
-0.948874
-0.946874
-0.944869
-0.942862
-0.940855
-0.938844
-0.93683
-0.934813
-0.932806
-0.930795
-1.05472
-1.05495
-1.05502
-1.05492
-1.05463
-1.05418
-1.05357
-1.0528
-1.05189
-1.05085
-1.04967
-1.04838
-1.04697
-1.04545
-1.04382
-1.0421
-1.04027
-1.03839
-1.03638
-1.03439
-1.03133
-1.0298
-1.02762
-1.02531
-1.02292
-1.02045
-1.01819
-1.01573
-1.01332
-1.01058
-1.00787
-1.00583
-1.00331
-1.00076
-0.998216
-0.995688
-0.993147
-0.990581
-0.987995
-0.985406
-0.982818
-0.980234
-0.977655
-0.97508
-0.972512
-0.969951
-0.967398
-0.964854
-0.962334
-0.959816
-1.12725
-1.12743
-1.12726
-1.12682
-1.12609
-1.12507
-1.12379
-1.12227
-1.12051
-1.11853
-1.11636
-1.11401
-1.1115
-1.10883
-1.10603
-1.10311
-1.10008
-1.09695
-1.09374
-1.09046
-1.08711
-1.08371
-1.08025
-1.07676
-1.07323
-1.06968
-1.06611
-1.06252
-1.05893
-1.05533
-1.05173
-1.04813
-1.04455
-1.04097
-1.0374
-1.03385
-1.03032
-1.02681
-1.02331
-1.01984
-1.01639
-1.01296
-1.00957
-1.0062
-1.00285
-0.99954
-0.996255
-0.993001
-0.989421
-0.986343
-1.24793
-1.2494
-1.24858
-1.24605
-1.24265
-1.23866
-1.23418
-1.22928
-1.22404
-1.21853
-1.2128
-1.20691
-1.20091
-1.19483
-1.18869
-1.18253
-1.17636
-1.17021
-1.16408
-1.15798
-1.15194
-1.14596
-1.14004
-1.1342
-1.12843
-1.12273
-1.11711
-1.11158
-1.10612
-1.10075
-1.09546
-1.09025
-1.08513
-1.08009
-1.07513
-1.07025
-1.06545
-1.06072
-1.05608
-1.05151
-1.04701
-1.04259
-1.03824
-1.03396
-1.02975
-1.0256
-1.02153
-1.01751
-1.01358
-1.0097
-1.51425
-1.49623
-1.47151
-1.44804
-1.42659
-1.4065
-1.38759
-1.36977
-1.35295
-1.33705
-1.32198
-1.30767
-1.29406
-1.2811
-1.26873
-1.25691
-1.24559
-1.23475
-1.22435
-1.21436
-1.20474
-1.19549
-1.18656
-1.17795
-1.16963
-1.16159
-1.15381
-1.14627
-1.13897
-1.13188
-1.125
-1.11832
-1.11182
-1.1055
-1.09934
-1.09335
-1.08751
-1.08181
-1.07625
-1.07083
-1.06553
-1.06036
-1.0553
-1.05035
-1.04551
-1.04077
-1.03613
-1.03159
-1.02716
-1.02281
-0.616077
-0.61586
-0.615635
-0.615436
-0.615282
-0.615012
-0.614787
-0.614572
-0.614359
-0.614137
-0.61392
-0.613713
-0.613519
-0.613336
-0.61316
-0.612995
-0.612851
-0.612747
-0.61257
-0.612411
-0.612262
-0.612123
-0.611972
-0.611827
-0.611671
-0.611515
-0.611364
-0.611221
-0.611069
-0.610951
-0.610704
-0.6106
-0.610512
-0.610323
-0.610089
-0.609985
-0.610905
-0.61094
-0.610902
-0.610906
-0.610876
-0.610858
-0.61083
-0.610827
-0.610899
-0.611075
-0.610962
-0.610908
-0.610849
-0.610738
-0.610587
-0.610413
-0.610234
-0.610057
-0.609884
-0.60972
-0.609565
-0.609419
-0.609284
-0.609159
-0.609042
-0.608933
-0.608834
-0.608742
-0.608655
-0.608574
-0.608498
-0.608426
-0.608357
-0.608292
-0.608229
-0.608169
-0.60811
-0.608052
-0.607996
-0.60794
-0.607885
-0.60783
-0.607774
-0.607718
-0.607661
-0.607604
-0.607545
-0.607485
-0.607423
-0.60736
-0.607295
-0.607228
-0.607159
-0.607088
-0.607015
-0.606939
-0.606861
-0.606781
-0.606698
-0.606612
-0.606524
-0.606433
-0.60634
-0.606244
-0.606144
-0.606043
-0.605938
-0.60583
-0.60572
-0.605607
-0.60549
-0.605371
-0.605249
-0.605124
-0.604997
-0.604866
-0.604732
-0.604596
-0.604457
-0.604314
-0.604169
-0.604021
-0.60387
-0.603717
-0.60356
-0.6034
-0.603238
-0.603073
-0.602905
-0.602734
-0.60256
-0.602384
-0.602204
-0.602022
-0.601837
-0.60165
-0.601459
-0.601266
-0.60107
-0.600871
-0.60067
-0.600465
-0.600258
-0.600049
-0.599836
-0.599621
-0.599404
-0.599183
-0.59896
-0.598735
-0.598507
-0.598276
-0.598042
-0.597807
-0.597568
-0.597327
-0.597084
-0.596838
-0.596589
-0.596338
-0.596085
-0.595829
-0.595571
-0.59531
-0.595048
-0.594783
-0.594515
-0.594246
-0.593974
-0.5937
-0.593424
-0.593145
-0.592865
-0.592583
-0.592298
-0.592012
-0.591724
-0.591433
-0.591141
-0.590847
-0.590552
-0.590254
-0.589955
-0.589655
-0.589353
-0.589049
-0.588743
-0.588437
-0.588129
-0.587819
-0.587508
-0.587197
-0.586883
-0.586569
-0.586254
-0.585938
-0.58562
-0.585302
-0.584983
-0.584663
-0.584343
-0.584022
-0.5837
-0.583378
-0.583055
-0.582732
-0.582409
-0.582085
-0.581761
-0.581437
-0.581113
-0.580788
-0.580464
-0.58014
-0.579815
-0.579491
-0.579168
-0.578844
-0.578521
-0.578198
-0.577876
-0.577554
-0.577233
-0.576912
-0.576592
-0.576273
-0.575955
-0.575638
-0.575321
-0.575006
-0.574692
-0.574379
-0.574067
-0.573756
-0.573447
-0.573139
-0.572832
-0.572526
-0.572222
-0.57192
-0.571619
-0.57132
-0.571024
-0.570728
-0.570435
-0.570144
-0.569855
-0.569568
-0.569283
-0.569
-0.56872
-0.568442
-0.568167
-0.567894
-0.567623
-0.567355
-0.56709
-0.566827
-0.566567
-0.566309
-0.566054
-0.565802
-0.565553
-0.565306
-0.565062
-0.56482
-0.564581
-0.564344
-0.56411
-0.563879
-0.563651
-0.563426
-0.563203
-0.562984
-0.562768
-0.562556
-0.562346
-0.562141
-0.561939
-0.56174
-0.561546
-0.561356
-0.561169
-0.560987
-0.560809
-0.560636
-0.560467
-0.560303
-0.560144
-0.55999
-0.559841
-0.559698
-0.559561
-0.559429
-0.559304
-0.559185
-0.559073
-0.558967
-0.558869
-0.558778
-0.558695
-0.55862
-0.558551
-0.558494
-0.640247
-0.640324
-0.63837
-0.630761
-0.573385
-0.574873
-0.583536
-0.591403
-0.593764
-0.594445
-0.594898
-0.595279
-0.595697
-0.596069
-0.596365
-0.593883
-0.588319
-0.588358
-0.618834
-0.624063
-0.624705
-0.624709
-0.624864
-0.62496
-0.625065
-0.625189
-0.62532
-0.625435
-0.625532
-0.625625
-0.625706
-0.62577
-0.625843
-0.62592
-0.625967
-0.625994
-0.625991
-0.625959
-0.625896
-0.625665
-0.624734
-0.621855
-0.613127
-0.592156
-0.581637
-0.57673
-0.581256
-0.600634
-0.617964
-0.623368
-0.623946
-0.623787
-0.623606
-0.623485
-0.623359
-0.623225
-0.623089
-0.622962
-0.622841
-0.622728
-0.622623
-0.622525
-0.622431
-0.622344
-0.622261
-0.622181
-0.622104
-0.622028
-0.621954
-0.621879
-0.621805
-0.62173
-0.621654
-0.621576
-0.621497
-0.621417
-0.621334
-0.62125
-0.621163
-0.621075
-0.620984
-0.620891
-0.620796
-0.620699
-0.6206
-0.620498
-0.620394
-0.620288
-0.62018
-0.620069
-0.619956
-0.619841
-0.619724
-0.619604
-0.619482
-0.619357
-0.619231
-0.619102
-0.61897
-0.618837
-0.6187
-0.618562
-0.618421
-0.618277
-0.618131
-0.617983
-0.617832
-0.617678
-0.617522
-0.617363
-0.617202
-0.617038
-0.616871
-0.616702
-0.61653
-0.616355
-0.616178
-0.615997
-0.615814
-0.615629
-0.61544
-0.615249
-0.615054
-0.614857
-0.614657
-0.614454
-0.614249
-0.61404
-0.613829
-0.613614
-0.613397
-0.613177
-0.612954
-0.612728
-0.612499
-0.612267
-0.612032
-0.611795
-0.611555
-0.611311
-0.611065
-0.610816
-0.610564
-0.61031
-0.610052
-0.609792
-0.609529
-0.609263
-0.608995
-0.608723
-0.608449
-0.608173
-0.607893
-0.607612
-0.607327
-0.60704
-0.60675
-0.606458
-0.606163
-0.605866
-0.605566
-0.605264
-0.604959
-0.604653
-0.604343
-0.604032
-0.603719
-0.603403
-0.603085
-0.602765
-0.602443
-0.602119
-0.601793
-0.601465
-0.601135
-0.600803
-0.60047
-0.600135
-0.599798
-0.599459
-0.59912
-0.598778
-0.598435
-0.598091
-0.597746
-0.597399
-0.597051
-0.596702
-0.596352
-0.596001
-0.595649
-0.595296
-0.594942
-0.594588
-0.594233
-0.593877
-0.593521
-0.593164
-0.592807
-0.59245
-0.592093
-0.591735
-0.591378
-0.591021
-0.590663
-0.590306
-0.589949
-0.589593
-0.589237
-0.588882
-0.588527
-0.588172
-0.587817
-0.587463
-0.58711
-0.586757
-0.586405
-0.586054
-0.585704
-0.585355
-0.585007
-0.58466
-0.584313
-0.583968
-0.583624
-0.583283
-0.582944
-0.582607
-0.582271
-0.581934
-0.581598
-0.581261
-0.580927
-0.580594
-0.580264
-0.579937
-0.579612
-0.579291
-0.578972
-0.578654
-0.578338
-0.578024
-0.577713
-0.577404
-0.577098
-0.576794
-0.576494
-0.576196
-0.575902
-0.57561
-0.575321
-0.575035
-0.574751
-0.574471
-0.574194
-0.57392
-0.573649
-0.57338
-0.573115
-0.572852
-0.572592
-0.572335
-0.57208
-0.571828
-0.571578
-0.571331
-0.571087
-0.570846
-0.570607
-0.570372
-0.570139
-0.56991
-0.569685
-0.569462
-0.569244
-0.569029
-0.568817
-0.56861
-0.568407
-0.568208
-0.568013
-0.567822
-0.567636
-0.567455
-0.567279
-0.567108
-0.566942
-0.566782
-0.566628
-0.566479
-0.566337
-0.566201
-0.566072
-0.56595
-0.565835
-0.565728
-0.565629
-0.565538
-0.565454
-0.565382
-0.638644
-0.637844
-0.636946
-0.635947
-0.635149
-0.632916
-0.621135
-0.606688
-0.631075
-0.638656
-0.640698
-0.638701
-0.647585
-0.644045
-0.642744
-0.64644
-0.647433
-0.646656
-0.645095
-0.64554
-0.64185
-0.634608
-0.633129
-0.643123
-0.647997
-0.649226
-0.648079
-0.647496
-0.647055
-0.646229
-0.64205
-0.641792
-0.641969
-0.641733
-0.641487
-0.641399
-0.641367
-0.641396
-0.641483
-0.641496
-0.638946
-0.626575
-0.614742
-0.626928
-0.636586
-0.637815
-0.63679
-0.636936
-0.637097
-0.637103
-0.637238
-0.636926
-0.635106
-0.63515
-0.635476
-0.635708
-0.635677
-0.635635
-0.635585
-0.635526
-0.63546
-0.635389
-0.635314
-0.635235
-0.635154
-0.63507
-0.634985
-0.634899
-0.634812
-0.634724
-0.634635
-0.634546
-0.634456
-0.634366
-0.634275
-0.634184
-0.634092
-0.633999
-0.633905
-0.63381
-0.633714
-0.633616
-0.633517
-0.633415
-0.633313
-0.633208
-0.633101
-0.632991
-0.632879
-0.632765
-0.632648
-0.632529
-0.632406
-0.632281
-0.632152
-0.632021
-0.631886
-0.631748
-0.631606
-0.631461
-0.631313
-0.631161
-0.631006
-0.630848
-0.630685
-0.630519
-0.63035
-0.630177
-0.63
-0.62982
-0.629636
-0.629448
-0.629257
-0.629062
-0.628863
-0.628661
-0.628455
-0.628245
-0.628032
-0.627816
-0.627595
-0.627372
-0.627144
-0.626914
-0.626679
-0.626442
-0.6262
-0.625956
-0.625708
-0.625456
-0.625201
-0.624943
-0.624682
-0.624417
-0.624149
-0.623877
-0.623603
-0.623325
-0.623044
-0.62276
-0.622473
-0.622182
-0.621889
-0.621592
-0.621293
-0.620991
-0.620685
-0.620377
-0.620066
-0.619751
-0.619435
-0.619115
-0.618792
-0.618467
-0.618139
-0.617809
-0.617475
-0.617139
-0.616801
-0.61646
-0.616117
-0.615771
-0.615423
-0.615073
-0.61472
-0.614365
-0.614008
-0.613648
-0.613287
-0.612923
-0.612558
-0.61219
-0.611821
-0.611449
-0.611076
-0.610701
-0.610325
-0.609947
-0.609567
-0.609186
-0.608804
-0.60842
-0.608035
-0.607649
-0.607262
-0.606874
-0.606485
-0.606096
-0.605705
-0.605314
-0.604922
-0.60453
-0.604137
-0.603744
-0.60335
-0.602956
-0.602561
-0.602166
-0.601771
-0.601376
-0.60098
-0.600586
-0.600191
-0.599797
-0.599404
-0.599012
-0.59862
-0.598229
-0.597839
-0.59745
-0.597061
-0.596672
-0.596284
-0.595898
-0.595512
-0.595128
-0.594745
-0.594363
-0.593982
-0.593604
-0.593229
-0.59285
-0.592473
-0.592099
-0.591728
-0.591359
-0.590991
-0.590625
-0.590261
-0.589894
-0.589527
-0.589161
-0.588799
-0.58844
-0.588084
-0.587732
-0.587383
-0.587038
-0.586699
-0.586368
-0.58603
-0.585694
-0.585362
-0.585033
-0.584706
-0.584383
-0.584063
-0.583746
-0.583433
-0.583123
-0.582816
-0.582513
-0.582214
-0.581918
-0.581626
-0.581337
-0.581053
-0.580774
-0.580499
-0.580229
-0.579963
-0.579694
-0.579423
-0.579151
-0.578881
-0.578614
-0.578349
-0.578088
-0.57783
-0.577576
-0.577325
-0.577077
-0.576833
-0.576593
-0.576356
-0.576123
-0.575894
-0.575669
-0.575448
-0.575231
-0.575018
-0.57481
-0.574606
-0.574408
-0.574214
-0.574025
-0.573841
-0.573663
-0.573491
-0.573325
-0.573164
-0.573011
-0.572864
-0.572724
-0.572592
-0.572468
-0.572352
-0.572244
-0.572144
-0.572056
-0.684069
-0.684835
-0.685632
-0.686426
-0.687198
-0.68796
-0.688392
-0.579424
-0.620662
-0.628809
-0.631566
-0.632306
-0.632915
-0.633825
-0.624497
-0.629268
-0.631388
-0.631799
-0.63215
-0.632457
-0.632697
-0.632946
-0.633401
-0.633702
-0.628879
-0.620108
-0.619785
-0.623605
-0.6256
-0.625352
-0.624856
-0.624546
-0.622601
-0.617647
-0.616379
-0.635282
-0.636213
-0.63451
-0.633343
-0.633976
-0.6258
-0.610648
-0.608603
-0.662534
-0.668814
-0.668681
-0.666729
-0.666128
-0.664981
-0.664594
-0.663451
-0.66261
-0.661748
-0.660958
-0.660287
-0.659632
-0.658995
-0.658392
-0.657825
-0.657288
-0.656781
-0.656299
-0.65584
-0.655403
-0.654986
-0.654588
-0.654207
-0.653842
-0.653491
-0.653155
-0.652831
-0.652519
-0.652218
-0.651926
-0.651643
-0.651369
-0.651101
-0.650839
-0.650584
-0.650333
-0.650086
-0.649843
-0.649604
-0.649367
-0.649133
-0.648901
-0.64867
-0.648441
-0.648212
-0.647984
-0.647756
-0.647529
-0.647301
-0.647073
-0.646844
-0.646615
-0.646385
-0.646153
-0.645921
-0.645687
-0.645451
-0.645214
-0.644975
-0.644734
-0.644492
-0.644247
-0.644001
-0.643752
-0.643501
-0.643247
-0.642991
-0.642733
-0.642473
-0.642209
-0.641944
-0.641675
-0.641404
-0.64113
-0.640854
-0.640575
-0.640293
-0.640008
-0.63972
-0.63943
-0.639136
-0.63884
-0.638541
-0.638239
-0.637934
-0.637626
-0.637315
-0.637002
-0.636685
-0.636365
-0.636043
-0.635718
-0.635389
-0.635058
-0.634724
-0.634387
-0.634047
-0.633704
-0.633358
-0.63301
-0.632658
-0.632304
-0.631947
-0.631588
-0.631225
-0.63086
-0.630492
-0.630122
-0.629749
-0.629373
-0.628995
-0.628614
-0.62823
-0.627844
-0.627456
-0.627065
-0.626672
-0.626277
-0.625879
-0.625479
-0.625077
-0.624673
-0.624266
-0.623858
-0.623447
-0.623035
-0.62262
-0.622204
-0.621787
-0.621367
-0.620946
-0.620524
-0.6201
-0.619674
-0.619247
-0.618819
-0.61839
-0.61796
-0.617528
-0.617096
-0.616663
-0.616228
-0.615794
-0.615357
-0.61492
-0.614483
-0.614046
-0.613605
-0.613168
-0.612731
-0.612293
-0.611854
-0.611415
-0.610975
-0.610535
-0.610094
-0.609653
-0.609214
-0.608777
-0.608339
-0.607903
-0.607467
-0.607031
-0.606595
-0.606162
-0.605661
-0.605113
-0.604987
-0.604559
-0.604135
-0.603713
-0.603289
-0.602867
-0.602449
-0.602032
-0.601545
-0.600987
-0.600628
-0.600321
-0.599921
-0.599521
-0.59913
-0.598745
-0.598203
-0.597292
-0.59691
-0.596992
-0.596731
-0.596337
-0.595954
-0.595574
-0.595196
-0.59482
-0.594396
-0.593883
-0.593504
-0.593308
-0.593078
-0.592723
-0.592375
-0.592031
-0.591691
-0.591355
-0.591024
-0.590695
-0.59037
-0.590049
-0.589731
-0.589417
-0.589105
-0.588796
-0.588491
-0.588188
-0.587887
-0.587521
-0.587274
-0.587016