/*--------------------------------*- C++ -*----------------------------------*\
| =========                 |                                                 |
| \\      /  F ield         | OpenFOAM: The Open Source CFD Toolbox           |
|  \\    /   O peration     | Version:  2.4.0                                 |
|   \\  /    A nd           | Web:      www.OpenFOAM.org                      |
|    \\/     M anipulation  |                                                 |
\*---------------------------------------------------------------------------*/
FoamFile
{
    version     2.0;
    format      ascii;
    class       surfaceScalarField;
    location    "3.6";
    object      phi;
}
// * * * * * * * * * * * * * * * * * * * * * * * * * * * * * * * * * * * * * //

dimensions      [0 3 -1 0 0 0 0];

internalField   nonuniform List<scalar> 
15580
(
-3.54155e-13
-2.36501e-12
-1.18222e-12
-6.91142e-12
-2.36637e-12
-1.12122e-11
-3.84913e-12
-1.5236e-11
-5.58099e-12
-1.89821e-11
-7.51648e-12
-2.24503e-11
-9.61628e-12
-2.56403e-11
-1.18402e-11
-2.85513e-11
-1.41465e-11
-3.11839e-11
-1.64912e-11
-3.35379e-11
-1.88337e-11
-3.56141e-11
-2.11436e-11
-3.74144e-11
-2.34133e-11
-3.89407e-11
-2.56678e-11
-4.01982e-11
-2.79751e-11
-4.11913e-11
-3.04236e-11
-4.192e-11
-3.30069e-11
-4.23888e-11
-3.56286e-11
-4.25948e-11
-3.8075e-11
-4.25419e-11
-4.01028e-11
-4.22296e-11
-4.14672e-11
-4.1668e-11
-4.19133e-11
-4.08591e-11
-4.11698e-11
-3.98249e-11
-3.88496e-11
-3.85751e-11
-3.46605e-11
-3.71424e-11
-2.87714e-11
-3.55421e-11
-2.14563e-11
-3.37706e-11
-1.2897e-11
-3.18039e-11
-3.6279e-12
-2.96124e-11
5.47909e-12
-2.69143e-11
1.47911e-11
-2.35691e-11
2.76247e-11
-1.97437e-11
4.30218e-11
-1.57476e-11
4.23788e-11
-1.15447e-11
4.54668e-11
-7.42316e-12
6.782e-11
-3.08965e-12
7.30403e-11
1.83487e-12
7.36744e-11
2.11454e-11
1.26988e-10
3.49364e-12
1.21457e-10
6.11221e-11
1.19166e-10
7.44926e-11
1.38176e-10
5.84336e-11
1.56115e-10
4.06694e-11
1.31092e-10
3.27635e-11
-1.12461e-11
3.83259e-11
-7.61544e-11
3.8976e-11
-1.20081e-10
2.18483e-11
-1.7874e-10
-1.95512e-12
-1.73337e-10
-9.20369e-12
1.84357e-14
-1.66402e-10
2.52999e-14
-2.39031e-12
-3.62306e-14
-6.84989e-12
-2.12077e-13
-1.10363e-11
-4.75507e-13
-1.49725e-11
-7.98222e-13
-1.86593e-11
-1.14987e-12
-2.20986e-11
-1.49816e-12
-2.5292e-11
-1.80799e-12
-2.82415e-11
-2.0436e-12
-3.09483e-11
-2.16707e-12
-3.34144e-11
-2.14045e-12
-3.56408e-11
-1.92533e-12
-3.76295e-11
-1.48484e-12
-3.93812e-11
-7.84671e-13
-4.08984e-11
2.04628e-13
-4.21806e-11
1.51548e-12
-4.32308e-11
3.17389e-12
-4.40472e-11
5.21252e-12
-4.46335e-11
7.65725e-12
-4.49866e-11
1.05393e-11
-4.51116e-11
1.38754e-11
-4.50041e-11
1.76879e-11
-4.46716e-11
2.19708e-11
-4.41078e-11
2.6719e-11
-4.33233e-11
3.18856e-11
-4.2309e-11
3.74218e-11
-4.10782e-11
4.32671e-11
-3.96159e-11
4.94047e-11
-3.79415e-11
5.58237e-11
-3.60313e-11
6.28184e-11
-3.3909e-11
7.07992e-11
-3.155e-11
8.0049e-11
-2.89935e-11
9.05189e-11
-2.62175e-11
1.02226e-10
-2.32514e-11
1.14814e-10
-2.001e-11
1.28245e-10
-1.65229e-11
1.41819e-10
-1.25194e-11
1.57718e-10
-9.15985e-12
1.65247e-10
-4.53348e-12
2.27212e-10
-1.03248e-12
2.96669e-10
4.65424e-12
3.43707e-10
1.13955e-11
3.95872e-10
-1.14959e-11
4.03511e-10
2.51248e-11
3.90897e-10
5.09401e-11
3.8524e-10
4.46331e-11
3.94501e-10
1.25868e-11
3.84209e-10
8.3372e-12
3.69178e-10
5.8272e-12
-7.81351e-12
3.7701e-10
-3.33836e-13
-2.05648e-12
-1.18499e-12
-5.99874e-12
-2.47138e-12
-9.74995e-12
-4.14378e-12
-1.33001e-11
-6.15269e-12
-1.66504e-11
-8.44893e-12
-1.98024e-11
-1.09834e-11
-2.27576e-11
-1.37075e-11
-2.55174e-11
-1.65725e-11
-2.80833e-11
-1.95304e-11
-3.04565e-11
-2.25326e-11
-3.26385e-11
-2.55314e-11
-3.46307e-11
-2.84779e-11
-3.64347e-11
-3.13248e-11
-3.80515e-11
-3.40224e-11
-3.94829e-11
-3.65234e-11
-4.07299e-11
-3.87767e-11
-4.17939e-11
-4.07341e-11
-4.2676e-11
-4.23432e-11
-4.33775e-11
-4.35556e-11
-4.38992e-11
-4.43175e-11
-4.42423e-11
-4.45817e-11
-4.44074e-11
-4.42942e-11
-4.43953e-11
-4.34108e-11
-4.42067e-11
-4.1878e-11
-4.38417e-11
-3.9655e-11
-4.33013e-11
-3.66868e-11
-4.25841e-11
-3.29364e-11
-4.16919e-11
-2.8346e-11
-4.06217e-11
-2.28779e-11
-3.93771e-11
-1.6475e-11
-3.79529e-11
-9.11221e-12
-3.63563e-11
-7.50025e-13
-3.45797e-11
8.63437e-12
-3.26358e-11
1.91339e-11
-3.05096e-11
3.08315e-11
-2.82205e-11
4.40584e-11
-2.57464e-11
5.8021e-11
-2.31225e-11
7.37906e-11
-2.03022e-11
9.00798e-11
-1.73598e-11
1.08476e-10
-1.45119e-11
1.27354e-10
-1.20611e-11
1.24525e-10
-8.95252e-12
1.5467e-10
-5.12341e-12
2.06151e-10
-6.8556e-13
2.4876e-10
2.0233e-12
2.69648e-10
-8.3008e-12
2.77851e-10
1.34104e-13
2.86067e-10
-2.38882e-12
-1.28675e-11
2.91121e-10
-3.96577e-13
-1.6599e-12
-1.55333e-12
-4.84198e-12
-3.41408e-12
-7.8892e-12
-5.91287e-12
-1.08014e-11
-8.98669e-12
-1.35766e-11
-1.2575e-11
-1.62141e-11
-1.66197e-11
-1.8713e-11
-2.10644e-11
-2.10727e-11
-2.58549e-11
-2.32927e-11
-3.09386e-11
-2.53728e-11
-3.62644e-11
-2.73128e-11
-4.17823e-11
-2.91128e-11
-4.74439e-11
-3.0773e-11
-5.32014e-11
-3.22941e-11
-5.9008e-11
-3.36763e-11
-6.48173e-11
-3.49206e-11
-7.05837e-11
-3.60276e-11
-7.62611e-11
-3.69986e-11
-8.18043e-11
-3.78343e-11
-8.71672e-11
-3.85363e-11
-9.23038e-11
-3.91057e-11
-9.71671e-11
-3.95441e-11
-1.01709e-10
-3.98529e-11
-1.05882e-10
-4.0034e-11
-1.09635e-10
-4.00891e-11
-1.12916e-10
-4.00203e-11
-1.1567e-10
-3.98295e-11
-1.17843e-10
-3.95191e-11
-1.19373e-10
-3.90916e-11
-1.20201e-10
-3.85495e-11
-1.20258e-10
-3.78959e-11
-1.19481e-10
-3.71336e-11
-1.17794e-10
-3.62663e-11
-1.15132e-10
-3.52973e-11
-1.11411e-10
-3.4231e-11
-1.0656e-10
-3.30713e-11
-1.00483e-10
-3.18233e-11
-9.3114e-11
-3.04919e-11
-8.43324e-11
-2.90838e-11
-7.40879e-11
-2.76043e-11
-6.25384e-11
-2.60614e-11
-5.01568e-11
-2.44428e-11
-3.64397e-11
-2.26698e-11
-2.06144e-11
-2.09597e-11
-2.51926e-12
-1.94294e-11
1.64147e-11
-1.83688e-11
2.46748e-11
-1.68023e-11
4.00921e-11
-1.54477e-11
5.44407e-11
-1.67375e-11
-1.90686e-11
6.06418e-11
-3.47556e-13
-1.31235e-12
-1.33581e-12
-3.85373e-12
-2.91497e-12
-6.31004e-12
-5.03794e-12
-8.67839e-12
-7.65818e-12
-1.09564e-11
-1.07298e-11
-1.31424e-11
-1.42077e-11
-1.52351e-11
-1.80472e-11
-1.72332e-11
-2.22044e-11
-1.91355e-11
-2.66359e-11
-2.09412e-11
-3.12991e-11
-2.26496e-11
-3.61518e-11
-2.42601e-11
-4.11523e-11
-2.57725e-11
-4.62597e-11
-2.71867e-11
-5.14331e-11
-2.85028e-11
-5.66326e-11
-2.97211e-11
-6.18182e-11
-3.0842e-11
-6.69505e-11
-3.18662e-11
-7.19905e-11
-3.27943e-11
-7.68993e-11
-3.36275e-11
-8.16382e-11
-3.43668e-11
-8.61689e-11
-3.50134e-11
-9.04531e-11
-3.55688e-11
-9.44525e-11
-3.60346e-11
-9.81291e-11
-3.64125e-11
-1.01445e-10
-3.67045e-11
-1.04362e-10
-3.69126e-11
-1.06842e-10
-3.70392e-11
-1.08847e-10
-3.70865e-11
-1.10339e-10
-3.70575e-11
-1.1128e-10
-3.69544e-11
-1.11633e-10
-3.67812e-11
-1.11359e-10
-3.65399e-11
-1.10421e-10
-3.62353e-11
-1.08783e-10
-3.58694e-11
-1.06406e-10
-3.54482e-11
-1.03256e-10
-3.49731e-11
-9.92962e-11
-3.44515e-11
-9.44958e-11
-3.38842e-11
-8.88197e-11
-3.32804e-11
-8.22422e-11
-3.26389e-11
-7.47136e-11
-3.19713e-11
-6.61097e-11
-3.12738e-11
-5.65071e-11
-3.05622e-11
-4.61053e-11
-2.98312e-11
-3.54074e-11
-2.90675e-11
-2.38676e-11
-2.83429e-11
-1.15325e-11
-2.7854e-11
-3.68382e-12
-2.7399e-11
-2.65395e-11
3.57373e-12
-2.95496e-13
-1.01685e-12
-1.12565e-12
-3.02357e-12
-2.44682e-12
-4.98887e-12
-4.22159e-12
-6.90362e-12
-6.41288e-12
-8.76508e-12
-8.98397e-12
-1.05713e-11
-1.18985e-11
-1.23205e-11
-1.51206e-11
-1.40111e-11
-1.86147e-11
-1.56415e-11
-2.23456e-11
-1.72103e-11
-2.62786e-11
-1.87166e-11
-3.03792e-11
-2.01595e-11
-3.46135e-11
-2.15382e-11
-3.8948e-11
-2.28522e-11
-4.33495e-11
-2.41013e-11
-4.77854e-11
-2.52853e-11
-5.22232e-11
-2.64041e-11
-5.66313e-11
-2.74581e-11
-6.09782e-11
-2.84474e-11
-6.52331e-11
-2.93726e-11
-6.93655e-11
-3.02343e-11
-7.33456e-11
-3.10333e-11
-7.71439e-11
-3.17704e-11
-8.07318e-11
-3.24467e-11
-8.4081e-11
-3.30633e-11
-8.7164e-11
-3.36215e-11
-8.9954e-11
-3.41226e-11
-9.2425e-11
-3.45682e-11
-9.45516e-11
-3.49599e-11
-9.63097e-11
-3.52994e-11
-9.76758e-11
-3.55884e-11
-9.86279e-11
-3.5829e-11
-9.91447e-11
-3.60231e-11
-9.92069e-11
-3.61731e-11
-9.87957e-11
-3.62806e-11
-9.78953e-11
-3.63486e-11
-9.64897e-11
-3.63786e-11
-9.45672e-11
-3.6374e-11
-9.21153e-11
-3.63361e-11
-8.91269e-11
-3.62688e-11
-8.55932e-11
-3.61727e-11
-8.15117e-11
-3.60528e-11
-7.68771e-11
-3.59084e-11
-7.16931e-11
-3.57462e-11
-6.59611e-11
-3.55632e-11
-5.96601e-11
-3.53685e-11
-5.28475e-11
-3.51554e-11
-4.5766e-11
-3.49355e-11
-3.84799e-11
-3.46852e-11
-3.46406e-11
-3.0387e-11
-1.38023e-13
-8.78829e-13
-5.71794e-13
-2.5898e-12
-1.29596e-12
-4.2647e-12
-2.29247e-12
-5.90711e-12
-3.5423e-12
-7.51524e-12
-5.02558e-12
-9.08804e-12
-6.72167e-12
-1.06245e-11
-8.60931e-12
-1.21234e-11
-1.06667e-11
-1.35841e-11
-1.28717e-11
-1.50054e-11
-1.52016e-11
-1.63867e-11
-1.76337e-11
-1.77274e-11
-2.0145e-11
-1.90269e-11
-2.27124e-11
-2.02848e-11
-2.53128e-11
-2.15009e-11
-2.79231e-11
-2.2675e-11
-3.05202e-11
-2.3807e-11
-3.30814e-11
-2.48969e-11
-3.5584e-11
-2.59449e-11
-3.80055e-11
-2.69511e-11
-4.03239e-11
-2.79159e-11
-4.25176e-11
-2.88397e-11
-4.45651e-11
-2.97229e-11
-4.64457e-11
-3.05661e-11
-4.8139e-11
-3.137e-11
-4.96254e-11
-3.21351e-11
-5.08856e-11
-3.28623e-11
-5.19015e-11
-3.35524e-11
-5.26552e-11
-3.42062e-11
-5.31299e-11
-3.48246e-11
-5.33098e-11
-3.54086e-11
-5.31797e-11
-3.59591e-11
-5.27256e-11
-3.64772e-11
-5.19347e-11
-3.6964e-11
-5.07949e-11
-3.74204e-11
-4.92958e-11
-3.78477e-11
-4.74277e-11
-3.82468e-11
-4.51826e-11
-3.86191e-11
-4.25533e-11
-3.89654e-11
-3.9535e-11
-3.92871e-11
-3.61224e-11
-3.95852e-11
-3.23141e-11
-3.98611e-11
-2.8107e-11
-4.01155e-11
-2.3503e-11
-4.03502e-11
-1.85006e-11
-4.05655e-11
-1.31053e-11
-4.07639e-11
-7.31605e-12
-4.09447e-11
-1.14014e-12
-4.11114e-11
5.43731e-12
-4.12627e-11
-4.14042e-11
1.22009e-11
-1.39791e-13
-7.39037e-13
-5.04793e-13
-2.2248e-12
-1.06849e-12
-3.701e-12
-1.81746e-12
-5.15814e-12
-2.73769e-12
-6.59501e-12
-3.81475e-12
-8.01098e-12
-5.03382e-12
-9.40538e-12
-6.37976e-12
-1.07775e-11
-7.83712e-12
-1.21267e-11
-9.39024e-12
-1.34523e-11
-1.10232e-11
-1.47537e-11
-1.272e-11
-1.60306e-11
-1.44645e-11
-1.72824e-11
-1.62404e-11
-1.85089e-11
-1.80315e-11
-1.97099e-11
-1.98214e-11
-2.0885e-11
-2.15942e-11
-2.20343e-11
-2.33335e-11
-2.31576e-11
-2.50234e-11
-2.42549e-11
-2.66481e-11
-2.53264e-11
-2.8192e-11
-2.6372e-11
-2.96398e-11
-2.73919e-11
-3.09764e-11
-2.83863e-11
-3.21872e-11
-2.93554e-11
-3.32579e-11
-3.02993e-11
-3.41748e-11
-3.12182e-11
-3.49247e-11
-3.21125e-11
-3.54949e-11
-3.29822e-11
-3.58736e-11
-3.38275e-11
-3.60495e-11
-3.46487e-11
-3.60124e-11
-3.54456e-11
-3.57529e-11
-3.62186e-11
-3.52626e-11
-3.69675e-11
-3.45341e-11
-3.76924e-11
-3.35616e-11
-3.83929e-11
-3.23401e-11
-3.90692e-11
-3.08664e-11
-3.97205e-11
-2.91385e-11
-4.0347e-11
-2.71562e-11
-4.09477e-11
-2.49207e-11
-4.15226e-11
-2.24355e-11
-4.20704e-11
-1.97052e-11
-4.25914e-11
-1.67371e-11
-4.30835e-11
-1.35398e-11
-4.35476e-11
-1.01249e-11
-4.39804e-11
-6.50477e-12
-4.4384e-11
-2.69488e-12
-4.47546e-11
1.29209e-12
-4.50984e-11
5.43538e-12
-4.5406e-11
-4.55287e-11
9.55989e-12
-1.77065e-14
-7.21331e-13
-1.11489e-13
-2.13102e-12
-2.90497e-13
-3.522e-12
-5.48337e-13
-4.9003e-12
-8.78144e-13
-6.2652e-12
-1.27259e-12
-7.61653e-12
-1.72392e-12
-8.95405e-12
-2.22398e-12
-1.02774e-11
-2.76428e-12
-1.15864e-11
-3.33598e-12
-1.28806e-11
-3.92997e-12
-1.41597e-11
-4.5369e-12
-1.54237e-11
-5.14713e-12
-1.66722e-11
-5.75087e-12
-1.79052e-11
-6.33809e-12
-1.91226e-11
-6.8986e-12
-2.03245e-11
-7.42207e-12
-2.15108e-11
-7.89803e-12
-2.26816e-11
-8.31593e-12
-2.3837e-11
-8.66511e-12
-2.49772e-11
-8.93488e-12
-2.61022e-11
-9.11455e-12
-2.72122e-11
-9.19346e-12
-2.83074e-11
-9.161e-12
-2.93878e-11
-9.00674e-12
-3.04535e-11
-8.72038e-12
-3.15046e-11
-8.29197e-12
-3.25409e-11
-7.71179e-12
-3.35624e-11
-6.97072e-12
-3.45686e-11
-6.05998e-12
-3.55594e-11
-4.97168e-12
-3.65339e-11
-3.69843e-12
-3.74919e-11
-2.2341e-12
-3.84318e-11
-5.73183e-13
-3.93533e-11
1.28807e-12
-4.02542e-11
3.35274e-12
-4.11338e-11
5.62146e-12
-4.19892e-11
8.09429e-12
-4.28198e-11
1.0768e-11
-4.36213e-11
1.3639e-11
-4.43937e-11
1.66992e-11
-4.51307e-11
1.99413e-11
-4.58335e-11
2.33511e-11
-4.64933e-11
2.6917e-11
-4.71135e-11
3.06198e-11
-4.76832e-11
3.44486e-11
-4.82129e-11
3.83728e-11
-4.86788e-11
4.2222e-11
-4.89475e-11
4.57625e-11
-4.915e-11
-4.95313e-11
4.84286e-11
-3.94366e-14
-6.81894e-13
-1.07811e-13
-2.06265e-12
-1.86975e-13
-3.44283e-12
-2.74137e-13
-4.81314e-12
-3.66321e-13
-6.17302e-12
-4.60432e-13
-7.52242e-12
-5.53275e-13
-8.86121e-12
-6.41541e-13
-1.01892e-11
-7.21815e-13
-1.15061e-11
-7.9054e-13
-1.28119e-11
-8.44034e-13
-1.41062e-11
-8.78439e-13
-1.53893e-11
-8.89743e-13
-1.66609e-11
-8.73703e-13
-1.79212e-11
-8.25893e-13
-1.91704e-11
-7.41594e-13
-2.04088e-11
-6.15879e-13
-2.16365e-11
-4.43459e-13
-2.2854e-11
-2.18825e-13
-2.40617e-11
6.3957e-14
-2.526e-11
4.11027e-13
-2.64493e-11
8.29016e-13
-2.76302e-11
1.3247e-12
-2.88031e-11
1.90541e-12
-2.99685e-11
2.5785e-12
-3.11266e-11
3.35195e-12
-3.2278e-11
4.23351e-12
-3.34224e-11
5.23167e-12
-3.45605e-11
6.35434e-12
-3.56912e-11
7.61023e-12
-3.68153e-11
9.00698e-12
-3.79307e-11
1.05532e-11
-3.90381e-11
1.22556e-11
-4.01343e-11
1.41223e-11
-4.122e-11
1.61582e-11
-4.22901e-11
1.83703e-11
-4.3346e-11
2.07607e-11
-4.43796e-11
2.33348e-11
-4.53939e-11
2.60903e-11
-4.63769e-11
2.90305e-11
-4.73338e-11
3.21469e-11
-4.82472e-11
3.54404e-11
-4.91269e-11
3.88956e-11
-4.99486e-11
4.25163e-11
-5.07343e-11
4.62797e-11
-5.14465e-11
4.989e-11
-5.18232e-11
5.31533e-11
-5.21045e-11
5.42154e-11
-5.2385e-11
4.64183e-11
-5.10954e-11
-4.92067e-11
4.59688e-11
4.33258e-14
-7.2522e-13
1.26756e-13
-2.14608e-12
2.37599e-13
-3.55367e-12
3.78931e-13
-4.95447e-12
5.52749e-13
-6.34684e-12
7.60205e-13
-7.72988e-12
1.00174e-12
-9.10274e-12
1.2772e-12
-1.04646e-11
1.58594e-12
-1.18149e-11
1.92692e-12
-1.31528e-11
2.29882e-12
-1.44781e-11
2.70012e-12
-1.57905e-11
3.12918e-12
-1.70899e-11
3.58436e-12
-1.83764e-11
4.06405e-12
-1.96501e-11
4.56685e-12
-2.09116e-11
5.09151e-12
-2.21612e-11
5.63715e-12
-2.33997e-11
6.2032e-12
-2.46277e-11
6.78963e-12
-2.58464e-11
7.3968e-12
-2.70564e-11
8.02585e-12
-2.82593e-11
8.67828e-12
-2.94555e-11
9.3567e-12
-3.0647e-11
1.0064e-11
-3.18339e-11
1.08045e-11
-3.30185e-11
1.15825e-11
-3.42005e-11
1.24045e-11
-3.53825e-11
1.32763e-11
-3.6563e-11
1.42065e-11
-3.77455e-11
1.52026e-11
-3.89267e-11
1.62756e-11
-4.01112e-11
1.74342e-11
-4.12928e-11
1.86921e-11
-4.2478e-11
2.00587e-11
-4.36567e-11
2.15509e-11
-4.48382e-11
2.31779e-11
-4.60066e-11
2.49597e-11
-4.71757e-11
2.69042e-11
-4.83213e-11
2.90345e-11
-4.94641e-11
3.13562e-11
-5.05689e-11
3.39006e-11
-5.16712e-11
3.66771e-11
-5.27251e-11
3.9423e-11
-5.34802e-11
4.20294e-11
-5.41446e-11
4.07281e-11
-5.53289e-11
2.96319e-11
-5.39404e-11
2.85718e-11
-5.14959e-11
1.99628e-11
-4.24863e-11
8.69696e-12
-3.79409e-11
4.13027e-14
-7.66523e-13
2.21753e-13
-2.32653e-12
5.53537e-13
-3.88546e-12
1.02713e-12
-5.42806e-12
1.63293e-12
-6.95264e-12
2.36128e-12
-8.45823e-12
3.20253e-12
-9.94399e-12
4.14701e-12
-1.14091e-11
5.18516e-12
-1.2853e-11
6.30745e-12
-1.42751e-11
7.50455e-12
-1.56752e-11
8.7672e-12
-1.70532e-11
1.00864e-11
-1.84091e-11
1.14532e-11
-1.97432e-11
1.28591e-11
-2.10561e-11
1.42957e-11
-2.23481e-11
1.57548e-11
-2.36203e-11
1.72286e-11
-2.48735e-11
1.87098e-11
-2.61089e-11
2.0191e-11
-2.73276e-11
2.16657e-11
-2.85312e-11
2.31274e-11
-2.97209e-11
2.45705e-11
-3.08986e-11
2.59893e-11
-3.20657e-11
2.73794e-11
-3.32241e-11
2.87364e-11
-3.43755e-11
3.00575e-11
-3.55215e-11
3.13392e-11
-3.66643e-11
3.25809e-11
-3.78047e-11
3.37809e-11
-3.89455e-11
3.49408e-11
-4.00867e-11
3.60611e-11
-4.12314e-11
3.71467e-11
-4.23784e-11
3.82003e-11
-4.35316e-11
3.92314e-11
-4.46878e-11
4.02453e-11
-4.58521e-11
4.12574e-11
-4.70187e-11
4.2276e-11
-4.81943e-11
4.3325e-11
-4.93704e-11
4.44185e-11
-5.05576e-11
4.55919e-11
-5.17423e-11
4.65707e-11
-5.265e-11
4.73323e-11
-5.34867e-11
4.48964e-11
-5.48915e-11
2.54979e-11
-5.37116e-11
2.01115e-11
-5.01752e-11
-1.56026e-11
-1.82264e-11
-4.09816e-11
-2.61168e-11
-6.1372e-11
-2.2096e-11
2.58049e-10
-3.10724e-10
1.86503e-13
-9.53025e-13
6.44787e-13
-2.78481e-12
1.32931e-12
-4.56998e-12
2.22158e-12
-6.32034e-12
3.3035e-12
-8.03456e-12
4.55757e-12
-9.7123e-12
5.9669e-12
-1.13533e-11
7.51521e-12
-1.29574e-11
9.18677e-12
-1.45246e-11
1.09664e-11
-1.60547e-11
1.28393e-11
-1.75482e-11
1.47912e-11
-1.90051e-11
1.68081e-11
-2.0426e-11
1.88764e-11
-2.18115e-11
2.09827e-11
-2.31624e-11
2.31138e-11
-2.44793e-11
2.52569e-11
-2.57634e-11
2.73989e-11
-2.70155e-11
2.95272e-11
-2.82372e-11
3.16288e-11
-2.94292e-11
3.36912e-11
-3.05935e-11
3.57011e-11
-3.17309e-11
3.76462e-11
-3.28437e-11
3.95128e-11
-3.39324e-11
4.12888e-11
-3.50001e-11
4.29599e-11
-3.60466e-11
4.45143e-11
-3.7076e-11
4.59371e-11
-3.80871e-11
4.72175e-11
-3.90851e-11
4.83396e-11
-4.00676e-11
4.92944e-11
-4.10414e-11
5.00649e-11
-4.20019e-11
5.06452e-11
-4.29587e-11
5.1017e-11
-4.39035e-11
5.11795e-11
-4.48502e-11
5.11128e-11
-4.57854e-11
5.08237e-11
-4.67297e-11
5.02912e-11
-4.76618e-11
4.95332e-11
-4.86123e-11
4.852e-11
-4.95444e-11
4.72734e-11
-5.04957e-11
4.61617e-11
-5.20933e-11
2.04845e-11
-5.1569e-11
1.04649e-11
-5.03348e-11
-1.81501e-11
-2.50966e-11
-2.13052e-11
-4.70271e-11
-1.9138e-11
-2.03935e-11
-1.63396e-10
1.18142e-10
-3.06182e-10
1.2069e-10
2.43072e-10
-2.91206e-10
8.16163e-14
-1.03464e-12
3.94865e-13
-3.09806e-12
9.44912e-13
-5.12003e-12
1.7067e-12
-7.08212e-12
2.65627e-12
-8.98413e-12
3.77069e-12
-1.08267e-11
5.02792e-12
-1.26105e-11
6.4067e-12
-1.43362e-11
7.88646e-12
-1.60043e-11
9.44725e-12
-1.76155e-11
1.10695e-11
-1.91705e-11
1.27343e-11
-2.06698e-11
1.44227e-11
-2.21144e-11
1.61162e-11
-2.35051e-11
1.77965e-11
-2.48427e-11
1.94454e-11
-2.61282e-11
2.10446e-11
-2.73626e-11
2.25759e-11
-2.85469e-11
2.40211e-11
-2.96824e-11
2.53618e-11
-3.07699e-11
2.65793e-11
-3.18111e-11
2.7655e-11
-3.28066e-11
2.85697e-11
-3.37584e-11
2.93043e-11
-3.46669e-11
2.98388e-11
-3.55346e-11
3.01537e-11
-3.63615e-11
3.02283e-11
-3.71505e-11
3.00422e-11
-3.79009e-11
2.95739e-11
-3.86169e-11
2.88023e-11
-3.9296e-11
2.77051e-11
-3.99442e-11
2.62601e-11
-4.05569e-11
2.44438e-11
-4.11423e-11
2.22328e-11
-4.16925e-11
1.96022e-11
-4.22196e-11
1.65268e-11
-4.271e-11
1.29787e-11
-4.31816e-11
8.92884e-12
-4.36119e-11
4.34649e-12
-4.403e-11
-7.87651e-13
-4.44103e-11
-1.10263e-11
-4.48564e-11
-3.67405e-11
-4.50676e-11
-4.63357e-11
-4.21281e-11
-6.3261e-11
-3.3411e-11
-4.86521e-11
-3.97047e-11
-9.15927e-11
-4.08363e-12
-1.19302e-10
7.31571e-12
-7.78719e-11
7.67116e-11
-7.33783e-11
1.16196e-10
1.27046e-10
4.26477e-11
1.74902e-13
-1.20954e-12
5.63613e-13
-3.48677e-12
1.11085e-12
-5.66727e-12
1.7995e-12
-7.77078e-12
2.61094e-12
-9.79556e-12
3.52565e-12
-1.17414e-11
4.52337e-12
-1.36083e-11
5.58324e-12
-1.53961e-11
6.68382e-12
-1.71049e-11
7.80322e-12
-1.87349e-11
8.91899e-12
-2.02862e-11
1.00084e-11
-2.17592e-11
1.10481e-11
-2.31542e-11
1.20147e-11
-2.44716e-11
1.28842e-11
-2.57122e-11
1.36325e-11
-2.68764e-11
1.4235e-11
-2.79651e-11
1.46673e-11
-2.89792e-11
1.49042e-11
-2.99193e-11
1.49211e-11
-3.07868e-11
1.46924e-11
-3.15824e-11
1.41937e-11
-3.23078e-11
1.33992e-11
-3.29639e-11
1.22849e-11
-3.35526e-11
1.08255e-11
-3.40753e-11
8.99809e-12
-3.45341e-11
6.77817e-12
-3.49306e-11
4.14504e-12
-3.52678e-11
1.07573e-12
-3.55476e-11
-2.44677e-12
-3.57735e-11
-6.44287e-12
-3.59481e-11
-1.09238e-11
-3.60759e-11
-1.59062e-11
-3.616e-11
-2.13926e-11
-3.62061e-11
-2.73937e-11
-3.62185e-11
-3.38995e-11
-3.62042e-11
-4.09127e-11
-3.61683e-11
-4.84076e-11
-3.6117e-11
-5.6379e-11
-3.60586e-11
-7.05546e-11
-3.60349e-11
-9.57314e-11
-3.61354e-11
-1.04505e-10
-3.62945e-11
-1.08454e-10
-3.81783e-11
-9.11104e-11
-5.07519e-11
-5.5133e-11
-7.56821e-11
2.55274e-11
-8.4744e-11
1.09742e-10
-7.68988e-11
2.59319e-10
-7.28655e-11
4.42488e-10
-6.69728e-11
-6.08948e-11
6.3043e-10
7.82844e-14
-1.28783e-12
4.43244e-13
-3.85173e-12
1.11302e-12
-6.33704e-12
2.05168e-12
-8.70943e-12
3.22422e-12
-1.09681e-11
4.5966e-12
-1.31138e-11
6.13562e-12
-1.51473e-11
7.80884e-12
-1.70693e-11
9.58453e-12
-1.88806e-11
1.14314e-11
-2.05818e-11
1.33186e-11
-2.21734e-11
1.52155e-11
-2.36561e-11
1.70915e-11
-2.50302e-11
1.8916e-11
-2.62961e-11
2.06581e-11
-2.74543e-11
2.22866e-11
-2.85049e-11
2.37695e-11
-2.94481e-11
2.50742e-11
-3.02838e-11
2.61671e-11
-3.10122e-11
2.70132e-11
-3.16328e-11
2.75764e-11
-3.21456e-11
2.78184e-11
-3.25498e-11
2.76997e-11
-3.28452e-11
2.71775e-11
-3.30305e-11
2.62079e-11
-3.31056e-11
2.47423e-11
-3.30685e-11
2.27312e-11
-3.29195e-11
2.01187e-11
-3.26554e-11
1.68484e-11
-3.22773e-11
1.28556e-11
-3.17807e-11
8.07538e-12
-3.11679e-11
2.43198e-12
-3.04325e-11
-4.14892e-12
-2.95791e-11
-1.17569e-11
-2.85981e-11
-2.04772e-11
-2.74982e-11
-3.04165e-11
-2.62649e-11
-4.16701e-11
-2.49148e-11
-5.43584e-11
-2.34287e-11
-6.86089e-11
-2.1835e-11
-1.13207e-10
-2.00613e-11
-1.29745e-10
-1.95972e-11
-1.47509e-10
-1.85305e-11
-1.37721e-10
-4.79189e-11
-1.12608e-10
-7.58644e-11
-7.71842e-11
-1.11106e-10
1.62742e-11
-1.78202e-10
1.54573e-10
-2.15198e-10
3.40249e-10
-2.58542e-10
5.37135e-10
-2.63859e-10
-2.57679e-10
7.33919e-10
3.85024e-13
-1.67285e-12
1.26937e-12
-4.73607e-12
2.53325e-12
-7.60093e-12
4.13038e-12
-1.03066e-11
6.01619e-12
-1.28539e-11
8.14847e-12
-1.52461e-11
1.04874e-11
-1.74863e-11
1.29957e-11
-1.95775e-11
1.5638e-11
-2.15229e-11
1.83811e-11
-2.33249e-11
2.11933e-11
-2.49857e-11
2.40446e-11
-2.65073e-11
2.69058e-11
-2.78914e-11
2.97487e-11
-2.9139e-11
3.25456e-11
-3.02512e-11
3.52687e-11
-3.1228e-11
3.78903e-11
-3.20697e-11
4.03815e-11
-3.2775e-11
4.27127e-11
-3.33434e-11
4.48521e-11
-3.37723e-11
4.67664e-11
-3.40599e-11
4.84188e-11
-3.42021e-11
4.97697e-11
-3.41961e-11
5.07748e-11
-3.40356e-11
5.13859e-11
-3.37167e-11
5.15477e-11
-3.32303e-11
5.12002e-11
-3.25719e-11
5.02735e-11
-3.17286e-11
4.86916e-11
-3.06954e-11
4.63653e-11
-2.94544e-11
4.31982e-11
-2.80008e-11
3.90756e-11
-2.63099e-11
3.38746e-11
-2.43781e-11
2.74477e-11
-2.21712e-11
1.96384e-11
-1.96888e-11
1.02563e-11
-1.68829e-11
-8.97921e-13
-1.37605e-11
-1.40707e-11
-1.02559e-11
-2.95167e-11
-6.38894e-12
-5.62439e-11
-2.05816e-12
-9.66483e-11
6.41222e-12
-1.18853e-10
3.57982e-12
-1.48427e-10
-1.83473e-11
-2.17465e-10
-6.81046e-12
-2.02424e-10
-1.26004e-10
-3.13103e-10
-6.75233e-11
-3.25857e-10
-2.02444e-10
-3.08288e-10
-2.7611e-10
-1.78893e-10
-3.93254e-10
-4.51108e-10
1.4537e-11
-3.09192e-14
-1.64193e-12
6.48238e-14
-4.83182e-12
3.06293e-13
-7.84239e-12
6.30475e-13
-1.06307e-11
9.83222e-13
-1.32067e-11
1.31849e-12
-1.55814e-11
1.5976e-12
-1.77654e-11
1.78871e-12
-1.97686e-11
1.86614e-12
-2.16003e-11
1.80997e-12
-2.32687e-11
1.60538e-12
-2.47811e-11
1.24233e-12
-2.61443e-11
7.14938e-13
-2.7364e-11
2.12751e-14
-2.84454e-11
-8.37256e-13
-2.93927e-11
-1.85592e-12
-3.02094e-11
-3.02742e-12
-3.08982e-11
-4.34156e-12
-3.14609e-11
-5.78625e-12
-3.18987e-11
-7.34678e-12
-3.22117e-11
-9.0071e-12
-3.23996e-11
-1.07486e-11
-3.24606e-11
-1.25519e-11
-3.23928e-11
-1.43947e-11
-3.21928e-11
-1.62546e-11
-3.18568e-11
-1.81056e-11
-3.13794e-11
-1.99221e-11
-3.07554e-11
-2.16738e-11
-2.9977e-11
-2.33316e-11
-2.90375e-11
-2.48596e-11
-2.79264e-11
-2.62245e-11
-2.66359e-11
-2.73824e-11
-2.5152e-11
-2.82944e-11
-2.34661e-11
-2.89055e-11
-2.15602e-11
-2.91685e-11
-1.94257e-11
-2.90122e-11
-1.70392e-11
-2.83791e-11
-1.43936e-11
-2.71783e-11
-1.14568e-11
-2.53447e-11
-8.22256e-12
-2.27547e-11
-4.64816e-12
-1.57849e-11
-1.9195e-12
-2.7047e-11
1.01109e-12
-5.37397e-11
6.38015e-12
-6.36061e-11
3.04035e-12
-1.83828e-10
-5.78209e-12
-2.61099e-10
9.75621e-12
-3.31764e-10
-1.31707e-10
-5.21849e-10
-8.54391e-11
-4.61517e-10
-4.53586e-10
-3.00398e-10
-6.12228e-10
5.51354e-13
-2.19329e-12
1.57709e-12
-5.85755e-12
2.73707e-12
-9.00237e-12
3.85608e-12
-1.17498e-11
4.80067e-12
-1.41512e-11
5.47075e-12
-1.62514e-11
5.79412e-12
-1.80887e-11
5.72165e-12
-1.96962e-11
5.22335e-12
-2.1102e-11
4.28502e-12
-2.23304e-11
2.90558e-12
-2.34017e-11
1.09478e-12
-2.43335e-11
-1.1286e-12
-2.51406e-11
-3.73825e-12
-2.58357e-11
-6.70159e-12
-2.64293e-11
-9.98065e-12
-2.69303e-11
-1.3533e-11
-2.73458e-11
-1.73121e-11
-2.76818e-11
-2.12682e-11
-2.79426e-11
-2.53482e-11
-2.81317e-11
-2.94964e-11
-2.82514e-11
-3.36543e-11
-2.83027e-11
-3.77614e-11
-2.82858e-11
-4.17541e-11
-2.82e-11
-4.55676e-11
-2.80433e-11
-4.91341e-11
-2.78129e-11
-5.23846e-11
-2.75048e-11
-5.52476e-11
-2.7114e-11
-5.7651e-11
-2.66341e-11
-5.95199e-11
-2.60575e-11
-6.0781e-11
-2.53749e-11
-6.13573e-11
-2.45756e-11
-6.11768e-11
-2.36466e-11
-6.01635e-11
-2.25735e-11
-5.82514e-11
-2.13379e-11
-5.53699e-11
-1.99207e-11
-5.1467e-11
-1.82965e-11
-4.64845e-11
-1.64393e-11
-4.03914e-11
-1.43156e-11
-3.31493e-11
-1.18903e-11
-2.59512e-11
-9.11759e-12
-1.90093e-11
-5.93084e-12
-1.20999e-11
-3.02743e-12
-1.27773e-11
3.93309e-13
-2.34205e-11
4.83211e-12
-1.56882e-11
2.02429e-12
-1.50253e-10
2.88207e-12
-2.42649e-10
7.19349e-12
-6.78779e-10
-1.47906e-11
-8.43431e-12
-9.70743e-10
1.72067e-11
3.07492e-11
4.11468e-11
4.8797e-11
5.40458e-11
5.71943e-11
5.85056e-11
5.82094e-11
5.65074e-11
5.3577e-11
4.95753e-11
4.46419e-11
3.89013e-11
3.24656e-11
2.54362e-11
1.79059e-11
9.9601e-12
1.67834e-12
-6.86429e-12
-1.5596e-11
-2.44474e-11
-3.33501e-11
-4.22359e-11
-5.10359e-11
-5.96792e-11
-6.80922e-11
-7.6197e-11
-8.3911e-11
-9.11451e-11
-9.78026e-11
-1.03778e-10
-1.08953e-10
-1.132e-10
-1.16373e-10
-1.18311e-10
-1.18832e-10
-1.17728e-10
-1.14768e-10
-1.09683e-10
-1.02174e-10
-9.18911e-11
-7.8422e-11
-6.20494e-11
-4.22562e-11
-1.90822e-11
1.97158e-12
2.14593e-11
4.69236e-11
1.24029e-11
3.1795e-11
-1.51557e-10
2.59199e-12
-1.24777e-10
7.13597e-12
-8.30689e-11
1.99805e-11
-2.94078e-11
3.416e-11
3.62167e-11
4.73249e-11
1.15607e-10
5.93121e-11
1.90927e-10
8.90468e-11
2.61956e-10
1.13845e-10
3.29368e-10
1.35904e-10
4.02795e-10
1.52657e-10
4.63738e-10
1.72147e-10
5.12523e-10
1.89859e-10
5.52478e-10
2.07011e-10
5.80807e-10
2.23289e-10
5.98164e-10
2.37754e-10
6.05385e-10
2.50477e-10
6.03725e-10
2.61706e-10
5.94333e-10
2.7165e-10
5.78332e-10
2.80115e-10
5.56874e-10
2.8745e-10
5.31326e-10
2.93277e-10
5.03393e-10
2.97316e-10
4.7338e-10
3.00782e-10
4.41477e-10
3.03767e-10
4.08019e-10
3.06032e-10
3.73079e-10
3.07658e-10
3.36994e-10
3.08202e-10
2.99764e-10
3.07682e-10
2.62023e-10
3.05238e-10
2.23779e-10
3.01149e-10
1.85094e-10
2.95113e-10
1.45581e-10
2.87233e-10
1.04674e-10
2.77358e-10
6.08708e-11
2.66176e-10
1.24361e-11
2.54099e-10
-4.28612e-11
2.43458e-10
-1.02477e-10
2.33828e-10
-1.58183e-10
2.21146e-10
-2.23506e-10
2.09827e-10
-3.1061e-10
2.10303e-10
-3.83591e-10
1.76809e-10
-4.4707e-10
1.51116e-10
-5.20522e-10
1.53714e-10
-5.97236e-10
1.57058e-10
-6.9131e-10
1.74112e-10
-7.73014e-10
1.61627e-10
-8.50407e-10
1.55665e-10
-9.25972e-10
1.5453e-10
-1.00089e-09
1.56871e-10
1.63703e-10
-1.07818e-09
3.96968e-10
-1.7366e-11
4.18782e-10
-1.46778e-11
4.43738e-10
-4.97588e-12
4.73744e-10
4.15457e-12
5.09932e-10
1.11368e-11
5.49406e-10
1.98377e-11
6.04321e-10
3.41321e-11
6.6676e-10
5.1406e-11
7.31858e-10
7.08069e-11
7.91956e-10
9.25581e-11
8.48495e-10
1.15609e-10
8.99056e-10
1.39298e-10
9.43644e-10
1.62423e-10
9.82864e-10
1.84068e-10
1.01679e-09
2.0383e-10
1.04548e-09
2.21785e-10
1.06899e-09
2.38197e-10
1.08757e-09
2.5307e-10
1.10111e-09
2.66579e-10
1.10978e-09
2.78778e-10
1.11303e-09
2.9003e-10
1.11264e-09
2.977e-10
1.1084e-09
3.05029e-10
1.1005e-09
3.1166e-10
1.08912e-09
3.17412e-10
1.07441e-09
3.22374e-10
1.05617e-09
3.26436e-10
1.03441e-09
3.29446e-10
1.00824e-09
3.31403e-10
9.77259e-10
3.32133e-10
9.40747e-10
3.31625e-10
8.98241e-10
3.29739e-10
8.48517e-10
3.27082e-10
7.93052e-10
3.21642e-10
7.30391e-10
3.16759e-10
6.61911e-10
3.11939e-10
5.89025e-10
3.06713e-10
5.1241e-10
2.97762e-10
4.35539e-10
2.86698e-10
3.88314e-10
2.57528e-10
3.16787e-10
2.48336e-10
2.15997e-10
2.51906e-10
1.10542e-10
2.59169e-10
-5.09654e-12
2.72697e-10
-8.32552e-11
2.52271e-10
-1.68503e-10
2.46875e-10
-2.61122e-10
2.48283e-10
-3.39856e-10
2.33264e-10
-4.12426e-10
2.29441e-10
2.28334e-10
-4.77058e-10
2.8478e-10
-1.10245e-11
2.75891e-10
-5.78969e-12
2.73198e-10
-2.28259e-12
2.78502e-10
-1.14939e-12
2.90445e-10
-8.0627e-13
3.08094e-10
2.18868e-12
3.34961e-10
7.26577e-12
3.71782e-10
1.45848e-11
4.18529e-10
2.406e-11
4.75748e-10
3.53385e-11
5.43008e-10
4.83487e-11
6.19424e-10
6.28831e-11
7.0329e-10
7.85571e-11
7.92755e-10
9.46035e-11
8.86249e-10
1.10336e-10
9.82449e-10
1.25584e-10
1.08033e-09
1.40313e-10
1.17896e-09
1.54447e-10
1.27705e-09
1.6848e-10
1.37407e-09
1.81758e-10
1.46988e-09
1.94224e-10
1.56251e-09
2.05069e-10
1.65343e-09
2.14111e-10
1.74236e-09
2.2273e-10
1.82911e-09
2.30665e-10
1.91341e-09
2.38071e-10
1.99511e-09
2.44734e-10
2.07385e-09
2.50701e-10
2.14906e-09
2.56194e-10
2.22021e-09
2.60988e-10
2.28628e-09
2.65559e-10
2.34664e-09
2.69373e-10
2.39926e-09
2.74464e-10
2.44815e-09
2.72749e-10
2.4931e-09
2.71814e-10
2.53478e-09
2.70254e-10
2.57354e-09
2.67959e-10
2.60725e-09
2.64045e-10
2.63637e-09
2.57582e-10
2.6434e-09
2.50493e-10
2.64775e-09
2.43986e-10
2.65099e-09
2.48673e-10
2.64796e-09
2.62196e-10
2.64514e-09
2.75522e-10
2.61649e-09
2.80919e-10
2.59378e-09
2.69583e-10
2.58897e-09
2.5309e-10
2.56996e-09
2.52274e-10
2.54282e-09
2.56588e-10
2.55974e-10
2.51518e-09
7.00557e-11
-2.04385e-11
8.68623e-11
-2.25962e-11
1.08835e-10
-2.42553e-11
1.30211e-10
-2.25257e-11
1.48672e-10
-1.92673e-11
1.67778e-10
-1.69175e-11
1.89382e-10
-1.43374e-11
2.15887e-10
-1.19204e-11
2.49652e-10
-9.7049e-12
2.91622e-10
-6.63163e-12
3.41981e-10
-2.01024e-12
4.00628e-10
4.23617e-12
4.66258e-10
1.29272e-11
5.38803e-10
2.20579e-11
6.17721e-10
3.1418e-11
7.02321e-10
4.09843e-11
7.91997e-10
5.06365e-11
8.85554e-10
6.08899e-11
9.82808e-10
7.1227e-11
1.08348e-09
8.10826e-11
1.18749e-09
9.02128e-11
1.29403e-09
9.85301e-11
1.40129e-09
1.06851e-10
1.50944e-09
1.14589e-10
1.61833e-09
1.21769e-10
1.72775e-09
1.28651e-10
1.83757e-09
1.34916e-10
1.94766e-09
1.4061e-10
2.05859e-09
1.4526e-10
2.16665e-09
1.5293e-10
2.27558e-09
1.56633e-10
2.38393e-09
1.6102e-10
2.49547e-09
1.62921e-10
2.59986e-09
1.68362e-10
2.70292e-09
1.68753e-10
2.80344e-09
1.69735e-10
2.90323e-09