/*--------------------------------*- C++ -*----------------------------------*\
| =========                 |                                                 |
| \\      /  F ield         | OpenFOAM: The Open Source CFD Toolbox           |
|  \\    /   O peration     | Version:  2.4.0                                 |
|   \\  /    A nd           | Web:      www.OpenFOAM.org                      |
|    \\/     M anipulation  |                                                 |
\*---------------------------------------------------------------------------*/
FoamFile
{
    version     2.0;
    format      ascii;
    class       volScalarField;
    location    "3.6";
    object      T;
}
// * * * * * * * * * * * * * * * * * * * * * * * * * * * * * * * * * * * * * //

dimensions      [0 0 0 1 0 0 0];

internalField   nonuniform List<scalar> 
8000
(
293.127
293.381
293.631
293.877
294.116
294.349
294.575
294.794
295.005
295.209
295.404
295.592
295.772
295.943
296.106
296.261
296.408
296.546
296.677
296.8
296.916
297.026
297.129
297.228
297.322
297.413
297.501
297.587
297.672
297.756
297.836
297.907
297.962
298
298
298
298
297.991
297.978
297.969
297.96
297.953
297.947
297.942
297.937
297.933
297.93
297.927
297.925
297.924
293.114
293.342
293.57
293.795
294.019
294.24
294.457
294.671
294.879
295.082
295.279
295.468
295.65
295.824
295.989
296.145
296.292
296.431
296.56
296.681
296.793
296.898
296.996
297.088
297.174
297.255
297.331
297.404
297.473
297.538
297.602
297.663
297.722
297.779
297.835
297.889
297.943
297.999
298
298
298
297.996
297.991
297.986
297.981
297.977
297.972
297.969
297.966
297.963
293.112
293.335
293.559
293.783
294.007
294.23
294.451
294.67
294.885
295.094
295.298
295.495
295.683
295.863
296.033
296.193
296.343
296.482
296.611
296.73
296.84
296.941
297.033
297.118
297.196
297.267
297.333
297.394
297.451
297.505
297.555
297.603
297.649
297.693
297.737
297.779
297.821
297.863
297.904
297.944
297.981
298
298
298
298
297.998
297.996
297.994
297.991
297.989
293.114
293.342
293.572
293.802
294.032
294.261
294.49
294.716
294.938
295.154
295.365
295.567
295.761
295.945
296.119
296.282
296.433
296.574
296.703
296.822
296.93
297.029
297.119
297.201
297.275
297.343
297.404
297.46
297.511
297.558
297.601
297.641
297.678
297.713
297.746
297.777
297.806
297.834
297.86
297.885
297.91
297.932
297.955
297.976
297.994
298
298
298
297.999
297.999
293.117
293.35
293.584
293.819
294.053
294.285
294.516
294.744
294.967
295.184
295.395
295.597
295.79
295.973
296.145
296.306
296.456
296.595
296.723
296.841
296.948
297.046
297.134
297.215
297.288
297.355
297.415
297.469
297.519
297.565
297.606
297.644
297.679
297.711
297.741
297.768
297.794
297.818
297.84
297.861
297.88
297.898
297.915
297.931
297.946
297.96
297.973
297.986
298
298
293.117
293.352
293.587
293.821
294.054
294.284
294.512
294.736
294.954
295.166
295.371
295.568
295.755
295.932
296.099
296.256
296.402
296.537
296.662
296.777
296.883
296.98
297.068
297.149
297.223
297.29
297.351
297.407
297.458
297.505
297.548
297.588
297.624
297.658
297.69
297.719
297.746
297.771
297.795
297.817
297.838
297.858
297.876
297.894
297.911
297.927
297.942
297.957
297.971
297.985
293.115
293.346
293.576
293.804
294.031
294.254
294.474
294.688
294.897
295.1
295.295
295.481
295.659
295.828
295.987
296.137
296.277
296.408
296.529
296.641
296.745
296.841
296.93
297.011
297.086
297.156
297.22
297.279
297.334
297.385
297.432
297.476
297.517
297.556
297.592
297.627
297.659
297.69
297.719
297.746
297.773
297.798
297.822
297.844
297.866
297.886
297.906
297.924
297.942
297.958
293.111
293.332
293.552
293.769
293.985
294.196
294.403
294.606
294.802
294.991
295.174
295.348
295.515
295.674
295.824
295.965
296.098
296.223
296.34
296.45
296.552
296.647
296.736
296.819
296.897
296.969
297.037
297.101
297.161
297.218
297.271
297.322
297.37
297.416
297.46
297.502
297.543
297.582
297.62
297.656
297.691
297.725
297.758
297.789
297.82
297.849
297.877
297.903
297.928
297.951
293.104
293.311
293.517
293.721
293.921
294.118
294.31
294.497
294.678
294.853
295.021
295.182
295.337
295.484
295.624
295.757
295.883
296.002
296.114
296.221
296.321
296.416
296.506
296.591
296.671
296.747
296.82
296.89
296.956
297.02
297.081
297.14
297.196
297.252
297.305
297.358
297.409
297.459
297.507
297.555
297.602
297.648
297.694
297.738
297.781
297.823
297.864
297.902
297.939
297.972
293.096
293.287
293.477
293.665
293.849
294.03
294.206
294.377
294.543
294.704
294.858
295.007
295.15
295.287
295.418
295.543
295.663
295.777
295.886
295.991
296.091
296.186
296.278
296.366
296.451
296.532
296.611
296.687
296.761
296.833
296.903
296.972
297.039
297.105
297.17
297.234
297.297
297.359
297.421
297.483
297.544
297.605
297.665
297.725
297.783
297.842
297.898
297.952
297.999
298
293.088
293.264
293.438
293.61
293.779
293.944
294.106
294.263
294.416
294.564
294.708
294.846
294.98
295.109
295.234
295.354
295.47
295.581
295.69
295.794
295.895
295.993
296.088
296.181
296.271
296.359
296.445
296.529
296.612
296.693
296.773
296.853
296.931
297.008
297.085
297.162
297.239
297.315
297.392
297.469
297.546
297.623
297.701
297.778
297.857
297.935
297.999
298
298
298
293.081
293.243
293.403
293.561
293.717
293.87
294.02
294.166
294.309
294.447
294.583
294.714
294.842
294.966
295.087
295.205
295.32
295.431
295.541
295.647
295.752
295.854
295.954
296.052
296.149
296.244
296.338
296.431
296.522
296.613
296.703
296.792
296.882
296.971
297.06
297.15
297.24
297.331
297.423
297.516
297.611
297.706
297.804
297.905
297.999
298
298
298
298
298
293.075
293.226
293.375
293.523
293.67
293.813
293.955
294.094
294.23
294.363
294.494
294.623
294.748
294.871
294.992
295.111
295.227
295.342
295.454
295.565
295.674
295.782
295.888
295.993
296.096
296.198
296.299
296.4
296.5
296.599
296.698
296.797
296.896
296.996
297.096
297.198
297.301
297.406
297.513
297.622
297.734
297.848
297.968
298
298
298
298
298
298
298
293.072
293.216
293.36
293.502
293.643
293.782
293.92
294.056
294.191
294.323
294.454
294.583
294.71
294.836
294.96
295.082
295.203
295.322
295.439
295.555
295.669
295.783
295.894
296.005
296.114
296.222
296.329
296.435
296.541
296.646
296.752
296.858
296.964
297.072
297.181
297.292
297.406
297.523
297.644
297.768
297.892
297.999
298
298
298
298
298
298
298
298
293.071
293.214
293.356
293.498
293.639
293.779
293.919
294.057
294.194
294.331
294.466
294.6
294.732
294.863
294.993
295.121
295.247
295.372
295.495
295.616
295.735
295.853
295.969
296.083
296.196
296.307
296.416
296.525
296.633
296.741
296.849
296.957
297.067
297.178
297.292
297.409
297.528
297.651
297.775
297.898
297.999
297.999
298
298
298.001
298.001
298.002
298.002
298.002
298.003
293.074
293.221
293.369
293.517
293.664
293.811
293.957
294.103
294.248
294.392
294.534
294.676
294.815
294.953
295.089
295.223
295.355
295.484
295.611
295.735
295.857
295.976
296.092
296.206
296.316
296.425
296.53
296.634
296.736
296.837
296.938
297.039
297.142
297.247
297.356
297.467
297.584
297.708
297.846
297.999
298
298
298
298.002
298.003
298.005
298.007
298.009
298.011
298.012
293.08
293.241
293.402
293.563
293.724
293.885
294.045
294.204
294.363
294.519
294.674
294.827
294.977
295.125
295.269
295.411
295.55
295.685
295.816
295.944
296.068
296.187
296.303
296.414
296.52
296.622
296.72
296.814
296.905
296.992
297.076
297.16
297.242
297.325
297.41
297.497
297.589
297.688
297.793
297.905
297.999
298
298
298
298.001
298.005
298.009
298.014
298.019
298.024
293.093
293.279
293.466
293.653
293.839
294.024
294.207
294.388
294.566
294.741
294.913
295.081
295.246
295.407
295.563
295.716
295.865
296.009
296.148
296.282
296.411
296.534
296.651
296.761
296.865
296.963
297.054
297.138
297.217
297.29
297.358
297.421
297.481
297.538
297.592
297.646
297.698
297.751
297.805
297.86
297.92
297.985
298
298
298
298
298
298.002
298.02
298.038
293.112
293.337
293.559
293.778
293.992
294.2
294.402
294.598
294.788
294.973
295.153
295.328
295.499
295.666
295.828
295.986
296.139
296.287
296.43
296.568
296.698
296.822
296.938
297.046
297.146
297.237
297.321
297.397
297.465
297.526
297.581
297.63
297.674
297.713
297.748
297.78
297.811
297.839
297.867
297.895
297.923
297.952
297.981
298
298
298
298
298.001
298.007
298.081
293.193
293.518
293.801
294.054
294.284
294.497
294.697
294.887
295.069
295.245
295.415
295.581
295.744
295.903
296.059
296.213
296.363
296.51
296.653
296.789
296.918
297.038
297.15
297.253
297.347
297.433
297.509
297.577
297.636
297.689
297.734
297.774
297.808
297.837
297.862
297.883
297.902
297.918
297.932
297.945
297.957
297.967
297.977
297.986
297.996
298
298.003
298.007
298.001
298.131
297.923
297.922
297.922
297.923
297.923
297.925
297.926
297.928
297.93
297.932
297.935
297.938
297.941
297.944
297.947
297.95
297.954
297.957
297.96
297.964
297.967
297.97
297.973
297.975
297.978
297.98
297.982
297.984
297.986
297.987
297.988
297.989
297.99
297.991
297.992
297.992
297.993
297.993
297.993
297.993
297.994
297.994
297.994
297.994
297.994
297.994
297.995
297.995
297.995
297.995
297.96
297.957
297.955
297.953
297.951
297.949
297.948
297.947
297.946
297.946
297.945
297.946
297.946
297.947
297.948
297.949
297.951
297.953
297.954
297.956
297.958
297.96
297.963
297.965
297.967
297.969
297.971
297.972
297.974
297.976
297.977
297.979
297.98
297.981
297.982
297.983
297.983
297.984
297.985
297.985
297.985
297.986
297.986
297.986
297.987
297.987
297.987
297.988
297.988
297.988
297.986
297.983
297.98
297.978
297.975
297.972
297.97
297.968
297.965
297.963
297.962
297.96
297.959
297.958
297.957
297.957
297.957
297.957
297.957
297.957
297.958
297.959
297.959
297.96
297.961
297.962
297.963
297.964
297.966
297.967
297.968
297.969
297.97
297.971
297.971
297.972
297.973
297.974
297.974
297.975
297.976
297.976
297.977
297.977
297.977
297.978
297.978
297.978
297.979
297.979
297.997
297.996
297.994
297.992
297.99
297.988
297.986
297.984
297.982
297.98
297.978
297.976
297.975
297.973
297.972
297.97
297.969
297.968
297.967
297.966
297.966
297.965
297.965
297.965
297.965
297.965
297.965
297.965
297.965
297.965
297.966
297.966
297.966
297.967
297.967
297.968
297.968
297.968
297.969
297.969
297.969
297.97
297.97
297.971
297.971
297.971
297.971
297.972
297.972
297.972
298
298
297.999
297.999
297.998
297.997
297.995
297.994
297.993
297.992
297.99
297.989
297.988
297.986
297.985
297.984
297.983
297.982
297.981
297.979
297.979
297.978
297.977
297.976
297.975
297.975
297.974
297.974
297.973
297.973
297.973
297.972
297.972
297.972
297.972
297.972
297.972
297.972
297.972
297.972
297.972
297.972
297.972
297.972
297.972
297.973
297.973
297.973
297.973
297.973
298
298
298
298
298
297.999
297.999
297.998
297.997
297.996
297.996
297.995
297.994
297.994
297.993
297.992
297.992
297.991
297.991
297.99
297.989
297.989
297.988
297.987
297.987
297.986
297.986
297.985
297.985
297.984
297.984
297.983
297.983
297.983
297.982
297.982
297.982
297.982
297.982
297.982
297.982
297.982
297.982
297.982
297.982
297.982
297.982
297.982
297.982
297.983
297.973
297.987
298
298
298
298
297.999
297.999
297.998
297.998
297.997
297.997
297.996
297.996
297.995
297.995
297.994
297.994
297.993
297.993
297.992
297.992
297.992
297.991
297.991
297.99
297.99
297.99
297.989
297.989
297.989
297.989
297.988
297.988
297.988
297.988
297.988
297.988
297.988
297.988
297.988
297.988
297.988
297.988
297.988
297.988
297.989
297.989
297.989
297.989
297.971
297.988
298
298
298
298
297.999
297.999
297.999
297.998
297.998
297.997
297.997
297.996
297.996
297.996
297.995
297.995
297.994
297.994
297.993
297.993
297.993
297.992
297.992
297.992
297.992
297.991
297.991
297.991
297.991
297.991
297.991
297.991
297.991
297.991
297.991
297.991
297.991
297.991
297.991
297.991
297.991
297.991
297.992
297.992
297.992
297.992
297.992
297.992
298
298
298
298
298
297.999
297.999
297.999
297.998
297.998
297.998
297.997
297.997
297.997
297.996
297.996
297.996
297.995
297.995
297.995
297.994
297.994
297.994
297.994
297.993
297.993
297.993
297.993
297.993
297.992
297.992
297.992
297.992
297.992
297.992
297.992
297.992
297.992
297.992
297.993
297.993
297.993
297.993
297.993
297.993
297.993
297.994
297.994
297.994
297.994
298
298
298
298
297.999
297.999
297.999
297.999
297.998
297.998
297.998
297.998
297.997
297.997
297.997
297.997
297.996
297.996
297.996
297.996
297.995
297.995
297.995
297.995
297.994
297.994
297.994
297.994
297.994
297.994
297.993
297.993
297.993
297.993
297.993
297.993
297.993
297.993
297.993
297.993
297.993
297.994
297.994
297.994
297.994
297.994
297.994
297.994
297.995
297.995
298
298
297.999
297.999
297.999
297.999
297.999
297.999
297.998
297.998
297.998
297.998
297.998
297.998
297.997
297.997
297.997
297.997
297.997
297.996
297.996
297.996
297.996
297.996
297.996
297.995
297.995
297.995
297.995
297.995
297.995
297.994
297.994
297.994
297.994
297.994
297.994
297.994
297.994
297.994
297.994
297.994
297.994
297.994
297.994
297.994
297.994
297.995
297.995
297.995
298
298
297.999
297.999
297.999
297.999
297.999
297.999
297.999
297.999
297.999
297.998
297.998
297.998
297.998
297.998
297.998
297.998
297.998
297.997
297.997
297.997
297.997
297.997
297.997
297.997
297.996
297.996
297.996
297.996
297.996
297.996
297.996
297.996
297.996
297.996
297.995
297.995
297.995
297.995
297.995
297.995
297.995
297.995
297.995
297.995
297.995
297.995
297.995
297.995
298
298
298
298
298
298
298
298
298
298
298
298
298
298
298
298
298
298
298
298
298
298
298
298
297.999
297.999
297.999
297.999
297.999
297.999
297.999
297.999
297.999
297.999
297.999
297.998
297.998
297.998
297.998
297.998
297.998
297.998
297.998
297.998
297.998
297.998
297.998
297.998
297.998
297.998
298
298
298
298.001
298.001
298.001
298.001
298.001
298.001
298.001
298.001
298.001
298.001
298.001
298.001
298.002
298.002
298.002
298.002
298.002
298.002
298.002
298.002
298.002
298.002
298.002
298.003
298.003
298.003
298.003
298.003
298.003
298.003
298.003
298.003
298.003
298.003
298.003
298.003
298.003
298.003
298.003
298.003
298.003
298.003
298.003
298.003
298.003
298.003
298.004
298.003
298.003
298.003
298.003
298.003
298.003
298.003
298.003
298.003
298.003
298.004
298.004
298.004
298.004
298.004
298.004
298.004
298.004
298.004
298.004
298.004
298.004
298.004
298.004
298.004
298.004
298.004
298.004
298.005
298.005
298.005
298.005
298.005
298.005
298.006
298.006
298.006
298.006
298.006
298.006
298.007
298.007
298.007
298.007
298.007
298.008
298.008
298.008
298.008
298.008
298.014
298.015
298.016
298.016
298.016
298.016
298.016
298.016
298.016
298.015
298.015
298.014
298.014
298.013
298.013
298.012
298.012
298.011
298.011
298.011
298.01
298.01
298.01
298.009
298.009
298.009
298.009
298.009
298.009
298.009
298.009
298.009
298.009
298.009
298.009
298.009
298.009
298.009
298.009
298.009
298.01
298.01
298.01
298.01
298.01
298.01
298.01
298.011
298.011
298.011
298.029
298.032
298.034
298.035
298.035
298.035
298.034
298.033
298.031
298.03
298.028
298.027
298.025
298.024
298.023
298.021
298.02
298.019
298.018
298.018
298.017
298.016
298.016
298.015
298.015
298.014
298.014
298.014
298.014
298.013
298.013
298.013
298.013
298.013
298.013
298.013
298.013
298.013
298.013
298.013
298.013
298.013
298.012
298.012
298.012
298.012
298.012
298.012
298.012
298.012
298.052
298.062
298.068
298.07
298.071
298.069
298.066
298.063
298.059
298.055
298.052
298.048
298.045
298.042
298.039
298.036
298.034
298.032
298.03
298.028
298.027
298.026
298.025
298.024
298.023
298.022
298.021
298.02
298.02
298.019
298.018
298.018
298.017
298.017
298.017
298.016
298.016
298.015
298.015
298.014
298.014
298.014
298.013
298.013
298.012
298.012
298.011
298.011
298.011
298.01
298.137
298.174
298.197
298.209
298.212
298.21
298.203
298.193
298.182
298.17
298.157
298.145
298.133
298.121
298.111
298.101
298.093
298.085
298.078
298.071
298.065
298.06
298.055
298.051
298.048
298.044
298.041
298.039
298.036
298.034
298.032
298.03
298.028
298.027
298.026
298.024
298.023
298.022
298.021
298.02
298.019
298.018
298.017
298.017
298.016
298.015
298.014
298.014
298.013
298.012
299.513
299.403
299.219
299.087
298.976
298.875
298.784
298.701
298.626
298.559
298.498
298.444
298.395
298.352
298.313
298.279
298.249
298.222
298.199
298.178
298.159
298.143
298.129
298.116
298.105
298.095
298.086
298.078
298.071
298.065
298.06
298.055
298.05
298.046
298.043
298.04
298.037
298.035
298.032
298.03
298.028
298.026
298.025
298.023
298.022
298.021
298.02
298.019
298.018
298.017
297.996
297.996
297.996
297.996
297.996
297.996
297.996
297.996
297.996
297.996
297.997
297.997
297.997
297.997
297.997
297.997
297.997
297.997
297.997
297.997
297.997
297.998
297.998
297.998
297.998
297.998
297.998
297.998
297.998
297.998
297.998
297.998
297.998
297.998
297.998
297.999
297.999
297.999
297.999
297.999
297.999
297.999
297.999
297.999
297.999
297.999
297.999
297.999
297.999
297.999
297.999
297.999
297.999
297.999
297.999
297.999
297.999
297.999
298
298
298
298
298
298
298
298
298
298
298
298
298
298
298
298
298
298
298
298
298
298
298
298
298
298
298
298
298
298
298
298
298
298
298
298
298
298
298
298
298
298
298
298
298
298
298
298
298
298
298
298
298
298
298
298
298
298
298
298
298
298
298
298
298
298
298
298
298
298
298
298
298
298
298
298
298
298
298
298
298
298
298
298
298
298
298
298
298
298
298
298
298
298
298
298
298
298
298
298
298
298
298
298
298
298
298
298
298
298
298
298
298
298
298
298
298
298
298
298
298
298
298
298
298
298
298
298
298
298
298
298
298
298
298
298
298
298
298
298
298
298
298
298
298
298
298
298
298
298
298
298
298
298
298
298
298
298
298
298
298
298
298
298
298
298
298
298
298
298
298
298
298
298
298
298
298
298
298
298
298
298
298
298
298
298
298
298
298
298
298
298
298
298
298
298
298
298
298
298
298
298
298
298
298
298
298
298
298
298
298
298
298
298
298
298
298
298
298
298
298
298
298
298
298
298
298
298
298
298
298
298
298
298
298
298
298
298
298
298
298
298
297.988
297.988
297.988
297.989
297.989
297.989
297.989
297.989
297.989
297.989
297.989
297.989
297.989
297.989
297.989
297.989
297.989
297.989
297.989
297.99
297.99
297.99
297.99
297.99
297.99
297.99
297.991
297.991
297.991
297.991
297.991
297.992
297.992
297.992
297.992
297.992
297.992
297.993
297.993
297.993
297.993
297.993
297.993
297.993
297.993
297.993
297.993
297.993
297.993
297.993
297.994
297.994
297.994
297.994
297.995
297.995
297.996
297.996
297.996
297.997
297.997
297.997
297.998
297.998
297.998
297.998
297.999
297.999
297.999
297.999
297.999
297.999
298
298
298
298
298
298
298
298
298
298
298
298
298
298
298
298
298
298
298
298
298
298
298
298
298
298
298
298
298
298
298
298
298
298
298
298
298
298
298
298
298
298
298
298
298
298
298
298
298
298
298
298
298
298
298
298
298
298
298
298
298
298
298
298
298
298
298
298
298
298
298
298
298
298
298
298
298
298
298
298
298
298
298
298
298
298
298
298
298
298
298
298
298
298
298
298
298
298
298
298
298
298
298
298
298
298
298
298
298
298
298
298
298
298
298
298
298
298
298
298
298
298
298
298
298
298
298
298
298
298
298
298
298
298
298
298
298
298
298
298
298
298
298
298
298
298
298
298
298
298
298
298
298
298
298
298
298
298
298
298
298
298
298
298
298
298
298
298
298
298
298
298
298
298
298
298
298
298
298
298
298
298
298
298
298
298
298
298
298
298
298
298
298
298
298
298
298
298
298
298
298
298
298
298
298
298
298
298
298
298
298
298
298
298
298
298
298
298
298
298
298
298
298
298
298
298
298
298
297.979
297.979
297.979
297.979
297.979
297.979
297.979
297.979
297.979
297.979
297.979
297.979
297.979
297.979
297.978
297.978
297.978
297.978
297.978
297.978
297.978
297.979
297.979
297.979
297.979
297.979
297.979
297.98
297.98
297.98
297.98
297.981
297.981
297.981
297.982
297.982
297.982
297.983
297.983
297.983
297.984
297.984
297.984
297.984
297.985
297.985
297.985
297.986
297.986
297.987
297.987
297.988
297.989
297.989
297.99
297.991
297.991
297.992
297.993
297.993
297.994
297.995
297.995
297.996
297.997
297.997
297.997
297.998
297.998
297.999
297.999
297.999
297.999
297.999
297.999
298
298
298
298
298
298
298
298
298
298
298
298
298
298
298
298
298
298
298
298
298
298
298
298
298
298
298
298
298
298
298
298
298
298
298
298
298
298
298
298
298
298
298
298
298
298
298
298
298
298
298
298
298
298
298
298
298
298
298
298
298
298
298
298
298
298
298
298
298
298
298
298
298
298
298
298
298
298
298
298
298
298
298
298
298
298
298
298
298
298
298
298
298
298
298
298
298
298
298
298
298
298
298
298
298
298
298
298
298
298
298
298
298
298
298
298
298
298
298
298
298
298
298
298
298
298
298
298
298
298
298
298
298
298
298
298
298
298
298
298
298
298
298
298
298
298
298
298
298
298
298
298
298
298
298
298
298
298
298
298
298
298
298
298
298
298
298
298
298
298
298
298
298
298
298
298
298
298
298
298
298
298
298
298
298
298
298
298
298
298
298
298
298
298
298
298
298
298
298
298
298
298
298
298
298
298
298
298
298
298
298
298
298
298
298
298
298
298
298
298
298
298
298
298
298
297.972
297.972
297.972
297.972
297.972
297.972
297.972
297.972
297.972
297.972
297.972
297.972
297.972
297.972
297.973
297.973
297.973
297.973
297.973
297.973
297.973
297.973
297.973
297.974
297.974
297.974
297.974
297.975
297.975
297.975
297.976
297.976
297.977
297.977
297.977
297.978
297.978
297.979
297.979
297.98
297.98
297.981
297.981
297.982
297.983
297.983
297.984
297.985
297.986
297.987
297.988
297.988
297.989
297.99
297.991
297.992
297.993
297.993
297.994
297.995
297.995
297.996
297.996
297.997
297.997
297.998
297.998
297.998
297.999
297.999
297.999
297.999
297.999
297.999
298
298
298
298
298
298
298
298
298
298
298
298
298
298
298
298
298
298
298
298
298
298
298
298
298
298
298
298
298
298
298
298
298
298
298
298
298
298
298
298
298
298
298
298
298
298
298
298
298
298
298
298
298
298
298
298
298
298
298
298
298
298
298
298
298
298
298
298
298
298
298
298
298
298
298
298
298
298
298
298
298
298
298
298
298
298
298
298
298
298
298
298
298
298
298
298
298
298
298
298
298
298
298
298
298
298
298
298
298
298
298
298
298
298
298
298
298
298
298
298
298
298
298
298
298
298
298
298
298
298
298
298
298
298
298
298
298
298
298
298
298
298
298
298
298
298
298
298
298
298
298
298
298
298
298
298
298
298
298
298
298
298
298
298
298
298
298
298
298
298
298
298
298
298
298
298
298
298
298
298
298
298
298
298
298
298
298
298
298
298
298
298
298
298
298
298
298
298
298
298
298
298
298
298
298
298
298
298
298
298
298
298
298
298
298
298
298
298
298
298
298
298
298
298
298
298
297.973
297.974
297.974
297.974
297.974
297.974
297.974
297.974
297.975
297.975
297.975
297.975
297.975
297.975
297.976
297.976
297.976
297.976
297.976
297.977
297.977
297.977
297.977
297.978
297.978
297.978
297.979
297.979
297.979
297.98
297.98
297.981
297.981
297.982
297.982
297.983
297.983
297.984
297.984
297.985
297.986
297.986
297.987
297.988
297.988
297.989
297.989
297.99
297.991
297.991
297.992
297.993
297.993
297.994
297.994
297.995
297.995
297.996
297.996
297.997
297.997
297.997
297.998
297.998
297.998
297.999
297.999
297.999
297.999
297.999
297.999
298
298
298
298
298
298
298
298
298
298
298
298
298
298
298
298
298
298
298
298
298
298
298
298
298
298
298
298
298
298
298
298
298
298
298
298
298
298
298
298
298
298
298
298
298
298
298
298
298
298
298
298
298
298
298
298
298
298
298
298
298
298
298
298
298
298
298
298
298
298
298
298
298
298
298
298
298
298
298
298
298
298
298
298
298
298
298
298
298
298
298
298
298
298
298
298
298
298
298
298
298
298
298
298
298
298
298
298
298
298
298
298
298
298
298
298
298
298
298
298
298
298
298
298
298
298
298
298
298
298
298
298
298
298
298
298
298
298
298
298
298
298
298
298
298
298
298
298
298
298
298
298
298
298
298
298
298
298
298
298
298
298
298
298
298
298
298
298
298
298
298
298
298
298
298
298
298
298
298
298
298
298
298
298
298
298
298
298
298
298
298
298
298
298
298
298
298
298
298
298
298
298
298
298
298
298
298
298
298
298
298
298
298
298
298
298
298
298
298
298
298
298
298
298
298
298
298
298
298
297.983
297.983
297.983
297.983
297.983
297.983
297.983
297.983
297.983
297.983
297.984
297.984
297.984
297.984
297.984
297.984
297.984
297.984
297.985
297.985
297.985
297.985
297.985
297.986
297.986
297.986
297.987
297.987
297.987
297.988
297.988
297.988
297.989
297.989
297.99
297.99
297.99
297.991
297.991
297.992
297.992
297.992
297.993
297.993
297.994
297.994
297.994
297.995
297.995
297.995
297.996
297.996
297.997
297.997
297.997
297.997
297.998
297.998
297.998
297.998
297.999
297.999
297.999
297.999
297.999
297.999
297.999
297.999
298
298
298
298
298
298
298
298
298
298
298
298
298
298
298
298
298
298
298
298
298
298
298
298
298
298
298
298
298
298
298
298
298
298
298
298
298
298
298
298
298
298
298
298
298
298
298
298
298
298
298
298
298
298
298
298
298
298
298
298
298
298
298
298
298
298
298
298
298
298
298
298
298
298
298
298
298
298
298
298
298
298
298
298
298
298
298
298
298
298
298
298
298
298
298
298
298
298
298
298
298
298
298
298
298
298
298
298
298
298
298
298
298
298
298
298
298
298
298
298
298
298
298
298
298
298
298
298
298
298
298
298
298
298
298
298
298
298
298
298
298
298
298
298
298
298
298
298
298
298
298
298
298
298
298
298
298
298
298
298
298
298
298
298
298
298
298
298
298
298
298
298
298
298
298
298
298
298
298
298
298
298
298
298
298
298
298
298
298
298
298
298
298
298
298
298
298
298
298
298
298
298
298
298
298
298
298
298
298
298
298
298
298
298
298
298
298
298
298
298
298
298
298
298
298
298
298
298
298
298
298
298
297.989
297.989
297.989
297.989
297.989
297.989
297.989
297.99
297.99
297.99
297.99
297.99
297.99
297.99
297.99
297.99
297.991
297.991
297.991
297.991
297.991
297.992
297.992
297.992
297.992
297.992
297.993
297.993
297.993
297.993
297.994
297.994
297.994
297.994
297.994
297.995
297.995
297.995
297.995
297.996
297.996
297.996
297.996
297.997
297.997
297.997
297.997
297.997
297.998
297.998
297.998
297.998
297.998
297.998
297.999
297.999
297.999
297.999
297.999
297.999
297.999
297.999
297.999
298
298
298
298
298
298
298
298
298
298
298
298
298
298
298
298
298
298
298
298
298
298
298
298
298
298
298
298
298
298
298
298
298
298
298
298
298
298
298
298
298
298
298
298
298
298
298
298
298
298
298
298
298
298
298
298
298
298
298
298
298
298
298
298
298
298
298
298
298
298
298
298
298
298
298
298
298
298
298
298
298
298
298
298
298
298
298
298
298
298
298
298
298
298
298
298
298
298
298
298
298
298
298
298
298
298
298
298
298
298
298
298
298
298
298
298
298
298
298
298
298
298
298
298
298
298
298
298
298
298
298
298
298
298
298
298
298
298
298
298
298
298
298
298
298
298
298
298
298
298
298
298
298
298
298
298
298
298
298
298
298
298
298
298
298
298
298
298
298
298
298
298
298
298
298
298
298
298
298
298
298
298
298
298
298
298
298
298
298
298
298
298
298
298
298
298
298
298
298
298
298
298
298
298
298
298
298
298
298
298
298
298
298
298
298
298
298
298
298
298
298
298
298
298
298
298
298
298
298
298
298
298
298
298
298
298
298
297.993
297.993
297.993
297.993
297.993
297.993
297.993
297.993
297.993
297.993
297.994
297.994
297.994
297.994
297.994
297.994
297.994
297.995
297.995
297.995
297.995
297.995
297.995
297.995
297.996
297.996
297.996
297.996
297.996
297.996
297.996
297.997
297.997
297.997
297.997
297.997
297.997
297.997
297.998
297.998
297.998
297.998
297.998
297.998
297.998
297.998
297.999
297.999
297.999
297.999
297.999
297.999
297.999
297.999
297.999
297.999
297.999
297.999
298
298
298
298
298
298
298
298
298
298
298
298
298
298
298
298
298
298
298
298
298
298
298
298
298
298
298
298
298
298
298
298
298
298
298
298
298
298
298
298
298
298
298
298
298
298
298
298
298
298
298
298
298
298
298
298
298
298
298
298
298
298
298
298
298
298
298
298
298
298
298
298
298
298
298
298
298
298
298
298
298
298
298
298
298
298
298
298
298
298
298
298
298
298
298
298
298
298
298
298
298
298
298
298
298
298
298
298
298
298
298
298
298
298
298
298
298
298
298
298
298
298
298
298
298
298
298
298
298
298
298
298
298
298
298
298
298
298
298
298
298
298
298
298
298
298
298
298
298
298
298
298
298
298
298
298
298
298
298
298
298
298
298
298
298
298
298
298
298
298
298
298
298
298
298
298
298
298
298
298
298
298
298
298
298
298
298
298
298
298
298
298
298
298
298
298
298
298
298
298
298
298
298
298
298
298
298
298
298
298
298
298
298
298
298
298
298
298
298
298
298
298
298
298
298
298
298
298
298
298
298
298
298
298
298
298
298
298
298
298
298
298
297.994
297.994
297.995
297.995
297.995
297.995
297.995
297.995
297.995
297.995
297.996
297.996
297.996
297.996
297.996
297.996
297.996
297.996
297.996
297.997
297.997
297.997
297.997
297.997
297.997
297.997
297.997
297.997
297.998
297.998
297.998
297.998
297.998
297.998
297.998
297.998
297.998
297.998
297.999
297.999
297.999
297.999
297.999
297.999
297.999
297.999
297.999
297.999
297.999
297.999
297.999
297.999
297.999
297.999
298
298
298
298
298
298
298
298
298
298
298
298
298
298
298
298
298
298
298
298
298
298
298
298
298
298
298
298
298
298
298
298
298
298
298
298
298
298
298
298
298
298
298
298
298
298
298
298
298
298
298
298
298
298
298
298
298
298
298
298
298
298
298
298
298
298
298
298
298
298
298
298
298
298
298
298
298
298
298
298
298
298
298
298
298
298
298
298
298
298
298
298
298
298
298
298
298
298
298
298
298
298
298
298
298
298
298
298
298
298
298
298
298
298
298
298
298
298
298
298
298
298
298
298
298
298
298
298
298
298
298
298
298
298
298
298
298
298
298
298
298
298
298
298
298
298
298
298
298
298
298
298
298
298
298
298
298
298
298
298
298
298
298
298
298
298
298
298
298
298
298
298
298
298
298
298
298
298
298
298
298
298
298
298
298
298
298
298
298
298
298
298
298
298
298
298
298
298
298
298
298
298
298
298
298
298
298
298
298
298
298
298
298
298
298
298
298
298
298
298
298
298
298
298
298
298
298
298
298
298
298
298
298
298
298
298
298
298
298
298
298
298
298
298
298
298
297.995
297.995
297.995
297.995
297.995
297.995
297.996
297.996
297.996
297.996
297.996
297.996
297.996
297.996
297.996
297.997
297.997
297.997
297.997
297.997
297.997
297.997
297.997
297.997
297.997
297.998
297.998
297.998
297.998
297.998
297.998
297.998
297.998
297.998
297.998
297.998
297.998
297.999
297.999
297.999
297.999
297.999
297.999
297.999
297.999
297.999
297.999
297.999
297.999
297.999
297.999
297.999
297.999
297.999
297.999
297.999
297.999
297.999
297.999
297.999
298
298
298
298
298
298
298
298
298
298
298
298
298
298
298
298
298
298
298
298
298
298
298
298
298
298
298