/*--------------------------------*- C++ -*----------------------------------*\
| =========                 |                                                 |
| \\      /  F ield         | OpenFOAM: The Open Source CFD Toolbox           |
|  \\    /   O peration     | Version:  2.4.0                                 |
|   \\  /    A nd           | Web:      www.OpenFOAM.org                      |
|    \\/     M anipulation  |                                                 |
\*---------------------------------------------------------------------------*/
FoamFile
{
    version     2.0;
    format      ascii;
    class       volScalarField;
    location    "3";
    object      alpha1;
}
// * * * * * * * * * * * * * * * * * * * * * * * * * * * * * * * * * * * * * //

dimensions      [0 0 0 0 0 0 0];

internalField   nonuniform List<scalar> 
8000
(
1
1
1
1
0.999999
0.999997
0.997652
0.159159
0.00566406
0.000792874
0.00030303
1.44874e-06
5.19919e-07
5.85534e-07
4.22858e-07
2.88306e-07
2.19444e-07
1.64405e-07
1.25039e-07
9.54262e-08
7.23127e-08
5.40218e-08
3.96771e-08
2.87072e-08
2.05969e-08
1.4818e-08
1.0846e-08
8.19625e-09
6.46015e-09
5.32311e-09
4.56144e-09
4.02587e-09
3.62172e-09
3.29147e-09
3.00198e-09
2.7355e-09
2.48372e-09
2.24372e-09
2.01543e-09
1.79992e-09
1.59852e-09
1.4123e-09
1.24186e-09
1.0873e-09
9.48281e-10
8.2413e-10
7.13936e-10
6.16647e-10
5.31141e-10
4.56291e-10
1
1
1
1
0.999999
0.999997
1
0.0786878
0.0378653
0.00028191
6.21736e-05
1.50921e-06
4.84646e-07
3.35867e-07
2.45318e-07
2.04065e-07
1.97863e-07
1.95692e-07
1.50287e-07
8.61958e-08
5.81751e-08
4.35293e-08
3.37693e-08
2.68437e-08
2.13089e-08
1.68076e-08
1.26572e-08
9.19046e-09
7.17955e-09
5.9055e-09
5.0545e-09
4.45669e-09
4.01332e-09
3.66494e-09
3.37523e-09
3.1221e-09
2.89242e-09
2.6787e-09
2.47688e-09
2.28503e-09
2.10235e-09
1.9287e-09
1.76418e-09
1.60899e-09
1.46324e-09
1.32681e-09
1.1984e-09
1.07938e-09
9.70269e-10
8.70356e-10
1
1
1
1
1
0.999999
0.999728
0.999048
1
0.536877
0.047717
0.00397938
0.00273971
0.000960971
0.000279967
9.73405e-05
3.01509e-05
1.04658e-05
1.69221e-05
1.52104e-05
1.27731e-05
1.02493e-05
7.80305e-06
5.54141e-06
3.60352e-06
1.97521e-06
7.29887e-07
4.99215e-07
3.4597e-07
2.32425e-07
1.52165e-07
9.87491e-08
6.43253e-08
4.23198e-08
2.82026e-08
1.90551e-08
1.31528e-08
1.00478e-08
9.15216e-09
8.76611e-09
9.09741e-09
9.90249e-09
1.06925e-08
1.10259e-08
1.07082e-08
9.81776e-09
8.59106e-09
7.27917e-09
6.05912e-09
5.0158e-09
1
1
1
1
1
1
0.999993
0.999995
0.999996
0.999986
0.999982
0.998967
0.999998
0.793765
0.563239
0.294221
0.108518
0.0353214
0.0161766
0.0113596
0.00798737
0.00495252
0.00264261
0.00120339
0.000542795
0.000297313
0.000194278
0.000139245
0.000100585
6.99044e-05
4.57176e-05
2.87587e-05
1.79628e-05
1.13385e-05
7.12196e-06
4.37921e-06
2.47853e-06
1.04562e-06
3.49952e-07
3.27683e-07
2.59301e-07
1.90207e-07
1.47686e-07
1.21483e-07
1.17708e-07
1.13306e-07
1.06314e-07
9.71906e-08
8.68257e-08
7.60125e-08
1
1
1
1
1
1
1
0.999998
0.999997
0.999998
0.999998
0.999999
1
1
1
0.99998
0.999886
0.998769
0.999538
0.852841
0.643559
0.471192
0.279049
0.118146
0.0401696
0.0161872
0.0104572
0.007453
0.00482737
0.00280113
0.00163219
0.000950513
0.00058146
0.000339135
0.000193577
0.000112242
6.2412e-05
3.10725e-05
1.42285e-05
6.16082e-06
5.99795e-06
7.21119e-06
4.64005e-06
1.69451e-06
2.96789e-07
2.56818e-07
2.44974e-07
2.26954e-07
2.17767e-07
2.07075e-07
1
1
1
1
1
1
1
1
1
1
1
0.999999
0.999999
0.999999
0.999999
0.999999
1
1
1
1
1
0.999972
0.999889
0.999667
0.998766
0.984506
0.847684
0.596581
0.291812
0.0961887
0.0276798
0.0201064
0.0138554
0.0104427
0.00692548
0.00336054
0.00141707
0.00060885
0.000298856
0.000164457
9.6227e-05
5.75954e-05
3.45479e-05
2.13937e-05
1.3373e-05
7.77413e-06
3.93609e-06
1.62939e-06
3.5475e-07
2.84582e-07
1
1
1
1
1
1
1
1
1
1
1
1
1
1
1
1
1
1
1
1
1
1
1
1
1
1
0.999997
0.999963
0.999785
0.99949
0.974273
0.922057
0.60009
0.217775
0.0515369
0.036808
0.0242032
0.0123904
0.00522402
0.00237436
0.00128164
0.000707089
0.000365514
0.000176816
8.22873e-05
3.75693e-05
1.68847e-05
7.60542e-06
3.41467e-06
1.50978e-06
1
1
1
1
1
1
1
1
1
1
1
1
1
1
1
1
1
1
1
1
1
1
1
1
0.999999
0.999999
0.999999
0.999999
0.999999
1
1
0.999999
0.999958
0.999808
0.967135
0.95753
0.77232
0.407029
0.122559
0.0427189
0.0247128
0.0141267
0.00625455
0.00235685
0.000966714
0.000429706
0.000195044
8.84103e-05
3.97554e-05
1.75852e-05
1
1
1
1
1
1
1
1
1
1
1
1
1
1
1
1
1
1
1
1
1
1
1
0.999999
0.999999
0.999999
0.999999
0.999998
0.999998
0.999998
0.999998
0.999999
0.999999
1
1
1
0.999993
0.999946
0.969757
0.956752
0.827482
0.385308
0.0978877
0.040542
0.0173049
0.00691826
0.00258267
0.00101334
0.000424125
0.000187951
1
1
1
1
1
1
1
1
1
1
1
1
1
1
1
1
1
1
1
1
1
1
0.999999
0.999999
0.999999
0.999999
0.999999
0.999999
0.999998
0.999998
0.999998
0.999998
0.999998
0.999999
0.999999
0.999999
1
1
1
1
0.999997
0.999948
0.954409
0.901537
0.449851
0.101422
0.0408511
0.0132851
0.00450204
0.00178862
1
1
1
1
1
1
1
1
1
1
1
1
1
1
1
1
1
1
1
1
1
1
0.999999
0.999999
0.999999
0.999999
0.999999
0.999999
0.999999
0.999999
0.999999
0.999999
0.999999
0.999999
0.999999
0.999999
1
1
1
1
1
1
1
1
0.999964
0.972576
0.766958
0.303089
0.111446
0.041419
1
1
1
1
1
1
1
1
1
1
1
1
1
1
1
1
1
1
1
1
1
1
1
1
0.999999
0.999999
0.999999
0.999999
0.999999
1
1
1
1
1
1
1
1
0.999999
0.999999
0.999999
0.999999
0.999999
0.999999
0.999999
0.999999
1
1
0.994181
0.85295
0.521417
1
1
1
1
1
1
1
1
1
1
1
1
1
1
1
1
1
1
1
1
1
1
1
1
1
1
1
1
1
1
1
1
1
1
1
1
1
0.999999
0.999999
0.999999
0.999998
0.999997
0.999996
0.999995
0.999994
0.999994
0.999996
1
1
0.984477
1
1
1
1
1
1
1
1
1
1
1
1
1
1
1
1
1
1
1
1
1
1
1
1
1
1
1
1
1
1
1
1
1
1
1
1
1
0.999999
0.999999
0.999998
0.999998
0.999996
0.999994
0.999991
0.999987
0.999985
0.999987
0.999991
0.999996
1
1
1
1
1
1
1
1
1
1
1
1
1
1
1
1
1
1
1
1
1
1
1
1
1
1
1
1
1
1
1
1
1
1
1
1
1
1
1
1
0.999999
0.999999
0.999997
0.999995
0.999991
0.999986
0.99998
0.999978
0.999982
0.999989
0.999995
1
1
1
1
1
1
1
1
1
1
1
1
1
1
1
1
1
1
1
1
1
1
1
1
1
1
1
1
1
1
1
1
1
1
1
1
1
1
1
1
1
0.999999
0.999998
0.999995
0.99999
0.999983
0.999978
0.999978
0.999984
0.999992
1
1
1
1
1
1
1
1
1
1
1
1
1
1
1
1
1
1
1
1
1
1
1
1
1
1
1
1
1
1
1
1
1
1
1
1
1
1
1
1
1
1
0.999999
0.999998
0.999994
0.999989
0.999983
0.999981
0.999988
0.999992
1
1
1
1
1
1
1
1
1
1
1
1
1
1
1
1
1
1
1
1
1
1
1
1
1
1
1
1
1
1
1
1
1
1
1
1
1
1
1
1
1
1
1
0.999999
0.999998
0.999995
0.99999
0.999987
0.999985
0.904873
1
1
1
1
1
1
1
1
1
1
1
1
1
1
1
1
1
1
1
1
1
1
1
1
1
1
1
1
1
1
1
1
1
1
1
1
1
1
1
1
1
1
1
1
0.999999
0.999997
0.999994
0.999994
0.973446
0.312849
1
1
1
1
1
1
1
1
1
1
1
1
1
1
1
1
1
1
1
1
1
1
1
1
1
1
1
1
1
1
1
1
1
1
1
1
1
1
1
1
1
1
1
1
0.999999
0.999999
0.999998
0.999994
0.999959
0.653521
3.90996e-10
3.34214e-10
2.84977e-10
2.42396e-10
2.05663e-10
1.74052e-10
1.46916e-10
1.23675e-10
1.03821e-10
8.69002e-11
7.25177e-11
6.0325e-11
5.00173e-11
4.13287e-11
3.40273e-11
2.79112e-11
2.28055e-11
1.85584e-11
1.50388e-11
1.21335e-11
9.74503e-12
7.78999e-12
6.19719e-12
4.9053e-12
3.86231e-12
3.02436e-12
2.35452e-12
1.82202e-12
1.4009e-12
1.0697e-12
8.10765e-13
6.09589e-13
4.54355e-13
3.35464e-13
2.45153e-13
1.77173e-13
1.26512e-13
8.91712e-14
6.19767e-14
4.24284e-14
2.85739e-14
1.89041e-14
1.22665e-14
7.79218e-15
4.83565e-15
2.92449e-15
1.71883e-15
9.78627e-16
5.37785e-16
2.84059e-16
7.78878e-10
6.95345e-10
6.19024e-10
5.49525e-10
4.87022e-10
4.30871e-10
3.80338e-10
3.34977e-10
2.94373e-10
2.58088e-10
2.25706e-10
1.96875e-10
1.71279e-10
1.48617e-10
1.28604e-10
1.10978e-10
9.54956e-11
8.19342e-11
7.00901e-11
5.97759e-11
5.08205e-11
4.30685e-11
3.63793e-11
3.06255e-11
2.56925e-11
2.14773e-11
1.78877e-11
1.48414e-11
1.22653e-11
1.00948e-11
8.27282e-12
6.74932e-12
5.48053e-12
4.42829e-12
3.55948e-12
2.84546e-12
2.26154e-12
1.78651e-12
1.40219e-12
1.0931e-12
8.46037e-13
6.49833e-13
4.95081e-13
3.73908e-13
2.79761e-13
2.07208e-13
1.51784e-13
1.09841e-13
7.84306e-14
5.51892e-14
4.16567e-09
3.48925e-09
2.95484e-09
2.53095e-09
2.19087e-09
1.91339e-09
1.68224e-09
1.4855e-09
1.31476e-09
1.1643e-09
1.03028e-09
9.10144e-10
8.02137e-10
7.05013e-10
6.1781e-10
5.39726e-10
4.70038e-10
4.08063e-10
3.53148e-10
3.04667e-10
2.62024e-10
2.2466e-10
1.92047e-10
1.63693e-10
1.39136e-10
1.17948e-10
9.97314e-11
8.41206e-11
7.07829e-11
5.94186e-11
4.976e-11
4.15707e-11
3.4643e-11
2.87957e-11
2.38718e-11
1.97353e-11
1.6269e-11
1.3372e-11
1.09575e-11
8.95088e-12
7.28832e-12
5.91509e-12
4.78443e-12
3.85651e-12
3.09748e-12
2.47869e-12
1.97594e-12
1.5689e-12
1.24053e-12
9.76624e-13
6.54051e-08
5.5488e-08
4.65548e-08
3.87317e-08
3.20304e-08
2.64015e-08
2.17727e-08
1.80664e-08
1.52034e-08
1.3098e-08
1.16524e-08
1.07531e-08
1.02727e-08
1.00778e-08
1.0039e-08
1.00432e-08
1.00024e-08
9.85803e-09
9.58149e-09
9.16924e-09
8.63625e-09
8.00872e-09
7.31745e-09
6.59286e-09
5.8618e-09
5.14604e-09
4.46203e-09
3.82145e-09
3.23207e-09
2.69864e-09
2.22363e-09
1.8076e-09
1.44949e-09
1.14681e-09
8.95703e-10
6.91296e-10
5.27962e-10
3.9973e-10
3.00664e-10
2.25189e-10
1.6833e-10
1.25843e-10
9.42472e-11
7.07904e-11
5.33573e-11
4.0361e-11
3.06308e-11
2.33118e-11
1.77821e-11
1.35881e-11
1.95821e-07
1.83368e-07
1.69724e-07
1.55584e-07
1.41725e-07
1.28656e-07
1.16602e-07
1.05615e-07
9.56711e-08
8.6721e-08
7.87055e-08
7.15707e-08
6.52766e-08
5.97984e-08
5.51161e-08
5.11985e-08
4.79871e-08
4.5389e-08
4.32803e-08
4.15175e-08
3.99545e-08
3.8458e-08
3.69188e-08
3.52584e-08
3.34306e-08
3.14204e-08
2.92419e-08
2.69342e-08
2.45565e-08
2.2179e-08
1.98735e-08
1.77022e-08
1.57101e-08
1.39207e-08
1.23382e-08
1.09533e-08
9.7498e-09
8.71154e-09
7.82482e-09
7.07786e-09
6.45727e-09
5.94404e-09
5.51138e-09
5.12604e-09
4.75315e-09
4.36311e-09
3.93779e-09
3.47401e-09
2.98283e-09
2.48533e-09
2.58519e-07
2.52391e-07
2.53943e-07
2.53734e-07
2.48295e-07
2.38406e-07
2.26207e-07
2.13429e-07
2.00943e-07
1.88986e-07
1.77502e-07
1.66388e-07
1.55615e-07
1.45255e-07
1.35468e-07
1.26449e-07
1.18377e-07
1.11368e-07
1.05446e-07
1.00542e-07
9.65109e-08
9.31549e-08
9.02568e-08
8.76037e-08
8.50048e-08
8.23021e-08
7.9379e-08
7.61705e-08
7.26748e-08
6.89583e-08
6.51124e-08
6.11791e-08
5.71548e-08
5.30835e-08
4.91091e-08
4.54121e-08
4.21072e-08
3.92029e-08
3.66395e-08
3.43512e-08
3.23009e-08
3.04779e-08
2.88757e-08
2.747e-08
2.62086e-08
2.50176e-08
2.38164e-08
2.2537e-08
2.11386e-08
1.96139e-08
3.99102e-07
3.61704e-07
3.52445e-07
3.40364e-07
3.26229e-07
3.11335e-07
2.96722e-07
2.82874e-07
2.69817e-07
2.57358e-07
2.45283e-07
2.3347e-07
2.21921e-07
2.10743e-07
2.00113e-07
1.90229e-07
1.81266e-07
1.73345e-07
1.66514e-07
1.60748e-07
1.55956e-07
1.52e-07
1.48707e-07
1.45885e-07
1.43342e-07
1.40886e-07
1.38279e-07
1.35063e-07
1.30875e-07
1.2584e-07
1.2077e-07
1.17105e-07
1.16041e-07
1.17307e-07
1.19087e-07
1.19336e-07
1.17076e-07
1.12607e-07
1.0688e-07
1.00818e-07
8.29516e-08
7.88586e-08
7.53038e-08
7.22959e-08
6.97791e-08
6.76505e-08
6.57777e-08
6.40178e-08
6.22301e-08
6.02855e-08
7.29518e-06
2.64736e-06
5.56399e-07
5.38862e-07
5.47103e-07
5.60912e-07
5.42506e-07
4.58675e-07
4.30733e-07
4.05652e-07
3.46817e-07
3.2768e-07
3.10937e-07
2.95889e-07
2.82142e-07
2.69566e-07
2.58152e-07
2.47928e-07
2.38925e-07
2.31148e-07
2.24565e-07
2.19104e-07
2.14649e-07
2.11033e-07
2.07999e-07
2.05002e-07
2.00285e-07
1.96486e-07
1.99925e-07
2.07706e-07
1.98163e-07
2.04562e-07
2.22378e-07
2.31695e-07
2.33698e-07
2.30503e-07
2.2372e-07
2.14756e-07
2.04854e-07
1.08037e-07
3.52388e-07
1.78552e-07
1.69933e-07
1.62586e-07
1.56429e-07
1.51338e-07
1.4715e-07
1.43648e-07
1.40552e-07
1.37475e-07
8.53246e-05
3.86684e-05
1.74386e-05
7.76635e-06
3.14998e-06
7.17656e-07
5.46934e-07
1.23333e-06
6.17468e-07
4.12009e-07
1.06767e-06
5.70372e-07
5.25524e-07
4.90586e-07
4.61195e-07
4.34648e-07
4.10132e-07
3.87708e-07
3.67709e-07
3.50409e-07
3.35882e-07
3.23866e-07
3.12837e-07
2.92414e-07
2.60754e-07
2.62945e-07
2.62921e-07
2.63711e-07
2.56027e-07
2.1033e-07
1.26268e-06
8.52342e-07
3.06436e-07
3.20115e-07
3.24612e-07
3.08659e-07
3.03412e-07
2.96998e-07
2.89793e-07
2.72027e-07
2.85668e-07
2.77729e-07
2.70247e-07
2.63402e-07
2.57327e-07
2.52104e-07
2.47764e-07
2.41014e-07
2.3973e-07
2.39531e-07
0.000793435
0.000360469
0.00015801
6.58983e-05
2.57912e-05
8.88074e-06
1.61694e-06
1.35274e-06
1.06075e-06
1.03586e-06
1.14333e-06
9.5341e-07
8.65558e-07
7.8715e-07
7.25599e-07
6.76479e-07
6.35067e-07
5.98845e-07
5.66678e-07
5.37466e-07
5.08113e-07
4.6784e-07
3.79664e-07
5.53431e-07
1.42417e-06
5.9196e-07
4.73062e-07
4.30215e-07
4.20938e-07
5.01907e-07
1.29029e-06
1.3848e-06
8.07799e-07
4.20511e-07
3.50094e-07
5.62423e-07
4.15604e-07
4.03432e-07
3.91915e-07
3.80667e-07
3.73858e-07
3.67424e-07
3.56044e-07
3.2639e-07
3.19353e-07
3.23159e-07
2.82877e-07
3.5881e-07
3.16117e-07
3.03377e-07
0.0128531
0.00346828
0.00090874
0.000271123
9.37001e-05
3.24697e-05
8.43743e-06
1.93597e-06
2.33022e-06
2.2937e-06
1.16046e-06
3.57687e-06
1.67986e-06
1.49134e-06
1.34808e-06
1.23284e-06
1.13009e-06
9.76753e-07
9.42477e-07
9.01933e-07
8.03293e-07
7.46289e-07
7.61191e-07
1.64815e-06
2.49685e-06
2.49656e-06
1.30801e-06
5.64307e-07
8.60332e-07
9.84512e-07
9.89023e-07
7.3153e-07
6.50969e-07
6.38872e-07
5.94045e-07
5.61181e-07
5.0619e-07
4.90785e-07
4.82435e-07
4.75333e-07
4.64978e-07
4.28914e-07
3.57521e-07
1.39704e-06
8.59573e-07
3.33182e-07
5.06125e-07
3.20482e-07
3.12856e-07
1.55406e-06
0.23002
0.077518
0.0188966
0.00385937
0.000776418
0.000146376
1.85703e-05
4.14495e-06
4.76827e-06
4.48536e-06
3.82846e-06
3.60103e-06
3.27823e-06
2.94724e-06
2.56694e-06
2.32145e-06
2.12498e-06
5.1789e-06
2.26858e-06
1.0634e-06
3.77641e-06
2.60552e-06
1.11825e-06
1.40086e-06
1.40398e-06
2.62049e-06
2.67293e-06
2.22381e-06
9.09999e-07
9.03413e-07
8.86447e-07
8.54149e-07
8.09242e-07
7.52334e-07
6.25881e-07
1.34846e-06
2.10115e-06
8.38373e-07
5.54186e-07
5.44771e-07
5.34531e-07
5.30336e-07
6.29185e-07
1.4023e-06
1.35893e-06
5.37216e-07
4.68163e-07
4.3818e-07
4.26855e-07
4.9792e-07
0.852771
0.545898
0.194631
0.0384211
0.00461446
0.000352898
1.27314e-05
1.02779e-05
6.76034e-06
8.3828e-06
4.08362e-06
6.53861e-06
3.31704e-06
3.16193e-06
6.36347e-06
3.5183e-06
3.00872e-06
5.6923e-06
2.27424e-06
1.50503e-06
4.63446e-06
2.20198e-06
2.903e-06
1.61679e-06
1.7838e-06
1.93945e-06
1.81692e-06
1.586e-06
1.44429e-06
1.35511e-06
1.28869e-06
1.22141e-06
1.18031e-06
1.19113e-06
1.30486e-06
4.26113e-06
4.43297e-06
3.54407e-06
9.07647e-07
7.32135e-07
7.39999e-07
7.77957e-07
8.55053e-07
9.06259e-07
8.5672e-07
8.13217e-07
3.14661e-06
4.22531e-06
4.22568e-06
1.42608e-06
1
0.966546
0.551049
0.102541
0.00745336
0.000251233
6.27228e-06
5.72239e-06
9.436e-06
4.52881e-06
7.29062e-06
3.57698e-06
5.97279e-06
2.94477e-06
4.12679e-06
2.95107e-06
6.29056e-06
3.00591e-06
4.81934e-06
2.28284e-06
2.32789e-06
2.20702e-06
2.19743e-06
2.05057e-06
1.97896e-06
1.88286e-06
1.48128e-06
2.37682e-06
1.60161e-06
1.94192e-06
1.48308e-06
1.63865e-06
1.671e-06
1.73009e-06
3.30133e-06
4.38106e-06
3.72975e-06
1.42771e-06
1.47869e-06
7.92398e-07
9.49619e-07
1.04552e-06
1.15922e-06
3.09231e-06
3.1088e-06
1.24065e-06
3.30123e-06
2.75627e-06
1.01097e-06
7.91614e-07
0.999998
0.999962
0.607477
0.107406
0.00607077
9.71203e-05
6.86337e-06
6.04564e-06
4.30868e-06
3.61599e-06
2.94552e-06
2.64857e-06
2.40912e-06
2.21797e-06
2.13411e-06
2.01846e-06
1.98388e-06
1.90125e-06
1.89558e-06
1.83444e-06
1.80417e-06
1.77585e-06
1.74207e-06
1.69358e-06
1.63446e-06
1.56448e-06
1.47938e-06
1.43182e-06
1.38537e-06
1.32322e-06
1.27722e-06
1.24944e-06
1.23229e-06
1.23928e-06
1.28813e-06
1.24084e-06
1.07876e-06
9.75328e-07
9.38546e-07
9.05567e-07
9.14701e-07
9.46889e-07
1.01363e-06
1.07881e-06
1.02825e-06
8.74718e-07
8.72705e-07
8.312e-07
7.37127e-07
9.22113e-07
0.999981
0.774173
0.213048
0.0216365
0.000848427
1.135e-05
5.72379e-06
3.17991e-06
2.1411e-06
1.64626e-06
1.34754e-06
1.13551e-06
9.74227e-07
8.50092e-07
7.56199e-07
6.87798e-07
6.40364e-07
6.09001e-07
5.89114e-07
5.76133e-07
5.66523e-07
5.57714e-07
5.48985e-07
5.43255e-07
5.40519e-07
5.38635e-07
5.36846e-07
5.35749e-07
5.32704e-07
5.26303e-07
5.17003e-07
5.05111e-07
4.89321e-07
4.70883e-07
4.52336e-07
4.31587e-07
4.08498e-07
3.87552e-07
3.70079e-07
3.55826e-07
3.44282e-07
3.34132e-07
3.24594e-07
3.14274e-07
3.03227e-07
2.95031e-07
2.93333e-07
2.90328e-07
2.8378e-07
2.84272e-07
0.844691
0.16101
0.00881737
0.000214878
5.44537e-06
2.82028e-06
1.27412e-06
7.44715e-07
5.08798e-07
3.72699e-07
2.83155e-07
2.20679e-07
1.7559e-07
1.42209e-07
1.17306e-07
9.93845e-08
8.70042e-08
7.86201e-08
7.30474e-08
6.96399e-08
6.77458e-08
6.67223e-08
6.60076e-08
6.52838e-08
6.44459e-08
6.35288e-08
6.28607e-08
6.23334e-08
6.21138e-08
6.28822e-08
6.43797e-08
6.64776e-08
6.9021e-08
7.16392e-08
7.39259e-08
7.5535e-08
7.6303e-08
7.63751e-08
7.59048e-08
7.50154e-08
7.38277e-08
7.24014e-08
7.08393e-08
6.92814e-08
6.78641e-08
6.66927e-08
6.57557e-08
6.4864e-08
6.39732e-08
6.3871e-08
0.200933
0.0198556
7.99461e-05
1.45728e-06
6.37916e-07
2.24772e-07
1.38886e-07
9.29729e-08
6.52901e-08
4.74872e-08
3.55197e-08
2.72078e-08
2.12756e-08
1.69349e-08
1.36847e-08
1.12011e-08
9.2705e-09
7.74861e-09
6.53581e-09
5.5642e-09
4.78801e-09
4.17292e-09
3.68837e-09
3.30597e-09
3.0026e-09
2.76098e-09
2.56871e-09
2.41555e-09
2.29101e-09
2.18063e-09
2.07591e-09
1.98487e-09
1.90023e-09
1.82016e-09
1.7446e-09
1.67349e-09
1.60677e-09
1.54458e-09
1.48714e-09
1.43477e-09
1.39501e-09
1.41324e-09
1.52829e-09
1.73213e-09
1.99927e-09
2.30875e-09
2.64377e-09
2.98921e-09
3.3329e-09
3.67728e-09
0.000888848
0.000691631
3.18187e-06
2.79156e-07
1.16842e-07
6.8336e-08
4.4327e-08
2.97631e-08
1.98682e-08
1.32033e-08
8.75338e-09
5.79568e-09
3.83847e-09
2.55052e-09
1.70796e-09
1.15884e-09
8.0067e-10
5.65108e-10
4.07434e-10
2.99713e-10
2.24434e-10
1.70688e-10
1.31525e-10
1.02341e-10
8.01407e-11
6.29633e-11
4.97686e-11
3.96535e-11
3.17924e-11
2.55426e-11
2.06706e-11
1.69405e-11
1.39895e-11
1.15961e-11
9.64229e-12
8.04076e-12
6.72357e-12
5.6369e-12
4.73779e-12
3.99175e-12
3.37105e-12
2.85326e-12
2.42022e-12
2.05716e-12
1.75206e-12
1.49508e-12
1.27813e-12
1.0946e-12
9.39016e-13
8.06878e-13
2.50883e-05
8.02192e-06
3.20952e-06
1.4102e-06
6.60695e-07
3.20763e-07
1.61979e-07
8.56037e-08
4.78817e-08
2.8448e-08
1.77747e-08
1.14287e-08
7.36509e-09
4.64603e-09
2.82028e-09
1.63072e-09
8.9425e-10
4.65299e-10
2.30751e-10
1.09908e-10
5.07843e-11
2.30332e-11
1.03928e-11
4.73244e-12
2.20211e-12
1.05465e-12
5.20213e-13
2.63348e-13
1.36274e-13
7.19079e-14
3.86387e-14
2.11094e-14
1.17019e-14
6.56839e-15
3.72926e-15
2.14e-15
1.24015e-15
7.26696e-16
4.31312e-16
2.59214e-16
1.57433e-16
9.64234e-17
5.94672e-17
3.68967e-17
2.30176e-17
1.44313e-17
9.09008e-18
5.75044e-18
3.65238e-18
2.32847e-18
1.43575e-16
1.02676e-16
7.27796e-17
5.11412e-17
3.56339e-17
2.46292e-17
1.68952e-17
1.15113e-17
7.798e-18
5.25933e-18
3.53808e-18
2.37983e-18
1.60555e-18
1.09073e-18
7.49701e-19
5.24189e-19
3.74947e-19
2.75799e-19
2.09437e-19
1.64509e-19
1.3362e-19
1.11977e-19
9.64887e-20
8.51649e-20
7.67277e-20
7.03573e-20
6.55287e-20
6.19078e-20
5.92848e-20
5.75328e-20
5.65813e-20
5.64005e-20
5.69911e-20
5.83792e-20
6.06129e-20
6.37619e-20
6.79173e-20
7.3193e-20
7.97272e-20
8.76849e-20
9.72603e-20
1.0868e-19
1.22207e-19
1.38145e-19
1.56843e-19
1.78701e-19
2.04182e-19
2.33815e-19
2.6821e-19
3.08065e-19
3.54177e-19
4.07447e-19
4.6889e-19
5.39625e-19
6.20869e-19
7.1392e-19
8.20123e-19
9.40836e-19
1.07738e-18
1.23097e-18
1.4027e-18
1.59343e-18
1.80379e-18
2.03409e-18
2.28436e-18
2.55433e-18
2.84344e-18
3.15091e-18
3.47584e-18
3.81725e-18
4.1742e-18
4.54593e-18
4.9319e-18
5.33193e-18
5.74622e-18
6.17543e-18
6.62066e-18
7.08345e-18
7.56574e-18
8.06981e-18
8.59819e-18
9.15358e-18
9.73873e-18
1.03564e-17
1.10091e-17
1.16991e-17
1.24287e-17
1.31992e-17
1.4012e-17
1.48676e-17
1.57661e-17
1.67071e-17
1.76895e-17
1.87117e-17
1.97716e-17
2.08664e-17
2.19932e-17
2.31485e-17
2.43285e-17
2.55293e-17
2.6747e-17
2.79777e-17
2.92178e-17
3.0464e-17
3.17138e-17
3.29653e-17
3.42175e-17
3.54707e-17
3.67259e-17
3.79936e-17
3.92784e-17
4.05856e-17
4.19211e-17
4.32923e-17
4.47072e-17
4.61747e-17
4.77044e-17
4.93061e-17
5.09902e-17
5.27668e-17
5.46465e-17
5.66399e-17
5.87579e-17
6.10115e-17
6.34119e-17
6.59701e-17
6.86938e-17
7.15985e-17
7.4595e-17
7.76753e-17
8.08382e-17
8.40803e-17
8.7395e-17
9.07715e-17
9.41934e-17
9.76373e-17
1.01071e-16
1.04453e-16
1.07729e-16
1.10834e-16
1.13691e-16
1.16209e-16
1.18289e-16
1.19822e-16
1.20711e-16
1.20867e-16
1.20215e-16
1.18692e-16
1.16259e-16
1.129e-16
1.08624e-16
1.03468e-16
9.74979e-17
9.0804e-17
8.35052e-17
7.57437e-17
6.76757e-17
5.94669e-17
5.1291e-17
4.33277e-17
3.57598e-17
2.87644e-17
2.24988e-17
1.70752e-17
1.25479e-17
8.90996e-18
6.10106e-18
4.02055e-18
2.54466e-18
1.5435e-18
8.95183e-19
4.95129e-19
2.60404e-19
1.29787e-19
6.10664e-20
2.70115e-20
1.11891e-20
4.33589e-21
1.58776e-21
5.75506e-22
2.35708e-22
1.32302e-22
1.03503e-22
9.56654e-23
9.30971e-23
9.17456e-23
9.06704e-23
8.96662e-23
8.86892e-23
8.77295e-23
8.6784e-23
8.58509e-23
8.49288e-23
8.40163e-23
8.31119e-23
8.22143e-23
8.13222e-23
8.0434e-23
7.95484e-23
7.8664e-23
7.77793e-23
7.6893e-23
7.60036e-23
7.51096e-23
7.42097e-23
7.33022e-23
7.23857e-23
7.14588e-23
7.052e-23
6.95677e-23
6.86006e-23
6.76172e-23
6.66161e-23
6.55959e-23
6.45553e-23
6.3493e-23
6.24079e-23
6.12989e-23
6.0165e-23
5.90053e-23
5.78192e-23
5.66061e-23
5.53657e-23
5.40978e-23
5.28026e-23
5.14803e-23
5.01316e-23
4.87574e-23
4.73587e-23
4.59372e-23
4.44946e-23
4.3033e-23
4.15548e-23
4.00627e-23
3.85597e-23
3.70491e-23
3.55345e-23
3.40194e-23
3.25077e-23
3.10035e-23
2.95107e-23
2.80335e-23
2.65759e-23
2.51419e-23
2.37353e-23
2.23598e-23
2.10187e-23
1.97153e-23
1.84524e-23
1.72326e-23
1.60579e-23
1.49304e-23
1.38513e-23
1.28217e-23
1.18424e-23
1.09137e-23
1.00357e-23
9.20785e-24
8.42971e-24
7.70034e-24
7.01862e-24
6.38321e-24
5.79258e-24
5.24506e-24
4.73885e-24
4.27206e-24
3.84273e-24
3.44886e-24
3.08842e-24
2.75939e-24
2.45977e-24
2.18757e-24
1.94087e-24
1.71779e-24
1.51654e-24
1.33537e-24
1.17265e-24
1.02679e-24
8.96314e-25
7.79832e-25
6.76036e-25
5.83707e-25
5.01717e-25
4.29024e-25
3.64672e-25
3.07793e-25
2.57605e-25
2.1341e-25
1.74598e-25
1.40644e-25
1.11107e-25
8.563e-26
6.39313e-26
4.57935e-26
3.1043e-26
1.95201e-26
1.10357e-26
5.32006e-27
1.9718e-27
4.2903e-28
4.39524e-14
3.41517e-14
2.63673e-14
2.0611e-14
1.63608e-14
1.30868e-14
1.04656e-14
8.33234e-15
6.59354e-15
5.18274e-15
4.04559e-15
3.13565e-15
2.4129e-15
1.84304e-15
1.39737e-15
1.05172e-15
7.85987e-16
5.83206e-16
4.29332e-16
3.13924e-16
2.28056e-16
1.64573e-16
1.17927e-16
8.39614e-17
5.94233e-17
4.18222e-17
2.92937e-17
2.04411e-17
1.42255e-17
9.89513e-18
6.90043e-18
4.82642e-18
3.39522e-18
2.41055e-18
1.73412e-18
1.26929e-18
9.49101e-19
7.2749e-19
5.72992e-19
4.64262e-19
3.86904e-19
3.31266e-19
2.90914e-19
2.61591e-19
2.40507e-19
2.25865e-19
2.16543e-19
2.11891e-19
2.11591e-19
2.15574e-19
2.2397e-19
2.37085e-19
2.55386e-19
2.7951e-19
3.10279e-19
3.48714e-19
3.9607e-19
4.53863e-19
5.23905e-19
6.08346e-19
7.09724e-19
8.31027e-19
9.75778e-19
1.14814e-18
1.35304e-18
1.59636e-18
1.88503e-18
2.22728e-18
2.63267e-18
3.11218e-18
3.67811e-18
4.34384e-18
5.12342e-18
6.031e-18
7.08008e-18
8.28271e-18
9.6487e-18
1.11849e-17
1.28948e-17
1.47782e-17
1.68318e-17
1.90496e-17
2.14241e-17
2.39475e-17
2.66136e-17
2.9419e-17
3.23644e-17
3.54559e-17
3.87056e-17
4.21313e-17
4.57565e-17
4.96096e-17
5.37225e-17
5.81294e-17
6.28655e-17
6.79653e-17
7.34614e-17
7.93833e-17
8.5756e-17
9.25989e-17
9.99251e-17
1.0774e-16
1.16043e-16
1.24824e-16
1.34066e-16
1.43744e-16
1.53829e-16
1.64288e-16
1.75083e-16
1.86179e-16
1.97543e-16
2.09147e-16
2.20971e-16
2.33008e-16
2.45262e-16
2.57752e-16
2.70515e-16
2.836e-16
2.97074e-16
3.11015e-16
3.25516e-16
3.40678e-16
3.56613e-16
3.73437e-16
3.91276e-16
4.10264e-16
4.30548e-16
4.52286e-16
4.75766e-16
5.01195e-16
5.2879e-16
5.58795e-16
5.91481e-16
6.27153e-16
6.66141e-16
7.0879e-16
7.5545e-16
8.06454e-16
8.62106e-16
9.22661e-16
9.88281e-16
1.05896e-15
1.13479e-15
1.2126e-15
1.29006e-15
1.36569e-15
1.4378e-15
1.50455e-15
1.56399e-15
1.61415e-15
1.65308e-15
1.67886e-15
1.68961e-15
1.68342e-15
1.65847e-15
1.6141e-15
1.55019e-15
1.46691e-15
1.36483e-15
1.2451e-15
1.10997e-15
9.63109e-16
8.10836e-16
6.60665e-16
5.19825e-16
3.94159e-16
2.87469e-16
2.01293e-16
1.3509e-16
8.67375e-17
5.31794e-17
3.10667e-17
1.72488e-17
9.07444e-18
4.507e-18
2.10393e-18
9.18112e-19
3.72095e-19
1.39041e-19
4.75785e-20
1.48884e-20
4.36401e-21
1.34241e-21
5.69561e-22
3.90791e-22
3.51827e-22
3.43429e-22
3.41524e-22
3.41048e-22
3.40967e-22
3.41074e-22
3.41324e-22
3.41706e-22
3.42214e-22
3.42841e-22
3.43582e-22
3.44433e-22
3.45387e-22
3.46439e-22
3.47582e-22
3.48811e-22
3.50119e-22
3.51497e-22
3.5294e-22
3.54438e-22
3.55982e-22
3.57564e-22
3.59173e-22
3.60798e-22
3.62426e-22
3.64045e-22
3.65642e-22
3.672e-22
3.68704e-22
3.70137e-22
3.7148e-22
3.72714e-22
3.73816e-22
3.74766e-22
3.7554e-22
3.76114e-22
3.76461e-22
3.76556e-22
3.76372e-22
3.75882e-22
3.75057e-22
3.7387e-22
3.72294e-22
3.70303e-22
3.67872e-22
3.64978e-22
3.61601e-22
3.57723e-22
3.53329e-22
3.4841e-22
3.42959e-22
3.36976e-22
3.30465e-22
3.23435e-22
3.15903e-22
3.07889e-22
2.99419e-22
2.90527e-22
2.81249e-22
2.71626e-22
2.61704e-22
2.51532e-22
2.41159e-22
2.30639e-22
2.20025e-22
2.0937e-22
1.98726e-22
1.88145e-22
1.77674e-22
1.67361e-22
1.57246e-22
1.47369e-22
1.37764e-22
1.28462e-22
1.19489e-22
1.10866e-22
1.02611e-22
9.47361e-23
8.72509e-23
8.01606e-23
7.34668e-23
6.71681e-23
6.12602e-23
5.57359e-23
5.05863e-23
4.58003e-23
4.13651e-23
3.72668e-23
3.34905e-23
3.00205e-23
2.68405e-23
2.39341e-23
2.12846e-23
1.88753e-23
1.66899e-23
1.47122e-23
1.29264e-23
1.13173e-23
9.87007e-24
8.57062e-24
7.40541e-24
6.36161e-24
5.42714e-24
4.59079e-24
3.8423e-24
3.17252e-24
2.57367e-24
2.03962e-24
1.56617e-24
1.15143e-24
7.96006e-25
5.02783e-25
2.76051e-25
1.19288e-25
3.11631e-26
8.50877e-13
7.39348e-13
6.40651e-13
5.53543e-13
4.76798e-13
4.09229e-13
3.49793e-13
2.97666e-13
2.52242e-13
2.13043e-13
1.79592e-13
1.5133e-13
1.27602e-13
1.07715e-13
9.10051e-14
7.68966e-14
6.49244e-14
5.47263e-14
4.6023e-14
3.85947e-14
3.22627e-14
2.68769e-14
2.23084e-14
1.84449e-14
1.51884e-14
1.24529e-14
1.01635e-14
8.25489e-15
6.6703e-15
5.36056e-15
4.28317e-15
3.40149e-15
2.68396e-15
2.1035e-15
1.63694e-15
1.2645e-15
9.69338e-16
7.37234e-16
5.56189e-16
4.16162e-16
3.08816e-16
2.27277e-16
1.65926e-16
1.20207e-16
8.64644e-17
6.17982e-17
4.39381e-17
3.11281e-17
2.20209e-17
1.55966e-17
1.10951e-17
7.95837e-18
5.7821e-18
4.27552e-18
3.23227e-18
2.508e-18
2.00286e-18
1.64902e-18
1.40063e-18
1.22736e-18
1.10926e-18
1.03386e-18
9.94103e-19
9.86278e-19
1.00925e-18
1.06406e-18
1.15343e-18
1.28185e-18
1.45547e-18
1.68286e-18
1.97503e-18
2.34538e-18
2.81052e-18
3.39462e-18
4.12649e-18
5.04169e-18
6.18373e-18
7.60573e-18
9.37272e-18
1.1565e-17
1.42824e-17
1.76492e-17
2.18189e-17
2.69774e-17
3.33431e-17
4.11624e-17
5.06994e-17
6.22196e-17
7.59688e-17
9.21509e-17
1.10906e-16
1.32298e-16
1.56308e-16
1.82844e-16
2.1177e-16
2.42934e-16
2.76216e-16
3.11572e-16
3.49071e-16
3.88918e-16
4.31472e-16
4.77228e-16
5.26804e-16
5.80907e-16
6.40294e-16
7.05735e-16
7.77978e-16
8.57713e-16
9.45542e-16
1.04195e-15
1.14726e-15
1.26165e-15
1.38509e-15
1.51738e-15
1.65815e-15
1.80689e-15
1.96303e-15
2.12597e-15
2.29516e-15
2.47018e-15
2.65079e-15
2.83704e-15
3.02932e-15
3.22842e-15
3.43562e-15
3.65269e-15
3.88196e-15
4.12627e-15
4.389e-15
4.67398e-15
4.98549e-15
5.32818e-15
5.70705e-15
6.12743e-15
6.59504e-15
7.11604e-15
7.69714e-15
8.3457e-15
9.06975e-15
9.87792e-15
1.0779e-14
1.17815e-14
1.28925e-14
1.41204e-14
1.54693e-14
1.69388e-14
1.85259e-14
2.02254e-14
2.20309e-14
2.39363e-14
2.59384e-14
2.80387e-14
3.0238e-14
3.25462e-14
3.47221e-14
3.66158e-14
3.81745e-14
3.93343e-14
4.00022e-14
4.00472e-14
3.92946e-14
3.74599e-14
3.44571e-14
3.04837e-14
2.58876e-14
2.1073e-14
1.64211e-14
1.22349e-14
8.70683e-15
5.91173e-15
3.82515e-15
2.35521e-15
1.37739e-15
7.63302e-16
3.99607e-16
1.96873e-16
9.08281e-17
3.8995e-17
1.54587e-17
5.60577e-18
1.83924e-18
5.40309e-19
1.41782e-19
3.40029e-20
8.24635e-21
2.62326e-21
1.45795e-21
1.22881e-21
1.19055e-21
1.19086e-21
1.19954e-21
1.21076e-21
1.22346e-21
1.23743e-21
1.25266e-21
1.26915e-21
1.28692e-21
1.30597e-21
1.32632e-21
1.348e-21
1.37102e-21
1.39539e-21
1.42115e-21
1.44832e-21
1.47691e-21
1.50695e-21
1.53845e-21
1.57144e-21
1.60593e-21
1.64192e-21
1.67944e-21
1.71848e-21
1.75904e-21
1.80109e-21
1.84463e-21
1.88961e-21
1.93599e-21
1.9837e-21
2.03267e-21
2.08279e-21
2.13393e-21
2.18596e-21
2.2387e-21
2.29194e-21
2.34544e-21
2.39894e-21
2.45213e-21
2.50466e-21
2.55616e-21
2.6062e-21
2.65435e-21
2.7001e-21
2.74297e-21
2.78242e-21
2.8179e-21
2.84888e-21
2.87482e-21
2.89519e-21
2.90952e-21
2.91735e-21
2.91831e-21
2.91208e-21
2.89841e-21
2.87715e-21
2.84825e-21
2.81172e-21
2.76772e-21
2.71647e-21
2.65828e-21
2.59357e-21
2.52282e-21
2.44658e-21
2.36544e-21
2.28006e-21
2.19111e-21
2.09928e-21
2.00527e-21
1.90975e-21
1.81341e-21
1.71687e-21
1.62075e-21
1.52561e-21
1.43196e-21
1.34026e-21
1.25093e-21
1.16432e-21
1.08073e-21
1.00041e-21
9.23546e-22
8.50298e-22
7.80762e-22
7.14999e-22
6.53028e-22
5.94837e-22
5.40382e-22
4.89592e-22
4.42373e-22
3.98614e-22
3.58186e-22
3.20948e-22
2.86749e-22
2.55432e-22
2.26831e-22
2.00781e-22
1.77111e-22
1.55652e-22
1.36232e-22
1.18682e-22
1.02832e-22
8.85131e-23
7.55573e-23
6.38007e-23
5.30851e-23
4.32663e-23
3.42253e-23
2.5891e-23
1.82721e-23
1.15029e-23
5.88812e-24
1.90094e-24
1.16588e-11
1.00011e-11
8.57635e-12
7.35163e-12
6.29887e-12
5.39403e-12
4.61646e-12
3.94842e-12
3.3747e-12
2.88224e-12
2.45982e-12
2.09776e-12
1.78771e-12
1.52243e-12
1.2957e-12
1.10217e-12
9.37269e-13
7.97041e-13
6.78064e-13
5.7732e-13
4.92127e-13
4.20101e-13
3.59138e-13
3.07416e-13
2.63389e-13
2.25774e-13
1.93525e-13
1.65796e-13
1.41903e-13
1.21293e-13
1.03509e-13
8.81699e-14
7.49517e-14
6.35765e-14
5.38035e-14
4.54225e-14
3.825e-14
3.2125e-14
2.69068e-14
2.24719e-14
1.87124e-14
1.55338e-14
1.2854e-14
1.06013e-14
8.71312e-15
7.13558e-15
5.82182e-15
4.73145e-15
3.82971e-15
3.08672e-15
2.47694e-15
1.97854e-15
1.57295e-15
1.24439e-15
9.79527e-16
7.67096e-16
5.97629e-16
4.63194e-16
3.57173e-16
2.74067e-16
2.09333e-16
1.59232e-16
1.20709e-16
9.12846e-17
6.89567e-17
5.21241e-17
3.95158e-17
3.01316e-17