/*--------------------------------*- C++ -*----------------------------------*\
| =========                 |                                                 |
| \\      /  F ield         | OpenFOAM: The Open Source CFD Toolbox           |
|  \\    /   O peration     | Version:  2.4.0                                 |
|   \\  /    A nd           | Web:      www.OpenFOAM.org                      |
|    \\/     M anipulation  |                                                 |
\*---------------------------------------------------------------------------*/
FoamFile
{
    version     2.0;
    format      ascii;
    class       volScalarField;
    location    "3";
    object      H;
}
// * * * * * * * * * * * * * * * * * * * * * * * * * * * * * * * * * * * * * //

dimensions      [0 2 -2 0 0 0 0];

internalField   nonuniform List<scalar> 
8000
(
-11437.9
-9837.22
-8190.53
-6478.36
-4696.01
-2855.97
-986.43
-35.356
-24.3658
-18.4491
-14.7812
-12.1078
-10.0836
-8.61865
-7.57603
-6.77627
-6.12943
-5.5916
-5.13906
-4.75516
-4.42547
-4.13712
-3.87928
-3.64367
-3.42442
-3.21767
-3.0211
-2.83338
-2.6538
-2.48202
-2.31786
-2.16125
-2.01213
-1.87043
-1.73608
-1.60897
-1.48898
-1.37595
-1.26968
-1.16998
-1.07663
-0.989382
-0.907993
-0.832204
-0.761751
-0.69637
-0.635795
-0.579763
-0.528016
-0.480298
-11408.8
-9761.29
-8092.49
-6377.36
-4598.15
-2808.54
-1273.57
-74.185
-8.00822
-7.38497
-7.90652
-8.13757
-8.09403
-7.87465
-7.55474
-7.18937
-6.81278
-6.44234
-6.08719
-5.75299
-5.43793
-5.13699
-4.84545
-4.56
-4.27936
-4.00424
-3.73673
-3.47933
-3.2364
-3.00895
-2.79637
-2.59792
-2.41279
-2.24015
-2.07919
-1.9291
-1.78914
-1.65859
-1.53679
-1.42315
-1.31712
-1.21819
-1.1259
-1.03981
-0.959521
-0.884624
-0.814852
-0.750076
-0.689962
-0.634201
-11553.2
-10200.5
-8847.93
-7491.93
-6131.38
-4773.32
-3439.63
-2148.25
-1273.01
-20.8662
-2.45431
-1.96178
-1.82184
-2.7886
-3.43271
-3.90199
-4.23045
-4.43578
-4.5341
-4.61638
-4.66797
-4.69625
-4.70473
-4.69537
-4.66979
-4.62995
-4.57789
-4.51525
-4.4422
-4.3578
-4.26062
-4.14959
-4.02458
-3.88629
-3.73592
-3.57502
-3.40541
-3.22915
-3.04849
-2.86576
-2.68324
-2.50302
-2.32698
-2.15669
-1.99344
-1.83816
-1.69151
-1.55385
-1.42533
-1.30586
-11726.7
-10727.7
-9746.65
-8786.83
-7845.52
-6918.28
-6001.29
-5093.08
-4176.25
-3231.76
-2220.49
-1117.56
-576.084
-8.75024
-0.62017
-0.333738
-0.447889
-0.347104
-0.174236
-0.641148
-1.15422
-1.65955
-2.10785
-2.48389
-2.79514
-3.04085
-3.22946
-3.38098
-3.50427
-3.60198
-3.67441
-3.72149
-3.74419
-3.74452
-3.72435
-3.68512
-3.6281
-3.55481
-3.46711
-3.36696
-3.25625
-3.13683
-3.01049
-2.87898
-2.74393
-2.60689
-2.46922
-2.33216
-2.19679
-2.06404
-11874.7
-11170.7
-10482.8
-9816.08
-9172.07
-8549.73
-7946.06
-7356.78
-6776.58
-6199.46
-5618.81
-5027.57
-4418.02
-3777.04
-3085.7
-2315.86
-1443.35
-484.484
-113.526
-2.18035
-0.243971
-0.203393
-0.202747
-0.19828
-0.0618835
-0.303017
-0.568462
-0.873956
-1.19212
-1.48697
-1.74003
-1.9403
-2.1056
-2.24707
-2.37045
-2.47434
-2.55424
-2.61011
-2.64463
-2.66116
-2.66254
-2.65048
-2.62619
-2.59118
-2.54684
-2.49433
-2.43466
-2.36881
-2.29771
-2.22224
-11978.2
-11477.2
-10983.3
-10499
-10025.7
-9563.47
-9111.59
-8668.74
-8233.26
-7803.2
-7376.46
-6950.83
-6523.98
-6093.44
-5656.68
-5210.97
-4753.41
-4280.45
-3787.09
-3263.29
-2693.81
-2064.43
-1384.95
-682.834
-60.0008
-0.924493
-0.103327
-0.0761195
-0.0625569
-0.0251421
-0.194142
-0.362471
-0.553319
-0.760344
-0.948378
-1.08619
-1.19534
-1.29302
-1.38246
-1.46382
-1.53644
-1.59945
-1.65238
-1.69611
-1.73104
-1.75742
-1.77551
-1.78556
-1.7879
-1.78299
-12013.2
-11579.9
-11147.4
-10716.3
-10287.4
-9861.15
-9438.2
-9019.06
-8604.26
-8194.23
-7789.28
-7389.56
-6995.01
-6605.3
-6219.79
-5837.54
-5457.24
-5077.12
-4695.86
-4311.46
-3921.7
-3524.61
-3118.56
-2702.21
-2274.56
-1834.57
-1378.26
-910.104
-440.73
-52.9042
-0.692935
-0.0551683
-0.037305
-0.0319749
-0.132235
-0.220257
-0.316851
-0.414397
-0.502245
-0.583487
-0.660192
-0.733069
-0.804331
-0.873513
-0.938268
-0.997455
-1.05079
-1.09809
-1.13918
-1.17399
-12009.1
-11566.7
-11122.8
-10677.3
-10230.6
-9783.72
-9337.94
-8894.88
-8456.29
-8023.99
-7599.69
-7184.96
-6781.11
-6389.15
-6009.73
-5643.09
-5289.02
-4946.97
-4617.17
-4298.24
-3988.75
-3687.15
-3391.81
-3101.02
-2813.06
-2526.29
-2239.23
-1950.55
-1658.88
-1362.71
-1060.34
-752.937
-446.961
-169.494
-2.17548
-0.0559795
-0.0213913
-0.0150014
-0.0629612
-0.111396
-0.165356
-0.223591
-0.278644
-0.328621
-0.378858
-0.429369
-0.479591
-0.528391
-0.575093
-0.619216
-11991.3
-11513
-11033
-10550.9
-10067.5
-9583.85
-9101.83
-8623.5
-8151.18
-7687.28
-7234.16
-6794.01
-6368.78
-5960.08
-5569.13
-5196.75
-4843.34
-4508.91
-4193.08
-3895.13
-3614.07
-3348.69
-3097.57
-2859.17
-2631.6
-2413
-2202.7
-1999.34
-1801.51
-1607.81
-1416.99
-1228.05
-1040.21
-852.872
-665.877
-479.735
-298.577
-130.835
-1.55294
-0.031777
-0.00864747
-0.00406321
-0.0309162
-0.0650971
-0.101717
-0.136442
-0.168997
-0.201914
-0.235314
-0.268612
-11972.1
-11455.6
-10937.9
-10419
-9899.98
-9382.15
-8867.47
-8358.23
-7856.92
-7366.13
-6888.37
-6426
-5981.11
-5555.47
-5150.47
-4767.08
-4405.87
-4067
-3750.28
-3455.15
-3180.82
-2926.21
-2690.1
-2471.12
-2267.81
-2078.65
-1902.15
-1736.83
-1581.26
-1434.14
-1294.24
-1160.43
-1031.54
-906.674
-785.914
-669.037
-555.663
-445.315
-337.206
-230.123
-125.055
-32.2336
-0.372184
-0.00880931
-0.00259675
-0.0179754
-0.0386623
-0.059591
-0.0794868
-0.100211
-11956.4
-11408.8
-10860.6
-10312.4
-9765.38
-9221.18
-8681.94
-8150.08
-7628.17
-7118.79
-6624.48
-6147.54
-5690.02
-5253.63
-4839.66
-4449.05
-4082.31
-3739.56
-3420.58
-3124.84
-2851.54
-2599.67
-2368.06
-2155.43
-1960.41
-1781.61
-1617.64
-1467.14
-1328.8
-1201.35
-1083.63
-974.54
-873.086
-778.353
-689.53
-605.906
-526.881
-451.971
-380.799
-313.047
-248.407
-186.612
-127.977
-72.9821
-23.0723
-0.253905
-0.0138941
-0.000822057
-0.0238043
-0.0443497
-11946.8
-11380.6
-10815.2
-10251.6
-9691.29
-9136.25
-8588.56
-8050.55
-7524.6
-7013.03
-6518.07
-6041.69
-5585.6
-5151.18
-4739.48
-4351.16
-3986.54
-3645.64
-3328.14
-3033.49
-2760.93
-2509.5
-2278.14
-2065.69
-1870.94
-1692.66
-1529.61
-1380.59
-1244.44
-1120.05
-1006.37
-902.417
-807.289
-720.146
-640.223
-566.824
-499.32
-437.144
-379.791
-326.805
-277.77
-232.293
-189.985
-150.407
-112.958
-76.65
-39.9326
-0.413249
-0.025475
-0.0477151
-11949
-11387.6
-10828.3
-10272.5
-9722.04
-9178.82
-8644.83
-8122.06
-7612.49
-7117.96
-6640.16
-6180.56
-5740.37
-5320.55
-4921.75
-4544.38
-4188.57
-3854.2
-3540.95
-3248.32
-2975.64
-2722.14
-2486.95
-2269.16
-2067.8
-1881.89
-1710.47
-1552.57
-1407.26
-1273.64
-1150.85
-1038.07
-934.517
-839.459
-752.199
-672.082
-598.488
-530.833
-468.565
-411.16
-358.123
-308.979
-263.272
-220.587
-180.666
-143.244
-107.733
-73.2887
-38.4888
-0.417946
-11960.7
-11423
-10888.1
-10358
-9834.45
-9319.22
-8814.07
-8320.59
-7840.28
-7374.45
-6924.25
-6490.62
-6074.29
-5675.79
-5295.46
-4933.42
-4589.65
-4263.97
-3956.05
-3665.48
-3391.75
-3134.27
-2892.43
-2665.58
-2453.04
-2254.16
-2068.26
-1894.68
-1732.77
-1581.92
-1441.52
-1310.96
-1189.69
-1077.15
-972.795
-876.103
-786.562
-703.674
-626.949
-555.911
-490.097
-429.056
-372.358
-319.596
-270.376
-224.399
-181.499
-141.458
-104.045
-68.8491
-11979.5
-11479.5
-10982.6
-10490.7
-10005.4
-9528.39
-9061.01
-8604.49
-8159.89
-7728.08
-7309.76
-6905.46
-6515.55
-6140.25
-5779.64
-5433.7
-5102.31
-4785.25
-4482.26
-4193.01
-3917.16
-3654.32
-3404.1
-3166.14
-2940.03
-2725.41
-2521.91
-2329.18
-2146.88
-1974.68
-1812.24
-1659.24
-1515.36
-1380.27
-1253.62
-1135.07
-1024.26
-920.815
-824.343
-734.439
-650.688
-572.663
-499.931
-432.061
-368.631
-309.248
-253.568
-201.309
-152.234
-106.147
-11999.5
-11539.5
-11082.4
-10630.1
-10184
-9745.4
-9315.3
-8894.62
-8484.06
-8084.15
-7695.27
-7317.7
-6951.55
-6596.89
-6253.66
-5921.76
-5601.03
-5291.28
-4992.28
-4703.82
-4425.68
-4157.64
-3899.49
-3651.07
-3412.22
-3182.79
-2962.67
-2751.76
-2549.98
-2357.24
-2173.46
-1998.56
-1832.45
-1675.01
-1526.1
-1385.55
-1253.16
-1128.69
-1011.84
-902.29
-799.654
-703.518
-613.431
-528.919
-449.5
-374.695
-304.037
-237.068
-173.306
-112.188
-12014.1
-11583.3
-11154.9
-10730.5
-10311.3
-9898.45
-9492.87
-9095.33
-8706.42
-8326.58
-7956.09
-7595.13
-7243.73
-6901.85
-6569.38
-6246.15
-5931.98
-5626.64
-5329.94
-5041.67
-4761.67
-4489.8
-4225.95
-3970.06
-3722.1
-3482.07
-3250.02
-3026.01
-2810.14
-2602.5
-2403.19
-2212.31
-2029.95
-1856.15
-1690.94
-1534.28
-1386.09
-1246.22
-1114.44
-990.456
-873.871
-764.214
-660.938
-563.437
-471.079
-383.253
-299.428
-219.22
-142.467
-69.3639
-12014.4
-11583.8
-11155.7
-10731.7
-10313.5
-9902.39
-9499.53
-9105.76
-8721.65
-8347.52
-7983.45
-7629.38
-7285.09
-6950.29
-6624.61
-6307.68
-5999.13
-5698.59
-5405.77
-5120.37
-4842.2
-4571.11
-4306.99
-4049.83
-3799.66
-3556.55
-3320.64
-3092.09
-2871.11
-2657.9
-2452.69
-2255.68
-2067.08
-1887.05
-1715.69
-1553.07
-1399.17
-1253.89
-1117.02
-988.264
-867.169
-753.161
-645.515
-543.364
-445.738
-351.645
-260.211
-170.764
-82.7804
-0.82529
-11979.3
-11480
-10987.9
-10507.6
-10042.3
-9593.98
-9163.34
-8750.36
-8354.42
-7974.56
-7609.66
-7258.53
-6919.99
-6592.96
-6276.43
-5969.51
-5671.43
-5381.55
-5099.35
-4824.41
-4556.43
-4295.2
-4040.62
-3792.67
-3551.39
-3316.91
-3089.39
-2869.05
-2656.14
-2450.93
-2253.67
-2064.63
-1884.03
-1712.07
-1548.86
-1394.49
-1248.92
-1112.05
-983.662
-863.451
-750.935
-645.433
-546.001
-451.36
-359.85
-269.482
-179.233
-88.645
-0.852675
-0.727041
-11774.1
-11011.7
-10355
-9775.94
-9255.63
-8781.01
-8342.71
-7933.85
-7549.26
-7184.99
-6837.97
-6505.78
-6186.54
-5878.7
-5581.05
-5292.63
-5012.66
-4740.56
-4475.86
-4218.26
-3967.53
-3723.56
-3486.33
-3255.88
-3032.33
-2815.85
-2606.65
-2404.99
-2211.12
-2025.31
-1847.83
-1678.92
-1518.77
-1367.53
-1225.29
-1092.02
-967.62
-851.837
-744.404
-645.631
-555.007
-471.953
-395.805
-325.823
-261.203
-201.077
-144.493
-90.3311
-37.103
-0.446037
-0.436362
-0.395966
-0.35888
-0.324879
-0.29375
-0.26529
-0.239306
-0.215612
-0.194038
-0.174418
-0.156599
-0.140437
-0.125797
-0.112553
-0.100588
-0.0897908
-0.0800611
-0.0713043
-0.0634333
-0.0563674
-0.0500322
-0.0443599
-0.0392879
-0.0347582
-0.0307177
-0.027118
-0.023915
-0.0210691
-0.0185436
-0.0163053
-0.0143238
-0.0125721
-0.0110253
-0.00966111
-0.00845951
-0.00740236
-0.0064734
-0.00565802
-0.00494313
-0.00431704
-0.00376927
-0.00329052
-0.00287246
-0.00250772
-0.00218974
-0.00191271
-0.0016715
-0.00146156
-0.00127889
-0.00111997
-0.582505
-0.534604
-0.490247
-0.449196
-0.41123
-0.376142
-0.343738
-0.313835
-0.286263
-0.260861
-0.23748
-0.215977
-0.196221
-0.178087
-0.161459
-0.146228
-0.13229
-0.119551
-0.107919
-0.09731
-0.0876459
-0.0788527
-0.0708614
-0.0636077
-0.0570316
-0.0510774
-0.045693
-0.0408303
-0.0364442
-0.0324934
-0.0289394
-0.0257465
-0.0228819
-0.0203154
-0.018019
-0.0159671
-0.0141363
-0.0125048
-0.011053
-0.00976277
-0.00861771
-0.0076028
-0.0067044
-0.00591014
-0.00520879
-0.00459021
-0.00404523
-0.00356558
-0.00314384
-0.00277332
-1.19522
-1.09308
-0.999003
-0.912524
-0.833145
-0.760362
-0.69368
-0.63262
-0.576729
-0.525581
-0.478781
-0.435963
-0.396792
-0.360959
-0.328185
-0.298213
-0.270808
-0.245757
-0.222865
-0.201955
-0.182864
-0.165442
-0.149553
-0.135072
-0.121884
-0.109882
-0.0989696
-0.0890564
-0.0800597
-0.0719028
-0.064515
-0.0578311
-0.0517909
-0.0463386
-0.0414229
-0.0369964
-0.0330153
-0.0294392
-0.0262312
-0.0233569
-0.0207851
-0.0184868
-0.0164357
-0.0146076
-0.0129803
-0.0115338
-0.0102496
-0.00911102
-0.00810298
-0.00721177
-1.93471
-1.80944
-1.68877
-1.57307
-1.46264
-1.35766
-1.25822
-1.16433
-1.07595
-0.992985
-0.915278
-0.842658
-0.774923
-0.711856
-0.653231
-0.598814
-0.548373
-0.501677
-0.458499
-0.418621
-0.381833
-0.347931
-0.316723
-0.288027
-0.261669
-0.237486
-0.215322
-0.195033
-0.176481
-0.159537
-0.144081
-0.13
-0.117186
-0.105541
-0.0949709
-0.0853895
-0.0767154
-0.0688729
-0.0617917
-0.0554064
-0.0496562
-0.0444849
-0.0398404
-0.0356748
-0.0319437
-0.0286067
-0.0256263
-0.0229687
-0.0206028
-0.0185007
-2.14323
-2.06146
-1.97766
-1.89251
-1.80666
-1.72067
-1.63508
-1.55034
-1.46689
-1.38507
-1.3052
-1.22754
-1.15231
-1.07968
-1.0098
-0.942761
-0.878637
-0.817473
-0.759287
-0.704077
-0.651821
-0.60248
-0.556001
-0.512318
-0.471356
-0.43303
-0.397247
-0.36391
-0.332916
-0.30416
-0.277534
-0.252929
-0.230236
-0.209346
-0.190153
-0.17255
-0.156436
-0.141711
-0.128279
-0.116047
-0.104927
-0.0948342
-0.0856894
-0.077417
-0.0699461
-0.0632105
-0.0571485
-0.0517029
-0.0468215
-0.0424565
-1.77124
-1.75317
-1.72931
-1.70018
-1.66634
-1.62831
-1.58662
-1.54177
-1.49424
-1.44448
-1.39293
-1.33999
-1.28603
-1.2314
-1.17643
-1.12141
-1.06663
-1.01234
-0.958775
-0.906135
-0.854615
-0.804381
-0.755581
-0.708344
-0.662776
-0.618967
-0.576986
-0.536887
-0.498704
-0.462456
-0.428147
-0.395768
-0.365296
-0.336698
-0.309931
-0.284941
-0.261672
-0.240057
-0.220027
-0.201509
-0.184428
-0.168708
-0.15427
-0.14104
-0.128942
-0.117902
-0.107851
-0.0987229
-0.0904541
-0.0829877
-1.20254
-1.22502
-1.24161
-1.2526
-1.25827
-1.25895
-1.25497
-1.24666
-1.23435
-1.21835
-1.19901
-1.17662
-1.15149
-1.12392
-1.09419
-1.0626
-1.02941
-0.994876
-0.959262
-0.922808
-0.885748
-0.848304
-0.810688
-0.773099
-0.735723
-0.698734
-0.66229
-0.626538
-0.591606
-0.557612
-0.524654
-0.492818
-0.462176
-0.432784
-0.404685
-0.377909
-0.352472
-0.328382
-0.305634
-0.284213
-0.264098
-0.24526
-0.227665
-0.211272
-0.19604
-0.181924
-0.168878
-0.156856
-0.145814
-0.135709
-0.660417
-0.698474
-0.733224
-0.76454
-0.7923
-0.816443
-0.836927
-0.85376
-0.86699
-0.876691
-0.882965
-0.885941
-0.885764
-0.882594
-0.876606
-0.867985
-0.856921
-0.843609
-0.828249
-0.81104
-0.792181
-0.77187
-0.750303
-0.72767
-0.704158
-0.679947
-0.65521
-0.630112
-0.604809
-0.57945
-0.554171
-0.5291
-0.504353
-0.480036
-0.456242
-0.433053
-0.410541
-0.388766
-0.367776
-0.347611
-0.328304
-0.309871
-0.29233
-0.275689
-0.25995
-0.245109
-0.231162
-0.218099
-0.205912
-0.194592
-0.301557
-0.334092
-0.366037
-0.397119
-0.427058
-0.455518
-0.482262
-0.50709
-0.529817
-0.550349
-0.568618
-0.584547
-0.598131
-0.609373
-0.618302
-0.624964
-0.629422
-0.631755
-0.632052
-0.630415
-0.626951
-0.621779
-0.61502
-0.606801
-0.597251
-0.586502
-0.574686
-0.561932
-0.54837
-0.534123
-0.519324
-0.504064
-0.488469
-0.472652
-0.456706
-0.440725
-0.424796
-0.408995
-0.393395
-0.378061
-0.363049
-0.348412
-0.334194
-0.320435
-0.307169
-0.294426
-0.282232
-0.270613
-0.259592
-0.249194
-0.122032
-0.144499
-0.167246
-0.190072
-0.212822
-0.235325
-0.257402
-0.278904
-0.299637
-0.319488
-0.338348
-0.356098
-0.372656
-0.387945
-0.401903
-0.414487
-0.425666
-0.435425
-0.443761
-0.450683
-0.456212
-0.460379
-0.463226
-0.464804
-0.465168
-0.464362
-0.462473
-0.459576
-0.455747
-0.451067
-0.445617
-0.439463
-0.432684
-0.425369
-0.417593
-0.409432
-0.400953
-0.392226
-0.383316
-0.374284
-0.365187
-0.356079
-0.347009
-0.338025
-0.329168
-0.320481
-0.312001
-0.303767
-0.295816
-0.288187
-0.0593115
-0.0711133
-0.0837869
-0.097763
-0.112201
-0.126778
-0.14141
-0.15605
-0.17062
-0.185039
-0.19925
-0.213204
-0.226787
-0.239958
-0.252651
-0.264808
-0.276377
-0.287307
-0.297554
-0.307076
-0.31584
-0.323825
-0.331008
-0.337377
-0.34291
-0.347591
-0.351451
-0.354531
-0.356867
-0.358482
-0.359412
-0.359693
-0.359368
-0.358482
-0.357078
-0.355203
-0.352901
-0.350219
-0.347201
-0.343891
-0.340332
-0.336563
-0.332624
-0.328558
-0.324387
-0.320152
-0.315893
-0.311636
-0.307418
-0.303281
-0.0484123
-0.0528935
-0.0569541
-0.0598128
-0.0655007
-0.0731357
-0.0814095
-0.0899456
-0.0986641
-0.107574
-0.116676
-0.125947
-0.135333
-0.144779
-0.154244
-0.163693
-0.173082
-0.182361
-0.191435
-0.200276
-0.208851
-0.217063
-0.224893
-0.232303
-0.239248
-0.245723
-0.251702
-0.257182
-0.262174
-0.266695
-0.270746
-0.274342
-0.277496
-0.280227
-0.282552
-0.284497
-0.286075
-0.287298
-0.288205
-0.28882
-0.289166
-0.289269
-0.289152
-0.288839
-0.288344
-0.287687
-0.286898
-0.285991
-0.284985
-0.283899
-0.0284386
-0.0558984
-0.0708075
-0.0733746
-0.0672162
-0.0657895
-0.0675851
-0.0695024
-0.0713512
-0.073309
-0.0754812
-0.0779578
-0.0807725
-0.0839845
-0.0876009
-0.0915754
-0.0958972
-0.100527
-0.105375
-0.110411
-0.115585
-0.120804
-0.126032
-0.131219
-0.136341
-0.141363
-0.146262
-0.151018
-0.155611
-0.160029
-0.164263
-0.168308
-0.17216
-0.175819
-0.179283
-0.182549
-0.185586
-0.188381
-0.19096
-0.193353
-0.195564
-0.197602
-0.199471
-0.201175
-0.202721
-0.204114
-0.205372
-0.20649
-0.207453
-0.208267
-35.0517
-0.360646
-0.323434
-0.290798
-0.223197
-0.178914
-0.156278
-0.136532
-0.118641
-0.102436
-0.0878344
-0.0747163
-0.06301
-0.0525987
-0.0433889
-0.0352712
-0.0281712
-0.0220143
-0.0167332
-0.0122561
-0.00851768
-0.00546499
-0.00304676
-0.00121247
8.76716e-05
0.000899266
0.00127108
0.00124773
0.000877073
0.000200192
-0.000745414
-0.00192691
-0.00331808
-0.00488784
-0.00660174
-0.00842601
-0.0103317
-0.0122895
-0.01427
-0.0162535
-0.0182222
-0.0201584
-0.0220382
-0.0238416
-0.0255428
-0.0271656
-0.0287269
-0.0302194
-0.0316461
-0.0329815
-62.7931
-21.6525
-0.276848
-0.261608
-0.203566
-0.167297
-0.14635
-0.125124
-0.103707
-0.0824017
-0.0614324
-0.040959
-0.0210845
-0.00187232
0.0166432
0.0344464
0.0515225
0.0678551
0.0834334
0.098244
0.112276
0.125521
0.137974
0.149632
0.160501
0.170594
0.179929
0.188531
0.196419
0.203622
0.21017
0.216097
0.22144
0.226227
0.230483
0.234228
0.237465
0.240273
0.24271
0.244827
0.246661
0.248242
0.249589
0.250719
0.251637
0.252409
0.253107
0.25371
0.254246
0.254735
-52.9401
-0.592984
-0.565517
-0.472505
-0.354926
-0.302248
-0.256362
-0.211739
-0.168457
-0.126569
-0.0861102
-0.0471015
-0.00954892
0.0265523
0.061215
0.0944571
0.126298
0.156757
0.185855
0.213618
0.240071
0.265245
0.28917
0.311884
0.333427
0.353848
0.373191
0.391493
0.40879
0.425117
0.440514
0.455023
0.468682
0.481529
0.493593
0.504901
0.515493
0.525409
0.534699
0.543407
0.551573
0.559223
0.566372
0.573038
0.579249
0.58505
0.590486
0.595596
0.6004
0.604923
-0.719709
-0.675456
-0.522715
-0.407605
-0.345049
-0.285413
-0.227169
-0.170445
-0.115333
-0.0619009
-0.010192
0.0397738
0.0879951
0.134486
0.179272
0.222388
0.263877
0.303783
0.342154
0.379037
0.41448
0.448525
0.481214
0.512556
0.542589
0.571345
0.598858
0.625175
0.650339
0.674393
0.697377
0.719332
0.740297
0.760311
0.779412
0.797639
0.815032
0.831634
0.847493
0.862655
0.877172
0.891084
0.904413
0.917179
0.929406
0.941118
0.952341
0.963099
0.973415
0.98331
-0.783346
-0.636185
-0.455367
-0.373218
-0.294503
-0.218864
-0.146508
-0.0774833
-0.0117214
0.0509291
0.110667
0.167712
0.222287
0.274607
0.324868
0.373247
0.419901
0.464967
0.508562
0.550788
0.591733
0.631471
0.670067
0.707577
0.744048
0.779524
0.814042
0.847633
0.880326
0.912149
0.943085
0.973143
1.00234
1.0307
1.05823
1.08494
1.11085
1.13597
1.16029
1.18383
1.20659
1.22856
1.24978
1.27028
1.29006
1.30917
1.32762
1.34545
1.36266
1.37929
-0.482414
-0.369955
-0.265501
-0.176509
-0.0976696
-0.0278914
0.0342702
0.0903365
0.141828
0.190099
0.236247
0.281108
0.325276
0.369141
0.412934
0.456768
0.500669
0.544612
0.588535
0.632362
0.676008
0.71939
0.762429
0.805055
0.847203
0.88882
0.929858
0.97028
1.01005
1.04915
1.08755
1.12523
1.16214
1.19828
1.23364
1.26822
1.30203
1.33506
1.36733
1.39885
1.42961
1.45962
1.48891
1.51747
1.54533
1.57248
1.59896
1.62476
1.64991
1.67442
-0.316361
-0.275335
-0.232326
-0.188344
-0.143862
-0.0990297
-0.0537988
-0.00803158
0.0383584
0.0854183
0.133175
0.18163
0.230758
0.280503
0.330789
0.381519
0.432584
0.483865
0.535241
0.58659
0.637797
0.688749
0.739346
0.789495
0.839113
0.888127
0.936474
0.9841
1.03096
1.07702
1.12224
1.1666
1.21009
1.25268
1.29438
1.33518
1.37507
1.41407
1.45216
1.48937
1.52571
1.56117
1.59578
1.62954
1.66248
1.6946
1.72593
1.75648
1.78626
1.8153
-0.00101293
-0.000943402
-0.000878545
-0.000818064
-0.000761683
-0.000709135
-0.00066017
-0.000614551
-0.000572055
-0.000532469
-0.000495594
-0.000461243
-0.000429238
-0.000399415
-0.000371617
-0.000345699
-0.000321523
-0.000298962
-0.000277897
-0.000258217
-0.000239817
-0.000222602
-0.000206481
-0.000191371
-0.000177195
-0.000163882
-0.000151366
-0.000139585
-0.000128484
-0.000118009
-0.000108115
-9.87563e-05
-8.98932e-05
-8.14889e-05
-7.35095e-05
-6.59241e-05
-5.87045e-05
-5.18249e-05
-4.52619e-05
-3.89942e-05
-3.30024e-05
-2.72691e-05
-2.17781e-05
-1.65152e-05
-1.14672e-05
-6.62233e-06
-1.96997e-06
2.49958e-06
6.79505e-06
1.09243e-05
1.48944e-05
1.87117e-05
2.23822e-05
2.5911e-05
2.93029e-05
3.25623e-05
3.5693e-05
3.86987e-05
4.15826e-05
4.43478e-05
4.6997e-05
4.95328e-05
5.19576e-05
5.42736e-05
5.6483e-05
5.85878e-05
6.05898e-05
6.2491e-05
6.42929e-05
6.59974e-05
6.76061e-05
6.91206e-05
7.05426e-05
7.18736e-05
7.31152e-05
7.42691e-05
7.53367e-05
7.63197e-05
7.72198e-05
7.80384e-05
7.87772e-05
7.94379e-05
8.00222e-05
8.05317e-05
8.09681e-05
8.13333e-05
8.16288e-05
8.18566e-05
8.20184e-05
8.21159e-05
8.21511e-05
8.21256e-05
8.20414e-05
8.19002e-05
8.17037e-05
8.14539e-05
8.11525e-05
8.08014e-05
8.04024e-05
7.99573e-05
7.94681e-05
7.89364e-05
7.83643e-05
7.77536e-05
7.71062e-05
7.64241e-05
7.57091e-05
7.49633e-05
7.41885e-05
7.33909e-05
7.25762e-05
7.17487e-05
7.09118e-05
7.00682e-05
6.92202e-05
6.83699e-05
6.75192e-05
6.66699e-05
6.58236e-05
6.49817e-05
6.4146e-05
6.33177e-05
6.24983e-05
6.16888e-05
6.08905e-05
6.01044e-05
5.93314e-05
5.85727e-05
5.78188e-05
5.70622e-05
5.6299e-05
5.55276e-05
5.47477e-05
5.39593e-05
5.3163e-05
5.23592e-05
5.15486e-05
5.07318e-05
4.99093e-05
4.90816e-05
4.8249e-05
4.74118e-05
4.65702e-05
4.57243e-05
4.48741e-05
4.40199e-05
4.31624e-05
4.23021e-05
4.14397e-05
4.05762e-05
3.97124e-05
3.8849e-05
3.79871e-05
3.71274e-05
3.62708e-05
3.54182e-05
3.45706e-05
3.37287e-05
3.28934e-05
3.20657e-05
3.12463e-05
3.0436e-05
2.96356e-05
2.88459e-05
2.80674e-05
2.73007e-05
2.65464e-05
2.5805e-05
2.50769e-05
2.43623e-05
2.36617e-05
2.29751e-05
2.23027e-05
2.16445e-05
2.10007e-05
2.03712e-05
1.97559e-05
1.91548e-05
1.85676e-05
1.79944e-05
1.74349e-05
1.68888e-05
1.63562e-05
1.58366e-05
1.53299e-05
1.4836e-05
1.43545e-05
1.38853e-05
1.34281e-05
1.29828e-05
1.2549e-05
1.21266e-05
1.17154e-05
1.13151e-05
1.09256e-05
1.05465e-05
1.01778e-05
9.81914e-06
9.47038e-06
9.13131e-06
8.80174e-06
8.48145e-06
8.17027e-06
7.86799e-06
7.57443e-06
7.28943e-06
7.01276e-06
6.74428e-06
6.4838e-06
6.23115e-06
5.98619e-06
5.74871e-06
5.51858e-06
5.29563e-06
5.0797e-06
4.87063e-06
4.66831e-06
4.47255e-06
4.28322e-06
4.10017e-06
3.92328e-06
3.75238e-06
3.58736e-06
3.42808e-06
3.2744e-06
3.12618e-06
2.9833e-06
2.84563e-06
2.71306e-06
2.58542e-06
2.46261e-06
2.34452e-06
2.231e-06
2.12193e-06
2.0172e-06
1.91667e-06
1.82023e-06
1.72778e-06
1.63916e-06
1.55428e-06
1.47301e-06
1.39524e-06
1.32086e-06
1.24974e-06
1.18179e-06
1.11689e-06
1.05494e-06
9.95808e-07
9.39409e-07
8.85641e-07
8.344e-07
7.85572e-07
7.39097e-07
6.94846e-07
6.52734e-07
6.12685e-07
5.74597e-07
5.38393e-07
5.03992e-07
4.71309e-07
4.40276e-07
4.10821e-07
3.82857e-07
3.56329e-07
3.31164e-07
3.0732e-07
2.84709e-07
2.63294e-07
2.43016e-07
2.23824e-07
2.0568e-07
1.88525e-07
1.72332e-07
1.57051e-07
1.42635e-07
1.29094e-07
1.16358e-07
1.04414e-07
9.32215e-08
8.27973e-08
7.30767e-08
6.40755e-08
5.57534e-08
4.81059e-08
4.1106e-08
3.47563e-08
2.90363e-08
2.39225e-08
1.9395e-08
1.54538e-08
1.20438e-08
9.1693e-09
6.77333e-09
4.83486e-09
3.30725e-09
2.14329e-09
1.30483e-09
7.2507e-10
3.64879e-10
1.59833e-10
-0.00252348
-0.00235912
-0.0022052
-0.00206111
-0.00192628
-0.00180019
-0.00168231
-0.00157215
-0.00146925
-0.00137314
-0.00128342
-0.00119967
-0.00112151
-0.00104858
-0.000980524
-0.000917027
-0.000857776
-0.000802479
-0.000750862
-0.000702665
-0.000657645
-0.000615572
-0.000576232
-0.000539423
-0.000504956
-0.000472655
-0.000442355
-0.000413902
-0.000387154
-0.000361975
-0.00033826
-0.000315895
-0.000294771
-0.000274786
-0.000255848
-0.000237872
-0.000220779
-0.000204498
-0.000188965
-0.000174119
-0.000159906
-0.000146278
-0.000133189
-0.0001206
-0.000108473
-9.67752e-05
-8.54773e-05
-7.45523e-05
-6.39763e-05
-5.37276e-05
-4.37873e-05
-3.41381e-05
-2.47649e-05
-1.56543e-05
-6.79461e-06
1.8247e-06
1.02127e-05
1.83772e-05
2.63252e-05
3.40626e-05
4.15945e-05
4.89252e-05
5.60585e-05
6.29974e-05
6.97445e-05
7.6302e-05
8.26717e-05
8.88549e-05
9.48528e-05
0.000100666
0.000106296
0.000111743
0.000117007
0.000122088
0.000126988
0.000131706
0.000136242
0.000140598
0.000144772
0.000148767
0.000152581
0.000156216
0.000159672
0.000162949
0.000166048
0.00016897
0.000171715
0.000174286
0.000176681
0.000178904
0.000180954
0.000182834
0.000184544
0.000186088
0.000187465
0.000188679
0.000189731
0.000190623
0.000191358
0.000191939
0.000192367
0.000192646
0.000192779
0.000192768
0.000192617
0.000192329
0.000191908
0.000191357
0.00019068
0.00018988
0.000188963
0.000187931
0.000186789
0.00018554
0.00018419
0.000182742
0.0001812
0.000179569
0.000177853
0.000176056
0.000174183
0.000172238
0.000170226
0.000168151
0.000166017
0.00016383
0.000161595
0.000159315
0.000157007
0.000154685
0.000152359
0.000150039
0.000147729
0.000145436
0.000143164
0.000140918
0.000138701
0.000136517
0.000134369
0.000132262
0.000130197
0.000128177
0.000126206
0.000124267
0.000122335
0.000120397
0.000118445
0.000116479
0.000114497
0.000112501
0.00011049
0.000108467
0.000106433
0.000104388
0.000102333
0.000100268
9.81945e-05
9.61145e-05
9.40301e-05
9.19441e-05
8.98593e-05
8.77789e-05
8.57063e-05
8.36447e-05
8.15977e-05
7.95688e-05
7.75613e-05
7.55786e-05
7.36236e-05
7.16992e-05
6.98077e-05
6.79513e-05
6.61315e-05
6.43498e-05
6.26072e-05
6.0904e-05
5.92408e-05
5.76174e-05
5.60338e-05
5.44893e-05
5.29835e-05
5.15157e-05
5.0085e-05
4.86906e-05
4.73315e-05
4.60069e-05
4.47157e-05
4.3457e-05
4.22298e-05
4.10333e-05
3.98666e-05
3.87287e-05
3.76189e-05
3.65363e-05
3.54802e-05
3.44497e-05
3.34442e-05
3.2463e-05
3.15053e-05
3.05706e-05
2.96582e-05
2.87675e-05
2.78978e-05
2.70488e-05
2.62198e-05
2.54103e-05
2.46199e-05
2.3848e-05
2.30942e-05
2.23582e-05
2.16394e-05
2.09376e-05
2.02522e-05
1.95831e-05
1.89299e-05
1.82922e-05
1.76697e-05
1.70623e-05
1.64695e-05
1.58912e-05
1.53272e-05
1.47771e-05
1.42409e-05
1.37182e-05
1.3209e-05
1.2713e-05
1.22301e-05
1.176e-05
1.13027e-05
1.0858e-05
1.04258e-05
1.00058e-05
9.59796e-06
9.20211e-06
8.81809e-06
8.44573e-06
8.08491e-06
7.73543e-06
7.39716e-06
7.0699e-06
6.75348e-06
6.44774e-06
6.15246e-06
5.86748e-06
5.59257e-06
5.32755e-06
5.07221e-06
4.82634e-06
4.5897e-06
4.3621e-06
4.14327e-06
3.93302e-06
3.73111e-06
3.5373e-06
3.35135e-06
3.17302e-06
3.00208e-06
2.8383e-06
2.68142e-06
2.53123e-06
2.38746e-06
2.2499e-06
2.11831e-06
1.99247e-06
1.87215e-06
1.75711e-06
1.64718e-06
1.54212e-06
1.44172e-06
1.34579e-06
1.25415e-06
1.1666e-06
1.08297e-06
1.00312e-06
9.26862e-07
8.54078e-07
7.84611e-07
7.18363e-07
6.55228e-07
5.95105e-07
5.37919e-07
4.83619e-07
4.32161e-07
3.83508e-07
3.37668e-07
2.94648e-07
2.54467e-07
2.17164e-07
1.82788e-07
1.51418e-07
1.23072e-07
9.78263e-08
7.56983e-08
5.67086e-08
4.07922e-08
2.79057e-08
1.78519e-08
1.04314e-08
5.32752e-09
2.16312e-09
-0.00660754
-0.00620312
-0.00582307
-0.00546613
-0.00513106
-0.00481669
-0.00452187
-0.00424554
-0.00398663
-0.00374416
-0.00351716
-0.00330474
-0.003106
-0.00292013
-0.00274633
-0.00258384
-0.00243195
-0.00228997
-0.00215726
-0.0020332
-0.00191722
-0.00180876
-0.00170731
-0.00161237
-0.00152348
-0.00144021
-0.00136215
-0.00128892
-0.00122015
-0.00115551
-0.00109468
-0.00103738
-0.000983311
-0.000932233
-0.000883904
-0.000838102
-0.000794622
-0.000753273
-0.000713879
-0.000676279
-0.000640322
-0.000605872
-0.000572801
-0.000540995
-0.000510347
-0.000480762
-0.00045215
-0.000424433
-0.000397539
-0.000371401
-0.00034596
-0.000321165
-0.000296968
-0.000273326
-0.000250202
-0.000227563
-0.000205379
-0.000183626
-0.00016228
-0.000141323
-0.000120739
-0.000100513
-8.06351e-05
-6.10948e-05
-4.18849e-05
-2.29997e-05
-4.43505e-06
1.3812e-05
3.1743e-05
4.93587e-05
6.66584e-05
8.36412e-05
0.000100283
0.000116585
0.000132549
0.000148173
0.000163457
0.000178399
0.000192994
0.000207241
0.000221135
0.000234673
0.000247851
0.000260665
0.00027311
0.000285184
0.000296881
0.0003082
0.000319136
0.000329686
0.000339848
0.000349618
0.000358995
0.000367976
0.00037656
0.000384745
0.00039253
0.000399914
0.000406897
0.000413479
0.00041966
0.000425441
0.000430822
0.000435804
0.00044039
0.000444581
0.000448378
0.000451786
0.000454806
0.000457442
0.000459697
0.000461576
0.000463083
0.000464221
0.000464997
0.000465415
0.000465481
0.000465201
0.00046458
0.000463626
0.000462344
0.000460743
0.000458829
0.00045661
0.000454095
0.000451293
0.000448212
0.000444862
0.000441253
0.000437394
0.000433297
0.000428971
0.000424427
0.000419677
0.00041473
0.000409598
0.000404293
0.000398826
0.000393208
0.000387451
0.000381567
0.000375568
0.000369466
0.000363293
0.000357094
0.0003509
0.000344735
0.000338619
0.000332567
0.000326594
0.000320713
0.000314935
0.000309271
0.000303734
0.000298284
0.000292849
0.000287387
0.000281879
0.000276316
0.000270695
0.000265018
0.000259287
0.000253505
0.000247677
0.000241814
0.000235929
0.00023004
0.000224165
0.000218324
0.000212538
0.000206826
0.000201205
0.000195692
0.0001903
0.00018504
0.000179921
0.000174947
0.000170124
0.000165452
0.000160932
0.000156561
0.000152336
0.000148253
0.000144308
0.000140496
0.00013681
0.000133246
0.000129797
0.000126459
0.000123225
0.00012009
0.00011705
0.000114099
0.000111233
0.000108449
0.000105741
0.000103106
0.000100541
9.80422e-05
9.56063e-05
9.32305e-05
9.09119e-05
8.86478e-05
8.64357e-05
8.42732e-05
8.21582e-05
8.00884e-05
7.80619e-05
7.60768e-05
7.41315e-05
7.22242e-05
7.03534e-05
6.85177e-05
6.67157e-05
6.49463e-05
6.32081e-05
6.15001e-05
5.98213e-05
5.81709e-05
5.65478e-05
5.49516e-05
5.33814e-05
5.18367e-05
5.03171e-05
4.88222e-05
4.73516e-05
4.59052e-05
4.44827e-05
4.30841e-05
4.17095e-05
4.03586e-05
3.90317e-05
3.77289e-05
3.64502e-05
3.51959e-05
3.39662e-05
3.27611e-05
3.1581e-05
3.04261e-05
2.92964e-05
2.81923e-05
2.71139e-05
2.60613e-05
2.50347e-05
2.40341e-05
2.30596e-05
2.21112e-05
2.1189e-05
2.02928e-05
1.94226e-05
1.85782e-05
1.77595e-05
1.69663e-05
1.61983e-05
1.54552e-05
1.47367e-05