/*--------------------------------*- C++ -*----------------------------------*\
| =========                 |                                                 |
| \\      /  F ield         | OpenFOAM: The Open Source CFD Toolbox           |
|  \\    /   O peration     | Version:  2.4.0                                 |
|   \\  /    A nd           | Web:      www.OpenFOAM.org                      |
|    \\/     M anipulation  |                                                 |
\*---------------------------------------------------------------------------*/
FoamFile
{
    version     2.0;
    format      ascii;
    class       volScalarField;
    location    "3";
    object      p;
}
// * * * * * * * * * * * * * * * * * * * * * * * * * * * * * * * * * * * * * //

dimensions      [1 -1 -2 0 0 0 0];

internalField   nonuniform List<scalar> 
8000
(
-9.43316
-9.50007
-9.5399
-9.56911
-9.99325
-11.8289
-14.3803
-6.35935
-1.82688
-1.37337
-1.30591
-1.32388
-1.32451
-1.32481
-1.32529
-1.32573
-1.32604
-1.32623
-1.32635
-1.3264
-1.32638
-1.3263
-1.32615
-1.32597
-1.32576
-1.32554
-1.32533
-1.32512
-1.32493
-1.32475
-1.32458
-1.32443
-1.32429
-1.32418
-1.32407
-1.32398
-1.3239
-1.32384
-1.32378
-1.32374
-1.3237
-1.32367
-1.32365
-1.32364
-1.32364
-1.32364
-1.32364
-1.32365
-1.32367
-1.32369
-12.8026
-12.7651
-12.7452
-12.7536
-12.8089
-12.9668
-13.2089
-8.37419
-4.44165
-1.41312
-1.35939
-1.34183
-1.34031
-1.33638
-1.33497
-1.33493
-1.33562
-1.33672
-1.33744
-1.33799
-1.3386
-1.33926
-1.33991
-1.34051
-1.34105
-1.34151
-1.3419
-1.34223
-1.34251
-1.34275
-1.34298
-1.34318
-1.34337
-1.34355
-1.34371
-1.34385
-1.34399
-1.34412
-1.34424
-1.34435
-1.34446
-1.34456
-1.34466
-1.34476
-1.34486
-1.34495
-1.34505
-1.34514
-1.34523
-1.34532
-7.52707
-7.35963
-7.16912
-6.96175
-6.69738
-6.44744
-6.72056
-8.62891
-9.93991
-15.8392
-9.32573
-1.91014
-1.63728
-1.56498
-1.56823
-1.53944
-1.46382
-1.41746
-1.4095
-1.39844
-1.38012
-1.36576
-1.35821
-1.35691
-1.35957
-1.36225
-1.36326
-1.36339
-1.3634
-1.36353
-1.36378
-1.36405
-1.36427
-1.36446
-1.36464
-1.36484
-1.36504
-1.36523
-1.36542
-1.36561
-1.36579
-1.36596
-1.36614
-1.3663
-1.36647
-1.36663
-1.36678
-1.36693
-1.36708
-1.36723
-4.37204
-4.25479
-4.11644
-3.97172
-3.81716
-3.65308
-3.51347
-3.4718
-3.45469
-3.78936
-4.30795
-4.57713
-2.12433
-6.23147
-5.75234
-7.45008
-7.82886
-4.33076
-1.95645
-1.42339
-1.32768
-1.37103
-1.41567
-1.42516
-1.4289
-1.43069
-1.41773
-1.39497
-1.3796
-1.37856
-1.38522
-1.39005
-1.39111
-1.39055
-1.39012
-1.39016
-1.39036
-1.3905
-1.39051
-1.39054
-1.39059
-1.39066
-1.39073
-1.3908
-1.39087
-1.39093
-1.391
-1.39107
-1.39114
-1.39121
-3.60418
-3.53618
-3.46379
-3.39634
-3.33305
-3.27212
-3.21364
-3.15683
-3.09908
-3.03085
-2.95541
-2.88023
-2.77599
-2.67226
-2.53559
-2.45291
-2.50634
-2.71071
-1.8069
-9.6081
-7.87242
-7.69667
-9.03381
-8.82844
-4.60266
-1.62329
-1.14669
-1.09748
-1.16497
-1.33148
-1.44401
-1.44887
-1.41194
-1.39147
-1.39488
-1.40524
-1.41174
-1.41394
-1.4139
-1.41313
-1.4132
-1.41316
-1.41379
-1.414
-1.41399
-1.41406
-1.41414
-1.41422
-1.41429
-1.41437
-0.430478
-0.411775
-0.388519
-0.363794
-0.337902
-0.310691
-0.282186
-0.252451
-0.221476
-0.188689
-0.154055
-0.118389
-0.0826357
-0.0398165
0.0170054
0.105422
0.227137
0.346404
0.50351
0.609917
0.734659
0.796487
0.67674
0.359015
-0.0785439
-2.59598
-8.2272
-7.45276
-8.64618
-7.55585
-1.34198
-0.573686
-0.41698
-0.744355
-1.28863
-1.54377
-1.46928
-1.42918
-1.42606
-1.43218
-1.43572
-1.43647
-1.43666
-1.43701
-1.43737
-1.43758
-1.43767
-1.43772
-1.43775
-1.43778
1.60047
1.5836
1.56903
1.56086
1.55855
1.56172
1.56985
1.58321
1.60139
1.62478
1.65288
1.68616
1.72389
1.7668
1.81402
1.86664
1.92313
1.98362
2.04623
2.11936
2.20554
2.32016
2.46712
2.63619
2.80327
3.0128
3.16487
3.20104
3.02034
2.76913
-1.78039
-7.25846
-8.65208
-8.48291
-2.12041
-0.529675
0.230802
-0.689208
-1.37124
-1.50326
-1.46581
-1.44068
-1.44765
-1.45849
-1.46221
-1.4627
-1.4627
-1.46266
-1.46263
-1.4626
2.2099
2.19938
2.18817
2.17937
2.17327
2.16955
2.16805
2.16873
2.17157
2.17654
2.18361
2.19276
2.20396
2.21721
2.23244
2.24967
2.26873
2.28965
2.31206
2.33618
2.36166
2.389
2.41763
2.44791
2.47886
2.51442
2.56029
2.61677
2.66753
2.71922
2.80243
2.88595
2.82572
2.34759
-1.53897
-2.42305
-6.47479
-8.03087
-6.91403
-1.84666
-0.181446
-0.370615
-1.27134
-1.49348
-1.47597
-1.47454
-1.47951
-1.48211
-1.483
-1.4833
3.33896
3.32236
3.30647
3.29393
3.28436
3.27731
3.27268
3.27049
3.27075
3.27345
3.27859
3.28613
3.29608
3.30837
3.32304
3.33998
3.35924
3.38066
3.40435
3.43008
3.458
3.48776
3.51954
3.55279
3.58775
3.62358
3.66084
3.69845
3.73723
3.77644
3.82002
3.86594
3.90374
3.94046
3.98473
4.08746
4.12972
3.87469
1.33984
-0.206711
-6.6001
-6.99018
-3.9916
-1.25486
-0.728206
-1.31627
-1.49241
-1.50263
-1.50719
-1.50725
3.20142
3.18382
3.1642
3.14655
3.1311
3.11746
3.10545
3.09506
3.08629
3.07912
3.07354
3.06953
3.06707
3.06614
3.0667
3.06874
3.07223
3.07712
3.08342
3.09105
3.10002
3.11024
3.12174
3.13441
3.14828
3.1632
3.17925
3.19621
3.21422
3.23289
3.25243
3.27232
3.29333
3.31511
3.33923
3.36307
3.38119
3.39828
3.41014
3.45669
3.47659
3.27918
-0.327226
-3.63497
-6.11672
-3.58168
-1.8151
-1.41169
-1.47573
-1.47808
3.67024
3.64382
3.61675
3.5935
3.57367
3.55658
3.54202
3.52999
3.52048
3.51348
3.50897
3.50694
3.50737
3.51024
3.51554
3.52327
3.53341
3.54596
3.56092
3.57827
3.59802
3.62018
3.64474
3.67171
3.7011
3.73292
3.76719
3.80395
3.84319
3.88496
3.9293
3.97627
4.02591
4.07829
4.13344
4.19141
4.25255
4.31756
4.38718
4.45813
4.52126
4.58135
4.65711
4.80046
4.83485
1.32199
-3.19073
-3.50636
-2.23204
-1.53944
3.08842
3.06491
3.03988
3.01792
2.99894
2.98238
2.96802
2.95586
2.9459
2.93814
2.93257
2.92919
2.928
2.929
2.93221
2.93762
2.94526
2.95514
2.9673
2.98175
2.99854
3.0177
3.03928
3.06331
3.08987
3.119
3.15078
3.18526
3.22255
3.26272
3.30587
3.35209
3.40151
3.45421
3.51035
3.57003
3.63345
3.70065
3.77183
3.84715
3.92722
4.01285
4.10264
4.18707
4.26233
4.36383
4.42419
3.23541
0.334429
-1.10116
2.33736
2.32298
2.3076
2.29391
2.28187
2.27113
2.26158
2.25323
2.24609
2.24016
2.23544
2.23191
2.22957
2.22842
2.22844
2.22964
2.23199
2.2355
2.24014
2.24592
2.2528
2.26079
2.26986
2.28001
2.2912
2.30343
2.31666
2.33089
2.34607
2.36221
2.37925
2.39718
2.41594
2.43554
2.45589
2.47701
2.4988
2.52127
2.54432
2.56797
2.59206
2.61668
2.64168
2.66755
2.6945
2.71952
2.73435
2.74239
2.66926
1.85819
1.45124
1.44237
1.4331
1.42485
1.4175
1.41086
1.40486
1.39951
1.39482
1.39079
1.38742
1.3847
1.38263
1.3812
1.38042
1.38026
1.38072
1.38179
1.38346
1.38571
1.38854
1.39191
1.39583
1.40025
1.40517
1.41055
1.41638
1.42262
1.42923
1.4362
1.44346
1.451
1.45875
1.46667
1.47471
1.48282
1.49091
1.49895
1.50683
1.5145
1.52184
1.5288
1.53524
1.54112
1.54619
1.5511
1.55331
1.55753
1.56792
1.57649
0.262956
0.258976
0.254312
0.250049
0.246322
0.243045
0.240175
0.237705
0.235634
0.233962
0.232689
0.231811
0.231326
0.231234
0.231531
0.232216
0.233287
0.234743
0.23658
0.238798
0.241393
0.244364
0.247707
0.251421
0.255501
0.259945
0.264748
0.26991
0.275422
0.281285
0.287491
0.294038
0.300916
0.308127
0.31566
0.323515
0.331678
0.340155
0.348926
0.357999
0.367353
0.377002
0.386919
0.397113
0.407498
0.418108
0.429784
0.440579
0.456011
0.470249
-0.580768
-0.579285
-0.576949
-0.574627
-0.572587
-0.570826
-0.569315
-0.568046
-0.567015
-0.56622
-0.565653
-0.565308
-0.565175
-0.565246
-0.56551
-0.565959
-0.566583
-0.567374
-0.568324
-0.569426
-0.570674
-0.572063
-0.573589
-0.575251
-0.577045
-0.578975
-0.58104
-0.583245
-0.585594
-0.588095
-0.590754
-0.593583
-0.596592
-0.599795
-0.603204
-0.606837
-0.610708
-0.614839
-0.619245
-0.62395
-0.628969
-0.634324
-0.640038
-0.646178
-0.652826
-0.659848
-0.663598
-0.667813
-0.673666
-0.704223
-2.09234
-2.08402
-2.07619
-2.06939
-2.06321
-2.05745
-2.05211
-2.04719
-2.04273
-2.03871
-2.03513
-2.03197
-2.02922
-2.02686
-2.02487
-2.02323
-2.02193
-2.02095
-2.02026
-2.01984
-2.01967
-2.01973
-2.02001
-2.02048
-2.02113
-2.02193
-2.02288
-2.02395
-2.02513
-2.0264
-2.02775
-2.02916
-2.03062
-2.03212
-2.03363
-2.03515
-2.03666
-2.03814
-2.03957
-2.04094
-2.04222
-2.04339
-2.04446
-2.04545
-2.04619
-2.04573
-2.0425
-2.03942
-2.06012
-2.1352
-2.46655
-2.44232
-2.41577
-2.39415
-2.37776
-2.36546
-2.35649
-2.3504
-2.34684
-2.3455
-2.34608
-2.34831
-2.35196
-2.35681
-2.36266
-2.36934
-2.37668
-2.38454
-2.3928
-2.40133
-2.41004
-2.41882
-2.4276
-2.43631
-2.44487
-2.45323
-2.46134
-2.46918
-2.47669
-2.48387
-2.49069
-2.49715
-2.50324
-2.50899
-2.5144
-2.51951
-2.52435
-2.52898
-2.53345
-2.53786
-2.54228
-2.5469
-2.55192
-2.5573
-2.56196
-2.5642
-2.56945
-2.61022
-2.73772
-2.68473
-4.37284
-4.3096
-4.25147
-4.20732
-4.17383
-4.14795
-4.12825
-4.11392
-4.10428
-4.09868
-4.09656
-4.09742
-4.10084
-4.10645
-4.11394
-4.12302
-4.13347
-4.14508
-4.15768
-4.1711
-4.18524
-4.19998
-4.21522
-4.23091
-4.24698
-4.26339
-4.28012
-4.29716
-4.3145
-4.33215
-4.35016
-4.36857
-4.38743
-4.40683
-4.42687
-4.44766
-4.46938
-4.49216
-4.51625
-4.5419
-4.56947
-4.59931
-4.63144
-4.66488
-4.69995
-4.7486
-4.84738
-5.00475
-4.9178
-2.95302
-0.303215
-0.696929
-1.09139
-1.43049
-1.72585
-1.99156
-2.23362
-2.45469
-2.6569
-2.84225
-3.01256
-3.16936
-3.31395
-3.44743
-3.57075
-3.68471
-3.78999
-3.88718
-3.97678
-4.05919
-4.13479
-4.20386
-4.26665
-4.32335
-4.37411
-4.41902
-4.45815
-4.49151
-4.51907
-4.54077
-4.55646
-4.56596
-4.56904
-4.56538
-4.55457
-4.53613
-4.50947
-4.47387
-4.42843
-4.37213
-4.30368
-4.2217
-4.1246
-4.01026
-3.8739
-3.70643
-3.50495
-3.32057
-3.30513
-2.78091
-1.32371
-1.32374
-1.32377
-1.3238
-1.32384
-1.32388
-1.32392
-1.32396
-1.324
-1.32405
-1.32409
-1.32414
-1.32419
-1.32424
-1.32429
-1.32434
-1.3244
-1.32445
-1.3245
-1.32456
-1.32461
-1.32466
-1.32472
-1.32477
-1.32483
-1.32489
-1.32494
-1.325
-1.32505
-1.32511
-1.32516
-1.32522
-1.32527
-1.32533
-1.32538
-1.32544
-1.32549
-1.32555
-1.3256
-1.32566
-1.32571
-1.32577
-1.32582
-1.32587
-1.32593
-1.32598
-1.32603
-1.32608
-1.32614
-1.32619
-1.34541
-1.3455
-1.34559
-1.34568
-1.34577
-1.34586
-1.34594
-1.34603
-1.34611
-1.34619
-1.34628
-1.34636
-1.34644
-1.34652
-1.3466
-1.34668
-1.34676
-1.34683
-1.34691
-1.34698
-1.34706
-1.34713
-1.34721
-1.34728
-1.34735
-1.34742
-1.34749
-1.34756
-1.34763
-1.34769
-1.34776
-1.34783
-1.34789
-1.34796
-1.34802
-1.34809
-1.34815
-1.34821
-1.34827
-1.34834
-1.3484
-1.34846
-1.34852
-1.34858
-1.34864
-1.34869
-1.34875
-1.34881
-1.34887
-1.34892
-1.36737
-1.3675
-1.36764
-1.36777
-1.36789
-1.36802
-1.36814
-1.36826
-1.36837
-1.36849
-1.3686
-1.36871
-1.36881
-1.36892
-1.36902
-1.36912
-1.36921
-1.36931
-1.3694
-1.3695
-1.36959
-1.36967
-1.36976
-1.36985
-1.36993
-1.37001
-1.37009
-1.37017
-1.37025
-1.37033
-1.37041
-1.37048
-1.37055
-1.37063
-1.3707
-1.37077
-1.37084
-1.37091
-1.37098
-1.37104
-1.37111
-1.37118
-1.37124
-1.3713
-1.37137
-1.37143
-1.37149
-1.37155
-1.37161
-1.37167
-1.39128
-1.39135
-1.39142
-1.39149
-1.39156
-1.39162
-1.39169
-1.39176
-1.39183
-1.3919
-1.39197
-1.39204
-1.3921
-1.39217
-1.39224
-1.3923
-1.39237
-1.39244
-1.3925
-1.39257
-1.39263
-1.3927
-1.39276
-1.39283
-1.39289
-1.39296
-1.39302
-1.39308
-1.39315
-1.39321
-1.39327
-1.39333
-1.39339
-1.39346
-1.39352
-1.39358
-1.39364
-1.3937
-1.39376
-1.39382
-1.39387
-1.39393
-1.39399
-1.39405
-1.39411
-1.39416
-1.39422
-1.39428
-1.39433
-1.39439
-1.41444
-1.41451
-1.41457
-1.41464
-1.41471
-1.41477
-1.41483
-1.4149
-1.41496
-1.41502
-1.41508
-1.41514
-1.4152
-1.41526
-1.41532
-1.41538
-1.41544
-1.4155
-1.41556
-1.41562
-1.41567
-1.41573
-1.41579
-1.41585
-1.4159
-1.41596
-1.41601
-1.41607
-1.41613
-1.41618
-1.41624
-1.41629
-1.41634
-1.4164
-1.41645
-1.41651
-1.41656
-1.41661
-1.41667
-1.41672
-1.41677
-1.41682
-1.41688
-1.41693
-1.41698
-1.41703
-1.41709
-1.41714
-1.41719
-1.41724
-1.43781
-1.43785
-1.43788
-1.43791
-1.43795
-1.43798
-1.43801
-1.43804
-1.43807
-1.43811
-1.43814
-1.43817
-1.43821
-1.43824
-1.43828
-1.43831
-1.43835
-1.43839
-1.43843
-1.43847
-1.43851
-1.43855
-1.43859
-1.43863
-1.43868
-1.43872
-1.43876
-1.43881
-1.43885
-1.4389
-1.43894
-1.43899
-1.43904
-1.43908
-1.43913
-1.43918
-1.43922
-1.43927
-1.43932
-1.43936
-1.43941
-1.43946
-1.4395
-1.43955
-1.4396
-1.43965
-1.43969
-1.43974
-1.43979
-1.43984
-1.46254
-1.46249
-1.46245
-1.46241
-1.46237
-1.46234
-1.46231
-1.46228
-1.46225
-1.46223
-1.46221
-1.46219
-1.46217
-1.46216
-1.46215
-1.46214
-1.46213
-1.46213
-1.46213
-1.46212
-1.46213
-1.46213
-1.46214
-1.46214
-1.46215
-1.46216
-1.46217
-1.46219
-1.4622
-1.46222
-1.46224
-1.46226
-1.46228
-1.4623
-1.46232
-1.46235
-1.46237
-1.4624
-1.46243
-1.46246
-1.46249
-1.46252
-1.46255
-1.46258
-1.46262
-1.46265
-1.46269
-1.46272
-1.46276
-1.46279
-1.48341
-1.48346
-1.48343
-1.48347
-1.48353
-1.48358
-1.48364
-1.48369
-1.48373
-1.48378
-1.48383
-1.48387
-1.48391
-1.48395
-1.48399
-1.48403
-1.48407
-1.48411
-1.48414
-1.48418
-1.48421
-1.48425
-1.48428
-1.48432
-1.48435
-1.48439
-1.48442
-1.48445
-1.48449
-1.48452
-1.48455
-1.48459
-1.48463
-1.48466
-1.48469
-1.48473
-1.48477
-1.4848
-1.48484
-1.48483
-1.48477
-1.48489
-1.48492
-1.48496
-1.485
-1.48504
-1.48508
-1.48511
-1.48515
-1.48519
-1.50686
-1.5069
-1.5071
-1.50726
-1.50734
-1.50735
-1.50727
-1.50724
-1.50753
-1.50742
-1.50741
-1.50764
-1.50764
-1.50763
-1.50762
-1.50762
-1.50761
-1.50761
-1.50761
-1.50761
-1.50762
-1.50762
-1.50763
-1.50763
-1.50764
-1.50765
-1.50766
-1.50767
-1.50769
-1.50769
-1.50722
-1.50745
-1.50749
-1.50752
-1.50755
-1.50757
-1.5076
-1.50763
-1.50765
-1.50768
-1.5077
-1.50773
-1.50776
-1.50779
-1.50782
-1.50785
-1.50788
-1.50791
-1.50794
-1.50797
-1.50423
-1.52342
-1.52915
-1.52992
-1.53001
-1.53006
-1.53008
-1.53007
-1.53001
-1.52999
-1.52996
-1.52998
-1.52997
-1.52995
-1.52994
-1.52992
-1.52991
-1.52989
-1.52988
-1.52987
-1.52986
-1.52985
-1.5298
-1.52985
-1.52942
-1.52981
-1.52981
-1.52979
-1.52977
-1.52978
-1.52977
-1.52971
-1.52999
-1.52999
-1.52996
-1.52997
-1.53004
-1.53004
-1.53005
-1.53006
-1.53008
-1.53009
-1.53011
-1.53013
-1.53015
-1.53018
-1.5302
-1.53022
-1.53028
-1.53033
-1.44293
-1.49747
-1.53354
-1.54741
-1.55144
-1.5525
-1.55272
-1.55272
-1.55272
-1.55269
-1.55217
-1.55149
-1.5524
-1.5524
-1.5524
-1.55242
-1.55243
-1.55243
-1.55245
-1.55247
-1.55249
-1.55249
-1.55252
-1.55255
-1.55217
-1.5522
-1.55225
-1.55213
-1.55229
-1.55229
-1.55231
-1.55234
-1.55237
-1.55239
-1.55242
-1.55244
-1.55246
-1.55248
-1.5525
-1.55252
-1.55254
-1.55254
-1.55252
-1.55203
-1.55231
-1.55232
-1.55232
-1.55222
-1.55221
-1.55159
-1.20472
-1.22834
-1.42442
-1.54183
-1.57029
-1.5745
-1.57495
-1.57498
-1.57502
-1.575
-1.57506
-1.57506
-1.57507
-1.57506
-1.57505
-1.57493
-1.57483
-1.57329
-1.57475
-1.57415
-1.57416
-1.57473
-1.57475
-1.57487
-1.57485
-1.5748
-1.57475
-1.57496
-1.57495
-1.57494
-1.57492
-1.5749
-1.57489
-1.57485
-1.57478
-1.57474
-1.57436
-1.57493
-1.57492
-1.57491
-1.5749
-1.5749
-1.5749
-1.57453
-1.57456
-1.57458
-1.57458
-1.57459
-1.5746
-1.57464
1.01051
0.0432829
-1.04112
-1.51414
-1.58903
-1.5946
-1.59501
-1.59507
-1.5951
-1.59507
-1.59509
-1.59506
-1.59493
-1.59483
-1.59457
-1.59597
-1.59567
-1.59555
-1.5972
-1.59675
-1.59669
-1.59786
-1.59781
-1.59776
-1.59779
-1.59775
-1.59776
-1.59773
-1.59769
-1.59765
-1.59762
-1.59759
-1.59755
-1.59753
-1.59752
-1.59748
-1.59738
-1.59784
-1.59786
-1.59788
-1.59791
-1.59796
-1.59799
-1.59802
-1.59807
-1.59811
-1.59816
-1.59768
-1.59776
-1.5965
1.5144
0.859044
-0.650173
-1.52205
-1.61249
-1.61709
-1.61734
-1.6171
-1.61703
-1.61942
-1.6194
-1.61942
-1.61938
-1.61941
-1.61997
-1.61941
-1.61774
-1.61942
-1.61938
-1.61944
-1.61945
-1.61945
-1.61944
-1.61945
-1.61945
-1.61943
-1.61923
-1.61901
-1.6194
-1.61939
-1.61939
-1.61946
-1.61946
-1.61945
-1.61943
-1.61887
-1.6192
-1.61922
-1.61921
-1.6192
-1.61926
-1.61929
-1.61926
-1.61918
-1.61915
-1.61913
-1.61914
-1.61939
-1.61945
-1.61944
0.447334
0.344751
-0.839445
-1.57201
-1.63945
-1.64181
-1.64191
-1.64188
-1.64184
-1.64183
-1.64182
-1.64181
-1.64181
-1.64181
-1.64181
-1.64182
-1.64182
-1.64183
-1.64184
-1.64186
-1.64187
-1.64188
-1.64188
-1.64189
-1.6419
-1.64191
-1.64191
-1.64191
-1.64192
-1.64192
-1.64192
-1.64192
-1.64192
-1.64192
-1.64191
-1.64193
-1.64194
-1.64194
-1.64194
-1.64194
-1.64194
-1.64195
-1.64194
-1.64193
-1.64195
-1.64196
-1.64195
-1.64194
-1.64191
-1.64185
-0.814877
-0.92707
-1.36185
-1.63828
-1.66388
-1.66438
-1.66438
-1.66437
-1.66436
-1.66436
-1.66435
-1.66434
-1.66434
-1.66433
-1.66433
-1.66432
-1.66432
-1.66432
-1.66432
-1.66432
-1.66431
-1.66431
-1.66431
-1.66431
-1.66431
-1.66431
-1.66431
-1.66431
-1.66432
-1.66432
-1.66432
-1.66432
-1.66432
-1.66432
-1.66432
-1.66432
-1.66432
-1.66432
-1.66432
-1.66432
-1.66432
-1.66432
-1.66431
-1.66431
-1.66431
-1.66431
-1.66431
-1.6643
-1.6643
-1.6643
-2.18713
-1.81249
-1.69506
-1.6873
-1.6868
-1.68683
-1.68685
-1.68685
-1.68685
-1.68684
-1.68684
-1.68683
-1.68683
-1.68683
-1.68682
-1.68682
-1.68682
-1.68681
-1.68681
-1.68681
-1.68681
-1.68681
-1.6868
-1.6868
-1.6868
-1.6868
-1.6868
-1.6868
-1.68679
-1.68679
-1.68679
-1.68679
-1.68679
-1.68679
-1.68679
-1.68679
-1.68679
-1.68678
-1.68678
-1.68678
-1.68678
-1.68678
-1.68678
-1.68679
-1.68679
-1.68679
-1.68679
-1.68679
-1.68679
-1.68679
-1.84007
-1.79118
-1.71143
-1.70901
-1.70908
-1.70916
-1.70917
-1.70915
-1.70914
-1.70913
-1.70912
-1.70911
-1.70911
-1.7091
-1.7091
-1.70909
-1.70909
-1.70909
-1.70908
-1.70908
-1.70908
-1.70908
-1.70908
-1.70908
-1.70908
-1.70908
-1.70908
-1.70908
-1.70908
-1.70908
-1.70908
-1.70908
-1.70908
-1.70908
-1.70909
-1.70909
-1.70909
-1.70909
-1.70909
-1.70909
-1.7091
-1.7091
-1.7091
-1.7091
-1.70911
-1.70911
-1.70911
-1.70912
-1.70912
-1.70912
-1.73703
-1.72292
-1.73245
-1.73217
-1.73215
-1.73215
-1.73213
-1.7321
-1.73206
-1.73203
-1.732
-1.73197
-1.73194
-1.73191
-1.73189
-1.73186
-1.73184
-1.73181
-1.73179
-1.73177
-1.73176
-1.73174
-1.73172
-1.73171
-1.7317
-1.73169
-1.73168
-1.73167
-1.73166
-1.73165
-1.73164
-1.73163
-1.73163
-1.73162
-1.73162
-1.73161
-1.73161
-1.73161
-1.73161
-1.7316
-1.7316
-1.7316
-1.7316
-1.7316
-1.7316
-1.7316
-1.7316
-1.7316
-1.7316
-1.7316
-1.75459
-1.75206
-1.75234
-1.75278
-1.7529
-1.753
-1.75308
-1.75316
-1.75323
-1.75329
-1.75335
-1.7534
-1.75344
-1.75348
-1.75351
-1.75354
-1.75357
-1.75359
-1.75361
-1.75363
-1.75365
-1.75367
-1.75369
-1.7537
-1.75371
-1.75373
-1.75374
-1.75375
-1.75376
-1.75377
-1.75378
-1.75379
-1.75379
-1.7538
-1.75381
-1.75381
-1.75382
-1.75383
-1.75383
-1.75384
-1.75385
-1.75385
-1.75386
-1.75386
-1.75387
-1.75387
-1.75388
-1.75388
-1.75389
-1.7539
-1.32623
-1.32626
-1.32629
-1.32631
-1.32634
-1.32637
-1.3264
-1.32643
-1.32646
-1.32649
-1.32652
-1.32655
-1.32658
-1.3266
-1.32663
-1.32666
-1.32669
-1.32672
-1.32675
-1.32678
-1.32681
-1.32684
-1.32688
-1.32691
-1.32694
-1.32697
-1.327
-1.32703
-1.32706
-1.32709
-1.32712
-1.32716
-1.32719
-1.32722
-1.32725
-1.32728
-1.32732
-1.32735
-1.32738
-1.32741
-1.32745
-1.32748
-1.32751
-1.32755
-1.32758
-1.32761
-1.32765
-1.32768
-1.32772
-1.32775
-1.32778
-1.32782
-1.32785
-1.32789
-1.32792
-1.32796
-1.32799
-1.32803
-1.32806
-1.3281
-1.32813
-1.32817
-1.32821
-1.32824
-1.32828
-1.32831
-1.32835
-1.32839
-1.32842
-1.32846
-1.3285
-1.32853
-1.32857
-1.32861
-1.32864
-1.32868
-1.32872
-1.32876
-1.32879
-1.32883
-1.32887
-1.32891
-1.32895
-1.32898
-1.32902
-1.32906
-1.3291
-1.32914
-1.32918
-1.32922
-1.32925
-1.32929
-1.32933
-1.32937
-1.32941
-1.32945
-1.32949
-1.32953
-1.32957
-1.32961
-1.32965
-1.32969
-1.32973
-1.32976
-1.3298
-1.32984
-1.32988
-1.32992
-1.32996
-1.33
-1.33004
-1.33008
-1.33012
-1.33016
-1.3302
-1.33024
-1.33028
-1.33032
-1.33036
-1.3304
-1.33044
-1.33048
-1.33052
-1.33056
-1.3306
-1.33064
-1.33068
-1.33072
-1.33076
-1.3308
-1.33084
-1.33088
-1.33092
-1.33096
-1.331
-1.33104
-1.33108
-1.33111
-1.33115
-1.33119
-1.33123
-1.33127
-1.33131
-1.33135
-1.33138
-1.33142
-1.33146
-1.3315
-1.33154
-1.33158
-1.33161
-1.33165
-1.33169
-1.33173
-1.33176
-1.3318
-1.33184
-1.33188
-1.33191
-1.33195
-1.33199
-1.33203
-1.33206
-1.3321
-1.33214
-1.33217
-1.33221
-1.33225
-1.33229
-1.33232
-1.33236
-1.3324
-1.33244
-1.33247
-1.33251
-1.33255
-1.33259
-1.33262
-1.33266
-1.3327
-1.33274
-1.33278
-1.33282
-1.33286
-1.3329
-1.33294
-1.33298
-1.33302
-1.33306
-1.3331
-1.33314
-1.33318
-1.33322
-1.33326
-1.33331
-1.33335
-1.33339
-1.33344
-1.33348
-1.33352
-1.33357
-1.33361
-1.33366
-1.3337
-1.33375
-1.3338
-1.33384
-1.33389
-1.33394
-1.33398
-1.33403
-1.33408
-1.33413
-1.33418
-1.33422
-1.33427
-1.33432
-1.33437
-1.33442
-1.33447
-1.33452
-1.33457
-1.33462
-1.33467
-1.33472
-1.33478
-1.33483
-1.33488
-1.33493
-1.33498
-1.33503
-1.33508
-1.33514
-1.33519
-1.33524
-1.33529
-1.33534
-1.3354
-1.33545
-1.3355
-1.33555
-1.3356
-1.33566
-1.33571
-1.33576
-1.33581
-1.33586
-1.33592
-1.33597
-1.33602
-1.33607
-1.33612
-1.33618
-1.33623
-1.33628
-1.33633
-1.33638
-1.33643
-1.33648
-1.33654
-1.33659
-1.33664
-1.33669
-1.33674
-1.33679
-1.33684
-1.33689
-1.33694
-1.33699
-1.33704
-1.33709
-1.33714
-1.33719
-1.33724
-1.33729
-1.33734
-1.33739
-1.33744
-1.33749
-1.33754
-1.33759
-1.33764
-1.33769
-1.33774
-1.33779
-1.33784
-1.33788
-1.33793
-1.33798
-1.33803
-1.33808
-1.33813
-1.33818
-1.33823
-1.33828
-1.33833
-1.33838
-1.33842
-1.33848
-1.33853
-1.34897
-1.349
-1.34903
-1.34906
-1.34909
-1.34912
-1.34915
-1.34918
-1.34921
-1.34924
-1.34928
-1.34931
-1.34934
-1.34937
-1.3494
-1.34943
-1.34947
-1.3495
-1.34953
-1.34956
-1.34959
-1.34963
-1.34966
-1.34969
-1.34972
-1.34976
-1.34979
-1.34982
-1.34985
-1.34989
-1.34992
-1.34995
-1.34999
-1.35002
-1.35005
-1.35009
-1.35012
-1.35015
-1.35019
-1.35022
-1.35026
-1.35029
-1.35033
-1.35036
-1.35039
-1.35043
-1.35046
-1.3505
-1.35053
-1.35057
-1.3506
-1.35064
-1.35068
-1.35071
-1.35075
-1.35078
-1.35082
-1.35085
-1.35089
-1.35093
-1.35096
-1.351
-1.35103
-1.35107
-1.35111
-1.35114
-1.35118
-1.35122
-1.35125
-1.35129
-1.35133
-1.35137
-1.3514
-1.35144
-1.35148
-1.35152
-1.35155
-1.35159
-1.35163
-1.35167
-1.3517
-1.35174
-1.35178
-1.35182
-1.35185
-1.35189
-1.35193
-1.35197
-1.35201
-1.35204
-1.35208
-1.35212
-1.35216
-1.3522
-1.35224
-1.35227
-1.35231
-1.35235
-1.35239
-1.35243
-1.35247
-1.3525
-1.35254
-1.35258
-1.35262
-1.35266
-1.3527
-1.35273
-1.35277
-1.35281
-1.35285
-1.35289
-1.35293
-1.35296
-1.353
-1.35304
-1.35308
-1.35311
-1.35315
-1.35319
-1.35323
-1.35326
-1.3533
-1.35334
-1.35337
-1.35341
-1.35345
-1.35348
-1.35352
-1.35356
-1.35359
-1.35363
-1.35366
-1.3537
-1.35373
-1.35377
-1.3538
-1.35384
-1.35387
-1.35391
-1.35394
-1.35397
-1.35401
-1.35404
-1.35408
-1.35411
-1.35414
-1.35418
-1.35421
-1.35424
-1.35428
-1.35431
-1.35434
-1.35437
-1.3544
-1.35444
-1.35447
-1.3545
-1.35453
-1.35456
-1.35459
-1.35463
-1.35466
-1.35469
-1.35472
-1.35475
-1.35478
-1.35481
-1.35484
-1.35487
-1.3549
-1.35493
-1.35496
-1.35499
-1.35502
-1.35505
-1.35508
-1.35511
-1.35515
-1.35518
-1.35521
-1.35524
-1.35528
-1.35531
-1.35534
-1.35538
-1.35541
-1.35544
-1.35548
-1.35552
-1.35555
-1.35559
-1.35563
-1.35566
-1.3557
-1.35574
-1.35578
-1.35582
-1.35586
-1.3559
-1.35594
-1.35598
-1.35602
-1.35607
-1.35611
-1.35615
-1.3562
-1.35624
-1.35629
-1.35633
-1.35638
-1.35642
-1.35647
-1.35652
-1.35656
-1.35661
-1.35666
-1.35671
-1.35675
-1.3568
-1.35685
-1.3569
-1.35695
-1.357
-1.35705
-1.3571
-1.35715
-1.3572
-1.35725
-1.3573
-1.35735
-1.3574
-1.35745
-1.3575
-1.35756
-1.35761
-1.35766
-1.35771
-1.35776
-1.35781
-1.35786
-1.35791
-1.35797
-1.35802
-1.35807
-1.35812
-1.35817
-1.35822
-1.35828
-1.35833
-1.35838
-1.35843
-1.35848
-1.35853
-1.35858
-1.35864
-1.35869
-1.35874
-1.35879
-1.35884
-1.35889
-1.35894
-1.35899
-1.35904
-1.3591
-1.35915
-1.3592
-1.35925
-1.3593
-1.35935
-1.3594
-1.35945
-1.3595
-1.35955
-1.3596
-1.35965
-1.3597
-1.35975
-1.3598
-1.35985
-1.3599
-1.35995
-1.36
-1.36005
-1.3601
-1.36015
-1.3602
-1.36025
-1.3603
-1.36035
-1.3604
-1.36046
-1.36051
-1.36056
-1.36061
-1.36066
-1.36071
-1.36076
-1.36081
-1.36086
-1.37172
-1.37175
-1.37179
-1.37182
-1.37185
-1.37189
-1.37192
-1.37195
-1.37199
-1.37202
-1.37205
-1.37209
-1.37212
-1.37215
-1.37218
-1.37222
-1.37225
-1.37228
-1.37232
-1.37235
-1.37238
-1.37242
-1.37245
-1.37249
-1.37252
-1.37255
-1.37259
-1.37262
-1.37265
-1.37269
-1.37272
-1.37276
-1.37279
-1.37282
-1.37286
-1.37289
-1.37293
-1.37296
-1.373
-1.37303
-1.37307
-1.3731
-1.37314
-1.37317
-1.37321
-1.37324
-1.37328
-1.37331
-1.37335
-1.37338
-1.37342
-1.37345
-1.37349
-1.37353
-1.37356
-1.3736
-1.37363
-1.37367
-1.37371
-1.37374
-1.37378
-1.37381
-1.37385
-1.37389
-1.37392
-1.37396
-1.374
-1.37403
-1.37407
-1.37411
-1.37414
-1.37418
-1.37422
-1.37425
-1.37429
-1.37433
-1.37436
-1.3744
-1.37444
-1.37447
-1.37451
-1.37455
-1.37459
-1.37462
-1.37466
-1.3747
-1.37473
-1.37477
-1.37481
-1.37484
-1.37488
-1.37492
-1.37495
-1.37499
-1.37503
-1.37506
-1.3751
-1.37514
-1.37517
-1.37521
-1.37525
-1.37528
-1.37532
-1.37535
-1.37539
-1.37542
-1.37546
-1.3755
-1.37553
-1.37557
-1.3756
-1.37564
-1.37567
-1.3757
-1.37574
-1.37577
-1.37581
-1.37584
-1.37588
-1.37591
-1.37594
-1.37598
-1.37601
-1.37604
-1.37608
-1.37611
-1.37614
-1.37617
-1.3762
-1.37624
-1.37627
-1.3763
-1.37633
-1.37636
-1.37639
-1.37642
-1.37645
-1.37648
-1.37651
-1.37654
-1.37657
-1.3766
-1.37663
-1.37666
-1.37668
-1.37671
-1.37674
-1.37677
-1.3768
-1.37682
-1.37685
-1.37688
-1.3769
-1.37693
-1.37696
-1.37698
-1.37701
-1.37703
-1.37706
-1.37708
-1.37711
-1.37714
-1.37716
-1.37718
-1.37721
-1.37723
-1.37726
-1.37728
-1.37731
-1.37733
-1.37736
-1.37738
-1.37741
-1.37743
-1.37746
-1.37749
-1.37751
-1.37754
-1.37757
-1.37759
-1.37762
-1.37765
-1.37768
-1.37771
-1.37774
-1.37777
-1.3778
-1.37784
-1.37787
-1.3779
-1.37794
-1.37797
-1.37801
-1.37804
-1.37808
-1.37811
-1.37815
-1.37819
-1.37823
-1.37827
-1.37831
-1.37835
-1.37839
-1.37843
-1.37847
-1.37852
-1.37856
-1.3786
-1.37865
-1.37869
-1.37874
-1.37878
-1.37883
-1.37887
-1.37892
-1.37897
-1.37901
-1.37906
-1.37911
-1.37916
-1.37921
-1.37925
-1.3793
-1.37935
-1.3794
-1.37945
-1.3795
-1.37955
-1.3796
-1.37965
-1.3797
-1.37975
-1.3798
-1.37985
-1.3799
-1.37995
-1.38
-1.38005
-1.3801
-1.38015
-1.3802
-1.38026
-1.38031
-1.38036
-1.38041
-1.38046
-1.38051
-1.38056
-1.38061
-1.38066
-1.38071
-1.38076
-1.38082
-1.38087
-1.38092
-1.38097
-1.38102
-1.38107
-1.38112
-1.38117
-1.38122
-1.38127
-1.38132
-1.38137
-1.38143
-1.38148
-1.38153
-1.38158
-1.38163
-1.38168
-1.38173
-1.38178
-1.38183
-1.38188
-1.38193
-1.38198
-1.38203
-1.38208
-1.38213
-1.38218
-1.38223
-1.38228
-1.38233
-1.38238
-1.38244
-1.38249
-1.38254
-1.38259
-1.38264
-1.38269
-1.38274
-1.38279
-1.38284
-1.38289
-1.38294
-1.38299
-1.38304
-1.3831
-1.38315
-1.3832
-1.39443
-1.39446
-1.3945
-1.39453
-1.39456
-1.39459
-1.39462
-1.39465
-1.39469
-1.39472
-1.39475
-1.39478
-1.39482
-1.39485
-1.39488
-1.39491
-1.39494
-1.39498
-1.39501
-1.39504
-1.39508
-1.39511
-1.39514
-1.39517
-1.39521
-1.39524
-1.39527
-1.39531
-1.39534
-1.39538
-1.39541
-1.39544
-1.39548
-1.39551
-1.39555
-1.39558
-1.39561
-1.39565
-1.39568
-1.39572
-1.39575
-1.39579
-1.39582
-1.39586
-1.39589
-1.39593
-1.39596
-1.396
-1.39604
-1.39607
-1.39611
-1.39614
-1.39618
-1.39621
-1.39625
-1.39629
-1.39632
-1.39636
-1.3964
-1.39643
-1.39647
-1.39651
-1.39654
-1.39658
-1.39662
-1.39665
-1.39669
-1.39673
-1.39676
-1.3968
-1.39684
-1.39688
-1.39691
-1.39695
-1.39699
-1.39703
-1.39706
-1.3971
-1.39714
-1.39718
-1.39721
-1.39725
-1.39729
-1.39733
-1.39736
-1.3974
-1.39744
-1.39748
-1.39751
-1.39755
-1.39759
-1.39762
-1.39766
-1.3977
-1.39774
-1.39777
-1.39781
-1.39785
-1.39788
-1.39792
-1.39796
-1.39799
-1.39803
-1.39807
-1.3981
-1.39814
-1.39817
-1.39821
-1.39825
-1.39828
-1.39832
-1.39835
-1.39839
-1.39842
-1.39846
-1.39849
-1.39853
-1.39856
-1.39859
-1.39863
-1.39866
-1.39869
-1.39872
-1.39875
-1.39878
-1.39881
-1.39883
-1.39886
-1.39889
-1.39892
-1.39894
-1.39897
-1.39899
-1.39902
-1.39904
-1.39907
-1.39909
-1.39912
-1.39914
-1.39917
-1.39919
-1.39922
-1.39924
-1.39926
-1.39929
-1.39931
-1.39934
-1.39936
-1.39939
-1.39941
-1.39944
-1.39946
-1.39948
-1.39951
-1.39953
-1.39956
-1.39958
-1.3996
-1.39963
-1.39965
-1.39967
-1.39969
-1.39971
-1.39973
-1.39974
-1.39976
-1.39978
-1.39979
-1.39981
-1.39982
-1.39984
-1.39986
-1.39987
-1.39989
-1.39991
-1.39992
-1.39994
-1.39996
-1.39998
-1.4
-1.40002
-1.40005
-1.40007
-1.40009
-1.40012
-1.40014
-1.40017
-1.4002
-1.40023
-1.40026
-1.40029
-1.40032
-1.40036
-1.40039
-1.40043
-1.40046
-1.4005
-1.40053
-1.40057
-1.40061
-1.40065
-1.40069
-1.40073
-1.40077
-1.40082
-1.40086
-1.4009
-1.40095
-1.40099
-1.40104
-1.40108
-1.40113
-1.40117
-1.40122
-1.40127
-1.40131
-1.40136
-1.40141
-1.40146
-1.40151
-1.40156
-1.4016
-1.40165
-1.4017
-1.40175
-1.4018
-1.40185
-1.4019
-1.40195
-1.402
-1.40205
-1.4021
-1.40215
-1.4022
-1.40225
-1.4023
-1.40235
-1.40241
-1.40246
-1.40251
-1.40256
-1.40261
-1.40266
-1.40271
-1.40276
-1.40281
-1.40286
-1.40291
-1.40296
-1.40301
-1.40306
-1.40311
-1.40316
-1.40321
-1.40326
-1.40332
-1.40337
-1.40342
-1.40347
-1.40352
-1.40357
-1.40362
-1.40367
-1.40372
-1.40377
-1.40382
-1.40387
-1.40392
-1.40397
-1.40402
-1.40407
-1.40412
-1.40417
-1.40422
-1.40427
-1.40432
-1.40437
-1.40442
-1.40447
-1.40452
-1.40457
-1.40462
-1.40467
-1.40472
-1.40477
-1.40483
-1.40488
-1.40493
-1.40498
-1.40503
-1.40508
-1.40513
-1.40518
-1.40523
-1.40528
-1.40533
-1.40538
-1.40543
-1.40549
-1.40554
-1.41728
-1.41731
-1.41734
-1.41737
-1.4174
-1.41743
-1.41746
-1.41749
-1.41752
-1.41755
-1.41758
-1.41761
-1.41764
-1.41768
-1.41771
-1.41774
-1.41777
-1.4178
-1.41783
-1.41786
-1.41789
-1.41792
-1.41796
-1.41799
-1.41802
-1.41805
-1.41808
-1.41812
-1.41815
-1.41818
-1.41821
-1.41825
-1.41828
-1.41831
-1.41835
-1.41838
-1.41841
-1.41845
-1.41848
-1.41851
-1.41855
-1.41858
-1.41862
-1.41865
-1.41868
-1.41872
-1.41875
-1.41879
-1.41882
-1.41886
-1.41889
-1.41893
-1.41897
-1.419
-1.41904
-1.41907
-1.41911
-1.41914
-1.41918
-1.41922
-1.41925
-1.41929
-1.41933
-1.41936
-1.4194
-1.41944
-1.41947
-1.41951
-1.41955
-1.41959
-1.41962
-1.41966
-1.4197
-1.41973
-1.41977
-1.41981
-1.41985
-1.41988
-1.41992
-1.41996
-1.42
-1.42003
-1.42007
-1.42011
-1.42014
-1.42018
-1.42022
-1.42025
-1.42029
-1.42033
-1.42036
-1.4204
-1.42043
-1.42047
-1.42051
-1.42054
-1.42058
-1.42061
-1.42064
-1.42068
-1.42071
-1.42074
-1.42078
-1.42081
-1.42084
-1.42087
-1.4209