/*--------------------------------*- C++ -*----------------------------------*\
| =========                 |                                                 |
| \\      /  F ield         | OpenFOAM: The Open Source CFD Toolbox           |
|  \\    /   O peration     | Version:  2.4.0                                 |
|   \\  /    A nd           | Web:      www.OpenFOAM.org                      |
|    \\/     M anipulation  |                                                 |
\*---------------------------------------------------------------------------*/
FoamFile
{
    version     2.0;
    format      ascii;
    class       volScalarField;
    location    "3";
    object      p_rgh;
}
// * * * * * * * * * * * * * * * * * * * * * * * * * * * * * * * * * * * * * //

dimensions      [1 -1 -2 0 0 0 0];

internalField   nonuniform List<scalar> 
8000
(
72.2628
72.1959
72.1561
72.1268
71.7026
69.8668
67.127
7.78111
-0.0186183
0.0435186
0.0716317
0.0294311
0.0287236
0.0284324
0.0279342
0.0274865
0.0271716
0.0269725
0.026853
0.0267987
0.0268133
0.0268983
0.0270424
0.0272271
0.0274338
0.0276486
0.0278623
0.028069
0.0282646
0.0284463
0.0286125
0.0287627
0.028897
0.0290159
0.0291201
0.0292107
0.0292885
0.0293545
0.0294096
0.0294546
0.0294903
0.0295175
0.0295369
0.0295492
0.0295548
0.0295545
0.0295487
0.0295378
0.0295224
0.0295027
70.2437
70.2812
70.3011
70.2927
70.2373
70.0793
69.8375
-0.572142
0.0263966
-0.0145408
0.0212412
0.0338488
0.0352874
0.0392075
0.0406105
0.0406474
0.039957
0.0388578
0.0381279
0.0375777
0.0369662
0.0363029
0.0356532
0.0350481
0.0345123
0.0340522
0.0336617
0.0333312
0.0330498
0.0328047
0.0325828
0.0323766
0.0321855
0.0320106
0.0318509
0.0317045
0.0315689
0.0314423
0.0313231
0.03121
0.0311018
0.0309974
0.0308962
0.0307973
0.0307004
0.0306051
0.0305111
0.0304181
0.0303261
0.0302349
76.8696
77.037
77.2275
77.4349
77.6993
77.9491
77.6535
75.6888
74.4569
30.1189
-3.96736
-0.181933
-0.0119643
-0.0872937
-0.147065
-0.133435
-0.0633969
-0.0186631
-0.0101681
0.000747195
0.0188625
0.0330107
0.0403626
0.0414787
0.0386522
0.0358412
0.0347223
0.0345779
0.0345538
0.0344122
0.0341565
0.033883
0.0336591
0.0334685
0.0332836
0.0330896
0.0328893
0.0326917
0.0325015
0.0323177
0.0321381
0.0319622
0.0317898
0.0316217
0.0314581
0.0312987
0.0311432
0.0309917
0.030844
0.0307
81.375
81.4922
81.6306
81.7753
81.9298
82.0939
82.2329
82.2748
82.292
81.9565
81.4375
81.0827
83.6225
62.1244
43.164
18.7809
2.74242
0.0680679
0.827957
0.954819
0.766163
0.46689
0.227467
0.0966122
0.0371659
0.0146751
0.0189492
0.0370655
0.0491704
0.0476294
0.0389265
0.0326703
0.0306988
0.0306992
0.030776
0.030499
0.0301364
0.0298843
0.0298146
0.0297829
0.0297272
0.0296517
0.0295744
0.0295033
0.0294366
0.0293684
0.0292988
0.0292283
0.029158
0.0290879
83.4932
83.5612
83.6336
83.701
83.7643
83.8252
83.8837
83.9404
83.9981
84.0663
84.1418
84.2171
84.3213
84.4251
84.5618
84.6427
84.5812
84.2812
85.2508
64.8844
48.694
34.1058
16.3107
2.73395
0.280708
1.20588
1.19168
0.983564
0.691171
0.351112
0.138455
0.075202
0.0805279
0.080241
0.0643625
0.0470301
0.0362601
0.031383
0.0299749
0.0300538
0.0299752
0.0301118
0.0292695
0.028805
0.0286919
0.0286181
0.0285397
0.0284608
0.0283845
0.0283098
88.0172
88.0359
88.0592
88.0839
88.1098
88.137
88.1655
88.1952
88.2262
88.259
88.2936
88.3293
88.365
88.4078
88.4646
88.5531
88.6748
88.7941
88.9512
89.0576
89.1823
89.2417
89.1148
88.7777
88.2618
84.504
66.9717
45.9044
18.2014
2.27592
2.5307
2.64024
2.25323
1.629
0.778792
0.213569
0.119005
0.0888046
0.064962
0.0471531
0.037678
0.0335606
0.0313733
0.0298775
0.0288213
0.0281181
0.0276941
0.02745
0.0273101
0.0272701
91.3985
91.3816
91.3671
91.3589
91.3566
91.3598
91.3679
91.3812
91.3994
91.4228
91.4509
91.4842
91.5219
91.5648
91.612
91.6646
91.7211
91.7816
91.8442
91.9174
92.0036
92.1182
92.2651
92.4342
92.6013
92.8108
92.9627
92.9958
92.7994
92.5222
85.7457
75.6564
45.8297
12.2364
3.91824
4.20826
3.8556
1.89238
0.577484
0.193809
0.134768
0.109152
0.0720177
0.0445158
0.0324515
0.0280059
0.0261869
0.0254035
0.0250604
0.0249231
93.3583
93.3478
93.3366
93.3278
93.3217
93.3179
93.3164
93.3171
93.32
93.3249
93.332
93.3412
93.3523
93.3656
93.3808
93.3981
93.4171
93.438
93.4604
93.4845
93.51
93.5374
93.566
93.5963
93.6272
93.6627
93.7086
93.7651
93.8159
93.8676
93.9508
94.0343
93.9703
93.4788
86.6635
84.9184
64.2647
29.9644
5.58177
3.49236
3.54353
2.40544
0.799066
0.227542
0.120448
0.0737346
0.0477278
0.0355783
0.0303225
0.028034
95.8377
95.8211
95.8052
95.7927
95.7831
95.776
95.7714
95.7692
95.7695
95.7722
95.7773
95.7849
95.7948
95.8071
95.8218
95.8387
95.858
95.8794
95.9031
95.9288
95.9567
95.9865
96.0182
96.0515
96.0864
96.1222
96.1595
96.197
96.2358
96.275
96.3186
96.3646
96.4024
96.4392
96.4835
96.5862
96.6278
96.3685
91.0874
88.3579
70.2053
29.5921
6.44503
3.96523
2.37809
0.845186
0.274657
0.121676
0.0635151
0.0419765
97.0505
97.0329
97.0133
96.9956
96.9802
96.9665
96.9545
96.9441
96.9354
96.9282
96.9226
96.9186
96.9162
96.9152
96.9158
96.9178
96.9213
96.9262
96.9325
96.9401
96.9491
96.9593
96.9708
96.9834
96.9973
97.0122
97.0282
97.0452
97.0632
97.0818
97.1014
97.1213
97.1423
97.1641
97.1882
97.2121
97.2302
97.2474
97.2592
97.3058
97.3254
97.1235
89.314
81.1265
36.9566
7.33347
3.50972
1.36895
0.494281
0.241488
98.8697
98.8432
98.8162
98.7929
98.7731
98.756
98.7415
98.7294
98.7199
98.7129
98.7084
98.7064
98.7068
98.7097
98.715
98.7227
98.7328
98.7454
98.7603
98.7777
98.7974
98.8196
98.8441
98.8711
98.9005
98.9323
98.9665
99.0033
99.0425
99.0843
99.1286
99.1756
99.2253
99.2776
99.3328
99.3908
99.4519
99.517
99.5866
99.6575
99.7207
99.7808
99.8565
99.9999
100.031
93.9539
70.1907
26.4464
9.77873
3.91517
99.6382
99.6147
99.5897
99.5677
99.5487
99.5322
99.5178
99.5056
99.4957
99.4879
99.4823
99.479
99.4778
99.4788
99.482
99.4874
99.495
99.5049
99.5171
99.5315
99.5483
99.5674
99.589
99.613
99.6396
99.6687
99.7005
99.735
99.7723
99.8124
99.8556
99.9018
99.9512
100.004
100.06
100.12
100.183
100.25
100.322
100.397
100.477
100.563
100.652
100.737
100.812
100.914
100.974
99.2327
82.9217
50.0069
100.237
100.223
100.208
100.194
100.182
100.171
100.162
100.153
100.146
100.14
100.136
100.132
100.13
100.129
100.129
100.13
100.132
100.136
100.14
100.146
100.153
100.161
100.17
100.18
100.191
100.204
100.217
100.231
100.246
100.262
100.279
100.297
100.316
100.336
100.356
100.377
100.399
100.421
100.444
100.468
100.492
100.517
100.541
100.567
100.594
100.619
100.634
100.642
100.569
98.2638
100.702
100.693
100.684
100.675
100.668
100.661
100.655
100.65
100.645
100.641
100.638
100.635
100.633
100.632
100.631
100.631
100.631
100.632
100.634
100.636
100.639
100.642
100.646
100.651
100.656
100.661
100.667
100.673
100.68
100.687
100.694
100.701
100.709
100.717
100.725
100.733
100.741
100.749
100.757
100.765
100.772
100.779
100.785
100.791
100.795
100.8
100.803
100.807
100.818
100.827
100.864
100.86
100.855
100.851
100.847
100.844
100.841
100.839
100.836
100.835
100.834
100.833
100.832
100.832
100.832
100.833
100.834
100.836
100.837
100.84
100.842
100.845
100.849
100.852
100.856
100.861
100.866
100.871
100.876
100.882
100.888
100.895
100.902
100.909
100.916
100.924
100.932
100.941
100.95
100.959
100.968
100.978
100.987
100.997
101.007
101.017
101.028
101.04
101.056
101.071
101.37
101.372
101.374
101.377
101.379
101.38
101.382
101.383
101.384
101.385
101.386
101.386
101.386
101.386
101.386
101.385
101.385
101.384
101.383
101.382
101.38
101.379
101.378
101.376
101.374
101.372
101.37
101.368
101.366
101.363
101.36
101.358
101.355
101.351
101.348
101.344
101.34
101.336
101.332
101.327
101.322
101.317
101.311
101.304
101.297
101.29
101.285
101.281
101.276
101.246
101.209
101.217
101.225
101.232
101.238
101.244
101.249
101.254
101.259
101.263
101.266
101.27
101.272
101.275
101.277
101.278
101.28
101.281
101.281
101.282
101.282
101.282
101.281
101.281
101.28
101.28
101.279
101.278
101.276
101.275
101.274
101.272
101.271
101.269
101.268
101.266
101.265
101.263
101.262
101.261
101.259
101.258
101.257
101.256
101.255
101.255
101.257
101.26
101.24
101.165
102.185
102.21
102.236
102.258
102.274
102.286
102.295
102.301
102.305
102.306
102.306
102.304
102.3
102.295
102.289
102.283
102.275
102.267
102.259
102.251
102.242
102.233
102.224
102.216
102.207
102.199
102.191
102.183
102.175
102.168
102.161
102.155
102.149
102.143
102.137
102.132
102.128
102.123
102.118
102.114
102.11
102.105
102.1
102.094
102.09
102.087
102.081
102.04
101.913
92.1768
101.629
101.693
101.751
101.795
101.828
101.854
101.874
101.888
101.898
101.904
101.906
101.905
101.901
101.896
101.888
101.879
101.869
101.857
101.845
101.831
101.817
101.802
101.787
101.771
101.755
101.739
101.722
101.705
101.688
101.67
101.652
101.634
101.615
101.595
101.575
101.555
101.533
101.51
101.486
101.46
101.433
101.403
101.371
101.337
101.302
101.253
101.154
100.997
98.3162
31.4162
107.049
106.656
106.261
105.922
105.627
105.361
105.119
104.898
104.696
104.51
104.34
104.183
104.039
103.905
103.782
103.668
103.563
103.465
103.376
103.293
103.218
103.149
103.086
103.029
102.978
102.934
102.894
102.861
102.833
102.812
102.796
102.787
102.784
102.787
102.798
102.816
102.843
102.879
102.924
102.98
103.049
103.131
103.228
103.342
103.479
103.646
103.847
104.031
104.043
67.9923
0.0294792
0.0294523
0.0294222
0.0293892
0.0293536
0.0293157
0.0292756
0.0292336
0.0291899
0.0291446
0.0290979
0.0290499
0.0290009
0.0289508
0.0288999
0.0288481
0.0287958
0.0287428
0.0286893
0.0286353
0.028581
0.0285264
0.0284715
0.0284164
0.0283612
0.0283058
0.0282504
0.0281949
0.0281394
0.0280839
0.0280285
0.0279731
0.0279178
0.0278626
0.0278075
0.0277525
0.0276977
0.027643
0.0275885
0.0275342
0.0274801
0.0274261
0.0273724
0.0273189
0.0272655
0.0272124
0.0271596
0.0271069
0.0270546
0.0270023
0.0301445
0.0300548
0.0299658
0.0298775
0.02979
0.0297032
0.0296172
0.029532
0.0294475
0.0293639
0.0292811
0.0291991
0.029118
0.0290377
0.0289583
0.0288797
0.028802
0.0287251
0.028649
0.0285738
0.0284993
0.0284257
0.0283529
0.0282809
0.0282096
0.0281391
0.0280693
0.0280002
0.0279318
0.0278642
0.0277972
0.0277308
0.0276652
0.0276001
0.0275357
0.0274718
0.0274086
0.027346
0.0272839
0.0272223
0.0271614
0.0271009
0.027041
0.0269816
0.0269227
0.0268643
0.0268064
0.026749
0.0266922
0.0266358
0.0305596
0.0304228
0.0302893
0.030159
0.0300319
0.0299077
0.0297864
0.0296679
0.0295521
0.0294388
0.029328
0.0292196
0.0291136
0.0290097
0.0289081
0.0288085
0.0287109
0.0286152
0.0285214
0.0284294
0.0283392
0.0282506
0.0281636
0.0280782
0.0279943
0.0279118
0.0278308
0.027751
0.0276725
0.0275953
0.0275192
0.0274443
0.0273705
0.0272977
0.027226
0.0271552
0.0270854
0.0270165
0.0269485
0.0268813
0.0268149
0.0267493
0.0266845
0.0266204
0.0265571
0.0264944
0.0264324
0.0263712
0.0263107
0.0262507
0.0290179
0.028948
0.0288782
0.0288085
0.0287389
0.0286696
0.0286003
0.0285313
0.0284625
0.0283939
0.0283256
0.0282575
0.0281897
0.0281222
0.0280549
0.0279879
0.0279213
0.0278549
0.0277888
0.027723
0.0276576
0.0275924
0.0275276
0.0274631
0.0273989
0.0273351
0.0272716
0.0272084
0.0271455
0.027083
0.0270208
0.026959
0.0268975
0.0268363
0.0267754
0.0267149
0.0266547
0.0265949
0.0265353
0.0264761
0.0264172
0.0263586
0.0263004
0.0262425
0.0261849
0.0261277
0.0260707
0.0260142
0.0259582
0.0259024
0.0282377
0.0281674
0.0280986
0.028031
0.0279646
0.0278992
0.0278346
0.0277707
0.0277076
0.0276449
0.0275829
0.0275213
0.0274602
0.0273996
0.0273395
0.0272798
0.0272205
0.0271616
0.0271031
0.0270449
0.0269871
0.0269296
0.0268725
0.0268156
0.026759
0.0267027
0.0266466
0.0265908
0.0265353
0.0264801
0.0264251
0.0263704
0.0263159
0.0262616
0.0262075
0.0261536
0.0261
0.0260465
0.0259932
0.0259401
0.0258871
0.0258343
0.0257816
0.0257291
0.0256767
0.0256245
0.0255724
0.0255205
0.0254689
0.0254171
0.0272339
0.0272004
0.0271672
0.0271349
0.0271019
0.0270688
0.027036
0.0270032
0.0269701
0.0269366
0.0269025
0.0268678
0.0268324
0.0267963
0.0267595
0.0267221
0.0266839
0.0266451
0.0266056
0.0265655
0.0265248
0.0264834
0.0264413
0.0263987
0.0263555
0.0263118
0.0262675
0.0262228
0.0261777
0.0261322
0.0260864
0.0260403
0.0259939
0.0259473
0.0259005
0.0258537
0.0258067
0.0257597
0.0257126
0.0256654
0.0256181
0.0255707
0.0255233
0.0254758
0.0254282
0.0253806
0.0253329
0.0252852
0.0252377
0.0251902
0.0248836
0.0249317
0.0249744
0.0250119
0.0250473
0.0250798
0.0251098
0.0251374
0.0251624
0.0251848
0.0252048
0.0252224
0.0252376
0.0252506
0.0252612
0.0252695
0.0252757
0.0252798
0.0252818
0.0252817
0.0252798
0.0252759
0.0252701
0.0252626
0.0252533
0.0252423
0.0252298
0.0252156
0.0251998
0.0251828
0.0251646
0.0251454
0.0251248
0.0251027
0.0250795
0.0250549
0.0250287
0.0250012
0.0249723
0.0249424
0.0249117
0.0248807
0.0248487
0.0248159
0.0247823
0.024748
0.0247129
0.0246772
0.024641
0.0246037
0.0270012
0.0265389
0.0263834
0.0263351
0.0262801
0.0262312
0.0261725
0.0261146
0.0260628
0.0260126
0.0259635
0.0259181
0.025874
0.0258315
0.0257903
0.0257503
0.0257114
0.0256735
0.0256366
0.0256004
0.0255648
0.0255298
0.0254952
0.0254608
0.0254265
0.0253923
0.0253582
0.0253249
0.0252907
0.0252582
0.0252225
0.0251885
0.0251534
0.0251199
0.0250851
0.0250485
0.0250112
0.0249733
0.0249391
0.0249388
0.0250245
0.0248875
0.0248499
0.0248123
0.0247739
0.0247354
0.0246968
0.0246579
0.024619
0.02458
0.0330299
0.0287396
0.0266089
0.0255709
0.0250727
0.0248408
0.0249099
0.0249981
0.0246528
0.0247425
0.0248101
0.0245334
0.0245372
0.0245417
0.0245449
0.0245472
0.0245484
0.0245485
0.0245474
0.0245451
0.0245414
0.0245358
0.0245284
0.0245199
0.0245131
0.0245028
0.0244911
0.0244775
0.0244624
0.0244595
0.0250168
0.0247524
0.0246601
0.024634
0.02461
0.0245802
0.0245542
0.0245273
0.0245002
0.0244754
0.0244485
0.0244186
0.0243891
0.0243597
0.0243301
0.0243002
0.0242698
0.0242393
0.0242089
0.024178
0.123494
0.0643448
0.0399249
0.0306528
0.0268623
0.0252519
0.0245606
0.0245519
0.024576
0.0246006
0.0246354
0.0245964
0.0246043
0.0246122
0.0246229
0.0246336
0.0246438
0.0246535
0.0246626
0.0246709
0.0246779
0.0246873
0.0247292
0.024694
0.0252083
0.0247325
0.0247305
0.0247463
0.0247568
0.0247586
0.0248444
0.0249076
0.0245733
0.0245399
0.0245675
0.0245783
0.024493
0.0244856
0.0244765
0.024465
0.0244514
0.0244349
0.0244156
0.0243959
0.024371
0.0243432
0.0243209
0.0243044
0.0242424
0.024195
1.33727
0.404098
0.128395
0.0548328
0.034189
0.0273976
0.024932
0.0243209
0.0243598
0.0243821
0.0247963
0.0257052
0.0246167
0.0245973
0.0245808
0.0245591
0.0245368
0.0245193
0.024497
0.0244701
0.024443
0.0244387
0.024413
0.0244608
0.0249216
0.0248906
0.024732
0.024787
0.0246485
0.0246618
0.024639
0.0245872
0.0245548
0.0245284
0.0244991
0.0244721
0.0244465
0.0244219
0.0244001
0.0243798
0.02436
0.0243565
0.0243704
0.0249603
0.0246326
0.024571
0.0245842
0.0246657
0.0246804
0.0254122
22.235
7.73127
1.96905
0.423845
0.102662
0.0386261
0.0260369
0.0246445
0.0246582
0.0246489
0.0245285
0.0245078
0.0244721
0.0244445
0.0244216
0.024521
0.0246006
0.0264281
0.024694
0.0251747
0.0254207
0.0247392
0.0245802
0.0244906
0.0245119
0.0246745
0.0247281
0.0244756
0.0243615
0.0243761
0.0243915
0.0244037
0.024414
0.0244487
0.0245102
0.0246153
0.0250637
0.0243795
0.0243605
0.0243679
0.0243767
0.0243806
0.0243882
0.024825
0.0247931
0.0246992
0.0246917
0.0246778
0.0246653
0.0246378
84.7356
54.2231
19.3193
3.80658
0.476836
0.0609693
0.0278125
0.0275125
0.0271488
0.0273304
0.0268975
0.0271671
0.0269844
0.0270687
0.0276395
0.025961
0.0262146
0.0265928
0.024616
0.0249861
0.0253465
0.0239416
0.0240653
0.0239907
0.0239748
0.0240342
0.0240072
0.0240194
0.0240467
0.0240752
0.0241009
0.0241254
0.0241588
0.0241758
0.024199
0.0245243
0.0246422
0.0240984
0.0238158
0.02378
0.0237527
0.0237091
0.0236837
0.0236573
0.0236065
0.0235623
0.0237373
0.0243219
0.0242364
0.0252305
100.765
96.8442
54.7798
10.1306
0.758966
0.0513949
0.0272279
0.0274208
0.0278459
0.0249783
0.025274
0.0248879
0.0251591
0.024842
0.0243948
0.0248357
0.0268351
0.0248341
0.025049
0.0247395
0.0247402
0.02473
0.0247301
0.0247115
0.0247039
0.0247166
0.0248785
0.0251846
0.0247161
0.0247602
0.0247144
0.0246635
0.0246607
0.0246794
0.0248558
0.0255221
0.0251251
0.0248799
0.0248897
0.0248333
0.0247879
0.0247725
0.0248114
0.0250811
0.0251159
0.0249473
0.0251461
0.0248343
0.0246077
0.0246011
101.048
100.942
60.9273
10.7204
0.627488
0.0341239
0.0250994
0.0250464
0.0249118
0.0248526
0.0247972
0.0247744
0.0247555
0.0247358
0.0247241
0.0247109
0.0246981
0.0246811
0.0246707
0.0246507
0.0246377
0.0246265
0.0246141
0.0246
0.0245856
0.0245713
0.0245596
0.0245535
0.0245461
0.0245366
0.0245316
0.02453
0.02453
0.0245289
0.0245404
0.0245235
0.0244933
0.0244792
0.0244762
0.0244787
0.0244755
0.0244721
0.0244823
0.024505
0.0244786
0.024458
0.0244596
0.0244676
0.0244939
0.0245702
101.134
78.3821
21.6875
2.21974
0.109884
0.0254465
0.0248879
0.024639
0.0245445
0.0245026
0.0244792
0.0244637
0.024453
0.0244458
0.0244416
0.0244394
0.0244381
0.0244372
0.0244365
0.0244359
0.0244355
0.0244348
0.024434
0.0244336
0.0244335
0.0244334
0.0244331
0.0244326
0.0244317
0.0244304
0.0244286
0.0244264
0.0244235
0.0244199
0.0244167
0.0244143
0.0244118
0.0244108
0.0244109
0.0244114
0.0244115
0.0244114
0.0244113
0.0244119
0.0244133
0.0244151
0.0244175
0.0244186
0.0244189
0.0244185
85.3365
16.2556
0.911765
0.0455897
0.0248085
0.0245214
0.0243396
0.0242858
0.0242658
0.0242561
0.0242509
0.0242482
0.0242471
0.0242473
0.0242483
0.0242499
0.0242517
0.0242536
0.0242554
0.0242573
0.0242591
0.024261
0.0242628
0.0242646
0.0242663
0.024268
0.0242697
0.0242713
0.0242729
0.0242745
0.024276
0.0242774
0.0242787
0.0242799
0.024281
0.0242819
0.0242827
0.0242833
0.0242837
0.0242837
0.0242835
0.0242831
0.0242826
0.0242818
0.024281
0.0242801
0.024279
0.0242775
0.0242758
0.0242738
20.5731
1.98576
0.030224
0.0245667
0.0244106
0.024291
0.0242742
0.0242854
0.0242964
0.0243044
0.0243109
0.0243168
0.0243222
0.024327
0.0243313
0.024335
0.0243382
0.0243409
0.0243432
0.024345
0.0243465
0.0243476
0.0243484
0.0243489
0.0243492
0.0243493
0.0243491
0.0243487
0.0243481
0.0243474
0.0243465
0.0243455
0.0243443
0.024343
0.0243416
0.02434
0.0243384
0.0243367
0.0243348
0.0243329
0.0243308
0.0243285
0.0243261
0.0243235
0.0243209
0.0243181
0.0243151
0.0243119
0.0243085
0.0243051
0.111421
0.104974
0.0236757
0.0236498
0.0236561
0.0236497
0.0236687
0.0236999
0.0237322
0.0237636
0.0237942
0.0238242
0.0238533
0.0238814
0.0239081
0.0239334
0.0239572
0.0239795
0.0240003
0.0240196
0.0240374
0.0240539
0.0240691
0.0240831
0.0240959
0.0241076
0.0241183
0.0241281
0.024137
0.0241451
0.0241524
0.0241589
0.0241648
0.0241701
0.0241747
0.0241788
0.0241824
0.0241855
0.024188
0.0241901
0.0241918
0.024193
0.0241939
0.0241943
0.0241944
0.024194
0.0241933
0.0241922
0.0241908
0.0241889
0.0262151
0.0269502
0.0261549
0.0255324
0.0253329
0.0251984
0.0250935
0.0250067
0.0249331
0.02487
0.0248149
0.0247664
0.0247235
0.0246853
0.0246513
0.0246209
0.0245936
0.0245689
0.0245466
0.0245263
0.0245077
0.0244907
0.0244751
0.0244607
0.0244473
0.0244349
0.0244234
0.0244126
0.0244025
0.024393
0.024384
0.0243756
0.0243676
0.02436
0.0243527
0.0243458
0.0243391
0.0243327
0.0243265
0.0243205
0.0243146
0.0243089
0.0243033
0.0242977
0.0242922
0.0242868
0.0242813
0.0242759
0.0242704
0.024265
0.0269619
0.0269336
0.0269051
0.0268766
0.026848
0.0268193
0.0267906
0.0267617
0.0267328
0.0267037
0.0266746
0.0266454
0.026616
0.0265865
0.026557
0.0265273
0.0264975
0.0264676
0.0264375
0.0264073
0.0263771
0.0263466
0.0263161
0.0262854
0.0262547
0.0262237
0.0261927
0.0261615
0.0261302
0.0260987
0.0260672
0.0260354
0.0260036
0.0259716
0.0259395
0.0259073
0.0258749
0.0258424
0.0258097
0.025777
0.025744
0.025711
0.0256778
0.0256445
0.025611
0.0255775
0.0255437
0.0255099
0.0254759
0.0254418
0.0254075
0.0253732
0.0253386
0.025304
0.0252692
0.0252343
0.0251993
0.0251641
0.0251288
0.0250934
0.0250579
0.0250222
0.0249864
0.0249505
0.0249144
0.0248782
0.0248419
0.0248055
0.024769
0.0247323
0.0246956
0.0246587
0.0246217
0.0245845
0.0245473
0.02451
0.0244725
0.0244349
0.0243973
0.0243595
0.0243216
0.0242836
0.0242455
0.0242073
0.024169
0.0241307
0.0240922
0.0240536
0.024015
0.0239763
0.0239374
0.0238985
0.0238596
0.0238205
0.0237814
0.0237422
0.0237029
0.0236636
0.0236242
0.0235848
0.0235453
0.0235057
0.0234661
0.0234265
0.0233868
0.0233471
0.0233073
0.0232675
0.0232277
0.0231878
0.023148
0.0231081
0.0230682
0.0230282
0.0229883
0.0229484
0.0229084
0.0228685
0.0228286
0.0227887
0.0227488
0.0227089
0.0226691
0.0226292
0.0225894
0.0225497
0.02251
0.0224703
0.0224307
0.0223912
0.0223517
0.0223122
0.0222729
0.0222336
0.0221944
0.0221552
0.0221162
0.0220772
0.0220383
0.0219995
0.0219607
0.0219221
0.0218835
0.021845
0.0218066
0.0217683
0.0217301
0.021692
0.0216539
0.0216159
0.021578
0.0215402
0.0215025
0.0214648
0.0214272
0.0213897
0.0213522
0.0213148
0.0212774
0.0212401
0.0212029
0.0211657
0.0211285
0.0210913
0.0210542
0.021017
0.0209799
0.0209427
0.0209055
0.0208683
0.020831
0.0207936
0.0207562
0.0207187
0.0206811
0.0206433
0.0206054
0.0205674
0.0205292
0.0204908
0.0204523
0.0204135
0.0203745
0.0203352
0.0202958
0.020256
0.020216
0.0201757
0.0201351
0.0200943
0.0200531
0.0200116
0.0199698
0.0199276
0.0198852
0.0198424
0.0197992
0.0197558
0.0197119
0.0196678
0.0196233
0.0195785
0.0195333
0.0194878
0.019442
0.0193958
0.0193493
0.0193026
0.0192555
0.0192081
0.0191604
0.0191124
0.0190641
0.0190156
0.0189668
0.0189177
0.0188685
0.0188189
0.0187692
0.0187192
0.0186691
0.0186187
0.0185682
0.0185175
0.0184666
0.0184156
0.0183644
0.0183131
0.0182617
0.0182102
0.0181586
0.0181069
0.0180551
0.0180032
0.0179513
0.0178994
0.0178474
0.0177953
0.0177432
0.0176912
0.0176391
0.017587
0.0175349
0.0174828
0.0174308
0.0173787
0.0173267
0.0172748
0.0172228
0.017171
0.0171192
0.0170674
0.0170157
0.0169641
0.0169125
0.016861
0.0168096
0.0167583
0.0167071
0.0166559
0.0166048
0.0165538
0.0165029
0.0164521
0.0164014
0.0163508
0.0163003
0.0162498
0.0161995
0.0161493
0.0160991
0.016049
0.0159991
0.0159492
0.0158994
0.0158497
0.0158
0.0157505
0.015701
0.0156516
0.0156022
0.0155529
0.0155037
0.0154545
0.0154053
0.0153562
0.0153071
0.015258
0.0152089
0.0151599
0.0151108
0.0150618
0.0150127
0.0149635
0.0149143
0.0148652
0.0148163
0.0147668
0.0147151
0.0146623
0.0265925
0.0265618
0.0265309
0.0264999
0.0264689
0.0264379
0.0264068
0.0263757
0.0263445
0.0263133
0.026282
0.0262506
0.0262192
0.0261877
0.0261561
0.0261244
0.0260927
0.0260609
0.0260289
0.0259969
0.0259648
0.0259326
0.0259003
0.025868
0.0258355
0.0258029
0.0257702
0.0257374
0.0257045
0.0256715
0.0256385
0.0256052
0.0255719
0.0255385
0.025505
0.0254714
0.0254376
0.0254038
0.0253698
0.0253357
0.0253016
0.0252673
0.0252329
0.0251984
0.0251638
0.0251291
0.0250943
0.0250593
0.0250243
0.0249892
0.024954
0.0249186
0.0248832
0.0248477
0.024812
0.0247763
0.0247405
0.0247046
0.0246685
0.0246324
0.0245962
0.0245599
0.0245236
0.0244871
0.0244505
0.0244139
0.0243772
0.0243404
0.0243035
0.0242665
0.0242295
0.0241923
0.0241551
0.0241179
0.0240805
0.0240431
0.0240057
0.0239681
0.0239305
0.0238929
0.0238551
0.0238174
0.0237795
0.0237417
0.0237037
0.0236657
0.0236277
0.0235896
0.0235515
0.0235134
0.0234752
0.023437
0.0233987
0.0233604
0.0233221
0.0232838
0.0232455
0.0232071
0.0231688
0.0231304
0.023092
0.0230536
0.0230152
0.0229769
0.0229385
0.0229002
0.0228618
0.0228236
0.0227853
0.0227471
0.0227089
0.0226708
0.0226327
0.0225947
0.0225568
0.022519
0.0224812
0.0224436
0.0224061
0.0223687
0.0223314
0.0222942
0.0222572
0.0222203
0.0221836
0.022147
0.0221106
0.0220744
0.0220383
0.0220023
0.0219665
0.0219309
0.0218954
0.0218601
0.021825
0.02179
0.0217552
0.0217205
0.021686
0.0216516
0.0216174
0.0215833
0.0215494
0.0215156
0.021482
0.0214485
0.0214152
0.0213819
0.0213489
0.021316
0.0212832
0.0212505
0.0212181
0.0211857
0.0211536
0.0211216
0.0210897
0.021058
0.0210265
0.0209952
0.020964
0.0209329
0.020902
0.0208713
0.0208407
0.0208102
0.0207798
0.0207494
0.0207191
0.0206888
0.0206585
0.0206281
0.0205977
0.0205672
0.0205365
0.0205057
0.0204746
0.0204434
0.0204119
0.0203801
0.0203481
0.0203157
0.020283
0.0202498
0.0202163
0.0201824
0.0201481
0.0201133
0.0200781
0.0200424
0.0200062
0.0199696
0.0199324
0.0198948
0.0198567
0.0198181
0.0197789
0.0197393
0.0196992
0.0196585
0.0196174
0.0195758
0.0195338
0.0194912
0.0194482
0.0194047
0.0193608
0.0193165
0.0192717
0.0192266
0.019181
0.0191351
0.0190888
0.0190421
0.0189951
0.0189477
0.0189001
0.0188521
0.0188038
0.0187553
0.0187065
0.0186574
0.0186082
0.0185587
0.018509
0.0184591
0.018409
0.0183587
0.0183083
0.0182577
0.018207
0.0181562
0.0181053
0.0180543
0.0180032
0.017952
0.0179007
0.0178494
0.017798
0.0177465
0.0176951
0.0176436
0.0175921
0.0175405
0.017489
0.0174374
0.0173859
0.0173343
0.0172828
0.0172313
0.0171798
0.0171283
0.0170769
0.0170255
0.0169741
0.0169228
0.0168715
0.0168203
0.0167691
0.0167179
0.0166668
0.0166157
0.0165647
0.0165138
0.0164629
0.016412
0.0163612
0.0163104
0.0162597
0.0162091
0.0161585
0.0161079
0.0160574
0.016007
0.0159566
0.0159062
0.0158559
0.0158056
0.0157553
0.0157051
0.0156549
0.0156047
0.0155545
0.0155044
0.0154543
0.0154041
0.015354
0.0153038
0.0152537
0.0152035
0.0151532
0.015103
0.0150526
0.0150022
0.0149517
0.0149012
0.0148508
0.0147999
0.0147473
0.0146945
0.0262042
0.0261713
0.026138
0.0261047
0.0260716
0.0260385
0.0260054
0.0259723
0.0259392
0.0259061
0.0258729
0.0258398
0.0258067
0.0257735
0.0257403
0.0257071
0.0256738
0.0256405
0.0256072
0.0255738
0.0255404
0.0255069
0.0254734
0.0254398
0.0254061
0.0253724
0.0253387
0.0253049
0.025271
0.025237
0.025203
0.0251689
0.0251347
0.0251004
0.0250661
0.0250317
0.0249973
0.0249627
0.0249281
0.0248934
0.0248586
0.0248237
0.0247888
0.0247537
0.0247186
0.0246835
0.0246482
0.0246129
0.0245775
0.024542
0.0245064
0.0244708
0.0244351
0.0243993
0.0243635
0.0243276
0.0242916
0.0242555
0.0242194
0.0241832
0.024147
0.0241107
0.0240744
0.024038
0.0240015
0.023965
0.0239284
0.0238918
0.0238552
0.0238185
0.0237818
0.0237451
0.0237083
0.0236715
0.0236346
0.0235978
0.0235609
0.023524
0.0234871
0.0234501
0.0234132
0.0233763
0.0233393
0.0233024
0.0232655
0.0232286
0.0231917
0.0231549
0.023118
0.0230812
0.0230445
0.0230077
0.0229711
0.0229344
0.0228979
0.0228614
0.0228249
0.0227885
0.0227522
0.022716
0.0226799
0.0226438
0.0226079
0.022572
0.0225363
0.0225007
0.0224651
0.0224298
0.0223945
0.0223593
0.0223243
0.0222894
0.0222547
0.0222201
0.0221856
0.0221513
0.0221171
0.0220831
0.0220493
0.0220156
0.0219821
0.0219487
0.0219155
0.0218825
0.0218497
0.0218171
0.0217847
0.0217525
0.0217205
0.0216888
0.0216572
0.0216259
0.0215948
0.021564
0.0215333
0.021503
0.0214728
0.0214429
0.0214132
0.0213838
0.0213546
0.0213256
0.0212969
0.0212684
0.0212401
0.0212121
0.0211843
0.0211566
0.0211292
0.021102
0.021075
0.0210482
0.0210217
0.0209953
0.020969
0.0209429
0.020917
0.0208913
0.0208657
0.0208403
0.0208151
0.0207899
0.0207649
0.02074
0.0207152
0.0206905
0.0206657
0.020641
0.0206163
0.0205914
0.0205665
0.0205414
0.0205161
0.0204906
0.0204648
0.0204386
0.0204122
0.0203853
0.020358
0.0203303
0.0203021
0.0202734
0.0202441
0.0202143
0.020184
0.0201531
0.0201216
0.0200894
0.0200567
0.0200234
0.0199894
0.0199549
0.0199197
0.0198839
0.0198474
0.0198104
0.0197727
0.0197345
0.0196957
0.0196563
0.0196163
0.0195758
0.0195347
0.0194931
0.019451
0.0194084
0.0193653
0.0193217
0.0192777
0.0192332
0.0191883
0.019143
0.0190973
0.0190513
0.0190049
0.0189581
0.0189111
0.0188637
0.018816
0.018768
0.0187198
0.0186714
0.0186227
0.0185738
0.0185246
0.0184753
0.0184258
0.0183762
0.0183264
0.0182764
0.0182264
0.0181762
0.0181259
0.0180755
0.018025
0.0179744
0.0179237
0.017873
0.0178223
0.0177715
0.0177206
0.0176697
0.0176188
0.0175679
0.0175169
0.017466
0.017415
0.017364
0.017313
0.0172621
0.0172111
0.0171601
0.0171092
0.0170583
0.0170074
0.0169565
0.0169056
0.0168547
0.0168039
0.0167531
0.0167023
0.0166516
0.0166008
0.0165501
0.0164994
0.0164488
0.0163982
0.0163475
0.016297
0.0162464
0.0161959
0.0161453
0.0160948
0.0160444
0.0159939
0.0159434
0.015893
0.0158426
0.0157922
0.0157417
0.0156913
0.0156409
0.0155905
0.0155401
0.0154897
0.0154392
0.0153887
0.0153382
0.0152877
0.0152371
0.0151865
0.0151358
0.015085
0.0150342
0.0149832
0.0149322
0.0148812
0.0148297
0.0147771
0.0147249
0.0258591
0.025828
0.0257961
0.0257643
0.0257325
0.0257007
0.0256689
0.0256369
0.025605
0.0255729
0.0255408
0.0255087
0.0254764
0.0254442
0.0254118
0.0253793
0.0253468
0.0253142
0.0252815
0.0252488
0.0252159
0.025183
0.02515
0.0251169
0.0250837
0.0250504
0.025017
0.0249835
0.0249499
0.0249162
0.0248824
0.0248486
0.0248146
0.0247805
0.0247463
0.024712
0.0246776
0.0246431
0.0246085
0.0245738
0.024539
0.024504
0.024469
0.0244339
0.0243987
0.0243633
0.0243279
0.0242924
0.0242568
0.0242211
0.0241853
0.0241494
0.0241134
0.0240773
0.0240411
0.0240049
0.0239685
0.0239321
0.0238956
0.023859
0.0238224
0.0237857
0.0237489
0.023712
0.0236751
0.0236381
0.0236011
0.023564
0.0235269
0.0234897
0.0234525
0.0234152
0.0233779
0.0233406
0.0233032
0.0232658
0.0232284
0.023191
0.0231535
0.0231161
0.0230787
0.0230412
0.0230038
0.0229663
0.0229289
0.0228915
0.0228541
0.0228168
0.0227794
0.0227422
0.0227049
0.0226677
0.0226305
0.0225934
0.0225563
0.0225193
0.0224824
0.0224455
0.0224087
0.0223719
0.0223353
0.0222987
0.0222622
0.0222257
0.0221894
0.0221531
0.022117
0.022081
0.022045
0.0220093
0.0219736
0.0219381
0.0219029
0.0218678
0.021833
0.0217985
0.0217645
0.0217309
0.0216978
0.0216654
0.0216337
0.0216027
0.0215723
0.0215426
0.0215135
0.021485
0.021457
0.0214295
0.0214025
0.0213759
0.0213496
0.0213237
0.0212981
0.0212728
0.0212477
0.0212228
0.021198
0.0211734
0.0211489
0.0211245
0.0211001
0.0210757
0.0210514
0.0210271
0.0210027
0.0209784
0.020954
0.0209296
0.0209052
0.0208808
0.0208563
0.0208318
0.0208074
0.020783
0.0207589
0.0207349
0.0207113
0.020688
0.0206653
0.0206431
0.0206218
0.0206017
0.0205827
0.0205645
0.0205471
0.0205303
0.020514
0.0204982
0.0204825
0.0204669
0.0204513
0.0204355
0.0204194
0.0204029
0.0203859
0.0203683
0.02035
0.020331
0.0203112
0.0202906
0.020269
0.0202465
0.0202231
0.0201988
0.0201734
0.0201471
0.0201198
0.0200915
0.0200622
0.0200319
0.0200007
0.0199686
0.0199355
0.0199015
0.0198667
0.0198309
0.0197944
0.019757
0.0197189
0.0196799
0.0196403
0.0196
0.019559
0.0195173
0.019475
0.0194322
0.0193887
0.0193448
0.0193003
0.0192553
0.0192099