/*--------------------------------*- C++ -*----------------------------------*\
| =========                 |                                                 |
| \\      /  F ield         | OpenFOAM: The Open Source CFD Toolbox           |
|  \\    /   O peration     | Version:  2.4.0                                 |
|   \\  /    A nd           | Web:      www.OpenFOAM.org                      |
|    \\/     M anipulation  |                                                 |
\*---------------------------------------------------------------------------*/
FoamFile
{
    version     2.0;
    format      ascii;
    class       surfaceScalarField;
    location    "3";
    object      phi;
}
// * * * * * * * * * * * * * * * * * * * * * * * * * * * * * * * * * * * * * //

dimensions      [0 3 -1 0 0 0 0];

internalField   nonuniform List<scalar> 
15580
(
-5.19686e-13
1.82515e-12
-2.40026e-12
5.35574e-12
-5.97825e-12
8.82477e-12
-1.16662e-11
1.23187e-11
-1.97842e-11
1.57829e-11
-3.07182e-11
1.92867e-11
-1.46686e-10
2.27735e-11
-2.09517e-10
2.19686e-11
-2.24864e-10
2.83863e-11
-1.99308e-10
4.05329e-11
-7.55181e-11
1.70563e-10
-1.87705e-10
3.26686e-10
-1.85038e-10
4.03776e-10
-1.84093e-10
4.95445e-10
-3.44574e-10
5.39934e-10
-5.87735e-10
5.31923e-10
-8.53109e-10
4.9171e-10
-1.10474e-09
4.40916e-10
-1.32377e-09
3.90862e-10
-1.4998e-09
3.43553e-10
-1.62733e-09
2.98237e-10
-1.70629e-09
2.56331e-10
-1.74169e-09
2.20464e-10
-1.74157e-09
1.92374e-10
-1.7146e-09
1.72152e-10
-1.66838e-09
1.58586e-10
-1.60884e-09
1.50059e-10
-1.54051e-09
1.45244e-10
-1.46682e-09
1.43199e-10
-1.39038e-09
1.43203e-10
-1.31315e-09
1.44667e-10
-1.23649e-09
1.47117e-10
-1.16139e-09
1.50181e-10
-1.08847e-09
1.53584e-10
-1.01816e-09
1.57129e-10
-9.50694e-10
1.6068e-10
-8.86208e-10
1.64141e-10
-8.24738e-10
1.67451e-10
-7.6627e-10
1.70573e-10
-7.10749e-10
1.73487e-10
-6.58101e-10
1.76186e-10
-6.08235e-10
1.78669e-10
-5.61054e-10
1.80942e-10
-5.16459e-10
1.83012e-10
-4.74348e-10
1.84888e-10
-4.34623e-10
1.86581e-10
-3.97189e-10
1.881e-10
-3.61953e-10
1.89455e-10
-3.28825e-10
1.90655e-10
1.91709e-10
-2.97722e-10
7.10851e-13
1.1143e-12
2.15859e-12
3.908e-12
3.80753e-12
7.17584e-12
5.20073e-12
1.09255e-11
5.84626e-12
1.51374e-11
5.19811e-12
1.99349e-11
1.91062e-12
2.52868e-11
-7.74984e-11
4.59031e-11
-4.4565e-11
-8.00302e-12
-4.71735e-11
4.31414e-11
-5.39078e-11
1.77298e-10
1.58229e-10
1.1455e-10
2.9457e-10
2.67435e-10
4.35462e-10
3.54553e-10
5.35829e-10
4.39568e-10
6.13597e-10
4.54155e-10
6.30275e-10
4.75031e-10
5.89368e-10
4.81822e-10
6.03508e-10
3.76723e-10
6.2846e-10
3.18601e-10
6.17544e-10
3.09153e-10
5.69871e-10
3.04004e-10
4.90149e-10
3.00185e-10
3.84532e-10
2.97991e-10
2.66059e-10
2.90625e-10
1.47784e-10
2.76862e-10
3.99104e-11
2.57932e-10
-5.08122e-11
2.35966e-10
-1.21532e-10
2.13918e-10
-1.73185e-10
1.94856e-10
-2.09268e-10
1.80751e-10
-2.33388e-10
1.71237e-10
-2.47747e-10
1.6454e-10
-2.5357e-10
1.59407e-10
-2.51846e-10
1.55406e-10
-2.43589e-10
1.52422e-10
-2.29821e-10
1.50373e-10
-2.11489e-10
1.4912e-10
-1.89447e-10
1.48531e-10
-1.64474e-10
1.48514e-10
-1.37286e-10
1.48997e-10
-1.08517e-10
1.499e-10
-7.87219e-11
1.51146e-10
-4.83758e-11
1.52666e-10
-1.78812e-11
1.54393e-10
1.24243e-11
1.56275e-10
4.22616e-11
1.58262e-10
7.14028e-11
1.60314e-10
9.96653e-11
1.62393e-10
1.64468e-10
1.26906e-10
1.48301e-12
-3.6871e-13
6.02339e-12
-6.3239e-13
1.3642e-11
-4.42732e-13
2.43612e-11
2.0624e-13
3.82108e-11
1.28775e-12
5.53189e-11
2.82681e-12
7.58516e-11
4.75412e-12
7.58334e-11
4.50016e-12
6.22984e-11
5.34189e-12
1.17374e-11
2.99717e-12
1.87019e-10
7.71701e-13
2.54922e-10
4.63263e-11
5.22968e-10
-8.96548e-13
6.9939e-10
1.78131e-10
9.44098e-10
1.9486e-10
1.096e-09
3.02252e-10
1.13868e-09
4.32348e-10
1.52852e-09
9.19892e-11
1.97536e-09
-7.0125e-11
2.25407e-09
3.98953e-11
2.42397e-09
1.39254e-10
2.5024e-09
2.25576e-10
2.50793e-09
2.94652e-10
2.46913e-09
3.36795e-10
2.39767e-09
3.62086e-10
2.33929e-09
3.35235e-10
2.33156e-09
2.65664e-10
2.32847e-09
2.39058e-10
2.30237e-09
2.40019e-10
2.24665e-09
2.50579e-10
2.16467e-09
2.62728e-10
2.07193e-09
2.63975e-10
1.98422e-09
2.52248e-10
1.9054e-09
2.3823e-10
1.83404e-09
2.26768e-10
1.76626e-09
2.20201e-10
1.70001e-09
2.16622e-10
1.63567e-09
2.13463e-10
1.57441e-09
2.0979e-10
1.51684e-09
2.0608e-10
1.46307e-09
2.02769e-10
1.41305e-09
1.99924e-10
1.36667e-09
1.97521e-10
1.32407e-09
1.95271e-10
1.28521e-09
1.93256e-10
1.24997e-09
1.91507e-10
1.21819e-09
1.90051e-10
1.18962e-09
1.88884e-10
1.16402e-09
1.87988e-10
1.87348e-10
1.14114e-09
9.30203e-13
-1.29891e-12
3.90744e-12
-3.60963e-12
9.06617e-12
-5.60146e-12
1.65355e-11
-7.26305e-12
2.6435e-11
-8.6118e-12
3.89186e-11
-9.65682e-12
5.40916e-11
-1.04188e-11
6.94824e-11
-1.08907e-11
8.59231e-11
-1.10988e-11
9.91123e-11
-1.08133e-11
1.08942e-10
-9.89154e-12
1.18941e-10
-8.65028e-12
1.24129e-10
-6.44372e-12
2.51187e-10
-4.45994e-12
4.45021e-10
-1.79274e-12
7.44778e-10
1.68047e-12
1.16978e-09
6.9068e-12
1.2026e-09
5.90295e-11
1.11219e-09
2.02365e-11
1.08639e-09
6.56996e-11
1.0966e-09
1.29045e-10
1.14405e-09
1.78121e-10
1.19846e-09
2.40244e-10
1.24278e-09
2.92472e-10
1.40986e-09
1.95004e-10
1.68454e-09
6.05599e-11
1.90708e-09
4.31233e-11
2.04904e-09
9.70968e-11
2.11067e-09
1.78387e-10
2.11405e-09
2.47204e-10
2.0948e-09
2.81976e-10
2.12152e-09
2.37252e-10
2.17518e-09
1.98593e-10
2.22189e-09
1.91513e-10
2.2396e-09
2.09064e-10
2.2214e-09
2.38395e-10
2.18801e-09
2.50017e-10
2.15314e-09
2.48336e-10
2.12465e-09
2.3828e-10
2.10036e-09
2.30362e-10
2.07554e-09
2.27591e-10
2.04679e-09
2.28679e-10
2.01464e-09
2.2967e-10
1.98129e-09
2.28616e-10
1.9473e-09
2.27247e-10
1.91274e-09
2.26066e-10
1.87773e-09
2.25059e-10
1.84242e-09
2.24197e-10
1.80717e-09
2.23238e-10
2.22191e-10
1.77233e-09
6.65831e-13
-1.96475e-12
2.51837e-12
-5.46217e-12
5.48508e-12
-8.56817e-12
9.52673e-12
-1.13047e-11
1.45969e-11
-1.3682e-11
2.06437e-11
-1.57036e-11
2.76061e-11
-1.73812e-11
3.54298e-11
-1.87143e-11
4.40475e-11
-1.97166e-11
5.36084e-11
-2.03742e-11
6.44149e-11
-2.06981e-11
7.64414e-11
-2.06767e-11
9.03797e-11
-2.03821e-11
1.05594e-10
-1.96741e-11
1.22344e-10
-1.85428e-11
1.39725e-10
-1.66553e-11
1.55065e-10
-1.36408e-11
1.69305e-10
-1.0642e-11
1.77837e-10
-6.57855e-12
2.32567e-10
-3.68212e-12
3.60376e-10
-2.54156e-14
5.3341e-10
4.30828e-12
7.63699e-10
9.48471e-12
1.03694e-09
1.90181e-11
1.17231e-09
5.96098e-11
1.22368e-09
9.1936e-12
1.21698e-09
4.98159e-11
1.16846e-09
1.45618e-10
1.12784e-09
2.19007e-10
1.1385e-09
2.36543e-10
1.29623e-09
1.2425e-10
1.46982e-09
6.36588e-11
1.59049e-09
7.79259e-11
1.63086e-09
1.5114e-10
1.61557e-09
2.24359e-10
1.62969e-09
2.24276e-10
1.68279e-09
1.9691e-10
1.75717e-09
1.73957e-10
1.83826e-09
1.57194e-10
1.91332e-09
1.55297e-10
1.97889e-09
1.62026e-10
2.03387e-09
1.73698e-10
2.08527e-09
1.78268e-10
2.1286e-09
1.85286e-10
2.16274e-09
1.93113e-10
2.18782e-09
2.00984e-10
2.20351e-09
2.09364e-10
2.21117e-09
2.16536e-10
2.21166e-09
2.22754e-10
2.28068e-10
2.20578e-09
1.26491e-13
-2.09124e-12
5.83469e-13
-5.91915e-12
1.41698e-12
-9.40168e-12
2.65676e-12
-1.25445e-11
4.3296e-12
-1.53548e-11
6.46044e-12
-1.78345e-11
9.07097e-12
-1.99918e-11
1.21828e-11
-2.18261e-11
1.5814e-11
-2.33477e-11
1.99927e-11
-2.4553e-11
2.47499e-11
-2.54552e-11
3.01201e-11
-2.60469e-11
3.60855e-11
-2.63474e-11
4.27544e-11
-2.6343e-11
5.02715e-11
-2.606e-11
5.90933e-11
-2.54771e-11
7.00888e-11
-2.46362e-11
8.29678e-11
-2.35211e-11
9.86252e-11
-2.22359e-11
1.15543e-10
-2.06e-11
1.34143e-10
-1.86395e-11
1.53249e-10
-1.60637e-11
1.70553e-10
-1.28013e-11
1.83342e-10
-8.70768e-12
1.94448e-10
-4.87137e-12
1.96586e-10
-5.30703e-14
2.41594e-10
4.10801e-12
3.77284e-10
9.56119e-12
5.78212e-10
1.79282e-11
7.83775e-10
3.09573e-11
8.86811e-10
2.12142e-11
9.59285e-10
-8.81479e-12
9.38431e-10
9.87797e-11
9.39946e-10
1.49625e-10
1.05509e-09
1.09217e-10
1.21063e-09
6.87335e-11
1.34427e-09
6.32752e-11
1.42614e-09
9.208e-11
1.45911e-09
1.24224e-10
1.49006e-09
1.24346e-10
1.55446e-09
9.76321e-11
1.64534e-09
8.28114e-11
1.73027e-09
9.33462e-11
1.80055e-09
1.15004e-10
1.8653e-09
1.28361e-10
1.92794e-09
1.3834e-10
1.98721e-09
1.50097e-10
2.04048e-09
1.63265e-10
2.08686e-09
1.76376e-10
1.88664e-10
2.12626e-09
-2.20884e-13
-1.87035e-12
-7.63467e-13
-5.37656e-12
-1.53581e-12
-8.62934e-12
-2.46072e-12
-1.16196e-11
-3.4686e-12
-1.43469e-11
-4.49124e-12
-1.68118e-11
-5.46851e-12
-1.90145e-11
-6.33847e-12
-2.09562e-11
-7.04875e-12
-2.26375e-11
-7.54145e-12
-2.40603e-11
-7.77099e-12
-2.52257e-11
-7.68179e-12
-2.61361e-11
-7.23633e-12
-2.67929e-11
-6.38049e-12
-2.71989e-11
-5.08458e-12
-2.73559e-11
-3.29434e-12
-2.72673e-11
-9.94058e-13
-2.69365e-11
1.8524e-12
-2.63676e-11
5.18367e-12
-2.55672e-11
9.12022e-12
-2.45365e-11
1.37634e-11
-2.32827e-11
1.95052e-11
-2.18055e-11
2.68224e-11
-2.01185e-11
3.63372e-11
-1.82225e-11
4.76192e-11
-1.61533e-11
6.14589e-11
-1.39006e-11
7.68236e-11
-1.13722e-11
9.3128e-11
-8.43709e-12
1.06755e-10
-5.33036e-12
1.17481e-10
-2.29334e-12
1.32475e-10
9.66069e-13
1.18596e-10
4.65908e-12
2.07119e-10
1.00762e-11
3.42164e-10
1.45206e-11
4.25573e-10
2.58081e-11
5.02861e-10
-8.55429e-12
4.92869e-10
7.32668e-11
4.67578e-10
1.17371e-10
4.71388e-10
1.20414e-10
5.44509e-10
5.12255e-11
6.32254e-10
9.88671e-12
6.76664e-10
3.84014e-11
6.82387e-10
8.76232e-11
7.02832e-10
9.45598e-11
7.50071e-10
8.11206e-11
8.13512e-10
7.48994e-11
8.79425e-10
8.41831e-11
9.49894e-10
9.2797e-11
1.02369e-09
1.02578e-10
1.12998e-10
1.09936e-09
-9.50395e-14
-1.77531e-12
-3.86166e-13
-5.08544e-12
-8.44689e-13
-8.17081e-12
-1.42596e-12
-1.10383e-11
-2.08528e-12
-1.36876e-11
-2.77849e-12
-1.61186e-11
-3.46097e-12
-1.8332e-11
-4.08888e-12
-2.03283e-11
-4.61777e-12
-2.21086e-11
-5.00421e-12
-2.36739e-11
-5.20404e-12
-2.50259e-11
-5.17419e-12
-2.6166e-11
-4.87084e-12
-2.70963e-11
-4.251e-12
-2.78187e-11
-3.27125e-12
-2.83356e-11
-1.88872e-12
-2.86498e-11
-6.17036e-14
-2.87636e-11
2.25152e-12
-2.86808e-11
5.08762e-12
-2.84033e-11
8.48782e-12
-2.79367e-11
1.2487e-11
-2.72819e-11
1.71289e-11
-2.64475e-11
2.24433e-11
-2.54329e-11
2.8473e-11
-2.42522e-11
3.52218e-11
-2.29021e-11
4.27258e-11
-2.14047e-11
5.11017e-11
-1.97481e-11
6.06277e-11
-1.79631e-11
7.13267e-11
-1.60293e-11
8.30328e-11
-1.39994e-11
9.5804e-11
-1.18101e-11
1.09837e-10
-9.41407e-12
1.25228e-10
-7.01528e-12
1.35601e-10
-4.47076e-12
1.46937e-10
-2.25614e-12
1.36929e-10
1.02611e-12
2.05496e-10
4.56769e-12
3.15659e-10
7.15825e-12
4.23067e-10
1.30061e-11
4.73075e-10
1.21743e-12
4.84835e-10
-1.87366e-12
4.48915e-10
7.43221e-11
4.63982e-10
7.2556e-11
5.22234e-10
3.63081e-11
5.76671e-10
2.66832e-11
6.04584e-10
4.69863e-11
6.34676e-10
5.40916e-11
6.76928e-10
5.05447e-11
7.28404e-10
5.11026e-11
5.18139e-11
7.89588e-10
-1.91472e-13
-1.58384e-12
-6.79056e-13
-4.59785e-12
-1.40822e-12
-7.44164e-12
-2.33954e-12
-1.0107e-11
-3.43316e-12
-1.2594e-11
-4.64863e-12
-1.49032e-11
-5.94546e-12
-1.70352e-11
-7.28275e-12
-1.8991e-11
-8.61985e-12
-2.07715e-11
-9.9159e-12
-2.23778e-11
-1.11306e-11
-2.38112e-11
-1.22235e-11
-2.5073e-11
-1.31551e-11
-2.61646e-11
-1.38863e-11
-2.70876e-11
-1.43784e-11
-2.78435e-11
-1.45942e-11
-2.84341e-11
-1.44967e-11
-2.88611e-11
-1.40509e-11
-2.91266e-11
-1.32218e-11
-2.92323e-11
-1.19779e-11
-2.91807e-11
-1.02863e-11
-2.89735e-11
-8.1202e-12
-2.86135e-11
-5.4505e-12
-2.81026e-11
-2.25874e-12
-2.74439e-11
1.47838e-12
-2.66392e-11
5.7663e-12
-2.56926e-11
1.06231e-11
-2.46049e-11
1.60421e-11
-2.33821e-11
2.20363e-11
-2.20236e-11
2.85757e-11
-2.05387e-11
3.56893e-11
-1.89238e-11
4.34682e-11
-1.71929e-11
5.17872e-11
-1.53343e-11
6.06878e-11
-1.33714e-11
6.97032e-11
-1.12698e-11
7.97609e-11
-9.03413e-12
9.08855e-11
-6.78603e-12
9.99375e-11
-4.38049e-12
1.0322e-10
-2.27399e-12
1.03795e-10
3.99114e-13
9.77784e-11
4.08616e-12
1.65417e-10
6.67069e-12
2.26294e-10
1.16792e-11
2.67133e-10
-4.53057e-12
2.68617e-10
2.5199e-11
2.80377e-10
3.52258e-11
3.15843e-10
1.86254e-11
3.50333e-10
1.60552e-11
3.88784e-10
1.26518e-11
8.59298e-12
4.32005e-10
-1.51551e-13
-1.43229e-12
-6.22929e-13
-4.12647e-12
-1.39773e-12
-6.66684e-12
-2.4428e-12
-9.06191e-12
-3.72386e-12
-1.13129e-11
-5.20588e-12
-1.34211e-11
-6.85318e-12
-1.53879e-11
-8.6298e-12
-1.72144e-11
-1.04995e-11
-1.89018e-11
-1.2426e-11
-2.04513e-11
-1.4373e-11
-2.18642e-11
-1.63046e-11
-2.31415e-11
-1.81847e-11
-2.42845e-11
-1.9978e-11
-2.52943e-11
-2.16494e-11
-2.61721e-11
-2.31643e-11
-2.69191e-11
-2.44888e-11
-2.75366e-11
-2.55899e-11
-2.80255e-11
-2.64349e-11
-2.83873e-11
-2.69925e-11
-2.8623e-11
-2.7232e-11
-2.87341e-11
-2.71241e-11
-2.87213e-11
-2.66403e-11
-2.85864e-11
-2.57543e-11
-2.833e-11
-2.44396e-11
-2.79538e-11
-2.26738e-11
-2.74584e-11
-2.04332e-11
-2.68455e-11
-1.76999e-11
-2.61154e-11
-1.44536e-11
-2.52699e-11
-1.06834e-11
-2.43089e-11
-6.37273e-12
-2.32344e-11
-1.51993e-12
-2.20457e-11
3.89068e-12
-2.07449e-11
9.84986e-12
-1.93306e-11
1.63852e-11
-1.78051e-11
2.35178e-11
-1.61667e-11
3.11485e-11
-1.44168e-11
3.93201e-11
-1.2552e-11
4.76089e-11
-1.0563e-11
5.64342e-11
-8.42661e-12
6.67266e-11
-6.31668e-12
7.32336e-11
-4.16269e-12
8.44348e-11
-2.35348e-12
7.94352e-11
4.05571e-13
1.00174e-10
4.45036e-12
1.32784e-10
2.61571e-12
1.58574e-10
-7.164e-12
1.71487e-10
3.14226e-12
1.86321e-10
-2.18284e-12
-3.11892e-12
1.98033e-10
-2.75278e-13
-1.15701e-12
-1.02352e-12
-3.37823e-12
-2.19149e-12
-5.49888e-12
-3.73808e-12
-7.51531e-12
-5.62321e-12
-9.42779e-12
-7.80764e-12
-1.12367e-11
-1.02531e-11
-1.29425e-11
-1.2922e-11
-1.45454e-11
-1.57779e-11
-1.60459e-11
-1.87847e-11
-1.74445e-11
-2.19074e-11
-1.87415e-11
-2.51114e-11
-1.99375e-11
-2.83628e-11
-2.10331e-11
-3.16281e-11
-2.2029e-11
-3.48745e-11
-2.29257e-11
-3.80696e-11
-2.37241e-11
-4.11813e-11
-2.44248e-11
-4.41779e-11
-2.50289e-11
-4.7028e-11
-2.55372e-11
-4.97003e-11
-2.59508e-11
-5.21638e-11
-2.62705e-11
-5.43874e-11
-2.64977e-11
-5.63404e-11
-2.66334e-11
-5.79913e-11
-2.66791e-11
-5.93095e-11
-2.66357e-11
-6.0263e-11
-2.65049e-11
-6.08206e-11
-2.62879e-11
-6.09496e-11
-2.59864e-11
-6.06179e-11
-2.56016e-11
-5.97915e-11
-2.51353e-11
-5.84371e-11
-2.45889e-11
-5.65187e-11
-2.39641e-11
-5.40013e-11
-2.32622e-11
-5.08468e-11
-2.24851e-11
-4.70179e-11
-2.1634e-11
-4.24744e-11
-2.07102e-11
-3.71758e-11
-1.97154e-11
-3.10779e-11
-1.865e-11
-2.4125e-11
-1.75158e-11
-1.62395e-11
-1.63122e-11
-7.51437e-12
-1.50418e-11
2.0222e-12
-1.36993e-11
1.19338e-11
-1.22651e-11
2.31322e-11
-1.07947e-11
3.57757e-11
-9.79649e-12
4.52735e-11
-8.84941e-12
4.51134e-11
-7.08938e-12
5.67835e-11
-8.52987e-12
6.51811e-11
-1.05805e-11
-1.24289e-11
7.44911e-11
-2.26696e-13
-9.30316e-13
-8.78261e-13
-2.72666e-12
-1.92029e-12
-4.45685e-12
-3.31631e-12
-6.1193e-12
-5.03126e-12
-7.71284e-12
-7.03141e-12
-9.23657e-12
-9.28415e-12
-1.06897e-11
-1.1758e-11
-1.20716e-11
-1.44223e-11
-1.33816e-11
-1.72474e-11
-1.46193e-11
-2.02044e-11
-1.57845e-11
-2.32651e-11
-1.68768e-11
-2.6402e-11
-1.78962e-11
-2.95882e-11
-1.88428e-11
-3.27971e-11
-1.97168e-11
-3.60029e-11
-2.05183e-11
-3.91798e-11
-2.1248e-11
-4.23026e-11
-2.19061e-11
-4.53462e-11
-2.24936e-11
-4.82859e-11
-2.30111e-11
-5.10969e-11
-2.34595e-11
-5.37546e-11
-2.384e-11
-5.62343e-11
-2.41537e-11
-5.85114e-11
-2.4402e-11
-6.05607e-11
-2.45864e-11
-6.23573e-11
-2.47083e-11
-6.38752e-11
-2.477e-11
-6.50886e-11
-2.4773e-11
-6.59704e-11
-2.47198e-11
-6.64933e-11
-2.46124e-11
-6.66284e-11
-2.44538e-11
-6.63465e-11
-2.42461e-11
-6.56156e-11
-2.39931e-11
-6.44037e-11
-2.3697e-11
-6.26753e-11
-2.33624e-11
-6.0394e-11
-2.29915e-11
-5.75192e-11
-2.25902e-11
-5.40088e-11
-2.21604e-11
-4.98149e-11
-2.17097e-11
-4.48878e-11
-2.12393e-11
-3.91706e-11
-2.07589e-11
-3.26013e-11
-2.02686e-11
-2.5085e-11
-1.97814e-11
-1.65838e-11
-1.92959e-11
-7.55152e-12
-1.88288e-11
1.9513e-12
-1.83525e-11
1.31071e-11
-1.82393e-11
1.94486e-11
-1.81553e-11
2.7015e-11
-1.83209e-11
-1.88189e-11
3.3405e-11
-1.37757e-13
-7.92559e-13
-5.34146e-13
-2.33027e-12
-1.17013e-12
-3.82086e-12
-2.02561e-12
-5.26382e-12
-3.08043e-12
-6.65802e-12
-4.31442e-12
-8.00257e-12
-5.70747e-12
-9.29667e-12
-7.23949e-12
-1.05396e-11
-8.89044e-12
-1.17307e-11
-1.06404e-11
-1.28694e-11
-1.24694e-11
-1.39554e-11
-1.43579e-11
-1.49884e-11
-1.62861e-11
-1.5968e-11
-1.82345e-11
-1.68943e-11
-2.0184e-11
-1.77673e-11
-2.21152e-11
-1.85871e-11
-2.40093e-11
-1.93538e-11
-2.58475e-11
-2.00679e-11
-2.76113e-11
-2.07298e-11
-2.92824e-11
-2.134e-11
-3.08428e-11
-2.18992e-11
-3.22746e-11
-2.24082e-11
-3.35605e-11
-2.28678e-11
-3.46833e-11
-2.32791e-11
-3.56265e-11
-2.36432e-11
-3.63734e-11
-2.39614e-11
-3.69085e-11
-2.4235e-11
-3.7216e-11
-2.44654e-11
-3.72814e-11
-2.46544e-11
-3.70902e-11
-2.48036e-11
-3.66289e-11
-2.4915e-11
-3.58845e-11
-2.49905e-11
-3.48452e-11
-2.50324e-11
-3.34993e-11
-2.50428e-11
-3.18373e-11
-2.50244e-11
-2.98493e-11
-2.49795e-11
-2.75284e-11
-2.49111e-11
-2.4867e-11
-2.48218e-11
-2.18615e-11
-2.47153e-11
-1.85068e-11
-2.45939e-11
-1.48034e-11
-2.44623e-11
-1.07493e-11
-2.43227e-11
-6.35005e-12
-2.41807e-11
-1.60806e-12
-2.40379e-11
3.46464e-12
-2.39015e-11
8.88457e-12
-2.37724e-11
1.43048e-11
-2.36596e-11
1.97091e-11
-2.35595e-11
2.48905e-11
-2.35027e-11
-2.33507e-11
2.61348e-11
-8.92209e-14
-7.03338e-13
-3.35506e-13
-2.08399e-12
-7.24443e-13
-3.43193e-12
-1.24483e-12
-4.74342e-12
-1.88521e-12
-6.01765e-12
-2.63389e-12
-7.25389e-12
-3.47908e-12
-8.45148e-12
-4.40882e-12
-9.60983e-12
-5.41107e-12
-1.07284e-11
-6.47372e-12
-1.18068e-11
-7.58462e-12
-1.28445e-11
-8.73158e-12
-1.38414e-11
-9.90243e-12
-1.47972e-11
-1.1085e-11
-1.57118e-11
-1.22672e-11
-1.65851e-11
-1.34369e-11
-1.74173e-11
-1.45823e-11
-1.82085e-11
-1.56915e-11
-1.89588e-11
-1.67528e-11
-1.96685e-11
-1.77546e-11
-2.03382e-11
-1.86856e-11
-2.09681e-11
-1.95348e-11
-2.1559e-11
-2.02913e-11
-2.21113e-11
-2.09445e-11
-2.26259e-11
-2.14842e-11
-2.31035e-11
-2.19007e-11
-2.35449e-11
-2.21846e-11
-2.39511e-11
-2.23268e-11
-2.43231e-11
-2.23192e-11
-2.4662e-11
-2.2154e-11
-2.49689e-11
-2.1824e-11
-2.5245e-11
-2.13231e-11
-2.54915e-11
-2.06457e-11
-2.57098e-11
-1.97874e-11
-2.59012e-11
-1.87447e-11
-2.60671e-11
-1.75151e-11
-2.6209e-11
-1.60978e-11
-2.63284e-11
-1.44931e-11
-2.64266e-11
-1.27029e-11
-2.65054e-11
-1.07308e-11
-2.65661e-11
-8.5827e-12
-2.66104e-11
-6.2658e-12
-2.66396e-11
-3.79092e-12
-2.66556e-11
-1.16959e-12
-2.66592e-11
1.58172e-12
-2.66528e-11
4.44588e-12
-2.66366e-11
7.39974e-12
-2.66134e-11
1.04228e-11
-2.65826e-11
1.34655e-11
-2.65454e-11
-2.65358e-11
1.66501e-11
-2.99776e-14
-6.7336e-13
-1.34539e-13
-1.97943e-12
-3.13855e-13
-3.25261e-12
-5.61193e-13
-4.49609e-12
-8.7009e-13
-5.70875e-12
-1.2343e-12
-6.88968e-12
-1.64774e-12
-8.03804e-12
-2.1045e-12
-9.15308e-12
-2.59877e-12
-1.02341e-11
-3.12485e-12
-1.12807e-11
-3.67716e-12
-1.22922e-11
-4.25014e-12
-1.32684e-11
-4.83835e-12
-1.4209e-11
-5.43638e-12
-1.51137e-11
-6.03888e-12
-1.59826e-11
-6.64056e-12
-1.68156e-11
-7.23618e-12
-1.76128e-11
-7.82055e-12
-1.83744e-11
-8.38857e-12
-1.91005e-11
-8.93517e-12
-1.97916e-11
-9.45541e-12
-2.04479e-11
-9.94441e-12
-2.107e-11
-1.03974e-11
-2.16584e-11
-1.08097e-11
-2.22136e-11
-1.11769e-11
-2.27363e-11
-1.14946e-11
-2.32272e-11
-1.17586e-11
-2.36871e-11
-1.1965e-11
-2.41168e-11
-1.21099e-11
-2.45171e-11
-1.21898e-11
-2.4889e-11
-1.22014e-11
-2.52334e-11
-1.21415e-11
-2.55513e-11
-1.20076e-11
-2.58437e-11
-1.1797e-11
-2.61118e-11
-1.15075e-11
-2.63566e-11
-1.11373e-11
-2.65793e-11
-1.06848e-11
-2.67809e-11
-1.01485e-11
-2.69629e-11
-9.5278e-12
-2.71262e-11
-8.82166e-12
-2.72722e-11
-8.02999e-12
-2.74021e-11
-7.15232e-12
-2.75172e-11
-6.18914e-12
-2.76187e-11
-5.14028e-12
-2.77081e-11
-4.00677e-12
-2.77863e-11
-2.78839e-12
-2.7855e-11
-1.48659e-12
-2.79152e-11
-1.00784e-13
-2.79684e-11
1.36935e-12
-2.80156e-11
-2.80582e-11
2.89174e-12
-9.68507e-16
-6.72391e-13
2.95271e-14
-2.00992e-12
9.98295e-14
-3.32291e-12
2.06044e-13
-4.6023e-12
3.44309e-13
-5.84702e-12
5.108e-13
-7.05617e-12
7.01782e-13
-8.22902e-12
9.13673e-13
-9.36497e-12
1.14309e-12
-1.04636e-11
1.3869e-12
-1.15245e-11
1.64222e-12
-1.25475e-11
1.90646e-12
-1.35327e-11
2.17737e-12
-1.44799e-11
2.45299e-12
-1.53894e-11
2.73169e-12
-1.62613e-11
3.01215e-12
-1.70961e-11
3.29341e-12
-1.78941e-11
3.57476e-12
-1.86557e-11
3.85582e-12
-1.93816e-11
4.13647e-12
-2.00722e-11
4.41682e-12
-2.07283e-11
4.69724e-12
-2.13504e-11
4.97827e-12
-2.19394e-11
5.2606e-12
-2.24959e-11
5.54511e-12
-2.30208e-11
5.83271e-12
-2.35148e-11
6.12443e-12
-2.39788e-11
6.42128e-12
-2.44136e-11
6.72432e-12
-2.48201e-11
7.0345e-12
-2.51992e-11
7.35275e-12
-2.55516e-11
7.67982e-12
-2.58784e-11
8.01635e-12
-2.61803e-11
8.36276e-12
-2.64582e-11
8.71928e-12
-2.67131e-11
9.08579e-12
-2.69458e-11
9.46199e-12
-2.71571e-11
9.84712e-12
-2.7348e-11
1.02402e-11
-2.75192e-11
1.06396e-11
-2.76717e-11
1.10437e-11
-2.78061e-11
1.14499e-11
-2.79234e-11
1.18555e-11
-2.80243e-11
1.2257e-11
-2.81096e-11
1.26508e-11
-2.81801e-11
1.30321e-11
-2.82363e-11
1.3396e-11
-2.82791e-11
1.37365e-11
-2.8309e-11
1.40479e-11
-2.8327e-11
-2.83337e-11
1.43235e-11
1.00856e-13
-7.73247e-13
3.40703e-13
-2.24977e-12
6.93885e-13
-3.6761e-12
1.15161e-12
-5.06002e-12
1.70332e-12
-6.39873e-12
2.33738e-12
-7.69024e-12
3.04159e-12
-8.93323e-12
3.80353e-12
-1.01269e-11
4.61085e-12
-1.12709e-11
5.45153e-12
-1.23652e-11
6.31404e-12
-1.341e-11
7.18748e-12
-1.44061e-11
8.06167e-12
-1.53541e-11
8.92722e-12
-1.62549e-11
9.77557e-12
-1.71097e-11
1.0599e-11
-1.79195e-11
1.13906e-11
-1.86857e-11
1.21443e-11
-1.94095e-11
1.28549e-11
-2.00921e-11
1.35177e-11
-2.0735e-11
1.4129e-11
-2.13395e-11
1.46855e-11
-2.1907e-11
1.51847e-11
-2.24386e-11
1.56246e-11
-2.29357e-11
1.60034e-11
-2.33996e-11
1.632e-11
-2.38315e-11
1.65737e-11
-2.42325e-11
1.67638e-11
-2.46038e-11
1.68901e-11
-2.49464e-11
1.69523e-11
-2.52614e-11
1.69505e-11
-2.55498e-11
1.68848e-11
-2.58126e-11
1.67551e-11
-2.60506e-11
1.65615e-11
-2.62647e-11
1.63041e-11
-2.64556e-11
1.59826e-11
-2.66243e-11
1.55969e-11
-2.67714e-11
1.51467e-11
-2.68978e-11
1.46314e-11
-2.70039e-11
1.40505e-11
-2.70908e-11
1.34033e-11
-2.71589e-11
1.26889e-11
-2.72091e-11
1.19066e-11
-2.72421e-11
1.10557e-11
-2.72587e-11
1.01355e-11
-2.72598e-11
9.14576e-12
-2.72466e-11
8.08685e-12
-2.72201e-11
6.95956e-12
-2.71817e-11
5.76339e-12
-2.71308e-11
-2.70837e-11
4.16032e-12
2.22396e-13
-9.95642e-13
9.08638e-13
-2.93601e-12
2.00623e-12
-4.77369e-12
3.42883e-12
-6.48263e-12
5.10055e-12
-8.07045e-12
6.95479e-12
-9.54448e-12
8.93327e-12
-1.09117e-11
1.09852e-11
-1.21789e-11
1.30669e-11
-1.33525e-11
1.51404e-11
-1.44387e-11
1.71738e-11
-1.54435e-11
1.91401e-11
-1.63723e-11
2.10166e-11
-1.72306e-11
2.2785e-11
-1.80233e-11
2.44302e-11
-1.87549e-11
2.59405e-11
-1.94299e-11
2.73071e-11
-2.00523e-11
2.85235e-11
-2.06258e-11
2.95855e-11
-2.11541e-11
3.04907e-11
-2.16403e-11
3.12385e-11
-2.20873e-11
3.18296e-11
-2.24981e-11
3.2266e-11
-2.2875e-11
3.25507e-11
-2.32204e-11
3.26876e-11
-2.35365e-11
3.26811e-11
-2.3825e-11
3.25365e-11
-2.40878e-11
3.22592e-11
-2.43265e-11
3.18551e-11
-2.45423e-11
3.13303e-11
-2.47366e-11
3.0691e-11
-2.49105e-11
2.99432e-11
-2.50648e-11
2.9093e-11
-2.52005e-11
2.81465e-11
-2.53181e-11
2.71093e-11
-2.54184e-11
2.59867e-11
-2.55017e-11
2.47839e-11
-2.55687e-11
2.35054e-11
-2.56193e-11
2.21557e-11
-2.56542e-11
2.07382e-11
-2.56733e-11
1.92564e-11
-2.56771e-11
1.77128e-11
-2.56655e-11
1.611e-11
-2.56392e-11
1.44496e-11
-2.55983e-11
1.27333e-11
-2.55436e-11
1.09614e-11
-2.54746e-11
9.13315e-12
-2.53919e-11
7.24935e-12
-2.52979e-11
4.67014e-12
-2.52012e-11
-2.50676e-11
-3.3266e-12
8.21232e-13
-1.81687e-12
2.6991e-12
-4.81387e-12
5.27854e-12
-7.35313e-12
8.34145e-12
-9.54553e-12
1.17115e-11
-1.14405e-11
1.52464e-11
-1.30794e-11
1.88324e-11
-1.44977e-11
2.23795e-11
-1.5726e-11
2.58175e-11
-1.67905e-11
2.90922e-11
-1.77135e-11
3.21631e-11
-1.85144e-11
3.50005e-11
-1.92097e-11
3.75836e-11
-1.98137e-11
3.98992e-11
-2.03388e-11
4.19397e-11
-2.07954e-11
4.37026e-11
-2.11928e-11
4.51892e-11
-2.15388e-11
4.64034e-11
-2.18401e-11
4.7352e-11
-2.21027e-11
4.80432e-11
-2.23315e-11
4.84866e-11
-2.25308e-11
4.86928e-11
-2.27042e-11
4.86727e-11
-2.28549e-11
4.84377e-11
-2.29854e-11
4.7999e-11
-2.30978e-11
4.73677e-11
-2.31937e-11
4.65541e-11
-2.32743e-11
4.55681e-11
-2.33405e-11
4.44185e-11
-2.33927e-11
4.31128e-11
-2.34309e-11
4.1657e-11
-2.34547e-11
4.00554e-11
-2.34632e-11
3.83099e-11
-2.3455e-11
3.64202e-11
-2.34283e-11
3.43822e-11
-2.33805e-11
3.21888e-11
-2.33083e-11
2.98278e-11
-2.32077e-11
2.72823e-11
-2.30738e-11
2.45281e-11
-2.29001e-11
2.15345e-11
-2.26797e-11
1.82604e-11
-2.2403e-11
1.4655e-11
-2.20601e-11
1.06527e-11
-2.16369e-11
6.17369e-12
-2.11193e-11
1.11714e-12
-2.0487e-11
-4.63655e-12
-1.9721e-11
-1.12362e-11
-1.87923e-11
-1.91072e-11
-1.76705e-11
-3.46362e-11
-1.63098e-11
-1.59587e-11
-4.37451e-11
1.75831e-11
3.21693e-11
4.42161e-11
5.40706e-11
6.20301e-11
6.83507e-11
7.3253e-11
7.6927e-11
7.95366e-11
8.12231e-11
8.21087e-11
8.2299e-11
8.18853e-11
8.09465e-11
7.9551e-11
7.77582e-11
7.56195e-11
7.31793e-11
7.04766e-11
6.75452e-11
6.44144e-11
6.11102e-11
5.76552e-11
5.40698e-11
5.03721e-11
4.65784e-11
4.27041e-11
3.87636e-11
3.47709e-11
3.074e-11
2.66854e-11
2.26222e-11
1.85672e-11
1.45388e-11
1.05584e-11
6.65003e-12
2.84236e-12
-8.31397e-13
-4.33145e-12
-7.61113e-12
-1.06141e-11
-1.32742e-11
-1.55111e-11
-1.72304e-11
-1.83174e-11
-1.86384e-11
-1.80307e-11
-1.63012e-11
-1.49705e-11
-2.02919e-11
-2.68562e-10
1.92624e-10
-2.41268e-10
1.93408e-10
-2.15768e-10
1.94068e-10
-1.9199e-10
1.9461e-10
-1.6987e-10
1.9504e-10
-1.49344e-10
1.95363e-10
-1.30353e-10
1.95584e-10
-1.12839e-10
1.95707e-10
-9.67496e-11
1.95737e-10
-8.20323e-11
1.95678e-10
-6.86382e-11
1.95533e-10
-5.65206e-11
1.95305e-10
-4.56347e-11
1.94998e-10
-3.59379e-11
1.94615e-10
-2.73892e-11
1.94159e-10
-1.99496e-11
1.93632e-10
-1.35815e-11
1.93037e-10
-8.24887e-12
1.92376e-10
-3.91716e-12
1.91651e-10
-5.53111e-13
1.90866e-10
1.87528e-12
1.90022e-10
3.39884e-12
1.8912e-10
4.04729e-12
1.88164e-10
3.84935e-12
1.87155e-10
2.83274e-12
1.86094e-10
1.02426e-12
1.84984e-10
-1.55021e-12
1.83827e-10
-4.86558e-12
1.82623e-10
-8.89757e-12
1.81375e-10
-1.36226e-11
1.80085e-10
-1.90178e-11
1.78753e-10
-2.5061e-11
1.77381e-10
-3.17306e-11
1.75971e-10
-3.90054e-11
1.74523e-10
-4.68651e-11
1.7304e-10
-5.52895e-11
1.71521e-10
-6.42589e-11
1.6997e-10
-7.3754e-11
1.68386e-10
-8.37555e-11
1.66771e-10
-9.42447e-11
1.65125e-10
-1.05202e-10
1.63452e-10
-1.1661e-10
1.6175e-10
-1.28447e-10
1.60023e-10
-1.40696e-10
1.58272e-10
-1.53337e-10
1.56498e-10
-1.66349e-10
1.54703e-10
-1.79714e-10
1.52888e-10
-1.93411e-10
1.51054e-10
-2.07421e-10
1.492e-10
1.4733e-10
-2.21735e-10
1.53016e-10
1.66514e-10
1.77914e-10
1.68509e-10
2.01546e-10
1.70436e-10
2.23876e-10
1.7228e-10
2.44885e-10
1.74031e-10
2.64568e-10
1.75679e-10
2.82932e-10
1.7722e-10
2.99991e-10
1.78648e-10
3.15768e-10
1.7996e-10
3.3029e-10
1.81156e-10
3.43586e-10
1.82236e-10
3.55692e-10
1.832e-10
3.66641e-10
1.84049e-10
3.76471e-10
1.84785e-10
3.85219e-10
1.85412e-10
3.9292e-10
1.85931e-10
3.99612e-10
1.86345e-10
4.05329e-10
1.86658e-10
4.10108e-10
1.86873e-10
4.1398e-10
1.86993e-10
4.1698e-10
1.87022e-10
4.19138e-10
1.86962e-10
4.20485e-10
1.86817e-10
4.21049e-10
1.8659e-10
4.20859e-10
1.86285e-10
4.1994e-10
1.85903e-10
4.18319e-10
1.85447e-10
4.16021e-10
1.84922e-10
4.13068e-10
1.84328e-10
4.09484e-10
1.83669e-10
4.05291e-10
1.82946e-10
4.0051e-10
1.82163e-10
3.9516e-10
1.8132e-10
3.89262e-10
1.80421e-10
3.82836e-10
1.79466e-10
3.75899e-10
1.78458e-10
3.6847e-10
1.77399e-10
3.60567e-10
1.76289e-10
3.52207e-10
1.7513e-10
3.43408e-10
1.73924e-10
3.34188e-10
1.72672e-10
3.24564e-10
1.71375e-10
3.14554e-10
1.70033e-10
3.04176e-10
1.6865e-10
2.93451e-10
1.67224e-10
2.82396e-10
1.65758e-10
2.71033e-10
1.64251e-10
2.59383e-10
1.62704e-10
2.47467e-10
1.61116e-10
1.59481e-10
2.35316e-10
1.12071e-09
1.86939e-10
1.10248e-09
1.86742e-10
1.08619e-09
1.86729e-10
1.0716e-09
1.86875e-10
1.05847e-09
1.87152e-10
1.04662e-09
1.87534e-10
1.03584e-09
1.87996e-10
1.02597e-09
1.88516e-10
1.01686e-09
1.89072e-10
1.00837e-09
1.89647e-10
1.00039e-09
1.90223e-10
9.92796e-10
1.90788e-10
9.85516e-10
1.9133e-10
9.78464e-10
1.91837e-10
9.71572e-10
1.92304e-10
9.64781e-10
1.92721e-10
9.58041e-10
1.93086e-10
9.51306e-10
1.93393e-10
9.4454e-10
1.93639e-10
9.3771e-10
1.93823e-10
9.30789e-10
1.93943e-10
9.23752e-10
1.93998e-10
9.16581e-10
1.93988e-10
9.09258e-10
1.93913e-10
9.0177e-10
1.93773e-10
8.94105e-10
1.93568e-10
8.86253e-10
1.93299e-10
8.78207e-10
1.92967e-10
8.69962e-10
1.92574e-10
8.61512e-10
1.92119e-10
8.52854e-10
1.91604e-10
8.43986e-10
1.91031e-10
8.34907e-10
1.90399e-10
8.25616e-10
1.89712e-10
8.16114e-10
1.88968e-10
8.06402e-10
1.88171e-10
7.96481e-10
1.8732e-10
7.86354e-10
1.86416e-10
7.76024e-10
1.8546e-10
7.65494e-10
1.84454e-10
7.5477e-10
1.83396e-10
7.43856e-10
1.82289e-10
7.32759e-10
1.81131e-10
7.21486e-10
1.79922e-10
7.10047e-10
1.78663e-10
6.98453e-10
1.77352e-10
6.86716e-10
1.75988e-10
6.74853e-10
1.74568e-10
6.62881e-10
1.73088e-10
1.71546e-10
6.50816e-10
1.73815e-09
2.21117e-10
1.70485e-09
2.20038e-10
1.67262e-09
2.18969e-10
1.64157e-09
2.17923e-10
1.61181e-09
2.16907e-10
1.58342e-09
2.15928e-10
1.55642e-09
2.14995e-10
1.53082e-09
2.14111e-10
1.50662e-09
2.13281e-10
1.48376e-09
2.12504e-10
1.4622e-09
2.11781e-10
1.44188e-09
2.1111e-10
1.42272e-09
2.10487e-10
1.40465e-09
2.0991e-10
1.38758e-09
2.09374e-10
1.37142e-09
2.08875e-10
1.3561e-09
2.08408e-10
1.34153e-09
2.07967e-10
1.32762e-09
2.07548e-10
1.3143e-09
2.07145e-10
1.30149e-09
2.06752e-10
1.28912e-09
2.06363e-10
1.27714e-09
2.05973e-10
1.26548e-09
2.05577e-10
1.25408e-09
2.05169e-10
1.2429e-09
2.04745e-10
1.2319e-09
2.04301e-10
1.22103e-09
2.03833e-10
1.21027e-09
2.03337e-10
1.19958e-09
2.02811e-10
1.18893e-09
2.02252e-10
1.1783e-09
2.01657e-10
1.16768e-09
2.01025e-10
1.15704e-09
2.00354e-10
1.14636e-09
1.99642e-10
1.13565e-09
1.98888e-10
1.12487e-09
1.98091e-10
1.11404e-09
1.9725e-10
1.10314e-09
1.96363e-10
1.09216e-09
1.95431e-10
1.08111e-09
1.9445e-10
1.06997e-09
1.93421e-10
1.05876e-09
1.92342e-10
1.04747e-09
1.91211e-10
1.03611e-09
1.90026e-10
1.02468e-09
1.88784e-10
1.01319e-09
1.8748e-10
1.00164e-09
1.8611e-10
9.90066e-10
1.84666e-10
1.83127e-10
9.78485e-10
2.19441e-09
2.32485e-10
2.17837e-09
2.3608e-10
2.15841e-09
2.38925e-10