/*--------------------------------*- C++ -*----------------------------------*\
| =========                 |                                                 |
| \\      /  F ield         | OpenFOAM: The Open Source CFD Toolbox           |
|  \\    /   O peration     | Version:  2.4.0                                 |
|   \\  /    A nd           | Web:      www.OpenFOAM.org                      |
|    \\/     M anipulation  |                                                 |
\*---------------------------------------------------------------------------*/
FoamFile
{
    version     2.0;
    format      ascii;
    class       volVectorField;
    location    "3";
    object      U;
}
// * * * * * * * * * * * * * * * * * * * * * * * * * * * * * * * * * * * * * //

dimensions      [0 1 -1 0 0 0 0];

internalField   nonuniform List<vector> 
8000
(
(-9.16854e-07 0.00014405 0)
(-9.75604e-06 0.00039806 0)
(-2.81062e-05 0.000616338 0)
(-5.42145e-05 0.000802848 0)
(-9.90461e-05 0.000951391 0)
(-0.000240359 0.0010685 0)
(-0.000581664 0.00114167 0)
(-0.00109201 0.00121816 0)
(-0.00170792 0.00171064 0)
(-0.0022964 0.00985235 0)
(-0.00192347 0.0385234 0)
(-4.06417e-06 0.0377151 0)
(-0.00158738 0.0394532 0)
(-0.00110996 0.0333827 0)
(-0.00193759 0.0258353 0)
(-0.00364064 0.0193036 0)
(-0.00575302 0.0149677 0)
(-0.00787574 0.012864 0)
(-0.00979213 0.0124649 0)
(-0.0113905 0.0131306 0)
(-0.0126071 0.014293 0)
(-0.013424 0.0155637 0)
(-0.0138664 0.0167338 0)
(-0.0139907 0.0177248 0)
(-0.0138669 0.0185315 0)
(-0.0135618 0.0191794 0)
(-0.0131291 0.0197005 0)
(-0.0126102 0.0201232 0)
(-0.0120364 0.0204706 0)
(-0.0114318 0.0207597 0)
(-0.0108141 0.0210028 0)
(-0.0101964 0.021208 0)
(-0.00958783 0.0213805 0)
(-0.00899476 0.0215243 0)
(-0.00842124 0.0216424 0)
(-0.00786979 0.0217375 0)
(-0.00734184 0.021812 0)
(-0.00683799 0.0218681 0)
(-0.0063583 0.0219077 0)
(-0.00590247 0.0219325 0)
(-0.00546995 0.0219441 0)
(-0.00506007 0.021944 0)
(-0.00467206 0.0219334 0)
(-0.00430515 0.0219134 0)
(-0.00395851 0.0218848 0)
(-0.00363135 0.0218485 0)
(-0.0033229 0.0218052 0)
(-0.00303238 0.0217555 0)
(-0.00275909 0.0216998 0)
(-0.00250233 0.0216385 0)
(1.83582e-06 0.00021034 0)
(1.09398e-05 0.000657287 0)
(2.39518e-05 0.00113251 0)
(3.75811e-05 0.00164419 0)
(4.74582e-05 0.00219063 0)
(4.54875e-05 0.00278683 0)
(2.84498e-05 0.00343238 0)
(-6.01227e-05 0.00483163 0)
(-0.000661392 0.000609463 0)
(-0.00064099 0.00392142 0)
(0.00119682 0.0229008 0)
(-0.00233132 0.0247115 0)
(0.0031449 0.0459028 0)
(0.00292717 0.0742204 0)
(0.00352807 0.0908476 0)
(0.00473001 0.0948651 0)
(0.00490982 0.0885955 0)
(0.00477192 0.0787592 0)
(0.00478051 0.0687496 0)
(0.00501002 0.0581245 0)
(0.00503604 0.0471226 0)
(0.00480597 0.0368196 0)
(0.00429358 0.0280744 0)
(0.00353374 0.0213165 0)
(0.00261469 0.0164866 0)
(0.00164609 0.0131532 0)
(0.000724396 0.0108956 0)
(-7.95407e-05 0.00944981 0)
(-0.000725911 0.00863497 0)
(-0.0012105 0.00829907 0)
(-0.00155575 0.00831077 0)
(-0.00179212 0.00856185 0)
(-0.00194268 0.00897008 0)
(-0.00202079 0.00947686 0)
(-0.002035 0.010041 0)
(-0.00199309 0.0106328 0)
(-0.00190316 0.0112304 0)
(-0.00177305 0.0118187 0)
(-0.00160996 0.0123876 0)
(-0.00142045 0.0129313 0)
(-0.00121052 0.0134466 0)
(-0.000985562 0.013932 0)
(-0.000750327 0.014387 0)
(-0.000508926 0.0148118 0)
(-0.000264857 0.0152073 0)
(-2.10691e-05 0.0155744 0)
(0.000219985 0.0159143 0)
(0.000456289 0.0162285 0)
(0.000686213 0.0165182 0)
(0.000908466 0.0167845 0)
(2.01169e-06 3.14531e-05 0)
(2.46458e-05 0.000153201 0)
(7.19328e-05 0.000332431 0)
(0.000145017 0.000571932 0)
(0.000247115 0.000868871 0)
(0.000383189 0.00123013 0)
(0.000534825 0.00165111 0)
(0.000613313 0.00214395 0)
(0.000551469 0.00163314 0)
(0.000410939 0.00145315 0)
(0.000297334 0.00122329 0)
(0.00146813 0.00515938 0)
(0.00342447 0.00237729 0)
(0.00475404 0.0177546 0)
(0.0061452 0.0199619 0)
(0.00746277 0.0310089 0)
(0.0150538 0.0490677 0)
(0.00609099 0.0156641 0)
(0.010989 -0.0122729 0)
(0.0193336 0.000438914 0)
(0.0200302 0.0148235 0)
(0.0198014 0.0260176 0)
(0.0200655 0.0352433 0)
(0.0191408 0.041302 0)
(0.0187394 0.043893 0)
(0.0188831 0.0438231 0)
(0.0189059 0.0416564 0)
(0.018777 0.0379618 0)
(0.0185953 0.0338532 0)
(0.0182399 0.0303694 0)
(0.0176567 0.0278109 0)
(0.0169433 0.025842 0)
(0.0162158 0.0241336 0)
(0.0155461 0.0225801 0)
(0.014948 0.0211986 0)
(0.0143949 0.0200105 0)
(0.0138602 0.0190062 0)
(0.0133374 0.0181639 0)
(0.0128339 0.0174699 0)
(0.0123577 0.0169169 0)
(0.0119122 0.016493 0)
(0.011497 0.0161832 0)
(0.0111113 0.0159722 0)
(0.0107555 0.0158456 0)
(0.0104298 0.0157899 0)
(0.0101337 0.0157933 0)
(0.00986598 0.015845 0)
(0.00962503 0.0159354 0)
(0.00940888 0.016056 0)
(0.0092155 0.0161993 0)
(1.16151e-06 -0.000104725 0)
(1.56112e-05 -0.00027945 0)
(4.73926e-05 -0.000421299 0)
(9.75519e-05 -0.000531701 0)
(0.000167027 -0.000613517 0)
(0.00025711 -0.000668217 0)
(0.000367884 -0.000700577 0)
(0.00049524 -0.000709687 0)
(0.000627255 -0.000697531 0)
(0.000741972 -0.000645484 0)
(0.000823596 -0.000491052 0)
(0.000858049 -0.000140788 0)
(0.000944829 0.000135134 0)
(0.0014409 0.000539898 0)
(0.00262115 0.000938021 0)
(0.00445615 0.00148568 0)
(0.00706298 0.00262596 0)
(0.00976785 0.00739247 0)
(0.010072 0.00537973 0)
(0.00907327 0.0106238 0)
(0.00863286 0.0191378 0)
(0.00878133 0.0268986 0)
(0.00936447 0.0353998 0)
(0.010576 0.0417033 0)
(0.00950434 0.0320467 0)
(0.0112633 0.0114036 0)
(0.0153844 0.00362942 0)
(0.0172805 0.00663995 0)
(0.0169096 0.0142629 0)
(0.0158061 0.0230643 0)
(0.0159033 0.0277126 0)
(0.0169665 0.027354 0)
(0.0176216 0.0256053 0)
(0.0178381 0.023902 0)
(0.0178695 0.0233201 0)
(0.017813 0.0236448 0)
(0.0176348 0.0241213 0)
(0.0173681 0.0243042 0)
(0.0171087 0.0242169 0)
(0.016897 0.0240117 0)
(0.0167064 0.0238038 0)
(0.0164946 0.0236098 0)
(0.0162499 0.0233396 0)
(0.0159865 0.0230223 0)
(0.0157157 0.0226814 0)
(0.0154411 0.0223386 0)
(0.0151626 0.0220068 0)
(0.0148808 0.0216929 0)
(0.0145979 0.0214027 0)
(0.0143169 0.0211396 0)
(1.20897e-06 -0.000163494 0)
(1.07979e-05 -0.000455102 0)
(2.9803e-05 -0.000711701 0)
(5.79326e-05 -0.000933747 0)
(9.44358e-05 -0.00112177 0)
(0.000139117 -0.00127631 0)
(0.000191155 -0.00139804 0)
(0.000250465 -0.00148745 0)
(0.000316085 -0.00154502 0)
(0.00038879 -0.00157007 0)
(0.000469198 -0.00156152 0)
(0.00056046 -0.00151731 0)
(0.000663583 -0.00144331 0)
(0.00078139 -0.00134202 0)
(0.000910991 -0.00117882 0)
(0.00104927 -0.000903236 0)
(0.00118102 -0.000449695 0)
(0.00127581 0.000295259 0)
(0.00135308 0.000710802 0)
(0.00160072 0.00123837 0)
(0.00229249 0.00181142 0)
(0.00347742 0.0024077 0)
(0.00500844 0.00315225 0)
(0.00687896 0.00450243 0)
(0.00884835 0.00788103 0)
(0.00997618 0.00406446 0)
(0.0100891 0.00870932 0)
(0.00975205 0.0208465 0)
(0.00938304 0.0318275 0)
(0.00875833 0.0353422 0)
(0.009084 0.0236173 0)
(0.0111709 0.0117388 0)
(0.0132415 0.00996757 0)
(0.0129666 0.0158396 0)
(0.0120661 0.024138 0)
(0.0127347 0.0270961 0)
(0.0135537 0.0271277 0)
(0.0139743 0.0251484 0)
(0.0144044 0.0229867 0)
(0.0149747 0.02159 0)
(0.0155764 0.0216541 0)
(0.0160734 0.0224745 0)
(0.0164919 0.0226894 0)
(0.0168692 0.0227506 0)
(0.0171834 0.0228063 0)
(0.0174209 0.0229063 0)
(0.0175825 0.023072 0)
(0.0176742 0.023206 0)
(0.0177048 0.0232955 0)
(0.0176816 0.0233445 0)
(8.28886e-08 -0.000223208 0)
(2.2033e-06 -0.000628015 0)
(7.23375e-06 -0.000992602 0)
(1.54478e-05 -0.0013178 0)
(2.70554e-05 -0.0016051 0)
(4.2219e-05 -0.00185475 0)
(6.11502e-05 -0.00206843 0)
(8.39849e-05 -0.00224577 0)
(0.000110921 -0.00238886 0)
(0.000142102 -0.00249657 0)
(0.000177809 -0.00257164 0)
(0.000218221 -0.00261217 0)
(0.000263471 -0.00262196 0)
(0.000313666 -0.002598 0)
(0.000369828 -0.0025455 0)
(0.000434457 -0.00246021 0)
(0.000512214 -0.0023504 0)
(0.00060788 -0.00221156 0)
(0.000722521 -0.00206203 0)
(0.000853207 -0.00189179 0)
(0.000998182 -0.0016626 0)
(0.00115204 -0.00133563 0)
(0.00130034 -0.000898131 0)
(0.00142117 -0.000281096 0)
(0.00148787 0.00046832 0)
(0.00153249 0.000916707 0)
(0.00175113 0.00157734 0)
(0.00238893 0.00243881 0)
(0.00352692 0.00350399 0)
(0.00509786 0.00477271 0)
(0.00683238 0.0035007 0)
(0.00781671 0.00165249 0)
(0.0078168 0.0130553 0)
(0.00757334 0.0207632 0)
(0.00769568 0.0183146 0)
(0.00884204 0.0117564 0)
(0.0106149 0.008466 0)
(0.0113088 0.0080353 0)
(0.0112291 0.0101085 0)
(0.011478 0.0107075 0)
(0.0122826 0.0105675 0)
(0.0130398 0.0114867 0)
(0.0135523 0.0128807 0)
(0.0140967 0.0144491 0)
(0.014662 0.0159698 0)
(0.0151855 0.0174202 0)
(0.0156731 0.0188417 0)
(0.0161233 0.0201453 0)
(0.0165238 0.021307 0)
(0.0168673 0.0223195 0)
(-4.64056e-07 -0.00019455 0)
(-3.51678e-06 -0.000555158 0)
(-8.83342e-06 -0.000887156 0)
(-1.57227e-05 -0.00119058 0)
(-2.36354e-05 -0.00146538 0)
(-3.18458e-05 -0.00171169 0)
(-4.00222e-05 -0.00192947 0)
(-4.74614e-05 -0.00211898 0)
(-5.39663e-05 -0.00228018 0)
(-5.87971e-05 -0.00241342 0)
(-6.18822e-05 -0.00251867 0)
(-6.24294e-05 -0.00259633 0)
(-6.05029e-05 -0.00264638 0)
(-5.52506e-05 -0.00266921 0)
(-4.68724e-05 -0.00266486 0)
(-3.44305e-05 -0.00263367 0)
(-1.82839e-05 -0.00257603 0)
(2.44114e-06 -0.00249237 0)
(2.6921e-05 -0.00238373 0)
(5.59346e-05 -0.00224994 0)
(8.94817e-05 -0.00209228 0)
(0.000130604 -0.00190982 0)
(0.000181817 -0.00170587 0)
(0.000248135 -0.00147839 0)
(0.000331795 -0.00123428 0)
(0.000433402 -0.000972915 0)
(0.000551898 -0.000686326 0)
(0.000680464 -0.000320494 0)
(0.000803923 0.000142451 0)
(0.000900055 0.000613834 0)
(0.000973357 0.000904963 0)
(0.00102971 0.00131065 0)
(0.00125501 0.00214347 0)
(0.00189126 0.00294368 0)
(0.00297172 0.00370724 0)
(0.00397845 0.00153594 0)
(0.00417703 0.00989135 0)
(0.0039749 0.0166841 0)
(0.0036193 0.0184163 0)
(0.00375924 0.010899 0)
(0.0049538 0.00333409 0)
(0.00561498 0.00434257 0)
(0.00512347 0.00800952 0)
(0.00531155 0.00909 0)
(0.00585156 0.00924453 0)
(0.00630559 0.0098034 0)
(0.00677088 0.0108703 0)
(0.00731043 0.0122348 0)
(0.00789101 0.0137118 0)
(0.00849135 0.0151716 0)
(-9.67066e-08 -0.000182935 0)
(-1.63274e-06 -0.000525122 0)
(-4.64821e-06 -0.000843548 0)
(-8.87608e-06 -0.00113808 0)
(-1.39289e-05 -0.00140869 0)
(-1.94306e-05 -0.00165532 0)
(-2.50235e-05 -0.00187807 0)
(-3.03514e-05 -0.0020769 0)
(-3.50699e-05 -0.002252 0)
(-3.88134e-05 -0.0024034 0)
(-4.12536e-05 -0.00253132 0)
(-4.20095e-05 -0.00263586 0)
(-4.07782e-05 -0.0027173 0)
(-3.71523e-05 -0.00277582 0)
(-3.0865e-05 -0.00281172 0)
(-2.14688e-05 -0.00282528 0)
(-8.75212e-06 -0.00281679 0)
(7.77748e-06 -0.00278671 0)
(2.8239e-05 -0.00273524 0)
(5.3175e-05 -0.00266308 0)
(8.26137e-05 -0.0025702 0)
(0.000117197 -0.00245782 0)
(0.000156854 -0.0023257 0)
(0.000202272 -0.00217599 0)
(0.000253166 -0.00200811 0)
(0.000310196 -0.00182545 0)
(0.000373405 -0.00162622 0)
(0.00044476 -0.00141532 0)
(0.000525065 -0.00118937 0)
(0.000615153 -0.000956356 0)
(0.000714399 -0.00071055 0)
(0.000823145 -0.000448132 0)
(0.000942997 -0.000111598 0)
(0.00104474 0.000157957 0)
(0.00110457 0.000460169 0)
(0.00114331 0.000628507 0)
(0.00136147 0.00125588 0)
(0.00190951 0.00169821 0)
(0.00273776 0.00208129 0)
(0.00368929 0.000720188 0)
(0.00408148 0.00100454 0)
(0.00391562 0.00878416 0)
(0.00355225 0.0108152 0)
(0.00382026 0.00725981 0)
(0.00448256 0.00531671 0)
(0.00468974 0.00605542 0)
(0.0049169 0.00632413 0)
(0.00524943 0.00666538 0)
(0.00561591 0.00710136 0)
(0.00607193 0.00769022 0)
(-4.02486e-07 -0.000168985 0)
(-3.0496e-06 -0.000487308 0)
(-7.90254e-06 -0.000785981 0)
(-1.46165e-05 -0.00106495 0)
(-2.28015e-05 -0.0013242 0)
(-3.2126e-05 -0.00156375 0)
(-4.22523e-05 -0.00178366 0)
(-5.28759e-05 -0.00198403 0)
(-6.36474e-05 -0.00216494 0)
(-7.42704e-05 -0.00232654 0)
(-8.43826e-05 -0.00246895 0)
(-9.37068e-05 -0.00259234 0)
(-0.000101867 -0.00269686 0)
(-0.000108616 -0.00278273 0)
(-0.000113561 -0.00285009 0)
(-0.000116496 -0.00289924 0)
(-0.000117006 -0.00293033 0)
(-0.000114944 -0.00294371 0)
(-0.000109863 -0.00293952 0)
(-0.000101691 -0.00291819 0)
(-8.99434e-05 -0.00287987 0)
(-7.4643e-05 -0.00282507 0)
(-5.52616e-05 -0.0027539 0)
(-3.19544e-05 -0.00266703 0)
(-4.15784e-06 -0.00256446 0)
(2.77936e-05 -0.00244711 0)
(6.45029e-05 -0.00231475 0)
(0.00010544 -0.00216875 0)
(0.000151256 -0.00200853 0)
(0.000201196 -0.00183628 0)
(0.000256084 -0.0016506 0)
(0.000315291 -0.00145482 0)
(0.000379963 -0.00124613 0)
(0.000448348 -0.00103058 0)
(0.000520982 -0.000801318 0)
(0.00059817 -0.000561816 0)
(0.000685687 -0.000283622 0)
(0.000767686 -6.21711e-05 0)
(0.00081276 0.000210563 0)
(0.000819881 0.000372204 0)
(0.000830202 0.000715519 0)
(0.0009665 0.00125662 0)
(0.00140116 0.00161159 0)
(0.00202935 0.000206205 0)
(0.00226835 0.00282075 0)
(0.00221275 0.0046414 0)
(0.00234356 0.00365437 0)
(0.00265102 0.00334563 0)
(0.0029424 0.00257941 0)
(0.00331091 0.00192592 0)
(-1.71788e-07 -0.000151079 0)
(-2.57443e-06 -0.000437162 0)
(-7.52369e-06 -0.000707236 0)
(-1.48475e-05 -0.000961331 0)
(-2.42244e-05 -0.0011995 0)
(-3.53519e-05 -0.0014218 0)
(-4.79415e-05 -0.00162832 0)
(-6.17095e-05 -0.00181914 0)
(-7.63669e-05 -0.00199437 0)
(-9.16243e-05 -0.00215408 0)
(-0.000107191 -0.00229841 0)
(-0.000122777 -0.00242744 0)
(-0.000138095 -0.00254131 0)
(-0.00015286 -0.00264011 0)
(-0.000166788 -0.00272401 0)
(-0.000179602 -0.00279307 0)
(-0.000191026 -0.00284748 0)
(-0.000200795 -0.00288731 0)
(-0.000208641 -0.00291277 0)
(-0.000214317 -0.00292389 0)
(-0.000217561 -0.00292092 0)
(-0.000218151 -0.00290386 0)
(-0.000215832 -0.002873 0)
(-0.000210414 -0.00282829 0)
(-0.000201649 -0.00277008 0)
(-0.000189388 -0.00269826 0)
(-0.000173385 -0.00261321 0)
(-0.00015355 -0.00251478 0)
(-0.000129635 -0.00240341 0)
(-0.00010163 -0.00227884 0)
(-6.92862e-05 -0.00214161 0)
(-3.27029e-05 -0.00199133 0)
(8.39593e-06 -0.0018287 0)
(5.38015e-05 -0.00165319 0)
(0.000103885 -0.00146558 0)
(0.000158459 -0.00126517 0)
(0.000217667 -0.00105297 0)
(0.000280847 -0.000828842 0)
(0.000346959 -0.000592724 0)
(0.000416796 -0.000339358 0)
(0.000492198 -6.01218e-05 0)
(0.000564454 0.000169347 0)
(0.000628084 0.000376423 0)
(0.000663691 0.000502367 0)
(0.000702633 0.000914555 0)
(0.000850932 0.000829871 0)
(0.00115431 -0.000210178 0)
(0.00133775 0.000387952 0)
(0.0014463 9.80686e-05 0)
(0.00156015 6.67228e-05 0)
(-5.07271e-07 -0.000132463 0)
(-4.45779e-06 -0.00038382 0)
(-1.20654e-05 -0.000621855 0)
(-2.29853e-05 -0.000846792 0)
(-3.68017e-05 -0.00105883 0)
(-5.31627e-05 -0.00125818 0)
(-7.17593e-05 -0.001445 0)
(-9.22898e-05 -0.00161946 0)
(-0.000114462 -0.0017817 0)
(-0.000137983 -0.00193187 0)
(-0.000162572 -0.00207008 0)
(-0.000187946 -0.00219647 0)
(-0.000213836 -0.00231114 0)
(-0.000239968 -0.00241424 0)
(-0.000266081 -0.00250584 0)
(-0.00029191 -0.0025861 0)
(-0.000317203 -0.00265509 0)
(-0.000341697 -0.00271296 0)
(-0.000365149 -0.00275977 0)
(-0.000387299 -0.00279568 0)
(-0.000407906 -0.00282075 0)
(-0.000426715 -0.00283514 0)
(-0.000443485 -0.00283888 0)
(-0.000457961 -0.00283217 0)
(-0.000469901 -0.002815 0)
(-0.00047905 -0.00278759 0)
(-0.000485158 -0.00274989 0)
(-0.000487971 -0.00270214 0)
(-0.000487224 -0.00264424 0)
(-0.000482664 -0.00257643 0)
(-0.000474003 -0.00249856 0)
(-0.000460992 -0.00241089 0)
(-0.000443309 -0.00231315 0)
(-0.000420713 -0.00220562 0)
(-0.000392837 -0.0020879 0)
(-0.000359461 -0.00196026 0)
(-0.000320154 -0.00182218 0)
(-0.000274683 -0.00167382 0)
(-0.000222455 -0.00151453 0)
(-0.000163243 -0.00134418 0)
(-9.67466e-05 -0.00116208 0)
(-2.41008e-05 -0.00096811 0)
(5.47462e-05 -0.00076058 0)
(0.000141775 -0.000528663 0)
(0.000240531 -0.000296797 0)
(0.000323416 -0.000273788 0)
(0.000366007 -0.000239283 0)
(0.000398109 -0.000258525 0)
(0.000473233 -0.000490988 0)
(0.000553679 -0.000744868 0)
(-3.54209e-07 -0.00010049 0)
(-3.74121e-06 -0.000294132 0)
(-1.04613e-05 -0.000480223 0)
(-2.02612e-05 -0.000658572 0)
(-3.27807e-05 -0.000829027 0)
(-4.77129e-05 -0.000991469 0)
(-6.47891e-05 -0.0011458 0)
(-8.37577e-05 -0.00129193 0)
(-0.00010437 -0.00142981 0)
(-0.000126387 -0.00155936 0)
(-0.000149571 -0.00168057 0)
(-0.000173699 -0.0017934 0)
(-0.000198543 -0.00189786 0)
(-0.00022389 -0.00199395 0)
(-0.000249522 -0.00208169 0)
(-0.000275233 -0.00216113 0)
(-0.000300813 -0.00223231 0)
(-0.000326064 -0.00229528 0)
(-0.000350778 -0.00235014 0)
(-0.000374762 -0.00239696 0)
(-0.000397813 -0.00243586 0)
(-0.000419739 -0.00246693 0)
(-0.000440337 -0.00249035 0)
(-0.000459415 -0.0025062 0)
(-0.000476769 -0.0025147 0)
(-0.000492205 -0.00251598 0)
(-0.000505513 -0.00251028 0)
(-0.000516492 -0.00249775 0)
(-0.000524927 -0.0024787 0)
(-0.000530603 -0.00245326 0)
(-0.000533293 -0.00242184 0)
(-0.000532766 -0.00238456 0)
(-0.00052878 -0.00234192 0)
(-0.000521075 -0.00229402 0)
(-0.000509388 -0.00224149 0)
(-0.000493422 -0.00218437 0)
(-0.000472885 -0.00212347 0)
(-0.000447427 -0.00205875 0)
(-0.000416719 -0.00199123 0)
(-0.000380339 -0.00192075 0)
(-0.000337892 -0.00184865 0)
(-0.000288792 -0.00177449 0)
(-0.000232518 -0.00169999 0)
(-0.000168712 -0.00162425 0)
(-9.7795e-05 -0.00154993 0)
(-2.08185e-05 -0.00147568 0)
(6.20121e-05 -0.00139492 0)
(0.000132736 -0.00144401 0)
(0.000186321 -0.0015128 0)
(0.000237601 -0.00157542 0)
(-2.17935e-07 -8.56333e-05 0)
(-2.27052e-06 -0.000251265 0)
(-6.36405e-06 -0.000411182 0)
(-1.23563e-05 -0.000565296 0)
(-2.00425e-05 -0.000713528 0)
(-2.92408e-05 -0.000855814 0)
(-3.979e-05 -0.000992097 0)
(-5.15299e-05 -0.00112232 0)
(-6.4302e-05 -0.00124645 0)
(-7.79449e-05 -0.00136443 0)
(-9.23009e-05 -0.00147625 0)
(-0.00010721 -0.00158188 0)
(-0.000122516 -0.00168131 0)
(-0.000138061 -0.00177455 0)
(-0.000153691 -0.0018616 0)
(-0.000169251 -0.00194249 0)
(-0.000184592 -0.00201725 0)
(-0.000199557 -0.00208593 0)
(-0.000214003 -0.00214859 0)
(-0.000227778 -0.00220529 0)
(-0.00024074 -0.00225612 0)
(-0.000252743 -0.00230118 0)
(-0.00026365 -0.00234056 0)
(-0.000273317 -0.0023744 0)
(-0.000281616 -0.00240283 0)
(-0.000288406 -0.00242602 0)
(-0.000293568 -0.00244412 0)
(-0.000296966 -0.00245732 0)
(-0.00029849 -0.00246583 0)
(-0.000298011 -0.00246988 0)
(-0.000295431 -0.00246969 0)
(-0.000290629 -0.00246555 0)
(-0.000283522 -0.00245773 0)
(-0.000273998 -0.00244654 0)
(-0.000261991 -0.00243232 0)
(-0.000247402 -0.00241543 0)
(-0.000230188 -0.00239627 0)
(-0.000210263 -0.00237523 0)
(-0.000187611 -0.00235283 0)
(-0.000162167 -0.00232946 0)
(-0.000133944 -0.00230579 0)
(-0.000102906 -0.00228222 0)
(-6.90975e-05 -0.00225962 0)
(-3.25034e-05 -0.00223834 0)
(6.85122e-06 -0.00221953 0)
(4.88851e-05 -0.00220335 0)
(9.31795e-05 -0.00219123 0)
(0.000138057 -0.00218301 0)
(0.000179266 -0.0021798 0)
(0.000205879 -0.00218668 0)
(-1.60862e-07 -7.25843e-05 0)
(-1.44852e-06 -0.000214356 0)
(-3.96673e-06 -0.000352563 0)
(-7.6205e-06 -0.000487043 0)
(-1.229e-05 -0.000617656 0)
(-1.78715e-05 -0.000744283 0)
(-2.42709e-05 -0.000866821 0)
(-3.13946e-05 -0.000985177 0)
(-3.91465e-05 -0.00109927 0)
(-4.74305e-05 -0.00120904 0)
(-5.6149e-05 -0.00131442 0)
(-6.52049e-05 -0.00141538 0)
(-7.45003e-05 -0.00151189 0)
(-8.39383e-05 -0.00160391 0)
(-9.34214e-05 -0.00169145 0)
(-0.000102853 -0.00177451 0)
(-0.000112138 -0.0018531 0)
(-0.000121179 -0.00192723 0)
(-0.000129884 -0.00199694 0)
(-0.000138159 -0.00206228 0)
(-0.000145913 -0.00212328 0)
(-0.000153056 -0.00218002 0)
(-0.0001595 -0.00223256 0)
(-0.000165159 -0.00228097 0)
(-0.000169952 -0.00232535 0)
(-0.000173795 -0.00236578 0)
(-0.000176615 -0.00240239 0)
(-0.000178337 -0.00243526 0)
(-0.000178892 -0.00246453 0)
(-0.000178214 -0.00249031 0)
(-0.000176248 -0.00251276 0)
(-0.000172935 -0.00253198 0)
(-0.000168233 -0.00254815 0)
(-0.000162097 -0.00256139 0)
(-0.0001545 -0.00257189 0)
(-0.000145412 -0.00257977 0)
(-0.000134828 -0.00258522 0)
(-0.000122734 -0.00258836 0)
(-0.000109153 -0.00258942 0)
(-9.40901e-05 -0.00258846 0)
(-7.76009e-05 -0.00258575 0)
(-5.97178e-05 -0.00258133 0)
(-4.05333e-05 -0.00257547 0)
(-2.01123e-05 -0.00256815 0)
(1.40594e-06 -0.0025597 0)
(2.38983e-05 -0.00254999 0)
(4.7163e-05 -0.00253948 0)
(7.11138e-05 -0.00252777 0)
(9.58877e-05 -0.00251531 0)
(0.000121751 -0.00250111 0)
(-1.3304e-08 -6.92216e-05 0)
(-5.31539e-07 -0.000204148 0)
(-1.65683e-06 -0.00033554 0)
(-3.3692e-06 -0.00046337 0)
(-5.60716e-06 -0.000587611 0)
(-8.3128e-06 -0.000708237 0)
(-1.14357e-05 -0.000825223 0)
(-1.49282e-05 -0.00093854 0)
(-1.87438e-05 -0.00104816 0)
(-2.28364e-05 -0.00115406 0)
(-2.71612e-05 -0.00125623 0)
(-3.16733e-05 -0.00135464 0)
(-3.6329e-05 -0.00144929 0)
(-4.10846e-05 -0.00154017 0)
(-4.58974e-05 -0.00162729 0)
(-5.07246e-05 -0.00171066 0)
(-5.55243e-05 -0.00179029 0)
(-6.02545e-05 -0.0018662 0)
(-6.48743e-05 -0.00193843 0)
(-6.93427e-05 -0.00200701 0)
(-7.36201e-05 -0.00207197 0)
(-7.76664e-05 -0.00213339 0)
(-8.1444e-05 -0.0021913 0)
(-8.49143e-05 -0.00224577 0)
(-8.80416e-05 -0.00229688 0)
(-9.07893e-05 -0.0023447 0)
(-9.31247e-05 -0.00238931 0)
(-9.50135e-05 -0.0024308 0)
(-9.64263e-05 -0.00246927 0)
(-9.73318e-05 -0.00250482 0)
(-9.77046e-05 -0.00253755 0)
(-9.75169e-05 -0.00256758 0)
(-9.67479e-05 -0.00259502 0)
(-9.53735e-05 -0.00262 0)
(-9.33782e-05 -0.00264264 0)
(-9.0742e-05 -0.00266307 0)
(-8.74548e-05 -0.00268143 0)
(-8.35009e-05 -0.00269786 0)
(-7.88759e-05 -0.00271249 0)
(-7.35682e-05 -0.00272549 0)
(-6.75788e-05 -0.00273697 0)
(-6.09001e-05 -0.00274713 0)
(-5.35373e-05 -0.00275607 0)
(-4.54861e-05 -0.002764 0)
(-3.6758e-05 -0.00277104 0)
(-2.73581e-05 -0.00277738 0)
(-1.72985e-05 -0.00278316 0)
(-6.52303e-06 -0.0027886 0)
(5.15173e-06 -0.00279375 0)
(1.77611e-05 -0.00279888 0)
(-6.20546e-08 -6.36686e-05 0)
(5.11653e-08 -0.000189072 0)
(4.49859e-07 -0.000312307 0)
(1.15618e-06 -0.00043316 0)
(2.14048e-06 -0.000551442 0)
(3.3675e-06 -0.000666994 0)
(4.80499e-06 -0.000779675 0)
(6.42344e-06 -0.000889363 0)
(8.19521e-06 -0.000995954 0)
(1.00941e-05 -0.00109936 0)
(1.2096e-05 -0.00119951 0)
(1.41791e-05 -0.00129634 0)
(1.6324e-05 -0.00138981 0)
(1.85136e-05 -0.00147989 0)
(2.07339e-05 -0.00156656 0)
(2.29728e-05 -0.00164981 0)
(2.52214e-05 -0.00172964 0)
(2.74728e-05 -0.00180605 0)
(2.97231e-05 -0.00187907 0)
(3.19698e-05 -0.00194872 0)
(3.42135e-05 -0.00201505 0)
(3.64555e-05 -0.00207808 0)
(3.87002e-05 -0.00213787 0)
(4.09519e-05 -0.00219446 0)
(4.32178e-05 -0.00224793 0)
(4.5504e-05 -0.00229833 0)
(4.78195e-05 -0.00234574 0)
(5.01714e-05 -0.00239022 0)
(5.25693e-05 -0.00243186 0)
(5.502e-05 -0.00247073 0)
(5.75324e-05 -0.00250692 0)
(6.01119e-05 -0.00254052 0)
(6.27657e-05 -0.00257163 0)
(6.54964e-05 -0.00260032 0)
(6.83085e-05 -0.0026267 0)
(7.12004e-05 -0.00265086 0)
(7.4173e-05 -0.00267291 0)
(7.72194e-05 -0.00269294 0)
(8.03353e-05 -0.00271106 0)
(8.35079e-05 -0.00272735 0)
(8.67269e-05 -0.00274194 0)
(8.99725e-05 -0.0027549 0)
(9.32276e-05 -0.00276636 0)
(9.64626e-05 -0.0027764 0)
(9.96458e-05 -0.00278514 0)
(0.000102733 -0.00279265 0)
(0.000105726 -0.00279905 0)
(0.000108745 -0.00280438 0)
(0.000111916 -0.00280873 0)
(0.00011425 -0.00281225 0)
(2.55121e-07 -7.39863e-05 0)
(1.55787e-06 -0.000217688 0)
(3.91128e-06 -0.00035709 0)
(7.17707e-06 -0.000492148 0)
(1.12422e-05 -0.000622829 0)
(1.60106e-05 -0.000749118 0)
(2.13883e-05 -0.000871007 0)
(2.72775e-05 -0.000988502 0)
(3.35788e-05 -0.00110162 0)
(4.01945e-05 -0.00121038 0)
(4.70296e-05 -0.00131482 0)
(5.39946e-05 -0.00141498 0)
(6.10046e-05 -0.00151093 0)
(6.79816e-05 -0.00160271 0)
(7.48534e-05 -0.0016904 0)
(8.15552e-05 -0.00177408 0)
(8.80281e-05 -0.00185381 0)
(9.42209e-05 -0.00192969 0)
(0.000100088 -0.00200179 0)
(0.00010559 -0.00207023 0)
(0.000110693 -0.00213507 0)
(0.00011537 -0.00219643 0)
(0.000119598 -0.00225439 0)
(0.000123358 -0.00230906 0)
(0.000126635 -0.00236053 0)
(0.000129419 -0.00240889 0)
(0.000131701 -0.00245424 0)
(0.000133477 -0.00249668 0)
(0.000134743 -0.0025363 0)
(0.000135498 -0.00257319 0)
(0.000135739 -0.00260744 0)
(0.000135469 -0.00263914 0)
(0.000134687 -0.00266837 0)
(0.000133394 -0.00269522 0)
(0.00013159 -0.00271977 0)
(0.000129275 -0.00274209 0)
(0.000126446 -0.00276226 0)
(0.000123104 -0.00278035 0)
(0.000119242 -0.00279642 0)
(0.00011486 -0.00281055 0)
(0.000109948 -0.0028228 0)
(0.000104505 -0.00283322 0)
(9.85189e-05 -0.00284186 0)
(9.19817e-05 -0.0028488 0)
(8.48792e-05 -0.00285406 0)
(7.72423e-05 -0.0028577 0)
(6.92056e-05 -0.00285975 0)
(6.09075e-05 -0.00286022 0)
(5.15493e-05 -0.00285923 0)
(3.77634e-05 -0.00285726 0)
(1.97198e-07 -7.59658e-05 0)
(3.81824e-06 -0.000225272 0)
(1.0959e-05 -0.000371133 0)
(2.11504e-05 -0.000512854 0)
(3.36735e-05 -0.000649915 0)
(4.79098e-05 -0.00078194 0)
(6.33522e-05 -0.000908669 0)
(7.95688e-05 -0.00102993 0)
(9.61847e-05 -0.00114564 0)
(0.000112875 -0.00125577 0)
(0.000129363 -0.00136035 0)
(0.000145411 -0.00145943 0)
(0.000160823 -0.00155312 0)
(0.000175436 -0.00164155 0)
(0.000189117 -0.00172485 0)
(0.00020176 -0.00180319 0)
(0.000213284 -0.00187674 0)
(0.000223626 -0.00194565 0)
(0.000232746 -0.00201012 0)
(0.000240618 -0.00207031 0)
(0.00024723 -0.0021264 0)
(0.000252583 -0.00217856 0)
(0.000256689 -0.00222695 0)
(0.000259566 -0.00227174 0)
(0.000261244 -0.00231308 0)
(0.000261755 -0.00235111 0)
(0.000261141 -0.00238597 0)
(0.000259441 -0.00241781 0)
(0.000256705 -0.00244672 0)
(0.000252977 -0.00247285 0)
(0.000248309 -0.00249628 0)
(0.000242747 -0.00251713 0)
(0.000236344 -0.00253549 0)
(0.000229145 -0.00255145 0)
(0.0002212 -0.00256508 0)
(0.000212549 -0.00257648 0)
(0.00020324 -0.00258572 0)
(0.000193304 -0.00259287 0)
(0.000182786 -0.002598 0)
(0.000171708 -0.00260121 0)
(0.000160108 -0.00260255 0)
(0.000148 -0.00260214 0)
(0.000135404 -0.00260004 0)
(0.00012232 -0.0025964 0)
(0.000108817 -0.00259131 0)
(9.50956e-05 -0.00258494 0)
(8.13551e-05 -0.00257743 0)
(6.64642e-05 -0.00256919 0)
(4.51763e-05 -0.00256089 0)
(1.36979e-05 -0.00255255 0)
(1.92942e-06 -0.00013637 0)
(1.27704e-05 -0.000380336 0)
(3.07076e-05 -0.000600703 0)
(5.36394e-05 -0.000799682 0)
(7.97232e-05 -0.000979257 0)
(0.000107614 -0.00114122 0)
(0.000136302 -0.0012872 0)
(0.000164993 -0.00141871 0)
(0.000193058 -0.00153712 0)
(0.000220003 -0.00164371 0)
(0.000245456 -0.00173961 0)
(0.00026914 -0.00182587 0)
(0.000290856 -0.00190344 0)
(0.000310472 -0.00197319 0)
(0.000327906 -0.00203589 0)
(0.000343122 -0.00209226 0)
(0.000356114 -0.00214294 0)
(0.000366907 -0.00218851 0)
(0.000375543 -0.0022295 0)
(0.000382085 -0.00226636 0)
(0.000386603 -0.00229953 0)
(0.000389181 -0.00232938 0)
(0.000389902 -0.00235626 0)
(0.00038886 -0.00238046 0)
(0.000386142 -0.00240226 0)
(0.000381842 -0.00242188 0)
(0.00037604 -0.00243955 0)
(0.000368826 -0.00245543 0)
(0.000360265 -0.0024697 0)
(0.000350432 -0.00248246 0)
(0.000339373 -0.00249385 0)
(0.00032714 -0.00250393 0)
(0.000313748 -0.00251281 0)
(0.000299215 -0.0025205 0)
(0.000283511 -0.00252707 0)
(0.00026661 -0.00253251 0)
(0.000248417 -0.00253687 0)
(0.000228837 -0.00254009 0)
(0.000207687 -0.00254221 0)
(0.000184776 -0.00254315 0)
(0.000159788 -0.00254293 0)
(0.000132381 -0.00254145 0)
(0.000102068 -0.00253876 0)
(6.83862e-05 -0.00253474 0)
(3.0786e-05 -0.00252948 0)
(-1.17089e-05 -0.00252288 0)
(-6.21977e-05 -0.0025151 0)
(-0.000127503 -0.00250601 0)
(-0.00020195 -0.00249587 0)
(-0.000274961 -0.00248251 0)
(7.01406e-05 -0.000206977 0)
(0.000202555 -0.000554978 0)
(0.000310311 -0.000844923 0)
(0.000397529 -0.0010865 0)
(0.000468062 -0.00128768 0)
(0.000524617 -0.00145507 0)
(0.000569083 -0.00159417 0)
(0.000603035 -0.00170958 0)
(0.000627863 -0.00180518 0)
(0.000644781 -0.00188421 0)
(0.000654839 -0.00194941 0)
(0.000658943 -0.00200304 0)
(0.000657877 -0.00204702 0)
(0.000652318 -0.00208295 0)
(0.000642852 -0.00211218 0)
(0.000629987 -0.00213583 0)
(0.000614164 -0.00215483 0)
(0.000595764 -0.00216997 0)
(0.000575119 -0.00218189 0)
(0.000552519 -0.00219114 0)
(0.000528214 -0.00219814 0)
(0.000502424 -0.00220325 0)
(0.000475345 -0.00220674 0)
(0.000447144 -0.00220883 0)
(0.000417977 -0.00220967 0)
(0.000387978 -0.00220935 0)
(0.000357277 -0.0022079 0)
(0.000325988 -0.00220532 0)
(0.000294228 -0.00220153 0)
(0.000262103 -0.0021964 0)
(0.000229732 -0.00218973 0)
(0.000197226 -0.00218127 0)
(0.000164719 -0.00217064 0)
(0.000132343 -0.00215746 0)
(0.000100263 -0.00214111 0)
(6.86509e-05 -0.00212099 0)
(3.77263e-05 -0.0020962 0)
(7.72209e-06 -0.00206584 0)
(-2.10584e-05 -0.00202857 0)
(-4.82868e-05 -0.00198307 0)
(-7.35368e-05 -0.00192739 0)
(-9.63415e-05 -0.00185963 0)
(-0.000116116 -0.00177693 0)
(-0.000132219 -0.00167658 0)
(-0.000143766 -0.0015544 0)
(-0.000149408 -0.00140653 0)
(-0.00014713 -0.00122675 0)
(-0.000136376 -0.0010093 0)
(-0.000125721 -0.000745193 0)
(-0.000130587 -0.000360208 0)
(-0.00226143 0.021572 0)
(-0.00203576 0.0215005 0)
(-0.00182471 0.0214243 0)
(-0.00162773 0.0213436 0)
(-0.00144426 0.0212585 0)
(-0.00127379 0.0211691 0)
(-0.00111583 0.0210755 0)
(-0.000969922 0.0209779 0)
(-0.000835611 0.0208763 0)
(-0.00071248 0.0207708 0)
(-0.000600126 0.0206614 0)
(-0.000498168 0.0205483 0)
(-0.000406238 0.0204313 0)
(-0.000323987 0.0203107 0)
(-0.000251083 0.0201865 0)
(-0.000187204 0.0200587 0)
(-0.000132044 0.0199274 0)
(-8.5309e-05 0.0197927 0)
(-4.67175e-05 0.0196545 0)
(-1.59976e-05 0.0195131 0)
(7.1115e-06 0.0193683 0)
(2.28604e-05 0.0192204 0)
(3.14911e-05 0.0190694 0)
(3.3238e-05 0.0189154 0)
(2.83266e-05 0.0187584 0)
(1.69748e-05 0.0185985 0)
(-6.06991e-07 0.0184358 0)
(-2.42149e-05 0.0182704 0)
(-5.36513e-05 0.0181023 0)
(-8.8725e-05 0.0179317 0)
(-0.00012925 0.0177585 0)
(-0.000175047 0.017583 0)
(-0.00022594 0.0174051 0)
(-0.000281759 0.0172249 0)
(-0.000342337 0.0170425 0)
(-0.000407513 0.016858 0)
(-0.000477126 0.0166714 0)
(-0.000551022 0.0164829 0)
(-0.000629047 0.0162925 0)
(-0.000711047 0.0161003 0)
(-0.000796872 0.0159064 0)
(-0.00088637 0.015711 0)
(-0.000979388 0.0155142 0)
(-0.00107577 0.0153161 0)
(-0.00117537 0.0151169 0)
(-0.00127803 0.0149168 0)
(-0.00138358 0.0147159 0)
(-0.00149185 0.0145143 0)
(-0.00160262 0.0143119 0)
(-0.00171591 0.0141085 0)
(0.00112205 0.0170289 0)
(0.00132621 0.0172524 0)
(0.00152042 0.0174561 0)
(0.00170432 0.0176411 0)
(0.00187769 0.0178084 0)
(0.00204046 0.0179588 0)
(0.00219262 0.0180932 0)
(0.00233428 0.0182124 0)
(0.00246557 0.0183172 0)
(0.00258671 0.0184082 0)
(0.00269792 0.018486 0)
(0.00279946 0.0185514 0)
(0.00289161 0.0186048 0)