/*--------------------------------*- C++ -*----------------------------------*\
| =========                 |                                                 |
| \\      /  F ield         | OpenFOAM: The Open Source CFD Toolbox           |
|  \\    /   O peration     | Version:  2.4.0                                 |
|   \\  /    A nd           | Web:      www.OpenFOAM.org                      |
|    \\/     M anipulation  |                                                 |
\*---------------------------------------------------------------------------*/
FoamFile
{
    version     2.0;
    format      ascii;
    class       volScalarField;
    location    "2.9";
    object      p_rgh;
}
// * * * * * * * * * * * * * * * * * * * * * * * * * * * * * * * * * * * * * //

dimensions      [1 -1 -2 0 0 0 0];

internalField   nonuniform List<scalar> 
8000
(
78.4059
78.3052
78.1972
78.1119
78.0823
78.0866
77.7785
76.282
73.8744
17.6463
0.0406943
0.0398135
0.0352096
0.034
0.0337777
0.0335729
0.0333318
0.0331022
0.0329147
0.0327338
0.0325613
0.0324097
0.0324851
0.0320535
0.0319068
0.0319183
0.032233
0.0316963
0.0316217
0.0315221
0.031452
0.0313748
0.0313031
0.0312386
0.0311736
0.0311147
0.0310599
0.0310091
0.0309615
0.0309167
0.0308743
0.0308346
0.0307968
0.0307607
0.0307261
0.0306933
0.0306614
0.0306306
0.0306008
0.030572
77.5599
77.4974
77.459
77.5335
77.6768
76.9998
73.2209
67.1556
2.88898
0.0212251
0.0690965
0.0353725
0.0300164
0.0297676
0.0296253
0.0294109
0.0287205
0.0286647
0.0287123
0.0288175
0.0289228
0.0290527
0.0291731
0.0298367
0.0291718
0.0292488
0.0293431
0.0294134
0.0294961
0.0296001
0.029622
0.0297078
0.0298284
0.0295166
0.0295708
0.0295965
0.029632
0.0296614
0.0296853
0.029705
0.0297215
0.0297359
0.0297422
0.0297472
0.0297682
0.0297641
0.0297537
0.0297478
0.0297439
0.0297389
71.9532
72.0056
72.0286
72.0219
71.9996
71.9341
71.6555
70.9504
11.6159
3.13068
3.15929
-0.220529
-0.0485809
0.0252364
0.0310987
0.0260825
0.0258713
0.0258572
0.0259764
0.0261182
0.0261846
0.0255984
0.0255718
0.0256195
0.0257266
0.0258994
0.0261113
0.0263686
0.0269414
0.0271588
0.0273308
0.0275344
0.0277232
0.0278976
0.0280606
0.0282141
0.0283481
0.0284706
0.0285829
0.0286855
0.0288324
0.0298341
0.02906
0.0290575
0.0290936
0.0291462
0.0291894
0.0292256
0.0292545
0.0292875
84.6777
84.7199
84.7871
84.8662
84.9623
85.1068
85.3132
85.3575
84.4625
82.2727
55.1149
-3.06865
-4.359
-0.277081
0.0635983
-0.180695
-0.111559
-0.0465467
-0.00355574
0.00971424
0.0188859
0.0272729
0.0328502
0.0350355
0.0339314
0.0316525
0.0306249
0.0306829
0.0310124
0.0311518
0.0310177
0.030783
0.0306236
0.030507
0.0302931
0.0301905
0.0300684
0.0299541
0.0298341
0.0297126
0.0296565
0.0303769
0.0302706
0.0296653
0.0295344
0.0294573
0.0293817
0.0293165
0.0292417
0.0291854
83.6784
83.7706
83.8755
83.9856
84.1043
84.2364
84.3812
84.5189
84.5963
84.6457
84.3919
83.56
82.7225
77.2299
79.4749
52.2297
17.7552
0.94064
-0.519387
0.221623
0.227152
0.111061
0.0418504
0.029622
0.025834
0.0194435
0.0221511
0.0415066
0.0570852
0.0550037
0.043334
0.034908
0.0322337
0.0321074
0.0321103
0.0319653
0.0318976
0.0319655
0.031599
0.0309463
0.0308168
0.030707
0.030599
0.0305047
0.0309146
0.0307967
0.0306975
0.0306425
0.030171
0.0303961
85.8478
85.9443
86.0469
86.137
86.2157
86.2847
86.3454
86.3967
86.44
86.4764
86.5137
86.5524
86.6166
86.5915
86.5718
86.3882
86.1328
86.0321
86.4366
87.3598
69.0839
49.747
28.364
8.66259
0.757472
1.17748
1.49426
1.31917
0.937979
0.427883
0.108188
0.0496729
0.0678949
0.071371
0.056493
0.0402969
0.0321235
0.030306
0.0298855
0.0292303
0.0285535
0.0282589
0.028329
0.0283398
0.0283399
0.0283182
0.0286086
0.0286288
0.0274557
0.027254
89.2847
89.3153
89.3492
89.3815
89.413
89.4437
89.4742
89.5039
89.5332
89.5615
89.59
89.6183
89.6477
89.6761
89.7058
89.7455
89.81
89.9073
90.0298
90.1984
90.3547
90.51
90.5363
90.3197
89.8957
87.1767
73.1163
51.1822
19.8864
2.12725
2.49428
2.56843
2.13753
1.28446
0.41669
0.117874
0.106177
0.0930308
0.0659522
0.0430707
0.0339608
0.0319955
0.0315852
0.0310246
0.0295729
0.0287301
0.028309
0.0281061
0.0280949
0.0280642
93.1761
93.1619
93.1509
93.1457
93.1456
93.1501
93.1588
93.1719
93.1892
93.2108
93.2364
93.2664
93.3005
93.339
93.3816
93.429
93.4812
93.5386
93.6
93.6665
93.7432
93.8358
93.9531
94.0899
94.2281
94.4
94.5259
94.4958
94.1912
93.7737
87.4796
74.946
43.482
11.2764
4.08508
4.12831
3.54484
1.42562
0.384633
0.181424
0.14468
0.101716
0.0584573
0.0366045
0.0295993
0.0273337
0.0266172
0.0264321
0.0263428
0.0261891
94.9009
94.8875
94.8728
94.8608
94.8519
94.8457
94.842
94.8408
94.8419
94.8456
94.8515
94.8599
94.8706
94.8838
94.8992
94.9172
94.9373
94.96
94.9847
95.0117
95.0404
95.0715
95.104
95.1385
95.1736
95.213
95.2612
95.3191
95.369
95.4125
95.488
95.5404
95.4075
94.8577
86.5364
83.701
59.6453
23.0376
4.49282
3.76795
3.40224
1.63231
0.417219
0.159434
0.0987899
0.0589769
0.0400588
0.0332989
0.0305154
0.0291747
97.4219
97.404
97.3867
97.3727
97.3616
97.353
97.3467
97.3427
97.3411
97.3418
97.3448
97.35
97.3574
97.367
97.3788
97.3927
97.4087
97.4266
97.4465
97.4682
97.4918
97.5169
97.5438
97.5721
97.6017
97.6322
97.6638
97.696
97.7293
97.7639
97.8034
97.8447
97.8722
97.8981
97.9332
98.0159
98.0067
97.6303
90.4527
88.2164
66.1539
23.1822
5.26624
3.72551
1.86878
0.486067
0.170028
0.084405
0.0500141
0.0373216
98.6486
98.6275
98.6046
98.5846
98.5678
98.5537
98.542
98.5327
98.5259
98.5214
98.5195
98.5199
98.5227
98.528
98.5356
98.5457
98.5581
98.5729
98.5901
98.6098
98.6318
98.6562
98.6831
98.7124
98.744
98.7782
98.8148
98.8539
98.8954
98.9395
98.9858
99.0347
99.0863
99.1415
99.2014
99.2633
99.3175
99.3765
99.4351
99.5213
99.4952
98.223
91.0216
75.3718
24.4668
5.13624
2.55996
0.886845
0.328938
0.161183
100.299
100.275
100.251
100.231
100.214
100.199
100.188
100.179
100.172
100.168
100.167
100.168
100.171
100.177
100.186
100.198
100.211
100.228
100.247
100.269
100.293
100.321
100.351
100.384
100.419
100.458
100.499
100.544
100.592
100.643
100.697
100.755
100.816
100.881
100.949
101.022
101.098
101.18
101.268
101.358
101.44
101.511
101.62
101.798
101.774
92.3368
57.521
18.8061
7.01212
2.54549
100.731
100.713
100.693
100.675
100.66
100.646
100.634
100.623
100.615
100.608
100.603
100.599
100.597
100.596
100.598
100.601
100.605
100.611
100.619
100.628
100.639
100.652
100.666
100.682
100.699
100.718
100.738
100.76
100.784
100.809
100.836
100.864
100.894
100.926
100.959
100.994
101.031
101.069
101.109
101.151
101.195
101.242
101.291
101.329
101.358
101.392
101.304
95.4702
72.5784
37.5013
101.556
101.543
101.529
101.516
101.505
101.495
101.486
101.478
101.47
101.464
101.458
101.453
101.449
101.446
101.444
101.442
101.442
101.442
101.442
101.444
101.446
101.449
101.452
101.456
101.46
101.465
101.47
101.476
101.481
101.487
101.494
101.5
101.506
101.512
101.517
101.523
101.528
101.532
101.535
101.538
101.539
101.539
101.537
101.534
101.528
101.519
101.515
101.511
101.417
95.4029
101.657
101.648
101.638
101.629
101.62
101.613
101.606
101.601
101.595
101.591
101.587
101.584
101.582
101.581
101.58
101.58
101.58
101.581
101.583
101.586
101.589
101.593
101.597
101.602
101.608
101.614
101.621
101.629
101.637
101.646
101.655
101.665
101.676
101.687
101.699
101.711
101.724
101.737
101.751
101.765
101.78
101.795
101.811
101.827
101.843
101.861
101.877
101.898
101.931
101.94
102.282
102.279
102.276
102.275
102.273
102.272
102.271
102.27
102.268
102.268
102.267
102.266
102.265
102.265
102.265
102.265
102.265
102.265
102.265
102.266
102.267
102.268
102.27
102.271
102.273
102.276
102.278
102.281
102.285
102.288
102.293
102.297
102.302
102.307
102.313
102.319
102.326
102.333
102.341
102.349
102.358
102.367
102.377
102.388
102.398
102.41
102.423
102.438
102.458
102.469
102.023
102.03
102.036
102.041
102.046
102.05
102.054
102.058
102.061
102.065
102.067
102.07
102.072
102.074
102.076
102.077
102.078
102.079
102.08
102.081
102.081
102.082
102.082
102.082
102.082
102.082
102.082
102.082
102.082
102.082
102.082
102.082
102.082
102.082
102.082
102.083
102.083
102.083
102.084
102.084
102.085
102.086
102.087
102.087
102.088
102.089
102.095
102.1
102.102
102.057
102.933
102.958
102.986
103.008
103.025
103.037
103.046
103.053
103.056
103.057
103.056
103.054
103.05
103.044
103.038
103.03
103.022
103.013
103.004
102.994
102.984
102.974
102.964
102.953
102.943
102.933
102.923
102.913
102.903
102.894
102.885
102.876
102.867
102.859
102.851
102.843
102.836
102.828
102.821
102.814
102.807
102.8
102.792
102.784
102.776
102.768
102.762
102.75
102.714
102.635
102.38
102.444
102.504
102.549
102.584
102.611
102.632
102.648
102.659
102.665
102.669
102.669
102.667
102.662
102.656
102.648
102.638
102.628
102.616
102.604
102.591
102.577
102.563
102.548
102.533
102.518
102.502
102.487
102.471
102.455
102.438
102.422
102.405
102.388
102.371
102.353
102.335
102.316
102.297
102.276
102.255
102.233
102.209
102.184
102.157
102.127
102.088
102.024
101.984
93.9872
107.715
107.326
106.936
106.6
106.308
106.045
105.805
105.586
105.385
105.2
105.031
104.874
104.729
104.594
104.469
104.353
104.246
104.146
104.052
103.966
103.885
103.811
103.742
103.678
103.62
103.566
103.517
103.473
103.434
103.399
103.369
103.344
103.323
103.307
103.296
103.291
103.291
103.297
103.309
103.328
103.355
103.389
103.433
103.487
103.553
103.636
103.739
103.845
103.883
85.0637
0.0305442
0.0305172
0.0304911
0.0304656
0.0304407
0.0304163
0.0303923
0.0303688
0.0303456
0.0303227
0.0303001
0.0302778
0.0302557
0.0302338
0.0302121
0.0301905
0.0301691
0.0301477
0.0301265
0.0301054
0.0300843
0.0300633
0.0300423
0.0300213
0.0300004
0.0299795
0.0299586
0.0299377
0.0299168
0.0298959
0.029875
0.0298542
0.0298333
0.0298124
0.0297915
0.0297706
0.0297497
0.0297288
0.0297079
0.029687
0.0296661
0.0296452
0.0296242
0.0296033
0.0295824
0.0295615
0.0295405
0.0295196
0.0294988
0.0294781
0.0297316
0.0297249
0.0297172
0.0297086
0.0296984
0.0296867
0.0296736
0.0296596
0.0296452
0.0296303
0.0296152
0.0295996
0.0295836
0.0295672
0.0295505
0.0295336
0.0295165
0.0294992
0.0294816
0.029464
0.0294461
0.0294281
0.0294099
0.0293916
0.0293732
0.0293547
0.0293361
0.0293173
0.0292986
0.0292797
0.0292608
0.0292418
0.0292228
0.0292037
0.0291846
0.0291654
0.0291462
0.0291269
0.0291076
0.0290883
0.029069
0.0290496
0.0290302
0.0290108
0.0289914
0.028972
0.0289525
0.0289331
0.0289138
0.0288941
0.0293268
0.0293405
0.0293199
0.0293048
0.0293094
0.0293122
0.0293117
0.0293076
0.0293006
0.0292948
0.0292866
0.0292764
0.029265
0.0292524
0.0292388
0.0292249
0.0292103
0.029195
0.0291796
0.0291639
0.0291475
0.0291308
0.0291136
0.0290955
0.0290769
0.0290576
0.0290377
0.0290178
0.0289979
0.0289782
0.0289588
0.0289395
0.0289204
0.0289014
0.0288826
0.0288639
0.0288453
0.028827
0.0288088
0.0287907
0.0287729
0.0287551
0.0287376
0.0287202
0.028703
0.028686
0.0286691
0.0286524
0.028636
0.02862
0.0291756
0.0295825
0.0293569
0.0292077
0.0292405
0.0291565
0.0291392
0.0292863
0.0292776
0.0288284
0.0287436
0.0287161
0.0286958
0.0286827
0.0286719
0.0286252
0.0285886
0.0285562
0.0285356
0.0285158
0.0284971
0.0284759
0.0284561
0.0284385
0.0284196
0.0284003
0.0283805
0.0283602
0.0283433
0.028327
0.0283105
0.0282941
0.0282775
0.0282609
0.0282438
0.0282266
0.0282094
0.0281923
0.028175
0.0281579
0.028141
0.0281243
0.0281077
0.0280911
0.0280748
0.0280587
0.0280428
0.0280273
0.0280119
0.0279963
0.0302378
0.0299875
0.0299092
0.0298081
0.029742
0.0311755
0.0296213
0.0296939
0.0296084
0.0296207
0.029695
0.0291903
0.0291638
0.0290936
0.0292311
0.0289808
0.0287441
0.0287468
0.0286578
0.0286353
0.0287525
0.0286752
0.0290825
0.0288186
0.0286438
0.028595
0.0285768
0.0293513
0.0281167
0.0280942
0.0280646
0.0280001
0.0279747
0.0279468
0.0279241
0.0279013
0.0278824
0.0278645
0.0278484
0.0278326
0.0278187
0.0278062
0.027795
0.0277843
0.0277743
0.0277661
0.027759
0.0277529
0.0277482
0.0277452
0.0273559
0.0272985
0.0273032
0.0273187
0.0273098
0.0288718
0.0283894
0.0276329
0.027562
0.0275375
0.0274956
0.0275543
0.0280732
0.0280179
0.0278204
0.0277811
0.027412
0.028723
0.0280413
0.0277982
0.0279997
0.02789
0.0278594
0.0284591
0.0279599
0.0278562
0.0277908
0.0276987
0.0276351
0.0288508
0.0284161
0.0281211
0.028199
0.0282226
0.0277385
0.027685
0.0278495
0.0281397
0.0275578
0.0275241
0.0274457
0.0273964
0.0273582
0.0273647
0.0275354
0.0272565
0.0272264
0.0271858
0.0271498
0.0271207
0.0280319
0.0279994
0.0279613
0.0279197
0.0279014
0.0285437
0.0297178
0.0295872
0.0289108
0.0285132
0.0284561
0.0283928
0.028338
0.0282855
0.0284316
0.0285228
0.028487
0.0284084
0.0281315
0.0280077
0.0279644
0.0279195
0.0278738
0.0278113
0.0280392
0.0286112
0.0285438
0.0281922
0.0283957
0.0276329
0.0279677
0.027304
0.0271817
0.0271576
0.0266702
0.0266839
0.0264458
0.0263023
0.0262715
0.0262278
0.0261876
0.0262718
0.0275893
0.0275314
0.0265788
0.0264454
0.0264148
0.0263407
0.0263228
0.027765
0.0260269
0.0269149
0.0269147
0.0271853
0.0284261
0.0284609
0.0277364
0.0275801
0.0275448
0.0275624
0.0275759
0.0275856
0.0275978
0.0278495
0.0282067
0.0280728
0.0278336
0.0277727
0.0277742
0.0277558
0.0277469
0.027741
0.0283024
0.0286343
0.0284726
0.0279474
0.027751
0.02774
0.0272941
0.0280561
0.0276855
0.027942
0.0279987
0.0274775
0.0273401
0.0272692
0.027253
0.0272349
0.0272173
0.0272005
0.0271844
0.0271669
0.0273033
0.0278416
0.0309098
0.026171
0.0257381
0.0258105
0.0257737
0.0259326
0.0284914
0.0281771
0.0281573
0.0281186
0.0280479
0.0289471
0.0280973
0.0280046
0.0279876
0.0279734
0.0279607
0.0279484
0.0280206
0.0284708
0.0277974
0.0278252
0.0278145
0.0279864
0.0282739
0.028273
0.0282439
0.028098
0.0278018
0.0276717
0.0276234
0.0276035
0.0275776
0.0275516
0.027525
0.0274994
0.0275382
0.0278213
0.0278491
0.0274841
0.0271909
0.0270836
0.0270582
0.0270332
0.0270077
0.0269818
0.0269551
0.0269254
0.0268846
0.0271986
0.0281398
0.0281076
0.0273255
0.0264619
0.0260367
0.0260164
0.0318874
0.0292966
0.0280358
0.0274273
0.0275844
0.0276752
0.0272432
0.0272612
0.0272784
0.0273028
0.0273168
0.0273267
0.0273423
0.0273587
0.0274761
0.0279487
0.0279689
0.0279144
0.0280643
0.0282799
0.02758
0.0276056
0.027631
0.0276038
0.0279206
0.0280384
0.027007
0.0268727
0.0268819
0.0268875
0.0268889
0.026892
0.0271705
0.0277847
0.0276757
0.0273296
0.0271986
0.0271651
0.0271279
0.0270865
0.027095
0.0276334
0.0285996
0.0285031
0.0277161
0.0272802
0.0271183
0.0270332
0.0269908
0.0269528
0.0804836
0.0456002
0.0330301
0.0286154
0.0269202
0.026456
0.0264713
0.026506
0.0267417
0.027877
0.0268853
0.0268881
0.0268914
0.0268999
0.0275801
0.0274932
0.0273592
0.0273836
0.0273792
0.0279562
0.0272589
0.0272503
0.0272535
0.02746
0.0279463
0.0275658
0.027303
0.0272656
0.0272463
0.0272379
0.0272325
0.0272269
0.0272311
0.0276169
0.0280011
0.028005
0.0276805
0.0275332
0.0275474
0.0275746
0.0276691
0.0287581
0.028762
0.0263515
0.0262399
0.0262727
0.0262947
0.0263079
0.0263347
0.0263501
0.758842
0.201924
0.0652147
0.0355577
0.0288033
0.0276451
0.0274563
0.0274814
0.0271775
0.0271613
0.0271315
0.0271117
0.0270988
0.0270921
0.0270911
0.0270838
0.0270765
0.0270898
0.0271119
0.0272464
0.0270184
0.0270976
0.0269224
0.0278277
0.0272857
0.0271333
0.0271224
0.0270421
0.0271111
0.0270685
0.0271072
0.0271768
0.0277141
0.0275914
0.0274076
0.0273845
0.0273486
0.0274016
0.0272756
0.02725
0.0273941
0.027256
0.0271396
0.0270531
0.0270016
0.0271151
0.0268805
0.0268307
0.0268274
0.0269881
14.6976
4.14837
0.860282
0.171864
0.051308
0.0294587
0.0273129
0.0274616
0.0272974
0.0272992
0.0272707
0.027226
0.0272052
0.0271815
0.0271673
0.0271519
0.0271393
0.0271274
0.0271141
0.0271033
0.027091
0.0270752
0.0270698
0.0270629
0.0270412
0.027022
0.0270083
0.0269974
0.0269863
0.0269735
0.0269636
0.0269591
0.026948
0.0269289
0.026917
0.0269113
0.0269075
0.0269039
0.0269
0.0268963
0.0268919
0.0268882
0.026884
0.0268815
0.0268805
0.02688
0.0268789
0.0268771
0.0268758
0.0268734
74.9405
36.5448
9.23093
1.3402
0.136866
0.0346799
0.0301826
0.0301825
0.0307061
0.0274435
0.0276443
0.0273047
0.0275368
0.0272466
0.0275163
0.0272102
0.0274145
0.0271731
0.0273757
0.0271432
0.0271319
0.0271219
0.0271119
0.0271019
0.0270908
0.0270786
0.0270659
0.0270533
0.0270412
0.0270296
0.0270192
0.027011
0.027004
0.0269978
0.0269931
0.0269896
0.0269868
0.026984
0.0269815
0.0269789
0.0269764
0.0269738
0.0269713
0.0269687
0.026966
0.0269629
0.0269599
0.0269567
0.0269538
0.0269513
101.798
84.0747
29.329
3.3453
0.161423
0.0286898
0.0277718
0.0275547
0.0274408
0.0274067
0.0273449
0.02733
0.0272959
0.027293
0.0272734
0.027272
0.0272492
0.0272389
0.0272198
0.0272006
0.0271769
0.0271586
0.0271425
0.0271285
0.0271156
0.0271034
0.027092
0.0270812
0.0270714
0.0270625
0.0270547
0.0270481
0.0270428
0.0270385
0.0270353
0.0270332
0.0270319
0.0270313
0.0270312
0.0270317
0.0270324
0.0270334
0.0270345
0.0270356
0.0270368
0.0270381
0.0270393
0.0270407
0.0270421
0.0270437
102.42
94.0314
36.6603
3.87827
0.142987
0.028306
0.0276348
0.0274399
0.0273539
0.0272948
0.0272493
0.0272148
0.0271903
0.0271745
0.0271654
0.0271604
0.0271567
0.0271528
0.0271486
0.0271435
0.0271379
0.027132
0.0271263
0.0271208
0.0271155
0.0271102
0.0271048
0.0270996
0.0270947
0.0270903
0.0270866
0.0270834
0.0270809
0.027079
0.0270777
0.0270768
0.0270764
0.0270764
0.0270767
0.0270773
0.027078
0.0270789
0.0270799
0.0270809
0.0270819
0.0270828
0.0270838
0.0270847
0.0270856
0.0270864
101.945
49.1116
5.58126
0.214042
0.0288384
0.0277723
0.0273338
0.0271956
0.0271429
0.0271161
0.0270998
0.0270893
0.0270827
0.0270787
0.0270767
0.0270763
0.0270767
0.0270774
0.0270781
0.027079
0.02708
0.0270812
0.0270824
0.0270836
0.0270849
0.0270862
0.0270875
0.0270889
0.0270902
0.0270916
0.027093
0.0270943
0.0270957
0.0270971
0.0270987
0.0271003
0.0271021
0.027104
0.0271059
0.0271079
0.02711
0.027112
0.0271141
0.0271162
0.0271183
0.0271203
0.0271223
0.0271243
0.0271262
0.0271281
70.4686
12.368
0.697553
0.038357
0.0278675
0.0272172
0.0271656
0.0271431
0.0271296
0.0271216
0.0271167
0.0271137
0.027112
0.0271112
0.0271109
0.027111
0.0271113
0.0271118
0.0271125
0.0271132
0.027114
0.0271149
0.0271159
0.027117
0.0271181
0.0271194
0.0271207
0.0271221
0.0271235
0.027125
0.0271266
0.0271282
0.0271299
0.0271315
0.0271333
0.027135
0.0271368
0.0271386
0.0271403
0.0271421
0.0271439
0.0271456
0.0271473
0.027149
0.0271507
0.0271523
0.0271539
0.0271554
0.0271568
0.0271582
7.44593
0.182717
0.0279745
0.0272238
0.0271228
0.0270798
0.0270729
0.0270732
0.0270736
0.0270742
0.0270754
0.0270771
0.0270792
0.0270814
0.0270838
0.0270861
0.0270885
0.0270908
0.0270932
0.0270955
0.0270978
0.0271
0.0271023
0.0271046
0.0271068
0.027109
0.0271113
0.0271135
0.0271157
0.0271179
0.0271201
0.0271223
0.0271245
0.0271267
0.0271288
0.0271309
0.027133
0.0271351
0.0271372
0.0271392
0.0271412
0.0271431
0.027145
0.0271468
0.0271486
0.0271503
0.027152
0.0271536
0.0271551
0.0271565
0.109093
0.0280772
0.0272228
0.0271879
0.0271613
0.0271541
0.0271494
0.0271454
0.0271423
0.0271399
0.0271382
0.0271371
0.0271363
0.0271359
0.0271357
0.0271358
0.0271361
0.0271366
0.0271373
0.0271381
0.027139
0.0271401
0.0271413
0.0271425
0.0271439
0.0271453
0.0271468
0.0271484
0.02715
0.0271517
0.0271534
0.0271552
0.0271569
0.0271587
0.0271605
0.0271623
0.0271641
0.0271659
0.0271677
0.0271694
0.0271712
0.0271729
0.0271746
0.0271762
0.0271778
0.0271793
0.0271808
0.0271822
0.0271836
0.0271849
0.0294619
0.0294499
0.0294375
0.029425
0.0294125
0.0294
0.0293874
0.0293747
0.0293619
0.0293491
0.0293361
0.0293232
0.0293101
0.0292969
0.0292837
0.0292704
0.029257
0.0292435
0.0292299
0.0292163
0.0292025
0.0291887
0.0291747
0.0291607
0.0291466
0.0291324
0.0291181
0.0291037
0.0290892
0.0290746
0.0290599
0.0290451
0.0290302
0.0290152
0.0290001
0.0289849
0.0289696
0.0289542
0.0289387
0.0289231
0.0289074
0.0288916
0.0288757
0.0288597
0.0288436
0.0288273
0.028811
0.0287946
0.028778
0.0287613
0.0287446
0.0287277
0.0287107
0.0286936
0.0286765
0.0286592
0.0286417
0.0286242
0.0286065
0.0285888
0.0285709
0.028553
0.0285349
0.0285167
0.0284983
0.0284799
0.0284614
0.0284427
0.0284239
0.0284051
0.0283861
0.028367
0.0283478
0.0283284
0.0283089
0.0282893
0.0282696
0.0282497
0.0282298
0.0282097
0.0281895
0.0281692
0.0281488
0.0281282
0.0281075
0.0280867
0.0280658
0.0280448
0.0280237
0.0280024
0.027981
0.0279595
0.0279379
0.0279162
0.0278943
0.0278724
0.0278503
0.0278281
0.0278058
0.0277834
0.0277609
0.0277382
0.0277155
0.0276926
0.0276696
0.0276464
0.0276232
0.0275998
0.0275763
0.0275527
0.0275289
0.027505
0.027481
0.0274568
0.0274325
0.0274081
0.0273834
0.0273587
0.0273338
0.0273087
0.0272834
0.027258
0.0272324
0.0272067
0.0271807
0.0271546
0.0271283
0.0271018
0.027075
0.0270481
0.027021
0.0269936
0.026966
0.0269382
0.0269102
0.0268819
0.0268534
0.0268246
0.0267955
0.0267663
0.0267367
0.0267069
0.0266768
0.0266464
0.0266158
0.0265848
0.0265536
0.0265221
0.0264903
0.0264581
0.0264257
0.026393
0.0263599
0.0263266
0.0262929
0.0262589
0.0262246
0.02619
0.026155
0.0261197
0.0260841
0.0260482
0.0260119
0.0259753
0.0259384
0.0259012
0.0258636
0.0258258
0.0257876
0.0257491
0.0257102
0.0256711
0.0256316
0.0255919
0.0255518
0.0255115
0.0254708
0.0254299
0.0253887
0.0253472
0.0253054
0.0252634
0.0252211
0.0251785
0.0251357
0.0250927
0.0250494
0.025006
0.0249623
0.0249184
0.0248743
0.02483
0.0247856
0.0247409
0.0246962
0.0246513
0.0246062
0.024561
0.0245157
0.0244704
0.0244249
0.0243793
0.0243337
0.024288
0.0242423
0.0241966
0.0241508
0.0241051
0.0240593
0.0240136
0.0239679
0.0239222
0.0238766
0.0238311
0.0237856
0.0237402
0.023695
0.0236499
0.0236048
0.02356
0.0235153
0.0234707
0.0234263
0.0233821
0.0233381
0.0232943
0.0232507
0.0232074
0.0231643
0.0231214
0.0230787
0.0230363
0.0229942
0.0229524
0.0229108
0.0228695
0.0228285
0.0227878
0.0227474
0.0227074
0.0226676
0.0226281
0.022589
0.0225501
0.0225116
0.0224734
0.0224356
0.0223981
0.0223609
0.022324
0.0222875
0.0222512
0.0222154
0.0221798
0.0221446
0.0221096
0.0220751
0.0220408
0.0220068
0.0219732
0.0219399
0.0219068
0.0218741
0.0218417
0.0218096
0.0217778
0.0217463
0.0217151
0.0216842
0.0216535
0.0216232
0.0215931
0.0215633
0.0215337
0.0215045
0.0214755
0.0214467
0.0214183
0.0213901
0.0213621
0.0213344
0.0213069
0.0212797
0.0212528
0.021226
0.0211995
0.0211732
0.0211472
0.0211214
0.0210957
0.0210703
0.0210451
0.0210201
0.0209953
0.0209706
0.0209462
0.0209225
0.0208987
0.0208728
0.0208442
0.0288778
0.0288661
0.0288543
0.0288425
0.0288307
0.0288188
0.0288069
0.0287949
0.0287829
0.0287708
0.0287586
0.0287464
0.0287341
0.0287217
0.0287093
0.0286968
0.0286842
0.0286715
0.0286588
0.028646
0.0286331
0.0286201
0.0286071
0.0285939
0.0285807
0.0285674
0.028554
0.0285406
0.028527
0.0285133
0.0284996
0.0284858
0.0284718
0.0284578
0.0284437
0.0284295
0.0284152
0.0284008
0.0283863
0.0283718
0.0283571
0.0283423
0.0283274
0.0283125
0.0282974
0.0282823
0.028267
0.0282517
0.0282362
0.0282207
0.028205
0.0281893
0.0281735
0.0281576
0.0281416
0.0281255
0.0281093
0.028093
0.0280767
0.0280602
0.0280437
0.0280271
0.0280105
0.0279938
0.027977
0.0279601
0.0279432
0.0279262
0.0279092
0.0278921
0.0278749
0.0278577
0.0278405
0.0278233
0.027806
0.0277887
0.0277713
0.0277539
0.0277365
0.027719
0.0277015
0.0276839
0.0276664
0.0276487
0.027631
0.0276132
0.0275958
0.0275783
0.0275608
0.0275432
0.0275257
0.0275082
0.0274907
0.0274731
0.0274556
0.0274381
0.0274206
0.0274032
0.0273857
0.0273683
0.0273508
0.0273334
0.0273159
0.0272984
0.0272809
0.0272634
0.0272459
0.0272284
0.0272108
0.0271931
0.0271754
0.0271576
0.0271398
0.0271219
0.0271039
0.0270858
0.0270675
0.0270492
0.0270308
0.0270122
0.0269935
0.0269746
0.0269556
0.0269364
0.026917
0.0268974
0.0268777
0.0268578
0.0268376
0.0268173
0.0267967
0.0267759
0.0267548
0.0267336
0.026712
0.0266902
0.0266682
0.0266459
0.0266233
0.0266004
0.0265773
0.0265539
0.0265301
0.0265061
0.0264818
0.0264572
0.0264322
0.026407
0.0263814
0.0263556
0.0263294
0.0263028
0.026276
0.0262488
0.0262213
0.0261935
0.0261653
0.0261369
0.026108
0.0260789
0.0260494
0.0260196
0.0259894
0.0259589
0.0259281
0.025897
0.0258655
0.0258337
0.0258016
0.0257692
0.0257364
0.0257034
0.02567
0.0256363
0.0256023
0.025568
0.0255334
0.0254985
0.0254633
0.0254278
0.025392
0.025356
0.0253197
0.0252831
0.0252462
0.0252091
0.0251717
0.0251341
0.0250963
0.0250582
0.0250199
0.0249813
0.0249426
0.0249036
0.0248644
0.024825
0.0247855
0.0247457
0.0247058
0.0246657
0.0246255
0.0245851
0.0245446
0.0245039
0.0244631
0.0244221
0.0243811
0.0243399
0.0242987
0.0242573
0.0242159
0.0241744
0.0241328
0.0240912
0.0240495
0.0240078
0.0239661
0.0239243
0.0238825
0.0238407
0.0237989
0.0237571
0.0237153
0.0236735
0.0236317
0.02359
0.0235484
0.0235067
0.0234652
0.0234237
0.0233822
0.0233409
0.0232996
0.0232584
0.0232173
0.0231763
0.0231354
0.0230946
0.023054
0.0230134
0.022973
0.0229327
0.0228926
0.0228526
0.0228127
0.022773
0.0227334
0.022694
0.0226548
0.0226157
0.0225768
0.0225381
0.0224995
0.0224611
0.0224229
0.0223849
0.022347
0.0223093
0.0222719
0.0222346
0.0221975
0.0221606
0.0221239
0.0220874
0.022051
0.0220149
0.021979
0.0219433
0.0219078
0.0218725
0.0218374
0.0218024
0.0217677
0.0217333
0.021699
0.0216649
0.021631
0.0215974
0.0215639
0.0215306
0.0214976
0.0214648
0.0214321
0.0213997
0.0213674
0.0213354
0.0213035
0.0212719
0.0212404
0.0212091
0.0211779
0.0211469
0.0211161
0.0210854
0.0210548
0.0210245
0.0209947
0.0209647
0.0209327
0.020899
0.0286077
0.0285985
0.0285888
0.0285791
0.0285695
0.0285598
0.0285501
0.0285404
0.0285307
0.0285209
0.0285112
0.0285014
0.0284915
0.0284816
0.0284717
0.0284617
0.0284517
0.0284416
0.0284315
0.0284214
0.0284112
0.0284009
0.0283905
0.0283801
0.0283697
0.0283592
0.0283486
0.0283379
0.0283272
0.0283164
0.0283055
0.0282945
0.0282835
0.0282723
0.0282611
0.0282498
0.0282384
0.0282269
0.0282154
0.0282037
0.0281919
0.02818
0.028168
0.0281559
0.0281437
0.0281314
0.0281189
0.0281063
0.0280937
0.0280808
0.0280679
0.0280548
0.0280416
0.0280282
0.0280148
0.0280011
0.0279874
0.0279735
0.0279595
0.0279453
0.027931
0.0279165
0.0279019
0.0278872
0.0278723
0.0278573
0.0278422
0.027827
0.0278116
0.0277961
0.0277805
0.0277648
0.0277489
0.027733
0.027717
0.0277008
0.0276846
0.0276683
0.0276519
0.0276354
0.0276188
0.0276022
0.0275855
0.0275688
0.0275521
0.0275354
0.0275182
0.027501
0.0274839
0.0274667
0.0274494
0.0274321
0.0274149
0.0273976
0.0273803
0.0273631
0.0273459
0.0273284
0.0273108
0.0272933
0.0272758
0.0272582
0.0272406
0.027223
0.0272054
0.0271878
0.0271701
0.0271523
0.0271346
0.0271168
0.0270989
0.027081
0.027063
0.027045
0.0270268
0.0270086
0.0269904
0.026972
0.0269536
0.026935
0.0269163
0.0268975
0.0268786
0.0268596
0.0268404
0.0268211
0.0268016
0.026782
0.0267622
0.0267422
0.0267221
0.0267017
0.0266812
0.0266605
0.0266396
0.0266184
0.0265971
0.0265755
0.0265538
0.0265317
0.0265095
0.026487
0.0264643
0.0264413
0.0264181
0.0263946
0.0263709
0.0263469
0.0263227
0.0262981
0.0262734
0.0262483
0.026223
0.0261974
0.0261715
0.0261454
0.026119
0.0260923
0.0260653
0.0260381
0.0260106
0.0259828
0.0259547
0.0259264
0.0258978
0.0258689
0.0258398
0.0258103
0.0257807
0.0257507
0.0257205
0.02569
0.0256593
0.0256283
0.0255971
0.0255656
0.0255338
0.0255018
0.0254696
0.0254371
0.0254044
0.0253714
0.0253382
0.0253048
0.0252711
0.0252373
0.0252032
0.0251689
0.0251344
0.0250996
0.0250647
0.0250296
0.0249942
0.0249587
0.024923
0.0248871
0.024851
0.0248147
0.0247783
0.0247416
0.0247049
0.0246679
0.0246308
0.0245936
0.0245562
0.0245186
0.0244809
0.0244431
0.0244051
0.024367
0.0243288
0.0242905
0.024252
0.0242134
0.0241748
0.024136
0.0240971
0.0240582
0.0240191
0.02398
0.0239408
0.0239015
0.0238622
0.0238227
0.0237833
0.0237437
0.0237041
0.0236645
0.0236248
0.0235851
0.0235454
0.0235056
0.0234658
0.023426
0.0233862
0.0233463
0.0233065
0.0232666
0.0232268
0.023187
0.0231471
0.0231073
0.0230676
0.0230278
0.0229881
0.0229484
0.0229087
0.0228691
0.0228295
0.02279
0.0227505
0.0227111
0.0226718
0.0226325
0.0225933
0.0225542
0.0225151
0.0224761
0.0224373
0.0223985
0.0223598
0.0223212
0.0222827
0.0222443
0.022206
0.0221679
0.0221298
0.0220919
0.0220541
0.0220165
0.0219789
0.0219415
0.0219043
0.0218672
0.0218302
0.0217934
0.0217567
0.0217202
0.0216838
0.0216476
0.0216115
0.0215756
0.0215398
0.0215043
0.0214688
0.0214335
0.0213984
0.0213634
0.0213285
0.0212938
0.0212593
0.0212248
0.0211905
0.0211562
0.0211221
0.0210881
0.0210544
0.0210205
0.0209851
0.0209488
0.0279834
0.0279742
0.0279651
0.027956
0.027947
0.027938
0.027929
0.0279199
0.0279109
0.0279019
0.0278928
0.0278837
0.0278746
0.0278655
0.0278564
0.0278472
0.027838
0.0278288
0.0278196
0.0278103
0.0278009
0.0277916
0.0277821
0.0277727
0.0277632
0.0277536
0.0277439
0.0277342
0.0277245
0.0277146
0.0277047
0.0276948
0.0276847
0.0276745
0.0276643
0.027654
0.0276435
0.027633
0.0276223
0.0276116
0.0276007
0.0275897
0.0275785
0.0275672
0.0275558
0.0275442
0.0275324
0.0275204
0.0275082
0.0274957
0.027483
0.0274701
0.027457
0.0274436
0.02743
0.0274162
0.0274021
0.0273879
0.0273735
0.027359
0.0273444
0.0273297
0.027315
0.0273003
0.0272857
0.0272713
0.0272571
0.0272432
0.0272296
0.0272163
0.0272034
0.0271906
0.0271782
0.0271659
0.0271537
0.0271417
0.0271298
0.0271179
0.027106
0.0270941
0.0270822
0.0270702
0.0270582
0.0270461
0.027034
0.0270217
0.0270095
0.0269971
0.0269848
0.0269724
0.0269601
0.0269479
0.0269358
0.026924
0.0269123
0.026901
0.0268901
0.0268798
0.0268698
0.0268601
0.0268507
0.0268413
0.0268321
0.0268236
0.0268152
0.0268068
0.0267984
0.0267901
0.0267817
0.0267732
0.0267647
0.026756
0.0267471
0.0267381
0.0267288
0.0267193
0.0267096
0.0266996
0.0266893
0.0266786
0.0266677
0.0266564
0.0266448
0.0266329
0.0266205
0.0266079
0.0265948
0.0265814
0.0265675
0.0265533
0.0265387
0.0265237
0.0265083
0.0264926
0.0264764
0.0264598
0.0264429
0.0264255
0.0264078
0.0263896
0.0263711
0.0263522
0.026333
0.0263133
0.0262933
0.0262729
0.0262521
0.026231
0.0262095
0.0261877
0.0261655
0.026143
0.0261201
0.0260969
0.0260734
0.0260495
0.0260254
0.0260009
0.0259761
0.025951
0.0259255
0.0258998
0.0258738
0.0258475
0.0258209
0.0257941
0.0257669
0.0257395
0.0257119
0.0256839
0.0256558
0.0256273
0.0255986
0.0255697
0.0255405
0.0255111
0.0254815
0.0254516
0.0254215
0.0253912
0.0253606
0.0253299
0.0252989
0.0252677
0.0252364
0.0252048
0.025173
0.025141
0.0251089
0.0250765
0.025044
0.0250113
0.0249784
0.0249453
0.0249121
0.0248787
0.0248451
0.0248113
0.0247774
0.0247433
0.0247091
0.0246747
0.0246401
0.0246054