/*--------------------------------*- C++ -*----------------------------------*\
| =========                 |                                                 |
| \\      /  F ield         | OpenFOAM: The Open Source CFD Toolbox           |
|  \\    /   O peration     | Version:  2.4.0                                 |
|   \\  /    A nd           | Web:      www.OpenFOAM.org                      |
|    \\/     M anipulation  |                                                 |
\*---------------------------------------------------------------------------*/
FoamFile
{
    version     2.0;
    format      ascii;
    class       surfaceScalarField;
    location    "2.9";
    object      phi;
}
// * * * * * * * * * * * * * * * * * * * * * * * * * * * * * * * * * * * * * //

dimensions      [0 3 -1 0 0 0 0];

internalField   nonuniform List<scalar> 
15580
(
-9.45636e-13
5.73105e-13
-3.6438e-12
1.58954e-12
-7.98069e-12
2.45372e-12
-1.38602e-11
3.15604e-12
-2.11906e-11
3.70328e-12
-2.99314e-11
4.13543e-12
-4.01196e-11
4.5155e-12
-5.17104e-11
4.74231e-12
-1.43019e-10
3.52242e-12
-2.01114e-10
1.83835e-12
-1.46481e-10
-6.57958e-11
-3.4573e-12
-1.46167e-10
1.18001e-10
-1.00373e-10
2.56006e-10
-8.31572e-11
3.54217e-10
-5.09964e-11
4.19602e-10
-1.95715e-11
4.57003e-10
1.00243e-11
4.70942e-10
3.68538e-11
4.66235e-10
5.97689e-11
4.46317e-10
7.95534e-11
4.14487e-10
9.62688e-11
3.7336e-10
1.10263e-10
3.25449e-10
1.21635e-10
2.72973e-10
1.30629e-10
2.17341e-10
1.37832e-10
1.60245e-10
1.43173e-10
1.02839e-10
1.47106e-10
4.62183e-11
1.4959e-10
-9.03808e-12
1.51191e-10
-6.24391e-11
1.52026e-10
-1.13562e-10
1.52172e-10
-1.62145e-10
1.51799e-10
-2.08482e-10
1.51414e-10
-2.52268e-10
1.50435e-10
-2.93506e-10
1.49122e-10
-3.32284e-10
1.47584e-10
-3.68709e-10
1.45872e-10
-4.02925e-10
1.44047e-10
-4.35074e-10
1.42137e-10
-4.65309e-10
1.40173e-10
-4.93787e-10
1.38184e-10
-5.2062e-10
1.36149e-10
-5.46008e-10
1.34176e-10
-5.70053e-10
1.32187e-10
-5.92926e-10
1.30241e-10
-6.14511e-10
1.28081e-10
-6.34907e-10
1.25918e-10
-6.54157e-10
1.23726e-10
-6.72337e-10
1.21552e-10
1.19404e-10
-6.89522e-10
-5.13412e-13
1.08652e-12
-1.89587e-12
2.97201e-12
-4.23715e-12
4.79499e-12
-7.7454e-12
6.66429e-12
-1.26326e-11
8.59045e-12
-1.90273e-11
1.05301e-11
-2.69385e-11
1.24268e-11
-2.81544e-10
1.43762e-11
-3.01356e-10
1.49765e-11
-3.03259e-10
3.74137e-12
-6.55531e-11
-3.03502e-10
-1.0702e-10
-1.047e-10
-4.04443e-11
-1.66948e-10
1.10416e-10
-2.34017e-10
2.23981e-10
-1.64562e-10
2.55298e-10
-5.08882e-11
1.91629e-10
7.36936e-11
1.02812e-10
1.25671e-10
1.58579e-11
1.46723e-10
-5.82362e-11
1.53648e-10
-1.18342e-10
1.56374e-10
-1.64648e-10
1.56569e-10
-2.0099e-10
1.57977e-10
-2.32187e-10
1.61826e-10
-2.61377e-10
1.67022e-10
-2.90885e-10
1.7268e-10
-3.2073e-10
1.76951e-10
-3.50918e-10
1.79778e-10
-3.80909e-10
1.81182e-10
-4.09805e-10
1.80922e-10
-4.37513e-10
1.7988e-10
-4.64028e-10
1.78314e-10
-4.88649e-10
1.76035e-10
-5.11819e-10
1.73605e-10
-5.33696e-10
1.70999e-10
-5.54367e-10
1.68254e-10
-5.73962e-10
1.65467e-10
-5.92603e-10
1.62688e-10
-6.10384e-10
1.59918e-10
-6.27436e-10
1.57226e-10
-6.43874e-10
1.54622e-10
-6.5977e-10
1.52046e-10
-6.74596e-10
1.49002e-10
-6.88662e-10
1.46253e-10
-7.01882e-10
1.4346e-10
-7.14404e-10
1.40604e-10
-7.26222e-10
1.37736e-10
-7.37507e-10
1.35011e-10
-7.48393e-10
1.32438e-10
1.3006e-10
-7.59049e-10
1.0927e-12
-6.18275e-15
3.1675e-12
8.97206e-13
5.52744e-12
2.43505e-12
7.72149e-12
4.47025e-12
9.29425e-12
7.01769e-12
9.7358e-12
1.00886e-11
8.41641e-12
1.37461e-11
4.69154e-12
1.80155e-11
-1.11103e-10
3.08712e-11
-1.31335e-10
2.27089e-11
-4.22501e-10
-1.2336e-11
-5.41697e-10
1.44958e-11
-4.98596e-10
-2.10049e-10
-6.89778e-10
-4.28356e-11
-6.75735e-10
-1.78605e-10
-7.5721e-10
3.05876e-11
-7.86948e-10
1.03431e-10
-9.10261e-10
2.48984e-10
-9.94414e-10
2.30876e-10
-1.06664e-09
2.25876e-10
-1.15949e-09
2.49224e-10
-1.29624e-09
2.93316e-10
-1.44937e-09
3.11105e-10
-1.59266e-09
3.05114e-10
-1.70975e-09
2.84115e-10
-1.79266e-09
2.55593e-10
-1.83931e-09
2.23602e-10
-1.85186e-09
1.92321e-10
-1.83681e-09
1.6614e-10
-1.80374e-09
1.47847e-10
-1.76051e-09
1.36657e-10
-1.71277e-09
1.30567e-10
-1.66346e-09
1.2673e-10
-1.6137e-09
1.2384e-10
-1.56422e-09
1.21524e-10
-1.5159e-09
1.1993e-10
-1.46962e-09
1.19185e-10
-1.42573e-09
1.18803e-10
-1.38447e-09
1.18658e-10
-1.34587e-09
1.18625e-10
-1.30998e-09
1.18731e-10
-1.27693e-09
1.18998e-10
-1.24577e-09
1.17842e-10
-1.21588e-09
1.16356e-10
-1.18726e-09
1.14841e-10
-1.16046e-09
1.13809e-10
-1.13527e-09
1.12542e-10
-1.11181e-09
1.11551e-10
-1.09033e-09
1.10963e-10
1.10291e-10
-1.07057e-09
-1.00815e-14
3.89872e-15
7.61755e-13
1.2537e-13
2.67959e-12
5.17218e-13
5.9063e-12
1.24353e-12
1.06131e-11
2.3109e-12
1.69901e-11
3.7116e-12
2.52747e-11
5.46148e-12
3.57498e-11
7.54041e-12
4.0465e-11
8.15517e-12
3.3104e-11
8.67475e-12
-5.91805e-11
7.49781e-12
-5.41396e-11
8.44261e-12
-2.54986e-10
-1.21772e-11
-4.19297e-10
1.21475e-10
-5.894e-10
-8.50132e-12
-6.75926e-10
1.17113e-10
-6.77557e-10
1.05062e-10
-1.00086e-09
5.72282e-10
-9.16986e-10
1.47007e-10
-7.63714e-10
7.26039e-11
-6.99826e-10
1.85337e-10
-6.70904e-10
2.64394e-10
-6.74546e-10
3.14746e-10
-6.97661e-10
3.2823e-10
-7.30445e-10
3.16899e-10
-7.649e-10
2.90047e-10
-7.31031e-10
1.89733e-10
-6.80517e-10
1.41807e-10
-6.48723e-10
1.34347e-10
-6.47643e-10
1.46766e-10
-6.7419e-10
1.63204e-10
-7.07901e-10
1.64278e-10
-7.32892e-10
1.51721e-10
-7.43709e-10
1.34658e-10
-7.43735e-10
1.2155e-10
-7.39473e-10
1.15668e-10
-7.35659e-10
1.15372e-10
-7.33433e-10
1.16577e-10
-7.32848e-10
1.18073e-10
-7.32831e-10
1.18608e-10
-7.32574e-10
1.18474e-10
-7.32007e-10
1.18431e-10
-7.30095e-10
1.15931e-10
-7.28267e-10
1.14528e-10
-7.26922e-10
1.13495e-10
-7.24636e-10
1.11523e-10
-7.2235e-10
1.10256e-10
-7.20195e-10
1.09397e-10
-7.18255e-10
1.09022e-10
1.0899e-10
-7.16954e-10
8.2549e-13
-8.21591e-13
3.21513e-12
-2.26427e-12
7.25387e-12
-3.52152e-12
1.31145e-11
-4.61714e-12
2.09731e-11
-5.54765e-12
3.10296e-11
-6.34492e-12
4.3491e-11
-6.99987e-12
5.85944e-11
-7.56299e-12
7.47565e-11
-8.00698e-12
9.18196e-11
-8.38836e-12
1.07497e-10
-8.46987e-12
1.16845e-10
-8.62754e-12
1.11984e-10
-7.34182e-12
1.21351e-10
-7.78928e-12
1.11736e-10
-7.03295e-12
2.30984e-10
-8.636e-12
3.40258e-10
-9.54095e-12
9.19306e-10
-1.04687e-11
1.03765e-09
2.83451e-11
1.0923e-09
1.78354e-11
1.20638e-09
7.12638e-11
1.31767e-09
1.53104e-10
1.41162e-09
2.20791e-10
1.44026e-09
2.99593e-10
1.50659e-09
2.50567e-10
1.7499e-09
4.674e-11
1.92534e-09
1.42927e-11
2.00191e-09
6.52399e-11
1.98089e-09
1.55362e-10
1.88769e-09
2.39966e-10
1.77552e-09
2.75377e-10
1.722e-09
2.17796e-10
1.7126e-09
1.61116e-10
1.70456e-09
1.42701e-10
1.66868e-09
1.57436e-10
1.61184e-09
1.72503e-10
1.55492e-09
1.7229e-10
1.49989e-09
1.71608e-10
1.45238e-09
1.65585e-10
1.40911e-09
1.61879e-10
1.36815e-09
1.59437e-10
1.33098e-09
1.55594e-10
1.29436e-09
1.52555e-10
1.25814e-09
1.50743e-10
1.2216e-09
1.50039e-10
1.1816e-09
1.51517e-10
1.13939e-09
1.52472e-10
1.09587e-09
1.52915e-10
1.05108e-09
1.53812e-10
1.54235e-10
1.00584e-09
9.44552e-13
-1.76614e-12
3.62829e-12
-4.94802e-12
7.90598e-12
-7.7992e-12
1.36258e-11
-1.03369e-11
2.06489e-11
-1.25707e-11
2.88171e-11
-1.45132e-11
3.79872e-11
-1.617e-11
4.79785e-11
-1.75543e-11
5.86378e-11
-1.86663e-11
6.97703e-11
-1.95208e-11
8.14046e-11
-2.01042e-11
9.32011e-11
-2.0424e-11
1.06314e-10
-2.04549e-11
1.18746e-10
-2.02216e-11
1.31444e-10
-1.97292e-11
1.41638e-10
-1.88283e-11
1.49362e-10
-1.72675e-11
1.53495e-10
-1.46505e-11
1.66158e-10
-1.14101e-11
1.7418e-10
-7.04441e-12
2.08915e-10
-3.08316e-12
3.58942e-10
1.61899e-12
5.71709e-10
7.38542e-12
8.54816e-10
1.61712e-11
1.06135e-09
4.39425e-11
1.074e-09
3.40933e-11
1.06601e-09
2.22822e-11
1.00783e-09
1.23425e-10
9.52316e-10
2.10872e-10
9.58896e-10
2.33385e-10
1.11199e-09
1.22287e-10
1.28187e-09
4.79127e-11
1.38428e-09
5.87027e-11
1.38725e-09
1.39733e-10
1.33939e-09
2.05297e-10
1.32657e-09
1.85323e-10
1.36278e-09
1.36075e-10
1.41939e-09
1.15e-10
1.4655e-09
1.19477e-10
1.49914e-09
1.28244e-10
1.53591e-09
1.22667e-10
1.57613e-09
1.15367e-10
1.61475e-09
1.13935e-10
1.64654e-09
1.18961e-10
1.66809e-09
1.2849e-10
1.68306e-09
1.36541e-10
1.69184e-09
1.43693e-10
1.69486e-09
1.49896e-10
1.69175e-09
1.56918e-10
1.62451e-10
1.68354e-09
2.8098e-13
-2.04712e-12
1.09647e-12
-5.76351e-12
2.42954e-12
-9.13227e-12
4.26318e-12
-1.21706e-11
6.57694e-12
-1.48845e-11
9.34123e-12
-1.72775e-11
1.25261e-11
-1.93548e-11
1.60897e-11
-2.11179e-11
1.99953e-11
-2.25719e-11
2.419e-11
-2.37156e-11
2.86405e-11
-2.45546e-11
3.33009e-11
-2.50845e-11
3.8159e-11
-2.5313e-11
4.31679e-11
-2.52305e-11
4.82881e-11
-2.48493e-11
5.36102e-11
-2.41504e-11
5.94881e-11
-2.31454e-11
6.66495e-11
-2.18119e-11
7.54254e-11
-2.0186e-11
8.66607e-11
-1.82797e-11
9.96061e-11
-1.6029e-11
1.14345e-10
-1.33602e-11
1.291e-10
-1.00835e-11
1.40604e-10
-6.04558e-12
1.48913e-10
-2.10464e-12
1.52071e-10
2.52501e-12
1.66517e-10
6.82848e-12
2.77613e-10
1.19257e-11
4.68533e-10
1.97919e-11
6.66681e-10
3.52221e-11
7.70411e-10
1.85557e-11
8.2632e-10
-7.99596e-12
7.72458e-10
1.12564e-10
7.5392e-10
1.58272e-10
8.5897e-10
1.00248e-10
1.00878e-09
3.55104e-11
1.10827e-09
3.65903e-11
1.13628e-09
8.69873e-11
1.13993e-09
1.15826e-10
1.16944e-09
9.87361e-11
1.22791e-09
6.41943e-11
1.29031e-09
5.29646e-11
1.33632e-09
6.7925e-11
1.36967e-09
8.56181e-11
1.40913e-09
8.90252e-11
1.45128e-09
9.43954e-11
1.49273e-09
1.02236e-10
1.53177e-09
1.10859e-10
1.56956e-09
1.19127e-10
1.28096e-10
1.60391e-09
-2.0959e-13
-1.83753e-12
-6.84522e-13
-5.28858e-12
-1.329e-12
-8.48779e-12
-2.07837e-12
-1.14212e-11
-2.87421e-12
-1.40886e-11
-3.66183e-12
-1.64898e-11
-4.39129e-12
-1.86254e-11
-5.01384e-12
-2.04954e-11
-5.48478e-12
-2.2101e-11
-5.75783e-12
-2.34425e-11
-5.79052e-12
-2.45219e-11
-5.53562e-12
-2.53394e-11
-4.95077e-12
-2.58978e-11
-3.98417e-12
-2.61971e-11
-2.59183e-12
-2.62417e-11
-7.11671e-13
-2.60306e-11
1.71359e-12
-2.55706e-11
4.76186e-12
-2.48602e-11
8.48668e-12
-2.39109e-11
1.29276e-11
-2.27207e-11
1.82057e-11
-2.13071e-11
2.45077e-11
-1.96622e-11
3.22372e-11
-1.78131e-11
4.19376e-11
-1.57459e-11
5.33452e-11
-1.35122e-11
6.69297e-11
-1.10893e-11
8.21186e-11
-8.43047e-12
9.7929e-11
-5.37477e-12
1.10013e-10
-2.14065e-12
1.19412e-10
8.64267e-13
1.29534e-10
4.21742e-12
1.13281e-10
7.88171e-12
2.11927e-10
1.37589e-11
3.51989e-10
1.81678e-11
4.2714e-10
2.50966e-11
4.71384e-10
-8.73334e-12
4.29267e-10
7.87074e-11
4.02538e-10
1.13715e-10
4.22271e-10
9.60935e-11
5.00197e-10
2.08098e-11
5.49598e-10
1.47939e-11
5.49104e-10
5.34578e-11
5.35562e-10
8.14669e-11
5.46952e-10
7.42282e-11
5.8302e-10
5.29572e-11
6.23664e-10
5.3752e-11
6.64512e-10
6.13878e-11
7.10177e-10
6.51942e-11
7.58447e-10
7.08562e-11
7.60414e-11
8.10502e-10
-1.17007e-13
-1.72053e-12
-4.84724e-13
-4.92086e-12
-1.07384e-12
-7.89867e-12
-1.83307e-12
-1.0662e-11
-2.71154e-12
-1.32102e-11
-3.65836e-12
-1.5543e-11
-4.62295e-12
-1.76608e-11
-5.5544e-12
-1.95639e-11
-6.40226e-12
-2.12531e-11
-7.11538e-12
-2.27294e-11
-7.64334e-12
-2.3994e-11
-7.93449e-12
-2.50482e-11
-7.93839e-12
-2.58939e-11
-7.60243e-12
-2.65331e-11
-6.87621e-12
-2.69679e-11
-5.7057e-12
-2.72011e-11
-4.04116e-12
-2.72352e-11
-1.82754e-12
-2.70738e-11
9.81375e-13
-2.67198e-11
4.43855e-12
-2.61778e-11
8.58238e-12
-2.54509e-11
1.34653e-11
-2.45451e-11
1.91156e-11
-2.34634e-11
2.5584e-11
-2.22143e-11
3.28728e-11
-2.08009e-11
4.10187e-11
-1.92352e-11
5.01052e-11
-1.75169e-11
6.03894e-11
-1.5659e-11
7.19075e-11
-1.36587e-11
8.43114e-11
-1.15396e-11
9.77627e-11
-9.26705e-12
1.12312e-10
-6.73441e-12
1.27613e-10
-4.30464e-12
1.36537e-10
-1.75742e-12
1.48952e-10
4.81238e-13
1.36084e-10
3.78252e-12
2.06884e-10
7.79491e-12
3.10497e-10
1.00681e-11
3.90685e-10
1.59054e-11
4.15256e-10
-3.76061e-12
4.02402e-10
2.76476e-11
3.78136e-10
7.77237e-11
3.9845e-10
6.11532e-11
4.59743e-10
1.29345e-11
4.87728e-10
2.49724e-11
4.94445e-10
4.70354e-11
5.09245e-10
4.65874e-11
5.36085e-10
3.83543e-11
5.68458e-10
3.84838e-11
3.68396e-11
6.07659e-10
-2.03135e-13
-1.51739e-12
-7.24106e-13
-4.39989e-12
-1.50681e-12
-7.11597e-12
-2.50994e-12
-9.65886e-12
-3.69086e-12
-1.20292e-11
-5.00604e-12
-1.42278e-11
-6.41128e-12
-1.62555e-11
-7.86197e-12
-1.81132e-11
-9.31315e-12
-1.9802e-11
-1.07198e-11
-2.13228e-11
-1.20368e-11
-2.2677e-11
-1.32193e-11
-2.38657e-11
-1.42227e-11
-2.48905e-11
-1.50032e-11
-2.57526e-11
-1.55171e-11
-2.6454e-11
-1.57223e-11
-2.69959e-11
-1.55768e-11
-2.73806e-11
-1.50414e-11
-2.76093e-11
-1.40763e-11
-2.76848e-11
-1.26461e-11
-2.7608e-11
-1.07145e-11
-2.73825e-11
-8.25111e-12
-2.70085e-11
-5.2243e-12
-2.64902e-11
-1.61154e-12
-2.58271e-11
2.61201e-12
-2.50245e-11
7.45688e-12
-2.40801e-11
1.29407e-11
-2.30008e-11
1.90639e-11
-2.17821e-11
2.5838e-11
-2.04329e-11
3.32444e-11
-1.8946e-11
4.13104e-11
-1.7333e-11
5.01574e-11
-1.55815e-11
5.95576e-11
-1.37048e-11
6.94853e-11
-1.16851e-11
7.94749e-11
-9.5199e-12
9.0374e-11
-7.12813e-12
1.02434e-10
-4.8182e-12
1.098e-10
-2.25577e-12
1.16895e-10
-7.34298e-14
1.09814e-10
3.11904e-12
1.30891e-10
6.52258e-12
1.97166e-10
1.14477e-11
2.45689e-10
1.26302e-11
2.63502e-10
-4.87877e-12
2.51902e-10
3.65725e-11
2.66104e-10
3.28337e-11
3.00053e-10
1.26376e-11
3.26137e-10
1.22705e-11
3.55717e-10
8.90349e-12
5.72249e-12
3.86835e-10
-1.92763e-13
-1.32463e-12
-7.71697e-13
-3.82096e-12
-1.70811e-12
-6.17956e-12
-2.95928e-12
-8.40768e-12
-4.4831e-12
-1.05054e-11
-6.23798e-12
-1.2473e-11
-8.18297e-12
-1.43106e-11
-1.02777e-11
-1.60185e-11
-1.24825e-11
-1.75971e-11
-1.47584e-11
-1.90469e-11
-1.7067e-11
-2.03683e-11
-1.93708e-11
-2.15619e-11
-2.16329e-11
-2.26284e-11
-2.38172e-11
-2.35683e-11
-2.58887e-11
-2.43826e-11
-2.78125e-11
-2.5072e-11
-2.95556e-11
-2.56376e-11
-3.10848e-11
-2.608e-11
-3.23689e-11
-2.64007e-11
-3.33766e-11
-2.66003e-11
-3.40788e-11
-2.66804e-11
-3.44459e-11
-2.66413e-11
-3.44509e-11
-2.64852e-11
-3.40662e-11
-2.62119e-11
-3.32667e-11
-2.58239e-11
-3.20264e-11
-2.53204e-11
-3.03225e-11
-2.47047e-11
-2.813e-11
-2.39746e-11
-2.54282e-11
-2.31347e-11
-2.21935e-11
-2.21806e-11
-1.84073e-11
-2.11192e-11
-1.40461e-11
-1.99426e-11
-9.08984e-12
-1.86611e-11
-3.51309e-12
-1.72618e-11
2.72733e-12
-1.57603e-11
9.73501e-12
-1.41358e-11
1.73289e-11
-1.24121e-11
2.56276e-11
-1.05545e-11
3.4137e-11
-8.58649e-12
4.37001e-11
-6.45574e-12
5.41956e-11
-4.29609e-12
5.89468e-11
-2.35622e-12
7.19688e-11
-5.47355e-13
6.46959e-11
2.3668e-12
9.51433e-11
6.12178e-12
1.2703e-10
9.46955e-13
1.49696e-10
-1.00278e-11
1.58721e-10
3.24538e-12
1.74397e-10
-6.77259e-12
-1.77583e-12
1.81895e-10
-2.56222e-13
-1.06841e-12
-9.39595e-13
-3.13758e-12
-1.99552e-12
-5.12364e-12
-3.38498e-12
-7.01822e-12
-5.07024e-12
-8.82017e-12
-7.0147e-12
-1.05285e-11
-9.18284e-12
-1.21424e-11
-1.15401e-11
-1.36613e-11
-1.40526e-11
-1.50845e-11
-1.66877e-11
-1.64119e-11
-1.94129e-11
-1.76431e-11
-2.21969e-11
-1.8778e-11
-2.50087e-11
-1.98166e-11
-2.7818e-11
-2.0759e-11
-3.05951e-11
-2.16056e-11
-3.33105e-11
-2.23566e-11
-3.59355e-11
-2.30126e-11
-3.84415e-11
-2.35741e-11
-4.08003e-11
-2.40419e-11
-4.29837e-11
-2.44169e-11
-4.49641e-11
-2.46999e-11
-4.67134e-11
-2.48921e-11
-4.8204e-11
-2.49946e-11
-4.94073e-11
-2.50086e-11
-5.02955e-11
-2.49358e-11
-5.08384e-11
-2.47775e-11
-5.10075e-11
-2.45356e-11
-5.07703e-11
-2.42118e-11
-5.00966e-11
-2.38085e-11
-4.895e-11
-2.33273e-11
-4.72977e-11
-2.27715e-11
-4.50977e-11
-2.21427e-11
-4.23135e-11
-2.14453e-11
-3.88947e-11
-2.06807e-11
-3.48001e-11
-1.98549e-11
-2.99671e-11
-1.89688e-11
-2.43482e-11
-1.80309e-11
-1.78618e-11
-1.70409e-11
-1.04375e-11
-1.60108e-11
-1.95519e-12
-1.4938e-11
7.58838e-12
-1.38397e-11
1.79345e-11
-1.27024e-11
2.89027e-11
-1.15154e-11
4.16408e-11
-1.04301e-11
5.57953e-11
-9.92135e-12
6.52584e-11
-9.33981e-12
6.44871e-11
-9.33227e-12
7.84259e-11
-1.06934e-11
8.42611e-11
-1.26077e-11
-1.34855e-11
9.59708e-11
-1.62158e-13
-9.06247e-13
-6.54479e-13
-2.64526e-12
-1.45892e-12
-4.3192e-12
-2.54614e-12
-5.931e-12
-3.88738e-12
-7.47893e-12
-5.45437e-12
-8.96152e-12
-7.21928e-12
-1.03775e-11
-9.15466e-12
-1.17259e-11
-1.12335e-11
-1.30057e-11
-1.3429e-11
-1.42163e-11
-1.57149e-11
-1.53572e-11
-1.80652e-11
-1.64277e-11
-2.0454e-11
-1.74277e-11
-2.28561e-11
-1.8357e-11
-2.52461e-11
-1.92155e-11
-2.75992e-11
-2.00035e-11
-2.98908e-11
-2.0721e-11
-3.20964e-11
-2.13684e-11
-3.41921e-11
-2.19463e-11
-3.61537e-11
-2.24552e-11
-3.79578e-11
-2.28959e-11
-3.95807e-11
-2.32691e-11
-4.09992e-11
-2.3576e-11
-4.21903e-11
-2.38175e-11
-4.3131e-11
-2.3995e-11
-4.37987e-11
-2.41097e-11
-4.41709e-11
-2.41634e-11
-4.42253e-11
-2.41574e-11
-4.39398e-11
-2.4094e-11
-4.32924e-11
-2.39747e-11
-4.22615e-11
-2.38023e-11
-4.08255e-11
-2.35787e-11
-3.89635e-11
-2.33072e-11
-3.66541e-11
-2.29901e-11
-3.38775e-11
-2.26315e-11
-3.06126e-11
-2.22337e-11
-2.68411e-11
-2.18025e-11
-2.25419e-11
-2.13401e-11
-1.76989e-11
-2.08538e-11
-1.22909e-11
-2.0346e-11
-6.30425e-12
-1.98263e-11
2.8974e-13
-1.92963e-11
7.54378e-12
-1.87695e-11
1.53604e-11
-1.82468e-11
2.31835e-11
-1.77445e-11
3.1152e-11
-1.73086e-11
3.87336e-11
-1.69951e-11
4.17798e-11
-1.65166e-11
4.58267e-11
-1.67775e-11
-1.70738e-11
4.94149e-11
-1.42949e-13
-7.63298e-13
-5.25799e-13
-2.26241e-12
-1.12295e-12
-3.72205e-12
-1.91824e-12
-5.13571e-12
-2.89481e-12
-6.50235e-12
-4.03529e-12
-7.82103e-12
-5.32191e-12
-9.0909e-12
-6.73656e-12
-1.03112e-11
-8.26092e-12
-1.14814e-11
-9.87649e-12
-1.26008e-11
-1.15646e-11
-1.3669e-11
-1.33067e-11
-1.46857e-11
-1.50838e-11
-1.56505e-11
-1.68774e-11
-1.65634e-11
-1.86687e-11
-1.74243e-11
-2.0439e-11
-1.82331e-11
-2.217e-11
-1.899e-11
-2.38431e-11
-1.96952e-11
-2.54404e-11
-2.03491e-11
-2.69436e-11
-2.0952e-11
-2.83353e-11
-2.15043e-11
-2.95978e-11
-2.20066e-11
-3.07142e-11
-2.24596e-11
-3.16677e-11
-2.2864e-11
-3.24422e-11
-2.32205e-11
-3.3022e-11
-2.353e-11
-3.33922e-11
-2.37932e-11
-3.35383e-11
-2.40113e-11
-3.34471e-11
-2.41851e-11
-3.3106e-11
-2.43158e-11
-3.2504e-11
-2.44043e-11
-3.16307e-11
-2.44519e-11
-3.04784e-11
-2.44596e-11
-2.90398e-11
-2.44286e-11
-2.73112e-11
-2.43601e-11
-2.52895e-11
-2.42554e-11
-2.29764e-11
-2.41156e-11
-2.03745e-11
-2.39419e-11
-1.74925e-11
-2.37358e-11
-1.43405e-11
-2.3498e-11
-1.09364e-11
-2.32304e-11
-7.29956e-12
-2.29332e-11
-3.46019e-12
-2.26088e-11
5.49174e-13
-2.22561e-11
4.68359e-12
-2.18789e-11
8.84872e-12
-2.14738e-11
1.28981e-11
-2.10445e-11
1.70468e-11
-2.06657e-11
2.08243e-11
-2.02594e-11
-1.95471e-11
2.10029e-11
-7.15049e-14
-6.91793e-13
-3.06529e-13
-2.02739e-12
-7.02478e-13
-3.3261e-12
-1.24571e-12
-4.59248e-12
-1.92299e-12
-5.82507e-12
-2.72139e-12
-7.02263e-12
-3.62827e-12
-8.18402e-12
-4.63123e-12
-9.30826e-12
-5.71812e-12
-1.03945e-11
-6.87696e-12
-1.14419e-11
-8.09597e-12
-1.245e-11
-9.3635e-12
-1.34181e-11
-1.06681e-11
-1.4346e-11
-1.19983e-11
-1.52332e-11
-1.33428e-11
-1.60797e-11
-1.46906e-11
-1.68853e-11
-1.60304e-11
-1.76502e-11
-1.73514e-11
-1.83743e-11
-1.86426e-11
-1.90579e-11
-1.98932e-11
-1.97013e-11
-2.10925e-11
-2.0305e-11
-2.22299e-11
-2.08692e-11
-2.32948e-11
-2.13947e-11
-2.42769e-11
-2.1882e-11
-2.51658e-11
-2.23316e-11
-2.59513e-11
-2.27445e-11
-2.66233e-11
-2.31212e-11
-2.7172e-11
-2.34626e-11
-2.75875e-11
-2.37696e-11
-2.78603e-11
-2.4043e-11
-2.79808e-11
-2.42838e-11
-2.794e-11
-2.44927e-11
-2.77287e-11
-2.46709e-11
-2.73383e-11
-2.48191e-11
-2.67599e-11
-2.49385e-11
-2.59855e-11
-2.50298e-11
-2.50069e-11
-2.50942e-11
-2.38163e-11
-2.51325e-11
-2.24063e-11
-2.51458e-11
-2.07696e-11
-2.51347e-11
-1.88995e-11
-2.51005e-11
-1.67889e-11
-2.50438e-11
-1.44321e-11
-2.49657e-11
-1.18217e-11
-2.48665e-11
-8.95275e-12
-2.47479e-11
-5.81724e-12
-2.46093e-11
-2.40824e-12
-2.44535e-11
1.20492e-12
-2.42789e-11
5.03198e-12
-2.40865e-11
-2.4021e-11
9.50505e-12
-4.765e-14
-6.44143e-13
-1.42932e-13
-1.93211e-12
-2.69267e-13
-3.19977e-12
-4.25298e-13
-4.43644e-12
-6.09797e-13
-5.64057e-12
-8.21647e-13
-6.81078e-12
-1.05979e-12
-7.94588e-12
-1.32316e-12
-9.04489e-12
-1.61064e-12
-1.0107e-11
-1.92102e-12
-1.11316e-11
-2.25294e-12
-1.21181e-11
-2.60485e-12
-1.30662e-11
-2.97502e-12
-1.39758e-11
-3.36146e-12
-1.48468e-11
-3.762e-12
-1.56792e-11
-4.17417e-12
-1.64732e-11
-4.59529e-12
-1.7229e-11
-5.02241e-12
-1.79471e-11
-5.45236e-12
-1.86279e-11
-5.8817e-12
-1.9272e-11
-6.3068e-12
-1.98799e-11
-6.72378e-12
-2.04523e-11
-7.12857e-12
-2.09899e-11
-7.51689e-12
-2.14936e-11
-7.88429e-12
-2.19643e-11
-8.22613e-12
-2.24026e-11
-8.5376e-12
-2.28097e-11
-8.81374e-12
-2.31865e-11
-9.04942e-12
-2.35339e-11
-9.23939e-12
-2.38531e-11
-9.37819e-12
-2.4145e-11
-9.46026e-12
-2.44107e-11
-9.4798e-12
-2.46513e-11
-9.4309e-12
-2.4868e-11
-9.30738e-12
-2.5062e-11
-9.10291e-12
-2.52343e-11
-8.8108e-12
-2.53863e-11
-8.42416e-12
-2.55192e-11
-7.93569e-12
-2.56342e-11
-7.3377e-12
-2.57327e-11
-6.62207e-12
-2.58162e-11
-5.78001e-12
-2.58858e-11
-4.80228e-12
-2.59434e-11
-3.67851e-12
-2.59903e-11
-2.39805e-12
-2.60283e-11
-9.48176e-13
-2.60591e-11
6.83088e-13
-2.60847e-11
2.5113e-12
-2.61071e-11
4.55282e-12
-2.6128e-11
-2.6149e-11
6.68085e-12
8.62842e-14
-7.30427e-13
2.81822e-13
-2.12764e-12
5.6219e-13
-3.48014e-12
9.20726e-13
-4.79498e-12
1.349e-12
-6.06885e-12
1.83752e-12
-7.2993e-12
2.37624e-12
-8.48461e-12
2.95491e-12
-9.62356e-12
3.56335e-12
-1.07154e-11
4.19171e-12
-1.17599e-11
4.83064e-12
-1.2757e-11
5.47142e-12
-1.3707e-11
6.10606e-12
-1.46105e-11
6.72738e-12
-1.54681e-11
7.329e-12
-1.62808e-11
7.90541e-12
-1.70496e-11
8.45192e-12
-1.77755e-11
8.96468e-12
-1.84599e-11
9.44062e-12
-1.91039e-11
9.87743e-12
-1.97088e-11
1.02735e-11
-2.02759e-11
1.06279e-11
-2.08067e-11
1.09404e-11
-2.13024e-11
1.12111e-11
-2.17643e-11
1.14407e-11
-2.21939e-11
1.16305e-11
-2.25924e-11
1.17819e-11
-2.29611e-11
1.18968e-11
-2.33014e-11
1.19773e-11
-2.36145e-11
1.20259e-11
-2.39016e-11
1.20449e-11
-2.4164e-11
1.2037e-11
-2.44028e-11
1.20049e-11
-2.46192e-11
1.19512e-11
-2.48144e-11
1.18787e-11
-2.49895e-11
1.179e-11
-2.51456e-11
1.16876e-11
-2.52839e-11
1.15739e-11
-2.54055e-11
1.1451e-11
-2.55114e-11
1.13212e-11
-2.56029e-11
1.1186e-11
-2.5681e-11
1.10471e-11
-2.5747e-11
1.09059e-11
-2.58021e-11
1.07633e-11
-2.58477e-11
1.06201e-11
-2.58851e-11
1.04769e-11
-2.59159e-11
1.03337e-11
-2.59416e-11
1.01902e-11
-2.59636e-11
1.00458e-11
-2.59836e-11
-2.60059e-11
9.90274e-12
2.31655e-13
-9.62082e-13
9.41063e-13
-2.83705e-12
2.07324e-12
-4.61231e-12
3.54052e-12
-6.26226e-12
5.26595e-12
-7.79428e-12
7.1821e-12
-9.21545e-12
9.23004e-12
-1.05325e-11
1.13586e-11
-1.17521e-11
1.35235e-11
-1.28804e-11
1.56869e-11
-1.39234e-11
1.78167e-11
-1.48868e-11
1.98859e-11
-1.57762e-11
2.18719e-11
-1.65965e-11
2.37565e-11
-1.73527e-11
2.5525e-11
-1.80493e-11
2.71659e-11
-1.86905e-11
2.86706e-11
-1.92803e-11
3.00332e-11
-1.98224e-11
3.12496e-11
-2.03203e-11
3.23181e-11
-2.07773e-11
3.32384e-11
-2.11962e-11
3.40116e-11
-2.15799e-11
3.46402e-11
-2.1931e-11
3.51276e-11
-2.22518e-11
3.54783e-11
-2.25445e-11
3.56971e-11
-2.28112e-11
3.57897e-11
-2.30537e-11
3.5762e-11
-2.32738e-11
3.56205e-11
-2.34729e-11
3.53715e-11
-2.36527e-11
3.50218e-11
-2.38142e-11
3.45779e-11
-2.39588e-11
3.40463e-11
-2.40876e-11
3.34333e-11
-2.42014e-11
3.2745e-11
-2.43012e-11
3.19872e-11
-2.43878e-11
3.11651e-11
-2.44618e-11
3.02836e-11
-2.4524e-11
2.9347e-11
-2.45748e-11
2.83589e-11
-2.46148e-11
2.73224e-11
-2.46445e-11
2.62396e-11
-2.46642e-11
2.51121e-11
-2.46746e-11
2.39403e-11
-2.4676e-11
2.27241e-11
-2.46689e-11
2.1462e-11
-2.46538e-11
2.01515e-11
-2.46311e-11
1.87886e-11
-2.46007e-11
1.73732e-11
-2.45682e-11
-2.45352e-11
1.50699e-11
8.2828e-13
-1.79036e-12
2.73217e-12
-4.74094e-12
5.3581e-12
-7.23824e-12
8.48774e-12
-9.3919e-12
1.19443e-11
-1.12509e-11
1.55851e-11
-1.28562e-11
1.92957e-11
-1.42431e-11
2.29855e-11
-1.54418e-11
2.65833e-11
-1.64782e-11
3.00344e-11
-1.73745e-11
3.32973e-11
-1.81497e-11
3.63416e-11
-1.88204e-11
3.91457e-11
-1.94007e-11
4.16957e-11
-1.99026e-11
4.39832e-11
-2.03368e-11
4.6005e-11
-2.07123e-11
4.77615e-11
-2.10368e-11
4.92563e-11
-2.13172e-11
5.04953e-11
-2.15593e-11
5.14862e-11
-2.17682e-11
5.22381e-11
-2.19481e-11
5.27611e-11
-2.21029e-11
5.30658e-11
-2.22357e-11
5.31634e-11
-2.23493e-11
5.30649e-11
-2.2446e-11
5.27814e-11
-2.25277e-11
5.23237e-11
-2.2596e-11
5.17022e-11
-2.26522e-11
5.09264e-11
-2.26972e-11
5.00054e-11
-2.27316e-11
4.89469e-11
-2.27558e-11
4.77578e-11
-2.27697e-11
4.64434e-11
-2.27732e-11
4.50075e-11
-2.27655e-11
4.3452e-11
-2.27457e-11
4.17764e-11
-2.27122e-11
3.99779e-11
-2.26633e-11
3.80503e-11
-2.25964e-11
3.5984e-11
-2.25084e-11
3.3765e-11
-2.23958e-11
3.13741e-11
-2.22536e-11
2.87863e-11
-2.20764e-11
2.59689e-11
-2.18572e-11
2.28812e-11
-2.15882e-11
1.94712e-11
-2.1259e-11
1.56763e-11
-2.08588e-11
1.14178e-11
-2.03726e-11
6.60063e-12
-1.97835e-11
1.10044e-12
-1.90693e-11
-1.88712e-11
-9.21208e-12
1.76096e-11
3.22687e-11
4.44305e-11
5.44386e-11
6.25877e-11
6.91314e-11
7.42883e-11
7.82465e-11
8.11683e-11
8.31938e-11
8.44441e-11
8.50237e-11
8.5023e-11
8.45204e-11
8.35836e-11
8.22713e-11
8.06345e-11
7.87173e-11
7.65579e-11
7.41898e-11
7.16416e-11
6.89387e-11
6.6103e-11
6.31537e-11
6.01077e-11
5.698e-11
5.37839e-11
5.05317e-11
4.72345e-11
4.39029e-11
4.05471e-11
3.71774e-11
3.38042e-11
3.04387e-11
2.7093e-11
2.37808e-11
2.05175e-11
1.73211e-11
1.42126e-11
1.12169e-11
8.36331e-12
5.6869e-12
3.22969e-12
1.04149e-12
-8.1755e-13
-2.27636e-12
-3.24878e-12
-3.63258e-12
-3.40963e-12
-8.98333e-12
-7.05744e-10
1.17251e-10
-7.21032e-10
1.15096e-10
-7.35415e-10
1.12948e-10
-7.48931e-10
1.10818e-10
-7.61624e-10
1.08726e-10
-7.73544e-10
1.06676e-10
-7.84741e-10
1.04677e-10
-7.95266e-10
1.02732e-10
-8.05164e-10
1.00839e-10
-8.14478e-10
9.89987e-11
-8.2325e-10
9.72103e-11
-8.31519e-10
9.54749e-11
-8.39324e-10
9.37925e-11
-8.46702e-10
9.21635e-11
-8.5369e-10
9.05863e-11
-8.60324e-10
8.90594e-11
-8.66634e-10
8.75803e-11
-8.72652e-10
8.61471e-11
-8.78408e-10
8.47577e-11
-8.83928e-10
8.34103e-11
-8.89241e-10
8.21026e-11
-8.94372e-10
8.08325e-11
-8.99345e-10
7.95974e-11
-9.04184e-10
7.83946e-11
-9.08909e-10
7.72216e-11
-9.13541e-10
7.60755e-11
-9.18098e-10
7.49533e-11
-9.22597e-10
7.38521e-11
-9.27055e-10
7.27693e-11
-9.31485e-10
7.17023e-11
-9.35901e-10
7.06492e-11
-9.40317e-10
6.96078e-11
-9.44745e-10
6.85765e-11
-9.49197e-10
6.75534e-11
-9.53685e-10
6.65371e-11
-9.58221e-10
6.55261e-11
-9.62814e-10
6.4519e-11
-9.67477e-10
6.35145e-11
-9.72219e-10
6.25116e-11
-9.7705e-10
6.15091e-11
-9.8198e-10
6.05061e-11
-9.87019e-10
5.95017e-11
-9.92175e-10
5.8495e-11
-9.97458e-10
5.74851e-11
-1.00288e-09
5.64713e-11
-1.00844e-09
5.54523e-11
-1.01415e-09
5.44267e-11
-1.02002e-09
5.33925e-11
-1.02606e-09
5.23468e-11
5.12733e-11
-1.03225e-09
-7.69416e-10
1.27619e-10
-7.79177e-10
1.24858e-10
-7.88294e-10
1.22065e-10
-7.96654e-10
1.19178e-10
-8.04395e-10
1.16466e-10
-8.11628e-10
1.1391e-10
-8.18505e-10
1.11554e-10
-8.25115e-10
1.09342e-10
-8.31301e-10
1.07024e-10
-8.37071e-10
1.04769e-10
-8.42291e-10
1.0243e-10
-8.47029e-10
1.00212e-10
-8.51343e-10
9.81067e-11
-8.55306e-10
9.61265e-11
-8.58928e-10
9.42081e-11
-8.62222e-10
9.23541e-11
-8.65187e-10
9.05446e-11
-8.67838e-10
8.8798e-11
-8.70198e-10
8.71183e-11
-8.72295e-10
8.55073e-11
-8.74157e-10
8.39646e-11
-8.75813e-10
8.24877e-11
-8.77286e-10
8.10712e-11
-8.78603e-10
7.97116e-11
-8.79786e-10
7.84045e-11
-8.80855e-10
7.71447e-11
-8.81829e-10
7.59271e-11
-8.82723e-10
7.47453e-11
-8.83548e-10
7.35944e-11
-8.84316e-10
7.24711e-11
-8.8504e-10
7.13727e-11
-8.8573e-10
7.02978e-11
-8.86398e-10
6.92443e-11
-8.87055e-10
6.82105e-11
-8.87712e-10
6.71943e-11
-8.8838e-10
6.61941e-11
-8.89069e-10
6.52081e-11
-8.89789e-10
6.42348e-11
-8.9055e-10
6.32725e-11
-8.91361e-10
6.23198e-11
-8.9223e-10
6.13755e-11
-8.93167e-10
6.04386e-11
-8.9418e-10
5.95079e-11
-8.95278e-10
5.85825e-11
-8.96468e-10
5.76613e-11
-8.97758e-10
5.67429e-11
-8.99157e-10
5.58259e-11
-9.00673e-10
5.49079e-11
-9.02312e-10
5.39855e-11
5.3073e-11
-9.04111e-10
-1.05253e-09
1.09588e-10
-1.03623e-09
1.0855e-10
-1.01987e-09
1.05706e-10
-1.00413e-09
1.03443e-10
-9.88844e-10
1.01177e-10
-9.74513e-10
9.95779e-11
-9.61125e-10
9.81661e-11
-9.48555e-10
9.67722e-11
-9.37418e-10
9.58875e-11
-9.2631e-10
9.36612e-11
-9.1556e-10
9.16805e-11
-9.05255e-10
8.99068e-11
-8.95617e-10
8.84687e-11
-8.86692e-10
8.72017e-11
-8.78588e-10
8.61042e-11
-8.71067e-10
8.48333e-11
-8.64086e-10
8.3564e-11
-8.5756e-10
8.22712e-11
-8.51356e-10
8.09143e-11
-8.4546e-10
7.96115e-11
-8.39969e-10
7.84739e-11
-8.34883e-10
7.74019e-11
-8.30202e-10
7.639e-11
-8.26032e-10
7.55418e-11
-8.22364e-10
7.47361e-11
-8.19306e-10
7.40869e-11
-8.16908e-10
7.35286e-11
-8.14984e-10
7.28214e-11
-8.13459e-10
7.20699e-11
-8.12152e-10
7.11643e-11
-8.10988e-10
7.02086e-11
-8.09929e-10
6.92382e-11
-8.08938e-10
6.82531e-11
-8.07994e-10
6.72673e-11
-8.07089e-10
6.62892e-11
-8.06217e-10
6.53218e-11
-8.05376e-10
6.43676e-11
-8.04568e-10
6.34267e-11
-8.03795e-10
6.24992e-11
-8.03059e-10
6.15838e-11
-8.02363e-10
6.06791e-11
-8.01709e-10
5.97845e-11
-8.011e-10
5.88992e-11
-8.0054e-10
5.80224e-11
-8.00032e-10
5.7153e-11
-7.99579e-10
5.62897e-11
-7.99184e-10
5.5431e-11
-7.9885e-10
5.45747e-11
-7.98582e-10
5.37174e-11
5.28336e-11
-7.98343e-10
-7.14939e-10
1.07573e-10
-7.12627e-10
1.06237e-10
-7.12374e-10
1.05454e-10
-7.12063e-10
1.03132e-10
-7.11842e-10
1.00956e-10
-7.11512e-10
9.92484e-11
-7.10591e-10
9.72446e-11
-7.09238e-10
9.54196e-11
-7.06051e-10
9.27006e-11
-7.03249e-10
9.08588e-11
-7.01346e-10
8.97778e-11
-6.98965e-10
8.7526e-11
-6.96942e-10
8.64455e-11
-6.95261e-10
8.55203e-11
-6.93518e-10
8.43613e-11
-6.92819e-10
8.41341e-11
-6.92861e-10
8.3606e-11
-6.92709e-10
8.21198e-11
-6.92608e-10
8.08129e-11
-6.92382e-10
7.93855e-11
-6.91669e-10
7.77607e-11
-6.91323e-10
7.70564e-11
-6.91338e-10
7.64051e-11
-6.90639e-10
7.48426e-11
-6.90092e-10
7.41892e-11
-6.89836e-10
7.38306e-11
-6.89762e-10
7.34549e-11
-6.90281e-10
7.33398e-11
-6.90221e-10
7.20108e-11
-6.89641e-10
7.05841e-11
-6.88719e-10
6.92859e-11
-6.87403e-10
6.79222e-11
-6.85935e-10
6.67853e-11
-6.84305e-10
6.56376e-11
-6.82662e-10
6.46459e-11
-6.80927e-10
6.35868e-11
-6.7919e-10
6.26305e-11
-6.77407e-10
6.16438e-11
-6.75651e-10
6.07431e-11
-6.73826e-10
5.97587e-11
-6.71913e-10
5.87661e-11
-6.69905e-10
5.7777e-11
-6.67817e-10
5.68116e-11
-6.65682e-10
5.58868e-11
-6.63471e-10
5.49425e-11
-6.61203e-10