/*--------------------------------*- C++ -*----------------------------------*\
| =========                 |                                                 |
| \\      /  F ield         | OpenFOAM: The Open Source CFD Toolbox           |
|  \\    /   O peration     | Version:  2.4.0                                 |
|   \\  /    A nd           | Web:      www.OpenFOAM.org                      |
|    \\/     M anipulation  |                                                 |
\*---------------------------------------------------------------------------*/
FoamFile
{
    version     2.0;
    format      ascii;
    class       volScalarField;
    location    "0.014";
    object      alpha1;
}
// * * * * * * * * * * * * * * * * * * * * * * * * * * * * * * * * * * * * * //

dimensions      [0 0 0 0 0 0 0];

internalField   nonuniform List<scalar> 
125
(
1
1
1
1
0.184977
4.81038e-139
9.44193e-145
1.6951e-150
2.66542e-156
3.62623e-162
4.26585e-168
4.34696e-174
3.8403e-180
2.93755e-186
1.93781e-192
1.09446e-198
5.23357e-205
2.08466e-211
6.75615e-218
1.72065e-224
3.26246e-231
4.1985e-238
3.0344e-245
6.9261e-253
0
0
0
0
0
0
0
0
0
0
0
0
0
0
0
0
0
0
0
0
0
0
0
0
0
0
0
0
0
0
0
0
0
0
0
0
0
0
0
0
0
0
0
0
0
0
0
0
0
0
0
0
0
0
0
0
0
0
0
0
0
0
0
0
0
0
0
0
0
0
0
0
0
0
0
0
0
0
0
0
0
0
0
0
0
0
0
0
0
0
0
0
0
0
0
0
0
0
0
0
0
)
;

boundaryField
{
    BotWall
    {
        type            fixedValue;
        value           uniform 1;
    }
    FreeStream
    {
        type            inletOutlet;
        inletValue      uniform 0;
        value           uniform 0;
    }
    FrontNBack
    {
        type            empty;
    }
    LeftSide
    {
        type            symmetryPlane;
    }
    RightSide
    {
        type            symmetryPlane;
    }
    procBoundary4to1
    {
        type            processor;
        value           uniform 0;
    }
    procBoundary4to2
    {
        type            processor;
        value           nonuniform List<scalar> 
75
(
1
1
1
1
0.17707
6.98466e-142
1.8031e-147
3.87992e-153
6.94182e-159
1.03913e-164
1.3125e-170
1.41055e-176
1.29649e-182
1.02114e-188
6.88072e-195
3.94507e-201
1.90599e-207
7.64251e-214
2.48635e-220
6.34312e-227
1.2029e-233
1.54656e-240
1.11579e-247
2.54097e-255
0
0
0
0
0
0
0
0
0
0
0
0
0
0
0
0
0
0
0
0
0
0
0
0
0
0
0
0
0
0
0
0
0
0
0
0
0
0
0
0
0
0
0
0
0
0
0
0
0
0
0
)
;
    }
    procBoundary4to3
    {
        type            processor;
        value           uniform 0;
    }
    procBoundary4to5
    {
        type            processor;
        value           uniform 0;
    }
    procBoundary4to6
    {
        type            processor;
        value           uniform 0;
    }
    procBoundary4to7
    {
        type            processor;
        value           nonuniform List<scalar> 
50
(
1
1
1
1
0.185409
7.47855e-142
1.20889e-147
1.96596e-153
2.9162e-159
3.81704e-165
4.35678e-171
4.33207e-177
3.74154e-183
2.80064e-189
1.81003e-195
1.00264e-201
4.7078e-208
1.84371e-214
5.87805e-221
1.47338e-227
2.75102e-234
3.48702e-241
2.48276e-248
5.58473e-256
0
0
0
0
0
0
0
0
0
0
0
0
0
0
0
0
0
0
0
0
0
0
0
0
0
0
)
;
    }
}


// ************************************************************************* //
