/*--------------------------------*- C++ -*----------------------------------*\
| =========                 |                                                 |
| \\      /  F ield         | OpenFOAM: The Open Source CFD Toolbox           |
|  \\    /   O peration     | Version:  2.4.0                                 |
|   \\  /    A nd           | Web:      www.OpenFOAM.org                      |
|    \\/     M anipulation  |                                                 |
\*---------------------------------------------------------------------------*/
FoamFile
{
    version     2.0;
    format      ascii;
    class       volScalarField;
    location    "0.014";
    object      p;
}
// * * * * * * * * * * * * * * * * * * * * * * * * * * * * * * * * * * * * * //

dimensions      [1 -1 -2 0 0 0 0];

internalField   nonuniform List<scalar> 
125
(
0.0296845
0.032034
-0.00932833
0.0494573
-0.460923
-0.0588158
0.0160433
0.00372788
-0.00605445
-0.00810074
-0.0077928
-0.00758649
-0.00767859
-0.00785982
-0.00803727
-0.00820376
-0.00836747
-0.00853198
-0.00869754
-0.00886384
-0.00903074
-0.00919824
-0.00936636
-0.00953509
-0.00970444
-0.00987442
-0.010045
-0.0102163
-0.0103881
-0.0105606
-0.0107337
-0.0109075
-0.0110819
-0.0112569
-0.0114326
-0.011609
-0.011786
-0.0119636
-0.0121419
-0.0123208
-0.0125004
-0.0126807
-0.0128616
-0.0130432
-0.0132255
-0.0134084
-0.0135921
-0.0137763
-0.0139613
-0.014147
-0.0143333
-0.0145203
-0.014708
-0.0148964
-0.0150855
-0.0152753
-0.0154657
-0.0156569
-0.0158488
-0.0160414
-0.0162347
-0.0164287
-0.0166234
-0.0168189
-0.017015
-0.0172119
-0.0174095
-0.0176079
-0.0178069
-0.0180067
-0.0182073
-0.0184086
-0.0186106
-0.0188133
-0.0190168
-0.0192211
-0.0194261
-0.0196319
-0.0198384
-0.0200457
-0.0202537
-0.0204625
-0.0206721
-0.0208824
-0.0210935
-0.0213054
-0.0215181
-0.0217316
-0.0219458
-0.0221609
-0.0223767
-0.0225933
-0.0228107
-0.023029
-0.023248
-0.0234678
-0.0236884
-0.0239099
-0.0241322
-0.0243552
-0.0796572
-0.0800847
-0.0805138
-0.0809445
-0.0813767
-0.0818105
-0.082246
-0.082683
-0.0831217
-0.0835619
-0.0840038
-0.0844473
-0.0848925
-0.0853393
-0.0857877
-0.0862378
-0.0866895
-0.0871429
-0.087598
-0.0880547
-0.0885132
-0.0889733
-0.0894351
-0.0898986
-0.0903637
)
;

boundaryField
{
    BotWall
    {
        type            calculated;
        value           uniform 0.0346279;
    }
    FreeStream
    {
        type            calculated;
        value           uniform -0.0905966;
    }
    FrontNBack
    {
        type            empty;
    }
    LeftSide
    {
        type            symmetryPlane;
    }
    RightSide
    {
        type            symmetryPlane;
    }
    procBoundary4to1
    {
        type            processor;
        value           nonuniform List<scalar> 
50
(
-0.0143404
-0.0145274
-0.014715
-0.0149034
-0.0150924
-0.0152822
-0.0154726
-0.0156637
-0.0158556
-0.0160481
-0.0162414
-0.0164353
-0.01663
-0.0168254
-0.0170215
-0.0172184
-0.0174159
-0.0176142
-0.0178132
-0.018013
-0.0182135
-0.0184147
-0.0186167
-0.0188194
-0.0190228
-0.0192271
-0.019432
-0.0196377
-0.0198442
-0.0200514
-0.0202594
-0.0204682
-0.0206777
-0.020888
-0.0210991
-0.021311
-0.0215236
-0.021737
-0.0219512
-0.0221662
-0.022382
-0.0225986
-0.022816
-0.0230341
-0.0232531
-0.0234729
-0.0236935
-0.0239149
-0.0241371
-0.0243602
)
;
    }
    procBoundary4to2
    {
        type            processor;
        value           nonuniform List<scalar> 
75
(
0.0287285
0.0308103
-0.00950815
0.0448903
-0.449918
-0.0570853
0.0156516
0.00352291
-0.00608834
-0.00809471
-0.00779337
-0.00759359
-0.00768712
-0.00786806
-0.00804524
-0.00821165
-0.00837535
-0.00853984
-0.00870538
-0.00887166
-0.00903854
-0.00920602
-0.00937411
-0.00954282
-0.00971215
-0.00988211
-0.0100527
-0.0102239
-0.0103957
-0.0105682
-0.0107413
-0.0109151
-0.0110894
-0.0112645
-0.0114401
-0.0116165
-0.0117934
-0.011971
-0.0121493
-0.0123282
-0.0125078
-0.0126881
-0.012869
-0.0130506
-0.0132328
-0.0134157
-0.0135993
-0.0137836
-0.0139685
-0.0141541
-0.0796577
-0.0800852
-0.0805142
-0.0809449
-0.0813771
-0.0818109
-0.0822463
-0.0826834
-0.083122
-0.0835622
-0.0840041
-0.0844476
-0.0848927
-0.0853395
-0.0857879
-0.086238
-0.0866897
-0.0871431
-0.0875981
-0.0880548
-0.0885132
-0.0889733
-0.0894351
-0.0898986
-0.0903637
)
;
    }
    procBoundary4to3
    {
        type            processor;
        value           uniform -0.0245791;
    }
    procBoundary4to5
    {
        type            processor;
        value           uniform -0.0792312;
    }
    procBoundary4to6
    {
        type            processor;
        value           nonuniform List<scalar> 
75
(
-0.00987176
-0.0100423
-0.0102136
-0.0103854
-0.0105579
-0.010731
-0.0109047
-0.0110791
-0.0112541
-0.0114298
-0.0116061
-0.011783
-0.0119607
-0.0121389
-0.0123179
-0.0124974
-0.0126777
-0.0128586
-0.0130402
-0.0132224
-0.0134053
-0.0135889
-0.0137732
-0.0139582
-0.0141438
-0.0143301
-0.0145171
-0.0147048
-0.0148932
-0.0150822
-0.015272
-0.0154625
-0.0156536
-0.0158455
-0.0160381
-0.0162314
-0.0164254
-0.0166201
-0.0168155
-0.0170117
-0.0172085
-0.0174061
-0.0176045
-0.0178035
-0.0180033
-0.0182038
-0.0184051
-0.0186071
-0.0188099
-0.0190134
-0.0192176
-0.0194226
-0.0196284
-0.0198349
-0.0200421
-0.0202502
-0.020459
-0.0206686
-0.0208789
-0.02109
-0.0213019
-0.0215146
-0.021728
-0.0219423
-0.0221573
-0.0223731
-0.0225898
-0.0228072
-0.0230254
-0.0232444
-0.0234642
-0.0236849
-0.0239063
-0.0241286
-0.0243517
)
;
    }
    procBoundary4to7
    {
        type            processor;
        value           nonuniform List<scalar> 
50
(
0.02963
0.0319891
-0.00942967
0.049593
-0.461543
-0.0589075
0.0160669
0.00374129
-0.00605032
-0.00809876
-0.00779047
-0.00758381
-0.00767584
-0.00785709
-0.00803457
-0.00820107
-0.00836479
-0.0085293
-0.00869487
-0.00886118
-0.00902809
-0.0091956
-0.00936372
-0.00953245
-0.0097018
-0.079656
-0.0800835
-0.0805126
-0.0809433
-0.0813755
-0.0818094
-0.0822448
-0.0826819
-0.0831205
-0.0835608
-0.0840026
-0.0844462
-0.0848913
-0.0853381
-0.0857865
-0.0862366
-0.0866883
-0.0871417
-0.0875968
-0.0880535
-0.0885119
-0.088972
-0.0894338
-0.0898973
-0.0903626
)
;
    }
}


// ************************************************************************* //
