/*--------------------------------*- C++ -*----------------------------------*\
| =========                 |                                                 |
| \\      /  F ield         | OpenFOAM: The Open Source CFD Toolbox           |
|  \\    /   O peration     | Version:  2.4.0                                 |
|   \\  /    A nd           | Web:      www.OpenFOAM.org                      |
|    \\/     M anipulation  |                                                 |
\*---------------------------------------------------------------------------*/
FoamFile
{
    version     2.0;
    format      ascii;
    class       volScalarField;
    location    "0.014";
    object      T;
}
// * * * * * * * * * * * * * * * * * * * * * * * * * * * * * * * * * * * * * //

dimensions      [0 0 0 1 0 0 0];

internalField   nonuniform List<scalar> 
125
(
293.485
294.458
295.437
296.425
297.916
297.915
297.914
297.913
297.913
297.913
297.913
297.913
297.913
297.914
297.914
297.915
297.916
297.917
297.919
297.92
297.922
297.923
297.925
297.927
297.929
297.931
297.933
297.935
297.938
297.94
297.942
297.944
297.946
297.949
297.951
297.953
297.955
297.957
297.959
297.961
297.963
297.965
297.967
297.969
297.97
297.972
297.974
297.975
297.977
297.978
297.979
297.981
297.982
297.983
297.984
297.985
297.986
297.987
297.988
297.988
297.989
297.99
297.99
297.991
297.992
297.992
297.993
297.993
297.993
297.994
297.994
297.995
297.995
297.995
297.995
297.996
297.996
297.996
297.996
297.997
297.997
297.997
297.997
297.997
297.997
297.998
297.998
297.998
297.998
297.998
297.998
297.998
297.998
297.998
297.998
297.999
297.999
297.999
297.999
297.999
298
298
298
298
298
298
298
298
298
298
298
298
298
298
298
298
298
298
298
298
298
298
298
298
298
)
;

boundaryField
{
    BotWall
    {
        type            fixedValue;
        value           uniform 293;
    }
    FreeStream
    {
        type            fixedValue;
        value           uniform 298;
    }
    FrontNBack
    {
        type            empty;
    }
    LeftSide
    {
        type            symmetryPlane;
    }
    RightSide
    {
        type            symmetryPlane;
    }
    procBoundary4to1
    {
        type            processor;
        value           nonuniform List<scalar> 
50
(
297.98
297.981
297.982
297.983
297.984
297.985
297.986
297.987
297.988
297.989
297.989
297.99
297.991
297.991
297.992
297.992
297.993
297.993
297.994
297.994
297.994
297.995
297.995
297.995
297.996
297.996
297.996
297.996
297.996
297.997
297.997
297.997
297.997
297.997
297.997
297.998
297.998
297.998
297.998
297.998
297.998
297.998
297.998
297.998
297.998
297.999
297.999
297.999
297.999
297.999
)
;
    }
    procBoundary4to2
    {
        type            processor;
        value           nonuniform List<scalar> 
75
(
293.484
294.454
295.431
296.418
297.913
297.912
297.911
297.91
297.91
297.909
297.909
297.909
297.91
297.91
297.911
297.912
297.913
297.915
297.916
297.918
297.919
297.921
297.923
297.925
297.927
297.93
297.932
297.934
297.936
297.939
297.941
297.943
297.946
297.948
297.95
297.953
297.955
297.957
297.959
297.961
297.963
297.965
297.967
297.969
297.971
297.972
297.974
297.976
297.977
297.978
298
298
298
298
298
298
298
298
298
298
298
298
298
298
298
298
298
298
298
298
298
298
298
298
298
)
;
    }
    procBoundary4to3
    {
        type            processor;
        value           uniform 297.999;
    }
    procBoundary4to5
    {
        type            processor;
        value           uniform 298;
    }
    procBoundary4to6
    {
        type            processor;
        value           nonuniform List<scalar> 
75
(
297.931
297.933
297.935
297.938
297.94
297.942
297.944
297.946
297.949
297.951
297.953
297.955
297.957
297.959
297.961
297.963
297.965
297.967
297.969
297.97
297.972
297.974
297.975
297.977
297.978
297.979
297.981
297.982
297.983
297.984
297.985
297.986
297.987
297.988
297.988
297.989
297.99
297.99
297.991
297.992
297.992
297.993
297.993
297.993
297.994
297.994
297.995
297.995
297.995
297.995
297.996
297.996
297.996
297.996
297.997
297.997
297.997
297.997
297.997
297.997
297.998
297.998
297.998
297.998
297.998
297.998
297.998
297.998
297.998
297.998
297.999
297.999
297.999
297.999
297.999
)
;
    }
    procBoundary4to7
    {
        type            processor;
        value           nonuniform List<scalar> 
50
(
293.485
294.458
295.437
296.426
297.916
297.915
297.914
297.914
297.913
297.913
297.913
297.913
297.913
297.914
297.914
297.915
297.916
297.918
297.919
297.92
297.922
297.924
297.925
297.927
297.929
298
298
298
298
298
298
298
298
298
298
298
298
298
298
298
298
298
298
298
298
298
298
298
298
298
)
;
    }
}


// ************************************************************************* //
