/*--------------------------------*- C++ -*----------------------------------*\
| =========                 |                                                 |
| \\      /  F ield         | OpenFOAM: The Open Source CFD Toolbox           |
|  \\    /   O peration     | Version:  2.4.0                                 |
|   \\  /    A nd           | Web:      www.OpenFOAM.org                      |
|    \\/     M anipulation  |                                                 |
\*---------------------------------------------------------------------------*/
FoamFile
{
    version     2.0;
    format      ascii;
    class       volVectorField;
    location    "0.014";
    object      U;
}
// * * * * * * * * * * * * * * * * * * * * * * * * * * * * * * * * * * * * * //

dimensions      [0 1 -1 0 0 0 0];

internalField   nonuniform List<vector> 
125
(
(1.69138e-07 -1.18406e-05 0)
(5.3154e-07 3.24235e-05 0)
(9.29869e-07 -8.57507e-05 0)
(1.32382e-06 0.000338706 0)
(2.17751e-06 -0.00207198 0)
(3.25332e-06 -0.0184504 0)
(5.13431e-06 -0.0193437 0)
(7.23026e-06 -0.0162377 0)
(9.30361e-06 -0.0155567 0)
(1.1306e-05 -0.0156203 0)
(1.32225e-05 -0.0157276 0)
(1.50553e-05 -0.015755 0)
(1.68047e-05 -0.015752 0)
(1.84692e-05 -0.0157477 0)
(2.00465e-05 -0.0157466 0)
(2.15347e-05 -0.0157466 0)
(2.29321e-05 -0.0157467 0)
(2.4237e-05 -0.0157467 0)
(2.54479e-05 -0.0157466 0)
(2.65637e-05 -0.0157465 0)
(2.75832e-05 -0.0157464 0)
(2.85056e-05 -0.0157463 0)
(2.93306e-05 -0.0157461 0)
(3.0058e-05 -0.015746 0)
(3.06879e-05 -0.0157459 0)
(3.1221e-05 -0.0157458 0)
(3.16583e-05 -0.0157457 0)
(3.20013e-05 -0.0157455 0)
(3.22517e-05 -0.0157454 0)
(3.24119e-05 -0.0157453 0)
(3.24846e-05 -0.0157451 0)
(3.2473e-05 -0.015745 0)
(3.23806e-05 -0.0157449 0)
(3.22113e-05 -0.0157448 0)
(3.19695e-05 -0.0157446 0)
(3.16597e-05 -0.0157445 0)
(3.12868e-05 -0.0157444 0)
(3.08559e-05 -0.0157442 0)
(3.03723e-05 -0.0157441 0)
(2.98414e-05 -0.015744 0)
(2.92687e-05 -0.0157439 0)
(2.86598e-05 -0.0157437 0)
(2.802e-05 -0.0157436 0)
(2.7355e-05 -0.0157435 0)
(2.66699e-05 -0.0157434 0)
(2.59699e-05 -0.0157433 0)
(2.52598e-05 -0.0157432 0)
(2.45445e-05 -0.015743 0)
(2.38281e-05 -0.0157429 0)
(2.31149e-05 -0.0157428 0)
(2.24086e-05 -0.0157427 0)
(2.17125e-05 -0.0157426 0)
(2.10296e-05 -0.0157425 0)
(2.03627e-05 -0.0157425 0)
(1.97141e-05 -0.0157424 0)
(1.90856e-05 -0.0157423 0)
(1.84789e-05 -0.0157422 0)
(1.78952e-05 -0.0157421 0)
(1.73354e-05 -0.015742 0)
(1.68001e-05 -0.0157419 0)
(1.62897e-05 -0.0157419 0)
(1.58043e-05 -0.0157418 0)
(1.53436e-05 -0.0157417 0)
(1.49074e-05 -0.0157417 0)
(1.44951e-05 -0.0157416 0)
(1.41059e-05 -0.0157415 0)
(1.3739e-05 -0.0157415 0)
(1.33936e-05 -0.0157414 0)
(1.30685e-05 -0.0157413 0)
(1.27628e-05 -0.0157413 0)
(1.24753e-05 -0.0157412 0)
(1.22048e-05 -0.0157411 0)
(1.19503e-05 -0.0157411 0)
(1.17106e-05 -0.015741 0)
(1.14846e-05 -0.015741 0)
(1.12712e-05 -0.0157409 0)
(1.10695e-05 -0.0157409 0)
(1.08784e-05 -0.0157408 0)
(1.0697e-05 -0.0157408 0)
(1.05244e-05 -0.0157407 0)
(1.036e-05 -0.0157407 0)
(1.02028e-05 -0.0157406 0)
(1.00523e-05 -0.0157406 0)
(9.90773e-06 -0.0157405 0)
(9.76864e-06 -0.0157405 0)
(9.63448e-06 -0.0157404 0)
(9.50481e-06 -0.0157404 0)
(9.3792e-06 -0.0157403 0)
(9.2573e-06 -0.0157403 0)
(9.1388e-06 -0.0157402 0)
(9.02341e-06 -0.0157402 0)
(8.91088e-06 -0.0157401 0)
(8.80101e-06 -0.0157401 0)
(8.6936e-06 -0.0157401 0)
(8.5885e-06 -0.01574 0)
(8.48556e-06 -0.01574 0)
(8.38467e-06 -0.0157399 0)
(8.28571e-06 -0.0157399 0)
(8.18861e-06 -0.0157399 0)
(8.09327e-06 -0.0157398 0)
(5.17752e-06 -0.0157364 0)
(5.26509e-06 -0.0157365 0)
(5.35539e-06 -0.0157365 0)
(5.44862e-06 -0.0157366 0)
(5.54486e-06 -0.0157366 0)
(5.64398e-06 -0.0157367 0)
(5.7457e-06 -0.0157367 0)
(5.8495e-06 -0.0157368 0)
(5.95464e-06 -0.0157368 0)
(6.06021e-06 -0.0157369 0)
(6.16509e-06 -0.0157369 0)
(6.26805e-06 -0.015737 0)
(6.36778e-06 -0.015737 0)
(6.46295e-06 -0.0157371 0)
(6.55229e-06 -0.0157372 0)
(6.6347e-06 -0.0157372 0)
(6.70921e-06 -0.0157373 0)
(6.77514e-06 -0.0157374 0)
(6.83205e-06 -0.0157374 0)
(6.87977e-06 -0.0157375 0)
(6.91837e-06 -0.0157376 0)
(6.94815e-06 -0.0157376 0)
(6.96958e-06 -0.0157377 0)
(6.98331e-06 -0.0157378 0)
(6.99001e-06 -0.0157378 0)
)
;

boundaryField
{
    BotWall
    {
        type            fixedValue;
        value           uniform (0 0 0);
    }
    FreeStream
    {
        type            zeroGradient;
    }
    FrontNBack
    {
        type            empty;
    }
    LeftSide
    {
        type            symmetryPlane;
    }
    RightSide
    {
        type            symmetryPlane;
    }
    procBoundary4to1
    {
        type            processor;
        value           nonuniform List<vector> 
50
(
(1.66387e-05 -0.0157244 0)
(1.60964e-05 -0.0157245 0)
(1.55635e-05 -0.0157246 0)
(1.50423e-05 -0.0157247 0)
(1.45347e-05 -0.0157248 0)
(1.40424e-05 -0.0157249 0)
(1.35667e-05 -0.015725 0)
(1.31087e-05 -0.0157251 0)
(1.26693e-05 -0.0157252 0)
(1.22491e-05 -0.0157252 0)
(1.18485e-05 -0.0157253 0)
(1.14675e-05 -0.0157254 0)
(1.11062e-05 -0.0157255 0)
(1.07643e-05 -0.0157256 0)
(1.04416e-05 -0.0157256 0)
(1.01375e-05 -0.0157257 0)
(9.85138e-06 -0.0157258 0)
(9.58261e-06 -0.0157258 0)
(9.33041e-06 -0.0157259 0)
(9.09395e-06 -0.015726 0)
(8.8724e-06 -0.015726 0)
(8.66488e-06 -0.0157261 0)
(8.47049e-06 -0.0157262 0)
(8.28838e-06 -0.0157262 0)
(8.11766e-06 -0.0157263 0)
(7.95749e-06 -0.0157263 0)
(7.80707e-06 -0.0157264 0)
(7.66561e-06 -0.0157265 0)
(7.53239e-06 -0.0157265 0)
(7.4067e-06 -0.0157266 0)
(7.28789e-06 -0.0157266 0)
(7.17538e-06 -0.0157267 0)
(7.06861e-06 -0.0157267 0)
(6.96706e-06 -0.0157268 0)
(6.87029e-06 -0.0157268 0)
(6.77788e-06 -0.0157269 0)
(6.68944e-06 -0.0157269 0)
(6.60465e-06 -0.015727 0)
(6.5232e-06 -0.015727 0)
(6.44484e-06 -0.0157271 0)
(6.36932e-06 -0.0157271 0)
(6.29644e-06 -0.0157272 0)
(6.22602e-06 -0.0157272 0)
(6.1579e-06 -0.0157273 0)
(6.09194e-06 -0.0157273 0)
(6.02802e-06 -0.0157274 0)
(5.96605e-06 -0.0157274 0)
(5.90592e-06 -0.0157275 0)
(5.84755e-06 -0.0157275 0)
(5.79088e-06 -0.0157276 0)
)
;
    }
    procBoundary4to2
    {
        type            processor;
        value           nonuniform List<vector> 
75
(
(1.40051e-07 -1.14704e-05 0)
(4.45936e-07 3.14016e-05 0)
(7.89072e-07 -8.22154e-05 0)
(1.13159e-06 0.000325951 0)
(1.90128e-06 -0.00206215 0)
(2.75314e-06 -0.018479 0)
(4.03207e-06 -0.0192376 0)
(5.5322e-06 -0.0162007 0)
(7.02924e-06 -0.0155314 0)
(8.47826e-06 -0.0155948 0)
(9.86592e-06 -0.0157004 0)
(1.11951e-05 -0.0157273 0)
(1.24668e-05 -0.0157245 0)
(1.368e-05 -0.0157204 0)
(1.48332e-05 -0.0157195 0)
(1.59249e-05 -0.0157197 0)
(1.69537e-05 -0.0157199 0)
(1.79183e-05 -0.0157201 0)
(1.88174e-05 -0.0157202 0)
(1.96498e-05 -0.0157203 0)
(2.04143e-05 -0.0157204 0)
(2.111e-05 -0.0157205 0)
(2.17361e-05 -0.0157206 0)
(2.2292e-05 -0.0157208 0)
(2.27775e-05 -0.0157209 0)
(2.31925e-05 -0.015721 0)
(2.35371e-05 -0.0157212 0)
(2.38121e-05 -0.0157213 0)
(2.40183e-05 -0.0157215 0)
(2.4157e-05 -0.0157216 0)
(2.42297e-05 -0.0157217 0)
(2.42384e-05 -0.0157219 0)
(2.41854e-05 -0.015722 0)
(2.40733e-05 -0.0157222 0)
(2.3905e-05 -0.0157223 0)
(2.36837e-05 -0.0157225 0)
(2.34128e-05 -0.0157226 0)
(2.30961e-05 -0.0157228 0)
(2.27374e-05 -0.0157229 0)
(2.23408e-05 -0.015723 0)
(2.19102e-05 -0.0157232 0)
(2.145e-05 -0.0157233 0)
(2.09642e-05 -0.0157234 0)
(2.04572e-05 -0.0157236 0)
(1.99329e-05 -0.0157237 0)
(1.93954e-05 -0.0157238 0)
(1.88486e-05 -0.0157239 0)
(1.82961e-05 -0.0157241 0)
(1.77415e-05 -0.0157242 0)
(1.7188e-05 -0.0157243 0)
(-4.12195e-06 -0.0157368 0)
(-4.23887e-06 -0.0157368 0)
(-4.36033e-06 -0.0157369 0)
(-4.48665e-06 -0.0157369 0)
(-4.61796e-06 -0.0157369 0)
(-4.75415e-06 -0.015737 0)
(-4.8948e-06 -0.015737 0)
(-5.03919e-06 -0.015737 0)
(-5.18626e-06 -0.0157371 0)
(-5.33466e-06 -0.0157371 0)
(-5.48275e-06 -0.0157372 0)
(-5.62871e-06 -0.0157372 0)
(-5.77057e-06 -0.0157372 0)
(-5.90634e-06 -0.0157373 0)
(-6.03414e-06 -0.0157373 0)
(-6.15224e-06 -0.0157374 0)
(-6.25921e-06 -0.0157374 0)
(-6.35397e-06 -0.0157375 0)
(-6.43582e-06 -0.0157375 0)
(-6.50447e-06 -0.0157376 0)
(-6.56e-06 -0.0157376 0)
(-6.60282e-06 -0.0157377 0)
(-6.6336e-06 -0.0157377 0)
(-6.65323e-06 -0.0157378 0)
(-6.66268e-06 -0.0157378 0)
)
;
    }
    procBoundary4to3
    {
        type            processor;
        value           uniform (7.99964e-06 -0.0157398 0);
    }
    procBoundary4to5
    {
        type            processor;
        value           uniform (5.09238e-06 -0.0157364 0);
    }
    procBoundary4to6
    {
        type            processor;
        value           nonuniform List<vector> 
75
(
(-2.56165e-05 -0.0157473 0)
(-2.6001e-05 -0.0157471 0)
(-2.63111e-05 -0.015747 0)
(-2.65483e-05 -0.0157469 0)
(-2.67144e-05 -0.0157467 0)
(-2.68114e-05 -0.0157466 0)
(-2.68418e-05 -0.0157465 0)
(-2.68083e-05 -0.0157463 0)
(-2.67138e-05 -0.0157462 0)
(-2.65616e-05 -0.0157461 0)
(-2.63551e-05 -0.0157459 0)
(-2.60981e-05 -0.0157458 0)
(-2.57944e-05 -0.0157456 0)
(-2.54479e-05 -0.0157455 0)
(-2.50629e-05 -0.0157454 0)
(-2.46433e-05 -0.0157452 0)
(-2.41935e-05 -0.0157451 0)
(-2.37175e-05 -0.015745 0)
(-2.32195e-05 -0.0157449 0)
(-2.27034e-05 -0.0157447 0)
(-2.21733e-05 -0.0157446 0)
(-2.16327e-05 -0.0157445 0)
(-2.10854e-05 -0.0157444 0)
(-2.05345e-05 -0.0157442 0)
(-1.99834e-05 -0.0157441 0)
(-1.94347e-05 -0.015744 0)
(-1.88913e-05 -0.0157439 0)
(-1.83554e-05 -0.0157438 0)
(-1.78291e-05 -0.0157437 0)
(-1.73142e-05 -0.0157436 0)
(-1.68123e-05 -0.0157435 0)
(-1.63247e-05 -0.0157434 0)
(-1.58524e-05 -0.0157433 0)
(-1.53963e-05 -0.0157432 0)
(-1.49567e-05 -0.0157431 0)
(-1.45342e-05 -0.015743 0)
(-1.41289e-05 -0.0157429 0)
(-1.37407e-05 -0.0157428 0)
(-1.33695e-05 -0.0157427 0)
(-1.3015e-05 -0.0157426 0)
(-1.26767e-05 -0.0157426 0)
(-1.23541e-05 -0.0157425 0)
(-1.20466e-05 -0.0157424 0)
(-1.17534e-05 -0.0157423 0)
(-1.1474e-05 -0.0157422 0)
(-1.12075e-05 -0.0157422 0)
(-1.09532e-05 -0.0157421 0)
(-1.07102e-05 -0.015742 0)
(-1.04778e-05 -0.0157419 0)
(-1.02553e-05 -0.0157419 0)
(-1.00418e-05 -0.0157418 0)
(-9.83677e-06 -0.0157417 0)
(-9.63942e-06 -0.0157417 0)
(-9.44914e-06 -0.0157416 0)
(-9.26533e-06 -0.0157415 0)
(-9.08743e-06 -0.0157414 0)
(-8.91494e-06 -0.0157414 0)
(-8.74738e-06 -0.0157413 0)
(-8.58433e-06 -0.0157412 0)
(-8.42541e-06 -0.0157412 0)
(-8.27027e-06 -0.0157411 0)
(-8.1186e-06 -0.0157411 0)
(-7.97012e-06 -0.015741 0)
(-7.82462e-06 -0.0157409 0)
(-7.68186e-06 -0.0157409 0)
(-7.54168e-06 -0.0157408 0)
(-7.40391e-06 -0.0157407 0)
(-7.26842e-06 -0.0157407 0)
(-7.13511e-06 -0.0157406 0)
(-7.00386e-06 -0.0157406 0)
(-6.87461e-06 -0.0157405 0)
(-6.74728e-06 -0.0157404 0)
(-6.62181e-06 -0.0157404 0)
(-6.49817e-06 -0.0157403 0)
(-6.3763e-06 -0.0157403 0)
)
;
    }
    procBoundary4to7
    {
        type            processor;
        value           nonuniform List<vector> 
50
(
(-1.33665e-07 -1.18606e-05 0)
(-4.21933e-07 3.24786e-05 0)
(-7.38367e-07 -8.59429e-05 0)
(-1.05469e-06 0.000339397 0)
(-1.74102e-06 -0.00207253 0)
(-2.61805e-06 -0.0184489 0)
(-4.16468e-06 -0.0193495 0)
(-5.88012e-06 -0.0162397 0)
(-7.57505e-06 -0.0155581 0)
(-9.21115e-06 -0.0156217 0)
(-1.07768e-05 -0.0157291 0)
(-1.22739e-05 -0.0157565 0)
(-1.37032e-05 -0.0157535 0)
(-1.50635e-05 -0.0157493 0)
(-1.63534e-05 -0.0157481 0)
(-1.75716e-05 -0.0157482 0)
(-1.87169e-05 -0.0157482 0)
(-1.97882e-05 -0.0157482 0)
(-2.07846e-05 -0.0157481 0)
(-2.17052e-05 -0.015748 0)
(-2.25495e-05 -0.0157479 0)
(-2.33168e-05 -0.0157478 0)
(-2.40071e-05 -0.0157476 0)
(-2.46203e-05 -0.0157475 0)
(-2.51565e-05 -0.0157474 0)
(2.31684e-06 -0.0157334 0)
(2.38862e-06 -0.0157333 0)
(2.46215e-06 -0.0157333 0)
(2.53759e-06 -0.0157332 0)
(2.61499e-06 -0.0157332 0)
(2.69428e-06 -0.0157331 0)
(2.77524e-06 -0.015733 0)
(2.85751e-06 -0.015733 0)
(2.94056e-06 -0.0157329 0)
(3.02372e-06 -0.0157328 0)
(3.10619e-06 -0.0157327 0)
(3.18706e-06 -0.0157327 0)
(3.26537e-06 -0.0157326 0)
(3.34014e-06 -0.0157325 0)
(3.41044e-06 -0.0157324 0)
(3.47541e-06 -0.0157324 0)
(3.53433e-06 -0.0157323 0)
(3.58664e-06 -0.0157322 0)
(3.63197e-06 -0.0157321 0)
(3.67015e-06 -0.015732 0)
(3.70118e-06 -0.0157319 0)
(3.72523e-06 -0.0157318 0)
(3.7426e-06 -0.0157318 0)
(3.75372e-06 -0.0157317 0)
(3.75908e-06 -0.0157316 0)
)
;
    }
}


// ************************************************************************* //
