/*--------------------------------*- C++ -*----------------------------------*\
| =========                 |                                                 |
| \\      /  F ield         | OpenFOAM: The Open Source CFD Toolbox           |
|  \\    /   O peration     | Version:  2.4.0                                 |
|   \\  /    A nd           | Web:      www.OpenFOAM.org                      |
|    \\/     M anipulation  |                                                 |
\*---------------------------------------------------------------------------*/
FoamFile
{
    version     2.0;
    format      ascii;
    class       volScalarField;
    location    "0.7";
    object      p_rgh;
}
// * * * * * * * * * * * * * * * * * * * * * * * * * * * * * * * * * * * * * //

dimensions      [1 -1 -2 0 0 0 0];

internalField   nonuniform List<scalar> 
8000
(
53.6944
53.691
53.6872
53.6835
53.6798
53.6762
53.6726
53.6689
53.6653
53.6616
53.658
53.6543
53.6506
53.6469
53.6432
53.6395
53.6358
53.632
53.6283
53.6245
53.6207
53.6169
53.6129
53.6088
53.6053
53.6053
53.6094
53.5951
53.4916
53.2806
33.51
2.25404
0.0660047
0.00346297
0.000444746
0.00029691
0.000196546
0.000134069
9.68966e-05
7.59609e-05
6.51332e-05
6.0184e-05
5.83079e-05
5.78158e-05
5.77551e-05
5.76552e-05
5.74561e-05
5.72268e-05
5.699e-05
5.67472e-05
55.0118
55.0086
55.005
55.0015
54.998
54.9945
54.991
54.9874
54.9838
54.9802
54.9765
54.9728
54.9691
54.9653
54.9615
54.9577
54.9539
54.95
54.9461
54.9421
54.9382
54.9341
54.9297
54.9251
54.9221
54.9256
54.9332
54.8966
54.6946
53.6835
17.4671
0.540677
0.0200524
0.0011685
0.000392601
0.000262079
0.000176502
0.000123464
9.22341e-05
7.50077e-05
6.6324e-05
6.24386e-05
6.09645e-05
6.05131e-05
6.03135e-05
6.0041e-05
5.97062e-05
5.93645e-05
5.90274e-05
5.86943e-05
56.3698
56.3661
56.3619
56.358
56.3543
56.3506
56.3471
56.3435
56.3401
56.3367
56.3334
56.3302
56.327
56.3239
56.3209
56.318
56.3151
56.3124
56.3097
56.3071
56.3046
56.3021
56.2996
56.2972
56.2967
56.3005
56.3022
56.2606
56.1112
47.0658
5.97538
0.138591
0.00631061
0.000593072
0.000337151
0.000220703
0.000147478
0.000103468
7.82973e-05
6.49587e-05
5.86534e-05
5.61623e-05
5.54977e-05
5.55269e-05
5.56399e-05
5.5645e-05
5.55907e-05
5.55176e-05
5.54316e-05
5.53332e-05
57.6722
57.6691
57.6656
57.6621
57.6586
57.6551
57.6516
57.648
57.6444
57.6407
57.637
57.6333
57.6295
57.6257
57.6218
57.6178
57.6139
57.6098
57.6057
57.6016
57.5974
57.5929
57.5881
57.5843
57.5849
57.5905
57.5712
57.4356
57.1668
31.4375
1.44211
0.0392091
0.00200136
0.000451589
0.000298972
0.000198364
0.000136105
9.92785e-05
7.86307e-05
6.79465e-05
6.30123e-05
6.10874e-05
6.05381e-05
6.04469e-05
6.03532e-05
6.01721e-05
5.99609e-05
5.97443e-05
5.95241e-05
5.92999e-05
58.9992
58.9961
58.9926
58.9892
58.9858
58.9824
58.979
58.9756
58.9722
58.9687
58.9653
58.9618
58.9583
58.9548
58.9513
58.9478
58.9442
58.9406
58.937
58.9335
58.9298
58.9258
58.9216
58.9193
58.9241
58.9332
58.8932
58.6715
57.0112
14.4704
0.325202
0.0117403
0.000841773
0.000395251
0.000260738
0.000175283
0.000122896
9.23372e-05
7.56196e-05
6.72359e-05
6.34975e-05
6.20952e-05
6.16967e-05
6.15656e-05
6.13802e-05
6.11299e-05
6.08652e-05
6.05995e-05
6.03334e-05
6.00663e-05
60.3603
60.3564
60.3523
60.3483
60.3446
60.341
60.3375
60.334
60.3307
60.3274
60.3242
60.3212
60.3182
60.3153
60.3126
60.3099
60.3073
60.3049
60.3025
60.3003
60.2981
60.2958
60.2938
60.294
60.299
60.3004
60.2494
60.078
47.5427
4.0917
0.0801181
0.00356318
0.000513622
0.000341126
0.000222448
0.000149754
0.000106678
8.22705e-05
6.94124e-05
6.33321e-05
6.09065e-05
6.0237e-05
6.02485e-05
6.03643e-05
6.03901e-05
6.03568e-05
6.03023e-05
6.02339e-05
6.01523e-05
6.00579e-05
61.639
61.6363
61.6331
61.63
61.6268
61.6235
61.6202
61.6167
61.6132
61.6096
61.6059
61.6021
61.5982
61.5943
61.5902
61.586
61.5818
61.5774
61.5729
61.5683
61.5633
61.558
61.5537
61.5546
61.5612
61.5378
61.3768
61.0628
29.3548
0.90692
0.0225704
0.00124945
0.000458945
0.000302267
0.000200925
0.000139541
0.00010359
8.35756e-05
7.32233e-05
6.83755e-05
6.6396e-05
6.57361e-05
6.55324e-05
6.53528e-05
6.51038e-05
6.48283e-05
6.45496e-05
6.42708e-05
6.39917e-05
6.37119e-05
62.9863
62.9832
62.9798
62.9765
62.9733
62.9701
62.967
62.9638
62.9607
62.9576
62.9545
62.9514
62.9483
62.9452
62.9422
62.9392
62.9362
62.9332
62.9303
62.9273
62.924
62.9205
62.9192
62.926
62.9377
62.894
62.6454
60.4978
12.1247
0.194605
0.0067465
0.000656945
0.000400315
0.000263665
0.000178424
0.000127231
9.77833e-05
8.18559e-05
7.39208e-05
7.03835e-05
6.90468e-05
6.8658e-05
6.85318e-05
6.837e-05
6.81478e-05
6.79042e-05
6.76537e-05
6.73987e-05
6.71395e-05
6.68762e-05
64.3349
64.3312
64.3271
64.3233
64.3197
64.3163
64.3129
64.3096
64.3065
64.3034
64.3005
64.2976
64.2949
64.2923
64.2898
64.2874
64.2851
64.283
64.281
64.279
64.277
64.2752
64.2759
64.2821
64.2842
64.2269
64.0328
48.7474
2.9448
0.0463242
0.00202348
0.000527888
0.000343379
0.000224224
0.000152841
0.000111191
8.79091e-05
7.57645e-05
7.00374e-05
6.77291e-05
6.70552e-05
6.70162e-05
6.70878e-05
6.70914e-05
6.70382e-05
6.69572e-05
6.68581e-05
6.67438e-05
6.66155e-05
6.64738e-05
65.6038
65.6017
65.5992
65.5966
65.5938
65.591
65.588
65.5849
65.5816
65.5782
65.5747
65.571
65.5672
65.5632
65.5591
65.5548
65.5504
65.5458
65.541
65.5358
65.5301
65.5253
65.5253
65.5306
65.5091
65.3611
65.065
29.6302
0.623099
0.0134367
0.00094059
0.000477761
0.000313708
0.00021155
0.000151075
0.00011614
9.68312e-05
8.6801e-05
8.19697e-05
7.98231e-05
7.89109e-05
7.84376e-05
7.80208e-05
7.75675e-05
7.7096e-05
7.66243e-05
7.61587e-05
7.57007e-05
7.52502e-05
7.48064e-05
66.9573
66.9546
66.9516
66.9487
66.9459
66.9432
66.9404
66.9377
66.935
66.9324
66.9297
66.9271
66.9245
66.922
66.9194
66.917
66.9145
66.9121
66.9097
66.9068
66.9037
66.9033
66.9129
66.9293
66.8795
66.5752
65.3333
12.1471
0.131606
0.00416241
0.000620221
0.000412896
0.00027293
0.000187089
0.000136546
0.000107888
9.24976e-05
8.4773e-05
8.1198e-05
7.96845e-05
7.90614e-05
7.87078e-05
7.83661e-05
7.79932e-05
7.76039e-05
7.72111e-05
7.68202e-05
7.64326e-05
7.60482e-05
7.56662e-05
68.3119
68.3082
68.3042
68.3005
68.2971
68.2939
68.2909
68.288
68.2854
68.2828
68.2805
68.2783
68.2763
68.2745
68.2729
68.2714
68.2702
68.2692
68.2683
68.2674
68.2667
68.2685
68.2773
68.286
68.2358
68.0178
54.7873
2.89995
0.0309993
0.00146644
0.000551568
0.000356025
0.000235034
0.000163821
0.000122976
0.000100485
8.88576e-05
8.3349e-05
8.10428e-05
8.0248e-05
8.00389e-05
7.99578e-05
7.98488e-05
7.96948e-05
7.95098e-05
7.93064e-05
7.90907e-05
7.88651e-05
7.86305e-05
7.83873e-05
69.5669
69.5653
69.5633
69.5611
69.5589
69.5566
69.5541
69.5515
69.5487
69.5459
69.5428
69.5396
69.5363
69.5329
69.5292
69.5254
69.5215
69.5173
69.5129
69.508
69.5034
69.5021
69.506
69.4956
69.3959
69.1554
37.0359
0.593565
0.00920234
0.000812868
0.000501154
0.000322843
0.000218262
0.000158303
0.000124397
0.000105963
9.64951e-05
9.19502e-05
8.99033e-05
8.89845e-05
8.84689e-05
8.80328e-05
8.75821e-05
8.711e-05
8.663e-05
8.61516e-05
8.56787e-05
8.52118e-05
8.47503e-05
8.42934e-05
70.896
70.895
70.8937
70.8923
70.8907
70.889
70.8871
70.8851
70.883
70.8807
70.8782
70.8757
70.8729
70.87
70.867
70.8638
70.8605
70.8569
70.8529
70.8485
70.8452
70.8478
70.8562
70.8297
70.6487
70.3054
21.1051
0.144912
0.00347708
0.000673123
0.000447087
0.000290047
0.000199405
0.000148208
0.000119932
0.000105007
9.76042e-05
9.4199e-05
9.27448e-05
9.21164e-05
9.17454e-05
9.14038e-05
9.10338e-05
9.06402e-05
9.02381e-05
8.98364e-05
8.94388e-05
8.90453e-05
8.86554e-05
8.82672e-05
72.2668
72.2642
72.2613
72.2587
72.2563
72.254
72.2519
72.2499
72.2481
72.2464
72.2448
72.2434
72.2421
72.241
72.2401
72.2393
72.2387
72.2382
72.2375
72.2366
72.2388
72.2521
72.2727
72.2201
71.8912
69.7566
7.4409
0.0330568
0.00149713
0.000606493
0.000391883
0.000260212
0.000184776
0.000142361
0.000119371
0.000107559
0.000101877
9.93387e-05
9.8264e-05
9.77533e-05
9.73822e-05
9.69989e-05
9.65744e-05
9.61232e-05
9.5661e-05
9.51973e-05
9.47392e-05
9.4287e-05
9.38408e-05
9.33939e-05
73.5909
73.5883
73.5854
73.5828
73.5803
73.578
73.5758
73.5737
73.5718
73.5699
73.5681
73.5665
73.565
73.5635
73.5622
73.5611
73.56
73.559
73.5578
73.5567
73.5581
73.5677
73.5796
73.5288
73.2763
59.602
1.70953
0.0096409
0.000890547
0.000556049
0.000356212
0.000242532
0.000179243
0.000144188
0.000125437
0.00011593
0.000111397
0.000109342
0.00010837
0.000107767
0.000107233
0.000106681
0.000106091
0.000105477
0.000104851
0.000104223
0.000103613
0.000103021
0.000102458
0.000101898
74.8705
74.8694
74.868
74.8666
74.8651
74.8636
74.862
74.8603
74.8585
74.8567
74.8548
74.8528
74.8507
74.8485
74.8463
74.844
74.8416
74.8389
74.8359
74.8329
74.8323
74.8382
74.8414
74.779
74.5489
47.6608
0.418192
0.00376754
0.000801213
0.000519356
0.000335319
0.000235503
0.000181184
0.000151513
0.000135804
0.000127883
0.000124068
0.000122207
0.000121109
0.000120226
0.000119388
0.000118584
0.000117757
0.000116903
0.000116019
0.000115096
0.000114212
0.000113353
0.000112595
0.000111855
76.1997
76.1989
76.198
76.1971
76.1961
76.195
76.1939
76.1927
76.1915
76.1901
76.1888
76.1873
76.1859
76.1843
76.1827
76.1811
76.1793
76.1774
76.1752
76.1732
76.1738
76.1802
76.1804
76.1101
75.8899
38.7011
0.123641
0.0022291
0.000781386
0.000494707
0.000324321
0.000235424
0.000187883
0.000162308
0.000148956
0.00014231
0.00013909
0.000137363
0.000136088
0.000134875
0.000133718
0.00013279
0.000131875
0.000130928
0.000129907
0.000128679
0.000127538
0.000126325
0.000125436
0.000124645
77.5234
77.5225
77.5214
77.5204
77.5194
77.5183
77.5173
77.5162
77.5151
77.514
77.5129
77.5118
77.5106
77.5095
77.5083
77.5072
77.506
77.5047
77.5032
77.502
77.504
77.5116
77.5085
77.4245
77.1981
31.6007
0.0436297
0.00163762
0.000784515
0.000482963
0.000324884
0.000245895
0.00020403
0.000181629
0.000169953
0.000164091
0.000161055
0.000159093
0.000157267
0.000155298
0.000153316
0.00015212
0.000151074
0.000150066
0.000149006
0.00014717
0.000145753
0.00014365
0.000142494
0.000141778
78.8578
78.8568
78.8557
78.8545
78.8535
78.8524
78.8513
78.8503
78.8492
78.8482
78.8472
78.8461
78.8451
78.8441
78.8431
78.8422
78.8412
78.8401
78.8389
78.8381
78.8408
78.8491
78.8436
78.749
78.5138
27.7585
0.0199244
0.00145544
0.000815944
0.000485404
0.00033633
0.000266079
0.000229127
0.000209216
0.000198593
0.000192957
0.000189603
0.000187028
0.00018433
0.000181171
0.000177367
0.000175623
0.000174324
0.000173365
0.000172737
0.000169538
0.000168483
0.000164456
0.000162645
0.00016311
5.64984e-05
5.62437e-05
5.59834e-05
5.57176e-05
5.54466e-05
5.51706e-05
5.48897e-05
5.46043e-05
5.43144e-05
5.40202e-05
5.3722e-05
5.34198e-05
5.31139e-05
5.28043e-05
5.24913e-05
5.21749e-05
5.18554e-05
5.15327e-05
5.1207e-05
5.08785e-05
5.05472e-05
5.02133e-05
4.98767e-05
4.95377e-05
4.91963e-05
4.88525e-05
4.85065e-05
4.81583e-05
4.78079e-05
4.74555e-05
4.71011e-05
4.67447e-05
4.63864e-05
4.60263e-05
4.56644e-05
4.53007e-05
4.49353e-05
4.45682e-05
4.41996e-05
4.38293e-05
4.34574e-05
4.30841e-05
4.27093e-05
4.23331e-05
4.19554e-05
4.15762e-05
4.11959e-05
4.08157e-05
4.04365e-05
4.00511e-05
5.83644e-05
5.80373e-05
5.77125e-05
5.73895e-05
5.70679e-05
5.67474e-05
5.64275e-05
5.6108e-05
5.57885e-05
5.54688e-05
5.51486e-05
5.48277e-05
5.45059e-05
5.4183e-05
5.38587e-05
5.35331e-05
5.32058e-05
5.28769e-05
5.25462e-05
5.22136e-05
5.18789e-05
5.15423e-05
5.12035e-05
5.08626e-05
5.05195e-05
5.01741e-05
4.98265e-05
4.94766e-05
4.91245e-05
4.87701e-05
4.84134e-05
4.80544e-05
4.76932e-05
4.73298e-05
4.69641e-05
4.65963e-05
4.62262e-05
4.58541e-05
4.54798e-05
4.51034e-05
4.4725e-05
4.43446e-05
4.39622e-05
4.35779e-05
4.31916e-05
4.28034e-05
4.24134e-05
4.2023e-05
4.16332e-05
4.12385e-05
5.52228e-05
5.51009e-05
5.4968e-05
5.48246e-05
5.46711e-05
5.45079e-05
5.43355e-05
5.41542e-05
5.39643e-05
5.37661e-05
5.35601e-05
5.33464e-05
5.31254e-05
5.28973e-05
5.26623e-05
5.24208e-05
5.21728e-05
5.19188e-05
5.16587e-05
5.13929e-05
5.11215e-05
5.08446e-05
5.05626e-05
5.02754e-05
4.99832e-05
4.96863e-05
4.93847e-05
4.90785e-05
4.87679e-05
4.84531e-05
4.8134e-05
4.78109e-05
4.74838e-05
4.71528e-05
4.68181e-05
4.64797e-05
4.61378e-05
4.57923e-05
4.54435e-05
4.50913e-05
4.47359e-05
4.43774e-05
4.40158e-05
4.36513e-05
4.32837e-05
4.29133e-05
4.25403e-05
4.21659e-05
4.17911e-05
4.14084e-05
5.90716e-05
5.8839e-05
5.86021e-05
5.83609e-05
5.81152e-05
5.78651e-05
5.76105e-05
5.73515e-05
5.7088e-05
5.68201e-05
5.65477e-05
5.62709e-05
5.59897e-05
5.57042e-05
5.54144e-05
5.51204e-05
5.48221e-05
5.45197e-05
5.42132e-05
5.39026e-05
5.35881e-05
5.32696e-05
5.29473e-05
5.26212e-05
5.22913e-05
5.19578e-05
5.16207e-05
5.128e-05
5.09359e-05
5.05884e-05
5.02376e-05
4.98835e-05
4.95261e-05
4.91657e-05
4.88022e-05
4.84357e-05
4.80662e-05
4.76938e-05
4.73187e-05
4.69408e-05
4.65602e-05
4.61769e-05
4.57911e-05
4.54028e-05
4.50119e-05
4.46185e-05
4.42229e-05
4.38262e-05
4.34299e-05
4.30282e-05
5.97981e-05
5.95286e-05
5.92577e-05
5.89851e-05
5.87107e-05
5.84344e-05
5.81561e-05
5.78756e-05
5.75927e-05
5.73075e-05
5.70198e-05
5.67294e-05
5.64364e-05
5.61407e-05
5.58421e-05
5.55407e-05
5.52363e-05
5.49289e-05
5.46185e-05
5.4305e-05
5.39885e-05
5.36688e-05
5.3346e-05
5.302e-05
5.26908e-05
5.23585e-05
5.2023e-05
5.16843e-05
5.13424e-05
5.09973e-05
5.06491e-05
5.02977e-05
4.99431e-05
4.95855e-05
4.92247e-05
4.88608e-05
4.84939e-05
4.8124e-05
4.7751e-05
4.73751e-05
4.69963e-05
4.66145e-05
4.62299e-05
4.58424e-05
4.54521e-05
4.50589e-05
4.46633e-05
4.42663e-05
4.3869e-05
4.34638e-05
5.99511e-05
5.98323e-05
5.97019e-05
5.95603e-05
5.94078e-05
5.9245e-05
5.90719e-05
5.88891e-05
5.86969e-05
5.84954e-05
5.8285e-05
5.80661e-05
5.78388e-05
5.76034e-05
5.73601e-05
5.71093e-05
5.6851e-05
5.65857e-05
5.63133e-05
5.60342e-05
5.57485e-05
5.54565e-05
5.51583e-05
5.4854e-05
5.45439e-05
5.42281e-05
5.39067e-05
5.358e-05
5.3248e-05
5.29109e-05
5.25688e-05
5.22218e-05
5.18701e-05
5.15138e-05
5.1153e-05
5.07879e-05
5.04184e-05
5.00448e-05
4.96672e-05
4.92855e-05
4.89001e-05
4.85108e-05
4.81179e-05
4.77214e-05
4.73213e-05
4.69178e-05
4.6511e-05
4.61021e-05
4.56928e-05
4.52773e-05
6.3431e-05
6.31488e-05
6.28649e-05
6.25791e-05
6.22913e-05
6.20011e-05
6.17084e-05
6.14131e-05
6.1115e-05
6.0814e-05
6.051e-05
6.02029e-05
5.98926e-05
5.9579e-05
5.92622e-05
5.89419e-05
5.86183e-05
5.82913e-05
5.79608e-05
5.76267e-05
5.72892e-05
5.69482e-05
5.66037e-05
5.62557e-05
5.59042e-05
5.55491e-05
5.51906e-05
5.48286e-05
5.44631e-05
5.40942e-05
5.37218e-05
5.33461e-05
5.29669e-05
5.25845e-05
5.21987e-05
5.18096e-05
5.14172e-05
5.10216e-05
5.06228e-05
5.02209e-05
4.98159e-05
4.94077e-05
4.89965e-05
4.85823e-05
4.81651e-05
4.77449e-05
4.7322e-05
4.68977e-05
4.6473e-05
4.60397e-05
6.66089e-05
6.63374e-05
6.60619e-05
6.57822e-05
6.54984e-05
6.52105e-05
6.49184e-05
6.46222e-05
6.43218e-05
6.40172e-05
6.37084e-05
6.33955e-05
6.30783e-05
6.2757e-05
6.24315e-05
6.21018e-05
6.17679e-05
6.14299e-05
6.10877e-05
6.07413e-05
6.03908e-05
6.00363e-05
5.96776e-05
5.93148e-05
5.89479e-05
5.8577e-05
5.82021e-05
5.78232e-05
5.74403e-05
5.70535e-05
5.66627e-05
5.62681e-05
5.58696e-05
5.54672e-05
5.50611e-05
5.46512e-05
5.42375e-05
5.38202e-05
5.33993e-05
5.29747e-05
5.25465e-05
5.21148e-05
5.16796e-05
5.1241e-05
5.07989e-05
5.03534e-05
4.99046e-05
4.94538e-05
4.90027e-05
4.85459e-05
6.63192e-05
6.61523e-05
6.59736e-05
6.57834e-05
6.55823e-05
6.53706e-05
6.51487e-05
6.4917e-05
6.46758e-05
6.44255e-05
6.41663e-05
6.38985e-05
6.36225e-05
6.33385e-05
6.30468e-05
6.27475e-05
6.24411e-05
6.21275e-05
6.18071e-05
6.14801e-05
6.11467e-05
6.08069e-05
6.04611e-05
6.01094e-05
5.97519e-05
5.93888e-05
5.90202e-05
5.86463e-05
5.82671e-05
5.78829e-05
5.74937e-05
5.70996e-05
5.67009e-05
5.62974e-05
5.58895e-05
5.54771e-05
5.50603e-05
5.46393e-05
5.42142e-05
5.37849e-05
5.33517e-05
5.29145e-05
5.24736e-05
5.20288e-05
5.15803e-05
5.1128e-05
5.06725e-05
5.02151e-05
4.97569e-05
4.92884e-05
7.43688e-05
7.39365e-05
7.3509e-05
7.30856e-05
7.26658e-05
7.22489e-05
7.18345e-05
7.14221e-05
7.10112e-05
7.06015e-05
7.01924e-05
6.97836e-05
6.93749e-05
6.89658e-05
6.85561e-05
6.81455e-05
6.77337e-05
6.73206e-05
6.69058e-05
6.64892e-05
6.60707e-05
6.565e-05
6.52269e-05
6.48015e-05
6.43734e-05
6.39426e-05
6.3509e-05
6.30725e-05
6.2633e-05
6.21904e-05
6.17446e-05
6.12956e-05
6.08434e-05
6.03878e-05
5.99288e-05
5.94665e-05
5.90006e-05
5.85314e-05
5.80586e-05
5.75823e-05
5.71026e-05
5.66193e-05
5.61325e-05
5.56422e-05
5.51484e-05
5.46509e-05
5.41501e-05
5.36471e-05
5.3144e-05
5.26351e-05
7.5286e-05
7.4907e-05
7.45287e-05
7.41504e-05
7.37719e-05
7.33926e-05
7.30123e-05
7.26306e-05
7.22472e-05
7.18618e-05
7.14742e-05
7.10842e-05
7.06915e-05
7.0296e-05
6.98976e-05
6.94961e-05
6.90914e-05
6.86834e-05
6.82721e-05
6.78572e-05
6.74388e-05
6.70167e-05
6.6591e-05
6.61617e-05
6.57285e-05
6.52917e-05
6.4851e-05
6.44066e-05
6.39583e-05
6.35062e-05
6.30503e-05
6.25906e-05
6.21271e-05
6.16598e-05
6.11886e-05
6.07137e-05
6.0235e-05
5.97526e-05
5.92664e-05
5.87765e-05
5.82829e-05
5.77857e-05
5.72848e-05
5.67803e-05
5.62722e-05
5.57603e-05
5.52453e-05
5.47285e-05
5.42113e-05
5.3683e-05
7.81356e-05
7.78757e-05
7.76078e-05
7.73318e-05
7.70482e-05
7.67569e-05
7.64582e-05
7.61521e-05
7.58387e-05
7.55182e-05
7.51905e-05
7.48558e-05
7.45141e-05
7.41654e-05
7.38099e-05
7.34475e-05
7.30784e-05
7.27026e-05
7.23202e-05
7.19312e-05
7.15356e-05
7.11335e-05
7.07249e-05
7.03099e-05
6.98886e-05
6.94609e-05
6.9027e-05
6.85868e-05
6.81405e-05
6.76881e-05
6.72295e-05
6.6765e-05
6.62945e-05
6.58181e-05
6.53359e-05
6.48478e-05
6.4354e-05
6.38545e-05
6.33494e-05
6.28388e-05
6.23226e-05
6.1801e-05
6.1274e-05
6.07417e-05
6.02041e-05
5.96612e-05
5.91133e-05
5.85617e-05
5.8009e-05
5.74483e-05
8.38405e-05
8.33909e-05
8.2944e-05
8.24988e-05
8.20549e-05
8.16118e-05
8.1169e-05
8.0726e-05
8.02824e-05
7.98379e-05
7.93922e-05
7.89447e-05
7.84954e-05
7.80438e-05
7.75897e-05
7.71329e-05
7.66733e-05
7.62107e-05
7.57449e-05
7.52757e-05
7.4803e-05
7.43267e-05
7.38466e-05
7.33626e-05
7.28746e-05
7.23826e-05
7.18864e-05
7.1386e-05
7.08812e-05
7.03722e-05
6.98587e-05
6.93408e-05
6.88185e-05
6.82916e-05
6.77603e-05
6.72244e-05
6.66839e-05
6.6139e-05
6.55895e-05
6.50354e-05
6.44769e-05
6.39138e-05
6.33463e-05
6.27742e-05
6.21977e-05
6.16166e-05
6.10314e-05
6.04437e-05
5.98553e-05
5.92545e-05
8.78801e-05
8.74944e-05
8.71101e-05
8.67257e-05
8.63407e-05
8.5954e-05
8.55652e-05
8.51735e-05
8.47788e-05
8.43808e-05
8.39794e-05
8.35739e-05
8.3164e-05
8.27493e-05
8.23294e-05
8.19042e-05
8.14736e-05
8.10374e-05
8.05957e-05
8.01481e-05
7.96945e-05
7.92349e-05
7.8769e-05
7.82969e-05
7.78183e-05
7.73333e-05
7.68417e-05
7.63435e-05
7.58387e-05
7.53271e-05
7.48088e-05
7.42837e-05
7.37518e-05
7.32131e-05
7.26676e-05
7.21153e-05
7.15562e-05
7.09903e-05
7.04176e-05
6.98382e-05
6.92521e-05
6.86593e-05
6.806e-05
6.74541e-05
6.68416e-05
6.62226e-05
6.55973e-05
6.49674e-05
6.43356e-05
6.36937e-05
9.29446e-05
9.24959e-05
9.20525e-05
9.16118e-05
9.11732e-05
9.07339e-05
9.02928e-05
8.98472e-05
8.93987e-05
8.89476e-05
8.84948e-05
8.80393e-05
8.75806e-05
8.71176e-05
8.66497e-05
8.61762e-05
8.56971e-05
8.52129e-05
8.47234e-05
8.42284e-05
8.37275e-05
8.32208e-05
8.27081e-05
8.21892e-05
8.16641e-05
8.11325e-05
8.05944e-05
8.00498e-05
7.94986e-05
7.89407e-05
7.83761e-05
7.78046e-05
7.72264e-05
7.66413e-05
7.60493e-05
7.54505e-05
7.48447e-05
7.42321e-05
7.36125e-05
7.29861e-05
7.23529e-05
7.17128e-05
7.10659e-05
7.04123e-05
6.97519e-05
6.90847e-05
6.84113e-05
6.77336e-05
6.70538e-05
6.63585e-05
0.000101327
0.000100751
0.000100195
9.96527e-05
9.91283e-05
9.86107e-05
9.80981e-05
9.75764e-05
9.70512e-05
9.65231e-05
9.6e-05
9.54786e-05
9.49607e-05
9.44433e-05
9.39247e-05
9.34008e-05
9.28711e-05
9.2337e-05
9.17991e-05
9.12571e-05
9.07097e-05
9.01574e-05
8.95998e-05
8.90371e-05
8.84682e-05
8.78928e-05
8.73107e-05
8.67219e-05
8.6126e-05
8.55228e-05
8.49123e-05
8.42941e-05
8.36684e-05
8.3035e-05
8.23937e-05
8.17446e-05
8.10876e-05
8.04225e-05
7.97492e-05
7.90679e-05
7.83783e-05
7.76805e-05
7.69745e-05
7.62603e-05
7.55379e-05
7.48071e-05
7.40685e-05
7.33239e-05
7.25766e-05
7.18158e-05
0.000111079
0.000110236
0.000109444
0.00010868
0.00010798
0.000107303
0.000106663
0.000105993
0.000105314
0.000104607
0.000103919
0.000103233
0.000102567
0.000101914
0.000101277
0.000100638
9.9991e-05
9.93395e-05
9.86863e-05
9.80318e-05
9.7371e-05
9.67073e-05
9.60416e-05
9.53769e-05
9.47086e-05
9.40354e-05
9.33569e-05
9.26738e-05
9.19852e-05
9.12905e-05
9.05891e-05
8.98808e-05
8.91657e-05
8.84436e-05
8.77145e-05
8.69783e-05
8.62346e-05
8.54834e-05
8.47244e-05
8.39575e-05
8.31825e-05
8.23994e-05
8.16081e-05
8.08085e-05
8.00007e-05
7.91844e-05
7.83603e-05
7.75308e-05
7.66986e-05
7.58475e-05
0.00012379
0.000122582
0.000121507
0.000120421
0.000119535
0.000118683
0.000118009
0.000117248
0.000116489
0.000115559
0.000114693
0.000113778
0.000112914
0.000112074
0.00011131
0.000110568
0.000109814
0.000109053
0.000108291
0.000107528
0.000106741
0.000105944
0.000105141
0.000104361
0.000103585
0.000102805
0.000102019
0.000101232
0.000100443
9.96508e-05
9.88518e-05
9.80457e-05
9.72324e-05
9.64123e-05
9.5586e-05
9.47541e-05
9.39163e-05
9.3072e-05
9.22204e-05
9.13608e-05
9.0493e-05
8.96164e-05
8.8731e-05
8.78366e-05
8.69331e-05
8.60203e-05
8.50988e-05
8.4171e-05
8.32408e-05
8.22925e-05
0.000141115
0.000139083
0.000137591
0.000135733
0.000134551
0.000133188
0.000132534
0.000131774
0.000131154
0.000129795
0.000128787
0.000127415
0.000126201
0.000124909
0.000123869
0.000122941
0.000122021
0.000121116
0.00012023
0.00011933
0.000118347
0.000117314
0.000116191
0.000115165
0.000114174
0.00011319
0.000112176
0.000111168
0.000110165
0.000109169
0.000108167
0.000107158
0.000106137
0.000105105
0.000104063
0.000103018
0.000101972
0.000100926
9.98789e-05
9.88289e-05
9.77743e-05
9.67139e-05
9.56471e-05
9.45736e-05
9.34933e-05
9.2406e-05
9.13126e-05
9.0216e-05
8.91196e-05
8.80024e-05
0.000163091
0.000158157
0.00015664
0.000153015
0.000151811
0.000148804
0.000148177
0.00014861
0.00014789
0.000145412
0.000145222
0.000142767
0.000141322
0.000139063
0.000137452
0.000136182
0.000135026
0.000134066
0.000133288
0.000132458
0.000131471
0.000130403
0.000128727
0.000127397
0.000126214
0.000125123
0.000123892
0.00012268
0.000121458
0.000120294
0.000119122
0.000117965
0.000116785
0.000115569
0.000114311
0.000113033
0.000111749
0.00011047
0.000109198
0.000107933
0.000106671
0.000105407
0.000104139
0.000102867
0.000101589
0.000100308
9.90233e-05
9.77414e-05
9.64672e-05
9.51762e-05
3.97314e-05
3.94892e-05
3.92375e-05
3.89852e-05
3.8733e-05
3.848e-05
3.82258e-05
3.79704e-05
3.77138e-05
3.74561e-05
3.71971e-05
3.69369e-05
3.66755e-05
3.64129e-05
3.61491e-05
3.58841e-05
3.56178e-05
3.53503e-05
3.50816e-05
3.48116e-05
3.45404e-05
3.4268e-05
3.39942e-05
3.37193e-05
3.3443e-05
3.31655e-05
3.28868e-05
3.26067e-05
3.23254e-05
3.20427e-05
3.17588e-05
3.14736e-05
3.11871e-05
3.08993e-05
3.06102e-05
3.03198e-05
3.0028e-05
2.9735e-05
2.94406e-05
2.91449e-05
2.88479e-05
2.85495e-05
2.82498e-05
2.79487e-05
2.76463e-05
2.73426e-05
2.70375e-05
2.6731e-05
2.64232e-05
2.6114e-05
2.58034e-05
2.54915e-05
2.51782e-05
2.48635e-05
2.45474e-05
2.423e-05
2.39112e-05
2.35909e-05
2.32693e-05
2.29463e-05
2.26218e-05
2.2296e-05
2.19687e-05
2.16401e-05
2.131e-05
2.09785e-05
2.06456e-05
2.03113e-05
1.99755e-05
1.96383e-05
1.92997e-05
1.89596e-05
1.86181e-05
1.82751e-05
1.79307e-05
1.75849e-05
1.72376e-05
1.68888e-05
1.65386e-05
1.6187e-05
1.58338e-05
1.54792e-05
1.51232e-05
1.47656e-05
1.44066e-05
1.40462e-05
1.36842e-05
1.33208e-05
1.29559e-05
1.25895e-05
1.22216e-05
1.18522e-05
1.14813e-05
1.1109e-05
1.07352e-05
1.03598e-05
9.98299e-06
9.60466e-06
9.22483e-06
8.8435e-06
8.46067e-06
8.07634e-06
7.6905e-06
7.30316e-06
6.91431e-06
6.52395e-06
6.13209e-06
5.73871e-06
5.34383e-06
4.94744e-06
4.54953e-06
4.15012e-06
3.74919e-06
3.34675e-06
2.9428e-06
2.53734e-06
2.13037e-06
1.72189e-06
1.31189e-06
9.00391e-07
4.87378e-07
7.28555e-08
-3.43175e-07
-7.60712e-07
-1.17976e-06
-1.6003e-06
-2.02236e-06
-2.44591e-06
-2.87097e-06
-3.29752e-06
-3.72557e-06
-4.15512e-06
-4.58616e-06
-5.01869e-06
-5.45271e-06
-5.88822e-06
-6.32521e-06
-6.76369e-06
-7.20364e-06
-7.64507e-06
-8.08797e-06
-8.53234e-06
-8.97818e-06
-9.42548e-06
-9.87424e-06
-1.03245e-05
-1.07761e-05
-1.12292e-05
-1.16838e-05
-1.21398e-05
-1.25972e-05
-1.30561e-05
-1.35164e-05
-1.39781e-05
-1.44412e-05
-1.49057e-05
-1.53717e-05
-1.5839e-05
-1.63077e-05
-1.67779e-05
-1.72494e-05
-1.77223e-05
-1.81965e-05
-1.86721e-05
-1.91491e-05
-1.96274e-05
-2.01071e-05
-2.05881e-05
-2.10705e-05
-2.15542e-05
-2.20391e-05
-2.25254e-05
-2.30131e-05
-2.3502e-05
-2.39922e-05
-2.44836e-05
-2.49764e-05
-2.54704e-05
-2.59657e-05
-2.64622e-05
-2.696e-05
-2.7459e-05
-2.79592e-05
-2.84607e-05
-2.89633e-05
-2.94672e-05
-2.99722e-05
-3.04785e-05
-3.09859e-05
-3.14945e-05
-3.20043e-05
-3.25152e-05
-3.30272e-05
-3.35404e-05
-3.40547e-05
-3.45701e-05
-3.50867e-05
-3.56043e-05
-3.6123e-05
-3.66429e-05
-3.71638e-05
-3.76857e-05
-3.82087e-05
-3.87328e-05
-3.92579e-05
-3.97841e-05
-4.03113e-05
-4.08395e-05
-4.13687e-05
-4.18989e-05
-4.24301e-05
-4.29623e-05
-4.34955e-05
-4.40296e-05
-4.45648e-05
-4.51008e-05
-4.56379e-05
-4.61759e-05
-4.67148e-05
-4.72547e-05
-4.77955e-05
-4.83372e-05
-4.88798e-05
-4.94234e-05
-4.99679e-05
-5.05132e-05
-5.10595e-05
-5.16067e-05
-5.21547e-05
-5.27037e-05
-5.32535e-05
-5.38043e-05
-5.43559e-05
-5.49083e-05
-5.54617e-05
-5.60159e-05
-5.6571e-05
-5.7127e-05
-5.76839e-05
-5.82416e-05
-5.88002e-05
-5.93597e-05
-5.99201e-05
-6.04813e-05
-6.10435e-05
-6.16065e-05
-6.21704e-05
-6.27351e-05
-6.33008e-05
-6.38674e-05
-6.44349e-05
-6.50033e-05
-6.55726e-05
-6.61429e-05
-6.6714e-05
-6.72862e-05
-6.78592e-05
-6.84332e-05
-6.90082e-05
-6.95842e-05
-7.01611e-05
-7.07391e-05
-7.1318e-05
-7.1898e-05
-7.2479e-05
-7.30611e-05
-7.36442e-05
-7.42284e-05
-7.48137e-05
-7.54e-05
-7.59876e-05
-7.65762e-05
-7.7166e-05
-7.7757e-05
-7.83492e-05
-7.89426e-05
-7.95373e-05
-8.01332e-05
-8.07304e-05
-8.13289e-05
-8.19288e-05
-8.253e-05
-8.31326e-05
-8.37366e-05
-8.4342e-05
-8.4949e-05
-8.55574e-05
-8.61673e-05
-8.67789e-05
-8.7392e-05
-8.80068e-05
-8.86233e-05
-8.92415e-05
-8.98614e-05
-9.04831e-05
-9.11067e-05
-9.17327e-05
-9.23618e-05
-9.29912e-05
-9.36071e-05
4.09139e-05
4.06671e-05
4.04097e-05
4.01514e-05
3.98932e-05
3.96342e-05
3.9374e-05
3.91125e-05
3.88497e-05
3.85858e-05
3.83206e-05
3.80541e-05
3.77864e-05
3.75175e-05
3.72472e-05
3.69757e-05
3.67029e-05
3.64288e-05
3.61535e-05
3.58768e-05
3.55988e-05
3.53194e-05
3.50388e-05
3.47568e-05
3.44735e-05
3.41888e-05
3.39027e-05
3.36154e-05
3.33266e-05
3.30365e-05
3.27449e-05
3.2452e-05
3.21578e-05
3.18621e-05
3.1565e-05
3.12665e-05
3.09666e-05
3.06653e-05
3.03626e-05
3.00584e-05
2.97528e-05
2.94458e-05
2.91373e-05
2.88274e-05
2.8516e-05
2.82032e-05
2.7889e-05
2.75732e-05
2.72561e-05
2.69374e-05
2.66173e-05
2.62957e-05
2.59726e-05
2.56481e-05
2.53221e-05
2.49945e-05
2.46655e-05
2.4335e-05
2.40031e-05
2.36696e-05
2.33346e-05
2.29981e-05
2.26601e-05
2.23206e-05
2.19796e-05
2.16371e-05
2.12931e-05
2.09476e-05
2.06005e-05
2.0252e-05
1.99019e-05
1.95503e-05
1.91971e-05
1.88425e-05
1.84863e-05
1.81286e-05
1.77693e-05
1.74085e-05
1.70462e-05
1.66824e-05
1.6317e-05
1.59501e-05
1.55816e-05
1.52116e-05
1.484e-05
1.44669e-05
1.40923e-05
1.37161e-05
1.33384e-05
1.29591e-05
1.25782e-05
1.21958e-05
1.18119e-05
1.14264e-05
1.10393e-05
1.06507e-05
1.02605e-05
9.86879e-06
9.47549e-06
9.08063e-06
8.68421e-06
8.28623e-06
7.88668e-06
7.48557e-06
7.08289e-06
6.67865e-06
6.27284e-06
5.86546e-06
5.45651e-06
5.046e-06
4.63391e-06
4.22026e-06
3.80504e-06
3.38825e-06
2.96989e-06
2.54996e-06
2.12847e-06
1.7054e-06
1.28077e-06
8.54566e-07
4.26799e-07
-2.53473e-09
-4.33433e-07
-8.65896e-07
-1.29992e-06
-1.73551e-06
-2.17265e-06
-2.61136e-06
-3.05162e-06
-3.49344e-06
-3.93681e-06
-4.38173e-06
-4.8282e-06
-5.27622e-06
-5.72578e-06
-6.17688e-06
-6.62951e-06
-7.08369e-06
-7.53939e-06
-7.99662e-06
-8.45538e-06
-8.91566e-06
-9.37745e-06
-9.84076e-06
-1.03056e-05
-1.07719e-05
-1.12397e-05
-1.1709e-05
-1.21798e-05
-1.26521e-05
-1.31259e-05
-1.36011e-05
-1.40778e-05
-1.4556e-05
-1.50356e-05
-1.55167e-05
-1.59992e-05
-1.64831e-05
-1.69685e-05
-1.74553e-05
-1.79436e-05
-1.84332e-05
-1.89242e-05
-1.94167e-05
-1.99105e-05
-2.04057e-05
-2.09022e-05
-2.14002e-05
-2.18994e-05
-2.24001e-05
-2.2902e-05
-2.34053e-05
-2.391e-05
-2.44159e-05
-2.49231e-05
-2.54316e-05
-2.59415e-05
-2.64525e-05
-2.69649e-05
-2.74785e-05
-2.79934e-05
-2.85095e-05
-2.90268e-05
-2.95453e-05
-3.00651e-05
-3.0586e-05
-3.11082e-05
-3.16315e-05
-3.2156e-05
-3.26816e-05
-3.32084e-05
-3.37363e-05
-3.42654e-05
-3.47955e-05
-3.53268e-05
-3.58592e-05
-3.63927e-05
-3.69272e-05
-3.74628e-05
-3.79995e-05
-3.85372e-05
-3.9076e-05
-3.96158e-05
-4.01566e-05
-4.06984e-05
-4.12412e-05
-4.1785e-05
-4.23298e-05
-4.28755e-05
-4.34222e-05
-4.39699e-05
-4.45185e-05
-4.5068e-05
-4.56185e-05
-4.61699e-05
-4.67222e-05
-4.72754e-05
-4.78295e-05
-4.83845e-05
-4.89404e-05
-4.94972e-05
-5.00548e-05
-5.06133e-05
-5.11726e-05
-5.17328e-05
-5.22938e-05
-5.28557e-05
-5.34184e-05
-5.3982e-05
-5.45463e-05
-5.51115e-05
-5.56775e-05
-5.62444e-05
-5.6812e-05
-5.73805e-05
-5.79497e-05
-5.85198e-05
-5.90907e-05
-5.96624e-05
-6.02349e-05
-6.08082e-05
-6.13823e-05
-6.19573e-05
-6.2533e-05
-6.31096e-05
-6.3687e-05
-6.42652e-05
-6.48442e-05
-6.54241e-05
-6.60048e-05
-6.65864e-05
-6.71688e-05
-6.7752e-05
-6.83362e-05
-6.89212e-05
-6.95071e-05
-7.00938e-05
-7.06815e-05
-7.12701e-05
-7.18596e-05
-7.24501e-05
-7.30415e-05
-7.36338e-05
-7.42272e-05
-7.48215e-05
-7.54169e-05
-7.60132e-05
-7.66106e-05
-7.72091e-05
-7.78086e-05
-7.84092e-05
-7.9011e-05
-7.96138e-05
-8.02179e-05
-8.08231e-05
-8.14295e-05
-8.20371e-05
-8.2646e-05
-8.32562e-05
-8.38677e-05
-8.44805e-05
-8.50946e-05
-8.57102e-05
-8.63272e-05
-8.69456e-05
-8.75656e-05
-8.8187e-05
-8.881e-05
-8.94347e-05
-9.00609e-05
-9.06889e-05
-9.13186e-05
-9.195e-05
-9.25832e-05
-9.32183e-05
-9.38553e-05
-9.44948e-05
-9.51375e-05
-9.57804e-05
-9.64097e-05
4.10898e-05
4.08495e-05
4.06002e-05
4.03503e-05
4.01002e-05
3.9849e-05
3.95963e-05
3.93421e-05
3.90864e-05
3.88293e-05
3.85708e-05
3.83107e-05
3.80492e-05
3.77862e-05
3.75217e-05
3.72557e-05
3.69882e-05
3.67192e-05
3.64486e-05