/*--------------------------------*- C++ -*----------------------------------*\
| =========                 |                                                 |
| \\      /  F ield         | OpenFOAM: The Open Source CFD Toolbox           |
|  \\    /   O peration     | Version:  2.4.0                                 |
|   \\  /    A nd           | Web:      www.OpenFOAM.org                      |
|    \\/     M anipulation  |                                                 |
\*---------------------------------------------------------------------------*/
FoamFile
{
    version     2.0;
    format      ascii;
    class       volVectorField;
    location    "0.7";
    object      U;
}
// * * * * * * * * * * * * * * * * * * * * * * * * * * * * * * * * * * * * * //

dimensions      [0 1 -1 0 0 0 0];

internalField   nonuniform List<vector> 
8000
(
(-4.53367e-08 -0.00022192 0)
(-4.95578e-07 -0.000651724 0)
(-1.4357e-06 -0.00106746 0)
(-2.86567e-06 -0.0014691 0)
(-4.77705e-06 -0.0018566 0)
(-7.16526e-06 -0.00222993 0)
(-1.00311e-05 -0.00258906 0)
(-1.33735e-05 -0.00293395 0)
(-1.71937e-05 -0.00326459 0)
(-2.14896e-05 -0.00358094 0)
(-2.62624e-05 -0.00388297 0)
(-3.15094e-05 -0.00417066 0)
(-3.72324e-05 -0.00444398 0)
(-4.34279e-05 -0.00470291 0)
(-5.00984e-05 -0.00494742 0)
(-5.72398e-05 -0.00517749 0)
(-6.48552e-05 -0.00539309 0)
(-7.29402e-05 -0.0055942 0)
(-8.14985e-05 -0.0057808 0)
(-9.05252e-05 -0.00595285 0)
(-0.000100024 -0.00611035 0)
(-0.000109991 -0.00625325 0)
(-0.000120437 -0.00638155 0)
(-0.000131373 -0.00649521 0)
(-0.000142797 -0.00659421 0)
(-0.000154543 -0.00667853 0)
(-0.000166227 -0.00674813 0)
(-0.000178091 -0.00680294 0)
(-0.000194229 -0.00684303 0)
(-0.000224523 -0.00686891 0)
(-0.000262049 -0.00688448 0)
(-0.000295342 -0.00688823 0)
(-0.000331435 -0.00689014 0)
(-0.000365874 -0.00689625 0)
(-0.00037631 -0.00691923 0)
(-0.000370814 -0.00694841 0)
(-0.000380672 -0.0069742 0)
(-0.000395326 -0.00699611 0)
(-0.000410123 -0.00701396 0)
(-0.000424375 -0.00702781 0)
(-0.00043845 -0.00703774 0)
(-0.000452541 -0.00704386 0)
(-0.000466668 -0.00704627 0)
(-0.000480808 -0.00704508 0)
(-0.000494947 -0.00704039 0)
(-0.000509073 -0.00703228 0)
(-0.000523178 -0.00702083 0)
(-0.000537253 -0.0070061 0)
(-0.000551286 -0.00698816 0)
(-0.000565268 -0.00696707 0)
(-3.57453e-08 -0.000219472 0)
(-4.43205e-07 -0.000644221 0)
(-1.30942e-06 -0.00105477 0)
(-2.64061e-06 -0.00145112 0)
(-4.42841e-06 -0.00183324 0)
(-6.67286e-06 -0.00220114 0)
(-9.37097e-06 -0.00255479 0)
(-1.25275e-05 -0.00289418 0)
(-1.61371e-05 -0.00321929 0)
(-2.02053e-05 -0.00353011 0)
(-2.47236e-05 -0.00382662 0)
(-2.96994e-05 -0.00410879 0)
(-3.51206e-05 -0.00437662 0)
(-4.09974e-05 -0.00463008 0)
(-4.7313e-05 -0.00486914 0)
(-5.40817e-05 -0.0050938 0)
(-6.12807e-05 -0.00530402 0)
(-6.89299e-05 -0.00549979 0)
(-7.6999e-05 -0.00568109 0)
(-8.55144e-05 -0.00584789 0)
(-9.44352e-05 -0.00600018 0)
(-0.000103799 -0.00613791 0)
(-0.000113567 -0.00626109 0)
(-0.000123813 -0.00636967 0)
(-0.000134427 -0.00646365 0)
(-0.000145151 -0.00654297 0)
(-0.000155277 -0.00660762 0)
(-0.000165895 -0.00665756 0)
(-0.000185368 -0.00669288 0)
(-0.000228115 -0.00671385 0)
(-0.000278604 -0.00672354 0)
(-0.000305755 -0.00672517 0)
(-0.000333607 -0.00672705 0)
(-0.000357485 -0.00673569 0)
(-0.000354896 -0.00675859 0)
(-0.000358387 -0.00678209 0)
(-0.000370628 -0.00680335 0)
(-0.000384819 -0.00682174 0)
(-0.000398868 -0.00683699 0)
(-0.000412769 -0.00684899 0)
(-0.000426745 -0.00685768 0)
(-0.000440844 -0.00686305 0)
(-0.00045503 -0.00686513 0)
(-0.000469265 -0.00686393 0)
(-0.000483521 -0.00685949 0)
(-0.000497775 -0.00685185 0)
(-0.00051201 -0.00684106 0)
(-0.00052621 -0.00682714 0)
(-0.000540359 -0.00681015 0)
(-0.000554444 -0.00679012 0)
(-5.71885e-08 -0.000216361 0)
(-5.73104e-07 -0.000634959 0)
(-1.62684e-06 -0.00103942 0)
(-3.20923e-06 -0.00142973 0)
(-5.30347e-06 -0.00180586 0)
(-7.89989e-06 -0.0021678 0)
(-1.09944e-05 -0.00251552 0)
(-1.45836e-05 -0.00284902 0)
(-1.86648e-05 -0.00316827 0)
(-2.32354e-05 -0.00347325 0)
(-2.82932e-05 -0.00376394 0)
(-3.38365e-05 -0.00404033 0)
(-3.98635e-05 -0.0043024 0)
(-4.63733e-05 -0.00455012 0)
(-5.33641e-05 -0.0047835 0)
(-6.08361e-05 -0.00500249 0)
(-6.87868e-05 -0.0052071 0)
(-7.72179e-05 -0.0053973 0)
(-8.61252e-05 -0.00557307 0)
(-9.55124e-05 -0.00573441 0)
(-0.000105372 -0.0058813 0)
(-0.000115714 -0.00601371 0)
(-0.000126537 -0.00613165 0)
(-0.000137865 -0.0062351 0)
(-0.00014962 -0.00632405 0)
(-0.000161565 -0.00639846 0)
(-0.000173418 -0.00645834 0)
(-0.0001867 -0.00650371 0)
(-0.000207888 -0.00653493 0)
(-0.000243212 -0.00655396 0)
(-0.000287125 -0.00655967 0)
(-0.000325057 -0.00656135 0)
(-0.000360876 -0.00656487 0)
(-0.0003782 -0.0065799 0)
(-0.000367707 -0.00660329 0)
(-0.00037467 -0.00662457 0)
(-0.000388062 -0.00664311 0)
(-0.000401921 -0.00665872 0)
(-0.000415144 -0.00667134 0)
(-0.000428137 -0.00668099 0)
(-0.000441159 -0.0066877 0)
(-0.000454252 -0.00669146 0)
(-0.000467398 -0.0066923 0)
(-0.000480579 -0.0066902 0)
(-0.000493786 -0.00668519 0)
(-0.00050701 -0.00667726 0)
(-0.000520239 -0.00666643 0)
(-0.000533462 -0.00665273 0)
(-0.000546668 -0.00663616 0)
(-0.000559845 -0.00661677 0)
(-3.72345e-08 -0.00021279 0)
(-4.412e-07 -0.000624403 0)
(-1.29727e-06 -0.00102201 0)
(-2.61072e-06 -0.00140558 0)
(-4.37568e-06 -0.00177507 0)
(-6.59141e-06 -0.00213044 0)
(-9.25844e-06 -0.00247167 0)
(-1.23792e-05 -0.00279873 0)
(-1.59533e-05 -0.00311158 0)
(-1.99824e-05 -0.0034102 0)
(-2.4465e-05 -0.00369455 0)
(-2.94026e-05 -0.00396462 0)
(-3.47931e-05 -0.00422038 0)
(-4.06377e-05 -0.00446179 0)
(-4.69342e-05 -0.00468885 0)
(-5.36838e-05 -0.00490152 0)
(-6.08843e-05 -0.00509978 0)
(-6.85367e-05 -0.00528361 0)
(-7.6639e-05 -0.00545298 0)
(-8.51913e-05 -0.00560788 0)
(-9.41934e-05 -0.00574827 0)
(-0.000103654 -0.00587414 0)
(-0.000113595 -0.00598547 0)
(-0.000124001 -0.00608224 0)
(-0.000134666 -0.00616441 0)
(-0.000145087 -0.00623196 0)
(-0.000155638 -0.00628481 0)
(-0.00017173 -0.00632304 0)
(-0.000205846 -0.00634722 0)
(-0.000248954 -0.00636162 0)
(-0.00028548 -0.00636446 0)
(-0.000325204 -0.0063663 0)
(-0.000361468 -0.00637435 0)
(-0.000358791 -0.00640082 0)
(-0.000354735 -0.00642962 0)
(-0.000365518 -0.00645522 0)
(-0.000379813 -0.00647717 0)
(-0.000393811 -0.00649539 0)
(-0.00040729 -0.00650997 0)
(-0.000420651 -0.00652103 0)
(-0.000434043 -0.00652871 0)
(-0.000447461 -0.0065331 0)
(-0.000460879 -0.00653432 0)
(-0.000474284 -0.00653244 0)
(-0.000487665 -0.00652755 0)
(-0.000501015 -0.00651971 0)
(-0.000514327 -0.00650898 0)
(-0.000527592 -0.00649542 0)
(-0.000540801 -0.00647907 0)
(-0.000553946 -0.00645999 0)
(-3.58649e-08 -0.000210934 0)
(-4.36137e-07 -0.000618549 0)
(-1.28547e-06 -0.00101192 0)
(-2.58621e-06 -0.00139105 0)
(-4.33317e-06 -0.00175595 0)
(-6.52057e-06 -0.0021066 0)
(-9.15176e-06 -0.002443 0)
(-1.22227e-05 -0.00276516 0)
(-1.57381e-05 -0.00307305 0)
(-1.96911e-05 -0.00336667 0)
(-2.40876e-05 -0.003646 0)
(-2.89176e-05 -0.00391103 0)
(-3.41895e-05 -0.00416175 0)
(-3.98891e-05 -0.00439815 0)
(-4.60278e-05 -0.0046202 0)
(-5.25867e-05 -0.00482789 0)
(-5.95814e-05 -0.00502119 0)
(-6.69863e-05 -0.00520011 0)
(-7.48225e-05 -0.0053646 0)
(-8.30544e-05 -0.00551465 0)
(-9.17138e-05 -0.00565024 0)
(-0.000100768 -0.00577136 0)
(-0.000110287 -0.00587797 0)
(-0.000120162 -0.00597006 0)
(-0.000130091 -0.00604758 0)
(-0.000139321 -0.00611052 0)
(-0.000149059 -0.00615884 0)
(-0.000168588 -0.00619267 0)
(-0.000213346 -0.00621234 0)
(-0.00026898 -0.00622029 0)
(-0.000301621 -0.00622106 0)
(-0.00033207 -0.00622261 0)
(-0.000351438 -0.00623279 0)
(-0.00034152 -0.00625425 0)
(-0.000346354 -0.0062753 0)
(-0.000358587 -0.00629447 0)
(-0.000371916 -0.00631133 0)
(-0.000384893 -0.00632568 0)
(-0.000397773 -0.00633745 0)
(-0.000410777 -0.00634659 0)
(-0.000423926 -0.00635304 0)
(-0.000437174 -0.00635681 0)
(-0.000450484 -0.00635786 0)
(-0.000463827 -0.00635619 0)
(-0.000477181 -0.00635182 0)
(-0.000490528 -0.00634474 0)
(-0.000503849 -0.00633497 0)
(-0.000517129 -0.00632253 0)
(-0.000530354 -0.00630744 0)
(-0.000543512 -0.00628974 0)
(-6.20135e-08 -0.000207338 0)
(-5.96805e-07 -0.000607995 0)
(-1.67888e-06 -0.000994609 0)
(-3.29541e-06 -0.00136715 0)
(-5.42647e-06 -0.0017256 0)
(-8.06073e-06 -0.00206992 0)
(-1.11921e-05 -0.00240009 0)
(-1.48163e-05 -0.0027161 0)
(-1.89291e-05 -0.00301792 0)
(-2.3527e-05 -0.00330553 0)
(-2.86073e-05 -0.00357891 0)
(-3.41672e-05 -0.00383805 0)
(-4.02054e-05 -0.00408292 0)
(-4.67191e-05 -0.00431351 0)
(-5.37088e-05 -0.00452981 0)
(-6.11712e-05 -0.00473179 0)
(-6.91085e-05 -0.00491945 0)
(-7.75159e-05 -0.00509277 0)
(-8.6398e-05 -0.00525174 0)
(-9.57469e-05 -0.00539635 0)
(-0.000105574 -0.00552659 0)
(-0.000115881 -0.00564246 0)
(-0.00012669 -0.00574393 0)
(-0.00013791 -0.00583103 0)
(-0.000149262 -0.00590371 0)
(-0.000160477 -0.00596196 0)
(-0.000173488 -0.00600586 0)
(-0.000195763 -0.00603584 0)
(-0.000233577 -0.00605435 0)
(-0.000281633 -0.00605915 0)
(-0.000327208 -0.00606081 0)
(-0.000369115 -0.00606557 0)
(-0.000373433 -0.00608475 0)
(-0.00036115 -0.0061085 0)
(-0.000369081 -0.00612968 0)
(-0.000382216 -0.00614806 0)
(-0.00039513 -0.00616362 0)
(-0.000407257 -0.00617642 0)
(-0.000419144 -0.00618656 0)
(-0.000431044 -0.00619411 0)
(-0.00044299 -0.00619912 0)
(-0.000454965 -0.0062016 0)
(-0.000466964 -0.00620159 0)
(-0.000478984 -0.00619909 0)
(-0.000491021 -0.0061941 0)
(-0.000503069 -0.00618663 0)
(-0.00051512 -0.00617669 0)
(-0.000527165 -0.00616428 0)
(-0.000539195 -0.00614942 0)
(-0.000551199 -0.00613213 0)
(-2.55935e-08 -0.000204095 0)
(-3.60879e-07 -0.000598339 0)
(-1.09184e-06 -0.000978604 0)
(-2.2296e-06 -0.00134486 0)
(-3.77446e-06 -0.00169706 0)
(-5.72805e-06 -0.00203519 0)
(-8.09472e-06 -0.00235921 0)
(-1.08773e-05 -0.00266909 0)
(-1.40789e-05 -0.00296481 0)
(-1.77006e-05 -0.00324634 0)
(-2.17443e-05 -0.00351366 0)
(-2.62099e-05 -0.00376673 0)
(-3.10987e-05 -0.00400554 0)
(-3.64102e-05 -0.00423006 0)
(-4.21451e-05 -0.00444027 0)
(-4.83029e-05 -0.00463613 0)
(-5.48842e-05 -0.00481765 0)
(-6.18883e-05 -0.00498477 0)
(-6.93148e-05 -0.0051375 0)
(-7.71656e-05 -0.00527579 0)
(-8.54503e-05 -0.00539964 0)
(-9.4196e-05 -0.00550901 0)
(-0.000103385 -0.00560389 0)
(-0.000112772 -0.00568424 0)
(-0.000121772 -0.00575003 0)
(-0.000130854 -0.00580116 0)
(-0.000146485 -0.00583775 0)
(-0.000183005 -0.00586037 0)
(-0.000230802 -0.00587361 0)
(-0.000271714 -0.00587554 0)
(-0.000315709 -0.00587724 0)
(-0.000353226 -0.00588806 0)
(-0.000336737 -0.0059164 0)
(-0.000334756 -0.00594471 0)
(-0.000346153 -0.00597002 0)
(-0.000359963 -0.00599194 0)
(-0.000373144 -0.00601044 0)
(-0.000385875 -0.00602564 0)
(-0.000398564 -0.00603768 0)
(-0.00041131 -0.00604669 0)
(-0.000424086 -0.0060528 0)
(-0.000436857 -0.0060561 0)
(-0.000449608 -0.00605669 0)
(-0.000462327 -0.00605463 0)
(-0.000475004 -0.00604998 0)
(-0.000487633 -0.0060428 0)
(-0.000500204 -0.00603313 0)
(-0.000512709 -0.00602102 0)
(-0.000525142 -0.00600651 0)
(-0.000537494 -0.00598964 0)
(-3.97949e-08 -0.000202674 0)
(-4.44465e-07 -0.000593732 0)
(-1.28883e-06 -0.000970519 0)
(-2.57331e-06 -0.00133305 0)
(-4.28639e-06 -0.00168134 0)
(-6.42561e-06 -0.00201538 0)
(-8.98627e-06 -0.00233519 0)
(-1.19713e-05 -0.00264076 0)
(-1.53743e-05 -0.00293208 0)
(-1.91995e-05 -0.00320916 0)
(-2.34378e-05 -0.00347199 0)
(-2.80952e-05 -0.00372054 0)
(-3.31592e-05 -0.00395483 0)
(-3.86386e-05 -0.00417483 0)
(-4.4516e-05 -0.00438053 0)
(-5.08037e-05 -0.00457191 0)
(-5.74783e-05 -0.00474896 0)
(-6.45559e-05 -0.00491167 0)
(-7.20037e-05 -0.00506001 0)
(-7.98468e-05 -0.00519396 0)
(-8.80584e-05 -0.00531351 0)
(-9.67008e-05 -0.00541861 0)
(-0.000105666 -0.00550928 0)
(-0.00011459 -0.00558544 0)
(-0.000122642 -0.0056471 0)
(-0.000131156 -0.00569419 0)
(-0.000150652 -0.00572687 0)
(-0.000198337 -0.0057455 0)
(-0.000260237 -0.00575205 0)
(-0.00029937 -0.00575198 0)
(-0.000333328 -0.00575329 0)
(-0.00034339 -0.00576478 0)
(-0.000328714 -0.00578411 0)
(-0.000334138 -0.00580263 0)
(-0.000345779 -0.00581962 0)
(-0.00035785 -0.00583475 0)
(-0.000369448 -0.00584793 0)
(-0.000381011 -0.0058591 0)
(-0.000392751 -0.00586824 0)
(-0.000404667 -0.00587529 0)
(-0.000416708 -0.00588023 0)
(-0.000428836 -0.005883 0)
(-0.000441024 -0.00588358 0)
(-0.000453249 -0.00588192 0)
(-0.000465492 -0.00587801 0)
(-0.000477734 -0.00587184 0)
(-0.000489957 -0.00586339 0)
(-0.000502146 -0.00585267 0)
(-0.000514287 -0.00583969 0)
(-0.000526367 -0.00582446 0)
(-6.06405e-08 -0.000198703 0)
(-5.84326e-07 -0.000582203 0)
(-1.64167e-06 -0.000951762 0)
(-3.21851e-06 -0.00130734 0)
(-5.29385e-06 -0.00164891 0)
(-7.85507e-06 -0.00197643 0)
(-1.08954e-05 -0.00228988 0)
(-1.44096e-05 -0.00258923 0)
(-1.83933e-05 -0.00287446 0)
(-2.28429e-05 -0.00314554 0)
(-2.7755e-05 -0.00340247 0)
(-3.31281e-05 -0.00364521 0)
(-3.89594e-05 -0.00387376 0)
(-4.52494e-05 -0.0040881 0)
(-5.1995e-05 -0.00428822 0)
(-5.91991e-05 -0.00447411 0)
(-6.68574e-05 -0.00464577 0)
(-7.4975e-05 -0.00480318 0)
(-8.3545e-05 -0.00494634 0)
(-9.25805e-05 -0.00507526 0)
(-0.000102084 -0.00518994 0)
(-0.000112083 -0.00529039 0)
(-0.000122477 -0.0053766 0)
(-0.000132949 -0.00544859 0)
(-0.000143195 -0.00550637 0)
(-0.000155408 -0.00555002 0)
(-0.000178005 -0.00557995 0)
(-0.000218646 -0.00559869 0)
(-0.000272256 -0.0056034 0)
(-0.000325994 -0.00560562 0)
(-0.000376217 -0.00561262 0)
(-0.000362218 -0.00563469 0)
(-0.000350177 -0.00565789 0)
(-0.000358612 -0.00567854 0)
(-0.00037114 -0.00569646 0)
(-0.000382853 -0.00571168 0)
(-0.000393707 -0.00572434 0)
(-0.00040434 -0.00573457 0)
(-0.000414986 -0.0057425 0)
(-0.000425663 -0.00574821 0)
(-0.000436363 -0.00575176 0)
(-0.000447084 -0.00575319 0)
(-0.000457831 -0.00575251 0)
(-0.000468605 -0.00574973 0)
(-0.000479404 -0.00574485 0)
(-0.000490222 -0.00573789 0)
(-0.000501053 -0.00572886 0)
(-0.000511887 -0.00571775 0)
(-0.000522715 -0.00570457 0)
(-0.000533527 -0.00568934 0)
(-1.53134e-08 -0.00019595 0)
(-2.64835e-07 -0.000573926 0)
(-8.27148e-07 -0.000937947 0)
(-1.7194e-06 -0.00128798 0)
(-2.94708e-06 -0.00162399 0)
(-4.51808e-06 -0.00194595 0)
(-6.43799e-06 -0.00225383 0)
(-8.71481e-06 -0.00254761 0)
(-1.13513e-05 -0.00282724 0)
(-1.43539e-05 -0.00309272 0)
(-1.77229e-05 -0.00334401 0)
(-2.14643e-05 -0.00358108 0)
(-2.5577e-05 -0.00380392 0)
(-3.00673e-05 -0.0040125 0)
(-3.49329e-05 -0.0042068 0)
(-4.01819e-05 -0.00438679 0)
(-4.58109e-05 -0.00455245 0)
(-5.18294e-05 -0.00470376 0)
(-5.82354e-05 -0.00484068 0)
(-6.50513e-05 -0.0049632 0)
(-7.22974e-05 -0.00507129 0)
(-7.99777e-05 -0.00516494 0)
(-8.78627e-05 -0.00524409 0)
(-9.54309e-05 -0.00530871 0)
(-0.000103052 -0.00535868 0)
(-0.000116683 -0.00539412 0)
(-0.000149425 -0.00541575 0)
(-0.000195761 -0.00542855 0)
(-0.000242565 -0.00542967 0)
(-0.000293894 -0.00543125 0)
(-0.00033399 -0.00544498 0)
(-0.000304315 -0.00547287 0)
(-0.00030335 -0.00549959 0)
(-0.000315043 -0.00552354 0)
(-0.000328372 -0.00554439 0)
(-0.000340765 -0.0055622 0)
(-0.000352733 -0.00557708 0)
(-0.000364705 -0.0055892 0)
(-0.000376746 -0.00559869 0)
(-0.000388808 -0.00560568 0)
(-0.000400855 -0.00561027 0)
(-0.000412869 -0.00561254 0)
(-0.00042484 -0.00561254 0)
(-0.000436763 -0.00561033 0)
(-0.000448629 -0.00560596 0)
(-0.000460432 -0.00559947 0)
(-0.000472165 -0.00559091 0)
(-0.000483821 -0.0055803 0)
(-0.000495395 -0.00556767 0)
(-0.000506879 -0.00555306 0)
(-3.52858e-08 -0.000195167 0)
(-3.92671e-07 -0.000571154 0)
(-1.13866e-06 -0.000932826 0)
(-2.26992e-06 -0.00128021 0)
(-3.77885e-06 -0.00161333 0)
(-5.65647e-06 -0.0019322 0)
(-7.90381e-06 -0.00223682 0)
(-1.05131e-05 -0.00252721 0)
(-1.34872e-05 -0.00280336 0)
(-1.68151e-05 -0.00306528 0)
(-2.05017e-05 -0.00331296 0)
(-2.45319e-05 -0.00354639 0)
(-2.89135e-05 -0.00376557 0)
(-3.36259e-05 -0.00397047 0)
(-3.86812e-05 -0.00416109 0)
(-4.40515e-05 -0.0043374 0)
(-4.9753e-05 -0.00449939 0)
(-5.57475e-05 -0.00464703 0)
(-6.20615e-05 -0.00478028 0)
(-6.86634e-05 -0.00489914 0)
(-7.5629e-05 -0.00500354 0)
(-8.28291e-05 -0.00509348 0)
(-8.98182e-05 -0.00516887 0)
(-9.55503e-05 -0.00522969 0)
(-0.000101507 -0.00527584 0)
(-0.000120629 -0.00530742 0)
(-0.000174618 -0.0053247 0)
(-0.000246606 -0.00533034 0)
(-0.000291361 -0.00532913 0)
(-0.000328614 -0.00532996 0)
(-0.000324965 -0.00534178 0)
(-0.000308044 -0.00535876 0)
(-0.000313126 -0.00537505 0)
(-0.000323563 -0.00539013 0)
(-0.000334048 -0.00540378 0)
(-0.000344111 -0.00541595 0)
(-0.000354268 -0.00542661 0)
(-0.000364696 -0.00543572 0)
(-0.000375358 -0.0054432 0)
(-0.000386188 -0.00544901 0)
(-0.000397141 -0.00545306 0)
(-0.000408186 -0.00545529 0)
(-0.000419297 -0.00545564 0)
(-0.000430451 -0.00545409 0)
(-0.000441628 -0.00545063 0)
(-0.000452807 -0.00544526 0)
(-0.000463972 -0.00543799 0)
(-0.000475105 -0.0054288 0)
(-0.000486194 -0.00541772 0)
(-0.000497223 -0.00540475 0)
(-6.3888e-08 -0.000191175 0)
(-5.98101e-07 -0.000559665 0)
(-1.66236e-06 -0.000914262 0)
(-3.23462e-06 -0.00125493 0)
(-5.28653e-06 -0.00158165 0)
(-7.79912e-06 -0.00189438 0)
(-1.07604e-05 -0.00219311 0)
(-1.41599e-05 -0.0024778 0)
(-1.79894e-05 -0.00274846 0)
(-2.22402e-05 -0.00300504 0)
(-2.69065e-05 -0.00324754 0)
(-3.19805e-05 -0.00347595 0)
(-3.74586e-05 -0.00369025 0)
(-4.33327e-05 -0.00389043 0)
(-4.96008e-05 -0.00407649 0)
(-5.62528e-05 -0.00424842 0)
(-6.3288e-05 -0.00440622 0)
(-7.06917e-05 -0.00454988 0)
(-7.84688e-05 -0.00467941 0)
(-8.66138e-05 -0.00479481 0)
(-9.51519e-05 -0.00489611 0)
(-0.000103981 -0.00498329 0)
(-0.000112736 -0.00505639 0)
(-0.00012088 -0.00511542 0)
(-0.000130271 -0.00516049 0)
(-0.00015027 -0.00519184 0)
(-0.000193729 -0.00521116 0)
(-0.000255228 -0.00521582 0)
(-0.000315584 -0.00521801 0)
(-0.000371583 -0.00522545 0)
(-0.000337418 -0.00524356 0)
(-0.000325365 -0.00526097 0)
(-0.000332908 -0.00527621 0)
(-0.000343599 -0.00528937 0)
(-0.000353133 -0.0053006 0)
(-0.000361929 -0.00531012 0)
(-0.000370662 -0.00531807 0)
(-0.000379517 -0.00532452 0)
(-0.000388487 -0.00532948 0)
(-0.00039755 -0.00533294 0)
(-0.000406703 -0.00533485 0)
(-0.000415945 -0.00533513 0)
(-0.000425275 -0.00533376 0)
(-0.000434686 -0.00533073 0)
(-0.000444169 -0.00532606 0)
(-0.000453711 -0.00531973 0)
(-0.0004633 -0.00531174 0)
(-0.000472924 -0.00530208 0)
(-0.000482569 -0.00529076 0)
(-0.000492221 -0.00527776 0)
(-1.06692e-08 -0.000188305 0)
(-2.01267e-07 -0.000551186 0)
(-6.38077e-07 -0.000900288 0)
(-1.33774e-06 -0.00123556 0)
(-2.31005e-06 -0.00155695 0)
(-3.56371e-06 -0.00186443 0)
(-5.10953e-06 -0.00215795 0)
(-6.9555e-06 -0.00243748 0)
(-9.11159e-06 -0.002703 0)
(-1.15837e-05 -0.00295446 0)
(-1.43818e-05 -0.00319185 0)
(-1.75103e-05 -0.00341515 0)
(-2.09805e-05 -0.00362434 0)
(-2.47958e-05 -0.00381939 0)
(-2.897e-05 -0.00400029 0)
(-3.35056e-05 -0.00416704 0)
(-3.84196e-05 -0.00431962 0)
(-4.37143e-05 -0.00445803 0)
(-4.94191e-05 -0.00458226 0)
(-5.55526e-05 -0.00469232 0)
(-6.21475e-05 -0.0047882 0)
(-6.90575e-05 -0.00486991 0)
(-7.5899e-05 -0.00493745 0)
(-8.2667e-05 -0.00499082 0)
(-9.32618e-05 -0.00503008 0)
(-0.000117847 -0.00505572 0)
(-0.000160634 -0.00507159 0)
(-0.00021826 -0.00507495 0)
(-0.000284596 -0.00507844 0)
(-0.000335496 -0.0050935 0)
(-0.000287409 -0.00511633 0)
(-0.000284955 -0.00513702 0)
(-0.000296285 -0.00515512 0)
(-0.000308661 -0.00517067 0)
(-0.000319528 -0.00518386 0)
(-0.000329803 -0.00519492 0)
(-0.000340044 -0.00520402 0)
(-0.00035033 -0.00521125 0)
(-0.000360622 -0.00521669 0)
(-0.000370897 -0.00522035 0)
(-0.000381152 -0.00522221 0)
(-0.000391391 -0.00522229 0)
(-0.000401612 -0.0052206 0)
(-0.000411812 -0.00521722 0)
(-0.000421984 -0.0052122 0)
(-0.000432121 -0.00520556 0)
(-0.000442218 -0.00519733 0)
(-0.000452267 -0.00518751 0)
(-0.00046226 -0.00517612 0)
(-0.000472191 -0.00516317 0)
(-6.40108e-09 -0.000188466 0)
(-1.17801e-07 -0.000551091 0)
(-3.84406e-07 -0.000899431 0)
(-8.23192e-07 -0.0012335 0)
(-1.4489e-06 -0.00155331 0)
(-2.27341e-06 -0.00185888 0)
(-3.31016e-06 -0.00215019 0)
(-4.56817e-06 -0.00242726 0)
(-6.05886e-06 -0.00269008 0)
(-7.78812e-06 -0.00293864 0)
(-9.76629e-06 -0.00317292 0)
(-1.19968e-05 -0.00339292 0)
(-1.449e-05 -0.00359862 0)
(-1.72475e-05 -0.00379 0)
(-2.02807e-05 -0.00396703 0)
(-2.3589e-05 -0.00412968 0)
(-2.71852e-05 -0.00427794 0)
(-3.10687e-05 -0.00441175 0)
(-3.52684e-05 -0.00453109 0)
(-3.9807e-05 -0.0046359 0)
(-4.46856e-05 -0.00472615 0)
(-4.96129e-05 -0.00480178 0)
(-5.39784e-05 -0.00486269 0)
(-5.83368e-05 -0.00490876 0)
(-7.02131e-05 -0.00494004 0)
(-0.000104358 -0.00495719 0)
(-0.000155394 -0.0049649 0)
(-0.000212129 -0.00496287 0)
(-0.000278068 -0.00496327 0)
(-0.000287092 -0.00497532 0)
(-0.000252399 -0.00499166 0)
(-0.000254312 -0.00500696 0)
(-0.000264852 -0.0050208 0)
(-0.000275492 -0.0050331 0)
(-0.000285214 -0.00504395 0)
(-0.000294836 -0.00505344 0)
(-0.000304686 -0.00506158 0)
(-0.000314751 -0.00506833 0)
(-0.00032496 -0.00507366 0)
(-0.000335269 -0.00507748 0)
(-0.000345653 -0.0050797 0)
(-0.00035609 -0.00508031 0)
(-0.000366559 -0.00507935 0)
(-0.000377036 -0.00507687 0)
(-0.000387502 -0.0050729 0)
(-0.000397938 -0.00506745 0)
(-0.000408328 -0.00506051 0)
(-0.000418657 -0.00505208 0)
(-0.000428914 -0.00504217 0)
(-0.000439086 -0.00503079 0)
(-4.25474e-08 -0.00018683 0)
(-4.20812e-07 -0.0005462 0)
(-1.17932e-06 -0.000891298 0)
(-2.30355e-06 -0.00122214 0)
(-3.77015e-06 -0.00153873 0)
(-5.56549e-06 -0.00184107 0)
(-7.67601e-06 -0.00212917 0)
(-1.00952e-05 -0.00240304 0)
(-1.28102e-05 -0.00266266 0)
(-1.58167e-05 -0.00290803 0)
(-1.91006e-05 -0.00313916 0)
(-2.266e-05 -0.00335602 0)
(-2.64783e-05 -0.00355861 0)
(-3.05557e-05 -0.00374691 0)
(-3.48713e-05 -0.00392091 0)
(-3.94263e-05 -0.0040806 0)
(-4.4192e-05 -0.00422595 0)
(-4.91754e-05 -0.00435693 0)
(-5.43616e-05 -0.00447354 0)
(-5.97997e-05 -0.00457573 0)
(-6.53766e-05 -0.00466349 0)
(-7.05579e-05 -0.00473677 0)
(-7.425e-05 -0.00479554 0)
(-7.80896e-05 -0.00483973 0)
(-9.63253e-05 -0.00486943 0)
(-0.000151788 -0.00488499 0)
(-0.000229894 -0.00488883 0)
(-0.000288711 -0.00488714 0)
(-0.000343778 -0.00489094 0)
(-0.000299645 -0.00490164 0)
(-0.000285274 -0.00491266 0)
(-0.000290382 -0.00492238 0)
(-0.00029851 -0.00493077 0)
(-0.000305595 -0.00493795 0)
(-0.000312203 -0.00494411 0)
(-0.000318984 -0.0049494 0)
(-0.000326076 -0.00495384 0)
(-0.000333435 -0.0049574 0)
(-0.000341014 -0.00495999 0)
(-0.000348791 -0.00496146 0)
(-0.000356749 -0.00496172 0)
(-0.000364869 -0.00496074 0)
(-0.000373126 -0.00495859 0)
(-0.000381496 -0.00495528 0)
(-0.000389957 -0.0049508 0)
(-0.000398485 -0.00494514 0)
(-0.000407061 -0.00493826 0)
(-0.000415664 -0.00493013 0)
(-0.000424276 -0.00492074 0)
(-0.000432882 -0.00491007 0)
(-4.18364e-08 -0.000183488 0)
(-4.15025e-07 -0.000536637 0)
(-1.16494e-06 -0.000875922 0)
(-2.27681e-06 -0.00120131 0)
(-3.72837e-06 -0.00151276 0)
(-5.50446e-06 -0.00181026 0)
(-7.59274e-06 -0.00209377 0)
(-9.9841e-06 -0.00236328 0)
(-1.26675e-05 -0.00261877 0)
(-1.56356e-05 -0.00286021 0)
(-1.88772e-05 -0.0030876 0)
(-2.23868e-05 -0.00330092 0)
(-2.61526e-05 -0.00350016 0)
(-3.01704e-05 -0.00368533 0)
(-3.44266e-05 -0.0038564 0)
(-3.89182e-05 -0.0040134 0)
(-4.36269e-05 -0.0041563 0)
(-4.85556e-05 -0.00428513 0)
(-5.36987e-05 -0.00439988 0)
(-5.90868e-05 -0.00450058 0)
(-6.4622e-05 -0.00458723 0)
(-6.98849e-05 -0.00465985 0)
(-7.41601e-05 -0.0047185 0)
(-7.92218e-05 -0.00476323 0)
(-9.57447e-05 -0.00479416 0)
(-0.000141365 -0.0048125 0)
(-0.000210427 -0.00481672 0)
(-0.000282234 -0.00481939 0)
(-0.000345842 -0.00482961 0)
(-0.000277845 -0.00484201 0)
(-0.000269676 -0.0048522 0)
(-0.000277218 -0.00486032 0)
(-0.000285755 -0.00486668 0)
(-0.000292517 -0.00487161 0)
(-0.000298732 -0.00487541 0)
(-0.000305066 -0.00487827 0)
(-0.000311607 -0.00488026 0)
(-0.000318304 -0.00488137 0)
(-0.000325133 -0.0048815 0)
(-0.000332092 -0.00488054 0)
(-0.000339176 -0.00487847 0)
(-0.000346374 -0.00487535 0)
(-0.000353675 -0.00487126 0)
(-0.000361064 -0.00486624 0)
(-0.000368528 -0.00486029 0)
(-0.00037605 -0.00485339 0)
(-0.000383613 -0.00484552 0)
(-0.000391201 -0.00483664 0)
(-0.000398797 -0.0048267 0)
(-0.000406392 -0.00481568 0)
(-7.73726e-09 -0.000181925 0)
(-1.41562e-07 -0.00053193 0)
(-4.44415e-07 -0.000868065 0)
(-9.26097e-07 -0.0011903 0)
(-1.58961e-06 -0.00149862 0)
(-2.43973e-06 -0.00179299 0)
(-3.47936e-06 -0.00207339 0)
(-4.71379e-06 -0.00233981 0)
(-6.1442e-06 -0.00259222 0)
(-7.77564e-06 -0.00283062 0)
(-9.60768e-06 -0.00305497 0)
(-1.16461e-05 -0.00326528 0)
(-1.3889e-05 -0.00346152 0)
(-1.63439e-05 -0.00364369 0)
(-1.90075e-05 -0.00381177 0)
(-2.18893e-05 -0.00396576 0)
(-2.49837e-05 -0.00410564 0)
(-2.83087e-05 -0.00423142 0)
(-3.18728e-05 -0.00434308 0)
(-3.57144e-05 -0.00444063 0)
(-3.97387e-05 -0.00452406 0)
(-4.35835e-05 -0.00459336 0)
(-4.67964e-05 -0.00464854 0)
(-5.16765e-05 -0.00468964 0)
(-6.75649e-05 -0.00471671 0)
(-0.000109518 -0.0047321 0)
(-0.000178135 -0.0047348 0)
(-0.00026077 -0.00473758 0)
(-0.000307051 -0.00474784 0)
(-0.000239645 -0.00475852 0)
(-0.00023585 -0.00476701 0)
(-0.000244681 -0.00477355 0)
(-0.000253358 -0.0047785 0)
(-0.000260197 -0.00478224 0)
(-0.000266567 -0.00478503 0)
(-0.000273046 -0.00478702 0)
(-0.000279668 -0.00478822 0)
(-0.00028638 -0.00478852 0)
(-0.000293158 -0.0047878 0)
(-0.000299997 -0.00478603 0)
(-0.000306883 -0.0047833 0)
(-0.000313802 -0.00477965 0)
(-0.000320746 -0.00477512 0)
(-0.00032771 -0.00476977 0)
(-0.000334688 -0.00476363 0)
(-0.000341668 -0.00475673 0)
(-0.000348632 -0.00474904 0)
(-0.000355563 -0.00474052 0)
(-0.00036245 -0.00473106 0)
(-0.00036929 -0.00472058 0)
(-1.01607e-08 -0.000181574 0)
(-1.06955e-07 -0.000530654 0)
(-3.17214e-07 -0.000865668 0)
(-6.48064e-07 -0.00118661 0)
(-1.10494e-06 -0.00149348 0)
(-1.69514e-06 -0.00178628 0)
(-2.42422e-06 -0.00206499 0)
(-3.29958e-06 -0.00232961 0)
(-4.32515e-06 -0.00258013 0)
(-5.50809e-06 -0.00281655 0)
(-6.85073e-06 -0.00303885 0)
(-8.36074e-06 -0.00324702 0)
(-1.00389e-05 -0.00344106 0)
(-1.18941e-05 -0.00362095 0)
(-1.39251e-05 -0.00378668 0)
(-1.61424e-05 -0.00393824 0)
(-1.85424e-05 -0.0040756 0)
(-2.11433e-05 -0.00419877 0)
(-2.39544e-05 -0.00430772 0)
(-2.7006e-05 -0.00440244 0)
(-3.01866e-05 -0.00448289 0)
(-3.3138e-05 -0.00454908 0)
(-3.55602e-05 -0.00460096 0)
(-4.02048e-05 -0.00463854 0)
(-5.58817e-05 -0.00466188 0)
(-9.5925e-05 -0.00467374 0)
(-0.000166793 -0.00467461 0)
(-0.000266918 -0.00467722 0)
(-0.000271358 -0.00468547 0)
(-0.000219561 -0.00469396 0)
(-0.000217256 -0.00470038 0)
(-0.000224606 -0.00470505 0)
(-0.000231203 -0.00470837 0)
(-0.000236235 -0.00471073 0)
(-0.000240903 -0.00471238 0)
(-0.000245663 -0.00471339 0)
(-0.000250538 -0.00471368 0)
(-0.000255492 -0.00471307 0)
(-0.00026051 -0.00471148 0)
(-0.00026558 -0.00470909 0)
(-0.000270677 -0.00470603 0)
(-0.000275785 -0.00470221 0)
(-0.000280901 -0.00469754 0)
(-0.000286036 -0.00469206 0)
(-0.000291195 -0.00468585 0)
(-0.000296374 -0.00467912 0)
(-0.00030155 -0.00467182 0)
(-0.000306703 -0.00466391 0)
(-0.000311819 -0.00465518 0)
(-0.000316905 -0.00464531 0)
(-1.02461e-08 -0.00018075 0)
(-1.26043e-07 -0.000528151 0)
(-3.73803e-07 -0.00086145 0)
(-7.57085e-07 -0.00118064 0)
(-1.27566e-06 -0.00148572 0)
(-1.93194e-06 -0.00177669 0)
(-2.72722e-06 -0.00205353 0)
(-3.66537e-06 -0.00231624 0)
(-4.74689e-06 -0.00256482 0)
(-5.97602e-06 -0.00279925 0)
(-7.35207e-06 -0.00301952 0)
(-8.88e-06 -0.00322563 0)
(-1.05577e-05 -0.00341757 0)
(-1.23911e-05 -0.00359532 0)
(-1.4376e-05 -0.00375888 0)
(-1.65194e-05 -0.00390823 0)
(-1.88142e-05 -0.00404335 0)
(-2.12754e-05 -0.00416425 0)
(-2.39085e-05 -0.00427089 0)
(-2.67321e-05 -0.00436327 0)
(-2.96029e-05 -0.00444136 0)
(-3.21341e-05 -0.00450516 0)
(-3.41747e-05 -0.00455464 0)
(-3.91514e-05 -0.00458979 0)
(-5.61676e-05 -0.00461068 0)
(-9.60158e-05 -0.0046202 0)
(-0.000169509 -0.00462036 0)
(-0.000290009 -0.0046252 0)
(-0.000246691 -0.00463543 0)
(-0.00021271 -0.00464474 0)
(-0.000211891 -0.00465177 0)
(-0.00021724 -0.00465687 0)
(-0.000221029 -0.00466045 0)
(-0.000223422 -0.00466292 0)
(-0.000225442 -0.00466451 0)
(-0.000227433 -0.00466527 0)
(-0.000229417 -0.00466507 0)
(-0.000231385 -0.00466377 0)
(-0.000233341 -0.00466151 0)
(-0.000235277 -0.00465874 0)
(-0.000237184 -0.00465557 0)
(-0.000239059 -0.00465171 0)
(-0.000240914 -0.00464692 0)
(-0.000242779 -0.00464104 0)
(-0.000244697 -0.00463424 0)
(-0.000246677 -0.00462719 0)
(-0.000248706 -0.00461978 0)
(-0.000250772 -0.00461201 0)
(-0.000252863 -0.00460358 0)
(-0.000255002 -0.00459368 0)
(-1.38841e-08 -0.000180011 0)
(-1.51234e-07 -0.000525894 0)
(-4.36875e-07 -0.00085764 0)
(-8.70439e-07 -0.00117525 0)
(-1.44808e-06 -0.00147872 0)
(-2.1684e-06 -0.00176805 0)
(-3.02992e-06 -0.00204323 0)
(-4.03273e-06 -0.00230427 0)
(-5.17486e-06 -0.00255116 0)
(-6.45653e-06 -0.00278389 0)
(-7.87488e-06 -0.00300246 0)
(-9.4305e-06 -0.00320686 0)
(-1.11195e-05 -0.00339709 0)
(-1.2943e-05 -0.00357313 0)
(-1.48953e-05 -0.00373498 0)
(-1.69779e-05 -0.00388263 0)
(-1.91832e-05 -0.00401608 0)
(-2.15205e-05 -0.00413531 0)
(-2.39962e-05 -0.0042403 0)
(-2.66172e-05 -0.00433107 0)
(-2.92232e-05 -0.00440758 0)
(-3.13966e-05 -0.00446983 0)
(-3.30864e-05 -0.0045178 0)
(-3.81996e-05 -0.0045515 0)
(-5.62482e-05 -0.00457096 0)
(-9.63653e-05 -0.00457892 0)
(-0.000172008 -0.00457883 0)
(-0.000306002 -0.0045888 0)
(-0.000230693 -0.00460632 0)
(-0.000207269 -0.00462127 0)
(-0.000207594 -0.00463338 0)
(-0.000211135 -0.00464297 0)
(-0.000212262 -0.00465045 0)
(-0.000211957 -0.00465621 0)
(-0.00021117 -0.00466047 0)
(-0.000210164 -0.00466329 0)
(-0.000208952 -0.0046646 0)
(-0.000207535 -0.00466445 0)
(-0.000205926 -0.00466319 0)
(-0.000204144 -0.0046614 0)
(-0.000202216 -0.0046591 0)
(-0.000200177 -0.00465586 0)
(-0.000198063 -0.00465137 0)
(-0.000195923 -0.00464518 0)
(-0.000193836 -0.00463731 0)
(-0.000191849 -0.00462936 0)
(-0.000189984 -0.00462092 0)
(-0.000188275 -0.00461213 0)
(-0.000186747 -0.00460262 0)
(-0.000185411 -0.00459132 0)
(-0.000579189 -0.00694288 0)
(-0.000593039 -0.00691566 0)
(-0.000606805 -0.00688548 0)
(-0.00062048 -0.0068524 0)
(-0.000634051 -0.00681649 0)
(-0.000647509 -0.00677785 0)
(-0.000660845 -0.00673655 0)
(-0.000674048 -0.00669269 0)
(-0.00068711 -0.00664635 0)
(-0.000700021 -0.00659765 0)