/*--------------------------------*- C++ -*----------------------------------*\
| =========                 |                                                 |
| \\      /  F ield         | OpenFOAM: The Open Source CFD Toolbox           |
|  \\    /   O peration     | Version:  2.4.0                                 |
|   \\  /    A nd           | Web:      www.OpenFOAM.org                      |
|    \\/     M anipulation  |                                                 |
\*---------------------------------------------------------------------------*/
FoamFile
{
    version     2.0;
    format      ascii;
    class       volScalarField;
    location    "0.009";
    object      p;
}
// * * * * * * * * * * * * * * * * * * * * * * * * * * * * * * * * * * * * * //

dimensions      [1 -1 -2 0 0 0 0];

internalField   nonuniform List<scalar> 
125
(
-0.0137517
-0.0139156
-0.0140801
-0.0142453
-0.014411
-0.0145774
-0.0147443
-0.0149119
-0.0150801
-0.0152489
-0.0154183
-0.0155884
-0.0157591
-0.0159304
-0.0161023
-0.0162749
-0.0164481
-0.016622
-0.0167965
-0.0169716
-0.0171474
-0.0173238
-0.0175009
-0.0176786
-0.017857
-0.0180361
-0.0182158
-0.0183961
-0.0185772
-0.0187589
-0.0189412
-0.0191243
-0.019308
-0.0194924
-0.0196775
-0.0198632
-0.0200497
-0.0202368
-0.0204246
-0.0206131
-0.0208023
-0.0209922
-0.0211828
-0.0213741
-0.0215661
-0.0217588
-0.0219522
-0.0221464
-0.0223412
-0.0225368
-0.0227331
-0.0229301
-0.0231278
-0.0233263
-0.0235255
-0.0237254
-0.0239261
-0.0241275
-0.0243296
-0.0245325
-0.0247361
-0.0249405
-0.0251457
-0.0253516
-0.0255582
-0.0257656
-0.0259738
-0.0261828
-0.0263925
-0.026603
-0.0268142
-0.0270263
-0.0272391
-0.0274527
-0.0276671
-0.0278823
-0.0280983
-0.028315
-0.0285326
-0.028751
-0.0289702
-0.0291901
-0.0294109
-0.0296325
-0.029855
-0.0300782
-0.0303023
-0.0305272
-0.0307529
-0.0309794
-0.0312068
-0.031435
-0.0316641
-0.031894
-0.0321247
-0.0323563
-0.0325888
-0.0328221
-0.0330563
-0.0332913
-0.0335272
-0.033764
-0.0340016
-0.0342401
-0.0344795
-0.0347198
-0.0349609
-0.035203
-0.0354459
-0.0356898
-0.0359345
-0.0361801
-0.0364266
-0.0366741
-0.0369224
-0.0371717
-0.0374219
-0.037673
-0.037925
-0.038178
-0.0384319
-0.0386867
-0.0389425
-0.0391992
-0.0394568
)
;

boundaryField
{
    BotWall
    {
        type            calculated;
        value           nonuniform 0();
    }
    FreeStream
    {
        type            calculated;
        value           nonuniform 0();
    }
    FrontNBack
    {
        type            empty;
    }
    LeftSide
    {
        type            symmetryPlane;
    }
    RightSide
    {
        type            symmetryPlane;
    }
    procBoundary6to3
    {
        type            processor;
        value           nonuniform List<scalar> 
50
(
-0.0278867
-0.0281027
-0.0283194
-0.028537
-0.0287553
-0.0289745
-0.0291945
-0.0294152
-0.0296368
-0.0298592
-0.0300825
-0.0303065
-0.0305314
-0.0307571
-0.0309836
-0.031211
-0.0314392
-0.0316683
-0.0318981
-0.0321289
-0.0323605
-0.0325929
-0.0328262
-0.0330603
-0.0332954
-0.0335312
-0.033768
-0.0340056
-0.0342441
-0.0344835
-0.0347237
-0.0349649
-0.0352069
-0.0354498
-0.0356936
-0.0359383
-0.0361839
-0.0364305
-0.0366779
-0.0369262
-0.0371755
-0.0374256
-0.0376767
-0.0379287
-0.0381817
-0.0384355
-0.0386903
-0.0389461
-0.0392028
-0.0394604
)
;
    }
    procBoundary6to4
    {
        type            processor;
        value           nonuniform List<scalar> 
75
(
-0.0137543
-0.0139182
-0.0140828
-0.014248
-0.0144137
-0.0145801
-0.0147471
-0.0149148
-0.015083
-0.0152519
-0.0154213
-0.0155914
-0.0157622
-0.0159335
-0.0161055
-0.0162781
-0.0164514
-0.0166253
-0.0167998
-0.016975
-0.0171508
-0.0173272
-0.0175044
-0.0176821
-0.0178605
-0.0180396
-0.0182194
-0.0183998
-0.0185808
-0.0187625
-0.0189449
-0.019128
-0.0193118
-0.0194962
-0.0196813
-0.0198671
-0.0200535
-0.0202407
-0.0204285
-0.020617
-0.0208063
-0.0209962
-0.0211868
-0.0213781
-0.0215701
-0.0217629
-0.0219563
-0.0221505
-0.0223453
-0.0225409
-0.0227372
-0.0229342
-0.023132
-0.0233305
-0.0235297
-0.0237296
-0.0239303
-0.0241317
-0.0243339
-0.0245368
-0.0247404
-0.0249448
-0.02515
-0.0253559
-0.0255626
-0.02577
-0.0259782
-0.0261871
-0.0263969
-0.0266074
-0.0268186
-0.0270307
-0.0272435
-0.0274571
-0.0276715
)
;
    }
    procBoundary6to5
    {
        type            processor;
        value           uniform -0.0397154;
    }
    procBoundary6to7
    {
        type            processor;
        value           uniform -0.0135884;
    }
    procBoundary6to8
    {
        type            processor;
        value           nonuniform List<scalar> 
75
(
-0.0227265
-0.0229236
-0.0231214
-0.0233199
-0.0235192
-0.0237192
-0.0239199
-0.0241214
-0.0243236
-0.0245265
-0.0247302
-0.0249347
-0.0251399
-0.0253458
-0.0255526
-0.02576
-0.0259683
-0.0261773
-0.0263871
-0.0265976
-0.0268089
-0.027021
-0.0272339
-0.0274476
-0.027662
-0.0278772
-0.0280933
-0.0283101
-0.0285277
-0.0287462
-0.0289654
-0.0291854
-0.0294063
-0.0296279
-0.0298504
-0.0300737
-0.0302978
-0.0305227
-0.0307485
-0.0309751
-0.0312025
-0.0314308
-0.0316599
-0.0318898
-0.0321206
-0.0323523
-0.0325848
-0.0328181
-0.0330523
-0.0332874
-0.0335234
-0.0337602
-0.0339978
-0.0342364
-0.0344758
-0.0347161
-0.0349573
-0.0351994
-0.0354424
-0.0356862
-0.035931
-0.0361767
-0.0364233
-0.0366707
-0.0369191
-0.0371684
-0.0374186
-0.0376698
-0.0379218
-0.0381748
-0.0384288
-0.0386836
-0.0389394
-0.0391961
-0.0394538
)
;
    }
    procBoundary6to9
    {
        type            processor;
        value           nonuniform List<scalar> 
50
(
-0.0137394
-0.0139035
-0.0140681
-0.0142334
-0.0143993
-0.0145657
-0.0147328
-0.0149005
-0.0150689
-0.0152378
-0.0154074
-0.0155775
-0.0157483
-0.0159198
-0.0160919
-0.0162646
-0.0164379
-0.0166119
-0.0167865
-0.0169617
-0.0171376
-0.0173142
-0.0174914
-0.0176692
-0.0178478
-0.0180269
-0.0182067
-0.0183872
-0.0185684
-0.0187502
-0.0189326
-0.0191158
-0.0192996
-0.0194841
-0.0196693
-0.0198552
-0.0200417
-0.0202289
-0.0204169
-0.0206055
-0.0207948
-0.0209848
-0.0211755
-0.0213669
-0.021559
-0.0217518
-0.0219453
-0.0221395
-0.0223345
-0.0225301
)
;
    }
}


// ************************************************************************* //
