/*--------------------------------*- C++ -*----------------------------------*\
| =========                 |                                                 |
| \\      /  F ield         | OpenFOAM: The Open Source CFD Toolbox           |
|  \\    /   O peration     | Version:  2.4.0                                 |
|   \\  /    A nd           | Web:      www.OpenFOAM.org                      |
|    \\/     M anipulation  |                                                 |
\*---------------------------------------------------------------------------*/
FoamFile
{
    version     2.0;
    format      ascii;
    class       volScalarField;
    location    "3.4";
    object      alpha1;
}
// * * * * * * * * * * * * * * * * * * * * * * * * * * * * * * * * * * * * * //

dimensions      [0 0 0 0 0 0 0];

internalField   nonuniform List<scalar> 
8000
(
1
1
1
0.999999
0.999998
0.999999
1.00001
1.00001
1.00001
1.00001
1.00001
1.00001
1
0.999998
0.999996
0.999996
0.999996
0.999997
0.999996
0.999998
0.999997
0.999997
0.999997
0.999997
0.999998
0.999998
0.999998
0.999999
0.999998
0.999999
0.999999
0.999999
0.999998
0.999998
0.999997
0.999996
0.999999
0.999928
0.947199
0.700563
0.30872
0.0695032
0.017453
0.0077522
0.00408093
0.00212124
0.00106868
0.000533357
0.000269281
0.000139933
1
1
1
0.999999
0.999998
0.999999
1.00001
1.00001
1.00001
1.00001
1
1
0.999999
0.999997
0.999997
0.999996
0.999996
0.999998
0.999996
0.999996
0.999996
0.999996
0.999997
0.999997
0.999997
0.999998
0.999998
0.999998
0.999998
0.999999
0.999999
0.999999
0.999999
0.999998
0.999998
0.999968
0.988882
0.84968
0.571722
0.263868
0.0723012
0.0156367
0.00502388
0.00229219
0.00112185
0.000545609
0.000262346
0.000126502
6.32249e-05
3.14767e-05
1
1
1
0.999999
0.999997
0.999998
1.00001
1.00001
1.00001
1
1
0.999998
0.999997
0.999997
0.999996
0.999996
0.999996
0.999996
0.999996
0.999995
0.999996
0.999996
0.999996
0.999996
0.999997
0.999997
0.999997
0.999997
0.999998
0.999998
0.999998
0.999998
0.999998
0.999987
0.999763
0.899057
0.653585
0.368172
0.149135
0.0458381
0.0116635
0.00302261
0.00102335
0.000422191
0.000187974
8.4729e-05
3.84415e-05
1.80243e-05
1.07859e-05
7.83211e-06
1
1
1
0.999998
0.999996
0.999997
1
1.00001
1
1
0.999998
0.999997
0.999997
0.999996
0.999996
0.999996
0.999996
0.999995
0.999995
0.999995
0.999995
0.999995
0.999996
0.999996
0.999996
0.999997
0.999997
0.999997
0.999998
0.999998
0.999998
0.999997
0.999821
0.935556
0.682034
0.381537
0.163646
0.058698
0.0186909
0.00547387
0.00155731
0.000453412
0.000144108
5.33152e-05
2.18154e-05
1.0606e-05
6.74034e-06
5.91473e-06
4.66534e-06
3.98242e-06
1
1
0.999999
0.999998
0.999996
0.999995
0.999996
0.999999
0.999999
0.999998
0.999997
0.999997
0.999996
0.999995
0.999995
0.999995
0.999995
0.999995
0.999995
0.999995
0.999995
0.999995
0.999995
0.999996
0.999996
0.999997
0.999997
0.999997
0.999997
0.999998
0.999893
0.971244
0.716922
0.385092
0.149622
0.0500751
0.016596
0.00535239
0.00160469
0.000457538
0.000130034
3.74509e-05
1.07224e-05
5.4429e-06
4.17992e-06
3.70195e-06
3.26926e-06
2.7724e-06
2.27242e-06
1.94691e-06
1
1
0.999999
0.999998
0.999997
0.999996
0.999995
0.999996
0.999998
0.999998
0.999997
0.999996
0.999995
0.999995
0.999995
0.999995
0.999995
0.999995
0.999995
0.999995
0.999995
0.999995
0.999995
0.999995
0.999996
0.999996
0.999997
0.999997
0.999961
0.999353
0.773276
0.389164
0.125187
0.034757
0.0103328
0.00317424
0.000929211
0.000257056
6.93775e-05
1.79685e-05
5.89615e-06
3.41429e-06
2.57492e-06
2.24311e-06
1.9392e-06
1.67151e-06
1.4562e-06
1.27276e-06
1.11083e-06
9.85271e-07
1
1
0.999999
0.999998
0.999997
0.999997
0.999996
0.999996
0.999997
0.999998
0.999996
0.999996
0.999995
0.999994
0.999994
0.999994
0.999994
0.999995
0.999995
0.999995
0.999995
0.999995
0.999995
0.999996
0.999996
0.999997
0.999997
0.999613
0.862011
0.434555
0.113821
0.0236877
0.00581288
0.0015546
0.000402109
0.000104352
2.78564e-05
7.42056e-06
3.82541e-06
2.3326e-06
1.97559e-06
1.57349e-06
1.30828e-06
1.12985e-06
9.90109e-07
8.75308e-07
7.77837e-07
7.02698e-07
6.35739e-07
5.78009e-07
1
1
0.999999
0.999998
0.999998
0.999998
0.999996
0.999996
0.999996
0.999997
0.999996
0.999995
0.999994
0.999994
0.999994
0.999994
0.999994
0.999995
0.999995
0.999995
0.999995
0.999995
0.999995
0.999995
0.999996
0.99988
0.961249
0.540346
0.123392
0.0175882
0.00324098
0.000729856
0.000161417
3.76191e-05
9.40711e-06
4.08678e-06
2.19418e-06
1.86409e-06
1.50104e-06
1.23585e-06
1.06902e-06
9.00105e-07
7.63596e-07
6.77123e-07
6.02268e-07
5.38486e-07
4.82491e-07
4.33189e-07
3.89474e-07
3.50481e-07
1
1
0.999999
0.999997
0.999997
0.999998
0.999997
0.999996
0.999996
0.999997
0.999996
0.999995
0.999994
0.999994
0.999994
0.999994
0.999995
0.999995
0.999995
0.999995
0.999995
0.999997
0.999996
0.999992
0.999228
0.723218
0.174882
0.0165312
0.00202795
0.000361901
6.60128e-05
1.25977e-05
4.47566e-06
2.3006e-06
1.68992e-06
1.36963e-06
1.13264e-06
9.41223e-07
7.99557e-07
6.60278e-07
5.88365e-07
5.17294e-07
4.53023e-07
3.97926e-07
3.50505e-07
3.09211e-07
2.72983e-07
2.4109e-07
2.12979e-07
1.88196e-07
1
1
0.999999
0.999997
0.999997
0.999997
0.999997
0.999996
0.999995
0.999996
0.999996
0.999995
0.999995
0.999995
0.999995
0.999995
0.999995
0.999995
0.999995
0.999996
0.999995
0.999995
0.999861
0.925498
0.332581
0.0248647
0.00177949
0.000224166
3.2206e-05
5.59993e-06
2.71926e-06
1.75793e-06
1.37092e-06
1.11765e-06
9.02999e-07
7.32613e-07
5.82732e-07
4.88699e-07
4.21684e-07
3.60313e-07
3.09049e-07
2.66364e-07
2.30078e-07
1.9883e-07
1.71828e-07
1.48515e-07
1.28422e-07
1.11121e-07
9.62295e-08
8.34056e-08
1
1
0.999999
0.999996
0.999996
0.999996
0.999997
0.999996
0.999995
0.999996
0.999996
0.999996
0.999995
0.999995
0.999995
0.999995
0.999995
0.999995
0.999995
0.999998
0.999996
0.999376
0.674704
0.0753648
0.00293472
0.000218346
2.27922e-05
4.09062e-06
1.95784e-06
1.4785e-06
1.13447e-06
8.68047e-07
6.82787e-07
5.75501e-07
4.51591e-07
3.63529e-07
2.96349e-07
2.43473e-07
2.01583e-07
1.67739e-07
1.39983e-07
1.17062e-07
9.80841e-08
8.23446e-08
6.92665e-08
5.83759e-08
4.92863e-08
4.16833e-08
3.53112e-08
2.99613e-08
1
1
0.999999
0.999996
0.999995
0.999996
0.999998
0.999997
0.999996
0.999996
0.999996
0.999996
0.999996
0.999996
0.999996
0.999996
0.999996
0.999996
0.999996
0.999996
0.998206
0.358247
0.0119065
0.000392792
2.40906e-05
3.56696e-06
1.87596e-06
1.2463e-06
8.98882e-07
6.85146e-07
5.22303e-07
3.86816e-07
2.87156e-07
2.36774e-07
1.90228e-07
1.52103e-07
1.21706e-07
9.759e-08
7.84613e-08
6.32672e-08
5.11683e-08
4.15049e-08
3.37627e-08
2.75414e-08
2.25284e-08
1.84784e-08
1.5198e-08
1.25339e-08
1.03646e-08
8.59318e-09
1
1
0.999998
0.999995
0.999994
0.999995
0.999999
0.999997
0.999996
0.999997
0.999997
0.999997
0.999997
0.999996
0.999996
0.999996
0.999996
0.999996
0.999988
0.941918
0.170863
0.00221262
6.02707e-05
4.39845e-06
1.86505e-06
1.19347e-06
7.9748e-07
5.27258e-07
3.65738e-07
2.66526e-07
1.92545e-07
1.39554e-07
1.0443e-07
8.03199e-08
6.25205e-08
4.88584e-08
3.8229e-08
2.99372e-08
2.34726e-08
1.84368e-08
1.45142e-08
1.14564e-08
9.06913e-09
7.20149e-09
5.73676e-09
4.58486e-09
3.67633e-09
2.95758e-09
2.38717e-09
1.93303e-09
1
1
0.999998
0.999995
0.999993
0.999995
1
0.999998
0.999997
0.999997
0.999997
0.999997
0.999997
0.999997
0.999997
0.999996
0.999996
0.99999
0.906401
0.0963457
0.000610938
1.15987e-05
2.26813e-06
1.21377e-06
7.42417e-07
4.77348e-07
2.99832e-07
1.82339e-07
1.15671e-07
7.81642e-08
5.58293e-08
4.06236e-08
2.98182e-08
2.20494e-08
1.64154e-08
1.22934e-08
9.25313e-09
6.99514e-09
5.30881e-09
4.04377e-09
3.09118e-09
2.37148e-09
1.826e-09
1.41124e-09
1.09485e-09
8.5269e-10
6.66699e-10
5.23345e-10
4.12465e-10
3.26411e-10
1
1
0.999998
0.999994
0.999992
0.999996
1
0.999998
0.999997
0.999998
0.999998
0.999998
0.999997
0.999997
0.999997
0.999996
0.999996
0.964772
0.10118
0.000298769
4.51161e-06
1.5775e-06
7.44934e-07
4.29138e-07
2.62253e-07
1.58503e-07
8.90546e-08
4.7818e-08
2.86702e-08
1.91681e-08
1.31858e-08
9.19995e-09
6.48183e-09
4.60199e-09
3.28874e-09
2.36402e-09
1.70855e-09
1.24123e-09
9.06285e-10
6.65013e-10
4.90388e-10
3.6341e-10
2.70657e-10
2.02601e-10
1.52451e-10
1.15346e-10
8.77938e-11
6.72804e-11
5.19906e-11
4.06137e-11
1
1
0.999998
0.999994
0.999992
0.999996
1
0.999999
0.999998
0.999998
0.999998
0.999998
0.999998
0.999997
0.999996
0.999996
0.9993
0.279196
0.000632784
4.63657e-06
1.25962e-06
5.00819e-07
2.44256e-07
1.34956e-07
7.6385e-08
4.09312e-08
1.97629e-08
1.07628e-08
6.39885e-09
3.99819e-09
2.57051e-09
1.68302e-09
1.11655e-09
7.48607e-10
5.06513e-10
3.45551e-10
2.37562e-10
1.64523e-10
1.1475e-10
8.05949e-11
5.70055e-11
4.06183e-11
2.91795e-11
2.11703e-11
1.55632e-11
1.16624e-11
8.99857e-12
7.25947e-12
6.24401e-12
5.83224e-12
1
1
0.999997
0.999993
0.999993
0.999997
1
0.999999
0.999998
0.999999
0.999998
0.999998
0.999998
0.999997
0.999995
0.999969
0.737281
0.00440914
4.07996e-06
1.14254e-06
3.48109e-07
1.40391e-07
6.4269e-08
3.11972e-08
1.51905e-08
6.92755e-09
3.15846e-09
1.68926e-09
9.62435e-10
5.67049e-10
3.41623e-10
2.09328e-10
1.30073e-10
8.182e-11
5.20449e-11
3.34558e-11
2.17292e-11
1.42633e-11
9.47359e-12
6.38532e-12
4.39499e-12
3.12804e-12
2.35363e-12
1.93317e-12
1.78923e-12
1.88705e-12
2.2238e-12
2.82304e-12
3.73251e-12
5.02439e-12
1
1
0.999997
0.999994
0.999994
0.999998
0.999999
0.999999
0.999999
0.999999
0.999999
0.999998
0.999998
0.999997
0.999996
0.999805
0.315917
3.88197e-05
1.28177e-06
3.76752e-07
1.23387e-07
4.68783e-08
1.79824e-08
6.66217e-09
2.41845e-09
9.41737e-10
4.37783e-10
2.17494e-10
1.13086e-10
6.07459e-11
3.34469e-11
1.87922e-11
1.07478e-11
6.2512e-12
3.69982e-12
2.23558e-12
1.39121e-12
9.09709e-13
6.50013e-13
5.36934e-13
5.34501e-13
6.31883e-13
8.36312e-13
1.17004e-12
1.66977e-12
2.38766e-12
3.39353e-12
4.77814e-12
6.65761e-12
9.17879e-12
1
0.999999
0.999997
0.999995
0.999996
0.999998
0.999999
0.999999
0.999999
0.999999
0.999999
0.999998
0.999998
0.999997
0.999994
0.999784
0.110222
1.51514e-06
5.23881e-07
1.64149e-07
6.83226e-08
2.73062e-08
8.6779e-09
1.90359e-09
3.95732e-10
1.05287e-10
3.79468e-11
1.61905e-11
7.48642e-12
3.63618e-12
1.8306e-12
9.52321e-13
5.162e-13
2.98323e-13
1.93505e-13
1.5281e-13
1.55525e-13
1.96547e-13
2.80976e-13
4.22252e-13
6.42201e-13
9.7218e-13
1.45503e-12
2.14772e-12
3.12461e-12
4.48149e-12
6.34032e-12
8.85502e-12
1.22187e-11
1.66717e-11
1
0.999999
0.999997
0.999996
0.999998
0.999999
0.999999
0.999999
0.999999
0.999999
0.999999
0.999999
0.999998
0.999998
0.999996
1
0.0737525
8.38143e-07
3.61798e-07
1.59999e-07
9.02799e-08
4.10271e-08
1.26688e-08
2.19955e-09
3.30636e-10
4.86976e-11
6.1591e-12
1.04449e-12
3.56507e-13
1.60854e-13
8.45292e-14
5.50776e-14
4.82547e-14
5.67357e-14
8.09005e-14
1.26033e-13
2.01958e-13
3.23786e-13
5.13311e-13
8.00934e-13
1.22807e-12
1.85005e-12
2.73962e-12
3.99106e-12
5.72514e-12
8.09485e-12
1.12923e-11
1.55571e-11
2.11859e-11
2.85445e-11
7.65964e-05
4.23935e-05
2.28963e-05
1.39944e-05
9.94051e-06
6.8401e-06
4.46642e-06
2.60836e-06
1.60278e-06
1.07247e-06
7.77991e-07
6.01614e-07
4.89016e-07
4.13035e-07
3.59161e-07
3.19115e-07
2.88138e-07
2.63277e-07
2.42641e-07
2.25003e-07
2.09556e-07
1.95759e-07
1.83245e-07
1.7176e-07
1.61124e-07
1.51211e-07
1.41928e-07
1.33206e-07
1.24992e-07
1.17247e-07
1.09935e-07
1.03031e-07
9.65101e-08
9.03522e-08
8.45388e-08
7.90529e-08
7.38787e-08
6.90014e-08
6.44066e-08
6.00809e-08
5.60113e-08
5.21851e-08
4.85903e-08
4.52152e-08
4.20487e-08
3.90799e-08
3.62986e-08
3.36949e-08
3.12594e-08
2.89834e-08
1.83956e-05
1.38796e-05
1.20119e-05
9.40523e-06
6.71088e-06
4.74046e-06
3.14934e-06
1.91665e-06
1.28202e-06
9.28792e-07
7.16986e-07
5.80422e-07
4.8884e-07
4.23962e-07
3.75475e-07
3.37601e-07
3.07027e-07
2.81619e-07
2.59961e-07
2.41095e-07
2.24364e-07
2.09307e-07
1.956e-07
1.83008e-07
1.71361e-07
1.60531e-07
1.50422e-07
1.40958e-07
1.32081e-07
1.23741e-07
1.159e-07
1.08523e-07
1.0158e-07
9.50463e-08
8.88972e-08
8.31115e-08
7.76695e-08
7.25524e-08
6.7743e-08
6.32247e-08
5.89819e-08
5.49998e-08
5.12642e-08
4.77615e-08
4.44791e-08
4.14044e-08
3.85259e-08
3.58325e-08
3.33134e-08
3.09587e-08
6.73702e-06
6.22874e-06
6.1871e-06
5.30883e-06
4.13397e-06
3.12423e-06
2.2323e-06
1.50032e-06
1.08588e-06
8.41099e-07
6.81958e-07
5.73239e-07
4.94761e-07
4.35237e-07
3.88379e-07
3.50363e-07
3.18718e-07
2.91791e-07
2.68448e-07
2.47895e-07
2.29569e-07
2.13058e-07
1.9806e-07
1.84346e-07
1.71741e-07
1.60108e-07
1.49337e-07
1.3934e-07
1.30042e-07
1.21381e-07
1.13304e-07
1.05766e-07
9.8724e-08
9.21437e-08
8.59922e-08
8.02402e-08
7.48611e-08
6.98303e-08
6.51254e-08
6.07257e-08
5.66117e-08
5.27657e-08
4.91707e-08
4.58113e-08
4.26727e-08
3.97412e-08
3.7004e-08
3.4449e-08
3.20648e-08
2.98407e-08
3.38788e-06
2.98505e-06
2.74372e-06
2.58811e-06
2.18375e-06
1.8074e-06
1.44307e-06
1.12345e-06
8.97908e-07
7.39871e-07
6.25745e-07
5.40313e-07
4.74091e-07
4.21128e-07
3.77609e-07
3.41032e-07
3.09712e-07
2.82484e-07
2.58524e-07
2.37234e-07
2.1817e-07
2.00996e-07
1.85447e-07
1.71314e-07
1.58427e-07
1.46644e-07
1.35847e-07
1.25933e-07
1.16815e-07
1.08416e-07
1.0067e-07
9.35173e-08
8.69047e-08
8.07859e-08
7.51189e-08
6.98662e-08
6.49942e-08
6.04724e-08
5.62733e-08
5.23723e-08
4.87467e-08
4.5376e-08
4.22416e-08
3.93265e-08
3.66149e-08
3.40926e-08
3.17465e-08
2.95643e-08
2.75349e-08
2.5648e-08
1.66111e-06
1.44137e-06
1.24804e-06
1.14035e-06
1.02498e-06
9.1708e-07
8.13128e-07
7.15043e-07
6.28015e-07
5.53846e-07
4.91532e-07
4.39047e-07
3.94372e-07
3.55847e-07
3.22209e-07
2.92529e-07
2.66121e-07
2.42478e-07
2.21215e-07
2.02033e-07
1.8469e-07
1.68988e-07
1.54757e-07
1.41849e-07
1.30134e-07
1.19495e-07
1.09828e-07
1.01036e-07
9.30342e-08
8.57443e-08
7.90961e-08
7.30262e-08
6.74778e-08
6.23997e-08
5.77465e-08
5.34772e-08
4.95555e-08
4.59488e-08
4.26284e-08
3.95682e-08
3.67454e-08
3.41392e-08
3.17314e-08
2.95054e-08
2.74464e-08
2.55411e-08
2.37777e-08
2.21453e-08
2.06341e-08
1.92353e-08
8.6888e-07
7.78249e-07
6.99955e-07
6.32555e-07
5.73698e-07
5.22147e-07
4.76523e-07
4.35598e-07
3.98518e-07
3.6473e-07
3.33846e-07
3.05559e-07
2.79604e-07
2.55749e-07
2.33797e-07
2.13584e-07
1.94973e-07
1.7785e-07
1.62119e-07
1.47695e-07
1.34498e-07
1.22451e-07
1.11481e-07
1.01513e-07
9.24721e-08
8.42862e-08
7.68836e-08
7.0195e-08
6.41544e-08
5.86995e-08
5.37722e-08
4.93188e-08
4.52902e-08
4.16419e-08
3.83339e-08
3.53302e-08
3.25989e-08
3.01115e-08
2.7843e-08
2.57712e-08
2.38763e-08
2.21412e-08
2.05507e-08
1.90912e-08
1.77511e-08
1.65198e-08
1.53882e-08
1.4348e-08
1.3392e-08
1.25139e-08
5.26063e-07
4.79056e-07
4.36375e-07
3.97532e-07
3.62059e-07
3.29625e-07
3.00034e-07
2.73144e-07
2.48795e-07
2.26786e-07
2.06885e-07
1.88849e-07
1.72447e-07
1.57472e-07
1.43752e-07
1.31144e-07
1.19537e-07
1.08842e-07
9.89932e-08
8.9935e-08
8.16223e-08
7.40142e-08
6.70724e-08
6.07585e-08
5.50336e-08
4.98577e-08
4.519e-08
4.09898e-08
3.72164e-08
3.38304e-08
3.07941e-08
2.80717e-08
2.56303e-08
2.34395e-08
2.14717e-08
1.9702e-08
1.81085e-08
1.66716e-08
1.53739e-08
1.42005e-08
1.31381e-08
1.21751e-08
1.13016e-08
1.05089e-08
9.78942e-09
9.13663e-09
8.54487e-09
8.00927e-09
7.5256e-09
7.09024e-09
3.1557e-07
2.84243e-07
2.56089e-07
2.30762e-07
2.07963e-07
1.87424e-07
1.68914e-07
1.5223e-07
1.37202e-07
1.2368e-07
1.11528e-07
1.00619e-07
9.08289e-08
8.20386e-08
7.41355e-08
6.7016e-08
6.05876e-08
5.47705e-08
4.94968e-08
4.47105e-08
4.03648e-08
3.64213e-08
3.28471e-08
2.96137e-08
2.66951e-08
2.40673e-08
2.17072e-08
1.95927e-08
1.7702e-08
1.60146e-08
1.45106e-08
1.31712e-08
1.19789e-08
1.09178e-08
9.97331e-09
9.13226e-09
8.38306e-09
7.71549e-09
7.12061e-09
6.59069e-09
6.11908e-09
5.70008e-09
5.32887e-09
5.00135e-09
4.71411e-09
4.4643e-09
4.24959e-09
4.06806e-09
3.91819e-09
3.7988e-09
1.6635e-07
1.47098e-07
1.30132e-07
1.15183e-07
1.02009e-07
9.03992e-08
8.01636e-08
7.11362e-08
6.31707e-08
5.6139e-08
4.99289e-08
4.44425e-08
3.95933e-08
3.5305e-08
3.15096e-08
2.81467e-08
2.51628e-08
2.25106e-08
2.01492e-08
1.80434e-08
1.61629e-08
1.44824e-08
1.298e-08
1.16374e-08
1.04386e-08
9.36958e-09
8.41795e-09
7.57241e-09
6.82265e-09
6.15918e-09
5.57329e-09
5.05699e-09
4.60302e-09
4.20485e-09
3.8567e-09
3.55349e-09
3.29083e-09
3.06499e-09
2.87285e-09
2.71185e-09
2.57997e-09
2.47561e-09
2.39761e-09
2.34518e-09
2.31783e-09
2.31537e-09
2.33786e-09
2.38558e-09
2.45896e-09
2.55863e-09
7.23542e-08
6.28219e-08
5.45923e-08
4.74817e-08
4.13333e-08
3.60137e-08
3.14084e-08
2.74196e-08
2.3963e-08
2.09659e-08
1.83657e-08
1.61084e-08
1.41472e-08
1.24417e-08
1.09572e-08
9.66325e-09
8.53402e-09
7.54709e-09
6.68327e-09
5.92616e-09
5.2618e-09
4.67834e-09
4.16572e-09
3.71543e-09
3.32023e-09
2.97394e-09
2.67126e-09
2.40763e-09
2.17913e-09
1.98236e-09
1.81446e-09
1.67297e-09
1.55587e-09
1.46153e-09
1.38872e-09
1.33654e-09
1.30446e-09
1.29224e-09
1.29999e-09
1.32806e-09
1.37711e-09
1.44801e-09
1.54188e-09
1.66002e-09
1.80394e-09
1.97527e-09
2.17579e-09
2.40738e-09
2.67198e-09
2.9716e-09
2.5462e-08
2.16719e-08
1.84741e-08
1.57719e-08
1.34849e-08
1.15465e-08
9.90131e-09
8.50313e-09
7.31346e-09
6.30013e-09
5.43611e-09
4.69872e-09
4.06881e-09
3.53021e-09
3.06927e-09
2.67443e-09
2.33591e-09
2.04548e-09
1.79621e-09
1.58229e-09
1.39888e-09
1.24196e-09
1.10824e-09
9.95014e-10
9.0012e-10
8.2185e-10
7.58899e-10
7.10321e-10
6.755e-10
6.54124e-10
6.46169e-10
6.51887e-10
6.71803e-10
7.06704e-10
7.57646e-10
8.25941e-10
9.13163e-10
1.02114e-09
1.15196e-09
1.30795e-09
1.49165e-09
1.70586e-09
1.95354e-09
2.23785e-09
2.56207e-09
2.92961e-09
3.34394e-09
3.80854e-09
4.32688e-09
4.90231e-09
7.14271e-09
5.95167e-09
4.97094e-09
4.16124e-09
3.49105e-09
2.93504e-09
2.47277e-09
2.08773e-09
1.76649e-09
1.49813e-09
1.27373e-09
1.08596e-09
9.28812e-10
7.97351e-10
6.87517e-10
5.95982e-10
5.20036e-10
4.57487e-10
4.06591e-10
3.65993e-10
3.34682e-10
3.11953e-10
2.97383e-10
2.90814e-10
2.92337e-10
3.02287e-10
3.21244e-10
3.50031e-10
3.89724e-10
4.41662e-10
5.07453e-10
5.88994e-10
6.8848e-10
8.08425e-10
9.51667e-10
1.12138e-09
1.3211e-09
1.55469e-09
1.82637e-09
2.14069e-09
2.50253e-09
2.91701e-09
3.38953e-09
3.92566e-09
4.53107e-09
5.21149e-09
5.97259e-09
6.8199e-09
7.75866e-09
8.79375e-09
1.57031e-09
1.27967e-09
1.04607e-09
8.57752e-10
7.05534e-10
5.82213e-10
4.82126e-10
4.00815e-10
3.34761e-10
2.81187e-10
2.37901e-10
2.03183e-10
1.75696e-10
1.54415e-10
1.38587e-10
1.27685e-10
1.21392e-10
1.1958e-10
1.22305e-10
1.29801e-10
1.42485e-10
1.60967e-10
1.86058e-10
2.18789e-10
2.60434e-10
3.12528e-10
3.76899e-10
4.55694e-10
5.51408e-10
6.6692e-10
8.05527e-10
9.70977e-10
1.1675e-09
1.39984e-09
1.67329e-09
1.99369e-09
2.36745e-09
2.80153e-09
3.30346e-09
3.88125e-09
4.54334e-09
5.29855e-09
6.15596e-09
7.12473e-09
8.21405e-09
9.43286e-09
1.07897e-08
1.22925e-08
1.39484e-08
1.57632e-08
2.59416e-10
2.07121e-10
1.66228e-10
1.34237e-10
1.09252e-10
8.98402e-11
7.49234e-11
6.37001e-11
5.55883e-11
5.0185e-11
4.72374e-11
4.66246e-11
4.83469e-11
5.25215e-11
5.93847e-11
6.92977e-11
8.27577e-11
1.00415e-10
1.23091e-10
1.51802e-10
1.87786e-10
2.32539e-10
2.87844e-10
3.55824e-10
4.38976e-10
5.40231e-10
6.62996e-10
8.11214e-10
9.89421e-10
1.20281e-09
1.45729e-09
1.75954e-09
2.11708e-09
2.53832e-09
3.03262e-09
3.61021e-09
4.28225e-09
5.06086e-09
5.95895e-09
6.99008e-09
8.16837e-09
9.50828e-09
1.10243e-08
1.27309e-08
1.46417e-08
1.67697e-08
1.91263e-08
2.17213e-08
2.45623e-08
2.76539e-08
3.2205e-11
2.60882e-11
2.17861e-11
1.89721e-11
1.74371e-11
1.70664e-11
1.7826e-11
1.97546e-11
2.29611e-11
2.76264e-11
3.40094e-11
4.24566e-11
5.34151e-11
6.74507e-11
8.52708e-11
1.07746e-10
1.35939e-10
1.71152e-10
2.14952e-10
2.69222e-10
3.36207e-10
4.18581e-10
5.19504e-10
6.42704e-10
7.92551e-10
9.74144e-10
1.19339e-09
1.45711e-09
1.77315e-09
2.15044e-09
2.59918e-09
3.13087e-09
3.7585e-09
4.49649e-09
5.36097e-09
6.36922e-09
7.54006e-09
8.89384e-09
1.04519e-08
1.2236e-08
1.42686e-08
1.6572e-08
1.91679e-08
2.20768e-08
2.53173e-08
2.89053e-08
3.28531e-08
3.7169e-08
4.18564e-08
4.69128e-08
5.96612e-12
6.63771e-12
7.8828e-12
9.77861e-12
1.24448e-11
1.60471e-11
2.08042e-11
2.6996e-11
3.49761e-11
4.51866e-11
5.81764e-11
7.46241e-11
9.53657e-11
1.21429e-10
1.54076e-10
1.94827e-10
2.45518e-10
3.08389e-10
3.86111e-10
4.81861e-10
5.99422e-10
7.43276e-10
9.18711e-10
1.13195e-09
1.39028e-09
1.70218e-09
2.07746e-09
2.52744e-09
3.06516e-09
3.70548e-09
4.46531e-09
5.36386e-09
6.42304e-09
7.66651e-09
9.12126e-09
1.08146e-08
1.27769e-08
1.50409e-08
1.76392e-08
2.06048e-08
2.39707e-08
2.77683e-08
3.20268e-08
3.67713e-08
4.20226e-08
4.77947e-08
5.40946e-08
6.09208e-08
6.82626e-08
7.60997e-08
6.7975e-12
9.18119e-12
1.23409e-11
1.64853e-11
2.18761e-11
2.88392e-11
3.77789e-11
4.9195e-11
6.37038e-11
8.20635e-11
1.05204e-10
1.34263e-10
1.70646e-10
2.16064e-10
2.726e-10
3.42719e-10
4.29395e-10
5.36262e-10
6.67595e-10
8.28465e-10
1.0249e-09
1.26404e-09
1.55426e-09
1.90545e-09
2.32911e-09
2.83867e-09
3.44965e-09
4.18e-09
5.05033e-09
6.08414e-09
7.30829e-09
8.75449e-09
1.04578e-08
1.24535e-08
1.47842e-08
1.74892e-08
2.0615e-08
2.42097e-08
2.83192e-08
3.29884e-08
3.82611e-08
4.41758e-08
5.0765e-08
5.80527e-08
6.60536e-08
7.47691e-08
8.41888e-08
9.42876e-08
1.05026e-07
1.16353e-07
1.25259e-11
1.6929e-11
2.26736e-11
3.01136e-11
3.9686e-11
5.19286e-11
6.75027e-11
8.72176e-11
1.12064e-10
1.4325e-10
1.82246e-10
2.3086e-10
2.91343e-10
3.66347e-10
4.59053e-10
5.73208e-10
7.13334e-10
8.84963e-10
1.09451e-09
1.34958e-09
1.65925e-09
2.03415e-09
2.48685e-09
3.03206e-09
3.68694e-09
4.47149e-09
5.40884e-09
6.52573e-09
7.85273e-09
9.42469e-09
1.12845e-08
1.34844e-08
1.60664e-08
1.90794e-08
2.2585e-08
2.66374e-08
3.13012e-08
3.66389e-08
4.27082e-08
4.95638e-08
5.72547e-08
6.58192e-08
7.52838e-08
8.56602e-08
9.69427e-08
1.09107e-07
1.22109e-07
1.35887e-07
1.50361e-07
1.65443e-07
2.25122e-11
3.01081e-11
3.99119e-11
5.24788e-11
6.84881e-11
8.87689e-11
1.14331e-10
1.464e-10
1.86465e-10
2.36324e-10
2.98151e-10
3.74827e-10
4.69567e-10
5.86033e-10
7.28758e-10
9.03131e-10
1.11561e-09
1.37396e-09
1.68718e-09
2.06599e-09
2.52302e-09
3.07313e-09
3.73376e-09
4.52532e-09
5.47157e-09
6.60014e-09
7.94295e-09
9.53664e-09
1.1423e-08
1.36491e-08
1.62677e-08
1.93369e-08
2.292e-08
2.70846e-08
3.19018e-08
3.74445e-08
4.37854e-08
5.09948e-08
5.91376e-08
6.82704e-08
7.8438e-08
8.96701e-08
1.01978e-07
1.15353e-07
1.29762e-07
1.45149e-07
1.61432e-07
1.78512e-07
1.9627e-07
2.14577e-07
3.80814e-11
5.0345e-11
6.60035e-11
8.58689e-11
1.10926e-10
1.42364e-10
1.81621e-10
2.30427e-10
2.90861e-10
3.65415e-10
4.5707e-10
5.69384e-10
7.06591e-10
8.7372e-10
1.07673e-09
1.32268e-09
1.61989e-09
1.97816e-09
2.40904e-09
2.9261e-09
3.54523e-09
4.28505e-09
5.16729e-09
6.21726e-09
7.4643e-09
8.94227e-09
1.069e-08
1.27519e-08
1.51778e-08
1.80236e-08
2.13512e-08
2.5228e-08
2.97261e-08
3.49218e-08
4.08938e-08
4.7721e-08
5.54807e-08
6.42453e-08
7.40793e-08
8.5036e-08
9.71535e-08
1.10451e-07
1.24928e-07
1.40556e-07
1.57283e-07
1.75028e-07
1.93684e-07
2.13121e-07
2.33189e-07
2.53731e-07
2.78211e-08
2.66929e-08
2.55983e-08
2.45371e-08
2.35094e-08
2.25148e-08
2.1553e-08
2.06239e-08
1.97268e-08
1.88614e-08
1.80272e-08
1.72237e-08
1.64507e-08
1.57082e-08
1.49963e-08
1.43152e-08
1.36641e-08
1.30423e-08
1.24489e-08
1.18834e-08
1.13454e-08
1.08345e-08
1.03507e-08
9.89436e-09
9.46656e-09
9.06781e-09
8.69781e-09
8.35542e-09
8.0396e-09
7.75038e-09
7.48899e-09
7.25703e-09
7.05591e-09
6.88685e-09
6.75083e-09
6.649e-09
6.58376e-09
6.55894e-09
6.578e-09
6.6422e-09
6.75057e-09
6.90132e-09
7.09375e-09
7.32942e-09
7.61198e-09
7.9477e-09
8.34693e-09
8.82386e-09
9.39261e-09
1.00623e-08
1.08328e-08
1.16956e-08
1.26481e-08
1.37207e-08
1.49853e-08
1.65228e-08
1.83843e-08
2.05817e-08
2.31057e-08
2.59385e-08
2.90572e-08
3.24524e-08
3.61976e-08
4.05598e-08
4.59833e-08
5.27767e-08
6.07316e-08
6.67162e-08
7.24158e-08
8.41685e-08
1.04632e-07
1.29775e-07
1.37271e-07
1.52e-07
1.86257e-07
2.72891e-07
2.68166e-07
2.94569e-07
2.09554e-07
3.34086e-07
2.6495e-07
6.94965e-07
3.16503e-07
7.38594e-07
1.43276e-06
4.912e-07
7.40039e-07
1.18102e-06
1.02563e-06
1.28775e-06
1.06355e-06
1.20319e-06
2.42183e-06
7.74258e-07
1.04903e-06
1.04014e-06
1.01823e-06
7.44897e-07
7.36491e-07
6.52606e-07
5.88501e-07
3.87887e-07
3.63415e-07
3.03719e-07
2.43064e-07
1.87636e-07
1.42115e-07
1.09099e-07
8.52154e-08
6.49409e-08
4.90934e-08
3.68355e-08
2.74837e-08
2.02832e-08
1.48009e-08
1.0687e-08
7.63811e-09
5.40295e-09
3.78352e-09
2.62378e-09
1.80284e-09
1.22831e-09
8.30445e-10
5.57519e-10
3.71849e-10
2.46448e-10
1.62299e-10
1.06187e-10
6.90105e-11
4.45474e-11
2.85629e-11
1.81937e-11
1.15154e-11
7.24459e-12
4.53151e-12
2.81879e-12
1.74395e-12
1.07321e-12
6.56931e-13
3.99985e-13
2.42249e-13
1.45947e-13
8.74769e-14
5.21714e-14
3.09685e-14
1.83018e-14
1.07724e-14
6.31759e-15
3.69314e-15
2.15299e-15
1.25223e-15
7.26978e-16
4.21441e-16
2.4407e-16
1.41262e-16
8.17389e-17
4.73018e-17
2.73851e-17
1.58663e-17
9.2022e-18
5.3444e-18
3.10906e-18
1.81224e-18
1.05876e-18
6.20174e-19
3.64343e-19
2.14751e-19
1.27036e-19
7.54431e-20
4.49922e-20
2.69517e-20
1.62201e-20
9.80909e-21
5.9616e-21
3.64197e-21
2.23656e-21
1.38065e-21
8.56751e-22
5.34443e-22
3.35114e-22
2.11211e-22
1.33801e-22
8.5196e-23
5.45239e-23
3.50715e-23
2.26739e-23
1.47338e-23
9.62351e-24
6.31827e-24
4.16991e-24
2.76654e-24
1.84524e-24
1.23736e-24
8.3427e-25
5.656e-25
3.85583e-25
2.64342e-25
1.82258e-25
1.26382e-25
8.81425e-26
6.18297e-26
4.3625e-26
3.09584e-26
2.20976e-26
1.5864e-26
1.14548e-26
8.3189e-27
6.07634e-27
4.46388e-27
3.29816e-27
2.45084e-27
1.83164e-27
1.37669e-27
1.04064e-27
7.91062e-28
6.0472e-28
4.64847e-28
3.59299e-28
2.79233e-28
2.18179e-28
1.71382e-28
1.3533e-28
1.07415e-28
8.56935e-29
6.87092e-29
5.53646e-29
4.48297e-29
3.64734e-29
2.98139e-29
2.44817e-29
2.01926e-29
1.67266e-29
1.39129e-29
1.16185e-29
9.73902e-30
8.19249e-30
6.91422e-30
5.85295e-30
4.96795e-30
4.22671e-30
3.60324e-30
3.07663e-30
2.63006e-30
2.24991e-30
1.92517e-30
1.64685e-30
1.40764e-30
1.20155e-30
1.02364e-30
8.69855e-31
7.36824e-31
6.21741e-31
5.22257e-31
4.36389e-31
3.62453e-31
2.99005e-31
2.44796e-31
1.98731e-31
1.59841e-31
1.27262e-31
1.00209e-31
7.79709e-32
5.98945e-32
4.53827e-32
3.38899e-32
2.49207e-32
1.80305e-32
1.28255e-32
8.96264e-33
6.14869e-33
4.1383e-33
2.73073e-33
1.76559e-33
1.11793e-33
6.92819e-34
4.20039e-34
2.49013e-34
1.44286e-34
8.16798e-35
4.51568e-35
2.43717e-35
1.28366e-35
6.59573e-36
3.30511e-36
1.61466e-36
7.68801e-37
3.56662e-37
1.61169e-37
7.09192e-38
3.03793e-38
1.26646e-38
5.13635e-39
2.02558e-39
7.75954e-40
2.88015e-40
1.0288e-40
3.47432e-41
1.06192e-41
2.64726e-42
4.05053e-43
2.97511e-08
2.858e-08
2.7445e-08
2.63454e-08
2.52807e-08
2.42503e-08
2.32536e-08
2.22899e-08
2.13588e-08
2.04595e-08
1.95915e-08
1.87543e-08
1.79472e-08
1.71696e-08
1.6421e-08
1.57009e-08
1.50087e-08
1.43439e-08
1.37059e-08
1.30944e-08
1.25089e-08
1.19489e-08
1.1414e-08
1.0904e-08
1.04184e-08
9.95699e-09
9.5195e-09
9.10571e-09
8.71545e-09
8.34861e-09
8.00514e-09
7.685e-09
7.3882e-09
7.11476e-09
6.86474e-09
6.63829e-09
6.43556e-09
6.25682e-09
6.10238e-09
5.97268e-09
5.86826e-09
5.78975e-09
5.73791e-09
5.7135e-09
5.71737e-09
5.75037e-09
5.81338e-09
5.90746e-09
6.03394e-09
6.19463e-09
6.39204e-09
6.62968e-09
6.91213e-09
7.24499e-09
7.63438e-09
8.0863e-09
8.60639e-09
9.20059e-09
9.87668e-09
1.06463e-08
1.15265e-08
1.25403e-08
1.37164e-08
1.50866e-08
1.66858e-08
1.85572e-08
2.07632e-08
2.33982e-08
2.65924e-08
3.05022e-08
3.52856e-08
4.1068e-08
4.7943e-08
5.60785e-08
6.58057e-08
7.57505e-08
8.52286e-08
9.88013e-08
1.18503e-07
1.44331e-07
1.79492e-07
2.0979e-07
2.5459e-07
3.34131e-07
2.45748e-07
3.86664e-07
5.05932e-07
6.06531e-07
7.27874e-07
1.55102e-06
6.13172e-07
1.03678e-06
1.03485e-06
2.14865e-06
1.05251e-06
1.08882e-06
2.21826e-06
7.50048e-07
1.06037e-06
8.8912e-07
1.68035e-06
4.30164e-07
6.30682e-07
5.97361e-07
5.17937e-07
4.16526e-07
3.24009e-07
2.59906e-07
2.23405e-07
1.79548e-07
1.43198e-07
1.12481e-07
8.88829e-08
6.92835e-08
5.31214e-08
4.00947e-08
2.98422e-08
2.1899e-08
1.58476e-08
1.13082e-08
7.95724e-09
5.52596e-09
3.79212e-09
2.57556e-09
1.73443e-09
1.15986e-09
7.70839e-10
5.09185e-10
3.34201e-10
2.17889e-10
1.41074e-10
9.06957e-11
5.79029e-11
3.67232e-11
2.31472e-11
1.45064e-11
9.04174e-12
5.60598e-12
3.45765e-12
2.12145e-12
1.29473e-12
7.85983e-13
4.74626e-13
2.85133e-13
1.70447e-13
1.01411e-13
6.00719e-14
3.54396e-14
2.083e-14
1.22025e-14
7.12785e-15
4.15398e-15
2.41746e-15
1.40606e-15
8.17694e-16
4.7567e-16
2.7689e-16
1.61346e-16
9.41319e-17
5.50027e-17
3.21967e-17
1.88843e-17
1.11001e-17
6.53984e-18
3.86279e-18
2.28788e-18
1.35922e-18
8.10234e-19
4.84771e-19
2.91203e-19
1.75669e-19
1.06444e-19
6.47935e-20
3.96256e-20
2.435e-20
1.50364e-20
9.3312e-21
5.81964e-21
3.6477e-21
2.29772e-21
1.45451e-21
9.25266e-22
5.91468e-22
3.7993e-22
2.45234e-22
1.59061e-22
1.03671e-22
6.79007e-23
4.46916e-23
2.95618e-23
1.96522e-23
1.31309e-23
8.81879e-24
5.95366e-24
4.04063e-24
2.757e-24
1.89135e-24
1.3046e-24
9.04851e-25
6.31096e-25
4.4265e-25
3.12252e-25
2.2155e-25
1.58123e-25
1.1353e-25
8.20042e-26
5.95903e-26
4.35654e-26
3.20442e-26
2.37154e-26
1.76617e-26
1.32377e-26
9.98706e-27
7.58489e-27
5.79925e-27
4.46391e-27
3.4593e-27
2.69905e-27
2.12016e-27
1.6765e-27
1.33457e-27
1.06917e-27
8.61601e-28
6.98227e-28
5.68981e-28
4.66239e-28
3.84169e-28
3.1829e-28
2.65141e-28
2.22044e-28
1.86918e-28
1.58142e-28
1.3445e-28
1.14846e-28
9.85468e-29
8.49273e-29
7.34894e-29
6.38342e-29
5.56413e-29
4.8653e-29
4.26606e-29
3.74951e-29
3.30186e-29
2.91187e-29
2.57038e-29
2.26984e-29
2.00411e-29
1.76812e-29
1.55772e-29
1.36949e-29
1.20065e-29
1.0489e-29
9.12378e-30
7.89553e-30
6.79172e-30
5.80207e-30
4.91801e-30
4.13223e-30
3.43832e-30
2.83041e-30
2.30285e-30
1.84999e-30
1.46603e-30
1.14493e-30
8.80406e-31
6.66009e-31
4.95236e-31
3.61692e-31
2.59265e-31
1.82276e-31
1.25608e-31
8.47914e-32
5.60392e-32
3.62424e-32
2.29256e-32
1.41779e-32
8.5686e-33
5.05881e-33
2.91654e-33
1.64143e-33
9.015e-34
4.8302e-34
2.52401e-34
1.28592e-34
6.38585e-35
3.09017e-35
1.45677e-35
6.68849e-36
2.99009e-36
1.3012e-36
5.51055e-37
2.27043e-37
9.09736e-38
3.54251e-38
1.33819e-38
4.87884e-39
1.69214e-39
5.37231e-40
1.4152e-40
2.33791e-41
2.86994e-08
2.75943e-08
2.65248e-08
2.54901e-08
2.44896e-08
2.35224e-08
2.25879e-08
2.16853e-08
2.08141e-08
1.99735e-08
1.91628e-08
1.83814e-08
1.76286e-08
1.69037e-08
1.62062e-08
1.55354e-08
1.48906e-08