/*--------------------------------*- C++ -*----------------------------------*\
| =========                 |                                                 |
| \\      /  F ield         | OpenFOAM: The Open Source CFD Toolbox           |
|  \\    /   O peration     | Version:  2.4.0                                 |
|   \\  /    A nd           | Web:      www.OpenFOAM.org                      |
|    \\/     M anipulation  |                                                 |
\*---------------------------------------------------------------------------*/
FoamFile
{
    version     2.0;
    format      ascii;
    class       surfaceScalarField;
    location    "3.4";
    object      phi;
}
// * * * * * * * * * * * * * * * * * * * * * * * * * * * * * * * * * * * * * //

dimensions      [0 3 -1 0 0 0 0];

internalField   nonuniform List<scalar> 
15580
(
-3.1822e-14
-2.15464e-12
-1.10398e-13
-6.36317e-12
-2.26608e-13
-1.04675e-11
-3.75331e-13
-1.44659e-11
-5.51679e-13
-1.83581e-11
-7.5093e-13
-2.21439e-11
-9.68617e-13
-2.58229e-11
-1.20035e-12
-2.93949e-11
-1.44205e-12
-3.28595e-11
-1.68953e-12
-3.62167e-11
-1.93877e-12
-3.94662e-11
-2.18578e-12
-4.26081e-11
-2.42675e-12
-4.56421e-11
-2.65785e-12
-4.85683e-11
-2.87548e-12
-5.13865e-11
-3.07599e-12
-5.40969e-11
-3.25602e-12
-5.66993e-11
-3.41203e-12
-5.91938e-11
-3.54097e-12
-6.15803e-11
-3.6395e-12
-6.38592e-11
-3.70477e-12
-6.60301e-11
-3.73365e-12
-6.80935e-11
-3.72384e-12
-7.00488e-11
-3.67229e-12
-7.18968e-11
-3.57734e-12
-7.36364e-11
-3.4361e-12
-7.5269e-11
-3.24771e-12
-7.67927e-11
-3.00942e-12
-7.82095e-11
-2.72144e-12
-7.95166e-11
-2.38111e-12
-8.07171e-11
-1.99031e-12
-8.18062e-11
-1.54655e-12
-8.2789e-11
-1.05365e-12
-8.36584e-11
-5.07139e-13
-8.44241e-11
9.09833e-14
-8.50785e-11
7.06827e-13
-8.55935e-11
1.38357e-12
-8.60561e-11
-1.02895e-12
-8.62137e-11
-1.42053e-12
-8.63316e-11
-8.02524e-13
-8.64247e-11
-1.12351e-13
-8.64868e-11
6.59947e-13
-8.64943e-11
1.41675e-12
-8.64031e-11
2.08942e-12
-8.6299e-11
2.73578e-12
-8.62656e-11
3.34595e-12
-8.61924e-11
3.81147e-12
-8.59386e-11
3.98272e-12
-8.54182e-11
3.72211e-12
-8.45793e-11
-8.34432e-11
2.97197e-12
-2.49151e-14
-2.12973e-12
-1.01509e-13
-6.28658e-12
-2.26359e-13
-1.03426e-11
-3.93846e-13
-1.42984e-11
-5.98787e-13
-1.81532e-11
-8.36301e-13
-2.19064e-11
-1.10182e-12
-2.55574e-11
-1.39099e-12
-2.91057e-11
-1.69975e-12
-3.25507e-11
-2.02432e-12
-3.58921e-11
-2.36094e-12
-3.91296e-11
-2.706e-12
-4.2263e-11
-3.05596e-12
-4.52921e-11
-3.40742e-12
-4.82168e-11
-3.75694e-12
-5.1037e-11
-4.10121e-12
-5.37527e-11
-4.43674e-12
-5.63637e-11
-4.76019e-12
-5.88704e-11
-5.06796e-12
-6.12726e-11
-5.35656e-12
-6.35706e-11
-5.62202e-12
-6.57646e-11
-5.86046e-12
-6.78551e-11
-6.06725e-12
-6.9842e-11
-6.23788e-12
-7.17262e-11
-6.36649e-12
-7.35078e-11
-6.44759e-12
-7.51879e-11
-6.4734e-12
-7.67669e-11
-6.43701e-12
-7.82459e-11
-6.32779e-12
-7.96258e-11
-6.13704e-12
-8.09078e-11
-5.84947e-12
-8.20937e-11
-5.45205e-12
-8.31865e-11
-4.91884e-12
-8.41916e-11
-4.41021e-12
-8.49328e-11
-3.91672e-12
-8.5572e-11
-4.78697e-12
-8.61114e-11
-8.38463e-12
-8.62542e-11
-8.27967e-12
-8.63601e-11
-8.1982e-12
-8.64131e-11
-8.11089e-12
-8.6512e-11
-7.99104e-12
-8.66067e-11
-7.91785e-12
-8.65675e-11
-8.12414e-12
-8.61968e-11
-8.93281e-12
-8.54904e-11
-1.03132e-11
-8.48852e-11
-1.22291e-11
-8.42766e-11
-1.47354e-11
-8.34323e-11
-1.784e-11
-8.23136e-11
-2.12805e-11
-8.11388e-11
-8.01093e-11
-2.46145e-11
-1.40112e-14
-2.11572e-12
-4.59234e-14
-6.25467e-12
-9.22849e-14
-1.02963e-11
-1.52764e-13
-1.42379e-11
-2.26628e-13
-1.80793e-11
-3.12812e-13
-2.18202e-11
-4.09902e-13
-2.54603e-11
-5.16193e-13
-2.89994e-11
-6.29858e-13
-3.2437e-11
-7.48708e-13
-3.57732e-11
-8.70334e-13
-3.9008e-11
-9.92355e-13
-4.2141e-11
-1.11212e-12
-4.51724e-11
-1.2272e-12
-4.81018e-11
-1.33487e-12
-5.09293e-11
-1.43288e-12
-5.36546e-11
-1.5185e-12
-5.62781e-11
-1.5899e-12
-5.8799e-11
-1.64433e-12
-6.12181e-11
-1.68048e-12
-6.35345e-11
-1.69557e-12
-6.57495e-11
-1.689e-12
-6.78616e-11
-1.65743e-12
-6.98736e-11
-1.60108e-12
-7.17825e-11
-1.51527e-12
-7.35936e-11
-1.40104e-12
-7.53021e-11
-1.2511e-12
-7.69168e-11
-1.06725e-12
-7.84298e-11
-8.36698e-13
-7.98563e-11
-5.59863e-13
-8.11846e-11
-2.11348e-13
-8.24422e-11
1.4126e-13
-8.35391e-11
5.07589e-13
-8.4558e-11
8.6967e-13
-8.58569e-11
-9.18835e-12
-8.57664e-11
-1.03306e-11
-8.5787e-11
-1.07708e-11
-8.5814e-11
-1.12781e-11
-8.58527e-11
-1.16454e-11
-8.60459e-11
-1.18838e-11
-8.62736e-11
-1.19681e-11
-8.65223e-11
-1.20329e-11
-8.65027e-11
-1.24636e-11
-8.57661e-11
-1.36003e-11
-8.43537e-11
-1.55665e-11
-8.29189e-11
-1.81354e-11
-8.17077e-11
-2.0784e-11
-8.07836e-11
-2.29425e-11
-8.0155e-11
-2.46657e-11
-7.94157e-11
-7.90695e-11
-2.57054e-11
-6.00471e-15
-2.10971e-12
-4.14729e-14
-6.2192e-12
-1.12114e-13
-1.02256e-11
-2.17657e-13
-1.41324e-11
-3.57224e-13
-1.79397e-11
-5.29577e-13
-2.16479e-11
-7.32847e-13
-2.52571e-11
-9.65229e-13
-2.8767e-11
-1.22412e-12
-3.21781e-11
-1.50751e-12
-3.54899e-11
-1.81259e-12
-3.87029e-11
-2.1372e-12
-4.18164e-11
-2.47853e-12
-4.4831e-11
-2.83486e-12
-4.77454e-11
-3.20352e-12
-5.05607e-11
-3.58365e-12
-5.32745e-11
-3.97304e-12
-5.58887e-11
-4.37224e-12
-5.83998e-11
-4.77981e-12
-6.08106e-11
-5.19855e-12
-6.31157e-11
-5.62824e-12
-6.53199e-11
-6.07493e-12
-6.74149e-11
-6.5402e-12
-6.94083e-11
-7.03482e-12
-7.12879e-11
-7.56291e-12
-7.30655e-11
-8.14205e-12
-7.4723e-11
-8.78018e-12
-7.62787e-11
-9.50349e-12
-7.77065e-11
-1.03206e-11
-7.90392e-11
-1.12599e-11
-8.02453e-11
-1.24086e-11
-8.12936e-11
-1.36771e-11
-8.23752e-11
-2.30256e-11
-8.29301e-11
-3.05849e-11
-8.31727e-11
-3.30193e-11
-8.33791e-11
-3.54891e-11
-8.33173e-11
-3.78806e-11
-8.34224e-11
-4.00344e-11
-8.3699e-11
-4.20694e-11
-8.40109e-11
-4.39627e-11
-8.43802e-11
-4.55699e-11
-8.49151e-11
-4.69984e-11
-8.50741e-11
-4.84337e-11
-8.43309e-11
-4.97393e-11
-8.3048e-11
-5.00879e-11
-8.25704e-11
-4.93018e-11
-8.24939e-11
-4.75979e-11
-8.24875e-11
-4.48418e-11
-8.29111e-11
-4.06004e-11
-8.3657e-11
-8.46619e-11
-3.50081e-11
-6.00178e-14
-2.04969e-12
-2.14831e-13
-6.06439e-12
-4.50782e-13
-9.98969e-12
-7.60314e-13
-1.38228e-11
-1.13696e-12
-1.75631e-11
-1.5752e-12
-2.12096e-11
-2.07032e-12
-2.47619e-11
-2.61807e-12
-2.82193e-11
-3.21471e-12
-3.15815e-11
-3.85673e-12
-3.48478e-11
-4.54114e-12
-3.80185e-11
-5.26472e-12
-4.10928e-11
-6.02442e-12
-4.40713e-11
-6.81665e-12
-4.69532e-11
-7.63788e-12
-4.97394e-11
-8.48352e-12
-5.24289e-11
-9.34904e-12
-5.50232e-11
-1.02281e-11
-5.75207e-11
-1.11148e-11
-5.99239e-11
-1.20001e-11
-6.22304e-11
-1.28759e-11
-6.4444e-11
-1.37298e-11
-6.65611e-11
-1.45512e-11
-6.85869e-11
-1.53223e-11
-7.05168e-11
-1.60305e-11
-7.23573e-11
-1.66495e-11
-7.4104e-11
-1.71602e-11
-7.5768e-11
-1.75189e-11
-7.73477e-11
-1.80971e-11
-7.8461e-11
-1.88922e-11
-7.94502e-11
-2.44794e-11
-8.03254e-11
-3.70821e-11
-8.05063e-11
-3.96116e-11
-8.05206e-11
-4.26352e-11
-8.0149e-11
-4.59809e-11
-8.00334e-11
-4.89664e-11
-8.03318e-11
-5.25973e-11
-7.97915e-11
-5.68842e-11
-7.9412e-11
-6.10292e-11
-7.98659e-11
-6.50115e-11
-8.03979e-11
-6.88313e-11
-8.10953e-11
-7.1355e-11
-8.25505e-11
-7.20871e-11
-8.35988e-11
-7.0874e-11
-8.42611e-11
-6.8093e-11
-8.53514e-11
-6.36162e-11
-8.69706e-11
-5.72481e-11
-8.88557e-11
-4.92171e-11
-9.09421e-11
-3.95831e-11
-9.32911e-11
-9.58929e-11
-2.8352e-11
1.60268e-14
-2.06572e-12
5.86974e-14
-6.10706e-12
1.21149e-13
-1.00521e-11
1.95913e-13
-1.38976e-11
2.75371e-13
-1.76426e-11
3.52483e-13
-2.12867e-11
4.20017e-13
-2.48295e-11
4.71657e-13
-2.82709e-11
5.00588e-13
-3.16104e-11
5.01559e-13
-3.48488e-11
4.68273e-13
-3.79852e-11
3.96586e-13
-4.10211e-11
2.80699e-13
-4.39554e-11
1.18104e-13
-4.67906e-11
-9.64856e-14
-4.95249e-11
-3.6314e-13
-5.21622e-11
-6.86468e-13
-5.46999e-11
-1.06276e-12
-5.71444e-11
-1.49555e-12
-5.94911e-11
-1.97506e-12
-6.17509e-11
-2.50314e-12
-6.39159e-11
-3.0604e-12
-6.60038e-11
-3.64604e-12
-6.80013e-11
-4.22479e-12
-6.9938e-11
-4.78941e-12
-7.17927e-11
-5.27797e-12
-7.36154e-11
-5.77335e-12
-7.52726e-11
-6.21587e-12
-7.69052e-11
-6.94631e-12
-7.94061e-11
-3.55518e-11
-7.88673e-11
-3.82712e-11
-7.86523e-11
-4.08772e-11
-7.79003e-11
-4.42095e-11
-7.71883e-11
-4.65159e-11
-7.78426e-11
-5.08914e-11
-7.56579e-11
-5.72167e-11
-7.40065e-11
-6.23147e-11
-7.46935e-11
-6.62818e-11
-7.54449e-11
-6.91397e-11
-7.7008e-11
-7.01076e-11
-7.94301e-11
-6.96184e-11
-8.15845e-11
-6.79659e-11
-8.4203e-11
-6.43325e-11
-8.72322e-11
-5.8186e-11
-9.04076e-11
-4.97988e-11
-9.37386e-11
-3.94947e-11
-9.72748e-11
-2.73311e-11
-1.01019e-10
-1.33374e-11
-1.04936e-10
2.37322e-12
-1.09002e-10
-1.13204e-10
1.96846e-11
3.4114e-14
-2.09983e-12
9.67861e-14
-6.16973e-12
1.66035e-13
-1.01214e-11
2.29559e-13
-1.39611e-11
2.76205e-13
-1.76892e-11
2.96327e-13
-2.13069e-11
2.80521e-13
-2.48137e-11
2.20801e-13
-2.82112e-11
1.08423e-13
-3.14981e-11
-6.40217e-14
-3.46764e-11
-3.0594e-13
-3.77433e-11
-6.25057e-13
-4.0702e-11
-1.03279e-12
-4.35477e-11
-1.538e-12
-4.62854e-11
-2.15559e-12
-4.89073e-11
-2.89645e-12
-5.14214e-11
-3.78074e-12
-5.38156e-11
-4.82215e-12
-5.6103e-11
-6.0482e-12
-5.82651e-11
-7.47625e-12
-6.03229e-11
-9.14393e-12
-6.22482e-11
-1.10733e-11
-6.40745e-11
-1.33141e-11
-6.57605e-11
-1.58885e-11
-6.73636e-11
-1.88535e-11
-6.88277e-11
-2.23243e-11
-7.01446e-11
-2.62103e-11
-7.15315e-11
-4.75404e-11
-7.22987e-11
-6.52146e-11
-7.25922e-11
-7.19384e-11
-7.22353e-11
-8.049e-11
-7.01007e-11
-8.42949e-11
-7.40954e-11
-8.96222e-11
-7.1861e-11
-9.66486e-11
-7.08163e-11
-9.92906e-11
-7.3016e-11
-9.87971e-11
-7.44999e-11
-9.70936e-11
-7.6397e-11
-9.31928e-11
-7.93458e-11
-8.71428e-11
-8.3058e-11
-7.92319e-11
-8.7341e-11
-6.89738e-11
-9.18426e-11
-5.67685e-11
-9.64083e-11
-4.28707e-11
-1.0113e-10
-2.72746e-11
-1.06004e-10
-1.00199e-11
-1.10993e-10
8.78339e-12
-1.16078e-10
2.90069e-11
-1.21243e-10
5.05445e-11
-1.26473e-10
7.32963e-11
-1.31754e-10
-1.37067e-10
9.71588e-11
-6.98522e-14
-2.02998e-12
-2.48276e-13
-5.9913e-12
-5.25734e-13
-9.84393e-12
-9.03188e-13
-1.35837e-11
-1.38206e-12
-1.72103e-11
-1.96422e-12
-2.07247e-11
-2.65222e-12
-2.41257e-11
-3.44915e-12
-2.74143e-11
-4.35896e-12
-3.05882e-11
-5.38613e-12
-3.36492e-11
-6.53624e-12
-3.65932e-11
-7.8153e-12
-3.94229e-11
-9.23064e-12
-4.21324e-11
-1.07901e-11
-4.47259e-11
-1.25027e-11
-4.71946e-11
-1.43786e-11
-4.95455e-11
-1.64285e-11
-5.17657e-11
-1.86654e-11
-5.38661e-11
-2.11013e-11
-5.58292e-11
-2.37534e-11
-5.76708e-11
-2.6633e-11
-5.93686e-11
-2.97606e-11
-6.09468e-11
-3.31452e-11
-6.2376e-11
-3.70192e-11
-6.34896e-11
-4.14444e-11
-6.44025e-11
-5.13424e-11
-6.54202e-11
-8.08127e-11
-6.57266e-11
-8.80073e-11
-6.5352e-11
-1.01719e-10
-5.88806e-11
-1.05014e-10
-6.89405e-11
-1.08666e-10
-6.64483e-11
-1.18344e-10
-6.44172e-11
-1.1999e-10
-7.02148e-11
-1.16417e-10
-7.43896e-11
-1.11352e-10
-7.80815e-11
-1.02759e-10
-8.3092e-11
-9.07287e-11
-8.84277e-11
-7.61278e-11
-9.39466e-11
-5.96994e-11
-9.94864e-11
-4.19013e-11
-1.05139e-10
-2.28071e-11
-1.10937e-10
-2.37654e-12
-1.16839e-10
1.93097e-11
-1.22816e-10
4.21598e-11
-1.28854e-10
6.60977e-11
-1.34931e-10
9.10472e-11
-1.41028e-10
1.16928e-10
-1.47124e-10
1.43657e-10
-1.53202e-10
1.7115e-10
-1.59246e-10
-1.6524e-10
1.99323e-10
-1.89379e-14
-2.01104e-12
-1.0963e-13
-5.90061e-12
-2.8811e-13
-9.66545e-12
-5.63278e-13
-1.33085e-11
-9.43584e-13
-1.683e-11
-1.43971e-12
-2.02286e-11
-2.06058e-12
-2.35048e-11
-2.81844e-12
-2.66564e-11
-3.72194e-12
-2.96847e-11
-4.78471e-12
-3.25864e-11
-6.01426e-12
-3.53636e-11
-7.4256e-12
-3.80116e-11
-9.02389e-12
-4.05341e-11
-1.08254e-11
-4.29245e-11
-1.28309e-11
-4.51891e-11
-1.50578e-11
-4.73185e-11
-1.74999e-11
-4.93237e-11
-2.01751e-11
-5.11909e-11
-2.3066e-11
-5.29383e-11
-2.61897e-11
-5.45471e-11
-2.9508e-11
-5.60502e-11
-3.30354e-11
-5.74195e-11
-3.67544e-11
-5.86569e-11
-4.03604e-11
-6.02264e-11
-7.77382e-11
-6.043e-11
-9.28955e-11
-6.04947e-11
-1.05918e-10
-5.2704e-11
-1.0588e-10
-6.53899e-11
-1.00539e-10
-6.42218e-11
-1.09759e-10
-5.97205e-11
-1.07292e-10
-6.89148e-11
-9.758e-11
-7.41297e-11
-8.84643e-11
-7.93305e-11
-7.67096e-11
-8.61443e-11
-6.17326e-11
-9.30586e-11
-4.50376e-11
-9.9787e-11
-2.69299e-11
-1.06535e-10
-7.50958e-12
-1.13367e-10
1.32794e-11
-1.20275e-10
3.53757e-11
-1.27235e-10
5.867e-11
-1.34231e-10
8.30722e-11
-1.41241e-10
1.08495e-10
-1.48239e-10
1.34845e-10
-1.55203e-10
1.62028e-10
-1.62115e-10
1.89955e-10
-1.68954e-10
2.18534e-10
-1.75703e-10
2.47676e-10
-1.82344e-10
2.77291e-10
-1.88861e-10
-1.95239e-10
3.0729e-10
-5.42726e-14
-1.95677e-12
-2.08919e-13
-5.74597e-12
-4.72006e-13
-9.40236e-12
-8.59547e-13
-1.2921e-11
-1.38627e-12
-1.63033e-11
-2.06753e-12
-1.95473e-11
-2.91726e-12
-2.26551e-11
-3.95117e-12
-2.56225e-11
-5.1832e-12
-2.84527e-11
-6.63022e-12
-3.11394e-11
-8.30676e-12
-3.36871e-11
-1.02318e-11
-3.60865e-11
-1.24212e-11
-3.83447e-11
-1.48971e-11
-4.04485e-11
-1.76776e-11
-4.24086e-11
-2.07894e-11
-4.42068e-11
-2.42542e-11
-4.58588e-11
-2.81058e-11
-4.73394e-11
-3.23697e-11
-4.86743e-11
-3.70819e-11
-4.9835e-11
-4.22647e-11
-5.08674e-11
-4.79934e-11
-5.16907e-11
-5.99604e-11
-5.26753e-11
-9.81871e-11
-5.33007e-11
-1.06514e-10
-5.23799e-11
-1.11405e-10
-5.56043e-11
-1.03595e-10
-6.0514e-11
-1.13105e-10
-5.58793e-11
-1.101e-10
-6.72273e-11
-9.58241e-11
-7.39962e-11
-8.38549e-11
-8.0884e-11
-6.88894e-11
-8.90952e-11
-5.10443e-11
-9.71756e-11
-3.20559e-11
-1.05133e-10
-1.19988e-11
-1.13116e-10
9.33591e-12
-1.21122e-10
3.19404e-11
-1.2914e-10
5.573e-11
-1.37157e-10
8.06091e-11
-1.45154e-10
1.06484e-10
-1.53111e-10
1.33255e-10
-1.61001e-10
1.60819e-10
-1.68806e-10
1.89083e-10
-1.76503e-10
2.1795e-10
-1.8407e-10
2.47325e-10
-1.9149e-10
2.77115e-10
-1.98744e-10
3.07228e-10
-2.05817e-10
3.37577e-10
-2.12693e-10
3.68075e-10
-2.19359e-10
-2.25802e-10
3.98637e-10
-2.61416e-14
-1.93063e-12
-1.51707e-13
-5.6204e-12
-4.02518e-13
-9.15155e-12
-7.93219e-13
-1.25303e-11
-1.3387e-12
-1.57578e-11
-2.05234e-12
-1.88337e-11
-2.9483e-12
-2.17591e-11
-4.03849e-12
-2.45323e-11
-5.33629e-12
-2.71549e-11
-6.85196e-12
-2.96237e-11
-8.59782e-12
-3.19412e-11
-1.05819e-11
-3.41025e-11
-1.28153e-11
-3.61113e-11
-1.53035e-11
-3.79603e-11
-1.80562e-11
-3.96559e-11
-2.10756e-11
-4.11873e-11
-2.43684e-11
-4.25661e-11
-2.79323e-11
-4.37755e-11
-3.17798e-11
-4.48268e-11
-3.60482e-11
-4.55666e-11
-4.08058e-11
-4.61098e-11
-7.26439e-11
-4.6845e-11
-9.82439e-11
-4.75286e-11
-1.07307e-10
-4.4238e-11
-1.06199e-10
-5.34875e-11
-1.08473e-10
-5.33307e-11
-1.07066e-10
-6.19203e-11
-9.11068e-11
-7.18388e-11
-7.79094e-11
-8.04247e-11
-6.19181e-11
-8.99874e-11
-4.34388e-11
-9.93633e-11
-2.38335e-11
-1.08701e-10
-2.9768e-12
-1.18032e-10
1.921e-11
-1.2732e-10
4.26364e-11
-1.36542e-10
6.71984e-11
-1.45684e-10
9.27883e-11
-1.5473e-10
1.19293e-10
-1.63661e-10
1.46595e-10
-1.72457e-10
1.74585e-10
-1.811e-10
2.03153e-10
-1.89569e-10
2.32193e-10
-1.97846e-10
2.61603e-10
-2.05913e-10
2.91287e-10
-2.13754e-10
3.21151e-10
-2.21353e-10
3.51104e-10
-2.28697e-10
3.8106e-10
-2.35773e-10
4.10936e-10
-2.42569e-10
4.40654e-10
-2.49076e-10
-2.55287e-10
4.70139e-10
-1.18058e-13
-1.81257e-12
-4.42525e-13
-5.29593e-12
-9.63904e-13
-8.63017e-12
-1.68338e-12
-1.18108e-11
-2.60323e-12
-1.4838e-11
-3.72648e-12
-1.77104e-11
-5.05614e-12
-2.04294e-11
-6.59518e-12
-2.29933e-11
-8.34532e-12
-2.54048e-11
-1.03077e-11
-2.76614e-11
-1.24804e-11
-2.97684e-11
-1.48609e-11
-3.1722e-11
-1.74411e-11
-3.35311e-11
-2.02122e-11
-3.51892e-11
-2.31567e-11
-3.67114e-11
-2.62576e-11
-3.80864e-11
-2.94855e-11
-3.93381e-11
-3.28139e-11
-4.04472e-11
-3.6183e-11
-4.14577e-11
-3.92811e-11
-4.26243e-11
-1.19698e-10
-4.32922e-11
-1.26273e-10
-4.39782e-11
-1.26596e-10
-4.7205e-11
-1.20688e-10
-5.0146e-11
-1.19836e-10
-5.43402e-11
-1.05727e-10
-6.74394e-11
-9.02442e-11
-7.74031e-11
-7.36919e-11
-8.8391e-11
-5.48916e-11
-9.9225e-11
-3.48553e-11
-1.10024e-10
-1.34614e-11
-1.20757e-10
9.21677e-12
-1.31379e-10
3.30515e-11
-1.41867e-10
5.79326e-11
-1.52201e-10
8.37487e-11
-1.62358e-10
1.10383e-10
-1.72318e-10
1.37716e-10
-1.82063e-10
1.65632e-10
-1.91576e-10
1.94014e-10
-2.0084e-10
2.22754e-10
-2.0984e-10
2.51744e-10
-2.18559e-10
2.80883e-10
-2.26985e-10
3.10072e-10
-2.35103e-10
3.3922e-10
-2.42902e-10
3.68237e-10
-2.50371e-10
3.97043e-10
-2.57502e-10
4.25558e-10
-2.64288e-10
4.53711e-10
-2.70722e-10
4.81435e-10
-2.76801e-10
-2.82521e-10
5.08669e-10
-1.14064e-13
-1.69851e-12
-4.67169e-13
-4.94283e-12
-1.06326e-12
-8.03408e-12
-1.90287e-12
-1.09712e-11
-2.98724e-12
-1.37536e-11
-4.3177e-12
-1.638e-11
-5.89663e-12
-1.88505e-11
-7.72622e-12
-2.11637e-11
-9.81033e-12
-2.33207e-11
-1.21522e-11
-2.53195e-11
-1.47577e-11
-2.71629e-11
-1.76314e-11
-2.88483e-11
-2.07822e-11
-3.03804e-11
-2.42162e-11
-3.17552e-11
-2.79473e-11
-3.29803e-11
-3.19837e-11
-3.405e-11
-3.63428e-11
-3.4979e-11
-4.10269e-11
-3.57631e-11
-4.65652e-11
-3.64425e-11
-1.03274e-10
-3.72673e-11
-1.08885e-10
-3.80318e-11
-1.11682e-10
-4.11819e-11
-1.12258e-10
-4.66289e-11
-1.03439e-10
-5.8965e-11
-8.69665e-11
-7.08126e-11
-7.12419e-11
-8.3164e-11
-5.31899e-11
-9.54551e-11
-3.38723e-11
-1.07709e-10
-1.32386e-11
-1.19859e-10
8.58431e-12
-1.31847e-10
3.14643e-11
-1.43637e-10
5.52858e-11
-1.552e-10
7.99303e-11
-1.66511e-10
1.0528e-10
-1.7755e-10
1.31221e-10
-1.88299e-10
1.57642e-10
-1.98739e-10
1.84433e-10
-2.08855e-10
2.11488e-10
-2.18631e-10
2.38701e-10
-2.28053e-10
2.65971e-10
-2.3711e-10
2.93202e-10
-2.4579e-10
3.20302e-10
-2.54084e-10
3.47184e-10
-2.61985e-10
3.73767e-10
-2.69485e-10
3.99977e-10
-2.76581e-10
4.25744e-10
-2.8327e-10
4.51007e-10
-2.8955e-10
4.75708e-10
-2.95423e-10
4.99798e-10
-3.0089e-10
-3.05955e-10
5.23232e-10
-1.14695e-13
-1.58381e-12
-4.66963e-13
-4.59056e-12
-1.06054e-12
-7.4405e-12
-1.89655e-12
-1.01352e-11
-2.97618e-12
-1.2674e-11
-4.30009e-12
-1.50561e-11
-5.86988e-12
-1.72807e-11
-7.68661e-12
-1.9347e-11
-9.75341e-12
-2.12539e-11
-1.20727e-11
-2.30003e-11
-1.46504e-11
-2.45851e-11
-1.74915e-11
-2.60073e-11
-2.06063e-11
-2.72655e-11
-2.40028e-11
-2.83587e-11
-2.76987e-11
-2.92844e-11
-3.17118e-11
-3.00369e-11
-3.60816e-11
-3.06092e-11
-4.12622e-11
-3.10229e-11
-9.96481e-11
-3.16713e-11
-1.04928e-10
-3.19876e-11
-1.08207e-10
-3.47528e-11
-1.05976e-10
-4.34132e-11
-9.38326e-11
-5.87718e-11
-7.97313e-11
-7.30664e-11
-6.33334e-11
-8.72105e-11
-4.53498e-11
-1.01148e-10
-2.59476e-11
-1.14857e-10
-5.35196e-12
-1.28304e-10
1.62527e-11
-1.41463e-10
3.87173e-11
-1.54311e-10
6.19058e-11
-1.66826e-10
8.56934e-11
-1.78988e-10
1.09961e-10
-1.9078e-10
1.34596e-10
-2.02185e-10
1.59486e-10
-2.13189e-10
1.84526e-10
-2.23779e-10
2.09613e-10
-2.33942e-10
2.3465e-10
-2.43668e-10
2.59545e-10
-2.52948e-10
2.84212e-10
-2.61777e-10
3.0857e-10
-2.70148e-10
3.32544e-10
-2.78059e-10
3.56066e-10
-2.85507e-10
3.79075e-10
-2.92494e-10
4.01515e-10
-2.99021e-10
4.23337e-10
-3.05092e-10
4.44499e-10
-3.10711e-10
4.64962e-10
-3.15887e-10
4.84698e-10
-3.20626e-10
-3.24938e-10
5.0368e-10
-1.34727e-13
-1.44909e-12
-5.16281e-13
-4.20901e-12
-1.13271e-12
-6.82407e-12
-1.97743e-12
-9.29046e-12
-3.04421e-12
-1.16072e-11
-4.32712e-12
-1.37732e-11
-5.82045e-12
-1.57874e-11
-7.51853e-12
-1.76489e-11
-9.41575e-12
-1.93567e-11
-1.15066e-11
-2.09094e-11
-1.37854e-11
-2.23064e-11
-1.62464e-11
-2.35462e-11
-1.88838e-11
-2.46281e-11
-2.16934e-11
-2.55491e-11
-2.46722e-11
-2.63055e-11
-2.78107e-11
-2.68985e-11
-3.12161e-11
-2.73623e-11
-9.92071e-11
-2.79109e-11
-1.02875e-10
-2.80036e-11
-1.0537e-10
-2.94926e-11
-9.98872e-11
-4.02354e-11
-8.63512e-11
-5.69492e-11
-7.19781e-11
-7.31449e-11
-5.604e-11
-8.90046e-11
-3.87385e-11
-1.04512e-10
-2.02566e-11
-1.19629e-10
-7.77757e-13
-1.34336e-10
1.95328e-11
-1.48615e-10
4.05201e-11
-1.62451e-10
6.20401e-11
-1.75831e-10
8.39597e-11
-1.88745e-10
1.06155e-10
-2.01183e-10
1.2851e-10
-2.13135e-10
1.50919e-10
-2.24593e-10
1.73279e-10
-2.3555e-10
1.95499e-10
-2.45998e-10
2.17492e-10
-2.55935e-10
2.39179e-10
-2.65355e-10
2.60488e-10
-2.74257e-10
2.81351e-10
-2.8264e-10
3.01709e-10
-2.90506e-10
3.21509e-10
-2.97859e-10
3.40704e-10
-3.04701e-10
3.59251e-10
-3.11041e-10
3.77117e-10
-3.16886e-10
3.94271e-10
-3.22246e-10
4.10691e-10
-3.27131e-10
4.26356e-10
-3.31553e-10
4.41255e-10
-3.35525e-10
-3.39061e-10
4.55378e-10
-8.6499e-14
-1.36259e-12
-3.59015e-13
-3.93649e-12
-8.19231e-13
-6.36385e-12
-1.46318e-12
-8.64651e-12
-2.28703e-12
-1.07833e-11
-3.28667e-12
-1.27735e-11
-4.45809e-12
-1.4616e-11
-5.7969e-12
-1.63101e-11
-7.29902e-12
-1.78545e-11
-8.95953e-12
-1.92489e-11
-1.07741e-11
-2.04918e-11
-1.27373e-11
-2.1583e-11
-1.48448e-11
-2.25207e-11
-1.70892e-11
-2.33047e-11
-1.9461e-11
-2.39337e-11
-2.19461e-11
-2.44134e-11
-5.49293e-11
-2.47704e-11
-8.70067e-11
-2.50373e-11
-8.96542e-11
-2.53561e-11
-8.3299e-11
-3.58478e-11
-6.9903e-11
-5.36313e-11
-5.56146e-11
-7.12377e-11
-4.03352e-11
-8.84243e-11
-2.42137e-11
-1.05126e-10
-7.40345e-12
-1.21322e-10
9.97037e-12
-1.37003e-10
2.7795e-11
-1.52161e-10
4.59661e-11
-1.66786e-10
6.43859e-11
-1.8087e-10
8.2961e-11
-1.94406e-10
1.01602e-10
-2.07387e-10
1.20225e-10
-2.19805e-10
1.38746e-10
-2.31657e-10
1.5709e-10
-2.42937e-10
1.75183e-10
-2.53642e-10
1.92957e-10
-2.63772e-10
2.10348e-10
-2.73326e-10
2.27298e-10
-2.82305e-10
2.43756e-10
-2.90714e-10
2.59672e-10
-2.98557e-10
2.75006e-10
-3.05841e-10
2.89722e-10
-3.12574e-10
3.03788e-10
-3.18768e-10
3.1718e-10
-3.24433e-10
3.29876e-10
-3.29583e-10
3.41862e-10
-3.34232e-10
3.53126e-10
-3.38395e-10
3.63662e-10
-3.42089e-10
3.73469e-10
-3.45331e-10
-3.48139e-10
3.82547e-10
-9.66096e-14
-1.26598e-12
-3.65146e-13
-3.66796e-12
-7.94676e-13
-5.93432e-12
-1.37943e-12
-8.06176e-12
-2.11383e-12
-1.00489e-11
-2.99248e-12
-1.18949e-11
-4.00999e-12
-1.35985e-11
-5.16126e-12
-1.51588e-11
-6.44087e-12
-1.65749e-11
-7.84367e-12
-1.78461e-11
-9.36397e-12
-1.89715e-11
-1.09965e-11
-1.99505e-11
-1.27354e-11
-2.07818e-11
-1.45752e-11
-2.14649e-11
-1.65082e-11
-2.20006e-11
-1.98781e-11
-2.23976e-11
-7.91224e-11
-2.27437e-11
-8.1375e-11
-2.27847e-11
-7.65561e-11
-3.0175e-11
-6.40242e-11
-4.83797e-11
-5.08391e-11
-6.68164e-11
-3.72677e-11
-8.48091e-11
-2.33928e-11
-1.02299e-10
-9.25366e-12
-1.19265e-10
5.11172e-12
-1.35688e-10
1.96566e-11
-1.51548e-10
3.43267e-11
-1.66831e-10
4.90627e-11
-1.81522e-10
6.38032e-11
-1.95611e-10
7.84853e-11
-2.09088e-10
9.30459e-11
-2.21947e-10
1.07423e-10
-2.34183e-10
1.21557e-10
-2.45791e-10
1.35391e-10
-2.5677e-10
1.48869e-10
-2.67121e-10
1.61943e-10
-2.76846e-10
1.74565e-10
-2.85948e-10
1.86695e-10
-2.94435e-10
1.98294e-10
-3.02314e-10
2.09331e-10
-3.09594e-10
2.19778e-10
-3.16287e-10
2.2961e-10
-3.22406e-10
2.38809e-10
-3.27967e-10
2.4736e-10
-3.32984e-10
2.55252e-10
-3.37475e-10
2.62479e-10
-3.41459e-10
2.69039e-10
-3.44954e-10
2.74931e-10
-3.47981e-10
2.8016e-10
-3.5056e-10
-3.52712e-10
2.84733e-10
-3.72596e-14
-1.22872e-12
-1.56599e-13
-3.54862e-12
-3.59716e-13
-5.73121e-12
-6.45585e-13
-7.77589e-12
-1.01295e-12
-9.68157e-12
-1.46056e-12
-1.14473e-11
-1.9868e-12
-1.30722e-11
-2.59023e-12
-1.45554e-11
-3.26898e-12
-1.58962e-11
-4.02144e-12
-1.70937e-11
-4.84541e-12
-1.81475e-11
-5.73908e-12
-1.90568e-11
-6.69936e-12
-1.98215e-11
-7.72295e-12
-2.04413e-11
-8.80629e-12
-2.09173e-11
-1.84357e-11
-2.1247e-11
-6.60053e-11
-2.14597e-11
-6.72257e-11
-2.15643e-11
-5.89354e-11
-3.84653e-11
-4.96727e-11
-5.76425e-11
-4.01201e-11
-7.63689e-11
-3.02974e-11
-9.46318e-11
-2.02237e-11
-1.12373e-10
-9.94305e-12
-1.29546e-10
4.90304e-13
-1.46121e-10
1.10187e-11
-1.62077e-10
2.15836e-11
-1.77396e-10
3.21268e-11
-1.92065e-10
4.25909e-11
-2.06075e-10
5.29206e-11
-2.19418e-10
6.3063e-11
-2.3209e-10
7.29678e-11
-2.44087e-10
8.25876e-11
-2.5541e-10
9.18781e-11
-2.66061e-10
1.00798e-10
-2.76041e-10
1.0931e-10
-2.85357e-10
1.17378e-10
-2.94017e-10
1.24973e-10
-3.02029e-10
1.32065e-10
-3.09406e-10
1.38631e-10
-3.1616e-10
1.44649e-10
-3.22306e-10
1.50104e-10
-3.27861e-10
1.54981e-10
-3.32843e-10
1.59269e-10
-3.37272e-10
1.62963e-10
-3.41169e-10
1.66058e-10
-3.44554e-10
1.68554e-10
-3.47451e-10
1.70455e-10
-3.49881e-10
1.71764e-10
-3.5187e-10
-3.53439e-10
1.72492e-10
2.86427e-16
-1.229e-12
-1.37345e-15
-3.54696e-12
-8.89309e-15
-5.72369e-12
-2.68442e-14
-7.75794e-12
-5.97838e-14
-9.64863e-12
-1.12117e-13
-1.13949e-11
-1.88218e-13
-1.29961e-11
-2.92345e-13
-1.44512e-11
-4.28817e-13
-1.57597e-11
-6.01856e-13
-1.69206e-11
-8.15907e-13
-1.79335e-11
-1.07535e-12
-1.87974e-11
-1.38478e-12
-1.95121e-11
-1.74775e-12
-2.00783e-11
-2.16677e-12
-2.04983e-11
-1.2084e-11
-2.07695e-11
-5.47273e-11
-2.08636e-11
-5.53213e-11
-2.09703e-11
-5.24019e-11
-4.13847e-11
-4.86968e-11
-6.13476e-11
-4.43296e-11
-8.07361e-11
-3.94622e-11
-9.94992e-11
-3.42158e-11
-1.17619e-10
-2.86848e-11
-1.35077e-10
-2.29498e-11
-1.51856e-10
-1.70809e-11
-1.67945e-10
-1.114e-11
-1.83337e-10
-5.18232e-12
-1.98023e-10
7.41704e-13
-2.11999e-10
6.58501e-12
-2.25261e-10
1.23031e-11
-2.37808e-10
1.78534e-11
-2.49638e-10
2.31952e-11
-2.60752e-10
2.82892e-11
-2.71155e-10
3.30981e-11
-2.8085e-10
3.75863e-11
-2.89845e-10
4.17204e-11
-2.98151e-10
4.54695e-11
-3.05778e-10
4.88053e-11
-3.12742e-10
5.17025e-11
-3.19057e-10
5.41387e-11
-3.24742e-10
5.6095e-11
-3.29817e-10
5.75556e-11
-3.34304e-10
5.85083e-11
-3.38225e-10
5.89442e-11
-3.41605e-10
5.88577e-11
-3.44468e-10
5.82466e-11
-3.46839e-10
5.71115e-11
-3.48746e-10
5.54559e-11
-3.50214e-10
-3.51269e-10
5.32857e-11
4.38748e-14
1.6948e-13
3.6822e-13
6.30233e-13
9.45831e-13
1.30532e-12
1.69905e-12
2.11711e-12
2.54941e-12
2.9854e-12
3.41419e-12
3.82439e-12
4.2038e-12
4.53672e-12
4.80083e-12
4.97944e-12
-4.41958e-11
-4.41394e-11
-4.45847e-11
-4.52305e-11
-4.58872e-11
-4.64667e-11
-4.68955e-11
-4.71193e-11
-4.7107e-11
-4.68486e-11
-4.63509e-11
-4.56339e-11
-4.47283e-11
-4.36728e-11
-4.25118e-11
-4.12934e-11
-4.00676e-11
-3.8885e-11
-3.77961e-11
-3.68495e-11
-3.6092e-11
-3.55674e-11
-3.53164e-11
-3.53757e-11
-3.57784e-11
-3.6553e-11
-3.77238e-11
-3.93106e-11
-4.1329e-11
-4.37904e-11
-4.67021e-11
-5.00678e-11
-5.38877e-11
-5.81591e-11
1.93675e-12
-8.22515e-11
1.11711e-12
-8.1317e-11
6.12126e-13
-8.03211e-11
3.50548e-13
-7.92456e-11
3.59098e-13
-7.84161e-11
6.46819e-13
-7.79423e-11
1.2311e-12
-7.78494e-11
2.12271e-12
-7.81466e-11
3.32525e-12
-7.88305e-11
4.83505e-12
-7.9883e-11
6.6444e-12
-8.12809e-11
8.74327e-12
-8.29995e-11
1.112e-11
-8.50137e-11
1.37618e-11
-8.72985e-11
1.66551e-11
-8.98292e-11
1.9786e-11
-9.25815e-11
2.31408e-11
-9.55316e-11
2.67055e-11
-9.86562e-11
3.04664e-11
-1.01933e-10
3.44104e-11
-1.05339e-10
3.85245e-11
-1.08855e-10
4.27959e-11
-1.12459e-10
4.72124e-11
-1.16133e-10
5.17622e-11
-1.19857e-10
5.64335e-11
-1.23614e-10
6.1215e-11
-1.27387e-10
6.60958e-11
-1.3116e-10
7.10649e-11
-1.34918e-10
7.61117e-11
-1.38646e-10
8.12259e-11
-1.42332e-10
8.63972e-11
-1.45962e-10
9.16154e-11
-1.49526e-10
9.68707e-11
-1.53012e-10
1.02153e-10
-1.56412e-10
1.07454e-10
-1.59715e-10
1.12762e-10
-1.62914e-10
1.1807e-10
-1.66002e-10
1.23368e-10
-1.68971e-10
1.28648e-10
-1.71818e-10
1.33902e-10
-1.74536e-10
1.39121e-10
-1.77122e-10
1.44299e-10
-1.79572e-10
1.49429e-10
-1.81885e-10
1.54505e-10
-1.84057e-10
1.59522e-10
-1.86088e-10
1.64476e-10
-1.87977e-10
1.69364e-10
-1.89726e-10
1.74184e-10
-1.91335e-10
1.78935e-10
-1.92805e-10
-1.94147e-10
1.83632e-10
-2.76114e-11
-7.92546e-11
-2.96397e-11
-7.92887e-11
-3.02172e-11
-7.97437e-11
-2.98174e-11
-7.96454e-11
-2.84121e-11
-7.98213e-11
-2.60445e-11
-8.03099e-11
-2.27675e-11
-8.11265e-11
-1.86374e-11
-8.22767e-11
-1.37163e-11
-8.37515e-11
-8.06828e-12
-8.55311e-11
-1.75575e-12
-8.75934e-11
5.16125e-12
-8.99165e-11
1.26255e-11
-9.24779e-11
2.05828e-11
-9.52558e-11
2.8982e-11
-9.82284e-11
3.77748e-11
-1.01374e-10
4.69156e-11
-1.04672e-10
5.63618e-11
-1.08102e-10
6.60732e-11
-1.11644e-10
7.60118e-11
-1.15278e-10
8.61422e-11
-1.18985e-10
9.64308e-11
-1.22748e-10
1.06846e-10
-1.26548e-10
1.17358e-10
-1.3037e-10
1.2794e-10
-1.34195e-10
1.38563e-10
-1.38011e-10
1.49204e-10
-1.41801e-10
1.59839e-10
-1.45553e-10
1.70446e-10
-1.49252e-10
1.81002e-10
-1.52888e-10
1.91489e-10
-1.56449e-10
2.01886e-10
-1.59923e-10
2.12177e-10
-1.63303e-10
2.22343e-10
-1.66578e-10
2.32369e-10
-1.69741e-10
2.4224e-10
-1.72784e-10
2.5194e-10
-1.75702e-10
2.61457e-10
-1.78489e-10
2.70778e-10
-1.81139e-10
2.79892e-10
-1.83649e-10
2.88786e-10
-1.86016e-10
2.97452e-10
-1.88238e-10
3.0588e-10
-1.90313e-10
3.14063e-10
-1.9224e-10
3.21994e-10
-1.94018e-10
3.29667e-10
-1.95651e-10
3.37078e-10
-1.97138e-10
3.44226e-10
-1.98482e-10
3.51109e-10
-1.99688e-10
-2.00751e-10
3.57713e-10
-2.57117e-11
-7.92483e-11
-2.49292e-11
-8.00712e-11
-2.31383e-11
-8.15346e-11
-1.9809e-11
-8.29747e-11
-1.52191e-11
-8.44113e-11
-9.43672e-12
-8.60922e-11
-2.5327e-12
-8.80305e-11
5.41361e-12
-9.0223e-11
1.43218e-11
-9.26597e-11
2.41134e-11
-9.53227e-11
3.47125e-11
-9.81925e-11
4.60457e-11
-1.0125e-10
5.80426e-11
-1.04475e-10
7.06352e-11
-1.07848e-10
8.37584e-11
-1.11352e-10
9.73494e-11
-1.14965e-10
1.11348e-10
-1.18671e-10
1.25697e-10
-1.22451e-10
1.40341e-10
-1.26288e-10
1.55228e-10
-1.30165e-10
1.70306e-10
-1.34064e-10
1.85529e-10
-1.37971e-10
2.00851e-10
-1.4187e-10
2.16227e-10
-1.45746e-10
2.31618e-10
-1.49586e-10
2.46985e-10
-1.53377e-10
2.6229e-10
-1.57106e-10
2.77498e-10
-1.60761e-10
2.92578e-10
-1.64332e-10
3.07498e-10
-1.67808e-10
3.22229e-10
-1.7118e-10
3.36744e-10
-1.74439e-10
3.51019e-10
-1.77577e-10
3.65029e-10
-1.80588e-10
3.78753e-10
-1.83465e-10
3.9217e-10
-1.86202e-10
4.05262e-10
-1.88794e-10
4.18011e-10
-1.91238e-10
4.30402e-10
-1.9353e-10
4.4242e-10
-1.95667e-10
4.54053e-10
-1.97649e-10
4.65288e-10
-1.99473e-10
4.76116e-10
-2.01141e-10
4.86527e-10
-2.02651e-10
4.96515e-10
-2.04006e-10
5.06072e-10
-2.05208e-10
5.15195e-10
-2.0626e-10
5.2388e-10
-2.07168e-10
5.32127e-10
-2.07934e-10
-2.08574e-10
5.3995e-10
-2.82234e-11
-8.6033e-11
-2.05178e-11
-8.77767e-11
-1.21204e-11
-8.9932e-11
-2.65305e-12
-9.2442e-11
8.0278e-12
-9.50921e-11
1.98399e-11
-9.79043e-11
3.27138e-11
-1.00904e-10
4.65755e-11
-1.04085e-10
6.13494e-11
-1.07434e-10
7.6961e-11
-1.10934e-10
9.33362e-11
-1.14568e-10
1.10401e-10
-1.18315e-10
1.28084e-10
-1.22157e-10
1.46312e-10
-1.26076e-10
1.65015e-10
-1.30055e-10
1.84126e-10
-1.34076e-10
2.03577e-10
-1.38122e-10
2.23304e-10
-1.42179e-10
2.43245e-10
-1.46229e-10
2.63341e-10
-1.5026e-10
2.83533e-10
-1.54256e-10
3.03768e-10
-1.58206e-10