/*--------------------------------*- C++ -*----------------------------------*\
| =========                 |                                                 |
| \\      /  F ield         | OpenFOAM: The Open Source CFD Toolbox           |
|  \\    /   O peration     | Version:  2.4.0                                 |
|   \\  /    A nd           | Web:      www.OpenFOAM.org                      |
|    \\/     M anipulation  |                                                 |
\*---------------------------------------------------------------------------*/
FoamFile
{
    version     2.0;
    format      ascii;
    class       volScalarField;
    location    "2.7";
    object      p;
}
// * * * * * * * * * * * * * * * * * * * * * * * * * * * * * * * * * * * * * //

dimensions      [1 -1 -2 0 0 0 0];

internalField   nonuniform List<scalar> 
125
(
-0.0577052
-0.0577052
-0.0577052
-0.0577052
-0.0577052
-0.0588399
-0.0588399
-0.0588399
-0.0588399
-0.0588399
-0.0599874
-0.0599874
-0.0599874
-0.0599874
-0.0599874
-0.0611476
-0.0611476
-0.0611476
-0.0611476
-0.0611476
-0.0623208
-0.0623208
-0.0623208
-0.0623208
-0.0623208
-0.0635071
-0.0635071
-0.0635071
-0.0635071
-0.0635071
-0.0647066
-0.0647066
-0.0647066
-0.0647066
-0.0647066
-0.0659195
-0.0659195
-0.0659195
-0.0659195
-0.0659195
-0.067146
-0.067146
-0.067146
-0.067146
-0.067146
-0.0683861
-0.0683861
-0.0683861
-0.0683861
-0.0683861
-0.0696401
-0.0696401
-0.0696401
-0.0696401
-0.0696401
-0.0709081
-0.0709081
-0.0709081
-0.0709081
-0.0709081
-0.0721902
-0.0721902
-0.0721902
-0.0721902
-0.0721902
-0.0734866
-0.0734866
-0.0734866
-0.0734866
-0.0734866
-0.0747975
-0.0747975
-0.0747975
-0.0747975
-0.0747975
-0.076123
-0.076123
-0.076123
-0.076123
-0.076123
-0.0774633
-0.0774633
-0.0774633
-0.0774633
-0.0774633
-0.0788185
-0.0788185
-0.0788185
-0.0788185
-0.0788185
-0.0801889
-0.0801889
-0.0801889
-0.0801889
-0.0801889
-0.0815746
-0.0815746
-0.0815746
-0.0815746
-0.0815746
-0.0829757
-0.0829757
-0.0829757
-0.0829757
-0.0829757
-0.0843925
-0.0843925
-0.0843925
-0.0843925
-0.0843925
-0.0858251
-0.0858251
-0.0858251
-0.0858251
-0.0858251
-0.0872737
-0.0872737
-0.0872737
-0.0872737
-0.0872737
-0.0887384
-0.0887384
-0.0887384
-0.0887384
-0.0887384
)
;

boundaryField
{
    BotWall
    {
        type            calculated;
        value           nonuniform 0();
    }
    FreeStream
    {
        type            calculated;
        value           nonuniform List<scalar> 5(-0.0894748 -0.0894748 -0.0894748 -0.0894748 -0.0894748);
    }
    FrontNBack
    {
        type            empty;
    }
    LeftSide
    {
        type            symmetryPlane;
    }
    RightSide
    {
        type            symmetryPlane;
    }
    procBoundary3to2
    {
        type            processor;
        value           nonuniform List<scalar> 5(-0.0565829 -0.0565829 -0.0565829 -0.0565829 -0.0565829);
    }
}


// ************************************************************************* //
