/*--------------------------------*- C++ -*----------------------------------*\
| =========                 |                                                 |
| \\      /  F ield         | OpenFOAM: The Open Source CFD Toolbox           |
|  \\    /   O peration     | Version:  2.4.0                                 |
|   \\  /    A nd           | Web:      www.OpenFOAM.org                      |
|    \\/     M anipulation  |                                                 |
\*---------------------------------------------------------------------------*/
FoamFile
{
    version     2.0;
    format      ascii;
    class       volVectorField;
    location    "2.7";
    object      U;
}
// * * * * * * * * * * * * * * * * * * * * * * * * * * * * * * * * * * * * * //

dimensions      [0 1 -1 0 0 0 0];

internalField   nonuniform List<vector> 
125
(
(-3.476e-09 -0.00129338 0)
(-6.06502e-09 -0.00129337 0)
(-1.27961e-10 -0.00129337 0)
(6.57513e-09 -0.00129337 0)
(4.20481e-09 -0.00129338 0)
(-3.48488e-09 -0.00129338 0)
(-6.1198e-09 -0.00129337 0)
(-1.51192e-10 -0.00129337 0)
(6.63632e-09 -0.00129337 0)
(4.23473e-09 -0.00129338 0)
(-3.48217e-09 -0.00129338 0)
(-6.15017e-09 -0.00129337 0)
(-1.70776e-10 -0.00129337 0)
(6.67163e-09 -0.00129337 0)
(4.24854e-09 -0.00129338 0)
(-3.46873e-09 -0.00129338 0)
(-6.15787e-09 -0.00129337 0)
(-1.86958e-10 -0.00129337 0)
(6.68294e-09 -0.00129337 0)
(4.24744e-09 -0.00129338 0)
(-3.44542e-09 -0.00129338 0)
(-6.14467e-09 -0.00129337 0)
(-1.99975e-10 -0.00129337 0)
(6.67211e-09 -0.00129337 0)
(4.23263e-09 -0.00129338 0)
(-3.41314e-09 -0.00129338 0)
(-6.11237e-09 -0.00129337 0)
(-2.10064e-10 -0.00129337 0)
(6.64104e-09 -0.00129337 0)
(4.20532e-09 -0.00129338 0)
(-3.37278e-09 -0.00129338 0)
(-6.06278e-09 -0.00129337 0)
(-2.17457e-10 -0.00129337 0)
(6.59163e-09 -0.00129337 0)
(4.16672e-09 -0.00129338 0)
(-3.32528e-09 -0.00129338 0)
(-5.99773e-09 -0.00129337 0)
(-2.22384e-10 -0.00129337 0)
(6.52583e-09 -0.00129337 0)
(4.11808e-09 -0.00129338 0)
(-3.27156e-09 -0.00129338 0)
(-5.91911e-09 -0.00129337 0)
(-2.25073e-10 -0.00129337 0)
(6.44561e-09 -0.00129337 0)
(4.06062e-09 -0.00129338 0)
(-3.21258e-09 -0.00129338 0)
(-5.82878e-09 -0.00129338 0)
(-2.25749e-10 -0.00129337 0)
(6.35294e-09 -0.00129337 0)
(3.9956e-09 -0.00129338 0)
(-3.14931e-09 -0.00129338 0)
(-5.72868e-09 -0.00129338 0)
(-2.24634e-10 -0.00129337 0)
(6.24984e-09 -0.00129337 0)
(3.9243e-09 -0.00129338 0)
(-3.08273e-09 -0.00129338 0)
(-5.62073e-09 -0.00129338 0)
(-2.21952e-10 -0.00129337 0)
(6.13835e-09 -0.00129337 0)
(3.84799e-09 -0.00129338 0)
(-3.01386e-09 -0.00129338 0)
(-5.5069e-09 -0.00129338 0)
(-2.17923e-10 -0.00129337 0)
(6.02052e-09 -0.00129337 0)
(3.76796e-09 -0.00129338 0)
(-2.94369e-09 -0.00129338 0)
(-5.38918e-09 -0.00129338 0)
(-2.1277e-10 -0.00129337 0)
(5.89844e-09 -0.00129337 0)
(3.68554e-09 -0.00129338 0)
(-2.87328e-09 -0.00129338 0)
(-5.26957e-09 -0.00129338 0)
(-2.06715e-10 -0.00129337 0)
(5.77421e-09 -0.00129337 0)
(3.60206e-09 -0.00129338 0)
(-2.80367e-09 -0.00129338 0)
(-5.15011e-09 -0.00129338 0)
(-1.99983e-10 -0.00129337 0)
(5.64998e-09 -0.00129337 0)
(3.51886e-09 -0.00129338 0)
(-2.73593e-09 -0.00129338 0)
(-5.03288e-09 -0.00129338 0)
(-1.928e-10 -0.00129337 0)
(5.52792e-09 -0.00129337 0)
(3.43732e-09 -0.00129338 0)
(-2.67116e-09 -0.00129338 0)
(-4.91995e-09 -0.00129338 0)
(-1.85398e-10 -0.00129337 0)
(5.41021e-09 -0.00129337 0)
(3.35884e-09 -0.00129338 0)
(-2.61046e-09 -0.00129338 0)
(-4.81347e-09 -0.00129338 0)
(-1.78012e-10 -0.00129337 0)
(5.29911e-09 -0.00129337 0)
(3.28486e-09 -0.00129338 0)
(-2.55495e-09 -0.00129338 0)
(-4.71559e-09 -0.00129338 0)
(-1.70885e-10 -0.00129337 0)
(5.19688e-09 -0.00129337 0)
(3.21684e-09 -0.00129338 0)
(-2.50579e-09 -0.00129338 0)
(-4.62849e-09 -0.00129338 0)
(-1.64266e-10 -0.00129337 0)
(5.10581e-09 -0.00129337 0)
(3.15626e-09 -0.00129338 0)
(-2.46413e-09 -0.00129338 0)
(-4.5544e-09 -0.00129338 0)
(-1.58414e-10 -0.00129337 0)
(5.02828e-09 -0.00129337 0)
(3.10467e-09 -0.00129338 0)
(-2.43126e-09 -0.00129338 0)
(-4.4957e-09 -0.00129338 0)
(-1.53607e-10 -0.00129337 0)
(4.9668e-09 -0.00129337 0)
(3.06373e-09 -0.00129338 0)
(-2.40859e-09 -0.00129338 0)
(-4.45511e-09 -0.00129338 0)
(-1.50151e-10 -0.00129337 0)
(4.92425e-09 -0.00129337 0)
(3.03536e-09 -0.00129338 0)
(-2.39749e-09 -0.00129338 0)
(-4.43516e-09 -0.00129338 0)
(-1.48355e-10 -0.00129337 0)
(4.90334e-09 -0.00129337 0)
(3.02135e-09 -0.00129338 0)
)
;

boundaryField
{
    BotWall
    {
        type            fixedValue;
        value           nonuniform 0();
    }
    FreeStream
    {
        type            zeroGradient;
    }
    FrontNBack
    {
        type            empty;
    }
    LeftSide
    {
        type            symmetryPlane;
    }
    RightSide
    {
        type            symmetryPlane;
    }
    procBoundary3to2
    {
        type            processor;
        value           nonuniform List<vector> 5((-3.45469e-09 -0.00129338 0) (-5.98413e-09 -0.00129337 0) (-1.00838e-10 -0.00129337 0) (6.48632e-09 -0.00129337 0) (4.15768e-09 -0.00129338 0));
    }
}


// ************************************************************************* //
