/*--------------------------------*- C++ -*----------------------------------*\
| =========                 |                                                 |
| \\      /  F ield         | OpenFOAM: The Open Source CFD Toolbox           |
|  \\    /   O peration     | Version:  2.4.0                                 |
|   \\  /    A nd           | Web:      www.OpenFOAM.org                      |
|    \\/     M anipulation  |                                                 |
\*---------------------------------------------------------------------------*/
FoamFile
{
    version     2.0;
    format      ascii;
    class       volScalarField;
    location    "2.4";
    object      alpha1;
}
// * * * * * * * * * * * * * * * * * * * * * * * * * * * * * * * * * * * * * //

dimensions      [0 0 0 0 0 0 0];

internalField   nonuniform List<scalar> 
8000
(
1
1
1
1
1
1
1
1
1
1
1
1
1
1
1
1
1
1
1
1
0.999999
0.999998
0.999997
0.999996
0.999996
0.999996
0.999997
0.999998
0.999999
1
0.543055
9.76004e-05
1.65445e-07
3.04606e-08
1.34969e-08
8.49724e-09
5.74664e-09
3.9417e-09
2.7018e-09
1.84161e-09
1.24564e-09
8.35001e-10
5.54233e-10
3.64007e-10
2.36458e-10
1.51921e-10
9.6585e-11
6.07901e-11
3.78755e-11
2.33557e-11
1
1
1
1
1
1
1
1
1
1
1
1
1
1
1
1
1
1
1
1
0.999999
0.999998
0.999997
0.999996
0.999996
0.999997
0.999998
0.999998
0.999999
1
0.609332
2.39317e-05
1.90812e-07
2.85975e-08
1.46787e-08
9.69421e-09
6.62954e-09
4.55026e-09
3.10998e-09
2.11079e-09
1.42075e-09
9.47437e-10
6.25457e-10
4.08498e-10
2.6387e-10
1.68608e-10
1.06646e-10
6.68021e-11
4.14346e-11
2.54441e-11
1
1
1
1
1
1
1
1
1
1
1
1
1
1
1
1
1
1
1
1
0.999999
0.999998
0.999998
0.999997
0.999997
0.999997
0.999998
0.999998
0.999999
1
0.611922
8.07717e-06
1.69859e-07
2.72349e-08
1.58385e-08
1.0712e-08
7.34399e-09
5.02307e-09
3.41339e-09
2.30098e-09
1.53738e-09
1.01732e-09
6.66268e-10
4.31662e-10
2.76626e-10
1.75424e-10
1.10175e-10
6.85613e-11
4.22712e-11
2.58215e-11
1
1
1
1
1
1
1
1
1
1
1
1
1
1
1
1
1
1
1
1
0.999999
0.999999
0.999998
0.999997
0.999997
0.999997
0.999998
0.999998
0.999999
1
0.498583
3.18966e-06
1.21718e-07
2.64751e-08
1.68368e-08
1.14942e-08
7.86133e-09
5.3443e-09
3.60371e-09
2.40833e-09
1.59424e-09
1.04471e-09
6.77357e-10
4.34403e-10
2.75601e-10
1.73088e-10
1.07704e-10
6.6432e-11
4.0619e-11
2.46253e-11
1
1
1
1
1
1
1
1
1
1
1
1
1
1
1
1
1
1
1
1
0.999999
0.999999
0.999998
0.999998
0.999998
0.999998
0.999998
0.999998
0.999999
0.999931
0.199424
1.33051e-06
7.58607e-08
2.56975e-08
1.71742e-08
1.17517e-08
7.99852e-09
5.39671e-09
3.60654e-09
2.38647e-09
1.56313e-09
1.01305e-09
6.49432e-10
4.11812e-10
2.58401e-10
1.60567e-10
9.88845e-11
6.03805e-11
3.65625e-11
2.19631e-11
1
1
1
1
1
1
1
1
1
1
1
1
1
1
1
1
1
1
1
1
0.999999
0.999999
0.999998
0.999998
0.999998
0.999998
0.999998
0.999997
0.999993
0.803542
0.00558416
4.24506e-07
5.12347e-08
2.36269e-08
1.60342e-08
1.09362e-08
7.37835e-09
4.92197e-09
3.2463e-09
2.11719e-09
1.36533e-09
8.70548e-10
5.48903e-10
3.42419e-10
2.11502e-10
1.29464e-10
7.8591e-11
4.73342e-11
2.82918e-11
1.67865e-11
1
1
1
1
1
1
1
1
1
1
1
1
1
1
1
1
1
1
1
1
0.999999
0.999999
0.999999
0.999998
0.999998
0.999998
0.999998
0.999977
0.937606
0.150636
0.000144334
4.41216e-07
4.92778e-08
2.12972e-08
1.43865e-08
9.74912e-09
6.50636e-09
4.283e-09
2.78095e-09
1.78162e-09
1.12633e-09
7.02828e-10
4.33156e-10
2.63951e-10
1.59225e-10
9.51846e-11
5.64366e-11
3.32124e-11
1.94062e-11
1.12576e-11
1
1
1
1
1
1
1
1
1
1
1
1
1
1
1
1
1
1
1
1
0.999999
0.999999
0.999999
0.999999
0.999998
0.999998
0.999878
0.886109
0.202642
0.00645298
2.44887e-05
6.4538e-07
4.49806e-08
1.63461e-08
1.0829e-08
7.21632e-09
4.71891e-09
3.03807e-09
1.92536e-09
1.20174e-09
7.38925e-10
4.47823e-10
2.67797e-10
1.58246e-10
9.25134e-11
5.35454e-11
3.07055e-11
1.74635e-11
9.85245e-12
5.50759e-12
1
1
1
1
1
1
1
1
1
1
1
1
1
1
1
1
1
1
1
1
0.999999
0.999999
0.999999
0.999999
0.999998
0.999464
0.725562
0.146911
0.00973855
0.000312836
7.22446e-06
5.55948e-07
2.80914e-08
9.36196e-09
6.03233e-09
3.88259e-09
2.44767e-09
1.5139e-09
9.20039e-10
5.4984e-10
3.23297e-10
1.87201e-10
1.06913e-10
6.02947e-11
3.35567e-11
1.83966e-11
9.93907e-12
5.3189e-12
2.83939e-12
1.51818e-12
1
1
1
1
1
1
1
1
1
1
1
1
1
1
1
1
1
1
1
1
0.999999
0.999998
0.999999
0.999812
0.965858
0.419197
0.0618184
0.00527305
5.35841e-05
4.8953e-07
2.14524e-07
1.27225e-08
2.48421e-09
1.38282e-09
8.04455e-10
4.65959e-10
2.68147e-10
1.52964e-10
8.62651e-11
4.8008e-11
2.63838e-11
1.43871e-11
7.84915e-12
4.32048e-12
2.40872e-12
1.35705e-12
7.6807e-13
4.3428e-13
2.44556e-13
1.37088e-13
1
1
1
1
1
1
1
1
1
1
1
1
1
1
1
1
1
0.999999
1
0.999999
0.999999
0.999953
0.99912
0.657774
0.131447
0.0121408
9.38512e-05
3.87483e-05
7.79635e-08
1.43221e-08
1.55118e-09
1.60191e-10
7.03164e-11
3.37197e-11
1.70065e-11
9.0334e-12
5.05267e-12
2.95758e-12
1.78804e-12
1.09974e-12
6.79621e-13
4.18813e-13
2.56589e-13
1.562e-13
9.44878e-14
5.67914e-14
3.39074e-14
2.01069e-14
1.18439e-14
6.93493e-15
1
1
1
1
1
1
1
1
1
1
1
1
1
1
1
1
1
0.999999
1
0.999979
0.999322
0.828018
0.248778
0.014038
0.000397844
0.000186069
3.11637e-06
2.14676e-07
2.7273e-08
1.87167e-09
1.96625e-10
3.43857e-11
1.20497e-11
4.90978e-12
2.28447e-12
1.21002e-12
6.99917e-13
4.21899e-13
2.58812e-13
1.59349e-13
9.77835e-14
5.96311e-14
3.60595e-14
2.16163e-14
1.28506e-14
7.579e-15
4.43675e-15
2.57897e-15
1.489e-15
8.54064e-16
1
1
1
1
1
1
1
1
1
1
1
1
1
1
1
1
0.999999
0.999965
0.999173
0.880973
0.318581
0.0114507
0.0028736
0.000115112
4.48037e-07
6.36629e-07
3.89132e-07
2.55895e-08
2.4811e-09
1.44771e-10
1.65052e-11
3.25068e-12
1.17671e-12
5.07082e-13
2.45697e-13
1.28405e-13
6.97692e-14
3.86009e-14
2.1561e-14
1.21049e-14
6.82594e-15
3.88079e-15
2.23483e-15
1.30209e-15
7.66987e-16
4.58085e-16
2.78893e-16
1.74937e-16
1.14889e-16
8.06827e-17
1
1
1
1
1
1
1
1
1
1
1
1
1
1
0.999999
0.999922
0.998878
0.841078
0.228305
0.0118229
0.00901674
3.15352e-06
2.70139e-06
4.14805e-07
1.02978e-07
7.12541e-08
2.94605e-08
1.86807e-09
1.46156e-10
7.81013e-12
8.87827e-13
1.85897e-13
6.56757e-14
2.66624e-14
1.16876e-14
5.38504e-15
2.61539e-15
1.39204e-15
8.71219e-16
6.74083e-16
6.24847e-16
6.4144e-16
6.877e-16
7.487e-16
8.17402e-16
8.9095e-16
9.6756e-16
1.04591e-15
1.12501e-15
1.20402e-15
1
1
1
1
1
1
1
1
1
1
1
0.999999
0.999997
0.999242
0.998494
0.761576
0.0867473
0.0154925
0.00165884
0.000120252
7.0978e-05
2.5986e-07
3.87837e-07
1.73309e-07
3.01332e-08
1.18051e-08
3.05317e-09
1.87534e-10
1.01655e-11
4.21871e-13
3.75445e-14
6.60181e-15
2.37899e-15
1.73312e-15
1.93529e-15
2.38039e-15
2.92664e-15
3.55104e-15
4.24746e-15
5.01381e-15
5.84917e-15
6.7529e-15
7.72436e-15
8.76272e-15
9.86687e-15
1.10353e-14
1.22657e-14
1.35556e-14
1.49013e-14
1.62988e-14
1
1
1
1
1
0.999999
0.999999
1
1
0.999999
0.99963
0.9976
0.998996
0.345511
0.0326573
0.0138775
0.000124295
6.29679e-05
8.72978e-06
3.02202e-07
2.54274e-07
1.46368e-07
1.49962e-07
6.89788e-08
1.06426e-08
2.90226e-09
5.19926e-10
3.46678e-11
1.07818e-12
3.39366e-14
4.46361e-15
3.83641e-15
5.15455e-15
7.06326e-15
9.49079e-15
1.24183e-14
1.5826e-14
1.97499e-14
2.42321e-14
2.93207e-14
3.50688e-14
4.1532e-14
4.87667e-14
5.68289e-14
6.57741e-14
7.56562e-14
8.65258e-14
9.84281e-14
1.11402e-13
1.25478e-13
1
1
1
1
0.999999
0.999997
0.999998
0.999997
0.998957
0.998106
0.535436
0.0298361
0.0267522
0.000182925
0.000112363
2.83322e-05
1.59783e-07
1.47129e-07
1.0985e-07
1.15634e-07
8.31975e-08
4.84763e-08
3.49648e-08
1.47548e-08
2.27326e-09
5.03084e-10
7.32422e-11
4.72564e-12
1.02108e-13
1.35281e-14
1.56275e-14
2.10486e-14
2.81516e-14
3.71212e-14
4.77521e-14
6.02656e-14
7.49747e-14
9.21817e-14
1.1225e-13
1.35628e-13
1.62853e-13
1.94533e-13
2.3131e-13
2.73864e-13
3.22931e-13
3.79315e-13
4.43874e-13
5.1751e-13
6.01154e-13
6.95761e-13
1
1
1
0.999999
0.999997
0.999995
0.99997
0.995807
0.223003
0.014542
0.0118476
0.000245531
0.000164819
2.07432e-07
1.99689e-07
1.36277e-07
1.16479e-07
8.48825e-08
5.7119e-08
3.99043e-08
2.35997e-08
1.14828e-08
5.81471e-09
2.10059e-09
3.34332e-10
6.24129e-11
7.76074e-12
4.73069e-13
4.4103e-14
5.01175e-14
6.44201e-14
8.21548e-14
1.03571e-13
1.29156e-13
1.60092e-13
1.9732e-13
2.41765e-13
2.94467e-13
3.56749e-13
4.30543e-13
5.18797e-13
6.25471e-13
7.54787e-13
9.11111e-13
1.0994e-12
1.32559e-12
1.59664e-12
1.92058e-12
2.30643e-12
2.76424e-12
1
1
1
0.999998
0.999994
0.999957
0.807969
0.013849
0.00478444
0.000258995
0.000113864
5.86408e-07
4.67162e-07
2.22091e-07
1.50753e-07
1.19003e-07
8.50973e-08
5.41745e-08
3.2392e-08
1.80814e-08
8.95632e-09
3.45688e-09
1.13792e-09
3.12359e-10
4.92038e-11
7.34848e-12
7.76669e-13
8.34239e-14
6.47141e-14
8.36433e-14
1.07627e-13
1.37649e-13
1.75695e-13
2.24036e-13
2.84393e-13
3.60881e-13
4.55926e-13
5.70742e-13
7.04891e-13
8.57575e-13
1.03475e-12
1.25651e-12
1.54673e-12
1.92577e-12
2.4148e-12
3.04186e-12
3.84427e-12
4.86933e-12
6.1747e-12
7.82924e-12
1
1
0.999999
0.999997
0.999993
0.99112
0.0107708
0.000176703
8.237e-05
3.71864e-06
4.5746e-07
3.72501e-07
3.12357e-07
2.36302e-07
1.58891e-07
1.38428e-07
1.09694e-07
8.07142e-08
6.08968e-08
4.39624e-08
2.98347e-08
1.82342e-08
9.73039e-09
4.31046e-09
1.4816e-09
3.74643e-10
6.60699e-11
7.71591e-12
5.84483e-13
6.28604e-14
5.88781e-14
8.73458e-14
1.35899e-13
2.09275e-13
2.38075e-13
3.14998e-13
4.60673e-13
6.81326e-13
9.7141e-13
1.25823e-12
1.45087e-12
1.59899e-12
1.85696e-12
2.3306e-12
3.08213e-12
4.19608e-12
5.81254e-12
8.13707e-12
1.14458e-11
1.60913e-11
1.4255e-11
8.61736e-12
5.16132e-12
3.06398e-12
1.80385e-12
1.05373e-12
6.11197e-13
3.52381e-13
2.0196e-13
1.15092e-13
6.51821e-14
3.66738e-14
2.04826e-14
1.13666e-14
6.26544e-15
3.42726e-15
1.85889e-15
9.99116e-16
5.31907e-16
2.80279e-16
1.46119e-16
7.53383e-17
3.84085e-17
1.93623e-17
9.65038e-18
4.75512e-18
2.31626e-18
1.1152e-18
5.30562e-19
2.49322e-19
1.1566e-19
5.29299e-20
2.38744e-20
1.0603e-20
4.63091e-21
1.98634e-21
8.35484e-22
3.44027e-22
1.38423e-22
5.43101e-23
2.07289e-23
7.67537e-24
2.7482e-24
9.47846e-25
3.13392e-25
9.8729e-26
2.93951e-26
8.17754e-27
2.08957e-27
4.7678e-28
1.54737e-11
9.32812e-12
5.5767e-12
3.30818e-12
1.94838e-12
1.13936e-12
6.62036e-13
3.82213e-13
2.1936e-13
1.25235e-13
7.10462e-14
4.00067e-14
2.23512e-14
1.23865e-14
6.80663e-15
3.70789e-15
2.00082e-15
1.06878e-15
5.6486e-16
2.95348e-16
1.52761e-16
7.81539e-17
3.95491e-17
1.97924e-17
9.79369e-18
4.79056e-18
2.31596e-18
1.10629e-18
5.21975e-19
2.43144e-19
1.11748e-19
5.0633e-20
2.2596e-20
9.92086e-21
4.27996e-21
1.81168e-21
7.51248e-22
3.0464e-22
1.20572e-22
4.64729e-23
1.74004e-23
6.31039e-24
2.20901e-24
7.43311e-25
2.39176e-25
7.31021e-26
2.10335e-26
5.62555e-27
1.37217e-27
2.95758e-28
1.56342e-11
9.39157e-12
5.59987e-12
3.31617e-12
1.95115e-12
1.14091e-12
6.63004e-13
3.82745e-13
2.19469e-13
1.24949e-13
7.05915e-14
3.95609e-14
2.19816e-14
1.21046e-14
6.60406e-15
3.56861e-15
1.90963e-15
1.01153e-15
5.30187e-16
2.74924e-16
1.41012e-16
7.15337e-17
3.58874e-17
1.78027e-17
8.73074e-18
4.23185e-18
2.02668e-18
9.58599e-19
4.47572e-19
2.06163e-19
9.36153e-20
4.18682e-20
1.84239e-20
7.96777e-21
3.38207e-21
1.407e-21
5.72745e-22
2.27719e-22
8.82503e-23
3.32595e-23
1.21575e-23
4.2969e-24
1.46301e-24
4.77706e-25
1.48745e-25
4.38447e-26
1.21141e-26
3.09386e-27
7.15129e-28
1.44452e-28
1.48103e-11
8.84291e-12
5.24425e-12
3.09019e-12
1.80951e-12
1.05297e-12
6.08639e-13
3.49211e-13
1.98807e-13
1.1227e-13
6.28654e-14
3.48923e-14
1.91906e-14
1.04577e-14
5.64652e-15
3.02014e-15
1.59962e-15
8.38572e-16
4.34908e-16
2.23067e-16
1.13123e-16
5.67119e-17
2.81031e-17
1.37634e-17
6.6607e-18
3.1847e-18
1.50396e-18
7.01214e-19
3.22602e-19
1.4634e-19
6.53989e-20
2.87647e-20
1.2438e-20
5.28086e-21
2.19848e-21
8.9606e-22
3.56952e-22
1.38713e-22
5.24718e-23
1.92742e-23
6.85564e-24
2.3534e-24
7.76603e-25
2.45164e-25
7.35875e-26
2.08346e-26
5.50471e-27
1.33666e-27
2.9148e-28
5.49242e-29
1.30956e-11
7.75478e-12
4.56154e-12
2.66506e-12
1.54613e-12
8.90402e-13
5.08767e-13
2.88283e-13
1.61936e-13
9.01793e-14
4.97889e-14
2.72544e-14
1.47866e-14
7.947e-15
4.22911e-15
2.22784e-15
1.16148e-15
5.99141e-16
3.05711e-16
1.54238e-16
7.69256e-17
3.79249e-17
1.8481e-17
8.90174e-18
4.2374e-18
1.99268e-18
9.25331e-19
4.24068e-19
1.91669e-19
8.53672e-20
3.74323e-20
1.61419e-20
6.83764e-21
2.84133e-21
1.15653e-21
4.60402e-22
1.78939e-22
6.77632e-23
2.49478e-23
8.90636e-24
3.07399e-24
1.02218e-24
3.26087e-25
9.92773e-26
2.86551e-26
7.77436e-27
1.9598e-27
4.51555e-28
9.2748e-29
1.62846e-29
9.89083e-12
5.78836e-12
3.36344e-12
1.93919e-12
1.10862e-12
6.28134e-13
3.52677e-13
1.96276e-13
1.08298e-13
5.92513e-14
3.21392e-14
1.72786e-14
9.20474e-15
4.85731e-15
2.5379e-15
1.31225e-15
6.71239e-16
3.3966e-16
1.70022e-16
8.42026e-17
4.12549e-17
1.99906e-17
9.57848e-18
4.53698e-18
2.1236e-18
9.8178e-19
4.48076e-19
2.01727e-19
8.95152e-20
3.9119e-20
1.68191e-20
7.1066e-21
2.9473e-21
1.19812e-21
4.76728e-22
1.85341e-22
7.027e-23
2.59281e-23
9.28864e-24
3.22222e-24
1.07897e-24
3.47462e-25
1.07128e-25
3.14484e-26
8.72905e-27
2.27016e-27
5.46417e-28
1.19601e-28
2.31756e-29
3.79897e-30
6.48202e-12
3.70321e-12
2.0974e-12
1.17683e-12
6.54471e-13
3.61213e-13
1.97952e-13
1.07667e-13
5.80867e-14
3.10694e-14
1.64736e-14
8.65504e-15
4.5051e-15
2.32308e-15
1.18654e-15
6.00366e-16
3.00904e-16
1.49321e-16
7.33504e-17
3.56599e-17
1.71536e-17
8.16256e-18
3.84114e-18
1.78706e-18
8.21636e-19
3.73109e-19
1.67232e-19
7.39296e-20
3.22072e-20
1.38104e-20
5.82223e-21
2.41033e-21
9.78603e-22
3.89106e-22
1.51283e-22
5.74153e-23
2.12305e-23
7.63226e-24
2.66104e-24
8.97302e-25
2.9167e-25
9.10367e-26
2.71562e-26
7.69712e-27
2.05784e-27
5.13979e-28
1.18378e-28
2.46765e-29
4.52415e-30
6.94919e-31
3.04911e-12
1.675e-12
9.1543e-13
4.98191e-13
2.69714e-13
1.45077e-13
7.74724e-14
4.10589e-14
2.15991e-14
1.12767e-14
5.84328e-15
3.00644e-15
1.53549e-15
7.7793e-16
3.90792e-16
1.94576e-16
9.59965e-17
4.69229e-17
2.27194e-17
1.08942e-17
5.1722e-18
2.43065e-18
1.1301e-18
5.19347e-19
2.35764e-19
1.05653e-19
4.67018e-20
2.03452e-20
8.72701e-21
3.68203e-21
1.52628e-21
6.20837e-22
2.47477e-22
9.65323e-23
3.67879e-23
1.36733e-23
4.94676e-24
1.73816e-24
5.91684e-25
1.94563e-25
6.15916e-26
1.86946e-26
5.41391e-27
1.48687e-27
3.84291e-28
9.2532e-29
2.04743e-29
4.08233e-30
7.12167e-31
1.04091e-31
8.12681e-13
4.34453e-13
2.31425e-13
1.2276e-13
6.48312e-14
3.40853e-14
1.78516e-14
9.31924e-15
4.84265e-15
2.50285e-15
1.28569e-15
6.56163e-16
3.32563e-16
1.67311e-16
8.35277e-17
4.13695e-17
2.0322e-17
9.89204e-18
4.76822e-18
2.27518e-18
1.07424e-18
5.01673e-19
2.31605e-19
1.05633e-19
4.75637e-20
2.11273e-20
9.25021e-21
3.98853e-21
1.69202e-21
7.05466e-22
2.88756e-22
1.15887e-22
4.55413e-23
1.74989e-23
6.56375e-24
2.39915e-24
8.52836e-25
2.94172e-25
9.82131e-26
3.16472e-26
9.81135e-27
2.91667e-27
8.28742e-28
2.24657e-28
5.82526e-29
1.46717e-29
3.76992e-30
1.11228e-30
4.50161e-31
2.74951e-31
7.66218e-14
4.27197e-14
2.37419e-14
1.31284e-14
7.21653e-15
3.94099e-15
2.13701e-15
1.15016e-15
6.14329e-16
3.25584e-16
1.71174e-16
8.92007e-17
4.60243e-17
2.35097e-17
1.18876e-17
5.94941e-18
2.9464e-18
1.44359e-18
6.99554e-19
3.35179e-19
1.58726e-19
7.42581e-20
3.43035e-20
1.56379e-20
7.03029e-21
3.11467e-21
1.35881e-21
5.83248e-22
2.46116e-22
1.0202e-22
4.15197e-23
1.65909e-23
6.51901e-24
2.53086e-24
9.82347e-25
3.90891e-25
1.66552e-25
8.0084e-26
4.46178e-26
2.80854e-26
1.89284e-26
1.30408e-26
8.93741e-27
6.02481e-27
3.98918e-27
2.60709e-27
1.69937e-27
1.12328e-27
7.6683e-28
5.50477e-28
4.04228e-15
2.34967e-15
1.36172e-15
7.84266e-16
4.48013e-16
2.53822e-16
1.42619e-16
7.94222e-17
4.38193e-17
2.39408e-17
1.2946e-17
6.92757e-18
3.66674e-18
1.91954e-18
9.93876e-19
5.09041e-19
2.58009e-19
1.29434e-19
6.43085e-20
3.17106e-20
1.55816e-20
7.68486e-21
3.85158e-21
1.99995e-21
1.10227e-21
6.59241e-22
4.31758e-22
3.06997e-22
2.31077e-22
1.79905e-22
1.42512e-22
1.13368e-22
8.97708e-23
7.0568e-23
5.51072e-23
4.2616e-23
3.26454e-23
2.48925e-23
1.88936e-23
1.43532e-23
1.08796e-23
8.2005e-24
6.10902e-24
4.49006e-24
3.27365e-24
2.38723e-24
1.76044e-24
1.32825e-24
1.03328e-24
8.31753e-25
4.86714e-16
2.75615e-16
1.55133e-16
8.68511e-17
4.84264e-17
2.69482e-17
1.50105e-17
8.40954e-18
4.78132e-18
2.79945e-18
1.72277e-18
1.13957e-18
8.22744e-19
6.48265e-19
5.48964e-19
4.88778e-19
4.48565e-19
4.18281e-19
3.92736e-19
3.69346e-19
3.46884e-19
3.24685e-19
3.0257e-19
2.80462e-19
2.58471e-19
2.36723e-19
2.1533e-19
1.94419e-19
1.7413e-19
1.54602e-19
1.35998e-19
1.18467e-19
1.02123e-19
8.70616e-20
7.33582e-20
6.10663e-20
5.02236e-20
4.07997e-20
3.27269e-20
2.59325e-20
2.03207e-20
1.57495e-20
1.20769e-20
9.17026e-21
6.896e-21
5.13172e-21
3.77928e-21
2.76817e-21
2.02373e-21
1.48009e-21
6.16895e-17
5.15836e-17
4.66118e-17
4.45528e-17
4.40953e-17
4.44671e-17
4.52165e-17
4.60809e-17
4.69094e-17
4.76171e-17
4.81584e-17
4.85117e-17
4.86694e-17
4.86327e-17
4.84072e-17
4.80005e-17
4.74198e-17
4.66709e-17
4.57579e-17
4.46838e-17
4.34515e-17
4.20654e-17
4.05318e-17
3.88604e-17
3.7064e-17
3.51592e-17
3.31651e-17
3.11019e-17
2.89891e-17
2.68455e-17
2.46896e-17
2.25403e-17
2.04184e-17
1.83449e-17
1.6341e-17
1.44264e-17
1.26188e-17
1.09336e-17
9.38265e-18
7.97438e-18
6.71353e-18
5.60064e-18
4.63152e-18
3.79814e-18
3.09073e-18
2.49827e-18
2.00911e-18
1.6111e-18
1.29306e-18
1.0458e-18
1.28228e-15
1.35917e-15
1.4341e-15
1.50652e-15
1.57584e-15
1.64147e-15
1.7028e-15
1.75923e-15
1.81022e-15
1.85531e-15
1.89417e-15
1.92663e-15
1.9527e-15
1.97254e-15
1.9864e-15
1.99454e-15
1.99714e-15
1.99422e-15
1.98558e-15
1.97089e-15
1.94975e-15
1.92178e-15
1.88672e-15
1.84449e-15
1.79522e-15
1.73933e-15
1.67745e-15
1.6103e-15
1.53861e-15
1.46295e-15
1.38381e-15
1.3017e-15
1.21726e-15
1.13125e-15
1.04454e-15
9.58002e-16
8.72549e-16
7.89071e-16
7.08402e-16
6.3129e-16
5.5837e-16
4.90173e-16
4.27126e-16
3.69551e-16
3.17666e-16
2.71561e-16
2.31194e-16
1.9636e-16
1.66725e-16
1.41851e-16
1.77428e-14
1.92275e-14
2.07456e-14
2.22881e-14
2.38442e-14
2.54005e-14
2.69417e-14
2.84505e-14
2.9909e-14
3.12996e-14
3.26077e-14
3.38225e-14
3.49391e-14
3.59588e-14
3.6888e-14
3.77358e-14
3.85098e-14
3.92121e-14
3.98363e-14
4.03677e-14
4.0786e-14
4.10688e-14
4.11959e-14
4.11509e-14
4.09243e-14
4.05151e-14
3.99319e-14
3.91904e-14
3.8307e-14
3.72927e-14
3.61511e-14
3.48827e-14
3.3492e-14
3.19896e-14
3.039e-14
2.87091e-14
2.69649e-14
2.51769e-14
2.33658e-14
2.15517e-14
1.97536e-14
1.79893e-14
1.62765e-14
1.46324e-14
1.30742e-14
1.16174e-14
1.02766e-14
9.06284e-15
7.9831e-15
7.04029e-15
1.40678e-13
1.57012e-13
1.7447e-13
1.93016e-13
2.12574e-13
2.33019e-13
2.54163e-13
2.75759e-13
2.97509e-13
3.19088e-13
3.40176e-13
3.60508e-13
3.79929e-13
3.98427e-13
4.16148e-13
4.33361e-13
4.50375e-13
4.67415e-13
4.84514e-13
5.01457e-13
5.17826e-13
5.33087e-13
5.46697e-13
5.58165e-13
5.67092e-13
5.73235e-13
5.76584e-13
5.77371e-13
5.75942e-13
5.72555e-13
5.67214e-13
5.5972e-13
5.49911e-13
5.37807e-13
5.23541e-13
5.07236e-13
4.89036e-13
4.69133e-13
4.47762e-13
4.25171e-13
4.01588e-13
3.77222e-13
3.52296e-13
3.27084e-13
3.01899e-13
2.77061e-13
2.5297e-13
2.30061e-13
2.08759e-13
1.89417e-13
8.02294e-13
9.21703e-13
1.05487e-12
1.20246e-12
1.36479e-12
1.54153e-12
1.7315e-12
1.93252e-12
2.14135e-12
2.35385e-12
2.56534e-12
2.7714e-12
2.96874e-12
3.15629e-12
3.3359e-12
3.51246e-12
3.69296e-12
3.88439e-12
4.09115e-12
4.31303e-12
4.54553e-12
4.7808e-12
5.01008e-12
5.22511e-12
5.41837e-12
5.58359e-12
5.71773e-12
5.82264e-12
5.90446e-12
5.96979e-12
6.02058e-12
6.05247e-12
6.06008e-12
6.0423e-12
6.0013e-12
5.93777e-12
5.85169e-12
5.74347e-12
5.61438e-12
5.46601e-12
5.29962e-12
5.11502e-12
4.9122e-12
4.69247e-12
4.45829e-12
4.2112e-12
3.95484e-12
3.69525e-12
3.44006e-12
3.19806e-12
3.3052e-12
3.9416e-12
4.68664e-12
5.55361e-12
6.55403e-12
7.69487e-12
8.97534e-12
1.03837e-11
1.18949e-11
1.34697e-11
1.50566e-11
1.65982e-11
1.80424e-11
1.9357e-11
2.05456e-11
2.16571e-11
2.27839e-11
2.40416e-11
2.55312e-11
2.72941e-11
2.93135e-11
3.15098e-11
3.37784e-11
3.60234e-11
3.8156e-11
4.00843e-11
4.17354e-11
4.30953e-11
4.42302e-11
4.5256e-11
4.62449e-11
4.71492e-11
4.78698e-11
4.83836e-11
4.87579e-11
4.90166e-11
4.91543e-11
4.91597e-11
4.90328e-11
4.87798e-11
4.84097e-11
4.78827e-11
4.71567e-11
4.62206e-11
4.50938e-11
4.37473e-11
4.21683e-11
4.03905e-11
3.84853e-11
3.65631e-11
9.91451e-12
1.2527e-11
1.57803e-11
1.98029e-11
2.47283e-11
3.06724e-11
3.77039e-11
4.58111e-11
5.48682e-11
6.46079e-11
7.4612e-11
8.43393e-11
9.32079e-11
1.00733e-10
1.06699e-10
1.11326e-10
1.15371e-10
1.20036e-10
1.26637e-10
1.35916e-10
1.48162e-10
1.62825e-10
1.78896e-10
1.95489e-10
2.11909e-10
2.27305e-10
2.40728e-10
2.51598e-10
2.60218e-10
2.67822e-10
2.75645e-10
2.83409e-10
2.89724e-10
2.94106e-10
2.97974e-10
3.01987e-10
3.06244e-10
3.10589e-10
3.14998e-10
3.19392e-10
3.24047e-10
3.28192e-10
3.30927e-10
3.32031e-10
3.31967e-10
3.30299e-10
3.26326e-10
3.19892e-10
3.11325e-10
3.01262e-10
2.25141e-11
3.12631e-11
4.30264e-11
5.86614e-11
7.91629e-11
1.05535e-10
1.38603e-10
1.78767e-10
2.25736e-10
2.78247e-10
3.33837e-10
3.88844e-10
4.3879e-10
4.79226e-10
5.06954e-10
5.21496e-10
5.26669e-10
5.30815e-10
5.45729e-10
5.7795e-10
6.33355e-10
7.10086e-10
8.00132e-10
8.96283e-10
9.94774e-10
1.09054e-09
1.17579e-09
1.24356e-09
1.29281e-09
1.33158e-09
1.37223e-09
1.41447e-09
1.44346e-09
1.4504e-09
1.45479e-09
1.46686e-09
1.48992e-09
1.52316e-09
1.56801e-09
1.62044e-09
1.68498e-09
1.75202e-09
1.80913e-09
1.85408e-09
1.89444e-09
1.92947e-09
1.95089e-09
1.95389e-09
1.93842e-09
1.90756e-09
9.20848e-29
4.94218e-29
2.62636e-29
1.38172e-29
7.19501e-30
3.70777e-30
1.89053e-30
9.53593e-31
4.75742e-31
2.34707e-31
1.14484e-31
5.52008e-32
2.63051e-32
1.23863e-32
5.76191e-33
2.64741e-33
1.2012e-33
5.38094e-34
2.37933e-34
1.03827e-34
4.47024e-35
1.89859e-35
7.9532e-36
3.28591e-36
1.3395e-36
5.39624e-37
2.15933e-37
8.71378e-38
3.69566e-38
1.80488e-38
1.14433e-38
9.66568e-39
9.82917e-39
1.08516e-38
1.23521e-38
1.42228e-38
1.64657e-38
1.91343e-38
2.23152e-38
2.61267e-38
3.07246e-38
3.63139e-38
4.3166e-38
5.16427e-38
6.22289e-38
7.55794e-38
9.2582e-38
1.14447e-37
1.4283e-37
1.80005e-37
2.291e-37
2.94433e-37
3.81969e-37
4.99967e-37
6.59864e-37
8.77514e-37
1.1749e-36
1.58249e-36
2.14255e-36
2.91363e-36
3.97681e-36
5.44436e-36
7.4715e-36
1.02727e-35
1.41441e-35
1.94941e-35
2.68853e-35
3.7092e-35
5.11787e-35
7.0608e-35
9.73862e-35
1.34264e-34
1.8501e-34
2.54778e-34
3.50617e-34
4.82158e-34
6.62545e-34
9.09706e-34
1.24808e-33
1.71095e-33
2.34363e-33
3.20772e-33
4.38696e-33
5.995e-33
8.18608e-33
1.11692e-32
1.52272e-32
2.07428e-32
2.82327e-32
3.83937e-32
5.21646e-32
7.08073e-32
9.60164e-32
1.30061e-31
1.75975e-31
2.37804e-31
3.20939e-31
4.32532e-31
5.82059e-31
7.82037e-31
1.04895e-30
1.40444e-30
1.87688e-30
2.50327e-30
3.3318e-30
4.42499e-30
5.8637e-30
7.75224e-30
1.02248e-29
1.3453e-29
1.76566e-29
2.31151e-29
3.01833e-29
3.93108e-29
5.1065e-29
6.61593e-29
8.54896e-29
1.10179e-28
1.41631e-28
1.81599e-28
2.3227e-28
2.9637e-28
3.773e-28
4.79306e-28
6.07699e-28
7.69125e-28
9.71936e-28
1.22664e-27
1.5465e-27
1.94832e-27
2.45336e-27
3.08854e-27
3.88802e-27
4.89507e-27
6.16428e-27
7.76426e-27
9.78106e-27
1.23218e-26
1.55192e-26
1.95363e-26
2.45727e-26
3.08704e-26
3.87224e-26
4.84795e-26
6.05615e-26
7.54662e-26
9.37829e-26
1.16208e-25
1.43563e-25
1.76805e-25
2.17061e-25
2.65644e-25
3.2409e-25
3.94183e-25
4.78e-25
5.77953e-25
6.96837e-25
8.37877e-25
1.00478e-24
1.20177e-24
1.43374e-24
1.70623e-24
2.02553e-24
2.39879e-24
2.83404e-24
3.34032e-24
3.9278e-24
4.60774e-24
5.39249e-24
6.2958e-24
7.3329e-24
8.52031e-24
9.87591e-24
1.14184e-23
1.31673e-23
1.51425e-23
1.7365e-23
1.98559e-23
2.26361e-23
2.57253e-23
2.91421e-23
3.29025e-23
3.70198e-23
4.15027e-23
4.6354e-23
5.15703e-23
5.71404e-23
6.30451e-23
6.92549e-23
7.57308e-23
8.24232e-23
8.92712e-23
9.62035e-23
1.03135e-22
1.09974e-22
1.16619e-22
1.22963e-22
1.28895e-22
1.34305e-22
1.39088e-22
1.43143e-22
1.46383e-22
1.48734e-22
1.50138e-22
1.5056e-22
1.49987e-22
1.48426e-22
1.45909e-22
1.42484e-22
1.38215e-22
1.33179e-22
1.27468e-22
1.21179e-22
1.14416e-22
1.07282e-22
9.98801e-23
9.23116e-23
8.46772e-23
7.70733e-23
6.95895e-23
6.23086e-23
5.53057e-23
4.86477e-23
4.23909e-23
3.65799e-23
3.12474e-23
2.64138e-23
2.20872e-23
1.82643e-23
1.49308e-23
1.20629e-23
9.62932e-24
7.59302e-24
5.91313e-24
4.54697e-24
3.45189e-24
2.58677e-24
1.91324e-24
1.3965e-24
1.00586e-24
7.14856e-25
5.0127e-25
3.46807e-25
2.36743e-25
1.59468e-25
1.06008e-25
6.95607e-26
4.507e-26
2.8847e-26
1.82504e-26
1.14225e-26
7.08033e-27
4.35319e-27
2.6601e-27
1.61985e-27
9.86353e-28
6.03165e-28
3.72321e-28
2.33325e-28
1.49301e-28
9.80311e-29
6.62632e-29
4.61524e-29
3.30774e-29
2.4318e-29
1.82666e-29
1.39631e-29
1.08246e-29
8.4879e-30
6.72019e-30
5.36665e-30
4.3207e-30
3.50642e-30
2.86811e-30
2.36387e-30
1.96158e-30
1.63633e-30
1.36879e-30
1.14412e-30
9.51282e-31
7.82583e-31
6.33205e-31
5.00712e-31
3.84412e-31
2.84607e-31
2.01815e-31
1.361e-31
8.66498e-32
5.16735e-32
2.86172e-32
1.45762e-32
6.7523e-33
2.80693e-33
1.0299e-33
3.26513e-34
8.69135e-35
1.86401e-35
3.01871e-36
3.28075e-37
1.79456e-38
5.3056e-29
2.8074e-29
1.47071e-29
7.62652e-30
3.91408e-30
1.98775e-30
9.98733e-31
4.96378e-31
2.43991e-31
1.18592e-31
5.69871e-32
2.70681e-32
1.27062e-32
5.89339e-33
2.70037e-33
1.22209e-33
5.4616e-34
2.40981e-34
1.04957e-34
4.51162e-35
1.91389e-35
8.01388e-36
3.31527e-36
1.35926e-36
5.57522e-37
2.34883e-37
1.08444e-37
6.14336e-38
4.64083e-38
4.44435e-38
4.81825e-38
5.49082e-38
6.37612e-38
7.46484e-38
8.78327e-38
1.03799e-37
1.23232e-37
1.47052e-37
1.7649e-37
2.13189e-37
2.59367e-37
3.18026e-37
3.93255e-37
4.90651e-37
6.17905e-37
7.85617e-37
1.00845e-36
1.3067e-36
1.70856e-36
2.25323e-36
2.99521e-36
4.0104e-36
5.40448e-36
7.32461e-36
9.97569e-36
1.36428e-35
1.87225e-35
2.57658e-35
3.55375e-35
4.90988e-35
6.79196e-35
9.40343e-35
1.30254e-34
1.80461e-34
2.50004e-34
3.46256e-34
4.79354e-34
6.63226e-34
9.16984e-34
1.26683e-33
1.74866e-33
2.41156e-33
3.32265e-33
4.57351e-33
6.28913e-33
8.63983e-33
1.18575e-32
1.62577e-32
2.2269e-32
3.04736e-32
4.16608e-32
5.69005e-32
7.76402e-32
1.05837e-31
1.44133e-31
1.96091e-31
2.66506e-31
3.61824e-31
4.90696e-31
6.64702e-31
8.99324e-31
1.21521e-30
1.63987e-30
2.20981e-30
2.97336e-30
3.99438e-30
5.35704e-30
7.17195e-30
9.58402e-30
1.27827e-29
1.70148e-29
2.26011e-29
2.9957e-29
3.96188e-29
5.22771e-29
6.88183e-29
9.03768e-29
1.18401e-28
1.54733e-28
2.01711e-28
2.62292e-28
3.40204e-28
4.40133e-28
5.67965e-28
7.31063e-28
9.38618e-28
1.20208e-27
1.53571e-27
1.9572e-27
2.48855e-27
3.15707e-27
3.99665e-27
5.04942e-27
6.36793e-27
8.01778e-27
1.0081e-26
1.26605e-26
1.58861e-26
1.99209e-26
2.49712e-26
3.12973e-26
3.92281e-26
4.91786e-26
6.16711e-26
7.73591e-26
9.70591e-26
1.21785e-25
1.52788e-25
1.916e-25
2.40096e-25
3.00543e-25
3.75676e-25
4.68771e-25
5.83732e-25
7.2519e-25
8.9861e-25
1.11043e-24
1.3682e-24
1.68081e-24
2.05858e-24
2.51363e-24
3.06011e-24
3.71443e-24
4.49575e-24
5.42619e-24
6.53137e-24
7.84069e-24
9.38802e-24
1.12122e-23
1.33576e-23
1.58746e-23
1.88203e-23
2.22597e-23
2.62657e-23
3.09192e-23
3.63111e-23
4.25419e-23
4.97224e-23
5.7974e-23
6.74302e-23
7.8233e-23
9.05351e-23
1.04497e-22
1.20292e-22
1.38094e-22
1.58086e-22
1.80449e-22
2.05365e-22
2.33005e-22
2.63525e-22
2.97056e-22
3.33722e-22
3.73596e-22
4.16707e-22
4.63e-22
5.12341e-22
5.64536e-22
6.19319e-22
6.76334e-22
7.35131e-22
7.95174e-22
8.55833e-22
9.16394e-22
9.76066e-22
1.03396e-21
1.08916e-21
1.14068e-21
1.18756e-21
1.22884e-21
1.26361e-21
1.29105e-21
1.31041e-21
1.32111e-21
1.32275e-21
1.31515e-21
1.29834e-21
1.27259e-21
1.2384e-21
1.19643e-21
1.14755e-21
1.09273e-21
1.03307e-21
9.69706e-22
9.03762e-22
8.36317e-22
7.68384e-22
7.00897e-22
6.34697e-22
5.70507e-22
5.08928e-22
4.50454e-22
3.95479e-22
3.44303e-22
2.97137e-22
2.54102e-22
2.15238e-22
1.80517e-22
1.49843e-22
1.23059e-22
9.99524e-23
8.02659e-23
6.37089e-23
4.99675e-23
3.87163e-23
2.963e-23
2.23937e-23
1.67116e-23
1.23126e-23
8.95529e-24
6.42947e-24
4.55631e-24
3.187e-24
2.20032e-24
1.49949e-24
1.00878e-24
6.7006e-25
4.39532e-25
2.84818e-25
1.82404e-25
1.15518e-25
7.24028e-26
4.49591e-26
2.76981e-26
1.69617e-26
1.03502e-26
6.31373e-27
3.86574e-27
2.38733e-27
1.49532e-27
9.55426e-28
6.25977e-28
4.22136e-28
2.93484e-28
2.10208e-28
1.54707e-28
1.1656e-28
8.95482e-29
6.99015e-29
5.52874e-29
4.42204e-29
3.57223e-29
2.91256e-29
2.39582e-29
1.98748e-29
1.66157e-29
1.39814e-29
1.18166e-29
1.00005e-29
8.44105e-30
7.0714e-30
5.84711e-30
4.74353e-30
3.75202e-30
2.87505e-30
2.12041e-30
1.49525e-30
1.00131e-30
6.32245e-31
3.7354e-31
2.04767e-31
1.03161e-31
4.72376e-32
1.93999e-32
7.02909e-33
2.19977e-33
5.77823e-34
1.22256e-34
1.95283e-35
2.09295e-36
1.12881e-37
2.38435e-29
1.24328e-29
6.418e-30
3.2794e-30
1.65837e-30
8.29837e-31
4.10823e-31
2.01185e-31
9.74401e-32
4.66668e-32
2.20967e-32
1.03423e-32
4.78401e-33
2.18665e-33
9.87405e-34
4.40416e-34
1.94007e-34
8.43983e-35
3.62651e-35
1.5405e-35
6.4877e-36
2.7317e-36
1.17722e-36
5.50086e-37
3.09513e-37
2.29461e-37
2.17151e-37
2.35512e-37
2.70551e-37
3.17863e-37
3.77199e-37
4.50387e-37
5.40672e-37
6.52672e-37
7.92678e-37
9.69198e-37
1.19377e-36
1.48211e-36
1.85574e-36
2.34427e-36
2.98856e-36
3.84519e-36
4.99273e-36
6.54047e-36
8.64068e-36
1.15058e-35
1.54324e-35
2.08347e-35
2.82916e-35
3.86114e-35
5.29231e-35
7.28024e-35
1.00447e-34
1.38919e-34
1.92481e-34
2.67061e-34
3.70893e-34
5.15397e-34
7.1639e-34
9.95755e-34
1.38372e-33
1.92199e-33
2.66801e-33
3.70082e-33
5.12901e-33
7.10161e-33
9.82286e-33
1.35723e-32
1.87323e-32
2.5825e-32
3.55626e-32
4.8916e-32
6.72069e-32
9.22329e-32
1.26436e-31
1.73129e-31
2.36803e-31
3.23538e-31
4.41553e-31
6.01954e-31
8.19719e-31
1.11503e-30
1.51505e-30
2.05619e-30
2.78732e-30
3.7738e-30
5.10297e-30
6.89124e-30
9.29333e-30
1.25147e-29
1.68269e-29
2.25885e-29
3.02718e-29
4.04968e-29
5.40747e-29
7.20659e-29
9.58505e-29
1.27218e-28
1.68483e-28
2.2263e-28
2.93495e-28
3.86002e-28
5.06445e-28
6.62834e-28
8.65352e-28
1.1269e-27
1.46379e-27
1.89655e-27
2.45102e-27
3.15949e-27
4.06235e-27
5.20989e-27
6.66468e-27
8.50444e-27
1.08253e-26
1.37461e-26
1.74142e-26
2.2011e-26
2.7761e-26
3.49413e-26
4.38943e-26
5.50445e-26
6.89179e-26
8.61678e-26
1.0761e-25
1.34263e-25
1.67407e-25
2.08645e-25
2.59996e-25
3.23999e-25
4.03846e-25
5.03553e-25
6.28146e-25
7.83895e-25
9.78582e-25
1.22183e-24
1.52547e-24
1.90396e-24
2.37484e-24
2.95927e-24
3.68267e-24