/*--------------------------------*- C++ -*----------------------------------*\
| =========                 |                                                 |
| \\      /  F ield         | OpenFOAM: The Open Source CFD Toolbox           |
|  \\    /   O peration     | Version:  2.4.0                                 |
|   \\  /    A nd           | Web:      www.OpenFOAM.org                      |
|    \\/     M anipulation  |                                                 |
\*---------------------------------------------------------------------------*/
FoamFile
{
    version     2.0;
    format      ascii;
    class       volScalarField;
    location    "2.4";
    object      p_rgh;
}
// * * * * * * * * * * * * * * * * * * * * * * * * * * * * * * * * * * * * * //

dimensions      [1 -1 -2 0 0 0 0];

internalField   nonuniform List<scalar> 
8000
(
27.5558
27.5574
27.5593
27.5613
27.5632
27.5651
27.567
27.5691
27.5711
27.5732
27.5753
27.5775
27.5797
27.5819
27.5841
27.5864
27.5888
27.5911
27.5935
27.5958
27.5982
27.6006
27.6028
27.6047
27.6064
27.6103
27.6233
27.6399
27.5897
27.3152
14.3619
-0.0105135
-0.0125651
-0.0126418
-0.0126636
-0.01266
-0.0126526
-0.0126463
-0.0126406
-0.0126346
-0.0126282
-0.0126215
-0.0126146
-0.0126076
-0.0126004
-0.0125931
-0.0125857
-0.0125783
-0.0125708
-0.0125633
28.8921
28.8938
28.8957
28.8975
28.8993
28.901
28.9026
28.9042
28.9058
28.9073
28.9088
28.9102
28.9115
28.9129
28.9141
28.9153
28.9165
28.9176
28.9187
28.9197
28.9207
28.9216
28.9225
28.9228
28.9231
28.9259
28.9393
28.9577
28.9025
28.5903
16.8858
-0.0126985
-0.0128791
-0.012987
-0.0130087
-0.0130057
-0.0130012
-0.0129985
-0.0129965
-0.0129943
-0.0129917
-0.012989
-0.012986
-0.0129829
-0.0129796
-0.0129761
-0.0129725
-0.0129687
-0.0129648
-0.0129608
30.2429
30.2446
30.2465
30.2484
30.2503
30.2522
30.2541
30.256
30.258
30.2599
30.2619
30.2639
30.2659
30.268
30.2701
30.2722
30.2743
30.2764
30.2786
30.2809
30.2832
30.2855
30.2879
30.2899
30.2918
30.2965
30.3114
30.3312
30.2786
29.9753
17.8168
-0.0135033
-0.0132555
-0.0133678
-0.0133907
-0.0133878
-0.0133833
-0.0133809
-0.0133793
-0.0133776
-0.0133757
-0.0133737
-0.0133715
-0.0133693
-0.0133669
-0.0133645
-0.0133619
-0.0133592
-0.0133565
-0.0133537
31.6106
31.6137
31.6172
31.6205
31.6235
31.6262
31.6288
31.6312
31.6334
31.6355
31.6373
31.639
31.6405
31.6419
31.643
31.644
31.6448
31.6455
31.6459
31.6462
31.6463
31.6462
31.6459
31.6451
31.644
31.645
31.6538
31.6647
31.614
31.3668
15.1687
-0.0140666
-0.0136942
-0.0138113
-0.0138309
-0.0138275
-0.0138234
-0.0138216
-0.0138204
-0.0138192
-0.0138178
-0.0138162
-0.0138146
-0.013813
-0.0138112
-0.0138094
-0.0138074
-0.0138054
-0.0138033
-0.0138011
32.9046
32.9089
32.9133
32.9171
32.9206
32.9237
32.9265
32.929
32.9312
32.9331
32.9347
32.9361
32.9371
32.9378
32.9382
32.9384
32.9382
32.9377
32.9368
32.9357
32.9342
32.9324
32.9301
32.9273
32.9246
32.9242
32.9278
32.9195
32.8414
32.6606
6.26881
-0.0144208
-0.0140858
-0.0141885
-0.0142024
-0.014199
-0.0141956
-0.014194
-0.014193
-0.0141919
-0.0141907
-0.0141894
-0.0141881
-0.0141867
-0.0141853
-0.0141838
-0.0141823
-0.0141807
-0.014179
-0.0141774
34.4592
34.4617
34.4648
34.4678
34.4705
34.473
34.4753
34.4775
34.4794
34.4812
34.4828
34.4842
34.4854
34.4865
34.4873
34.488
34.4886
34.4889
34.4891
34.4892
34.4891
34.4888
34.488
34.487
34.489
34.5014
34.518
34.4576
34.1395
26.8715
0.16764
-0.0148304
-0.0146459
-0.0147018
-0.0147213
-0.0147219
-0.0147198
-0.0147188
-0.0147182
-0.0147176
-0.0147168
-0.0147158
-0.0147146
-0.0147133
-0.0147118
-0.0147102
-0.0147084
-0.0147065
-0.0147045
-0.0147024
35.7578
35.7614
35.7649
35.768
35.7707
35.7733
35.7758
35.778
35.7801
35.782
35.7837
35.7853
35.7866
35.7877
35.7885
35.7892
35.7895
35.7897
35.7895
35.789
35.788
35.7859
35.7831
35.7845
35.8016
35.827
35.7386
35.2452
32.2828
5.20241
-0.0101258
-0.0149633
-0.0150073
-0.0150238
-0.0150251
-0.0150232
-0.0150217
-0.0150208
-0.0150199
-0.015019
-0.015018
-0.0150169
-0.0150157
-0.0150145
-0.0150133
-0.015012
-0.0150106
-0.0150091
-0.0150076
-0.015006
37.4121
37.4191
37.4269
37.4338
37.4398
37.4448
37.4492
37.4528
37.4556
37.4577
37.4589
37.4594
37.459
37.4577
37.4555
37.4524
37.4482
37.4429
37.4364
37.4283
37.4181
37.407
37.4018
37.4131
37.4115
37.2242
36.5499
31.7109
7.34042
0.222395
-0.0147853
-0.0156872
-0.0157174
-0.0157194
-0.0157192
-0.0157188
-0.0157181
-0.0157168
-0.0157151
-0.0157128
-0.0157101
-0.015707
-0.0157035
-0.0156997
-0.0156955
-0.0156911
-0.0156863
-0.0156814
-0.0156762
-0.0156708
38.7139
38.7131
38.7116
38.7108
38.7111
38.7124
38.7146
38.7179
38.7219
38.727
38.7329
38.7399
38.7478
38.7568
38.7668
38.7781
38.7904
38.8041
38.8181
38.833
38.8524
38.893
38.9596
38.9447
38.4715
37.1574
27.0408
5.54182
0.365125
-0.00368191
-0.0156603
-0.0158944
-0.0159131
-0.0159156
-0.0159164
-0.0159155
-0.0159137
-0.0159112
-0.015908
-0.0159045
-0.0159006
-0.0158965
-0.0158921
-0.0158876
-0.015883
-0.0158783
-0.0158737
-0.0158689
-0.0158641
-0.0158598
40.9416
40.931
40.9231
40.9192
40.9184
40.9204
40.9251
40.9326
40.9427
40.9557
40.9715
40.9902
41.0117
41.0365
41.0643
41.0955
41.1295
41.1665
41.2083
41.265
41.3463
41.4056
41.2189
40.3138
36.7839
15.8381
2.31262
0.137092
-0.0200949
-0.0166355
-0.016928
-0.0171799
-0.0171967
-0.0171422
-0.017091
-0.0170496
-0.0170123
-0.0169764
-0.0169417
-0.0169084
-0.0168765
-0.0168461
-0.0168169
-0.0167891
-0.0167624
-0.0167369
-0.0167126
-0.0166893
-0.0166671
-0.0166454
40.9351
40.9603
40.9851
41.0053
41.0215
41.0343
41.0442
41.0509
41.0547
41.0553
41.053
41.0474
41.0391
41.0272
41.0123
40.9925
40.9696
40.949
40.9514
40.9704
40.8412
39.9637
37.928
24.4221
4.27526
0.261893
-0.0225824
-0.0130972
-0.0167007
-0.0169094
-0.0169053
-0.0168806
-0.0168699
-0.0168654
-0.016861
-0.0168555
-0.0168497
-0.0168434
-0.0168335
-0.0168232
-0.0168127
-0.0168021
-0.0167913
-0.0167805
-0.0167697
-0.016759
-0.0167484
-0.0167379
-0.0167276
-0.0167174
42.6011
42.6249
42.6486
42.6675
42.6823
42.6932
42.7009
42.7049
42.7057
42.7025
42.6961
42.6855
42.6713
42.6516
42.6278
42.604
42.5978
42.6132
42.536
41.8056
39.6631
30.7097
7.08626
-0.0926767
-0.00827241
0.00316014
-0.0162717
-0.0163376
-0.0162365
-0.0162356
-0.0162631
-0.0162892
-0.0163121
-0.0163339
-0.0163555
-0.0163769
-0.0163976
-0.0164181
-0.0164413
-0.0164642
-0.0164866
-0.0165084
-0.0165296
-0.0165501
-0.0165698
-0.0165887
-0.0166067
-0.0166237
-0.0166396
-0.0166543
45.3554
45.341
45.3275
45.3172
45.3093
45.3033
45.299
45.2962
45.2948
45.2946
45.2952
45.2958
45.2971
45.3058
45.3382
45.3969
45.3476
44.5286
42.0952
33.8021
9.75098
-0.375247
0.0900997
-0.0135778
-0.0203306
-0.0197878
-0.0200203
-0.0200497
-0.0198474
-0.0196469
-0.0194726
-0.019317
-0.0191748
-0.0190445
-0.0189251
-0.0188157
-0.0187153
-0.0186228
-0.0185376
-0.0184588
-0.0183859
-0.0183185
-0.0182558
-0.0181957
-0.0181385
-0.018085
-0.0180352
-0.0179886
-0.017945
-0.0179044
46.6631
46.6476
46.6335
46.6265
46.6271
46.6347
46.6488
46.669
46.6952
46.7278
46.7704
46.8297
46.9121
46.9905
46.8986
45.6447
42.3027
31.7193
6.25751
0.449844
0.533618
-0.0194268
-0.0118779
-0.0136221
-0.0145236
-0.0147174
-0.0148058
-0.0149365
-0.0150809
-0.0152191
-0.0153474
-0.0154675
-0.0155807
-0.0156876
-0.0157885
-0.0158852
-0.0159786
-0.0160673
-0.0161514
-0.0162312
-0.0163069
-0.0163786
-0.0164466
-0.0165128
-0.0165768
-0.0166376
-0.0166952
-0.0167497
-0.0168015
-0.0168506
48.3466
48.3721
48.4116
48.461
48.5209
48.5901
48.6698
48.7591
48.8672
49.0133
49.2166
49.336
48.84
46.0122
42.5273
25.7909
-0.646912
-0.439652
0.0276732
-0.00985797
-0.00547119
-0.01702
-0.0169473
-0.0167466
-0.0168224
-0.0169952
-0.0171572
-0.0172918
-0.0174052
-0.0175024
-0.0175863
-0.017659
-0.0177225
-0.0177785
-0.0178275
-0.0178691
-0.0179037
-0.0179337
-0.0179599
-0.0179825
-0.0180019
-0.0180185
-0.0180326
-0.0180444
-0.0180541
-0.0180621
-0.0180685
-0.0180734
-0.018077
-0.0180794
45.8311
45.9082
45.9949
46.083
46.1737
46.2727
46.3996
46.5872
46.7796
46.5164
43.9729
38.1398
37.0388
8.76147
-1.00527
0.478318
-0.0272308
-0.0141293
-0.0160565
-0.0189031
-0.0191482
-0.0188342
-0.0186137
-0.0185616
-0.0185617
-0.0185626
-0.0185596
-0.0185548
-0.018549
-0.0185419
-0.0185337
-0.0185245
-0.0185146
-0.0185042
-0.0184942
-0.0184858
-0.0184784
-0.0184719
-0.018466
-0.0184609
-0.0184563
-0.0184521
-0.0184484
-0.0184449
-0.0184418
-0.0184389
-0.0184361
-0.0184335
-0.0184309
-0.0184285
45.3836
45.4105
45.4361
45.4593
45.5092
45.6478
45.7291
44.8639
41.335
38.028
13.7389
-1.42323
-0.731768
-0.0201501
-0.0078852
-0.0141534
-0.0227711
-0.0225832
-0.0219959
-0.0215944
-0.0212942
-0.0210346
-0.0208265
-0.0206493
-0.0204985
-0.0203719
-0.0202662
-0.0201773
-0.0201013
-0.0200353
-0.0199771
-0.019925
-0.0198778
-0.0198346
-0.0197945
-0.0197561
-0.0197194
-0.0196842
-0.0196503
-0.0196175
-0.0195857
-0.0195549
-0.0195248
-0.0194956
-0.019467
-0.0194392
-0.0194119
-0.0193853
-0.0193592
-0.0193337
41.6791
41.5948
41.5025
41.4928
41.5472
40.936
37.6577
31.4747
2.18629
0.13333
0.667499
-0.036165
-0.00729462
-0.01892
-0.0207097
-0.0211559
-0.0209301
-0.0208894
-0.0209292
-0.0209735
-0.0209939
-0.0209913
-0.020975
-0.0209501
-0.0209193
-0.0208841
-0.0208458
-0.020805
-0.0207625
-0.0207189
-0.0206746
-0.0206298
-0.0205845
-0.0205393
-0.0204943
-0.0204496
-0.0204054
-0.0203616
-0.0203184
-0.0202758
-0.0202339
-0.0201928
-0.0201523
-0.0201126
-0.0200737
-0.0200356
-0.0199982
-0.0199616
-0.0199258
-0.0198907
47.4563
47.3341
47.238
47.1185
46.5257
44.7075
33.6047
-0.0888679
0.167765
-0.0043427
-0.00286678
-0.0170686
-0.0191763
-0.0193048
-0.0194062
-0.0196762
-0.0200012
-0.0202754
-0.0204821
-0.0206397
-0.0207613
-0.0208542
-0.0209239
-0.0209745
-0.0210093
-0.0210312
-0.0210423
-0.0210447
-0.0210397
-0.0210285
-0.0210122
-0.0209916
-0.0209682
-0.0209422
-0.0209138
-0.0208836
-0.020852
-0.0208191
-0.0207854
-0.0207508
-0.0207157
-0.0206801
-0.0206442
-0.0206081
-0.0205719
-0.0205356
-0.0204994
-0.0204632
-0.0204273
-0.0203915
50.8948
51.0799
51.353
50.4235
44.8445
35.9811
0.303892
-0.0239717
-0.0136056
-0.0208341
-0.0223499
-0.0221962
-0.0219487
-0.0219016
-0.0219952
-0.0221064
-0.0221988
-0.02227
-0.0223233
-0.022361
-0.0223839
-0.0223928
-0.0223886
-0.0223729
-0.0223472
-0.022313
-0.0222716
-0.0222243
-0.0221721
-0.0221161
-0.0220573
-0.0219964
-0.0219335
-0.0218694
-0.0218051
-0.02174
-0.0216745
-0.0216091
-0.0215442
-0.0214799
-0.0214165
-0.0213541
-0.0212927
-0.0212325
-0.0211735
-0.0211157
-0.0210592
-0.0210038
-0.0209498
-0.020897
-0.0125557
-0.0125482
-0.0125407
-0.0125332
-0.0125257
-0.0125183
-0.0125109
-0.0125036
-0.0124963
-0.0124891
-0.0124819
-0.0124749
-0.0124678
-0.0124609
-0.012454
-0.0124472
-0.0124405
-0.0124338
-0.0124272
-0.0124207
-0.0124143
-0.012408
-0.0124017
-0.0123955
-0.0123893
-0.0123833
-0.0123773
-0.0123714
-0.0123656
-0.0123598
-0.0123541
-0.0123485
-0.012343
-0.0123375
-0.0123321
-0.0123268
-0.0123215
-0.0123163
-0.0123112
-0.0123061
-0.0123011
-0.0122962
-0.0122914
-0.0122866
-0.0122818
-0.0122772
-0.0122726
-0.012268
-0.0122636
-0.0122591
-0.0129567
-0.0129525
-0.0129482
-0.0129438
-0.0129393
-0.0129348
-0.0129302
-0.0129255
-0.0129208
-0.0129161
-0.0129113
-0.0129065
-0.0129016
-0.0128968
-0.0128919
-0.012887
-0.0128821
-0.0128772
-0.0128723
-0.0128674
-0.0128625
-0.0128577
-0.0128528
-0.0128479
-0.0128431
-0.0128383
-0.0128335
-0.0128288
-0.0128241
-0.0128194
-0.0128147
-0.01281
-0.0128054
-0.0128009
-0.0127964
-0.0127919
-0.0127875
-0.0127831
-0.0127788
-0.0127745
-0.0127703
-0.0127661
-0.012762
-0.0127579
-0.0127539
-0.0127499
-0.012746
-0.0127421
-0.0127383
-0.0127346
-0.0133508
-0.0133478
-0.0133447
-0.0133416
-0.0133384
-0.0133351
-0.0133318
-0.0133285
-0.0133251
-0.0133216
-0.0133181
-0.0133146
-0.013311
-0.0133075
-0.0133038
-0.0133002
-0.0132966
-0.0132929
-0.0132892
-0.0132855
-0.0132818
-0.0132782
-0.0132745
-0.0132708
-0.0132671
-0.0132635
-0.0132599
-0.0132562
-0.0132526
-0.013249
-0.0132454
-0.0132418
-0.0132382
-0.0132347
-0.0132312
-0.0132277
-0.0132242
-0.0132207
-0.0132173
-0.0132139
-0.0132106
-0.0132073
-0.013204
-0.0132008
-0.0131975
-0.0131944
-0.0131912
-0.0131882
-0.0131851
-0.0131821
-0.0137989
-0.0137965
-0.0137941
-0.0137917
-0.0137891
-0.0137865
-0.0137838
-0.013781
-0.0137782
-0.0137753
-0.0137724
-0.0137694
-0.0137664
-0.0137633
-0.0137601
-0.013757
-0.0137537
-0.0137505
-0.0137472
-0.0137438
-0.0137405
-0.0137371
-0.0137337
-0.0137304
-0.0137271
-0.0137237
-0.0137204
-0.0137171
-0.0137138
-0.0137105
-0.0137072
-0.0137039
-0.0137007
-0.0136974
-0.0136942
-0.013691
-0.0136878
-0.0136846
-0.0136815
-0.0136784
-0.0136753
-0.0136723
-0.0136693
-0.0136663
-0.0136634
-0.0136605
-0.0136577
-0.0136549
-0.0136522
-0.0136496
-0.0141756
-0.0141738
-0.014172
-0.0141701
-0.0141682
-0.0141662
-0.0141642
-0.0141622
-0.0141601
-0.0141579
-0.0141558
-0.0141536
-0.0141514
-0.0141492
-0.0141469
-0.0141446
-0.0141423
-0.01414
-0.0141379
-0.0141358
-0.0141336
-0.0141313
-0.014129
-0.0141266
-0.0141242
-0.0141218
-0.0141194
-0.0141169
-0.0141145
-0.0141121
-0.0141097
-0.0141074
-0.014105
-0.0141027
-0.0141003
-0.014098
-0.0140957
-0.0140935
-0.0140912
-0.014089
-0.0140868
-0.0140847
-0.0140825
-0.0140804
-0.0140783
-0.0140763
-0.0140742
-0.0140723
-0.0140703
-0.0140684
-0.0147001
-0.0146977
-0.0146953
-0.0146927
-0.01469
-0.0146872
-0.0146843
-0.0146814
-0.0146783
-0.0146752
-0.014672
-0.0146688
-0.0146655
-0.0146622
-0.0146585
-0.0146549
-0.0146514
-0.0146479
-0.0146441
-0.0146404
-0.0146368
-0.0146331
-0.0146295
-0.0146259
-0.0146223
-0.0146187
-0.0146151
-0.0146116
-0.0146081
-0.0146045
-0.0146011
-0.0145976
-0.0145942
-0.0145908
-0.0145875
-0.0145842
-0.0145809
-0.0145777
-0.0145746
-0.0145715
-0.0145685
-0.0145655
-0.0145626
-0.0145597
-0.014557
-0.0145542
-0.0145516
-0.014549
-0.0145465
-0.0145442
-0.0150044
-0.0150027
-0.015001
-0.0149992
-0.0149974
-0.0149956
-0.0149937
-0.0149917
-0.0149897
-0.0149877
-0.0149861
-0.0149844
-0.0149825
-0.0149805
-0.0149786
-0.0149767
-0.0149746
-0.0149725
-0.0149704
-0.0149683
-0.0149661
-0.014964
-0.0149619
-0.0149598
-0.0149577
-0.0149556
-0.0149536
-0.0149516
-0.0149496
-0.0149477
-0.0149457
-0.0149439
-0.014942
-0.0149402
-0.0149384
-0.0149367
-0.0149349
-0.0149333
-0.0149316
-0.01493
-0.0149285
-0.014927
-0.0149255
-0.0149241
-0.0149227
-0.0149213
-0.01492
-0.0149188
-0.0149176
-0.0149164
-0.0156652
-0.0156594
-0.0156536
-0.0156476
-0.0156416
-0.0156348
-0.0156281
-0.0156215
-0.0156151
-0.0156087
-0.0156019
-0.0155952
-0.0155886
-0.0155822
-0.0155758
-0.0155695
-0.0155633
-0.0155571
-0.015551
-0.0155449
-0.0155389
-0.0155329
-0.0155271
-0.0155213
-0.0155156
-0.01551
-0.0155045
-0.0154991
-0.0154938
-0.0154885
-0.0154834
-0.0154784
-0.0154735
-0.0154687
-0.0154641
-0.0154595
-0.015455
-0.0154507
-0.0154465
-0.0154424
-0.0154384
-0.0154345
-0.0154308
-0.0154272
-0.0154236
-0.0154203
-0.015417
-0.0154138
-0.0154108
-0.0154081
-0.0158552
-0.0158505
-0.0158456
-0.0158406
-0.0158356
-0.0158313
-0.0158269
-0.0158224
-0.015818
-0.0158135
-0.0158091
-0.0158049
-0.0158007
-0.0157966
-0.0157926
-0.0157888
-0.015785
-0.0157814
-0.0157779
-0.0157746
-0.0157713
-0.0157681
-0.0157651
-0.0157622
-0.0157594
-0.0157567
-0.0157541
-0.0157516
-0.0157492
-0.0157469
-0.0157447
-0.0157427
-0.0157407
-0.0157388
-0.015737
-0.0157352
-0.0157336
-0.0157321
-0.0157306
-0.0157292
-0.0157279
-0.0157267
-0.0157256
-0.0157246
-0.0157236
-0.0157227
-0.0157219
-0.0157212
-0.0157206
-0.0157199
-0.0166249
-0.0166054
-0.016587
-0.0165696
-0.016553
-0.0165364
-0.0165207
-0.0165058
-0.0164916
-0.0164781
-0.0164651
-0.0164526
-0.0164406
-0.0164291
-0.0164181
-0.0164074
-0.0163972
-0.0163874
-0.0163779
-0.0163687
-0.01636
-0.0163515
-0.0163433
-0.0163354
-0.0163278
-0.0163205
-0.0163134
-0.0163066
-0.0163
-0.0162936
-0.0162875
-0.0162816
-0.0162758
-0.0162703
-0.016265
-0.0162598
-0.0162549
-0.0162501
-0.0162455
-0.016241
-0.0162368
-0.0162327
-0.0162287
-0.0162249
-0.0162213
-0.0162178
-0.0162144
-0.0162112
-0.0162082
-0.0162055
-0.0167075
-0.0166977
-0.0166881
-0.0166787
-0.0166694
-0.016661
-0.0166527
-0.0166444
-0.0166363
-0.0166283
-0.0166199
-0.0166117
-0.0166038
-0.0165962
-0.0165889
-0.0165819
-0.0165752
-0.0165689
-0.0165628
-0.016557
-0.0165515
-0.0165463
-0.0165413
-0.0165366
-0.0165321
-0.0165278
-0.0165238
-0.01652
-0.0165163
-0.0165129
-0.0165097
-0.0165067
-0.0165039
-0.0165013
-0.0164988
-0.0164965
-0.0164944
-0.0164925
-0.0164907
-0.016489
-0.0164875
-0.0164862
-0.016485
-0.0164839
-0.016483
-0.0164822
-0.0164816
-0.0164811
-0.0164807
-0.0164803
-0.0166677
-0.0166795
-0.0166911
-0.0167025
-0.0167136
-0.0167245
-0.016735
-0.0167451
-0.0167548
-0.0167642
-0.0167738
-0.0167831
-0.0167918
-0.0168002
-0.0168081
-0.0168158
-0.0168231
-0.0168304
-0.0168378
-0.0168455
-0.0168528
-0.0168592
-0.0168648
-0.0168698
-0.0168743
-0.0168782
-0.0168818
-0.0168849
-0.0168877
-0.0168902
-0.0168923
-0.0168942
-0.0168957
-0.0168971
-0.0168983
-0.0168992
-0.0169
-0.0169006
-0.0169011
-0.0169015
-0.0169017
-0.0169018
-0.0169019
-0.0169018
-0.0169017
-0.0169015
-0.0169013
-0.016901
-0.0169007
-0.0169005
-0.0178668
-0.0178321
-0.0177989
-0.017767
-0.0177365
-0.0177072
-0.0176792
-0.0176525
-0.0176269
-0.0176025
-0.0175792
-0.017557
-0.0175358
-0.0175156
-0.0174962
-0.0174777
-0.0174599
-0.0174426
-0.0174256
-0.0174087
-0.0173926
-0.0173778
-0.017364
-0.0173513
-0.0173394
-0.0173283
-0.0173179
-0.0173083
-0.0172993
-0.0172909
-0.0172831
-0.0172758
-0.0172691
-0.0172629
-0.0172571
-0.0172517
-0.0172468
-0.0172423
-0.0172381
-0.0172343
-0.0172308
-0.0172276
-0.0172247
-0.0172222
-0.0172199
-0.0172178
-0.0172161
-0.0172145
-0.0172132
-0.0172122
-0.0168972
-0.0169413
-0.0169831
-0.0170227
-0.0170601
-0.0170954
-0.0171287
-0.0171602
-0.0171898
-0.0172177
-0.0172439
-0.0172685
-0.0172916
-0.0173133
-0.0173335
-0.0173525
-0.0173702
-0.0173866
-0.017402
-0.0174163
-0.0174295
-0.0174419
-0.0174533
-0.0174638
-0.0174736
-0.0174827
-0.017491
-0.0174986
-0.0175056
-0.0175121
-0.017518
-0.0175233
-0.0175282
-0.0175327
-0.0175367
-0.0175404
-0.0175436
-0.0175466
-0.0175493
-0.0175516
-0.0175537
-0.0175556
-0.0175573
-0.0175588
-0.01756
-0.0175612
-0.0175622
-0.017563
-0.0175637
-0.0175644
-0.0180808
-0.0180813
-0.018081
-0.0180799
-0.0180781
-0.0180758
-0.0180729
-0.0180696
-0.0180659
-0.0180619
-0.0180575
-0.018053
-0.0180482
-0.0180432
-0.0180381
-0.0180329
-0.0180276
-0.0180223
-0.018017
-0.0180116
-0.0180063
-0.0180009
-0.0179957
-0.0179905
-0.0179853
-0.0179803
-0.0179754
-0.0179705
-0.0179658
-0.0179612
-0.0179567
-0.0179524
-0.0179482
-0.0179442
-0.0179403
-0.0179365
-0.0179329
-0.0179295
-0.0179262
-0.0179231
-0.0179202
-0.0179174
-0.0179147
-0.0179123
-0.01791
-0.0179079
-0.0179059
-0.0179041
-0.0179025
-0.0179011
-0.018426
-0.0184236
-0.0184212
-0.0184187
-0.0184162
-0.0184136
-0.0184109
-0.0184082
-0.0184054
-0.0184025
-0.0183995
-0.0183964
-0.0183931
-0.0183898
-0.0183864
-0.0183829
-0.0183793
-0.0183756
-0.0183718
-0.0183679
-0.018364
-0.01836
-0.0183559
-0.0183518
-0.0183476
-0.0183434
-0.0183391
-0.0183349
-0.0183306
-0.0183263
-0.018322
-0.0183177
-0.0183134
-0.0183091
-0.0183049
-0.0183007
-0.0182966
-0.0182925
-0.0182884
-0.0182844
-0.0182805
-0.0182767
-0.018273
-0.0182693
-0.0182658
-0.0182624
-0.018259
-0.0182558
-0.0182527
-0.0182497
-0.0193087
-0.0192843
-0.0192603
-0.0192369
-0.0192139
-0.0191914
-0.0191693
-0.0191477
-0.0191266
-0.0191059
-0.0190856
-0.0190658
-0.0190463
-0.0190273
-0.0190087
-0.0189906
-0.0189728
-0.0189554
-0.0189385
-0.0189219
-0.0189057
-0.0188899
-0.0188745
-0.0188595
-0.0188449
-0.0188306
-0.0188167
-0.0188032
-0.0187901
-0.0187773
-0.0187649
-0.0187528
-0.0187411
-0.0187298
-0.0187188
-0.0187081
-0.0186979
-0.0186879
-0.0186783
-0.0186691
-0.0186602
-0.0186516
-0.0186434
-0.0186355
-0.0186279
-0.0186206
-0.0186137
-0.0186072
-0.0186009
-0.018595
-0.0198564
-0.0198228
-0.01979
-0.0197579
-0.0197265
-0.0196958
-0.0196658
-0.0196365
-0.0196078
-0.0195799
-0.0195525
-0.0195258
-0.0194997
-0.0194742
-0.0194494
-0.0194251
-0.0194013
-0.0193782
-0.0193556
-0.0193335
-0.019312
-0.019291
-0.0192705
-0.0192505
-0.019231
-0.0192121
-0.0191936
-0.0191756
-0.019158
-0.0191409
-0.0191243
-0.0191082
-0.0190925
-0.0190772
-0.0190624
-0.0190481
-0.0190341
-0.0190206
-0.0190076
-0.0189949
-0.0189827
-0.0189709
-0.0189595
-0.0189486
-0.018938
-0.0189279
-0.0189181
-0.0189088
-0.0188999
-0.0188913
-0.020356
-0.0203208
-0.0202859
-0.0202514
-0.0202173
-0.0201835
-0.0201502
-0.0201174
-0.020085
-0.0200531
-0.0200217
-0.0199907
-0.0199603
-0.0199304
-0.0199011
-0.0198722
-0.0198439
-0.0198162
-0.0197889
-0.0197623
-0.0197361
-0.0197105
-0.0196854
-0.0196609
-0.0196369
-0.0196135
-0.0195906
-0.0195682
-0.0195464
-0.0195251
-0.0195043
-0.0194841
-0.0194644
-0.0194452
-0.0194265
-0.0194084
-0.0193907
-0.0193736
-0.019357
-0.0193409
-0.0193253
-0.0193102
-0.0192955
-0.0192814
-0.0192678
-0.0192547
-0.0192421
-0.0192299
-0.0192183
-0.0192072
-0.0208454
-0.020795
-0.0207459
-0.0206979
-0.020651
-0.0206053
-0.0205607
-0.0205171
-0.0204746
-0.0204331
-0.0203926
-0.0203531
-0.0203145
-0.0202769
-0.0202401
-0.0202042
-0.0201692
-0.020135
-0.0201017
-0.0200692
-0.0200374
-0.0200065
-0.0199763
-0.0199468
-0.0199181
-0.0198901
-0.0198628
-0.0198363
-0.0198104
-0.0197852
-0.0197607
-0.0197368
-0.0197136
-0.0196911
-0.0196692
-0.0196479
-0.0196272
-0.0196072
-0.0195878
-0.019569
-0.0195508
-0.0195331
-0.0195161
-0.0194996
-0.0194837
-0.0194684
-0.0194536
-0.0194394
-0.0194258
-0.0194126
-0.0122559
-0.0122537
-0.0122516
-0.0122494
-0.0122473
-0.0122452
-0.0122431
-0.012241
-0.012239
-0.0122369
-0.0122348
-0.0122328
-0.0122307
-0.0122287
-0.0122266
-0.0122246
-0.0122226
-0.0122206
-0.0122186
-0.0122166
-0.0122146
-0.0122126
-0.0122107
-0.0122087
-0.0122068
-0.0122048
-0.0122029
-0.012201
-0.0121991
-0.0121972
-0.0121953
-0.0121934
-0.0121916
-0.0121897
-0.0121879
-0.0121861
-0.0121843
-0.0121825
-0.0121807
-0.012179
-0.0121772
-0.0121755
-0.0121738
-0.0121721
-0.0121704
-0.0121687
-0.0121671
-0.0121654
-0.0121638
-0.0121622
-0.0121606
-0.0121591
-0.0121575
-0.012156
-0.0121545
-0.012153
-0.0121515
-0.0121501
-0.0121487
-0.0121473
-0.0121459
-0.0121445
-0.0121432
-0.0121419
-0.0121406
-0.0121394
-0.0121381
-0.0121369
-0.0121357
-0.0121346
-0.0121334
-0.0121323
-0.0121312
-0.0121302
-0.0121292
-0.0121282
-0.0121272
-0.0121263
-0.0121254
-0.0121245
-0.0121237
-0.0121229
-0.0121221
-0.0121214
-0.0121206
-0.01212
-0.0121193
-0.0121187
-0.0121182
-0.0121176
-0.0121172
-0.0121167
-0.0121163
-0.0121159
-0.0121156
-0.0121153
-0.012115
-0.0121148
-0.0121147
-0.0121145
-0.0121145
-0.0121144
-0.0121144
-0.0121145
-0.0121146
-0.0121147
-0.0121149
-0.0121152
-0.0121155
-0.0121158
-0.0121162
-0.0121167
-0.0121172
-0.0121177
-0.0121183
-0.012119
-0.0121197
-0.0121205
-0.0121213
-0.0121222
-0.0121231
-0.0121241
-0.0121252
-0.0121263
-0.0121275
-0.0121287
-0.01213
-0.0121314
-0.0121328
-0.0121343
-0.0121359
-0.0121375
-0.0121392
-0.0121409
-0.0121428
-0.0121447
-0.0121466
-0.0121487
-0.0121508
-0.012153
-0.0121552
-0.0121575
-0.0121599
-0.0121624
-0.012165
-0.0121676
-0.0121703
-0.0121731
-0.012176
-0.0121789
-0.0121819
-0.012185
-0.0121882
-0.0121915
-0.0121949
-0.0121983
-0.0122018
-0.0122054
-0.0122091
-0.0122129
-0.0122168
-0.0122207
-0.0122248
-0.0122289
-0.0122331
-0.0122374
-0.0122419
-0.0122464
-0.0122509
-0.0122556
-0.0122604
-0.0122653
-0.0122703
-0.0122753
-0.0122805
-0.0122857
-0.0122911
-0.0122966
-0.0123021
-0.0123078
-0.0123135
-0.0123194
-0.0123253
-0.0123314
-0.0123375
-0.0123438
-0.0123502
-0.0123566
-0.0123632
-0.0123699
-0.0123767
-0.0123836
-0.0123905
-0.0123976
-0.0124048
-0.0124122
-0.0124196
-0.0124271
-0.0124347
-0.0124425
-0.0124503
-0.0124583
-0.0124663
-0.0124745
-0.0124828
-0.0124912
-0.0124997
-0.0125083
-0.012517
-0.0125258
-0.0125348
-0.0125438
-0.012553
-0.0125623
-0.0125716
-0.0125811
-0.0125907
-0.0126004
-0.0126102
-0.0126202
-0.0126302
-0.0126403
-0.0126506
-0.0126609
-0.0126714
-0.012682
-0.0126927
-0.0127035
-0.0127144
-0.0127254
-0.0127365
-0.0127477
-0.012759
-0.0127704
-0.0127819
-0.0127936
-0.0128053
-0.0128171
-0.012829
-0.0128411
-0.0128532
-0.0128654
-0.0128778
-0.0128902
-0.0129027
-0.0129153
-0.012928
-0.0129408
-0.0129537
-0.0129667
-0.0129798
-0.0129929
-0.0130062
-0.0130195
-0.0130329
-0.0130464
-0.01306
-0.0130737
-0.0130874
-0.0131012
-0.0131151
-0.0131291
-0.0131431
-0.0131572
-0.0131714
-0.0131857
-0.0132
-0.0132143
-0.0132288
-0.0132433
-0.0132578
-0.0132724
-0.013287
-0.0133017
-0.0133165
-0.0133313
-0.0133461
-0.013361
-0.0133759
-0.0133908
-0.0134057
-0.0134207
-0.0134357
-0.0134507
-0.0134658
-0.0134808
-0.0134959
-0.0135109
-0.013526
-0.0135411
-0.0135561
-0.0135711
-0.0135862
-0.0136012
-0.0136161
-0.0136311
-0.013646
-0.0136609
-0.0136758
-0.0136902
-0.012732
-0.0127303
-0.0127285
-0.0127267
-0.012725
-0.0127232
-0.0127215
-0.0127198
-0.012718
-0.0127163
-0.0127145
-0.0127128
-0.0127111
-0.0127094
-0.0127077
-0.0127059
-0.0127042
-0.0127025
-0.0127008
-0.0126992
-0.0126975
-0.0126958
-0.0126941
-0.0126925
-0.0126908
-0.0126892
-0.0126875
-0.0126859
-0.0126843
-0.0126827
-0.0126811
-0.0126795
-0.0126779
-0.0126764
-0.0126748
-0.0126733
-0.0126718
-0.0126702
-0.0126687
-0.0126673
-0.0126658
-0.0126643
-0.0126629
-0.0126615
-0.0126601
-0.0126587
-0.0126573
-0.0126559
-0.0126546
-0.0126533
-0.012652
-0.0126507
-0.0126494
-0.0126482
-0.012647
-0.0126458
-0.0126446
-0.0126434
-0.0126423
-0.0126412
-0.0126401
-0.012639
-0.012638
-0.012637
-0.012636
-0.012635
-0.0126341
-0.0126332
-0.0126323
-0.0126315
-0.0126306
-0.0126299
-0.0126291
-0.0126284
-0.0126277
-0.012627
-0.0126264
-0.0126258
-0.0126252
-0.0126247
-0.0126242
-0.0126237
-0.0126233
-0.0126229
-0.0126226
-0.0126223
-0.012622
-0.0126218
-0.0126216
-0.0126214
-0.0126213
-0.0126212
-0.0126212
-0.0126212
-0.0126213
-0.0126214
-0.0126216
-0.0126218
-0.012622
-0.0126223
-0.0126226
-0.012623
-0.0126235
-0.012624
-0.0126245
-0.0126251
-0.0126257
-0.0126264
-0.0126272
-0.012628
-0.0126289
-0.0126298
-0.0126307
-0.0126318
-0.0126329
-0.012634
-0.0126352
-0.0126365
-0.0126378
-0.0126392
-0.0126406
-0.0126422
-0.0126437
-0.0126454
-0.0126471
-0.0126489
-0.0126507
-0.0126526
-0.0126546
-0.0126566
-0.0126587
-0.0126609
-0.0126632
-0.0126655
-0.0126679
-0.0126704
-0.0126729
-0.0126756
-0.0126783
-0.0126811
-0.0126839
-0.0126868
-0.0126899
-0.0126929
-0.0126961
-0.0126994
-0.0127027
-0.0127061
-0.0127096
-0.0127132
-0.0127169
-0.0127207
-0.0127245
-0.0127284
-0.0127325
-0.0127366
-0.0127408
-0.0127451
-0.0127495
-0.0127539
-0.0127585
-0.0127632
-0.0127679
-0.0127728
-0.0127777
-0.0127827
-0.0127879
-0.0127931
-0.0127985
-0.0128039
-0.0128094
-0.0128151
-0.0128208
-0.0128266
-0.0128326
-0.0128386
-0.0128448
-0.012851
-0.0128574
-0.0128638
-0.0128704
-0.012877
-0.0128838
-0.0128907
-0.0128977
-0.0129048
-0.012912
-0.0129193
-0.0129268
-0.0129343
-0.012942
-0.0129497
-0.0129576
-0.0129656
-0.0129737
-0.0129819
-0.0129902
-0.0129987
-0.0130072
-0.0130159
-0.0130246
-0.0130335
-0.0130425
-0.0130517
-0.0130609
-0.0130703
-0.0130797
-0.0130893
-0.013099
-0.0131088
-0.0131187
-0.0131288
-0.0131389
-0.0131492
-0.0131596
-0.0131701
-0.0131807
-0.0131914
-0.0132023
-0.0132133
-0.0132243
-0.0132355
-0.0132468
-0.0132582
-0.0132698
-0.0132814
-0.0132932
-0.013305
-0.013317
-0.0133291
-0.0133413
-0.0133536
-0.013366
-0.0133785
-0.0133911
-0.0134039
-0.0134167
-0.0134297
-0.0134427
-0.0134559
-0.0134691
-0.0134825
-0.013496
-0.0135095
-0.0135232
-0.0135369
-0.0135508
-0.0135647
-0.0135788
-0.0135929
-0.0136071
-0.0136214
-0.0136358
-0.0136503
-0.0136649
-0.0136796
-0.0136943
-0.0137091
-0.013724
-0.013739
-0.0137541
-0.0137692
-0.0137844
-0.0137997
-0.013815
-0.0138304
-0.0138459
-0.0138615
-0.013877
-0.0138927
-0.0139084
-0.0139242
-0.01394
-0.0139558
-0.0139717
-0.0139876
-0.0140036
-0.0140196
-0.0140356
-0.0140517
-0.0140678
-0.0140839
-0.0141
-0.0141162
-0.0141323
-0.0141485
-0.0141646
-0.0141808
-0.0141969
-0.0142131
-0.0142292
-0.0142453
-0.0142614
-0.0142774
-0.0142934
-0.0143094
-0.0143253
-0.0143413
-0.0143571
-0.0143726
-0.01318
-0.0131786
-0.0131772
-0.0131759
-0.0131746
-0.0131733
-0.0131719
-0.0131706
-0.0131693
-0.0131681
-0.0131668
-0.0131655
-0.0131642
-0.013163
-0.0131617
-0.0131604
-0.0131592
-0.013158
-0.0131567
-0.0131555
-0.0131543
-0.0131531
-0.0131519
-0.0131507
-0.0131496
-0.0131484
-0.0131473
-0.0131461
-0.013145
-0.0131439
-0.0131428
-0.0131417
-0.0131406
-0.0131395
-0.0131385
-0.0131374
-0.0131364
-0.0131354
-0.0131344
-0.0131334
-0.0131325
-0.0131315
-0.0131306
-0.0131297
-0.0131288
-0.0131279
-0.013127
-0.0131262
-0.0131254
-0.0131245
-0.0131238
-0.013123
-0.0131222
-0.0131215
-0.0131208
-0.0131201
-0.0131195
-0.0131188
-0.0131182
-0.0131176
-0.0131171
-0.0131165
-0.013116
-0.0131155
-0.013115
-0.0131146
-0.0131142
-0.0131138
-0.0131135
-0.0131131
-0.0131128
-0.0131126
-0.0131123
-0.0131121
-0.013112
-0.0131118
-0.0131117
-0.0131116
-0.0131116
-0.0131116
-0.0131116
-0.0131117
-0.0131118
-0.0131119
-0.0131121
-0.0131123
-0.0131126
-0.0131128
-0.0131132
-0.0131136
-0.013114
-0.0131144
-0.0131149
-0.0131155
-0.0131161
-0.0131167
-0.0131174
-0.0131181
-0.0131189
-0.0131197
-0.0131206
-0.0131215
-0.0131225
-0.0131235
-0.0131246
-0.0131257
-0.0131269
-0.0131281
-0.0131294
-0.0131307
-0.0131321
-0.0131336
-0.0131351
-0.0131367
-0.0131383
-0.01314
-0.0131418
-0.0131436
-0.0131455
-0.0131475
-0.0131495
-0.0131516
-0.0131537
-0.0131559
-0.0131582
-0.0131606
-0.013163
-0.0131655
-0.0131681
-0.0131707
-0.0131734
-0.0131762
-0.0131791
-0.013182
-0.013185
-0.0131881
-0.0131913
-0.0131945
-0.0131979
-0.0132013
-0.0132048
-0.0132084
-0.013212
-0.0132158
-0.0132196
-0.0132236
-0.0132276
-0.0132317
-0.0132359
-0.0132401
-0.0132445
-0.013249
-0.0132535
-0.0132582
-0.0132629
-0.0132677
-0.0132727
-0.0132777
-0.0132828
-0.0132881
-0.0132934
-0.0132988
-0.0133043
-0.0133099
-0.0133157
-0.0133215
-0.0133274
-0.0133335
-0.0133396
-0.0133459
-0.0133522
-0.0133587
-0.0133652
-0.0133719
-0.0133787
-0.0133856
-0.0133926
-0.0133997
-0.0134069
-0.0134143
-0.0134217
-0.0134293
-0.013437
-0.0134447
-0.0134527
-0.0134607
-0.0134688
-0.0134771
-0.0134854
-0.0134939
-0.0135025
-0.0135112
-0.0135201
-0.013529
-0.0135381
-0.0135473
-0.0135566
-0.013566
-0.0135756
-0.0135853