/*--------------------------------*- C++ -*----------------------------------*\
| =========                 |                                                 |
| \\      /  F ield         | OpenFOAM: The Open Source CFD Toolbox           |
|  \\    /   O peration     | Version:  2.4.0                                 |
|   \\  /    A nd           | Web:      www.OpenFOAM.org                      |
|    \\/     M anipulation  |                                                 |
\*---------------------------------------------------------------------------*/
FoamFile
{
    version     2.0;
    format      ascii;
    class       volScalarField;
    location    "1.8";
    object      alpha1;
}
// * * * * * * * * * * * * * * * * * * * * * * * * * * * * * * * * * * * * * //

dimensions      [0 0 0 0 0 0 0];

internalField   nonuniform List<scalar> 
8000
(
1
1
1
1
1
1
1
1
1
1
1
1
1
1
1
1
1
1
1
0.999999
0.999998
0.999995
0.999988
0.999974
0.999441
0.0962547
8.72691e-08
5.91063e-08
3.16634e-08
1.43162e-08
6.04742e-09
2.446e-09
9.75658e-10
4.05161e-10
1.89826e-10
1.06557e-10
7.04105e-11
5.11927e-11
3.87417e-11
2.96752e-11
2.27552e-11
1.7403e-11
1.32597e-11
1.00617e-11
7.60363e-12
5.72268e-12
4.28984e-12
3.20315e-12
2.38248e-12
1.76521e-12
1
1
1
1
1
1
1
1
1
1
1
1
1
1
1
1
1
1
1
0.999999
0.999997
0.999994
0.999988
0.999993
0.958083
0.0147875
4.57178e-08
4.80281e-08
2.44966e-08
1.099e-08
4.67519e-09
1.94585e-09
8.29682e-10
3.88649e-10
2.13338e-10
1.37782e-10
9.91904e-11
7.51843e-11
5.80386e-11
4.49727e-11
3.47941e-11
2.68298e-11
2.06085e-11
1.57664e-11
1.20135e-11
9.11779e-12
6.89322e-12
5.19161e-12
3.89534e-12
2.91173e-12
1
1
1
1
1
1
1
1
1
1
1
1
1
1
1
1
1
1
1
0.999999
0.999997
0.999993
0.999988
0.999993
0.80011
0.00162947
4.24515e-08
4.03141e-08
1.99307e-08
8.93995e-09
3.8784e-09
1.69878e-09
7.98371e-10
4.29522e-10
2.70365e-10
1.91733e-10
1.44944e-10
1.12446e-10
8.78834e-11
6.86853e-11
5.35384e-11
4.15843e-11
3.21759e-11
2.47993e-11
1.90397e-11
1.45621e-11
1.1096e-11
8.42404e-12
6.37234e-12
4.80281e-12
1
1
1
1
1
1
1
1
1
1
1
1
1
1
1
1
1
1
0.999999
0.999999
0.999996
0.999992
0.999987
0.999983
0.648848
0.000157268
4.14058e-08
3.46011e-08
1.67995e-08
7.61517e-09
3.43097e-09
1.62409e-09
8.59834e-10
5.27214e-10
3.66815e-10
2.75448e-10
2.14156e-10
1.68517e-10
1.32881e-10
1.04599e-10
8.20839e-11
6.41868e-11
5.00057e-11
3.88114e-11
3.0011e-11
2.31214e-11
1.775e-11
1.35789e-11
1.03519e-11
7.86424e-12
1
1
1
1
1
1
1
1
1
1
1
1
1
1
1
1
1
1
0.999999
0.999998
0.999996
0.999991
0.999983
0.999964
0.51341
1.62046e-05
4.38088e-08
3.03009e-08
1.46634e-08
6.83085e-09
3.27278e-09
1.71312e-09
1.02373e-09
6.9624e-10
5.17126e-10
4.01745e-10
3.17739e-10
2.52525e-10
2.00599e-10
1.58956e-10
1.25555e-10
9.88275e-11
7.751e-11
6.05706e-11
4.71638e-11
3.6596e-11
2.82993e-11
2.18105e-11
1.67537e-11
1.2826e-11
1
1
1
1
1
1
1
1
1
1
1
1
1
1
1
1
1
1
0.999999
0.999998
0.999996
0.99999
0.999977
0.999934
0.377752
2.15493e-06
4.35642e-08
2.70433e-08
1.32651e-08
6.48257e-09
3.37782e-09
1.97334e-09
1.30912e-09
9.57806e-10
7.4105e-10
5.87865e-10
4.70331e-10
3.76745e-10
3.01267e-10
2.40243e-10
1.90967e-10
1.51284e-10
1.19429e-10
9.39525e-11
7.36557e-11
5.75498e-11
4.48191e-11
3.47931e-11
2.69238e-11
2.07669e-11
1
1
1
1
1
1
1
1
1
1
1
1
1
1
1
1
1
1
0.999999
0.999998
0.999995
0.999989
0.999971
0.999916
0.260699
3.3103e-07
4.25756e-08
2.49716e-08
1.26484e-08
6.61234e-09
3.79136e-09
2.44958e-09
1.75739e-09
1.34848e-09
1.07009e-09
8.6055e-10
6.94458e-10
5.60054e-10
4.50647e-10
3.61575e-10
2.89199e-10
2.30548e-10
1.83172e-10
1.45038e-10
1.14462e-10
9.00401e-11
7.06076e-11
5.51996e-11
4.3022e-11
3.34264e-11
1
1
1
1
1
1
1
1
1
1
1
1
1
1
1
1
1
1
0.999999
0.999998
0.999995
0.999988
0.999966
0.999928
0.165851
8.09732e-08
4.18715e-08
2.40434e-08
1.28001e-08
7.25227e-09
4.56596e-09
3.1991e-09
2.42286e-09
1.91669e-09
1.54617e-09
1.2556e-09
1.02044e-09
8.28017e-10
6.70224e-10
5.40958e-10
4.35292e-10
3.49147e-10
2.79132e-10
2.22425e-10
1.76669e-10
1.3989e-10
1.10436e-10
8.69282e-11
6.82231e-11
5.33819e-11
1
1
1
1
1
1
1
1
1
1
1
1
1
1
1
1
1
1
0.999999
0.999998
0.999995
0.999988
0.999968
1
0.108707
6.32637e-08
4.2523e-08
2.43877e-08
1.3831e-08
8.51507e-09
5.80888e-09
4.31893e-09
3.39068e-09
2.7359e-09
2.23205e-09
1.82625e-09
1.49331e-09
1.21863e-09
9.91967e-10
8.0523e-10
6.51717e-10
5.25836e-10
4.22918e-10
3.39061e-10
2.70986e-10
2.15931e-10
1.71567e-10
1.35934e-10
1.07398e-10
8.46057e-11
1
1
1
1
1
1
1
1
1
1
1
1
1
1
1
1
1
1
0.999999
0.999998
0.999995
0.999989
0.999976
1
0.10577
1.61705e-07
4.68505e-08
2.60471e-08
1.58439e-08
1.0543e-08
7.66672e-09
5.94458e-09
4.78038e-09
3.90925e-09
3.21574e-09
2.64726e-09
2.17631e-09
1.78529e-09
1.46091e-09
1.19228e-09
9.70289e-10
7.8726e-10
6.36781e-10
5.13471e-10
4.12793e-10
3.30899e-10
2.6452e-10
2.10886e-10
1.67671e-10
1.32939e-10
1
1
1
1
1
1
1
1
1
1
1
1
1
1
1
1
1
1
0.999999
0.999998
0.999995
0.99999
0.999987
1
0.173591
4.1765e-07
6.94276e-08
2.9711e-08
1.9168e-08
1.36215e-08
1.03932e-08
8.29666e-09
6.78071e-09
5.59676e-09
4.63222e-09
3.83212e-09
3.16477e-09
2.60799e-09
2.14411e-09
1.75831e-09
1.43804e-09
1.17271e-09
9.53476e-10
7.72899e-10
6.24696e-10
5.03511e-10
4.04763e-10
3.24543e-10
2.59547e-10
2.07007e-10
1
1
1
1
1
1
1
1
1
1
1
1
1
1
1
1
1
1
0.999999
0.999998
0.999995
0.999991
0.999995
1
0.326583
1.39644e-06
2.17587e-07
3.95893e-08
2.4705e-08
1.82708e-08
1.44003e-08
1.17174e-08
9.67828e-09
8.03846e-09
6.68216e-09
5.54829e-09
4.59826e-09
3.80304e-09
3.13855e-09
2.58418e-09
2.12238e-09
1.73834e-09
1.41971e-09
1.15612e-09
9.38823e-10
7.60346e-10
6.14252e-10
4.95017e-10
3.97944e-10
3.19082e-10
1
1
1
1
1
1
1
1
1
1
1
1
1
1
1
1
1
1
0.999999
0.999998
0.999995
0.999991
0.999996
1
0.546617
7.30174e-06
1.65714e-06
8.54211e-08
3.61827e-08
2.55217e-08
2.03517e-08
1.67386e-08
1.39142e-08
1.16026e-08
9.67295e-09
8.05174e-09
6.68939e-09
5.54674e-09
4.59029e-09
3.79095e-09
3.1237e-09
2.56735e-09
2.10435e-09
1.72004e-09
1.40211e-09
1.14005e-09
9.24769e-10
7.48419e-10
6.04293e-10
4.8673e-10
1
1
1
1
1
1
1
1
1
1
1
1
1
1
1
1
1
1
0.999999
0.999998
0.999996
0.999992
0.999995
1
0.851669
0.00508165
2.3394e-05
3.68914e-07
7.81464e-08
3.88377e-08
2.94351e-08
2.41779e-08
2.01471e-08
1.68332e-08
1.40554e-08
1.17153e-08
9.74506e-09
8.09052e-09
6.70472e-09
5.5463e-09
4.57922e-09
3.77227e-09
3.09978e-09
2.54046e-09
2.07668e-09
1.69343e-09
1.37785e-09
1.11872e-09
9.06386e-10
7.32698e-10
1
1
1
1
1
1
1
1
1
1
1
1
1
1
1
1
1
1
0.999999
0.999998
0.999996
0.999993
0.999995
0.999999
1.00014
0.209519
0.00141745
1.93844e-06
2.96837e-07
7.73224e-08
4.52675e-08
3.56736e-08
2.95707e-08
2.46954e-08
2.06246e-08
1.71942e-08
1.43026e-08
1.1872e-08
9.83496e-09
8.13259e-09
6.7145e-09
5.53356e-09
4.55077e-09
3.7333e-09
3.05465e-09
2.49215e-09
2.02871e-09
1.64912e-09
1.33835e-09
1.08439e-09
1
1
1
1
1
1
1
1
1
1
1
1
1
1
1
1
1
1
0.999999
0.999998
0.999996
0.999994
0.999995
0.999998
1
0.632661
0.00520777
6.62574e-06
5.62806e-07
1.21643e-07
6.52957e-08
5.05444e-08
4.18244e-08
3.49443e-08
2.92029e-08
2.43607e-08
2.02747e-08
1.68363e-08
1.39526e-08
1.15429e-08
9.53444e-09
7.86004e-09
6.46733e-09
5.30917e-09
4.34557e-09
3.54571e-09
2.88949e-09
2.35274e-09
1.91329e-09
1.55346e-09
1
1
1
1
1
1
1
1
1
1
1
1
1
1
1
1
1
1
0.999999
0.999998
0.999997
0.999995
0.999995
0.999997
0.999999
0.969054
0.0337274
0.000320411
7.32127e-07
1.63202e-07
8.82416e-08
6.84374e-08
5.66258e-08
4.72776e-08
3.94906e-08
3.29297e-08
2.7394e-08
2.27342e-08
1.88204e-08
1.5552e-08
1.28406e-08
1.05892e-08
8.71793e-09
7.16171e-09
5.86859e-09
4.79714e-09
3.91256e-09
3.19045e-09
2.59891e-09
2.11401e-09
1
1
1
1
1
1
1
1
1
1
1
1
1
1
1
1
1
1
0.999999
0.999999
0.999997
0.999996
0.999996
0.999997
0.999999
0.999943
0.345433
0.00372852
2.06466e-06
3.05027e-07
1.28578e-07
9.27792e-08
7.57684e-08
6.30848e-08
5.25949e-08
4.3768e-08
3.63328e-08
3.00845e-08
2.48496e-08
2.04921e-08
1.68858e-08
1.38876e-08
1.13986e-08
9.34268e-09
7.64128e-09
6.24855e-09
5.10924e-09
4.17659e-09
3.41335e-09
2.78681e-09
1
1
1
1
1
1
1
1
1
1
1
1
1
1
1
1
1
1
0.999999
0.999999
0.999997
0.999996
0.999996
0.999997
0.999999
1.00001
0.559299
0.00406388
2.3552e-06
3.54545e-07
1.56754e-07
1.14766e-07
9.39419e-08
7.81017e-08
6.49509e-08
5.38966e-08
4.46127e-08
3.68414e-08
3.03473e-08
2.49566e-08
2.0509e-08
1.68445e-08
1.38204e-08
1.13309e-08
9.28553e-09
7.6132e-09
6.24354e-09
5.12085e-09
4.19587e-09
3.43334e-09
1
1
1
1
1
1
1
1
1
1
1
1
1
1
1
1
1
1
0.999999
0.999999
0.999998
0.999997
0.999997
0.999998
0.999999
1
0.588684
0.00428479
2.85085e-06
4.43662e-07
1.84468e-07
1.33682e-07
1.09364e-07
9.07058e-08
7.5146e-08
6.21039e-08
5.12186e-08
4.21594e-08
3.46607e-08
2.84871e-08
2.34057e-08
1.92264e-08
1.58026e-08
1.29953e-08
1.06868e-08
8.7819e-09
7.20764e-09
5.90313e-09
4.82438e-09
3.93532e-09
1.30276e-12
9.57653e-13
7.01123e-13
5.11208e-13
3.71194e-13
2.68409e-13
1.9328e-13
1.38603e-13
9.89822e-14
7.03939e-14
4.98538e-14
3.51586e-14
2.46897e-14
1.72634e-14
1.20182e-14
8.32972e-15
5.74739e-15
3.94764e-15
2.69901e-15
1.83673e-15
1.24403e-15
8.38534e-16
5.62426e-16
3.75316e-16
2.49131e-16
1.64455e-16
1.07925e-16
7.03881e-17
4.56049e-17
2.93418e-17
1.87397e-17
1.18768e-17
7.46763e-18
4.65737e-18
2.88095e-18
1.76752e-18
1.07556e-18
6.49171e-19
3.88629e-19
2.30741e-19
1.35844e-19
7.92772e-20
4.58409e-20
2.62482e-20
1.4872e-20
8.33067e-21
4.60866e-21
2.51484e-21
1.35161e-21
7.14229e-22
2.1682e-12
1.60827e-12
1.18822e-12
8.74358e-13
6.40791e-13
4.67707e-13
3.39987e-13
2.46141e-13
1.77477e-13
1.27448e-13
9.11477e-14
6.49181e-14
4.60441e-14
3.25196e-14
2.28694e-14
1.60132e-14
1.11633e-14
7.74764e-15
5.3529e-15
3.68152e-15
2.52029e-15
1.71722e-15
1.16438e-15
7.85591e-16
5.27273e-16
3.51966e-16
2.33592e-16
1.54082e-16
1.00976e-16
6.57194e-17
4.24642e-17
2.72317e-17
1.73281e-17
1.09393e-17
6.85114e-18
4.25665e-18
2.6237e-18
1.60439e-18
9.73281e-19
5.8566e-19
3.49489e-19
2.06753e-19
1.21197e-19
7.0354e-20
4.04127e-20
2.29504e-20
1.28721e-20
7.12112e-21
3.88022e-21
2.07883e-21
3.60651e-12
2.69797e-12
2.01053e-12
1.49238e-12
1.10339e-12
8.12554e-13
5.96006e-13
4.35439e-13
3.16873e-13
2.29677e-13
1.65812e-13
1.19224e-13
8.53763e-14
6.08857e-14
4.32387e-14
3.05762e-14
2.15291e-14
1.5093e-14
1.05344e-14
7.31999e-15
5.0634e-15
3.48633e-15
2.38912e-15
1.62921e-15
1.10533e-15
7.45888e-16
5.00471e-16
3.33777e-16
2.2118e-16
1.45575e-16
9.51337e-17
6.17121e-17
3.97289e-17
2.538e-17
1.60881e-17
1.01192e-17
6.31575e-18
3.91142e-18
2.40351e-18
1.46519e-18
8.85858e-19
5.30992e-19
3.15389e-19
1.85509e-19
1.07971e-19
6.21275e-20
3.53043e-20
1.97879e-20
1.09236e-20
5.92905e-21
5.95309e-12
4.48993e-12
3.37372e-12
2.52536e-12
1.88306e-12
1.39871e-12
1.03494e-12
7.62831e-13
5.60106e-13
4.0967e-13
2.98475e-13
2.16608e-13
1.56571e-13
1.12718e-13
8.08157e-14
5.77025e-14
4.10268e-14
2.90465e-14
2.04763e-14
1.4372e-14
1.0043e-14
6.98638e-15
4.83753e-15
3.33355e-15
2.28562e-15
1.55883e-15
1.05718e-15
7.12699e-16
4.77429e-16
3.17693e-16
2.09925e-16
1.37713e-16
8.9673e-17
5.79539e-17
3.71726e-17
2.36637e-17
1.49507e-17
9.37445e-18
5.83301e-18
3.60095e-18
2.2049e-18
1.33853e-18
8.0519e-19
4.79639e-19
2.82706e-19
1.64724e-19
9.478e-20
5.37861e-20
3.00598e-20
1.65164e-20
9.78531e-12
7.43906e-12
5.63484e-12
4.2524e-12
3.19713e-12
2.39473e-12
1.78699e-12
1.3285e-12
9.83957e-13
7.26034e-13
5.33693e-13
3.90805e-13
2.85063e-13
2.07113e-13
1.49877e-13
1.08019e-13
7.75324e-14
5.54195e-14
3.94475e-14
2.79596e-14
1.97319e-14
1.3864e-14
9.69698e-15
6.75045e-15
4.67603e-15
3.22216e-15
2.20803e-15
1.50417e-15
1.01828e-15
6.84822e-16
4.57403e-16
3.03344e-16
1.99721e-16
1.30535e-16
8.46906e-17
5.45438e-17
3.48698e-17
2.21269e-17
1.39348e-17
8.70734e-18
5.39672e-18
3.31616e-18
2.0191e-18
1.2173e-18
7.26108e-19
4.2812e-19
2.49239e-19
1.4309e-19
8.08928e-20
4.49546e-20
1.59647e-11
1.22308e-11
9.33712e-12
7.10241e-12
5.3829e-12
4.06482e-12
3.05832e-12
2.29269e-12
1.71247e-12
1.27443e-12
9.44932e-13
6.98011e-13
5.13658e-13
3.76541e-13
2.74948e-13
1.99971e-13
1.44858e-13
1.0451e-13
7.50928e-14
5.37325e-14
3.82864e-14
2.71631e-14
1.91857e-14
1.34884e-14
9.43667e-15
6.56796e-15
4.54626e-15
3.12852e-15
2.13962e-15
1.45382e-15
9.81183e-16
6.57606e-16
4.37627e-16
2.89159e-16
1.89693e-16
1.2355e-16
7.98896e-17
5.12806e-17
3.26704e-17
2.06527e-17
1.29495e-17
8.04954e-18
4.95761e-18
3.02306e-18
1.82362e-18
1.08722e-18
6.39915e-19
3.71362e-19
2.1218e-19
1.19149e-19
2.58873e-11
1.99818e-11
1.53705e-11
1.17819e-11
8.99921e-12
6.84936e-12
5.19465e-12
3.92577e-12
2.95634e-12
2.21838e-12
1.65864e-12
1.23561e-12
9.17061e-13
6.78076e-13
4.99456e-13
3.66466e-13
2.67836e-13
1.94979e-13
1.41375e-13
1.02094e-13
7.34239e-14
5.25824e-14
3.74924e-14
2.66108e-14
1.87965e-14
1.3209e-14
9.232e-15
6.41516e-15
4.43059e-15
3.0404e-15
2.07259e-15
1.40324e-15
9.43503e-16
6.29969e-16
4.17683e-16
2.74987e-16
1.79757e-16
1.16656e-16
7.5142e-17
4.80258e-17
3.0444e-17
1.91308e-17
1.19097e-17
7.33972e-18
4.47405e-18
2.69489e-18
1.60219e-18
9.39002e-19
5.4169e-19
3.0705e-19
4.1639e-11
3.2374e-11
2.50863e-11
1.93727e-11
1.49089e-11
1.14339e-11
8.73874e-12
6.65587e-12
5.05198e-12
3.82127e-12
2.88022e-12
2.16318e-12
1.61876e-12
1.20689e-12
8.96459e-13
6.63356e-13
4.88991e-13
3.5907e-13
2.62642e-13
1.91353e-13
1.38853e-13
1.0034e-13
7.21976e-14
5.17142e-14
3.68655e-14
2.6147e-14
1.84449e-14
1.2937e-14
9.01909e-15
6.24804e-15
4.30016e-15
2.93981e-15
1.99621e-15
1.34624e-15
9.01682e-16
5.9975e-16
3.96122e-16
2.59749e-16
1.69056e-16
1.0917e-16
6.99157e-17
4.43812e-17
2.79055e-17
1.73666e-17
1.0688e-17
6.49823e-18
3.89873e-18
2.30524e-18
1.34127e-18
7.66583e-19
6.64489e-11
5.2024e-11
4.05976e-11
3.15753e-11
2.44754e-11
1.89082e-11
1.45582e-11
1.11714e-11
8.54372e-12
6.51192e-12
4.94627e-12
3.74392e-12
2.82378e-12
2.1221e-12
1.58894e-12
1.18533e-12
8.80944e-13
6.52259e-13
4.81103e-13
3.53492e-13
2.58706e-13
1.88566e-13
1.3686e-13
9.88884e-14
7.11138e-14
5.08823e-14
3.62113e-14
2.56238e-14
1.80235e-14
1.25985e-14
8.74994e-15
6.0372e-15
4.13786e-15
2.81709e-15
1.90496e-15
1.27936e-15
8.53222e-16
5.64932e-16
3.71248e-16
2.42041e-16
1.56479e-16
1.00254e-16
6.36113e-17
3.99394e-17
2.47922e-17
1.51996e-17
9.19282e-18
5.47757e-18
3.21058e-18
1.84777e-18
1.05091e-10
8.28222e-11
6.5064e-11
5.09472e-11
3.97623e-11
3.09311e-11
2.39826e-11
1.85342e-11
1.42765e-11
1.09605e-11
8.38636e-12
6.39482e-12
4.85925e-12
3.67934e-12
2.77595e-12
2.08678e-12
1.56299e-12
1.16637e-12
8.67158e-13
6.42274e-13
4.7387e-13
3.48221e-13
2.54816e-13
1.85639e-13
1.34605e-13
9.71101e-14
6.96852e-14
4.97226e-14
3.52682e-14
2.48617e-14
1.7415e-14
1.21201e-14
8.3801e-15
5.75599e-15
3.92722e-15
2.66129e-15
1.79085e-15
1.1964e-15
7.93204e-16
5.21668e-16
3.40148e-16
2.19753e-16
1.40565e-16
8.89487e-17
5.56311e-17
3.43524e-17
2.0919e-17
1.25453e-17
7.3977e-18
4.28132e-18
1.64634e-10
1.30543e-10
1.0319e-10
8.13097e-11
6.38637e-11
5.00005e-11
3.90217e-11
3.03564e-11
2.35397e-11
1.81945e-11
1.40168e-11
1.0762e-11
8.23482e-12
6.2792e-12
4.77119e-12
3.6125e-12
2.72545e-12
2.04882e-12
1.53459e-12
1.14517e-12
8.5132e-13
6.30369e-13
4.64822e-13
3.41239e-13
2.49334e-13
1.81268e-13
1.3108e-13
9.42542e-14
6.73753e-14
4.78682e-14
3.37966e-14
2.37099e-14
1.65266e-14
1.14446e-14
7.87275e-15
5.37895e-15
3.64932e-15
2.45773e-15
1.64243e-15
1.08859e-15
7.15165e-16
4.65402e-16
2.99778e-16
1.90962e-16
1.20187e-16
7.46547e-17
4.57107e-17
2.75505e-17
1.63187e-17
9.48099e-18
2.55148e-10
2.03434e-10
1.61713e-10
1.28151e-10
1.01238e-10
7.97279e-11
6.25934e-11
4.89887e-11
3.82211e-11
2.97256e-11
2.30439e-11
1.78053e-11
1.37115e-11
1.0523e-11
8.04824e-12
6.13415e-12
4.65899e-12
3.52617e-12
2.65931e-12
1.99828e-12
1.49594e-12
1.11549e-12
8.28352e-13
6.12416e-13
4.50638e-13
3.2993e-13
2.40267e-13
1.73989e-13
1.25256e-13
8.96289e-14
6.37392e-14
4.50431e-14
3.16281e-14
2.20646e-14
1.52908e-14
1.05242e-14
7.19202e-15
4.87816e-15
3.28255e-15
2.19019e-15
1.4481e-15
9.48103e-16
6.14195e-16
3.93337e-16
2.4877e-16
1.5521e-16
9.54072e-17
5.76968e-17
3.42688e-17
1.99507e-17
3.91012e-10
3.13241e-10
2.50206e-10
1.99257e-10
1.58203e-10
1.25229e-10
9.88289e-11
7.7759e-11
6.09949e-11
4.76969e-11
3.71805e-11
2.88894e-11
2.23735e-11
1.72696e-11
1.32852e-11
1.01856e-11
7.78262e-12
5.92619e-12
4.49691e-12
3.40018e-12
2.56141e-12
1.92204e-12
1.43631e-12
1.06859e-12
7.91256e-13
5.82945e-13
4.27183e-13
3.11286e-13
2.25512e-13
1.62395e-13
1.16227e-13
8.26656e-14
5.84225e-14
4.10215e-14
2.86111e-14
1.98171e-14
1.36264e-14
9.29775e-15
6.29233e-15
4.22114e-15
2.80506e-15
1.84513e-15
1.20038e-15
7.71635e-16
4.89618e-16
3.063e-16
1.8867e-16
1.14252e-16
6.78983e-17
3.95163e-17
5.90829e-10
4.7516e-10
3.81062e-10
3.04716e-10
2.42956e-10
1.93149e-10
1.53106e-10
1.2101e-10
9.53596e-11
7.49202e-11
5.86807e-11
4.58166e-11
3.56581e-11
2.76618e-11
2.13885e-11
1.64836e-11
1.26615e-11
9.69316e-12
7.39551e-12
5.62272e-12
4.25921e-12
3.21384e-12
2.41501e-12
1.8067e-12
1.34522e-12
9.96567e-13
7.34346e-13
5.38107e-13
3.92025e-13
2.83902e-13
2.0435e-13
1.46175e-13
1.03896e-13
7.33631e-14
5.14517e-14
3.58285e-14
2.47625e-14
1.69781e-14
1.15419e-14
7.77455e-15
5.18535e-15
3.42168e-15
2.2319e-15
1.43767e-15
9.13513e-16
5.71886e-16
3.52237e-16
2.13103e-16
1.26401e-16
7.33379e-17
8.7667e-10
7.06956e-10
5.68572e-10
4.56015e-10
3.64722e-10
2.90893e-10
2.31363e-10
1.835e-10
1.45124e-10
1.1444e-10
8.99741e-11
7.05265e-11
5.51156e-11
4.29403e-11
3.33511e-11
2.5822e-11
1.99292e-11
1.53324e-11
1.17583e-11
8.98713e-12
6.84452e-12
5.19262e-12
3.92302e-12
2.95053e-12
2.20841e-12
1.64447e-12
1.21792e-12
8.96937e-13
6.56708e-13
4.77949e-13
3.45722e-13
2.48509e-13
1.77479e-13
1.25902e-13
8.86887e-14
6.20134e-14
4.30212e-14
2.95954e-14
2.01765e-14
1.36221e-14
9.10092e-15
6.01176e-15
3.9227e-15
2.52569e-15
1.60281e-15
1.00119e-15
6.14651e-16
3.70227e-16
2.18352e-16
1.25798e-16
1.25879e-09
1.01758e-09
8.20482e-10
6.59825e-10
5.29277e-10
4.23522e-10
3.38035e-10
2.69126e-10
2.1376e-10
1.69343e-10
1.33779e-10
1.05375e-10
8.2754e-11
6.47924e-11
5.05757e-11
3.93591e-11
3.05369e-11
2.36185e-11
1.82076e-11
1.39872e-11
1.07048e-11
8.15999e-12
6.19327e-12
4.67874e-12
3.51704e-12
2.62989e-12
1.95572e-12
1.44608e-12
1.06297e-12
7.76642e-13
5.63913e-13
4.06821e-13
2.9153e-13
2.0745e-13
1.4653e-13
1.02688e-13
7.13624e-14
4.9148e-14
3.35225e-14
2.26273e-14
1.51021e-14
9.95755e-15
6.47949e-15
4.1564e-15
2.62505e-15
1.63001e-15
9.93528e-16
5.93338e-16
3.46433e-16
1.97256e-16
1.71685e-09
1.39156e-09
1.12596e-09
9.09256e-10
7.32556e-10
5.8879e-10
4.72176e-10
3.77742e-10
3.01347e-10
2.39722e-10
1.90164e-10
1.50424e-10
1.18645e-10
9.32974e-11
7.31381e-11
5.71553e-11
4.45229e-11
3.45687e-11
2.67484e-11
2.06227e-11
1.58383e-11
1.21128e-11
9.2218e-12
6.98682e-12
5.26633e-12
3.94806e-12
2.94311e-12
2.18116e-12
1.60674e-12
1.17624e-12
8.55548e-13
6.18124e-13
4.43451e-13
3.15777e-13
2.23085e-13
1.56272e-13
1.08478e-13
7.45694e-14
5.07232e-14
3.41134e-14
2.26635e-14
1.48587e-14
9.60326e-15
6.11101e-15
3.82362e-15
2.34874e-15
1.41393e-15
8.32471e-16
4.78207e-16
2.67249e-16
2.27228e-09
1.85014e-09
1.50308e-09
1.21821e-09
9.84905e-10
7.94135e-10
6.38552e-10
5.12034e-10
4.09464e-10
3.26544e-10
2.59677e-10
2.05885e-10
1.62734e-10
1.28234e-10
1.00743e-10
7.89028e-11
6.16039e-11
4.79398e-11
3.71763e-11
2.87212e-11
2.20992e-11
1.69296e-11
1.29083e-11
9.79275e-12
7.38981e-12
5.54553e-12
4.13747e-12
3.0684e-12
2.26139e-12
1.65582e-12
1.20418e-12
8.69462e-13
6.23028e-13
4.42837e-13
3.12044e-13
2.17847e-13
1.50573e-13
1.02962e-13
6.95956e-14
4.64588e-14
3.05991e-14
1.98624e-14
1.26916e-14
7.97229e-15
4.91568e-15
2.97016e-15
1.7552e-15
1.01215e-15
5.68034e-16
3.09282e-16
2.80335e-09
2.28319e-09
1.85476e-09
1.50265e-09
1.21413e-09
9.7854e-10
7.86708e-10
6.30899e-10
5.04641e-10
4.02572e-10
3.20277e-10
2.54119e-10
2.01088e-10
1.58696e-10
1.24893e-10
9.8003e-11
7.66621e-11
5.97651e-11
4.64201e-11
3.59095e-11
2.76572e-11
2.1201e-11
1.61701e-11
1.22675e-11
9.25486e-12
6.94131e-12
5.17441e-12
3.83273e-12
2.81999e-12
2.06027e-12
1.49402e-12
1.07482e-12
7.6671e-13
5.41976e-13
3.794e-13
2.62828e-13
1.80039e-13
1.21848e-13
8.14017e-14
5.36271e-14
3.4802e-14
2.22218e-14
1.39424e-14
8.58305e-15
5.17568e-15
3.05137e-15
1.75502e-15
9.8228e-16
5.33414e-16
2.80045e-16
3.2046e-09
2.60489e-09
2.11331e-09
1.71093e-09
1.38208e-09
1.1138e-09
8.95416e-10
7.18059e-10
5.74386e-10
4.583e-10
3.64752e-10
2.89563e-10
2.29281e-10
1.81064e-10
1.42582e-10
1.11935e-10
8.75801e-11
6.8272e-11
5.30055e-11
4.09718e-11
3.15198e-11
2.41255e-11
1.83665e-11
1.3903e-11
1.04615e-11
7.82263e-12
5.81079e-12
4.28629e-12
3.13842e-12
2.27991e-12
1.64238e-12
1.17256e-12
8.29127e-13
5.80285e-13
4.01676e-13
2.74777e-13
1.85603e-13
1.23677e-13
8.1219e-14
5.25068e-14
3.33768e-14
2.0834e-14
1.27515e-14
7.64021e-15
4.47303e-15
2.55354e-15
1.41802e-15
7.63841e-16
3.97817e-16
1.99544e-16
3.70312e-22
2.72018e-22
1.98926e-22
1.44805e-22
1.04909e-22
7.56335e-23
5.42516e-23
3.87112e-23
2.74733e-23
1.93889e-23
1.36044e-23
9.48861e-24
6.57705e-24
4.5297e-24
3.09896e-24
2.10556e-24
1.42041e-24
9.51135e-25
6.32024e-25
4.16644e-25
2.724e-25
1.76574e-25
1.13445e-25
7.22166e-26
4.55336e-26
2.8426e-26
1.7564e-26
1.07372e-26
6.49149e-27
3.87972e-27
2.29126e-27
1.33652e-27
7.69662e-28
4.37365e-28
2.45129e-28
1.35434e-28
7.37261e-29
3.95217e-29
2.08512e-29
1.08207e-29
5.52016e-30
2.76665e-30
1.3614e-30
6.57309e-31
3.11179e-31
1.44347e-31
6.55622e-32
2.91359e-32
1.26592e-32
5.37336e-33
2.22639e-33
8.99733e-34
3.54336e-34
1.35871e-34
5.06824e-35
1.83742e-35
6.46797e-36
2.20858e-36
7.30822e-37
2.34108e-37
7.25219e-38
2.17021e-38
6.26651e-39
1.744e-39
4.67255e-40
1.20377e-40
2.97918e-41
7.08398e-42
1.62743e-42
3.72846e-43
9.78306e-44
4.11292e-44
3.09523e-44
3.0325e-44
3.16684e-44
3.35036e-44
3.55537e-44
3.77657e-44
4.0126e-44
4.26273e-44
4.52634e-44
4.80293e-44
5.09209e-44
5.39357e-44
5.70732e-44
6.03347e-44
6.37239e-44
6.72466e-44
7.09105e-44
7.4725e-44
7.87007e-44
8.2849e-44
8.71815e-44
9.17096e-44
9.64439e-44
1.01393e-43
1.06565e-43
1.11965e-43
1.17595e-43
1.23454e-43
1.29539e-43
1.3584e-43
1.42346e-43
1.49038e-43
1.55892e-43
1.62874e-43
1.69944e-43
1.7705e-43
1.84131e-43
1.91111e-43
1.97905e-43
2.04416e-43
2.10534e-43
2.16142e-43
2.21119e-43
2.25338e-43
2.28676e-43
2.31015e-43
2.32248e-43
2.32287e-43
2.31064e-43
2.28543e-43
2.24721e-43
2.19632e-43
2.13352e-43
2.05998e-43
1.97725e-43
1.88717e-43
1.7918e-43
1.69329e-43
1.59375e-43
1.49509e-43
1.39896e-43
1.30662e-43
1.21892e-43
1.13632e-43
1.05891e-43
9.8649e-44
9.18676e-44
8.54958e-44
7.94804e-44
7.3772e-44
6.83291e-44
6.3121e-44
5.81286e-44
5.33435e-44
4.87667e-44
4.44067e-44
4.02773e-44
3.63949e-44
3.27767e-44
2.94383e-44
2.63924e-44
2.36469e-44
2.12036e-44
1.9058e-44
1.71984e-44
1.56063e-44
1.42576e-44
1.31233e-44
1.21715e-44
1.13691e-44
1.06836e-44
1.0085e-44
9.54683e-45
9.04702e-45
8.5684e-45
8.09863e-45
7.62977e-45
7.15773e-45
6.68147e-45
6.2023e-45
5.72309e-45
5.24772e-45
4.78049e-45
4.32581e-45
3.88787e-45
3.47048e-45
3.0769e-45
2.70971e-45
2.37078e-45
2.06117e-45
1.78113e-45
1.53017e-45
1.30715e-45
1.11042e-45
9.3797e-46
7.8762e-46
6.57153e-46
5.44432e-46
4.4748e-46
3.64526e-46
2.94008e-46
2.34556e-46
1.84947e-46
1.44052e-46
1.10802e-46
8.41618e-47
6.31369e-47
4.67883e-47
3.42562e-47
2.47784e-47
1.77014e-47
1.24816e-47
8.67835e-48
5.94209e-48
4.00023e-48
2.64297e-48
1.71058e-48
1.08258e-48
6.68917e-49
4.03065e-49
2.3668e-49
1.35403e-49
7.54902e-50
4.10512e-50
2.18073e-50
1.13416e-50
5.79121e-51
2.91292e-51
1.44869e-51
7.15225e-52
3.51912e-52
1.73145e-52
8.53774e-53
4.2227e-53
2.09371e-53
1.03901e-53
5.14894e-54
2.54133e-54
1.24578e-54
6.04868e-55
2.90131e-55
1.37157e-55
6.377e-56
2.91053e-56
1.30185e-56
5.69807e-57
2.43707e-57
1.01721e-57
4.1381e-58
1.63875e-58
6.30977e-59
2.35936e-59
8.55751e-60
3.00728e-60
1.02276e-60
3.36235e-61
1.06727e-61
3.26692e-62
9.63169e-63
2.73157e-63
7.44239e-64
1.94553e-64
4.87325e-65
1.16813e-65
2.67602e-66
5.85144e-67
1.21973e-67
2.42071e-68
4.5686e-69
8.19004e-70
1.39312e-70
2.24631e-71
3.4304e-72
4.95784e-73
6.77705e-74
8.75755e-75
1.06949e-75
1.2341e-76
1.34553e-77
1.3863e-78
1.35011e-79
1.24339e-80
1.08346e-81
8.9391e-83
6.9888e-84
5.18272e-85
3.64944e-86
2.44305e-87
1.55685e-88
9.4579e-90
5.4859e-91
3.0432e-92
1.61737e-93
8.25103e-95
4.04849e-96
1.91462e-97
8.7468e-99
3.86913e-100
1.66132e-101
6.94238e-103
2.83123e-104
1.1301e-105
4.42875e-107
1.70955e-108
6.52277e-110
2.46907e-111
9.30416e-113
3.4004e-114
1.0928e-21
8.06931e-22
5.93162e-22
4.33998e-22
3.1602e-22
2.28974e-22
1.65055e-22
1.18351e-22
8.43977e-23
5.98452e-23
4.21871e-23
2.95593e-23
2.05816e-23
1.42375e-23
9.78279e-24
6.67507e-24
4.52171e-24
3.04011e-24
2.02812e-24
1.34212e-24
8.80756e-25
5.7299e-25
3.69425e-25
2.35965e-25
1.49265e-25
9.34767e-26
5.7932e-26
3.55168e-26
2.15316e-26
1.29022e-26
7.63848e-27
4.46596e-27
2.57742e-27
1.46761e-27
8.24099e-28
4.56108e-28
2.48685e-28
1.33502e-28
7.0525e-29
3.66406e-29
1.87107e-29
9.38552e-30
4.62164e-30
2.23265e-30
1.0574e-30
4.90635e-31
2.22878e-31
9.90482e-32
4.30301e-32
1.82603e-32
7.56325e-33
3.05504e-33
1.20245e-33
4.60769e-34
1.71743e-34
6.22096e-35
2.18781e-35
7.46308e-36
2.4669e-36
7.8935e-37
2.4424e-37
7.30008e-38
2.10534e-38
5.85211e-39
1.56607e-39
4.03093e-40
9.97862e-41
2.3859e-41
5.64675e-42
1.47523e-42
5.74068e-43
4.02292e-43
3.87296e-43
4.06037e-43
4.33355e-43
4.6437e-43
4.98183e-43
5.34634e-43
5.7369e-43
6.1534e-43
6.59584e-43
7.06435e-43
7.55928e-43
8.0812e-43
8.63099e-43
9.20987e-43
9.81937e-43
1.04614e-42
1.1138e-42
1.18518e-42
1.26053e-42
1.34014e-42
1.42429e-42
1.51327e-42
1.60734e-42
1.70677e-42
1.81177e-42
1.92255e-42
2.03925e-42
2.16197e-42
2.29074e-42
2.42551e-42
2.56614e-42
2.71235e-42
2.86374e-42
3.01974e-42
3.17955e-42
3.34219e-42
3.50637e-42
3.67058e-42
3.833e-42
3.99155e-42
4.14389e-42
4.28748e-42
4.41961e-42
4.53746e-42
4.63823e-42
4.7192e-42
4.77787e-42
4.81206e-42
4.82009e-42
4.80087e-42
4.75407e-42
4.68015e-42
4.58049e-42
4.45731e-42
4.31367e-42
4.15323e-42
3.98013e-42
3.79865e-42
3.613e-42
3.42698e-42
3.24382e-42
3.06599e-42
2.89513e-42
2.73208e-42
2.577e-42
2.42948e-42
2.28875e-42
2.15387e-42
2.02386e-42
1.89787e-42
1.77524e-42
1.65555e-42
1.53866e-42
1.42467e-42
1.31388e-42
1.20679e-42
1.10399e-42
1.00613e-42
9.13875e-43
8.27846e-43
7.4856e-43
6.76403e-43
6.1159e-43
5.54145e-43
5.03894e-43
4.60464e-43
4.23309e-43
3.91743e-43
3.6498e-43
3.42189e-43
3.22537e-43
3.05242e-43
2.89601e-43
2.75024e-43
2.61038e-43
2.47298e-43
2.33574e-43
2.1974e-43
2.05755e-43
1.91645e-43
1.77484e-43
1.63375e-43
1.49442e-43
1.35814e-43
1.22616e-43
1.09968e-43
9.79732e-44
8.67187e-44
7.62693e-44
6.66666e-44
5.79277e-44
5.00467e-44
4.29969e-44
3.67354e-44
3.1208e-44
2.63541e-44
2.21111e-44
1.84182e-44
1.52187e-44
1.24618e-44
1.01021e-44
8.09988e-45
6.41874e-45
5.0247e-45
3.88469e-45
2.96611e-45
2.23703e-45
1.66686e-45
1.22723e-45
8.92749e-46
6.41466e-46
4.54959e-46
3.18193e-46
2.19155e-46
1.48408e-46
9.86345e-47
6.42186e-47
4.08879e-47
2.54206e-47
1.54157e-47
9.11265e-48
5.24996e-48
2.94875e-48
1.61616e-48
8.65713e-49
4.54221e-49
2.34088e-49
1.18888e-49
5.97233e-50
2.97915e-50
1.48132e-50
7.36606e-51
3.671e-51
1.83499e-51
9.19486e-52
4.61137e-52
2.30952e-52
1.15213e-52
5.70928e-53
2.80275e-53
1.35956e-53
6.50138e-54
3.05842e-54
1.41274e-54
6.39705e-55
2.83529e-55
1.22832e-55
5.19469e-56
2.14185e-56
8.59953e-57
3.3581e-57
1.27391e-57
4.68925e-58
1.67299e-58
5.77842e-59
1.92995e-59
6.22575e-60
1.9374e-60
5.80875e-61
1.67582e-61
4.64611e-62
1.23622e-62
3.1526e-63
7.69536e-64
1.79557e-64
3.99964e-65
8.4942e-66
1.71768e-66
3.30327e-67
6.03414e-68
1.04587e-68
1.71827e-69
2.6734e-70
3.93599e-71
5.48002e-72
7.21152e-73
8.96676e-74
1.05323e-74
1.1686e-75
1.22495e-76
1.21334e-77
1.13616e-78
1.00629e-79
8.43596e-81
6.69926e-82
5.04447e-83
3.60555e-84
2.44916e-85
1.58317e-86
9.75296e-88
5.7348e-89
3.22406e-90
1.73607e-91
8.97096e-93
4.45753e-94
2.13433e-95
9.87001e-97
4.41871e-98
1.91991e-99
8.11745e-101
3.34904e-102
1.35225e-103
5.36017e-105
2.09274e-106
8.07585e-108
3.09176e-109
1.17834e-110
4.35738e-112
3.15772e-21
2.34317e-21
1.73082e-21
1.27248e-21
9.30968e-22
6.77695e-22
4.90769e-22
3.53498e-22
2.53212e-22
1.80337e-22
1.27674e-22
8.98353e-23
6.28092e-23
4.36247e-23
3.00934e-23
2.06125e-23
1.40153e-23
9.45725e-24
6.33139e-24
4.20414e-24
2.76802e-24
1.80649e-24
1.16826e-24
7.48386e-25
4.7473e-25
2.98087e-25
1.85203e-25
1.13814e-25
6.9152e-26
4.15238e-26
2.4631e-26
1.44266e-26
8.3396e-27
4.7557e-27
2.67399e-27
1.48169e-27
8.08687e-28
4.34504e-28
2.29697e-28
1.19403e-28
6.09982e-29
3.06052e-29
1.50722e-29
7.28084e-30
3.44763e-30
1.59918e-30
7.26111e-31
3.22496e-31
1.40002e-31
5.93614e-32
2.45632e-32
9.91121e-33
3.89641e-33
1.49117e-33
5.55046e-34
2.0076e-34
7.04967e-35
2.40098e-35
7.92334e-36
2.531e-36
7.81791e-37
2.33261e-37
6.71547e-38
1.86349e-38
4.97957e-39
1.28117e-39
3.1849e-40
7.80631e-41
2.06439e-41
7.6842e-42
5.08212e-42
4.80849e-42
5.05839e-42
5.4457e-42
5.89262e-42
6.38505e-42
6.92133e-42
7.50213e-42
8.12853e-42
8.80185e-42
9.52358e-42
1.02955e-41
1.11198e-41
1.19992e-41
1.29366e-41
1.3936e-41
1.50016e-41
1.61382e-41
1.73513e-41
1.86468e-41
2.00311e-41
2.15108e-41
2.30929e-41
2.47844e-41
2.65923e-41
2.85234e-41
3.05842e-41
3.27808e-41
3.51185e-41
3.76019e-41
4.02343e-41
4.30175e-41
4.59513e-41
4.90332e-41
5.22575e-41
5.56148e-41
5.90914e-41
6.26685e-41
6.63218e-41
7.00209e-41
7.37294e-41
7.74043e-41
8.09971e-41
8.44541e-41
8.77171e-41
9.07255e-41
9.34176e-41
9.57328e-41
9.76144e-41
9.90123e-41
9.9886e-41
1.00208e-40
9.99646e-41
9.91618e-41
9.78223e-41
9.59875e-41
9.37152e-41
9.10761e-41
8.81498e-41
8.5019e-41
8.17638e-41
7.84565e-41
7.51572e-41
7.1911e-41
6.87468e-41
6.56781e-41
6.27052e-41
5.98184e-41
5.70016e-41
5.42363e-41
5.15045e-41
4.87914e-41
4.60875e-41
4.33889e-41
4.06982e-41
3.80237e-41
3.53791e-41
3.27818e-41
3.02521e-41
2.78119e-41
2.5483e-41
2.32861e-41
2.1239e-41
1.93563e-41
1.76476e-41
1.61174e-41
1.47646e-41
1.35827e-41
1.256e-41
1.16809e-41
1.09267e-41
1.02768e-41
9.71059e-42
9.20791e-42
8.75057e-42
8.32288e-42
7.91213e-42
7.50874e-42
7.10614e-42
6.70048e-42
6.29026e-42
5.87585e-42
5.45899e-42
5.04245e-42
4.62956e-42
4.224e-42
3.82946e-42
3.44951e-42
3.08737e-42
2.74579e-42
2.42693e-42
2.13227e-42
1.86255e-42
1.61782e-42
1.39751e-42
1.20054e-42
1.02547e-42
8.70654e-43
7.34355e-43
6.1488e-43
5.10642e-43
4.20207e-43
3.423e-43
2.7578e-43