/*--------------------------------*- C++ -*----------------------------------*\
| =========                 |                                                 |
| \\      /  F ield         | OpenFOAM: The Open Source CFD Toolbox           |
|  \\    /   O peration     | Version:  2.4.0                                 |
|   \\  /    A nd           | Web:      www.OpenFOAM.org                      |
|    \\/     M anipulation  |                                                 |
\*---------------------------------------------------------------------------*/
FoamFile
{
    version     2.0;
    format      ascii;
    class       volScalarField;
    location    "0.014";
    object      H;
}
// * * * * * * * * * * * * * * * * * * * * * * * * * * * * * * * * * * * * * //

dimensions      [0 2 -2 0 0 0 0];

internalField   nonuniform List<scalar> 
125
(
-0.402263
-0.374163
-0.347787
-0.323048
-0.299862
-0.278148
-0.257828
-0.238827
-0.221073
-0.204496
-0.189031
-0.174614
-0.161184
-0.148683
-0.137056
-0.126251
-0.116216
-0.106903
-0.0982688
-0.0902685
-0.0828615
-0.0760091
-0.0696746
-0.0638234
-0.0584226
-0.0534415
-0.0488508
-0.0446233
-0.0407331
-0.037156
-0.0338693
-0.0308517
-0.0280832
-0.0255453
-0.0232205
-0.0210924
-0.0191459
-0.0173668
-0.0157419
-0.014259
-0.0129067
-0.0116743
-0.0105522
-0.00953112
-0.00860273
-0.00775924
-0.00699345
-0.00629871
-0.0056689
-0.00509838
-0.00458195
-0.00411483
-0.00369263
-0.00331131
-0.00296718
-0.00265683
-0.00237717
-0.00212534
-0.00189876
-0.00169504
-0.00151201
-0.00134771
-0.00120033
-0.00106823
-0.000949914
-0.000844032
-0.000749349
-0.000664749
-0.000589219
-0.000521841
-0.000461783
-0.000408294
-0.000360695
-0.000318372
-0.000280773
-0.000247398
-0.000217799
-0.00019157
-0.000168349
-0.000147808
-0.000129655
-0.000113626
-9.94851e-05
-8.7022e-05
-7.60476e-05
-6.63932e-05
-5.79079e-05
-5.04575e-05
-4.39219e-05
-3.81946e-05
-3.31804e-05
-2.8795e-05
-2.49634e-05
-2.16191e-05
-1.87031e-05
-1.61632e-05
-1.39533e-05
-1.20325e-05
-1.03647e-05
-8.91832e-06
-7.6652e-06
-6.5808e-06
-5.64337e-06
-4.83398e-06
-4.13592e-06
-3.53453e-06
-3.01708e-06
-2.57232e-06
-2.19053e-06
-1.86316e-06
-1.5828e-06
-1.34301e-06
-1.13813e-06
-9.63324e-07
-8.14332e-07
-6.87549e-07
-5.79743e-07
-4.88231e-07
-4.1064e-07
-3.44926e-07
-2.89362e-07
-2.42414e-07
-2.02829e-07
-1.69471e-07
-1.41416e-07
)
;

boundaryField
{
    BotWall
    {
        type            zeroGradient;
    }
    FreeStream
    {
        type            zeroGradient;
    }
    FrontNBack
    {
        type            empty;
    }
    LeftSide
    {
        type            symmetryPlane;
    }
    RightSide
    {
        type            symmetryPlane;
    }
    procBoundary10to7
    {
        type            processor;
        value           nonuniform List<scalar> 
50
(
-0.00024517
-0.000215827
-0.000189827
-0.000166808
-0.000146448
-0.000128455
-0.000112569
-9.85544e-05
-8.62032e-05
-7.5328e-05
-6.57612e-05
-5.73534e-05
-4.99714e-05
-4.34962e-05
-3.7822e-05
-3.28547e-05
-2.85105e-05
-2.47151e-05
-2.14027e-05
-1.85146e-05
-1.59992e-05
-1.38107e-05
-1.19087e-05
-1.02573e-05
-8.82524e-06
-7.58464e-06
-6.51112e-06
-5.58322e-06
-4.78208e-06
-4.09117e-06
-3.49604e-06
-2.98397e-06
-2.5439e-06
-2.16615e-06
-1.84229e-06
-1.56495e-06
-1.32774e-06
-1.12511e-06
-9.52244e-07
-8.049e-07
-6.79519e-07
-5.72945e-07
-4.82475e-07
-4.05759e-07
-3.40816e-07
-2.85883e-07
-2.39507e-07
-2.00371e-07
-1.67413e-07
-1.39693e-07
)
;
    }
    procBoundary10to8
    {
        type            processor;
        value           nonuniform List<scalar> 
75
(
-0.400909
-0.372865
-0.346544
-0.32186
-0.298728
-0.277068
-0.2568
-0.23785
-0.220145
-0.203617
-0.188199
-0.173828
-0.160442
-0.147985
-0.136399
-0.125633
-0.115635
-0.10636
-0.0977596
-0.0897922
-0.0824167
-0.0755942
-0.0692881
-0.0634637
-0.0580883
-0.0531311
-0.048563
-0.0443567
-0.0404864
-0.036928
-0.0336588
-0.0306576
-0.0279045
-0.0253808
-0.0230693
-0.0209535
-0.0190185
-0.01725
-0.015635
-0.0141612
-0.0128173
-0.0115928
-0.0104778
-0.00946338
-0.00854108
-0.00770317
-0.00694251
-0.00625247
-0.00562697
-0.00506038
-0.00454755
-0.00408372
-0.00366452
-0.00328593
-0.00294428
-0.00263619
-0.00235858
-0.00210861
-0.00188372
-0.00168153
-0.00149989
-0.00133683
-0.00119058
-0.00105949
-0.000942096
-0.000837039
-0.000743098
-0.000659166
-0.000584234
-0.000517392
-0.000457814
-0.000404755
-0.000357539
-0.000315559
-0.000278265
)
;
    }
    procBoundary10to9
    {
        type            processor;
        value           uniform -1.17844e-07;
    }
    procBoundary10to11
    {
        type            processor;
        value           uniform -0.432183;
    }
}


// ************************************************************************* //
