/*--------------------------------*- C++ -*----------------------------------*\
| =========                 |                                                 |
| \\      /  F ield         | OpenFOAM: The Open Source CFD Toolbox           |
|  \\    /   O peration     | Version:  2.4.0                                 |
|   \\  /    A nd           | Web:      www.OpenFOAM.org                      |
|    \\/     M anipulation  |                                                 |
\*---------------------------------------------------------------------------*/
FoamFile
{
    version     2.0;
    format      ascii;
    class       volScalarField;
    location    "0.014";
    object      p;
}
// * * * * * * * * * * * * * * * * * * * * * * * * * * * * * * * * * * * * * //

dimensions      [1 -1 -2 0 0 0 0];

internalField   nonuniform List<scalar> 
125
(
-0.0304488
-0.0306952
-0.0309424
-0.0311906
-0.0314397
-0.0316897
-0.0319406
-0.0321924
-0.0324452
-0.0326989
-0.0329535
-0.0332091
-0.0334656
-0.0337231
-0.0339815
-0.0342408
-0.0345011
-0.0347624
-0.0350246
-0.0352878
-0.035552
-0.0358171
-0.0360833
-0.0363504
-0.0366184
-0.0368875
-0.0371576
-0.0374286
-0.0377007
-0.0379737
-0.0382478
-0.0385228
-0.0387989
-0.039076
-0.0393541
-0.0396333
-0.0399134
-0.0401946
-0.0404769
-0.0407601
-0.0410444
-0.0413298
-0.0416162
-0.0419037
-0.0421922
-0.0424818
-0.0427725
-0.0430642
-0.043357
-0.0436509
-0.0439458
-0.0442419
-0.044539
-0.0448372
-0.0451366
-0.045437
-0.0457385
-0.0460412
-0.0463449
-0.0466498
-0.0469558
-0.0472629
-0.0475712
-0.0478806
-0.0481911
-0.0485028
-0.0488156
-0.0491296
-0.0494447
-0.049761
-0.0500785
-0.0503971
-0.0507169
-0.0510379
-0.05136
-0.0516834
-0.0520079
-0.0523336
-0.0526605
-0.0529887
-0.053318
-0.0536486
-0.0539803
-0.0543133
-0.0546475
-0.054983
-0.0553197
-0.0556576
-0.0559968
-0.0563372
-0.0566788
-0.0570218
-0.0573659
-0.0577114
-0.0580581
-0.0584061
-0.0587554
-0.059106
-0.0594578
-0.059811
-0.0601655
-0.0605212
-0.0608783
-0.0612367
-0.0615964
-0.0619574
-0.0623198
-0.0626835
-0.0630485
-0.0634149
-0.0637826
-0.0641517
-0.0645221
-0.0648939
-0.0652671
-0.0656416
-0.0660175
-0.0663948
-0.0667735
-0.0671536
-0.0675351
-0.067918
-0.0683023
-0.068688
-0.0690751
)
;

boundaryField
{
    BotWall
    {
        type            calculated;
        value           nonuniform 0();
    }
    FreeStream
    {
        type            calculated;
        value           nonuniform 0();
    }
    FrontNBack
    {
        type            empty;
    }
    LeftSide
    {
        type            symmetryPlane;
    }
    RightSide
    {
        type            symmetryPlane;
    }
    procBoundary10to7
    {
        type            processor;
        value           nonuniform List<scalar> 
50
(
-0.0516825
-0.0520071
-0.0523328
-0.0526597
-0.0529879
-0.0533172
-0.0536478
-0.0539796
-0.0543126
-0.0546468
-0.0549823
-0.055319
-0.0556569
-0.0559961
-0.0563365
-0.0566782
-0.0570211
-0.0573653
-0.0577108
-0.0580575
-0.0584055
-0.0587548
-0.0591054
-0.0594572
-0.0598104
-0.0601649
-0.0605206
-0.0608777
-0.0612361
-0.0615958
-0.0619568
-0.0623192
-0.0626829
-0.0630479
-0.0634143
-0.063782
-0.0641511
-0.0645216
-0.0648934
-0.0652665
-0.0656411
-0.066017
-0.0663943
-0.066773
-0.0671531
-0.0675346
-0.0679175
-0.0683018
-0.0686875
-0.0690746
)
;
    }
    procBoundary10to8
    {
        type            processor;
        value           nonuniform List<scalar> 
75
(
-0.0304459
-0.0306923
-0.0309396
-0.0311878
-0.031437
-0.031687
-0.031938
-0.0321898
-0.0324426
-0.0326964
-0.0329511
-0.0332067
-0.0334632
-0.0337207
-0.0339792
-0.0342385
-0.0344989
-0.0347602
-0.0350225
-0.0352857
-0.0355499
-0.0358151
-0.0360812
-0.0363483
-0.0366165
-0.0368856
-0.0371556
-0.0374267
-0.0376988
-0.0379719
-0.038246
-0.0385211
-0.0387972
-0.0390743
-0.0393524
-0.0396316
-0.0399118
-0.040193
-0.0404753
-0.0407586
-0.0410429
-0.0413283
-0.0416148
-0.0419023
-0.0421908
-0.0424804
-0.0427711
-0.0430628
-0.0433557
-0.0436496
-0.0439445
-0.0442406
-0.0445378
-0.044836
-0.0451354
-0.0454358
-0.0457374
-0.04604
-0.0463438
-0.0466487
-0.0469547
-0.0472619
-0.0475702
-0.0478796
-0.0481901
-0.0485018
-0.0488146
-0.0491286
-0.0494438
-0.0497601
-0.0500776
-0.0503962
-0.050716
-0.051037
-0.0513592
)
;
    }
    procBoundary10to9
    {
        type            processor;
        value           uniform -0.0694637;
    }
    procBoundary10to11
    {
        type            processor;
        value           uniform -0.0302034;
    }
}


// ************************************************************************* //
