/*--------------------------------*- C++ -*----------------------------------*\
| =========                 |                                                 |
| \\      /  F ield         | OpenFOAM: The Open Source CFD Toolbox           |
|  \\    /   O peration     | Version:  2.4.0                                 |
|   \\  /    A nd           | Web:      www.OpenFOAM.org                      |
|    \\/     M anipulation  |                                                 |
\*---------------------------------------------------------------------------*/
FoamFile
{
    version     2.0;
    format      ascii;
    class       volVectorField;
    location    "0.014";
    object      U;
}
// * * * * * * * * * * * * * * * * * * * * * * * * * * * * * * * * * * * * * //

dimensions      [0 1 -1 0 0 0 0];

internalField   nonuniform List<vector> 
125
(
(8.1689e-06 -0.0157344 0)
(8.0521e-06 -0.0157344 0)
(7.93594e-06 -0.0157344 0)
(7.82044e-06 -0.0157344 0)
(7.70559e-06 -0.0157344 0)
(7.5914e-06 -0.0157344 0)
(7.47787e-06 -0.0157344 0)
(7.36499e-06 -0.0157344 0)
(7.25277e-06 -0.0157343 0)
(7.14121e-06 -0.0157343 0)
(7.0303e-06 -0.0157343 0)
(6.92006e-06 -0.0157343 0)
(6.81046e-06 -0.0157343 0)
(6.70153e-06 -0.0157343 0)
(6.59324e-06 -0.0157343 0)
(6.48561e-06 -0.0157343 0)
(6.37864e-06 -0.0157343 0)
(6.27231e-06 -0.0157343 0)
(6.16663e-06 -0.0157343 0)
(6.0616e-06 -0.0157343 0)
(5.95721e-06 -0.0157343 0)
(5.85347e-06 -0.0157343 0)
(5.75036e-06 -0.0157343 0)
(5.6479e-06 -0.0157343 0)
(5.54606e-06 -0.0157343 0)
(5.44486e-06 -0.0157343 0)
(5.34429e-06 -0.0157343 0)
(5.24434e-06 -0.0157343 0)
(5.14502e-06 -0.0157343 0)
(5.04631e-06 -0.0157343 0)
(4.94821e-06 -0.0157343 0)
(4.85073e-06 -0.0157343 0)
(4.75385e-06 -0.0157343 0)
(4.65756e-06 -0.0157343 0)
(4.56188e-06 -0.0157343 0)
(4.46678e-06 -0.0157343 0)
(4.37226e-06 -0.0157343 0)
(4.27833e-06 -0.0157343 0)
(4.18496e-06 -0.0157343 0)
(4.09217e-06 -0.0157343 0)
(3.99993e-06 -0.0157343 0)
(3.90824e-06 -0.0157343 0)
(3.8171e-06 -0.0157343 0)
(3.7265e-06 -0.0157343 0)
(3.63644e-06 -0.0157343 0)
(3.54689e-06 -0.0157343 0)
(3.45786e-06 -0.0157343 0)
(3.36934e-06 -0.0157343 0)
(3.28132e-06 -0.0157343 0)
(3.19379e-06 -0.0157343 0)
(3.10674e-06 -0.0157343 0)
(3.02017e-06 -0.0157343 0)
(2.93406e-06 -0.0157343 0)
(2.8484e-06 -0.0157343 0)
(2.76319e-06 -0.0157343 0)
(2.67841e-06 -0.0157343 0)
(2.59405e-06 -0.0157343 0)
(2.51011e-06 -0.0157343 0)
(2.42657e-06 -0.0157343 0)
(2.34343e-06 -0.0157343 0)
(2.26066e-06 -0.0157343 0)
(2.17826e-06 -0.0157343 0)
(2.09622e-06 -0.0157343 0)
(2.01453e-06 -0.0157343 0)
(1.93317e-06 -0.0157343 0)
(1.85214e-06 -0.0157343 0)
(1.77141e-06 -0.0157343 0)
(1.69098e-06 -0.0157343 0)
(1.61084e-06 -0.0157344 0)
(1.53097e-06 -0.0157344 0)
(1.45136e-06 -0.0157344 0)
(1.372e-06 -0.0157344 0)
(1.29288e-06 -0.0157344 0)
(1.21397e-06 -0.0157344 0)
(1.13528e-06 -0.0157344 0)
(1.05678e-06 -0.0157344 0)
(9.78461e-07 -0.0157344 0)
(9.00315e-07 -0.0157344 0)
(8.22325e-07 -0.0157344 0)
(7.44478e-07 -0.0157344 0)
(6.66763e-07 -0.0157344 0)
(5.89164e-07 -0.0157344 0)
(5.11671e-07 -0.0157345 0)
(4.3427e-07 -0.0157345 0)
(3.56948e-07 -0.0157345 0)
(2.79694e-07 -0.0157345 0)
(2.02496e-07 -0.0157345 0)
(1.25341e-07 -0.0157345 0)
(4.82183e-08 -0.0157345 0)
(-2.88833e-08 -0.0157345 0)
(-1.05975e-07 -0.0157345 0)
(-1.83066e-07 -0.0157345 0)
(-2.60167e-07 -0.0157345 0)
(-3.37288e-07 -0.0157346 0)
(-4.14437e-07 -0.0157346 0)
(-4.91622e-07 -0.0157346 0)
(-5.68851e-07 -0.0157346 0)
(-6.46131e-07 -0.0157346 0)
(-7.23468e-07 -0.0157346 0)
(-8.00867e-07 -0.0157346 0)
(-8.78331e-07 -0.0157346 0)
(-9.55865e-07 -0.0157346 0)
(-1.03347e-06 -0.0157347 0)
(-1.11115e-06 -0.0157347 0)
(-1.1889e-06 -0.0157347 0)
(-1.26672e-06 -0.0157347 0)
(-1.3446e-06 -0.0157347 0)
(-1.42255e-06 -0.0157347 0)
(-1.50055e-06 -0.0157347 0)
(-1.5786e-06 -0.0157347 0)
(-1.65669e-06 -0.0157348 0)
(-1.7348e-06 -0.0157348 0)
(-1.81292e-06 -0.0157348 0)
(-1.89103e-06 -0.0157348 0)
(-1.96911e-06 -0.0157348 0)
(-2.04714e-06 -0.0157348 0)
(-2.1251e-06 -0.0157348 0)
(-2.20295e-06 -0.0157348 0)
(-2.28067e-06 -0.0157349 0)
(-2.35823e-06 -0.0157349 0)
(-2.43558e-06 -0.0157349 0)
(-2.51269e-06 -0.0157349 0)
(-2.58951e-06 -0.0157349 0)
(-2.66601e-06 -0.0157349 0)
(-2.74212e-06 -0.0157349 0)
)
;

boundaryField
{
    BotWall
    {
        type            fixedValue;
        value           nonuniform 0();
    }
    FreeStream
    {
        type            zeroGradient;
    }
    FrontNBack
    {
        type            empty;
    }
    LeftSide
    {
        type            symmetryPlane;
    }
    RightSide
    {
        type            symmetryPlane;
    }
    procBoundary10to7
    {
        type            processor;
        value           nonuniform List<vector> 
50
(
(-2.5582e-06 -0.0157352 0)
(-2.51565e-06 -0.0157352 0)
(-2.47271e-06 -0.0157352 0)
(-2.42932e-06 -0.0157352 0)
(-2.38547e-06 -0.0157352 0)
(-2.34112e-06 -0.0157352 0)
(-2.29622e-06 -0.0157352 0)
(-2.25076e-06 -0.0157352 0)
(-2.2047e-06 -0.0157352 0)
(-2.15801e-06 -0.0157352 0)
(-2.11064e-06 -0.0157352 0)
(-2.06259e-06 -0.0157352 0)
(-2.0138e-06 -0.0157352 0)
(-1.96426e-06 -0.0157352 0)
(-1.91394e-06 -0.0157352 0)
(-1.8628e-06 -0.0157352 0)
(-1.81083e-06 -0.0157352 0)
(-1.75799e-06 -0.0157352 0)
(-1.70427e-06 -0.0157352 0)
(-1.64964e-06 -0.0157352 0)
(-1.59408e-06 -0.0157352 0)
(-1.53757e-06 -0.0157352 0)
(-1.4801e-06 -0.0157352 0)
(-1.42165e-06 -0.0157351 0)
(-1.36221e-06 -0.0157351 0)
(-1.30177e-06 -0.0157351 0)
(-1.24032e-06 -0.0157351 0)
(-1.17786e-06 -0.0157351 0)
(-1.11437e-06 -0.0157351 0)
(-1.04987e-06 -0.0157351 0)
(-9.84361e-07 -0.0157351 0)
(-9.17841e-07 -0.015735 0)
(-8.50326e-07 -0.015735 0)
(-7.81827e-07 -0.015735 0)
(-7.12363e-07 -0.015735 0)
(-6.41954e-07 -0.015735 0)
(-5.70626e-07 -0.015735 0)
(-4.98408e-07 -0.0157349 0)
(-4.25333e-07 -0.0157349 0)
(-3.5144e-07 -0.0157349 0)
(-2.76771e-07 -0.0157349 0)
(-2.01373e-07 -0.0157348 0)
(-1.25298e-07 -0.0157348 0)
(-4.86025e-08 -0.0157348 0)
(2.86522e-08 -0.0157348 0)
(1.064e-07 -0.0157347 0)
(1.84569e-07 -0.0157347 0)
(2.63086e-07 -0.0157347 0)
(3.41869e-07 -0.0157347 0)
(4.20836e-07 -0.0157346 0)
)
;
    }
    procBoundary10to8
    {
        type            processor;
        value           nonuniform List<vector> 
75
(
(-6.62382e-06 -0.0157334 0)
(-6.53927e-06 -0.0157334 0)
(-6.45591e-06 -0.0157334 0)
(-6.37373e-06 -0.0157335 0)
(-6.29272e-06 -0.0157335 0)
(-6.21287e-06 -0.0157336 0)
(-6.13417e-06 -0.0157336 0)
(-6.05659e-06 -0.0157336 0)
(-5.98015e-06 -0.0157337 0)
(-5.90481e-06 -0.0157337 0)
(-5.83057e-06 -0.0157338 0)
(-5.75741e-06 -0.0157338 0)
(-5.68533e-06 -0.0157338 0)
(-5.6143e-06 -0.0157339 0)
(-5.54431e-06 -0.0157339 0)
(-5.47535e-06 -0.0157339 0)
(-5.40741e-06 -0.015734 0)
(-5.34047e-06 -0.015734 0)
(-5.27451e-06 -0.015734 0)
(-5.20952e-06 -0.0157341 0)
(-5.14549e-06 -0.0157341 0)
(-5.0824e-06 -0.0157341 0)
(-5.02023e-06 -0.0157342 0)
(-4.95898e-06 -0.0157342 0)
(-4.89862e-06 -0.0157342 0)
(-4.83913e-06 -0.0157343 0)
(-4.78051e-06 -0.0157343 0)
(-4.72273e-06 -0.0157343 0)
(-4.66578e-06 -0.0157344 0)
(-4.60965e-06 -0.0157344 0)
(-4.55431e-06 -0.0157344 0)
(-4.49976e-06 -0.0157344 0)
(-4.44596e-06 -0.0157345 0)
(-4.39291e-06 -0.0157345 0)
(-4.34059e-06 -0.0157345 0)
(-4.28898e-06 -0.0157345 0)
(-4.23806e-06 -0.0157346 0)
(-4.18782e-06 -0.0157346 0)
(-4.13823e-06 -0.0157346 0)
(-4.08928e-06 -0.0157346 0)
(-4.04094e-06 -0.0157347 0)
(-3.99321e-06 -0.0157347 0)
(-3.94605e-06 -0.0157347 0)
(-3.89945e-06 -0.0157347 0)
(-3.85339e-06 -0.0157347 0)
(-3.80785e-06 -0.0157348 0)
(-3.7628e-06 -0.0157348 0)
(-3.71823e-06 -0.0157348 0)
(-3.6741e-06 -0.0157348 0)
(-3.63041e-06 -0.0157348 0)
(-3.58712e-06 -0.0157349 0)
(-3.54421e-06 -0.0157349 0)
(-3.50166e-06 -0.0157349 0)
(-3.45944e-06 -0.0157349 0)
(-3.41753e-06 -0.0157349 0)
(-3.3759e-06 -0.0157349 0)
(-3.33452e-06 -0.015735 0)
(-3.29338e-06 -0.015735 0)
(-3.25243e-06 -0.015735 0)
(-3.21166e-06 -0.015735 0)
(-3.17103e-06 -0.015735 0)
(-3.13052e-06 -0.015735 0)
(-3.09009e-06 -0.015735 0)
(-3.04972e-06 -0.0157351 0)
(-3.00938e-06 -0.0157351 0)
(-2.96903e-06 -0.0157351 0)
(-2.92865e-06 -0.0157351 0)
(-2.88819e-06 -0.0157351 0)
(-2.84764e-06 -0.0157351 0)
(-2.80696e-06 -0.0157351 0)
(-2.76611e-06 -0.0157351 0)
(-2.72506e-06 -0.0157351 0)
(-2.68377e-06 -0.0157351 0)
(-2.64223e-06 -0.0157352 0)
(-2.60038e-06 -0.0157352 0)
)
;
    }
    procBoundary10to9
    {
        type            processor;
        value           uniform (-2.81781e-06 -0.0157349 0);
    }
    procBoundary10to11
    {
        type            processor;
        value           uniform (8.28636e-06 -0.0157344 0);
    }
}


// ************************************************************************* //
