/*--------------------------------*- C++ -*----------------------------------*\
| =========                 |                                                 |
| \\      /  F ield         | OpenFOAM: The Open Source CFD Toolbox           |
|  \\    /   O peration     | Version:  2.4.0                                 |
|   \\  /    A nd           | Web:      www.OpenFOAM.org                      |
|    \\/     M anipulation  |                                                 |
\*---------------------------------------------------------------------------*/
FoamFile
{
    version     2.0;
    format      ascii;
    class       surfaceScalarField;
    location    "3.6";
    object      phi;
}
// * * * * * * * * * * * * * * * * * * * * * * * * * * * * * * * * * * * * * //

dimensions      [0 3 -1 0 0 0 0];

internalField   nonuniform List<scalar> 
220
(
3.6509e-16
-2.12975e-10
3.32546e-16
-2.12995e-10
-1.94231e-16
-2.13016e-10
-4.53783e-16
-2.13007e-10
-2.12966e-10
3.33032e-16
-2.12976e-10
3.03963e-16
-2.12995e-10
-1.75051e-16
-2.13016e-10
-4.12365e-16
-2.13007e-10
-2.12967e-10
3.01309e-16
-2.12976e-10
2.76323e-16
-2.12995e-10
-1.5663e-16
-2.13015e-10
-3.71489e-16
-2.13007e-10
-2.12967e-10
2.69852e-16
-2.12976e-10
2.49025e-16
-2.12995e-10
-1.38536e-16
-2.13015e-10
-3.31001e-16
-2.13007e-10
-2.12967e-10
2.39088e-16
-2.12976e-10
2.22204e-16
-2.12995e-10
-1.20814e-16
-2.13015e-10
-2.91486e-16
-2.13006e-10
-2.12968e-10
2.09197e-16
-2.12977e-10
1.96037e-16
-2.12995e-10
-1.03576e-16
-2.13014e-10
-2.53197e-16
-2.13006e-10
-2.12968e-10
1.80214e-16
-2.12977e-10
1.70614e-16
-2.12995e-10
-8.68892e-17
-2.13014e-10
-2.16181e-16
-2.13006e-10
-2.12968e-10
1.52169e-16
-2.12977e-10
1.45983e-16
-2.12995e-10
-7.07864e-17
-2.13014e-10
-1.80475e-16
-2.13006e-10
-2.12968e-10
1.25115e-16
-2.12977e-10
1.22188e-16
-2.12995e-10
-5.52956e-17
-2.13014e-10
-1.46138e-16
-2.13006e-10
-2.12968e-10
9.91113e-17
-2.12977e-10
9.92756e-17
-2.12995e-10
-4.04468e-17
-2.13014e-10
-1.1324e-16
-2.13006e-10
-2.12969e-10
7.42164e-17
-2.12977e-10
7.72936e-17
-2.12995e-10
-2.62707e-17
-2.13013e-10
-8.1848e-17
-2.13006e-10
-2.12969e-10
5.04842e-17
-2.12977e-10
5.6289e-17
-2.12995e-10
-1.27969e-17
-2.13013e-10
-5.20231e-17
-2.13006e-10
-2.12969e-10
2.79658e-17
-2.12977e-10
3.63069e-17
-2.12995e-10
-5.35327e-20
-2.13013e-10
-2.38238e-17
-2.13006e-10
-2.12969e-10
6.71038e-18
-2.12977e-10
1.73899e-17
-2.12995e-10
1.1933e-17
-2.13013e-10
2.69496e-18
-2.13006e-10
-2.12969e-10
-1.32361e-17
-2.12977e-10
-4.21434e-19
-2.12995e-10
2.31383e-17
-2.13013e-10
2.74824e-17
-2.13006e-10
-2.12969e-10
-3.18306e-17
-2.12977e-10
-1.70894e-17
-2.12995e-10
3.35398e-17
-2.13013e-10
5.04919e-17
-2.13006e-10
-2.12969e-10
-4.90339e-17
-2.12977e-10
-3.2579e-17
-2.12995e-10
4.31175e-17
-2.13013e-10
7.16814e-17
-2.13006e-10
-2.12969e-10
-6.48105e-17
-2.12977e-10
-4.68586e-17
-2.12995e-10
5.18534e-17
-2.13014e-10
9.10144e-17
-2.13006e-10
-2.12969e-10
-7.91293e-17
-2.12977e-10
-5.98998e-17
-2.12995e-10
5.97324e-17
-2.13014e-10
1.0846e-16
-2.13006e-10
-2.12968e-10
-9.19638e-17
-2.12977e-10
-7.16783e-17
-2.12995e-10
6.67421e-17
-2.13014e-10
1.23992e-16
-2.13006e-10
-2.12968e-10
-1.03292e-16
-2.12977e-10
-8.21737e-17
-2.12995e-10
7.28729e-17
-2.13014e-10
1.37591e-16
-2.13006e-10
-2.12968e-10
-1.13099e-16
-2.12977e-10
-9.13698e-17
-2.12995e-10
7.81187e-17
-2.13014e-10
1.49246e-16
-2.13006e-10
-2.12968e-10
-1.21372e-16
-2.12977e-10
-9.9255e-17
-2.12995e-10
8.24767e-17
-2.13014e-10
1.58951e-16
-2.13006e-10
-2.12968e-10
-1.28106e-16
-2.12976e-10
-1.05823e-16
-2.12995e-10
8.59462e-17
-2.13015e-10
1.66709e-16
-2.13006e-10
-2.12968e-10
-1.33303e-16
-1.11071e-16
8.85319e-17
1.72528e-16
)
;

boundaryField
{
    BotWall
    {
        type            calculated;
        value           nonuniform 0();
    }
    FreeStream
    {
        type            calculated;
        value           nonuniform 0();
    }
    FrontNBack
    {
        type            empty;
        value           nonuniform 0();
    }
    LeftSide
    {
        type            symmetryPlane;
        value           uniform 0;
    }
    RightSide
    {
        type            symmetryPlane;
        value           uniform 0;
    }
    procBoundary1to0
    {
        type            processor;
        value           nonuniform List<scalar> 5(2.12975e-10 2.12995e-10 2.13017e-10 2.13008e-10 2.12966e-10);
    }
    procBoundary1to2
    {
        type            processor;
        value           nonuniform List<scalar> 5(-2.12976e-10 -2.12996e-10 -2.13015e-10 -2.13006e-10 -2.12967e-10);
    }
}


// ************************************************************************* //
