/*--------------------------------*- C++ -*----------------------------------*\
| =========                 |                                                 |
| \\      /  F ield         | OpenFOAM: The Open Source CFD Toolbox           |
|  \\    /   O peration     | Version:  2.4.0                                 |
|   \\  /    A nd           | Web:      www.OpenFOAM.org                      |
|    \\/     M anipulation  |                                                 |
\*---------------------------------------------------------------------------*/
FoamFile
{
    version     2.0;
    format      ascii;
    class       volVectorField;
    location    "3.6";
    object      U;
}
// * * * * * * * * * * * * * * * * * * * * * * * * * * * * * * * * * * * * * //

dimensions      [0 1 -1 0 0 0 0];

internalField   nonuniform List<vector> 
125
(
(5.86498e-08 -0.00101241 0)
(1.43441e-07 -0.00101253 0)
(4.05951e-08 -0.00101265 0)
(-1.47915e-07 -0.0010126 0)
(-1.03672e-07 -0.00101237 0)
(5.25262e-08 -0.00103965 0)
(1.29473e-07 -0.00103974 0)
(3.68841e-08 -0.00103985 0)
(-1.32636e-07 -0.0010398 0)
(-9.29991e-08 -0.00103961 0)
(4.66614e-08 -0.00106335 0)
(1.16128e-07 -0.00106344 0)
(3.33477e-08 -0.00106354 0)
(-1.18051e-07 -0.0010635 0)
(-8.28387e-08 -0.0010633 0)
(4.09878e-08 -0.00106723 0)
(1.03251e-07 -0.00106733 0)
(2.9943e-08 -0.00106742 0)
(-1.04005e-07 -0.00106738 0)
(-7.30788e-08 -0.00106719 0)
(3.55454e-08 -0.00106589 0)
(9.08811e-08 -0.00106598 0)
(2.66687e-08 -0.00106608 0)
(-9.05385e-08 -0.00106604 0)
(-6.3758e-08 -0.00106584 0)
(3.03605e-08 -0.00106495 0)
(7.90567e-08 -0.00106504 0)
(2.35306e-08 -0.00106514 0)
(-7.76914e-08 -0.00106509 0)
(-5.49069e-08 -0.0010649 0)
(2.54383e-08 -0.00106479 0)
(6.77914e-08 -0.00106488 0)
(2.05322e-08 -0.00106497 0)
(-6.54761e-08 -0.00106493 0)
(-4.65311e-08 -0.00106474 0)
(2.07784e-08 -0.00106484 0)
(5.70894e-08 -0.00106494 0)
(1.76753e-08 -0.00106503 0)
(-5.38958e-08 -0.00106499 0)
(-3.86291e-08 -0.0010648 0)
(1.63816e-08 -0.00106488 0)
(4.69547e-08 -0.00106497 0)
(1.4961e-08 -0.00106507 0)
(-4.29534e-08 -0.00106503 0)
(-3.11999e-08 -0.00106484 0)
(1.22498e-08 -0.00106489 0)
(3.7392e-08 -0.00106498 0)
(1.23901e-08 -0.00106507 0)
(-3.26525e-08 -0.00106503 0)
(-2.42431e-08 -0.00106485 0)
(8.38428e-09 -0.00106489 0)
(2.84053e-08 -0.00106498 0)
(9.96376e-09 -0.00106507 0)
(-2.29959e-08 -0.00106503 0)
(-1.77579e-08 -0.00106484 0)
(4.78591e-09 -0.00106489 0)
(1.99973e-08 -0.00106498 0)
(7.68243e-09 -0.00106507 0)
(-1.39849e-08 -0.00106503 0)
(-1.17425e-08 -0.00106484 0)
(1.45479e-09 -0.00106489 0)
(1.21694e-08 -0.00106498 0)
(5.54651e-09 -0.00106507 0)
(-5.61946e-09 -0.00106503 0)
(-6.19417e-09 -0.00106484 0)
(-1.60953e-09 -0.00106489 0)
(4.92181e-09 -0.00106498 0)
(3.5561e-09 -0.00106507 0)
(2.10193e-09 -0.00106503 0)
(-1.10909e-09 -0.00106484 0)
(-4.40815e-09 -0.00106489 0)
(-1.74659e-09 -0.00106498 0)
(1.71099e-09 -0.00106507 0)
(9.1821e-09 -0.00106503 0)
(3.51736e-09 -0.00106484 0)
(-6.94277e-09 -0.00106489 0)
(-7.83825e-09 -0.00106498 0)
(1.07007e-11 -0.00106507 0)
(1.56254e-08 -0.00106503 0)
(7.69084e-09 -0.00106484 0)
(-9.21574e-09 -0.00106489 0)
(-1.3357e-08 -0.00106498 0)
(-1.54557e-09 -0.00106507 0)
(2.14375e-08 -0.00106503 0)
(1.1418e-08 -0.00106484 0)
(-1.12301e-08 -0.00106489 0)
(-1.83081e-08 -0.00106498 0)
(-2.95895e-09 -0.00106507 0)
(2.6626e-08 -0.00106503 0)
(1.47064e-08 -0.00106484 0)
(-1.29895e-08 -0.00106489 0)
(-2.26983e-08 -0.00106498 0)
(-4.23088e-09 -0.00106507 0)
(3.11996e-08 -0.00106503 0)
(1.75647e-08 -0.00106484 0)
(-1.44984e-08 -0.00106489 0)
(-2.65358e-08 -0.00106498 0)
(-5.36314e-09 -0.00106507 0)
(3.51689e-08 -0.00106503 0)
(2.00026e-08 -0.00106484 0)
(-1.57618e-08 -0.00106488 0)
(-2.98302e-08 -0.00106498 0)
(-6.35787e-09 -0.00106507 0)
(3.8546e-08 -0.00106503 0)
(2.20308e-08 -0.00106484 0)
(-1.67855e-08 -0.00106488 0)
(-3.25927e-08 -0.00106498 0)
(-7.21753e-09 -0.00106507 0)
(4.13444e-08 -0.00106503 0)
(2.36608e-08 -0.00106484 0)
(-1.7576e-08 -0.00106488 0)
(-3.48359e-08 -0.00106498 0)
(-7.94495e-09 -0.00106507 0)
(4.35795e-08 -0.00106503 0)
(2.49057e-08 -0.00106484 0)
(-1.81402e-08 -0.00106488 0)
(-3.65741e-08 -0.00106498 0)
(-8.54329e-09 -0.00106507 0)
(4.52683e-08 -0.00106503 0)
(2.57789e-08 -0.00106484 0)
(-1.84862e-08 -0.00106488 0)
(-3.78227e-08 -0.00106498 0)
(-9.01606e-09 -0.00106507 0)
(4.64289e-08 -0.00106503 0)
(2.62951e-08 -0.00106484 0)
)
;

boundaryField
{
    BotWall
    {
        type            fixedValue;
        value           nonuniform 0();
    }
    FreeStream
    {
        type            zeroGradient;
    }
    FrontNBack
    {
        type            empty;
    }
    LeftSide
    {
        type            symmetryPlane;
    }
    RightSide
    {
        type            symmetryPlane;
    }
    procBoundary1to0
    {
        type            processor;
        value           nonuniform List<vector> 5((6.53376e-08 -0.0010839 0) (1.58496e-07 -0.00108406 0) (4.45623e-08 -0.00108422 0) (-1.64374e-07 -0.00108415 0) (-1.15268e-07 -0.00108385 0));
    }
    procBoundary1to2
    {
        type            processor;
        value           nonuniform List<vector> 5((-1.86222e-08 -0.00106488 0) (-3.85989e-08 -0.00106498 0) (-9.36711e-09 -0.00106507 0) (4.70809e-08 -0.00106503 0) (2.64696e-08 -0.00106484 0));
    }
}


// ************************************************************************* //
