/*--------------------------------*- C++ -*----------------------------------*\
| =========                 |                                                 |
| \\      /  F ield         | OpenFOAM: The Open Source CFD Toolbox           |
|  \\    /   O peration     | Version:  2.4.0                                 |
|   \\  /    A nd           | Web:      www.OpenFOAM.org                      |
|    \\/     M anipulation  |                                                 |
\*---------------------------------------------------------------------------*/
FoamFile
{
    version     2.0;
    format      ascii;
    class       volScalarField;
    location    "0.003";
    object      p;
}
// * * * * * * * * * * * * * * * * * * * * * * * * * * * * * * * * * * * * * //

dimensions      [1 -1 -2 0 0 0 0];

internalField   nonuniform List<scalar> 
125
(
-0.102625
-0.102742
-0.102857
-0.102969
-0.103079
-0.103187
-0.103292
-0.103395
-0.103495
-0.103593
-0.103689
-0.103783
-0.103874
-0.103963
-0.104049
-0.104133
-0.104215
-0.104295
-0.104373
-0.104448
-0.104522
-0.104593
-0.104662
-0.104729
-0.104793
-0.104856
-0.104916
-0.104975
-0.105031
-0.105086
-0.105138
-0.105189
-0.105237
-0.105284
-0.105328
-0.105371
-0.105411
-0.10545
-0.105487
-0.105522
-0.105556
-0.105587
-0.105617
-0.105645
-0.105671
-0.105695
-0.105717
-0.105738
-0.105757
-0.105775
-0.105791
-0.105805
-0.105817
-0.105828
-0.105837
-0.105845
-0.105851
-0.105855
-0.105858
-0.10586
-0.10586
-0.105858
-0.105855
-0.10585
-0.105844
-0.105837
-0.105828
-0.105818
-0.105806
-0.105793
-0.105779
-0.105763
-0.105746
-0.105728
-0.105708
-0.105687
-0.105665
-0.105641
-0.105617
-0.105591
-0.105564
-0.105535
-0.105506
-0.105475
-0.105443
-0.10541
-0.105376
-0.105341
-0.105304
-0.105267
-0.105228
-0.105189
-0.105148
-0.105107
-0.105064
-0.10502
-0.104976
-0.10493
-0.104884
-0.104836
-0.104788
-0.104738
-0.104688
-0.104637
-0.104585
-0.104532
-0.104478
-0.104423
-0.104368
-0.104311
-0.104254
-0.104196
-0.104138
-0.104078
-0.104018
-0.103957
-0.103895
-0.103833
-0.103769
-0.103706
-0.103641
-0.103576
-0.103509
-0.103443
-0.103375
)
;

boundaryField
{
    BotWall
    {
        type            calculated;
        value           nonuniform 0();
    }
    FreeStream
    {
        type            calculated;
        value           nonuniform 0();
    }
    FrontNBack
    {
        type            empty;
    }
    LeftSide
    {
        type            symmetryPlane;
    }
    RightSide
    {
        type            symmetryPlane;
    }
    procBoundary5to2
    {
        type            processor;
        value           nonuniform List<scalar> 
50
(
-0.112777
-0.112606
-0.112435
-0.112266
-0.112097
-0.11193
-0.111763
-0.111597
-0.111432
-0.111268
-0.111105
-0.110943
-0.110781
-0.11062
-0.11046
-0.110301
-0.110143
-0.109985
-0.109828
-0.109671
-0.109515
-0.10936
-0.109206
-0.109052
-0.108898
-0.108746
-0.108593
-0.108442
-0.10829
-0.10814
-0.107989
-0.10784
-0.10769
-0.107541
-0.107393
-0.107245
-0.107097
-0.10695
-0.106802
-0.106656
-0.106509
-0.106363
-0.106217
-0.106071
-0.105926
-0.10578
-0.105635
-0.10549
-0.105345
-0.105201
)
;
    }
    procBoundary5to3
    {
        type            processor;
        value           nonuniform List<scalar> 
75
(
-0.129574
-0.129283
-0.128993
-0.128706
-0.128421
-0.128138
-0.127858
-0.127579
-0.127303
-0.127029
-0.126756
-0.126486
-0.126218
-0.125952
-0.125689
-0.125427
-0.125167
-0.124909
-0.124653
-0.124399
-0.124147
-0.123897
-0.123649
-0.123402
-0.123158
-0.122915
-0.122675
-0.122436
-0.122199
-0.121963
-0.12173
-0.121498
-0.121268
-0.12104
-0.120813
-0.120588
-0.120365
-0.120143
-0.119923
-0.119705
-0.119488
-0.119273
-0.119059
-0.118847
-0.118637
-0.118428
-0.11822
-0.118014
-0.11781
-0.117607
-0.117405
-0.117205
-0.117006
-0.116809
-0.116613
-0.116418
-0.116225
-0.116032
-0.115842
-0.115652
-0.115464
-0.115277
-0.115091
-0.114907
-0.114723
-0.114541
-0.11436
-0.11418
-0.114001
-0.113824
-0.113647
-0.113472
-0.113297
-0.113123
-0.11295
)
;
    }
    procBoundary5to4
    {
        type            processor;
        value           uniform -0.103307;
    }
    procBoundary5to6
    {
        type            processor;
        value           uniform -0.102505;
    }
    procBoundary5to7
    {
        type            processor;
        value           nonuniform List<scalar> 
75
(
-0.112777
-0.112624
-0.112471
-0.112321
-0.112171
-0.112023
-0.111876
-0.11173
-0.111586
-0.111443
-0.111301
-0.11116
-0.11102
-0.110882
-0.110744
-0.110608
-0.110473
-0.110339
-0.110206
-0.110074
-0.109943
-0.109813
-0.109685
-0.109557
-0.10943
-0.109304
-0.109179
-0.109055
-0.108932
-0.10881
-0.108689
-0.108569
-0.108449
-0.10833
-0.108212
-0.108095
-0.107979
-0.107863
-0.107748
-0.107634
-0.107521
-0.107408
-0.107296
-0.107185
-0.107074
-0.106964
-0.106855
-0.106746
-0.106638
-0.10653
-0.106423
-0.106316
-0.10621
-0.106105
-0.105999
-0.105895
-0.105791
-0.105687
-0.105584
-0.105481
-0.105379
-0.105277
-0.105175
-0.105074
-0.104973
-0.104872
-0.104772
-0.104672
-0.104572
-0.104472
-0.104373
-0.104274
-0.104175
-0.104076
-0.103977
)
;
    }
    procBoundary5to8
    {
        type            processor;
        value           nonuniform List<scalar> 
50
(
-0.122399
-0.122162
-0.121927
-0.121694
-0.121463
-0.121234
-0.121007
-0.120782
-0.120559
-0.120338
-0.120119
-0.119902
-0.119687
-0.119474
-0.119262
-0.119053
-0.118845
-0.118639
-0.118435
-0.118233
-0.118032
-0.117834
-0.117637
-0.117442
-0.117248
-0.117057
-0.116867
-0.116678
-0.116492
-0.116307
-0.116123
-0.115942
-0.115762
-0.115583
-0.115406
-0.115231
-0.115057
-0.114885
-0.114715
-0.114546
-0.114378
-0.114212
-0.114047
-0.113884
-0.113722
-0.113562
-0.113403
-0.113245
-0.113088
-0.112932
)
;
    }
}


// ************************************************************************* //
