/*--------------------------------*- C++ -*----------------------------------*\
| =========                 |                                                 |
| \\      /  F ield         | OpenFOAM: The Open Source CFD Toolbox           |
|  \\    /   O peration     | Version:  2.4.0                                 |
|   \\  /    A nd           | Web:      www.OpenFOAM.org                      |
|    \\/     M anipulation  |                                                 |
\*---------------------------------------------------------------------------*/
FoamFile
{
    version     2.0;
    format      ascii;
    class       volScalarField;
    location    "3.5";
    object      p;
}
// * * * * * * * * * * * * * * * * * * * * * * * * * * * * * * * * * * * * * //

dimensions      [1 -1 -2 0 0 0 0];

internalField   nonuniform List<scalar> 
125
(
-0.0577037
-0.0577038
-0.057704
-0.0577045
-0.0577053
-0.0588385
-0.0588386
-0.0588388
-0.0588393
-0.05884
-0.0599859
-0.059986
-0.0599862
-0.0599867
-0.0599874
-0.0611462
-0.0611463
-0.0611465
-0.0611469
-0.0611476
-0.0623194
-0.0623194
-0.0623197
-0.0623201
-0.0623207
-0.0635056
-0.0635057
-0.0635059
-0.0635064
-0.0635069
-0.0647052
-0.0647053
-0.0647054
-0.0647059
-0.0647064
-0.0659181
-0.0659182
-0.0659183
-0.0659187
-0.0659192
-0.0671445
-0.0671446
-0.0671448
-0.0671451
-0.0671456
-0.0683847
-0.0683847
-0.0683849
-0.0683852
-0.0683857
-0.0696386
-0.0696387
-0.0696389
-0.0696392
-0.0696396
-0.0709066
-0.0709067
-0.0709068
-0.0709071
-0.0709075
-0.0721887
-0.0721888
-0.0721889
-0.0721892
-0.0721895
-0.0734851
-0.0734852
-0.0734853
-0.0734856
-0.0734859
-0.074796
-0.0747961
-0.0747962
-0.0747964
-0.0747967
-0.0761215
-0.0761216
-0.0761217
-0.0761219
-0.0761222
-0.0774618
-0.0774619
-0.077462
-0.0774622
-0.0774624
-0.0788171
-0.0788171
-0.0788172
-0.0788174
-0.0788176
-0.0801875
-0.0801875
-0.0801876
-0.0801877
-0.0801879
-0.0815732
-0.0815732
-0.0815732
-0.0815734
-0.0815735
-0.0829743
-0.0829743
-0.0829744
-0.0829745
-0.0829746
-0.0843911
-0.0843911
-0.0843911
-0.0843912
-0.0843913
-0.0858237
-0.0858237
-0.0858237
-0.0858238
-0.0858238
-0.0872722
-0.0872722
-0.0872722
-0.0872723
-0.0872723
-0.088737
-0.088737
-0.088737
-0.088737
-0.088737
)
;

boundaryField
{
    BotWall
    {
        type            calculated;
        value           nonuniform 0();
    }
    FreeStream
    {
        type            calculated;
        value           nonuniform List<scalar> 5(-0.0894734 -0.0894734 -0.0894734 -0.0894734 -0.0894734);
    }
    FrontNBack
    {
        type            empty;
    }
    LeftSide
    {
        type            symmetryPlane;
    }
    RightSide
    {
        type            symmetryPlane;
    }
    procBoundary3to2
    {
        type            processor;
        value           nonuniform List<scalar> 5(-0.0565814 -0.0565815 -0.0565818 -0.0565823 -0.0565831);
    }
}


// ************************************************************************* //
