/*--------------------------------*- C++ -*----------------------------------*\
| =========                 |                                                 |
| \\      /  F ield         | OpenFOAM: The Open Source CFD Toolbox           |
|  \\    /   O peration     | Version:  2.4.0                                 |
|   \\  /    A nd           | Web:      www.OpenFOAM.org                      |
|    \\/     M anipulation  |                                                 |
\*---------------------------------------------------------------------------*/
FoamFile
{
    version     2.0;
    format      ascii;
    class       volScalarField;
    location    "0.007";
    object      H;
}
// * * * * * * * * * * * * * * * * * * * * * * * * * * * * * * * * * * * * * //

dimensions      [0 2 -2 0 0 0 0];

internalField   nonuniform List<scalar> 
125
(
-9835.93
-5032.85
-83.8924
-61.9447
-60.5955
-59.2646
-57.9501
-56.6508
-55.3656
-54.0935
-52.8337
-51.5856
-50.3486
-49.1223
-47.9065
-46.701
-45.5057
-44.3205
-43.1456
-41.9811
-40.8272
-39.6842
-38.5524
-37.4322
-36.324
-35.2282
-34.1453
-33.0757
-32.0199
-30.9784
-29.9517
-28.9404
-27.9448
-26.9655
-26.003
-25.0577
-24.13
-23.2203
-22.3291
-21.4566
-20.6033
-19.7694
-18.9553
-18.161
-17.3869
-16.6331
-15.8997
-15.1869
-14.4947
-13.8231
-4.76883e-10
-3.63503e-10
-2.68236e-10
-2.5755e-10
-1.63652e-10
-1.48487e-10
-8.68028e-11
-5.95787e-11
-5.04656e-11
-4.75036e-11
-5.52836e-11
-5.16605e-11
-4.80182e-11
-2.34042e-11
-1.14698e-13
8.91797e-13
7.46777e-14
-2.65791e-14
-5.03169e-15
4.83991e-16
2.13152e-16
2.86514e-18
-6.31951e-18
-5.80076e-19
1.35139e-19
2.51932e-20
-1.85851e-21
-7.53538e-22
3.69047e-27
1.78646e-23
9.96318e-25
-3.45549e-25
-3.98239e-26
5.24936e-27
1.08238e-27
-5.08306e-29
-2.34438e-29
-1.83363e-31
4.1791e-31
2.30803e-32
-6.05159e-33
-6.62032e-34
6.64785e-35
1.32389e-35
-4.07828e-37
-2.09554e-37
-3.25375e-39
2.70796e-39
1.54214e-40
-2.82792e-41
-3.01818e-42
2.22242e-43
4.33909e-44
-9.12785e-46
-5.06938e-46
-7.89567e-48
4.96269e-48
2.40911e-49
-4.08241e-50
-3.52718e-51
2.75225e-52
3.9598e-53
-1.37435e-54
-3.78609e-55
2.42771e-57
3.23495e-57
5.33135e-59
-2.53516e-59
-9.82348e-61
1.83274e-61
1.17977e-62
-1.19726e-63
-1.18919e-64
6.64175e-66
1.11799e-66
)
;

boundaryField
{
    BotWall
    {
        type            zeroGradient;
    }
    FreeStream
    {
        type            zeroGradient;
    }
    FrontNBack
    {
        type            empty;
    }
    LeftSide
    {
        type            symmetryPlane;
    }
    RightSide
    {
        type            symmetryPlane;
    }
    procBoundary2to0
    {
        type            processor;
        value           nonuniform List<scalar> 
75
(
-4.71014e-10
-3.62705e-10
-2.59976e-10
-2.44522e-10
-1.64414e-10
-1.44128e-10
-7.72559e-11
-5.98315e-11
-4.86124e-11
-5.11049e-11
-5.58756e-11
-4.6667e-11
-5.08911e-11
-1.85599e-11
8.68778e-13
7.50842e-13
3.06361e-14
-2.50418e-14
-3.44349e-15
5.59536e-16
1.65417e-16
-3.89086e-18
-5.41658e-18
-3.07092e-19
1.31059e-19
1.78259e-20
-2.209e-21
-5.97539e-22
1.54684e-23
1.49438e-23
5.30139e-25
-2.9634e-25
-2.72555e-26
4.65563e-27
7.77138e-28
-5.23121e-29
-1.7153e-29
1.63026e-31
3.14766e-31
1.1399e-32
-4.8391e-33
-4.03917e-34
6.00432e-35
8.96508e-36
-5.22071e-37
-1.55404e-37
7.93007e-40
2.20763e-39
8.33596e-41
-2.56598e-41
-2.14785e-42
2.31711e-43
3.56567e-44
-1.29645e-45
-4.63064e-46
-3.73257e-48
4.91952e-48
2.27655e-49
-4.25687e-50
-3.86596e-51
2.81764e-52
4.70551e-53
-1.04815e-54
-4.65349e-55
-5.43729e-57
3.88557e-57
1.60108e-58
-2.76803e-59
-2.02283e-60
1.67438e-61
1.93348e-62
-8.46738e-64
-1.5678e-64
3.51608e-66
1.21411e-66
)
;
    }
    procBoundary2to1
    {
        type            processor;
        value           uniform -13.172;
    }
    procBoundary2to3
    {
        type            processor;
        value           uniform -6.66754e-10;
    }
    procBoundary2to4
    {
        type            processor;
        value           nonuniform List<scalar> 
75
(
-9829.23
-5012.75
-82.7484
-61.0919
-59.7373
-58.4027
-57.0865
-55.7871
-54.5035
-53.2347
-51.9796
-50.7377
-49.5083
-48.291
-47.0853
-45.891
-44.7079
-43.5361
-42.3754
-41.226
-40.0879
-38.9615
-37.8469
-36.7444
-35.6544
-34.5772
-33.5132
-32.4629
-31.4266
-30.4048
-29.3979
-28.4064
-27.4306
-26.4711
-25.5282
-24.6024
-23.694
-22.8034
-21.931
-21.0771
-20.2419
-19.4258
-18.629
-17.8518
-17.0942
-16.3564
-15.6387
-14.9409
-14.2633
-13.6058
-1.18248e-49
9.9178e-51
3.17798e-51
-1.06954e-52
-5.78114e-53
-3.7059e-55
7.99706e-55
3.31715e-56
-8.64236e-57
-6.77383e-58
7.26622e-59
9.34686e-60
-4.55688e-61
-1.02743e-61
1.73556e-63
9.8301e-64
3.75382e-66
-8.83814e-66
-1.71626e-67
7.96257e-68
2.68445e-69
-7.43195e-70
-3.72541e-71
7.10993e-72
4.63486e-73
)
;
    }
    procBoundary2to5
    {
        type            processor;
        value           nonuniform List<scalar> 
50
(
-4.67876e-10
-3.69288e-10
-2.64821e-10
-2.57974e-10
-1.59739e-10
-1.54299e-10
-8.09929e-11
-5.89307e-11
-5.04553e-11
-5.10612e-11
-5.60749e-11
-4.62354e-11
-4.78168e-11
-2.32895e-11
-9.65044e-15
8.10482e-13
5.66421e-14
-2.575e-14
-4.24938e-15
5.24995e-16
1.87328e-16
-8.53062e-19
-5.75161e-18
-4.15269e-19
1.30442e-19
2.0139e-20
-2.06824e-21
-6.35366e-22
1.21191e-23
1.56855e-23
6.01888e-25
-3.15427e-25
-2.96665e-26
5.06538e-27
8.58658e-28
-5.73162e-29
-1.92313e-29
1.43404e-31
3.53661e-31
1.39518e-32
-5.36732e-33
-4.73283e-34
6.46974e-35
1.02123e-35
-5.29031e-37
-1.72434e-37
1.34875e-40
2.38814e-39
9.87917e-41
-2.70711e-41
)
;
    }
}


// ************************************************************************* //
