/*--------------------------------*- C++ -*----------------------------------*\
| =========                 |                                                 |
| \\      /  F ield         | OpenFOAM: The Open Source CFD Toolbox           |
|  \\    /   O peration     | Version:  2.4.0                                 |
|   \\  /    A nd           | Web:      www.OpenFOAM.org                      |
|    \\/     M anipulation  |                                                 |
\*---------------------------------------------------------------------------*/
FoamFile
{
    version     2.0;
    format      ascii;
    class       surfaceScalarField;
    location    "0.007";
    object      phi;
}
// * * * * * * * * * * * * * * * * * * * * * * * * * * * * * * * * * * * * * //

dimensions      [0 3 -1 0 0 0 0];

internalField   nonuniform List<scalar> 
123
(
-6.04959e-16
-2.51679e-15
-6.27881e-09
-6.27881e-09
-6.27882e-09
-6.27883e-09
-6.27884e-09
-6.27886e-09
-6.27888e-09
-6.2789e-09
-6.27892e-09
-6.27895e-09
-6.27898e-09
-6.27901e-09
-6.27904e-09
-6.27907e-09
-6.2791e-09
-6.27914e-09
-6.27918e-09
-6.27922e-09
-6.27926e-09
-6.2793e-09
-6.27934e-09
-6.27938e-09
-6.27942e-09
-6.27947e-09
-6.27951e-09
-6.27955e-09
-6.2796e-09
-6.27964e-09
-6.27969e-09
-6.27974e-09
-6.27978e-09
-6.27983e-09
-6.27987e-09
-6.27992e-09
-6.27997e-09
-6.28001e-09
-6.28006e-09
-6.2801e-09
-6.28015e-09
-6.2802e-09
-6.28024e-09
-6.28029e-09
-6.28033e-09
-6.28038e-09
-6.28042e-09
-6.28047e-09
-6.28051e-09
-6.29016e-09
-6.29015e-09
-6.29013e-09
-6.29012e-09
-6.29011e-09
-6.29009e-09
-6.29008e-09
-6.29007e-09
-6.29006e-09
-6.29004e-09
-6.29003e-09
-6.29002e-09
-6.29001e-09
-6.28999e-09
-6.28998e-09
-6.28997e-09
-6.28996e-09
-6.28994e-09
-6.28993e-09
-6.28992e-09
-6.28991e-09
-6.2899e-09
-6.28989e-09
-6.28988e-09
-6.28987e-09
-6.28985e-09
-6.28984e-09
-6.28983e-09
-6.28982e-09
-6.28981e-09
-6.2898e-09
-6.28979e-09
-6.28979e-09
-6.28978e-09
-6.28977e-09
-6.28976e-09
-6.28975e-09
-6.28974e-09
-6.28974e-09
-6.28973e-09
-6.28972e-09
-6.28972e-09
-6.28971e-09
-6.28971e-09
-6.2897e-09
-6.2897e-09
-6.2897e-09
-6.28969e-09
-6.28969e-09
-6.28969e-09
-6.28969e-09
-6.28968e-09
-6.28968e-09
-6.28968e-09
-6.28968e-09
-6.28968e-09
-6.28968e-09
-6.28968e-09
-6.28968e-09
-6.28969e-09
-6.28969e-09
-6.28969e-09
-6.28969e-09
-6.28969e-09
-6.2897e-09
-6.2897e-09
-6.2897e-09
-6.28971e-09
-6.28971e-09
-6.28971e-09
-6.28972e-09
-6.28972e-09
-6.28972e-09
-6.28973e-09
)
;

boundaryField
{
    BotWall
    {
        type            calculated;
        value           uniform 1.29121e-20;
    }
    FreeStream
    {
        type            calculated;
        value           uniform -6.28973e-09;
    }
    FrontNBack
    {
        type            empty;
        value           nonuniform 0();
    }
    LeftSide
    {
        type            symmetryPlane;
        value           uniform 0;
    }
    RightSide
    {
        type            symmetryPlane;
        value           nonuniform 0();
    }
    procBoundary2to0
    {
        type            processor;
        value           nonuniform List<scalar> 
75
(
-1.82526e-14
-1.81403e-14
-1.80284e-14
-1.79168e-14
-1.78053e-14
-1.76939e-14
-1.75824e-14
-1.74706e-14
-1.73583e-14
-1.72451e-14
-1.71309e-14
-1.70151e-14
-1.68974e-14
-1.67773e-14
-1.66543e-14
-1.65278e-14
-1.63972e-14
-1.62617e-14
-1.61205e-14
-1.5973e-14
-1.58181e-14
-1.56551e-14
-1.5483e-14
-1.53007e-14
-1.51073e-14
-1.49019e-14
-1.46834e-14
-1.44509e-14
-1.42035e-14
-1.39403e-14
-1.36604e-14
-1.33634e-14
-1.30485e-14
-1.27155e-14
-1.23639e-14
-1.19938e-14
-1.16053e-14
-1.11986e-14
-1.07744e-14
-1.03335e-14
-9.8769e-15
-9.40587e-15
-8.92196e-15
-8.42692e-15
-7.92273e-15
-7.41159e-15
-6.89586e-15
-6.37806e-15
-5.86082e-15
-5.34689e-15
-4.83901e-15
-4.33996e-15
-3.85246e-15
-3.37917e-15
-2.92258e-15
-2.48504e-15
-2.06866e-15
-1.67533e-15
-1.30661e-15
-9.63783e-16
-6.47794e-16
-3.59234e-16
-9.83417e-17
1.34081e-16
3.38847e-16
5.17149e-16
6.69997e-16
7.98693e-16
9.04792e-16
9.90064e-16
1.05645e-15
1.10601e-15
1.14092e-15
1.16343e-15
1.16826e-15
)
;
    }
    procBoundary2to1
    {
        type            processor;
        value           uniform -6.28055e-09;
    }
    procBoundary2to3
    {
        type            processor;
        value           uniform 6.29017e-09;
    }
    procBoundary2to4
    {
        type            processor;
        value           nonuniform List<scalar> 
75
(
6.04946e-16
1.77579e-15
3.71548e-15
4.00705e-15
6.64147e-15
9.94778e-15
1.30607e-14
1.59397e-14
1.86205e-14
2.11325e-14
2.34853e-14
2.56842e-14
2.77347e-14
2.96428e-14
3.14146e-14
3.30559e-14
3.45724e-14
3.59698e-14
3.72532e-14
3.8428e-14
3.94992e-14
4.04719e-14
4.13508e-14
4.21407e-14
4.28461e-14
4.34714e-14
4.40211e-14
4.44992e-14
4.49099e-14
4.5257e-14
4.55445e-14
4.57761e-14
4.59553e-14
4.60855e-14
4.61702e-14
4.62125e-14
4.62156e-14
4.61825e-14
4.6116e-14
4.60188e-14
4.58936e-14
4.57428e-14
4.5569e-14
4.53743e-14
4.5161e-14
4.4931e-14
4.46864e-14
4.44289e-14
4.41604e-14
4.38823e-14
2.9094e-15
2.84616e-15
2.78471e-15
2.72547e-15
2.66882e-15
2.61511e-15
2.56467e-15
2.51777e-15
2.47465e-15
2.43548e-15
2.40041e-15
2.36951e-15
2.34278e-15
2.3202e-15
2.30166e-15
2.28702e-15
2.27607e-15
2.26858e-15
2.26426e-15
2.2628e-15
2.26385e-15
2.26707e-15
2.27211e-15
2.27857e-15
2.28529e-15
)
;
    }
    procBoundary2to5
    {
        type            processor;
        value           nonuniform List<scalar> 
50
(
4.69238e-15
4.67072e-15
4.64922e-15
4.6279e-15
4.60678e-15
4.58587e-15
4.56519e-15
4.54473e-15
4.5245e-15
4.5045e-15
4.48469e-15
4.46506e-15
4.44557e-15
4.42618e-15
4.40684e-15
4.38749e-15
4.36804e-15
4.34841e-15
4.32851e-15
4.30823e-15
4.28744e-15
4.26602e-15
4.24383e-15
4.22072e-15
4.19654e-15
4.17113e-15
4.14432e-15
4.11597e-15
4.08589e-15
4.05396e-15
4.02001e-15
3.98392e-15
3.94558e-15
3.90487e-15
3.86174e-15
3.81614e-15
3.76804e-15
3.71746e-15
3.66446e-15
3.60913e-15
3.55158e-15
3.49199e-15
3.43057e-15
3.36755e-15
3.30323e-15
3.23792e-15
3.17196e-15
3.10573e-15
3.03961e-15
2.97403e-15
)
;
    }
}


// ************************************************************************* //
