/*--------------------------------*- C++ -*----------------------------------*\
| =========                 |                                                 |
| \\      /  F ield         | OpenFOAM: The Open Source CFD Toolbox           |
|  \\    /   O peration     | Version:  2.4.0                                 |
|   \\  /    A nd           | Web:      www.OpenFOAM.org                      |
|    \\/     M anipulation  |                                                 |
\*---------------------------------------------------------------------------*/
FoamFile
{
    version     2.0;
    format      ascii;
    class       volVectorField;
    location    "0.007";
    object      U;
}
// * * * * * * * * * * * * * * * * * * * * * * * * * * * * * * * * * * * * * //

dimensions      [0 1 -1 0 0 0 0];

internalField   nonuniform List<vector> 
125
(
(6.32454e-07 -0.000483999 0)
(1.90354e-06 0.00203891 0)
(3.44211e-06 -0.00556646 0)
(3.93411e-06 -0.0304974 0)
(6.38604e-06 -0.0457873 0)
(9.13122e-06 -0.0327561 0)
(1.17379e-05 -0.0307285 0)
(1.41667e-05 -0.0309582 0)
(1.64155e-05 -0.0313353 0)
(1.84999e-05 -0.0314226 0)
(2.043e-05 -0.0314108 0)
(2.22129e-05 -0.0313968 0)
(2.38553e-05 -0.0313937 0)
(2.53637e-05 -0.0313943 0)
(2.67443e-05 -0.031395 0)
(2.80035e-05 -0.0313953 0)
(2.91472e-05 -0.0313955 0)
(3.01813e-05 -0.0313956 0)
(3.11114e-05 -0.0313958 0)
(3.19429e-05 -0.031396 0)
(3.26811e-05 -0.0313962 0)
(3.33311e-05 -0.0313964 0)
(3.38978e-05 -0.0313966 0)
(3.43861e-05 -0.0313968 0)
(3.48006e-05 -0.031397 0)
(3.51456e-05 -0.0313972 0)
(3.54256e-05 -0.0313974 0)
(3.56447e-05 -0.0313977 0)
(3.58068e-05 -0.0313979 0)
(3.59159e-05 -0.0313981 0)
(3.59756e-05 -0.0313983 0)
(3.59896e-05 -0.0313986 0)
(3.59613e-05 -0.0313988 0)
(3.58938e-05 -0.031399 0)
(3.57905e-05 -0.0313993 0)
(3.56542e-05 -0.0313995 0)
(3.54879e-05 -0.0313997 0)
(3.52943e-05 -0.0313999 0)
(3.5076e-05 -0.0314002 0)
(3.48354e-05 -0.0314004 0)
(3.45751e-05 -0.0314006 0)
(3.4297e-05 -0.0314009 0)
(3.40035e-05 -0.0314011 0)
(3.36963e-05 -0.0314013 0)
(3.33775e-05 -0.0314016 0)
(3.30488e-05 -0.0314018 0)
(3.27117e-05 -0.031402 0)
(3.23679e-05 -0.0314022 0)
(3.20187e-05 -0.0314024 0)
(3.16655e-05 -0.0314027 0)
(8.75435e-06 -0.0314508 0)
(8.63477e-06 -0.0314508 0)
(8.51599e-06 -0.0314507 0)
(8.39797e-06 -0.0314506 0)
(8.28066e-06 -0.0314506 0)
(8.16399e-06 -0.0314505 0)
(8.04787e-06 -0.0314504 0)
(7.93221e-06 -0.0314504 0)
(7.81689e-06 -0.0314503 0)
(7.70177e-06 -0.0314502 0)
(7.58669e-06 -0.0314502 0)
(7.47148e-06 -0.0314501 0)
(7.35594e-06 -0.0314501 0)
(7.23984e-06 -0.03145 0)
(7.12293e-06 -0.0314499 0)
(7.00494e-06 -0.0314499 0)
(6.88556e-06 -0.0314498 0)
(6.76448e-06 -0.0314498 0)
(6.64134e-06 -0.0314497 0)
(6.51579e-06 -0.0314496 0)
(6.38743e-06 -0.0314496 0)
(6.25587e-06 -0.0314495 0)
(6.12068e-06 -0.0314495 0)
(5.98146e-06 -0.0314494 0)
(5.83778e-06 -0.0314494 0)
(5.68923e-06 -0.0314493 0)
(5.53539e-06 -0.0314492 0)
(5.37588e-06 -0.0314492 0)
(5.21033e-06 -0.0314491 0)
(5.03843e-06 -0.0314491 0)
(4.85988e-06 -0.031449 0)
(4.67445e-06 -0.031449 0)
(4.48197e-06 -0.0314489 0)
(4.28235e-06 -0.0314489 0)
(4.07557e-06 -0.0314489 0)
(3.86167e-06 -0.0314488 0)
(3.64084e-06 -0.0314488 0)
(3.41331e-06 -0.0314487 0)
(3.17945e-06 -0.0314487 0)
(2.93973e-06 -0.0314487 0)
(2.69471e-06 -0.0314486 0)
(2.44508e-06 -0.0314486 0)
(2.1916e-06 -0.0314486 0)
(1.93515e-06 -0.0314486 0)
(1.6767e-06 -0.0314485 0)
(1.41728e-06 -0.0314485 0)
(1.15801e-06 -0.0314485 0)
(9.00039e-07 -0.0314485 0)
(6.44571e-07 -0.0314485 0)
(3.92825e-07 -0.0314484 0)
(1.46013e-07 -0.0314484 0)
(-9.46608e-08 -0.0314484 0)
(-3.28036e-07 -0.0314484 0)
(-5.53006e-07 -0.0314484 0)
(-7.6854e-07 -0.0314484 0)
(-9.73702e-07 -0.0314484 0)
(-1.16766e-06 -0.0314484 0)
(-1.34972e-06 -0.0314484 0)
(-1.5193e-06 -0.0314484 0)
(-1.67598e-06 -0.0314484 0)
(-1.81948e-06 -0.0314484 0)
(-1.94969e-06 -0.0314484 0)
(-2.06663e-06 -0.0314485 0)
(-2.17048e-06 -0.0314485 0)
(-2.26157e-06 -0.0314485 0)
(-2.34036e-06 -0.0314485 0)
(-2.40743e-06 -0.0314485 0)
(-2.46346e-06 -0.0314485 0)
(-2.50925e-06 -0.0314485 0)
(-2.54564e-06 -0.0314486 0)
(-2.57357e-06 -0.0314486 0)
(-2.59398e-06 -0.0314486 0)
(-2.60785e-06 -0.0314486 0)
(-2.6162e-06 -0.0314487 0)
(-2.62002e-06 -0.0314486 0)
)
;

boundaryField
{
    BotWall
    {
        type            fixedValue;
        value           uniform (0 0 0);
    }
    FreeStream
    {
        type            zeroGradient;
    }
    FrontNBack
    {
        type            empty;
    }
    LeftSide
    {
        type            symmetryPlane;
    }
    RightSide
    {
        type            symmetryPlane;
    }
    procBoundary2to0
    {
        type            processor;
        value           nonuniform List<vector> 
75
(
(8.69283e-06 -0.0314278 0)
(8.64137e-06 -0.0314279 0)
(8.59046e-06 -0.031428 0)
(8.54006e-06 -0.0314281 0)
(8.49012e-06 -0.0314282 0)
(8.44059e-06 -0.0314283 0)
(8.3914e-06 -0.0314284 0)
(8.34245e-06 -0.0314285 0)
(8.29366e-06 -0.0314286 0)
(8.2449e-06 -0.0314286 0)
(8.19603e-06 -0.0314287 0)
(8.14691e-06 -0.0314288 0)
(8.09736e-06 -0.0314289 0)
(8.04718e-06 -0.031429 0)
(7.99617e-06 -0.0314291 0)
(7.9441e-06 -0.0314291 0)
(7.8907e-06 -0.0314292 0)
(7.83572e-06 -0.0314293 0)
(7.77885e-06 -0.0314294 0)
(7.71979e-06 -0.0314295 0)
(7.65822e-06 -0.0314296 0)
(7.5938e-06 -0.0314296 0)
(7.5262e-06 -0.0314297 0)
(7.45505e-06 -0.0314298 0)
(7.38002e-06 -0.0314299 0)
(7.30074e-06 -0.0314299 0)
(7.2169e-06 -0.03143 0)
(7.12815e-06 -0.0314301 0)
(7.0342e-06 -0.0314302 0)
(6.93476e-06 -0.0314302 0)
(6.82961e-06 -0.0314303 0)
(6.71854e-06 -0.0314304 0)
(6.60139e-06 -0.0314304 0)
(6.47806e-06 -0.0314305 0)
(6.34853e-06 -0.0314306 0)
(6.21282e-06 -0.0314306 0)
(6.07104e-06 -0.0314307 0)
(5.92336e-06 -0.0314307 0)
(5.77005e-06 -0.0314308 0)
(5.61144e-06 -0.0314308 0)
(5.44798e-06 -0.0314309 0)
(5.28016e-06 -0.0314309 0)
(5.10857e-06 -0.031431 0)
(4.93387e-06 -0.031431 0)
(4.75681e-06 -0.0314311 0)
(4.57817e-06 -0.0314311 0)
(4.3988e-06 -0.0314311 0)
(4.2196e-06 -0.0314312 0)
(4.04148e-06 -0.0314312 0)
(3.86538e-06 -0.0314312 0)
(3.69224e-06 -0.0314313 0)
(3.52299e-06 -0.0314313 0)
(3.35852e-06 -0.0314313 0)
(3.19971e-06 -0.0314313 0)
(3.04734e-06 -0.0314313 0)
(2.90216e-06 -0.0314314 0)
(2.76482e-06 -0.0314314 0)
(2.63586e-06 -0.0314314 0)
(2.51575e-06 -0.0314314 0)
(2.40482e-06 -0.0314314 0)
(2.30331e-06 -0.0314314 0)
(2.21134e-06 -0.0314314 0)
(2.12889e-06 -0.0314314 0)
(2.05584e-06 -0.0314314 0)
(1.99196e-06 -0.0314314 0)
(1.93693e-06 -0.0314314 0)
(1.8903e-06 -0.0314314 0)
(1.85156e-06 -0.0314314 0)
(1.82013e-06 -0.0314314 0)
(1.79535e-06 -0.0314314 0)
(1.77653e-06 -0.0314314 0)
(1.76295e-06 -0.0314314 0)
(1.75385e-06 -0.0314314 0)
(1.74848e-06 -0.0314314 0)
(1.74606e-06 -0.0314313 0)
)
;
    }
    procBoundary2to1
    {
        type            processor;
        value           uniform (3.13095e-05 -0.0314029 0);
    }
    procBoundary2to3
    {
        type            processor;
        value           uniform (8.87476e-06 -0.0314509 0);
    }
    procBoundary2to4
    {
        type            processor;
        value           nonuniform List<vector> 
75
(
(7.08836e-07 -0.000487565 0)
(2.12659e-06 0.00206271 0)
(3.80909e-06 -0.00560653 0)
(4.45365e-06 -0.030508 0)
(8.28706e-06 -0.0459943 0)
(1.23484e-05 -0.0328467 0)
(1.61887e-05 -0.0308091 0)
(1.97699e-05 -0.0310412 0)
(2.30939e-05 -0.031421 0)
(2.61803e-05 -0.0315086 0)
(2.90432e-05 -0.0314964 0)
(3.16934e-05 -0.0314821 0)
(3.41407e-05 -0.0314787 0)
(3.6395e-05 -0.0314791 0)
(3.84656e-05 -0.0314795 0)
(4.03617e-05 -0.0314794 0)
(4.20922e-05 -0.0314792 0)
(4.36655e-05 -0.0314791 0)
(4.50899e-05 -0.0314789 0)
(4.63731e-05 -0.0314787 0)
(4.75229e-05 -0.0314785 0)
(4.85465e-05 -0.0314783 0)
(4.9451e-05 -0.0314781 0)
(5.02433e-05 -0.0314779 0)
(5.09299e-05 -0.0314777 0)
(5.1517e-05 -0.0314775 0)
(5.20109e-05 -0.0314773 0)
(5.24174e-05 -0.0314771 0)
(5.2742e-05 -0.0314769 0)
(5.29901e-05 -0.0314767 0)
(5.3167e-05 -0.0314765 0)
(5.32777e-05 -0.0314763 0)
(5.33268e-05 -0.031476 0)
(5.33189e-05 -0.0314758 0)
(5.32584e-05 -0.0314756 0)
(5.31495e-05 -0.0314754 0)
(5.29961e-05 -0.0314752 0)
(5.28019e-05 -0.0314749 0)
(5.25707e-05 -0.0314747 0)
(5.23058e-05 -0.0314745 0)
(5.20103e-05 -0.0314743 0)
(5.16875e-05 -0.0314741 0)
(5.13402e-05 -0.0314739 0)
(5.09711e-05 -0.0314736 0)
(5.05828e-05 -0.0314734 0)
(5.01777e-05 -0.0314732 0)
(4.97581e-05 -0.031473 0)
(4.93261e-05 -0.0314728 0)
(4.88837e-05 -0.0314726 0)
(4.84326e-05 -0.0314724 0)
(2.16549e-06 -0.0314495 0)
(2.34768e-06 -0.0314495 0)
(2.52438e-06 -0.0314495 0)
(2.6948e-06 -0.0314495 0)
(2.85819e-06 -0.0314495 0)
(3.01385e-06 -0.0314496 0)
(3.16119e-06 -0.0314496 0)
(3.29969e-06 -0.0314496 0)
(3.42893e-06 -0.0314496 0)
(3.54859e-06 -0.0314496 0)
(3.65846e-06 -0.0314496 0)
(3.75844e-06 -0.0314497 0)
(3.84854e-06 -0.0314497 0)
(3.92887e-06 -0.0314497 0)
(3.99964e-06 -0.0314497 0)
(4.06118e-06 -0.0314498 0)
(4.11387e-06 -0.0314498 0)
(4.1582e-06 -0.0314498 0)
(4.19471e-06 -0.0314498 0)
(4.22401e-06 -0.0314499 0)
(4.24672e-06 -0.0314499 0)
(4.26353e-06 -0.0314499 0)
(4.27513e-06 -0.03145 0)
(4.28225e-06 -0.03145 0)
(4.28562e-06 -0.03145 0)
)
;
    }
    procBoundary2to5
    {
        type            processor;
        value           nonuniform List<vector> 
50
(
(-4.27511e-06 -0.0314518 0)
(-4.1926e-06 -0.0314517 0)
(-4.11051e-06 -0.0314516 0)
(-4.0288e-06 -0.0314516 0)
(-3.94739e-06 -0.0314515 0)
(-3.8662e-06 -0.0314514 0)
(-3.78516e-06 -0.0314514 0)
(-3.70416e-06 -0.0314513 0)
(-3.62309e-06 -0.0314512 0)
(-3.54182e-06 -0.0314512 0)
(-3.46022e-06 -0.0314511 0)
(-3.37814e-06 -0.031451 0)
(-3.2954e-06 -0.031451 0)
(-3.21182e-06 -0.0314509 0)
(-3.12721e-06 -0.0314508 0)
(-3.04134e-06 -0.0314508 0)
(-2.95399e-06 -0.0314507 0)
(-2.86491e-06 -0.0314507 0)
(-2.77384e-06 -0.0314506 0)
(-2.68051e-06 -0.0314506 0)
(-2.58464e-06 -0.0314505 0)
(-2.48593e-06 -0.0314504 0)
(-2.3841e-06 -0.0314504 0)
(-2.27884e-06 -0.0314503 0)
(-2.16986e-06 -0.0314503 0)
(-2.05687e-06 -0.0314502 0)
(-1.93959e-06 -0.0314502 0)
(-1.81776e-06 -0.0314501 0)
(-1.69115e-06 -0.0314501 0)
(-1.55955e-06 -0.03145 0)
(-1.42276e-06 -0.03145 0)
(-1.28067e-06 -0.03145 0)
(-1.13318e-06 -0.0314499 0)
(-9.8025e-07 -0.0314499 0)
(-8.21902e-07 -0.0314498 0)
(-6.58219e-07 -0.0314498 0)
(-4.89352e-07 -0.0314498 0)
(-3.15523e-07 -0.0314497 0)
(-1.37027e-07 -0.0314497 0)
(4.57663e-08 -0.0314497 0)
(2.3241e-07 -0.0314496 0)
(4.22383e-07 -0.0314496 0)
(6.15095e-07 -0.0314496 0)
(8.09887e-07 -0.0314496 0)
(1.00604e-06 -0.0314496 0)
(1.20277e-06 -0.0314496 0)
(1.39927e-06 -0.0314495 0)
(1.59468e-06 -0.0314495 0)
(1.78811e-06 -0.0314495 0)
(1.97868e-06 -0.0314495 0)
)
;
    }
}


// ************************************************************************* //
