/*--------------------------------*- C++ -*----------------------------------*\
| =========                 |                                                 |
| \\      /  F ield         | OpenFOAM: The Open Source CFD Toolbox           |
|  \\    /   O peration     | Version:  2.4.0                                 |
|   \\  /    A nd           | Web:      www.OpenFOAM.org                      |
|    \\/     M anipulation  |                                                 |
\*---------------------------------------------------------------------------*/
FoamFile
{
    version     2.0;
    format      ascii;
    class       volScalarField;
    location    "0.3";
    object      alpha1;
}
// * * * * * * * * * * * * * * * * * * * * * * * * * * * * * * * * * * * * * //

dimensions      [0 0 0 0 0 0 0];

internalField   nonuniform List<scalar> 
8000
(
1
1
1
1
1
1
1
1
1
1
1
1
1
1
1
1
1
1
1
1
1
1
1
1
1
1
1
1
0.999999
0.999999
0.999999
0.999998
0.999419
0.940715
0.561499
0.0969266
0.00870461
0.000902291
9.2916e-05
9.87705e-06
3.61618e-06
2.09434e-06
1.12935e-06
5.52499e-07
2.38201e-07
8.745e-08
2.61974e-08
6.04084e-09
9.87096e-10
1.09585e-10
1
1
1
1
1
1
1
1
1
1
1
1
1
1
1
1
1
1
1
1
1
1
1
1
1
1
1
1
0.999999
0.999999
0.999998
0.999983
0.954145
0.603205
0.110789
0.00951022
0.000945802
9.46427e-05
9.87125e-06
3.64662e-06
2.11355e-06
1.15698e-06
5.85303e-07
2.67102e-07
1.07018e-07
3.65067e-08
1.02386e-08
2.29408e-09
4.36257e-10
1.11007e-10
1
1
1
1
1
1
1
1
1
1
1
1
1
1
1
1
1
1
1
1
1
1
1
1
1
1
1
0.999999
0.999999
0.999998
0.999992
0.968347
0.656828
0.132554
0.0108024
0.00101556
9.77134e-05
9.89986e-06
3.67767e-06
2.12032e-06
1.168e-06
6.03471e-07
2.86661e-07
1.22614e-07
4.62621e-08
1.51702e-08
4.39108e-09
1.27371e-09
4.996e-10
2.91031e-10
1
1
1
1
1
1
1
1
1
1
1
1
1
1
1
1
1
1
1
1
1
1
1
1
1
1
0.999999
0.999999
0.999998
0.999997
0.98206
0.724497
0.169288
0.0130861
0.00113911
0.000104066
1.01058e-05
3.73234e-06
2.13254e-06
1.17681e-06
6.1671e-07
3.02423e-07
1.36892e-07
5.6784e-08
2.18332e-08
8.26461e-09
3.53944e-09
1.94454e-09
1.3036e-09
9.41774e-10
1
1
1
1
1
1
1
1
1
1
1
1
1
1
1
1
1
1
1
1
1
1
1
1
1
0.999999
0.999999
0.999998
0.999988
0.993417
0.804076
0.236272
0.0176517
0.00137531
0.000117274
1.07e-05
3.84819e-06
2.17903e-06
1.20554e-06
6.42455e-07
3.26937e-07
1.58507e-07
7.40823e-08
3.47156e-08
1.75856e-08
1.03228e-08
7.02309e-09
5.21186e-09
3.99225e-09
3.07356e-09
1
1
1
1
1
1
1
1
1
1
1
1
1
1
1
1
1
1
1
1
1
1
1
1
1
0.999999
0.999998
0.999997
0.999888
0.888022
0.356486
0.0286411
0.0018978
0.000147233
1.21979e-05
4.07249e-06
2.30669e-06
1.29252e-06
7.1242e-07
3.86072e-07
2.08115e-07
1.1466e-07
6.71554e-08
4.32133e-08
3.08504e-08
2.36273e-08
1.87552e-08
1.50872e-08
1.21643e-08
9.78443e-09
1
1
1
1
1
1
1
1
1
1
1
1
1
1
1
1
1
1
1
1
1
1
1
1
0.999999
0.999998
0.999997
0.999994
0.959028
0.558728
0.0627717
0.00333416
0.000225139
1.60416e-05
4.41476e-06
2.56548e-06
1.49136e-06
8.75476e-07
5.2434e-07
3.25513e-07
2.138e-07
1.50735e-07
1.13518e-07
8.91333e-08
7.29351e-08
6.06978e-08
5.08352e-08
4.26311e-08
3.57073e-08
2.98272e-08
1
1
1
1
1
1
1
1
1
1
1
1
1
1
1
1
1
1
1
1
1
1
1
1
0.999999
0.999998
0.999995
0.996927
0.80001
0.198595
0.00952203
0.000517135
3.03938e-05
5.04076e-06
3.01886e-06
1.86015e-06
1.19069e-06
7.99014e-07
5.6756e-07
4.26764e-07
3.38334e-07
2.80709e-07
2.39975e-07
2.02943e-07
1.74779e-07
1.51311e-07
1.31233e-07
1.13732e-07
9.84023e-08
8.49017e-08
1
1
1
1
1
1
1
1
1
1
1
1
1
1
1
1
1
1
1
1
1
1
1
0.999999
0.999999
0.999997
0.999996
0.964534
0.562176
0.0543738
0.00213053
0.000107834
7.50911e-06
3.77786e-06
2.42308e-06
1.6737e-06
1.23097e-06
9.59251e-07
7.87095e-07
6.70515e-07
5.85879e-07
5.22855e-07
4.82849e-07
4.31038e-07
3.84226e-07
3.40954e-07
3.04945e-07
2.71256e-07
2.4174e-07
2.14206e-07
1
1
1
1
1
1
1
1
1
1
1
1
1
1
1
1
1
1
1
1
1
1
1
0.999999
0.999999
0.999997
0.999989
0.930425
0.427893
0.0257761
0.000903263
3.96745e-05
6.34702e-06
3.51277e-06
2.33776e-06
1.76229e-06
1.42644e-06
1.21152e-06
1.06497e-06
9.68893e-07
8.84228e-07
7.78123e-07
7.50033e-07
7.34161e-07
6.99933e-07
6.08446e-07
5.75086e-07
5.08337e-07
4.76451e-07
4.23693e-07
1
1
1
1
1
1
1
1
1
1
1
1
1
1
1
1
1
1
1
1
1
1
1
0.999999
0.999999
0.999997
0.999987
0.925068
0.40952
0.0222782
0.000694612
2.81761e-05
5.55678e-06
3.48392e-06
2.39488e-06
1.76612e-06
1.48357e-06
1.31544e-06
1.1512e-06
1.10736e-06
1.0305e-06
7.64635e-07
1.53647e-06
7.99229e-07
1.17986e-06
6.40073e-07
9.94528e-07
5.41317e-07
8.47429e-07
4.65756e-07
1
1
1
1
1
1
1
1
1
1
1
1
1
1
1
1
1
1
1
1
1
1
1
1
0.999999
0.999998
0.999998
0.981686
0.660708
0.0961045
0.00389889
0.000111202
4.04194e-06
3.84682e-06
2.47985e-06
1.49795e-06
1.34046e-06
1.27628e-06
1.0426e-06
1.10317e-06
9.72032e-07
7.61544e-07
8.72966e-07
8.11689e-07
7.03631e-07
6.72486e-07
5.93815e-07
5.72181e-07
5.11243e-07
4.98561e-07
1
1
1
1
1
1
1
1
1
1
1
1
1
1
1
1
1
1
1
1
1
1
1
1
0.999999
0.999999
0.999996
0.999986
0.928836
0.513987
0.0899122
0.00657705
0.000328491
4.82736e-06
2.95548e-06
1.35551e-06
1.34778e-06
1.40418e-06
9.29277e-07
1.20779e-06
7.92686e-07
4.24056e-07
9.48307e-07
4.97313e-07
4.66778e-07
4.17071e-07
3.7005e-07
3.18627e-07
2.77275e-07
2.46357e-07
1
1
1
1
1
1
1
1
1
1
1
1
1
1
1
1
1
1
1
1
1
1
1
1
1
1
0.999999
0.999999
0.999999
0.977367
0.695403
0.17721
0.0300676
0.00158464
0.000329051
4.79065e-05
1.62811e-05
1.67286e-06
9.27344e-07
9.19076e-07
9.13113e-07
4.18167e-07
3.90944e-07
4.88597e-07
3.86324e-07
2.8125e-07
2.14624e-07
1.27638e-07
8.30737e-08
5.63928e-08
1
1
1
1
1
1
1
1
1
1
1
1
1
1
1
1
1
1
1
1
1
1
1
1
1
1
1
1
1
1
0.999999
0.933463
0.48758
0.104088
0.0223853
0.00303723
0.00186609
0.000178109
9.04228e-05
3.90878e-06
1.22877e-06
4.25809e-07
4.43904e-07
6.78688e-07
4.72502e-07
2.56896e-07
1.59045e-07
7.94316e-08
4.31609e-08
1.92114e-08
1
1
1
1
1
1
1
1
1
1
1
1
1
1
1
1
1
1
1
1
1
1
1
1
1
1
1
1
1
1
1
1
1
0.959803
0.522384
0.102016
0.0759918
0.00936439
0.00887055
0.000944357
0.000641837
3.89911e-05
2.3013e-05
1.32913e-06
9.25631e-07
2.73016e-07
1.72615e-07
1.59447e-07
1.25315e-07
9.44181e-08
1
1
1
1
1
1
1
1
1
1
1
1
1
1
1
1
1
1
1
1
1
1
1
1
1
1
1
1
1
1
1
1
1
1
1
0.986528
0.859414
0.341025
0.226128
0.0730405
0.0540052
0.00905498
0.00623843
0.000660497
0.00045571
9.85989e-06
6.3294e-06
2.39681e-07
3.32611e-07
5.99148e-07
1
1
1
1
1
1
1
1
1
1
1
1
1
1
1
1
1
1
1
1
1
1
1
1
1
1
1
1
1
1
1
1
1
0.999999
0.999999
1
0.999999
0.992265
0.964371
0.948761
0.700668
0.436699
0.254363
0.0743797
0.0505683
0.00243236
0.00243325
3.75125e-05
4.26021e-05
2.35093e-06
1
1
1
1
1
1
1
1
1
1
1
1
1
1
1
1
1
1
1
1
1
1
1
1
1
1
1
1
1
1
1
1
1
1
1
1
0.999999
0.999999
1
1
0.999557
0.992984
0.964973
0.9587
0.827007
0.410331
0.129139
0.0376655
0.0107657
7.31336e-06
1
1
1
1
1
1
1
1
1
1
1
1
1
1
1
1
1
1
1
1
1
1
1
1
1
1
1
1
1
1
1
1
1
1
1
0.999999
0.999999
0.999998
0.999997
0.999998
0.999969
0.999613
0.998089
0.994913
0.991772
0.981633
0.918371
0.969336
0.739836
0.00174027
1.82328e-11
1.00856e-11
6.16286e-12
3.71291e-12
2.19823e-12
1.27643e-12
7.25581e-13
4.03024e-13
2.18328e-13
1.15127e-13
5.89732e-14
2.92838e-14
1.40648e-14
6.51876e-15
2.90848e-15
1.24607e-15
5.11287e-16
2.00389e-16
7.4811e-17
2.65268e-17
8.90628e-18
2.822e-18
8.40818e-19
2.34664e-19
6.10945e-20
1.47743e-20
3.30418e-21
6.80399e-22
1.28439e-22
2.21284e-23
3.46408e-24
4.90457e-25
6.25017e-26
7.1317e-27
7.24479e-28
6.51058e-29
5.13854e-30
3.53251e-31
2.09485e-32
1.05945e-33
4.50722e-35
1.58623e-36
4.52381e-38
1.01931e-39
1.75997e-41
2.24486e-43
2.02276e-45
1.19386e-47
4.13413e-50
7.26166e-53
5.71153e-11
3.6969e-11
2.3898e-11
1.52278e-11
9.54588e-12
5.87665e-12
3.54657e-12
2.09445e-12
1.20811e-12
6.79341e-13
3.71658e-13
1.97407e-13
1.01574e-13
5.0511e-14
2.42163e-14
1.11641e-14
4.93583e-15
2.08688e-15
8.41301e-16
3.22381e-16
1.17034e-16
4.01091e-17
1.29273e-17
3.90265e-18
1.0989e-18
2.87354e-19
6.94729e-20
1.54606e-20
3.15303e-21
5.86664e-22
9.91429e-23
1.51468e-23
2.08192e-24
2.56108e-25
2.80377e-26
2.71453e-27
2.30784e-28
1.70912e-29
1.09224e-30
5.95733e-32
2.73675e-33
1.04211e-34
3.22501e-36
7.9166e-38
1.49676e-39
2.10444e-41
2.11275e-43
1.41728e-45
5.78305e-48
1.26091e-50
1.97678e-10
1.36241e-10
9.29115e-11
6.25238e-11
4.14471e-11
2.70199e-11
1.7293e-11
1.08465e-11
6.65509e-12
3.98691e-12
2.32741e-12
1.32115e-12
7.27615e-13
3.87881e-13
1.99642e-13
9.89473e-14
4.7091e-14
2.14568e-14
9.33096e-15
3.85994e-15
1.51355e-15
5.60468e-16
1.95216e-16
6.36905e-17
1.93798e-17
5.47533e-18
1.42992e-18
3.43642e-19
7.56554e-20
1.51904e-20
2.76903e-21
4.56109e-22
6.75605e-23
8.9523e-24
1.05529e-24
1.09984e-25
1.0065e-26
8.02492e-28
5.52419e-29
3.24861e-30
1.61152e-31
6.64146e-33
2.23195e-34
5.97735e-36
1.24037e-37
1.92839e-39
2.16182e-41
1.64672e-43
7.85393e-46
2.09154e-48
6.87744e-10
4.98952e-10
3.58284e-10
2.54209e-10
1.77931e-10
1.22661e-10
8.31451e-11
5.53216e-11
3.60661e-11
2.29949e-11
1.43095e-11
8.67275e-12
5.10802e-12
2.91651e-12
1.61018e-12
8.57215e-13
4.38775e-13
2.15269e-13
1.00896e-13
4.50197e-14
1.90525e-14
7.61753e-15
2.86546e-15
1.00976e-15
3.31858e-16
1.01258e-16
2.85539e-17
7.40759e-18
1.75989e-18
3.81168e-19
7.49186e-20
1.32994e-20
2.12199e-21
3.02741e-22
3.84087e-23
4.30732e-24
4.24145e-25
3.64009e-26
2.69906e-27
1.71174e-28
9.17362e-30
4.09507e-31
1.49616e-32
4.37862e-34
9.99651e-36
1.72416e-37
2.16495e-39
1.87417e-41
1.03902e-43
3.32974e-46
2.35645e-09
1.79356e-09
1.35293e-09
1.00991e-09
7.44868e-10
5.41994e-10
3.88446e-10
2.7375e-10
1.89362e-10
1.28329e-10
8.50306e-11
5.49685e-11
3.45892e-11
2.11342e-11
1.25054e-11
7.14567e-12
3.93101e-12
2.07525e-12
1.04771e-12
5.03991e-13
2.30106e-13
9.93052e-14
4.03359e-14
1.53514e-14
5.44949e-15
1.79596e-15
5.46942e-16
1.53203e-16
3.92874e-17
9.18119e-18
1.94623e-18
3.72427e-19
6.40229e-20
9.83635e-21
1.34336e-21
1.62132e-22
1.71824e-23
1.58777e-24
1.26872e-25
8.68411e-27
5.03356e-28
2.43724e-29
9.69703e-31
3.10731e-32
7.82382e-34
1.50164e-35
2.1191e-37
2.08951e-39
1.34337e-41
5.12073e-44
7.83384e-09
6.23373e-09
4.92344e-09
3.85436e-09
2.98676e-09
2.28762e-09
1.72918e-09
1.28782e-09
9.43332e-10
6.78332e-10
4.77862e-10
3.29073e-10
2.20996e-10
1.44369e-10
9.14891e-11
5.60783e-11
3.31419e-11
1.88213e-11
1.0234e-11
5.30758e-12
2.61485e-12
1.21854e-12
5.34733e-13
2.19957e-13
8.4409e-14
3.00759e-14
9.90245e-15
2.99839e-15
8.30976e-16
2.09798e-16
4.8027e-17
9.92001e-18
1.83977e-18
3.04791e-19
4.48656e-20
5.8346e-21
6.66231e-22
6.63596e-23
5.7206e-24
4.23186e-25
2.65771e-26
1.39894e-27
6.07592e-29
2.13715e-30
5.95008e-32
1.27444e-33
2.02785e-35
2.28424e-37
1.70427e-39
7.67903e-42
2.48186e-08
2.05488e-08
1.69112e-08
1.38188e-08
1.11989e-08
8.9897e-09
7.13815e-09
5.598e-09
4.32862e-09
3.29394e-09
2.4617e-09
1.8027e-09
1.29038e-09
9.00461e-10
6.10827e-10
4.01553e-10
2.54978e-10
1.55834e-10
9.13251e-11
5.11146e-11
2.72076e-11
1.37118e-11
6.51249e-12
2.90113e-12
1.20624e-12
4.65807e-13
1.6624e-13
5.45622e-14
1.63889e-14
4.48353e-15
1.11177e-15
2.4864e-16
4.99056e-17
8.94348e-18
1.42342e-18
2.00064e-19
2.46838e-20
2.65684e-21
2.47642e-22
1.98397e-23
1.35324e-24
7.76764e-26
3.69569e-27
1.43176e-28
4.42175e-30
1.06004e-31
1.9077e-33
2.46244e-35
2.13801e-37
1.13841e-39
7.3e-08
6.25005e-08
5.32457e-08
4.51055e-08
3.79661e-08
3.1727e-08
2.62955e-08
2.15882e-08
1.75308e-08
1.40563e-08
1.11057e-08
8.62626e-09
6.57041e-09
4.89361e-09
3.55308e-09
2.50665e-09
1.71224e-09
1.12822e-09
7.14249e-10
4.32624e-10
2.49601e-10
1.36534e-10
7.04674e-11
3.41451e-11
1.54544e-11
6.50033e-12
2.52786e-12
9.0427e-13
2.96059e-13
8.82746e-14
2.38519e-14
5.81102e-15
1.27009e-15
2.47752e-16
4.29006e-17
6.55714e-18
8.79356e-19
1.02834e-19
1.0412e-20
9.06558e-22
6.73501e-23
4.23018e-24
2.21598e-25
9.50107e-27
3.26909e-28
8.80408e-30
1.79804e-31
2.6679e-33
2.70534e-35
1.71044e-37
1.89524e-07
1.66731e-07
1.46077e-07
1.27315e-07
1.10422e-07
9.52684e-08
8.17289e-08
6.96462e-08
5.89233e-08
4.94327e-08
4.10543e-08
3.36819e-08
2.72278e-08
2.16229e-08
1.68132e-08
1.2754e-08
9.40187e-09
6.70761e-09
4.61139e-09
3.0412e-09
1.91493e-09
1.14557e-09
6.47787e-10
3.44436e-10
1.71291e-10
7.92443e-11
3.39217e-11
1.33644e-11
4.82048e-12
1.58361e-12
4.71407e-13
1.26502e-13
3.04445e-14
6.53658e-15
1.24526e-15
2.09291e-16
3.08452e-17
3.96073e-18
4.39936e-19
4.19628e-20
3.4119e-21
2.3509e-22
1.36455e-23
6.51459e-25
2.51337e-26
7.64463e-28
1.77955e-29
3.04601e-31
3.62014e-33
2.73419e-35
3.92148e-07
3.4905e-07
3.18045e-07
2.82606e-07
2.53221e-07
2.24268e-07
1.99296e-07
1.74905e-07
1.52574e-07
1.32462e-07
1.14419e-07
9.82251e-08
8.36416e-08
7.04537e-08
5.84986e-08
4.76832e-08
3.79837e-08
2.94275e-08
2.20634e-08
1.59272e-08
1.10127e-08
7.25474e-09
4.52864e-09
2.66398e-09
1.46853e-09
7.54376e-10
3.59101e-10
1.57534e-10
6.33442e-11
2.32225e-11
7.72199e-12
2.31713e-12
6.24272e-13
1.50243e-13
3.21334e-14
6.07475e-15
1.00934e-15
1.46497e-16
1.84492e-17
2.00091e-18
1.85294e-19
1.45074e-20
9.49185e-22
5.11771e-23
2.23529e-24
7.7414e-26
2.06786e-27
4.10499e-29
5.74437e-31
5.22155e-33
7.18122e-07
4.03614e-07
5.9683e-07
3.49774e-07
4.80963e-07
3.03322e-07
3.28002e-07
3.0415e-07
2.72998e-07
2.43129e-07
2.15788e-07
1.91115e-07
1.68943e-07
1.48902e-07
1.30512e-07
1.13303e-07
9.69195e-08
8.12087e-08
6.6239e-08
5.22667e-08
3.965e-08
2.87423e-08
1.97904e-08
1.28662e-08
7.8511e-09
4.47023e-09
2.36105e-09
1.15011e-09
5.13767e-10
2.0931e-10
7.7356e-11
2.58005e-11
7.7266e-12
2.06724e-12
4.91639e-13
1.03399e-13
1.91279e-14
3.09475e-15
4.35225e-16
5.28417e-17
5.49656e-18
4.85575e-19
3.60615e-20
2.22436e-21
1.12304e-22
4.55808e-24
1.45361e-25
3.53524e-27
6.29435e-29
7.73101e-31
4.55931e-07
4.47434e-07
4.17775e-07
4.06462e-07
3.82881e-07
3.65142e-07
3.42891e-07
3.19131e-07
2.9474e-07
2.70397e-07
2.46852e-07
2.24803e-07
2.04723e-07
1.86723e-07
1.70517e-07
1.5549e-07
1.40874e-07
1.25959e-07
1.10306e-07
9.38777e-08
7.70551e-08
6.05656e-08
4.52853e-08
3.20067e-08
2.12508e-08
1.31726e-08
7.57561e-09
4.01455e-09
1.94743e-09
8.59482e-10
3.43054e-10
1.23099e-10
3.94743e-11
1.12435e-11
2.82668e-12
6.23081e-13
1.19556e-13
1.98095e-14
2.80865e-15
3.37158e-16
3.38353e-17
2.79477e-18
1.86299e-19
9.76728e-21
3.88835e-22
1.11731e-23
2.14161e-25
2.38469e-27
1.14142e-29
9.02205e-33
2.24219e-07
2.08829e-07
1.97778e-07
1.89288e-07
1.82182e-07
1.75637e-07
1.69075e-07
1.62168e-07
1.5486e-07
1.47347e-07
1.39998e-07
1.3321e-07
1.27237e-07
1.22042e-07
1.17233e-07
1.12113e-07
1.05851e-07
9.77134e-08
8.73115e-08
7.47229e-08
6.02549e-08
4.53112e-08
3.15614e-08
2.01947e-08
1.1754e-08
6.1547e-09
2.86467e-09
1.17266e-09
4.17739e-10
1.27903e-10
3.3323e-11
7.36586e-12
1.40358e-12
2.43117e-13
4.16005e-14
7.35978e-15
1.31399e-15
2.07398e-16
2.79208e-17
3.15906e-18
2.96603e-19
2.27483e-20
1.39637e-21
6.67487e-23
2.3918e-24
6.0739e-26
9.99409e-28
9.05855e-30
3.15055e-32
1.28074e-35
4.12936e-08
3.44235e-08
3.02592e-08
2.77493e-08
2.71385e-08
2.85114e-08
3.1567e-08
3.56914e-08
4.00969e-08
4.38769e-08
4.61027e-08
4.60316e-08
4.3301e-08
3.8045e-08
3.08875e-08
2.28196e-08
1.50195e-08
8.63631e-09
4.47678e-09
2.41207e-09
1.79773e-09
1.49645e-09
1.16573e-09
8.09588e-10
4.95246e-10
2.65769e-10
1.24569e-10
5.06789e-11
1.77527e-11
5.29609e-12
1.32988e-12
2.78296e-13
4.85157e-14
7.24944e-15
1.00904e-15
1.4801e-16
2.37085e-17
3.48811e-18
4.40433e-19
4.66139e-20
4.07624e-21
2.89724e-22
1.6381e-23
7.1554e-25
2.31689e-26
5.22578e-28
7.41286e-30
5.45887e-32
1.37171e-34
3.56797e-38
3.93887e-09
2.55901e-09
1.60026e-09
9.69192e-10
5.65093e-10
3.19618e-10
1.85457e-10
1.26686e-10
1.16884e-10
1.3675e-10
1.71809e-10
2.10433e-10
2.42952e-10
2.62109e-10
2.64238e-10
2.49927e-10
2.23553e-10
1.92852e-10
1.48269e-10
1.04522e-10
7.86793e-11
6.10931e-11
4.53286e-11
3.05436e-11
1.82558e-11
9.58297e-12
4.39055e-12
1.74393e-12
5.95523e-13
1.72931e-13
4.21636e-14
8.51853e-15
1.41325e-15
1.94258e-16
2.34546e-17
2.87597e-18
4.0315e-19
5.49634e-20
6.53374e-21
6.50656e-22
5.3338e-23
3.53794e-24
1.8564e-25
7.46977e-27
2.20422e-28
4.45323e-30
5.48032e-32
3.26468e-34
5.84889e-37
1.01795e-40
5.75666e-09
3.81786e-09
2.28065e-09
1.30982e-09
7.12707e-10
3.59676e-10
1.67076e-10
7.0705e-11
2.75753e-11
1.07077e-11
5.01385e-12
3.25041e-12
2.78174e-12
2.71555e-12
2.81551e-12
3.06492e-12
3.54715e-12
3.88081e-12
3.5156e-12
2.81459e-12
2.19933e-12
1.69031e-12
1.22854e-12
8.11403e-13
4.7565e-13
2.44679e-13
1.09704e-13
4.25865e-14
1.4196e-14
4.02053e-15
9.55015e-16
1.87505e-16
3.00157e-17
3.9031e-18
4.26179e-19
4.44952e-20
5.34644e-21
6.67663e-22
7.47064e-23
7.01717e-24
5.40749e-25
3.35734e-26
1.64018e-27
6.10128e-29
1.64716e-30
2.99237e-32
3.2006e-34
1.52525e-36
1.91972e-39
2.32565e-43
1.23268e-08
1.01673e-08
6.78098e-09
4.4616e-09
2.82684e-09
1.67356e-09
9.1831e-10
4.58741e-10
2.07085e-10
8.56969e-11
3.52221e-11
1.44575e-11
6.10925e-12
2.51061e-12
1.00188e-12
3.74893e-13
1.42162e-13
7.07476e-14
5.06749e-14
4.1742e-14
3.45392e-14
2.7386e-14
2.01113e-14
1.32701e-14
7.71616e-15
3.91517e-15
1.72359e-15
6.5461e-16
2.129e-16
5.8709e-17
1.35558e-17
2.582e-18
3.99274e-19
4.95693e-20
5.01001e-21
4.55822e-22
4.63752e-23
5.20515e-24
5.43575e-25
4.79018e-26
3.45193e-27
1.99536e-28
9.02672e-30
3.08719e-31
7.58335e-33
1.23193e-34
1.13708e-36
4.24412e-39
3.67956e-42
3.12819e-46
2.07631e-08
2.2674e-08
1.72185e-08
1.35308e-08
1.04854e-08
7.69625e-09
5.30733e-09
3.35602e-09
1.93421e-09
9.81686e-10
5.07257e-10
2.54987e-10
1.37305e-10
7.17922e-11
3.72999e-11
1.79392e-11
7.70389e-12
2.98995e-12
1.05523e-12
3.30445e-13
9.03645e-14
2.18721e-14
4.39492e-15
7.98843e-16
1.5209e-16
3.91355e-17
1.34051e-17
4.71327e-18
1.47092e-18
3.8968e-19
8.60841e-20
1.56139e-20
2.28615e-21
2.66141e-22
2.46871e-23
1.96651e-24
1.67582e-25
1.63103e-26
1.52855e-27
1.21243e-28
7.80576e-30
3.99326e-31
1.58346e-32
4.65951e-34
9.64936e-36
1.28477e-37
9.24268e-40
2.39645e-42
1.24983e-45
6.09508e-50
4.92122e-08
5.90512e-08
4.61963e-08
4.1667e-08
3.98375e-08
3.7007e-08
3.37273e-08
2.76706e-08
2.23866e-08
1.20643e-08
7.41367e-09
3.66769e-09
2.20876e-09
1.23803e-09
7.46624e-10
4.3066e-10
2.15819e-10
9.57355e-11
3.87187e-11
1.38191e-11
4.20384e-12
1.14205e-12
2.45271e-13
4.37444e-14
6.28636e-15
6.96874e-16
5.58675e-17
2.93513e-18
9.21813e-20
1.72266e-21
2.16858e-23
4.75968e-25
8.29019e-27
1.05312e-28
9.19316e-31
5.13452e-33
1.61085e-35
2.27457e-38
7.99401e-42
1.76336e-47
7.69964e-61
3.19926e-63
1.2987e-65
5.18217e-68
2.02917e-70
7.72378e-73
2.82761e-75
9.89358e-78
3.30296e-80
1.03324e-82
8.62761e-06
2.16076e-06
4.1067e-07
1.00651e-07
6.72538e-08
5.17417e-08
1.31689e-07
1.0101e-07
2.71079e-07
1.09986e-07
9.55596e-08
3.65469e-08
2.39059e-08
1.19175e-08
7.52747e-09
5.12527e-09
2.87371e-09
1.36373e-09
5.94878e-10
2.2966e-10
7.28927e-11
2.12944e-11
4.76815e-12
8.81755e-13
1.3071e-13
1.48712e-14
1.21704e-15
6.46893e-17
2.03318e-18
3.76561e-20
4.62769e-22
1.00472e-23
1.7297e-25
2.16831e-27
1.86494e-29
1.02489e-31
3.15967e-34
4.3791e-37
1.50888e-40
3.26093e-46
1.38876e-59
5.65125e-62
2.24624e-64
8.77515e-67
3.36378e-69
1.25339e-71
4.49161e-74
1.5383e-76
5.02681e-79
1.54452e-81
8.51885e-56
9.67684e-59
6.00167e-62
1.42559e-65
1.17396e-69
4.4859e-74
4.64442e-79
1.17937e-84
1.79915e-130
1.04986e-132
6.03315e-135
3.39037e-137
1.84971e-139
9.73781e-142
4.92713e-144
2.39341e-146
1.11879e-148
5.06451e-151
2.24359e-153
9.86311e-156
4.36724e-158
1.9705e-160
9.10123e-163
4.28854e-165
2.04401e-167
9.75792e-170
4.62693e-172
2.16604e-174
9.97164e-177
4.50321e-179
1.99186e-181
8.62015e-184
3.64685e-186
1.507e-188
6.07761e-191
2.38978e-193
9.15229e-196
3.41e-198
1.23459e-200
4.33839e-203
1.47808e-205
4.87769e-208
1.55783e-210
4.81233e-213
1.43733e-215
4.15026e-218
1.15872e-220
3.12944e-223
8.18226e-226
2.07326e-228
5.09781e-231
1.21821e-233
2.83383e-236
6.42739e-239
1.42338e-241
3.0811e-244
6.52336e-247
1.35108e-249
2.73649e-252
5.41615e-255
1.04651e-257
1.97185e-260
3.62023e-263
6.47074e-266
1.12452e-268
1.89874e-271
3.11312e-274
4.95405e-277
7.64894e-280
1.14548e-282
1.66342e-285
2.34176e-288
3.19524e-291
4.22466e-294
5.41137e-297
6.71364e-300
8.06594e-303
9.38239e-306
1.05647e-308
1.15173e-311
1.19847e-314
0
0
0
0
0
0
0
0
0
0
0
0
0
0
0
0
0
0
0
0
0
0
0
0
0
0
0
0
0
0
0
0
0
0
0
0
0
0
0
0
0
0
0
0
0
0
0
0
0
0
0
0
0
0
0
0
0
0
0
0
0
0
0
0
0
0
0
0
0
0
0
0
0
0
0
0
0
0
0
0
0
0
0
0
0
0
0
0
0
0
0
0
0
0
0
0
0
0
0
0
0
0
0
0
0
0
0
0
0
0
0
0
0
0
0
0
0
0
0
0
0
0
0
0
0
0
0
0
0
0
0
0
0
0
0
0
0
0
0
0
0
0
0
0
0
0
0
0
0
0
0
0
0
0
0
0
0
0
0
0
0
0
0
0
0
0
0
0
0
0
0
0
0
0
0
0
0
0
0
0
0
0
0
0
0
0
0
0
0
0
0
0
0
0
0
0
0
0
0
0
0
0
0
0
0
0
0
0
0
0
0
0
0
0
0
0
0
0
0
1.96262e-53
2.82553e-56
2.23491e-59
6.92669e-63
6.91817e-67
3.00955e-71
4.44182e-76
1.70778e-81
4.71289e-129
2.75171e-131
1.58274e-133
8.90392e-136
4.86324e-138
2.563e-140
1.29807e-142
6.31058e-145
2.95166e-147
1.33668e-149
5.92252e-152
2.60346e-154
1.15245e-156
5.19737e-159
2.39897e-161
1.12951e-163
5.37846e-166
2.5649e-168
1.21475e-170
5.67911e-173
2.61062e-175
1.17708e-177
5.19754e-180
2.24521e-182
9.48012e-185
3.90949e-187
1.57329e-189
6.17251e-192
2.35845e-194
8.76625e-197
3.16601e-199
1.10974e-201
3.77114e-204
1.24121e-206
3.95357e-209
1.21799e-211
3.62785e-214
1.04462e-216
2.9083e-219
7.83244e-222
2.04204e-224
5.15939e-227
1.26496e-229
3.01412e-232
6.99127e-235
1.58111e-237
3.49135e-240
7.53575e-243
1.59091e-245
3.28562e-248
6.63585e-251
1.3097e-253
2.52356e-256
4.74178e-259
8.68186e-262
1.54758e-264
2.68226e-267
4.51694e-270
7.38641e-273
1.17238e-275
1.80548e-278
2.69697e-281
3.90661e-284
5.48608e-287
7.46722e-290
9.84905e-293
1.25855e-295
1.55773e-298
1.86713e-301
2.16685e-304
2.43434e-307
2.64702e-310
2.73892e-313
0
0
0
0
0
0
0
0
0
0
0
0
0
0
0
0
0
0
0
0
0
0
0
0
0
0
0
0
0
0
0
0
0
0
0
0
0
0
0
0
0
0
0
0
0
0
0
0
0
0
0
0
0
0
0
0
0
0
0
0
0
0
0
0
0
0
0
0
0
0
0
0
0
0
0
0
0
0
0
0
0
0
0
0
0
0
0
0
0
0
0
0
0
0
0
0
0
0
0
0
0
0
0
0
0
0
0
0
0
0
0
0
0
0
0
0
0
0
0
0
0
0
0
0
0
0
0
0
0
0
0
0
0
0
0
0
0
0
0
0
0
0
0
0
0
0
0
0
0
0
0
0
0
0
0
0
0
0
0
0
0
0
0
0
0
0
0
0
0
0
0
0
0
0
0
0
0
0
0
0
0
0
0
0
0
0
0
0
0
0
0
0
0
0
0
0
0
0
0
0
0
0
0
0
0
0
0
0
0
0
0
0
0
0
0
0
0
0
0
4.27813e-51
7.75357e-54
7.78723e-57
3.15999e-60
3.94555e-64
1.94512e-68
4.1152e-73
2.12913e-78
1.15171e-127
6.71825e-130
3.86217e-132
2.17207e-134
1.18614e-136
6.25006e-139
3.16469e-141
1.53799e-143
7.19027e-146
3.25408e-148
1.44064e-150
6.32662e-153
2.7973e-155
1.25989e-157
5.80701e-160
2.72994e-162
1.29783e-164
6.17859e-167
2.92095e-169
1.36301e-171
6.25323e-174
2.81366e-176
1.23974e-178
5.34343e-181
2.25102e-183
9.26101e-186
3.71785e-188
1.45502e-190
5.54545e-193
2.05592e-195
7.4058e-198
2.58902e-200
8.77459e-203
2.88025e-205
9.1495e-208
2.81105e-210
8.35001e-213
2.39775e-215
6.65722e-218
1.78796e-220
4.64872e-223
1.17133e-225
2.86399e-228
6.80572e-231
1.57433e-233
3.55086e-236
7.81999e-239
1.68341e-241
3.54465e-244
7.30164e-247
1.47092e-249
2.8958e-252
5.56581e-255
1.04326e-257
1.90552e-260
3.3886e-263
5.85938e-266
9.84452e-269
1.60619e-271
2.54369e-274
3.90873e-277
5.82612e-280
8.42135e-283
1.18015e-285
1.60303e-288
2.11008e-291
2.69098e-294
3.32418e-297
3.97677e-300
4.60642e-303
5.16541e-306
5.60641e-309
5.88455e-312
0
0
0
0
0
0
0
0
0
0
0
0
0
0
0
0
0
0
0
0
0
0
0
0
0
0
0
0
0
0
0
0
0
0
0
0
0
0
0
0
0
0
0
0
0
0
0
0
0
0
0
0
0
0
0
0
0
0
0
0
0
0
0
0
0
0
0
0
0
0
0
0
0
0
0
0
0
0
0
0
0
0
0
0
0
0
0
0
0
0
0
0
0
0
0
0
0
0
0
0
0
0
0
0
0
0
0
0
0
0
0
0
0
0
0
0
0
0
0
0
0
0
0
0
0
0
0
0
0
0
0
0
0
0
0
0
0
0
0
0
0
0
0
0
0
0
0
0
0
0
0
0
0
0
0
0
0
0
0
0
0
0
0
0
0
0
0
0
0
0
0
0
0
0
0
0
0
0
0
0
0
0
0
0
0
0
0
0
0
0
0
0
0
0
0
0
0
0
0
0
0
0
0
0
0
0
0
0
0
0
0
0
0
0
0
0
0
0
0
8.82975e-49
1.99813e-51
2.53755e-54
1.3505e-57
2.17183e-61
1.22282e-65
3.60142e-70
2.26503e-75
2.60436e-126
1.51564e-128
8.69653e-131
4.88309e-133
2.6628e-135
1.40119e-137
7.08526e-140
3.43851e-142
1.60515e-144
7.25282e-147
3.20547e-149
1.4051e-151
6.20048e-154
2.78693e-156
1.28181e-158
6.01281e-161
2.8522e-163
1.35478e-165
6.39005e-168
2.97481e-170
1.36152e-172
6.11125e-175
2.68602e-177
1.1548e-179
4.85241e-182
1.99121e-184
7.97297e-187
3.11214e-189
1.183e-191
4.37427e-194
1.57153e-196
5.47945e-199
1.85217e-201
6.06373e-204
1.92118e-206
5.88715e-209
1.7442e-211
4.99568e-214
1.38349e-216
3.7063e-219
9.61232e-222
2.41601e-224
5.89289e-227
1.39696e-229
3.22381e-232
7.25418e-235
1.59389e-237
3.42341e-240
7.19243e-243
1.47834e-245
2.97178e-248
5.83833e-251
1.11986e-253
2.09488e-256
3.81888e-259
6.77825e-262
1.16989e-264
1.96202e-267
3.19552e-270
5.05198e-273
7.75006e-276
1.15329e-278
1.66437e-281
2.32879e-284
3.15848e-287
4.1514e-290
5.28667e-293
6.52148e-296
7.79107e-299
9.01255e-302
1.0093e-304
1.09407e-307
1.14784e-310
1.15036e-313
0
0
0
0
0
0
0
0
0
0
0
0
0
0
0
0
0
0
0
0
0
0
0
0
0
0
0
0
0
0
0
0
0
0
0
0
0
0
0
0
0
0
0
0
0
0
0
0
0
0
0
0
0
0
0
0
0
0
0
0
0
0
0
0
0
0
0
0
0
0
0
0
0
0
0
0
0
0
0
0
0
0
0
0
0
0
0
0
0
0
0
0
0
0
0
0
0
0
0
0
0
0
0
0
0
0
0
0
0
0
0
0
0
0
0
0
0
0
0
0
0
0
0
0
0
0
0
0
0
0
0
0
0
0
0
0
0
0
0
0
0
0
0
0
0
0
0
0
0
0
0
0
0
0
0
0
0
0
0
0
0
0
0
0
0
0
0
0
0
0
0
0
0
0
0
0
0
0
0
0
0
0
0
0
0
0
0
0
0
0
0
0
0
0
0
0
0
0
0
0
0
0
0
0
0
0
0
0
0
0
0
0
0
0
0
0
0
0
1.73033e-46
4.83969e-49
7.73886e-52
5.40193e-55
1.15044e-58
7.44364e-63
2.86257e-67
2.03381e-72
5.38678e-125
3.12312e-127
1.78619e-129
1.00005e-131
5.43894e-134
2.85482e-136
1.44002e-138
6.97136e-141
3.24629e-143
1.46312e-145
6.44969e-148
2.81967e-150
1.24088e-152
5.56194e-155
2.551e-157
1.19331e-159
5.64477e-162
2.67381e-164
1.25765e-166
5.83865e-169
2.66485e-171
1.19283e-173
5.22826e-176
2.2416e-178
9.39325e-181
3.84405e-183
1.53502e-185
5.97566e-188
2.26545e-190
8.35473e-193
2.99378e-195
1.04117e-197
3.51051e-200
1.14644e-202
3.62343e-205
1.10769e-207
3.2741e-210
9.35607e-213
2.58523e-215
6.91057e-218
1.78844e-220
4.4858e-223
1.09192e-225
2.58339e-228
5.95039e-231
1.33647e-233
2.93125e-236
6.28493e-239
1.31823e-241
2.70516e-244
5.42956e-247
1.06511e-249
2.0401e-252
3.81118e-255
6.93864e-258
1.23004e-260
2.12049e-263
3.5523e-266
5.77944e-269
9.12781e-272
1.39892e-274
2.07985e-277
2.99895e-280
4.1927e-283
5.68206e-286
7.46284e-289
9.49709e-292
1.17077e-294
1.39782e-297
1.61602e-300
1.80874e-303
1.95962e-306
2.05478e-309
2.08504e-312
0
0
0
0
0
0
0
0
0
0
0
0
0
0
0
0
0
0
0
0
0
0
0
0
0
0
0
0
0
0
0
0
0
0
0
0
0
0
0
0
0
0
0
0
0
0
0
0
0
0
0
0
0
0
0
0
0
0
0
0
0
0
0
0
0
0
0
0
0
0
0
0
0
0
0
0
0
0
0
0
0
0
0
0
0
0
0
0
0
0
0
0
0
0
0
0
0
0
0
0
0
0
0
0
0
0
0
0
0
0
0
0
0
0
0
0
0
0
0
0
0
0
0
0
0
0
0
0
0
0
0
0
0
0
0
0
0
0
0
0
0
0
0
0
0
0
0
0
0
0
0
0
0
0
0
0
0
0
0
0
0
0
0
0
0
0
0
0
0
0
0
0
0
0
0
0
0
0
0
0
0
0
0
0
0
0
0
0
0
0
0
0
0
0
0
0
0
0
0
0
0
0
0
0
0
0
0
0
0
0
0
0
0
0
0
0
0
0
3.24819e-44
1.10899e-46
2.22066e-49
2.02977e-52
5.86404e-56
4.27976e-60
1.99005e-64
1.52514e-69
1.00601e-123
5.80329e-126
3.30425e-128
1.84253e-130
9.98351e-133
5.22165e-135
2.62489e-137
1.26649e-139
5.87795e-142
2.64046e-144
1.16009e-146
5.05475e-149
2.21706e-151
9.90429e-154
4.52765e-156
2.11107e-158
9.95432e-161
4.70041e-163
2.2041e-165
1.02017e-167
4.64239e-170
2.07194e-172
9.05549e-175
3.8716e-177
1.61791e-179
6.60324e-182
2.62992e-184
1.02118e-186
3.86178e-189
1.42075e-191
5.07911e-194
1.7624e-196
5.9293e-199
1.93228e-201
6.09482e-204
1.85959e-206
5.48636e-209
1.56501e-211
4.3171e-214
1.15216e-216
2.97725e-219
7.45694e-222
1.81271e-224
4.28333e-227
9.8544e-230
2.21092e-232
4.8443e-235
1.03772e-237
2.17476e-240
4.45953e-243
8.94482e-246
1.75367e-248
3.35728e-251
6.26919e-254
1.14097e-256
2.0221e-259
3.48523e-262
5.83773e-265
9.49707e-268
1.49991e-270
2.29887e-273
3.4182e-276
4.92947e-279
6.89309e-282
9.34401e-285
1.2276e-287
1.56274e-290
1.92719e-293
2.30186e-296
2.66231e-299
2.98117e-302
3.23137e-305
3.38995e-308
3.44108e-311
3.68619e-314
0
0
0
0
0
0
0
0
0
0
0
0
0
0
0
0
0
0
0
0
0
0
0
0
0
0
0
0
0
0
0
0
0
0
0
0
0
0
0
0
0
0
0
0
0
0
0
0
0
0
0
0
0
0
0
0
0
0
0
0
0
0
0
0
0
0
0
0
0
0
0
0
0
0
0
0
0
0
0
0
0
0
0
0
0
0
0
0
0
0
0
0
0
0
0
0
0
0
0
0
0
0
0
0
0
0
0
0
0
0
0
0
0
0
0
0
0
0
0
0
0
0
0
0
0
0
0
0
0
0
0
0
0
0
0
0
0
0
0
0
0
0
0
0
0
0
0
0
0
0
0
0
0
0
0
0
0
0
0
0
0
0
0
0
0
0
0
0
0
0
0
0
0
0
0
0
0
0
0
0
0
0
0
0
0
0
0
0
0
0
0
0
0
0
0
0
0
0
0
0
0
0
0
0
0
0
0
0
0
0
0
0
0
0
0
0
0
5.93732e-42
2.43818e-44
6.05664e-47
7.22739e-50
2.88074e-53
2.23662e-57
1.17271e-61
9.44061e-67
1.66107e-122
9.52179e-125
5.3908e-127
2.99053e-129
1.6126e-131
8.39608e-134
4.20225e-136
2.01898e-138
9.33163e-141
4.17485e-143
1.82686e-145
7.92841e-148
3.46385e-150
1.54146e-152
7.02019e-155
3.26133e-157
1.53239e-159
7.21129e-162
3.37036e-164
1.555e-166
7.05445e-169
3.13913e-171
1.36805e-173
5.83291e-176
2.4311e-178
9.8972e-181
3.93238e-183
1.52344e-185
5.74878e-188
2.11069e-190
7.53129e-193
2.60866e-195
8.76201e-198
2.85111e-200
8.98061e-203
2.73666e-205
8.06499e-208
2.29832e-210
6.33454e-213
1.68936e-215
4.36281e-218
1.09222e-220
2.65419e-223
6.27039e-226
1.44246e-228
3.2364e-231
7.09229e-234
1.51969e-236
3.18606e-239
6.53655e-242
1.31189e-244
2.57387e-247
4.93156e-250
9.21742e-253
1.67925e-255
2.97938e-258
5.14132e-261
8.62271e-264
1.40468e-266
2.22165e-269
3.41013e-272
5.07844e-275
7.33555e-278
1.02747e-280
1.39518e-283
1.83617e-286
2.34162e-289
2.89295e-292
3.46172e-295
4.01124e-298
4.50006e-301
4.88692e-304
5.13643e-307
5.22443e-310
5.16957e-313
0
0
0
0
0
0
0
0
0
0
0
0
0
0
0
0
0
0
0
0
0
0
0
0
0
0
0
0
0
0
0
0
0
0
0
0
0
0
0
0
0
0
0
0
0
0
0
0
0
0
0
0
0
0
0
0
0
0
0
0
0
0
0
0
0
0
0
0
0
0
0
0
0
0
0
0
0
0
0
0
0
0
0
0
0
0
0
0
0
0
0
0
0
0
0
0
0
0
0
0
0
0
0
0
0
0
0
0
0
0
0
0
0
0
0
0
0
0
0
0
0
0
0
0
0
0
0
0
0
0
0
0
0
0
0
0
0
0
0
0
0
0
0
0
0
0
0
0
0
0
0
0
0
0
0
0
0
0
0
0
0
0
0
0
0
0
0
0
0
0
0
0
0
0
0
0
0
0
0
0
0
0
0
0
0
0
0
0
0
0
0
0
0
0
0
0
0
0
0
0
0
0
0
0
0
0
0
0
0
0
0
0
0
0
0
0
0
1.09155e-39
5.30726e-42
1.60927e-44
2.49894e-47
1.38037e-50
1.03952e-54
5.77243e-59
4.82066e-64
2.37028e-121
1.34881e-123
7.58608e-126
4.18306e-128
2.24309e-130
1.16176e-132
5.78559e-135
2.76638e-137
1.27268e-139
5.6682e-142
2.46947e-144
1.06715e-146
4.64296e-149
2.05789e-151
9.33608e-154
4.32127e-156
2.02333e-158
9.49006e-161
4.42148e-163
2.03393e-165
9.20145e-168
4.08382e-170
1.77541e-172
7.55265e-175
3.14132e-177
1.27642e-179
5.0628e-182
1.95837e-184
7.38009e-187
2.7065e-189
9.64792e-192
3.33922e-194
1.12093e-196
3.64602e-199
1.14822e-201
3.49893e-204
1.03133e-206
2.94012e-209
8.10795e-212
2.16392e-214
5.59356e-217
1.40189e-219
3.41109e-222
8.07025e-225
1.85953e-227
4.17965e-230
9.17725e-233
1.9706e-235
4.14075e-238
8.51572e-241
1.71348e-243
3.37082e-246
6.47673e-249
1.21411e-251
2.21865e-254
3.94885e-257
6.83651e-260
1.15042e-262
1.88053e-265
2.98468e-268
4.59772e-271