/*--------------------------------*- C++ -*----------------------------------*\
| =========                 |                                                 |
| \\      /  F ield         | OpenFOAM: The Open Source CFD Toolbox           |
|  \\    /   O peration     | Version:  2.4.0                                 |
|   \\  /    A nd           | Web:      www.OpenFOAM.org                      |
|    \\/     M anipulation  |                                                 |
\*---------------------------------------------------------------------------*/
FoamFile
{
    version     2.0;
    format      ascii;
    class       surfaceScalarField;
    location    "0.3";
    object      phi;
}
// * * * * * * * * * * * * * * * * * * * * * * * * * * * * * * * * * * * * * //

dimensions      [0 3 -1 0 0 0 0];

internalField   nonuniform List<scalar> 
15580
(
-7.73032e-14
-2.59885e-12
-3.08931e-13
-7.65672e-12
-6.94673e-13
-1.25744e-11
-1.23435e-12
-1.73512e-11
-1.9278e-12
-2.19867e-11
-2.77483e-12
-2.64803e-11
-3.77529e-12
-3.08315e-11
-4.929e-12
-3.50397e-11
-6.23578e-12
-3.91044e-11
-7.69547e-12
-4.30251e-11
-9.3079e-12
-4.68012e-11
-1.10729e-11
-5.04321e-11
-1.29903e-11
-5.39173e-11
-1.506e-11
-5.72561e-11
-1.72818e-11
-6.04481e-11
-1.96555e-11
-6.34926e-11
-2.2181e-11
-6.63891e-11
-2.48582e-11
-6.9137e-11
-2.76868e-11
-7.17356e-11
-3.06668e-11
-7.41844e-11
-3.37981e-11
-7.64827e-11
-3.70804e-11
-7.863e-11
-4.05136e-11
-8.06256e-11
-4.40977e-11
-8.24689e-11
-4.78324e-11
-8.41593e-11
-5.17178e-11
-8.56962e-11
-5.57536e-11
-8.70789e-11
-5.99397e-11
-8.83067e-11
-6.4276e-11
-8.9379e-11
-6.87626e-11
-9.02952e-11
-7.33994e-11
-9.10542e-11
-7.81868e-11
-9.1656e-11
-8.33925e-11
-9.21104e-11
-8.84427e-11
-9.24361e-11
-9.35729e-11
-9.26733e-11
-9.87518e-11
-9.286e-11
-1.03939e-10
-9.30397e-11
-1.09139e-10
-9.32059e-11
-1.14222e-10
-9.34818e-11
-1.19206e-10
-9.37964e-11
-1.24257e-10
-9.38957e-11
-1.29306e-10
-9.37968e-11
-1.34309e-10
-9.35376e-11
-1.3925e-10
-9.31257e-11
-1.4412e-10
-9.25699e-11
-1.48906e-10
-9.18808e-11
-1.53598e-10
-9.10683e-11
-1.58187e-10
-9.01421e-11
-1.62667e-10
-8.91111e-11
-8.79839e-11
-1.67032e-10
-8.15712e-14
-2.51727e-12
-3.26002e-13
-7.41229e-12
-7.3291e-13
-1.21675e-11
-1.30185e-12
-1.67823e-11
-2.03238e-12
-2.12562e-11
-2.92405e-12
-2.55886e-11
-3.97638e-12
-2.97791e-11
-5.18891e-12
-3.38272e-11
-6.56118e-12
-3.77322e-11
-8.09269e-12
-4.14936e-11
-9.78298e-12
-4.51109e-11
-1.16316e-11
-4.85835e-11
-1.36379e-11
-5.19109e-11
-1.58016e-11
-5.50924e-11
-1.81222e-11
-5.81276e-11
-2.0599e-11
-6.10158e-11
-2.32317e-11
-6.37564e-11
-2.60198e-11
-6.63489e-11
-2.89626e-11
-6.87927e-11
-3.20598e-11
-7.10872e-11
-3.53108e-11
-7.32317e-11
-3.87151e-11
-7.52257e-11
-4.22722e-11
-7.70685e-11
-4.59815e-11
-7.87596e-11
-4.98425e-11
-8.02984e-11
-5.38546e-11
-8.16841e-11
-5.80172e-11
-8.29162e-11
-6.23298e-11
-8.39941e-11
-6.67918e-11
-8.49171e-11
-7.14024e-11
-8.56845e-11
-7.616e-11
-8.62967e-11
-8.17976e-11
-8.67596e-11
-8.68468e-11
-8.70904e-11
-9.19543e-11
-8.73287e-11
-9.71151e-11
-8.75125e-11
-1.02286e-10
-8.76896e-11
-1.07465e-10
-8.78603e-11
-1.12481e-10
-8.81898e-11
-1.17318e-10
-8.86449e-11
-1.22183e-10
-8.89314e-11
-1.2705e-10
-8.90291e-11
-1.31874e-10
-8.89726e-11
-1.36644e-10
-8.87677e-11
-1.41348e-10
-8.84213e-11
-1.45975e-10
-8.79426e-11
-1.50515e-10
-8.73407e-11
-1.54959e-10
-8.66244e-11
-1.593e-10
-8.58019e-11
-1.63529e-10
-8.48812e-11
-8.38703e-11
-1.67643e-10
-8.63209e-14
-2.43095e-12
-3.44397e-13
-7.15421e-12
-7.73424e-13
-1.17384e-11
-1.37262e-12
-1.61831e-11
-2.14121e-12
-2.04876e-11
-3.07838e-12
-2.46514e-11
-4.18332e-12
-2.86742e-11
-5.4552e-12
-3.25553e-11
-6.89316e-12
-3.62942e-11
-8.49636e-12
-3.98904e-11
-1.02639e-11
-4.33433e-11
-1.2195e-11
-4.66525e-11
-1.42887e-11
-4.98172e-11
-1.65441e-11
-5.2837e-11
-1.89603e-11
-5.57114e-11
-2.15365e-11
-5.84396e-11
-2.42717e-11
-6.10212e-11
-2.7165e-11
-6.34556e-11
-3.02155e-11
-6.57422e-11
-3.34223e-11
-6.78804e-11
-3.67845e-11
-6.98695e-11
-4.03011e-11
-7.17091e-11
-4.39712e-11
-7.33984e-11
-4.77939e-11
-7.49369e-11
-5.17683e-11
-7.6324e-11
-5.58934e-11
-7.75591e-11
-6.01682e-11
-7.86414e-11
-6.45918e-11
-7.95705e-11
-6.91631e-11
-8.03458e-11
-7.38804e-11
-8.09672e-11
-7.90913e-11
-8.14377e-11
-8.4285e-11
-8.17765e-11
-8.93594e-11
-8.20161e-11
-9.44926e-11
-8.21954e-11
-9.96391e-11
-8.23661e-11
-1.04794e-10
-8.2535e-11
-1.0975e-10
-8.29039e-11
-1.14451e-10
-8.34886e-11
-1.19142e-10
-8.39545e-11
-1.23831e-10
-8.4242e-11
-1.28478e-10
-8.43826e-11
-1.3307e-10
-8.43801e-11
-1.37598e-10
-8.42397e-11
-1.4205e-10
-8.39694e-11
-1.46416e-10
-8.3577e-11
-1.50686e-10
-8.30704e-11
-1.54853e-10
-8.24571e-11
-1.58911e-10
-8.17444e-11
-1.62853e-10
-8.09394e-11
-8.00493e-11
-1.66673e-10
-9.12845e-14
-2.33967e-12
-3.6409e-13
-6.88141e-12
-8.17202e-13
-1.12853e-11
-1.44932e-12
-1.55509e-11
-2.25912e-12
-1.96778e-11
-3.24527e-12
-2.36653e-11
-4.40641e-12
-2.7513e-11
-5.74118e-12
-3.12205e-11
-7.2482e-12
-3.47872e-11
-8.92608e-12
-3.82125e-11
-1.07734e-11
-4.1496e-11
-1.27888e-11
-4.4637e-11
-1.49709e-11
-4.76351e-11
-1.73182e-11
-5.04897e-11
-1.98294e-11
-5.32002e-11
-2.2503e-11
-5.5766e-11
-2.53376e-11
-5.81866e-11
-2.83319e-11
-6.04614e-11
-3.14843e-11
-6.25897e-11
-3.47936e-11
-6.45711e-11
-3.82583e-11
-6.64048e-11
-4.1877e-11
-6.80903e-11
-4.56485e-11
-6.96269e-11
-4.95714e-11
-7.10141e-11
-5.36443e-11
-7.22511e-11
-5.78661e-11
-7.33373e-11
-6.22353e-11
-7.42722e-11
-6.67505e-11
-7.50553e-11
-7.14098e-11
-7.56864e-11
-7.63249e-11
-7.61664e-11
-8.16481e-11
-7.65144e-11
-8.66683e-11
-7.67563e-11
-9.17562e-11
-7.69281e-11
-9.68646e-11
-7.70871e-11
-1.01982e-10
-7.72485e-11
-1.06875e-10
-7.76421e-11
-1.11429e-10
-7.83494e-11
-1.15925e-10
-7.89931e-11
-1.20411e-10
-7.94687e-11
-1.24847e-10
-7.98057e-11
-1.29224e-10
-8.0006e-11
-1.3353e-10
-8.00733e-11
-1.37756e-10
-8.0014e-11
-1.4189e-10
-7.98351e-11
-1.45924e-10
-7.95432e-11
-1.4985e-10
-7.91449e-11
-1.5366e-10
-7.86465e-11
-1.5735e-10
-7.80544e-11
-1.60914e-10
-7.73751e-11
-7.66151e-11
-1.64349e-10
-9.65176e-14
-2.24315e-12
-3.83846e-13
-6.59408e-12
-8.59972e-13
-1.08092e-11
-1.52297e-12
-1.48879e-11
-2.37089e-12
-1.88298e-11
-3.40178e-12
-2.26344e-11
-4.61366e-12
-2.63012e-11
-6.00454e-12
-2.98296e-11
-7.57243e-12
-3.32193e-11
-9.31532e-12
-3.64696e-11
-1.12312e-11
-3.95801e-11
-1.3318e-11
-4.25502e-11
-1.55737e-11
-4.53794e-11
-1.79962e-11
-4.80672e-11
-2.05836e-11
-5.06129e-11
-2.33336e-11
-5.3016e-11
-2.62442e-11
-5.5276e-11
-2.93132e-11
-5.73923e-11
-3.25387e-11
-5.93643e-11
-3.59185e-11
-6.11913e-11
-3.94504e-11
-6.28729e-11
-4.31323e-11
-6.44084e-11
-4.69621e-11
-6.57971e-11
-5.09377e-11
-6.70385e-11
-5.50569e-11
-6.81319e-11
-5.93175e-11
-6.90767e-11
-6.37176e-11
-6.9872e-11
-6.82554e-11
-7.05174e-11
-7.29285e-11
-7.10133e-11
-7.83786e-11
-7.13752e-11
-8.32744e-11
-7.16244e-11
-8.82392e-11
-7.17914e-11
-9.32344e-11
-7.1933e-11
-9.82412e-11
-7.20798e-11
-1.03031e-10
-7.24586e-11
-1.07404e-10
-7.32693e-11
-1.11667e-10
-7.40864e-11
-1.15914e-10
-7.47462e-11
-1.20103e-10
-7.52793e-11
-1.24223e-10
-7.56859e-11
-1.28262e-10
-7.59675e-11
-1.32206e-10
-7.61285e-11
-1.36046e-10
-7.61743e-11
-1.39771e-10
-7.611e-11
-1.43374e-10
-7.59407e-11
-1.46847e-10
-7.56715e-11
-1.50186e-10
-7.53078e-11
-1.53385e-10
-7.48551e-11
-1.56441e-10
-7.43192e-11
-7.37054e-11
-1.59351e-10
-1.00675e-13
-2.14247e-12
-4.00544e-13
-6.29421e-12
-8.97052e-13
-1.03127e-11
-1.58746e-12
-1.41975e-11
-2.46905e-12
-1.79483e-11
-3.53913e-12
-2.15643e-11
-4.79502e-12
-2.50453e-11
-6.23404e-12
-2.83906e-11
-7.85353e-12
-3.15998e-11
-9.65078e-12
-3.46724e-11
-1.16231e-11
-3.76078e-11
-1.37678e-11
-4.04056e-11
-1.60821e-11
-4.30652e-11
-1.85632e-11
-4.55861e-11
-2.12083e-11
-4.79677e-11
-2.40146e-11
-5.02097e-11
-2.69793e-11
-5.23114e-11
-3.00994e-11
-5.42722e-11
-3.33719e-11
-5.60917e-11
-3.67939e-11
-5.77694e-11
-4.03622e-11
-5.93046e-11
-4.40737e-11
-6.06969e-11
-4.79252e-11
-6.19456e-11
-5.19134e-11
-6.30503e-11
-5.6035e-11
-6.40103e-11
-6.02866e-11
-6.4825e-11
-6.46644e-11
-6.54943e-11
-6.91633e-11
-6.60185e-11
-7.48734e-11
-6.64026e-11
-7.95916e-11
-6.6668e-11
-8.43818e-11
-6.68342e-11
-8.92159e-11
-6.69576e-11
-9.4057e-11
-6.70912e-11
-9.87303e-11
-6.74065e-11
-1.02917e-10
-6.82722e-11
-1.06924e-10
-6.92619e-11
-1.1089e-10
-7.01206e-11
-1.14766e-10
-7.087e-11
-1.18538e-10
-7.15073e-11
-1.22194e-10
-7.20304e-11
-1.2572e-10
-7.24412e-11
-1.29106e-10
-7.27427e-11
-1.32342e-10
-7.29378e-11
-1.35422e-10
-7.30299e-11
-1.38341e-10
-7.30223e-11
-1.41093e-10
-7.2919e-11
-1.43676e-10
-7.27245e-11
-1.46088e-10
-7.24434e-11
-1.48328e-10
-7.20798e-11
-7.16378e-11
-1.50395e-10
-1.04245e-13
-2.03823e-12
-4.12615e-13
-5.98584e-12
-9.21474e-13
-9.80382e-12
-1.62752e-12
-1.34915e-11
-2.52745e-12
-1.70483e-11
-3.61795e-12
-2.04738e-11
-4.89568e-12
-2.37676e-11
-6.3573e-12
-2.6929e-11
-7.99947e-12
-2.99576e-11
-9.81883e-12
-3.2853e-11
-1.1812e-11
-3.56146e-11
-1.39755e-11
-3.8242e-11
-1.6306e-11
-4.07346e-11
-1.88001e-11
-4.3092e-11
-2.14542e-11
-4.53136e-11
-2.4265e-11
-4.7399e-11
-2.72288e-11
-4.93475e-11
-3.03422e-11
-5.11588e-11
-3.36017e-11
-5.28323e-11
-3.70036e-11
-5.43674e-11
-4.05445e-11
-5.57637e-11
-4.42207e-11
-5.70206e-11
-4.80287e-11
-5.81376e-11
-5.19648e-11
-5.91142e-11
-5.60254e-11
-5.99497e-11
-6.02069e-11
-6.06435e-11
-6.4506e-11
-6.11952e-11
-6.91896e-11
-6.16053e-11
-7.44212e-11
-6.18917e-11
-7.90116e-11
-6.20776e-11
-8.36648e-11
-6.21824e-11
-8.8334e-11
-6.22874e-11
-9.29507e-11
-6.24745e-11
-9.69899e-11
-6.33673e-11
-1.00674e-10
-6.45885e-11
-1.04238e-10
-6.5697e-11
-1.07641e-10
-6.67176e-11
-1.10865e-10
-6.76467e-11
-1.13895e-10
-6.84769e-11
-1.16719e-10
-6.92063e-11
-1.19326e-10
-6.98341e-11
-1.21709e-10
-7.03598e-11
-1.23864e-10
-7.07829e-11
-1.25789e-10
-7.11053e-11
-1.27482e-10
-7.13288e-11
-1.28946e-10
-7.14555e-11
-1.30182e-10
-7.1488e-11
-1.31197e-10
-7.14286e-11
-1.31998e-10
-7.12792e-11
-7.10423e-11
-1.32593e-10
-9.8821e-14
-1.93941e-12
-3.93566e-13
-5.69109e-12
-8.81862e-13
-9.31553e-12
-1.56092e-12
-1.28124e-11
-2.42779e-12
-1.61815e-11
-3.47934e-12
-1.94223e-11
-4.71233e-12
-2.25346e-11
-6.12335e-12
-2.5518e-11
-7.70892e-12
-2.83721e-11
-9.46542e-12
-3.10965e-11
-1.13892e-11
-3.36909e-11
-1.34765e-11
-3.61547e-11
-1.57234e-11
-3.84877e-11
-1.81261e-11
-4.06893e-11
-2.06807e-11
-4.2759e-11
-2.33831e-11
-4.46965e-11
-2.62294e-11
-4.65012e-11
-2.92155e-11
-4.81727e-11
-3.23374e-11
-4.97104e-11
-3.55909e-11
-5.11139e-11
-3.8972e-11
-5.23826e-11
-4.24766e-11
-5.3516e-11
-4.61008e-11
-5.45134e-11
-4.98405e-11
-5.53745e-11
-5.36918e-11
-5.60984e-11
-5.76503e-11
-5.6685e-11
-6.17112e-11
-5.71343e-11
-6.72136e-11
-5.74497e-11
-7.14674e-11
-5.76499e-11
-7.579e-11
-5.7755e-11
-8.01456e-11
-5.78258e-11
-8.45264e-11
-5.79066e-11
-8.8434e-11
-5.85669e-11
-9.16879e-11
-6.01134e-11
-9.4624e-11
-6.16524e-11
-9.71939e-11
-6.31271e-11
-9.93744e-11
-6.45371e-11
-1.01154e-10
-6.58668e-11
-1.02524e-10
-6.71067e-11
-1.03481e-10
-6.82501e-11
-1.04024e-10
-6.92903e-11
-1.04166e-10
-7.02181e-11
-1.03923e-10
-7.10262e-11
-1.03312e-10
-7.17163e-11
-1.02356e-10
-7.22841e-11
-1.01078e-10
-7.27342e-11
-9.95014e-11
-7.30644e-11
-9.76578e-11
-7.32722e-11
-9.55782e-11
-7.33588e-11
-7.33246e-11
-9.32959e-11
-1.04182e-13
-1.83523e-12
-4.1348e-13
-5.38179e-12
-9.23762e-13
-8.80524e-12
-1.63046e-12
-1.21057e-11
-2.52904e-12
-1.52829e-11
-3.61498e-12
-1.83364e-11
-4.88373e-12
-2.12658e-11
-6.33076e-12
-2.40709e-11
-7.95149e-12
-2.67513e-11
-9.74133e-12
-2.93067e-11
-1.16957e-11
-3.17365e-11
-1.38098e-11
-3.40406e-11
-1.60791e-11
-3.62184e-11
-1.84988e-11
-3.82696e-11
-2.1064e-11
-4.01938e-11
-2.37701e-11
-4.19905e-11
-2.66121e-11
-4.36593e-11
-2.9585e-11
-4.51998e-11
-3.2684e-11
-4.66115e-11
-3.5904e-11
-4.78939e-11
-3.92399e-11
-4.90467e-11
-4.26866e-11
-5.00692e-11
-4.6239e-11
-5.0961e-11
-4.98919e-11
-5.17216e-11
-5.36399e-11
-5.23504e-11
-5.7478e-11
-5.2847e-11
-6.15735e-11
-5.3211e-11
-6.672e-11
-5.34481e-11
-7.07872e-11
-5.35826e-11
-7.49093e-11
-5.36352e-11
-7.90558e-11
-5.36766e-11
-8.31307e-11
-5.38318e-11
-8.60643e-11
-5.56333e-11
-8.80584e-11
-5.81193e-11
-8.91347e-11
-6.05762e-11
-8.92522e-11
-6.30096e-11
-8.84046e-11
-6.53847e-11
-8.65982e-11
-6.76732e-11
-8.38487e-11
-6.98562e-11
-8.01787e-11
-7.19201e-11
-7.56417e-11
-7.38273e-11
-7.02943e-11
-7.55656e-11
-6.42387e-11
-7.70817e-11
-5.76274e-11
-7.83276e-11
-5.05287e-11
-7.93828e-11
-4.30507e-11
-8.02122e-11
-3.52965e-11
-8.08186e-11
-2.73684e-11
-8.12003e-11
-1.93601e-11
-8.13671e-11
-8.1321e-11
-1.13638e-11
-1.05401e-13
-1.72983e-12
-4.12394e-13
-5.0748e-12
-9.15026e-13
-8.30261e-12
-1.60889e-12
-1.14119e-11
-2.4895e-12
-1.44023e-11
-3.55229e-12
-1.72736e-11
-4.79264e-12
-2.00255e-11
-6.20583e-12
-2.26577e-11
-7.7871e-12
-2.51701e-11
-9.5316e-12
-2.75622e-11
-1.14344e-11
-2.98338e-11
-1.34904e-11
-3.19846e-11
-1.56946e-11
-3.40143e-11
-1.80416e-11
-3.59226e-11
-2.05262e-11
-3.77092e-11
-2.31428e-11
-3.93738e-11
-2.58858e-11
-4.09162e-11
-2.87496e-11
-4.2336e-11
-3.1728e-11
-4.3633e-11
-3.48151e-11
-4.48068e-11
-3.80047e-11
-4.58571e-11
-4.12902e-11
-4.67837e-11
-4.46652e-11
-4.75861e-11
-4.81229e-11
-4.82639e-11
-5.16562e-11
-4.8817e-11
-5.52584e-11
-4.92449e-11
-5.94134e-11
-4.95472e-11
-6.41426e-11
-4.9729e-11
-6.79197e-11
-4.98055e-11
-7.17303e-11
-4.98264e-11
-7.55649e-11
-4.98379e-11
-7.91048e-11
-5.02918e-11
-8.04225e-11
-5.43155e-11
-7.92746e-11
-5.92673e-11
-7.56464e-11
-6.42044e-11
-6.95834e-11
-6.90726e-11
-6.12067e-11
-7.37613e-11
-5.06906e-11
-7.81893e-11
-3.82439e-11
-8.23029e-11
-2.41021e-11
-8.60619e-11
-8.42216e-12
-8.95072e-11
8.46928e-12
-9.2457e-11
2.62545e-11
-9.4867e-11
4.4642e-11
-9.67151e-11
6.33375e-11
-9.80783e-11
8.20989e-11
-9.89735e-11
1.00678e-10
-9.93983e-11
1.18855e-10
-9.93769e-11
1.36428e-10
-9.89395e-11
-9.81143e-11
1.53221e-10
-1.0192e-13
-1.62791e-12
-4.10894e-13
-4.76583e-12
-9.23445e-13
-7.79006e-12
-1.63308e-12
-1.07022e-11
-2.53372e-12
-1.35016e-11
-3.61965e-12
-1.61876e-11
-4.88539e-12
-1.87597e-11
-6.32571e-12
-2.12174e-11
-7.93551e-12
-2.35603e-11
-9.7098e-12
-2.57879e-11
-1.16436e-11
-2.79e-11
-1.3732e-11
-2.98962e-11
-1.59699e-11
-3.17763e-11
-1.83522e-11
-3.35403e-11
-2.08735e-11
-3.51879e-11
-2.35283e-11
-3.6719e-11
-2.63108e-11
-3.81338e-11
-2.92147e-11
-3.94321e-11
-3.22336e-11
-4.06142e-11
-3.53604e-11
-4.168e-11
-3.85877e-11
-4.26299e-11
-4.19075e-11
-4.34639e-11
-4.53113e-11
-4.41823e-11
-4.87899e-11
-4.47853e-11
-5.23335e-11
-4.52735e-11
-5.59315e-11
-4.56468e-11
-6.01311e-11
-4.59048e-11
-6.48511e-11
-4.60498e-11
-6.85489e-11
-4.61078e-11
-7.23016e-11
-4.60752e-11
-7.61122e-11
-4.60219e-11
-7.98277e-11
-4.65763e-11
-8.09911e-11
-5.31522e-11
-7.52039e-11
-6.50544e-11
-6.27963e-11
-7.6612e-11
-4.45081e-11
-8.73608e-11
-2.13249e-11
-9.69445e-11
5.92948e-12
-1.05444e-10
3.63788e-11
-1.12752e-10
6.91993e-11
-1.18882e-10
1.03443e-10
-1.23751e-10
1.38454e-10
-1.27467e-10
1.73673e-10
-1.30087e-10
2.08589e-10
-1.31631e-10
2.42671e-10
-1.3216e-10
2.75476e-10
-1.31779e-10
3.06642e-10
-1.30565e-10
3.35869e-10
-1.28603e-10
3.62909e-10
-1.25979e-10
-1.22788e-10
3.87582e-10
-9.76223e-14
-1.53028e-12
-3.66856e-13
-4.49659e-12
-7.98248e-13
-7.35867e-12
-1.38962e-12
-1.01109e-11
-2.13943e-12
-1.27518e-11
-3.04672e-12
-1.52803e-11
-4.11098e-12
-1.76955e-11
-5.33207e-12
-1.99963e-11
-6.71011e-12
-2.21822e-11
-8.24537e-12
-2.42526e-11
-9.93821e-12
-2.62071e-11
-1.1789e-11
-2.80454e-11
-1.37979e-11
-2.97675e-11
-1.59648e-11
-3.13733e-11
-1.82896e-11
-3.28631e-11
-2.07712e-11
-3.42374e-11
-2.34084e-11
-3.54965e-11
-2.61992e-11
-3.66414e-11
-2.91405e-11
-3.76728e-11
-3.22287e-11
-3.85918e-11
-3.54588e-11
-3.93998e-11
-3.88247e-11
-4.0098e-11
-4.23187e-11
-4.06883e-11
-4.59317e-11
-4.11723e-11
-4.96529e-11
-4.15523e-11
-5.34691e-11
-4.18305e-11
-5.74543e-11
-4.20089e-11
-6.30459e-11
-4.2089e-11
-6.70727e-11
-4.20809e-11
-7.11316e-11
-4.20197e-11
-7.53704e-11
-4.17768e-11
-8.12585e-11
-4.06883e-11
-8.91031e-11
-4.53075e-11
-9.10029e-11
-6.31547e-11
-7.22165e-11
-9.53984e-11
-3.49229e-11
-1.24654e-10
9.67209e-12
-1.41539e-10
5.9687e-11
-1.55459e-10
1.12528e-10
-1.65593e-10
1.66732e-10
-1.73086e-10
2.20767e-10
-1.77786e-10
2.73479e-10
-1.8018e-10
3.23974e-10
-1.80582e-10
3.71245e-10
-1.78901e-10
4.14843e-10
-1.75758e-10
4.54387e-10
-1.71323e-10
4.8965e-10
-1.65828e-10
5.20537e-10
-1.5949e-10
5.4706e-10
-1.52502e-10
-1.45039e-10
5.69311e-10
-1.18512e-14
-1.51843e-12
-7.89668e-14
-4.42948e-12
-2.16439e-13
-7.2212e-12
-4.31984e-13
-9.89531e-12
-7.34525e-13
-1.24493e-11
-1.13398e-12
-1.48809e-11
-1.6411e-12
-1.71883e-11
-2.26733e-12
-1.93701e-11
-3.02468e-12
-2.14249e-11
-3.92566e-12
-2.33517e-11
-4.98312e-12
-2.51496e-11
-6.21023e-12
-2.68183e-11
-7.62033e-12
-2.83574e-11
-9.22684e-12
-2.97668e-11
-1.10432e-11
-3.10468e-11
-1.30828e-11
-3.21978e-11
-1.53587e-11
-3.32207e-11
-1.78837e-11
-3.41164e-11
-2.06701e-11
-3.48863e-11
-2.37297e-11
-3.55322e-11
-2.70735e-11
-3.6056e-11
-3.07113e-11
-3.64602e-11
-3.46521e-11
-3.67475e-11
-3.89032e-11
-3.69212e-11
-4.34703e-11
-3.69852e-11
-4.83569e-11
-3.69439e-11
-5.35635e-11
-3.68023e-11
-5.96962e-11
-3.65648e-11
-6.67698e-11
-3.62278e-11
-7.29411e-11
-3.58484e-11
-7.9362e-11
-3.53559e-11
-8.53394e-11
-3.47109e-11
-9.52462e-11
-3.53909e-11
-1.24424e-10
-3.39768e-11
-1.32432e-10
-8.73904e-11
-1.22025e-10
-1.35062e-10
-8.63572e-11
-1.77207e-10
-2.1171e-11
-2.20645e-10
4.49499e-11
-2.31714e-10
1.14264e-10
-2.424e-10
1.80642e-10
-2.44165e-10
2.41474e-10
-2.41011e-10
2.94722e-10
-2.3383e-10
3.40631e-10
-2.2481e-10
3.78721e-10
-2.13848e-10
4.09335e-10
-2.01937e-10
4.32929e-10
-1.89422e-10
4.50134e-10
-1.76695e-10
4.61634e-10
-1.64002e-10
-1.5151e-10
4.68105e-10
9.90282e-14
-1.61746e-12
4.03954e-13
-4.7344e-12
8.91644e-13
-7.70889e-12
1.52483e-12
-1.05285e-11
2.26764e-12
-1.31921e-11
3.08535e-12
-1.56986e-11
3.94409e-12
-1.80471e-11
4.81076e-12
-2.02368e-11
5.65279e-12
-2.22669e-11
6.4379e-12
-2.41368e-11
7.13398e-12
-2.58457e-11
7.70877e-12
-2.73931e-11
8.12977e-12
-2.87784e-11
8.36391e-12
-3.00009e-11
8.37746e-12
-3.10603e-11
8.13564e-12
-3.1956e-11
7.60264e-12
-3.26877e-11
6.74107e-12
-3.32548e-11
5.5121e-12
-3.36574e-11
3.87473e-12
-3.38948e-11
1.78618e-12
-3.39674e-11
-7.99232e-13
-3.38747e-11
-3.92924e-12
-3.36174e-11
-7.65537e-12
-3.31951e-11
-1.20314e-11
-3.26091e-11
-1.71164e-11
-3.1859e-11
-2.29715e-11
-3.09472e-11
-2.96628e-11
-2.98734e-11
-3.73064e-11
-2.86456e-11
-4.76475e-11
-2.71328e-11
-5.72323e-11
-2.58551e-11
-6.74189e-11
-2.45243e-11
-7.96821e-11
-2.31277e-11
-9.2084e-11
-2.15732e-11
-1.15364e-10
-6.40956e-11
-1.87566e-10
-6.28591e-11
-2.09891e-10
-1.54882e-10
-2.33308e-10
-1.97228e-10
-2.32042e-10
-2.3298e-10
-1.71132e-10
-3.0331e-10
-1.22125e-10
-2.93171e-10
-6.64811e-11
-2.96656e-10
-1.83768e-11
-2.81934e-10
2.13618e-11
-2.64549e-10
5.24209e-11
-2.44907e-10
7.4561e-11
-2.24077e-10
8.80251e-11
-2.02886e-10
9.43743e-11
-1.83045e-10
9.48046e-11
-1.64433e-10
-1.472e-10
9.04951e-11
2.88181e-13
-1.90564e-12
1.01259e-12
-5.45881e-12
2.08928e-12
-8.78558e-12
3.46387e-12
-1.19031e-11
5.08617e-12
-1.48144e-11
6.90952e-12
-1.7522e-11
8.89034e-12
-2.00279e-11
1.09875e-11
-2.2334e-11
1.31621e-11
-2.44415e-11
1.53765e-11
-2.63512e-11
1.75943e-11
-2.80635e-11
1.97793e-11
-2.95781e-11
2.18958e-11
-3.08948e-11
2.39071e-11
-3.20122e-11
2.5776e-11
-3.29292e-11
2.74635e-11
-3.36435e-11
2.89288e-11
-3.4153e-11
3.01281e-11
-3.44542e-11
3.1015e-11
-3.45443e-11
3.15384e-11
-3.44182e-11
3.16435e-11
-3.40725e-11
3.12689e-11
-3.35001e-11
3.03483e-11
-3.26969e-11
2.88067e-11
-3.16535e-11
2.65627e-11
-3.03651e-11
2.3523e-11
-2.88193e-11
1.95868e-11
-2.7011e-11
1.46369e-11
-2.49235e-11
8.54274e-12
-2.25515e-11
1.34689e-12
-1.99369e-11
-7.50961e-12
-1.70614e-11
-1.94253e-11
-1.36619e-11
-3.31924e-11
-9.38392e-12
-4.579e-11
-8.97593e-12
-1.00741e-10
-9.14466e-12
-1.4663e-10
-1.69675e-11
-2.13474e-10
-8.80165e-11
-3.71679e-10
-3.90229e-11
-3.71642e-10
-2.33017e-10
-5.04649e-10
-1.70303e-10
-5.95404e-10
-2.02415e-10
-6.24577e-10
-2.67483e-10
-6.37674e-10
-2.68837e-10
-5.94957e-10
-3.07266e-10
-5.56952e-10
-2.82911e-10
-5.11682e-10
-2.69347e-10
-4.68361e-10
-2.46207e-10
-4.31764e-10
-2.19642e-10
-4.05206e-10
-1.9099e-10
-1.65123e-10
-3.87284e-10
7.82293e-15
-1.91347e-12
7.68822e-14
-5.52787e-12
2.12032e-13
-8.92073e-12
3.99084e-13
-1.20901e-11
6.2529e-13
-1.50406e-11
8.79115e-13
-1.77758e-11
1.15018e-12
-2.0299e-11
1.4293e-12
-2.26131e-11
1.70843e-12
-2.47206e-11
1.9806e-12
-2.66233e-11
2.23979e-12
-2.83227e-11
2.481e-12
-2.98194e-11
2.70005e-12
-3.11139e-11
2.89369e-12
-3.22059e-11
3.05937e-12
-3.30949e-11
3.19539e-12
-3.37795e-11
3.30059e-12
-3.42582e-11
3.3747e-12
-3.45283e-11
3.41775e-12
-3.45873e-11
3.43072e-12
-3.44312e-11
3.41464e-12
-3.40564e-11
3.37169e-12
-3.34572e-11
3.30372e-12
-3.26289e-11
3.21408e-12
-3.15639e-11
3.10532e-12
-3.02563e-11
2.98208e-12
-2.86961e-11
2.84754e-12
-2.68765e-11
2.70828e-12
-2.47842e-11
2.56862e-12
-2.24118e-11
2.37332e-12
-1.97416e-11
2.0766e-12
-1.67647e-11
1.99134e-12
-1.35767e-11
3.12293e-12
-1.05151e-11
8.92431e-13
-7.31322e-12
-6.23505e-12
-2.02356e-12
-2.28319e-11
-3.70672e-13
-1.04475e-10
-6.37368e-12
-1.42232e-10
-1.26563e-12
-3.31526e-10
-4.37221e-11
-4.91748e-10
-1.00753e-11
-5.39301e-10
-1.54819e-10
-7.65348e-10
-4.14357e-11
-8.07001e-10
-2.27185e-10
-9.22232e-10
-1.92035e-10
-1.00047e-09
-2.04673e-10
-9.82903e-10
-2.86915e-10
-9.11528e-10
-3.17582e-10
-8.047e-10
-3.2647e-10
-7.12752e-10
-2.82938e-10
-2.38615e-10
-6.3926e-10
-2.1108e-13
-1.70239e-12
-8.52932e-13
-4.88602e-12
-1.89617e-12
-7.8775e-12
-3.29604e-12
-1.06903e-11
-5.01321e-12
-1.33234e-11
-7.01243e-12
-1.57766e-11
-9.26153e-12
-1.80499e-11
-1.17304e-11
-2.01442e-11
-1.43904e-11
-2.20606e-11
-1.72136e-11
-2.38002e-11
-2.01723e-11
-2.5364e-11
-2.32383e-11
-2.67533e-11
-2.63828e-11
-2.79694e-11
-2.95754e-11
-2.90132e-11
-3.27843e-11
-2.9886e-11
-3.5975e-11
-3.05887e-11
-3.91109e-11
-3.11222e-11
-4.21519e-11
-3.14873e-11
-4.50547e-11
-3.16845e-11
-4.77715e-11
-3.17145e-11
-5.02504e-11
-3.15774e-11
-5.24338e-11
-3.12738e-11
-5.42591e-11
-3.08036e-11
-5.56559e-11
-3.0167e-11
-5.65483e-11
-2.9364e-11
-5.68498e-11
-2.83946e-11
-5.64677e-11
-2.72586e-11
-5.52954e-11
-2.59565e-11
-5.32195e-11
-2.44878e-11
-5.01078e-11
-2.28533e-11
-4.58189e-11
-2.10535e-11
-4.03051e-11
-1.90905e-11
-3.38553e-11
-1.69648e-11
-2.65008e-11
-1.46677e-11
-1.57225e-11
-1.2821e-11
-5.12181e-12
-1.11872e-11
-1.28638e-12
-1.02136e-11
6.85982e-12
-9.41189e-12
-3.57637e-11
-1.09862e-12
-4.00015e-11
-5.83748e-12
-1.85449e-10
-9.37089e-12
-2.18028e-10
-8.85685e-12
-4.04242e-10
-4.09684e-11
-5.84819e-10
-1.14496e-11
-6.19819e-10
-1.69601e-10
-8.25339e-10
-8.13941e-11
-8.70561e-10
-2.7236e-10
-9.37551e-10
-2.59479e-10
-8.71848e-10
-3.48641e-10
-3.75373e-10
-7.3509e-10
-2.00848e-13
-1.50154e-12
-6.87419e-13
-4.39945e-12
-1.43426e-12
-7.13065e-12
-2.46077e-12
-9.66375e-12
-3.77906e-12
-1.20051e-11
-5.39458e-12
-1.4161e-11
-7.30659e-12
-1.61379e-11
-9.50861e-12
-1.79422e-11
-1.19888e-11
-1.95804e-11
-1.47305e-11
-2.10585e-11
-1.7712e-11
-2.23825e-11
-2.09076e-11
-2.35577e-11
-2.42873e-11
-2.45897e-11
-2.78172e-11
-2.54833e-11
-3.14598e-11
-2.62435e-11
-3.51738e-11
-2.68747e-11
-3.89149e-11
-2.73812e-11
-4.26349e-11
-2.77673e-11
-4.62828e-11
-2.80366e-11
-4.98041e-11
-2.81932e-11
-5.31412e-11
-2.82403e-11
-5.62331e-11
-2.81818e-11
-5.90159e-11
-2.80208e-11
-6.1422e-11
-2.7761e-11
-6.33805e-11
-2.74054e-11
-6.48171e-11
-2.6958e-11
-6.5654e-11
-2.64217e-11
-6.58093e-11
-2.58012e-11
-6.51978e-11
-2.50993e-11
-6.37295e-11
-2.43216e-11
-6.13119e-11
-2.34711e-11
-5.78478e-11
-2.25546e-11
-5.32375e-11
-2.15751e-11
-4.73628e-11
-2.05424e-11
-4.07227e-11
-1.9461e-11
-3.35681e-11
-1.83416e-11
-2.67542e-11
-1.707e-11
-2.075e-11
-1.55052e-11
-7.5744e-12
-1.42775e-11
-4.09726e-13
-1.30031e-11
2.01456e-12
-1.17952e-11
4.82882e-12
-1.16709e-11
-2.94773e-11
-6.66209e-12
-3.69091e-11
-4.01758e-12
-1.96895e-10
-9.6145e-12
-2.85568e-10
7.27923e-12
-4.81012e-10
-7.69123e-11
-7.322e-10
-8.269e-12
-6.67403e-10
-4.13263e-10
-2.51064e-10
-7.91712e-10
5.19621e-13
-2.02116e-12
1.52102e-12
-5.40084e-12
2.68828e-12
-8.29791e-12
3.84767e-12
-1.08231e-11
4.86768e-12
-1.30251e-11
5.65128e-12
-1.49446e-11
6.13024e-12
-1.66168e-11
6.26021e-12
-1.80722e-11
6.01654e-12
-1.93367e-11
5.39087e-12
-2.04329e-11
4.38824e-12
-2.13798e-11
3.02461e-12
-2.21941e-11
1.32492e-12
-2.289e-11
-6.78681e-13
-2.34797e-11
-2.94819e-12
-2.3974e-11
-5.44103e-12
-2.43818e-11
-8.111e-12
-2.47113e-11
-1.09092e-11
-2.49691e-11
-1.37848e-11
-2.51611e-11
-1.66856e-11
-2.52924e-11
-1.95588e-11
-2.53671e-11
-2.23516e-11
-2.53891e-11
-2.50114e-11
-2.5361e-11
-2.74869e-11
-2.52855e-11
-2.97281e-11
-2.51642e-11
-3.16874e-11
-2.49987e-11
-3.332e-11
-2.47892e-11
-3.45848e-11
-2.45364e-11
-3.5445e-11
-2.42391e-11
-3.58696e-11
-2.3897e-11
-3.58339e-11
-2.35068e-11
-3.53215e-11
-2.3067e-11
-3.43247e-11
-2.25719e-11
-3.28492e-11
-2.20179e-11
-3.09149e-11
-2.13953e-11
-2.85594e-11
-2.06971e-11
-2.57227e-11
-1.99067e-11
-2.22145e-11
-1.90134e-11
-1.84754e-11
-1.80167e-11
-1.46053e-11
-1.68738e-11
-1.07507e-11
-1.56652e-11
-8.31682e-12
-1.41047e-11
-2.33982e-12
-1.26391e-11
4.79594e-12
-1.11533e-11
4.88493e-12
-9.70349e-12
2.25737e-11
-1.04022e-11
-5.19321e-11
-2.40536e-12
-5.86301e-11
-1.56515e-12
-4.64106e-10
-7.73666e-12
-4.63191e-12
-7.10163e-10
1.73788e-11
3.1378e-11
4.24801e-11
5.10569e-11
5.74318e-11
6.18872e-11
6.46703e-11
6.59982e-11
6.60615e-11
6.50286e-11
6.30488e-11
6.02547e-11
5.67647e-11
5.2685e-11
4.8111e-11
4.31292e-11
3.78179e-11
3.22489e-11
2.64878e-11
2.05954e-11
1.46283e-11
8.63923e-12
2.67823e-12
-3.2073e-12
-8.97151e-12
-1.45702e-11
-1.99593e-11
-2.50957e-11
-2.99348e-11
-3.44318e-11
-3.85386e-11
-4.22057e-11
-4.53776e-11
-4.79955e-11
-4.99908e-11
-5.1288e-11
-5.17947e-11
-5.14081e-11
-5.00248e-11
-4.74986e-11
-4.37641e-11
-3.84726e-11
-3.1736e-11
-2.35182e-11
-1.39442e-11
-4.92659e-12
1.03852e-11
2.74152e-11
3.07706e-11
5.0113e-12
-1.71274e-10
-8.67689e-11
-1.75391e-10
-8.54743e-11
-1.79378e-10
-8.41079e-11
-1.83231e-10
-8.26774e-11
-1.86947e-10
-8.11904e-11
-1.90523e-10
-7.96542e-11
-1.93959e-10
-7.80758e-11
-1.97253e-10
-7.6462e-11
-2.00404e-10
-7.48193e-11
-2.03411e-10
-7.3154e-11
-2.06275e-10
-7.14721e-11
-2.08996e-10
-6.97792e-11
-2.11576e-10
-6.80807e-11
-2.14015e-10
-6.63816e-11
-2.16316e-10
-6.46866e-11
-2.18481e-10
-6.30002e-11
-2.20511e-10
-6.13262e-11
-2.22409e-10
-5.96686e-11
-2.24179e-10
-5.80308e-11
-2.25823e-10
-5.64158e-11
-2.27345e-10
-5.48264e-11
-2.28748e-10
-5.32652e-11
-2.30035e-10
-5.17345e-11
-2.31212e-10
-5.0236e-11
-2.3228e-10
-4.87716e-11
-2.33245e-10
-4.73427e-11
-2.3411e-10
-4.59504e-11
-2.34879e-10
-4.45957e-11
-2.35557e-10
-4.32794e-11
-2.36146e-10
-4.2002e-11
-2.36653e-10
-4.07638e-11
-2.37079e-10
-3.95651e-11
-2.3743e-10
-3.84058e-11
-2.37709e-10
-3.72859e-11
-2.3792e-10
-3.6205e-11
-2.38067e-10
-3.51628e-11
-2.38153e-10
-3.41587e-11
-2.38182e-10
-3.31923e-11
-2.38157e-10
-3.22627e-11
-2.38083e-10
-3.13693e-11
-2.37961e-10
-3.05111e-11
-2.37796e-10
-2.96873e-11
-2.3759e-10
-2.8897e-11
-2.37346e-10
-2.81391e-11
-2.37067e-10
-2.74126e-11
-2.36755e-10
-2.67164e-11
-2.36414e-10
-2.60494e-11
-2.36045e-10
-2.54107e-11
-2.35651e-10
-2.47981e-11
-2.42102e-11
-2.35235e-10
-1.71635e-10
-8.27767e-11
-1.75502e-10
-8.16078e-11
-1.79239e-10
-8.03711e-11
-1.82843e-10
-7.90735e-11
-1.86311e-10
-7.77219e-11
-1.89642e-10
-7.63232e-11
-1.92834e-10
-7.48838e-11
-1.95886e-10
-7.34099e-11
-1.98798e-10
-7.19076e-11
-2.01569e-10
-7.03828e-11
-2.042e-10
-6.88408e-11
-2.06692e-10
-6.7287e-11
-2.09047e-10
-6.57262e-11
-2.11265e-10
-6.41632e-11
-2.1335e-10
-6.26023e-11
-2.15302e-10
-6.10477e-11
-2.17125e-10
-5.95029e-11
-2.18822e-10
-5.79717e-11
-2.20396e-10
-5.64571e-11
-2.2185e-10
-5.4962e-11
-2.23187e-10
-5.34891e-11
-2.24412e-10
-5.20407e-11
-2.25527e-10
-5.0619e-11
-2.26537e-10
-4.92258e-11
-2.27446e-10
-4.78627e-11
-2.28258e-10
-4.6531e-11
-2.28977e-10
-4.52319e-11
-2.29606e-10
-4.39663e-11
-2.3015e-10
-4.2735e-11
-2.30614e-10
-4.15386e-11
-2.31e-10
-4.03774e-11
-2.31314e-10
-3.92517e-11
-2.31558e-10
-3.81614e-11
-2.31737e-10
-3.71067e-11
-2.31855e-10
-3.60872e-11
-2.31915e-10
-3.51027e-11
-2.31921e-10
-3.41529e-11
-2.31876e-10
-3.32371e-11
-2.31784e-10
-3.23548e-11
-2.31648e-10
-3.15054e-11
-2.31471e-10
-3.06881e-11
-2.31256e-10
-2.99022e-11
-2.31006e-10
-2.91469e-11
-2.30724e-10
-2.84212e-11
-2.30412e-10
-2.77242e-11
-2.30074e-10
-2.7055e-11
-2.2971e-10
-2.64127e-11
-2.29325e-10
-2.57963e-11
-2.28919e-10
-2.52038e-11
-2.46346e-11
-2.28495e-10
-1.70369e-10
-7.90811e-11
-1.73935e-10
-7.80416e-11
-1.77369e-10
-7.69372e-11
-1.80668e-10
-7.57746e-11
-1.8383e-10
-7.456e-11
-1.86853e-10
-7.32996e-11
-1.89738e-10
-7.19992e-11
-1.92483e-10
-7.06646e-11
-1.95089e-10
-6.93015e-11
-1.97557e-10
-6.7915e-11
-1.99888e-10
-6.65102e-11
-2.02083e-10
-6.50921e-11
-2.04144e-10
-6.36651e-11
-2.06074e-10
-6.22335e-11
-2.07874e-10
-6.08015e-11
-2.09549e-10
-5.93728e-11
-2.11101e-10
-5.7951e-11
-2.12534e-10
-5.65392e-11
-2.1385e-10
-5.51405e-11
-2.15055e-10
-5.37576e-11
-2.16151e-10
-5.2393e-11
-2.17143e-10
-5.1049e-11
-2.18034e-10
-4.97276e-11
-2.18829e-10
-4.84304e-11
-2.19533e-10
-4.71592e-11
-2.20149e-10
-4.59152e-11
-2.20681e-10
-4.46996e-11
-2.21134e-10
-4.35133e-11
-2.21512e-10
-4.23572e-11
-2.21819e-10
-4.12318e-11
-2.22059e-10
-4.01375e-11
-2.22235e-10
-3.90747e-11
-2.22353e-10
-3.80436e-11
-2.22416e-10
-3.70441e-11
-2.22427e-10
-3.60763e-11
-2.2239e-10
-3.51398e-11
-2.22308e-10
-3.42345e-11
-2.22185e-10
-3.336e-11
-2.22024e-10
-3.25157e-11
-2.21828e-10
-3.17013e-11
-2.216e-10
-3.09161e-11
-2.21343e-10
-3.01594e-11
-2.21059e-10
-2.94306e-11
-2.20752e-10
-2.87289e-11
-2.20422e-10
-2.80535e-11
-2.20074e-10
-2.74036e-11
-2.19708e-10
-2.67784e-11
-2.19327e-10
-2.61771e-11
-2.18934e-10
-2.55977e-11
-2.50389e-11
-2.18529e-10
-1.67649e-10
-7.57805e-11
-1.70813e-10
-7.48775e-11
-1.73839e-10
-7.39117e-11
-1.76724e-10
-7.28891e-11
-1.79469e-10
-7.18153e-11
-1.82073e-10
-7.06958e-11
-1.84536e-10
-6.95359e-11
-1.8686e-10
-6.83409e-11
-1.89046e-10
-6.71159e-11
-1.91095e-10
-6.58656e-11
-1.93011e-10
-6.45947e-11
-1.94795e-10
-6.33078e-11
-1.96451e-10
-6.20089e-11