/*--------------------------------*- C++ -*----------------------------------*\
| =========                 |                                                 |
| \\      /  F ield         | OpenFOAM: The Open Source CFD Toolbox           |
|  \\    /   O peration     | Version:  2.4.0                                 |
|   \\  /    A nd           | Web:      www.OpenFOAM.org                      |
|    \\/     M anipulation  |                                                 |
\*---------------------------------------------------------------------------*/
FoamFile
{
    version     2.0;
    format      ascii;
    class       volVectorField;
    location    "1.3";
    object      U;
}
// * * * * * * * * * * * * * * * * * * * * * * * * * * * * * * * * * * * * * //

dimensions      [0 1 -1 0 0 0 0];

internalField   nonuniform List<vector> 
125
(
(-9.0752e-09 -0.00177405 0)
(-9.07372e-09 -0.00177406 0)
(1.32641e-09 -0.00177406 0)
(-7.45676e-10 -0.00177406 0)
(-9.50795e-10 -0.00177405 0)
(-8.75109e-09 -0.00177404 0)
(-8.68437e-09 -0.00177406 0)
(1.29692e-09 -0.00177406 0)
(-1.00813e-09 -0.00177406 0)
(-1.13678e-09 -0.00177405 0)
(-8.40749e-09 -0.00177404 0)
(-8.27403e-09 -0.00177406 0)
(1.26358e-09 -0.00177406 0)
(-1.27273e-09 -0.00177406 0)
(-1.32232e-09 -0.00177405 0)
(-8.04692e-09 -0.00177404 0)
(-7.84603e-09 -0.00177406 0)
(1.22627e-09 -0.00177406 0)
(-1.53699e-09 -0.00177406 0)
(-1.50546e-09 -0.00177405 0)
(-7.67189e-09 -0.00177404 0)
(-7.40363e-09 -0.00177406 0)
(1.18487e-09 -0.00177406 0)
(-1.79852e-09 -0.00177406 0)
(-1.68439e-09 -0.00177405 0)
(-7.28488e-09 -0.00177404 0)
(-6.95007e-09 -0.00177406 0)
(1.13932e-09 -0.00177406 0)
(-2.05505e-09 -0.00177406 0)
(-1.85739e-09 -0.00177405 0)
(-6.88835e-09 -0.00177404 0)
(-6.4885e-09 -0.00177406 0)
(1.08958e-09 -0.00177406 0)
(-2.30446e-09 -0.00177406 0)
(-2.02288e-09 -0.00177405 0)
(-6.4847e-09 -0.00177404 0)
(-6.02198e-09 -0.00177406 0)
(1.03567e-09 -0.00177406 0)
(-2.54475e-09 -0.00177406 0)
(-2.17942e-09 -0.00177405 0)
(-6.07625e-09 -0.00177404 0)
(-5.55347e-09 -0.00177406 0)
(9.77637e-10 -0.00177406 0)
(-2.77411e-09 -0.00177406 0)
(-2.32572e-09 -0.00177405 0)
(-5.66524e-09 -0.00177404 0)
(-5.08577e-09 -0.00177406 0)
(9.15585e-10 -0.00177406 0)
(-2.99091e-09 -0.00177406 0)
(-2.46065e-09 -0.00177405 0)
(-5.25379e-09 -0.00177404 0)
(-4.62155e-09 -0.00177406 0)
(8.49647e-10 -0.00177406 0)
(-3.19368e-09 -0.00177406 0)
(-2.58326e-09 -0.00177405 0)
(-4.84394e-09 -0.00177404 0)
(-4.16328e-09 -0.00177406 0)
(7.80003e-10 -0.00177406 0)
(-3.38117e-09 -0.00177406 0)
(-2.69276e-09 -0.00177405 0)
(-4.43758e-09 -0.00177404 0)
(-3.71328e-09 -0.00177406 0)
(7.06874e-10 -0.00177406 0)
(-3.55236e-09 -0.00177406 0)
(-2.78856e-09 -0.00177405 0)
(-4.03646e-09 -0.00177404 0)
(-3.27362e-09 -0.00177406 0)
(6.30518e-10 -0.00177406 0)
(-3.70641e-09 -0.00177406 0)
(-2.87024e-09 -0.00177405 0)
(-3.64219e-09 -0.00177404 0)
(-2.8462e-09 -0.00177406 0)
(5.51232e-10 -0.00177406 0)
(-3.84272e-09 -0.00177406 0)
(-2.93757e-09 -0.00177405 0)
(-3.25624e-09 -0.00177404 0)
(-2.43267e-09 -0.00177406 0)
(4.69345e-10 -0.00177406 0)
(-3.96091e-09 -0.00177406 0)
(-2.9905e-09 -0.00177405 0)
(-2.87988e-09 -0.00177404 0)
(-2.03445e-09 -0.00177406 0)
(3.85219e-10 -0.00177406 0)
(-4.06083e-09 -0.00177406 0)
(-3.02919e-09 -0.00177405 0)
(-2.51425e-09 -0.00177404 0)
(-1.65273e-09 -0.00177406 0)
(2.99241e-10 -0.00177406 0)
(-4.14252e-09 -0.00177406 0)
(-3.05393e-09 -0.00177405 0)
(-2.1603e-09 -0.00177404 0)
(-1.28846e-09 -0.00177406 0)
(2.11824e-10 -0.00177406 0)
(-4.20627e-09 -0.00177406 0)
(-3.06521e-09 -0.00177405 0)
(-1.81882e-09 -0.00177404 0)
(-9.42369e-10 -0.00177406 0)
(1.23396e-10 -0.00177406 0)
(-4.25257e-09 -0.00177406 0)
(-3.06368e-09 -0.00177405 0)
(-1.49044e-09 -0.00177404 0)
(-6.14924e-10 -0.00177406 0)
(3.44021e-11 -0.00177406 0)
(-4.28209e-09 -0.00177406 0)
(-3.05015e-09 -0.00177405 0)
(-1.17559e-09 -0.00177404 0)
(-3.06385e-10 -0.00177406 0)
(-5.47045e-11 -0.00177406 0)
(-4.29571e-09 -0.00177406 0)
(-3.02556e-09 -0.00177405 0)
(-8.74574e-10 -0.00177404 0)
(-1.67869e-11 -0.00177406 0)
(-1.43468e-10 -0.00177406 0)
(-4.29433e-09 -0.00177406 0)
(-2.99081e-09 -0.00177405 0)
(-5.87534e-10 -0.00177404 0)
(2.54046e-10 -0.00177406 0)
(-2.31439e-10 -0.00177406 0)
(-4.27912e-09 -0.00177405 0)
(-2.94706e-09 -0.00177405 0)
(-3.14475e-10 -0.00177404 0)
(5.06494e-10 -0.00177406 0)
(-3.18162e-10 -0.00177406 0)
(-4.25142e-09 -0.00177405 0)
(-2.89554e-09 -0.00177405 0)
)
;

boundaryField
{
    BotWall
    {
        type            fixedValue;
        value           nonuniform 0();
    }
    FreeStream
    {
        type            zeroGradient;
    }
    FrontNBack
    {
        type            empty;
    }
    LeftSide
    {
        type            symmetryPlane;
    }
    RightSide
    {
        type            symmetryPlane;
    }
    procBoundary2to1
    {
        type            processor;
        value           nonuniform List<vector> 5((-9.37731e-09 -0.00177405 0) (-9.43877e-09 -0.00177406 0) (1.35222e-09 -0.00177406 0) (-4.87952e-10 -0.00177406 0) (-7.66368e-10 -0.00177405 0));
    }
    procBoundary2to3
    {
        type            processor;
        value           nonuniform List<vector> 5((-5.52528e-11 -0.00177404 0) (7.41091e-10 -0.00177406 0) (-4.0321e-10 -0.00177406 0) (-4.21277e-09 -0.00177405 0) (-2.83767e-09 -0.00177405 0));
    }
}


// ************************************************************************* //
