/*--------------------------------*- C++ -*----------------------------------*\
| =========                 |                                                 |
| \\      /  F ield         | OpenFOAM: The Open Source CFD Toolbox           |
|  \\    /   O peration     | Version:  2.4.0                                 |
|   \\  /    A nd           | Web:      www.OpenFOAM.org                      |
|    \\/     M anipulation  |                                                 |
\*---------------------------------------------------------------------------*/
FoamFile
{
    version     2.0;
    format      ascii;
    class       volScalarField;
    location    "2.7";
    object      H;
}
// * * * * * * * * * * * * * * * * * * * * * * * * * * * * * * * * * * * * * //

dimensions      [0 2 -2 0 0 0 0];

internalField   nonuniform List<scalar> 
8000
(
-12014.3
-11582.7
-11150.5
-10717.3
-10282.8
-9846.54
-9408.28
-8967.68
-8524.53
-8078.69
-7630.14
-7179.01
-6725.57
-6270.24
-5813.6
-5356.4
-4899.49
-4443.85
-3990.55
-3540.7
-3095.44
-2655.97
-2223.52
-1799.39
-1384.87
-980.684
-586.57
-202.371
-2.7476
-2.60031
-2.18448
-2.20125
-2.21249
-2.21203
-2.20279
-2.18717
-2.16717
-2.14439
-2.12009
-2.09523
-2.07052
-2.04645
-2.02335
-2.00138
-1.98063
-1.9611
-1.94271
-1.92538
-1.90896
-1.89332
-12010
-11569.5
-11127.5
-10683.2
-10236
-9785.36
-9330.83
-8872.09
-8408.94
-7941.35
-7469.44
-6993.55
-6514.2
-6032.08
-5548.13
-5063.42
-4579.19
-4096.81
-3617.73
-3143.44
-2675.38
-2214.93
-1763.21
-1320.73
-885.669
-449.137
-4.258
-0.0923452
-0.36641
-0.60203
-0.849805
-1.05912
-1.22134
-1.34346
-1.43335
-1.49825
-1.54415
-1.5758
-1.59684
-1.61001
-1.61736
-1.62043
-1.62037
-1.61802
-1.61402
-1.60883
-1.60278
-1.59611
-1.58897
-1.58145
-12003.4
-11549.5
-11093.3
-10633.7
-10169.9
-9701.03
-9226.54
-8746.04
-8259.33
-7766.42
-7267.57
-6763.27
-6254.27
-5741.59
-5226.45
-4710.31
-4194.79
-3681.63
-3172.63
-2669.63
-2174.46
-1688.86
-1214.66
-754.161
-317.258
-3.22818
-0.0794137
-0.209387
-0.334859
-0.472276
-0.602199
-0.717665
-0.81919
-0.907859
-0.984865
-1.05137
-1.10845
-1.15708
-1.19817
-1.23254
-1.26096
-1.28414
-1.30274
-1.31736
-1.32855
-1.3368
-1.34253
-1.34612
-1.34789
-1.3481
-11995.1
-11524.3
-11050.8
-10573.1
-10089.9
-9600.17
-9102.97
-8597.75
-8084.22
-7562.38
-7032.58
-6495.51
-5952.23
-5404.09
-4852.77
-4300.14
-3748.25
-3199.24
-2655.46
-2119.51
-1594.49
-1081.59
-576.597
-56.3505
-0.789967
-1.23288
-1.17787
-1.10454
-1.11602
-1.11153
-1.09955
-1.08656
-1.07666
-1.07179
-1.07236
-1.07786
-1.08733
-1.09965
-1.11372
-1.12858
-1.14345
-1.15774
-1.17102
-1.18303
-1.19362
-1.20273
-1.21037
-1.21656
-1.2214
-1.22496
-11984.5
-11492.1
-10996
-10494
-9984.12
-9464.96
-8935.29
-8394.36
-7841.85
-7277.98
-6703.48
-6119.6
-5528.11
-4931.14
-4331.14
-3730.62
-3132.14
-2538.3
-1952.67
-1379.02
-825.839
-284.781
-3.07832
-0.0912805
-0.193063
-0.284468
-0.395446
-0.489043
-0.572741
-0.646399
-0.711795
-0.770793
-0.824268
-0.87284
-0.917049
-0.957303
-0.993946
-1.02729
-1.0576
-1.08513
-1.11011
-1.13274
-1.15321
-1.17169
-1.18832
-1.20325
-1.21658
-1.22844
-1.23892
-1.24811
-11969.2
-11445.2
-10915.1
-10375.6
-9823.93
-9258.23
-8677.13
-8080.09
-7467.43
-6840.35
-6200.87
-5551.72
-4896.14
-4237.59
-3579.5
-2924.95
-2277.35
-1639.73
-1025.97
-414.024
-4.09582
-0.112952
-0.189244
-0.251218
-0.336819
-0.418203
-0.496912
-0.571438
-0.642238
-0.709235
-0.772488
-0.832128
-0.888327
-0.941294
-0.99126
-1.03852
-1.08339
-1.12586
-1.16594
-1.20368
-1.23915
-1.27242
-1.30359
-1.33275
-1.35999
-1.38541
-1.40911
-1.43117
-1.45168
-1.47071
-11943.6
-11366.9
-10780.1
-10178.3
-9557.81
-8916.3
-8252.83
-7567.94
-6863.76
-6143.84
-5413.06
-4677
-3941.48
-3211.87
-2491.83
-1782.59
-1089.88
-367.118
-3.63275
-0.112901
-0.213058
-0.326592
-0.421372
-0.533335
-0.635274
-0.729616
-0.816966
-0.898928
-0.976641
-1.05066
-1.12138
-1.18907
-1.25399
-1.3164
-1.37652
-1.43395
-1.48846
-1.54023
-1.58945
-1.63628
-1.68087
-1.72336
-1.76387
-1.80253
-1.83945
-1.87471
-1.90839
-1.94058
-1.97134
-2.0007
-11901.3
-11237.8
-10558.2
-9855.35
-9124.42
-8363.34
-7572.63
-6755.55
-5918.13
-5068.95
-4218.82
-3378.89
-2558.2
-1770.47
-1010.01
-243.436
-2.57999
-0.139877
-0.28164
-0.428808
-0.516984
-0.643202
-0.779187
-0.914933
-1.04469
-1.16764
-1.28353
-1.39254
-1.49527
-1.59237
-1.68442
-1.77188
-1.85508
-1.93431
-2.00986
-2.08203
-2.15098
-2.21691
-2.28003
-2.34054
-2.39866
-2.45456
-2.50841
-2.56034
-2.61048
-2.65891
-2.70572
-2.75095
-2.79464
-2.83682
-11836.8
-11041.9
-10224.4
-9374.63
-8486.83
-7559.66
-6596.24
-5604.27
-4596.04
-3589.13
-2609.25
-1684.87
-709.968
-41.132
-0.541707
-0.150279
-0.339279
-0.459506
-0.610006
-0.7536
-0.892762
-1.02705
-1.16885
-1.32008
-1.47396
-1.62621
-1.77416
-1.9163
-2.05193
-2.18086
-2.30316
-2.41906
-2.52882
-2.63277
-2.73117
-2.82483
-2.91454
-3.00096
-3.0845
-3.16518
-3.24305
-3.3182
-3.39074
-3.46074
-3.52831
-3.5935
-3.65638
-3.71699
-3.77535
-3.8315
-11750.6
-10780.1
-9778.59
-8732.52
-7634.39
-6483.83
-5288.45
-4065.02
-2827.59
-1567.99
-344.991
-3.39783
-0.230846
-0.0587814
-0.313759
-0.486268
-0.66442
-0.836413
-0.9958
-1.14527
-1.29208
-1.44297
-1.59978
-1.76193
-1.9272
-2.09321
-2.25786
-2.4195
-2.57687
-2.72912
-2.87569
-3.01629
-3.15082
-3.27932
-3.40194
-3.51891
-3.63049
-3.73696
-3.83873
-3.93654
-4.0306
-4.12097
-4.20772
-4.29092
-4.37063
-4.44693
-4.51987
-4.58952
-4.65594
-4.71917
-11626
-10400.6
-9129.77
-7795.46
-6391.33
-4926.4
-3425.68
-1920.65
-587.092
-9.2871
-1.03543
-1.32766
-1.09111
-1.09402
-1.15079
-1.23103
-1.3262
-1.43806
-1.56722
-1.70638
-1.85361
-2.00757
-2.16663
-2.32919
-2.49355
-2.658
-2.82099
-2.98124
-3.13772
-3.2897
-3.4367
-3.57843
-3.71473
-3.84557
-3.97097
-4.09103
-4.20583
-4.3155
-4.42001
-4.51931
-4.61373
-4.70368
-4.78943
-4.87124
-4.94927
-5.02367
-5.0945
-5.16184
-5.2257
-5.2861
-11453.2
-9879.69
-8256.6
-6574.2
-4846.24
-3109.7
-1408.88
-22.5545
-2.67412
-2.85045
-2.42433
-2.25133
-2.11201
-2.02259
-1.97278
-1.96446
-1.99117
-2.04508
-2.12025
-2.21168
-2.31562
-2.42922
-2.55024
-2.67678
-2.80723
-2.94018
-3.0744
-3.20884
-3.34264
-3.47514
-3.60584
-3.73438
-3.86056
-3.98431
-4.10566
-4.22468
-4.34123
-4.45496
-4.5659
-4.67404
-4.77932
-4.88162
-4.98077
-5.07653
-5.16863
-5.25676
-5.34061
-5.41986
-5.49419
-5.56332
-11276.4
-9360.82
-7430.26
-5500.12
-3600.55
-1745.5
-40.3508
-27.1014
-22.1356
-17.9581
-14.4722
-11.6201
-9.41735
-7.8783
-6.78813
-6.00009
-5.41851
-4.98116
-4.64797
-4.3921
-4.19525
-4.04478
-3.93182
-3.85007
-3.79491
-3.7629
-3.75138
-3.75823
-3.7817
-3.82037
-3.87312
-3.93909
-4.01778
-4.10913
-4.2136
-4.3287
-4.45213
-4.58171
-4.71539
-4.85121
-4.98735
-5.12207
-5.25376
-5.38092
-5.50221
-5.61642
-5.72245
-5.81938
-5.90639
-5.98286
-11140.1
-8952.59
-6748.96
-4536.98
-2341.7
-24.9173
-18.4016
-17.7299
-17.0014
-16.1612
-15.2632
-14.3483
-13.4631
-12.6432
-11.8951
-11.2161
-10.6011
-10.0484
-9.54968
-9.09864
-8.68998
-8.31932
-7.98316
-7.67886
-7.40451
-7.15872
-6.94043
-6.7488
-6.58313
-6.44279
-6.32722
-6.23597
-6.16875
-6.12564
-6.10388
-6.10215
-6.1187
-6.15128
-6.19724
-6.25363
-6.31717
-6.38449
-6.45226
-6.51738
-6.57706
-6.62886
-6.67076
-6.7011
-6.71857
-6.7223
-11126
-8921.71
-6730.9
-4567.62
-2448.95
-31.3041
-22.8244
-21.4853
-20.0055
-18.7188
-17.624
-16.6896
-15.8875
-15.1947
-14.5891
-14.0555
-13.5752
-13.124
-12.6928
-12.2858
-11.9052
-11.5487
-11.2143
-10.902
-10.6121
-10.3451
-10.1011
-9.87986
-9.68072
-9.50249
-9.34334
-9.20062
-9.07079
-8.94928
-8.83362
-8.72189
-8.61184
-8.50095
-8.38678
-8.26706
-8.14076
-8.00725
-7.86614
-7.71722
-7.56042
-7.39579
-7.22331
-7.04311
-6.85575
-6.66236
-11138.5
-8959.24
-6792.14
-4648.18
-2537.35
-33.1084
-25.5315
-21.877
-17.7451
-15.3782
-13.6761
-12.523
-11.7444
-11.2301
-10.8729
-10.6167
-10.4198
-10.256
-10.1065
-9.95987
-9.80905
-9.65005
-9.48022
-9.29764
-9.10122
-8.89102
-8.66818
-8.43483
-8.19404
-7.94953
-7.70462
-7.46164
-7.22197
-6.98636
-6.75537
-6.53036
-6.31019
-6.08892
-5.86669
-5.64444
-5.42218
-5.20023
-4.97893
-4.75874
-4.54
-4.32304
-4.10813
-3.89554
-3.68541
-3.47679
-11196
-9155.88
-7190.92
-5343
-3641.45
-2051.7
-33.451
-1.86134
-2.66152
-4.21278
-4.47206
-4.80184
-5.21877
-5.80686
-6.31502
-6.70447
-7.00781
-7.26183
-7.4829
-7.67407
-7.8292
-7.93748
-7.98653
-7.96317
-7.85154
-7.63836
-7.31642
-6.87262
-6.35377
-5.81916
-5.30991
-4.84711
-4.43812
-4.08208
-3.77365
-3.5056
-3.27023
-3.05992
-2.86825
-2.69038
-2.52246
-2.36143
-2.20504
-2.05181
-1.90124
-1.75339
-1.60881
-1.46845
-1.33275
-1.202
-11375.6
-9691.55
-8072.8
-6543.82
-5117.97
-3802.34
-2598.78
-1514.97
-630.928
-9.63054
-1.81991
-0.982914
-0.42597
-2.44529
-3.55859
-4.12039
-4.44774
-4.72679
-5.03534
-5.41527
-5.89558
-6.4872
-7.19779
-8.04653
-9.06076
-10.2157
-11.6601
-11.2474
-9.5915
-7.6268
-5.81977
-4.33814
-3.21433
-2.41784
-1.88552
-1.54225
-1.31899
-1.16838
-1.06125
-0.979863
-0.912781
-0.852255
-0.793094
-0.732089
-0.667672
-0.599752
-0.529266
-0.45745
-0.384842
-0.312146
-11468.9
-9964.37
-8509.86
-7133.1
-5856.08
-4694.67
-3658.77
-2753.26
-1979.76
-1337.53
-822.361
-427.701
-155.736
-2.34194
-0.741155
-0.579514
-0.465168
-0.37672
-0.30734
-0.249181
-0.197343
-0.149712
-0.102797
-0.0535255
-0.00486048
-0.180917
-15.01
-19.6622
-17.2297
-13.1866
-9.35197
-6.14451
-3.66629
-1.94266
-0.927851
-0.490657
-0.320089
-0.249858
-0.216383
-0.19723
-0.184073
-0.172783
-0.160387
-0.144776
-0.126284
-0.105732
-0.0828766
-0.0567444
-0.0266227
0.00768679
-11508.2
-10079.1
-8693.27
-7377.67
-6155.84
-5046.57
-4062.85
-3211.69
-2493.67
-1903.95
-1432.76
-1066.58
-789.622
-585.336
-437.426
-331.15
-254.651
-198.438
-155.722
-121.216
-92.1893
-67.0891
-43.8799
-21.6081
-0.71062
-0.476829
-0.903447
-43.3108
-44.3215
-35.5759
-26.1984
-17.8212
-10.7881
-5.32417
-1.62414
-0.488268
-0.229443
-0.151696
-0.113605
-0.0866847
-0.0666989
-0.0549402
-0.0551209
-0.0495501
-0.0373886
-0.022596
-0.0100846
-0.000487527
0.00387996
0.0412083
-1.8783
-1.86376
-1.84954
-1.83552
-1.82156
-1.80756
-1.79343
-1.77908
-1.76445
-1.7495
-1.73418
-1.71846
-1.70235
-1.68582
-1.66888
-1.65153
-1.6338
-1.6157
-1.59725
-1.57846
-1.55937
-1.54
-1.52036
-1.50049
-1.48041
-1.46014
-1.4397
-1.41911
-1.3984
-1.37758
-1.35667
-1.3357
-1.31467
-1.29361
-1.27252
-1.25144
-1.23036
-1.20931
-1.1883
-1.16734
-1.14644
-1.12561
-1.10488
-1.08424
-1.06371
-1.04329
-1.02301
-1.00286
-0.982848
-0.962992
-1.57361
-1.56547
-1.55703
-1.54828
-1.53918
-1.52972
-1.51987
-1.50959
-1.49888
-1.48772
-1.4761
-1.46402
-1.45147
-1.43848
-1.42504
-1.41119
-1.39693
-1.38229
-1.36729
-1.35195
-1.33631
-1.32037
-1.30418
-1.28774
-1.27109
-1.25424
-1.23722
-1.22005
-1.20275
-1.18534
-1.16783
-1.15024
-1.13259
-1.11489
-1.09717
-1.07942
-1.06167
-1.04394
-1.02622
-1.00854
-0.990897
-0.973314
-0.955796
-0.938353
-0.920995
-0.903729
-0.886565
-0.869509
-0.85257
-0.835754
-1.34697
-1.34468
-1.34137
-1.33715
-1.3321
-1.32631
-1.31983
-1.31269
-1.30495
-1.29663
-1.28777
-1.27838
-1.2685
-1.25815
-1.24737
-1.23616
-1.22456
-1.21259
-1.20028
-1.18764
-1.17471
-1.16151
-1.14805
-1.13436
-1.12046
-1.10637
-1.0921
-1.07769
-1.06313
-1.04846
-1.03368
-1.01881
-1.00387
-0.988874
-0.973827
-0.958746
-0.943644
-0.928532
-0.913421
-0.898323
-0.883248
-0.868206
-0.853207
-0.838259
-0.823371
-0.808553
-0.793812
-0.779155
-0.764591
-0.750127
-1.22732
-1.22859
-1.22882
-1.22811
-1.22652
-1.22411
-1.22093
-1.21704
-1.21248
-1.20728
-1.2015
-1.19515
-1.18828
-1.18091
-1.17307
-1.16479
-1.15609
-1.147
-1.13753
-1.12772
-1.11757
-1.10712
-1.09637
-1.08535
-1.07408
-1.06257
-1.05084
-1.0389
-1.02677
-1.01447
-1.002
-0.989393
-0.976648
-0.963783
-0.950812
-0.937748
-0.924602
-0.911388
-0.898118
-0.884803
-0.871455
-0.858086
-0.844707
-0.831329
-0.817964
-0.80462
-0.79131
-0.778043
-0.764828
-0.751675
-1.25608
-1.26291
-1.26866
-1.2734
-1.27717
-1.28003
-1.28203
-1.2832
-1.28359
-1.28324
-1.28218
-1.28044
-1.27806
-1.27506
-1.27146
-1.26729
-1.26257
-1.25733
-1.25158
-1.24534
-1.23863
-1.23147
-1.22387
-1.21585
-1.20743
-1.19862
-1.18943
-1.17989
-1.17
-1.15979
-1.14926
-1.13844
-1.12734
-1.11597
-1.10435
-1.09251
-1.08044
-1.06818
-1.05573
-1.04311
-1.03034
-1.01745
-1.00443
-0.991314
-0.978117
-0.964855
-0.951543
-0.938199
-0.924838
-0.911476
-1.48834
-1.50464
-1.51967
-1.53348
-1.54613
-1.55766
-1.56813
-1.57756
-1.58599
-1.59345
-1.59997
-1.60557
-1.61028
-1.61412
-1.61709
-1.61922
-1.62053
-1.62102
-1.62072
-1.61963
-1.61777
-1.61515
-1.61178
-1.60769
-1.60288
-1.59737
-1.59118
-1.58433
-1.57683
-1.5687
-1.55997
-1.55065
-1.54077
-1.53036
-1.51943
-1.50801
-1.49612
-1.4838
-1.47107
-1.45795
-1.44448
-1.43068
-1.41658
-1.40222
-1.38762
-1.3728
-1.35781
-1.34267
-1.32739
-1.31202
-2.02873
-2.05544
-2.08088
-2.10506
-2.12801
-2.14972
-2.17022
-2.1895
-2.20758
-2.22444
-2.24009
-2.25453
-2.26775
-2.27975
-2.29052
-2.30008
-2.3084
-2.3155
-2.32138
-2.32603
-2.32947
-2.3317
-2.33273
-2.33257
-2.33123
-2.32874
-2.32511
-2.32037
-2.31453
-2.30763
-2.2997
-2.29077
-2.28087
-2.27004
-2.25833
-2.24576
-2.23238
-2.21824
-2.20339
-2.18786
-2.17171
-2.15499
-2.13775
-2.12004
-2.10192
-2.08344
-2.06466
-2.04564
-2.02642
-2.00705
-2.87751
-2.9167
-2.9544
-2.99059
-3.02526
-3.05838
-3.08995
-3.11993
-3.1483
-3.17503
-3.20012
-3.22352
-3.24523
-3.26522
-3.28348
-3.3
-3.31476
-3.32776
-3.339
-3.34847
-3.35618
-3.36214
-3.36635
-3.36883
-3.3696
-3.36869
-3.36611
-3.36189
-3.35608
-3.34871
-3.33981
-3.32945
-3.31766
-3.3045
-3.29003
-3.27429
-3.25736
-3.23929
-3.22013
-3.19997
-3.17888
-3.15696
-3.13427
-3.1109
-3.08693
-3.06245
-3.03759
-3.01245
-2.98716
-2.9618
-3.88545
-3.93719
-3.98673
-4.03405
-4.07915
-4.12202
-4.16264
-4.201
-4.23708
-4.27088
-4.30239
-4.33159
-4.35849
-4.38308
-4.40537
-4.42536
-4.44306
-4.45848
-4.47164
-4.48255
-4.49125
-4.49776
-4.5021
-4.50431
-4.50443
-4.50249
-4.49853
-4.4926
-4.48474
-4.475
-4.46345
-4.45014
-4.43513
-4.41848
-4.40026
-4.38054
-4.35941
-4.33689
-4.31307
-4.28802
-4.26186
-4.23468
-4.2066
-4.17772
-4.14816
-4.11792
-4.0871
-4.05578
-4.02416
-3.99245
-4.77926
-4.83624
-4.89016
-4.94104
-4.98891
-5.03379
-5.0757
-5.11468
-5.15074
-5.1839
-5.21418
-5.24162
-5.26623
-5.28805
-5.30712
-5.32348
-5.33717
-5.34822
-5.3567
-5.36264
-5.36611
-5.36714
-5.36581
-5.36217
-5.35627
-5.34816
-5.33789
-5.32548
-5.31107
-5.29473
-5.27653
-5.25654
-5.23485
-5.21154
-5.18669
-5.1604
-5.13274
-5.10375
-5.07362
-5.04237
-5.01011
-4.97694
-4.94307
-4.9085
-4.873
-4.83705
-4.80074
-4.76413
-4.72732
-4.69103
-5.34302
-5.39645
-5.44636
-5.49274
-5.53557
-5.57483
-5.61052
-5.64266
-5.67126
-5.69638
-5.71789
-5.73585
-5.75032
-5.76139
-5.76915
-5.77369
-5.7751
-5.77348
-5.76892
-5.76153
-5.75141
-5.73868
-5.72342
-5.70579
-5.68579
-5.6636
-5.63929
-5.61288
-5.58436
-5.55394
-5.52171
-5.48782
-5.45225
-5.41514
-5.3767
-5.33702
-5.2962
-5.25395
-5.21076
-5.16679
-5.12204
-5.07673
-5.03112
-4.98455
-4.93723
-4.88964
-4.84207
-4.7947
-4.74768
-4.70127
-5.62698
-5.68496
-5.73707
-5.7832
-5.82326
-5.85723
-5.88514
-5.90705
-5.92308
-5.9334
-5.9382
-5.93767
-5.93206
-5.92162
-5.90658
-5.88722
-5.86393
-5.83661
-5.80567
-5.7715
-5.73431
-5.6943
-5.65169
-5.60676
-5.55976
-5.51093
-5.46043
-5.40857
-5.35524
-5.30029
-5.24374
-5.186
-5.12746
-5.0682
-5.00856
-4.94821
-4.88751
-4.82638
-4.76508
-4.70402
-4.64325
-4.5831
-4.52295
-4.46355
-4.40455
-4.34608
-4.28848
-4.232
-4.17677
-4.12292
-6.04831
-6.10244
-6.14511
-6.17635
-6.19628
-6.20515
-6.20331
-6.1912
-6.16937
-6.13843
-6.09905
-6.05177
-5.99717
-5.93617
-5.86955
-5.79803
-5.72258
-5.64306
-5.55998
-5.47419
-5.38646
-5.29611
-5.20359
-5.10982
-5.01535
-4.92062
-4.82611
-4.73215
-4.63906
-4.54724
-4.45595
-4.36474
-4.27442
-4.18579
-4.0988
-4.01356
-3.93042
-3.84874
-3.76852
-3.68997
-3.61391
-3.54046
-3.46974
-3.40211
-3.33723
-3.27479
-3.21496
-3.15789
-3.10407
-3.05343
-6.71178
-6.68678
-6.64725
-6.59339
-6.52584
-6.44416
-6.34993
-6.24463
-6.12959
-6.00604
-5.87551
-5.73736
-5.59293
-5.44452
-5.29399
-5.14266
-4.99149
-4.84061
-4.69104
-4.54333
-4.39795
-4.25289
-4.10876
-3.96649
-3.82672
-3.69001
-3.55699
-3.42819
-3.30401
-3.18495
-3.07068
-2.9607
-2.85502
-2.75335
-2.65618
-2.56336
-2.4748
-2.39043
-2.3097
-2.23274
-2.15941
-2.0902
-2.02528
-1.96441
-1.90746
-1.85407
-1.80445
-1.75842
-1.71627
-1.67817
-6.46336
-6.2593
-6.04847
-5.83232
-5.61107
-5.38646
-5.15997
-4.93402
-4.71075
-4.49075
-4.27335
-4.05954
-3.85003
-3.64676
-3.45112
-3.26361
-3.08469
-2.91455
-2.75316
-2.60032
-2.4549
-2.31671
-2.18481
-2.05909
-1.93978
-1.82687
-1.72038
-1.62028
-1.52651
-1.43906
-1.35743
-1.28127
-1.21021
-1.14383
-1.08215
-1.025
-0.972037
-0.922951
-0.877226
-0.834964
-0.795877
-0.759875
-0.72681
-0.696459
-0.668862
-0.643798
-0.621259
-0.601262
-0.583754
-0.56878
-3.27162
-3.06955
-2.87256
-2.67907
-2.49169
-2.31162
-2.13949
-1.97562
-1.81999
-1.67204
-1.53249
-1.40102
-1.2777
-1.1624
-1.05483
-0.954903
-0.862388
-0.776811
-0.697754
-0.624386
-0.557071
-0.495443
-0.438984
-0.387356
-0.340351
-0.297808
-0.259448
-0.224979
-0.194026
-0.166463
-0.142053
-0.120703
-0.102173
-0.0863106
-0.0729884
-0.0620124
-0.0531975
-0.0463909
-0.0414598
-0.0382822
-0.0367311
-0.0366829
-0.0380426
-0.0407065
-0.0446062
-0.0496685
-0.0557954
-0.0628598
-0.0707452
-0.079281
-1.07566
-0.95449
-0.838887
-0.729212
-0.625883
-0.529061
-0.438951
-0.3553
-0.277828
-0.206348
-0.141234
-0.082046
-0.0283279
0.0203302
0.0641917
0.10357
0.138697
0.169831
0.197179
0.220867
0.241054
0.257826
0.27138
0.281887
0.289496
0.294307
0.296587
0.296518
0.294205
0.289855
0.283565
0.275456
0.26563
0.254218
0.24135
0.227154
0.211713
0.195122
0.177497
0.158906
0.139431
0.119154
0.0981612
0.0765675
0.0544688
0.0319462
0.00909368
-0.0140178
-0.0372021
-0.060319
-0.240498
-0.170748
-0.103668
-0.0398003
0.0205222
0.0770999
0.129807
0.178616
0.223529
0.264577
0.301759
0.335082
0.364633
0.390449
0.412584
0.431059
0.445991
0.457527
0.465741
0.470721
0.472574
0.471398
0.467356
0.460619
0.451336
0.439705
0.425892
0.410062
0.392378
0.372991
0.352069
0.329736
0.306109
0.281337
0.255522
0.228766
0.201163
0.17279
0.143726
0.114132
0.0840824
0.0536305
0.0228618
-0.00814076
-0.0392948
-0.070522
-0.10178
-0.132979
-0.164124
-0.195118
0.0451878
0.0849002
0.125975
0.167719
0.209518
0.250797
0.291006
0.329624
0.366171
0.400226
0.431383
0.45928
0.483796
0.504671
0.5217
0.534822
0.544165
0.549742
0.551615
0.549923
0.544837
0.536508
0.525166
0.510986
0.494234
0.475105
0.453836
0.430761
0.406057
0.379874
0.352352
0.323631
0.293843
0.26311
0.231559
0.199307
0.166497
0.133221
0.0996094
0.065769
0.0317628
-0.00237021
-0.0365868
-0.0708228
-0.105013
-0.139077
-0.172935
-0.20653
-0.23986
-0.272876
0.0771622
0.113094
0.150069
0.189412
0.230562
0.272802
0.315331
0.357272
0.397775
0.436077
0.471501
0.503465
0.531627
0.555574
0.57498
0.589836
0.600183
0.606016
0.6075
0.604878
0.598375
0.588118
0.574543
0.557886
0.538779
0.517555
0.494469
0.469786
0.443733
0.416505
0.388288
0.359242
0.329469
0.299115
0.26838
0.237252
0.205804
0.174165
0.142398
0.110515
0.0784629
0.0462996
0.0140494
-0.0182688
-0.0504637
-0.0825452
-0.114479
-0.146182
-0.177682
-0.209075
-0.947767
-0.937161
-0.926548
-0.915931
-0.90531
-0.894688
-0.884067
-0.873448
-0.862832
-0.852223
-0.841621
-0.831028
-0.820447
-0.809879
-0.799326
-0.788791
-0.778275
-0.76778
-0.757309
-0.746863
-0.736445
-0.726056
-0.715698
-0.705374
-0.695086
-0.684835
-0.674624
-0.664455
-0.654329
-0.644249
-0.634216
-0.624233
-0.614302
-0.604424
-0.594601
-0.584835
-0.575128
-0.565481
-0.555897
-0.546377
-0.536923
-0.527537
-0.518219
-0.508972
-0.499797
-0.490696
-0.48167
-0.47272
-0.463848
-0.455056
-0.446343
-0.437713
-0.429165
-0.420702
-0.412323
-0.404031
-0.395825
-0.387708
-0.37968
-0.371742
-0.363894
-0.356137
-0.348473
-0.340902
-0.333424
-0.326039
-0.31875
-0.311555
-0.304455
-0.297451
-0.290544
-0.283732
-0.277018
-0.2704
-0.263879
-0.257455
-0.251128
-0.244898
-0.238766
-0.232731
-0.226797
-0.220961
-0.215225
-0.209588
-0.204049
-0.198608
-0.193265
-0.18802
-0.182871
-0.177819
-0.172862
-0.168001
-0.163234
-0.158561
-0.153982
-0.149495
-0.145101
-0.140798
-0.136585
-0.132462
-0.128429
-0.124483
-0.120625
-0.116854
-0.113168
-0.109567
-0.10605
-0.102615
-0.099263
-0.0959917
-0.0928004
-0.0896882
-0.086654
-0.0836968
-0.0808155
-0.0780092
-0.0752767
-0.072617
-0.070029
-0.0675115
-0.0650636
-0.0626841
-0.0603719
-0.0581259
-0.0559449
-0.0538278
-0.0517735
-0.0497808
-0.0478486
-0.0459758
-0.0441613
-0.0424038
-0.0407022
-0.0390554
-0.0374623
-0.0359217
-0.0344325
-0.0329935
-0.0316036
-0.0302617
-0.0289666
-0.0277173
-0.0265127
-0.0253516
-0.0242329
-0.0231556
-0.0221186
-0.0211208
-0.0201611
-0.0192386
-0.0183521
-0.0175007
-0.0166833
-0.0158989
-0.0151465
-0.0144252
-0.013734
-0.013072
-0.0124381
-0.0118315
-0.0112513
-0.0106966
-0.0101665
-0.00966015
-0.0091767
-0.00871533
-0.00827524
-0.00785563
-0.00745571
-0.00707475
-0.00671199
-0.00636671
-0.00603821
-0.0057258
-0.00542881
-0.0051466
-0.00487853
-0.00462398
-0.00438237
-0.00415311
-0.00393564
-0.00372943
-0.00353395
-0.00334868
-0.00317315
-0.00300689
-0.00284943
-0.00270034
-0.0025592
-0.00242561
-0.00229917
-0.00217953
-0.00206631
-0.00195918
-0.00185781
-0.00176189
-0.00167113
-0.00158523
-0.00150393
-0.00142698
-0.00135412
-0.00128513
-0.00121978
-0.00115787
-0.0010992
-0.00104359
-0.00099085
-0.000940823
-0.00089335
-0.000848284
-0.000805486
-0.000764826
-0.000726181
-0.000689438
-0.000654488
-0.00062123
-0.000589571
-0.000559423
-0.000530704
-0.000503336
-0.000477249
-0.000452376
-0.000428654
-0.000406026
-0.000384438
-0.000363839
-0.000344182
-0.000325425
-0.000307525
-0.000290445
-0.000274149
-0.000258604
-0.000243778
-0.000229642
-0.000216168
-0.000203331
-0.000191104
-0.000179465
-0.000168391
-0.000157861
-0.000147854
-0.000138352
-0.000129335
-0.000120784
-0.000112683
-0.000105014
-9.77617e-05
-9.09088e-05
-8.44401e-05
-7.83402e-05
-7.25943e-05
-6.71878e-05
-6.21065e-05
-5.73363e-05
-5.28637e-05
-4.86752e-05
-4.47578e-05
-4.10987e-05
-3.76855e-05
-3.4506e-05
-3.15483e-05
-2.88009e-05
-2.62525e-05
-2.38923e-05
-2.17096e-05
-1.96943e-05
-1.78364e-05
-1.61265e-05
-1.45553e-05
-1.31139e-05
-1.1794e-05
-1.05873e-05
-9.48625e-06
-8.48329e-06
-7.57141e-06
-6.74393e-06
-5.99449e-06
-5.31708e-06
-4.70603e-06
-4.15597e-06
-3.66189e-06
-3.21905e-06
-2.82302e-06
-2.46966e-06
-2.15509e-06
-1.87571e-06
-1.62817e-06
-1.40932e-06
-1.21626e-06
-1.04625e-06
-8.96757e-07
-7.65323e-07
-6.49623e-07
-5.47341e-07
-4.56092e-07
-3.73282e-07
-2.95946e-07
-2.20416e-07
-1.41865e-07
-5.36666e-08
-0.822828
-0.813823
-0.804811
-0.795796
-0.786777
-0.777757
-0.768737
-0.759718
-0.750702
-0.74169
-0.732684
-0.723686
-0.714697
-0.705719
-0.696753
-0.687801
-0.678865
-0.669946
-0.661045
-0.652166
-0.643308
-0.634475
-0.625667
-0.616886
-0.608134
-0.599412
-0.590723
-0.582067
-0.573446
-0.564862
-0.556317
-0.547811
-0.539347
-0.530926
-0.522549
-0.514218
-0.505935
-0.4977
-0.489516
-0.481383
-0.473303
-0.465277
-0.457307
-0.449393
-0.441537
-0.433741
-0.426005
-0.41833
-0.410718
-0.40317
-0.395686
-0.388268
-0.380917
-0.373633
-0.366418
-0.359272
-0.352197
-0.345192
-0.338259
-0.331399
-0.324613
-0.3179
-0.311262
-0.304698
-0.298211
-0.2918
-0.285466
-0.279209
-0.27303
-0.266928
-0.260906
-0.254962
-0.249097
-0.243312
-0.237606
-0.23198
-0.226435
-0.220969
-0.215584
-0.210279
-0.205056
-0.199916
-0.194859
-0.189886
-0.184995
-0.180187
-0.175462
-0.170818
-0.166257
-0.161777
-0.157379
-0.153062
-0.148825
-0.144668
-0.140592
-0.136594
-0.132675
-0.128835
-0.125073
-0.121388
-0.11778
-0.114248
-0.110792
-0.10741
-0.104104
-0.10087
-0.0977103
-0.0946226
-0.0916064
-0.0886611
-0.0857859
-0.0829801
-0.0802428
-0.0775732
-0.0749705
-0.0724339
-0.0699624
-0.0675553
-0.0652116
-0.0629304
-0.0607109
-0.0585521
-0.056453
-0.0544128
-0.0524305
-0.0505051
-0.0486357
-0.0468213
-0.0450609
-0.0433535
-0.0416982
-0.040094
-0.0385398
-0.0370348
-0.0355779
-0.0341681
-0.0328044
-0.0314859
-0.0302115
-0.0289803
-0.0277913
-0.0266436
-0.025536
-0.0244678
-0.0234378
-0.0224453
-0.0214891
-0.0205685
-0.0196823
-0.0188298
-0.01801
-0.0172219
-0.0164647
-0.0157375
-0.0150395
-0.0143696
-0.0137271
-0.0131112
-0.0125209
-0.0119555
-0.0114141
-0.010896
-0.0104003
-0.00992626
-0.00947315
-0.00904019
-0.00862665
-0.00823181
-0.00785497
-0.00749542
-0.0071525
-0.00682555
-0.00651391
-0.00621695
-0.00593407
-0.00566465
-0.00540813
-0.00516394
-0.00493151
-0.00471033
-0.00449987
-0.00429963
-0.00410913
-0.0039279
-0.00375549
-0.00359145
-0.00343538
-0.00328687
-0.00314552
-0.00301098
-0.00288287
-0.00276086
-0.00264462
-0.00253383
-0.00242821
-0.00232745
-0.00223131
-0.00213951
-0.00205181
-0.00196799
-0.00188781
-0.00181109
-0.00173762
-0.00166721
-0.0015997
-0.00153492
-0.00147273
-0.00141297
-0.00135552
-0.00130025
-0.00124705
-0.00119581
-0.00114642
-0.00109881
-0.00105287
-0.00100854
-0.000965743
-0.000924406
-0.000884471
-0.000845882
-0.000808587
-0.000772539
-0.000737694
-0.000704012
-0.000671457
-0.000639995
-0.000609597
-0.000580232
-0.000551876
-0.000524504
-0.000498094
-0.000472624
-0.000448074
-0.000424427
-0.000401662
-0.000379764
-0.000358715
-0.000338498
-0.000319098
-0.000300497
-0.000282681
-0.000265632
-0.000249334
-0.00023377
-0.000218924
-0.000204779
-0.000191317
-0.000178521
-0.000166372
-0.000154852
-0.000143944
-0.000133627
-0.000123883
-0.000114692
-0.000106036
-9.78947e-05
-9.02485e-05
-8.3078e-05
-7.63635e-05
-7.00855e-05
-6.42248e-05
-5.8762e-05
-5.36784e-05
-4.8955e-05
-4.45737e-05
-4.05163e-05
-3.67653e-05
-3.33034e-05
-3.01139e-05
-2.71806e-05
-2.44876e-05
-2.20199e-05
-1.97628e-05
-1.77021e-05
-1.58245e-05
-1.41171e-05
-1.25674e-05
-1.11639e-05
-9.8953e-06
-8.75119e-06
-7.72156e-06
-6.79703e-06
-5.96875e-06
-5.22842e-06
-4.56826e-06
-3.98097e-06
-3.45978e-06
-2.99831e-06
-2.59063e-06
-2.23116e-06
-1.91465e-06
-1.63611e-06
-1.39071e-06
-1.17363e-06
-9.79862e-07
-8.03921e-07
-6.39393e-07
-4.78197e-07
-3.09527e-07
-1.18149e-07
-0.73898
-0.731214
-0.723443
-0.715669
-0.707892
-0.700113
-0.692335
-0.684558
-0.676784
-0.669013
-0.661247
-0.653487
-0.645735
-0.637992
-0.630259
-0.622536
-0.614827
-0.60713
-0.599449
-0.591784
-0.584136
-0.576507
-0.568897
-0.561308
-0.553741
-0.546198
-0.538678
-0.531184
-0.523717
-0.516278
-0.508868
-0.501487
-0.494137
-0.48682
-0.479536
-0.472286
-0.465071
-0.457893
-0.450752
-0.443649
-0.436585
-0.429562
-0.42258
-0.41564
-0.408743
-0.40189
-0.395081
-0.388319
-0.381603
-0.374934
-0.368314
-0.361743
-0.355222
-0.348751
-0.342332
-0.335966
-0.329652
-0.323392
-0.317186
-0.311036
-0.304941
-0.298903
-0.292922
-0.286999
-0.281135
-0.275329
-0.269584
-0.263898
-0.258274
-0.252711
-0.24721
-0.241771
-0.236396
-0.231084
-0.225836
-0.220653
-0.215535
-0.210483
-0.205496
-0.200576
-0.195724
-0.190943
-0.186232
-0.181591
-0.177022
-0.172523
-0.168096
-0.16374
-0.159455
-0.155241
-0.151099
-0.147028
-0.143029
-0.139101
-0.135245
-0.13146
-0.127746
-0.124104
-0.120532
-0.117031
-0.113601
-0.110242
-0.106952
-0.103732
-0.100582
-0.0975005
-0.094488
-0.0915436
-0.0886671
-0.0858577
-0.0831151
-0.0804386
-0.0778276
-0.0752815
-0.0727995
-0.070381
-0.0680252
-0.0657314
-0.0634988
-0.0613265
-0.0592137
-0.0571596
-0.0551632
-0.0532236
-0.0513399
-0.0495112
-0.0477364
-0.0460147
-0.0443451
-0.0427265
-0.041158
-0.0396385
-0.0381671
-0.0367428
-0.0353645
-0.0340312
-0.0327419
-0.0314956
-0.0302913
-0.0291281
-0.0280048
-0.0269206
-0.0258745
-0.0248654
-0.0238925
-0.0229548
-0.0220513
-0.0211811
-0.0203433
-0.0195371
-0.0187614
-0.0180154
-0.0172983
-0.0166091
-0.0159471
-0.0153114
-0.0147012
-0.0141156
-0.0135539
-0.0130152
-0.0124989
-0.0120041
-0.01153
-0.0110761
-0.0106414
-0.0102254
-0.00982737
-0.00944654
-0.00908229
-0.00873397
-0.00840094
-0.00808256
-0.00777823
-0.00748736
-0.00720936
-0.00694366
-0.00668971
-0.00644698
-0.00621495
-0.0059931
-0.00578096
-0.00557804
-0.00538389
-0.00519806
-0.00502013
-0.00484969
-0.00468634
-0.00452969
-0.00437939
-0.00423508
-0.00409643
-0.00396313
-0.00383486
-0.00371133
-0.00359228
-0.00347745
-0.00336657
-0.00325943
-0.00315581
-0.00305549
-0.00295828
-0.002864
-0.00277249
-0.00268358
-0.00259714
-0.00251302
-0.0024311
-0.00235127
-0.00227343
-0.00219747
-0.00212332
-0.00205089
-0.00198012
-0.00191095
-0.00184332
-0.00177718
-0.00171249
-0.00164922
-0.00158734
-0.00152682
-0.00146763
-0.00140978
-0.00135323
-0.00129798
-0.00124403
-0.00119136
-0.00113999
-0.00108989
-0.00104109
-0.000993567
-0.000947336
-0.000902396
-0.000858747
-0.000816393
-0.000775333
-0.000735568
-0.000697098
-0.000659919
-0.000624028
-0.000589421
-0.000556091
-0.00052403
-0.000493227
-0.00046367
-0.000435346
-0.000408239
-0.000382332
-0.000357605
-0.000334038
-0.000311606
-0.000290288
-0.000270056
-0.000250883
-0.000232741
-0.000215601
-0.000199431
-0.000184202
-0.000169879
-0.000156432
-0.000143825
-0.000132027
-0.000121003
-0.000110719
-0.000101142
-9.22391e-05
-8.39762e-05
-7.63208e-05
-6.92409e-05
-6.27049e-05
-5.66819e-05
-5.11418e-05
-4.60555e-05
-4.13945e-05
-3.71316e-05
-3.32404e-05
-2.96955e-05
-2.64727e-05
-2.35488e-05
-2.09016e-05
-1.851e-05
-1.63543e-05
-1.44154e-05
-1.26755e-05
-1.11179e-05
-9.7267e-06
-8.48721e-06
-7.3855e-06
-6.40858e-06
-5.54426e-06
-4.78113e-06
-4.10837e-06
-3.51566e-06
-2.99296e-06
-2.53023e-06
-2.11694e-06
-1.74139e-06
-1.38967e-06
-1.04394e-06
-6.79766e-07
-2.61955e-07
-0.741489
-0.734389
-0.72728
-0.720163
-0.71304
-0.705912
-0.698781
-0.691646
-0.68451
-0.677374
-0.670238
-0.663103
-0.65597
-0.648841
-0.641716
-0.634595
-0.627481
-0.620372
-0.613271
-0.606179
-0.599094
-0.59202
-0.584955
-0.577902
-0.57086
-0.56383
-0.556813
-0.54981
-0.542821
-0.535846
-0.528888
-0.521945
-0.515019
-0.50811
-0.50122
-0.494348
-0.487495
-0.480662
-0.47385
-0.467059
-0.460289
-0.453543
-0.446819
-0.440119
-0.433443
-0.426793
-0.420168
-0.41357
-0.406999
-0.400456
-0.393941
-0.387456
-0.381001
-0.374577
-0.368184
-0.361824
-0.355497
-0.349204
-0.342945
-0.336723
-0.330536
-0.324387
-0.318276
-0.312204
-0.306172
-0.300181
-0.294231
-0.288324
-0.282461
-0.276642
-0.270869
-0.265143
-0.259464
-0.253834
-0.248253
-0.242724
-0.237246
-0.231822
-0.226451
-0.221137
-0.215883
-0.210691
-0.205561
-0.200494
-0.195491
-0.190553
-0.185681
-0.180875