/*--------------------------------*- C++ -*----------------------------------*\
| =========                 |                                                 |
| \\      /  F ield         | OpenFOAM: The Open Source CFD Toolbox           |
|  \\    /   O peration     | Version:  2.4.0                                 |
|   \\  /    A nd           | Web:      www.OpenFOAM.org                      |
|    \\/     M anipulation  |                                                 |
\*---------------------------------------------------------------------------*/
FoamFile
{
    version     2.0;
    format      ascii;
    class       volScalarField;
    location    "0.004";
    object      alpha1;
}
// * * * * * * * * * * * * * * * * * * * * * * * * * * * * * * * * * * * * * //

dimensions      [0 0 0 0 0 0 0];

internalField   nonuniform List<scalar> 
125
(
1
1
0.159109
5.45245e-76
2.85082e-82
1.30871e-88
5.91671e-95
2.65312e-101
1.10108e-107
3.93974e-114
1.20865e-120
3.26398e-127
7.30445e-134
1.34682e-140
2.04329e-147
2.60239e-154
3.04597e-161
3.96872e-168
6.20063e-175
9.52266e-182
1.16594e-188
9.82358e-196
4.66013e-203
6.99303e-211
0
0
0
0
0
0
0
0
0
0
0
0
0
0
0
0
0
0
0
0
0
0
0
0
0
0
0
0
0
0
0
0
0
0
0
0
0
0
0
0
0
0
0
0
0
0
0
0
0
0
0
0
0
0
0
0
0
0
0
0
0
0
0
0
0
0
0
0
0
0
0
0
0
0
0
0
0
0
0
0
0
0
0
0
0
0
0
0
0
0
0
0
0
0
0
0
0
0
0
0
0
)
;

boundaryField
{
    BotWall
    {
        type            fixedValue;
        value           uniform 1;
    }
    FreeStream
    {
        type            inletOutlet;
        inletValue      uniform 0;
        value           uniform 0;
    }
    FrontNBack
    {
        type            empty;
    }
    LeftSide
    {
        type            symmetryPlane;
    }
    RightSide
    {
        type            symmetryPlane;
    }
    procBoundary9to6
    {
        type            processor;
        value           uniform 0;
    }
    procBoundary9to7
    {
        type            processor;
        value           nonuniform List<scalar> 
75
(
1
1
0.170797
4.67966e-78
3.20904e-84
2.67408e-90
2.65482e-96
2.6697e-102
2.46697e-108
2.02711e-114
1.46195e-120
9.2441e-127
5.10433e-133
2.45456e-139
1.02404e-145
3.67828e-152
1.12467e-158
2.8796e-165
6.02212e-172
9.93139e-179
1.22341e-185
1.02553e-192
4.83951e-200
7.23038e-208
0
0
0
0
0
0
0
0
0
0
0
0
0
0
0
0
0
0
0
0
0
0
0
0
0
0
0
0
0
0
0
0
0
0
0
0
0
0
0
0
0
0
0
0
0
0
0
0
0
0
0
)
;
    }
    procBoundary9to8
    {
        type            processor;
        value           uniform 0;
    }
    procBoundary9to10
    {
        type            processor;
        value           uniform 0;
    }
    procBoundary9to11
    {
        type            processor;
        value           nonuniform List<scalar> 
75
(
1
1
0.164339
7.42044e-79
3.47544e-85
1.48003e-91
6.40187e-98
2.78233e-104
1.1263e-110
3.94567e-117
1.18874e-123
3.15707e-130
6.94739e-137
1.25579e-143
1.84128e-150
2.15684e-157
1.99816e-164
1.51315e-171
1.12162e-178
1.05448e-185
1.08788e-192
8.64602e-200
3.97818e-207
5.89354e-215
0
0
0
0
0
0
0
0
0
0
0
0
0
0
0
0
0
0
0
0
0
0
0
0
0
0
0
0
0
0
0
0
0
0
0
0
0
0
0
0
0
0
0
0
0
0
0
0
0
0
0
)
;
    }
}


// ************************************************************************* //
