/*--------------------------------*- C++ -*----------------------------------*\
| =========                 |                                                 |
| \\      /  F ield         | OpenFOAM: The Open Source CFD Toolbox           |
|  \\    /   O peration     | Version:  2.4.0                                 |
|   \\  /    A nd           | Web:      www.OpenFOAM.org                      |
|    \\/     M anipulation  |                                                 |
\*---------------------------------------------------------------------------*/
FoamFile
{
    version     2.0;
    format      ascii;
    class       volScalarField;
    location    "0.004";
    object      p_rgh;
}
// * * * * * * * * * * * * * * * * * * * * * * * * * * * * * * * * * * * * * //

dimensions      [1 -1 -2 0 0 0 0];

internalField   nonuniform List<scalar> 
125
(
-0.0371347
0.0571728
-0.715157
-0.104473
0.007624
-0.0112216
-0.0259397
-0.0287276
-0.0279557
-0.0273547
-0.0272052
-0.0271865
-0.0271602
-0.0271165
-0.0270677
-0.0270191
-0.0269709
-0.0269228
-0.0268744
-0.0268259
-0.0267772
-0.0267283
-0.0266792
-0.0266299
-0.0265805
-0.0265308
-0.026481
-0.026431
-0.0263809
-0.0263305
-0.02628
-0.0262292
-0.0261783
-0.0261272
-0.0260759
-0.0260245
-0.0259728
-0.0259209
-0.0258689
-0.0258167
-0.0257642
-0.0257116
-0.0256588
-0.0256058
-0.0255526
-0.0254992
-0.0254456
-0.0253919
-0.0253379
-0.0252837
-0.0252293
-0.0251747
-0.02512
-0.025065
-0.0250098
-0.0249544
-0.0248989
-0.0248431
-0.0247871
-0.0247309
-0.0246745
-0.0246179
-0.0245611
-0.0245041
-0.0244468
-0.0243894
-0.0243317
-0.0242739
-0.0242158
-0.0241575
-0.024099
-0.0240403
-0.0239814
-0.0239222
-0.0238628
-0.00914815
-0.00903512
-0.00892168
-0.00880782
-0.00869355
-0.00857885
-0.00846374
-0.0083482
-0.00823224
-0.00811585
-0.00799903
-0.00788179
-0.00776411
-0.007646
-0.00752746
-0.00740848
-0.00728906
-0.0071692
-0.0070489
-0.00692816
-0.00680698
-0.00668534
-0.00656327
-0.00644074
-0.00631776
-0.00619433
-0.00607045
-0.00594611
-0.00582131
-0.00569605
-0.00557034
-0.00544416
-0.00531751
-0.0051904
-0.00506282
-0.00493478
-0.00480626
-0.00467727
-0.00454781
-0.00441787
-0.00428745
-0.00415655
-0.00402517
-0.0038933
-0.00376095
-0.00362812
-0.00349482
-0.00336105
-0.00322669
-0.00309126
)
;

boundaryField
{
    BotWall
    {
        type            fixedFluxPressure;
        gradient        uniform 0;
        value           uniform -0.0371347;
    }
    FreeStream
    {
        type            totalPressure;
        rho             rho;
        psi             none;
        gamma           1;
        p0              uniform 0;
        value           uniform -0.00302323;
    }
    FrontNBack
    {
        type            empty;
    }
    LeftSide
    {
        type            symmetryPlane;
    }
    RightSide
    {
        type            symmetryPlane;
    }
    procBoundary9to6
    {
        type            processor;
        value           nonuniform List<scalar> 
50
(
-0.0263359
-0.0262868
-0.0262374
-0.0261879
-0.0261382
-0.0260883
-0.0260382
-0.025988
-0.0259375
-0.0258869
-0.0258361
-0.0257851
-0.0257339
-0.0256825
-0.025631
-0.0255792
-0.0255272
-0.0254751
-0.0254228
-0.0253703
-0.0253175
-0.0252646
-0.0252115
-0.0251582
-0.0251047
-0.025051
-0.0249971
-0.024943
-0.0248888
-0.0248343
-0.0247796
-0.0247247
-0.0246696
-0.0246143
-0.0245588
-0.0245031
-0.0244472
-0.0243911
-0.0243347
-0.0242782
-0.0242215
-0.0241645
-0.0241073
-0.02405
-0.0239924
-0.0239346
-0.0238766
-0.0238184
-0.0237599
-0.0237013
)
;
    }
    procBoundary9to7
    {
        type            processor;
        value           nonuniform List<scalar> 
75
(
-0.0383169
0.0680332
-0.743723
-0.108842
0.00886492
-0.0104754
-0.0256583
-0.0285553
-0.0277667
-0.0271491
-0.0269966
-0.0269794
-0.0269546
-0.0269118
-0.0268639
-0.026816
-0.0267687
-0.0267214
-0.0266739
-0.0266262
-0.0265783
-0.0265302
-0.026482
-0.0264335
-0.0263848
-0.00916633
-0.00905292
-0.0089391
-0.00882486
-0.0087102
-0.00859512
-0.00847962
-0.0083637
-0.00824734
-0.00813057
-0.00801336
-0.00789572
-0.00777765
-0.00765915
-0.00754021
-0.00742084
-0.00730103
-0.00718078
-0.00706008
-0.00693895
-0.00681736
-0.00669534
-0.00657286
-0.00644993
-0.00632655
-0.00620272
-0.00607844
-0.00595369
-0.00582849
-0.00570283
-0.00557671
-0.00545012
-0.00532307
-0.00519555
-0.00506756
-0.0049391
-0.00481017
-0.00468077
-0.00455089
-0.00442053
-0.00428969
-0.00415837
-0.00402657
-0.00389428
-0.00376151
-0.00362825
-0.00349451
-0.0033603
-0.00322551
-0.00308978
)
;
    }
    procBoundary9to8
    {
        type            processor;
        value           uniform -0.0238032;
    }
    procBoundary9to10
    {
        type            processor;
        value           uniform -0.00926077;
    }
    procBoundary9to11
    {
        type            processor;
        value           nonuniform List<scalar> 
75
(
-0.0377
0.0620531
-0.727932
-0.106413
0.00820499
-0.0108618
-0.0257891
-0.0286262
-0.0278468
-0.0272384
-0.0270875
-0.0270696
-0.0270439
-0.0270006
-0.0269522
-0.026904
-0.0268562
-0.0268084
-0.0267605
-0.0267123
-0.026664
-0.0266154
-0.0265668
-0.0265179
-0.0264688
-0.0264196
-0.0263702
-0.0263206
-0.0262708
-0.0262208
-0.0261707
-0.0261203
-0.0260698
-0.0260191
-0.0259682
-0.0259172
-0.0258659
-0.0258144
-0.0257628
-0.025711
-0.0256589
-0.0256067
-0.0255543
-0.0255017
-0.0254489
-0.0253959
-0.0253427
-0.0252894
-0.0252358
-0.025182
-0.025128
-0.0250739
-0.0250195
-0.0249649
-0.0249102
-0.0248552
-0.0248
-0.0247446
-0.0246891
-0.0246333
-0.0245773
-0.0245211
-0.0244647
-0.0244081
-0.0243513
-0.0242942
-0.024237
-0.0241795
-0.0241219
-0.024064
-0.0240059
-0.0239476
-0.0238891
-0.0238304
-0.0237714
)
;
    }
}


// ************************************************************************* //
