/*--------------------------------*- C++ -*----------------------------------*\
| =========                 |                                                 |
| \\      /  F ield         | OpenFOAM: The Open Source CFD Toolbox           |
|  \\    /   O peration     | Version:  2.4.0                                 |
|   \\  /    A nd           | Web:      www.OpenFOAM.org                      |
|    \\/     M anipulation  |                                                 |
\*---------------------------------------------------------------------------*/
FoamFile
{
    version     2.0;
    format      ascii;
    class       volScalarField;
    location    "4.6";
    object      H;
}
// * * * * * * * * * * * * * * * * * * * * * * * * * * * * * * * * * * * * * //

dimensions      [0 2 -2 0 0 0 0];

internalField   nonuniform List<scalar> 
8000
(
-11803.3
-10956.1
-10126.8
-9325.44
-8560.87
-7840.04
-7168.18
-6548.74
-5983.49
-5472.61
-5014.9
-4607.97
-4248.48
-3932.37
-3655.09
-3411.79
-3197.55
-3007.5
-2836.98
-2681.62
-2537.46
-2400.97
-2269.12
-2139.38
-2009.74
-1878.73
-1745.36
-1609.11
-1469.94
-1328.16
-1184.47
-1039.89
-895.726
-753.575
-615.214
-482.516
-357.671
-242.148
-140.869
-45.6571
-0.359611
-0.172671
-0.0817264
-0.0740219
-0.0752374
-0.0753894
-0.0765661
-0.0788278
-0.0810033
-0.0831615
-11832.2
-11042.4
-10269.7
-9523.53
-8811.8
-8140.69
-7514.68
-6936.56
-6407.58
-5927.57
-5495.08
-5107.64
-4761.94
-4454.05
-4179.59
-3933.96
-3712.47
-3510.54
-3323.75
-3148.02
-2979.63
-2815.33
-2652.36
-2488.53
-2322.17
-2152.19
-1978.01
-1799.6
-1617.38
-1432.23
-1245.39
-1058.47
-873.387
-692.291
-517.901
-351.96
-201.097
-50.7325
-0.420375
-0.00629254
-0.00473024
-0.00597239
-0.0100495
-0.0162409
-0.0239726
-0.03199
-0.0400105
-0.0474777
-0.0543959
-0.0621341
-11862.9
-11134.2
-10421.4
-9733.05
-9076.18
-8456.15
-7876.67
-7339.92
-6846.66
-6396.32
-5987.26
-5616.86
-5281.8
-4978.18
-4701.76
-4448.1
-4212.72
-3991.26
-3779.6
-3573.95
-3370.98
-3167.84
-2962.25
-2752.52
-2537.55
-2316.88
-2090.61
-1859.41
-1624.43
-1387.3
-1150.02
-915
-684.679
-461.099
-251.776
-37.5173
-0.337907
-0.00648232
-0.00952499
-0.00869672
-0.0106367
-0.0153913
-0.0214612
-0.0274682
-0.0340498
-0.0412827
-0.0492356
-0.0578443
-0.0669574
-0.0764583
-11893.3
-11225.1
-10571.2
-9939.5
-9335.96
-8765.12
-8229.95
-7731.96
-7271.33
-6847.08
-6457.23
-6098.94
-5768.77
-5462.78
-5176.75
-4906.39
-4647.41
-4395.74
-4147.61
-3899.71
-3649.22
-3393.95
-3132.35
-2863.52
-2587.3
-2304.17
-2015.27
-1722.29
-1427.43
-1133.41
-842.473
-559.883
-280.268
-2.42449
-0.0358676
-0.0031614
-0.0127213
-0.0148244
-0.0180274
-0.0230548
-0.0280105
-0.0351675
-0.0435882
-0.0532253
-0.0638662
-0.0753186
-0.0874525
-0.100263
-0.11382
-0.128056
-11922
-11310.5
-10711.7
-10132.4
-9577.67
-9051.1
-8554.89
-8089.83
-7655.5
-7250.4
-6872.1
-6517.49
-6182.88
-5864.27
-5557.46
-5258.29
-4962.76
-4667.21
-4368.43
-4063.76
-3751.24
-3429.61
-3098.42
-2757.98
-2409.38
-2054.48
-1695.77
-1336.52
-979.278
-632.114
-274.93
-2.14873
-0.0362132
-0.000775727
-0.0142083
-0.0220642
-0.0290708
-0.0351482
-0.04253
-0.0516404
-0.0615318
-0.0719791
-0.0830039
-0.0947982
-0.107335
-0.120712
-0.134975
-0.150117
-0.166127
-0.182955
-11948
-11387.9
-10838.7
-10306.1
-9794.01
-9305.12
-8840.68
-8400.66
-7983.91
-7588.32
-7211
-6848.47
-6496.87
-6152.15
-5810.25
-5467.32
-5119.86
-4764.86
-4399.95
-4023.53
-3634.81
-3233.9
-2821.8
-2400.43
-1972.38
-1541.48
-1111.23
-691.136
-258.326
-2.06835
-0.0393843
-0.0129116
-0.0170736
-0.0278285
-0.0403734
-0.0511656
-0.0631783
-0.074838
-0.0856901
-0.0960099
-0.106149
-0.116445
-0.127183
-0.138659
-0.151023
-0.16434
-0.178622
-0.193845
-0.209964
-0.226917
-11970.7
-11455.4
-10948.8
-10455.3
-9977.74
-9517.51
-9074.87
-8648.86
-8237.54
-7838.17
-7447.41
-7061.54
-6676.64
-6288.82
-5894.45
-5490.27
-5073.63
-4642.6
-4196
-3733.74
-3256.78
-2767.05
-2267.49
-1762.26
-1255.88
-758.107
-250.459
-2.09121
-0.0435249
-0.0477824
-0.0462301
-0.053335
-0.0629049
-0.0755054
-0.0882511
-0.100935
-0.113061
-0.124355
-0.135058
-0.145369
-0.155627
-0.166129
-0.177106
-0.188719
-0.20109
-0.214294
-0.228368
-0.243325
-0.259163
-0.275875
-11989.1
-11509.6
-11036.2
-10571.4
-10116.8
-9672.51
-9237.66
-8810.38
-8388
-7967.3
-7544.68
-7116.4
-6678.85
-6228.69
-5763.1
-5279.93
-4777.82
-4256.31
-3716.14
-3160.25
-2591.15
-2013.13
-1432.06
-858.346
-278.484
-2.37849
-0.0539243
-0.0805823
-0.0804551
-0.0910991
-0.0994354
-0.111604
-0.12497
-0.138483
-0.151218
-0.164021
-0.177079
-0.190187
-0.203307
-0.216527
-0.230006
-0.24394
-0.258532
-0.273981
-0.290499
-0.308338
-0.327284
-0.347398
-0.368906
-0.392072
-12001.6
-11545.7
-11092.3
-10642.1
-10195
-9749.95
-9304.93
-8857.28
-8403.85
-7941.18
-7465.8
-6974.43
-6464.25
-5933.13
-5379.76
-4803.88
-4206.37
-3589.36
-2955.86
-2309.73
-1656.57
-1008
-365.616
-3.10253
-0.0759442
-0.109287
-0.115216
-0.132144
-0.146938
-0.163472
-0.180639
-0.197631
-0.215482
-0.234617
-0.254773
-0.276067
-0.298687
-0.322928
-0.3487
-0.37624
-0.406059
-0.438834
-0.475234
-0.513723
-0.553043
-0.592172
-0.630248
-0.66653
-0.700362
-0.731109
-12006.2
-11558.2
-11108.7
-10656.2
-10199
-9734.64
-9260.26
-8772.62
-8268.37
-7744.3
-7197.59
-6626.05
-6028.39
-5404.41
-4755.12
-4082.82
-3391.06
-2684.18
-1965.72
-1239.63
-518.645
-4.2274
-0.101731
-0.159786
-0.187867
-0.228112
-0.264349
-0.299223
-0.332341
-0.362926
-0.395442
-0.432325
-0.473568
-0.519494
-0.571035
-0.62705
-0.684825
-0.742089
-0.796923
-0.84774
-0.893144
-0.931774
-0.962259
-0.985285
-1.00155
-1.01175
-1.01652
-1.01651
-1.01227
-1.00435
-12001.9
-11543.9
-11080.1
-10607.2
-10121.4
-9619.21
-9096.97
-8551.26
-7978.95
-7377.58
-6745.51
-6082.21
-5388.39
-4666.14
-3919
-3152.14
-2371.96
-1582.1
-774.382
-6.0066
-0.132655
-0.292442
-0.402537
-0.526544
-0.624437
-0.702049
-0.767469
-0.825284
-0.884849
-0.948533
-1.01468
-1.08033
-1.14208
-1.19656
-1.24045
-1.2725
-1.29344
-1.30422
-1.3059
-1.29955
-1.28624
-1.26699
-1.24274
-1.21434
-1.18257
-1.14814
-1.11166
-1.07365
-1.0346
-0.994894
-11988.1
-11500.9
-11003.9
-10491.5
-9958.62
-9400.62
-8813.4
-8193.56
-7538.63
-6847.25
-6119.45
-5356.76
-4562.35
-3740.93
-2898.89
-2045.52
-1195.78
-357.855
-3.85662
-1.84365
-0.965357
-0.816533
-0.890726
-1.03792
-1.19535
-1.34003
-1.46094
-1.55624
-1.62677
-1.67426
-1.70091
-1.70908
-1.70119
-1.67968
-1.6468
-1.60465
-1.55513
-1.49992
-1.4405
-1.37815
-1.31395
-1.24884
-1.18359
-1.11884
-1.05511
-0.992828
-0.932323
-0.873852
-0.817609
-0.763731
-11965.7
-11432.5
-10886.1
-10319
-9724.92
-9098.46
-8435.34
-7732.52
-6988.48
-6203.36
-5379.24
-4520.19
-3632.19
-2721.59
-1792.96
-856.595
-6.94062
-0.257676
-0.592513
-0.975206
-1.31754
-1.61031
-1.84696
-2.02463
-2.14614
-2.21741
-2.24574
-2.23845
-2.20238
-2.14365
-2.0676
-1.97879
-1.8811
-1.77772
-1.67132
-1.56402
-1.45755
-1.35324
-1.25213
-1.15496
-1.0623
-0.974495
-0.891773
-0.814229
-0.741868
-0.674617
-0.612349
-0.554891
-0.502037
-0.453561
-11935.5
-11340.9
-10730.2
-10094.7
-9426.86
-8720.89
-7972.55
-7179.46
-6341.34
-5460.21
-4540.81
-3591.24
-2624.64
-1661.15
-728.413
-7.55996
-6.32999
-4.71856
-4.19097
-3.81502
-3.55455
-3.37268
-3.23211
-3.10532
-2.9756
-2.83523
-2.68243
-2.5189
-2.34796
-2.1734
-1.99886
-1.8275
-1.66183
-1.50378
-1.35467
-1.21537
-1.08632
-0.967652
-0.859232
-0.760751
-0.671763
-0.591731
-0.52006
-0.456127
-0.3993
-0.348955
-0.304487
-0.265317
-0.230902
-0.200734
-11897.8
-11226.9
-10537.5
-9819.88
-9065.99
-8269.93
-7428.19
-6539.91
-5607.5
-4637.39
-3640.77
-2632.75
-1627.42
-625.95
-9.28266
-7.05518
-6.30972
-5.90748
-5.51816
-5.13729
-4.76059
-4.38719
-4.01825
-3.65642
-3.30509
-2.96782
-2.64781
-2.34768
-2.06928
-1.81373
-1.58142
-1.37212
-1.1851
-1.01927
-0.87324
-0.745458
-0.634294
-0.538098
-0.455257
-0.384229
-0.323573
-0.271962
-0.228191
-0.191178
-0.159962
-0.133697
-0.111643
-0.093159
-0.0776913
-0.064766
-11853.6
-11093.9
-10314.4
-9504.72
-8657.14
-7766.56
-6831.35
-5853.96
-4841.56
-3806.15
-2762.25
-1719.26
-664.63
-11.8409
-8.57469
-7.76522
-7.10315
-6.47154
-5.86349
-5.27672
-4.71237
-4.17373
-3.66504
-3.19055
-2.75375
-2.35703
-2.00145
-1.68677
-1.41163
-1.17375
-0.970198
-0.797672
-0.652696
-0.531812
-0.431713
-0.349334
-0.281906
-0.226976
-0.182412
-0.146383
-0.117341
-0.0939855
-0.0752408
-0.0602189
-0.0481943
-0.0385767
-0.0308887
-0.0247456
-0.0198383
-0.0159191
-11804
-10945
-10066.2
-9157.24
-8211.37
-7225.37
-6200.62
-5143.74
-4066.6
-2984.69
-1912.11
-851.852
-14.5763
-10.2944
-9.133
-8.12496
-7.20223
-6.34532
-5.54449
-4.79712
-4.10504
-3.47201
-2.90179
-2.39677
-1.95725
-1.58128
-1.26496
-1.00292
-0.788903
-0.61634
-0.478776
-0.3702
-0.285235
-0.219225
-0.168243
-0.12905
-0.0990222
-0.0760683
-0.0585411
-0.0451582
-0.0349302
-0.0270996
-0.02109
-0.0164647
-0.0128938
-0.0101286
-0.00798161
-0.00631108
-0.00500972
-0.00399585
-11748.5
-10778.7
-9789.83
-8772.64
-7721.94
-6637.19
-5523.41
-4391.48
-3257.22
-2138.53
-1049.17
-15.6572
-11.0426
-9.77944
-8.6344
-7.56332
-6.55128
-5.59687
-4.70698
-3.89209
-3.16229
-2.52453
-1.98126
-1.5304
-1.16529
-0.876213
-0.651965
-0.481108
-0.352939
-0.258033
-0.188491
-0.137933
-0.101369
-0.0749906
-0.055954
-0.0421705
-0.032129
-0.0247487
-0.0192641
-0.0151366
-0.0119892
-0.00955814
-0.00765855
-0.0061602
-0.00497025
-0.00402154
-0.00326451
-0.00266175
-0.00218438
-0.0018096
-11683.3
-10583.2
-9464.82
-8320.51
-7147.66
-5949.51
-4735.52
-3520.52
-2321.87
-1153.55
-17.1799
-12.066
-10.6489
-9.31272
-8.03673
-6.81499
-5.66068
-4.59571
-3.64225
-2.8166
-2.12588
-1.56737
-1.13019
-0.802035
-0.562188
-0.390943
-0.271066
-0.188452
-0.132148
-0.0940117
-0.0681944
-0.050616
-0.0384965
-0.0299781
-0.0238381
-0.0192818
-0.0157968
-0.0130546
-0.0108441
-0.00902901
-0.00751974
-0.00625593
-0.00519522
-0.00430636
-0.00356503
-0.00295128
-0.00244813
-0.00204064
-0.00171553
-0.00146091
-11605.6
-10351
-9080.5
-7789.43
-6479.17
-5157.64
-3838.12
-2535.6
-1260
-20.5007
-14.2506
-12.412
-10.6541
-8.96458
-7.36304
-5.88618
-4.57228
-3.44923
-2.5283
-1.80353
-1.2553
-0.855794
-0.574472
-0.382327
-0.254446
-0.171053
-0.117413
-0.0831036
-0.0610622
-0.0466707
-0.0369973
-0.0302258
-0.0252518
-0.021414
-0.0183196
-0.0157365
-0.0135272
-0.011609
-0.00993077
-0.00845958
-0.00717241
-0.00605175
-0.00508291
-0.00425263
-0.00354832
-0.00295775
-0.00246898
-0.00207041
-0.00175093
-0.00150004
-0.0864453
-0.0912536
-0.0971478
-0.103499
-0.109916
-0.116227
-0.12237
-0.128319
-0.134057
-0.139565
-0.144816
-0.149778
-0.154412
-0.158679
-0.162537
-0.165944
-0.168859
-0.171235
-0.173017
-0.174126
-0.174466
-0.173984
-0.172673
-0.170597
-0.167889
-0.164662
-0.160995
-0.156974
-0.152688
-0.14821
-0.143612
-0.13895
-0.134269
-0.129606
-0.124988
-0.120437
-0.11597
-0.111599
-0.107331
-0.103174
-0.0991305
-0.0952028
-0.0913919
-0.0876979
-0.0841202
-0.0806578
-0.0773103
-0.0740804
-0.0709854
-0.0681055
-0.0704123
-0.0787967
-0.0871507
-0.0954417
-0.103651
-0.111757
-0.119729
-0.127526
-0.135099
-0.142397
-0.149363
-0.155944
-0.162087
-0.167744
-0.172876
-0.177444
-0.181417
-0.184767
-0.187478
-0.189533
-0.190917
-0.191593
-0.191537
-0.19074
-0.18916
-0.186843
-0.183879
-0.180363
-0.176422
-0.1722
-0.16789
-0.163595
-0.159296
-0.154987
-0.150676
-0.146372
-0.14209
-0.137844
-0.13365
-0.129519
-0.125458
-0.121475
-0.117576
-0.113763
-0.110041
-0.106411
-0.102877
-0.0994469
-0.0961454
-0.093063
-0.0862755
-0.0963638
-0.10669
-0.117224
-0.127943
-0.138831
-0.149731
-0.160489
-0.170957
-0.181013
-0.190558
-0.199504
-0.207775
-0.215314
-0.222072
-0.22801
-0.233095
-0.237301
-0.240614
-0.243028
-0.244547
-0.245184
-0.244959
-0.243897
-0.242023
-0.239357
-0.23592
-0.23173
-0.226797
-0.221121
-0.214718
-0.207702
-0.200289
-0.192648
-0.184918
-0.177231
-0.169713
-0.162788
-0.156896
-0.1517
-0.146985
-0.142614
-0.138498
-0.134579
-0.130821
-0.127202
-0.123711
-0.120349
-0.11714
-0.114148
-0.142791
-0.157809
-0.17289
-0.187819
-0.202387
-0.216407
-0.22983
-0.242624
-0.254767
-0.266256
-0.277091
-0.287278
-0.296835
-0.305783
-0.314151
-0.321971
-0.329094
-0.335341
-0.340619
-0.34489
-0.348146
-0.350401
-0.351679
-0.352011
-0.351426
-0.349955
-0.347629
-0.344477
-0.340534
-0.335823
-0.330364
-0.324176
-0.317272
-0.309659
-0.301337
-0.292314
-0.282581
-0.272128
-0.260992
-0.249539
-0.237995
-0.226504
-0.21517
-0.204085
-0.193343
-0.183061
-0.173407
-0.164651
-0.157281
-0.150932
-0.20051
-0.218666
-0.237282
-0.256201
-0.27527
-0.294331
-0.313233
-0.331827
-0.349967
-0.367514
-0.384327
-0.400273
-0.415224
-0.429066
-0.441694
-0.453022
-0.463189
-0.472408
-0.480825
-0.488412
-0.495022
-0.500599
-0.505135
-0.508657
-0.511209
-0.512843
-0.51362
-0.513599
-0.512843
-0.511412
-0.509365
-0.506757
-0.50364
-0.500063
-0.49607
-0.491702
-0.486995
-0.481979
-0.476677
-0.471102
-0.465259
-0.459133
-0.452693
-0.44588
-0.438607
-0.430743
-0.422103
-0.412436
-0.401396
-0.389383
-0.244632
-0.263023
-0.282
-0.301465
-0.32132
-0.341467
-0.361807
-0.382247
-0.402695
-0.423058
-0.443245
-0.463156
-0.482695
-0.501755
-0.520226
-0.537973
-0.554781
-0.570143
-0.58365
-0.595171
-0.604854
-0.612836
-0.619244
-0.624206
-0.627834
-0.630231
-0.631501
-0.631737
-0.631033
-0.629502
-0.627239
-0.624323
-0.620831
-0.616832
-0.612384
-0.607549
-0.602379
-0.596924
-0.591232
-0.585346
-0.579304
-0.573145
-0.566901
-0.560607
-0.554291
-0.547985
-0.541722
-0.535545
-0.52951
-0.5237
-0.293453
-0.311892
-0.331196
-0.351387
-0.372525
-0.394335
-0.416599
-0.439371
-0.462725
-0.486752
-0.511304
-0.535608
-0.559025
-0.581035
-0.601201
-0.619153
-0.634631
-0.647738
-0.658598
-0.667354
-0.674155
-0.679151
-0.682491
-0.684318
-0.684769
-0.68397
-0.682044
-0.679106
-0.675263
-0.670614
-0.665253
-0.659268
-0.652738
-0.645738
-0.638339
-0.630604
-0.622593
-0.61436
-0.605956
-0.597425
-0.588811
-0.580151
-0.571479
-0.562829
-0.554229
-0.54571
-0.537302
-0.529055
-0.521059
-0.513524
-0.417257
-0.444982
-0.474297
-0.504278
-0.534184
-0.563376
-0.591299
-0.617447
-0.641323
-0.662398
-0.680282
-0.695161
-0.707231
-0.716695
-0.723739
-0.728557
-0.731329
-0.732236
-0.731444
-0.72911
-0.725384
-0.720406
-0.714309
-0.707218
-0.699247
-0.690507
-0.681093
-0.671101
-0.660616
-0.64972
-0.638483
-0.626975
-0.615257
-0.603386
-0.591414
-0.579388
-0.567352
-0.555346
-0.543404
-0.531557
-0.519836
-0.508263
-0.496863
-0.485654
-0.474655
-0.463882
-0.453355
-0.443107
-0.433226
-0.42398
-0.75806
-0.780276
-0.798026
-0.811702
-0.821669
-0.828271
-0.831833
-0.832651
-0.830998
-0.827132
-0.821288
-0.813686
-0.804529
-0.794003
-0.782279
-0.76952
-0.755872
-0.741467
-0.726428
-0.710868
-0.694889
-0.678585
-0.66204
-0.645333
-0.628534
-0.611706
-0.594907
-0.578188
-0.561597
-0.545175
-0.528958
-0.51298
-0.49727
-0.481852
-0.466748
-0.451976
-0.437553
-0.423491
-0.4098
-0.396489
-0.383563
-0.371027
-0.358881
-0.347128
-0.335766
-0.324794
-0.314214
-0.30404
-0.294333
-0.285338
-0.993222
-0.979333
-0.963083
-0.944832
-0.924908
-0.903604
-0.881182
-0.857877
-0.833893
-0.809416
-0.784608
-0.759616
-0.734566
-0.709568
-0.684721
-0.66011
-0.635809
-0.611883
-0.588386
-0.565367
-0.542863
-0.52091
-0.499533
-0.478756
-0.458594
-0.439061
-0.420166
-0.401913
-0.384305
-0.36734
-0.351015
-0.335325
-0.320261
-0.305814
-0.291972
-0.278723
-0.266053
-0.253947
-0.242389
-0.231363
-0.220852
-0.210838
-0.201305
-0.192235
-0.183609
-0.175413
-0.16763
-0.160255
-0.153317
-0.146966
-0.954893
-0.91489
-0.875136
-0.835845
-0.797194
-0.759329
-0.72237
-0.686415
-0.65154
-0.617806
-0.585254
-0.553917
-0.523811
-0.494946
-0.467322
-0.44093
-0.415758
-0.391785
-0.368988
-0.347339
-0.326807
-0.307358
-0.288957
-0.271568
-0.255151
-0.239667
-0.225078
-0.211343
-0.198424
-0.186281
-0.174876
-0.164171
-0.15413
-0.144716
-0.135895
-0.127634
-0.119901
-0.112664
-0.105894
-0.0995626
-0.0936433
-0.0881104
-0.0829395
-0.0781077
-0.0735935
-0.0693767
-0.0654394
-0.0617688
-0.058368
-0.0552983
-0.712311
-0.6634
-0.617019
-0.573161
-0.531796
-0.492877
-0.456342
-0.422116
-0.390117
-0.360255
-0.332435
-0.306559
-0.282529
-0.260245
-0.239606
-0.220515
-0.202876
-0.186596
-0.171584
-0.157755
-0.145025
-0.133316
-0.122554
-0.112667
-0.103589
-0.0952583
-0.0876165
-0.080609
-0.0741853
-0.0682981
-0.0629039
-0.0579622
-0.0534356
-0.0492898
-0.0454929
-0.0420156
-0.0388311
-0.0359147
-0.0332436
-0.0307972
-0.0285563
-0.0265035
-0.0246228
-0.0228997
-0.0213207
-0.0198738
-0.0185482
-0.0173353
-0.0162318
-0.0152524
-0.40922
-0.368763
-0.331937
-0.298488
-0.268169
-0.240737
-0.215961
-0.193618
-0.1735
-0.155409
-0.139159
-0.12458
-0.111512
-0.0998089
-0.0893355
-0.0799689
-0.071597
-0.0641178
-0.0574388
-0.0514764
-0.0461551
-0.0414072
-0.0371715
-0.0333933
-0.0300234
-0.027018
-0.0243377
-0.0219475
-0.0198159
-0.0179151
-0.0162202
-0.0147089
-0.0133615
-0.0121603
-0.0110897
-0.0101358
-0.00928597
-0.00852932
-0.00785595
-0.0072571
-0.00672496
-0.00625258
-0.00583375
-0.00546296
-0.00513527
-0.0048463
-0.00459217
-0.00436956
-0.0041761
-0.00401204
-0.174344
-0.151304
-0.131222
-0.113746
-0.0985585
-0.0853756
-0.0739451
-0.0640433
-0.0554726
-0.0480593
-0.0416509
-0.036114
-0.0313321
-0.0272039
-0.0236411
-0.020567
-0.0179155
-0.0156289
-0.0136577
-0.0119587
-0.0104951
-0.00923467
-0.00814991
-0.00721699
-0.00641543
-0.00572753
-0.00513806
-0.00463392
-0.00420379
-0.00383792
-0.00352793
-0.00326656
-0.00304758
-0.00286559
-0.00271593
-0.0025946
-0.0024981
-0.00242342
-0.00236797
-0.00232947
-0.00230596
-0.00229572
-0.00229728
-0.0023093
-0.00233065
-0.00236029
-0.00239724
-0.0024405
-0.00248869
-0.00253938
-0.0539779
-0.0449832
-0.0374905
-0.0312538
-0.0260664
-0.0217544
-0.0181723
-0.0151984
-0.0127308
-0.0106849
-0.0089898
-0.00758673
-0.00642669
-0.00546895
-0.00467964
-0.00403065
-0.00349862
-0.00306416
-0.00271118
-0.00242633
-0.00219852
-0.00201858
-0.00187886
-0.00177305
-0.00169589
-0.00164304
-0.00161086
-0.00159636
-0.00159702
-0.00161079
-0.00163591
-0.00167094
-0.00171467
-0.00176609
-0.00182434
-0.0018887
-0.00195857
-0.00203342
-0.0021128
-0.00219633
-0.00228368
-0.00237455
-0.00246868
-0.00256581
-0.00266571
-0.00276812
-0.00287271
-0.00297891
-0.00308553
-0.00318976
-0.01279
-0.0102928
-0.00830113
-0.0067141
-0.00545122
-0.00444821
-0.00365368
-0.00302653
-0.00253389
-0.00214943
-0.00185209
-0.00162498
-0.00145456
-0.00133001
-0.00124265
-0.00118555
-0.00115315
-0.00114104
-0.00114566
-0.00116421
-0.00119443
-0.00123454
-0.00128312
-0.00133904
-0.00140139
-0.00146946
-0.00154268
-0.00162059
-0.00170282
-0.00178907
-0.0018791
-0.0019727
-0.00206971
-0.00216998
-0.00227338
-0.00237979
-0.00248912
-0.00260126
-0.00271611
-0.00283359
-0.00295359
-0.00307602
-0.00320077
-0.00332773
-0.00345677
-0.00358771
-0.00372027
-0.00385393
-0.00398763
-0.00411899
-0.00320702
-0.00259515
-0.00212299
-0.00176153
-0.001488
-0.00128447
-0.00113678
-0.00103368
-0.000966249
-0.000927406
-0.000911538
-0.000914208
-0.00093192
-0.000961928
-0.00100209
-0.00105073
-0.00110657
-0.00116862
-0.00123612
-0.00130848
-0.00138528
-0.00146617
-0.00155092
-0.00163933
-0.00173126
-0.00182659
-0.00192523
-0.00202712
-0.0021322
-0.00224041
-0.00235171
-0.00246605
-0.00258337
-0.00270362
-0.00282675
-0.0029527
-0.00308141
-0.0032128
-0.0033468
-0.00348333
-0.00362229
-0.00376359
-0.00390712
-0.00405277
-0.00420041
-0.0043499
-0.00450102
-0.00465347
-0.00480667
-0.00495947
-0.00151903
-0.00129768
-0.00113316
-0.00101524
-0.000935382
-0.00088655
-0.000862933
-0.000859784
-0.000873248
-0.000900231
-0.000938269
-0.000985427
-0.0010402
-0.00110142
-0.00116821
-0.00123991
-0.00131603
-0.0013962
-0.00148016
-0.00156772
-0.00165873
-0.00175312
-0.00185079
-0.0019517
-0.00205582
-0.00216309
-0.00227346
-0.00238692
-0.00250345
-0.00262301
-0.00274558
-0.0028711
-0.00299955
-0.00313086
-0.00326498
-0.00340186
-0.0035414
-0.00368355
-0.00382821
-0.00397529
-0.00412469
-0.00427629
-0.00442999
-0.00458565
-0.00474317
-0.00490244
-0.00506335
-0.00522587
-0.00539003
-0.00555599
-0.00126615
-0.00112185
-0.00101971
-0.000952557
-0.000914212
-0.00089946
-0.000903946
-0.000924083
-0.00095696
-0.00100025
-0.0010521
-0.00111109
-0.00117612
-0.00124634
-0.00132114
-0.00140006
-0.00148276
-0.001569
-0.0016586
-0.00175146
-0.00184747
-0.00194658
-0.00204875
-0.00215394
-0.00226212
-0.00237327
-0.00248737
-0.00260439
-0.0027243
-0.00284708
-0.00297269
-0.00310108
-0.00323223
-0.00336606
-0.00350253
-0.00364158
-0.00378312
-0.00392708
-0.00407337
-0.00422189
-0.00437253
-0.00452517
-0.00467969
-0.00483595
-0.0049938
-0.00515309
-0.00531363
-0.00547525
-0.00563775
-0.00580094
-0.001308
-0.00116591
-0.00106578
-0.00100055
-0.00096411
-0.000951223
-0.000957498
-0.0009793
-0.00101367
-0.00105824
-0.00111112
-0.00117086
-0.00123635
-0.00130673
-0.00138137
-0.00145982
-0.00154174
-0.00162688
-0.00171508
-0.00180622
-0.00190021
-0.001997
-0.00209654
-0.00219881
-0.00230378
-0.00241143
-0.00252173
-0.00263467
-0.00275022
-0.00286835
-0.00298904
-0.00311225
-0.00323794
-0.00336607
-0.00349659
-0.00362944
-0.00376455
-0.00390186
-0.00404129
-0.00418276
-0.00432617
-0.00447142
-0.00461841
-0.00476701
-0.00491711
-0.00506855
-0.00522121
-0.00537491
-0.00552951
-0.00568482
-0.0663311
-0.0647748
-0.0632395
-0.0617253
-0.0602322
-0.0587605
-0.0573102
-0.0558815
-0.0544745
-0.0530891
-0.0517256
-0.050384
-0.0490643
-0.0477665
-0.0464909
-0.0452373
-0.0440057
-0.0427963
-0.041609
-0.0404437
-0.0393005
-0.0381793
-0.0370801
-0.0360028
-0.0349474
-0.0339137
-0.0329018
-0.0319114
-0.0309426
-0.0299952
-0.029069
-0.0281639
-0.0272798
-0.0264165
-0.0255738
-0.0247515
-0.0239496
-0.0231676
-0.0224055
-0.0216631
-0.02094
-0.0202361
-0.019551
-0.0188846
-0.0182366
-0.0176067
-0.0169946
-0.0164
-0.0158227
-0.0152624
-0.0147187
-0.0141913
-0.01368
-0.0131843
-0.0127041
-0.0122389
-0.0117885
-0.0113526
-0.0109307
-0.0105227
-0.010128
-0.00974655
-0.00937787
-0.00902167
-0.00867763
-0.00834543
-0.00802476
-0.0077153
-0.00741673
-0.00712876
-0.00685107
-0.00658337
-0.00632535
-0.00607674
-0.00583723
-0.00560656
-0.00538444
-0.0051706
-0.00496478
-0.00476672
-0.00457615
-0.00439284
-0.00421654
-0.00404702
-0.00388403
-0.00372736
-0.00357678
-0.00343209
-0.00329307
-0.00315952
-0.00303124
-0.00290805
-0.00278975
-0.00267617
-0.00256714
-0.00246247
-0.00236202
-0.00226562
-0.00217312
-0.00208437
-0.00199923
-0.00191755
-0.00183921
-0.00176407
-0.00169202
-0.00162292
-0.00155666
-0.00149313
-0.00143223
-0.00137384
-0.00131787
-0.00126422
-0.0012128
-0.00116352
-0.00111628
-0.00107102
-0.00102764
-0.000986079
-0.000946251
-0.000908089
-0.000871525
-0.000836493
-0.000802929
-0.000770775
-0.00073997
-0.000710459
-0.000682188
-0.000655106
-0.000629164
-0.000604313
-0.000580508
-0.000557705
-0.000535863
-0.00051494
-0.000494899
-0.000475702
-0.000457314
-0.000439701
-0.000422829
-0.000406669
-0.000391189
-0.000376361
-0.000362157
-0.000348552
-0.000335519
-0.000323035
-0.000311076
-0.00029962
-0.000288646
-0.000278133
-0.000268063
-0.000258415
-0.000249172
-0.000240318
-0.000231835
-0.000223708
-0.000215923
-0.000208463
-0.000201317
-0.00019447
-0.00018791
-0.000181625
-0.000175604
-0.000169835
-0.000164307
-0.000159011
-0.000153938
-0.000149077
-0.00014442
-0.000139958
-0.000135684
-0.000131589
-0.000127667
-0.00012391
-0.000120311
-0.000116864
-0.000113563
-0.000110402
-0.000107375
-0.000104478
-0.000101703
-9.90482e-05
-9.65071e-05
-9.40756e-05
-9.17497e-05
-8.9525e-05
-8.73979e-05
-8.53645e-05
-8.34213e-05
-8.1565e-05
-7.97923e-05
-7.81003e-05
-7.64858e-05
-7.49463e-05
-7.34789e-05
-7.20813e-05
-7.07511e-05
-6.94859e-05
-6.82834e-05
-6.71414e-05
-6.60581e-05
-6.50314e-05
-6.40596e-05
-6.3141e-05
-6.2274e-05
-6.14571e-05
-6.06886e-05
-5.99671e-05
-5.9291e-05
-5.86588e-05
-5.80694e-05
-5.75216e-05
-5.7014e-05
-5.65457e-05
-5.61154e-05
-5.5722e-05
-5.53645e-05
-5.5042e-05
-5.47535e-05
-5.44979e-05
-5.42742e-05
-5.40812e-05
-5.39179e-05
-5.37833e-05
-5.36767e-05
-5.35972e-05
-5.35435e-05
-5.35144e-05
-5.3509e-05
-5.35266e-05
-5.35664e-05
-5.36275e-05
-5.37083e-05
-5.38079e-05
-5.39255e-05
-5.40602e-05
-5.42111e-05
-5.43773e-05
-5.45582e-05
-5.4753e-05
-5.4961e-05
-5.51817e-05
-5.54145e-05
-5.56593e-05
-5.59162e-05
-5.61855e-05
-5.6468e-05
-5.6765e-05
-5.708e-05
-5.74208e-05
-5.7808e-05
-5.83525e-05
-5.92401e-05
-6.05234e-05
-6.22667e-05
-6.4539e-05
-6.7418e-05
-7.10076e-05
-7.54312e-05
-8.08331e-05
-8.73818e-05
-9.52733e-05
-0.000104736
-0.000116035
-0.000129476
-0.000145407
-0.000164229
-0.000186396
-0.000212427
-0.000242906
-0.000278491
-0.000319915
-0.000368
-0.000423659
-0.000487899
-0.000561824
-0.000646644
-0.000743672
-0.000854328
-0.000980142
-0.00112275
-0.00128387
-0.00146534
-0.00166907
-0.00189704
-0.0021513
-0.00243393
-0.00274704
-0.00309275
-0.00347313
-0.00389021
-0.00434592
-0.00484205
-0.00538025
-0.00596195
-0.00658831
-0.00726004
-0.00797499
-0.00868102
-0.00847698
-0.0911124
-0.089429
-0.0877616
-0.0861105
-0.0844759
-0.082858
-0.0812571
-0.0796734
-0.0781069
-0.076558
-0.0750268
-0.0735133
-0.0720177
-0.0705402
-0.0690808
-0.0676396
-0.0662167
-0.0648122
-0.063426
-0.0620584
-0.0607093
-0.0593787
-0.0580666
-0.0567732
-0.0554984
-0.0542422
-0.0530047
-0.0517857
-0.0505854
-0.0494037
-0.0482405
-0.0470959
-0.0459699
-0.0448623
-0.0437732
-0.0427024
-0.04165
-0.0406159
-0.0396
-0.0386023
-0.0376226
-0.0366609
-0.0357171
-0.0347912
-0.0338829
-0.0329922
-0.032119
-0.0312631
-0.0304245
-0.029603
-0.0287985
-0.0280109
-0.0272399
-0.0264855
-0.0257475
-0.0250257
-0.0243199
-0.0236301
-0.0229559
-0.0222973
-0.0216541
-0.021026
-0.0204129
-0.0198145
-0.0192308
-0.0186613
-0.0181061
-0.0175648
-0.0170372
-0.0165231
-0.0160223
-0.0155345
-0.0150596
-0.0145973
-0.0141474
-0.0137097
-0.0132839
-0.0128697
-0.012467
-0.0120756
-0.0116951
-0.0113255
-0.0109663
-0.0106175
-0.0102787
-0.00994978
-0.0096305
-0.00932061
-0.00901992
-0.00872818
-0.00844519
-0.00817074
-0.0079046
-0.00764658
-0.00739646
-0.00715404
-0.00691912
-0.0066915
-0.006471
-0.00625741
-0.00605054
-0.00585023
-0.00565628
-0.00546851
-0.00528676
-0.00511085
-0.00494061
-0.00477588
-0.00461651
-0.00446233
-0.00431319
-0.00416895
-0.00402945
-0.00389455
-0.00376412
-0.00363801
-0.00351611
-0.00339827
-0.00328437
-0.0031743
-0.00306792
-0.00296513
-0.00286581
-0.00276985
-0.00267715
-0.0025876
-0.00250109
-0.00241754
-0.00233685
-0.00225892
-0.00218367
-0.002111
-0.00204083
-0.00197308
-0.00190768
-0.00184454
-0.00178358
-0.00172474
-0.00166795
-0.00161313
-0.00156022
-0.00150916
-0.00145988
-0.00141232
-0.00136643
-0.00132215
-0.00127942
-0.00123819
-0.00119841
-0.00116003
-0.001123
-0.00108728
-0.00105281
-0.00101956
-0.000987487
-0.000956545
-0.000926696
-0.000897904
-0.000870129
-0.000843339
-0.000817496
-0.00079257
-0.000768526
-0.000745335
-0.000722966
-0.00070139
-0.000680579
-0.000660506
-0.000641146
-0.000622472
-0.000604461
-0.000587088
-0.000570332
-0.000554171
-0.000538582
-0.000523547
-0.000509045
-0.000495057
-0.000481566
-0.000468553
-0.000456001
-0.000443894
-0.000432217
-0.000420954
-0.000410091
-0.000399613
-0.000389506
-0.000379759
-0.000370358
-0.000361292
-0.000352547
-0.000344115
-0.000335983
-0.000328142
-0.000320581
-0.000313292
-0.000306264
-0.00029949
-0.000292961
-0.000286669
-0.000280606
-0.000274765
-0.000269139
-0.000263721
-0.000258506
-0.000253486
-0.000248656
-0.000244011
-0.000239546
-0.000235255
-0.000231133
-0.000227177
-0.000223381
-0.000219743
-0.000216259
-0.000212925
-0.000209737
-0.000206695
-0.000203793
-0.000201032
-0.000198407
-0.000195918
-0.000193563
-0.000191338
-0.000189244
-0.000187279
-0.000185443
-0.000183733
-0.000182151
-0.000180695
-0.000179368
-0.000178169
-0.0001771
-0.000176159
-0.000175349
-0.00017467
-0.000174126
-0.00017372
-0.000173455
-0.000173335
-0.000173365
-0.000173548
-0.000173892
-0.000174401
-0.000175084
-0.000175952
-0.000177023
-0.000178365
-0.000180403
-0.000183718
-0.000188418
-0.000194562
-0.000202166
-0.000211391
-0.000222416
-0.000235451
-0.000250737
-0.000268547
-0.000289193
-0.000313029
-0.000340449
-0.000371901
-0.000407881
-0.000448945
-0.000495713
-0.000548869
-0.00060917
-0.000677447
-0.000754613
-0.000841665
-0.000939684
-0.00104984
-0.00117339
-0.00131169
-0.00146617
-0.00163835
-0.00182984
-0.00204232
-0.00227753
-0.00253727
-0.00282339
-0.00313775
-0.00348223
-0.00385871
-0.00426901
-0.0047149
-0.00519807
-0.00572008
-0.00628235
-0.00688612
-0.00753239
-0.00822193
-0.0089552
-0.00973236
-0.0105532
-0.0114171
-0.0123228
-0.0132656
-0.014173
-0.0137116
-0.112149
-0.110512
-0.108889
-0.107281
-0.105686
-0.104106
-0.102539
-0.100985
-0.099446
-0.0979203
-0.0964081
-0.0949097
-0.0934249
-0.0919537
-0.0904962
-0.0890523
-0.0876221
-0.0862056
-0.0848028
-0.0834137
-0.0820384
-0.0806768
-0.079329
-0.077995
-0.0766747
-0.0753683
-0.0740757
-0.0727969
-0.071532
-0.070281
-0.0690439
-0.0678205
-0.066611
-0.0654154
-0.0642336
-0.0630658
-0.0619117
-0.0607715
-0.0596451
-0.0585326
-0.0574338
-0.0563487
-0.0552774
-0.0542199
-0.053176
-0.0521457
-0.0511291
-0.050126
-0.0491365
-0.0481606
-0.047198
-0.0462489
-0.0453132
-0.0443908
-0.0434817
-0.0425859
-0.0417032
-0.0408337
-0.0399772
-0.0391337
-0.0383032
-0.0374856
-0.0366808
-0.0358888
-0.0351094
-0.0343427
-0.0335886
-0.0328469
-0.0321177
-0.0314008
-0.0306961
-0.0300035
-0.0293231
-0.0286546
-0.0279979
-0.0273531
-0.0267199
-0.0260984
-0.0254882
-0.0248895
-0.024302
-0.0237256
-0.0231603
-0.0226059
-0.0220623
-0.0215294
-0.0210071
-0.0204952
-0.0199937
-0.0195023
-0.019021
-0.0185497
-0.0180881
-0.0176363
-0.0171941
-0.0167613
-0.0163378
-0.0159234
-0.0155182
-0.0151218
-0.0147342
-0.0143553
-0.0139849
-0.0136228
-0.0132691
-0.0129234
-0.0125858
-0.0122559
-0.0119339
-0.0116194
-0.0113123
-0.0110126
-0.0107201
-0.0104347
-0.0101562
-0.00988448
-0.00961946
-0.009361
-0.00910896
-0.00886323
-0.00862367
-0.00839017
-0.0081626
-0.00794084
-0.00772476
-0.00751426
-0.00730921
-0.0071095
-0.00691501
-0.00672563
-0.00654125
-0.00636177
-0.00618707
-0.00601705
-0.0058516
-0.00569062
-0.005534
-0.00538165
-0.00523347
-0.00508935
-0.0049492
-0.00481294
-0.00468045
-0.00455167
-0.00442648
-0.00430481
-0.00418657
-0.00407167
-0.00396003
-0.00385157
-0.00374621
-0.00364387
-0.00354448
-0.00344795
-0.00335421
-0.00326319
-0.00317482
-0.00308904
-0.00300576