/*--------------------------------*- C++ -*----------------------------------*\
| =========                 |                                                 |
| \\      /  F ield         | OpenFOAM: The Open Source CFD Toolbox           |
|  \\    /   O peration     | Version:  2.4.0                                 |
|   \\  /    A nd           | Web:      www.OpenFOAM.org                      |
|    \\/     M anipulation  |                                                 |
\*---------------------------------------------------------------------------*/
FoamFile
{
    version     2.0;
    format      ascii;
    class       volScalarField;
    location    "4.6";
    object      p_rgh;
}
// * * * * * * * * * * * * * * * * * * * * * * * * * * * * * * * * * * * * * //

dimensions      [1 -1 -2 0 0 0 0];

internalField   nonuniform List<scalar> 
8000
(
57.5392
57.5288
57.5155
57.5028
57.4828
57.4652
57.4454
57.4236
57.3998
57.3739
57.3457
57.3154
57.2828
57.2479
57.2107
57.171
57.1291
57.0848
57.0383
56.9897
56.9391
56.8869
56.8332
56.7784
56.7231
56.6679
56.6132
56.5603
56.5097
56.4631
56.4214
56.3866
56.3604
56.3459
56.3467
56.3675
56.4052
56.44
56.3454
56.0213
53.907
47.9867
38.6165
26.1646
14.6518
8.08671
4.65016
2.58131
1.51045
1.03138
58.1733
58.1714
58.1722
58.1721
58.1725
58.1741
58.1765
58.1797
58.1838
58.1888
58.1948
58.2019
58.21
58.2192
58.2295
58.2409
58.2535
58.2673
58.2822
58.2983
58.3154
58.3335
58.3526
58.3725
58.393
58.4142
58.4355
58.457
58.4781
58.4986
58.5178
58.5366
58.5565
58.5796
58.5913
58.535
58.1563
57.3383
53.2171
44.331
33.5884
22.5799
13.0231
6.29488
2.87289
1.63966
1.20973
0.931358
0.754351
0.709219
58.7769
58.7787
58.7826
58.7847
58.7875
58.7901
58.7927
58.7952
58.7976
58.7999
58.8021
58.8041
58.8061
58.8078
58.8094
58.8108
58.8119
58.8129
58.8135
58.814
58.8142
58.8143
58.814
58.8136
58.8129
58.8121
58.811
58.8098
58.8079
58.8073
58.8129
58.8305
58.8354
58.7058
57.9938
56.7062
49.8606
37.6606
24.782
14.1931
7.11197
3.4572
1.46947
0.892933
0.748638
0.703247
0.704249
0.708434
0.70888
0.708766
59.359
59.3633
59.3691
59.3737
59.379
59.3843
59.3897
59.3952
59.4009
59.4067
59.4127
59.4189
59.4254
59.4321
59.4393
59.4468
59.4547
59.4631
59.4721
59.4815
59.4917
59.5024
59.514
59.5261
59.5391
59.5522
59.5664
59.5828
59.6094
59.6484
59.6589
59.4521
58.5757
57.0805
46.1105
30.0177
16.1682
7.65679
2.93399
1.03331
0.653443
0.718489
0.714463
0.708911
0.709578
0.708948
0.708537
0.708433
0.708396
0.708297
59.9612
59.9666
59.9741
59.9802
59.9874
59.9947
60.0023
60.0101
60.0183
60.0267
60.0354
60.0445
60.0539
60.0636
60.0739
60.0845
60.0957
60.1072
60.1195
60.1322
60.1458
60.1598
60.1749
60.1898
60.2062
60.2256
60.2582
60.3023
60.2978
59.9238
58.7199
55.2515
39.243
20.8074
9.57914
1.55206
0.595799
0.622988
0.690808
0.698446
0.694055
0.692701
0.69279
0.692726
0.69276
0.692866
0.6929
0.692956
0.692993
0.692996
60.4253
60.4329
60.4421
60.4479
60.4536
60.4581
60.4615
60.4638
60.4651
60.4652
60.4644
60.4623
60.4594
60.4552
60.4502
60.4439
60.4369
60.4284
60.4195
60.4089
60.3979
60.3844
60.3709
60.3593
60.3633
60.3773
60.3111
59.7102
58.0892
51.7353
30.7017
13.7996
1.24678
0.667706
0.813965
0.683618
0.686879
0.683746
0.682154
0.682108
0.682285
0.682262
0.68277
0.682099
0.68215
0.68214
0.682069
0.681939
0.681758
0.68153
61.1304
61.1388
61.1486
61.1545
61.1598
61.1633
61.1654
61.1658
61.1649
61.1623
61.1584
61.1528
61.146
61.1374
61.1276
61.1161
61.1036
61.0891
61.0735
61.0549
61.0352
61.0188
61.0243
61.0481
60.9503
60.1318
58.0465
48.7274
25.4067
6.58621
0.572634
0.865813
0.716748
0.677138
0.68086
0.681163
0.680808
0.680816
0.680687
0.680753
0.680788
0.680758
0.681201
0.680626
0.680451
0.680255
0.680019
0.679747
0.679441
0.679107
62.0913
62.1016
62.1129
62.1192
62.1237
62.1254
62.1246
62.1211
62.1152
62.1066
62.0955
62.0817
62.0653
62.0459
62.024
61.999
61.9709
61.9383
61.9016
61.8668
61.8564
61.8789
61.7766
60.8879
58.5069
47.065
19.1272
1.74121
0.997726
1.0014
0.675242
0.683446
0.684946
0.684126
0.684128
0.684204
0.684156
0.684396
0.683931
0.683811
0.683684
0.683551
0.683382
0.683237
0.683016
0.682782
0.682516
0.682246
0.681967
0.681596
63.3282
63.3302
63.3316
63.3279
63.3228
63.3147
63.3042
63.2908
63.2747
63.2557
63.2338
63.2088
63.1807
63.1494
63.1145
63.0748
63.0298
62.985
62.9635
62.9833
62.903
62.1375
59.9221
48.6808
15.7703
0.53298
0.934645
0.875444
0.683944
0.687779
0.6866
0.686375
0.686442
0.686368
0.686262
0.68646
0.685958
0.685858
0.685746
0.685636
0.685525
0.685405
0.685272
0.68512
0.684965
0.684813
0.684594
0.684515
0.684245
0.683803
65.4592
65.4368
65.415
65.3952
65.3805
65.3686
65.3602
65.3546
65.3522
65.3529
65.3569
65.3641
65.3748
65.3877
65.4032
65.4258
65.4769
65.5701
65.5831
65.0206
63.0677
54.4714
17.7713
0.553151
0.867844
0.785618
0.682641
0.685684
0.685425
0.685383
0.685547
0.685626
0.685619
0.685601
0.685564
0.685548
0.685578
0.685468
0.685464
0.685375
0.685204
0.68504
0.684862
0.684648
0.684388
0.684078
0.683715
0.683298
0.682824
0.68229
67.2329
67.2154
67.2017
67.1921
67.1882
67.1881
67.1924
67.2009
67.2138
67.2312
67.2534
67.2798
67.3096
67.3447
67.4002
67.5049
67.6186
67.3737
65.9119
61.1216
22.6511
0.670212
0.789701
0.738682
0.68122
0.682361
0.682605
0.682625
0.683456
0.682774
0.68422
0.684324
0.683982
0.683651
0.683403
0.68326
0.683128
0.682958
0.682721
0.682426
0.682058
0.681619
0.681107
0.68052
0.679856
0.679117
0.678303
0.677416
0.67646
0.675437
66.6374
66.6356
66.628
66.6164
66.6011
66.5822
66.56
66.5345
66.5054
66.4728
66.4346
66.3915
66.3525
66.35
66.3886
66.2171
65.0365
62.3773
36.1017
1.52271
0.712573
0.706343
0.675584
0.674061
0.674425
0.674752
0.67517
0.674904
0.674938
0.675036
0.675139
0.675213
0.675212
0.675123
0.674941
0.674668
0.674301
0.673845
0.673311
0.67272
0.671921
0.67109
0.670175
0.669178
0.668105
0.66696
0.665747
0.664473
0.663142
0.661758
68.7366
68.7118
68.6828
68.6528
68.6199
68.5846
68.5463
68.5052
68.4602
68.4109
68.3585
68.3169
68.3059
68.2757
67.897
66.6289
58.8554
9.81021
0.674593
0.686848
0.670196
0.663889
0.663378
0.663364
0.663594
0.663806
0.663976
0.664096
0.664146
0.664119
0.664006
0.663801
0.6635
0.663097
0.662592
0.661985
0.66128
0.660479
0.659588
0.658611
0.657555
0.656425
0.655227
0.653964
0.652644
0.65127
0.649847
0.648377
0.646866
0.645315
70.0095
69.983
69.9512
69.92
69.888
69.8559
69.8229
69.7881
69.7516
69.7178
69.7044
69.7172
69.6306
69.0157
67.6769
41.5274
1.45291
0.665099
0.657558
0.655369
0.654129
0.653781
0.653777
0.65388
0.653935
0.653919
0.65382
0.653632
0.65335
0.65297
0.65249
0.651913
0.651239
0.650473
0.649619
0.648682
0.647668
0.646582
0.645431
0.644218
0.642949
0.641628
0.640258
0.638843
0.637384
0.635886
0.634348
0.632773
0.631161
0.629513
71.98
71.9532
71.9218
71.8924
71.8627
71.8335
71.8029
71.7708
71.746
71.7529
71.7909
71.6445
70.6883
68.8984
26.054
0.777289
0.646
0.644881
0.644788
0.64493
0.645073
0.645129
0.645103
0.644995
0.644801
0.644514
0.64413
0.643648
0.64307
0.642399
0.641639
0.640796
0.639876
0.638884
0.637825
0.636705
0.635529
0.6343
0.633022
0.631697
0.630329
0.628918
0.627466
0.625974
0.624442
0.62287
0.621259
0.619607
0.617916
0.616184
73.7506
73.7224
73.6898
73.6605
73.6317
73.6036
73.575
73.5552
73.5698
73.617
73.4672
72.464
70.6234
21.0374
0.684646
0.63879
0.63849
0.638545
0.638638
0.638675
0.638637
0.638518
0.638315
0.63802
0.637632
0.637149
0.636575
0.635911
0.635163
0.634337
0.633438
0.63247
0.63144
0.630352
0.629209
0.628016
0.626774
0.625486
0.624153
0.622776
0.621355
0.619892
0.618384
0.616834
0.61524
0.613601
0.611918
0.610189
0.608415
0.606595
75.2885
75.2631
75.2333
75.2061
75.1787
75.1519
75.1311
75.1357
75.1667
75.0624
74.3375
72.9458
22.6427
0.658729
0.637944
0.637751
0.637669
0.637635
0.637569
0.637435
0.637222
0.636924
0.636537
0.63606
0.635493
0.634838
0.634101
0.633285
0.632395
0.631438
0.630418
0.62934
0.628207
0.627024
0.625791
0.624512
0.623188
0.621818
0.620404
0.618946
0.617443
0.615895
0.614302
0.612663
0.610978
0.609246
0.607467
0.605641
0.603767
0.601845
76.8656
76.8395
76.8099
76.782
76.7544
76.7315
76.7271
76.7465
76.6817
76.1683
75.0653
27.6332
0.655275
0.64466
0.644441
0.644228
0.644052
0.643847
0.643572
0.643213
0.642764
0.642221
0.641582
0.64085
0.640029
0.639123
0.638139
0.637083
0.635963
0.634784
0.633552
0.632271
0.630944
0.629575
0.628166
0.626716
0.625228
0.6237
0.622133
0.620526
0.618878
0.617189
0.615458
0.613685
0.611869
0.61001
0.608107
0.60616
0.604168
0.602131
78.1134
78.0732
78.0284
77.9879
77.9554
77.9454
77.963
77.8985
77.3801
76.2628
28.1083
0.659368
0.656765
0.656281
0.655896
0.655582
0.655239
0.654814
0.65429
0.653659
0.652918
0.652066
0.651106
0.650045
0.648891
0.647653
0.64634
0.644962
0.64353
0.642051
0.640532
0.63898
0.637397
0.635786
0.634149
0.632487
0.630799
0.629084
0.627341
0.62557
0.623768
0.621936
0.620071
0.618173
0.616241
0.614274
0.612271
0.610232
0.608157
0.606044
79.5755
79.5146
79.4518
79.4023
79.3819
79.3913
79.2989
78.6931
77.4819
25.3723
0.665222
0.666509
0.665419
0.664897
0.66463
0.664353
0.663991
0.663526
0.662948
0.662251
0.661428
0.660478
0.659402
0.658206
0.6569
0.655498
0.654011
0.652455
0.650841
0.649182
0.647489
0.645768
0.644026
0.642269
0.640497
0.638713
0.636915
0.635105
0.63328
0.631438
0.629579
0.6277
0.6258
0.623877
0.621931
0.61996
0.617963
0.615939
0.613887
0.611807
0.827776
0.746155
0.71695
0.707446
0.704224
0.703072
0.702758
0.702659
0.702569
0.702471
0.702361
0.702229
0.702087
0.701918
0.701753
0.701583
0.701385
0.701202
0.700991
0.700771
0.700637
0.701476
0.7009
0.700219
0.699625
0.699128
0.69863
0.698092
0.697942
0.697069
0.696283
0.695529
0.694733
0.693875
0.692947
0.691946
0.690869
0.689712
0.688473
0.687149
0.685738
0.684238
0.682647
0.680966
0.679193
0.677328
0.675371
0.673323
0.671186
0.668958
0.703717
0.70381
0.703788
0.703579
0.703305
0.703002
0.702666
0.702301
0.701861
0.701436
0.700973
0.700502
0.700069
0.699476
0.698863
0.698217
0.69761
0.696992
0.696382
0.695811
0.695261
0.694931
0.694
0.693265
0.693406
0.692592
0.692229
0.691936
0.691435
0.690843
0.690235
0.689742
0.689351
0.689025
0.688749
0.688523
0.688347
0.688221
0.688152
0.688125
0.688129
0.688152
0.688184
0.688213
0.688226
0.688211
0.688154
0.688043
0.687866
0.687609
0.708628
0.708492
0.708328
0.70812
0.707866
0.707583
0.707248
0.706917
0.7065
0.705748
0.705223
0.704683
0.704097
0.703468
0.702802
0.7021
0.701366
0.700605
0.699823
0.699022
0.698206
0.69738
0.696565
0.695759
0.69497
0.694202
0.693478
0.692902
0.692753
0.691323
0.690865
0.690455
0.690218
0.690187
0.690065
0.690241
0.69058
0.691049
0.691688
0.692449
0.693322
0.6943
0.695376
0.696537
0.697769
0.699055
0.700379
0.701721
0.703063
0.704379
0.708191
0.708064
0.707915
0.707741
0.70754
0.707296
0.707076
0.706881
0.706326
0.706009
0.705677
0.705336
0.704993
0.704647
0.704332
0.704022
0.703643
0.703345
0.703065
0.702885
0.702636
0.702507
0.702398
0.702343
0.702367
0.702424
0.702435
0.702608
0.70286
0.703182
0.703579
0.704056
0.704649
0.705415
0.705814
0.706612
0.707519
0.708517
0.709627
0.710875
0.71219
0.713639
0.715215
0.716902
0.71869
0.720571
0.722536
0.724699
0.72658
0.728697
0.692964
0.692895
0.692791
0.692656
0.692497
0.69232
0.692135
0.691944
0.691762
0.691598
0.691457
0.691349
0.691281
0.691261
0.691298
0.691403
0.691579
0.691832
0.69217
0.692602
0.69314
0.693788
0.694551
0.695432
0.696434
0.697557
0.698804
0.700173
0.701661
0.703268
0.704989
0.706818
0.70875
0.710777
0.712891
0.715084
0.717345
0.719663
0.722027
0.724423
0.72684
0.729264
0.73168
0.734074
0.736431
0.738738
0.740979
0.743137
0.745183
0.747142
0.681262
0.680962
0.680637
0.680297
0.679948
0.679599
0.679259
0.678937
0.678645
0.678389
0.678263
0.678006
0.677899
0.677879
0.678033
0.678076
0.678316
0.678689
0.679262
0.679829
0.680546
0.68146
0.682335
0.683428
0.684662
0.685973
0.687464
0.689071
0.690747
0.692586
0.69453
0.696516
0.698645
0.70086
0.703108
0.705462
0.707878
0.710296
0.71279
0.715309
0.717816
0.720349
0.722877
0.725386
0.727867
0.73031
0.732703
0.735037
0.737299
0.739489
0.67875
0.678376
0.678001
0.677613
0.677346
0.676842
0.676474
0.676147
0.675844
0.67573
0.675376
0.675209
0.675089
0.675041
0.675083
0.675229
0.675396
0.675689
0.676086
0.676566
0.677172
0.677853
0.678644
0.679547
0.680534
0.681608
0.682746
0.683992
0.68532
0.686708
0.688161
0.689672
0.691226
0.69282
0.694444
0.69609
0.697747
0.699407
0.701062
0.702702
0.70432
0.705908
0.707457
0.708957
0.710404
0.711792
0.713112
0.71436
0.715527
0.716614
0.681301
0.6809
0.680532
0.68012
0.679713
0.679314
0.678916
0.678513
0.678147
0.677761
0.677407
0.677097
0.676821
0.676614
0.676454
0.676291
0.676138
0.676056
0.676039
0.67608
0.676172
0.676317
0.676514
0.67676
0.677055
0.677409
0.677803
0.678187
0.678629
0.679115
0.679627
0.680166
0.680735
0.681295
0.681866
0.682446
0.683025
0.683598
0.684163
0.684717
0.685248
0.685752
0.686231
0.68668
0.687095
0.687471
0.687805
0.688093
0.688332
0.68852
0.683415
0.683044
0.682582
0.682255
0.68179
0.681266
0.680764
0.68023
0.679609
0.679045
0.678454
0.677857
0.6773
0.676686
0.676042
0.675424
0.674813
0.674208
0.673611
0.673024
0.672448
0.671885
0.671334
0.670796
0.670271
0.66976
0.66926
0.668773
0.668297
0.66783
0.667372
0.66692
0.666473
0.666031
0.665594
0.665173
0.664713
0.664265
0.663811
0.663348
0.662875
0.662389
0.661889
0.661373
0.660837
0.660281
0.659702
0.659099
0.658469
0.657811
0.681696
0.681044
0.680337
0.679575
0.678764
0.677904
0.676996
0.676073
0.675087
0.673971
0.672891
0.671804
0.670695
0.669566
0.66842
0.667259
0.666088
0.664909
0.663723
0.662535
0.661344
0.660153
0.658964
0.657776
0.656591
0.65541
0.654233
0.653059
0.65189
0.650724
0.649563
0.648404
0.647247
0.646092
0.644938
0.643784
0.642628
0.64147
0.640309
0.639143
0.637971
0.636791
0.635603
0.634405
0.633195
0.631971
0.630733
0.62948
0.628208
0.626918
0.67435
0.673204
0.672003
0.67075
0.669451
0.668109
0.666728
0.665313
0.663866
0.662392
0.660894
0.659374
0.657836
0.656282
0.654714
0.653135
0.651545
0.649946
0.648341
0.646729
0.645112
0.643491
0.641866
0.640237
0.638605
0.63697
0.635332
0.633691
0.632047
0.630399
0.628746
0.62709
0.625428
0.62376
0.622086
0.620405
0.618716
0.617019
0.615312
0.613595
0.611866
0.610126
0.608372
0.606605
0.604823
0.603026
0.601212
0.599381
0.597533
0.595665
0.660326
0.65885
0.657334
0.655781
0.654195
0.652578
0.650934
0.649263
0.647569
0.645853
0.644117
0.642362
0.640589
0.638798
0.636992
0.63517
0.633333
0.63148
0.629614
0.627733
0.625837
0.623927
0.622003
0.620064
0.61811
0.616142
0.614158
0.61216
0.610145
0.608114
0.606068
0.604005
0.601924
0.599827
0.597712
0.59558
0.593429
0.59126
0.589072
0.586865
0.584639
0.582393
0.580126
0.57784
0.575533
0.573205
0.570856
0.568486
0.566095
0.563682
0.643728
0.642106
0.640451
0.638765
0.637049
0.635303
0.63353
0.631729
0.6299
0.628045
0.626163
0.624254
0.622319
0.620358
0.618369
0.616354
0.614313
0.612244
0.610149
0.608027
0.605877
0.6037
0.601496
0.599265
0.597006
0.59472
0.592407
0.590065
0.587697
0.585301
0.582877
0.580425
0.577946
0.57544
0.572906
0.570345
0.567756
0.56514
0.562496
0.559825
0.557128
0.554403
0.551652
0.548873
0.546069
0.543238
0.540381
0.537498
0.53459
0.531657
0.62783
0.626112
0.624358
0.62257
0.620747
0.618888
0.616994
0.615065
0.613099
0.611098
0.60906
0.606986
0.604876
0.602728
0.600544
0.598323
0.596065
0.593769
0.591437
0.589067
0.58666
0.584216
0.581735
0.579217
0.576661
0.574069
0.571439
0.568773
0.566071
0.563331
0.560555
0.557743
0.554895
0.552011
0.549092
0.546137
0.543147
0.540123
0.537064
0.53397
0.530844
0.527684
0.524492
0.521267
0.518011
0.514724
0.511406
0.508059
0.504683
0.501279
0.614412
0.612598
0.610743
0.608846
0.606906
0.604924
0.602899
0.600831
0.598719
0.596564
0.594365
0.592122
0.589835
0.587503
0.585128
0.582707
0.580243
0.577734
0.57518
0.572582
0.56994
0.567253
0.564522
0.561747
0.558927
0.556064
0.553156
0.550205
0.547211
0.544173
0.541093
0.537971
0.534806
0.531599
0.528352
0.525064
0.521735
0.518368
0.514961
0.511516
0.508035
0.504516
0.500962
0.497374
0.493752
0.490098
0.486412
0.482696
0.478951
0.475179
0.604729
0.602816
0.600856
0.598849
0.596794
0.594691
0.592541
0.590342
0.588094
0.585799
0.583454
0.581061
0.578619
0.576127
0.573587
0.570998
0.568359
0.565672
0.562935
0.560149
0.557315
0.554432
0.5515
0.548519
0.545491
0.542414
0.53929
0.536118
0.5329
0.529635
0.526325
0.522969
0.519569
0.516124
0.512637
0.509107
0.505535
0.501923
0.498272
0.494583
0.490856
0.487094
0.483297
0.479468
0.475606
0.471715
0.467795
0.463849
0.459878
0.455883
0.599874
0.597855
0.595787
0.59367
0.591504
0.589288
0.587022
0.584707
0.582341
0.579926
0.57746
0.574944
0.572378
0.569761
0.567094
0.564377
0.561609
0.558791
0.555922
0.553004
0.550035
0.547017
0.543949
0.540832
0.537666
0.534452
0.53119
0.52788
0.524524
0.521121
0.517673
0.51418
0.510643
0.507064
0.503442
0.49978
0.496079
0.492339
0.488563
0.484751
0.480906
0.477028
0.47312
0.469183
0.465219
0.46123
0.457219
0.453186
0.449134
0.445065
0.600048
0.597921
0.595747
0.593528
0.591262
0.588949
0.58659
0.584183
0.58173
0.579229
0.576681
0.574085
0.571441
0.568749
0.566009
0.563222
0.560386
0.557503
0.554572
0.551593
0.548566
0.545492
0.542372
0.539204
0.53599
0.53273
0.529425
0.526075
0.522681
0.519244
0.515764
0.512243
0.508681
0.505079
0.501439
0.497762
0.494049
0.490302
0.486523
0.482712
0.478871
0.475003
0.471109
0.467191
0.463252
0.459292
0.455314
0.45132
0.447313
0.443304
0.603893
0.601703
0.599475
0.597207
0.5949
0.592552
0.590164
0.587735
0.585264
0.582752
0.580198
0.577602
0.574963
0.572281
0.569557
0.56679
0.563979
0.561125
0.558228
0.555288
0.552304
0.549278
0.546209
0.543097
0.539944
0.536748
0.533511
0.530234
0.526916
0.523559
0.520163
0.51673
0.51326
0.509754
0.506214
0.50264
0.499035
0.495399
0.491733
0.488041
0.484322
0.48058
0.476814
0.473029
0.469225
0.465404
0.461569
0.457721
0.453864
0.449998
0.609697
0.607557
0.605386
0.603183
0.600949
0.598681
0.59638
0.594045
0.591675
0.589271
0.58683
0.584354
0.581841
0.579291
0.576704
0.574079
0.571416
0.568715
0.565976
0.563199
0.560383
0.557528
0.554635
0.551704
0.548735
0.545727
0.542683
0.539601
0.536482
0.533328
0.530138
0.526913
0.523654
0.520363
0.517039
0.513684
0.5103
0.506886
0.503446
0.499979
0.496488
0.492974
0.489438
0.485883
0.48231
0.47872
0.475116
0.4715
0.467876
0.464243
0.66721
0.665957
0.664639
0.66328
0.661893
0.660476
0.659027
0.657544
0.656028
0.654479
0.652897
0.651282
0.649633
0.647951
0.646236
0.644488
0.642706
0.640891
0.639042
0.63716
0.635245
0.633296
0.631314
0.629299
0.62725
0.625169
0.623054
0.620906
0.618726
0.616512
0.614265
0.611986
0.609673
0.607329
0.604951
0.602541
0.600098
0.597622
0.595114
0.592574
0.590001
0.587396
0.584758
0.582088
0.579386
0.576651
0.573884
0.571085
0.568254
0.56539
0.562494
0.559567
0.556607
0.553615
0.550591
0.547535
0.544448
0.541329
0.538178
0.534996
0.531782
0.528537
0.525261
0.521954
0.518616
0.515248
0.511849
0.508421
0.504962
0.501474
0.497957
0.49441
0.490835
0.487232
0.483601
0.479942
0.476256
0.472543
0.468805
0.46504
0.46125
0.457435
0.453597
0.449734
0.445849
0.441941
0.438011
0.43406
0.430089
0.426097
0.422087
0.418058
0.414012
0.409949
0.40587
0.401775
0.397666
0.393543
0.389408
0.38526
0.381102
0.376933
0.372755
0.368568
0.364374
0.360173
0.355967
0.351756
0.347541
0.343323
0.339103
0.334883
0.330662
0.326442
0.322224
0.318009
0.313798
0.309591
0.305391
0.301197
0.297011
0.292833
0.288665
0.284507
0.280361
0.276227
0.272106
0.268
0.263909
0.259833
0.255775
0.251734
0.247711
0.243708
0.239726
0.235764
0.231824
0.227907
0.224013
0.220143
0.216298
0.212479
0.208686
0.204919
0.20118
0.19747
0.193788
0.190135
0.186512
0.182919
0.179358
0.175827
0.172329
0.168862
0.165428
0.162027
0.158659
0.155325
0.152024
0.148757
0.145525
0.142327
0.139163
0.136034
0.132939
0.129879
0.126854
0.123863
0.120907
0.117985
0.115098
0.112244
0.109425
0.106639
0.103886
0.101166
0.0984792
0.0958243
0.0932014
0.0906098
0.0880491
0.0855188
0.0830185
0.0805475
0.0781052
0.0756911
0.0733046
0.0709448
0.0686113
0.0663032
0.06402
0.0617608
0.0595251
0.0573119
0.0551207
0.0529504
0.0508009
0.0486711
0.0465607
0.0444687
0.0423937
0.0403349
0.038292
0.0362639
0.0342499
0.0322507
0.0302653
0.0282922
0.0263316
0.0243808
0.0224413
0.0205114
0.0185908
0.0166789
0.0147752
0.0128794
0.0109911
0.00910944
0.00723643
0.00536734
0.00350474
0.00166626
-0.000175231
-0.00203583
-0.00383899
-0.00568673
-0.00746881
-0.00932422
-0.0111259
-0.0129167
-0.0147103
-0.0162777
-0.0181351
-0.0199242
-0.0216674
-0.0233933
-0.0251077
-0.0268081
-0.028493
-0.0301628
-0.0317998
-0.0334337
-0.0350933
-0.036707
-0.0382861
-0.0398447
-0.0413702
-0.0428371
-0.0443451
-0.0457982
-0.0472188
-0.0486185
-0.049636
-0.0510992
-0.0524392
-0.0536574
-0.0548065
-0.0559071
-0.0569561
-0.0579498
-0.0588835
-0.0597487
-0.0605461
-0.0612746
-0.0619255
-0.0624816
-0.062983
-0.0634185
-0.0637429
-0.063997
-0.0641305
-0.064187
-0.0641497
-0.0640022
-0.0637403
-0.0633635
-0.0628714
-0.0622602
-0.0615253
-0.0606628
-0.0596685
-0.0585325
-0.057261
-0.0558548
-0.0542936
-0.0525755
-0.0506984
-0.0486572
-0.0464463
-0.0440595
-0.0414907
-0.0387327
-0.0357784
-0.0326192
-0.0292488
-0.0256492
-0.0218421
-0.0176927
-0.0135866
-0.00759133
0.687351
0.687125
0.686843
0.686525
0.686174
0.685786
0.685357
0.684886
0.68437
0.683809
0.6832
0.682542
0.681834
0.681075
0.680262
0.679395
0.678474
0.677496
0.676461
0.675369
0.674219
0.67301
0.671742
0.670415
0.669028
0.667582
0.666075
0.664509
0.662882
0.661197
0.659451
0.657647
0.655783
0.653861
0.651881
0.649843
0.647748
0.645596
0.643388
0.641124
0.638805
0.636432
0.634005
0.631525
0.628993
0.626409
0.623774
0.621088
0.618353
0.615569
0.612736
0.609856
0.606929
0.603956
0.600937
0.597873
0.594765
0.591614
0.58842
0.585183
0.581905
0.578586
0.575227
0.571829
0.568391
0.564915
0.561402
0.557851
0.554264
0.550642
0.546984
0.543293
0.539567
0.535808
0.532017
0.528194
0.52434
0.520455
0.516541
0.512597
0.508625
0.504625
0.500598
0.496544
0.492465
0.488361
0.484233
0.480081
0.475906
0.471709
0.467491
0.463253
0.458995
0.454718
0.450423
0.44611
0.441782
0.437438
0.433079
0.428706
0.42432
0.419923
0.415514
0.411095
0.406667
0.402231
0.397787
0.393337
0.388881
0.384421
0.379957
0.37549
0.371022
0.366554
0.362085
0.357619
0.353154
0.348693
0.344236
0.339784
0.335339
0.330901
0.326472
0.322052
0.317642
0.313243
0.308856
0.304483
0.300123
0.295779
0.29145
0.287139
0.282845
0.27857
0.274314
0.270079
0.265865
0.261673
0.257504
0.253359
0.249238
0.245143
0.241074
0.237031
0.233016
0.229029
0.225071
0.221142
0.217243
0.213375
0.209539
0.205734
0.201961
0.198221
0.194514
0.190841
0.187202
0.183598
0.180028
0.176494
0.172995
0.169532
0.166105
0.162714
0.159359
0.156041
0.152759
0.149514
0.146306
0.143134
0.139999
0.136901
0.13384
0.130815
0.127826
0.124873
0.121957
0.119076
0.116231
0.113421
0.110646
0.107906
0.1052
0.102528
0.0998892
0.0972836
0.0947105
0.0921696
0.0896603
0.0871821
0.0847346
0.0823171
0.0799292
0.0775703
0.0752399
0.0729372
0.0706618
0.0684132
0.0661907
0.0639938
0.0618218
0.059674
0.05755
0.055449
0.0533706
0.0513143
0.0492795
0.047266
0.0452733
0.0433005
0.041347
0.0394124
0.0374964
0.0355985
0.0337183
0.0318557
0.0300101
0.0281814
0.0263693
0.0245738
0.0227952
0.0210339
0.0192885
0.0175595
0.0158466
0.0141496
0.012469
0.0108074
0.00916343
0.00753615
0.00592624
0.0043328
0.00279568
0.00122322
-0.0003198
-0.00183413
-0.00332979
-0.00480466
-0.00625846
-0.00768875
-0.00909726
-0.0104834
-0.0118442
-0.0131791
-0.0144866
-0.0157658
-0.0170156
-0.0182337
-0.0194168
-0.0205627
-0.0216693
-0.0227343
-0.0237576
-0.0247371
-0.0256548
-0.026581
-0.0274351
-0.0282361
-0.0289868
-0.0296849
-0.0303276
-0.030912
-0.0314357
-0.0318991
-0.0322985
-0.0326308
-0.0328933
-0.0330842
-0.0332009
-0.0332413
-0.0332023
-0.0330813
-0.0328765
-0.0325856
-0.0322062
-0.0317355
-0.0311713
-0.030511
-0.0297522
-0.0288924
-0.0279291
-0.0268596
-0.0256809
-0.0243896
-0.0229827
-0.0214568
-0.0198083
-0.0180331
-0.0161268
-0.0140844
-0.0119005
-0.0095691
-0.00708359
-0.0044359
-0.00161964
0.00138251
0.00455279
0.00801638
0.0114264
0.0165704
0.705342
0.70599
0.706616
0.707223
0.707806
0.70836
0.708882
0.709369
0.709816
0.710221
0.71058
0.710891
0.711149
0.711352
0.711497
0.71158
0.7116
0.711554
0.711439
0.711253
0.710994
0.71066
0.71025
0.709761
0.709192
0.708543
0.707811
0.706997
0.706102
0.705133
0.704134
0.702977
0.701718
0.70039
0.698981
0.697486
0.695906
0.694242
0.692494
0.690663
0.688749
0.686753
0.684676
0.68252
0.680284
0.677971
0.675581
0.673116
0.670576
0.667963
0.665277
0.662522
0.659698
0.656807
0.653848
0.650825
0.647739
0.644589
0.64138
0.63811
0.634784
0.631407
0.62796
0.624466
0.620919
0.617321
0.613673
0.609976
0.606232
0.602441
0.598606
0.594727
0.590805
0.586842
0.582839
0.578798
0.574718
0.570602
0.566451
0.562265
0.558046
0.553796
0.549514
0.545203
0.540862
0.536495
0.5321
0.52768
0.523235
0.518767
0.514277
0.509765
0.505232
0.500681
0.496112
0.491525
0.486922
0.482304
0.477672
0.473026
0.468369
0.4637
0.459021
0.454333
0.449637
0.444934
0.440224
0.43551
0.430791
0.426069
0.421345
0.41662
0.411895
0.40717
0.402448
0.397729
0.393013
0.388303
0.383598
0.378901
0.374212
0.369531
0.364861
0.360201
0.355553
0.350918
0.346297
0.341691
0.3371
0.332526
0.32797
0.323432
0.318914
0.314415
0.309938
0.305484
0.301052
0.296643
0.29226
0.287901
0.283569
0.279264
0.274986
0.270737
0.266517
0.262326
0.258166
0.254038
0.249941
0.245876
0.241845
0.237847
0.233883
0.229954
0.22606
0.222202
0.218379
0.214593
0.210844
0.207133
0.203459
0.199823
0.196225
0.192666
0.189145
0.185663
0.182221
0.178817
0.175454
0.172129
0.168844
0.165599
0.162393
0.159227
0.156101
0.153014
0.149966
0.146957
0.143988
0.141057
0.138166
0.135312
0.132497
0.12972
0.126981
0.124278
0.121613
0.118985
0.116392
0.113836
0.111315
0.108829
0.106377
0.10396
0.101577
0.0992262
0.0969088
0.0946236
0.0923702
0.0901482
0.0879571
0.0857964
0.0836655
0.0815641
0.0794916
0.0774476
0.0754317
0.0734434
0.0714824
0.0695481
0.0676402
0.0657582
0.0639019
0.0620709
0.0602649
0.0584836
0.0567267
0.054994
0.0532853
0.0516004
0.0499392
0.0483017
0.0466878
0.0450979
0.0435318
0.041989
0.0404696
0.0389741
0.0375027
0.0360553
0.034632
0.033233
0.0318589
0.0305105
0.0291879
0.0278908
0.0266194
0.0253744
0.0241564
0.0229658
0.0218035
0.0206705
0.0195676
0.0184955
0.0174548
0.0164464
0.0154718
0.0145332
0.0136323
0.0127686
0.0119406
0.0111489
0.010395
0.00968034
0.00900661
0.00837592
0.0077887
0.00724563
0.00674791
0.00629688
0.00589386
0.0055401
0.00523686
0.00498535
0.00478674
0.00464217
0.0045529
0.0045202
0.00454486
0.0046278
0.00477015
0.00497321
0.00523807
0.00556546
0.00595629
0.00641161
0.00693233
0.00751933
0.00817351
0.0088958
0.00968713
0.0105485
0.0114809
0.0124854
0.0135632
0.0147153
0.0159432
0.0172481
0.0186317
0.0200959
0.0216427
0.0232745
0.0249939
0.0268049
0.0287101
0.0307195
0.0328214
0.0350982
0.0373202
0.0407579
0.730466
0.731642
0.732987
0.733969
0.735147
0.736266
0.73721
0.738269
0.739304
0.740328
0.741283
0.74224
0.743116
0.743965
0.744765
0.745506
0.746265
0.746879
0.747405
0.747875
0.748275
0.748607
0.748865
0.749129
0.749199
0.749145
0.749099
0.748882
0.748632
0.748247
0.747747
0.747163
0.746482
0.745702
0.744819
0.74385
0.742764
0.741502
0.740193
0.738784
0.737272
0.735655
0.733935
0.732111
0.730185
0.728158
0.726031
0.723804
0.721487
0.719085
0.716638
0.713925
0.711208
0.708413
0.705531
0.70256
0.699507
0.696372
0.693303
0.689934
0.686542
0.68309
0.679564
0.675965
0.672299
0.668565
0.664767
0.660906
0.656984
0.653003
0.648965
0.644872
0.640726
0.63653
0.632285
0.627995
0.623662
0.619282
0.61484
0.610374
0.605872
0.601334
0.59676
0.592154
0.587515
0.582847
0.57815
0.573426
0.568676
0.563902
0.559105
0.554286
0.549449
0.544594
0.539721
0.534833
0.529931
0.525015
0.520087
0.515148
0.5102
0.505243
0.500279
0.495308
0.490333
0.485353
0.480371
0.475387
0.470403
0.465419
0.460436
0.455455
0.450478
0.445506
0.440539
0.435578
0.430626
0.425683
0.42075
0.415828
0.410917
0.40602
0.401137
0.396268
0.391415
0.386579
0.381762
0.376963
0.372184
0.367426
0.362693
0.357985
0.353281
0.348614
0.343974
0.33936
0.334773
0.330215
0.325685
0.321184
0.316714
0.312275
0.307867
0.303493
0.299151
0.294844
0.290571
0.286334
0.282132
0.277967
0.273839
0.269749
0.265696
0.261683
0.257709
0.253774
0.249879
0.246025
0.242212
0.23844
0.234709
0.23102
0.227374
0.223769
0.220208
0.216688
0.213212
0.209779
0.206389
0.203043
0.199739
0.196479
0.193262
0.190089
0.186959
0.183872
0.180828
0.177827
0.174869
0.171954
0.169082
0.166251
0.163463
0.160716
0.158011
0.155347
0.152724
0.150142
0.1476
0.145097
0.142635
0.140211
0.137826
0.13548
0.133171
0.1309
0.128666
0.126469
0.124307
0.122182
0.120091
0.118036
0.116015
0.114027
0.112074
0.110153
0.108265
0.106409
0.104585
0.102793
0.101031
0.0993003
0.0975997
0.0959291
0.0942881
0.0926764
0.0910938
0.08954
0.0880148
0.0865179
0.0850492
0.0836085
0.0821957
0.0808107
0.0794533
0.0781236
0.0768213
0.0755466
0.0742994
0.0730799
0.0718879
0.0707237
0.0695873
0.0684789
0.0673987
0.0663469
0.0653236
0.0643291
0.0633636
0.0624276
0.0615215
0.0606455
0.0598003
0.0589864
0.0582042
0.0574546
0.056737
0.0560511
0.0553969
0.0547751
0.0541859
0.05363
0.0531079
0.0526198
0.0521664
0.0517479
0.0513648
0.0510174
0.0507059
0.0504308
0.0501923
0.0499907
0.0498263
0.0496994
0.04961
0.0495584
0.0495446
0.0495688
0.049631
0.0497311
0.0498691
0.0500448
0.050258
0.0505082
0.0507952
0.0511183
0.0514769
0.0518701
0.052297
0.0527565
0.0532471
0.0537674
0.0543153
0.0548886
0.055485
0.0561014
0.0567348
0.0573812
0.0580365
0.0586969
0.0593569
0.0600111
0.0606537
0.0612787
0.0618802
0.0624513
0.0629874
0.0634867
0.0639284
0.0645531
0.74861
0.749621
0.750611
0.751559
0.752471
0.753355
0.754181
0.754976
0.755728
0.756439
0.757106
0.757728
0.758303
0.758831
0.75931
0.759741
0.760116
0.760437
0.760706
0.760917
0.761093
0.761295
0.761284
0.761292
0.761249
0.761151
0.761005
0.760801
0.760541
0.760223
0.759846
0.759421
0.758915
0.75834
0.757704
0.757
0.756225
0.755378
0.754463
0.753476
0.752421
0.751323
0.750085
0.748754
0.747357
0.745882
0.744321
0.742674
0.740947
0.739151
0.737352
0.735345
0.733224
0.731031
0.728761
0.726404
0.723958
0.721426
0.718819
0.716137
0.713309
0.710398
0.707418
0.704353
0.701203