/*--------------------------------*- C++ -*----------------------------------*\
| =========                 |                                                 |
| \\      /  F ield         | OpenFOAM: The Open Source CFD Toolbox           |
|  \\    /   O peration     | Version:  2.4.0                                 |
|   \\  /    A nd           | Web:      www.OpenFOAM.org                      |
|    \\/     M anipulation  |                                                 |
\*---------------------------------------------------------------------------*/
FoamFile
{
    version     2.0;
    format      ascii;
    class       volScalarField;
    location    "2.8";
    object      alpha1;
}
// * * * * * * * * * * * * * * * * * * * * * * * * * * * * * * * * * * * * * //

dimensions      [0 0 0 0 0 0 0];

internalField   nonuniform List<scalar> 
8000
(
1
1
1
1
1
1
1
1
1
1
1
1
1
1
1
1
1
0.999999
0.999999
0.999999
0.999999
0.999999
0.999999
0.999996
0.999407
0.732587
0.138216
0.0104209
0.000557287
1.32478e-05
1.50158e-06
5.40715e-08
1.08715e-08
1.2789e-08
1.57675e-08
1.92466e-08
2.31811e-08
2.75456e-08
3.23222e-08
3.74958e-08
4.30522e-08
4.89766e-08
5.52534e-08
6.18665e-08
6.88001e-08
7.60397e-08
8.35733e-08
9.13918e-08
9.94878e-08
1.07854e-07
1
1
1
1
1
1
1
1
1
1
1
1
1
1
1
1
0.999999
0.999999
0.999999
0.999999
0.999999
0.999999
0.999769
0.953904
0.388418
0.0505164
0.00321269
1.30308e-05
1.45478e-07
5.10238e-08
2.12149e-08
2.2356e-08
2.83726e-08
3.51373e-08
4.25768e-08
5.06776e-08
5.94129e-08
6.87456e-08
7.86243e-08
8.9e-08
9.9828e-08
1.11065e-07
1.22671e-07
1.3461e-07
1.46857e-07
1.59394e-07
1.72212e-07
1.85307e-07
1.98674e-07
2.12302e-07
1
1
1
1
1
1
1
1
1
1
1
1
1
1
0.999999
0.999999
0.999999
0.999999
0.999999
0.999999
0.999886
0.998842
0.612474
0.106944
0.00354655
8.06481e-05
3.94244e-05
5.54482e-07
6.48213e-08
2.27716e-08
2.72683e-08
3.54285e-08
4.49723e-08
5.59625e-08
6.84211e-08
8.2297e-08
9.75352e-08
1.14136e-07
1.31736e-07
1.49908e-07
1.68487e-07
1.87319e-07
2.06261e-07
2.25218e-07
2.4413e-07
2.62973e-07
2.81743e-07
3.00451e-07
3.19109e-07
3.37731e-07
1
1
1
1
1
1
1
1
1
1
1
1
0.999999
0.999999
0.999999
0.999999
0.999999
0.999999
0.999906
0.998855
0.739681
0.157086
0.00383468
0.00124727
5.10223e-05
2.4862e-07
2.54834e-07
1.44519e-07
3.88456e-08
4.16583e-08
5.45414e-08
7.01808e-08
8.83504e-08
1.08794e-07
1.31062e-07
1.54598e-07
1.78847e-07
2.03307e-07
2.27832e-07
2.52416e-07
2.76924e-07
3.01248e-07
3.24257e-07
3.45991e-07
3.66571e-07
3.8616e-07
4.04946e-07
4.23102e-07
4.40834e-07
4.58376e-07
1
1
1
1
1
1
1
1
1
1
0.999999
0.999999
0.999999
0.999999
0.999999
0.999999
0.999921
0.998773
0.759392
0.159904
0.00643758
0.00363232
1.75104e-06
9.38138e-07
3.46367e-07
1.75227e-07
1.66288e-07
1.70487e-07
1.84781e-07
2.0801e-07
2.31923e-07
2.55756e-07
2.79195e-07
3.01928e-07
3.23658e-07
3.44124e-07
3.63109e-07
3.80452e-07
3.96054e-07
4.09871e-07
4.21912e-07
4.32358e-07
4.42205e-07
4.51891e-07
4.61494e-07
4.71062e-07
4.81365e-07
4.92166e-07
5.03886e-07
5.16716e-07
1
1
1
1
1
1
1
1
0.999999
0.999999
0.999999
0.999998
0.999999
0.999998
0.999584
0.998515
0.770994
0.0870306
0.0127958
0.00104651
3.32194e-05
1.64309e-05
3.34795e-07
3.58046e-07
2.73249e-07
2.45074e-07
2.6199e-07
2.83986e-07
3.05667e-07
3.25442e-07
3.42442e-07
3.56817e-07
3.68798e-07
3.78637e-07
3.86613e-07
3.9303e-07
3.98225e-07
4.02595e-07
4.08127e-07
4.12542e-07
4.17695e-07
4.23785e-07
4.22736e-07
4.31589e-07
4.43524e-07
4.41474e-07
4.53698e-07
4.66306e-07
4.84091e-07
5.06888e-07
1
1
1
1
1
1
0.999999
0.999999
0.999999
0.999999
0.999998
0.999899
0.998055
0.999451
0.501732
0.027255
0.0204063
0.000105342
4.5901e-05
4.29769e-06
2.81573e-07
2.782e-07
2.96674e-07
2.81142e-07
2.63701e-07
2.62948e-07
2.72993e-07
2.82351e-07
2.89649e-07
3.09799e-07
3.1341e-07
3.15514e-07
3.16523e-07
3.16717e-07
3.16318e-07
3.1558e-07
3.14838e-07
6.2315e-07
3.14883e-07
3.1548e-07
3.19423e-07
6.37553e-07
3.36049e-07
3.36414e-07
6.69477e-07
3.64325e-07
3.79131e-07
3.70836e-07
3.80702e-07
7.6148e-07
1
1
1
1
1
0.999999
0.999998
0.999999
0.999999
0.998747
0.998483
0.751919
0.0555811
0.019867
0.000828272
0.000134387
0.000118634
2.89292e-07
2.8175e-07
2.71323e-07
2.74185e-07
2.68827e-07
2.65544e-07
2.59155e-07
2.57916e-07
2.62116e-07
2.68349e-07
2.73506e-07
4.62232e-07
2.38562e-07
2.58727e-07
2.55189e-07
2.54888e-07
2.55655e-07
2.57546e-07
2.60268e-07
2.63936e-07
2.68461e-07
4.29303e-07
2.77667e-07
2.83541e-07
2.88778e-07
4.93252e-07
3.29273e-07
3.40819e-07
3.73617e-07
7.74354e-07
3.7242e-07
4.26275e-07
4.36277e-07
1
1
1
1
0.999999
0.999998
0.999994
0.998786
0.979585
0.182454
0.0161887
0.0149324
0.000116784
6.26839e-05
6.93862e-07
3.94014e-07
3.90755e-07
3.02438e-07
2.76177e-07
2.64101e-07
2.58095e-07
2.52528e-07
2.49789e-07
2.49828e-07
2.53119e-07
2.57701e-07
2.61499e-07
5.18323e-07
2.38834e-07
2.37783e-07
2.43021e-07
4.09486e-07
2.3043e-07
2.34902e-07
2.40966e-07
2.48025e-07
2.56125e-07
2.65844e-07
2.77831e-07
2.99097e-07
3.14661e-07
3.3083e-07
3.44758e-07
3.72523e-07
3.9139e-07
4.33261e-07
4.57123e-07
5.76785e-07
4.85561e-07
5.12899e-07
1
1
1
1
0.999998
0.999991
0.993479
0.124507
0.00468882
0.00229914
0.000312065
0.000151883
8.30835e-07
5.46908e-07
5.38589e-07
3.08019e-07
3.29942e-07
3.19037e-07
2.91848e-07
2.73337e-07
2.60047e-07
2.49454e-07
2.41178e-07
2.35243e-07
2.32153e-07
2.31614e-07
2.3289e-07
2.46241e-07
2.44434e-07
2.41727e-07
2.3781e-07
2.39597e-07
2.33993e-07
2.29557e-07
2.26977e-07
2.26673e-07
2.29091e-07
2.33982e-07
2.40928e-07
2.49934e-07
2.61117e-07
2.74317e-07
2.89191e-07
3.0483e-07
2.85192e-07
3.41728e-07
2.68092e-07
8.56426e-07
4.4896e-07
3.50598e-07
1
1
1
0.999999
0.999995
0.992391
0.0658142
0.00037547
0.000374972
0.000374475
0.000178545
6.83596e-05
1.88518e-05
4.6255e-06
6.82902e-07
4.89919e-07
4.16746e-07
3.86528e-07
3.67806e-07
3.51618e-07
3.35416e-07
3.19142e-07
3.03583e-07
2.89707e-07
2.7905e-07
2.76982e-07
2.76752e-07
2.77781e-07
2.78751e-07
2.79239e-07
2.78848e-07
2.76301e-07
2.6954e-07
2.65246e-07
2.62706e-07
2.59425e-07
2.55005e-07
2.50143e-07
2.45038e-07
2.39903e-07
2.35293e-07
2.32204e-07
2.33495e-07
2.44008e-07
2.58423e-07
2.66864e-07
2.66445e-07
2.7074e-07
2.96165e-07
3.43631e-07
1
1
1
0.999997
0.999975
0.728587
0.00191349
0.00191662
0.00086306
0.000732181
0.000526286
0.000375568
0.000271991
0.00019389
0.000132053
8.58936e-05
5.4814e-05
3.54898e-05
2.38017e-05
1.66361e-05
1.21606e-05
9.40492e-06
7.6857e-06
6.24747e-06
4.44381e-06
2.36966e-06
1.99586e-06
1.78621e-06
1.62702e-06
1.48746e-06
1.30159e-06
1.20524e-06
2.74604e-06
1.96773e-06
5.69019e-07
3.54165e-07
1.51237e-06
3.66116e-06
3.66254e-06
2.83958e-06
7.45633e-07
2.38732e-07
2.67081e-07
6.76561e-07
1.41157e-06
1.41247e-06
6.5358e-07
2.79867e-07
2.77184e-07
1.19708e-06
1
1
0.999999
0.999995
0.999998
0.862602
0.0606136
0.0516079
0.0293708
0.0240108
0.0181756
0.0145397
0.0113066
0.00891072
0.00699801
0.00544769
0.0042007
0.00320845
0.00244123
0.00184939
0.00138879
0.00103212
0.000761644
0.000558557
0.000406113
0.000291955
0.000207206
0.000144974
9.99388e-05
6.80058e-05
4.5896e-05
3.06288e-05
2.0098e-05
1.25229e-05
7.5703e-06
4.55542e-06
2.82042e-06
1.93242e-06
1.69259e-06
1.69286e-06
3.38968e-06
5.18839e-06
2.61899e-06
1.15494e-06
1.18869e-06
1.14338e-06
1.10588e-06
2.19176e-06
3.11572e-06
3.10509e-06
1
1
0.999999
0.999995
0.999998
1.00003
0.999156
0.493498
0.35449
0.334973
0.268075
0.246674
0.217225
0.192396
0.170231
0.149886
0.131653
0.114904
0.0993058
0.0850259
0.0722401
0.0608091
0.0506132
0.0416366
0.0338513
0.0271733
0.0215228
0.0168
0.0128968
0.00971117
0.00714612
0.00513153
0.00359186
0.00244535
0.0016134
0.00102862
0.000631934
0.000372192
0.000208156
0.000108726
5.30127e-05
2.40809e-05
1.00557e-05
4.57828e-06
2.43308e-06
1.78481e-06
1.85002e-06
2.40325e-06
2.61811e-06
2.30952e-06
1
1
0.999999
0.999995
0.999997
0.999996
1.00002
1.00016
0.999451
1.00037
0.877794
0.853898
0.822074
0.797266
0.76839
0.737934
0.706351
0.672262
0.635654
0.597649
0.559324
0.51988
0.478792
0.436926
0.394948
0.353092
0.312088
0.272764
0.235823
0.201969
0.17085
0.142022
0.115753
0.0922784
0.0717747
0.0543113
0.0398605
0.0282879
0.0193355
0.0126411
0.00779389
0.00447566
0.00236058
0.00112634
0.000478803
0.000177506
5.61346e-05
1.54372e-05
4.58444e-06
2.89226e-06
1
1
0.999999
0.999996
0.999997
0.999994
0.99999
1
0.999994
1.00001
1
0.999987
0.999985
1.00005
0.999973
0.999894
1.00021
0.991638
0.985587
0.979678
0.973158
0.964956
0.954796
0.94283
0.928418
0.910526
0.888455
0.86145
0.828637
0.789416
0.744709
0.6957
0.642315
0.584751
0.523614
0.459855
0.394846
0.330516
0.269236
0.213452
0.163436
0.119275
0.0819947
0.0523644
0.0306147
0.0160802
0.00736632
0.0028202
0.000866259
0.000207896
1
1
0.999999
0.999997
0.999995
0.999994
0.999996
1
0.999995
0.999995
0.999998
1
0.999999
1
1
1
1
0.999998
1
1
1
0.999992
0.99999
1
1.00002
1.00002
1.00002
1.00003
0.99995
0.999926
0.995811
0.989878
0.982374
0.972477
0.959218
0.941242
0.916722
0.883346
0.838526
0.780234
0.710459
0.630014
0.539344
0.440527
0.338505
0.241314
0.156777
0.0892502
0.042881
0.016772
1
1
0.999998
0.999995
0.999993
0.999994
1
0.999995
0.999993
0.999997
0.999995
0.999995
0.999994
0.999993
0.999991
0.999991
0.999994
0.999995
0.999995
0.999995
0.999997
0.999997
0.999998
0.999996
0.999997
0.999998
0.999999
0.999997
1
0.999999
0.999999
1
1
0.999996
1
0.999995
0.999999
1
1.00002
0.994764
0.986366
0.97465
0.956408
0.926751
0.877492
0.800576
0.690987
0.551091
0.392445
0.240085
1
1
0.999998
0.999993
0.999988
0.999991
1
0.999996
0.999989
0.999993
0.999993
0.999992
0.99999
0.999987
0.999984
0.999984
0.999988
0.99999
0.99999
0.99999
0.999992
0.999994
0.999993
0.999991
0.999991
0.999993
0.999995
0.999993
0.999995
0.999996
0.999997
0.999996
0.999996
0.999997
0.999998
0.999998
0.999998
0.999999
0.999999
1
1
1
1
1
0.999622
0.989981
0.976311
0.948442
0.888347
0.77193
1
1
0.999997
0.999991
0.999986
0.999989
1
0.999998
0.999988
0.999994
0.999994
0.999993
0.99999
0.999988
0.999984
0.999982
0.999986
0.999989
0.999989
0.999987
0.99999
0.999992
0.999992
0.999989
0.999989
0.99999
0.99999
0.999991
0.999992
0.999993
0.999994
0.999994
0.999994
0.999995
0.999995
0.999995
0.999996
0.999996
0.999997
0.999997
0.999997
0.999997
0.999998
0.999999
0.999999
1
1
1
0.992822
0.963074
1.16482e-07
1.25362e-07
1.3448e-07
1.43825e-07
1.53388e-07
1.63163e-07
1.73153e-07
1.83374e-07
1.93858e-07
2.04653e-07
2.15825e-07
2.27442e-07
2.39548e-07
2.52128e-07
2.6509e-07
2.78268e-07
2.91476e-07
3.04614e-07
3.17758e-07
3.31088e-07
3.44844e-07
3.59553e-07
3.74838e-07
3.90061e-07
4.0497e-07
4.19681e-07
4.34449e-07
4.48706e-07
4.61535e-07
4.68789e-07
4.76058e-07
4.86609e-07
5.005e-07
5.12339e-07
5.2415e-07
5.40739e-07
5.51796e-07
5.70272e-07
5.84536e-07
6.01783e-07
6.2438e-07
6.434e-07
6.55843e-07
6.63657e-07
6.30891e-07
5.8796e-07
5.42078e-07
5.91344e-07
5.81385e-07
6.28125e-07
2.26178e-07
2.4029e-07
2.5463e-07
2.69202e-07
2.84019e-07
2.99099e-07
3.14479e-07
3.30232e-07
3.46491e-07
3.63464e-07
3.81443e-07
4.00791e-07
4.2181e-07
4.4448e-07
4.68397e-07
4.9273e-07
5.1631e-07
5.37936e-07
5.5628e-07
5.71453e-07
5.84856e-07
6.04753e-07
6.3143e-07
6.61175e-07
6.92596e-07
7.2523e-07
7.62125e-07
8.04555e-07
8.55504e-07
8.53368e-07
8.02889e-07
7.77264e-07
7.87556e-07
7.74077e-07
7.66903e-07
8.23536e-07
8.28395e-07
8.80574e-07
9.19506e-07
9.79309e-07
1.07658e-06
1.19134e-06
1.4064e-06
1.7821e-06
1.93342e-06
1.34172e-06
7.53856e-07
1.00008e-06
7.25188e-07
6.45515e-07
3.56343e-07
3.74995e-07
3.93766e-07
4.12772e-07
4.32129e-07
4.51916e-07
4.72109e-07
4.92742e-07
5.13992e-07
5.36411e-07
5.6087e-07
5.89377e-07
6.24813e-07
6.68016e-07
7.18889e-07
7.75755e-07
8.35401e-07
8.89833e-07
8.87339e-07
9.11934e-07
8.62126e-07
8.3909e-07
8.64468e-07
9.13165e-07
9.77628e-07
1.04402e-06
1.13168e-06
1.26369e-06
1.57969e-06
1.98796e-06
1.52376e-06
1.09159e-06
1.00767e-06
7.80756e-07
1.14196e-06
8.27021e-07
1.4083e-06
8.86133e-07
9.76831e-07
9.31635e-07
1.14685e-06
1.15045e-06
1.20002e-06
3.1137e-06
7.29766e-06
1.10486e-05
6.14379e-06
3.2166e-06
1.3219e-06
6.18798e-07
4.76056e-07
4.9434e-07
5.13534e-07
5.3417e-07
5.56849e-07
5.82306e-07
6.09477e-07
6.37102e-07
6.63422e-07
6.8898e-07
7.10471e-07
7.33569e-07
7.83268e-07
8.59825e-07
9.69891e-07
1.11816e-06
1.31743e-06
1.53036e-06
2.00457e-06
1.63754e-06
1.37261e-06
1.08078e-06
1.01554e-06
1.05116e-06
1.16182e-06
1.24634e-06
1.35097e-06
1.49014e-06
1.76854e-06
5.85665e-06
7.25731e-06
4.08475e-06
1.32293e-06
1.44824e-06
9.88672e-07
9.84075e-07
9.85331e-07
1.95396e-06
1.09101e-06
9.3042e-07
9.28968e-07
9.28975e-07
9.29546e-07
9.31772e-07
3.19821e-06
1.35989e-05
1.43496e-05
1.43382e-05
1.00357e-05
2.37504e-06
5.30907e-07
5.50562e-07
5.74258e-07
6.02564e-07
6.35025e-07
6.845e-07
7.44277e-07
8.09503e-07
8.62588e-07
9.22197e-07
9.28426e-07
8.45151e-07
8.86546e-07
9.74934e-07
1.14378e-06
1.40192e-06
1.84889e-06
2.70302e-06
6.43211e-06
3.05638e-06
2.4249e-06
1.55138e-06
1.27444e-06
1.29255e-06
1.48358e-06
1.57679e-06
1.64142e-06
1.7903e-06
2.01293e-06
7.35211e-06
8.75145e-06
8.65702e-06
3.47874e-06
1.25043e-06
1.24542e-06
1.0387e-06
1.62152e-06
3.38696e-06
2.61809e-06
1.11453e-06
9.35359e-07
9.3611e-07
1.23819e-06
2.01801e-06
4.79453e-06
1.38509e-05
1.43381e-05
1.43532e-05
9.96874e-06
4.31546e-06
4.99712e-07
5.29708e-07
5.74011e-07
6.4006e-07
6.47188e-07
7.36756e-07
8.66046e-07
1.06339e-06
1.16854e-06
1.51672e-06
1.62699e-06
9.91901e-07
1.05496e-06
1.10491e-06
1.30185e-06
1.57768e-06
2.21115e-06
3.97041e-06
8.26603e-06
4.78192e-06
2.96119e-06
1.95877e-06
1.56409e-06
1.83618e-06
2.51676e-06
2.34974e-06
2.107e-06
2.78188e-06
4.7926e-06
8.56742e-06
8.35032e-06
4.54483e-06
2.25329e-06
2.27884e-06
2.32641e-06
3.35439e-06
3.71217e-06
3.37949e-06
1.76956e-06
1.85366e-06
4.14353e-06
5.23799e-06
4.43347e-06
6.66992e-06
1.17259e-05
1.22014e-05
6.94413e-06
2.92152e-06
2.61206e-06
4.28231e-06
4.2015e-07
4.2753e-07
4.46746e-07
9.20115e-07
6.42274e-07
7.22824e-07
7.64615e-07
1.30101e-06
1.3377e-06
3.14692e-06
4.57738e-06
9.93588e-07
1.2523e-06
1.36305e-06
1.36472e-06
1.68438e-06
3.56921e-06
7.39539e-06
8.31221e-06
3.35355e-06
1.6749e-06
1.67537e-06
2.29663e-06
5.91064e-06
9.46678e-06
3.04408e-06
1.59703e-06
5.4071e-06
6.61226e-06
5.78178e-06
2.54524e-06
2.54576e-06
4.39792e-06
6.03409e-06
6.04184e-06
3.83119e-06
1.34627e-06
1.35563e-06
3.89423e-06
1.14024e-05
1.18727e-05
7.28901e-06
2.57201e-06
2.59057e-06
5.78263e-06
1.06581e-05
4.21146e-06
3.28014e-06
2.22181e-06
1.91747e-06
4.6915e-07
4.68798e-07
5.10918e-07
5.97699e-07
7.58455e-07
9.57513e-07
1.12556e-06
1.12605e-06
1.28116e-06
3.64675e-06
5.4699e-06
1.05733e-06
1.06457e-06
2.22988e-06
3.13045e-06
2.89128e-06
4.37207e-06
8.03452e-06
7.97604e-06
2.2085e-06
1.67486e-06
1.68243e-06
5.5259e-06
1.00845e-05
1.00253e-05
3.39283e-06
1.11223e-06
9.87098e-07
3.69677e-06
5.80166e-06
2.59487e-06
6.42356e-06
6.41689e-06
2.58876e-06
7.72485e-07
7.73102e-07
1.00032e-06
6.14311e-06
1.4822e-05
1.47948e-05
9.22723e-06
1.98587e-06
1.26886e-06
4.44084e-06
6.05655e-06
4.96222e-06
3.27764e-06
2.82788e-06
3.08117e-06
1.99864e-06
5.94577e-07
5.22584e-07
5.52505e-07
6.3839e-07
7.2829e-07
8.66083e-07
1.26473e-06
1.12875e-06
1.57842e-06
3.44133e-06
5.46463e-06
1.48169e-06
1.26579e-06
4.97186e-06
7.23851e-06
1.87208e-06
1.87243e-06
3.18047e-06
7.13833e-06
8.96505e-06
3.08203e-06
1.68414e-06
3.56193e-06
9.70958e-06
1.00408e-05
6.63753e-06
1.05038e-06
9.63761e-07
9.69276e-07
2.76441e-06
6.52198e-06
6.92828e-06
2.31778e-06
7.72234e-07
7.71978e-07
7.81655e-07
4.31397e-06
1.41874e-05
1.57942e-05
1.30931e-05
1.79972e-06
1.00924e-06
1.00962e-06
1.51211e-06
6.12958e-06
7.65281e-06
7.28365e-06
2.11549e-06
1.26492e-06
7.93544e-07
9.44669e-07
4.95537e-07
4.46651e-07
9.53779e-07
6.51051e-07
7.20875e-07
6.97633e-07
1.75251e-06
1.62632e-06
1.60889e-06
1.81593e-06
3.24338e-06
2.1773e-06
3.88885e-06
7.23781e-06
2.09763e-06
2.13179e-06
2.12753e-06
3.41696e-06
8.98206e-06
8.84673e-06
1.99718e-06
1.99761e-06
3.88375e-06
9.14641e-06
9.15046e-06
4.02056e-06
1.23637e-06
9.72467e-07
1.28157e-06
4.44289e-06
6.97746e-06
3.9423e-06
1.13378e-06
7.76657e-07
7.80564e-07
9.56169e-07
5.55908e-06
1.39106e-05
1.39161e-05
5.96297e-06
1.32561e-06
1.01043e-06
1.01705e-06
3.04108e-06
6.91683e-06
7.33074e-06
2.83085e-06
1.60767e-06
1.25926e-06
3.82294e-07
3.95717e-07
4.07892e-07
4.18913e-07
4.36762e-07
1.01126e-06
1.2802e-06
9.61266e-07
6.44661e-07
6.44359e-07
2.64711e-06
1.63037e-06
1.62381e-06
1.62379e-06
1.71385e-06
6.1218e-06
6.96288e-06
4.16877e-06
1.5029e-06
1.4946e-06
8.50911e-06
9.06926e-06
4.59467e-06
1.50684e-06
1.49354e-06
1.68809e-06
5.99559e-06
7.81884e-06
6.18377e-06
2.69685e-06
2.04908e-06
1.72297e-06
2.32508e-06
4.60408e-06
3.85115e-06
1.61887e-06
1.49052e-06
1.46491e-06
1.47694e-06
2.9439e-06
8.50597e-06
8.51677e-06
5.04403e-06
1.51952e-06
1.55225e-06
2.22395e-06
4.57797e-06
4.78233e-06
4.13798e-06
1.59497e-06
1.39087e-06
5.0559e-07
4.09549e-07
4.13769e-07
4.1819e-07
4.18297e-07
4.18492e-07
7.96265e-07
1.09624e-06
1.28254e-06
2.84919e-06
2.85675e-06
1.98906e-06
1.62483e-06
1.62606e-06
3.0731e-06
6.96505e-06
6.96201e-06
3.79601e-06
1.16745e-06
1.15969e-06
3.29276e-06
9.76921e-06
1.01481e-05
5.44057e-06
1.37697e-06
1.33987e-06
1.34047e-06
4.53415e-06
8.27891e-06
8.2821e-06
5.46115e-06
1.90165e-06
1.89043e-06
1.89177e-06
2.17946e-06
3.84697e-06
3.84566e-06
2.39875e-06
7.53514e-07
1.70714e-06
3.38619e-06
1.85045e-06
1.84759e-06
4.52905e-06
4.91568e-06
4.64754e-06
1.79701e-06
6.72053e-07
2.75835e-06
1.55525e-06
8.25712e-07
1.24721e-06
1.38187e-06
1.3818e-06
8.82161e-07
9.71162e-07
5.03404e-06
7.40512e-06
7.37506e-06
3.4214e-06
1.87646e-06
2.04547e-06
8.05743e-06
9.26925e-06
9.29267e-06
4.01568e-06
1.2076e-06
1.16378e-06
1.16229e-06
1.15952e-06
1.15951e-06
6.40479e-06
1.01415e-05
1.01524e-05
5.12326e-06
1.34603e-06
4.54067e-06
8.345e-06
3.36208e-06
1.23503e-06
1.22908e-06
2.67531e-06
8.43203e-06
9.20547e-06
5.1628e-06
9.51917e-07
6.59776e-07
6.57592e-07
6.57527e-07
7.39726e-07
4.63623e-06
6.74873e-06
6.77108e-06
2.95773e-06
1.47383e-06
1.26033e-06
7.40328e-07
6.61412e-07
6.61595e-07
2.43965e-06
5.67793e-06
1.48453e-05
1.52302e-05
1.52144e-05
9.49556e-06
4.98693e-06
2.5232e-06
1.86683e-06
1.86415e-06
1.86402e-06
1.87438e-06
1.86699e-06
1.86702e-06
2.20325e-06
9.26985e-06
1.09711e-05
1.09985e-05
7.18418e-06
1.88012e-06
1.1633e-06
1.15952e-06
1.15975e-06
1.17237e-06
1.17663e-06
1.38667e-06
4.39117e-06
9.58043e-06
9.58663e-06
7.32154e-06
1.91197e-06
1.22912e-06
1.32606e-06
6.91589e-06
9.2195e-06
7.96338e-06
2.54181e-06
6.6444e-07
6.57587e-07
6.57502e-07
6.5745e-07
6.57452e-07
3.9492e-06
6.75491e-06
6.82625e-06
4.09589e-06
8.97958e-07
6.60498e-07
6.60459e-07
6.62386e-07
3.82232e-06
9.5872e-06
6.76982e-06
4.49415e-06
3.25439e-06
2.95496e-06
4.91514e-06
4.50974e-06
2.95237e-06
2.02687e-06
1.86808e-06
2.37078e-06
2.04683e-06
1.87007e-06
1.87342e-06
1.87592e-06
2.63667e-06
9.58478e-06
9.77659e-06
9.39406e-06
3.54679e-06
1.16704e-06
1.1605e-06
2.49049e-06
9.17903e-06
9.52366e-06
5.64588e-06
1.29452e-06
1.22355e-06
1.22321e-06
1.22334e-06
1.22747e-06
1.98667e-06
7.9442e-06
9.20536e-06
8.47101e-06
3.44675e-06
6.95687e-07
6.57789e-07
6.57454e-07
6.57449e-07
6.57614e-07
3.15929e-06
5.9952e-06
2.34051e-06
6.63547e-07
6.57329e-07
6.58574e-07
6.64434e-07
6.64332e-07
4.02223e-05
9.63353e-06
4.4328e-06
3.27018e-06
3.26393e-06
3.76207e-06
2.90738e-06
3.01e-06
2.76898e-06
2.60636e-06
2.45772e-06
2.37017e-06
2.75854e-06
3.55174e-06
3.57096e-06
2.72297e-06
4.1187e-06
9.58556e-06
4.79848e-06
1.61066e-06
1.60629e-06
1.65669e-06
2.20259e-06
6.82478e-06
9.21211e-06
7.97326e-06
2.76032e-06
1.22823e-06
1.22352e-06
1.22464e-06
1.34157e-06
5.28513e-06
5.94915e-06
5.76116e-06
2.45723e-06
8.92041e-07
1.16375e-06
8.95645e-07
6.61325e-07
6.57528e-07
6.57518e-07
7.26901e-07
2.00077e-06
9.46417e-07
6.56674e-07
6.5678e-07
6.57274e-07
6.60565e-07
1.03054e-06
1.63666e-06
0.0050917
0.00113174
0.000185696
3.07491e-05
8.06558e-06
3.23685e-06
2.82116e-06
2.72202e-06
2.71396e-06
2.70882e-06
2.66505e-06
2.66874e-06
6.44872e-06
7.70749e-06
5.97358e-06
2.90133e-06
2.60138e-06
1.74733e-06
1.81576e-06
1.97492e-06
2.3381e-06
3.86493e-06
3.02231e-06
2.3347e-06
2.66817e-06
2.32509e-06
1.32946e-06
1.32194e-06
1.24085e-06
1.75229e-06
3.29868e-06
3.29184e-06
1.72387e-06
7.3298e-07
7.42063e-07
7.46257e-07
7.97565e-07
1.29919e-06
1.30691e-06
6.94158e-07
6.57653e-07
6.56968e-07
6.49989e-07
6.50822e-07
6.53993e-07
7.12777e-07
8.91654e-07
1.72966e-06
5.1316e-06
5.23776e-06
0.12172
0.0471064
0.0128484
0.00264529
0.000534361
0.00013019
3.85393e-05
1.16928e-05
4.1235e-06
2.67469e-06
2.66907e-06
3.80227e-06
6.95681e-06
7.69396e-06
4.49016e-06
2.21962e-06
2.75752e-06
1.6387e-06
1.63533e-06
1.43568e-06
1.28451e-06
1.1367e-06
1.72852e-06
2.25968e-06
1.15831e-06
1.40804e-06
1.84428e-06
1.24639e-06
1.13176e-06
9.38693e-07
7.09973e-07
7.84712e-07
7.32846e-07
7.26492e-07
7.18684e-07
8.10028e-07
6.54215e-07
5.89397e-07
1.30159e-06
9.18032e-07
7.48428e-07
6.65735e-07
6.49787e-07
6.68001e-07
1.47084e-06
1.80138e-06
1.72929e-06
6.36629e-07
5.97317e-07
8.70534e-07
0.589885
0.368901
0.166959
0.0482956
0.0106058
0.00234175
0.000643498
0.000196004
5.42357e-05
1.18481e-05
3.02569e-06
3.43993e-06
2.75888e-06
3.75865e-06
2.87045e-06
2.09877e-06
1.84221e-06
1.67991e-06
1.42138e-06
1.2532e-06
1.18516e-06
1.10253e-06
1.29936e-06
2.18051e-06
1.07983e-06
1.02038e-06
8.89253e-07
7.80674e-07
7.42627e-07
7.45356e-07
5.47912e-07
9.70947e-07
6.27792e-07
5.56924e-07
5.56623e-07
6.52412e-07
6.32715e-07
5.85978e-07
8.04025e-07
7.2529e-07
6.622e-07
6.24017e-07
6.29188e-07
5.29338e-07
4.82349e-07
5.4865e-07
5.41069e-07
5.79365e-07
6.50344e-07
4.49014e-07
0.890985
0.745808
0.493622
0.186691
0.0433159
0.0088847
0.00224526
0.000692312
0.000211356
5.18369e-05
5.40617e-06
3.87021e-06
2.74446e-06
1.88062e-06
1.75019e-06
1.82045e-06
1.55086e-06
1.32091e-06
1.15879e-06
1.02816e-06
1.05217e-06
9.65907e-07
1.00002e-06
6.63371e-07
7.81881e-07
7.85915e-07
7.18271e-07
6.52777e-07
5.2577e-07
6.32463e-07
5.41735e-07
4.23412e-07
6.8267e-07
4.24011e-07
4.32466e-07
6.34116e-07
4.6538e-07
4.31083e-07
5.18114e-07
4.38171e-07
4.56119e-07
5.914e-07
5.78093e-07
4.37371e-07
4.52448e-07
6.43949e-07
5.53971e-07
6.13058e-07
8.11851e-07
4.12137e-07
8.22609e-07
7.70791e-07
7.25822e-07
7.46284e-07
7.73958e-07
7.73739e-07
8.23301e-07
8.82888e-07
8.14289e-07
7.20295e-07
7.21555e-07
7.47066e-07
7.493e-07
7.25251e-07
7.37694e-07
9.21301e-07
7.87133e-07
7.56067e-07
7.96209e-07
8.54693e-07
9.27616e-07
1.0345e-06
1.05881e-06
9.71897e-07
8.39678e-07
8.02529e-07
8.55236e-07
9.52229e-07
1.05495e-06
1.20782e-06
1.12106e-06
8.76507e-07
7.99369e-07
9.45618e-07
1.08062e-06
9.77578e-07
8.24682e-07
8.08572e-07
8.10992e-07
7.76065e-07
6.12246e-07
9.83595e-07
6.94481e-07
1.62979e-06
8.64014e-07
8.55146e-07
6.42736e-07
1.34178e-06
1.38484e-06
9.81261e-07
8.75976e-07
9.59586e-07
1.12791e-06
1.1031e-06
9.54284e-07
8.9533e-07
1.00582e-06
1.06247e-06
1.03682e-06
1.04094e-06
8.63215e-07
1.50778e-06
1.17327e-06
7.50852e-07
6.26994e-07
1.8969e-06
1.62693e-06
7.34195e-07
7.44535e-07
7.53858e-07
1.25685e-06
1.44264e-06
1.4537e-06
7.89369e-07
7.32345e-07
1.32957e-06
1.43113e-06
1.30895e-06
7.41293e-07
9.92471e-07
1.12176e-06
1.31586e-06
1.59467e-06
9.63166e-07
5.20723e-07
6.10248e-07
9.29261e-07
1.49849e-06
1.49018e-06
8.4358e-07
7.7981e-07
6.91482e-07
9.68632e-07
1.33729e-06
1.34418e-06
7.47936e-07
7.83618e-07
6.98298e-07
6.58304e-07
9.32666e-07
1.22562e-06
1.04325e-06
6.45531e-07
6.47169e-07
4.98558e-07
6.50035e-07
1.23634e-06
8.50927e-07
6.56253e-07
6.0061e-07
4.95342e-07
9.73177e-07
7.14177e-07
3.79824e-07
8.69756e-07
4.8532e-07
4.94731e-07
5.67567e-07
5.82469e-07
5.33787e-07
5.32528e-07
5.6212e-07
5.6952e-07
5.19959e-07
3.41952e-07
5.33238e-07
5.29427e-07
4.78266e-07
4.14874e-07
3.87086e-07
3.9474e-07
4.25381e-07
4.14536e-07
3.62712e-07
3.59011e-07
3.62909e-07
3.70413e-07
3.58517e-07
3.20165e-07
2.96999e-07
2.82766e-07
2.74156e-07
2.68731e-07
2.64042e-07
2.58015e-07
2.43586e-07
2.25012e-07
2.10528e-07
1.99936e-07
1.90359e-07
1.78984e-07
1.65817e-07
1.53935e-07
1.43787e-07
1.34553e-07
1.25599e-07
1.1701e-07
1.09063e-07
1.01614e-07
9.43076e-08
8.69737e-08
7.97363e-08
7.2832e-08
6.63481e-08
6.02082e-08
5.4348e-08
4.87651e-08
4.34789e-08
3.85065e-08
3.38605e-08
2.95522e-08
2.55995e-08
2.20213e-08
1.88227e-08
1.5989e-08
1.34943e-08
1.13103e-08
9.41034e-09
7.77053e-09
6.36821e-09
5.18104e-09
4.18629e-09
3.3611e-09
2.68304e-09
2.13088e-09
1.68514e-09
1.32839e-09
1.04533e-09
8.22715e-10
6.49221e-10
5.15251e-10
4.12761e-10
3.35076e-10
2.76715e-10
2.33231e-10
2.01053e-10
1.77354e-10
1.59919e-10
1.47034e-10
1.37392e-10
1.30008e-10
1.2415e-10
1.19285e-10
1.15031e-10
1.11123e-10
1.0739e-10
1.03732e-10
1.00104e-10
9.65021e-11
9.29478e-11
8.94769e-11
8.61253e-11
8.29186e-11
7.98653e-11
7.6954e-11
7.41551e-11
7.14264e-11
6.87213e-11
6.59982e-11
6.32284e-11
6.04029e-11
5.75359e-11
5.46655e-11
5.18513e-11
4.9169e-11
4.67017e-11
4.4529e-11
4.27147e-11
4.12937e-11
4.02618e-11
3.95711e-11
3.91324e-11
3.8827e-11
3.85265e-11
3.81151e-11
3.75108e-11
3.66777e-11
3.56252e-11
3.43969e-11
3.30506e-11
3.16385e-11
3.01939e-11
2.87258e-11
2.72232e-11
2.56647e-11
2.40297e-11
2.23088e-11
2.05106e-11
1.86627e-11
1.68096e-11
1.5005e-11
1.33039e-11
1.17537e-11
1.03882e-11
9.22396e-12
8.25873e-12
7.47391e-12
6.83856e-12
6.31484e-12
5.86301e-12
5.44532e-12
5.02963e-12
4.59348e-12
4.12818e-12
3.6402e-12
3.14809e-12
2.67542e-12
2.24286e-12
1.86271e-12
1.53771e-12
1.26343e-12
1.03241e-12
8.37504e-13
6.7349e-13
5.36832e-13
4.24659e-13
3.33938e-13
2.61289e-13
2.03291e-13
1.56899e-13
1.19701e-13
8.99252e-14
6.63002e-14
4.78606e-14
3.37899e-14
2.33328e-14
1.57739e-14
1.04553e-14
6.80438e-15
4.3527e-15
2.73819e-15
1.69391e-15
1.0301e-15
6.15488e-16
3.61171e-16
2.0809e-16
1.1772e-16
6.54096e-17
3.57122e-17
1.91606e-17
8.05625e-07
1.08097e-06
1.06855e-06
8.17165e-07
9.91886e-07
1.02998e-06
1.0002e-06
2.38355e-06
2.59798e-06
2.59146e-06
1.68988e-06
1.14593e-06
7.57715e-07
7.96512e-07
7.89544e-07
7.21788e-07
3.67929e-06
2.33688e-06
7.978e-07
6.684e-07
6.64491e-07
9.62057e-07
2.8183e-06
2.86231e-06
2.27017e-06
7.3301e-07
6.44261e-07
6.94009e-07
1.85365e-06
5.64403e-06
4.35243e-06
1.54722e-06
8.02582e-07
8.99341e-07
4.09137e-06
5.70856e-06
5.33502e-06
3.10428e-06
2.83323e-06
2.12791e-06
9.48918e-07
7.1429e-07
7.06436e-07
2.99192e-06
2.2128e-06
8.27065e-07
6.36552e-07
6.35192e-07
1.9668e-06
3.34481e-06
3.38678e-06
1.62738e-06
1.13037e-06
1.42967e-06
5.00461e-06
2.41037e-06
9.60967e-07
9.52447e-07
9.52027e-07
2.78185e-06
3.01355e-06
2.45478e-06
9.19098e-07
7.59534e-07
8.3324e-07
1.67578e-06
4.22251e-06
4.7848e-06
2.82021e-06
7.54576e-07
7.19885e-07
7.1977e-07
2.16013e-06
2.9173e-06
2.8265e-06
1.33376e-06
1.34712e-06
4.1256e-06
3.21035e-06
1.42278e-06
1.10709e-06
2.37208e-06
5.31987e-06
5.37214e-06
1.91844e-06
6.24542e-07
6.27764e-07
6.54762e-07
2.07077e-06
4.34885e-06
3.47104e-06
2.15944e-06
8.94016e-07
8.88256e-07
8.88684e-07
3.04373e-06
3.39213e-06
3.1128e-06
1.0304e-06
7.42405e-07
7.42424e-07
2.48047e-06
3.04611e-06
2.89022e-06
9.10581e-07
6.26934e-07
7.7989e-07
2.74282e-06
3.00351e-06
1.92531e-06
5.017e-07
6.39919e-07
1.78427e-06
3.77608e-06
1.69483e-06
4.40557e-07
4.30756e-07
8.66096e-07
1.67615e-06
1.67602e-06
6.10885e-07
1.1645e-06
1.73762e-06
1.74567e-06
9.77552e-07
5.38783e-07
1.40937e-06
1.85681e-06
7.74824e-07
3.91928e-07
4.10728e-07
7.23246e-07
1.40642e-06
1.22599e-06
4.61668e-07
4.76374e-07
6.60549e-07
9.07546e-07
9.14022e-07
5.85447e-07
4.83762e-07
4.39928e-07
4.34336e-07
4.48009e-07
5.00638e-07
5.26337e-07
4.39797e-07
3.83021e-07
3.6175e-07
3.56449e-07
3.64028e-07
3.34119e-07
3.01253e-07
2.86739e-07
2.79681e-07
2.69147e-07
2.55285e-07
2.40362e-07
2.28633e-07
2.18232e-07
2.06343e-07
1.91401e-07
1.75269e-07
1.60746e-07
1.48033e-07
1.3603e-07
1.24412e-07
1.13212e-07
1.02492e-07
9.22639e-08
8.24612e-08
7.30496e-08
6.41446e-08
5.59309e-08
4.84889e-08
4.17948e-08
3.57901e-08
3.04191e-08
2.56407e-08
2.1425e-08
1.77465e-08
1.4576e-08
1.18771e-08
9.60653e-09
7.71635e-09
6.15796e-09
4.88466e-09
3.85343e-09
3.02567e-09
2.36738e-09
1.8489e-09
1.44465e-09
1.13276e-09
8.94698e-10
7.14972e-10
5.80764e-10
4.81613e-10
4.09088e-10
3.56488e-10
3.18559e-10
2.9124e-10
2.71434e-10
2.56815e-10
2.45665e-10
2.36741e-10
2.29165e-10
2.22346e-10
2.15909e-10
2.09648e-10
2.03484e-10
1.97419e-10
1.91505e-10
1.85808e-10
1.80379e-10
1.75238e-10
1.70356e-10
1.65663e-10
1.61058e-10
1.56427e-10
1.51668e-10
1.46713e-10
1.41544e-10
1.36209e-10
1.30821e-10
1.25556e-10
1.20634e-10
1.16296e-10
1.12762e-10
1.102e-10
1.0868e-10
1.0815e-10
1.08427e-10
1.09216e-10
1.10155e-10
1.10883e-10
1.11109e-10
1.10663e-10
1.09515e-10
1.07748e-10
1.05511e-10
1.02951e-10
1.00165e-10
9.71725e-11
9.39229e-11
9.03192e-11
8.6258e-11
8.16693e-11
7.65477e-11
7.0969e-11
6.50865e-11
5.91106e-11
5.32774e-11
4.78133e-11
4.29045e-11
3.86736e-11
3.51668e-11
3.2355e-11
3.01461e-11
2.84042e-11
2.69681e-11
2.56645e-11
2.43237e-11
2.2805e-11
2.10308e-11
1.90097e-11
1.6833e-11
1.46386e-11
1.25616e-11
1.06934e-11
9.06669e-12
7.66621e-12
6.45408e-12
5.39464e-12
4.46703e-12
3.66391e-12
2.98238e-12
2.41569e-12
1.95052e-12
1.56944e-12
1.2551e-12
9.93415e-13
7.7457e-13
5.92432e-13
4.43125e-13
3.23613e-13
2.30722e-13
1.6077e-13
1.097e-13
7.34471e-14
4.8329e-14
3.12804e-14
1.99173e-14
1.24723e-14
7.67701e-15
4.64241e-15
2.75694e-15
1.60755e-15
9.2038e-16
5.17434e-16
2.85524e-16
6.12912e-07
5.9751e-07
7.64473e-07
6.04396e-07
6.31366e-07
6.26512e-07
6.13567e-07
6.08167e-07
6.08397e-07
2.11446e-06
4.53333e-06
4.54122e-06
2.83247e-06
6.91578e-07
6.40982e-07
6.80669e-07
3.83923e-06
9.40911e-06
4.17087e-06
7.85826e-07
6.32752e-07
6.30724e-07
6.34341e-07
6.31162e-07
6.29557e-07
6.29407e-07
6.32152e-07
3.1755e-06
5.64456e-06
5.62514e-06
4.64432e-06
1.75484e-06
8.13171e-07
8.14499e-07
8.16088e-07
1.49348e-06
8.98588e-06
1.27814e-05
1.27499e-05
1.27833e-05
1.27476e-05
6.47008e-06
1.31827e-06
4.60529e-06
4.73366e-06
1.86326e-06
6.42453e-07
6.33832e-07
6.33691e-07
6.33691e-07
1.93643e-06
3.60579e-06
2.14024e-06
2.82096e-06
6.47605e-06
9.55181e-06
5.20193e-06
1.27013e-06
9.53573e-07
9.53257e-07
1.26918e-06
6.37626e-06
7.70358e-06
2.55539e-06
8.61857e-07
8.49745e-07
8.47494e-07
4.18889e-06
5.98683e-06
6.0086e-06
2.33156e-06