/*--------------------------------*- C++ -*----------------------------------*\
| =========                 |                                                 |
| \\      /  F ield         | OpenFOAM: The Open Source CFD Toolbox           |
|  \\    /   O peration     | Version:  2.4.0                                 |
|   \\  /    A nd           | Web:      www.OpenFOAM.org                      |
|    \\/     M anipulation  |                                                 |
\*---------------------------------------------------------------------------*/
FoamFile
{
    version     2.0;
    format      ascii;
    class       volScalarField;
    location    "2.8";
    object      H;
}
// * * * * * * * * * * * * * * * * * * * * * * * * * * * * * * * * * * * * * //

dimensions      [0 2 -2 0 0 0 0];

internalField   nonuniform List<scalar> 
8000
(
-12003.6
-11550
-11093.9
-10634.1
-10169.5
-9699.2
-9222.67
-8739.45
-8249.34
-7752.38
-7248.89
-6739.44
-6224.87
-5706.29
-5185.05
-4662.73
-4141.05
-3621.89
-3107.2
-2598.93
-2098.93
-1608.99
-1131.72
-671.537
-225.067
-2.53694
-2.68178
-2.30171
-2.01172
-1.94459
-1.89948
-1.85715
-1.81837
-1.78391
-1.75434
-1.73
-1.71106
-1.69748
-1.68906
-1.68548
-1.6863
-1.69099
-1.69901
-1.70979
-1.72279
-1.73751
-1.75349
-1.77035
-1.78774
-1.80539
-11994.6
-11522.6
-11047.5
-10567.6
-10081.6
-9588.19
-9086.62
-8576.24
-8056.79
-7528.34
-6991.31
-6446.54
-5895.2
-5338.82
-4779.21
-4218.44
-3658.73
-3102.53
-2552.37
-2010.42
-1477.92
-953.03
-439.378
-4.18246
-0.0973331
-0.292566
-0.478507
-0.665676
-0.851261
-1.00991
-1.14306
-1.2535
-1.34475
-1.42065
-1.4849
-1.54074
-1.59084
-1.63722
-1.68131
-1.72409
-1.76612
-1.8077
-1.8489
-1.88972
-1.93004
-1.96974
-2.00868
-2.04673
-2.08378
-2.11973
-11983.3
-11488.6
-10989.8
-10484.6
-9971.06
-9447.49
-8912.65
-8365.74
-7806.52
-7235.26
-6652.83
-6060.63
-5460.56
-4854.87
-4246.12
-3637.03
-3030.62
-2430.26
-1839.93
-1260.69
-695.202
-119.069
-1.52661
-1.4657
-1.08731
-0.946411
-0.909639
-0.916412
-0.960045
-1.03029
-1.11738
-1.21343
-1.31283
-1.412
-1.50888
-1.60255
-1.69277
-1.77969
-1.86348
-1.94416
-2.02178
-2.09638
-2.16803
-2.23677
-2.30261
-2.36557
-2.42567
-2.48291
-2.53727
-2.58876
-11966.6
-11437.2
-10901.1
-10354.8
-9795.34
-9220.69
-8629.52
-8021.39
-7396.79
-6757.15
-6104.78
-5442.68
-4774.36
-4103.45
-3433.61
-2768.46
-2112.45
-1468.88
-845.793
-205.983
-2.31384
-0.0970044
-0.252968
-0.441841
-0.602398
-0.761935
-0.912632
-1.05557
-1.19291
-1.32589
-1.45511
-1.58072
-1.70267
-1.82084
-1.93507
-2.04523
-2.15124
-2.25303
-2.35072
-2.44469
-2.5353
-2.6228
-2.70669
-2.78655
-2.86207
-2.93301
-2.99921
-3.06052
-3.11687
-3.16821
-11938.8
-11352.4
-10755
-10141.4
-9507.76
-8851.76
-8172.63
-7471.25
-6750.18
-6013.54
-5266.7
-4515.73
-3767.01
-3026.8
-2298.78
-1585.82
-894.795
-189.264
-2.10563
-0.110538
-0.334527
-0.597078
-0.810616
-1.0393
-1.25684
-1.46301
-1.65334
-1.82856
-1.99037
-2.14057
-2.28091
-2.41284
-2.53744
-2.65546
-2.76738
-2.87349
-2.97394
-3.06881
-3.15811
-3.2418
-3.31981
-3.39145
-3.45677
-3.51584
-3.56872
-3.61547
-3.65612
-3.69072
-3.71929
-3.74185
-11894
-11215.7
-10521
-9802.41
-9055.3
-8277.7
-7470.57
-6637.77
-5786.14
-4925.01
-4065.77
-3219.17
-2397.92
-1629.94
-868.1
-143.941
-1.61306
-0.148516
-0.440889
-0.674329
-0.926065
-1.16649
-1.4046
-1.63306
-1.85539
-2.07041
-2.27406
-2.4644
-2.64085
-2.8037
-2.95363
-3.09154
-3.21833
-3.33482
-3.44173
-3.53966
-3.62909
-3.7104
-3.78388
-3.84961
-3.9071
-3.95675
-3.99887
-4.03369
-4.06135
-4.08196
-4.09556
-4.10217
-4.10178
-4.09434
-11826.2
-11009.8
-10170.1
-9297.34
-8385.86
-7434.6
-6447.39
-5432.78
-4404.76
-3384.16
-2397.46
-1443.3
-402.56
-66.5567
-1.02695
-0.212961
-0.630144
-0.798752
-1.04978
-1.30284
-1.53805
-1.75538
-1.96778
-2.18004
-2.38909
-2.59188
-2.78574
-2.96869
-3.13949
-3.29752
-3.44269
-3.57521
-3.69556
-3.8043
-3.90203
-3.98934
-4.06676
-4.13477
-4.19368
-4.24355
-4.28483
-4.31787
-4.34281
-4.35981
-4.3689
-4.36992
-4.36281
-4.34734
-4.32331
-4.29052
-11735.2
-10732.7
-9697.39
-8615.5
-7480.05
-6291.66
-5057.79
-3793.59
-2514.68
-1217.63
-231.139
-2.61666
-0.363835
-0.538773
-0.626073
-0.831967
-1.06426
-1.30465
-1.53938
-1.76515
-1.98513
-2.1971
-2.40202
-2.60036
-2.7916
-2.97483
-3.14907
-3.31349
-3.46747
-3.61065
-3.74295
-3.86446
-3.9754
-4.07606
-4.16678
-4.24788
-4.31966
-4.38235
-4.43598
-4.48089
-4.51738
-4.54551
-4.56526
-4.57638
-4.57862
-4.57156
-4.55473
-4.52748
-4.48932
-4.43961
-11602.9
-10330.6
-9012.37
-7631.65
-6182.84
-4667.58
-3080.02
-1399.56
-13.1406
-0.632537
-0.314665
-0.79097
-0.940612
-1.15004
-1.35387
-1.54002
-1.7154
-1.88606
-2.06052
-2.23656
-2.41233
-2.5859
-2.75571
-2.92067
-3.07991
-3.23274
-3.37863
-3.51719
-3.64811
-3.77128
-3.88665
-3.99421
-4.09398
-4.18605
-4.27045
-4.34718
-4.41619
-4.47783
-4.53247
-4.58031
-4.62133
-4.65529
-4.68176
-4.70016
-4.70971
-4.7095
-4.69846
-4.67547
-4.63927
-4.58867
-11423.4
-9790.11
-8108.79
-6367.84
-4560.23
-2639.18
-378.946
-15.7264
-9.14751
-5.32914
-3.5261
-2.8233
-2.57696
-2.48687
-2.45879
-2.47215
-2.50693
-2.55806
-2.62255
-2.69743
-2.78016
-2.86851
-2.96058
-3.05487
-3.15013
-3.24544
-3.34006
-3.43346
-3.52526
-3.61524
-3.70327
-3.78935
-3.87354
-3.95597
-4.03682
-4.11629
-4.19457
-4.27127
-4.34507
-4.41502
-4.48037
-4.54054
-4.59497
-4.64299
-4.6838
-4.71641
-4.73951
-4.75167
-4.751
-4.73572
-11254.6
-9294.84
-7313.93
-5294.2
-3149.27
-521.573
-34.1029
-27.6686
-25.759
-22.9798
-19.8481
-16.923
-14.4784
-12.6058
-11.1533
-10.0162
-9.11457
-8.39147
-7.80595
-7.3275
-6.93322
-6.60575
-6.33171
-6.1007
-5.90457
-5.73685
-5.59237
-5.46697
-5.35729
-5.26063
-5.17483
-5.09817
-5.02931
-4.96723
-4.91123
-4.86082
-4.81575
-4.77603
-4.74264
-4.71656
-4.69872
-4.68978
-4.68943
-4.697
-4.71143
-4.73122
-4.75436
-4.77842
-4.80062
-4.81787
-11123.5
-8910.19
-6699.81
-4504.89
-2345.51
-26.3089
-19.5571
-17.8453
-16.2184
-15.0091
-13.9454
-13.0014
-12.1738
-11.4481
-10.8103
-10.2509
-9.76097
-9.33238
-8.95677
-8.62584
-8.33224
-8.0701
-7.8345
-7.62102
-7.42604
-7.24749
-7.08426
-6.93426
-6.79556
-6.66684
-6.54725
-6.43664
-6.33433
-6.23859
-6.14995
-6.06897
-5.99522
-5.92815
-5.86718
-5.81184
-5.76103
-5.71366
-5.66891
-5.626
-5.58427
-5.54297
-5.50122
-5.45809
-5.41229
-5.36205
-11147.3
-8989.51
-6846.07
-4704.52
-2516.44
-27.7836
-6.5239
-8.70815
-8.47848
-7.89313
-7.12339
-6.33791
-5.6636
-5.14058
-4.75983
-4.49205
-4.30995
-4.18981
-4.11269
-4.06439
-4.03572
-4.0205
-4.01426
-4.0136
-4.01614
-4.0204
-4.02555
-4.03114
-4.03692
-4.04282
-4.04878
-4.0546
-4.05982
-4.06405
-4.06742
-4.07009
-4.07179
-4.07213
-4.07092
-4.0685
-4.06502
-4.05802
-4.04522
-4.02813
-4.0068
-3.98067
-3.94878
-3.9098
-3.86206
-3.80409
-11238.9
-9288.33
-7413.52
-5628.02
-3907.61
-2218.06
-744.463
-15.8281
-2.66805
-1.09415
-1.80787
-1.66617
-1.38815
-1.13398
-0.960863
-0.866569
-0.836922
-0.858103
-0.889745
-0.89902
-0.909235
-0.928393
-0.957969
-0.997648
-1.04651
-1.1032
-1.16604
-1.23313
-1.30238
-1.3716
-1.43871
-1.50187
-1.55923
-1.61059
-1.65606
-1.69562
-1.72899
-1.75577
-1.7757
-1.78873
-1.79517
-1.79537
-1.78985
-1.77936
-1.76431
-1.74481
-1.72093
-1.6927
-1.66041
-1.6247
-11378.2
-9699.93
-8088.6
-6573.72
-5174.87
-3905.5
-2776.93
-1797.75
-963.187
-293.965
-4.8828
-1.46069
-0.987244
-0.625211
-0.356771
-0.166276
-0.0130981
-0.00731463
-0.405801
-0.419446
-0.3898
-0.36252
-0.341551
-0.326213
-0.315853
-0.310439
-0.310581
-0.317511
-0.33294
-0.358663
-0.399417
-0.459523
-0.492993
-0.511121
-0.526615
-0.545222
-0.568497
-0.595644
-0.624273
-0.651142
-0.673156
-0.688915
-0.700189
-0.70869
-0.714409
-0.716049
-0.712367
-0.702938
-0.688183
-0.669027
-11478.8
-9994.31
-8560.6
-7205.9
-5952.54
-4816.76
-3808.93
-2934.34
-2193.57
-1584.37
-1101.12
-732.4
-462.221
-273.757
-146.309
-64.3939
-4.1971
-0.70658
-0.584157
-0.510748
-0.450449
-0.399161
-0.353284
-0.310043
-0.267946
-0.225572
-0.181444
-0.134297
-0.0845121
-0.0259068
-0.00548265
-0.257493
-0.31969
-0.315107
-0.297275
-0.280896
-0.270713
-0.270146
-0.283207
-0.315571
-0.366927
-0.393886
-0.405724
-0.412854
-0.417901
-0.417931
-0.408916
-0.395125
-0.382373
-0.370184
-11553.1
-10212.6
-8910.39
-7669.41
-6509.48
-5446.45
-4491.64
-3651.59
-2928.15
-2318.77
-1816.97
-1413.07
-1095.05
-849.699
-663.703
-524.593
-421.372
-344.806
-287.379
-243.452
-208.707
-180.001
-155.137
-132.615
-111.563
-91.2217
-71.0334
-50.6702
-30.6451
-8.78425
-0.616142
-0.48605
-0.427038
-0.366512
-0.304269
-0.240796
-0.17614
-0.109026
-0.0401554
-0.00450142
-0.208989
-0.261995
-0.262505
-0.258233
-0.267651
-0.309267
-0.338923
-0.349363
-0.343102
-0.319668
-11609.8
-10380.3
-9182.22
-8034.65
-6954.55
-5955.85
-5048.94
-4240.35
-3532.57
-2924.36
-2411.15
-1985.7
-1638.87
-1360.46
-1139.92
-967.044
-832.414
-727.743
-645.993
-581.397
-529.359
-486.317
-449.57
-417.109
-387.467
-359.584
-332.713
-306.333
-280.098
-253.788
-227.293
-200.53
-173.553
-146.426
-119.247
-92.2249
-65.5301
-39.1184
-13.5526
-0.491662
-0.293675
-0.216718
-0.145355
-0.0776339
-0.00376842
-0.146695
-0.214931
-0.241654
-0.257818
-0.282234
-11652.4
-10506.9
-9389.52
-8317.28
-7305.12
-6365.28
-5506.88
-4735.68
-4053.95
-3460.78
-2952.51
-2523.21
-2165.39
-1870.61
-1630.09
-1435.24
-1277.99
-1151.09
-1048.21
-964.011
-894.071
-834.823
-783.435
-737.693
-695.886
-656.708
-619.171
-582.544
-546.297
-510.063
-473.614
-436.837
-399.72
-362.337
-324.835
-287.425
-250.369
-213.966
-178.544
-144.459
-112.009
-81.5386
-53.4608
-27.6844
-0.459001
-0.137687
-0.0727705
-0.0254031
-0.00190048
-0.134185
-11690.7
-10621.5
-9578.95
-8578.55
-7633.53
-6754.4
-5948.7
-5221.06
-4572.98
-4003.44
-3509.12
-3084.93
-2724.56
-2420.95
-2166.8
-1954.93
-1778.55
-1631.48
-1508.24
-1404.09
-1314.99
-1237.58
-1169.08
-1107.23
-1050.18
-996.452
-944.851
-894.446
-844.516
-794.531
-744.127
-693.094
-641.365
-589.003
-536.19
-483.212
-430.451
-378.359
-327.455
-278.296
-231.452
-187.478
-146.89
-110.146
-77.6212
-49.5269
-26.1066
-8.74115
-0.0806288
-0.00142991
-1.82307
-1.84063
-1.85791
-1.87481
-1.89127
-1.90721
-1.9226
-1.93741
-1.95161
-1.96517
-1.97808
-1.99033
-2.0019
-2.01278
-2.02297
-2.03244
-2.04119
-2.04921
-2.0565
-2.06304
-2.06884
-2.07389
-2.07818
-2.08173
-2.08453
-2.08661
-2.08796
-2.0886
-2.08856
-2.08783
-2.08644
-2.08439
-2.0817
-2.07838
-2.07447
-2.06999
-2.06498
-2.05947
-2.0535
-2.04712
-2.04035
-2.03325
-2.02586
-2.01822
-2.01038
-2.00233
-1.99408
-1.98563
-1.97698
-1.96819
-2.1545
-2.18805
-2.2203
-2.25125
-2.28084
-2.30907
-2.33591
-2.36134
-2.38535
-2.40794
-2.42907
-2.44875
-2.46696
-2.4837
-2.49897
-2.51276
-2.52507
-2.53591
-2.54529
-2.55322
-2.5597
-2.56473
-2.56835
-2.57058
-2.57146
-2.57105
-2.56939
-2.56654
-2.56256
-2.55752
-2.55146
-2.54444
-2.53649
-2.52767
-2.51802
-2.50763
-2.49653
-2.48481
-2.4726
-2.45997
-2.44699
-2.43371
-2.4202
-2.40652
-2.39271
-2.37877
-2.36479
-2.35083
-2.33688
-2.32304
-2.63736
-2.68307
-2.72588
-2.76576
-2.80272
-2.83674
-2.86782
-2.89595
-2.92114
-2.94339
-2.96272
-2.97914
-2.99268
-3.00339
-3.01129
-3.01645
-3.01893
-3.0188
-3.01614
-3.01102
-3.00352
-2.99371
-2.98171
-2.96764
-2.95162
-2.9338
-2.91432
-2.8933
-2.87085
-2.84705
-2.82199
-2.79595
-2.7691
-2.74157
-2.71356
-2.68514
-2.65653
-2.62774
-2.59895
-2.57025
-2.54175
-2.51352
-2.48562
-2.45817
-2.43118
-2.40447
-2.37773
-2.35143
-2.32582
-2.30109
-3.21451
-3.25578
-3.29201
-3.32325
-3.34953
-3.3709
-3.38742
-3.39917
-3.40623
-3.4087
-3.40669
-3.40031
-3.38969
-3.37497
-3.35631
-3.33387
-3.30781
-3.27831
-3.24554
-3.2096
-3.1708
-3.12935
-3.08555
-3.03964
-2.99182
-2.94266
-2.89247
-2.84146
-2.78978
-2.73778
-2.68514
-2.63182
-2.57842
-2.52528
-2.47245
-2.42019
-2.36866
-2.318
-2.26814
-2.21943
-2.172
-2.12597
-2.08137
-2.03822
-1.99658
-1.95662
-1.91773
-1.88025
-1.84406
-1.80934
-3.75842
-3.76903
-3.7737
-3.77247
-3.76539
-3.75251
-3.73393
-3.70974
-3.68006
-3.64505
-3.60487
-3.55971
-3.50982
-3.45543
-3.39683
-3.33428
-3.26809
-3.19855
-3.12606
-3.05021
-2.97198
-2.89153
-2.80982
-2.72739
-2.64458
-2.56171
-2.47912
-2.39714
-2.31606
-2.23635
-2.15783
-2.08068
-2.00478
-1.93063
-1.85841
-1.7882
-1.72011
-1.65413
-1.59024
-1.52869
-1.46971
-1.41339
-1.35967
-1.30849
-1.25987
-1.21385
-1.17021
-1.12923
-1.09044
-1.05365
-4.07982
-4.05819
-4.0294
-3.99344
-3.95034
-3.90014
-3.84296
-3.77894
-3.70828
-3.63127
-3.54818
-3.45935
-3.36536
-3.26668
-3.16388
-3.05754
-2.94829
-2.83674
-2.72352
-2.60847
-2.49264
-2.37662
-2.26102
-2.14645
-2.0334
-1.92226
-1.81356
-1.70786
-1.60549
-1.5068
-1.41188
-1.32093
-1.23403
-1.15126
-1.07265
-0.997887
-0.926952
-0.859859
-0.796439
-0.736799
-0.680993
-0.628605
-0.579626
-0.534047
-0.491685
-0.452487
-0.416349
-0.382914
-0.352024
-0.323534
-4.24864
-4.19757
-4.13711
-4.06718
-3.98769
-3.8988
-3.80068
-3.69369
-3.57821
-3.45501
-3.32464
-3.18762
-3.0455
-2.89905
-2.74934
-2.5975
-2.44472
-2.29206
-2.14033
-1.99024
-1.84303
-1.69936
-1.55984
-1.42509
-1.2954
-1.17083
-1.05224
-0.939931
-0.834101
-0.735023
-0.642725
-0.557167
-0.478112
-0.405172
-0.338068
-0.276546
-0.220128
-0.168596
-0.121693
-0.0790818
-0.0403571
-0.0052106
0.0265629
0.0551448
0.0807125
0.103443
0.123562
0.14134
0.156968
0.170615
-4.37779
-4.30336
-4.21593
-4.11527
-4.00134
-3.8743
-3.7346
-3.58294
-3.42032
-3.24813
-3.06766
-2.88031
-2.68854
-2.49403
-2.29863
-2.10417
-1.91258
-1.72552
-1.54427
-1.37002
-1.20404
-1.04702
-0.899519
-0.761781
-0.633819
-0.51564
-0.407217
-0.308279
-0.218507
-0.137534
-0.0648979
-7.21321e-05
0.057575
0.108662
0.153806
0.193584
0.228532
0.259175
0.285982
0.309343
0.329691
0.347378
0.362738
0.375996
0.387294
0.396824
0.404778
0.411325
0.416609
0.420736
-4.52248
-4.43962
-4.33927
-4.22081
-4.08401
-3.92907
-3.75667
-3.56795
-3.36467
-3.14912
-2.92385
-2.69151
-2.45575
-2.21972
-1.98612
-1.75758
-1.53704
-1.32642
-1.12741
-0.941145
-0.76838
-0.6097
-0.465116
-0.334361
-0.216862
-0.111984
-0.018927
0.063189
0.135276
0.198246
0.252992
0.300361
0.34117
0.376246
0.406315
0.432021
0.453973
0.472716
0.488589
0.502012
0.513305
0.522972
0.531172
0.538095
0.543933
0.548765
0.552709
0.555844
0.558352
0.560262
-4.70388
-4.65333
-4.58237
-4.4894
-4.37309
-4.23285
-4.06851
-3.88082
-3.67096
-3.44128
-3.1948
-2.93699
-2.67162
-2.40312
-2.13555
-1.87239
-1.61777
-1.37445
-1.14508
-0.931571
-0.734787
-0.555297
-0.393263
-0.248123
-0.119229
-0.00579493
0.0933523
0.179399
0.253564
0.317176
0.371475
0.417624
0.456681
0.489691
0.517582
0.541127
0.561014
0.577873
0.592201
0.60428
0.614453
0.623158
0.630674
0.637134
0.642729
0.64759
0.651761
0.655309
0.658406
0.661074
-4.8269
-4.82431
-4.80673
-4.77095
-4.7141
-4.63386
-4.52836
-4.39655
-4.23826
-4.05414
-3.84583
-3.61531
-3.36593
-3.10133
-2.82561
-2.54337
-2.25873
-1.97618
-1.70011
-1.43425
-1.18186
-0.945206
-0.726353
-0.526758
-0.347165
-0.187597
-0.0474835
0.0741317
0.178622
0.267635
0.342899
0.406158
0.459114
0.503345
0.54014
0.570719
0.596286
0.617726
0.635781
0.651065
0.664096
0.675147
0.684581
0.692704
0.699785
0.705954
0.711369
0.716092
0.720231
0.723851
-5.3052
-5.23968
-5.16353
-5.0743
-4.96968
-4.84777
-4.70736
-4.54756
-4.36776
-4.1679
-3.94942
-3.7138
-3.46348
-3.20152
-2.93157
-2.65634
-2.37968
-2.10503
-1.83581
-1.57537
-1.32654
-1.0916
-0.872322
-0.669787
-0.484783
-0.317673
-0.168302
-0.0361125
0.0798767
0.180739
0.267749
0.342317
0.405839
0.459714
0.505232
0.543615
0.575964
0.603207
0.62617
0.645568
0.662029
0.676031
0.687943
0.698161
0.706988
0.714583
0.721158
0.72684
0.731805
0.73617
-3.7345
-3.65272
-3.55835
-3.45036
-3.32695
-3.18995
-3.04122
-2.88211
-2.71384
-2.53834
-2.35678
-2.17145
-1.98416
-1.79704
-1.61156
-1.42997
-1.25334
-1.08294
-0.920222
-0.766125
-0.621285
-0.486167
-0.361034
-0.245839
-0.140424
-0.0443525
0.0427843
0.121503
0.192346
0.255856
0.312604
0.363136
0.408003
0.44775
0.482815
0.513655
0.540764
0.56459
0.585485
0.603798
0.619849
0.633968
0.64634
0.657195
0.666698
0.675096
0.682516
0.689055
0.69482
0.699883
-1.58616
-1.5448
-1.50015
-1.45129
-1.39869
-1.34122
-1.27925
-1.21324
-1.14354
-1.0705
-0.994607
-0.916343
-0.836264
-0.755002
-0.673238
-0.591692
-0.510926
-0.431766
-0.354486
-0.279459
-0.207147
-0.137866
-0.0719162
-0.00951474
0.0492171
0.10421
0.15553
0.203208
0.247302
0.28796
0.325343
0.359658
0.391061
0.419771
0.445905
0.469643
0.491154
0.510668
0.528331
0.544285
0.55868
0.571658
0.583396
0.593977
0.603508
0.612075
0.619788
0.626755
0.63301
0.638591
-0.646511
-0.621064
-0.592708
-0.561888
-0.529076
-0.494638
-0.458792
-0.421708
-0.38359
-0.344656
-0.305104
-0.265134
-0.224916
-0.184638
-0.1445
-0.104703
-0.0654294
-0.0268341
0.010889
0.0476429
0.083383
0.118036
0.151499
0.183682
0.214526
0.243948
0.271923
0.29845
0.323538
0.347158
0.369328
0.390078
0.409453
0.427548
0.44434
0.459909
0.474305
0.487639
0.499976
0.511357
0.521845
0.531501
0.540417
0.548612
0.556098
0.562985
0.569313
0.575105
0.580392
0.585191
-0.355251
-0.336144
-0.313006
-0.286526
-0.257483
-0.226551
-0.194264
-0.161096
-0.127441
-0.0936393
-0.0599754
-0.0266861
0.00604421
0.0380783
0.0691611
0.0991912
0.12814
0.155976
0.182633
0.208142
0.232486
0.25565
0.277653
0.298527
0.318258
0.336839
0.354323
0.370804
0.386302
0.400843
0.414464
0.427232
0.439126
0.450199
0.460481
0.470052
0.478948
0.48719
0.494821
0.501882
0.50841
0.514445
0.52003
0.525172
0.52993
0.534331
0.538402
0.542171
0.545666
0.548899
-0.2835
-0.250452
-0.222849
-0.194525
-0.163518
-0.130217
-0.0953631
-0.0596709
-0.0237834
0.0117479
0.0464792
0.0800755
0.112309
0.143014
0.172109
0.19956
0.225382
0.249588
0.27223
0.293371
0.31308
0.331298
0.3481
0.363604
0.377905
0.391079
0.403201
0.414358
0.424612
0.434033
0.442685
0.450601
0.457831
0.464441
0.470478
0.475977
0.480981
0.485534
0.489668
0.49342
0.496839
0.499954
0.502803
0.505418
0.507834
0.510081
0.512188
0.51419
0.516127
0.517973
-0.281936
-0.253945
-0.205073
-0.155558
-0.116733
-0.0807571
-0.0446326
-0.00837372
0.0275237
0.0625572
0.0963075
0.128473
0.158869
0.187388
0.21401
0.238787
0.261796
0.283096
0.302794
0.320972
0.337724
0.353134
0.367287
0.380179
0.391856
0.402433
0.411979
0.420561
0.428256
0.435124
0.441224
0.446617
0.451355
0.455495
0.459088
0.46219
0.46485
0.467122
0.469064
0.470709
0.472116
0.473332
0.474401
0.475368
0.476282
0.477167
0.478064
0.479002
0.480028
0.481168
-0.194481
-0.197004
-0.172392
-0.134626
-0.0884722
-0.0483193
-0.0141495
0.0185344
0.0506159
0.0820137
0.112458
0.141686
0.169508
0.195829
0.220576
0.243747
0.265355
0.285429
0.304005
0.321125
0.336836
0.351151
0.364088
0.375712
0.386063
0.395226
0.403257
0.410221
0.416186
0.42122
0.425393
0.428786
0.431463
0.433508
0.434996
0.436006
0.43661
0.436885
0.436905
0.436735
0.436444
0.436095
0.435748
0.435455
0.435269
0.435234
0.435391
0.435775
0.436418
0.437344
-0.0727985
-0.0970232
-0.0914781
-0.0738481
-0.0468456
-0.015135
0.0130849
0.0401858
0.0672945
0.0944055
0.121278
0.147622
0.173132
0.197634
0.220986
0.243072
0.263791
0.283055
0.300818
0.317053
0.331752
0.344921
0.356582
0.366767
0.375531
0.382928
0.38903
0.393916
0.397675
0.400406
0.402204
0.403179
0.40344
0.403089
0.402241
0.401
0.399464
0.397733
0.395899
0.394043
0.392242
0.39057
0.389087
0.387847
0.386898
0.386281
0.386023
0.386154
0.386692
0.387645
-1.96139
-1.9566
-1.95177
-1.94693
-1.94206
-1.93717
-1.93229
-1.9274
-1.92251
-1.91763
-1.91276
-1.90789
-1.90302
-1.89816
-1.89331
-1.88848
-1.88365
-1.87885
-1.87406
-1.86928
-1.86451
-1.85977
-1.85504
-1.85032
-1.84563
-1.84095
-1.83629
-1.83164
-1.82703
-1.82245
-1.81792
-1.81341
-1.80894
-1.80449
-1.80008
-1.79569
-1.79134
-1.78703
-1.78273
-1.77845
-1.77417
-1.76992
-1.76563
-1.76139
-1.75709
-1.75281
-1.74851
-1.74423
-1.73993
-1.73562
-1.73133
-1.72703
-1.72271
-1.71835
-1.71397
-1.70957
-1.70513
-1.70065
-1.69613
-1.69157
-1.68694
-1.68228
-1.67753
-1.67272
-1.66783
-1.66293
-1.65792
-1.65282
-1.64768
-1.64244
-1.63712
-1.63169
-1.62615
-1.62049
-1.61473
-1.60886
-1.60287
-1.59674
-1.59049
-1.58411
-1.57757
-1.57087
-1.56406
-1.55712
-1.55006
-1.54287
-1.53552
-1.52804
-1.52039
-1.51259
-1.50469
-1.49661
-1.48835
-1.47991
-1.47127
-1.46243
-1.45343
-1.44426
-1.4349
-1.42537
-1.41567
-1.40578
-1.39574
-1.38556
-1.37518
-1.36462
-1.35386
-1.34289
-1.33175
-1.32041
-1.30887
-1.29713
-1.28521
-1.27312
-1.26087
-1.24842
-1.23578
-1.22293
-1.20989
-1.19665
-1.18319
-1.16948
-1.15554
-1.14141
-1.12705
-1.11244
-1.09759
-1.08256
-1.06733
-1.05191
-1.03628
-1.02045
-1.00446
-0.988316
-0.972017
-0.955552
-0.938913
-0.922104
-0.905137
-0.888
-0.870686
-0.853192
-0.835514
-0.817659
-0.79965
-0.781508
-0.763247
-0.744874
-0.726392
-0.707806
-0.689128
-0.670373
-0.651556
-0.632691
-0.613789
-0.594868
-0.575946
-0.557044
-0.538183
-0.519384
-0.500669
-0.482063
-0.463589
-0.445268
-0.427123
-0.409177
-0.391453
-0.373976
-0.356769
-0.339858
-0.323267
-0.30702
-0.29114
-0.27565
-0.26057
-0.245922
-0.231723
-0.21799
-0.204738
-0.19198
-0.179727
-0.167986
-0.156765
-0.146067
-0.135894
-0.126246
-0.117119
-0.108507
-0.100405
-0.0928015
-0.0856862
-0.0790457
-0.0728652
-0.0671284
-0.061818
-0.0569151
-0.0524004
-0.0482537
-0.0444542
-0.0409812
-0.0378134
-0.0349302
-0.0323107
-0.0299349
-0.0277833
-0.0258368
-0.0240774
-0.0224881
-0.0210526
-0.0197557
-0.0185834
-0.0175225
-0.0165611
-0.0156881
-0.0148937
-0.0141687
-0.0135051
-0.0128957
-0.0123341
-0.0118144
-0.0113318
-0.0108819
-0.0104607
-0.0100651
-0.00969194
-0.00933887
-0.00900367
-0.00868448
-0.00837967
-0.00808785
-0.00780781
-0.00753852
-0.00727906
-0.00702865
-0.00678661
-0.00655232
-0.00632527
-0.00610498
-0.00589103
-0.00568306
-0.00548074
-0.00528375
-0.00509185
-0.00490477
-0.0047223
-0.00454423
-0.00437039
-0.00420061
-0.00403473
-0.00387262
-0.00371416
-0.00355925
-0.00340778
-0.00325967
-0.00311486
-0.00297329
-0.00283492
-0.00269972
-0.00256767
-0.00243877
-0.00231302
-0.00219045
-0.00207108
-0.00195494
-0.00184208
-0.00173255
-0.00162641
-0.0015237
-0.00142449
-0.00132884
-0.00123679
-0.00114839
-0.0010637
-0.000982743
-0.000905551
-0.000832142
-0.000762522
-0.000696687
-0.00063462
-0.00057629
-0.00052165
-0.000470643
-0.000423194
-0.000379218
-0.000338611
-0.000301258
-0.000267032
-0.00023579
-0.000207377
-0.00018162
-0.000158334
-0.000137311
-0.000118316
-0.000101079
-8.52821e-05
-7.05353e-05
-5.63539e-05
-4.21204e-05
-2.70383e-05
-1.00723e-05
-2.31253
-2.30503
-2.29751
-2.28997
-2.28247
-2.27497
-2.26748
-2.26008
-2.25265
-2.24524
-2.23781
-2.23044
-2.22311
-2.21583
-2.20859
-2.20138
-2.19433
-2.18713
-2.17995
-2.17287
-2.16584
-2.15888
-2.15204
-2.14518
-2.13837
-2.13158
-2.12493
-2.11835
-2.11189
-2.1056
-2.09919
-2.09278
-2.08651
-2.08034
-2.07435
-2.06834
-2.06229
-2.05623
-2.05029
-2.04436
-2.03846
-2.03266
-2.02695
-2.02143
-2.01588
-2.01038
-2.005
-1.99972
-1.99458
-1.98951
-1.98448
-1.97947
-1.97458
-1.96981
-1.96523
-1.9605
-1.95587
-1.95135
-1.9469
-1.94258
-1.93828
-1.934
-1.92976
-1.92561
-1.92153
-1.91754
-1.91365
-1.90975
-1.90582
-1.90192
-1.89813
-1.89437
-1.89071
-1.88705
-1.88338
-1.8797
-1.87606
-1.87253
-1.86888
-1.86517
-1.86148
-1.85779
-1.85411
-1.85025
-1.84622
-1.84217
-1.83807
-1.83387
-1.82959
-1.8252
-1.82062
-1.81587
-1.81098
-1.80595
-1.80076
-1.79545
-1.78989
-1.78411
-1.77808
-1.77189
-1.76548
-1.7589
-1.75206
-1.74496
-1.73757
-1.72998
-1.72211
-1.71398
-1.7055
-1.69666
-1.68751
-1.67805
-1.66827
-1.65816
-1.64764
-1.63682
-1.62565
-1.61413
-1.60224
-1.58995
-1.57727
-1.56425
-1.55084
-1.53702
-1.52274
-1.50803
-1.49288
-1.47734
-1.46139
-1.44506
-1.42834
-1.41126
-1.39385
-1.37611
-1.35809
-1.3398
-1.32119
-1.30225
-1.28297
-1.26338
-1.2435
-1.2233
-1.20277
-1.18188
-1.16065
-1.13914
-1.11738
-1.09537
-1.0731
-1.05054
-1.02769
-1.00458
-0.981224
-0.957632
-0.933797
-0.909733
-0.885471
-0.861038
-0.836455
-0.811737
-0.786915
-0.762021
-0.737086
-0.712132
-0.687179
-0.662252
-0.63738
-0.612598
-0.587939
-0.563441
-0.539143
-0.515088
-0.491318
-0.467877
-0.444808
-0.422155
-0.399959
-0.37826
-0.357098
-0.336508
-0.316526
-0.297183
-0.278506
-0.260522
-0.243251
-0.226711
-0.210916
-0.195876
-0.181597
-0.168082
-0.155327
-0.143329
-0.132076
-0.121557
-0.111754
-0.102648
-0.094216
-0.0864335
-0.0792727
-0.0727046
-0.0666982
-0.061222
-0.0562432
-0.0517289
-0.0476464
-0.043963
-0.0406469
-0.0376669
-0.0349932
-0.0325972
-0.030452
-0.028532
-0.0268135
-0.0252745
-0.0238947
-0.0226557
-0.0215407
-0.0205344
-0.0196234
-0.0187955
-0.0180401
-0.0173478
-0.0167102
-0.0161203
-0.0155717
-0.0150592
-0.014578
-0.0141242
-0.0136944
-0.0132856
-0.0128955
-0.0125218
-0.0121627
-0.0118167
-0.0114825
-0.011159
-0.010845
-0.0105398
-0.0102425
-0.00995258
-0.00966936
-0.00939233
-0.009121
-0.00885493
-0.00859373
-0.00833704
-0.00808451
-0.00783584
-0.00759074
-0.00734895
-0.00711024
-0.00687438
-0.00664119
-0.00641049
-0.00618215
-0.00595605
-0.00573211
-0.00551029
-0.00529057
-0.00507296
-0.00485753
-0.00464436
-0.00443357
-0.00422533
-0.00401981
-0.00381722
-0.00361781
-0.00342181
-0.00322952
-0.0030412
-0.00285715
-0.00267767
-0.00250305
-0.00233358
-0.00216955
-0.00201123
-0.00185886
-0.00171268
-0.0015729
-0.00143969
-0.0013132
-0.00119354
-0.00108078
-0.000974947
-0.000876036
-0.000783991
-0.000698708
-0.000620036
-0.000547774
-0.000481662
-0.000421378
-0.000366527
-0.00031662
-0.000271055
-0.00022907
-0.000189699
-0.000151691
-0.000113429
-7.28065e-05
-2.70911e-05
-2.28284
-2.26967
-2.25666
-2.2438
-2.23111
-2.21859
-2.20624
-2.19406
-2.18205
-2.1703
-2.15876
-2.14732
-2.136
-2.12485
-2.11396
-2.10322
-2.09273
-2.08236
-2.07164
-2.06109
-2.05079
-2.04065
-2.0307
-2.02093
-2.01136
-2.002
-1.99284
-1.98399
-1.97533
-1.96682
-1.9585
-1.95031
-1.94237
-1.93466
-1.92717
-1.91987
-1.91294
-1.90595
-1.89896
-1.89215
-1.88548
-1.87876
-1.87226
-1.86625
-1.86025
-1.85435
-1.84875
-1.84344
-1.83841
-1.83365
-1.82921
-1.82509
-1.82117
-1.81757
-1.81434
-1.81132
-1.80831
-1.80548
-1.803
-1.80081
-1.79892
-1.79746
-1.79602
-1.79456
-1.79339
-1.79246
-1.79172
-1.79126
-1.79091
-1.79068
-1.79053
-1.79065
-1.79106
-1.79173
-1.79264
-1.79381
-1.79511
-1.79666
-1.79843
-1.8004
-1.80267
-1.80519
-1.808
-1.81106
-1.8142
-1.81735
-1.82068
-1.82424
-1.8278
-1.83101
-1.83423
-1.83759
-1.84108
-1.84471
-1.84827
-1.85176
-1.85528
-1.85883
-1.86231
-1.86569
-1.86887
-1.87197
-1.87496
-1.87787
-1.88053
-1.88294
-1.88498
-1.88679
-1.88831
-1.88949
-1.89027
-1.89056
-1.89048
-1.89007
-1.88923
-1.88757
-1.88542
-1.8828
-1.8796
-1.87585
-1.8715
-1.86642
-1.8606
-1.85416
-1.84702
-1.83923
-1.83066
-1.82133
-1.81122
-1.80031
-1.7887
-1.77637
-1.76327
-1.74948
-1.73491
-1.71956
-1.70345
-1.68663
-1.66907
-1.65085
-1.63188
-1.61233
-1.59222
-1.57149
-1.55018
-1.52833
-1.50597
-1.48313
-1.45985
-1.436
-1.41155
-1.38654
-1.36098
-1.3349
-1.30826
-1.28106
-1.25341
-1.22537
-1.19695
-1.16815
-1.13897
-1.10944
-1.0796
-1.04946
-1.01903
-0.988316
-0.957367
-0.926208
-0.894856
-0.863341
-0.831702
-0.799994
-0.768277
-0.736617
-0.705077
-0.673722
-0.642624
-0.611852
-0.581475
-0.551564
-0.522184
-0.493402
-0.465279
-0.437876
-0.411247
-0.385444
-0.360514
-0.336499
-0.313436
-0.291358
-0.27029
-0.250254
-0.231263
-0.213327
-0.196445
-0.180613
-0.165821
-0.152049
-0.139277
-0.127473
-0.116607
-0.106639
-0.0975293
-0.0892335
-0.0817052
-0.0748967
-0.0687593
-0.0632439
-0.0583019
-0.0538855
-0.0499481
-0.0464449
-0.0433334
-0.0405731
-0.0381263
-0.0359579
-0.0340354
-0.0323293
-0.0308127
-0.0294614
-0.0282538
-0.0271706
-0.0261949
-0.0253118
-0.0245082
-0.023773
-0.0230965
-0.0224702
-0.0218871
-0.0213411
-0.0208271
-0.0203406
-0.0198779
-0.0194359
-0.0190118
-0.0186034
-0.0182088
-0.0178261
-0.0174541
-0.0170912
-0.0167364
-0.0163888
-0.0160472
-0.0157109
-0.015379
-0.0150509
-0.0147257
-0.0144028
-0.0140816
-0.0137614
-0.0134415
-0.0131215
-0.0128007
-0.0124786
-0.0121548
-0.0118288
-0.0115002
-0.0111689
-0.0108345
-0.010497
-0.0101564
-0.00981261
-0.00946591
-0.00911654
-0.00876485
-0.00841125
-0.00805627
-0.00770048
-0.00734456
-0.00698922
-0.00663524
-0.00628346
-0.00593477
-0.00559006
-0.00525028
-0.00491637
-0.00458928
-0.00426996
-0.00395931
-0.00365823
-0.00336755
-0.00308807
-0.00282049
-0.00256545
-0.00232349
-0.00209504
-0.00188041
-0.00167976
-0.00149309
-0.00132025
-0.00116085
-0.00101427
-0.0008796
-0.000755527
-0.000640259
-0.000531356
-0.000425539
-0.000318444
-0.000204351
-7.58852e-05
-1.78412
-1.76584
-1.74787
-1.73023
-1.71294
-1.69601
-1.67944
-1.66324
-1.6474
-1.63192
-1.61683
-1.60215
-1.58787
-1.57396
-1.56041
-1.54737
-1.53461
-1.52193
-1.50933
-1.4969
-1.48488
-1.47316
-1.46173
-1.45057
-1.43971
-1.42914
-1.41888
-1.40891
-1.39922
-1.38982
-1.3807
-1.37173
-1.36303
-1.35458
-1.34636
-1.33853
-1.33102
-1.32382
-1.31698
-1.31049
-1.30459
-1.29903
-1.29356
-1.28842
-1.2836
-1.27883
-1.2745
-1.27067
-1.26722
-1.26412
-1.26141
-1.25912
-1.25727
-1.25588
-1.25495
-1.25462
-1.25461
-1.25492
-1.25547
-1.25656
-1.25828
-1.2606
-1.26343
-1.26631
-1.2694
-1.27291
-1.27679
-1.28099
-1.28549
-1.29054
-1.2955
-1.30067
-1.30618
-1.31202
-1.3182
-1.32423
-1.33035
-1.33675
-1.34342
-1.35044
-1.35776
-1.36545
-1.37349
-1.38192
-1.39068
-1.39974
-1.40905
-1.41862
-1.42862
-1.43867
-1.44904
-1.4596
-1.47066
-1.48223
-1.49433
-1.50675
-1.51936
-1.53201
-1.54492
-1.55815
-1.57166
-1.58556
-1.59974
-1.61429
-1.62915
-1.64435
-1.6599
-1.67551
-1.69097
-1.7062
-1.72148
-1.73676
-1.75195
-1.76714
-1.78218
-1.79696
-1.81143
-1.82549
-1.83925
-1.85269
-1.86567
-1.87819
-1.88993
-1.90094
-1.91104
-1.92026
-1.92858
-1.93599
-1.94242
-1.94794
-1.95233
-1.95558
-1.95766
-1.95859
-1.95847
-1.95725
-1.95474
-1.95095
-1.94592
-1.93969
-1.93208
-1.92308
-1.91264
-1.90087
-1.88782
-1.87346
-1.85796
-1.84098
-1.82274
-1.80337
-1.78287
-1.76129
-1.73861
-1.71482
-1.68996
-1.66407
-1.63722
-1.60945
-1.58097
-1.55174
-1.52175
-1.49101
-1.45951
-1.42726
-1.3943
-1.36065
-1.32642
-1.2916
-1.25616
-1.2201
-1.18342
-1.14619
-1.10847
-1.07032
-1.03181
-0.993001
-0.954011
-0.914935
-0.875868
-0.836906
-0.798149
-0.759701
-0.721664
-0.684135
-0.647206
-0.610963
-0.575492
-0.540875
-0.507191
-0.474519
-0.442931
-0.412496
-0.383275
-0.355322
-0.328684
-0.303396
-0.279485
-0.256968
-0.23585
-0.216128
-0.197786
-0.180801
-0.165138
-0.150758
-0.13761
-0.125641
-0.114789
-0.104992
-0.0961814
-0.0882894
-0.0812465
-0.0749835
-0.0694325
-0.0645276