/*--------------------------------*- C++ -*----------------------------------*\
| =========                 |                                                 |
| \\      /  F ield         | OpenFOAM: The Open Source CFD Toolbox           |
|  \\    /   O peration     | Version:  2.4.0                                 |
|   \\  /    A nd           | Web:      www.OpenFOAM.org                      |
|    \\/     M anipulation  |                                                 |
\*---------------------------------------------------------------------------*/
FoamFile
{
    version     2.0;
    format      ascii;
    class       volScalarField;
    location    "2.8";
    object      p;
}
// * * * * * * * * * * * * * * * * * * * * * * * * * * * * * * * * * * * * * //

dimensions      [1 -1 -2 0 0 0 0];

internalField   nonuniform List<scalar> 
8000
(
0.406553
0.409649
0.412242
0.414361
0.416403
0.418333
0.420265
0.422012
0.42373
0.425179
0.426581
0.427606
0.428555
0.428996
0.429355
0.429053
0.428402
0.425982
0.422242
0.421259
0.440645
0.486133
0.437664
-0.118157
-1.55717
-1.26793
-0.595488
-0.457268
-0.466207
-0.465428
-0.464969
-0.465005
-0.465042
-0.46505
-0.465045
-0.465039
-0.465035
-0.46503
-0.465026
-0.465021
-0.465016
-0.465012
-0.465007
-0.465001
-0.464996
-0.464991
-0.464985
-0.46498
-0.464974
-0.464968
1.27861
1.26792
1.25931
1.25418
1.25201
1.25235
1.2552
1.26047
1.26829
1.27856
1.29144
1.30685
1.32501
1.34585
1.36951
1.39549
1.4239
1.45764
1.50762
1.58075
1.61298
1.35483
0.298081
-1.92201
-1.42335
-0.834793
-0.5247
-0.4917
-0.487504
-0.487886
-0.488074
-0.488094
-0.488079
-0.488068
-0.488063
-0.488058
-0.488053
-0.488047
-0.48804
-0.488032
-0.488025
-0.488016
-0.488008
-0.487999
-0.487989
-0.487979
-0.487969
-0.487959
-0.487948
-0.487936
0.424062
0.433494
0.443283
0.453147
0.463342
0.474326
0.485848
0.498248
0.511147
0.525057
0.539478
0.555151
0.571296
0.588515
0.605084
0.623532
0.652251
0.713507
0.78867
0.657379
-0.491783
-3.05858
-3.17034
-2.31896
-0.793339
-0.511609
-0.506606
-0.510815
-0.51089
-0.510858
-0.510854
-0.510864
-0.510872
-0.51088
-0.510887
-0.510894
-0.5109
-0.510907
-0.510914
-0.510921
-0.510927
-0.510932
-0.510936
-0.510939
-0.51094
-0.510941
-0.51094
-0.510939
-0.510935
-0.510931
0.485414
0.503368
0.522757
0.539227
0.552428
0.562854
0.570525
0.575532
0.577631
0.57692
0.573002
0.565576
0.553447
0.537815
0.528297
0.547711
0.586063
0.42388
-0.767802
-3.51749
-4.40356
-3.02765
-0.797378
-0.508764
-0.532231
-0.535741
-0.535343
-0.53533
-0.535325
-0.535265
-0.535202
-0.535138
-0.535079
-0.535024
-0.534972
-0.534924
-0.534878
-0.534835
-0.534792
-0.534752
-0.534714
-0.534674
-0.534636
-0.534599
-0.534563
-0.534529
-0.534495
-0.534461
-0.534427
-0.534394
0.0129635
0.0372443
0.0607489
0.0797966
0.0951109
0.107155
0.116102
0.121659
0.123585
0.121267
0.114599
0.106524
0.106307
0.127025
0.142394
-0.0616131
-1.43894
-4.63821
-5.89844
-3.48187
-0.68921
-0.492154
-0.560276
-0.555587
-0.556766
-0.557306
-0.557387
-0.5574
-0.557441
-0.557495
-0.557547
-0.557595
-0.557638
-0.557678
-0.557715
-0.557749
-0.55778
-0.557808
-0.557834
-0.557856
-0.557875
-0.557895
-0.55791
-0.557922
-0.55793
-0.557935
-0.557936
-0.557935
-0.557931
-0.557924
1.44522
1.46853
1.49867
1.53436
1.57433
1.62025
1.6701
1.72582
1.78543
1.85719
1.95177
2.08938
2.18582
1.9092
-0.314481
-4.35556
-9.11853
-4.61322
-1.44603
-0.608541
-0.585437
-0.580667
-0.583681
-0.583791
-0.583551
-0.583436
-0.583432
-0.583435
-0.583432
-0.583423
-0.58341
-0.583393
-0.583371
-0.583344
-0.583314
-0.583279
-0.58324
-0.583198
-0.583152
-0.583103
-0.583051
-0.582996
-0.58294
-0.582882
-0.582822
-0.582762
-0.5827
-0.582638
-0.582574
-0.58251
1.39083
1.41749
1.45611
1.5071
1.56947
1.64433
1.73214
1.84503
2.00623
2.21551
2.23517
0.460049
-5.0889
-6.77494
-7.50712
-1.58468
-0.657065
-0.629351
-0.608874
-0.607035
-0.608533
-0.608415
-0.608149
-0.608063
-0.60807
-0.608092
-0.608109
-0.608114
-0.608112
-0.608104
-0.608089
-0.608068
-0.608041
-0.608007
-0.607967
-0.607921
-0.607869
-0.607656
-0.607746
-0.607677
-0.607604
-0.607368
-0.607295
-0.607205
-0.606955
-0.607004
-0.606901
-0.606785
-0.606669
-0.606358
-0.949288
-0.887208
-0.810446
-0.728357
-0.626936
-0.470628
-0.221299
-0.097849
-1.01868
-4.84807
-7.61901
-13.9877
-7.19626
-3.227
-0.663778
-0.607308
-0.612631
-0.638749
-0.638619
-0.637861
-0.637372
-0.637034
-0.636751
-0.636499
-0.636262
-0.636042
-0.635834
-0.635637
-0.635358
-0.635288
-0.635124
-0.634956
-0.634792
-0.634631
-0.634471
-0.634312
-0.634154
-0.633997
-0.633762
-0.633678
-0.633524
-0.63337
-0.633115
-0.633036
-0.632883
-0.632742
-0.632382
-0.632427
-0.632298
-0.632149
-4.91303
-4.89033
-4.86191
-4.79552
-4.6304
-4.57422
-5.75478
-9.78447
-14.6022
-10.7654
-0.699069
-0.13233
-0.65562
-0.652431
-0.658474
-0.66001
-0.660366
-0.660199
-0.660084
-0.660075
-0.660101
-0.660121
-0.660126
-0.660121
-0.660109
-0.660089
-0.66006
-0.659895
-0.659989
-0.659935
-0.659875
-0.659721
-0.65973
-0.659643
-0.659549
-0.659443
-0.659327
-0.659202
-0.659064
-0.658916
-0.658757
-0.658588
-0.658408
-0.65822
-0.658023
-0.657818
-0.657605
-0.65734
-0.657117
-0.656896
-10.059
-10.1214
-10.0881
-9.98715
-10.9106
-15.6452
-22.7204
-7.82179
-1.032
-0.650498
-0.657574
-0.661616
-0.674251
-0.675121
-0.675241
-0.675709
-0.676323
-0.676999
-0.677676
-0.678312
-0.678906
-0.679457
-0.679966
-0.680433
-0.680858
-0.681242
-0.681588
-0.681895
-0.682167
-0.682405
-0.682608
-0.68278
-0.682921
-0.683034
-0.683118
-0.683178
-0.683215
-0.683221
-0.6832
-0.683152
-0.683078
-0.682979
-0.682858
-0.682719
-0.682563
-0.682399
-0.682208
-0.681731
-0.681667
-0.681419
-3.986
-3.93752
-3.82816
-4.81222
-9.96186
-17.5301
-1.99326
-0.689494
-0.677998
-0.686502
-0.7074
-0.703122
-0.700332
-0.699391
-0.699089
-0.699385
-0.699715
-0.700063
-0.70042
-0.70078
-0.70114
-0.701493
-0.701835
-0.702163
-0.702474
-0.702767
-0.703041
-0.703297
-0.70353
-0.70374
-0.703924
-0.704083
-0.704218
-0.704326
-0.704407
-0.704462
-0.704497
-0.704519
-0.704528
-0.704516
-0.704491
-0.704447
-0.704395
-0.704332
-0.70426
-0.704179
-0.704093
-0.704003
-0.70391
-0.703817
-3.05906
-3.06382
-3.05428
-3.4669
-5.28854
-7.4128
-0.817809
-0.819712
-0.686997
-0.707078
-0.713916
-0.71891
-0.720496
-0.721935
-0.72315
-0.723891
-0.724337
-0.724695
-0.725061
-0.725412
-0.725689
-0.725879
-0.726008
-0.726102
-0.726165
-0.726162
-0.726131
-0.72608
-0.726012
-0.725929
-0.725824
-0.725717
-0.725378
-0.725538
-0.72545
-0.725257
-0.725658
-0.725638
-0.72556
-0.72588
-0.725734
-0.725531
-0.725453
-0.725464
-0.725164
-0.725056
-0.725094
-0.724813
-0.724705
-0.7246
-6.09655
-5.87622
-5.59467
-5.94461
-8.83859
-13.7386
-4.4675
-3.54541
-1.45694
-1.16685
-0.933179
-0.910173
-0.87189
-0.84102
-0.818586
-0.803548
-0.790069
-0.778351
-0.769658
-0.763463
-0.758491
-0.754404
-0.751562
-0.750048
-0.749572
-0.749747
-0.750244
-0.750806
-0.751189
-0.751284
-0.751191
-0.751043
-0.750905
-0.750801
-0.750701
-0.750586
-0.750446
-0.750286
-0.750106
-0.749914
-0.749874
-0.749142
-0.74979
-0.749624
-0.749472
-0.749309
-0.749171
-0.749068
-0.748541
-0.748468
-11.2419
-11.0129
-10.7345
-10.3789
-10.1242
-11.2033
-15.5217
-15.3538
-8.07529
-6.36322
-4.3468
-3.57282
-2.76517
-2.42645
-1.97609
-1.63914
-1.39317
-1.24251
-1.14824
-1.06181
-0.981003
-0.920526
-0.879384
-0.848206
-0.824007
-0.807274
-0.796823
-0.790746
-0.787044
-0.783607
-0.779254
-0.774373
-0.77041
-0.768133
-0.767041
-0.766663
-0.766899
-0.767495
-0.768042
-0.768288
-0.768313
-0.768317
-0.768341
-0.768327
-0.768267
-0.768166
-0.76806
-0.768011
-0.767825
-0.767647
0.67313
0.746358
0.842291
0.952657
1.05453
1.16585
1.40561
1.51554
0.364113
-2.19033
-6.45197
-3.72932
-1.28226
-0.912378
-0.863773
-0.906396
-0.9388
-1.07883
-1.23182
-1.29117
-1.30544
-1.36493
-1.44607
-1.48694
-1.48819
-1.45845
-1.38214
-1.24999
-1.08116
-0.940632
-0.880257
-0.878559
-0.887725
-0.890723
-0.888528
-0.88248
-0.872978
-0.861144
-0.848738
-0.836639
-0.824541
-0.812734
-0.802492
-0.795018
-0.790879
-0.789347
-0.789139
-0.789295
-0.789347
-0.789146
7.76105
7.67225
7.59377
7.53915
7.50603
7.49454
7.50858
7.52078
7.48405
7.44206
7.34275
7.21602
7.00376
7.16111
6.91902
7.21022
7.3194
5.99872
5.82227
5.93168
5.89302
5.74159
5.54541
5.32311
5.0105
4.56971
4.0151
3.36158
2.64902
1.98857
1.44762
0.97545
0.516472
0.0836576
-0.292559
-0.592477
-0.798683
-0.896457
-0.909541
-0.915712
-0.966144
-1.03519
-1.07471
-1.0679
-1.02263
-0.957715
-0.895495
-0.85014
-0.823352
-0.811726
4.64852
4.59321
4.5275
4.46718
4.41482
4.36871
4.32611
4.29082
4.25809
4.23516
4.22241
4.22325
4.23804
4.27019
4.31242
4.35519
4.39487
4.4319
4.47353
4.54809
4.61707
4.65254
4.67991
4.74536
4.8734
4.97611
5.03048
5.0479
5.05106
4.77397
4.42519
4.3539
4.38646
4.34548
4.17036
3.82862
3.29251
2.5822
1.811
1.10677
0.527441
0.0320436
-0.396848
-0.730636
-0.954685
-1.0916
-1.17729
-1.2002
-1.13431
-1.01088
5.68272
5.64763
5.61079
5.57787
5.54975
5.52261
5.5021
5.47741
5.45897
5.44
5.42427
5.41129
5.40085
5.39267
5.38728
5.38305
5.38036
5.38045
5.38242
5.38742
5.39585
5.4081
5.42378
5.44335
5.46659
5.49455
5.52706
5.56293
5.59718
5.62592
5.64933
5.66757
5.68762
5.70001
5.71731
5.73822
5.78341
5.7908
5.66171
5.00377
4.81103
4.66909
4.2095
3.39019
2.38593
1.37284
0.529313
-0.061387
-0.419756
-0.606612
5.41159
5.38601
5.35876
5.33419
5.31425
5.29292
5.2806
5.26023
5.2488
5.23341
5.22218
5.21215
5.20437
5.19821
5.19458
5.19138
5.18864
5.18791
5.18834
5.18986
5.19236
5.19665
5.20078
5.20698
5.21303
5.21981
5.22795
5.23632
5.2453
5.25617
5.26898
5.28314
5.2991
5.31721
5.33763
5.36068
5.3856
5.40795
5.42639
5.44165
5.45602
5.4756
5.4916
5.44425
5.16959
4.64319
4.44587
3.93892
3.05104
2.06226
4.61314
4.59931
4.58366
4.56899
4.55806
4.54347
4.53879
4.52436
4.51839
4.506
4.4973
4.48825
4.48071
4.47389
4.46779
4.46328
4.45662
4.4524
4.44896
4.44603
4.44257
4.44177
4.44024
4.43955
4.43945
4.43934
4.44013
4.4414
4.44312
4.4453
4.44794
4.45099
4.45445
4.4583
4.46253
4.46703
4.47176
4.47657
4.48155
4.48692
4.49315
4.50034
4.50695
4.50863
4.50853
4.50856
4.50879
4.47434
3.92956
3.39864
-0.464962
-0.464955
-0.464949
-0.464942
-0.464935
-0.464928
-0.46492
-0.464912
-0.464904
-0.464896
-0.464888
-0.464879
-0.46487
-0.464861
-0.464851
-0.464842
-0.464832
-0.464822
-0.464812
-0.464802
-0.464791
-0.464781
-0.464771
-0.46476
-0.46475
-0.46474
-0.46473
-0.464719
-0.464709
-0.464699
-0.464689
-0.46468
-0.46467
-0.464661
-0.464652
-0.464644
-0.464636
-0.464629
-0.464623
-0.464617
-0.464612
-0.464607
-0.464603
-0.4646
-0.464603
-0.464601
-0.464585
-0.464595
-0.464587
-0.464585
-0.487925
-0.487912
-0.4879
-0.487887
-0.487874
-0.48786
-0.487846
-0.487831
-0.487816
-0.487801
-0.487785
-0.487769
-0.487752
-0.487735
-0.487718
-0.4877
-0.487682
-0.487663
-0.487644
-0.487625
-0.487607
-0.487589
-0.487571
-0.487553
-0.487536
-0.487519
-0.487503
-0.487487
-0.487463
-0.487452
-0.487445
-0.48743
-0.487417
-0.487403
-0.48739
-0.487386
-0.48738
-0.487378
-0.487378
-0.487381
-0.487386
-0.487396
-0.487409
-0.487345
-0.487308
-0.487477
-0.487469
-0.48749
-0.487558
-0.487563
-0.510925
-0.510917
-0.510909
-0.510898
-0.510886
-0.510873
-0.510858
-0.510842
-0.510824
-0.510805
-0.510784
-0.510762
-0.510739
-0.510713
-0.510686
-0.510657
-0.510624
-0.510585
-0.510553
-0.510511
-0.51048
-0.510433
-0.510401
-0.510361
-0.510318
-0.510274
-0.51023
-0.510184
-0.510123
-0.509901
-0.510058
-0.510032
-0.509976
-0.509816
-0.509915
-0.509851
-0.509507
-0.509698
-0.50968
-0.509595
-0.509534
-0.509472
-0.509404
-0.50932
-0.509203
-0.507267
-0.509662
-0.509618
-0.509568
-0.509517
-0.53436
-0.534326
-0.534291
-0.534255
-0.534219
-0.534182
-0.534144
-0.534104
-0.534063
-0.534022
-0.533979
-0.533935
-0.533891
-0.533843
-0.533794
-0.533742
-0.533687
-0.533623
-0.533378
-0.533478
-0.53344
-0.533378
-0.533282
-0.53323
-0.533164
-0.533094
-0.533023
-0.53295
-0.532866
-0.532728
-0.531975
-0.533434
-0.533401
-0.533346
-0.533288
-0.533228
-0.533172
-0.532651
-0.533024
-0.532978
-0.532931
-0.532888
-0.53285
-0.532807
-0.532741
-0.532624
-0.53222
-0.53224
-0.53239
-0.532452
-0.557915
-0.557903
-0.557889
-0.557874
-0.557857
-0.557839
-0.557819
-0.557798
-0.557776
-0.55774
-0.557716
-0.557677
-0.55767
-0.55765
-0.557626
-0.557601
-0.557575
-0.557541
-0.555664
-0.55734
-0.557338
-0.557327
-0.55727
-0.55726
-0.557304
-0.557286
-0.557271
-0.557257
-0.557234
-0.5572
-0.556466
-0.556538
-0.556587
-0.556609
-0.55663
-0.556552
-0.556649
-0.555803
-0.556227
-0.556254
-0.556254
-0.556316
-0.556443
-0.556526
-0.556593
-0.556641
-0.556498
-0.556631
-0.556894
-0.557068
-0.582447
-0.582385
-0.582323
-0.582261
-0.582202
-0.582145
-0.582089
-0.582035
-0.581984
-0.581839
-0.581747
-0.581845
-0.581836
-0.581823
-0.581791
-0.581759
-0.581726
-0.581692
-0.579517
-0.581264
-0.581268
-0.581267
-0.581086
-0.581209
-0.581089
-0.581121
-0.581078
-0.581222
-0.581234
-0.579727
-0.579857
-0.58026
-0.580259
-0.580288
-0.580322
-0.580356
-0.580179
-0.580351
-0.579705
-0.579781
-0.579971
-0.579989
-0.580014
-0.580052
-0.580006
-0.579787
-0.582365
-0.582286
-0.58219
-0.582998
-0.606399
-0.60627
-0.606142
-0.605864
-0.605846
-0.605717
-0.605579
-0.605418
-0.605249
-0.605032
-0.604144
-0.605665
-0.605607
-0.605466
-0.605266
-0.605068
-0.604849
-0.604525
-0.603817
-0.605887
-0.605613
-0.605348
-0.605385
-0.605071
-0.603001
-0.605853
-0.604877
-0.606406
-0.605544
-0.605695
-0.605402
-0.605186
-0.605911
-0.604944
-0.60479
-0.604676
-0.603353
-0.603224
-0.603143
-0.602949
-0.602561
-0.604678
-0.604493
-0.604358
-0.605754
-0.603225
-0.606243
-0.606108
-0.60596
-0.605676
-0.631997
-0.631848
-0.631704
-0.631563
-0.631426
-0.631293
-0.631165
-0.631045
-0.630934
-0.630827
-0.629823
-0.631913
-0.631845
-0.63236
-0.632318
-0.632302
-0.63232
-0.630548
-0.63061
-0.630768
-0.630543
-0.630611
-0.630703
-0.628558
-0.628666
-0.628762
-0.627989
-0.627988
-0.628422
-0.627419
-0.627407
-0.628311
-0.628271
-0.629105
-0.628978
-0.628877
-0.628893
-0.628812
-0.628604
-0.628493
-0.631047
-0.630888
-0.630406
-0.631863
-0.630966
-0.631384
-0.631252
-0.631124
-0.630998
-0.630333
-0.65663
-0.65639
-0.656156
-0.655909
-0.655656
-0.655398
-0.655138
-0.654876
-0.654615
-0.654336
-0.653026
-0.654665
-0.654274
-0.65574
-0.65431
-0.656657
-0.656359
-0.656733
-0.656525
-0.655354
-0.657947
-0.656975
-0.657653
-0.657387
-0.656981
-0.65843
-0.658214
-0.657996
-0.657865
-0.65778
-0.656592
-0.656308
-0.657211
-0.657141
-0.657098
-0.657082
-0.657095
-0.657097
-0.656302
-0.65765
-0.657658
-0.657683
-0.657752
-0.658098
-0.658208
-0.657577
-0.657882
-0.658022
-0.658162
-0.658314
-0.681117
-0.681116
-0.680898
-0.680742
-0.680708
-0.68057
-0.680413
-0.680275
-0.680192
-0.6801
-0.68008
-0.680065
-0.680045
-0.680045
-0.678391
-0.680843
-0.680907
-0.680992
-0.68114
-0.678555
-0.67878
-0.67896
-0.679088
-0.680178
-0.679241
-0.67936
-0.68096
-0.681019
-0.680977
-0.681237
-0.68139
-0.680205
-0.681821
-0.681879
-0.681916
-0.682013
-0.682194
-0.682332
-0.680823
-0.680914
-0.683468
-0.683525
-0.683453
-0.683549
-0.683658
-0.683067
-0.682913
-0.684398
-0.684406
-0.684413
-0.703725
-0.703633
-0.703544
-0.703461
-0.703389
-0.703327
-0.703138
-0.703239
-0.703034
-0.703019
-0.702277
-0.702779
-0.702788
-0.70282
-0.702897
-0.70293
-0.702573
-0.704021
-0.702786
-0.702889
-0.70302
-0.702825
-0.70505
-0.70508
-0.705164
-0.705406
-0.705582
-0.704805
-0.705763
-0.705864
-0.706003
-0.705987
-0.706456
-0.705501
-0.706023
-0.706123
-0.706239
-0.706344
-0.706465
-0.70665
-0.70682
-0.706853
-0.708623
-0.708614
-0.708652
-0.709014
-0.709003
-0.708897
-0.709202
-0.709168
-0.724399
-0.724678
-0.724563
-0.724465
-0.724368
-0.724271
-0.724184
-0.724084
-0.723997
-0.723927
-0.723894
-0.723823
-0.724167
-0.723954
-0.723908
-0.723994
-0.723854
-0.723789
-0.725145
-0.72483
-0.724779
-0.725628
-0.725463
-0.725261
-0.727547
-0.727515
-0.727538
-0.727624
-0.727727
-0.72775
-0.727847
-0.729382
-0.729503
-0.729657
-0.729851
-0.730094
-0.730243
-0.730451
-0.731327
-0.730764
-0.73146
-0.730919
-0.73115
-0.731384
-0.731698
-0.731736
-0.732106
-0.732306
-0.731977
-0.733215
-0.748438
-0.748176
-0.748259
-0.748223
-0.748179
-0.748031
-0.748061
-0.748119
-0.746956
-0.747031
-0.747134
-0.746455
-0.746623
-0.746696
-0.746177
-0.746305
-0.746579
-0.74671
-0.746851
-0.747017
-0.747189
-0.747363
-0.74752
-0.746047
-0.746258
-0.746774
-0.745106
-0.746863
-0.745162
-0.747782
-0.747754
-0.74788
-0.748567
-0.7486
-0.748315
-0.750401
-0.750539
-0.750641
-0.750764
-0.750891
-0.751029
-0.751155
-0.750252
-0.750381
-0.750601
-0.750719
-0.750803
-0.750871
-0.750913
-0.750953
-0.767587
-0.767453
-0.767243
-0.766906
-0.766897
-0.766945
-0.766942
-0.76691
-0.766805
-0.766749
-0.766708
-0.766676
-0.766651
-0.766633
-0.766644
-0.766597
-0.765741
-0.765778
-0.765886
-0.765958
-0.766011
-0.766059
-0.766111
-0.766169
-0.766222
-0.766334
-0.766488
-0.766488
-0.766539
-0.767769
-0.767905
-0.767676
-0.767835
-0.767934
-0.766889
-0.76767
-0.767836
-0.76797
-0.768083
-0.768187
-0.768283
-0.768364
-0.768426
-0.768354
-0.768389
-0.769754
-0.76985
-0.769939
-0.770025
-0.770116
-0.789323
-0.787592
-0.788736
-0.788578
-0.788136
-0.787898
-0.787282
-0.787392
-0.787321
-0.787215
-0.787031
-0.78694
-0.78699
-0.786862
-0.786756
-0.786647
-0.786542
-0.78636
-0.786133
-0.786243
-0.786194
-0.786098
-0.785986
-0.786517
-0.786299
-0.786013
-0.78797
-0.787923
-0.787871
-0.787829
-0.7878
-0.787787
-0.787772
-0.787723
-0.787093
-0.787503
-0.787625
-0.787705
-0.787771
-0.787838
-0.787913
-0.78799
-0.788059
-0.786752
-0.788668
-0.788787
-0.788894
-0.788999
-0.789105
-0.789209
-0.808721
-0.808592
-0.808719
-0.80862
-0.808542
-0.808417
-0.808587
-0.808543
-0.808492
-0.808445
-0.808344
-0.808258
-0.808247
-0.808017
-0.807971
-0.807717
-0.808209
-0.805396
-0.807812
-0.807794
-0.807774
-0.807792
-0.807785
-0.807758
-0.806549
-0.807229
-0.807349
-0.807418
-0.807475
-0.807535
-0.807596
-0.807632
-0.80737
-0.807577
-0.8077
-0.807757
-0.807865
-0.807991
-0.808118
-0.808254
-0.808399
-0.808551
-0.808105
-0.808787
-0.808957
-0.80913
-0.809308
-0.809493
-0.80968
-0.80988
-0.902172
-0.849674
-0.834647
-0.831208
-0.830582
-0.830424
-0.830387
-0.830356
-0.830314
-0.830264
-0.830196
-0.830143
-0.830066
-0.829365
-0.830211
-0.830185
-0.830143
-0.829991
-0.829974
-0.829989
-0.829953
-0.829152
-0.829551
-0.829433
-0.829439
-0.829477
-0.829538
-0.829536
-0.829502
-0.829505
-0.829094
-0.829126
-0.82952
-0.829536
-0.829587
-0.829647
-0.82972
-0.829551
-0.829632
-0.829741
-0.82984
-0.829944
-0.830051
-0.830164
-0.830283
-0.830408
-0.830535
-0.830661
-0.830763
-0.830823
-0.70439
-0.767271
-0.815882
-0.844551
-0.851026
-0.851519
-0.851557
-0.851687
-0.851752
-0.851558
-0.851506
-0.851828
-0.851674
-0.851215
-0.852676
-0.852609
-0.852537
-0.852459
-0.852389
-0.852315
-0.852197
-0.852064
-0.85208
-0.851771
-0.852118
-0.852197
-0.852112
-0.852374
-0.852354
-0.852338
-0.852301
-0.852317
-0.852333
-0.852354
-0.852381
-0.852378
-0.852409
-0.852433
-0.852149
-0.852409
-0.852489
-0.852573
-0.852656
-0.852761
-0.852861
-0.852801
-0.852956
-0.853061
-0.853176
-0.853324
1.13842
0.341828
-0.322796
-0.728567
-0.848267
-0.869788
-0.873574
-0.874538
-0.874848
-0.874929
-0.874915
-0.875
-0.874724
-0.874424
-0.874706
-0.87468
-0.874637
-0.874594
-0.874551
-0.874508
-0.874461
-0.874381
-0.874421
-0.873948
-0.874458
-0.874433
-0.874412
-0.874395
-0.874385
-0.874381
-0.874289
-0.874141
-0.874314
-0.874306
-0.874329
-0.874354
-0.874387
-0.874417
-0.874407
-0.874492
-0.874559
-0.874617
-0.874679
-0.87474
-0.874795
-0.874891
-0.874968
-0.875042
-0.875103
-0.875168
2.65756
1.61181
0.378607
-0.55872
-0.834904
-0.884285
-0.893285
-0.895507
-0.89621
-0.89642
-0.896439
-0.896421
-0.896401
-0.896368
-0.896343
-0.896322
-0.896311
-0.896288
-0.896264
-0.89624
-0.896217
-0.896197
-0.896177
-0.896119
-0.896145
-0.896131
-0.896145
-0.896137
-0.896104
-0.8961
-0.896115
-0.896064
-0.896051
-0.896167
-0.896185
-0.896189
-0.896291
-0.896301
-0.896334
-0.896364
-0.896407
-0.896395
-0.896444
-0.896432
-0.896489
-0.896545
-0.8966
-0.89666
-0.896627
-0.896685
-0.464442
-0.46449
-0.464483
-0.464503
-0.464511
-0.464516
-0.464517
-0.464478
-0.464528
-0.46452
-0.464524
-0.464534
-0.464537
-0.464534
-0.464546
-0.464428
-0.464521
-0.464506
-0.464532
-0.464541
-0.464541
-0.464516
-0.464498
-0.464548
-0.46455
-0.464522
-0.464556
-0.464553
-0.464537
-0.464442
-0.46449
-0.464528
-0.464464
-0.464556
-0.464473
-0.464526
-0.464515
-0.464502
-0.464493
-0.464481
-0.464366
-0.464492
-0.464481
-0.463806
-0.46436
-0.464347
-0.464188
-0.464175
-0.464138
-0.464398
-0.464328
-0.464373
-0.46431
-0.464323
-0.464327
-0.464293
-0.464343
-0.464331
-0.46435
-0.464356
-0.464264
-0.463919
-0.464145
-0.463888
-0.463817
-0.463236
-0.463424
-0.463576
-0.463588
-0.463601
-0.463616
-0.463505
-0.463505
-0.463417
-0.46338
-0.463661
-0.463604
-0.463684
-0.463496
-0.463643
-0.463679
-0.463648
-0.463498
-0.46374
-0.463579
-0.463638
-0.463703
-0.463458
-0.463475
-0.463542
-0.463527
-0.463489
-0.463565
-0.46338
-0.463388
-0.463384
-0.4634
-0.463377
-0.463371
-0.463427
-0.463284
-0.463396
-0.463394
-0.463402
-0.463347
-0.46342
-0.463154
-0.463368
-0.463385
-0.463377
-0.463349
-0.463156
-0.463294
-0.463189
-0.463186
-0.463352
-0.46337
-0.463405
-0.463412
-0.463428
-0.463437
-0.463449
-0.46346
-0.46348
-0.463428
-0.463506
-0.463524
-0.463559
-0.463578
-0.463585
-0.4636
-0.463608
-0.463624
-0.463637
-0.463647
-0.463658
-0.463668
-0.46368
-0.463691
-0.463699
-0.463707
-0.463714
-0.463721
-0.463729
-0.463737
-0.463745
-0.463752
-0.463759
-0.463765
-0.463772
-0.463779
-0.463786
-0.463793
-0.463799
-0.463806
-0.463812
-0.463819
-0.463825
-0.463832
-0.463838
-0.463844
-0.46385
-0.463856
-0.463862
-0.463867
-0.463872
-0.463878
-0.463883
-0.463888
-0.463892
-0.463897
-0.463901
-0.463906
-0.46391
-0.463914
-0.463918
-0.463922
-0.463926
-0.46393
-0.463934
-0.463937
-0.463941
-0.463944
-0.463947
-0.46395
-0.463953
-0.463956
-0.463959
-0.463962
-0.463964
-0.463967
-0.463969
-0.463972
-0.463974
-0.463976
-0.463978
-0.46398
-0.463981
-0.463983
-0.463984
-0.463986
-0.463987
-0.463988
-0.463989
-0.46399
-0.463991
-0.463992
-0.463992
-0.463992
-0.463993
-0.463993
-0.463993
-0.463993
-0.463993
-0.463993
-0.463992
-0.463992
-0.463991
-0.46399
-0.46399
-0.463989
-0.463988
-0.463986
-0.463985
-0.463984
-0.463982
-0.463981
-0.463979
-0.463977
-0.463975
-0.463973
-0.46397
-0.463968
-0.463966
-0.463963
-0.46396
-0.463957
-0.463954
-0.463951
-0.463947
-0.463944
-0.46394
-0.463936
-0.463932
-0.463927
-0.463923
-0.463918
-0.463913
-0.463908
-0.463902
-0.463897
-0.463891
-0.463885
-0.463878
-0.463871
-0.463864
-0.463857
-0.463849
-0.463841
-0.463833
-0.463824
-0.463815
-0.463806
-0.463796
-0.463786
-0.463775
-0.463764
-0.463753
-0.463741
-0.463729
-0.463716
-0.463703
-0.46369
-0.463676
-0.463661
-0.463647
-0.463631
-0.463616
-0.4636
-0.463583
-0.463566
-0.463549
-0.463531
-0.463513
-0.463494
-0.463476
-0.463456
-0.463437
-0.463417
-0.463397
-0.463377
-0.463356
-0.463336
-0.463315
-0.463294
-0.463273
-0.463252
-0.463231
-0.46321
-0.46319
-0.48766
-0.487614
-0.487668
-0.487649
-0.487851
-0.4879
-0.487952
-0.488
-0.487864
-0.487939
-0.488016
-0.488091
-0.488161
-0.488236
-0.488306
-0.488325
-0.486017
-0.487231
-0.487368
-0.487347
-0.487424
-0.487504
-0.487575
-0.487624
-0.488213
-0.488321
-0.488355
-0.488497
-0.488594
-0.485759
-0.48691
-0.487087
-0.486641
-0.486834
-0.486942
-0.485851
-0.486278
-0.48642
-0.486548
-0.486673
-0.486778
-0.486731
-0.486842
-0.485474
-0.486159
-0.486342
-0.486316
-0.486419
-0.486518
-0.485651
-0.485732
-0.485858
-0.48562
-0.485919
-0.483562
-0.48546
-0.485552
-0.485621
-0.485688
-0.485753
-0.485653
-0.486098
-0.48615
-0.486096
-0.486183
-0.486221
-0.48623
-0.485888
-0.487179
-0.487188
-0.487184
-0.48721
-0.48725
-0.486799
-0.486906
-0.486059
-0.486123
-0.484601
-0.485228
-0.485356
-0.485236
-0.486074
-0.484841
-0.484916
-0.485527
-0.48562
-0.485712
-0.485825
-0.485916
-0.484754
-0.485332
-0.485423
-0.485465
-0.485513
-0.485571
-0.485704
-0.485567
-0.485766
-0.485763
-0.485643
-0.485683
-0.485734
-0.485458
-0.485578
-0.485579
-0.485445
-0.485548
-0.485603
-0.485495
-0.486059
-0.485749
-0.485849
-0.486198
-0.485225
-0.486304
-0.486304
-0.486319
-0.486549
-0.486191
-0.486218
-0.485829
-0.486106
-0.485922
-0.485937
-0.485967
-0.485776
-0.486128
-0.485935
-0.486389
-0.486358
-0.486376
-0.486505
-0.486233
-0.48633
-0.486326
-0.486337
-0.486418
-0.48635
-0.486358
-0.486382
-0.48638
-0.486385
-0.486389
-0.4864
-0.486399
-0.486402
-0.486428
-0.486442
-0.48645
-0.486458
-0.486467
-0.486476
-0.486485
-0.486492
-0.486498
-0.486505
-0.486513
-0.486519
-0.486525
-0.486531
-0.486537
-0.486544
-0.48655
-0.486556
-0.486561
-0.486567
-0.486573
-0.486579
-0.486585
-0.486591
-0.486596
-0.486602
-0.486608
-0.486613
-0.486619
-0.486624
-0.486629
-0.486634
-0.486639
-0.486644
-0.486648
-0.486653
-0.486657
-0.486661
-0.486665
-0.486669
-0.486673
-0.486676
-0.48668
-0.486683
-0.486686
-0.486689
-0.486691
-0.486694
-0.486696
-0.486698
-0.4867
-0.486702
-0.486703
-0.486704
-0.486706
-0.486707
-0.486708
-0.486708
-0.486709
-0.486709
-0.486709
-0.486709
-0.486709
-0.486709
-0.486709
-0.486708
-0.486708
-0.486707
-0.486706
-0.486705
-0.486704
-0.486703
-0.486702
-0.4867
-0.486699
-0.486697
-0.486695
-0.486693
-0.486691
-0.486689
-0.486687
-0.486685
-0.486682
-0.48668
-0.486677
-0.486674
-0.486671
-0.486668
-0.486665
-0.486662
-0.486658
-0.486654
-0.486651
-0.486647
-0.486643
-0.486638
-0.486634
-0.486629
-0.486624
-0.486619
-0.486614
-0.486609
-0.486603
-0.486597
-0.48659
-0.486584
-0.486577
-0.48657
-0.486562
-0.486554
-0.486546
-0.486538
-0.486529
-0.486519
-0.486509
-0.486499
-0.486489
-0.486478
-0.486466
-0.486454
-0.486441
-0.486428
-0.486415
-0.486401
-0.486386
-0.486371
-0.486355
-0.486339
-0.486322
-0.486304
-0.486286
-0.486268
-0.486249
-0.486229
-0.486209
-0.486188
-0.486167
-0.486145
-0.486122
-0.486099
-0.486076
-0.486052
-0.486028
-0.486004
-0.485979
-0.485954
-0.485928
-0.485902
-0.485877
-0.485851
-0.485825
-0.485798
-0.485772
-0.485747
-0.509462
-0.509414
-0.509233
-0.509339
-0.509319
-0.509286
-0.509256
-0.50922
-0.509185
-0.509143
-0.509077
-0.509036
-0.510516
-0.510514
-0.510463
-0.510478
-0.510447
-0.505775
-0.510206
-0.510237
-0.510238
-0.510227
-0.510216
-0.510204
-0.510186
-0.510165
-0.510135
-0.510091
-0.510029
-0.510007
-0.510755
-0.510718
-0.510644
-0.510614
-0.510588
-0.510549
-0.510469
-0.510355
-0.510326
-0.510279
-0.510301
-0.510235
-0.507274
-0.508819
-0.508708
-0.510034
-0.510006
-0.509957
-0.509906
-0.50985
-0.509789
-0.508546
-0.508523
-0.508909
-0.508803
-0.506611
-0.509507
-0.509385
-0.509192
-0.509096
-0.509103
-0.508894
-0.507911
-0.511088
-0.51099
-0.510877
-0.510774
-0.510668
-0.509456
-0.509354
-0.509333
-0.509254
-0.509148
-0.50905
-0.508951
-0.508821
-0.508635
-0.508532
-0.508497
-0.508416
-0.508058
-0.507937
-0.507813
-0.507479
-0.507325
-0.509649
-0.508309
-0.510252
-0.50651
-0.510217
-0.510057
-0.509966
-0.51021
-0.509621
-0.509564
-0.510281
-0.510186
-0.510676
-0.509885
-0.509931
-0.509978
-0.509438
-0.509468
-0.509475
-0.508694
-0.508747
-0.508768
-0.508493
-0.508796
-0.508166
-0.508178
-0.508199
-0.508097
-0.509344
-0.506093
-0.508961
-0.508982
-0.508849
-0.508891
-0.508955
-0.508319
-0.508351
-0.508879
-0.508641
-0.508674
-0.508811
-0.508691
-0.508736
-0.508867
-0.508905
-0.50887
-0.508932
-0.509039
-0.509143
-0.509058
-0.509261
-0.509288
-0.509246
-0.509507
-0.50825
-0.508945
-0.508974
-0.50896
-0.508984
-0.509042
-0.508849
-0.508845
-0.509194
-0.509187
-0.509194
-0.509281
-0.508876
-0.509234
-0.509224
-0.509269
-0.509301
-0.509318
-0.509333
-0.509339
-0.509346
-0.509354
-0.509363
-0.509374
-0.509385
-0.509392
-0.509398
-0.509405
-0.50941
-0.509415
-0.50942
-0.509424
-0.509428
-0.509431
-0.509435
-0.509438
-0.509441
-0.509443
-0.509446
-0.509448
-0.50945
-0.509453
-0.509455
-0.509457
-0.509458
-0.50946
-0.509462
-0.509463
-0.509464
-0.509465
-0.509466
-0.509467
-0.509468
-0.509469
-0.509469
-0.509469
-0.50947
-0.50947
-0.50947
-0.509469
-0.509469
-0.509468
-0.509468
-0.509467
-0.509466
-0.509465
-0.509463
-0.509462
-0.509461
-0.509459
-0.509457
-0.509455
-0.509453
-0.509451
-0.509449
-0.509447
-0.509444
-0.509442
-0.509439
-0.509437
-0.509434
-0.509431
-0.509428
-0.509425
-0.509422
-0.509419
-0.509416
-0.509413
-0.509409
-0.509406
-0.509402
-0.509399
-0.509395
-0.509391
-0.509387
-0.509384
-0.509379
-0.509375
-0.509371
-0.509367
-0.509362
-0.509357
-0.509352
-0.509347
-0.509342
-0.509337
-0.509331
-0.509325
-0.509319
-0.509313
-0.509306
-0.5093
-0.509292
-0.509285
-0.509277
-0.509269
-0.50926
-0.509251
-0.509242
-0.509232
-0.509222
-0.509211
-0.5092
-0.509188
-0.509175
-0.509162
-0.509149
-0.509135
-0.50912
-0.509104
-0.509088
-0.509071
-0.509054
-0.509036
-0.509017
-0.508997
-0.508977
-0.508955
-0.508933
-0.508911
-0.508887
-0.508863
-0.508838
-0.508813
-0.508786
-0.508759
-0.508732
-0.508704
-0.508675
-0.508645
-0.508615
-0.508585
-0.508554
-0.508522
-0.508491
-0.508459
-0.508426
-0.508394
-0.508361
-0.508329
-0.508297
-0.532448
-0.53243
-0.532406
-0.532384
-0.532338
-0.532328
-0.532298
-0.532271
-0.532034
-0.532153
-0.532111
-0.532071
-0.532024
-0.531972
-0.531897
-0.531779
-0.53153
-0.531456
-0.535158
-0.535159
-0.535127
-0.535076
-0.535047
-0.5351
-0.535074
-0.535055
-0.535043
-0.535037
-0.535041
-0.535046
-0.535021
-0.534535
-0.534564
-0.534654
-0.534698
-0.53469
-0.534727
-0.534773
-0.534827
-0.534933
-0.534957
-0.53474
-0.534774
-0.534833
-0.534953
-0.535233
-0.535412
-0.535543
-0.535657
-0.535781
-0.535917
-0.536063
-0.536216
-0.536385
-0.536568
-0.536733
-0.533606
-0.533764
-0.534281
-0.534487
-0.534714
-0.537254
-0.531303
-0.533472
-0.533933
-0.534253
-0.534545
-0.534839
-0.535148
-0.527845
-0.530967
-0.531459
-0.530444
-0.531254
-0.526433
-0.529461
-0.52977
-0.529851
-0.530096
-0.530376
-0.530498
-0.530899
-0.531176
-0.531419
-0.531722
-0.532015
-0.532314
-0.532624
-0.532891
-0.531283
-0.531634
-0.532041
-0.530561
-0.531022
-0.53284
-0.531581
-0.531936
-0.532414
-0.532727
-0.532942
-0.533219
-0.533523
-0.533151
-0.533619
-0.53197
-0.532307
-0.532587
-0.530717
-0.531226
-0.531534
-0.531683
-0.531828
-0.531965
-0.532123
-0.532165
-0.532249
-0.533402
-0.533428
-0.533381
-0.533405
-0.533581
-0.533684