/*--------------------------------*- C++ -*----------------------------------*\
| =========                 |                                                 |
| \\      /  F ield         | OpenFOAM: The Open Source CFD Toolbox           |
|  \\    /   O peration     | Version:  2.4.0                                 |
|   \\  /    A nd           | Web:      www.OpenFOAM.org                      |
|    \\/     M anipulation  |                                                 |
\*---------------------------------------------------------------------------*/
FoamFile
{
    version     2.0;
    format      ascii;
    class       volVectorField;
    location    "2.8";
    object      U;
}
// * * * * * * * * * * * * * * * * * * * * * * * * * * * * * * * * * * * * * //

dimensions      [0 1 -1 0 0 0 0];

internalField   nonuniform List<vector> 
8000
(
(1.41653e-07 -0.000249664 0)
(6.78702e-07 -0.00072978 0)
(1.59975e-06 -0.0011911 0)
(2.82865e-06 -0.00163403 0)
(4.42799e-06 -0.00205883 0)
(6.36044e-06 -0.00246579 0)
(8.74693e-06 -0.00285498 0)
(1.15238e-05 -0.00322663 0)
(1.48395e-05 -0.00358068 0)
(1.85898e-05 -0.00391726 0)
(2.29391e-05 -0.00423619 0)
(2.77344e-05 -0.00453751 0)
(3.31377e-05 -0.00482092 0)
(3.89433e-05 -0.00508637 0)
(4.52868e-05 -0.00533349 0)
(5.19183e-05 -0.00556208 0)
(5.89033e-05 -0.00577181 0)
(6.59248e-05 -0.00596226 0)
(7.28351e-05 -0.00613328 0)
(7.94081e-05 -0.00628409 0)
(8.63112e-05 -0.00641484 0)
(9.57671e-05 -0.00652412 0)
(0.000106615 -0.00661401 0)
(9.76633e-05 -0.00668621 0)
(8.78465e-07 -0.00670826 0)
(-0.00013556 -0.00672044 0)
(-0.000227009 -0.00673017 0)
(-0.000279534 -0.00672029 0)
(-0.000338417 -0.00660173 0)
(-0.000740134 -0.00646949 0)
(-0.00117087 -0.00633541 0)
(-0.00121903 -0.00627625 0)
(-0.00137888 -0.00627515 0)
(-0.00156328 -0.00631444 0)
(-0.00174307 -0.00638265 0)
(-0.00191199 -0.00647437 0)
(-0.00207308 -0.00658559 0)
(-0.00222838 -0.00671362 0)
(-0.00237852 -0.00685635 0)
(-0.00252364 -0.00701191 0)
(-0.00266382 -0.00717841 0)
(-0.00279914 -0.00735397 0)
(-0.00292968 -0.00753666 0)
(-0.00305548 -0.00772466 0)
(-0.00317658 -0.00791625 0)
(-0.00329299 -0.00810992 0)
(-0.00340472 -0.00830438 0)
(-0.00351174 -0.0084986 0)
(-0.003614 -0.00869176 0)
(-0.00371143 -0.00888328 0)
(-3.85973e-07 -0.000234878 0)
(-2.35858e-06 -0.000690313 0)
(-5.6262e-06 -0.00113154 0)
(-9.84401e-06 -0.00155843 0)
(-1.46465e-05 -0.00197123 0)
(-1.98112e-05 -0.00236953 0)
(-2.50479e-05 -0.00275368 0)
(-3.02052e-05 -0.0031229 0)
(-3.49957e-05 -0.00347777 0)
(-3.93043e-05 -0.00381705 0)
(-4.28312e-05 -0.00414165 0)
(-4.54839e-05 -0.00444967 0)
(-4.69328e-05 -0.00474255 0)
(-4.70922e-05 -0.00501748 0)
(-4.55873e-05 -0.00527672 0)
(-4.23585e-05 -0.00551614 0)
(-3.70226e-05 -0.00573921 0)
(-2.94922e-05 -0.00593998 0)
(-1.8676e-05 -0.00612355 0)
(-3.01931e-06 -0.00628118 0)
(1.85483e-05 -0.00642102 0)
(3.31605e-05 -0.00653439 0)
(-9.12354e-06 -0.00664591 0)
(-0.000138888 -0.00668122 0)
(-0.000287046 -0.00666066 0)
(-0.000420494 -0.00657188 0)
(-0.000865557 -0.00651081 0)
(-0.00158115 -0.00620376 0)
(-0.00285163 0.000240671 0)
(-0.00243878 -0.000706392 0)
(-0.00277324 -0.00150551 0)
(-0.00317999 -0.0021825 0)
(-0.0035441 -0.00275535 0)
(-0.0038513 -0.00324466 0)
(-0.00411866 -0.00367073 0)
(-0.00435492 -0.00405187 0)
(-0.0045641 -0.00440113 0)
(-0.00474944 -0.00472766 0)
(-0.00491426 -0.00503765 0)
(-0.00506172 -0.00533527 0)
(-0.00519452 -0.00562326 0)
(-0.0053149 -0.00590347 0)
(-0.00542463 -0.0061772 0)
(-0.00552508 -0.0064454 0)
(-0.00561724 -0.0067089 0)
(-0.00570181 -0.00696842 0)
(-0.00577922 -0.00722466 0)
(-0.00584966 -0.00747834 0)
(-0.00591316 -0.00773018 0)
(-0.00596961 -0.00798089 0)
(2.29324e-07 -0.000228219 0)
(1.55493e-06 -0.000674384 0)
(4.07629e-06 -0.0011099 0)
(7.82525e-06 -0.00153429 0)
(1.27078e-05 -0.00194731 0)
(1.88509e-05 -0.00234852 0)
(2.6153e-05 -0.00273785 0)
(3.47999e-05 -0.00311486 0)
(4.46894e-05 -0.00347968 0)
(5.60785e-05 -0.00383185 0)
(6.892e-05 -0.00417173 0)
(8.35596e-05 -0.00449881 0)
(0.00010008 -0.00481366 0)
(0.000118897 -0.00511578 0)
(0.000140261 -0.00540591 0)
(0.000164575 -0.00568354 0)
(0.00019284 -0.0059494 0)
(0.000227135 -0.00620289 0)
(0.000271777 -0.00644491 0)
(0.000320932 -0.0066789 0)
(0.000330285 -0.00691908 0)
(0.000182113 -0.00688171 0)
(-3.8345e-05 -0.00683499 0)
(-0.000261569 -0.00663945 0)
(-0.000889992 -0.00629113 0)
(-0.00162495 0.00129488 0)
(-0.00173532 0.00486552 0)
(-0.00171989 0.00490909 0)
(-0.00206961 0.00493261 0)
(-0.00231827 0.00445689 0)
(-0.00257423 0.00370691 0)
(-0.00284631 0.00281351 0)
(-0.0031369 0.00186532 0)
(-0.00343645 0.000922088 0)
(-0.00373649 2.18697e-05 0)
(-0.00403132 -0.000814187 0)
(-0.00431717 -0.00157715 0)
(-0.00459165 -0.00226633 0)
(-0.00485361 -0.00288666 0)
(-0.00510217 -0.00344672 0)
(-0.00533631 -0.00395617 0)
(-0.00555541 -0.00442458 0)
(-0.005759 -0.00486069 0)
(-0.0059467 -0.00527232 0)
(-0.00611814 -0.00566619 0)
(-0.00627292 -0.00604803 0)
(-0.00641063 -0.00642259 0)
(-0.00653083 -0.00679382 0)
(-0.00663309 -0.00716496 0)
(-0.00671697 -0.00753863 0)
(1.95202e-07 -0.000247527 0)
(2.77284e-06 -0.000730095 0)
(7.98066e-06 -0.00119961 0)
(1.56145e-05 -0.00165597 0)
(2.5339e-05 -0.00209842 0)
(3.68616e-05 -0.00252759 0)
(4.99492e-05 -0.00294259 0)
(6.43545e-05 -0.00334493 0)
(7.99056e-05 -0.0037334 0)
(9.63396e-05 -0.00411063 0)
(0.000113551 -0.00447484 0)
(0.000131208 -0.00483018 0)
(0.000149224 -0.00517395 0)
(0.000167073 -0.00551241 0)
(0.000185148 -0.00584117 0)
(0.000204545 -0.00616941 0)
(0.000229069 -0.00649092 0)
(0.000253215 -0.00682357 0)
(0.000232609 -0.0071725 0)
(4.15929e-05 -0.00730635 0)
(-0.000223023 -0.0074517 0)
(-0.000439227 -0.0072527 0)
(-0.000787876 -0.00664563 0)
(-0.00156974 0.00707413 0)
(-0.00229042 0.0019782 0)
(-0.00424447 0.00304553 0)
(-0.00464413 0.0043916 0)
(-0.00477061 0.00449134 0)
(-0.00495763 0.00467807 0)
(-0.0051462 0.00481694 0)
(-0.00532325 0.00484035 0)
(-0.00549673 0.00471669 0)
(-0.00567516 0.00445183 0)
(-0.00586112 0.00406855 0)
(-0.00605342 0.00359442 0)
(-0.00624926 0.00305524 0)
(-0.00644537 0.00247195 0)
(-0.00663818 0.00185988 0)
(-0.0068238 0.00122979 0)
(-0.00699917 0.000588959 0)
(-0.00716234 -5.84699e-05 0)
(-0.00731012 -0.000710735 0)
(-0.00743909 -0.00136714 0)
(-0.00754844 -0.00202822 0)
(-0.007637 -0.00269487 0)
(-0.00770359 -0.0033681 0)
(-0.00774722 -0.00404917 0)
(-0.00776704 -0.0047391 0)
(-0.00776242 -0.00543865 0)
(-0.00773288 -0.00614836 0)
(5.90706e-07 -0.000267811 0)
(4.43409e-06 -0.000784468 0)
(1.16242e-05 -0.00128228 0)
(2.17797e-05 -0.00176187 0)
(3.46061e-05 -0.002223 0)
(4.98121e-05 -0.00266651 0)
(6.72293e-05 -0.00309176 0)
(8.66208e-05 -0.00349988 0)
(0.000107776 -0.00388977 0)
(0.000130422 -0.00426303 0)
(0.000154201 -0.00461793 0)
(0.000178871 -0.00495661 0)
(0.000204551 -0.0052763 0)
(0.000232552 -0.0055798 0)
(0.000265046 -0.0058644 0)
(0.000293654 -0.00614096 0)
(0.000264415 -0.00642483 0)
(3.51539e-05 -0.0065158 0)
(-0.000284081 -0.00658997 0)
(-0.000505357 -0.00649767 0)
(-0.000697389 -0.00574523 0)
(-0.00165332 0.000864057 0)
(-0.00273464 0.000479877 0)
(-0.00790592 0.0313906 0)
(-0.0063881 0.0227908 0)
(-0.00733841 0.0175842 0)
(-0.00821869 0.0142083 0)
(-0.00889864 0.0119825 0)
(-0.00939112 0.0104546 0)
(-0.00976318 0.00931997 0)
(-0.0100472 0.0083927 0)
(-0.0102612 0.00755675 0)
(-0.0104198 0.00675394 0)
(-0.0105347 0.00595621 0)
(-0.010615 0.00515141 0)
(-0.0106669 0.00433505 0)
(-0.0106944 0.00350587 0)
(-0.0106999 0.00266365 0)
(-0.0106843 0.00180845 0)
(-0.0106471 0.000939565 0)
(-0.0105887 5.64449e-05 0)
(-0.0105107 -0.00084068 0)
(-0.0104133 -0.0017521 0)
(-0.0102947 -0.00267838 0)
(-0.0101544 -0.00361973 0)
(-0.00999214 -0.00457594 0)
(-0.00980773 -0.00554698 0)
(-0.00960103 -0.00653232 0)
(-0.00937199 -0.00753091 0)
(-0.00912074 -0.00854134 0)
(4.50533e-08 -0.000293078 0)
(2.33594e-06 -0.000858189 0)
(8.05122e-06 -0.00140291 0)
(1.81765e-05 -0.00192771 0)
(3.28474e-05 -0.00243315 0)
(5.32781e-05 -0.00291946 0)
(7.93643e-05 -0.0033868 0)
(0.0001125 -0.00383546 0)
(0.000152385 -0.00426481 0)
(0.000200737 -0.00467569 0)
(0.00025831 -0.00506556 0)
(0.000329317 -0.00543749 0)
(0.000417168 -0.00579194 0)
(0.000506086 -0.00615094 0)
(0.000504428 -0.00653369 0)
(0.000231149 -0.00645095 0)
(-0.000187747 -0.00625948 0)
(-0.000561436 -0.00614449 0)
(-0.00119481 -0.00385125 0)
(-0.00336342 -0.00446693 0)
(-0.00694424 2.99816e-05 0)
(-0.0092353 0.0448606 0)
(-0.00772361 0.0396827 0)
(-0.00882257 0.035061 0)
(-0.00921602 0.02998 0)
(-0.0095556 0.0252864 0)
(-0.0098621 0.0212249 0)
(-0.0101619 0.0178196 0)
(-0.010426 0.0149913 0)
(-0.0106405 0.0126399 0)
(-0.0108037 0.0106647 0)
(-0.0109199 0.0089747 0)
(-0.010995 0.00749283 0)
(-0.0110343 0.00615707 0)
(-0.0110421 0.00491933 0)
(-0.0110216 0.00374334 0)
(-0.0109748 0.00260101 0)
(-0.0109035 0.00147576 0)
(-0.0108093 0.000357724 0)
(-0.0106932 -0.000767426 0)
(-0.0105541 -0.00190994 0)
(-0.0103911 -0.00306974 0)
(-0.0102053 -0.00424553 0)
(-0.00999763 -0.00543471 0)
(-0.00976886 -0.0066357 0)
(-0.00951956 -0.00784614 0)
(-0.00925086 -0.00906954 0)
(-0.00896352 -0.0103069 0)
(-0.00865853 -0.0115545 0)
(-0.00833726 -0.0128083 0)
(-7.66875e-08 -0.00029852 0)
(1.81524e-06 -0.000894497 0)
(8.04151e-06 -0.00148723 0)
(2.02368e-05 -0.00208005 0)
(3.99249e-05 -0.00266739 0)
(6.88199e-05 -0.00325699 0)
(0.00010852 -0.00383827 0)
(0.000161061 -0.00442466 0)
(0.000230152 -0.00499832 0)
(0.000322099 -0.00558541 0)
(0.000433464 -0.00616966 0)
(0.000491612 -0.00680886 0)
(0.0002553 -0.0075509 0)
(-0.000280532 -0.00730875 0)
(-0.00074972 -0.00763608 0)
(-0.00113392 -0.00706493 0)
(-0.0025551 0.0015278 0)
(-0.00336054 -0.00374159 0)
(-0.00864845 0.0479188 0)
(-0.007506 0.0355596 0)
(-0.00924152 0.0354798 0)
(-0.010278 0.0368307 0)
(-0.0102345 0.0353299 0)
(-0.01008 0.0324675 0)
(-0.00995956 0.0292137 0)
(-0.0099245 0.0258454 0)
(-0.00995818 0.0225824 0)
(-0.0100327 0.0195576 0)
(-0.0101267 0.0168264 0)
(-0.0102254 0.0143914 0)
(-0.0103181 0.0122199 0)
(-0.0103968 0.0102649 0)
(-0.0104562 0.0084819 0)
(-0.010493 0.00682395 0)
(-0.0105054 0.00525359 0)
(-0.0104923 0.00374024 0)
(-0.0104533 0.00225802 0)
(-0.0103884 0.000797173 0)
(-0.010299 -0.000652482 0)
(-0.0101865 -0.00210597 0)
(-0.0100523 -0.0035691 0)
(-0.00989805 -0.00503405 0)
(-0.0097254 -0.00649784 0)
(-0.00953549 -0.00796384 0)
(-0.00933151 -0.0094258 0)
(-0.00911308 -0.0108935 0)
(-0.00888082 -0.0123555 0)
(-0.00863869 -0.0137945 0)
(-0.0083894 -0.0152191 0)
(-0.00813667 -0.0166191 0)
(5.42413e-07 -0.000314956 0)
(7.57816e-06 -0.000965757 0)
(2.41001e-05 -0.00163572 0)
(5.09844e-05 -0.00233002 0)
(8.95021e-05 -0.00304307 0)
(0.00014281 -0.0037838 0)
(0.000217327 -0.00454161 0)
(0.000317603 -0.00533379 0)
(0.000399505 -0.00615773 0)
(0.000289743 -0.0070804 0)
(-0.00012667 -0.00723442 0)
(-0.00059317 -0.00752216 0)
(-0.00101752 -0.00910028 0)
(-0.00211349 0.00140926 0)
(-0.00382425 -0.000913243 0)
(-0.0105235 0.0094365 0)
(-0.00984794 0.0429333 0)
(-0.00945355 0.0418793 0)
(-0.0112501 0.0448613 0)
(-0.0114612 0.0430974 0)
(-0.0114705 0.0403551 0)
(-0.0112513 0.0371175 0)
(-0.0109548 0.0339973 0)
(-0.0106452 0.030917 0)
(-0.0103713 0.0278976 0)
(-0.0101418 0.0249717 0)
(-0.00995894 0.0221721 0)
(-0.00981819 0.0195219 0)
(-0.00971161 0.0170337 0)
(-0.00962961 0.0146985 0)
(-0.00956269 0.0124979 0)
(-0.00950336 0.0104159 0)
(-0.0094449 0.0084327 0)
(-0.00938233 0.00652866 0)
(-0.00931199 0.00468613 0)
(-0.00923127 0.00289134 0)
(-0.00913874 0.0011319 0)
(-0.00903516 -0.000598675 0)
(-0.0089193 -0.00230182 0)
(-0.0087908 -0.00398406 0)
(-0.0086516 -0.00565057 0)
(-0.00850374 -0.00729483 0)
(-0.00834938 -0.00890974 0)
(-0.00818976 -0.0105013 0)
(-0.00802662 -0.0120708 0)
(-0.00786381 -0.0136183 0)
(-0.00770562 -0.0151198 0)
(-0.00755338 -0.016567 0)
(-0.00740826 -0.017969 0)
(-0.0072744 -0.0193016 0)
(3.75529e-07 -0.000388578 0)
(4.98445e-06 -0.00119596 0)
(1.31591e-05 -0.00203988 0)
(2.46314e-05 -0.00290732 0)
(4.48961e-05 -0.00381394 0)
(7.55042e-05 -0.00473582 0)
(7.29387e-05 -0.00571586 0)
(-0.000150951 -0.00674623 0)
(-0.000644767 -0.00707277 0)
(-0.00125981 -0.00792733 0)
(-0.00228793 -0.00631249 0)
(-0.00332566 0.00181806 0)
(-0.00516139 -0.00619416 0)
(-0.0125099 0.0645504 0)
(-0.00664421 0.0475737 0)
(-0.010108 0.046203 0)
(-0.0114464 0.0447534 0)
(-0.0114002 0.0417908 0)
(-0.0110953 0.0389521 0)
(-0.010578 0.0363276 0)
(-0.0100396 0.0335938 0)
(-0.00953158 0.0308343 0)
(-0.00906387 0.0281732 0)
(-0.00862984 0.0256439 0)
(-0.00823099 0.023244 0)
(-0.00786788 0.02096 0)
(-0.00753914 0.018776 0)
(-0.00724292 0.0166812 0)
(-0.00697469 0.0146615 0)
(-0.00672983 0.0127004 0)
(-0.0065049 0.0107904 0)
(-0.00629645 0.00892201 0)
(-0.00610137 0.00708123 0)
(-0.00591729 0.00525991 0)
(-0.00574336 0.00345203 0)
(-0.00557893 0.00165328 0)
(-0.00542405 -0.000139555 0)
(-0.0052791 -0.00192145 0)
(-0.00514521 -0.00368517 0)
(-0.00502334 -0.00542359 0)
(-0.00491421 -0.00712866 0)
(-0.00481867 -0.00879083 0)
(-0.00473742 -0.0104036 0)
(-0.00467177 -0.0119613 0)
(-0.00462328 -0.0134558 0)
(-0.00459367 -0.0148765 0)
(-0.00458414 -0.0162199 0)
(-0.00459644 -0.0174826 0)
(-0.00463233 -0.01866 0)
(-0.00469363 -0.019725 0)
(-8.22602e-07 -0.000399082 0)
(-1.13129e-05 -0.00117478 0)
(-3.07833e-05 -0.00192477 0)
(-4.85866e-05 -0.00264474 0)
(-9.11688e-05 -0.00332852 0)
(-0.000356394 -0.00398971 0)
(-0.00115589 -0.0046435 0)
(-0.00228847 -0.00573852 0)
(-0.00319929 -0.0039274 0)
(-0.00411178 0.00392878 0)
(-0.00427805 0.00911398 0)
(-0.00279698 0.0494184 0)
(-0.00261107 0.0476745 0)
(-0.00242247 0.0494009 0)
(-0.00094513 0.0462472 0)
(0.000282288 0.0428732 0)
(0.00146804 0.03935 0)
(0.00255096 0.0361383 0)
(0.00350494 0.0331462 0)
(0.00432495 0.0303709 0)
(0.00503271 0.0277611 0)
(0.00563767 0.0252867 0)
(0.00615007 0.022931 0)
(0.00658111 0.020683 0)
(0.00694114 0.0185326 0)
(0.00723907 0.0164697 0)
(0.00748227 0.0144844 0)
(0.00767685 0.0125661 0)
(0.00782792 0.0107077 0)
(0.00793994 0.00889916 0)
(0.00801624 0.00713487 0)
(0.00805957 0.00541032 0)
(0.00807185 0.00372295 0)
(0.00805472 0.0020718 0)
(0.00800948 0.000458755 0)
(0.00793651 -0.00111109 0)
(0.00783383 -0.00263082 0)
(0.00770627 -0.00409946 0)
(0.00755248 -0.00552283 0)
(0.00737462 -0.00690435 0)
(0.00717512 -0.00824371 0)
(0.00695547 -0.00953812 0)
(0.00671627 -0.0107837 0)
(0.00645799 -0.0119725 0)
(0.00618095 -0.0130973 0)
(0.00588642 -0.0141495 0)
(0.00557443 -0.0151217 0)
(0.00524764 -0.0160039 0)
(0.00490512 -0.0167899 0)
(0.00454441 -0.0174761 0)
(-4.27109e-06 -0.000242439 0)
(-2.48298e-05 -0.00067643 0)
(-4.49121e-05 -0.00105969 0)
(-8.97424e-05 -0.00139124 0)
(-0.000375651 -0.001673 0)
(-0.00123867 -0.0019064 0)
(-0.00245388 -0.00222907 0)
(-0.00380623 -0.00334812 0)
(-0.00388474 0.00157708 0)
(-0.00219623 0.00189749 0)
(-0.000990542 0.00256111 0)
(0.000553248 0.00423755 0)
(0.00290554 0.0062005 0)
(0.00551703 0.00808449 0)
(0.00793977 0.0103686 0)
(0.0101847 0.0127321 0)
(0.0122491 0.0145977 0)
(0.0141562 0.0158068 0)
(0.0159122 0.016502 0)
(0.0175199 0.0168053 0)
(0.0189847 0.0168064 0)
(0.0203118 0.0165716 0)
(0.0215066 0.0161519 0)
(0.0225757 0.0155851 0)
(0.0235285 0.0148982 0)
(0.0243743 0.0141152 0)
(0.0251164 0.0132588 0)
(0.0257531 0.0123446 0)
(0.0262832 0.0113825 0)
(0.0267109 0.0103805 0)
(0.027043 0.00934641 0)
(0.0272841 0.00829514 0)
(0.0274349 0.00723904 0)
(0.027501 0.00614896 0)
(0.0274959 0.00503077 0)
(0.0274275 0.00391994 0)
(0.0272957 0.00283989 0)
(0.0270947 0.00176095 0)
(0.0268268 0.000665806 0)
(0.0265001 -0.000525721 0)
(0.0261215 -0.00171805 0)
(0.0256953 -0.00288899 0)
(0.0252252 -0.00402138 0)
(0.0247121 -0.00510484 0)
(0.0241584 -0.00614194 0)
(0.0235705 -0.00715498 0)
(0.0229554 -0.00811625 0)
(0.0223178 -0.00900295 0)
(0.0216616 -0.00980049 0)
(0.0209894 -0.0105203 0)
(-2.27766e-06 -7.78424e-05 0)
(-1.53926e-05 -0.000230421 0)
(-3.17018e-05 -0.000379052 0)
(-6.21841e-05 -0.000520134 0)
(-0.00017637 -0.000651769 0)
(-0.000527126 -0.000773523 0)
(-0.00110261 -0.000905005 0)
(-0.00186711 -0.0241175 0)
(-0.000349874 -0.0221186 0)
(0.000424383 -0.0239797 0)
(0.00104074 -0.0190949 0)
(0.00151713 -0.0170485 0)
(0.00220345 -0.0144958 0)
(0.00284316 -0.0126317 0)
(0.00367986 -0.0112646 0)
(0.00457968 -0.0104439 0)
(0.00560204 -0.00991904 0)
(0.00667295 -0.00937361 0)
(0.00774805 -0.00864329 0)
(0.00883948 -0.0078141 0)
(0.00993655 -0.0069987 0)
(0.0110166 -0.00617744 0)
(0.0120696 -0.00531029 0)
(0.013092 -0.00451136 0)
(0.0140854 -0.00398135 0)
(0.0150623 -0.00356944 0)
(0.0160113 -0.00290405 0)
(0.0169132 -0.00204508 0)
(0.0177717 -0.00123731 0)
(0.0185914 -0.000576903 0)
(0.0193787 -9.7321e-05 0)
(0.0201347 0.000483155 0)
(0.0208298 0.00117753 0)
(0.0214694 0.0014102 0)
(0.022085 0.00140589 0)
(0.0226646 0.00145173 0)
(0.0231839 0.0016011 0)
(0.0236367 0.00174599 0)
(0.024029 0.00184801 0)
(0.0243501 0.00184935 0)
(0.0245793 0.00178067 0)
(0.0247059 0.00165057 0)
(0.0247404 0.00152538 0)
(0.0246985 0.00139187 0)
(0.0245911 0.00121342 0)
(0.0244235 0.000954158 0)
(0.0241967 0.000626772 0)
(0.0239136 0.000266665 0)
(0.0235745 -1.40013e-05 0)
(0.0231849 -0.000348024 0)
(2.21385e-07 -2.99039e-05 0)
(1.72885e-05 -0.000121562 0)
(6.44555e-05 -0.00024511 0)
(0.000129969 -0.000384985 0)
(9.03053e-05 -0.000537613 0)
(-0.000312243 -0.000669316 0)
(-0.00106709 -0.00120092 0)
(-0.00211504 -0.00611454 0)
(-0.00286295 -0.0089896 0)
(-0.00365965 -0.011715 0)
(-0.00425156 -0.0120119 0)
(-0.00462575 -0.0130175 0)
(-0.00484777 -0.0125451 0)
(-0.00502477 -0.012623 0)
(-0.0050908 -0.0123459 0)
(-0.00511064 -0.0120571 0)
(-0.00510002 -0.0117049 0)
(-0.00509151 -0.0112636 0)
(-0.00506429 -0.0109066 0)
(-0.00498404 -0.010657 0)
(-0.00485519 -0.0104267 0)
(-0.00470658 -0.0101751 0)
(-0.00453587 -0.00995773 0)
(-0.00432291 -0.0097974 0)
(-0.00407722 -0.00969737 0)
(-0.00382139 -0.0096607 0)
(-0.00354865 -0.00965021 0)
(-0.00323172 -0.00966434 0)
(-0.0028484 -0.00975495 0)
(-0.00241908 -0.00991243 0)
(-0.00199028 -0.0101086 0)
(-0.00155225 -0.0101764 0)
(-0.00106751 -0.0101141 0)
(-0.000551517 -0.0103296 0)
(-3.53901e-05 -0.0104846 0)
(0.000477904 -0.0103092 0)
(0.000996104 -0.00988447 0)
(0.00152189 -0.00936796 0)
(0.00206069 -0.0088294 0)
(0.00262428 -0.00795181 0)
(0.00318674 -0.00641751 0)
(0.00371402 -0.0050082 0)
(0.00424933 -0.00426264 0)
(0.00482098 -0.00362564 0)
(0.00539173 -0.00307195 0)
(0.00594218 -0.00256942 0)
(0.00646287 -0.00208723 0)
(0.00693976 -0.00161521 0)
(0.00737196 -0.00107856 0)
(0.00776383 -0.000643279 0)
(5.7414e-06 -0.000291686 0)
(4.08832e-05 -0.000832126 0)
(0.000111137 -0.00133781 0)
(0.000210183 -0.00180234 0)
(0.000353852 -0.00222295 0)
(0.000468144 -0.00258248 0)
(0.000339267 -0.00301428 0)
(-9.8834e-05 -0.00352663 0)
(-0.000690932 -0.00377934 0)
(-0.00102273 -0.0051528 0)
(-0.00126764 -0.00669393 0)
(-0.00147231 -0.00822879 0)
(-0.00166105 -0.00880627 0)
(-0.00184673 -0.00932378 0)
(-0.00201894 -0.00959898 0)
(-0.00217468 -0.00980081 0)
(-0.00231121 -0.00987712 0)
(-0.00242424 -0.00993346 0)
(-0.00250705 -0.0100388 0)
(-0.00256569 -0.0101493 0)
(-0.00260889 -0.0101908 0)
(-0.00264023 -0.010192 0)
(-0.00265892 -0.0102166 0)
(-0.00266546 -0.010276 0)
(-0.00266356 -0.0103535 0)
(-0.00265613 -0.0104636 0)
(-0.00264438 -0.0106157 0)
(-0.00262849 -0.0107937 0)
(-0.00260988 -0.0109481 0)
(-0.00259267 -0.0110078 0)
(-0.0025837 -0.01097 0)
(-0.00258264 -0.0109015 0)
(-0.00258549 -0.0108299 0)
(-0.00259135 -0.0107587 0)
(-0.00260183 -0.010704 0)
(-0.00261194 -0.0106797 0)
(-0.00261068 -0.0106917 0)
(-0.00258524 -0.0107549 0)
(-0.00252437 -0.0109196 0)
(-0.00242864 -0.0111769 0)
(-0.00229194 -0.0113215 0)
(-0.00207578 -0.0115386 0)
(-0.00178585 -0.0121458 0)
(-0.00146724 -0.0124492 0)
(-0.00113083 -0.0123975 0)
(-0.000766771 -0.0120815 0)
(-0.000360766 -0.0114595 0)
(9.61008e-05 -0.0106203 0)
(0.00061519 -0.00984081 0)
(0.00121068 -0.00921813 0)
(9.19346e-08 -0.000497683 0)
(7.28728e-06 -0.0013852 0)
(2.24781e-05 -0.00217415 0)
(4.74193e-05 -0.00287677 0)
(7.78603e-05 -0.0035031 0)
(0.000119153 -0.00405912 0)
(0.000179782 -0.00454226 0)
(0.000243513 -0.00494128 0)
(0.000275713 -0.00520034 0)
(0.000162003 -0.00590097 0)
(-0.000105531 -0.00669585 0)
(-0.000344834 -0.00740752 0)
(-0.000488296 -0.00777721 0)
(-0.000592432 -0.00808033 0)
(-0.000676535 -0.00829802 0)
(-0.000760357 -0.00846531 0)
(-0.00083142 -0.00865649 0)
(-0.000886922 -0.00893975 0)
(-0.000929335 -0.00921941 0)
(-0.000965193 -0.00941269 0)
(-0.000999839 -0.00954727 0)
(-0.00102941 -0.0096511 0)
(-0.00105388 -0.00974418 0)
(-0.00107555 -0.00981345 0)
(-0.00109749 -0.00986352 0)
(-0.00112167 -0.00990833 0)
(-0.00115004 -0.00996001 0)
(-0.00118468 -0.0100166 0)
(-0.00122599 -0.0100777 0)
(-0.00127135 -0.01013 0)
(-0.00131446 -0.0101744 0)
(-0.00135104 -0.0102224 0)
(-0.00138054 -0.0102842 0)
(-0.00140407 -0.0103642 0)
(-0.00142196 -0.0104692 0)
(-0.00143534 -0.0106049 0)
(-0.00144469 -0.0107773 0)
(-0.00145046 -0.0109823 0)
(-0.00145324 -0.0111949 0)
(-0.0014563 -0.0113735 0)
(-0.00146389 -0.0115136 0)
(-0.00148027 -0.0116529 0)
(-0.00150849 -0.0118125 0)
(-0.00154842 -0.0119838 0)
(-0.00159004 -0.0121555 0)
(-0.00161267 -0.0123714 0)
(-0.00159783 -0.012812 0)
(-0.00154251 -0.0138988 0)
(-0.0014307 -0.0158156 0)
(-0.00123405 -0.0176537 0)
(-2.73284e-06 -0.000401677 0)
(-1.72131e-05 -0.00116226 0)
(-4.17692e-05 -0.00187632 0)
(-7.28415e-05 -0.00255059 0)
(-0.000107969 -0.00319128 0)
(-0.000144613 -0.00380554 0)
(-0.000180166 -0.00439547 0)
(-0.000212926 -0.00496568 0)
(-0.000242713 -0.00551412 0)
(-0.000275896 -0.0060435 0)
(-0.000317546 -0.00653875 0)
(-0.000371429 -0.00696628 0)
(-0.000435349 -0.00730698 0)
(-0.000490702 -0.00760649 0)
(-0.000549742 -0.00786693 0)
(-0.000596387 -0.00809263 0)
(-0.000608592 -0.00834019 0)
(-0.000639267 -0.00864691 0)
(-0.000713524 -0.00892518 0)
(-0.000792738 -0.00913168 0)
(-0.000856135 -0.00929196 0)
(-0.000910302 -0.0094282 0)
(-0.000956091 -0.00954397 0)
(-0.000994954 -0.009637 0)
(-0.00102579 -0.00970893 0)
(-0.00104905 -0.00976975 0)
(-0.0010653 -0.00981996 0)
(-0.0010762 -0.00985984 0)
(-0.00108357 -0.00988326 0)
(-0.00108897 -0.00991723 0)
(-0.00109035 -0.00999479 0)
(-0.00108666 -0.0100877 0)
(-0.00107985 -0.0101632 0)
(-0.0010734 -0.0102223 0)
(-0.00106936 -0.0102721 0)
(-0.00106982 -0.0103235 0)
(-0.00107627 -0.0103862 0)
(-0.00109058 -0.0104683 0)
(-0.00111321 -0.0105682 0)
(-0.001142 -0.0106788 0)
(-0.0011733 -0.0107979 0)
(-0.0012064 -0.0109357 0)
(-0.00124227 -0.0111072 0)
(-0.00128102 -0.0113272 0)
(-0.0013202 -0.0116077 0)
(-0.00135649 -0.0119533 0)
(-0.00139092 -0.0123618 0)
(-0.00143689 -0.0128568 0)
(-0.00152273 -0.0135241 0)
(-0.00167589 -0.0144292 0)
(-2.43476e-07 -0.000311932 0)
(-7.41444e-06 -0.00092551 0)
(-2.23761e-05 -0.00152271 0)
(-4.41206e-05 -0.00210008 0)
(-7.20109e-05 -0.00265662 0)
(-0.000105128 -0.00319228 0)
(-0.000143126 -0.00370862 0)
(-0.000185731 -0.00420511 0)
(-0.000232636 -0.00468257 0)
(-0.000283561 -0.00514021 0)
(-0.000337873 -0.00557844 0)
(-0.000394189 -0.00599589 0)
(-0.000450696 -0.00639271 0)
(-0.000505364 -0.00676825 0)
(-0.000557038 -0.00712464 0)
(-0.000605094 -0.00746045 0)
(-0.000650113 -0.00777921 0)
(-0.000693816 -0.00808114 0)
(-0.000737094 -0.00836191 0)
(-0.000777347 -0.00861858 0)
(-0.000812918 -0.00885487 0)
(-0.00084578 -0.00907169 0)
(-0.000877761 -0.00926976 0)
(-0.000906174 -0.00944844 0)
(-0.000926221 -0.00960864 0)
(-0.000935429 -0.00975079 0)
(-0.000937234 -0.00987404 0)
(-0.000935308 -0.00997739 0)
(-0.000934034 -0.0100578 0)
(-0.000945749 -0.0101395 0)
(-0.000972127 -0.0102476 0)
(-0.000995232 -0.0103542 0)
(-0.00101013 -0.010435 0)
(-0.00101978 -0.0104913 0)
(-0.00102223 -0.0105303 0)
(-0.00101896 -0.0105575 0)
(-0.00101086 -0.0105774 0)
(-0.00100021 -0.0105874 0)
(-0.0009895 -0.0106205 0)
(-0.00097731 -0.0107014 0)
(-0.000963908 -0.0107921 0)
(-0.000952222 -0.0108681 0)
(-0.000945716 -0.0109456 0)
(-0.000946279 -0.0110464 0)
(-0.00095514 -0.0111797 0)
(-0.000973356 -0.0113449 0)
(-0.00100303 -0.0115435 0)
(-0.0010472 -0.0117887 0)
(-0.00110979 -0.0121144 0)
(-0.00119293 -0.0125676 0)
(-6.46563e-07 -0.000282112 0)
(-5.89777e-06 -0.000829606 0)
(-1.62574e-05 -0.00136087 0)
(-3.1272e-05 -0.00187713 0)
(-5.05297e-05 -0.00237855 0)
(-7.35113e-05 -0.00286544 0)
(-9.98774e-05 -0.0033378 0)
(-0.000129266 -0.00379547 0)
(-0.000161343 -0.00423805 0)
(-0.000195776 -0.00466555 0)
(-0.000232222 -0.00507762 0)
(-0.000270339 -0.00547433 0)
(-0.00030973 -0.00585552 0)
(-0.000350049 -0.00622145 0)
(-0.000390922 -0.0065721 0)
(-0.000432051 -0.00690786 0)
(-0.000473145 -0.00722873 0)
(-0.000513964 -0.00753508 0)
(-0.000554154 -0.00782675 0)
(-0.000593369 -0.00810407 0)
(-0.000631169 -0.00836716 0)
(-0.000667236 -0.00861651 0)
(-0.000701241 -0.0088521 0)
(-0.000732883 -0.0090743 0)
(-0.000761825 -0.00928337 0)
(-0.00078775 -0.00948007 0)
(-0.000810341 -0.00966487 0)
(-0.000829234 -0.00983826 0)
(-0.000844246 -0.0100006 0)
(-0.000855568 -0.0101521 0)
(-0.000863985 -0.010292 0)
(-0.000869829 -0.0104189 0)
(-0.000873117 -0.0105323 0)
(-0.000873564 -0.010632 0)
(-0.000870957 -0.0107182 0)
(-0.000865126 -0.0107903 0)
(-0.00085457 -0.0108473 0)
(-0.000838391 -0.0108857 0)
(-0.000823739 -0.0109357 0)
(-0.000822387 -0.0110188 0)
(-0.000827243 -0.0110986 0)
(-0.000825208 -0.011156 0)
(-0.000816577 -0.0112005 0)
(-0.000805256 -0.0112454 0)
(-0.000793172 -0.011336 0)
(-0.000780798 -0.011457 0)
(-0.00077146 -0.0115744 0)
(-0.000768818 -0.0116916 0)
(-0.000775446 -0.0118183 0)
(-0.000796017 -0.0119515 0)
(-4.20116e-07 -0.00024993 0)
(-4.03459e-06 -0.000740061 0)
(-1.1187e-05 -0.0012195 0)
(-2.15727e-05 -0.00168801 0)
(-3.49109e-05 -0.00214566 0)
(-5.09126e-05 -0.0025926 0)
(-6.93505e-05 -0.00302892 0)
(-9.00016e-05 -0.00345437 0)
(-0.000112621 -0.00386876 0)
(-0.000136973 -0.00427187 0)
(-0.000162812 -0.00466358 0)
(-0.000189895 -0.00504375 0)
(-0.000217977 -0.00541234 0)
(-0.000246819 -0.00576926 0)
(-0.000276188 -0.00611451 0)
(-0.000305862 -0.00644804 0)
(-0.000335626 -0.0067699 0)
(-0.000365275 -0.00708005 0)
(-0.000394603 -0.00737855 0)
(-0.000423416 -0.00766543 0)
(-0.000451519 -0.00794081 0)
(-0.000478732 -0.00820475 0)
(-0.000504874 -0.00845737 0)
(-0.000529785 -0.00869883 0)
(-0.000553302 -0.0089293 0)
(-0.000575294 -0.00914895 0)
(-0.000595626 -0.00935795 0)
(-0.000614202 -0.00955652 0)
(-0.000630913 -0.00974488 0)
(-0.000645681 -0.00992328 0)
(-0.000658388 -0.0100919 0)
(-0.000668923 -0.0102509 0)
(-0.000677092 -0.0104005 0)
(-0.000682716 -0.0105409 0)
(-0.000685552 -0.0106722 0)
(-0.000685352 -0.010795 0)
(-0.000681822 -0.0109091 0)
(-0.000674881 -0.0110155 0)
(-0.000664877 -0.011114 0)
(-0.00065274 -0.0112051 0)
(-0.000638963 -0.0112852 0)
(-0.000623147 -0.0113538 0)
(-0.000604741 -0.0114092 0)
(-0.000585581 -0.0114535 0)
(-0.000577841 -0.0115266 0)
(-0.000576288 -0.0116141 0)
(-0.000568032 -0.0116837 0)
(-0.000556491 -0.0117615 0)
(-0.000544189 -0.0118433 0)
(-0.000533539 -0.0119177 0)
(-1.41933e-07 -0.000232928 0)
(-1.99743e-06 -0.000690721 0)
(-5.84048e-06 -0.00113994 0)
(-1.1558e-05 -0.00158042 0)
(-1.90049e-05 -0.00201208 0)
(-2.80154e-05 -0.00243497 0)
(-3.84708e-05 -0.00284914 0)
(-5.02442e-05 -0.00325448 0)
(-6.3201e-05 -0.00365082 0)
(-7.72045e-05 -0.00403804 0)
(-9.21132e-05 -0.00441604 0)
(-0.000107783 -0.00478477 0)
(-0.000124069 -0.00514412 0)
(-0.000140826 -0.00549405 0)
(-0.00015791 -0.00583451 0)
(-0.000175177 -0.00616547 0)
(-0.000192487 -0.00648688 0)
(-0.000209699 -0.00679874 0)
(-0.000226676 -0.00710107 0)
(-0.000243279 -0.00739388 0)
(-0.000259375 -0.00767719 0)
(-0.000274835 -0.00795103 0)
(-0.00028953 -0.00821547 0)
(-0.00030334 -0.00847055 0)
(-0.000316145 -0.00871637 0)
(-0.000327837 -0.00895298 0)
(-0.000338307 -0.00918049 0)
(-0.000347458 -0.00939896 0)
(-0.000355191 -0.00960854 0)
(-0.000361424 -0.0098093 0)
(-0.000366065 -0.0100014 0)
(-0.000369047 -0.0101848 0)
(-0.000370283 -0.0103599 0)
(-0.000369716 -0.0105265 0)
(-0.000367265 -0.010685 0)
(-0.00036289 -0.0108355 0)
(-0.000356518 -0.010978 0)
(-0.000348134 -0.0111127 0)
(-0.000337682 -0.0112399 0)
(-0.00032514 -0.0113595 0)
(-0.000310381 -0.0114717 0)
(-0.000293242 -0.0115764 0)
(-0.000273559 -0.0116737 0)
(-0.000251422 -0.0117638 0)
(-0.000227357 -0.0118465 0)
(-0.00020184 -0.0119206 0)
(-0.000174521 -0.0119826 0)
(-0.000146599 -0.012055 0)
(-0.000121401 -0.0121286 0)
(-9.71469e-05 -0.012194 0)
(-0.00380391 -0.00907275 0)
(-0.00389133 -0.00925994 0)
(-0.00397353 -0.00944474 0)
(-0.00405034 -0.00962714 0)
(-0.00412157 -0.00980723 0)
(-0.00418701 -0.00998511 0)
(-0.00424645 -0.0101609 0)
(-0.00429966 -0.0103349 0)
(-0.00434642 -0.0105071 0)
(-0.00438649 -0.0106777 0)
(-0.00441966 -0.0108469 0)
(-0.00444569 -0.0110147 0)
(-0.00446439 -0.0111813 0)
(-0.00447553 -0.0113468 0)
(-0.00447893 -0.0115113 0)
(-0.00447438 -0.0116748 0)
(-0.0044617 -0.0118374 0)
(-0.00444069 -0.011999 0)
(-0.00441114 -0.0121594 0)
(-0.00437281 -0.0123182 0)
(-0.00432557 -0.0124747 0)
(-0.00426946 -0.0126283 0)
(-0.00420469 -0.0127792 0)
(-0.00413143 -0.0129281 0)
(-0.00404975 -0.0130749 0)
(-0.00395971 -0.0132192 0)
(-0.00386141 -0.0133603 0)
(-0.00375502 -0.013498 0)
(-0.00364061 -0.0136335 0)
(-0.00351767 -0.0137703 0)
(-0.00338542 -0.0139033 0)
(-0.0032437 -0.014027 0)
(-0.0030931 -0.0141401 0)
(-0.00293415 -0.0142486 0)
(-0.00276752 -0.0143472 0)
(-0.00259416 -0.0144377 0)
(-0.00241456 -0.0145235 0)
(-0.00222915 -0.0146024 0)
(-0.00203855 -0.0146744 0)
(-0.00184345 -0.0147394 0)
(-0.00164454 -0.0147976 0)
(-0.00144267 -0.0148511 0)
(-0.0012388 -0.0149017 0)
(-0.00103368 -0.0149538 0)
(-0.000825474 -0.0150258 0)
(-0.000610831 -0.0151028 0)
(-0.000388218 -0.015163 0)
(-0.000158838 -0.0151896 0)
(7.53297e-05 -0.0151962 0)
(0.000312186 -0.0151852 0)
(-0.00601877 -0.00823119 0)
(-0.00606033 -0.00848177 0)
(-0.00609389 -0.00873328 0)
(-0.00611904 -0.00898632 0)
(-0.0061353 -0.00924141 0)
(-0.0061422 -0.00949901 0)
(-0.00613925 -0.00975952 0)
(-0.00612598 -0.0100232 0)
(-0.0061019 -0.0102902 0)
(-0.00606658 -0.0105606 0)
(-0.00601959 -0.0108344 0)
(-0.00596057 -0.0111116 0)
(-0.00588919 -0.0113921 0)
(-0.00580512 -0.0116759 0)
(-0.00570808 -0.0119629 0)