/*--------------------------------*- C++ -*----------------------------------*\
| =========                 |                                                 |
| \\      /  F ield         | OpenFOAM: The Open Source CFD Toolbox           |
|  \\    /   O peration     | Version:  2.4.0                                 |
|   \\  /    A nd           | Web:      www.OpenFOAM.org                      |
|    \\/     M anipulation  |                                                 |
\*---------------------------------------------------------------------------*/
FoamFile
{
    version     2.0;
    format      ascii;
    class       volScalarField;
    location    "0.6";
    object      H;
}
// * * * * * * * * * * * * * * * * * * * * * * * * * * * * * * * * * * * * * //

dimensions      [0 2 -2 0 0 0 0];

internalField   nonuniform List<scalar> 
125
(
-150.912
-150.907
-150.906
-150.904
-150.914
-144.837
-144.833
-144.832
-144.83
-144.838
-138.633
-138.63
-138.63
-138.628
-138.634
-132.341
-132.339
-132.339
-132.338
-132.342
-126
-125.999
-125.999
-125.998
-126
-119.647
-119.647
-119.648
-119.647
-119.648
-113.321
-113.321
-113.322
-113.321
-113.32
-107.054
-107.056
-107.057
-107.056
-107.054
-100.882
-100.884
-100.885
-100.885
-100.881
-94.8339
-94.8367
-94.8383
-94.838
-94.8332
-88.9388
-88.9421
-88.9437
-88.9436
-88.9379
-83.2217
-83.2254
-83.2272
-83.2272
-83.2207
-77.7052
-77.7092
-77.7111
-77.7112
-77.7041
-72.4085
-72.4128
-72.4147
-72.4149
-72.4073
-67.3478
-67.3523
-67.3542
-67.3545
-67.3465
-62.5359
-62.5405
-62.5425
-62.5428
-62.5346
-57.9825
-57.9872
-57.9892
-57.9895
-57.9812
-53.6943
-53.699
-53.7009
-53.7013
-53.693
-49.6745
-49.6792
-49.681
-49.6815
-49.6732
-45.924
-45.9285
-45.9303
-45.9307
-45.9227
-42.4404
-42.4448
-42.4465
-42.4469
-42.4392
-39.2193
-39.2234
-39.2251
-39.2255
-39.2181
-36.2536
-36.2576
-36.2592
-36.2596
-36.2525
-33.5347
-33.5385
-33.5399
-33.5403
-33.5337
-31.0519
-31.0554
-31.0568
-31.0572
-31.0509
)
;

boundaryField
{
    BotWall
    {
        type            zeroGradient;
    }
    FreeStream
    {
        type            zeroGradient;
    }
    FrontNBack
    {
        type            empty;
    }
    LeftSide
    {
        type            symmetryPlane;
    }
    RightSide
    {
        type            symmetryPlane;
    }
    procBoundary1to0
    {
        type            processor;
        value           nonuniform List<scalar> 5(-156.815 -156.809 -156.807 -156.805 -156.817);
    }
    procBoundary1to2
    {
        type            processor;
        value           nonuniform List<scalar> 5(-28.7951 -28.7984 -28.7996 -28.8 -28.7942);
    }
}


// ************************************************************************* //
