/*--------------------------------*- C++ -*----------------------------------*\
| =========                 |                                                 |
| \\      /  F ield         | OpenFOAM: The Open Source CFD Toolbox           |
|  \\    /   O peration     | Version:  2.4.0                                 |
|   \\  /    A nd           | Web:      www.OpenFOAM.org                      |
|    \\/     M anipulation  |                                                 |
\*---------------------------------------------------------------------------*/
FoamFile
{
    version     2.0;
    format      ascii;
    class       volScalarField;
    location    "0.6";
    object      p;
}
// * * * * * * * * * * * * * * * * * * * * * * * * * * * * * * * * * * * * * //

dimensions      [1 -1 -2 0 0 0 0];

internalField   nonuniform List<scalar> 
125
(
-0.0146032
-0.0146032
-0.0146032
-0.0146032
-0.0146033
-0.0152532
-0.0152531
-0.0152532
-0.0152531
-0.0152532
-0.0159104
-0.0159103
-0.0159103
-0.0159103
-0.0159104
-0.0165749
-0.0165749
-0.0165749
-0.0165749
-0.0165749
-0.0172468
-0.0172468
-0.0172468
-0.0172468
-0.0172469
-0.0179263
-0.0179262
-0.0179262
-0.0179262
-0.0179263
-0.0186133
-0.0186133
-0.0186133
-0.0186133
-0.0186133
-0.019308
-0.019308
-0.019308
-0.0193079
-0.019308
-0.0200104
-0.0200104
-0.0200104
-0.0200104
-0.0200104
-0.0207207
-0.0207207
-0.0207207
-0.0207207
-0.0207207
-0.0214389
-0.0214389
-0.0214389
-0.0214389
-0.0214389
-0.0221651
-0.0221651
-0.0221651
-0.0221651
-0.0221651
-0.0228994
-0.0228994
-0.0228994
-0.0228994
-0.0228995
-0.023642
-0.0236419
-0.0236419
-0.0236419
-0.023642
-0.0243928
-0.0243927
-0.0243927
-0.0243927
-0.0243928
-0.0251519
-0.0251519
-0.0251519
-0.0251519
-0.025152
-0.0259196
-0.0259196
-0.0259196
-0.0259196
-0.0259196
-0.0266958
-0.0266958
-0.0266958
-0.0266958
-0.0266958
-0.0274807
-0.0274807
-0.0274807
-0.0274807
-0.0274807
-0.0282743
-0.0282743
-0.0282743
-0.0282743
-0.0282743
-0.0290768
-0.0290768
-0.0290768
-0.0290768
-0.0290768
-0.0298883
-0.0298883
-0.0298883
-0.0298883
-0.0298883
-0.0307088
-0.0307088
-0.0307088
-0.0307088
-0.0307088
-0.0315384
-0.0315384
-0.0315384
-0.0315384
-0.0315385
-0.0323774
-0.0323773
-0.0323773
-0.0323773
-0.0323774
)
;

boundaryField
{
    BotWall
    {
        type            calculated;
        value           nonuniform 0();
    }
    FreeStream
    {
        type            calculated;
        value           nonuniform 0();
    }
    FrontNBack
    {
        type            empty;
    }
    LeftSide
    {
        type            symmetryPlane;
    }
    RightSide
    {
        type            symmetryPlane;
    }
    procBoundary1to0
    {
        type            processor;
        value           nonuniform List<scalar> 5(-0.0139605 -0.0139604 -0.0139604 -0.0139604 -0.0139605);
    }
    procBoundary1to2
    {
        type            processor;
        value           nonuniform List<scalar> 5(-0.0332256 -0.0332256 -0.0332256 -0.0332256 -0.0332257);
    }
}


// ************************************************************************* //
