/*--------------------------------*- C++ -*----------------------------------*\
| =========                 |                                                 |
| \\      /  F ield         | OpenFOAM: The Open Source CFD Toolbox           |
|  \\    /   O peration     | Version:  2.4.0                                 |
|   \\  /    A nd           | Web:      www.OpenFOAM.org                      |
|    \\/     M anipulation  |                                                 |
\*---------------------------------------------------------------------------*/
FoamFile
{
    version     2.0;
    format      ascii;
    class       surfaceScalarField;
    location    "0.6";
    object      phi;
}
// * * * * * * * * * * * * * * * * * * * * * * * * * * * * * * * * * * * * * //

dimensions      [0 3 -1 0 0 0 0];

internalField   nonuniform List<scalar> 
220
(
-9.98703e-18
-4.84202e-10
-1.17194e-17
-4.84209e-10
-4.85497e-17
-4.84211e-10
-7.11591e-17
-4.84213e-10
-4.842e-10
-5.25806e-18
-4.84202e-10
-9.00567e-18
-4.84209e-10
-5.28391e-17
-4.84211e-10
-8.09341e-17
-4.84213e-10
-4.842e-10
-9.21369e-20
-4.84201e-10
-6.01403e-18
-4.84209e-10
-5.71452e-17
-4.84211e-10
-9.09475e-17
-4.84213e-10
-4.842e-10
5.42556e-18
-4.84202e-10
-2.80449e-18
-4.84209e-10
-6.14314e-17
-4.8421e-10
-1.01077e-16
-4.84213e-10
-4.842e-10
1.12085e-17
-4.84202e-10
5.62264e-19
-4.84209e-10
-6.56617e-17
-4.8421e-10
-1.11205e-16
-4.84213e-10
-4.84201e-10
1.71703e-17
-4.84202e-10
4.02578e-18
-4.84209e-10
-6.9801e-17
-4.8421e-10
-1.21214e-16
-4.84213e-10
-4.84201e-10
2.32259e-17
-4.84202e-10
7.52691e-18
-4.84209e-10
-7.38153e-17
-4.8421e-10
-1.30992e-16
-4.84212e-10
-4.84201e-10
2.92934e-17
-4.84202e-10
1.10089e-17
-4.84209e-10
-7.76725e-17
-4.8421e-10
-1.40432e-16
-4.84212e-10
-4.84201e-10
3.5295e-17
-4.84202e-10
1.44182e-17
-4.84209e-10
-8.1343e-17
-4.8421e-10
-1.49435e-16
-4.84212e-10
-4.84201e-10
4.11582e-17
-4.84202e-10
1.77055e-17
-4.84209e-10
-8.47999e-17
-4.8421e-10
-1.57913e-16
-4.84212e-10
-4.84201e-10
4.68172e-17
-4.84202e-10
2.08264e-17
-4.84209e-10
-8.80196e-17
-4.8421e-10
-1.65788e-16
-4.84212e-10
-4.84201e-10
5.22134e-17
-4.84202e-10
2.3742e-17
-4.84209e-10
-9.09819e-17
-4.8421e-10
-1.72993e-16
-4.84212e-10
-4.84202e-10
5.72965e-17
-4.84202e-10
2.64195e-17
-4.84209e-10
-9.36706e-17
-4.8421e-10
-1.79474e-16
-4.84212e-10
-4.84202e-10
6.20247e-17
-4.84202e-10
2.88323e-17
-4.84209e-10
-9.60733e-17
-4.84209e-10
-1.85192e-16
-4.84212e-10
-4.84202e-10
6.63652e-17
-4.84202e-10
3.09607e-17
-4.84209e-10
-9.81818e-17
-4.84209e-10
-1.90118e-16
-4.84212e-10
-4.84202e-10
7.02942e-17
-4.84202e-10
3.27913e-17
-4.84209e-10
-9.99917e-17
-4.84209e-10
-1.94241e-16
-4.84212e-10
-4.84202e-10
7.37968e-17
-4.84202e-10
3.43173e-17
-4.84209e-10
-1.01503e-16
-4.84209e-10
-1.97559e-16
-4.84212e-10
-4.84203e-10
7.68664e-17
-4.84202e-10
3.55381e-17
-4.84209e-10
-1.02719e-16
-4.84209e-10
-2.00085e-16
-4.84212e-10
-4.84203e-10
7.95048e-17
-4.84202e-10
3.64589e-17
-4.84209e-10
-1.03646e-16
-4.84209e-10
-2.01841e-16
-4.84211e-10
-4.84203e-10
8.17208e-17
-4.84202e-10
3.70901e-17
-4.84208e-10
-1.04296e-16
-4.84209e-10
-2.0286e-16
-4.84211e-10
-4.84203e-10
8.35296e-17
-4.84202e-10
3.74467e-17
-4.84208e-10
-1.0468e-16
-4.84209e-10
-2.03186e-16
-4.84211e-10
-4.84203e-10
8.49521e-17
-4.84202e-10
3.75475e-17
-4.84208e-10
-1.04814e-16
-4.84208e-10
-2.02877e-16
-4.84211e-10
-4.84204e-10
8.60137e-17
-4.84203e-10
3.74142e-17
-4.84208e-10
-1.04705e-16
-4.84208e-10
-2.01978e-16
-4.84211e-10
-4.84204e-10
8.67426e-17
-4.84203e-10
3.70717e-17
-4.84208e-10
-1.04383e-16
-4.84208e-10
-2.00583e-16
-4.84211e-10
-4.84204e-10
8.71695e-17
3.65462e-17
-1.03855e-16
-1.98706e-16
)
;

boundaryField
{
    BotWall
    {
        type            calculated;
        value           nonuniform 0();
    }
    FreeStream
    {
        type            calculated;
        value           nonuniform 0();
    }
    FrontNBack
    {
        type            empty;
        value           nonuniform 0();
    }
    LeftSide
    {
        type            symmetryPlane;
        value           uniform 0;
    }
    RightSide
    {
        type            symmetryPlane;
        value           uniform 0;
    }
    procBoundary1to0
    {
        type            processor;
        value           nonuniform List<scalar> 5(4.84202e-10 4.84209e-10 4.84211e-10 4.84213e-10 4.842e-10);
    }
    procBoundary1to2
    {
        type            processor;
        value           nonuniform List<scalar> 5(-4.84203e-10 -4.84208e-10 -4.84208e-10 -4.84211e-10 -4.84204e-10);
    }
}


// ************************************************************************* //
