/*--------------------------------*- C++ -*----------------------------------*\
| =========                 |                                                 |
| \\      /  F ield         | OpenFOAM: The Open Source CFD Toolbox           |
|  \\    /   O peration     | Version:  2.4.0                                 |
|   \\  /    A nd           | Web:      www.OpenFOAM.org                      |
|    \\/     M anipulation  |                                                 |
\*---------------------------------------------------------------------------*/
FoamFile
{
    version     2.0;
    format      ascii;
    class       volScalarField;
    location    "0.6";
    object      T;
}
// * * * * * * * * * * * * * * * * * * * * * * * * * * * * * * * * * * * * * //

dimensions      [0 0 0 1 0 0 0];

internalField   nonuniform List<scalar> 
125
(
297.917
297.917
297.917
297.917
297.917
297.92
297.92
297.92
297.92
297.92
297.924
297.924
297.924
297.924
297.924
297.927
297.927
297.927
297.927
297.927
297.931
297.931
297.931
297.931
297.931
297.934
297.934
297.934
297.934
297.934
297.938
297.938
297.938
297.938
297.938
297.941
297.941
297.941
297.941
297.941
297.945
297.945
297.945
297.945
297.945
297.948
297.948
297.948
297.948
297.948
297.951
297.951
297.951
297.951
297.951
297.954
297.954
297.954
297.954
297.954
297.957
297.957
297.957
297.957
297.957
297.96
297.96
297.96
297.96
297.96
297.963
297.963
297.963
297.963
297.963
297.966
297.966
297.966
297.966
297.966
297.968
297.968
297.968
297.968
297.968
297.97
297.97
297.97
297.97
297.97
297.973
297.973
297.973
297.973
297.973
297.975
297.975
297.975
297.975
297.975
297.977
297.977
297.977
297.977
297.977
297.978
297.978
297.978
297.978
297.978
297.98
297.98
297.98
297.98
297.98
297.982
297.982
297.982
297.982
297.982
297.983
297.983
297.983
297.983
297.983
)
;

boundaryField
{
    BotWall
    {
        type            fixedValue;
        value           nonuniform 0();
    }
    FreeStream
    {
        type            fixedValue;
        value           nonuniform 0();
    }
    FrontNBack
    {
        type            empty;
    }
    LeftSide
    {
        type            symmetryPlane;
    }
    RightSide
    {
        type            symmetryPlane;
    }
    procBoundary1to0
    {
        type            processor;
        value           nonuniform List<scalar> 5(297.914 297.914 297.914 297.914 297.914);
    }
    procBoundary1to2
    {
        type            processor;
        value           nonuniform List<scalar> 5(297.984 297.984 297.984 297.984 297.984);
    }
}


// ************************************************************************* //
