/*--------------------------------*- C++ -*----------------------------------*\
| =========                 |                                                 |
| \\      /  F ield         | OpenFOAM: The Open Source CFD Toolbox           |
|  \\    /   O peration     | Version:  2.4.0                                 |
|   \\  /    A nd           | Web:      www.OpenFOAM.org                      |
|    \\/     M anipulation  |                                                 |
\*---------------------------------------------------------------------------*/
FoamFile
{
    version     2.0;
    format      ascii;
    class       volScalarField;
    location    "2.2";
    object      p_rgh;
}
// * * * * * * * * * * * * * * * * * * * * * * * * * * * * * * * * * * * * * //

dimensions      [1 -1 -2 0 0 0 0];

internalField   nonuniform List<scalar> 
125
(
-1.08187e-05
-1.08181e-05
-1.08176e-05
-1.08179e-05
-1.08188e-05
-1.08056e-05
-1.08051e-05
-1.08046e-05
-1.08049e-05
-1.08057e-05
-1.07925e-05
-1.0792e-05
-1.07915e-05
-1.07918e-05
-1.07926e-05
-1.07792e-05
-1.07787e-05
-1.07782e-05
-1.07785e-05
-1.07793e-05
-1.07658e-05
-1.07653e-05
-1.07648e-05
-1.07651e-05
-1.07659e-05
-1.07522e-05
-1.07517e-05
-1.07513e-05
-1.07516e-05
-1.07523e-05
-1.07385e-05
-1.07381e-05
-1.07376e-05
-1.07379e-05
-1.07386e-05
-1.07247e-05
-1.07242e-05
-1.07238e-05
-1.07241e-05
-1.07247e-05
-1.07107e-05
-1.07102e-05
-1.07098e-05
-1.07101e-05
-1.07107e-05
-1.06965e-05
-1.06961e-05
-1.06957e-05
-1.06959e-05
-1.06966e-05
-1.06822e-05
-1.06818e-05
-1.06814e-05
-1.06817e-05
-1.06823e-05
-1.06678e-05
-1.06674e-05
-1.0667e-05
-1.06672e-05
-1.06678e-05
-1.06532e-05
-1.06528e-05
-1.06524e-05
-1.06526e-05
-1.06532e-05
-1.06384e-05
-1.0638e-05
-1.06376e-05
-1.06379e-05
-1.06384e-05
-1.06235e-05
-1.06231e-05
-1.06227e-05
-1.0623e-05
-1.06235e-05
-1.06084e-05
-1.0608e-05
-1.06077e-05
-1.06079e-05
-1.06084e-05
-1.05931e-05
-1.05928e-05
-1.05925e-05
-1.05927e-05
-1.05932e-05
-1.05777e-05
-1.05774e-05
-1.05771e-05
-1.05773e-05
-1.05778e-05
-1.05621e-05
-1.05618e-05
-1.05615e-05
-1.05617e-05
-1.05622e-05
-1.05464e-05
-1.05461e-05
-1.05458e-05
-1.0546e-05
-1.05464e-05
-1.05305e-05
-1.05302e-05
-1.05299e-05
-1.05301e-05
-1.05305e-05
-1.05144e-05
-1.05141e-05
-1.05138e-05
-1.0514e-05
-1.05144e-05
-1.04981e-05
-1.04979e-05
-1.04976e-05
-1.04978e-05
-1.04982e-05
-1.04817e-05
-1.04814e-05
-1.04812e-05
-1.04813e-05
-1.04817e-05
-1.04651e-05
-1.04649e-05
-1.04646e-05
-1.04648e-05
-1.04651e-05
)
;

boundaryField
{
    BotWall
    {
        type            fixedFluxPressure;
        gradient        nonuniform 0();
        value           nonuniform 0();
    }
    FreeStream
    {
        type            totalPressure;
        rho             rho;
        psi             none;
        gamma           1;
        p0              nonuniform 0();
        value           nonuniform 0();
    }
    FrontNBack
    {
        type            empty;
    }
    LeftSide
    {
        type            symmetryPlane;
    }
    RightSide
    {
        type            symmetryPlane;
    }
    procBoundary2to1
    {
        type            processor;
        value           nonuniform List<scalar> 5(-1.08316e-05 -1.0831e-05 -1.08305e-05 -1.08308e-05 -1.08317e-05);
    }
    procBoundary2to3
    {
        type            processor;
        value           nonuniform List<scalar> 5(-1.04483e-05 -1.04481e-05 -1.04479e-05 -1.0448e-05 -1.04484e-05);
    }
}


// ************************************************************************* //
