/*--------------------------------*- C++ -*----------------------------------*\
| =========                 |                                                 |
| \\      /  F ield         | OpenFOAM: The Open Source CFD Toolbox           |
|  \\    /   O peration     | Version:  2.4.0                                 |
|   \\  /    A nd           | Web:      www.OpenFOAM.org                      |
|    \\/     M anipulation  |                                                 |
\*---------------------------------------------------------------------------*/
FoamFile
{
    version     2.0;
    format      ascii;
    class       volScalarField;
    location    "0.015";
    object      H;
}
// * * * * * * * * * * * * * * * * * * * * * * * * * * * * * * * * * * * * * //

dimensions      [0 2 -2 0 0 0 0];

internalField   nonuniform List<scalar> 
125
(
-0.477605
-0.446118
-0.416481
-0.388599
-0.362377
-0.33773
-0.314574
-0.292831
-0.272424
-0.253283
-0.235339
-0.218527
-0.202787
-0.188058
-0.174284
-0.161413
-0.149393
-0.138175
-0.127712
-0.117962
-0.108882
-0.100431
-0.0925719
-0.0852686
-0.0784866
-0.0721934
-0.0663581
-0.0609513
-0.0559455
-0.0513142
-0.0470328
-0.0430778
-0.0394272
-0.03606
-0.0329566
-0.0300986
-0.0274686
-0.0250503
-0.0228282
-0.0207882
-0.0189167
-0.0172011
-0.0156297
-0.0141915
-0.0128761
-0.0116741
-0.0105765
-0.00957499
-0.00866194
-0.00783015
-0.00707298
-0.00638428
-0.00575834
-0.00518989
-0.00467404
-0.00420631
-0.00378253
-0.00339887
-0.00305181
-0.00273811
-0.00245477
-0.00219907
-0.00196849
-0.00176072
-0.00157366
-0.00140538
-0.00125411
-0.00111824
-0.000996307
-0.000886962
-0.000788986
-0.000701269
-0.0006228
-0.000552661
-0.00049002
-0.000434121
-0.00038428
-0.000339876
-0.000300351
-0.000265197
-0.000233958
-0.000206221
-0.000181615
-0.000159805
-0.00014049
-0.0001234
-0.000108292
-9.49478e-05
-8.3172e-05
-7.27896e-05
-6.36443e-05
-5.55959e-05
-4.85194e-05
-4.23033e-05
-3.68481e-05
-3.20653e-05
-2.78759e-05
-2.42099e-05
-2.10051e-05
-1.82061e-05
-1.57641e-05
-1.36357e-05
-1.17824e-05
-1.01703e-05
-8.76959e-06
-7.55375e-06
-6.49946e-06
-5.58629e-06
-4.79614e-06
-4.11323e-06
-3.52361e-06
-3.01514e-06
-2.57711e-06
-2.2002e-06
-1.87624e-06
-1.59813e-06
-1.35963e-06
-1.15537e-06
-9.80619e-07
-8.3129e-07
-7.03855e-07
-5.95214e-07
-5.02725e-07
-4.24082e-07
-3.57278e-07
)
;

boundaryField
{
    BotWall
    {
        type            zeroGradient;
    }
    FreeStream
    {
        type            zeroGradient;
    }
    FrontNBack
    {
        type            empty;
    }
    LeftSide
    {
        type            symmetryPlane;
    }
    RightSide
    {
        type            symmetryPlane;
    }
    procBoundary10to7
    {
        type            processor;
        value           nonuniform List<scalar> 
50
(
-0.0004306
-0.000381143
-0.000337086
-0.00029787
-0.000262993
-0.000232002
-0.000204487
-0.000180079
-0.000158446
-0.000139288
-0.000122339
-0.000107355
-9.41215e-05
-8.24441e-05
-7.2149e-05
-6.30809e-05
-5.51009e-05
-4.8085e-05
-4.19224e-05
-3.65144e-05
-3.17732e-05
-2.76205e-05
-2.39868e-05
-2.08104e-05
-1.80364e-05
-1.56163e-05
-1.3507e-05
-1.16705e-05
-1.00732e-05
-8.68532e-06
-7.48071e-06
-6.43624e-06
-5.53158e-06
-4.74889e-06
-4.07245e-06
-3.48847e-06
-2.98486e-06
-2.55108e-06
-2.17782e-06
-1.85706e-06
-1.58167e-06
-1.34557e-06
-1.14333e-06
-9.70348e-07
-8.22533e-07
-6.96407e-07
-5.889e-07
-4.97356e-07
-4.19534e-07
-3.53447e-07
)
;
    }
    procBoundary10to8
    {
        type            processor;
        value           nonuniform List<scalar> 
75
(
-0.476277
-0.444866
-0.4153
-0.387482
-0.361321
-0.336731
-0.313628
-0.291934
-0.271574
-0.252477
-0.234575
-0.217804
-0.202101
-0.187409
-0.17367
-0.160832
-0.148843
-0.137655
-0.127222
-0.1175
-0.108446
-0.100021
-0.092186
-0.0849059
-0.0781462
-0.0718741
-0.0660589
-0.0606714
-0.0556837
-0.0510698
-0.0468048
-0.0428654
-0.0392294
-0.0358761
-0.0327858
-0.0299402
-0.0273218
-0.0249143
-0.0227025
-0.0206721
-0.0188095
-0.0171024
-0.0155388
-0.0141078
-0.0127992
-0.0116035
-0.0105118
-0.00951574
-0.00860772
-0.00778059
-0.00702772
-0.00634299
-0.00572071
-0.00515562
-0.00464288
-0.00417799
-0.00375682
-0.00337555
-0.00303068
-0.00271897
-0.00243747
-0.00218343
-0.00195436
-0.00174798
-0.00156217
-0.00139503
-0.0012448
-0.00110986
-0.000988775
-0.000880195
-0.000782909
-0.000695814
-0.000617906
-0.000548271
-0.000486082
)
;
    }
    procBoundary10to9
    {
        type            processor;
        value           uniform -3.00633e-07;
    }
    procBoundary10to11
    {
        type            processor;
        value           uniform -0.511052;
    }
}


// ************************************************************************* //
