/*--------------------------------*- C++ -*----------------------------------*\
| =========                 |                                                 |
| \\      /  F ield         | OpenFOAM: The Open Source CFD Toolbox           |
|  \\    /   O peration     | Version:  2.4.0                                 |
|   \\  /    A nd           | Web:      www.OpenFOAM.org                      |
|    \\/     M anipulation  |                                                 |
\*---------------------------------------------------------------------------*/
FoamFile
{
    version     2.0;
    format      ascii;
    class       volScalarField;
    location    "0.015";
    object      p_rgh;
}
// * * * * * * * * * * * * * * * * * * * * * * * * * * * * * * * * * * * * * //

dimensions      [1 -1 -2 0 0 0 0];

internalField   nonuniform List<scalar> 
125
(
-0.0038977
-0.00388663
-0.00387552
-0.00386436
-0.00385317
-0.00384193
-0.00383066
-0.00381934
-0.00380798
-0.00379658
-0.00378513
-0.00377365
-0.00376212
-0.00375055
-0.00373894
-0.00372728
-0.00371558
-0.00370384
-0.00369206
-0.00368023
-0.00366836
-0.00365645
-0.00364449
-0.00363249
-0.00362044
-0.00360835
-0.00359621
-0.00358403
-0.00357181
-0.00355954
-0.00354722
-0.00353486
-0.00352246
-0.00351001
-0.00349751
-0.00348497
-0.00347238
-0.00345975
-0.00344706
-0.00343434
-0.00342156
-0.00340874
-0.00339587
-0.00338295
-0.00336999
-0.00335698
-0.00334392
-0.00333081
-0.00331766
-0.00330445
-0.0032912
-0.0032779
-0.00326455
-0.00325115
-0.0032377
-0.00322421
-0.00321066
-0.00319706
-0.00318341
-0.00316972
-0.00315597
-0.00314217
-0.00312832
-0.00311442
-0.00310047
-0.00308647
-0.00307241
-0.00305831
-0.00304415
-0.00302994
-0.00301568
-0.00300136
-0.002987
-0.00297258
-0.00295811
-0.00294358
-0.002929
-0.00291437
-0.00289968
-0.00288494
-0.00287014
-0.00285529
-0.00284039
-0.00282543
-0.00281042
-0.00279535
-0.00278022
-0.00276504
-0.00274981
-0.00273451
-0.00271917
-0.00270376
-0.0026883
-0.00267278
-0.00265721
-0.00264157
-0.00262588
-0.00261013
-0.00259433
-0.00257846
-0.00256254
-0.00254656
-0.00253052
-0.00251442
-0.00249826
-0.00248205
-0.00246577
-0.00244943
-0.00243303
-0.00241658
-0.00240006
-0.00238348
-0.00236684
-0.00235014
-0.00233338
-0.00231655
-0.00229967
-0.00228272
-0.00226571
-0.00224864
-0.0022315
-0.0022143
-0.00219704
-0.00217971
-0.00216232
)
;

boundaryField
{
    BotWall
    {
        type            fixedFluxPressure;
        gradient        nonuniform 0();
        value           nonuniform 0();
    }
    FreeStream
    {
        type            totalPressure;
        rho             rho;
        psi             none;
        gamma           1;
        p0              nonuniform 0();
        value           nonuniform 0();
    }
    FrontNBack
    {
        type            empty;
    }
    LeftSide
    {
        type            symmetryPlane;
    }
    RightSide
    {
        type            symmetryPlane;
    }
    procBoundary10to7
    {
        type            processor;
        value           nonuniform List<scalar> 
50
(
-0.00294379
-0.0029292
-0.00291457
-0.00289987
-0.00288513
-0.00287033
-0.00285547
-0.00284056
-0.0028256
-0.00281058
-0.0027955
-0.00278037
-0.00276519
-0.00274995
-0.00273465
-0.00271929
-0.00270388
-0.00268842
-0.00267289
-0.00265731
-0.00264167
-0.00262597
-0.00261022
-0.00259441
-0.00257854
-0.00256261
-0.00254662
-0.00253057
-0.00251446
-0.0024983
-0.00248207
-0.00246579
-0.00244945
-0.00243304
-0.00241658
-0.00240005
-0.00238346
-0.00236682
-0.00235011
-0.00233334
-0.0023165
-0.00229961
-0.00228265
-0.00226563
-0.00224855
-0.00223141
-0.0022142
-0.00219693
-0.00217959
-0.00216219
)
;
    }
    procBoundary10to8
    {
        type            processor;
        value           nonuniform List<scalar> 
75
(
-0.00389809
-0.00388702
-0.00387591
-0.00386475
-0.00385356
-0.00384233
-0.00383105
-0.00381973
-0.00380837
-0.00379697
-0.00378553
-0.00377404
-0.00376251
-0.00375094
-0.00373933
-0.00372767
-0.00371598
-0.00370423
-0.00369245
-0.00368062
-0.00366875
-0.00365683
-0.00364487
-0.00363287
-0.00362082
-0.00360873
-0.00359659
-0.00358441
-0.00357219
-0.00355992
-0.0035476
-0.00353524
-0.00352283
-0.00351038
-0.00349788
-0.00348534
-0.00347274
-0.00346011
-0.00344742
-0.00343469
-0.00342192
-0.00340909
-0.00339622
-0.0033833
-0.00337034
-0.00335732
-0.00334426
-0.00333115
-0.00331799
-0.00330478
-0.00329153
-0.00327822
-0.00326487
-0.00325147
-0.00323802
-0.00322451
-0.00321096
-0.00319736
-0.00318371
-0.00317001
-0.00315626
-0.00314245
-0.0031286
-0.0031147
-0.00310074
-0.00308673
-0.00307268
-0.00305857
-0.0030444
-0.00303019
-0.00301592
-0.0030016
-0.00298723
-0.0029728
-0.00295832
)
;
    }
    procBoundary10to9
    {
        type            processor;
        value           uniform -0.00214487;
    }
    procBoundary10to11
    {
        type            processor;
        value           uniform -0.00390872;
    }
}


// ************************************************************************* //
