/*--------------------------------*- C++ -*----------------------------------*\
| =========                 |                                                 |
| \\      /  F ield         | OpenFOAM: The Open Source CFD Toolbox           |
|  \\    /   O peration     | Version:  2.4.0                                 |
|   \\  /    A nd           | Web:      www.OpenFOAM.org                      |
|    \\/     M anipulation  |                                                 |
\*---------------------------------------------------------------------------*/
FoamFile
{
    version     2.0;
    format      ascii;
    class       volScalarField;
    location    "3.8";
    object      alpha1;
}
// * * * * * * * * * * * * * * * * * * * * * * * * * * * * * * * * * * * * * //

dimensions      [0 0 0 0 0 0 0];

internalField   nonuniform List<scalar> 
8000
(
1
1
1
0.999998
0.999998
0.999999
0.999999
1
1
0.999998
0.999997
0.999996
0.999995
0.999995
0.999997
0.999998
0.999999
0.999999
1
0.710739
0.0690639
0.00495004
0.00455433
0.00455433
0.00629548
0.0146691
0.0461789
0.0504794
0.0418138
0.0139056
0.00236516
0.00200896
0.00200896
0.00201701
0.0044499
0.0146224
0.0385771
0.0386103
0.0280418
0.00885047
0.00231247
0.000580574
0.00011663
1.77013e-05
2.93985e-06
9.71751e-07
7.64223e-07
1.11142e-06
4.1954e-06
1.58207e-05
1
1
0.999999
0.999998
0.999997
0.999998
0.999998
0.999998
0.999999
0.999998
0.999996
0.999995
0.999995
0.999996
0.999998
0.999999
1
0.999999
0.999996
0.41741
0.0229093
0.00455433
0.00455433
0.00455433
0.00619159
0.0240976
0.0504794
0.0504794
0.0354692
0.0107735
0.00377039
0.00200896
0.00200896
0.00201148
0.0027621
0.00652654
0.0322505
0.0386103
0.0187975
0.00445127
0.000625689
8.55712e-05
1.77268e-05
4.89792e-06
2.6605e-06
4.60115e-06
5.37259e-06
3.67732e-06
3.62298e-06
3.83013e-06
1
1
0.999999
0.999998
0.999997
0.999997
0.999997
0.999998
0.999998
0.999997
0.999995
0.999994
0.999995
0.999998
0.999999
0.999999
0.999999
1
0.812349
0.122009
0.00816643
0.00455432
0.00455433
0.00455433
0.00990455
0.0312968
0.047184
0.0485025
0.0325559
0.0122794
0.0131428
0.0117453
0.0053175
0.010664
0.0175744
0.0254097
0.0415159
0.010618
0.00159649
0.000665728
0.000261827
6.02945e-05
1.28406e-05
6.43495e-06
2.64559e-06
7.42033e-07
7.41952e-07
2.31471e-06
1.34251e-05
2.61386e-05
1
1
0.999999
0.999998
0.999997
0.999997
0.999996
0.999997
0.999997
0.999997
0.999995
0.999995
0.999996
0.999998
0.999999
0.999999
1
1
0.586197
0.0587764
0.00685154
0.00455432
0.00455432
0.00455432
0.0046329
0.00799041
0.0128571
0.0141328
0.0135794
0.0236351
0.0447568
0.0447348
0.0149197
0.0183729
0.0468169
0.0495605
0.0495604
0.032926
0.00811857
0.00272816
0.00104953
0.000219394
5.58936e-05
1.73927e-05
5.15764e-06
1.29982e-06
7.40998e-07
7.40957e-07
7.82085e-07
3.52216e-06
1
1
0.999999
0.999998
0.999997
0.999997
0.999996
0.999996
0.999996
0.999998
0.999995
0.999995
0.999996
0.999998
0.999999
0.999999
1
0.976672
0.290552
0.0185904
0.00455433
0.00455432
0.00457919
0.00783965
0.0191988
0.0295345
0.029136
0.0164844
0.003974
0.00269961
0.00525116
0.00452743
0.00206303
0.00481147
0.014452
0.0427594
0.039456
0.013036
0.00242964
0.000663339
0.000314601
0.000178646
0.000102801
6.16347e-05
3.91737e-05
2.54909e-05
1.59877e-05
9.1282e-06
4.58917e-06
3.29826e-06
1
1
0.999999
0.999998
0.999997
0.999997
0.999996
0.999996
0.999997
0.999997
0.999995
0.999995
0.999996
0.999998
0.999999
0.999999
0.998609
0.399949
0.0298093
0.00455434
0.00455434
0.00459798
0.0110764
0.0250721
0.0293871
0.0293817
0.0125008
0.00142082
0.000210458
4.14584e-05
2.73043e-05
0.000150983
0.000840902
0.00176125
0.000513411
0.000169115
0.000184122
0.000504798
0.000932821
0.000316855
9.35359e-05
5.75446e-05
4.81449e-05
4.14863e-05
3.62551e-05
3.29022e-05
2.97046e-05
2.58505e-05
2.19213e-05
1.83119e-05
1
1
0.999999
0.999998
0.999997
0.999998
0.999996
0.999996
0.999997
0.999995
0.999995
0.999996
0.999998
0.999998
0.999999
0.900129
0.100942
0.00616328
0.00456712
0.00455434
0.00455434
0.00913929
0.027028
0.0270282
0.00880668
0.00437004
0.00246423
0.000908994
0.000190139
2.76136e-05
3.80124e-06
1.23327e-06
1.36856e-06
8.21058e-07
2.20591e-07
1.37832e-07
4.30543e-07
8.78891e-06
6.2735e-05
0.000160018
0.000158214
6.08363e-05
2.20491e-05
1.57799e-05
1.24734e-05
1.05742e-05
9.40594e-06
9.70734e-06
1.1088e-05
1.2569e-05
1
1
0.999999
0.999997
0.999997
0.999997
0.999997
0.999998
0.999995
0.999995
0.999996
0.999997
0.999998
0.999999
0.999957
0.332005
0.0127432
0.00455434
0.00455434
0.00455434
0.00455437
0.00711722
0.0148962
0.013255
0.00257254
0.00101164
0.000353929
0.000114555
3.58185e-05
8.67117e-06
1.64923e-06
2.59536e-07
8.02394e-08
7.06447e-08
5.91512e-08
4.06938e-08
2.9906e-08
2.40446e-08
4.08301e-08
3.46044e-07
2.13313e-06
2.27964e-06
1.07671e-06
6.8718e-07
4.34966e-07
2.84141e-07
2.19672e-07
2.16153e-07
2.74821e-07
3.93709e-07
1
1
0.999998
0.999997
0.999996
0.999996
0.999998
0.999997
0.999997
0.999996
0.999995
0.999997
0.999998
0.999999
0.999972
0.528048
0.0315437
0.00592025
0.00455434
0.00462145
0.00700153
0.00376091
0.00219408
0.0019414
0.000848594
0.000318442
0.000109552
3.65846e-05
1.20032e-05
3.64521e-06
9.24343e-07
1.63312e-07
6.9877e-08
4.48124e-08
3.11467e-08
2.24539e-08
1.63395e-08
1.1924e-08
8.71342e-09
6.3797e-09
4.68527e-09
3.44548e-09
2.5159e-09
1.83723e-09
1.85852e-09
1.82105e-09
1.76547e-09
1.90918e-09
2.55047e-09
4.07917e-09
1
1
0.999998
0.999996
0.999996
0.999997
0.999997
0.999997
0.999997
0.999997
0.999996
0.999997
0.999998
0.999998
0.999949
0.320257
0.00964623
0.0048734
0.0047343
0.00723779
0.00700147
0.00251555
0.000279405
6.01405e-05
6.03745e-05
1.93641e-05
5.24105e-06
1.57131e-06
5.25955e-07
1.99972e-07
9.91546e-08
6.03932e-08
3.78354e-08
2.2962e-08
1.33019e-08
7.30523e-09
3.77785e-09
1.81686e-09
7.99223e-10
3.1687e-10
1.12282e-10
3.55039e-11
1.00522e-11
2.56416e-12
5.93639e-13
1.2568e-13
2.45092e-14
4.43279e-15
7.48272e-16
1.18584e-16
1
1
0.999998
0.999996
0.999995
0.999997
0.999998
0.999997
0.999997
0.999997
0.999997
0.999997
0.999997
0.999997
0.999985
0.345097
0.0099246
0.00597503
0.00633253
0.00637417
0.00258965
0.000645987
9.74262e-05
5.76534e-06
5.10231e-07
3.00126e-07
3.68486e-07
3.37843e-07
1.7211e-07
7.42529e-08
3.10697e-08
1.30171e-08
5.05489e-09
1.79724e-09
5.52158e-10
1.28399e-10
2.42009e-11
3.66331e-12
6.90471e-13
1.9753e-13
5.79248e-14
1.29195e-14
1.88331e-15
1.51284e-16
5.1711e-18
4.42774e-20
3.3705e-21
3.60736e-21
4.08706e-21
4.5429e-21
1
1
0.999998
0.999995
0.999995
0.999997
0.999998
0.999998
0.999997
0.999997
0.999997
0.999997
0.999997
0.999997
0.999999
0.97184
0.150276
0.00940788
0.00570734
0.00305399
0.00165889
0.000651459
0.000104957
7.06918e-06
4.92301e-07
2.66608e-07
5.32045e-07
2.74806e-07
6.46266e-08
3.61884e-08
1.98519e-08
9.65328e-09
3.97251e-09
1.46813e-09
4.19828e-10
9.42343e-11
2.14649e-11
3.69913e-12
1.1937e-12
4.1559e-13
1.16709e-13
2.34041e-14
3.0054e-15
2.0538e-16
5.42504e-18
1.01651e-20
4.06171e-21
4.3254e-21
4.60119e-21
4.79901e-21
1
1
0.999998
0.999995
0.999994
0.999996
0.999998
0.999998
0.999998
0.999998
0.999999
0.999997
0.999997
0.999997
0.999997
0.999998
0.841666
0.0721994
0.00509286
0.00279258
0.00179802
0.000831472
0.000194811
2.83751e-05
1.83901e-06
3.52028e-07
2.50101e-07
1.78624e-07
7.05471e-08
4.48489e-08
2.67308e-08
1.40305e-08
5.98336e-09
2.28088e-09
6.96594e-10
1.88542e-10
4.99624e-11
9.42729e-12
3.37935e-12
1.16462e-12
3.13696e-13
6.0009e-14
7.3416e-15
4.76853e-16
1.20332e-17
1.70478e-20
3.93293e-21
3.96648e-21
4.02839e-21
4.01565e-21
1
1
0.999998
0.999994
0.999994
0.999996
0.999999
0.999999
0.999998
0.999998
0.999998
0.999998
0.999997
0.999997
0.999998
0.999998
0.999974
0.405744
0.0139598
0.00293713
0.0016781
0.000959568
0.00059124
0.000147174
1.22341e-05
6.12236e-07
2.84044e-07
1.32986e-07
9.83642e-08
6.71902e-08
4.64588e-08
2.76589e-08
1.23009e-08
5.24314e-09
1.86065e-09
6.10874e-10
1.80624e-10
3.43855e-11
1.29977e-11
4.51881e-12
1.21334e-12
2.30531e-13
2.79116e-14
1.78213e-15
4.41348e-17
5.07691e-20
3.5532e-21
3.3276e-21
3.3127e-21
3.24885e-21
1
1
0.999997
0.999994
0.999994
0.999996
0.999998
0.999999
0.999999
0.999999
0.999998
0.999998
0.999998
0.999997
0.999997
0.999999
0.999999
0.999992
0.317609
0.0129084
0.00274316
0.00255124
0.00313835
0.00078368
0.000127555
1.51228e-05
7.87554e-07
1.86282e-07
1.56166e-07
1.11211e-07
1.01843e-07
7.1911e-08
3.17576e-08
1.63636e-08
7.14069e-09
2.88384e-09
9.63979e-10
1.75283e-10
7.05041e-11
2.56656e-11
7.17231e-12
1.41243e-12
1.76113e-13
1.14326e-14
2.85671e-16
3.10272e-19
4.16398e-21
2.85907e-21
2.80032e-21
2.78074e-21
1
1
0.999997
0.999994
0.999995
0.999997
0.999998
0.999999
0.999999
0.999999
0.999999
0.999999
0.999998
0.999998
0.999997
0.999997
0.999999
0.999999
0.999996
0.702691
0.0970672
0.0390735
0.0135389
0.00573583
0.00211974
0.000663165
7.93581e-05
5.51544e-06
2.27297e-06
2.64207e-06
1.93094e-06
3.63151e-07
1.09409e-07
8.22416e-08
3.58548e-08
1.92072e-08
9.0176e-09
1.58757e-09
7.15578e-10
2.97329e-10
9.42802e-11
2.08868e-11
2.88976e-12
2.02214e-13
5.33561e-15
6.02055e-18
2.1014e-20
3.70961e-21
2.3529e-21
2.34122e-21
1
0.999999
0.999997
0.999995
0.999996
0.999997
0.999998
0.999999
0.999999
0.999999
0.999999
0.999999
0.999999
0.999998
0.999998
0.999998
0.999999
0.999999
0.999997
0.999998
0.999982
0.826937
0.19421
0.0487441
0.0197208
0.0074856
0.00231043
0.00073977
0.000319566
0.000223698
0.00012941
4.80888e-05
1.19475e-05
1.55486e-05
2.54375e-05
1.59234e-05
2.7011e-06
1.20302e-07
4.29983e-08
2.42135e-08
1.43283e-08
6.73692e-09
2.26071e-09
5.3589e-10
5.81619e-11
3.14765e-12
1.74719e-13
2.40294e-14
2.97603e-15
3.10742e-16
1
0.999999
0.999997
0.999996
0.999997
0.999998
0.999998
0.999999
0.999999
0.999999
0.999999
0.999999
0.999999
0.999999
0.999998
0.999998
0.999998
0.999999
0.999999
0.999999
0.999999
0.999999
0.999975
0.964199
0.554132
0.118117
0.035951
0.00911512
0.00396481
0.0040909
0.00887446
0.00571385
0.00208932
0.00201017
0.00215591
0.00150003
0.00179243
0.00157267
0.000807142
0.000258125
6.71787e-05
1.3069e-05
1.33101e-06
7.77024e-08
8.27373e-08
2.49402e-07
1.11268e-07
3.0394e-08
5.694e-09
1.05972e-09
1
0.999999
0.999997
0.999997
0.999998
0.999998
0.999999
0.999999
0.999999
0.999999
0.999999
0.999999
0.999999
0.999999
0.999999
0.999998
0.999999
0.999999
0.999999
0.999999
0.999999
0.999999
0.999999
0.999999
0.999994
0.999979
0.700359
0.165645
0.0749057
0.0343317
0.0621274
0.0755993
0.0772816
0.0981873
0.107087
0.141301
0.104525
0.0621847
0.029347
0.0107478
0.00306514
0.000665088
0.000102931
1.00586e-05
5.47781e-07
3.23811e-07
2.69486e-07
1.89488e-07
1.17129e-07
3.88018e-08
1
0.999999
0.999997
0.999997
0.999998
0.999999
0.999999
0.999999
0.999999
0.999999
0.999999
0.999999
0.999999
0.999999
0.999999
0.999999
0.999999
0.999999
0.999999
0.999999
0.999999
0.999998
0.999999
0.999999
0.999999
1
0.999999
0.999986
0.708209
0.145885
0.0614764
0.0615072
0.145489
0.218628
0.21929
0.219291
0.211142
0.0977815
0.0293992
0.00870331
0.00244393
0.000498086
5.7964e-05
3.73402e-06
4.5242e-07
5.92513e-07
8.89333e-07
2.02804e-07
6.29626e-08
1.96214e-08
1.70734e-05
1.32003e-05
4.01792e-06
3.79249e-06
3.77721e-06
1.85954e-05
1.17003e-05
3.61791e-06
4.71432e-07
3.80415e-07
3.80292e-07
1.34578e-06
1.0295e-05
2.61531e-05
2.6238e-05
2.62122e-05
2.34841e-05
1.06236e-05
4.11675e-06
3.23004e-06
3.26028e-06
6.59028e-06
6.81316e-06
6.55088e-06
2.61843e-06
3.88105e-07
9.45096e-08
9.43959e-08
9.9485e-08
1.14785e-07
1.11713e-07
9.57229e-08
9.60141e-08
9.71501e-08
1.64921e-07
2.51916e-06
6.25572e-06
6.25545e-06
5.81268e-06
2.03025e-06
2.54471e-07
2.00652e-07
2.00419e-07
1.93882e-07
1.93663e-07
2.56793e-07
5.35852e-06
1.14472e-05
1.16408e-05
7.49765e-06
5.58774e-06
6.81058e-06
1.08573e-05
3.44462e-05
3.65772e-05
3.65775e-05
2.53231e-05
6.17147e-06
9.42907e-07
3.80521e-07
7.79978e-07
3.20113e-06
1.75111e-05
1.90098e-05
8.87863e-06
4.27528e-06
1.34002e-06
8.14176e-07
2.47399e-06
5.01963e-06
5.02474e-06
4.26523e-06
2.10848e-06
1.10867e-06
3.39406e-07
1.59949e-07
1.55415e-07
6.79775e-07
4.76083e-06
3.87825e-06
1.65502e-06
2.26559e-07
2.89815e-07
1.36227e-06
3.96371e-06
4.56625e-06
3.27906e-06
1.61683e-06
7.78328e-07
4.89392e-07
4.68354e-07
1.59432e-06
7.75603e-06
1.05912e-05
1.05894e-05
1.05915e-05
8.55444e-06
4.64766e-06
2.60334e-06
1.12245e-06
2.61419e-05
1.70845e-05
1.11978e-05
2.74711e-05
3.65775e-05
2.80168e-05
3.95298e-06
1.06132e-06
7.43837e-07
5.71187e-07
9.98075e-07
1.91997e-06
5.46715e-06
9.56245e-06
1.7677e-06
7.21151e-07
7.21389e-07
7.21711e-07
1.44567e-06
1.11689e-06
1.03962e-06
1.04602e-06
1.99228e-06
2.99743e-06
3.01324e-06
2.49928e-06
1.60391e-06
3.70223e-06
4.93877e-06
4.93103e-06
4.58915e-06
3.17498e-06
1.99287e-06
2.1103e-06
2.92739e-06
4.44521e-06
8.99696e-06
9.28126e-06
9.29756e-06
6.34382e-06
4.42101e-06
3.85074e-06
5.86686e-06
4.80929e-06
3.65982e-06
2.38425e-06
1.09401e-06
3.40722e-07
1.93255e-07
1.40875e-07
7.75015e-06
1.06341e-05
1.39694e-05
2.88233e-05
3.65772e-05
3.5907e-05
9.83678e-06
1.18085e-06
9.36996e-07
8.94939e-06
2.31059e-05
2.3736e-05
1.74543e-05
1.93484e-06
7.20744e-07
7.20976e-07
7.28907e-07
7.45215e-07
7.24787e-07
7.2489e-07
2.5524e-06
6.23971e-06
5.67862e-06
1.05012e-06
1.01169e-06
1.01144e-06
1.77239e-06
4.5393e-06
4.93105e-06
4.4396e-06
1.57817e-06
1.06053e-06
4.03568e-06
7.10034e-06
7.5253e-06
7.51939e-06
6.72764e-06
6.89741e-06
5.67597e-06
3.52869e-06
4.33769e-06
4.57828e-06
5.40675e-06
1.15044e-05
1.63787e-05
1.62901e-05
9.31291e-06
2.79213e-06
7.16445e-07
2.19887e-06
3.29839e-06
5.5634e-06
1.12819e-05
1.40619e-05
2.85334e-06
2.59857e-06
2.58424e-06
3.76039e-06
1.22056e-05
2.37564e-05
2.37554e-05
2.36939e-05
8.37747e-06
2.45761e-06
5.95388e-06
1.60958e-05
1.60985e-05
7.39367e-06
7.2492e-07
1.00145e-06
8.07949e-06
2.05743e-05
2.07907e-05
2.01948e-05
5.74399e-06
1.43605e-06
1.32649e-06
1.67207e-06
2.22207e-06
8.89875e-07
4.53258e-07
4.5575e-07
1.66738e-06
2.94665e-06
3.68062e-06
2.63813e-06
1.92939e-06
1.729e-06
1.81979e-06
2.69484e-06
6.3237e-06
1.44936e-05
1.63787e-05
1.63788e-05
1.63786e-05
1.63786e-05
1.082e-05
3.36426e-06
5.84947e-07
2.0578e-06
1.53447e-05
1.29759e-05
1.08422e-05
8.76289e-06
6.00903e-06
3.90889e-06
2.56978e-06
1.74819e-06
1.67517e-06
3.26275e-06
4.74563e-06
6.1877e-06
5.70359e-06
3.38755e-06
2.24701e-06
4.77841e-06
1.56568e-05
4.89208e-05
5.21372e-05
5.20693e-05
2.78367e-05
1.04637e-05
6.37027e-06
5.17089e-06
4.53732e-06
4.24745e-06
7.22819e-06
1.34605e-05
1.34813e-05
1.1512e-05
4.4875e-06
8.8158e-07
1.38203e-07
9.42292e-08
1.49534e-07
1.29637e-07
9.47436e-08
7.97901e-08
1.13419e-07
2.75643e-07
7.49003e-07
2.02345e-06
1.30108e-05
9.53536e-06
4.3972e-06
1.90645e-06
7.56679e-07
3.3488e-07
1.46318e-07
1.52759e-07
1.38748e-05
1.07782e-05
8.64718e-06
6.44277e-06
4.60927e-06
2.92723e-06
1.54393e-06
3.85132e-07
7.11081e-07
2.0283e-06
1.12879e-06
4.28517e-07
1.70661e-07
2.3975e-07
2.05473e-07
2.39022e-07
8.02213e-07
3.9325e-06
3.19585e-05
5.21372e-05
2.4013e-05
5.34924e-06
8.12323e-07
1.08766e-07
1.00468e-07
2.10203e-07
4.94974e-07
1.00421e-06
3.63369e-06
5.97966e-06
2.59269e-06
5.28111e-07
4.27333e-08
9.14966e-09
1.17775e-08
1.02673e-08
1.03511e-08
8.34424e-09
5.83387e-09
8.04296e-09
1.00452e-08
6.8452e-08
5.69524e-07
4.56827e-07
1.40208e-07
1.50991e-08
7.37765e-09
4.62431e-09
3.30342e-09
2.22711e-09
6.14195e-07
5.82764e-07
4.78542e-07
3.38418e-07
2.28207e-07
1.39829e-07
7.99452e-08
6.33555e-08
7.5248e-08
2.53805e-07
1.65477e-07
4.11272e-08
2.88015e-08
2.40374e-08
1.94185e-08
2.12288e-08
2.6284e-08
2.44301e-07
3.36502e-06
3.87672e-06
1.49349e-06
1.98355e-07
1.38569e-08
9.27481e-09
8.14782e-09
4.50834e-09
4.05518e-09
1.0556e-08
7.53631e-08
1.10482e-07
7.0443e-08
2.17024e-08
8.06602e-09
3.21086e-09
1.70489e-09
1.17335e-09
9.27724e-10
7.32884e-10
6.29612e-10
8.35632e-10
1.69312e-09
2.10555e-09
1.69865e-09
1.19509e-09
7.40898e-10
6.39077e-10
4.31053e-10
2.83434e-10
1.96812e-10
1.45479e-10
4.95253e-09
5.25407e-09
3.19646e-09
2.67504e-09
2.63546e-09
2.70798e-09
1.78455e-09
1.83872e-09
3.43809e-09
2.22346e-09
1.63495e-09
1.77469e-09
1.34188e-09
1.01982e-09
1.1061e-09
1.75499e-09
3.37151e-09
3.77046e-09
7.72672e-09
5.67659e-09
2.19184e-09
9.20478e-10
7.31846e-10
4.78065e-10
3.32397e-10
2.19275e-10
1.99565e-10
4.89501e-10
1.83492e-09
1.65848e-09
9.40494e-10
5.54371e-10
2.32031e-10
1.0448e-10
5.88236e-11
4.02683e-11
3.09786e-11
2.50238e-11
2.26097e-11
3.04927e-11
6.11076e-11
6.63603e-11
5.17348e-11
3.41223e-11
2.21274e-11
1.48625e-11
9.50477e-12
6.262e-12
4.39718e-12
3.24419e-12
4.01999e-14
1.00167e-12
1.76652e-12
2.93612e-12
4.44624e-12
4.94132e-12
4.27974e-12
5.97897e-12
1.51634e-11
1.19581e-11
1.04522e-11
1.14969e-11
9.08916e-12
7.47765e-12
1.00897e-11
2.02704e-11
3.96928e-11
4.29746e-11
5.36677e-11
3.71402e-11
1.75386e-11
1.17724e-11
8.32149e-12
5.12655e-12
3.58642e-12
2.6511e-12
2.67565e-12
6.34291e-12
1.56703e-11
1.51167e-11
8.95781e-12
4.41244e-12
1.98399e-12
1.01405e-12
6.21747e-13
4.38887e-13
3.44062e-13
2.8608e-13
2.7167e-13
3.73851e-13
6.77388e-13
6.84669e-13
4.92914e-13
3.09051e-13
1.92106e-13
1.19866e-13
7.62797e-14
5.15599e-14
3.67461e-14
2.69387e-14
4.94996e-21
5.29742e-21
5.57955e-21
5.79429e-21
5.94284e-21
6.02902e-21
6.05851e-21
6.05707e-21
1.01579e-19
3.77715e-16
1.29575e-15
2.94558e-15
3.73798e-15
4.4113e-15
8.35568e-15
2.237e-14
5.2079e-14
6.24494e-14
7.42528e-14
5.3559e-14
3.16027e-14
2.67601e-14
1.88264e-14
1.19266e-14
9.18994e-15
7.64782e-15
8.68219e-15
2.1078e-14
4.21149e-14
3.83456e-14
2.2746e-14
1.11741e-14
5.53482e-15
3.17027e-15
2.08824e-15
1.53852e-15
1.25633e-15
1.08897e-15
1.09359e-15
1.53712e-15
2.52408e-15
2.36362e-15
1.59037e-15
9.65044e-16
5.86303e-16
3.64042e-16
2.38942e-16
1.66536e-16
1.20181e-16
8.80235e-17
4.91145e-21
4.94235e-21
4.89984e-21
4.79455e-21
4.63836e-21
4.44329e-21
4.22076e-21
3.98104e-21
3.73293e-21
3.4837e-21
3.25649e-21
1.3527e-20
1.15305e-19
3.48236e-19
1.22624e-18
5.0548e-18
1.56882e-17
2.36313e-17
3.18018e-17
2.64601e-17
1.9908e-17
1.99603e-17
1.50549e-17
1.04649e-17
9.10599e-18
8.67916e-18
1.14757e-17
2.81006e-17
4.97626e-17
4.41183e-17
2.66587e-17
1.38281e-17
7.58307e-18
4.76221e-18
3.32802e-18
2.5714e-18
2.20339e-18
2.01249e-18
2.15193e-18
3.04521e-18
4.49979e-18
3.9773e-18
2.58156e-18
1.55334e-18
9.4801e-19
6.05224e-19
4.13124e-19
2.95638e-19
2.16142e-19
1.60153e-19
3.92964e-21
3.78275e-21
3.58927e-21
3.36341e-21
3.11815e-21
2.86467e-21
2.61202e-21
2.36712e-21
2.13489e-21
1.91857e-21
1.71996e-21
1.54027e-21
1.39382e-21
1.32147e-21
1.5591e-21
3.36363e-21
9.4235e-21
1.54965e-20
2.19363e-20
2.00581e-20
1.78753e-20
1.94632e-20
1.54234e-20
1.15833e-20
1.1017e-20
1.16068e-20
1.7001e-20
3.99621e-20
6.41033e-20
5.55221e-20
3.41252e-20
1.88177e-20
1.12772e-20
7.61706e-21
5.60611e-21
4.54253e-21
4.06882e-21
3.89136e-21
4.31511e-21
5.88026e-21
7.74548e-21
6.55936e-21
4.27499e-21
2.70112e-21
1.80354e-21
1.31447e-21
1.04613e-21
8.89193e-22
7.99573e-22
7.63655e-22
3.12625e-21
2.95688e-21
2.75463e-21
2.53265e-21
2.30237e-21
2.07309e-21
1.85185e-21
1.64355e-21
1.45129e-21
1.27665e-21
1.12006e-21
9.81107e-22
8.58854e-22
7.52046e-22
6.59423e-22
5.80671e-22
5.17348e-22
4.64992e-22
4.21846e-22
3.77335e-22
3.39547e-22
3.10564e-22
2.77251e-22
2.48171e-22
2.27683e-22
2.12451e-22
2.09693e-22
2.40099e-22
2.66734e-22
2.39018e-22
1.93162e-22
1.59991e-22
1.40788e-22
1.28715e-22
1.20254e-22
1.14366e-22
1.10321e-22
1.07507e-22
1.06537e-22
1.0808e-22
1.09632e-22
1.06029e-22
1.01431e-22
9.90462e-23
9.87313e-23
1.00095e-22
1.03008e-22
1.0761e-22
1.14281e-22
1.23607e-22
2.70858e-21
2.58697e-21
2.42758e-21
2.24277e-21
2.04394e-21
1.84085e-21
1.64122e-21
1.45077e-21
1.27335e-21
1.11123e-21
9.65379e-22
8.35844e-22
7.21993e-22
6.22766e-22
5.36866e-22
4.62895e-22
3.99457e-22
3.45215e-22
2.9893e-22
2.59475e-22
2.25876e-22
1.97272e-22
1.72895e-22
1.52122e-22
1.34417e-22
1.19309e-22
1.06422e-22
9.5465e-23
8.60563e-23
7.78575e-23
7.07527e-23
6.46381e-23
5.93703e-23
5.4814e-23
5.08616e-23
4.74273e-23
4.44391e-23
4.18371e-23
3.95742e-23
3.76108e-23
3.59071e-23
3.44281e-23
3.31649e-23
3.2111e-23
3.12599e-23
3.06125e-23
3.01794e-23
2.99821e-23
3.00561e-23
3.04547e-23
2.38369e-21
2.37638e-21
2.31661e-21
2.21269e-21
2.07522e-21
1.91503e-21
1.74218e-21
1.56527e-21
1.39119e-21
1.22505e-21
1.0703e-21
9.28974e-22
8.01997e-22
6.89422e-22
5.90705e-22
5.04913e-22
4.30895e-22
3.67406e-22
3.13196e-22
2.67071e-22
2.27925e-22
1.94762e-22
1.66701e-22
1.4297e-22
1.22905e-22
1.05936e-22
9.15774e-23
7.94191e-23
6.91128e-23
6.0365e-23
5.29293e-23
4.65983e-23
4.11979e-23
3.6582e-23
3.26283e-23
2.92344e-23
2.63145e-23
2.37967e-23
2.1621e-23
1.97368e-23
1.81019e-23
1.66806e-23
1.54436e-23
1.43661e-23
1.34281e-23
1.26131e-23
1.19082e-23
1.13034e-23
1.07918e-23
1.03692e-23
2.77037e-17
2.19951e-18
1.66615e-19
1.44271e-20
3.0483e-21
2.09297e-21
1.9114e-21
1.77297e-21
1.62493e-21
1.46948e-21
1.31296e-21
1.1608e-21
1.017e-21
8.84125e-22
7.63597e-22
6.55912e-22
5.60896e-22
4.7792e-22
4.06072e-22
3.44292e-22
2.9147e-22
2.4651e-22
2.08381e-22
1.76134e-22
1.4892e-22
1.25986e-22
1.06681e-22
9.044e-23
7.67805e-23
6.52925e-23
5.56283e-23
4.74947e-23
4.06447e-23
3.4871e-23
2.99995e-23
2.58844e-23
2.24038e-23
1.94556e-23
1.69544e-23
1.48289e-23
1.30194e-23
1.14758e-23
1.01565e-23
9.02654e-24
8.05675e-24
7.22283e-24
6.50454e-24
5.88504e-24
5.35036e-24
4.88894e-24
2.16085e-10
3.31872e-11
2.99717e-12
1.63554e-13
8.48882e-15
5.95698e-16
5.16292e-17
4.84678e-18
4.6244e-19
4.53246e-20
5.88824e-21
1.96637e-21
1.37926e-21
1.15452e-21
9.96368e-22
8.63182e-22
7.45662e-22
6.41149e-22
5.48629e-22
4.67375e-22
3.96604e-22
3.35426e-22
2.82887e-22
2.38019e-22
1.99882e-22
1.67594e-22
1.40348e-22
1.17419e-22
9.81677e-23
8.20339e-23
6.85336e-23
5.72515e-23
4.78328e-23
3.99764e-23
3.34275e-23
2.79713e-23
2.34271e-23
1.96434e-23
1.64933e-23
1.38707e-23
1.16871e-23
9.86842e-24
8.35312e-24
7.08984e-24
6.03586e-24
5.15569e-24
4.41987e-24
3.80399e-24
3.28783e-24
2.85468e-24
8.85999e-09
2.12302e-09
5.87076e-10
1.21834e-10
1.3652e-11
8.54684e-13
9.70344e-14
1.41792e-14
2.23187e-15
3.39431e-16
4.54226e-17
5.8361e-18
1.05171e-18
3.66913e-19
1.78634e-19
9.14077e-20
4.59413e-20
2.25359e-20
1.0864e-20
5.21691e-21
2.55114e-21
1.31196e-21
7.35875e-22
4.60968e-22
3.21067e-22
2.41964e-22
1.91241e-22
1.54897e-22
1.26824e-22
1.04227e-22
8.56872e-23
7.03656e-23
5.76846e-23
4.72001e-23
3.85495e-23
3.14295e-23
2.55843e-23
2.07975e-23
1.6887e-23
1.36998e-23
1.11079e-23
9.00449e-24
7.30076e-24
5.9232e-24
4.81106e-24
3.91432e-24
3.19197e-24
2.61046e-24
2.14245e-24
1.76577e-24
1.05153e-08
8.28284e-09
5.9752e-09
3.17642e-09
1.05256e-09
1.66443e-10
1.42954e-11
3.12652e-12
6.77767e-13
1.32095e-13
2.98338e-14
6.71822e-15
1.37932e-15
2.40553e-16
3.67236e-17
6.93133e-18
2.71883e-18
1.59872e-18
9.8223e-19
5.90186e-19
3.44964e-19
1.96105e-19
1.08407e-19
5.82577e-20
3.0427e-20
1.54467e-20
7.63038e-21
3.67874e-21
1.74258e-21
8.21738e-22
3.94777e-22
1.99908e-22
1.10682e-22
6.83395e-23
4.65765e-23
3.40044e-23
2.58042e-23
1.99389e-23
1.55113e-23
1.20829e-23
9.40341e-24
7.30619e-24
5.66783e-24
4.39202e-24
3.40201e-24
2.63633e-24
2.04589e-24
1.59165e-24
1.2428e-24
9.75119e-25
2.1291e-06
2.4444e-07
1.0325e-07
3.30822e-07
2.72869e-07
1.33727e-07
1.62171e-07
1.52826e-07
9.65251e-08
2.88189e-08
2.853e-08
3.86889e-08
3.15044e-07
2.7142e-07
2.35478e-07
3.1081e-07
2.28063e-06
5.4816e-06
2.23048e-06
3.96745e-07
1.77061e-07
1.11408e-07
5.07862e-08
1.44737e-08
3.85441e-08
7.34384e-07
4.56188e-06
2.63753e-06
5.46643e-07
1.31175e-07
1.36595e-07
1.61715e-07
2.0407e-07
2.41776e-07
4.06578e-07
6.89663e-06
1.6595e-05
1.05792e-05
2.27789e-06
1.56681e-07
8.31074e-09
7.77122e-09
7.72102e-09
1.24707e-08
2.21151e-07
1.87121e-07
6.24278e-08
9.886e-09
9.0627e-09
9.28711e-09
1.00382e-08
1.17838e-08
2.38263e-08
1.5572e-07
3.52079e-06
1.12963e-05
1.12964e-05
1.12959e-05
5.45963e-06
4.59251e-07
4.7894e-07
5.40417e-06
1.09783e-05
1.07018e-05
7.81756e-06
2.04422e-06
2.43574e-07
1.84214e-07
7.70117e-07
3.61688e-06
7.2462e-06
3.8662e-06
3.39285e-06
3.61737e-06
2.81967e-05
4.39957e-05
4.44871e-05
2.67928e-05
4.63151e-06
1.48597e-07
6.81872e-09
5.31219e-08
1.71237e-07
1.27447e-07
4.10352e-08
5.27326e-09
2.77292e-08
6.44238e-07
5.68169e-07
1.8517e-07
1.75773e-08
1.60612e-09
1.73782e-09
1.58785e-09
1.44994e-09
1.34304e-09
1.25282e-09
1.1703e-09
1.08921e-09
1.00595e-09
9.19631e-10
8.31467e-10
7.43839e-10
6.59311e-10
5.79938e-10
5.06937e-10
4.407e-10
3.81019e-10
3.27371e-10
2.79169e-10
2.35917e-10
1.97262e-10
1.62975e-10
1.32897e-10
1.06877e-10
8.47267e-11
6.61953e-11
5.0969e-11
3.86842e-11
2.89495e-11
2.137e-11
1.55679e-11
1.1198e-11
7.95741e-12
5.58954e-12
3.88346e-12
2.67059e-12
1.81956e-12
1.23034e-12
8.28531e-13
5.60168e-13
3.87375e-13
2.84935e-13
2.37843e-13
2.39779e-13
2.92523e-13
4.06258e-13
6.00833e-13
9.08014e-13
1.37488e-12
2.06845e-12
3.08184e-12
4.54205e-12
6.61966e-12
9.54072e-12
1.36009e-11
1.91825e-11
2.67732e-11
3.69889e-11
5.05974e-11
6.8545e-11
9.19848e-11
1.22306e-10
1.61162e-10
2.10505e-10
2.72613e-10
3.50133e-10
4.46127e-10
5.64137e-10
7.08265e-10
8.8325e-10
1.09451e-09
1.34802e-09
1.64995e-09
2.0058e-09
2.41917e-09
2.89021e-09
3.41458e-09
3.98418e-09
4.59029e-09
5.22862e-09
5.89974e-09
6.65471e-09
7.54435e-09
2.0313e-08
2.66398e-08
2.63109e-08
1.04782e-08
9.68912e-09
9.64822e-09
1.55787e-08
1.00298e-07
1.24415e-07
1.23749e-07
6.33096e-08
1.36701e-08
1.23861e-08
1.23469e-08
6.09503e-08
2.75494e-07
2.94873e-07
2.08795e-07
5.55362e-08
2.58184e-08
2.5737e-08
4.72416e-08
3.68826e-07
5.57584e-07
5.57917e-07
5.20017e-07
2.02761e-07
5.3998e-08
5.332e-08
5.66589e-08
2.76474e-07
5.47775e-07
5.48312e-07
5.47652e-07
5.22107e-07
2.16611e-07
6.04254e-08
2.38889e-08
1.83832e-08
1.83731e-08
6.88919e-08
1.84222e-07
1.84518e-07
1.64218e-07
5.63954e-08
8.54774e-09
6.95066e-09
6.44815e-09
6.19066e-09
5.94859e-09
5.69084e-09
5.41026e-09
5.10345e-09
4.76748e-09
4.40418e-09
4.0207e-09
3.62541e-09
3.22721e-09
2.83487e-09
2.45649e-09
2.09905e-09
1.76818e-09
1.46793e-09
1.20076e-09
9.67597e-10
7.67984e-10
6.00317e-10
4.62111e-10
3.50293e-10
2.61473e-10
1.92192e-10
1.39111e-10
9.91558e-11
6.96e-11
4.81108e-11
3.27505e-11
2.19548e-11
1.44931e-11
9.42094e-12
6.02969e-12
3.7995e-12
2.35693e-12
1.43918e-12
8.64957e-13
5.1163e-13
2.97843e-13
1.70647e-13
9.62345e-14
5.34266e-14
2.92081e-14
1.57309e-14
8.35158e-15
4.3744e-15
2.26317e-15
1.15845e-15
5.88017e-16
2.96921e-16
1.49804e-16
7.59596e-17
3.89995e-17
2.0454e-17
1.10587e-17
6.21081e-18
3.63821e-18
2.22128e-18
1.40623e-18
9.15878e-19
6.08489e-19
4.09222e-19
2.7685e-19
1.87521e-19
1.26729e-19
8.52402e-20
5.69628e-20
3.77722e-20
2.48311e-20
1.61726e-20
1.04307e-20
6.65959e-21
4.20788e-21
2.63071e-21
1.62708e-21
9.95441e-22
6.02355e-22
3.60456e-22
2.13369e-22
1.86499e-07
1.03201e-07
1.03017e-07
1.04288e-07
1.35096e-07
1.32479e-07
1.32177e-07
1.69196e-07
2.97069e-07
1.76545e-07
4.92161e-08
2.34262e-08
2.34752e-08
2.754e-08
2.87795e-08
4.89401e-08
7.98363e-07
8.46024e-06
1.00443e-05
1.00171e-05
3.71439e-06
3.58931e-07
1.02461e-08
8.05261e-09
3.81761e-08
1.04838e-06
9.91395e-07
3.1976e-07
9.04801e-08
1.24161e-07
1.75909e-07
1.91944e-07
1.86715e-07
1.85914e-07
4.85192e-07
9.45628e-06
1.65961e-05
1.65948e-05
1.47933e-05
4.88385e-06
3.63825e-07
8.80689e-09
7.66416e-09
8.25209e-09
9.26164e-09
9.41861e-09
9.32014e-09
9.15743e-09
9.01562e-09
8.94588e-09
9.20126e-09
1.23508e-07
3.55882e-06
1.05969e-05
1.06048e-05
9.55624e-06
3.01006e-06
2.2373e-07
7.98818e-09
7.1415e-09
7.45114e-09
4.05412e-08
2.27634e-07
3.56052e-06
1.6774e-05
1.72776e-05
1.51938e-05
4.69668e-06
2.8211e-07
2.86681e-07
4.35471e-06
2.01631e-05
2.08603e-05
1.79254e-05
5.44505e-06
4.51431e-07
2.35605e-08
2.60715e-08
2.96225e-08
1.46357e-08
6.55135e-09
2.36743e-08
1.63146e-07
9.56739e-08
2.38282e-08
2.21554e-09
1.79036e-09
1.47674e-09
1.19033e-09
9.76389e-10
8.34232e-10
7.35853e-10
6.44287e-10
5.62567e-10
4.9063e-10
4.27134e-10
3.70467e-10
3.19222e-10
2.72439e-10
2.29636e-10
1.90709e-10
1.55761e-10
1.24945e-10
9.83493e-11
7.59244e-11
5.74716e-11
4.26574e-11
3.10528e-11
2.21787e-11
1.55498e-11
1.07087e-11
7.249e-12
4.8271e-12
3.16459e-12
2.04429e-12
1.3024e-12
8.19061e-13
5.08924e-13
3.1273e-13
1.90248e-13
1.14732e-13
6.87399e-14
4.11103e-14
2.48367e-14
1.56302e-14
1.09749e-14
9.53827e-15
1.0832e-14
1.50587e-14
2.31047e-14
3.66631e-14
5.84906e-14
9.28169e-14
1.45938e-13
2.27043e-13
3.4933e-13
5.31486e-13
7.99615e-13
1.1897e-12
1.75073e-12
2.54856e-12
3.67065e-12
5.23179e-12
7.38093e-12
1.03091e-11
1.42586e-11
1.95335e-11
2.65114e-11
3.56562e-11
4.75319e-11
6.28182e-11
8.2326e-11
1.07014e-10
1.38005e-10
1.76604e-10
2.24319e-10
2.82876e-10
3.54241e-10
4.40649e-10
5.44619e-10
6.68996e-10
8.16977e-10
9.92162e-10
1.19862e-09
1.44094e-09
1.72437e-09
2.05479e-09
2.43878e-09
2.88352e-09
3.39662e-09
3.98595e-09
4.65894e-09
5.40948e-09
6.17767e-09
6.82203e-09
7.2124e-09
7.26228e-09
7.02131e-09
1.25343e-08
1.38357e-08
1.18794e-08
1.0481e-08
1.12803e-08
7.4527e-08
7.07054e-08
2.74094e-08
1.2459e-08
1.23309e-08
1.23279e-08
1.23575e-08
5.45969e-08
1.42396e-07
1.42468e-07
1.21502e-07
3.22156e-08
2.62241e-08
7.53729e-08
3.49468e-07
1.88261e-07
3.98e-08
9.72101e-09
1.7564e-08
1.84653e-07
3.13274e-07
3.13738e-07
1.57963e-07
4.11679e-08
2.58889e-08
2.32931e-08
1.38922e-08
1.46265e-08
5.94335e-08
9.01312e-08
9.04653e-08
6.5942e-08
2.03879e-08
1.20544e-08
1.13695e-08
8.8543e-09
7.25327e-09
6.25415e-09
5.5648e-09
5.02708e-09
4.5594e-09
4.12191e-09
3.69653e-09
3.27566e-09
2.86684e-09
2.47937e-09
2.11828e-09
1.78747e-09
1.48941e-09
1.22523e-09
9.9482e-10
7.97048e-10
6.29987e-10
4.91116e-10
3.77526e-10
2.86113e-10
2.13737e-10
1.57361e-10
1.14162e-10
8.15987e-11
5.74514e-11
3.98372e-11
2.71991e-11
1.82806e-11
1.20916e-11
7.86887e-12
5.03666e-12
3.16987e-12
1.96098e-12
1.19207e-12
7.11866e-13
4.17492e-13
2.40409e-13
1.35904e-13
7.54124e-14
4.10747e-14
2.19613e-14
1.15287e-14
5.94401e-15
3.01144e-15
1.50029e-15
7.35728e-16
3.55636e-16
1.69779e-16
8.02669e-17
3.7724e-17
1.77185e-17
8.37641e-18
4.02221e-18
1.98254e-18
1.01353e-18
5.41556e-19
3.03178e-19
1.7719e-19
1.07226e-19
6.65064e-20
4.18691e-20
2.65386e-20
1.68328e-20
1.0637e-20
6.6765e-21
4.15374e-21
2.5579e-21
1.55768e-21
9.37475e-22
5.57383e-22
3.27307e-22
1.89802e-22
1.08681e-22
6.14479e-23
3.43046e-23
1.89102e-23
1.02931e-23
5.53243e-24
2.9364e-24
1.53896e-24
7.967e-25
1.34205e-07