/*--------------------------------*- C++ -*----------------------------------*\
| =========                 |                                                 |
| \\      /  F ield         | OpenFOAM: The Open Source CFD Toolbox           |
|  \\    /   O peration     | Version:  2.4.0                                 |
|   \\  /    A nd           | Web:      www.OpenFOAM.org                      |
|    \\/     M anipulation  |                                                 |
\*---------------------------------------------------------------------------*/
FoamFile
{
    version     2.0;
    format      ascii;
    class       volScalarField;
    location    "3.8";
    object      p_rgh;
}
// * * * * * * * * * * * * * * * * * * * * * * * * * * * * * * * * * * * * * //

dimensions      [1 -1 -2 0 0 0 0];

internalField   nonuniform List<scalar> 
8000
(
34.5892
34.6866
34.7954
34.8991
34.9988
35.096
35.1925
35.2881
35.3827
35.4767
35.5702
35.6631
35.7547
35.8431
35.9371
36.0671
36.2562
36.3077
35.4382
25.281
7.96962
6.21553
6.40737
6.5157
7.02248
8.71596
12.6042
16.3432
9.97707
6.11269
4.35835
3.99094
4.0003
4.24528
5.30093
8.37379
13.3408
14.4255
5.79792
1.61244
-0.351175
-1.00507
-1.22591
-1.34499
-1.45919
-1.59136
-1.74642
-1.9167
-2.10274
-2.31398
35.5681
35.6289
35.7042
35.788
35.8814
35.985
36.0998
36.2261
36.3641
36.5141
36.6772
36.8541
37.0442
37.2495
37.478
37.7431
38.0269
38.1753
37.8815
20.8849
9.62317
9.08826
9.0872
9.15134
9.58708
11.2059
13.7019
14.2221
5.11325
2.83294
1.86311
1.53426
1.40598
1.3437
1.37414
2.08945
4.48856
8.48537
-3.32304
-5.38187
-6.4654
-6.93587
-7.21945
-7.54115
-7.9598
-8.47133
-9.05996
-9.72251
-10.4496
-11.232
35.8452
35.8843
35.9344
35.9826
36.027
36.0683
36.107
36.1436
36.1783
36.2104
36.2406
36.2685
36.2933
36.3211
36.3681
36.4386
36.4006
35.8387
29.0784
9.45049
6.15814
6.05281
6.03191
6.0284
6.27396
7.31776
10.8267
11.8723
5.55256
4.63453
4.35455
4.15368
6.39535
3.73375
3.17304
2.72215
10.9908
-3.06877
-2.69966
-2.65707
-2.76823
-2.92171
-3.13496
-3.42654
-3.78589
-4.20228
-4.67418
-5.20605
-5.79958
-6.45093
29.8729
30.0156
30.1395
30.2203
30.2626
30.2711
30.2468
30.1892
30.0984
29.9734
29.8135
29.6172
29.3816
29.1165
28.8517
28.6006
28.1307
26.6052
10.6373
-6.32711
-8.04808
-8.07442
-8.06324
-8.12554
-8.1771
-7.9999
-7.53207
-7.46991
-7.27569
-6.35326
5.35033
3.56162
14.653
11.4711
10.8386
10.6596
9.56707
9.03268
8.93467
9.0407
9.09757
9.13218
9.07166
8.91855
8.73391
8.52627
8.29562
8.04248
7.76769
7.47018
39.7896
39.7073
39.6187
39.5333
39.4487
39.3626
39.2744
39.1839
39.0908
38.9955
38.8937
38.79
38.6889
38.6061
38.5245
38.2665
37.4511
35.5735
14.7847
6.33027
5.88332
5.83016
5.75104
5.68161
5.66934
10.291
9.83792
9.41093
9.62144
10.2931
10.1066
9.94293
10.4872
9.60047
9.97364
20.7555
16.8677
12.9393
13.667
14.0023
14.0366
13.994
13.9445
13.904
13.8706
13.8429
13.8208
13.8037
13.7897
13.7793
45.4741
45.2959
45.1125
44.9548
44.8198
44.7028
44.602
44.5175
44.4487
44.3949
44.3573
44.3466
44.3824
44.4383
44.2563
43.3222
42.0946
25.4627
14.1457
13.4319
13.4073
13.1363
12.6393
11.616
13.023
13.5186
14.3739
15.1252
15.4349
15.5303
15.5345
15.4215
15.245
15.616
15.2485
15.4054
15.4516
15.4301
15.5862
15.3968
15.4419
15.4753
15.5169
15.5733
15.6413
15.717
15.7976
15.8808
15.9656
16.052
44.2517
44.2498
44.2371
44.2159
44.188
44.1539
44.1135
44.0666
44.0123
43.9506
43.8917
43.8524
43.8122
43.5544
42.6216
38.173
14.6335
12.6613
12.8359
12.8669
12.7933
12.7211
19.3955
19.3097
16.3302
16.5096
16.5728
16.5938
16.6417
16.6772
16.6925
16.7032
16.7153
16.7296
16.7484
16.7757
16.8097
16.8449
16.8851
16.9657
17.0276
17.0617
17.1177
17.1763
17.2357
17.2951
17.3548
17.4148
17.4757
17.5383
48.8998
48.8842
48.8655
48.8442
48.8201
48.7931
48.763
48.7295
48.6918
48.6583
48.651
48.6684
48.5111
47.6032
46.0391
24.6178
14.6411
14.4875
14.4814
14.4574
14.3994
14.3622
18.1298
17.3485
16.8112
16.9068
16.9395
16.9522
16.9621
16.9748
16.9897
17.0054
17.0238
17.0485
17.0794
17.1143
17.1526
17.1937
17.237
17.2819
17.3283
17.376
17.4244
17.4735
17.523
17.5728
17.6232
17.6742
17.7257
17.7779
53.0215
52.9536
52.8842
52.8258
52.7781
52.7389
52.7081
52.6833
52.666
52.6618
52.6896
52.7529
52.7022
52.0591
50.75
34.5652
17.7359
16.9045
17.5083
17.4256
18.6678
17.0527
17.1444
17.167
17.1083
17.1214
17.1395
17.1518
17.1647
17.1793
17.1949
17.2111
17.2282
17.2468
17.2669
17.2886
17.3115
17.3356
17.3607
17.3865
17.413
17.4402
17.4681
17.4967
17.5259
17.5557
17.5862
17.6173
17.6489
17.6812
54.9487
54.9061
54.8608
54.8211
54.7869
54.7565
54.7302
54.706
54.6843
54.6741
54.7034
54.7736
54.6529
53.6265
51.6821
28.1505
17.4462
17.3406
17.3867
17.468
17.3436
17.2061
17.1714
17.1846
17.1817
17.1795
17.184
17.1924
17.2027
17.2137
17.2249
17.2363
17.248
17.26
17.2724
17.2854
17.2989
17.313
17.3275
17.3425
17.3579
17.3738
17.39
17.4066
17.4236
17.4408
17.4584
17.4762
17.4942
17.5125
56.2501
56.2396
56.2264
56.2128
56.1993
56.1849
56.171
56.1559
56.14
56.1263
56.1252
56.1409
56.0963
55.7221
54.9317
29.7127
17.5074
17.4323
17.4503
17.4429
17.2811
17.1967
17.1749
17.1734
17.1757
17.1787
17.1827
17.1871
17.1917
17.1965
17.2013
17.2064
17.2116
17.2171
17.2229
17.2289
17.2353
17.2419
17.2487
17.2558
17.263
17.2704
17.278
17.2856
17.2935
17.3014
17.3094
17.3174
17.3255
17.3337
58.3984
58.3735
58.3473
58.3246
58.3053
58.2876
58.2734
58.2611
58.2499
58.2402
58.2415
58.2808
58.3521
58.2046
57.1474
54.2221
22.9949
17.4875
17.358
17.2399
17.1781
17.1383
17.1188
17.1172
17.1182
17.1202
17.1221
17.1238
17.1256
17.1274
17.1293
17.1312
17.1332
17.1352
17.1374
17.1395
17.1417
17.1439
17.1461
17.1482
17.1504
17.1525
17.1546
17.1567
17.1587
17.1606
17.1624
17.1642
17.1658
17.1673
59.9698
59.925
59.8791
59.8408
59.8103
59.7845
59.7655
59.7519
59.7438
59.7406
59.7436
59.7585
59.8039
59.8577
59.7215
58.9983
51.2682
19.8714
17.2408
17.16
17.1148
17.0719
17.047
17.0426
17.0419
17.0421
17.0426
17.0431
17.0435
17.0438
17.044
17.0442
17.0442
17.0442
17.0441
17.044
17.0437
17.0433
17.0428
17.0421
17.0414
17.0404
17.0393
17.0381
17.0366
17.035
17.0332
17.0312
17.029
17.0266
60.3898
60.3594
60.3284
60.3026
60.2819
60.2639
60.2506
60.2404
60.2337
60.2299
60.2288
60.2353
60.2649
60.3212
60.279
59.7458
58.6706
33.7418
17.4603
17.0458
17.006
16.9951
16.9915
16.9742
16.9678
16.967
16.9668
16.9665
16.9661
16.9655
16.9647
16.9638
16.9626
16.9612
16.9597
16.9579
16.956
16.9539
16.9516
16.9491
16.9464
16.9435
16.9403
16.9369
16.9333
16.9294
16.9253
16.9209
16.9162
16.9113
59.6927
59.7193
59.7453
59.7645
59.777
59.7825
59.7833
59.7784
59.7676
59.751
59.7282
59.6994
59.666
59.6322
59.5937
59.5106
59.2838
58.9952
29.344
17.0204
17.3037
17.3429
17.4238
16.9312
16.8973
16.8944
16.8955
16.8954
16.8946
16.8935
16.8923
16.8908
16.8892
16.8874
16.8854
16.8832
16.8807
16.8779
16.8749
16.8716
16.868
16.8641
16.8599
16.8554
16.8507
16.8456
16.8402
16.8345
16.8285
16.8222
59.6744
59.766
59.8558
59.9254
59.9742
60.0054
60.0204
60.0188
60.0004
59.9651
59.9129
59.8429
59.7543
59.6482
59.5336
59.4223
59.2739
58.8577
57.8657
42.8602
18.8502
18.757
17.711
17.0744
16.9143
16.8622
16.8363
16.8376
16.8399
16.8416
16.8425
16.8415
16.8398
16.838
16.8358
16.8333
16.8304
16.827
16.8231
16.8187
16.814
16.8091
16.804
16.7986
16.7929
16.787
16.7807
16.7741
16.7673
16.7601
63.296
63.3233
63.3494
63.3727
63.3926
63.4111
63.4281
63.4436
63.4575
63.4699
63.4808
63.4905
63.4986
63.5044
63.508
63.5136
63.5362
63.5904
63.5886
63.1494
61.7799
49.2434
20.7899
18.2595
18.2588
17.378
16.854
16.7484
16.7288
16.7307
16.7582
16.7729
16.7744
16.7826
16.8057
16.8231
16.8162
16.8098
16.8072
16.8038
16.7991
16.793
16.7861
16.7789
16.7715
16.7639
16.7562
16.7484
16.7404
16.7322
70.2055
70.1945
70.1972
70.2111
70.2321
70.2605
70.2962
70.3394
70.3901
70.4487
70.5153
70.5901
70.6736
70.7654
70.8665
70.9761
71.0958
71.2268
71.378
71.5404
71.6327
71.1851
69.6792
62.8943
39.6179
20.0172
17.1188
15.9089
16.6947
16.779
17.7292
16.6366
16.666
16.7993
16.9439
16.9746
17.0489
17.0179
16.8575
16.7561
16.7301
16.7251
16.724
16.7217
16.7181
16.7143
16.7102
16.7058
16.7011
16.696
67.6867
67.7238
67.7515
67.7724
67.7904
67.8075
67.8233
67.8379
67.851
67.8627
67.8732
67.8822
67.8899
67.8962
67.9007
67.9033
67.9033
67.9041
67.903
67.9019
67.901
67.8873
67.8223
67.6261
66.9348
65.2587
45.7627
18.6374
14.785
30.5254
19.9914
20.8594
20.9907
23.717
27.6137
48.5688
28.513
22.9191
19.5021
17.7061
16.9646
16.7141
16.6462
16.6345
16.6357
16.6382
16.6406
16.6428
16.6448
16.6463
76.6364
76.5261
76.427
76.3546
76.3045
76.2737
76.261
76.2664
76.29
76.3318
76.3916
76.4694
76.5654
76.6795
76.812
76.9629
77.1324
77.3211
77.5283
77.755
78.0017
78.2704
78.5631
78.8775
79.1995
79.5314
79.5418
78.5888
59.7105
28.0894
42.8126
43.3258
27.7245
34.3871
36.2406
36.0281
33.4392
24.2915
18.9558
17.2626
16.7537
16.6042
16.5794
16.5834
16.59
16.5976
16.6062
16.6153
16.6241
16.6325
-2.55825
-2.83966
-3.14982
-3.48719
-3.8517
-4.24344
-4.71217
-5.24845
-5.83982
-6.47498
-7.13546
-7.80531
-8.47485
-9.14486
-9.81547
-10.4728
-11.1068
-11.7061
-12.2498
-12.7254
-13.1291
-13.4552
-13.7007
-13.8639
-13.9422
-13.9357
-13.8484
-13.6885
-13.4647
-13.1865
-12.864
-12.5075
-12.1273
-11.733
-11.3337
-10.9376
-10.5516
-10.1816
-9.83218
-9.50698
-9.20913
-8.94069
-8.70279
-8.49564
-8.31872
-8.1719
-8.05446
-7.96345
-7.89676
-7.85475
-12.0585
-12.9175
-13.797
-14.6878
-15.5857
-16.4864
-17.3806
-18.2521
-19.084
-19.8665
-20.5967
-21.2744
-21.9056
-22.4969
-23.0419
-23.5112
-23.8964
-24.1856
-24.3671
-24.4288
-24.3622
-24.1592
-23.8126
-23.3203
-22.6842
-21.9101
-21.0074
-19.9878
-18.8657
-17.6625
-16.3951
-15.0794
-13.734
-12.3776
-11.0275
-9.69996
-8.40922
-7.16462
-5.97626
-4.85219
-3.79858
-2.81882
-1.91551
-1.09101
-0.34505
0.323827
0.917862
1.44075
1.89593
2.28616
-7.1511
-7.89717
-8.6718
-9.48572
-10.3051
-11.1414
-11.9731
-12.7917
-13.5827
-14.3348
-15.0407
-15.6935
-16.2751
-16.7796
-17.2065
-17.5346
-17.7576
-17.8664
-17.8518
-17.7068
-17.4245
-17.0007
-16.4337
-15.7254
-14.8807
-13.9075
-12.8147
-11.6153
-10.327
-8.9645
-7.54432
-6.08356
-4.59932
-3.10873
-1.62798
-0.171104
1.24739
2.61334
3.91672
5.15105
6.31179
7.39497
8.39615
9.31219
10.1432
10.8891
11.5518
12.1337
12.6378
13.067
7.15366
6.82491
6.48542
6.13781
5.77701
5.41912
5.07424
4.74185
4.42576
4.13557
3.88943
3.68968
3.52044
3.3958
3.31993
3.29991
3.34111
3.44647
3.61851
3.86012
4.17402
4.56153
5.01643
5.53827
6.12559
6.77297
7.47565
8.22703
9.01769
9.83786
10.6807
11.5395
12.4042
13.2666
14.1152
14.9426
15.7428
16.5104
17.2397
17.926
18.5656
19.1545
19.6909
20.1741
20.6021
20.966
21.2681
21.5146
21.712
21.8616
13.7717
13.7671
13.7699
13.7812
13.8164
13.8711
13.9417
14.0284
14.1311
14.2527
14.3965
14.5647
14.7565
14.9738
15.2088
15.4702
15.754
16.0564
16.386
16.7354
17.104
17.4917
17.8928
18.3027
18.719
19.1431
19.574
20.0062
20.4358
20.8582
21.2718
21.6734
22.0604
22.4296
22.778
23.1021
23.4021
23.6768
23.9246
24.145
24.3393
24.5059
24.6395
24.7404
24.8115
24.8523
24.8608
24.8406
24.7989
24.7344
16.1403
16.2313
16.3261
16.4261
16.5328
16.6474
16.771
16.905
17.0494
17.205
17.3724
17.5527
17.7443
17.9474
18.1614
18.384
18.6193
18.8658
19.1191
19.3732
19.6257
19.8795
20.1359
20.3941
20.6508
20.9046
21.1545
21.3989
21.6345
21.8585
22.072
22.2747
22.4668
22.6468
22.813
22.965
23.1023
23.2246
23.3318
23.4241
23.5018
23.5662
23.6213
23.6533
23.6692
23.6725
23.6637
23.6419
23.6072
23.5599
17.6027
17.6669
17.7345
17.8051
17.879
17.9565
18.0378
18.1238
18.2134
18.308
18.4056
18.5078
18.6142
18.7246
18.8388
18.9563
19.0767
19.2006
19.3307
19.4713
19.5815
19.7054
19.8328
19.9613
20.0883
20.2133
20.3361
20.4561
20.5731
20.6872
20.7933
20.8962
20.9942
21.0867
21.1731
21.253
21.3261
21.3921
21.4507
21.5017
21.5449
21.5801
21.6074
21.6262
21.6366
21.6387
21.6325
21.618
21.5952
21.5644
17.8306
17.884
17.938
17.9927
18.0482
18.1045
18.1617
18.2198
18.2788
18.3389
18.3998
18.4616
18.5244
18.5881
18.6524
18.7175
18.783
18.849
18.9161
18.9824
19.0472
19.1125
19.1776
19.2421
19.3054
19.3674
19.428
19.4868
19.5436
19.5981
19.6502
19.6997
19.7463
19.7898
19.83
19.8668
19.8999
19.9293
19.9548
19.9762
19.9934
20.0065
20.0151
20.0194
20.0192
20.0145
20.0053
19.9915
19.9731
19.9502
17.7139
17.7473
17.7812
17.8157
17.8506
17.886
17.9218
17.958
17.9945
18.0313
18.0683
18.1055
18.1427
18.18
18.2172
18.2543
18.2912
18.3278
18.364
18.3998
18.4349
18.4693
18.503
18.5357
18.5674
18.598
18.6274
18.6555
18.6821
18.7072
18.7306
18.7523
18.7721
18.7899
18.8057
18.8193
18.8307
18.8398
18.8464
18.8506
18.8523
18.8513
18.8477
18.8414
18.8324
18.8205
18.8058
18.7883
18.7679
18.7447
17.5311
17.5497
17.5685
17.5874
17.6064
17.6254
17.6445
17.6635
17.6826
17.7016
17.7206
17.7394
17.7579
17.7763
17.7943
17.812
17.8293
17.8462
17.8625
17.8784
17.8936
17.9082
17.9221
17.9353
17.9476
17.9591
17.9696
17.9791
17.9876
17.995
18.0013
18.0063
18.0101
18.0125
18.0136
18.0132
18.0114
18.0081
18.0032
17.9967
17.9886
17.9788
17.9673
17.954
17.939
17.9221
17.9035
17.883
17.8606
17.8364
17.3418
17.3499
17.3579
17.3659
17.3739
17.3817
17.3893
17.3968
17.4041
17.4111
17.4179
17.4245
17.4308
17.4368
17.4425
17.4478
17.4528
17.4572
17.4613
17.4648
17.4678
17.4703
17.4722
17.4734
17.474
17.4739
17.4731
17.4715
17.4691
17.4659
17.4619
17.457
17.4511
17.4444
17.4366
17.4279
17.4181
17.4073
17.3954
17.3824
17.3682
17.3529
17.3364
17.3188
17.2999
17.2798
17.2584
17.2358
17.2119
17.1867
17.1687
17.17
17.1712
17.1721
17.1729
17.1734
17.1737
17.1738
17.1736
17.1732
17.1724
17.1713
17.1699
17.1681
17.166
17.1635
17.1607
17.1574
17.1537
17.1496
17.145
17.1399
17.1343
17.1282
17.1216
17.1144
17.1066
17.0982
17.0892
17.0795
17.0692
17.0583
17.0466
17.0343
17.0212
17.0073
16.9927
16.9773
16.9611
16.9441
16.9263
16.9077
16.8882
16.8678
16.8466
16.8245
16.8015
16.7776
16.7527
16.727
17.0239
17.021
17.0178
17.0144
17.0107
17.0068
17.0027
16.9982
16.9935
16.9884
16.983
16.9774
16.9713
16.965
16.9582
16.9511
16.9437
16.9358
16.9276
16.9189
16.9098
16.9003
16.8903
16.8799
16.869
16.8576
16.8457
16.8333
16.8204
16.807
16.7931
16.7786
16.7636
16.7479
16.7318
16.715
16.6976
16.6796
16.6611
16.6418
16.622
16.6015
16.5804
16.5586
16.5362
16.5131
16.4894
16.4649
16.4398
16.414
16.9061
16.9007
16.8949
16.8889
16.8826
16.876
16.869
16.8618
16.8542
16.8464
16.8382
16.8296
16.8207
16.8115
16.802
16.792
16.7817
16.7711
16.7601
16.7486
16.7368
16.7246
16.7121
16.6991
16.6857
16.6718
16.6576
16.6429
16.6278
16.6122
16.5963
16.5798
16.5629
16.5455
16.5277
16.5094
16.4906
16.4713
16.4516
16.4313
16.4106
16.3894
16.3676
16.3454
16.3226
16.2993
16.2755
16.2512
16.2264
16.201
16.8156
16.8087
16.8014
16.7939
16.786
16.7778
16.7693
16.7605
16.7513
16.7418
16.732
16.7218
16.7113
16.7005
16.6893
16.6778
16.666
16.6538
16.6412
16.6283
16.6151
16.6015
16.5875
16.5732
16.5585
16.5434
16.528
16.5122
16.496
16.4795
16.4625
16.4452
16.4275
16.4095
16.391
16.3721
16.3529
16.3332
16.3132
16.2928
16.2719
16.2507
16.229
16.207
16.1845
16.1616
16.1383
16.1146
16.0905
16.066
16.7526
16.7448
16.7367
16.7283
16.7196
16.7106
16.7012
16.6916
16.6816
16.6713
16.6607
16.6498
16.6385
16.627
16.6151
16.6029
16.5904
16.5776
16.5644
16.551
16.5372
16.5231
16.5087
16.494
16.4789
16.4636
16.4479
16.4319
16.4155
16.3989
16.3819
16.3646
16.347
16.329
16.3107
16.2921
16.2731
16.2538
16.2342
16.2142
16.1939
16.1733
16.1523
16.131
16.1093
16.0873
16.0649
16.0422
16.0192
15.9958
16.7238
16.7152
16.7064
16.6974
16.6881
16.6786
16.6688
16.6588
16.6485
16.638
16.6272
16.6161
16.6048
16.5932
16.5813
16.5692
16.5568
16.5441
16.5311
16.5179
16.5044
16.4906
16.4765
16.4622
16.4475
16.4326
16.4174
16.4019
16.3861
16.3701
16.3537
16.3371
16.3201
16.3029
16.2854
16.2675
16.2494
16.231
16.2123
16.1932
16.1739
16.1542
16.1343
16.114
16.0934
16.0725
16.0513
16.0298
16.0079
15.9857
16.6906
16.6848
16.6785
16.672
16.6651
16.6578
16.6502
16.6423
16.634
16.6255
16.6166
16.6074
16.5978
16.588
16.5778
16.5674
16.5566
16.5456
16.5342
16.5225
16.5106
16.4983
16.4857
16.4729
16.4597
16.4462
16.4325
16.4184
16.404
16.3894
16.3744
16.3591
16.3436
16.3277
16.3115
16.295
16.2782
16.2611
16.2437
16.2259
16.2079
16.1895
16.1708
16.1518
16.1325
16.1128
16.0928
16.0725
16.0519
16.0309
16.6472
16.6476
16.6473
16.6465
16.6452
16.6432
16.6408
16.6378
16.6343
16.6303
16.6257
16.6208
16.6153
16.6094
16.603
16.5962
16.5889
16.5812
16.573
16.5645
16.5555
16.5461
16.5363
16.5261
16.5155
16.5045
16.4931
16.4814
16.4692
16.4567
16.4438
16.4305
16.4169
16.4028
16.3885
16.3737
16.3586
16.3431
16.3272
16.311
16.2944
16.2774
16.2601
16.2424
16.2244
16.206
16.1872
16.1681
16.1486
16.1287
16.6404
16.6475
16.6539
16.6596
16.6646
16.6688
16.6722
16.675
16.677
16.6784
16.679
16.679
16.6784
16.677
16.6751
16.6725
16.6693
16.6655
16.6611
16.6562
16.6506
16.6445
16.6379
16.6307
16.623
16.6148
16.6061
16.5968
16.5871
16.5768
16.5661
16.5549
16.5433
16.5311
16.5185
16.5055
16.492
16.4781
16.4637
16.4489
16.4336
16.4179
16.4018
16.3853
16.3683
16.351
16.3332
16.315
16.2964
16.2774
-7.8399
-7.84084
-7.85099
-7.86595
-7.88495
-7.90876
-7.93759
-7.9711
-8.0089
-8.05073
-8.09641
-8.14572
-8.19826
-8.254
-8.31269
-8.37437
-8.43871
-8.50241
-8.57345
-8.64337
-8.71478
-8.78727
-8.86073
-8.935
-9.00992
-9.08529
-9.15758
-9.23417
-9.30873
-9.3828
-9.4561
-9.52827
-9.59901
-9.66811
-9.73556
-9.80138
-9.85776
-9.92369
-9.98216
-10.0375
-10.0895
-10.1381
-10.1829
-10.2239
-10.2606
-10.2931
-10.3209
-10.3439
-10.3617
-10.3742
-10.381
-10.3819
-10.3767
-10.3653
-10.3479
-10.3238
-10.2932
-10.2551
-10.209
-10.1532
-10.0895
-10.0184
-9.93533
-9.8429
-9.74271
-9.63073
-9.50814
-9.37514
-9.23221
-9.07899
-8.91405
-8.74433
-8.56332
-8.37524
-8.1798
-7.97173
-7.763
-7.55136
-7.33034
-7.10618
-6.87979
-6.65148
-6.42208
-6.19295
-5.9649
-5.73879
-5.51553
-5.2956
-5.07978
-4.86842
-4.66185
-4.46055
-4.26471
-4.07447
-3.88998
-3.71131
-3.53849
-3.37154
-3.21044
-3.05515
-2.90563
-2.76179
-2.62354
-2.49076
-2.36333
-2.24112
-2.12396
-2.01171
-1.9042
-1.80129
-1.70283
-1.60868
-1.5187
-1.43279
-1.35083
-1.2727
-1.1983
-1.12752
-1.06025
-0.996389
-0.935825
-0.878452
-0.82416
-0.772846
-0.724404
-0.67873
-0.635725
-0.595286
-0.557317
-0.521722
-0.488404
-0.457271
-0.428233
-0.401199
-0.376083
-0.352797
-0.331259
-0.311386
-0.293097
-0.276313
-0.260957
-0.246954
-0.234229
-0.222711
-0.212328
-0.20301
-0.194691
-0.187302
-0.18078
-0.175061
-0.170082
-0.165783
-0.162103
-0.158985
-0.15637
-0.154205
-0.152433
-0.151002
-0.14986
-0.148957
-0.148245
-0.147676
-0.147208
-0.146796
-0.146401
-0.145984
-0.145512
-0.14495
-0.144269
-0.143438
-0.142432
-0.141226
-0.139793
-0.138108
-0.136145
-0.133872
-0.131259
-0.128264
-0.124837
-0.120922
-0.116447
-0.111326
-0.105448
-0.0987098
-0.0909702
-0.0821348
-0.0720267
-0.0604926
-0.0473209
-0.0323095
-0.0152603
0.00397671
0.0256667
0.0499775
0.0770566
0.107043
0.140054
0.176138
0.21528
0.257439
0.302548
0.350473
0.400984
0.453799
0.508589
0.564984
0.622534
0.680794
0.739288
0.797525
0.855029
0.911306
0.965872
1.01828
1.06814
1.11511
1.15886
1.19914
1.23576
1.26857
1.29747
1.32242
1.34342
1.36052
1.37382
1.38341
1.38944
1.39227
1.39222
1.38933
1.38366
1.37546
1.36496
1.35231
1.3377
1.32129
1.30322
1.28362
1.26261
1.24029
1.21672
1.19197
1.16609
1.13908
1.11097
1.08172
1.05132
1.01971
0.986848
0.952667
0.91711
0.880119
0.841649
0.801665
0.760147
0.717092
0.672512
0.62644
0.578919
0.530014
0.479797
0.428358
0.375794
0.322209
0.267714
0.212418
0.156432
0.0998636
0.0428143
-0.0146185
-0.0723437
-0.130277
-0.18834
-0.246461
-0.304575
-0.362623
-0.420553
-0.478317
-0.535873
-0.593183
-0.650217
-0.706946
-0.763348
-0.819404
-0.875101
-0.930428
-0.985378
-1.03995
-1.09413
-1.14794
-1.20136
-1.25442
-1.3071
-1.35942
-1.41139
-1.46303
-1.51431
-1.56542
-1.6158
-1.66827
2.53802
2.69283
2.82762
2.94712
3.05243
3.14328
3.21993
3.28311
3.33359
3.37168
3.39773
3.412
3.415
3.40723
3.38905
3.36096
3.32389
3.27864
3.22612
3.16413
3.0947
3.01879
2.93675
2.84876
2.7552
2.6568
2.55364
2.4459
2.33485
2.22049
2.10314
1.98324
1.86136
1.73798
1.61361
1.4893
1.36506
1.24014
1.11358
0.988708
0.865609
0.744617
0.625639
0.508986
0.395108
0.284383
0.177169
0.0738382
-0.0252797
-0.119873
-0.209574
-0.293911
-0.372303
-0.444477
-0.509952
-0.568477
-0.618591
-0.660772
-0.69489
-0.721178
-0.739553
-0.749962
-0.752527
-0.747397
-0.734786
-0.715719
-0.69168
-0.659682
-0.620924
-0.576903
-0.530804
-0.477883
-0.419887
-0.358784
-0.291414
-0.221086
-0.149828
-0.0775249
-0.00431045
0.0693725
0.143124
0.216388
0.28877
0.359693
0.428974
0.496271
0.561383
0.624177
0.684561
0.742483
0.797928
0.850899
0.901426
0.949546
0.995302
1.03874
1.07989
1.11881
1.15551
1.19003
1.22241
1.25266
1.28083
1.30695
1.33105
1.35319
1.37341
1.39177
1.40831
1.42309
1.43616
1.44758
1.45737
1.4656
1.47231
1.47754
1.48134
1.48375
1.48484
1.48463
1.48319
1.48057
1.4768
1.47195
1.46606
1.45918
1.45136
1.44265
1.43309
1.42273
1.41161
1.39979
1.38731
1.3742
1.36053
1.34632
1.33163
1.31649
1.30094
1.28503
1.2688
1.25229
1.23554
1.21858
1.20145
1.18421
1.16687
1.14948
1.13208
1.1147
1.09738
1.08016
1.06307
1.04615
1.02944
1.01296
0.996755
0.980857
0.965298
0.950112
0.93533
0.920982
0.907098
0.893705
0.880831
0.868501
0.856737
0.845563
0.834999
0.825064
0.815777
0.807156
0.79922
0.791988
0.78548
0.779721
0.774736
0.770559
0.767225
0.76478
0.763274
0.76277
0.763339
0.765073
0.768057
0.772394
0.778235
0.785693
0.79482
0.805844
0.8189
0.834182
0.851826
0.871968
0.894758
0.92031
0.948707
0.980128
1.01434
1.05154
1.09163
1.13449
1.17996
1.22788
1.2779
1.32973
1.38307
1.4375
1.4926
1.54791
1.60297
1.65729
1.71043
1.7619
1.81128
1.85816
1.90217
1.94297
1.98026
2.01381
2.04342
2.06894
2.09029
2.10742
2.12031
2.129
2.13353
2.134
2.13064
2.12371
2.11332
2.09962
2.08278
2.06295
2.04031
2.01501
1.9872
1.95703
1.92464
1.89013
1.85362
1.81519
1.77492
1.73286
1.68905
1.64352
1.59629
1.54738
1.49679
1.44455
1.39069
1.33526
1.27832
1.21992
1.16016
1.09912
1.03689
0.973575
0.909272
0.84409
0.778139
0.711531
0.644377
0.576785
0.50886
0.440699
0.372393
0.304028
0.235679
0.167419
0.0993123
0.031418
-0.0362093
-0.103521
-0.170472
-0.237023
-0.30314
-0.368793
-0.433955
-0.498606
-0.562729
-0.626314
-0.689354
-0.751847
-0.813796
-0.875206
-0.936085
-0.996446
-1.0563
-1.11567
-1.17457
-1.23302
-1.29104
-1.34868
-1.40596
-1.46293
-1.51959
-1.5762
-1.63222
-1.69057
13.343
13.5149
13.6662
13.8003
13.9194
14.0205
14.1014
14.1628
14.2073
14.2376
14.2551
14.2585
14.2474
14.2232
14.187
14.1381
14.0759
14.0015
13.9167
13.8227
13.7195
13.6071
13.486
13.3569
13.2203
13.0768
12.9268
12.7711
12.6102
12.4455
12.2776
12.1054
11.9289
11.7499
11.5687
11.3855
11.2012
11.0173
10.8338
10.6504
10.4673
10.2854
10.105
9.92666
9.75067
9.57751
9.40756
9.24132
9.07935
8.92194
8.76913
8.62149
8.4793
8.34232
8.21056
8.08379
7.96175
7.84445
7.73197
7.62423
7.52098
7.42166
7.32617
7.23533
7.1472
7.06473
6.98508
6.90749
6.83213
6.75901
6.68796
6.61886
6.55144
6.48537
6.42032
6.35612
6.29273
6.23003
6.16789
6.10622
6.04497
5.98407
5.92348
5.86316
5.8031
5.74328
5.68371
5.62439
5.56533
5.50655
5.44808
5.38992
5.33209
5.27462
5.2175
5.16075
5.10436
5.04831
4.99259
4.93717
4.88202
4.82712
4.77242
4.71791
4.66355
4.60933
4.55524
4.50127
4.44743
4.3937
4.34011
4.28667
4.23338
4.18025
4.1273
4.07453
4.02196
3.96959
3.91744
3.8655
3.81381
3.76235
3.71116
3.66024
3.6096
3.55927
3.50924
3.45954
3.41018
3.36118
3.31255
3.2643
3.21646
3.16902
3.12202
3.07546
3.02937
2.98374
2.93861
2.89399
2.84989
2.80633
2.76332
2.72089
2.67904
2.6378
2.59719
2.55722
2.51791
2.47928
2.44134
2.40412
2.36764
2.33191
2.29696
2.2628
2.22946
2.19695
2.16529
2.13451
2.10462
2.07564
2.04759
2.02049
1.99435
1.96919
1.94502
1.92186
1.89973
1.87863
1.85857
1.83958
1.82167
1.80485
1.78913
1.77454
1.7611
1.74883
1.73775
1.72791
1.71934
1.71209
1.70621
1.70174
1.69877
1.69734
1.69755
1.69948
1.70331
1.70901
1.7167
1.72647
1.73842
1.75263
1.76916
1.78807
1.80942
1.83319
1.8594
1.88801
1.91896
1.95214
1.98744
2.02464
2.06357
2.10398
2.14559
2.18811
2.2312
2.27451
2.31769
2.36035
2.40213
2.44266
2.48157
2.51852
2.55319
2.58527
2.6145
2.64062
2.66342
2.68269
2.69826
2.71005
2.71806
2.72227
2.72263
2.71921
2.71213
2.70149
2.68735
2.6698
2.64895
2.6249
2.59775
2.56758
2.5345
2.49859
2.45995
2.41866
2.37484
2.32855
2.2799
2.22896
2.17581
2.12049
2.06307
2.0036
1.94214
1.87876
1.81357
1.74667
1.67819
1.60828
1.53706
1.4647
1.39133
1.31709
1.24209
1.16645
1.09029
1.0137
0.936788
0.859648
0.782367
0.705032
0.627723
0.550513
0.473473
0.396668
0.320158
0.244001
0.168245
0.0929389
0.0181227
-0.0561663
-0.129896
-0.203038
-0.27557
-0.347475
-0.418741
-0.489362
-0.559338
-0.628672
-0.697376
-0.765462
-0.832952
-0.899869
-0.966243
-1.03211
-1.0975
-1.16247
-1.22705
-1.2913
-1.35526
-1.41901
-1.48256
-1.54615
-1.60935
-1.6748
21.9448
21.9878
22.0139
22.0257
22.0236
22.0068
21.978
21.9394
21.8898
21.8287
21.7567
21.6742
21.5819
21.4799
21.3679
21.2446
21.1143
20.9765
20.8312
20.6785
20.519
20.3532
20.1815
20.0045
19.823
19.6381
19.4489
19.2553
19.0586
18.8595
18.658
18.4548
18.2512
18.0474
17.8433
17.6391
17.4355
17.2325
17.0306
16.8302
16.6313
16.4344
16.2396
16.047
15.8566
15.6686
15.483
15.2986
15.1164
14.9361
14.7572
14.5797
14.4037
14.2292
14.056
13.8842
13.7139
13.5448
13.3771
13.2106
13.0453
12.8812
12.7186
12.5575
12.3978
12.2393
12.0821
11.9263
11.7719
11.6191
11.4678
11.3183
11.1706
11.0248
10.8809
10.7391
10.5992
10.4613
10.3253
10.1913
10.059
9.92854
9.79975
9.6726
9.54703
9.42297
9.30036
9.17917
9.05935
8.94085
8.82365
8.70771
8.59302
8.47956
8.3673
8.25624
8.14637
8.03768
7.93016
7.8238
7.71859
7.61452
7.51158
7.40976
7.30903
7.2094
7.11083
7.01331
6.91683
6.82138
6.72694
6.63351
6.54107
6.44962
6.35916
6.26968
6.18117
6.09365
6.00709
5.92151
5.83689
5.75325
5.67058
5.58887
5.50814
5.42838
5.34959
5.27177
5.19493
5.11907
5.04419
4.97029
4.89737
4.82545
4.75451
4.68457
4.61563
4.54769
4.48076
4.41485
4.34995
4.28607
4.22323
4.16142
4.10065
4.04094
3.98229
3.92471
3.86821
3.8128
3.75848
3.70528
3.65319
3.60224
3.55242
3.50377
3.45627
3.40996
3.36483
3.3209
3.27819
3.2367
3.19644
3.15742
3.11966
3.08317
3.04794
3.014
2.98135
2.95
2.91996
2.89123
2.86384
2.83778
2.81306
2.78971
2.76774
2.74716
2.72799
2.71024
2.69396
2.67915
2.66585
2.65409
2.64391
2.63534
2.6284
2.62338
2.62009
2.61861
2.61895
2.62113
2.62521
2.63119
2.6391
2.64894
2.6607
2.67437
2.68989
2.70721
2.72625
2.74691
2.76908
2.79261
2.81733
2.84307
2.86961
2.89674
2.92421
2.95178
2.97918
3.00614
3.03237
3.05761
3.08157
3.10398
3.12457
3.14309
3.15934
3.17324
3.18469
3.19351
3.19959
3.20278
3.20299
3.20013
3.19419
3.18519
3.17311
3.15796
3.13976
3.11853
3.09429
3.06705
3.03683
3.00361
2.96741
2.92824
2.88612
2.84108
2.79319
2.74251
2.68913
2.63316
2.57471
2.51389
2.45082
2.38561
2.3184
2.2493
2.17846
2.10599
2.03204
1.95674
1.8802
1.80255
1.7239
1.64434
1.564
1.48295
1.40131
1.31918
1.23664
1.1538
1.07075
0.987568
0.904347
0.821165
0.738094
0.655205
0.572559
0.490216
0.408226
0.326638
0.245495
0.16484
0.0847096
0.0051383
-0.0738441
-0.152213
-0.229947
-0.307032
-0.383455
-0.459207
-0.534282
-0.608672
-0.682377
-0.755396
-0.827735
-0.899409
-0.970438
-1.04086
-1.11071
-1.18005
-1.24895
-1.31753
-1.38586
-1.45421
-1.5223
-1.59255
24.6749
24.6211
24.5632
24.4993
24.4293
24.3533
24.2718
24.1848
24.0923
23.9945
23.8917
23.7841
23.6722
23.5555
23.4345
23.3097
23.1812
23.0491
22.9135
22.7748
22.633
22.4886
22.3416
22.1921
22.04
21.8855
21.7291
21.571
21.4112
21.2497
21.0865
20.9217
20.7554
20.5875
20.4182
20.2474
20.0752
19.9016
19.7266
19.5503
19.3727
19.1938
19.0138
18.8326
18.6504
18.4672
18.2832
18.0996
17.9156
17.7316
17.5476
17.364
17.1802
16.9973
16.8152
16.634
16.4539
16.275
16.0974
15.9211
15.7461
15.5724
15.4001
15.2291
15.0594
14.891
14.7238
14.5578
14.393
14.2293
14.0668
13.9055
13.7453
13.5863
13.4284
13.2717
13.1162
12.9619
12.8087
12.6568
12.5061
12.3567
12.2085
12.0615
11.9158
11.7714
11.6283
11.4864
11.3457
11.2064
11.0683
10.9314
10.7958
10.6614
10.5283
10.3964
10.2657
10.1363
10.008
9.88102
9.75521
9.63061
9.50722
9.38502
9.26402
9.1442
9.02558
8.90815
8.7919
8.67683
8.56293
8.45022
8.33868
8.22832
8.11913
8.01111
7.90426
7.79859
7.69409
7.59077
7.48862
7.38764
7.28784
7.18923
7.09179
6.99554
6.90047
6.80658
6.71388
6.62238
6.53206
6.44294
6.35501
6.26828
6.18275
6.09843
6.01531
5.9334
5.8527
5.77322
5.69496
5.61793
5.54212
5.46756
5.39423
5.32216
5.25133
5.18177
5.11347
5.04645
4.98071
4.91625
4.8531
4.79124
4.7307
4.67147
4.61357
4.557
4.50177
4.44789
4.39536
4.34419
4.29439
4.24597
4.19892
4.15325
4.10897
4.06609
4.02461
3.98453
3.94586
3.9086
3.87277
3.83836
3.80538
3.77383
3.74374
3.71509
3.6879
3.66218
3.63794
3.61519
3.59393
3.57418
3.55594
3.53925
3.52435
3.51084
3.49891
3.48854
3.47975
3.47252
3.46686
3.46273
3.46013
3.45902
3.45936
3.4611
3.46419
3.46855
3.47411
3.48077
3.48841
3.49694
3.50621
3.51608
3.52642
3.53705
3.54782
3.55855
3.56907
3.57926
3.58901
3.59815
3.60651
3.61395
3.62033
3.62553
3.62937
3.63164
3.63214
3.63076
3.6274
3.62193
3.61421
3.60412
3.59158
3.57648
3.55875
3.53832
3.51514
3.48916
3.46033
3.42863
3.39404
3.35655
3.31618
3.27298
3.227
3.17833
3.12707
3.07333
3.01722
2.95885
2.89831
2.83568
2.77103
2.70444
2.63598
2.56571
2.49372
2.42008
2.34489
2.26823
2.19021
2.11093
2.0305
1.94901
1.86658
1.78332
1.69933
1.6147
1.52954
1.44392
1.35796
1.27171
1.18527
1.09871
1.0121
0.925516
0.839012
0.752649
0.66648
0.580553
0.494915
0.409608
0.324672
0.240143
0.156051
0.072419
-0.0107353
-0.0934024
-0.17558
-0.25727
-0.338484
-0.419234
-0.499533
-0.579394
-0.658826
-0.737834
-0.816422
-0.894595
-0.97236
-1.04973
-1.12671
-1.20335
-1.27964
-1.35587
-1.43192
-1.50998
23.5155
23.4826
23.4466
23.4066
23.3627
23.3152
23.2642
23.2097
23.1515
23.0898
23.0245
22.9556
22.8833
22.8075
22.7282
22.6455
22.5594
22.47
22.3772
22.2811
22.1819
22.0795
21.9741
21.8657
21.7544
21.6404
21.5237
21.4043
21.2825
21.1582
21.0317
20.9031
20.7724
20.6398
20.5055
20.3695
20.2321
20.0933
19.9533
19.8122
19.6701
19.5272
19.3834
19.2389
19.0938
18.948
18.8017
18.6549
18.5076
18.3599
18.2117
18.063
17.9146
17.7657
17.6166
17.4674
17.318
17.1673
17.0168
16.8663
16.7158
16.5653
16.4149
16.2647
16.1146
15.9648
15.8152
15.6659
15.517
15.3684
15.2202
15.0724
14.9251
14.7783
14.632
14.4862
14.3411
14.1965
14.0525