/*--------------------------------*- C++ -*----------------------------------*\
| =========                 |                                                 |
| \\      /  F ield         | OpenFOAM: The Open Source CFD Toolbox           |
|  \\    /   O peration     | Version:  2.4.0                                 |
|   \\  /    A nd           | Web:      www.OpenFOAM.org                      |
|    \\/     M anipulation  |                                                 |
\*---------------------------------------------------------------------------*/
FoamFile
{
    version     2.0;
    format      ascii;
    class       volVectorField;
    location    "3.8";
    object      U;
}
// * * * * * * * * * * * * * * * * * * * * * * * * * * * * * * * * * * * * * //

dimensions      [0 1 -1 0 0 0 0];

internalField   nonuniform List<vector> 
8000
(
(1.34443e-06 -0.000160548 0)
(1.45486e-05 -0.00047452 0)
(4.15358e-05 -0.000782458 0)
(8.18776e-05 -0.00108439 0)
(0.000134778 -0.00137961 0)
(0.000199618 -0.00166693 0)
(0.000275929 -0.00194487 0)
(0.000363312 -0.0022117 0)
(0.000461428 -0.00246553 0)
(0.000570014 -0.00270448 0)
(0.000688889 -0.0029268 0)
(0.000817955 -0.00313098 0)
(0.000957127 -0.00331593 0)
(0.00110628 -0.00348098 0)
(0.00126549 -0.00362604 0)
(0.00143641 -0.00375144 0)
(0.00162355 -0.00385808 0)
(0.00182778 -0.00394695 0)
(0.00200762 -0.00401938 0)
(0.00207238 -0.00408176 0)
(0.00203656 -0.00416221 0)
(0.00228442 -0.00488153 0)
(0.00412205 -0.00984562 0)
(0.00805779 -0.0159026 0)
(0.0161418 -0.0217082 0)
(0.0278282 -0.0241981 0)
(0.0360038 -0.0245239 0)
(0.0441209 -0.0236951 0)
(0.0525936 -0.0235042 0)
(0.0607664 -0.0234792 0)
(0.0730363 -0.0222128 0)
(0.0890629 -0.0385273 0)
(0.097266 -0.0761924 0)
(0.111268 -0.122379 0)
(0.133815 -0.153072 0)
(0.154874 -0.162938 0)
(0.170104 -0.16551 0)
(0.184989 -0.166699 0)
(0.200481 -0.165483 0)
(0.216415 -0.160403 0)
(0.239538 -0.147509 0)
(0.268118 -0.128243 0)
(0.305964 -0.137971 0)
(0.357441 -0.245297 0)
(0.410872 -0.421734 0)
(0.459248 -0.595238 0)
(0.500229 -0.721514 0)
(0.534508 -0.787119 0)
(0.565155 -0.797177 0)
(0.595006 -0.765975 0)
(6.15137e-07 -0.00028499 0)
(7.52342e-06 -0.000847407 0)
(2.31934e-05 -0.00140036 0)
(4.81932e-05 -0.00194103 0)
(8.27266e-05 -0.00246644 0)
(0.000126784 -0.00297414 0)
(0.000180164 -0.00346214 0)
(0.000242477 -0.00392887 0)
(0.000313189 -0.00437307 0)
(0.000391637 -0.00479376 0)
(0.000477069 -0.00519015 0)
(0.000568588 -0.00556159 0)
(0.000665209 -0.00590748 0)
(0.000765682 -0.00622717 0)
(0.000869064 -0.0065199 0)
(0.00097476 -0.00678444 0)
(0.00108251 -0.00701959 0)
(0.00118608 -0.00722349 0)
(0.00125563 -0.00739802 0)
(0.00128398 -0.00763644 0)
(0.00129719 -0.00847341 0)
(0.00140989 -0.0226722 0)
(0.00168982 -0.0653066 0)
(0.00265128 -0.107665 0)
(0.00762583 -0.142865 0)
(0.0129557 -0.154416 0)
(0.0174378 -0.158171 0)
(0.0222744 -0.160344 0)
(0.0274889 -0.162999 0)
(0.0334291 -0.16966 0)
(0.04246 -0.193699 0)
(0.0519208 -0.24883 0)
(0.0612628 -0.317125 0)
(0.0678064 -0.359154 0)
(0.0760261 -0.382433 0)
(0.0884823 -0.389627 0)
(0.095392 -0.386838 0)
(0.101526 -0.382117 0)
(0.108929 -0.376917 0)
(0.120069 -0.377019 0)
(0.141713 -0.404402 0)
(0.182221 -0.566753 0)
(0.21837 -0.853501 0)
(0.249963 -1.05671 0)
(0.278126 -1.13394 0)
(0.299165 -1.13438 0)
(0.313644 -1.11328 0)
(0.324593 -1.09447 0)
(0.334276 -1.07499 0)
(0.344269 -1.04523 0)
(-2.27552e-07 -0.000242935 0)
(4.25726e-06 -0.000754172 0)
(1.49229e-05 -0.00128205 0)
(3.17743e-05 -0.00181714 0)
(5.42664e-05 -0.00235033 0)
(8.18653e-05 -0.00287372 0)
(0.000114128 -0.0033804 0)
(0.000150656 -0.00386441 0)
(0.000191072 -0.00432055 0)
(0.000235013 -0.00474414 0)
(0.000282107 -0.00513084 0)
(0.000331943 -0.00547643 0)
(0.000384015 -0.0057767 0)
(0.000437938 -0.00602722 0)
(0.00049411 -0.00622367 0)
(0.000554329 -0.00636101 0)
(0.000616417 -0.00643568 0)
(0.000656056 -0.0064421 0)
(0.000612995 -0.0063817 0)
(0.000506048 -0.00618692 0)
(0.000491656 -0.0055948 0)
(0.000669364 -0.0128471 0)
(0.000888725 -0.0414363 0)
(0.000565996 -0.0871633 0)
(0.000657278 -0.126671 0)
(0.0013572 -0.14446 0)
(0.00245632 -0.155378 0)
(0.00395125 -0.164396 0)
(0.00566973 -0.173993 0)
(0.007863 -0.190955 0)
(0.00985825 -0.221479 0)
(0.0101326 -0.255286 0)
(0.00815301 -0.302399 0)
(0.00324646 -0.335154 0)
(-0.00200693 -0.349698 0)
(-0.00834872 -0.357549 0)
(-0.0127022 -0.363456 0)
(-0.0161702 -0.372972 0)
(-0.0227679 -0.409788 0)
(-0.0290226 -0.564073 0)
(-0.0271196 -0.782356 0)
(-0.0246244 -0.982248 0)
(-0.0326983 -1.02809 0)
(-0.0488472 -0.984352 0)
(-0.0726104 -0.95795 0)
(-0.101241 -0.95589 0)
(-0.130631 -0.960102 0)
(-0.159575 -0.960931 0)
(-0.187778 -0.954599 0)
(-0.214068 -0.938166 0)
(4.21476e-06 -0.000376628 0)
(2.93225e-05 -0.00110862 0)
(7.34883e-05 -0.00181791 0)
(0.000133255 -0.00250253 0)
(0.000205574 -0.00316034 0)
(0.000288405 -0.00378963 0)
(0.000380436 -0.00438907 0)
(0.00048083 -0.00495763 0)
(0.000589147 -0.00549448 0)
(0.000705323 -0.00599879 0)
(0.000829626 -0.00646966 0)
(0.000962601 -0.00690595 0)
(0.001105 -0.00730619 0)
(0.00125815 -0.00766847 0)
(0.00142537 -0.00799037 0)
(0.00161311 -0.00826897 0)
(0.00182337 -0.00850154 0)
(0.00200897 -0.008687 0)
(0.00210093 -0.00888679 0)
(0.00212998 -0.00939148 0)
(0.00287075 -0.0149477 0)
(0.00816606 -0.0469076 0)
(0.0166598 -0.0860576 0)
(0.0251944 -0.123657 0)
(0.0339748 -0.158407 0)
(0.0413404 -0.182568 0)
(0.0468886 -0.199858 0)
(0.0522404 -0.211313 0)
(0.059325 -0.219566 0)
(0.0671582 -0.225402 0)
(0.073074 -0.229401 0)
(0.0772774 -0.231134 0)
(0.0803374 -0.234064 0)
(0.0783748 -0.241481 0)
(0.0748441 -0.246001 0)
(0.0715881 -0.250109 0)
(0.0676059 -0.254674 0)
(0.0636308 -0.261459 0)
(0.0585862 -0.273338 0)
(0.0470108 -0.30618 0)
(0.0285584 -0.364701 0)
(-0.00142184 -0.449618 0)
(-0.0512757 -0.534642 0)
(-0.0953912 -0.495336 0)
(-0.141528 -0.408236 0)
(-0.19155 -0.357776 0)
(-0.244144 -0.345919 0)
(-0.298045 -0.352787 0)
(-0.352588 -0.364556 0)
(-0.407384 -0.374061 0)
(-1.6179e-06 -0.000542118 0)
(-1.31922e-05 -0.00154907 0)
(-3.59883e-05 -0.00248711 0)
(-6.94716e-05 -0.00336352 0)
(-0.000112935 -0.00418451 0)
(-0.00016571 -0.00495576 0)
(-0.000227077 -0.00568258 0)
(-0.000296202 -0.00636995 0)
(-0.000372117 -0.00702252 0)
(-0.000453763 -0.00764466 0)
(-0.000539967 -0.00824051 0)
(-0.000629509 -0.00881414 0)
(-0.000720661 -0.00936964 0)
(-0.000810751 -0.009911 0)
(-0.000895961 -0.0104425 0)
(-0.000979355 -0.0109686 0)
(-0.00108829 -0.0114979 0)
(-0.00126713 -0.0120478 0)
(-0.00145756 -0.0129831 0)
(-0.00150607 -0.0169483 0)
(-0.000532666 -0.0631793 0)
(0.00199816 -0.157289 0)
(0.00337902 -0.230609 0)
(0.00323021 -0.271777 0)
(0.00194398 -0.285757 0)
(0.000215871 -0.292266 0)
(-0.00181048 -0.298545 0)
(-0.0040298 -0.306344 0)
(-0.00671524 -0.321498 0)
(-0.00783432 -0.349434 0)
(-0.0052319 -0.363297 0)
(-0.0027077 -0.343356 0)
(0.00202192 -0.302693 0)
(0.00807071 -0.28539 0)
(0.0108808 -0.273281 0)
(0.0110132 -0.263836 0)
(0.0093374 -0.253329 0)
(0.00480884 -0.243423 0)
(-0.00583769 -0.234385 0)
(-0.0240224 -0.221646 0)
(-0.0415257 -0.185776 0)
(-0.062237 -0.113212 0)
(-0.0904819 -0.0161667 0)
(-0.122678 0.082352 0)
(-0.153395 0.168054 0)
(-0.182443 0.235277 0)
(-0.211772 0.282316 0)
(-0.24238 0.311612 0)
(-0.274392 0.327718 0)
(-0.307573 0.334769 0)
(-3.42312e-06 -0.000242393 0)
(-3.02375e-05 -0.000706995 0)
(-8.18761e-05 -0.00115365 0)
(-0.000156197 -0.00158445 0)
(-0.000250673 -0.00200138 0)
(-0.000363324 -0.00240627 0)
(-0.000492582 -0.00280105 0)
(-0.00063703 -0.00318769 0)
(-0.000795423 -0.00356823 0)
(-0.000966655 -0.0039448 0)
(-0.00114983 -0.00431961 0)
(-0.00134376 -0.00469499 0)
(-0.0015461 -0.005073 0)
(-0.001754 -0.00545617 0)
(-0.00197462 -0.00584637 0)
(-0.00225159 -0.00625024 0)
(-0.0026326 -0.00657192 0)
(-0.00300691 -0.0070087 0)
(-0.00319077 -0.00824106 0)
(-0.00262223 -0.0217102 0)
(-0.000735767 -0.0651697 0)
(-0.00233379 -0.103314 0)
(-0.00863317 -0.123622 0)
(-0.0148005 -0.132118 0)
(-0.0215619 -0.136896 0)
(-0.0282822 -0.139824 0)
(-0.034503 -0.143812 0)
(-0.0426406 -0.152524 0)
(-0.0600186 -0.190204 0)
(-0.0688883 -0.254567 0)
(-0.0801703 -0.32312 0)
(-0.10701 -0.330531 0)
(-0.123753 -0.322379 0)
(-0.133996 -0.318192 0)
(-0.144465 -0.302261 0)
(-0.159255 -0.262433 0)
(-0.172897 -0.129504 0)
(-0.185785 -0.0292636 0)
(-0.194468 0.0242889 0)
(-0.203281 0.0724841 0)
(-0.215455 0.134606 0)
(-0.224789 0.202969 0)
(-0.228758 0.256288 0)
(-0.230144 0.297753 0)
(-0.228728 0.333391 0)
(-0.224793 0.365634 0)
(-0.219124 0.394131 0)
(-0.212482 0.418047 0)
(-0.205428 0.437271 0)
(-0.19836 0.452171 0)
(7.8351e-07 -0.000195775 0)
(2.21847e-06 -0.0005724 0)
(2.64319e-06 -0.000936224 0)
(1.05075e-06 -0.00128897 0)
(-3.29813e-06 -0.00163217 0)
(-1.10135e-05 -0.00196721 0)
(-2.26708e-05 -0.00229554 0)
(-3.88397e-05 -0.00261851 0)
(-6.01547e-05 -0.00293737 0)
(-8.72644e-05 -0.00325312 0)
(-0.000120587 -0.00356633 0)
(-0.000159298 -0.003877 0)
(-0.000202131 -0.00418436 0)
(-0.000255628 -0.00448786 0)
(-0.000357462 -0.0047887 0)
(-0.000559182 -0.00510528 0)
(-0.000829347 -0.0054219 0)
(-0.00105926 -0.00716528 0)
(-0.000170964 -0.0237758 0)
(0.00137285 -0.0452705 0)
(0.00240392 -0.0675277 0)
(0.000871951 -0.0832815 0)
(-0.000990713 -0.0899692 0)
(-0.00283783 -0.0938101 0)
(-0.00551045 -0.098552 0)
(-0.0100886 -0.100636 0)
(-0.0145011 -0.0986283 0)
(-0.0199451 -0.0890791 0)
(-0.0290381 -0.0626416 0)
(-0.0451462 0.0116903 0)
(-0.0652257 0.0994174 0)
(-0.085776 0.109684 0)
(-0.104766 0.0654065 0)
(-0.122293 0.0252834 0)
(-0.137895 0.024191 0)
(-0.150057 0.0290674 0)
(-0.157801 0.0318537 0)
(-0.160741 0.0364685 0)
(-0.160087 0.0422853 0)
(-0.156651 0.0501955 0)
(-0.152837 0.0586778 0)
(-0.147074 0.0727227 0)
(-0.138027 0.0928558 0)
(-0.127839 0.111909 0)
(-0.116899 0.12767 0)
(-0.104917 0.141273 0)
(-0.0920891 0.153384 0)
(-0.0785384 0.164383 0)
(-0.0644115 0.174569 0)
(-0.0498481 0.184212 0)
(-2.32153e-07 -0.000242896 0)
(-1.99972e-06 -0.000686212 0)
(-6.13453e-06 -0.00109175 0)
(-1.30856e-05 -0.0014636 0)
(-2.33841e-05 -0.00180519 0)
(-3.75865e-05 -0.00211944 0)
(-5.62682e-05 -0.00240894 0)
(-8.00608e-05 -0.00267586 0)
(-0.000109657 -0.00292206 0)
(-0.000145536 -0.00314909 0)
(-0.000186867 -0.00335813 0)
(-0.000231241 -0.00355019 0)
(-0.0002821 -0.0037257 0)
(-0.000376545 -0.00388572 0)
(-0.000586135 -0.00403154 0)
(-0.000863465 -0.0042446 0)
(-0.00112789 -0.00494043 0)
(-0.00148505 -0.0163319 0)
(-0.00142385 -0.0339887 0)
(-0.00188858 -0.0478377 0)
(-0.0034031 -0.0584211 0)
(-0.00612183 -0.0644352 0)
(-0.0085219 -0.0664155 0)
(-0.0105656 -0.0636602 0)
(-0.0133655 -0.0593856 0)
(-0.0194052 -0.0450845 0)
(-0.0247495 -0.0165539 0)
(-0.0317894 0.0383746 0)
(-0.0398778 0.116122 0)
(-0.0456008 0.179119 0)
(-0.0465978 0.201501 0)
(-0.0438418 0.181817 0)
(-0.0403095 0.137109 0)
(-0.0373311 0.0879971 0)
(-0.0346177 0.0460092 0)
(-0.0314224 0.0146875 0)
(-0.0278328 -0.005681 0)
(-0.0242097 -0.016293 0)
(-0.0205427 -0.0191885 0)
(-0.0168715 -0.0165344 0)
(-0.013195 -0.0108243 0)
(-0.00919283 -0.0019673 0)
(-0.00474074 0.00780676 0)
(0.000348956 0.0180816 0)
(0.00595469 0.028244 0)
(0.0119645 0.0380434 0)
(0.0183125 0.0473486 0)
(0.0249473 0.0560806 0)
(0.0318346 0.0642124 0)
(0.0389517 0.07175 0)
(-1.26219e-06 -0.000179217 0)
(-1.15534e-05 -0.000508032 0)
(-3.14248e-05 -0.000809552 0)
(-6.00873e-05 -0.00108571 0)
(-9.66082e-05 -0.00133808 0)
(-0.000140313 -0.0015681 0)
(-0.000190724 -0.0017771 0)
(-0.000247501 -0.00196633 0)
(-0.000310425 -0.00213693 0)
(-0.000379172 -0.00228995 0)
(-0.000452409 -0.00242631 0)
(-0.000527344 -0.00254678 0)
(-0.000605344 -0.00265196 0)
(-0.000714312 -0.00274231 0)
(-0.000917007 -0.0028187 0)
(-0.00118838 -0.0029039 0)
(-0.00147589 -0.00310823 0)
(-0.00198882 -0.00557597 0)
(-0.00316754 -0.0119375 0)
(-0.00564206 -0.0164793 0)
(-0.0081877 -0.0195118 0)
(-0.0108266 -0.0223613 0)
(-0.0149656 -0.0238905 0)
(-0.0192748 -0.0155983 0)
(-0.0235261 -0.00195034 0)
(-0.0296915 0.023193 0)
(-0.0349853 0.0632444 0)
(-0.0365005 0.105629 0)
(-0.0331484 0.125215 0)
(-0.025762 0.113443 0)
(-0.0158767 0.079802 0)
(-0.00538099 0.0390081 0)
(0.00381103 0.00173998 0)
(0.0109282 -0.0266067 0)
(0.0160544 -0.0444091 0)
(0.0194862 -0.0527984 0)
(0.0216501 -0.0545696 0)
(0.0230275 -0.0519879 0)
(0.0240217 -0.0468549 0)
(0.0249248 -0.0405203 0)
(0.0259198 -0.0338844 0)
(0.0271251 -0.0274559 0)
(0.0286103 -0.0214622 0)
(0.0303881 -0.0159728 0)
(0.0324895 -0.0109678 0)
(0.0349135 -0.00635021 0)
(0.0376328 -0.00200549 0)
(0.0406232 0.00217034 0)
(0.0438599 0.0062569 0)
(0.0473189 0.0103042 0)
(-6.82675e-07 -0.000106577 0)
(-6.87231e-06 -0.000304256 0)
(-1.91313e-05 -0.000487128 0)
(-3.70675e-05 -0.000655555 0)
(-6.01366e-05 -0.000809723 0)
(-8.79151e-05 -0.000949823 0)
(-0.00012008 -0.00107612 0)
(-0.000156419 -0.0011889 0)
(-0.000196822 -0.00128852 0)
(-0.000240964 -0.00137533 0)
(-0.000286976 -0.00144974 0)
(-0.000330911 -0.00151225 0)
(-0.000375423 -0.00156337 0)
(-0.000463633 -0.00160364 0)
(-0.000687031 -0.0016326 0)
(-0.000998409 -0.00164054 0)
(-0.00129947 -0.00153803 0)
(-0.00171946 0.00169987 0)
(-0.00193957 0.00671398 0)
(-0.00257467 0.0109758 0)
(-0.00328388 0.0134273 0)
(-0.00418895 0.0153983 0)
(-0.00582512 0.0217791 0)
(-0.00969277 0.0513687 0)
(-0.012462 0.0789964 0)
(-0.0146096 0.0810997 0)
(-0.0141764 0.0574058 0)
(-0.0102891 0.0211147 0)
(-0.00405813 -0.0134534 0)
(0.00296996 -0.0409226 0)
(0.00921656 -0.0591777 0)
(0.0138928 -0.0682737 0)
(0.0169344 -0.0704227 0)
(0.0185713 -0.0679789 0)
(0.0192048 -0.0631068 0)
(0.0192527 -0.0575107 0)
(0.0190425 -0.0522487 0)
(0.0187931 -0.0477693 0)
(0.0186401 -0.0440902 0)
(0.0186555 -0.041014 0)
(0.0188662 -0.0382985 0)
(0.0192712 -0.0357482 0)
(0.019855 -0.0332419 0)
(0.0205967 -0.0307223 0)
(0.0214752 -0.0281724 0)
(0.022472 -0.0255976 0)
(0.0235731 -0.0230089 0)
(0.024769 -0.0204164 0)
(0.0260538 -0.0178261 0)
(0.0274238 -0.0152406 0)
(-2.34489e-08 -9.54242e-05 0)
(-1.19613e-06 -0.000269711 0)
(-3.97962e-06 -0.000428536 0)
(-8.47257e-06 -0.000572635 0)
(-1.46796e-05 -0.000702466 0)
(-2.25964e-05 -0.000818434 0)
(-3.22203e-05 -0.000920958 0)
(-4.35726e-05 -0.00101046 0)
(-5.67039e-05 -0.00108735 0)
(-7.16056e-05 -0.00115204 0)
(-8.77008e-05 -0.00120495 0)
(-0.000103558 -0.00124662 0)
(-0.000119612 -0.00127761 0)
(-0.000151131 -0.00129798 0)
(-0.000232306 -0.00130519 0)
(-0.000371185 -0.00128193 0)
(-0.000586342 -0.00119985 0)
(-0.000817418 0.000692251 0)
(-0.000508381 0.00275357 0)
(-0.000325542 0.00487482 0)
(-0.000188114 0.00759642 0)
(-0.000125647 0.0135326 0)
(-0.000363011 0.0304282 0)
(-0.00111679 0.0663361 0)
(-0.00109893 0.0738312 0)
(0.000658755 0.047261 0)
(0.00304745 0.0111433 0)
(0.00520075 -0.019522 0)
(0.00658181 -0.0401553 0)
(0.00708952 -0.0514505 0)
(0.00683291 -0.0559592 0)
(0.00604376 -0.0564777 0)
(0.0049768 -0.0551402 0)
(0.00383759 -0.0531921 0)
(0.00276173 -0.0511813 0)
(0.00181567 -0.0492666 0)
(0.00101293 -0.0474542 0)
(0.000335928 -0.0457162 0)
(-0.000243574 -0.044027 0)
(-0.000750904 -0.0423665 0)
(-0.00120245 -0.040716 0)
(-0.001608 -0.0390574 0)
(-0.00197325 -0.0373753 0)
(-0.00229824 -0.0356595 0)
(-0.00258252 -0.0339053 0)
(-0.00282705 -0.0321127 0)
(-0.00303111 -0.0302849 0)
(-0.00319534 -0.0284265 0)
(-0.00332159 -0.0265427 0)
(-0.00340939 -0.0246388 0)
(-4.24141e-07 -8.81336e-05 0)
(-4.0558e-06 -0.00024645 0)
(-1.11867e-05 -0.000388287 0)
(-2.15483e-05 -0.000514702 0)
(-3.4785e-05 -0.000626355 0)
(-5.05983e-05 -0.000723769 0)
(-6.87313e-05 -0.000807389 0)
(-8.89553e-05 -0.000877586 0)
(-0.000111114 -0.000934643 0)
(-0.000135136 -0.000978749 0)
(-0.000160659 -0.00101003 0)
(-0.000185777 -0.00102857 0)
(-0.000206808 -0.00103445 0)
(-0.000227822 -0.00102736 0)
(-0.000293916 -0.00100583 0)
(-0.000489578 -0.000966913 0)
(-0.000764162 -0.000895382 0)
(-0.000956118 -0.000610549 0)
(-0.000914679 0.00186587 0)
(-0.000705325 0.00544202 0)
(-0.000633792 0.0106791 0)
(-0.000708091 0.0184619 0)
(-0.00082818 0.0327293 0)
(-0.000456784 0.0587777 0)
(0.000562556 0.0573329 0)
(0.00109489 0.029945 0)
(0.00121643 -0.000766982 0)
(0.000872595 -0.0244281 0)
(0.000122529 -0.0387858 0)
(-0.000941027 -0.0453225 0)
(-0.00221104 -0.046718 0)
(-0.00359254 -0.0453535 0)
(-0.00503777 -0.042854 0)
(-0.00651946 -0.0401385 0)
(-0.00802185 -0.0376243 0)
(-0.0095345 -0.0354294 0)
(-0.0110494 -0.0335251 0)
(-0.0125605 -0.0318316 0)
(-0.014064 -0.0302676 0)
(-0.0155578 -0.0287697 0)
(-0.0170412 -0.0272957 0)
(-0.0185134 -0.025821 0)
(-0.0199739 -0.0243331 0)
(-0.0214219 -0.0228269 0)
(-0.0228564 -0.0213006 0)
(-0.0242764 -0.0197543 0)
(-0.0256807 -0.0181895 0)
(-0.0270683 -0.0166096 0)
(-0.028438 -0.0150198 0)
(-0.0297886 -0.0134274 0)
(-7.98413e-07 -4.73213e-05 0)
(-7.56838e-06 -0.000132864 0)
(-2.06013e-05 -0.000210175 0)
(-3.92511e-05 -0.000279748 0)
(-6.27112e-05 -0.000341756 0)
(-9.03149e-05 -0.000396308 0)
(-0.000121498 -0.000443517 0)
(-0.00015574 -0.00048349 0)
(-0.000192554 -0.000516323 0)
(-0.000231512 -0.000542081 0)
(-0.000272215 -0.000560828 0)
(-0.000313971 -0.00057264 0)
(-0.000355006 -0.000577691 0)
(-0.000393032 -0.000576244 0)
(-0.000433321 -0.000567883 0)
(-0.000507833 -0.000549278 0)
(-0.000662993 -0.000512745 0)
(-0.000880228 -0.000464995 0)
(-0.00109383 -2.42788e-07 0)
(-0.00100502 0.00392706 0)
(-0.000705946 0.00928428 0)
(-0.000469338 0.0161509 0)
(-0.000139263 0.0273141 0)
(0.000627184 0.0475939 0)
(0.00178453 0.0561489 0)
(0.00135747 0.0384137 0)
(-0.000117243 0.0139235 0)
(-0.00201027 -0.00558423 0)
(-0.00408325 -0.0171539 0)
(-0.00620738 -0.0220154 0)
(-0.00833025 -0.0225578 0)
(-0.0104374 -0.0208859 0)
(-0.0125291 -0.0183872 0)
(-0.0146126 -0.0158053 0)
(-0.0166982 -0.0134533 0)
(-0.018792 -0.0114037 0)
(-0.020895 -0.00961727 0)
(-0.0230063 -0.00801939 0)
(-0.0251248 -0.00653847 0)
(-0.0272493 -0.00511976 0)
(-0.0293781 -0.00372717 0)
(-0.0315092 -0.00233938 0)
(-0.0336407 -0.000945614 0)
(-0.0357716 0.000459019 0)
(-0.0379002 0.00187565 0)
(-0.0400251 0.00330247 0)
(-0.0421452 0.00473523 0)
(-0.0442588 0.0061674 0)
(-0.046364 0.0075905 0)
(-0.0484592 0.00899575 0)
(-5.81934e-07 3.44399e-06 0)
(-5.24322e-06 7.87407e-06 0)
(-1.41561e-05 1.0096e-05 0)
(-2.69162e-05 1.06635e-05 0)
(-4.30524e-05 1.03125e-05 0)
(-6.22139e-05 9.69729e-06 0)
(-8.41341e-05 9.32452e-06 0)
(-0.000108583 9.57923e-06 0)
(-0.000135354 1.07335e-05 0)
(-0.000164284 1.29557e-05 0)
(-0.000195261 1.63051e-05 0)
(-0.000228029 2.07358e-05 0)
(-0.000261474 2.60776e-05 0)
(-0.000293219 3.19836e-05 0)
(-0.000324278 3.79771e-05 0)
(-0.000377331 4.41097e-05 0)
(-0.00050409 5.20589e-05 0)
(-0.000677086 7.76332e-05 0)
(-0.000839786 0.000158204 0)
(-0.00105762 0.00168386 0)
(-0.000706302 0.00530123 0)
(-8.86585e-05 0.010918 0)
(0.000756515 0.0201628 0)
(0.00161689 0.0322375 0)
(0.0035139 0.0507335 0)
(0.00437971 0.0550855 0)
(0.00286311 0.0414759 0)
(0.000279865 0.0254818 0)
(-0.0026254 0.0141527 0)
(-0.00548597 0.00840494 0)
(-0.00818462 0.00684491 0)
(-0.0107174 0.00777343 0)
(-0.0131261 0.00990232 0)
(-0.0154608 0.0124421 0)
(-0.017766 0.0149713 0)
(-0.0200757 0.0173015 0)
(-0.0224104 0.0193849 0)
(-0.0247772 0.0212485 0)
(-0.0271742 0.0229464 0)
(-0.0295959 0.0245325 0)
(-0.0320366 0.0260491 0)
(-0.0344917 0.027525 0)
(-0.036957 0.028977 0)
(-0.039429 0.0304143 0)
(-0.0419051 0.0318407 0)
(-0.0443829 0.033256 0)
(-0.0468602 0.0346571 0)
(-0.0493353 0.0360382 0)
(-0.0518066 0.0373915 0)
(-0.0542724 0.0387085 0)
(5.00128e-07 1.42615e-05 0)
(4.74582e-06 3.83171e-05 0)
(1.26151e-05 5.89403e-05 0)
(2.33679e-05 7.73929e-05 0)
(3.60733e-05 9.5015e-05 0)
(4.98414e-05 0.000112936 0)
(6.3808e-05 0.000131992 0)
(7.71023e-05 0.000152759 0)
(8.88319e-05 0.000175565 0)
(9.80795e-05 0.000200484 0)
(0.000103878 0.000227336 0)
(0.000105228 0.000255679 0)
(0.000101158 0.000284785 0)
(9.09032e-05 0.000313557 0)
(7.37885e-05 0.000340506 0)
(4.77725e-05 0.000364039 0)
(4.08806e-06 0.000384064 0)
(-6.68826e-05 0.000402125 0)
(-0.000163872 0.00043174 0)
(-0.000303687 0.000504318 0)
(-0.000543909 -0.00151322 0)
(0.000123768 -0.000618057 0)
(0.000540875 0.00713876 0)
(0.0010204 0.0114359 0)
(0.00251808 0.0223738 0)
(0.0049087 0.0472253 0)
(0.00598446 0.0646146 0)
(0.0054925 0.0630682 0)
(0.00312806 0.0545683 0)
(-0.000350405 0.0469136 0)
(-0.00403258 0.0422904 0)
(-0.00747108 0.0404264 0)
(-0.0105218 0.0405013 0)
(-0.0131882 0.0418405 0)
(-0.015537 0.0439459 0)
(-0.0176849 0.0464037 0)
(-0.0197626 0.0489072 0)
(-0.0218542 0.0512877 0)
(-0.0239901 0.0534789 0)
(-0.0261772 0.0554789 0)
(-0.0284154 0.057318 0)
(-0.030702 0.0590342 0)
(-0.0330318 0.06066 0)
(-0.0353977 0.0622185 0)
(-0.0377927 0.063724 0)
(-0.0402101 0.0651836 0)
(-0.0426442 0.0665994 0)
(-0.0450906 0.0679692 0)
(-0.0475453 0.0692874 0)
(-0.0500052 0.0705464 0)
(1.84996e-06 -5.65044e-05 0)
(1.64398e-05 -0.000151358 0)
(4.36527e-05 -0.000227794 0)
(8.15558e-05 -0.000285203 0)
(0.000127844 -0.000322604 0)
(0.000180497 -0.000339008 0)
(0.000237685 -0.000333517 0)
(0.000297641 -0.000305292 0)
(0.000358602 -0.000253523 0)
(0.000418799 -0.000177419 0)
(0.000476445 -7.61924e-05 0)
(0.000529688 5.09468e-05 0)
(0.000576554 0.000204799 0)
(0.000614977 0.000386178 0)
(0.000643182 0.000595906 0)
(0.000660306 0.000834833 0)
(0.000665015 0.00110397 0)
(0.000645825 0.00140504 0)
(0.000567434 0.00174001 0)
(0.000380252 0.0021576 0)
(7.16927e-05 0.00230159 0)
(-0.000260588 0.0020807 0)
(-0.00038698 0.0049843 0)
(-0.000185425 0.00583371 0)
(0.000423033 0.00725892 0)
(0.0014703 0.0133426 0)
(0.0033409 0.0274485 0)
(0.00615247 0.0629897 0)
(0.00722444 0.0897931 0)
(0.00793128 0.0995178 0)
(0.00691189 0.0975988 0)
(0.00485141 0.0903181 0)
(0.00265101 0.0827413 0)
(0.000500859 0.0763264 0)
(-0.00154749 0.071594 0)
(-0.00347943 0.0698351 0)
(-0.00526853 0.071294 0)
(-0.00711235 0.0739855 0)
(-0.00916895 0.0768094 0)
(-0.0114556 0.0796059 0)
(-0.013856 0.0823314 0)
(-0.0162672 0.0849522 0)
(-0.0186437 0.087417 0)
(-0.0209911 0.0896928 0)
(-0.0233366 0.0917829 0)
(-0.0257024 0.0937077 0)
(-0.0280984 0.0954886 0)
(-0.030525 0.0971415 0)
(-0.0329773 0.0986764 0)
(-0.0354484 0.100097 0)
(7.81162e-07 -0.000182639 0)
(5.06213e-06 -0.000494659 0)
(1.28504e-05 -0.000756221 0)
(2.36548e-05 -0.000969311 0)
(3.70134e-05 -0.00113501 0)
(5.2507e-05 -0.00125399 0)
(6.97115e-05 -0.00132664 0)
(8.81708e-05 -0.00135309 0)
(0.000107398 -0.00133316 0)
(0.000126883 -0.00126639 0)
(0.000146097 -0.00115204 0)
(0.000164495 -0.000989062 0)
(0.000181511 -0.000776108 0)
(0.000196525 -0.000511515 0)
(0.000208845 -0.000193284 0)
(0.000217866 0.000180913 0)
(0.000223773 0.000613694 0)
(0.000228167 0.00110809 0)
(0.000230823 0.00166837 0)
(0.000217232 0.00230125 0)
(0.00011429 0.00269752 0)
(-5.72764e-05 0.00307902 0)
(-0.000207615 0.0039238 0)
(-0.000233641 0.00344326 0)
(-8.56227e-05 0.00394225 0)
(4.9632e-05 0.00810319 0)
(0.000438003 0.0119716 0)
(0.00160222 0.019564 0)
(0.00472065 0.025561 0)
(0.00929208 0.0431202 0)
(0.0160263 0.0837118 0)
(0.0157956 0.0992176 0)
(0.0192437 0.0930476 0)
(0.0217771 0.0911316 0)
(0.0253109 0.0943301 0)
(0.0222627 0.0929037 0)
(0.0204866 0.0918396 0)
(0.0220837 0.0995595 0)
(0.0210689 0.109881 0)
(0.0202469 0.116873 0)
(0.0191417 0.120243 0)
(0.0172999 0.121421 0)
(0.0145665 0.121974 0)
(0.01114 0.122958 0)
(0.00742904 0.12457 0)
(0.00370772 0.126549 0)
(8.59505e-05 0.128595 0)
(-0.00340967 0.130535 0)
(-0.00678871 0.132281 0)
(-0.0100714 0.133802 0)
(-1.36427e-06 -0.000100047 0)
(-4.94395e-06 -0.000276934 0)
(-9.00529e-06 -0.000428794 0)
(-1.23232e-05 -0.000553619 0)
(-1.41237e-05 -0.000649216 0)
(-1.38083e-05 -0.000713601 0)
(-1.08186e-05 -0.000745026 0)
(-4.59562e-06 -0.000741927 0)
(5.42816e-06 -0.000702871 0)
(1.98353e-05 -0.000626525 0)
(3.92344e-05 -0.000511637 0)
(6.42733e-05 -0.000357008 0)
(9.56525e-05 -0.000161484 0)
(0.000134146 7.60639e-05 0)
(0.00018061 0.000356752 0)
(0.000235913 0.000681691 0)
(0.000301094 0.00105198 0)
(0.000377289 0.00146866 0)
(0.000466256 0.00193263 0)
(0.000570258 0.0024449 0)
(0.000686361 0.00300749 0)
(0.000792571 0.00362905 0)
(0.000815714 0.00425379 0)
(0.000743901 0.00445152 0)
(0.000693683 0.00489849 0)
(0.00077055 0.00477025 0)
(0.00114186 0.00386182 0)
(0.00161417 0.00178173 0)
(0.00245346 -0.0104392 0)
(0.00501498 -0.0170507 0)
(0.00755402 0.00360712 0)
(0.00951472 0.0103426 0)
(0.0127717 0.0131972 0)
(0.0172024 0.0311147 0)
(0.0192236 0.0655238 0)
(0.0195926 0.113117 0)
(0.0201702 0.0924664 0)
(0.0222791 0.0916683 0)
(0.0243432 0.0939929 0)
(0.0269873 0.0989615 0)
(0.0302573 0.113908 0)
(0.0330949 0.140093 0)
(0.0350496 0.164488 0)
(0.0358443 0.178648 0)
(0.0349146 0.184111 0)
(0.0323016 0.184926 0)
(0.0286888 0.183925 0)
(0.0246061 0.182578 0)
(0.0203398 0.181489 0)
(0.016036 0.180785 0)
(1.91013e-06 -0.00016952 0)
(8.82466e-06 -0.000475682 0)
(2.00287e-05 -0.000749782 0)
(3.48634e-05 -0.000992186 0)
(5.33305e-05 -0.00120277 0)
(7.57272e-05 -0.00138143 0)
(0.000102471 -0.00152815 0)
(0.000134042 -0.00164294 0)
(0.000170987 -0.00172584 0)
(0.000213919 -0.00177694 0)
(0.000263519 -0.00179629 0)
(0.000320528 -0.00178396 0)
(0.000385748 -0.00174001 0)
(0.000460036 -0.00166446 0)
(0.000544297 -0.00155731 0)
(0.000639463 -0.00141854 0)
(0.000746477 -0.00124807 0)
(0.000866457 -0.00104579 0)
(0.00100062 -0.000811553 0)
(0.00115014 -0.000545196 0)
(0.00131643 -0.000246535 0)
(0.00150058 8.50366e-05 0)
(0.00170172 0.000451707 0)
(0.00191084 0.000860181 0)
(0.00210824 0.00134341 0)
(0.0022164 0.00141617 0)
(0.00225988 0.00156767 0)
(0.00232316 0.0012996 0)
(0.0022144 0.000460864 0)
(0.00139471 0.00146028 0)
(0.00100909 0.0103523 0)
(0.00123454 0.0174938 0)
(0.00130379 0.0251574 0)
(0.00156612 0.0326911 0)
(0.00319236 0.040145 0)
(0.00626886 0.0443305 0)
(0.00967383 0.0449613 0)
(0.0129258 0.0458271 0)
(0.0159085 0.0469421 0)
(0.0189379 0.0484676 0)
(0.0223581 0.0513189 0)
(0.0266056 0.0582386 0)
(0.0317423 0.0773552 0)
(0.0355332 0.12142 0)
(0.0359997 0.169486 0)
(0.0348139 0.202376 0)
(0.032435 0.221562 0)
(0.0290968 0.231806 0)
(0.0251855 0.236617 0)
(0.0210258 0.238208 0)
(-3.20862e-06 -0.00014291 0)
(-2.17983e-05 -0.000403755 0)
(-5.46931e-05 -0.000640844 0)
(-9.93164e-05 -0.000854895 0)
(-0.000153246 -0.00104608 0)
(-0.000214578 -0.0012146 0)
(-0.000281698 -0.00136074 0)
(-0.000353117 -0.00148483 0)
(-0.000427429 -0.00158722 0)
(-0.000503302 -0.00166825 0)
(-0.000579463 -0.00172825 0)
(-0.000654688 -0.00176754 0)
(-0.000727786 -0.00178636 0)
(-0.000797586 -0.00178496 0)
(-0.000862926 -0.00176351 0)
(-0.000922642 -0.00172214 0)
(-0.000975558 -0.00166091 0)
(-0.00102048 -0.00157981 0)
(-0.00105617 -0.00147879 0)
(-0.00108138 -0.00135768 0)
(-0.00109479 -0.00121621 0)
(-0.00109499 -0.00105403 0)
(-0.00108029 -0.00087057 0)
(-0.00104898 -0.000664907 0)
(-0.000999256 -0.000435176 0)
(-0.000933048 -0.000178542 0)
(-0.000861107 0.000116221 0)
(-0.00084683 0.000129357 0)
(-0.000881576 0.000171905 0)
(-0.000921105 0.000300705 0)
(-0.000981888 0.00207561 0)
(-0.000448397 0.00693431 0)
(0.000646826 0.0102711 0)
(0.00197057 0.0118415 0)
(0.00380057 0.0142067 0)
(0.00592242 0.0165768 0)
(0.0076794 0.0176391 0)
(0.00915416 0.0186452 0)
(0.0108297 0.0200079 0)
(0.0126247 0.0221621 0)
(0.0140928 0.0259918 0)
(0.0148265 0.0341532 0)
(0.0135572 0.0567704 0)
(0.00937043 0.116171 0)
(0.00643557 0.180122 0)
(0.0039843 0.226059 0)
(0.00140109 0.255601 0)
(-0.00119058 0.272917 0)
(-0.0037877 0.281696 0)
(-0.00645619 0.284879 0)
(0.625605 -0.70826 0)
(0.657544 -0.63313 0)
(0.690991 -0.544737 0)
(0.726059 -0.445076 0)
(0.763736 -0.334599 0)
(0.803619 -0.217363 0)
(0.84753 -0.0945378 0)
(0.896562 0.0357628 0)
(0.950104 0.173723 0)
(1.00776 0.320386 0)
(1.06884 0.476343 0)
(1.13337 0.641003 0)
(1.20129 0.812223 0)
(1.27247 0.988832 0)
(1.34682 1.17093 0)
(1.42317 1.35739 0)
(1.50041 1.54671 0)
(1.57779 1.73785 0)
(1.65414 1.92911 0)
(1.72855 2.11864 0)
(1.80038 2.30495 0)
(1.8689 2.48608 0)
(1.93349 2.65979 0)
(1.9936 2.82409 0)
(2.0488 2.97734 0)
(2.09871 3.11802 0)
(2.14309 3.24473 0)
(2.18183 3.35641 0)
(2.21497 3.45237 0)
(2.24257 3.53231 0)
(2.2648 3.5962 0)
(2.28188 3.64429 0)
(2.29412 3.67703 0)
(2.30184 3.69504 0)
(2.30541 3.69913 0)
(2.3052 3.69033 0)
(2.30162 3.66983 0)
(2.29506 3.63874 0)
(2.2859 3.59803 0)
(2.27452 3.54862 0)
(2.26128 3.4915 0)
(2.24653 3.42782 0)
(2.23058 3.35861 0)
(2.21372 3.28465 0)
(2.19622 3.20647 0)
(2.17831 3.12467 0)
(2.16024 3.04056 0)
(2.1422 2.95539 0)
(2.12428 2.86939 0)
(2.10674 2.78225 0)
(0.355406 -1.00007 0)
(0.368029 -0.938952 0)
(0.382312 -0.864237 0)
(0.397887 -0.781077 0)
(0.414988 -0.692581 0)
(0.433644 -0.598508 0)
(0.453821 -0.495938 0)
(0.475492 -0.381268 0)
(0.497493 -0.256719 0)
(0.520758 -0.128152 0)
(0.546093 0.00119784 0)
(0.572568 0.13136 0)
(0.601297 0.262194 0)
(0.63277 0.395631 0)
(0.666843 0.53599 0)
(0.702945 0.685217 0)
(0.74099 0.843554 0)
(0.781019 1.01063 0)
(0.822778 1.18535 0)
(0.866043 1.36636 0)
(0.910646 1.55224 0)
(0.956332 1.74114 0)
(1.0028 1.9308 0)
(1.0497 2.11865 0)
(1.09673 2.30213 0)
(1.14359 2.47874 0)
(1.18993 2.64607 0)
(1.23548 2.80194 0)
(1.27989 2.9446 0)
(1.32292 3.07285 0)
(1.36443 3.18588 0)
(1.40416 3.28308 0)
(1.44195 3.36411 0)
(1.47766 3.42899 0)
(1.51126 3.47812 0)
(1.54272 3.51206 0)
(1.57202 3.53149 0)
(1.59918 3.53718 0)
(1.62423 3.53002 0)
(1.64724 3.51095 0)
(1.6683 3.48101 0)
(1.68751 3.44138 0)
(1.70495 3.39323 0)
(1.72078 3.33735 0)
(1.73511 3.2745 0)
(1.74801 3.20582 0)
(1.75963 3.13238 0)
(1.7701 3.05501 0)
(1.77956 2.97431 0)
(1.78816 2.89048 0)
(-0.238408 -0.909371 0)
(-0.260866 -0.867342 0)
(-0.281275 -0.814559 0)
(-0.299324 -0.755197 0)
(-0.314467 -0.690277 0)
(-0.327024 -0.616265 0)
(-0.33745 -0.529329 0)
(-0.345495 -0.430899 0)
(-0.350901 -0.326437 0)
(-0.354009 -0.217861 0)
(-0.354874 -0.104766 0)
(-0.353557 0.0126533 0)
(-0.349841 0.133863 0)
(-0.343859 0.258502 0)
(-0.33571 0.387744 0)
(-0.325222 0.522488 0)
(-0.31225 0.661874 0)
(-0.296551 0.805389 0)
(-0.277865 0.952875 0)
(-0.255984 1.10381 0)
(-0.230729 1.25731 0)
(-0.201951 1.41216 0)
(-0.169545 1.56694 0)
(-0.133631 1.72008 0)
(-0.0942311 1.87011 0)
(-0.0515037 2.01558 0)
(-0.00562604 2.15502 0)
(0.0430371 2.28677 0)
(0.0944081 2.40942 0)
(0.148149 2.52216 0)
(0.203515 2.62428 0)