/*--------------------------------*- C++ -*----------------------------------*\
| =========                 |                                                 |
| \\      /  F ield         | OpenFOAM: The Open Source CFD Toolbox           |
|  \\    /   O peration     | Version:  2.4.0                                 |
|   \\  /    A nd           | Web:      www.OpenFOAM.org                      |
|    \\/     M anipulation  |                                                 |
\*---------------------------------------------------------------------------*/
FoamFile
{
    version     2.0;
    format      ascii;
    class       volScalarField;
    location    "0.004";
    object      p;
}
// * * * * * * * * * * * * * * * * * * * * * * * * * * * * * * * * * * * * * //

dimensions      [1 -1 -2 0 0 0 0];

internalField   nonuniform List<scalar> 
125
(
-0.0426434
0.0472047
-0.732349
-0.106989
0.00746322
-0.01177
-0.0268644
-0.0298693
-0.0292583
-0.0288188
-0.0288375
-0.0289897
-0.0291349
-0.0292631
-0.0293868
-0.0295112
-0.0296368
-0.029763
-0.0298897
-0.0300169
-0.0301444
-0.0302725
-0.030401
-0.03053
-0.0306595
-0.0307895
-0.0309199
-0.0310508
-0.0311822
-0.0313141
-0.0314464
-0.0315793
-0.0317126
-0.0318465
-0.0319808
-0.0321156
-0.0322509
-0.0323867
-0.032523
-0.0326598
-0.0327972
-0.032935
-0.0330733
-0.0332121
-0.0333515
-0.0334914
-0.0336317
-0.0337726
-0.033914
-0.034056
-0.0341984
-0.0343414
-0.0344849
-0.034629
-0.0347735
-0.0349186
-0.0350643
-0.0352104
-0.0353571
-0.0355044
-0.0356522
-0.0358005
-0.0359494
-0.0360988
-0.0362488
-0.0363993
-0.0365504
-0.036702
-0.0368542
-0.037007
-0.0371603
-0.0373142
-0.0374686
-0.0376237
-0.0377792
-0.0379354
-0.0380921
-0.0382495
-0.0384074
-0.0385658
-0.0387249
-0.0388845
-0.0390448
-0.0392056
-0.039367
-0.039529
-0.0396916
-0.0398548
-0.0400186
-0.040183
-0.040348
-0.0405136
-0.0406799
-0.0408467
-0.0410141
-0.0411822
-0.0413509
-0.0415202
-0.0416901
-0.0418607
-0.0420319
-0.0422037
-0.0423762
-0.0425492
-0.042723
-0.0428973
-0.0430723
-0.043248
-0.0434243
-0.0436012
-0.0437788
-0.043957
-0.0441359
-0.0443155
-0.0444957
-0.0446766
-0.0448582
-0.0450404
-0.0452233
-0.0454068
-0.0455911
-0.045776
-0.0459616
-0.0461478
-0.0463347
)
;

boundaryField
{
    BotWall
    {
        type            calculated;
        value           uniform -0.0377;
    }
    FreeStream
    {
        type            calculated;
        value           nonuniform 0();
    }
    FrontNBack
    {
        type            empty;
    }
    LeftSide
    {
        type            symmetryPlane;
    }
    RightSide
    {
        type            symmetryPlane;
    }
    procBoundary11to8
    {
        type            processor;
        value           nonuniform List<scalar> 
50
(
-0.0380263
-0.0381826
-0.0383394
-0.0384968
-0.0386547
-0.0388133
-0.0389724
-0.0391322
-0.0392925
-0.0394534
-0.0396149
-0.039777
-0.0399397
-0.040103
-0.0402669
-0.0404314
-0.0405965
-0.0407623
-0.0409286
-0.0410956
-0.0412631
-0.0414313
-0.0416001
-0.0417696
-0.0419396
-0.0421103
-0.0422816
-0.0424536
-0.0426262
-0.0427994
-0.0429733
-0.0431478
-0.0433229
-0.0434987
-0.0436752
-0.0438523
-0.04403
-0.0442084
-0.0443875
-0.0445672
-0.0447476
-0.0449287
-0.0451104
-0.0452928
-0.0454759
-0.0456596
-0.0458441
-0.0460292
-0.046215
-0.0464014
)
;
    }
    procBoundary11to9
    {
        type            processor;
        value           nonuniform List<scalar> 
75
(
-0.0420781
0.0423244
-0.719447
-0.105048
0.00688223
-0.0121299
-0.0270151
-0.0299707
-0.0293671
-0.0289351
-0.0289551
-0.0291067
-0.0292512
-0.029379
-0.0295023
-0.0296263
-0.0297515
-0.0298774
-0.0300037
-0.0301304
-0.0302576
-0.0303853
-0.0305134
-0.0306421
-0.0307711
-0.0309007
-0.0310307
-0.0311613
-0.0312923
-0.0314237
-0.0315557
-0.0316882
-0.0318211
-0.0319545
-0.0320885
-0.0322229
-0.0323578
-0.0324932
-0.0326291
-0.0327655
-0.0329025
-0.0330399
-0.0331778
-0.0333163
-0.0334552
-0.0335947
-0.0337346
-0.0338751
-0.0340161
-0.0341577
-0.0342997
-0.0344423
-0.0345854
-0.034729
-0.0348732
-0.0350179
-0.0351631
-0.0353089
-0.0354552
-0.035602
-0.0357494
-0.0358973
-0.0360458
-0.0361948
-0.0363444
-0.0364945
-0.0366451
-0.0367964
-0.0369482
-0.0371005
-0.0372534
-0.0374069
-0.0375609
-0.0377155
-0.0378706
)
;
    }
    procBoundary11to10
    {
        type            processor;
        value           uniform -0.0465223;
    }
}


// ************************************************************************* //
