/*--------------------------------*- C++ -*----------------------------------*\
| =========                 |                                                 |
| \\      /  F ield         | OpenFOAM: The Open Source CFD Toolbox           |
|  \\    /   O peration     | Version:  2.4.0                                 |
|   \\  /    A nd           | Web:      www.OpenFOAM.org                      |
|    \\/     M anipulation  |                                                 |
\*---------------------------------------------------------------------------*/
FoamFile
{
    version     2.0;
    format      ascii;
    class       volScalarField;
    location    "0.004";
    object      T;
}
// * * * * * * * * * * * * * * * * * * * * * * * * * * * * * * * * * * * * * //

dimensions      [0 0 0 1 0 0 0];

internalField   nonuniform List<scalar> 
125
(
293.797
295.398
297.848
297.847
297.846
297.846
297.847
297.848
297.85
297.852
297.855
297.858
297.862
297.866
297.87
297.875
297.879
297.884
297.889
297.894
297.9
297.905
297.91
297.915
297.92
297.925
297.93
297.935
297.939
297.944
297.948
297.952
297.956
297.959
297.963
297.966
297.969
297.972
297.974
297.977
297.979
297.981
297.983
297.984
297.986
297.987
297.989
297.99
297.991
297.992
297.993
297.993
297.994
297.995
297.995
297.996
297.996
297.997
297.997
297.997
297.998
297.998
297.998
297.998
297.998
297.999
297.999
297.999
297.999
297.999
297.999
297.999
297.999
297.999
297.999
297.999
298
298
298
298
298
298
298
298
298
298
298
298
298
298
298
298
298
298
298
298
298
298
298
298
298
298
298
298
298
298
298
298
298
298
298
298
298
298
298
298
298
298
298
298
298
298
298
298
298
)
;

boundaryField
{
    BotWall
    {
        type            fixedValue;
        value           uniform 293;
    }
    FreeStream
    {
        type            fixedValue;
        value           nonuniform 0();
    }
    FrontNBack
    {
        type            empty;
    }
    LeftSide
    {
        type            symmetryPlane;
    }
    RightSide
    {
        type            symmetryPlane;
    }
    procBoundary11to8
    {
        type            processor;
        value           nonuniform List<scalar> 
50
(
297.999
298
298
298
298
298
298
298
298
298
298
298
298
298
298
298
298
298
298
298
298
298
298
298
298
298
298
298
298
298
298
298
298
298
298
298
298
298
298
298
298
298
298
298
298
298
298
298
298
298
)
;
    }
    procBoundary11to9
    {
        type            processor;
        value           nonuniform List<scalar> 
75
(
293.795
295.392
297.843
297.842
297.842
297.842
297.843
297.844
297.846
297.848
297.851
297.855
297.858
297.863
297.867
297.872
297.877
297.882
297.887
297.893
297.898
297.904
297.909
297.914
297.92
297.925
297.93
297.935
297.939
297.944
297.948
297.952
297.956
297.96
297.963
297.966
297.969
297.972
297.975
297.977
297.979
297.981
297.983
297.985
297.986
297.988
297.989
297.99
297.991
297.992
297.993
297.994
297.994
297.995
297.995
297.996
297.996
297.997
297.997
297.997
297.998
297.998
297.998
297.998
297.998
297.999
297.999
297.999
297.999
297.999
297.999
297.999
297.999
297.999
297.999
)
;
    }
    procBoundary11to10
    {
        type            processor;
        value           uniform 298;
    }
}


// ************************************************************************* //
