/*--------------------------------*- C++ -*----------------------------------*\
| =========                 |                                                 |
| \\      /  F ield         | OpenFOAM: The Open Source CFD Toolbox           |
|  \\    /   O peration     | Version:  2.4.0                                 |
|   \\  /    A nd           | Web:      www.OpenFOAM.org                      |
|    \\/     M anipulation  |                                                 |
\*---------------------------------------------------------------------------*/
FoamFile
{
    version     2.0;
    format      ascii;
    class       volVectorField;
    location    "0.004";
    object      U;
}
// * * * * * * * * * * * * * * * * * * * * * * * * * * * * * * * * * * * * * //

dimensions      [0 1 -1 0 0 0 0];

internalField   nonuniform List<vector> 
125
(
(4.54447e-07 -0.000134245 0)
(1.32795e-06 0.000495809 0)
(2.97597e-06 -0.00336776 0)
(7.48953e-06 -0.0304577 0)
(1.73739e-05 -0.0312729 0)
(2.70091e-05 -0.0264995 0)
(3.6109e-05 -0.0254525 0)
(4.45958e-05 -0.0255577 0)
(5.24368e-05 -0.025722 0)
(5.96232e-05 -0.0257629 0)
(6.61495e-05 -0.0257582 0)
(7.20129e-05 -0.0257519 0)
(7.72154e-05 -0.0257504 0)
(8.17645e-05 -0.0257506 0)
(8.56725e-05 -0.0257509 0)
(8.89569e-05 -0.025751 0)
(9.16396e-05 -0.025751 0)
(9.37468e-05 -0.0257511 0)
(9.53081e-05 -0.0257511 0)
(9.63568e-05 -0.0257511 0)
(9.69285e-05 -0.0257512 0)
(9.70613e-05 -0.0257512 0)
(9.67948e-05 -0.0257512 0)
(9.61696e-05 -0.0257513 0)
(9.52267e-05 -0.0257513 0)
(9.40072e-05 -0.0257514 0)
(9.25513e-05 -0.0257514 0)
(9.08984e-05 -0.0257514 0)
(8.90861e-05 -0.0257515 0)
(8.71503e-05 -0.0257515 0)
(8.51244e-05 -0.0257515 0)
(8.30395e-05 -0.0257515 0)
(8.09237e-05 -0.0257516 0)
(7.88025e-05 -0.0257516 0)
(7.66982e-05 -0.0257516 0)
(7.46302e-05 -0.0257516 0)
(7.2615e-05 -0.0257517 0)
(7.06662e-05 -0.0257517 0)
(6.87946e-05 -0.0257517 0)
(6.70085e-05 -0.0257517 0)
(6.53138e-05 -0.0257517 0)
(6.37141e-05 -0.0257517 0)
(6.22111e-05 -0.0257518 0)
(6.08051e-05 -0.0257518 0)
(5.94944e-05 -0.0257518 0)
(5.82766e-05 -0.0257518 0)
(5.71479e-05 -0.0257518 0)
(5.61041e-05 -0.0257518 0)
(5.51399e-05 -0.0257518 0)
(5.42502e-05 -0.0257518 0)
(5.34294e-05 -0.0257518 0)
(5.26716e-05 -0.0257518 0)
(5.19712e-05 -0.0257518 0)
(5.13228e-05 -0.0257518 0)
(5.07209e-05 -0.0257518 0)
(5.01606e-05 -0.0257518 0)
(4.96371e-05 -0.0257518 0)
(4.91461e-05 -0.0257518 0)
(4.86835e-05 -0.0257518 0)
(4.82456e-05 -0.0257518 0)
(4.78292e-05 -0.0257518 0)
(4.74314e-05 -0.0257518 0)
(4.70495e-05 -0.0257518 0)
(4.66813e-05 -0.0257518 0)
(4.63247e-05 -0.0257518 0)
(4.59781e-05 -0.0257518 0)
(4.564e-05 -0.0257517 0)
(4.5309e-05 -0.0257517 0)
(4.49841e-05 -0.0257517 0)
(4.46644e-05 -0.0257517 0)
(4.4349e-05 -0.0257517 0)
(4.40373e-05 -0.0257517 0)
(4.37288e-05 -0.0257517 0)
(4.3423e-05 -0.0257517 0)
(4.31195e-05 -0.0257517 0)
(4.28179e-05 -0.0257517 0)
(4.2518e-05 -0.0257517 0)
(4.22195e-05 -0.0257516 0)
(4.19223e-05 -0.0257516 0)
(4.16261e-05 -0.0257516 0)
(4.13309e-05 -0.0257516 0)
(4.10364e-05 -0.0257516 0)
(4.07427e-05 -0.0257516 0)
(4.04495e-05 -0.0257516 0)
(4.01568e-05 -0.0257516 0)
(3.98645e-05 -0.0257516 0)
(3.95726e-05 -0.0257515 0)
(3.92809e-05 -0.0257515 0)
(3.89895e-05 -0.0257515 0)
(3.86983e-05 -0.0257515 0)
(3.84072e-05 -0.0257515 0)
(3.81162e-05 -0.0257515 0)
(3.78252e-05 -0.0257515 0)
(3.75343e-05 -0.0257514 0)
(3.72434e-05 -0.0257514 0)
(3.69525e-05 -0.0257514 0)
(3.66615e-05 -0.0257514 0)
(3.63704e-05 -0.0257514 0)
(3.60793e-05 -0.0257514 0)
(3.57881e-05 -0.0257513 0)
(3.54968e-05 -0.0257513 0)
(3.52053e-05 -0.0257513 0)
(3.49138e-05 -0.0257513 0)
(3.46221e-05 -0.0257513 0)
(3.43304e-05 -0.0257513 0)
(3.40385e-05 -0.0257512 0)
(3.37465e-05 -0.0257512 0)
(3.34544e-05 -0.0257512 0)
(3.31622e-05 -0.0257512 0)
(3.28699e-05 -0.0257512 0)
(3.25775e-05 -0.0257511 0)
(3.22851e-05 -0.0257511 0)
(3.19926e-05 -0.0257511 0)
(3.17002e-05 -0.0257511 0)
(3.14077e-05 -0.0257511 0)
(3.11152e-05 -0.025751 0)
(3.08228e-05 -0.025751 0)
(3.05304e-05 -0.025751 0)
(3.02381e-05 -0.025751 0)
(2.9946e-05 -0.025751 0)
(2.96539e-05 -0.0257509 0)
(2.93621e-05 -0.0257509 0)
(2.90705e-05 -0.0257509 0)
(2.8779e-05 -0.0257509 0)
(2.84879e-05 -0.0257509 0)
)
;

boundaryField
{
    BotWall
    {
        type            fixedValue;
        value           uniform (0 0 0);
    }
    FreeStream
    {
        type            zeroGradient;
    }
    FrontNBack
    {
        type            empty;
    }
    LeftSide
    {
        type            symmetryPlane;
    }
    RightSide
    {
        type            symmetryPlane;
    }
    procBoundary11to8
    {
        type            processor;
        value           nonuniform List<vector> 
50
(
(-3.93049e-05 -0.0257202 0)
(-3.89197e-05 -0.0257204 0)
(-3.8537e-05 -0.0257207 0)
(-3.81566e-05 -0.025721 0)
(-3.77781e-05 -0.0257212 0)
(-3.74014e-05 -0.0257215 0)
(-3.70265e-05 -0.0257217 0)
(-3.6653e-05 -0.025722 0)
(-3.62811e-05 -0.0257222 0)
(-3.59106e-05 -0.0257225 0)
(-3.55416e-05 -0.0257228 0)
(-3.51739e-05 -0.025723 0)
(-3.48077e-05 -0.0257233 0)
(-3.4443e-05 -0.0257235 0)
(-3.40797e-05 -0.0257237 0)
(-3.37179e-05 -0.025724 0)
(-3.33577e-05 -0.0257242 0)
(-3.29991e-05 -0.0257245 0)
(-3.26422e-05 -0.0257247 0)
(-3.22869e-05 -0.025725 0)
(-3.19334e-05 -0.0257252 0)
(-3.15817e-05 -0.0257254 0)
(-3.12319e-05 -0.0257257 0)
(-3.0884e-05 -0.0257259 0)
(-3.05381e-05 -0.0257261 0)
(-3.01942e-05 -0.0257264 0)
(-2.98523e-05 -0.0257266 0)
(-2.95126e-05 -0.0257268 0)
(-2.91751e-05 -0.0257271 0)
(-2.88398e-05 -0.0257273 0)
(-2.85067e-05 -0.0257275 0)
(-2.8176e-05 -0.0257277 0)
(-2.78477e-05 -0.025728 0)
(-2.75217e-05 -0.0257282 0)
(-2.71982e-05 -0.0257284 0)
(-2.68771e-05 -0.0257286 0)
(-2.65586e-05 -0.0257288 0)
(-2.62426e-05 -0.0257291 0)
(-2.59292e-05 -0.0257293 0)
(-2.56184e-05 -0.0257295 0)
(-2.53102e-05 -0.0257297 0)
(-2.50047e-05 -0.0257299 0)
(-2.47019e-05 -0.0257301 0)
(-2.44017e-05 -0.0257303 0)
(-2.41043e-05 -0.0257305 0)
(-2.38097e-05 -0.0257307 0)
(-2.35178e-05 -0.0257309 0)
(-2.32287e-05 -0.0257311 0)
(-2.29424e-05 -0.0257313 0)
(-2.26588e-05 -0.0257315 0)
)
;
    }
    procBoundary11to9
    {
        type            processor;
        value           nonuniform List<vector> 
75
(
(-5.39127e-07 -0.000130078 0)
(-1.57639e-06 0.000481265 0)
(-3.55155e-06 -0.0033544 0)
(-8.91462e-06 -0.0304555 0)
(-2.03544e-05 -0.0311187 0)
(-3.1517e-05 -0.0264279 0)
(-4.20545e-05 -0.0253955 0)
(-5.18752e-05 -0.0255007 0)
(-6.09411e-05 -0.025663 0)
(-6.92434e-05 -0.0257037 0)
(-7.67766e-05 -0.0256994 0)
(-8.35378e-05 -0.0256937 0)
(-8.95296e-05 -0.0256927 0)
(-9.47603e-05 -0.0256935 0)
(-9.92441e-05 -0.0256943 0)
(-0.000103 -0.0256949 0)
(-0.000106054 -0.0256956 0)
(-0.000108433 -0.0256962 0)
(-0.000110172 -0.0256969 0)
(-0.000111307 -0.0256975 0)
(-0.000111879 -0.0256982 0)
(-0.00011193 -0.0256989 0)
(-0.000111504 -0.0256995 0)
(-0.000110649 -0.0257002 0)
(-0.000109409 -0.0257009 0)
(-0.000107832 -0.0257015 0)
(-0.000105963 -0.0257022 0)
(-0.000103849 -0.0257028 0)
(-0.000101533 -0.0257034 0)
(-9.90568e-05 -0.025704 0)
(-9.64596e-05 -0.0257046 0)
(-9.37785e-05 -0.0257052 0)
(-9.10474e-05 -0.0257057 0)
(-8.82973e-05 -0.0257063 0)
(-8.55559e-05 -0.0257068 0)
(-8.28477e-05 -0.0257073 0)
(-8.01938e-05 -0.0257078 0)
(-7.7612e-05 -0.0257082 0)
(-7.51174e-05 -0.0257087 0)
(-7.27215e-05 -0.0257091 0)
(-7.04334e-05 -0.0257095 0)
(-6.82595e-05 -0.0257099 0)
(-6.62038e-05 -0.0257103 0)
(-6.42682e-05 -0.0257107 0)
(-6.24525e-05 -0.0257111 0)
(-6.07552e-05 -0.0257114 0)
(-5.91732e-05 -0.0257118 0)
(-5.77024e-05 -0.0257121 0)
(-5.63376e-05 -0.0257125 0)
(-5.50732e-05 -0.0257128 0)
(-5.39029e-05 -0.0257131 0)
(-5.28202e-05 -0.0257134 0)
(-5.18184e-05 -0.0257138 0)
(-5.08907e-05 -0.0257141 0)
(-5.00305e-05 -0.0257144 0)
(-4.92314e-05 -0.0257147 0)
(-4.84874e-05 -0.025715 0)
(-4.77924e-05 -0.0257153 0)
(-4.71412e-05 -0.0257155 0)
(-4.65286e-05 -0.0257158 0)
(-4.595e-05 -0.0257161 0)
(-4.5401e-05 -0.0257164 0)
(-4.4878e-05 -0.0257167 0)
(-4.43774e-05 -0.025717 0)
(-4.38962e-05 -0.0257172 0)
(-4.34316e-05 -0.0257175 0)
(-4.29812e-05 -0.0257178 0)
(-4.25431e-05 -0.0257181 0)
(-4.21152e-05 -0.0257183 0)
(-4.16962e-05 -0.0257186 0)
(-4.12847e-05 -0.0257189 0)
(-4.08795e-05 -0.0257191 0)
(-4.04796e-05 -0.0257194 0)
(-4.00843e-05 -0.0257197 0)
(-3.96929e-05 -0.0257199 0)
)
;
    }
    procBoundary11to10
    {
        type            processor;
        value           uniform (2.81971e-05 -0.0257508 0);
    }
}


// ************************************************************************* //
