/*--------------------------------*- C++ -*----------------------------------*\
| =========                 |                                                 |
| \\      /  F ield         | OpenFOAM: The Open Source CFD Toolbox           |
|  \\    /   O peration     | Version:  2.4.0                                 |
|   \\  /    A nd           | Web:      www.OpenFOAM.org                      |
|    \\/     M anipulation  |                                                 |
\*---------------------------------------------------------------------------*/
FoamFile
{
    version     2.0;
    format      ascii;
    class       volScalarField;
    location    "0.9";
    object      p_rgh;
}
// * * * * * * * * * * * * * * * * * * * * * * * * * * * * * * * * * * * * * //

dimensions      [1 -1 -2 0 0 0 0];

internalField   nonuniform List<scalar> 
125
(
-0.000173816
-0.000173786
-0.000173788
-0.000173782
-0.000173824
-0.00017142
-0.000171391
-0.000171393
-0.000171386
-0.000171426
-0.000168997
-0.000168968
-0.000168971
-0.000168964
-0.000169003
-0.000166547
-0.000166519
-0.000166521
-0.000166515
-0.000166553
-0.00016407
-0.000164043
-0.000164045
-0.000164038
-0.000164075
-0.000161565
-0.000161539
-0.000161541
-0.000161534
-0.00016157
-0.000159032
-0.000159007
-0.000159009
-0.000159003
-0.000159038
-0.000156472
-0.000156447
-0.000156449
-0.000156443
-0.000156477
-0.000153882
-0.000153858
-0.000153861
-0.000153854
-0.000153888
-0.000151265
-0.000151241
-0.000151243
-0.000151237
-0.00015127
-0.000148618
-0.000148594
-0.000148597
-0.000148591
-0.000148623
-0.000145941
-0.000145919
-0.000145921
-0.000145915
-0.000145947
-0.000143235
-0.000143213
-0.000143216
-0.00014321
-0.000143241
-0.000140499
-0.000140478
-0.00014048
-0.000140474
-0.000140504
-0.000137732
-0.000137712
-0.000137714
-0.000137708
-0.000137738
-0.000134935
-0.000134915
-0.000134917
-0.000134911
-0.00013494
-0.000132106
-0.000132087
-0.000132089
-0.000132084
-0.000132112
-0.000129246
-0.000129227
-0.00012923
-0.000129224
-0.000129252
-0.000126355
-0.000126336
-0.000126339
-0.000126333
-0.00012636
-0.000123431
-0.000123413
-0.000123415
-0.00012341
-0.000123437
-0.000120474
-0.000120457
-0.000120459
-0.000120454
-0.00012048
-0.000117485
-0.000117468
-0.000117471
-0.000117466
-0.000117491
-0.000114462
-0.000114446
-0.000114449
-0.000114444
-0.000114468
-0.000111406
-0.000111391
-0.000111393
-0.000111388
-0.000111411
-0.000108316
-0.000108301
-0.000108303
-0.000108299
-0.00010832
)
;

boundaryField
{
    BotWall
    {
        type            fixedFluxPressure;
        gradient        nonuniform 0();
        value           nonuniform 0();
    }
    FreeStream
    {
        type            totalPressure;
        rho             rho;
        psi             none;
        gamma           1;
        p0              nonuniform 0();
        value           nonuniform 0();
    }
    FrontNBack
    {
        type            empty;
    }
    LeftSide
    {
        type            symmetryPlane;
    }
    RightSide
    {
        type            symmetryPlane;
    }
    procBoundary2to1
    {
        type            processor;
        value           nonuniform List<scalar> 5(-0.000176185 -0.000176155 -0.000176157 -0.00017615 -0.000176194);
    }
    procBoundary2to3
    {
        type            processor;
        value           nonuniform List<scalar> 5(-0.000105191 -0.000105177 -0.000105179 -0.000105175 -0.000105195);
    }
}


// ************************************************************************* //
