/*--------------------------------*- C++ -*----------------------------------*\
| =========                 |                                                 |
| \\      /  F ield         | OpenFOAM: The Open Source CFD Toolbox           |
|  \\    /   O peration     | Version:  2.4.0                                 |
|   \\  /    A nd           | Web:      www.OpenFOAM.org                      |
|    \\/     M anipulation  |                                                 |
\*---------------------------------------------------------------------------*/
FoamFile
{
    version     2.0;
    format      ascii;
    class       surfaceScalarField;
    location    "0.9";
    object      phi;
}
// * * * * * * * * * * * * * * * * * * * * * * * * * * * * * * * * * * * * * //

dimensions      [0 3 -1 0 0 0 0];

internalField   nonuniform List<scalar> 
220
(
1.23502e-16
-3.83536e-10
8.60289e-17
-3.83547e-10
-8.86604e-17
-3.83548e-10
-2.37695e-16
-3.83548e-10
-3.83538e-10
1.24525e-16
-3.83537e-10
8.52451e-17
-3.83547e-10
-8.85293e-17
-3.83547e-10
-2.34851e-16
-3.83548e-10
-3.83538e-10
1.25243e-16
-3.83537e-10
8.42476e-17
-3.83547e-10
-8.82506e-17
-3.83547e-10
-2.31573e-16
-3.83548e-10
-3.83538e-10
1.25695e-16
-3.83537e-10
8.30726e-17
-3.83547e-10
-8.78386e-17
-3.83547e-10
-2.27922e-16
-3.83548e-10
-3.83538e-10
1.25916e-16
-3.83537e-10
8.17546e-17
-3.83547e-10
-8.73089e-17
-3.83547e-10
-2.23966e-16
-3.83548e-10
-3.83539e-10
1.2594e-16
-3.83537e-10
8.03252e-17
-3.83547e-10
-8.66753e-17
-3.83547e-10
-2.19768e-16
-3.83547e-10
-3.83539e-10
1.25796e-16
-3.83537e-10
7.88131e-17
-3.83546e-10
-8.59501e-17
-3.83547e-10
-2.15381e-16
-3.83547e-10
-3.83539e-10
1.2551e-16
-3.83537e-10
7.72436e-17
-3.83546e-10
-8.51436e-17
-3.83546e-10
-2.1085e-16
-3.83547e-10
-3.83539e-10
1.25102e-16
-3.83537e-10
7.56381e-17
-3.83546e-10
-8.42643e-17
-3.83546e-10
-2.06217e-16
-3.83547e-10
-3.8354e-10
1.24588e-16
-3.83538e-10
7.40141e-17
-3.83546e-10
-8.33189e-17
-3.83546e-10
-2.01511e-16
-3.83547e-10
-3.8354e-10
1.23981e-16
-3.83538e-10
7.23855e-17
-3.83546e-10
-8.23122e-17
-3.83546e-10
-1.96759e-16
-3.83547e-10
-3.8354e-10
1.23287e-16
-3.83538e-10
7.07624e-17
-3.83546e-10
-8.12476e-17
-3.83546e-10
-1.91979e-16
-3.83547e-10
-3.8354e-10
1.22509e-16
-3.83538e-10
6.91515e-17
-3.83546e-10
-8.01269e-17
-3.83546e-10
-1.87183e-16
-3.83547e-10
-3.8354e-10
1.21648e-16
-3.83538e-10
6.75563e-17
-3.83546e-10
-7.89508e-17
-3.83545e-10
-1.82378e-16
-3.83546e-10
-3.8354e-10
1.207e-16
-3.83538e-10
6.59775e-17
-3.83546e-10
-7.7719e-17
-3.83545e-10
-1.77568e-16
-3.83546e-10
-3.83541e-10
1.19659e-16
-3.83538e-10
6.44134e-17
-3.83546e-10
-7.64307e-17
-3.83545e-10
-1.72751e-16
-3.83546e-10
-3.83541e-10
1.18517e-16
-3.83538e-10
6.28603e-17
-3.83546e-10
-7.50846e-17
-3.83545e-10
-1.67926e-16
-3.83546e-10
-3.83541e-10
1.17264e-16
-3.83538e-10
6.13126e-17
-3.83546e-10
-7.36793e-17
-3.83545e-10
-1.63086e-16
-3.83546e-10
-3.83541e-10
1.1589e-16
-3.83539e-10
5.97636e-17
-3.83546e-10
-7.22137e-17
-3.83545e-10
-1.58225e-16
-3.83546e-10
-3.83541e-10
1.14382e-16
-3.83539e-10
5.82055e-17
-3.83546e-10
-7.06869e-17
-3.83545e-10
-1.53335e-16
-3.83546e-10
-3.83541e-10
1.12728e-16
-3.83539e-10
5.66297e-17
-3.83546e-10
-6.90985e-17
-3.83545e-10
-1.48413e-16
-3.83546e-10
-3.83542e-10
1.10916e-16
-3.83539e-10
5.50273e-17
-3.83546e-10
-6.74456e-17
-3.83544e-10
-1.43464e-16
-3.83546e-10
-3.83542e-10
1.08934e-16
-3.83539e-10
5.33886e-17
-3.83546e-10
-6.57147e-17
-3.83544e-10
-1.3847e-16
-3.83546e-10
-3.83542e-10
1.0677e-16
-3.83539e-10
5.17047e-17
-3.83546e-10
-6.39225e-17
-3.83544e-10
-1.33468e-16
-3.83546e-10
-3.83542e-10
1.04413e-16
4.99658e-17
-6.20469e-17
-1.28399e-16
)
;

boundaryField
{
    BotWall
    {
        type            calculated;
        value           nonuniform 0();
    }
    FreeStream
    {
        type            calculated;
        value           nonuniform 0();
    }
    FrontNBack
    {
        type            empty;
        value           nonuniform 0();
    }
    LeftSide
    {
        type            symmetryPlane;
        value           uniform 0;
    }
    RightSide
    {
        type            symmetryPlane;
        value           uniform 0;
    }
    procBoundary2to1
    {
        type            processor;
        value           nonuniform List<scalar> 5(3.83536e-10 3.83547e-10 3.83548e-10 3.83548e-10 3.83538e-10);
    }
    procBoundary2to3
    {
        type            processor;
        value           nonuniform List<scalar> 5(-3.83539e-10 -3.83545e-10 -3.83544e-10 -3.83546e-10 -3.83542e-10);
    }
}


// ************************************************************************* //
