/*--------------------------------*- C++ -*----------------------------------*\
| =========                 |                                                 |
| \\      /  F ield         | OpenFOAM: The Open Source CFD Toolbox           |
|  \\    /   O peration     | Version:  2.4.0                                 |
|   \\  /    A nd           | Web:      www.OpenFOAM.org                      |
|    \\/     M anipulation  |                                                 |
\*---------------------------------------------------------------------------*/
FoamFile
{
    version     2.0;
    format      ascii;
    class       volScalarField;
    location    "3.5";
    object      H;
}
// * * * * * * * * * * * * * * * * * * * * * * * * * * * * * * * * * * * * * //

dimensions      [0 2 -2 0 0 0 0];

internalField   nonuniform List<scalar> 
125
(
-7.97318
-7.96783
-7.96221
-7.96543
-7.97398
-7.89013
-7.88491
-7.87947
-7.8826
-7.89088
-7.80386
-7.79878
-7.79352
-7.79656
-7.80457
-7.71433
-7.70939
-7.7043
-7.70725
-7.715
-7.62149
-7.61668
-7.61176
-7.61463
-7.62211
-7.52528
-7.52061
-7.51585
-7.51864
-7.52587
-7.42566
-7.42112
-7.41653
-7.41923
-7.42621
-7.3226
-7.31819
-7.31375
-7.31637
-7.32311
-7.21603
-7.21175
-7.20747
-7.21001
-7.21651
-7.10594
-7.10179
-7.09766
-7.10012
-7.10639
-6.99228
-6.98826
-6.98428
-6.98666
-6.9927
-6.87503
-6.87113
-6.8673
-6.86961
-6.87542
-6.75416
-6.75039
-6.74669
-6.74893
-6.75452
-6.62965
-6.626
-6.62244
-6.6246
-6.62998
-6.50148
-6.49795
-6.49453
-6.49662
-6.50179
-6.36964
-6.36623
-6.36295
-6.36496
-6.36992
-6.23413
-6.23084
-6.22768
-6.22962
-6.23439
-6.09494
-6.09177
-6.08874
-6.09061
-6.09518
-5.95208
-5.94902
-5.94612
-5.94792
-5.9523
-5.80556
-5.80262
-5.79984
-5.80157
-5.80576
-5.6554
-5.65257
-5.64992
-5.65157
-5.65558
-5.50163
-5.49891
-5.49637
-5.49796
-5.50179
-5.34427
-5.34167
-5.33925
-5.34077
-5.34442
-5.18338
-5.18089
-5.17857
-5.18003
-5.18351
-5.01899
-5.01661
-5.01441
-5.0158
-5.01911
)
;

boundaryField
{
    BotWall
    {
        type            zeroGradient;
    }
    FreeStream
    {
        type            zeroGradient;
    }
    FrontNBack
    {
        type            empty;
    }
    LeftSide
    {
        type            symmetryPlane;
    }
    RightSide
    {
        type            symmetryPlane;
    }
    procBoundary2to1
    {
        type            processor;
        value           nonuniform List<scalar> 5(-8.05267 -8.04717 -8.04138 -8.04468 -8.05351);
    }
    procBoundary2to3
    {
        type            processor;
        value           nonuniform List<scalar> 5(-4.85087 -4.8486 -4.8465 -4.84783 -4.85098);
    }
}


// ************************************************************************* //
