/*--------------------------------*- C++ -*----------------------------------*\
| =========                 |                                                 |
| \\      /  F ield         | OpenFOAM: The Open Source CFD Toolbox           |
|  \\    /   O peration     | Version:  2.4.0                                 |
|   \\  /    A nd           | Web:      www.OpenFOAM.org                      |
|    \\/     M anipulation  |                                                 |
\*---------------------------------------------------------------------------*/
FoamFile
{
    version     2.0;
    format      ascii;
    class       volScalarField;
    location    "2.3";
    object      alpha1;
}
// * * * * * * * * * * * * * * * * * * * * * * * * * * * * * * * * * * * * * //

dimensions      [0 0 0 0 0 0 0];

internalField   nonuniform List<scalar> 
8000
(
1
1
1
1
1
1
1
1
1
1
1
1
1
1
1
1
1
1
1
0.999999
0.999998
0.999995
0.99999
0.999981
0.999938
0.489226
2.01549e-05
3.83103e-09
2.15098e-09
8.80718e-10
3.29874e-10
1.15532e-10
3.79811e-11
1.17466e-11
3.43943e-12
9.7294e-13
2.80924e-13
9.25218e-14
3.90061e-14
2.08266e-14
1.26236e-14
7.99132e-15
5.10162e-15
3.24811e-15
2.05634e-15
1.29359e-15
8.08502e-16
5.02039e-16
3.0972e-16
1.89838e-16
1
1
1
1
1
1
1
1
1
1
1
1
1
1
1
1
1
1
1
0.999999
0.999998
0.999995
0.99999
0.999975
0.999884
0.379147
1.13378e-06
3.54019e-09
1.829e-09
7.35551e-10
2.72276e-10
9.44105e-11
3.07989e-11
9.5014e-12
2.81186e-12
8.30144e-13
2.66595e-13
1.04852e-13
5.26325e-14
3.10819e-14
1.96348e-14
1.26314e-14
8.13002e-15
5.2079e-15
3.31572e-15
2.0975e-15
1.3183e-15
8.23203e-16
5.10726e-16
3.14819e-16
1
1
1
1
1
1
1
1
1
1
1
1
1
1
1
1
1
1
1
0.999999
0.999998
0.999995
0.999989
0.999976
0.999921
0.328362
3.02036e-07
3.29587e-09
1.59043e-09
6.29336e-10
2.30389e-10
7.91854e-11
2.57064e-11
7.96655e-12
2.42302e-12
7.71598e-13
2.86422e-13
1.34055e-13
7.60935e-14
4.75973e-14
3.07617e-14
1.99956e-14
1.29567e-14
8.34834e-15
5.34532e-15
3.40061e-15
2.1495e-15
1.34994e-15
8.42344e-16
5.22239e-16
1
1
1
1
1
1
1
1
1
1
1
1
1
1
1
1
1
1
1
0.999999
0.999998
0.999995
0.999988
0.99997
0.999852
0.190054
2.51009e-08
2.9003e-09
1.32269e-09
5.13868e-10
1.85712e-10
6.32725e-11
2.05238e-11
6.47302e-12
2.08514e-12
7.51327e-13
3.32405e-13
1.8089e-13
1.11476e-13
7.21867e-14
4.73447e-14
3.10287e-14
2.02356e-14
1.31169e-14
8.44868e-15
5.40703e-15
3.43823e-15
2.17229e-15
1.36366e-15
8.50565e-16
1
1
1
1
1
1
1
1
1
1
1
1
1
1
1
1
1
1
1
0.999999
0.999997
0.999994
0.999988
0.999972
0.999854
0.0934195
7.17535e-09
2.53e-09
1.11113e-09
4.263e-10
1.52904e-10
5.20185e-11
1.70741e-11
5.61123e-12
1.98696e-12
8.33963e-13
4.31214e-13
2.59332e-13
1.67437e-13
1.10613e-13
7.3296e-14
4.83875e-14
3.17609e-14
2.07169e-14
1.34269e-14
8.64635e-15
5.53208e-15
3.51677e-15
2.22126e-15
1.39398e-15
1
1
1
1
1
1
1
1
1
1
1
1
1
1
1
1
1
1
1
0.999999
0.999997
0.999994
0.999987
0.999983
0.998881
0.0111383
3.55968e-09
1.92471e-09
8.14092e-10
3.10023e-10
1.11359e-10
3.84412e-11
1.31526e-11
4.7376e-12
1.95946e-12
9.83632e-13
5.80541e-13
3.73873e-13
2.48803e-13
1.6678e-13
1.11547e-13
7.42085e-14
4.90629e-14
3.22297e-14
2.10348e-14
1.36393e-14
8.78654e-15
5.62355e-15
3.57581e-15
2.25899e-15
1
1
1
1
1
1
1
1
1
1
1
1
1
1
1
1
1
1
1
0.999999
0.999997
0.999993
0.999988
1
0.923175
0.000595819
4.7596e-09
1.59781e-09
6.35815e-10
2.41212e-10
8.75876e-11
3.12795e-11
1.15482e-11
4.75714e-12
2.33013e-12
1.34629e-12
8.61026e-13
5.75262e-13
3.89219e-13
2.63301e-13
1.77294e-13
1.18662e-13
7.89106e-14
5.21347e-14
3.42196e-14
2.23138e-14
1.44552e-14
9.30296e-15
5.94801e-15
3.77816e-15
1
1
1
1
1
1
1
1
1
1
1
1
1
1
1
1
1
1
1
0.999999
0.999997
0.999993
0.999988
1
0.876158
3.83584e-05
1.83211e-08
1.78078e-09
5.52311e-10
2.0765e-10
7.71023e-11
2.91613e-11
1.19778e-11
5.71122e-12
3.20737e-12
2.02269e-12
1.35056e-12
9.20004e-13
6.2859e-13
4.27977e-13
2.8973e-13
1.94897e-13
1.3025e-13
8.64767e-14
5.70377e-14
3.73734e-14
2.43276e-14
1.57315e-14
1.0106e-14
6.44963e-15
1
1
1
1
1
1
1
1
1
1
1
1
1
1
1
1
1
1
0.999999
0.999999
0.999997
0.999993
0.999989
1
0.87643
1.1152e-05
9.58381e-08
4.11673e-09
5.71007e-10
1.9804e-10
7.53675e-11
3.08787e-11
1.43751e-11
7.82494e-12
4.83745e-12
3.21329e-12
2.19827e-12
1.51516e-12
1.04248e-12
7.13583e-13
4.8541e-13
3.28042e-13
2.2023e-13
1.46874e-13
9.73056e-14
6.40393e-14
4.18667e-14
2.71897e-14
1.75411e-14
1.12417e-14
1
1
1
1
1
1
1
1
1
1
1
1
1
1
1
1
1
1
0.999999
0.999999
0.999997
0.999993
0.999989
1
0.922287
9.5898e-05
5.1792e-07
1.89327e-08
9.93557e-10
2.40226e-10
8.71988e-11
3.82087e-11
1.99126e-11
1.19639e-11
7.85505e-12
5.37615e-12
3.7307e-12
2.59132e-12
1.79241e-12
1.23239e-12
8.418e-13
5.71171e-13
3.84959e-13
2.57725e-13
1.71393e-13
1.1322e-13
7.42917e-14
4.84219e-14
3.13497e-14
2.01614e-14
1
1
1
1
1
1
1
1
1
1
1
1
1
1
1
1
1
1
0.999999
0.999999
0.999997
0.999993
0.999989
1
1.00018
0.0235394
3.89778e-06
1.13209e-07
3.93505e-09
5.12602e-10
1.40832e-10
5.78887e-11
3.15799e-11
2.00109e-11
1.35649e-11
9.43034e-12
6.59419e-12
4.60045e-12
3.19236e-12
2.20109e-12
1.50745e-12
1.02545e-12
6.92936e-13
4.65123e-13
3.1012e-13
2.05389e-13
1.35114e-13
8.82861e-14
5.73001e-14
3.69401e-14
1
1
1
1
1
1
1
1
1
1
1
1
1
1
1
1
1
1
1
0.999999
0.999997
0.999994
0.999989
0.999998
0.999994
0.194358
8.22182e-06
3.91004e-07
1.24057e-08
1.6662e-09
3.50258e-10
1.12425e-10
5.70579e-11
3.6233e-11
2.48221e-11
1.73757e-11
1.21989e-11
8.53352e-12
5.93462e-12
4.09998e-12
2.81328e-12
1.91727e-12
1.29781e-12
8.72584e-13
5.82756e-13
3.8659e-13
2.54734e-13
1.66718e-13
1.08374e-13
6.99731e-14
1
1
1
1
1
1
1
1
1
1
1
1
1
1
1
1
1
1
1
0.999999
0.999997
0.999994
0.99999
0.999996
1
0.437628
9.0624e-06
1.36073e-06
4.52191e-08
6.62817e-09
1.22392e-09
2.84084e-10
1.14347e-10
6.77711e-11
4.59116e-11
3.21498e-11
2.2616e-11
1.58535e-11
1.1047e-11
7.64604e-12
5.25554e-12
3.58755e-12
2.43222e-12
1.63775e-12
1.09539e-12
7.27731e-13
4.80223e-13
3.14746e-13
2.04882e-13
1.32457e-13
1
1
1
1
1
1
1
1
1
1
1
1
1
1
1
1
1
1
1
0.999999
0.999997
0.999995
0.99999
0.999995
1
0.765346
0.00165433
5.02649e-06
2.03994e-07
2.98943e-08
5.42979e-09
1.00726e-09
2.85258e-10
1.39058e-10
8.89961e-11
6.15162e-11
4.31714e-11
3.02675e-11
2.11087e-11
1.46257e-11
1.00639e-11
6.87634e-12
4.66568e-12
3.14389e-12
2.10409e-12
1.39872e-12
9.23572e-13
6.05686e-13
3.94474e-13
2.5514e-13
1
1
1
1
1
1
1
1
1
1
1
1
1
1
1
1
1
1
1
0.999999
0.999998
0.999995
0.999991
0.999994
0.999999
1.00024
0.12876
0.000245949
9.23793e-07
1.43594e-07
2.69044e-08
4.67204e-09
9.87126e-10
3.44869e-10
1.89418e-10
1.25142e-10
8.67357e-11
6.05827e-11
4.21902e-11
2.92069e-11
2.00798e-11
1.37063e-11
9.28857e-12
6.24984e-12
4.17581e-12
2.7709e-12
1.82625e-12
1.19543e-12
7.77045e-13
5.01533e-13
1
1
1
1
1
1
1
1
1
1
1
1
1
1
1
1
1
1
1
0.999999
0.999998
0.999996
0.999992
0.999993
0.999997
1.00001
0.620996
0.00167012
3.00096e-06
3.95809e-07
8.84886e-08
1.43073e-08
2.74471e-09
8.19951e-10
4.0138e-10
2.53702e-10
1.73579e-10
1.2089e-10
8.42101e-11
5.83659e-11
4.01804e-11
2.74569e-11
1.86203e-11
1.25318e-11
8.37129e-12
5.55123e-12
3.65496e-12
2.38931e-12
1.55051e-12
9.98678e-13
1
1
1
1
1
1
1
1
1
1
1
1
1
1
1
1
1
1
1
0.999999
0.999998
0.999996
0.999992
0.999992
0.999996
1
1.00056
0.0737577
6.6513e-05
1.04378e-06
3.05922e-07
4.55004e-08
7.71434e-09
1.935e-09
8.30095e-10
4.97022e-10
3.3397e-10
2.31201e-10
1.6078e-10
1.11405e-10
7.67023e-11
5.24192e-11
3.55437e-11
2.39094e-11
1.59565e-11
1.05669e-11
6.94571e-12
4.53191e-12
2.93455e-12
1.88546e-12
1
1
1
1
1
1
1
1
1
1
1
1
1
1
1
1
1
1
1
0.999999
0.999998
0.999997
0.999993
0.999992
0.999995
0.999998
1.00001
0.631429
0.00439712
3.50745e-06
1.07848e-06
1.48169e-07
2.40873e-08
5.29205e-09
1.8964e-09
1.02605e-09
6.65511e-10
4.56183e-10
3.1644e-10
2.19193e-10
1.50963e-10
1.03208e-10
6.99902e-11
4.70661e-11
3.13843e-11
2.07547e-11
1.36163e-11
8.86436e-12
5.72563e-12
3.66857e-12
1
1
1
1
1
1
1
1
1
1
1
1
1
1
1
1
1
1
1
0.999999
0.999999
0.999997
0.999994
0.999993
0.999994
0.999997
0.999999
0.999998
0.13201
0.000386586
2.86812e-06
3.70892e-07
5.09299e-08
1.01028e-08
3.46653e-09
1.85469e-09
1.19824e-09
8.20559e-10
5.69471e-10
3.94837e-10
2.72173e-10
1.86181e-10
1.2628e-10
8.48943e-11
5.65606e-11
3.73502e-11
2.44554e-11
1.58825e-11
1.02314e-11
6.53644e-12
1
1
1
1
1
1
1
1
1
1
1
1
1
1
1
1
1
1
1
0.999999
0.999999
0.999997
0.999995
0.999993
0.999994
0.999996
0.999998
0.999991
0.681153
0.00539201
8.57049e-05
6.82774e-07
9.13112e-08
1.83615e-08
6.22941e-09
3.2584e-09
2.08603e-09
1.42684e-09
9.91898e-10
6.89493e-10
4.76554e-10
3.26787e-10
2.22107e-10
1.49546e-10
9.97246e-11
6.58651e-11
4.31011e-11
2.7958e-11
1.79805e-11
1.14639e-11
1.15607e-16
6.99488e-17
4.20506e-17
2.51167e-17
1.49056e-17
8.78866e-18
5.14845e-18
2.99638e-18
1.73248e-18
9.95099e-19
5.67767e-19
3.21772e-19
1.81119e-19
1.01245e-19
5.61971e-20
3.09685e-20
1.69397e-20
9.19535e-21
4.95213e-21
2.64513e-21
1.40085e-21
7.3532e-22
3.82433e-22
1.97009e-22
1.00494e-22
5.07466e-23
2.53628e-23
1.25442e-23
6.13895e-24
2.97249e-24
1.42393e-24
6.74788e-25
3.163e-25
1.46621e-25
6.71944e-26
3.04315e-26
1.3612e-26
6.00917e-27
2.6158e-27
1.12153e-27
4.73001e-28
1.95919e-28
7.9551e-29
3.15952e-29
1.22427e-29
4.61389e-30
1.68492e-30
5.93527e-31
2.00533e-31
6.45073e-32
1.92811e-16
1.17329e-16
7.0939e-17
4.26158e-17
2.54367e-17
1.50851e-17
8.88834e-18
5.20316e-18
3.026e-18
1.74826e-18
1.00336e-18
5.71984e-19
3.23857e-19
1.82104e-19
1.01676e-19
5.63617e-20
3.10117e-20
1.69333e-20
9.17299e-21
4.92838e-21
2.62531e-21
1.38609e-21
7.25098e-22
3.75714e-22
1.92775e-22
9.79213e-23
4.92325e-23
2.44972e-23
1.20623e-23
5.87699e-24
2.83313e-24
1.35121e-24
6.37473e-25
2.9743e-25
1.37198e-25
6.25397e-26
2.81542e-26
1.25078e-26
5.47845e-27
2.36309e-27
1.00245e-27
4.17553e-28
1.70455e-28
6.80458e-29
2.64943e-29
1.00303e-29
3.67849e-30
1.30089e-30
4.41104e-31
1.42324e-31
3.21705e-16
1.96906e-16
1.1975e-16
7.23616e-17
4.34462e-17
2.59179e-17
1.53618e-17
9.04614e-18
5.29233e-18
3.07589e-18
1.77587e-18
1.01844e-18
5.80098e-19
3.28146e-19
1.84318e-19
1.02785e-19
5.68939e-20
3.12513e-20
1.70301e-20
9.20413e-21
4.93197e-21
2.61932e-21
1.37831e-21
7.18393e-22
3.70784e-22
1.89464e-22
9.58312e-23
4.79739e-23
2.37675e-23
1.16523e-23
5.65271e-24
2.71315e-24
1.28822e-24
6.04916e-25
2.80824e-25
1.28823e-25
5.8357e-26
2.6085e-26
1.14937e-26
4.98648e-27
2.12713e-27
8.90755e-28
3.65477e-28
1.46599e-28
5.73374e-29
2.17983e-29
8.02539e-30
2.84828e-30
9.68903e-31
3.13534e-31
5.27135e-16
3.24605e-16
1.98613e-16
1.20748e-16
7.294e-17
4.37783e-17
2.61064e-17
1.54673e-17
9.1043e-18
5.32376e-18
3.09246e-18
1.78432e-18
1.02255e-18
5.81954e-19
3.28869e-19
1.84506e-19
1.02745e-19
5.67762e-20
3.11247e-20
1.69217e-20
9.121e-21
4.8726e-21
2.57906e-21
1.35214e-21
7.01987e-22
3.60827e-22
1.83596e-22
9.2464e-23
4.60885e-23
2.27348e-23
1.10977e-23
5.36003e-24
2.561e-24
1.21014e-24
5.653e-25
2.60921e-25
1.18914e-25
5.34671e-26
2.36939e-26
1.03362e-26
4.43253e-27
1.86548e-27
7.69032e-28
3.09842e-28
1.21683e-28
4.64362e-29
1.71549e-29
6.10703e-30
2.08286e-30
6.75338e-31
8.69207e-16
5.38519e-16
3.31507e-16
2.02767e-16
1.23228e-16
7.44081e-17
4.46397e-17
2.6607e-17
1.57553e-17
9.26812e-18
5.41583e-18
3.14351e-18
1.81217e-18
1.03746e-18
5.89738e-19
3.32806e-19
1.86411e-19
1.03608e-19
5.71256e-20
3.12358e-20
1.69324e-20
9.09689e-21
4.8422e-21
2.55298e-21
1.33294e-21
6.89039e-22
3.52607e-22
1.78611e-22
8.95486e-23
4.44338e-23
2.18189e-23
1.06011e-23
5.09545e-24
2.42207e-24
1.1381e-24
5.28345e-25
2.42156e-25
1.09479e-25
4.87733e-26
2.13851e-26
9.21503e-27
3.89596e-27
1.61295e-27
6.52431e-28
2.57158e-28
9.8458e-29
3.64794e-29
1.30191e-29
4.44948e-30
1.44496e-30
1.41787e-15
8.84184e-16
5.47821e-16
3.37229e-16
2.06251e-16
1.25328e-16
7.566e-17
4.53774e-17
2.70365e-17
1.60021e-17
9.40799e-18
5.49382e-18
3.18618e-18
1.83499e-18
1.0493e-18
5.95641e-19
3.35582e-19
1.87599e-19
1.04029e-19
5.72058e-20
3.11853e-20
1.68481e-20
9.01812e-21
4.78114e-21
2.51018e-21
1.30485e-21
6.71496e-22
3.42069e-22
1.72481e-22
8.60771e-23
4.25119e-23
2.07749e-23
1.00431e-23
4.80123e-24
2.26876e-24
1.05906e-24
4.88006e-25
2.21775e-25
9.92935e-26
4.37426e-26
1.89335e-26
8.03833e-27
3.34084e-27
1.35616e-27
5.36249e-28
2.05896e-28
7.64722e-29
2.73466e-29
9.35986e-30
3.04184e-30
2.38426e-15
1.49485e-15
9.31148e-16
5.76256e-16
3.54312e-16
2.16433e-16
1.31347e-16
7.91884e-17
4.74277e-17
2.8217e-17
1.66753e-17
9.78786e-18
5.70575e-18
3.3029e-18
1.89833e-18
1.08307e-18
6.13281e-19
3.44559e-19
1.9202e-19
1.06115e-19
5.81325e-20
3.15604e-20
1.69756e-20
9.04395e-21
4.77152e-21
2.49259e-21
1.28911e-21
6.59992e-22
3.34474e-22
1.67774e-22
8.32866e-23
4.09102e-23
1.98783e-23
9.55118e-24
4.53576e-24
2.12758e-24
9.84982e-25
4.49651e-25
2.02186e-25
8.94329e-26
3.88573e-26
1.65551e-26
6.90263e-27
2.81008e-27
1.11396e-27
4.28635e-28
1.59477e-28
5.71025e-29
1.95586e-29
6.3567e-30
4.08924e-15
2.5758e-15
1.61193e-15
1.00219e-15
6.19041e-16
3.79882e-16
2.31596e-16
1.40266e-16
8.43914e-17
5.04369e-17
2.99419e-17
1.76546e-17
1.03382e-17
6.01152e-18
3.47065e-18
1.98903e-18
1.1313e-18
6.38424e-19
3.57361e-19
1.98354e-19
1.09139e-19
5.95101e-20
3.21484e-20
1.72022e-20
9.11551e-21
4.78286e-21
2.48461e-21
1.27778e-21
6.50502e-22
3.27789e-22
1.63468e-22
8.06636e-23
3.9373e-23
1.9003e-23
9.06401e-24
4.26978e-24
1.98486e-24
9.09656e-25
4.10544e-25
1.82226e-25
7.94278e-26
3.39387e-26
1.41875e-26
5.78885e-27
2.29919e-27
8.86039e-28
3.3002e-28
1.18238e-28
4.04979e-29
1.31508e-29
7.15722e-15
4.52688e-15
2.84448e-15
1.77567e-15
1.10123e-15
6.78485e-16
4.15285e-16
2.52513e-16
1.52524e-16
9.15153e-17
5.4541e-17
3.22847e-17
1.8979e-17
1.1079e-17
6.42114e-18
3.6942e-18
2.10925e-18
1.19487e-18
6.71384e-19
3.74067e-19
2.06597e-19
1.13075e-19
6.13149e-20
3.29325e-20
1.75172e-20
9.2263e-21
4.81138e-21
2.48403e-21
1.26956e-21
6.42265e-22
3.21568e-22
1.59305e-22
7.80629e-23
3.78209e-23
1.81071e-23
8.56044e-24
3.99311e-24
1.83598e-24
8.31119e-25
3.69932e-25
1.61651e-25
6.92256e-26
2.8994e-26
1.1849e-26
4.71182e-27
1.81726e-27
6.77112e-28
2.42551e-28
8.30076e-29
2.69086e-29
1.28801e-14
8.1741e-15
5.15338e-15
3.22763e-15
2.00824e-15
1.24132e-15
7.62233e-16
4.64958e-16
2.81741e-16
1.69582e-16
1.01387e-16
6.02043e-17
3.55037e-17
2.07907e-17
1.20877e-17
6.97616e-18
3.99562e-18
2.27055e-18
1.27977e-18
7.15242e-19
3.96247e-19
2.17543e-19
1.18326e-19
6.37495e-20
3.40144e-20
1.79715e-20
9.40152e-21
4.86934e-21
2.49669e-21
1.26715e-21
6.36489e-22
3.16331e-22
1.555e-22
7.55714e-23
3.62885e-23
1.72049e-23
8.04694e-24
3.70909e-24
1.68287e-24
7.50571e-25
3.2856e-25
1.40911e-25
5.9087e-26
2.41669e-26
9.61449e-27
3.70828e-27
1.38111e-27
4.94237e-28
1.68849e-28
5.45859e-29
2.36556e-14
1.5048e-14
9.50924e-15
5.96957e-15
3.72285e-15
2.30645e-15
1.41953e-15
8.67897e-16
5.27112e-16
3.18005e-16
1.90564e-16
1.13421e-16
6.70428e-17
3.9352e-17
2.29334e-17
1.32669e-17
7.61676e-18
4.33863e-18
2.45126e-18
1.37324e-18
7.62594e-19
4.1967e-19
2.28813e-19
1.23573e-19
6.60942e-20
3.50066e-20
1.83588e-20
9.53254e-21
4.90011e-21
2.49333e-21
1.25559e-21
6.25598e-22
3.08289e-22
1.50184e-22
7.22811e-23
3.4343e-23
1.60945e-23
7.43176e-24
3.37719e-24
1.50825e-24
6.60928e-25
2.83672e-25
1.19002e-25
4.86773e-26
1.93599e-26
7.46164e-27
2.77558e-27
9.91416e-28
3.37805e-28
1.08793e-28
4.48757e-14
2.85881e-14
1.80912e-14
1.13729e-14
7.10241e-15
4.40632e-15
2.71569e-15
1.66267e-15
1.01122e-15
6.10917e-16
3.66605e-16
2.18507e-16
1.29345e-16
7.60314e-17
4.43744e-17
2.57088e-17
1.47821e-17
8.43291e-18
4.77174e-18
2.67732e-18
1.48907e-18
8.20725e-19
4.4817e-19
2.42416e-19
1.29863e-19
6.88917e-20
3.6188e-20
1.8821e-20
9.69085e-21
4.93924e-21
2.49143e-21
1.24337e-21
6.13683e-22
2.99402e-22
1.44297e-22
6.86452e-23
3.22046e-23
1.48839e-23
6.76821e-24
3.02397e-24
1.32535e-24
5.68767e-25
2.38493e-25
9.74749e-26
3.87208e-26
1.48988e-26
5.52983e-27
1.96956e-27
6.68573e-28
2.14248e-28
8.50549e-14
5.42488e-14
3.43693e-14
2.16299e-14
1.35226e-14
8.39847e-15
5.18171e-15
3.17591e-15
1.93362e-15
1.16942e-15
7.02506e-16
4.19157e-16
2.48379e-16
1.46156e-16
8.5392e-17
4.95254e-17
2.85066e-17
1.62799e-17
9.22177e-18
5.17963e-18
2.88384e-18
1.59115e-18
8.69778e-19
4.70957e-19
2.52558e-19
1.34122e-19
7.05283e-20
3.67208e-20
1.89279e-20
9.65761e-21
4.87661e-21
2.43619e-21
1.20356e-21
5.87695e-22
2.83449e-22
1.34923e-22
6.33252e-23
2.92733e-23
1.33114e-23
5.94586e-24
2.60455e-24
1.11678e-24
4.67723e-25
1.90863e-25
7.56662e-26
2.90417e-26
1.07459e-26
3.81271e-27
1.28801e-27
4.10171e-28
1.63891e-13
1.04563e-13
6.62634e-14
4.17128e-14
2.60842e-14
1.62051e-14
1.00019e-14
6.13273e-15
3.73544e-15
2.26033e-15
1.35861e-15
8.11069e-16
4.80871e-16
2.83113e-16
1.65496e-16
9.60339e-17
5.53053e-17
3.16004e-17
1.7909e-17
1.00638e-17
5.60579e-18
3.09433e-18
1.69218e-18
9.1663e-19
4.91748e-19
2.61244e-19
1.37426e-19
7.15768e-20
3.69073e-20
1.88373e-20
9.51456e-21
4.75422e-21
2.34907e-21
1.14709e-21
5.53194e-22
2.63256e-22
1.23503e-22
5.70545e-23
2.59212e-23
1.15649e-23
5.05855e-24
2.16513e-24
9.04839e-25
3.68291e-25
1.45565e-25
5.56712e-26
2.05126e-26
7.24147e-27
2.43137e-27
7.6834e-28
3.21462e-13
2.04624e-13
1.29361e-13
8.12263e-14
5.06575e-14
3.13899e-14
1.93253e-14
1.18217e-14
7.18388e-15
4.33993e-15
2.60548e-15
1.55406e-15
9.20578e-16
5.41687e-16
3.16487e-16
1.83567e-16
1.05672e-16
6.03562e-17
3.41932e-17
1.92076e-17
1.06952e-17
5.90148e-18
3.22612e-18
1.74689e-18
9.36805e-19
4.97495e-19
2.61606e-19
1.36203e-19
7.02037e-20
3.5817e-20
1.80829e-20
9.03107e-21
4.45967e-21
2.17622e-21
1.04863e-21
4.98529e-22
2.336e-22
1.07762e-22
4.88773e-23
2.17642e-23
9.4981e-24
4.05463e-24
1.68936e-24
6.8522e-25
2.69751e-25
1.02693e-25
3.76372e-26
1.3204e-26
4.40013e-27
1.3775e-27
6.3854e-13
4.05316e-13
2.55417e-13
1.59806e-13
9.92644e-14
6.12637e-14
3.75725e-14
2.2895e-14
1.38515e-14
8.34964e-15
5.00519e-15
2.9803e-15
1.76272e-15
1.03557e-15
6.04299e-16
3.5013e-16
2.0136e-16
1.14895e-16
6.50286e-17
3.6494e-17
2.03006e-17
1.11904e-17
6.11103e-18
3.3055e-18
1.77072e-18
9.393e-19
4.93365e-19
2.56568e-19
1.32086e-19
6.73052e-20
3.39362e-20
1.69253e-20
8.34561e-21
4.06591e-21
1.95573e-21
9.27953e-22
4.33872e-22
1.99665e-22
9.03158e-23
4.00944e-23
1.74385e-23
7.41626e-24
3.07697e-24
1.24218e-24
4.86428e-25
1.84079e-25
6.70084e-26
2.33243e-26
7.70082e-27
2.38368e-27
1.20221e-12
7.60832e-13
4.77896e-13
2.97941e-13
1.8434e-13
1.13351e-13
6.93406e-14
4.22035e-14
2.55327e-14
1.53643e-14
9.19072e-15
5.46221e-15
3.2238e-15
1.8896e-15
1.10095e-15
6.36949e-16
3.65845e-16
2.08502e-16
1.17866e-16
6.60645e-17
3.67056e-17
2.02084e-17
1.10218e-17
5.95399e-18
3.18521e-18
1.68732e-18
8.85019e-19
4.59581e-19
2.36249e-19
1.20197e-19
6.05066e-20
3.0125e-20
1.48266e-20
7.20881e-21
3.45981e-21
1.6376e-21
7.63604e-22
3.50352e-22
1.57949e-22
6.98602e-23
3.026e-23
1.28102e-23
5.28793e-24
2.12267e-24
8.25965e-25
3.10345e-25
1.12059e-25
3.86416e-26
1.26175e-26
3.85282e-27
2.33189e-12
1.47076e-12
9.20586e-13
5.71882e-13
3.52583e-13
2.16094e-13
1.31753e-13
7.98732e-14
4.81056e-14
2.87806e-14
1.71196e-14
1.01138e-14
5.92809e-15
3.44396e-15
1.99749e-15
1.15196e-15
6.59751e-16
3.75024e-16
2.11454e-16
1.18231e-16
6.5538e-17
3.60003e-17
1.95897e-17
1.05576e-17
5.63452e-18
2.97754e-18
1.55787e-18
8.06932e-19
4.13731e-19
2.09934e-19
1.05388e-19
5.23193e-20
2.56718e-20
1.24416e-20
5.9507e-21
2.80616e-21
1.30327e-21
5.95386e-22
2.67169e-22
1.17571e-22
5.06461e-23
2.13118e-23
8.73937e-24
3.4827e-24
1.34428e-24
5.00562e-25
1.78912e-25
6.09799e-26
1.96411e-26
5.89911e-27
4.14122e-12
2.60248e-12
1.62277e-12
1.00398e-12
6.16494e-13
3.7619e-13
2.28248e-13
1.37641e-13
8.24074e-14
4.89383e-14
2.89867e-14
1.70668e-14
9.98751e-15
5.8113e-15
3.3686e-15
1.93973e-15
1.10878e-15
6.28755e-16
3.53709e-16
1.97335e-16
1.09131e-16
5.98005e-17
3.24597e-17
1.74494e-17
9.28857e-18
4.89554e-18
2.55445e-18
1.31947e-18
6.74617e-19
3.4133e-19
1.70846e-19
8.45567e-20
4.13568e-20
1.9975e-20
9.51878e-21
4.47085e-21
2.06733e-21
9.39877e-22
4.19501e-22
1.83516e-22
7.85378e-23
3.28105e-23
1.33477e-23
5.27243e-24
2.01527e-24
7.42262e-25
2.62051e-25
8.80632e-26
2.78983e-26
8.21208e-27
7.24474e-12
4.53797e-12
2.8186e-12
1.73594e-12
1.06059e-12
6.43846e-13
3.8854e-13
2.33126e-13
1.3903e-13
8.23537e-14
4.8606e-14
2.85339e-14
1.66134e-14
9.58445e-15
5.53023e-15
3.17496e-15
1.80927e-15
1.02304e-15
5.73807e-16
3.19132e-16
1.75912e-16
9.60709e-17
5.19701e-17
2.78432e-17
1.47716e-17
7.75895e-18
4.0346e-18
2.07668e-18
1.05789e-18
5.33201e-19
2.65799e-19
1.30981e-19
6.37662e-20
3.06454e-20
1.45258e-20
6.78337e-21
3.11712e-21
1.40758e-21
6.23653e-22
2.70659e-22
1.14834e-22
4.75245e-23
1.91361e-23
7.47437e-24
2.82174e-24
1.0251e-24
3.56355e-25
1.17663e-25
3.65171e-26
1.04863e-26
1.95559e-32
1.20016e-32
7.31488e-33
4.42699e-33
2.65993e-33
1.58641e-33
9.39005e-34
5.515e-34
3.21341e-34
1.85714e-34
1.06437e-34
6.04812e-35
3.40672e-35
1.90172e-35
1.05184e-35
5.76304e-36
3.12712e-36
1.68006e-36
8.93483e-37
4.70235e-37
2.44849e-37
1.26101e-37
6.42182e-38
3.2329e-38
1.6084e-38
7.90557e-39
3.83777e-39
1.83947e-39
8.7023e-40
4.06219e-40
1.87035e-40
8.49116e-41
3.79961e-41
1.67524e-41
7.27474e-42
3.11019e-42
1.30862e-42
5.41645e-43
2.20448e-43
8.81856e-44
3.4657e-44
1.33748e-44
5.06607e-45
1.8825e-45
6.85885e-46
2.44903e-46
8.56502e-47
2.93231e-47
9.82173e-48
3.21668e-48
1.02947e-48
3.21783e-49
9.81944e-50
2.92603e-50
8.53419e-51
2.46042e-51
7.25975e-52
2.42831e-52
1.10802e-52
7.46139e-53
6.38979e-53
5.98118e-53
5.74563e-53
5.55927e-53
5.39141e-53
5.23433e-53
5.08578e-53
4.94479e-53
4.81069e-53
4.68288e-53
4.5608e-53
4.44391e-53
4.33173e-53
4.22381e-53
4.11975e-53
4.01921e-53
3.92188e-53
3.82755e-53
3.73604e-53
3.64727e-53
3.5612e-53
3.47788e-53
3.39744e-53
3.32006e-53
3.24604e-53
3.1757e-53
3.10947e-53
3.04785e-53
2.99141e-53
2.9408e-53
2.89672e-53
2.85999e-53
2.83148e-53
2.81216e-53
2.80311e-53
2.80552e-53
2.82073e-53
2.85025e-53
2.89581e-53
2.95941e-53
3.04337e-53
3.15041e-53
3.2838e-53
3.44741e-53
3.64589e-53
3.8849e-53
4.17124e-53
4.51323e-53
4.92093e-53
5.40666e-53
5.9854e-53
6.67546e-53
7.49917e-53
8.4838e-53
9.66265e-53
1.10764e-52
1.27748e-52
1.48185e-52
1.72818e-52
2.02554e-52
2.38502e-52
2.82018e-52
3.34763e-52
3.98765e-52
4.7651e-52
5.71039e-52
6.86076e-52
8.26182e-52
9.96949e-52
1.20523e-51
1.45942e-51
1.76984e-51
2.14911e-51
2.61276e-51
3.17978e-51
3.87351e-51
4.72252e-51
5.76181e-51
7.03422e-51
8.59212e-51
1.04994e-50
1.28341e-50
1.5691e-50
1.91852e-50
2.34562e-50
2.86725e-50
3.50374e-50
4.27948e-50
5.2237e-50
6.37128e-50
7.76373e-50
9.45021e-50
1.14888e-49
1.39476e-49
1.69063e-49
2.04578e-49
2.47093e-49
2.9784e-49
3.58229e-49
4.29859e-49
5.14529e-49
6.14251e-49
7.31249e-49
8.67963e-49
1.02704e-48
1.21132e-48
1.42381e-48
1.66764e-48
1.94601e-48
2.26214e-48
2.61918e-48
3.02012e-48
3.46766e-48
3.96412e-48
4.51128e-48
5.11024e-48
5.76131e-48
6.46386e-48
7.21617e-48
8.01537e-48
8.85735e-48
9.7367e-48
1.06468e-47
1.15797e-47
1.25264e-47
1.34772e-47
1.44214e-47
1.5348e-47
1.6246e-47
1.71047e-47
1.79138e-47
1.86641e-47
1.93477e-47
1.99583e-47
2.04912e-47
2.09437e-47
2.13153e-47
2.16071e-47
2.18222e-47
2.19656e-47
2.20432e-47
2.20624e-47
2.20308e-47
2.19565e-47
2.18473e-47
2.17103e-47
2.15515e-47
2.13757e-47
2.11858e-47
2.09831e-47
2.07668e-47
2.05346e-47
2.02823e-47
2.00043e-47
1.96939e-47
1.93436e-47
1.89459e-47
1.8493e-47
1.79784e-47
1.73964e-47
1.67435e-47
1.60184e-47
1.52222e-47
1.43594e-47
1.34371e-47
1.24655e-47
1.14572e-47
1.04268e-47
9.39034e-48
8.36412e-48
7.36433e-48
6.40609e-48
5.50274e-48
4.66531e-48
3.90209e-48
3.21842e-48
2.61665e-48
2.09632e-48
1.65446e-48
1.28607e-48
9.8456e-49
7.42376e-49
5.5147e-49
4.03791e-49
2.91664e-49
2.08078e-49
1.46863e-49
1.02777e-49
7.15088e-50
4.96248e-50
3.44696e-50
2.40487e-50
1.6904e-50
1.19973e-50
8.60574e-51
6.23662e-51
4.55938e-51
3.35469e-51
2.47753e-51
1.83164e-51
1.35228e-51
9.94973e-52
7.28395e-52
5.29894e-52
3.82706e-52
2.74214e-52
1.9482e-52
1.37192e-52
9.57276e-53
6.61697e-53
4.53014e-53
3.07132e-53
2.0618e-53
1.37035e-53
9.01674e-54
5.87339e-54
3.78752e-54
2.41815e-54
1.52877e-54
9.5727e-55
5.93909e-55
3.65267e-55
2.22838e-55
1.34964e-55
8.12366e-56
4.86541e-56
2.90328e-56
1.72795e-56
1.02604e-56
6.06924e-57
3.55987e-57
2.05171e-57
1.14505e-57
6.06067e-58
2.95957e-58
1.28642e-58
4.74282e-59
1.38136e-59
2.80959e-60
2.97989e-61
4.32384e-32
2.65393e-32
1.61764e-32
9.78968e-33
5.88136e-33
3.50697e-33
2.07516e-33
1.21831e-33
7.0952e-34
4.09815e-34
2.34714e-34
1.33269e-34
7.50001e-35
4.1826e-35
2.31091e-35
1.26465e-35
6.85343e-36
3.67696e-36
1.95256e-36
1.026e-36
5.33331e-37
2.74183e-37
1.39367e-37
7.00208e-38
3.47632e-38
1.70493e-38
8.25764e-39
3.94848e-39
1.86333e-39
8.67543e-40
3.98369e-40
1.80353e-40
8.0472e-41
3.53747e-41
1.53145e-41
6.52686e-42
2.7373e-42
1.12922e-42
4.58027e-43
1.82585e-43
7.15005e-44
2.74928e-44
1.0375e-44
3.84066e-45
1.39395e-45
4.95779e-46
1.72701e-46
5.88875e-47
1.96441e-47
6.40726e-48
2.04227e-48
6.359e-49
1.93454e-49
5.76238e-50
1.69551e-50
5.0835e-51
1.70289e-51
7.60212e-52
4.98855e-52
4.22906e-52
3.96266e-52
3.82646e-52
3.72639e-52
3.63863e-52
3.55715e-52
3.48029e-52
3.40743e-52
3.33816e-52
3.27216e-52
3.2091e-52
3.14869e-52
3.09065e-52
3.03471e-52
2.98065e-52
2.92826e-52
2.87739e-52
2.8279e-52
2.77972e-52
2.73283e-52
2.68724e-52
2.64304e-52
2.60037e-52
2.55943e-52
2.52048e-52
2.48386e-52
2.44996e-52
2.41926e-52
2.39229e-52
2.36967e-52
2.35209e-52
2.34034e-52
2.33528e-52
2.33789e-52
2.34926e-52
2.3706e-52
2.40332e-52
2.44898e-52
2.50942e-52
2.58675e-52
2.68345e-52
2.80244e-52
2.94723e-52
3.12197e-52
3.33171e-52
3.58253e-52
3.88182e-52
4.2386e-52
4.66383e-52
5.17095e-52
5.77638e-52
6.50022e-52
7.36712e-52
8.40728e-52
9.65776e-52
1.1164e-51
1.29818e-51
1.51796e-51
1.78414e-51
2.10706e-51
2.4994e-51
2.97674e-51
3.55824e-51
4.26745e-51
5.13334e-51
6.19152e-51
7.48582e-51
9.07019e-51
1.1011e-50
1.33902e-50
1.63083e-50
1.98897e-50
2.42873e-50
2.96898e-50
3.63295e-50
4.44927e-50
5.45321e-50
6.68814e-50
8.20742e-50
1.00766e-49
1.2376e-49
1.52042e-49
1.86816e-49
2.29552e-49
2.8204e-49
3.46455e-49
4.25433e-49
5.22155e-49
6.40459e-49
7.84947e-49
9.61129e-49
1.17557e-48
1.43607e-48
1.75186e-48
2.13378e-48
2.59456e-48
3.14901e-48
3.81429e-48
4.61015e-48
5.5592e-48
6.6871e-48
8.0228e-48
9.59864e-48
1.14505e-47
1.36176e-47
1.61428e-47
1.90718e-47
2.24533e-47
2.63379e-47
3.07776e-47
3.58248e-47
4.15307e-47
4.79442e-47
5.51101e-47
6.3067e-47
7.18452e-47
8.1465e-47
9.1934e-47
1.03245e-46
1.15376e-46
1.28285e-46
1.41912e-46
1.56177e-46
1.70982e-46
1.86208e-46
2.01722e-46
2.17376e-46
2.33013e-46
2.48468e-46
2.63577e-46
2.7818e-46
2.92127e-46
3.05282e-46
3.17528e-46
3.28773e-46
3.38949e-46
3.48018e-46
3.55971e-46
3.62826e-46
3.68629e-46
3.73446e-46
3.77363e-46
3.80478e-46
3.82894e-46
3.84716e-46
3.86038e-46
3.8694e-46
3.87484e-46
3.87702e-46
3.876e-46
3.8715e-46
3.86293e-46
3.84941e-46
3.82978e-46
3.80266e-46
3.76651e-46
3.71974e-46
3.66074e-46
3.58803e-46
3.50032e-46
3.39666e-46
3.2765e-46
3.13981e-46
2.98712e-46
2.81957e-46
2.63894e-46
2.44754e-46
2.24819e-46
2.04404e-46
1.8385e-46
1.63502e-46
1.43695e-46
1.24736e-46
1.06896e-46
9.03946e-47
7.53924e-47
6.19905e-47
5.02291e-47
4.00916e-47
3.15121e-47
2.43847e-47
1.85738e-47
1.39254e-47
1.02776e-47
7.46949e-48
5.34902e-48
3.77796e-48
2.63544e-48
1.8193e-48
1.24598e-48
8.49271e-49
5.7823e-49
3.94817e-49
2.71396e-49
1.88417e-49
1.32386e-49
9.41936e-50
6.78035e-50
4.92725e-50
3.60441e-50
2.64606e-50
1.94374e-50
1.42513e-50
1.04079e-50
7.55926e-51
5.45367e-51
3.90494e-51
2.77319e-51
1.95246e-51
1.3623e-51
9.41762e-52
6.44908e-52
4.37397e-52
2.93781e-52
1.9539e-52
1.28674e-52
8.39035e-53
5.4174e-53
3.46391e-53
2.19375e-53
1.3765e-53
8.56054e-54
5.27958e-54
3.23127e-54
1.96431e-54
1.18737e-54
7.14587e-55
4.28741e-55
2.56725e-55
1.53444e-55
9.13869e-56
5.39675e-56
3.13033e-56
1.75698e-56
9.34402e-57
4.58026e-57
1.99657e-57
7.37582e-58
2.15088e-58
4.37704e-59
4.64144e-60
9.55036e-32
5.86372e-32
3.57484e-32
2.16371e-32
1.29994e-32
7.75097e-33
4.58579e-33
2.69165e-33
1.56705e-33
9.04739e-34
5.17906e-34
2.93883e-34
1.65273e-34
9.20949e-35
5.08369e-35
2.77928e-35
1.5045e-35
8.06216e-36
4.27566e-36
2.24355e-36
1.16448e-36
5.97698e-37
3.03291e-37
1.52106e-37
7.5372e-38
3.68915e-38
1.78304e-38
8.50703e-39
4.00531e-39
1.86035e-39
8.52123e-40
3.84778e-40
1.71223e-40
7.50583e-41
3.24008e-41
1.37678e-41
5.75638e-42
2.36719e-42
9.57049e-43
3.80242e-43
1.48395e-43
5.68601e-44
2.13807e-44
7.88583e-45
2.85145e-45
1.01031e-45
3.5057e-46
1.19068e-46
3.95619e-47
1.28527e-47
4.08119e-48
1.26679e-48
3.85081e-49
1.15527e-49
3.5144e-50
1.17584e-50
5.10613e-51
3.23833e-51
2.7029e-51
2.52965e-51
2.4535e-51
2.40401e-51
2.36296e-51
2.32567e-51
2.29091e-51
2.25823e-51
2.22742e-51
2.19829e-51
2.17066e-51
2.14437e-51
2.11925e-51
2.09515e-51
2.07195e-51
2.04953e-51
2.02779e-51
2.00668e-51
1.98616e-51
1.96623e-51
1.94693e-51
1.92835e-51
1.91061e-51
1.8939e-51
1.87844e-51
1.86452e-51
1.8525e-51
1.84277e-51
1.83582e-51
1.83221e-51
1.83255e-51
1.83757e-51
1.84806e-51
1.86495e-51
1.88927e-51
1.9222e-51
1.96511e-51
2.01955e-51
2.08734e-51
2.1706e-51
2.27184e-51
2.39404e-51
2.54076e-51
2.71629e-51
2.92581e-51
3.17563e-51
3.4734e-51
3.82851e-51
4.25245e-51
4.75929e-51
5.36635e-51
6.0949e-51
6.97114e-51
8.02732e-51
9.30318e-51
1.08477e-50
1.27213e-50
1.49985e-50
1.77713e-50
2.11532e-50
2.52842e-50
3.03376e-50
3.6527e-50
4.41168e-50
5.34335e-50
6.48807e-50
7.89576e-50
9.62817e-50
1.17617e-49
1.43909e-49
1.76328e-49
2.16323e-49
2.65691e-49
3.26654e-49
4.01967e-49
4.95037e-49
6.10083e-49
7.52322e-49
9.282e-49
1.14568e-48
1.41456e-48
1.74694e-48
2.15766e-48
2.66494e-48
3.29109e-48
4.06337e-48
5.01499e-48
6.18628e-48
7.62615e-48
9.39364e-48
1.15598e-47
1.421e-47
1.74461e-47
2.13893e-47
2.61835e-47
3.19982e-47
3.90325e-47
4.75186e-47
5.7726e-47
6.99654e-47
8.4593e-47
1.02014e-46
1.22684e-46
1.47117e-46
1.75878e-46
2.09592e-46
2.48937e-46
2.94641e-46
3.47476e-46
4.08253e-46
4.77802e-46
5.56962e-46
6.46562e-46
7.47394e-46
8.6019e-46
9.85593e-46
1.12412e-45
1.27615e-45
1.44186e-45
1.62121e-45
1.81393e-45
2.01947e-45
2.23701e-45
2.46541e-45
2.70326e-45
2.9489e-45
3.20037e-45
3.45556e-45
3.71219e-45
3.9679e-45
4.22033e-45
4.46718e-45
4.70631e-45
4.93578e-45
5.15395e-45
5.3595e-45
5.55152e-45
5.72947e-45
5.89322e-45
6.04305e-45
6.17955e-45
6.30363e-45
6.4164e-45
6.51909e-45
6.61295e-45
6.69913e-45
6.77858e-45
6.85195e-45