/*--------------------------------*- C++ -*----------------------------------*\
| =========                 |                                                 |
| \\      /  F ield         | OpenFOAM: The Open Source CFD Toolbox           |
|  \\    /   O peration     | Version:  2.4.0                                 |
|   \\  /    A nd           | Web:      www.OpenFOAM.org                      |
|    \\/     M anipulation  |                                                 |
\*---------------------------------------------------------------------------*/
FoamFile
{
    version     2.0;
    format      ascii;
    class       volScalarField;
    location    "2.3";
    object      p;
}
// * * * * * * * * * * * * * * * * * * * * * * * * * * * * * * * * * * * * * //

dimensions      [1 -1 -2 0 0 0 0];

internalField   nonuniform List<scalar> 
8000
(
0.194465
0.190367
0.186688
0.183794
0.18143
0.179423
0.177722
0.176296
0.175129
0.174193
0.173477
0.172961
0.172643
0.172512
0.172585
0.172864
0.173344
0.173859
0.174197
0.175069
0.180731
0.197343
0.206701
0.10121
-0.269031
-0.585097
-0.0112308
-0.0106364
-0.0107323
-0.0107728
-0.0107766
-0.0107735
-0.0107724
-0.0107725
-0.010773
-0.0107734
-0.0107737
-0.0107741
-0.0107745
-0.0107749
-0.0107754
-0.0107758
-0.0107763
-0.0107768
-0.0107773
-0.0107778
-0.0107784
-0.0107789
-0.0107795
-0.0107801
-0.00811803
-0.0113519
-0.0150069
-0.0182269
-0.0209412
-0.0232397
-0.02517
-0.026749
-0.0279813
-0.0288751
-0.0294324
-0.0296599
-0.0295543
-0.0291178
-0.0283331
-0.0271947
-0.0257273
-0.024122
-0.0225428
-0.0199093
-0.0113791
0.00768968
0.00960127
-0.127842
-0.513423
-0.563634
-0.0328122
-0.0322421
-0.0323522
-0.0323942
-0.0323971
-0.0323935
-0.0323922
-0.0323925
-0.032393
-0.0323936
-0.0323941
-0.0323947
-0.0323954
-0.0323961
-0.0323969
-0.0323978
-0.0323987
-0.0323997
-0.0324008
-0.0324019
-0.0324031
-0.0324044
-0.0324057
-0.0324071
-0.00656361
-0.00755059
-0.00852183
-0.00944911
-0.0103885
-0.0113661
-0.012381
-0.0134337
-0.0145207
-0.0156461
-0.0168067
-0.0180089
-0.0192481
-0.0205316
-0.0218464
-0.0231979
-0.0246082
-0.0262453
-0.0282543
-0.0298227
-0.0270959
-0.0161446
-0.0182044
-0.130972
-0.447007
-0.537896
-0.0543651
-0.0537695
-0.0538917
-0.053934
-0.0539363
-0.0539329
-0.0539323
-0.0539332
-0.0539345
-0.0539358
-0.0539372
-0.0539387
-0.0539403
-0.053942
-0.0539438
-0.0539458
-0.0539479
-0.0539501
-0.0539524
-0.0539548
-0.0539573
-0.0539599
-0.0539626
-0.0539655
-0.137524
-0.137185
-0.136999
-0.137017
-0.137206
-0.13755
-0.138041
-0.138681
-0.139466
-0.140403
-0.141488
-0.142731
-0.144129
-0.145695
-0.14742
-0.149322
-0.151442
-0.153968
-0.156954
-0.159244
-0.156785
-0.148213
-0.164176
-0.308325
-0.606069
-0.395731
-0.0759609
-0.0753503
-0.0754809
-0.0755241
-0.0755258
-0.075522
-0.0755212
-0.0755221
-0.0755234
-0.0755248
-0.0755263
-0.075528
-0.0755299
-0.075532
-0.0755342
-0.0755367
-0.0755393
-0.0755421
-0.0755451
-0.0755482
-0.0755515
-0.075555
-0.0755586
-0.0755624
-0.173618
-0.17286
-0.172172
-0.171725
-0.171506
-0.171494
-0.171675
-0.172055
-0.172628
-0.173402
-0.174372
-0.175546
-0.17692
-0.178504
-0.180287
-0.182287
-0.18454
-0.187204
-0.190265
-0.192624
-0.190971
-0.185454
-0.204189
-0.329343
-0.550225
-0.261657
-0.097388
-0.0968319
-0.096961
-0.0970017
-0.0970041
-0.0970023
-0.0970035
-0.0970063
-0.0970095
-0.0970129
-0.0970164
-0.0970202
-0.0970241
-0.0970284
-0.0970328
-0.0970374
-0.0970423
-0.0970474
-0.0970526
-0.0970581
-0.0970638
-0.0970697
-0.0970758
-0.097082
-0.159955
-0.160693
-0.161374
-0.161864
-0.162183
-0.162355
-0.162385
-0.162274
-0.162019
-0.16162
-0.161074
-0.160379
-0.159531
-0.158514
-0.157294
-0.15587
-0.154495
-0.153862
-0.153765
-0.147498
-0.117187
-0.0686188
-0.173974
-0.893664
-2.02895
-0.145781
-0.11881
-0.118365
-0.118484
-0.118529
-0.118534
-0.118532
-0.118533
-0.118536
-0.118539
-0.118543
-0.118547
-0.118551
-0.118556
-0.118561
-0.118566
-0.118572
-0.118578
-0.118584
-0.118591
-0.118598
-0.118605
-0.118612
-0.11862
-0.118628
-0.208255
-0.208506
-0.208717
-0.208827
-0.208844
-0.208776
-0.208629
-0.208404
-0.208101
-0.20772
-0.207263
-0.20673
-0.20612
-0.205424
-0.204621
-0.203712
-0.202906
-0.202735
-0.202999
-0.198449
-0.175521
-0.139845
-0.225381
-0.777604
-1.61713
-0.141812
-0.139891
-0.139826
-0.139881
-0.139904
-0.139909
-0.139913
-0.139918
-0.139924
-0.13993
-0.139937
-0.139945
-0.139952
-0.139961
-0.139969
-0.139978
-0.139987
-0.139997
-0.140007
-0.140018
-0.140029
-0.14004
-0.140051
-0.140063
-0.140075
-0.280996
-0.279903
-0.278783
-0.277814
-0.276976
-0.276242
-0.275603
-0.275064
-0.274625
-0.274292
-0.274064
-0.273954
-0.27396
-0.274088
-0.274318
-0.274677
-0.275363
-0.27691
-0.279086
-0.276838
-0.257311
-0.226871
-0.315107
-0.846519
-1.6203
-0.161904
-0.161159
-0.161272
-0.161318
-0.161325
-0.161326
-0.16133
-0.161336
-0.161344
-0.161351
-0.16136
-0.161369
-0.161379
-0.161389
-0.1614
-0.161412
-0.161424
-0.161437
-0.16145
-0.161464
-0.161478
-0.161493
-0.161508
-0.161524
-0.16154
-0.305977
-0.305206
-0.304284
-0.30328
-0.302192
-0.300998
-0.299698
-0.298289
-0.296772
-0.295141
-0.293399
-0.291538
-0.289562
-0.287455
-0.285203
-0.282809
-0.280488
-0.278774
-0.277471
-0.2714
-0.247222
-0.210849
-0.294766
-0.835721
-1.6447
-0.182997
-0.182317
-0.182451
-0.182496
-0.182503
-0.182507
-0.182515
-0.182526
-0.182538
-0.182552
-0.182566
-0.182582
-0.182599
-0.182617
-0.182636
-0.182656
-0.182677
-0.182698
-0.18272
-0.182743
-0.182766
-0.18279
-0.182814
-0.182839
-0.182864
-0.336934
-0.336261
-0.335434
-0.334589
-0.333744
-0.332895
-0.332031
-0.331151
-0.330243
-0.329299
-0.3283
-0.327228
-0.32605
-0.324726
-0.323178
-0.321362
-0.319416
-0.317847
-0.316338
-0.309084
-0.281071
-0.237718
-0.323688
-0.915996
-1.84144
-0.204362
-0.203425
-0.203525
-0.203574
-0.203588
-0.2036
-0.203619
-0.203642
-0.203668
-0.203696
-0.203726
-0.203758
-0.203791
-0.203825
-0.20386
-0.203896
-0.203932
-0.203969
-0.204006
-0.204043
-0.20408
-0.204118
-0.204155
-0.204193
-0.20423
-0.425248
-0.422021
-0.418465
-0.415126
-0.411963
-0.408919
-0.405974
-0.403152
-0.400463
-0.397946
-0.395618
-0.393528
-0.391723
-0.390266
-0.3892
-0.388688
-0.388742
-0.389932
-0.392049
-0.393831
-0.394505
-0.395933
-0.413326
-0.442255
-0.345502
-0.241608
-0.223192
-0.22326
-0.223529
-0.223682
-0.223834
-0.223977
-0.224109
-0.224231
-0.224345
-0.224452
-0.224552
-0.224645
-0.224734
-0.224817
-0.224897
-0.224973
-0.225045
-0.225115
-0.225182
-0.225246
-0.225309
-0.225369
-0.225428
-0.225486
-0.478668
-0.473667
-0.468459
-0.463989
-0.46025
-0.457096
-0.454497
-0.452429
-0.450907
-0.449902
-0.44943
-0.44945
-0.449978
-0.450957
-0.452403
-0.454218
-0.45643
-0.458972
-0.462001
-0.46514
-0.466359
-0.461898
-0.456342
-0.504476
-0.68885
-0.590091
-0.246735
-0.246139
-0.246299
-0.246323
-0.246334
-0.246351
-0.246374
-0.246402
-0.246433
-0.246467
-0.246503
-0.246542
-0.246582
-0.246624
-0.246667
-0.246711
-0.246757
-0.246803
-0.24685
-0.246897
-0.246946
-0.246994
-0.247043
-0.247092
-0.452074
-0.449292
-0.446199
-0.443019
-0.439696
-0.436155
-0.432396
-0.428411
-0.424212
-0.41978
-0.41513
-0.410236
-0.405122
-0.399758
-0.394174
-0.388323
-0.382276
-0.376131
-0.3703
-0.36448
-0.355367
-0.335155
-0.309123
-0.370375
-0.706213
-1.00739
-0.268249
-0.267603
-0.267766
-0.267798
-0.267804
-0.267815
-0.267832
-0.267854
-0.26788
-0.267908
-0.267939
-0.267973
-0.268009
-0.268048
-0.268088
-0.268131
-0.268176
-0.268223
-0.268271
-0.26832
-0.268371
-0.268423
-0.268475
-0.268529
-0.31094
-0.309114
-0.306656
-0.304078
-0.301512
-0.298924
-0.296298
-0.293615
-0.290875
-0.288052
-0.285142
-0.282102
-0.27892
-0.275529
-0.271896
-0.267898
-0.263498
-0.258759
-0.25414
-0.2492
-0.238413
-0.207741
-0.161155
-0.240294
-0.787134
-1.65077
-0.293009
-0.288893
-0.288758
-0.288827
-0.288861
-0.288884
-0.288913
-0.288949
-0.288992
-0.289039
-0.28909
-0.289145
-0.289203
-0.289263
-0.289326
-0.289391
-0.289457
-0.289525
-0.289594
-0.289664
-0.289735
-0.289807
-0.289879
-0.289951
-0.508956
-0.502489
-0.495747
-0.489461
-0.483416
-0.477458
-0.471559
-0.465746
-0.460033
-0.454458
-0.449039
-0.443844
-0.438898
-0.434323
-0.430174
-0.426555
-0.423717
-0.421735
-0.421328
-0.422429
-0.423262
-0.425262
-0.427124
-0.439989
-0.415541
-0.248708
-0.445097
-0.307893
-0.307775
-0.30804
-0.308285
-0.308506
-0.308713
-0.30891
-0.309098
-0.309276
-0.309447
-0.30961
-0.309767
-0.309918
-0.310064
-0.310205
-0.310342
-0.310474
-0.310603
-0.310729
-0.310851
-0.310971
-0.311088
-0.311202
-0.264812
-0.26192
-0.258544
-0.255563
-0.253092
-0.251079
-0.249464
-0.248222
-0.247313
-0.24671
-0.246342
-0.246163
-0.246061
-0.245962
-0.245684
-0.245107
-0.243931
-0.241974
-0.239005
-0.235078
-0.229324
-0.216995
-0.185179
-0.144669
-0.193474
-0.583425
-1.2431
-0.334524
-0.330867
-0.330822
-0.330902
-0.33096
-0.331027
-0.331108
-0.3312
-0.331301
-0.331409
-0.331523
-0.331641
-0.331762
-0.331885
-0.332011
-0.332137
-0.332263
-0.33239
-0.332516
-0.332641
-0.332766
-0.332889
-0.33301
-0.325935
-0.322873
-0.31928
-0.31534
-0.310905
-0.305954
-0.300501
-0.294599
-0.288285
-0.281622
-0.274678
-0.267513
-0.260279
-0.253014
-0.245984
-0.239274
-0.233064
-0.2279
-0.223774
-0.222216
-0.222556
-0.221274
-0.22288
-0.233888
-0.257334
-0.145417
0.43213
-0.338203
-0.34734
-0.34826
-0.348841
-0.349369
-0.349869
-0.350331
-0.35076
-0.351158
-0.351529
-0.351875
-0.352198
-0.352501
-0.352785
-0.353052
-0.353304
-0.353542
-0.353768
-0.353982
-0.354185
-0.354378
-0.354563
-0.354739
-0.211377
-0.208309
-0.204774
-0.20153
-0.198669
-0.196117
-0.193841
-0.1918
-0.189989
-0.188359
-0.186894
-0.185522
-0.184216
-0.182875
-0.181452
-0.1798
-0.177839
-0.175335
-0.172181
-0.168266
-0.163754
-0.157845
-0.145984
-0.11706
-0.0800227
-0.132304
-0.523911
-1.23586
-0.383497
-0.376625
-0.376514
-0.376629
-0.376681
-0.376735
-0.376798
-0.376868
-0.376944
-0.377025
-0.377108
-0.377195
-0.377284
-0.377375
-0.377467
-0.37756
-0.377654
-0.377748
-0.377842
-0.377936
-0.37803
-0.378123
-0.328207
-0.323416
-0.318356
-0.313499
-0.308702
-0.30385
-0.298927
-0.293943
-0.288913
-0.283838
-0.278736
-0.273613
-0.26848
-0.263358
-0.258266
-0.253196
-0.248247
-0.243285
-0.238602
-0.23415
-0.229496
-0.225173
-0.220623
-0.225827
-0.243533
-0.201087
0.0480449
0.376407
-0.432033
-0.400363
-0.400401
-0.400382
-0.400397
-0.400417
-0.40044
-0.40047
-0.400505
-0.400544
-0.400587
-0.400633
-0.400682
-0.400733
-0.400787
-0.400842
-0.400898
-0.400957
-0.401016
-0.401076
-0.401137
-0.401198
-0.155395
-0.152877
-0.149803
-0.146717
-0.14367
-0.140628
-0.13754
-0.134403
-0.131185
-0.12788
-0.12445
-0.120884
-0.117135
-0.113193
-0.108999
-0.104549
-0.0997669
-0.0946509
-0.0890892
-0.0831157
-0.0767188
-0.0703648
-0.0637782
-0.0526481
-0.0285472
0.00887121
-0.0419127
-0.442315
-1.19941
-0.43119
-0.424348
-0.424195
-0.424268
-0.424262
-0.424251
-0.424247
-0.424246
-0.42425
-0.424256
-0.424266
-0.424278
-0.424293
-0.424311
-0.424331
-0.424354
-0.424378
-0.424404
-0.424432
-0.424462
-0.424492
-0.0107807
-0.0107814
-0.010782
-0.0107827
-0.0107834
-0.0107841
-0.0107849
-0.0107856
-0.0107864
-0.0107871
-0.0107879
-0.0107888
-0.0107896
-0.0107904
-0.0107913
-0.0107922
-0.010793
-0.010794
-0.0107949
-0.0107958
-0.0107967
-0.0107977
-0.0107987
-0.0107997
-0.0108006
-0.0108017
-0.0108027
-0.0108037
-0.0108047
-0.0108058
-0.0108068
-0.0108079
-0.010809
-0.0108101
-0.0108112
-0.0108123
-0.0108134
-0.0108145
-0.0108156
-0.0108168
-0.0108179
-0.0108191
-0.0108202
-0.0108214
-0.0108225
-0.0108237
-0.0108249
-0.0108261
-0.0108273
-0.0108284
-0.0324085
-0.03241
-0.0324116
-0.0324132
-0.0324149
-0.0324166
-0.0324184
-0.0324202
-0.0324221
-0.032424
-0.032426
-0.0324281
-0.0324302
-0.0324323
-0.0324345
-0.0324368
-0.032439
-0.0324414
-0.0324438
-0.0324462
-0.0324486
-0.0324511
-0.0324537
-0.0324563
-0.0324589
-0.0324615
-0.0324642
-0.032467
-0.0324697
-0.0324725
-0.0324753
-0.0324782
-0.0324811
-0.032484
-0.032487
-0.0324899
-0.0324929
-0.032496
-0.032499
-0.0325021
-0.0325052
-0.0325083
-0.0325115
-0.0325146
-0.0325178
-0.032521
-0.0325242
-0.0325275
-0.0325307
-0.032534
-0.0539684
-0.0539714
-0.0539745
-0.0539777
-0.053981
-0.0539844
-0.0539879
-0.0539915
-0.0539952
-0.0539989
-0.0540027
-0.0540066
-0.0540106
-0.0540147
-0.0540188
-0.0540231
-0.0540273
-0.0540317
-0.0540361
-0.0540406
-0.0540452
-0.0540498
-0.0540545
-0.0540592
-0.054064
-0.0540688
-0.0540737
-0.0540787
-0.0540837
-0.0540888
-0.0540939
-0.054099
-0.0541042
-0.0541095
-0.0541148
-0.0541201
-0.0541254
-0.0541308
-0.0541363
-0.0541417
-0.0541473
-0.0541528
-0.0541583
-0.0541639
-0.0541696
-0.0541752
-0.0541809
-0.0541866
-0.0541922
-0.0541979
-0.0755664
-0.0755705
-0.0755747
-0.0755791
-0.0755836
-0.0755883
-0.0755931
-0.0755981
-0.0756032
-0.0756084
-0.0756137
-0.0756192
-0.0756248
-0.0756304
-0.0756363
-0.0756422
-0.0756482
-0.0756544
-0.0756606
-0.0756669
-0.0756734
-0.0756799
-0.0756865
-0.0756932
-0.0757
-0.0757069
-0.0757139
-0.0757209
-0.075728
-0.0757352
-0.0757425
-0.0757498
-0.0757572
-0.0757646
-0.0757722
-0.0757797
-0.0757874
-0.075795
-0.0758028
-0.0758105
-0.0758184
-0.0758262
-0.0758342
-0.0758421
-0.0758501
-0.0758581
-0.0758662
-0.0758743
-0.0758823
-0.0758905
-0.0970885
-0.0970951
-0.0971019
-0.0971089
-0.097116
-0.0971233
-0.0971308
-0.0971385
-0.0971462
-0.0971542
-0.0971623
-0.0971705
-0.0971788
-0.0971873
-0.097196
-0.0972047
-0.0972136
-0.0972226
-0.0972317
-0.0972409
-0.0972503
-0.0972597
-0.0972692
-0.0972789
-0.0972886
-0.0972984
-0.0973083
-0.0973183
-0.0973284
-0.0973385
-0.0973487
-0.097359
-0.0973694
-0.0973798
-0.0973903
-0.0974008
-0.0974114
-0.097422
-0.0974327
-0.0974435
-0.0974542
-0.0974651
-0.0974759
-0.0974868
-0.0974978
-0.0975087
-0.0975197
-0.0975307
-0.0975417
-0.0975527
-0.118636
-0.118644
-0.118653
-0.118662
-0.118671
-0.11868
-0.11869
-0.1187
-0.11871
-0.11872
-0.11873
-0.118741
-0.118752
-0.118763
-0.118774
-0.118785
-0.118797
-0.118808
-0.11882
-0.118832
-0.118844
-0.118856
-0.118869
-0.118881
-0.118894
-0.118906
-0.118919
-0.118932
-0.118945
-0.118958
-0.118971
-0.118985
-0.118998
-0.119011
-0.119025
-0.119038
-0.119052
-0.119066
-0.119079
-0.119093
-0.119107
-0.119121
-0.119135
-0.119149
-0.119163
-0.119177
-0.119191
-0.119205
-0.119219
-0.119233
-0.140088
-0.1401
-0.140113
-0.140127
-0.14014
-0.140154
-0.140168
-0.140182
-0.140197
-0.140212
-0.140227
-0.140242
-0.140257
-0.140272
-0.140288
-0.140304
-0.14032
-0.140336
-0.140352
-0.140369
-0.140385
-0.140402
-0.140419
-0.140436
-0.140453
-0.14047
-0.140487
-0.140504
-0.140521
-0.140539
-0.140556
-0.140573
-0.140591
-0.140609
-0.140626
-0.140644
-0.140662
-0.140679
-0.140697
-0.140715
-0.140733
-0.14075
-0.140768
-0.140786
-0.140804
-0.140822
-0.14084
-0.140857
-0.140875
-0.140893
-0.161557
-0.161573
-0.161591
-0.161608
-0.161626
-0.161644
-0.161662
-0.161681
-0.1617
-0.161719
-0.161738
-0.161758
-0.161778
-0.161797
-0.161818
-0.161838
-0.161858
-0.161879
-0.1619
-0.161921
-0.161942
-0.161963
-0.161984
-0.162005
-0.162026
-0.162048
-0.162069
-0.162091
-0.162113
-0.162134
-0.162156
-0.162178
-0.162199
-0.162221
-0.162243
-0.162265
-0.162287
-0.162309
-0.162331
-0.162352
-0.162374
-0.162396
-0.162418
-0.16244
-0.162462
-0.162483
-0.162505
-0.162527
-0.162548
-0.16257
-0.18289
-0.182916
-0.182942
-0.182968
-0.182995
-0.183022
-0.183049
-0.183077
-0.183104
-0.183132
-0.18316
-0.183188
-0.183216
-0.183244
-0.183272
-0.1833
-0.183328
-0.183356
-0.183385
-0.183413
-0.183441
-0.18347
-0.183498
-0.183526
-0.183554
-0.183583
-0.183611
-0.183639
-0.183667
-0.183695
-0.183723
-0.183751
-0.183779
-0.183807
-0.183834
-0.183862
-0.183889
-0.183917
-0.183944
-0.183972
-0.183999
-0.184026
-0.184053
-0.18408
-0.184107
-0.184133
-0.18416
-0.184186
-0.184213
-0.184239
-0.204268
-0.204305
-0.204342
-0.20438
-0.204417
-0.204454
-0.20449
-0.204527
-0.204564
-0.2046
-0.204636
-0.204672
-0.204708
-0.204744
-0.20478
-0.204815
-0.204851
-0.204886
-0.204921
-0.204956
-0.204991
-0.205026
-0.20506
-0.205095
-0.205129
-0.205163
-0.205197
-0.205231
-0.205265
-0.205298
-0.205332
-0.205365
-0.205398
-0.205431
-0.205464
-0.205497
-0.20553
-0.205562
-0.205594
-0.205627
-0.205659
-0.205691
-0.205722
-0.205754
-0.205785
-0.205817
-0.205848
-0.205879
-0.20591
-0.20594
-0.225542
-0.225597
-0.22565
-0.225703
-0.225755
-0.225806
-0.225856
-0.225906
-0.225955
-0.226003
-0.226051
-0.226098
-0.226145
-0.226191
-0.226237
-0.226282
-0.226328
-0.226372
-0.226417
-0.226461
-0.226504
-0.226548
-0.226591
-0.226634
-0.226676
-0.226718
-0.22676
-0.226802
-0.226843
-0.226884
-0.226925
-0.226966
-0.227006
-0.227046
-0.227085
-0.227125
-0.227164
-0.227203
-0.227242
-0.22728
-0.227318
-0.227356
-0.227394
-0.227431
-0.227468
-0.227505
-0.227542
-0.227578
-0.227614
-0.22765
-0.247142
-0.247192
-0.247242
-0.247292
-0.247342
-0.247392
-0.247442
-0.247492
-0.247542
-0.247592
-0.247642
-0.247692
-0.247741
-0.247791
-0.24784
-0.24789
-0.247939
-0.247987
-0.248036
-0.248085
-0.248133
-0.248181
-0.248229
-0.248276
-0.248323
-0.248371
-0.248417
-0.248464
-0.24851
-0.248556
-0.248602
-0.248647
-0.248693
-0.248738
-0.248782
-0.248826
-0.248871
-0.248914
-0.248958
-0.249001
-0.249044
-0.249086
-0.249129
-0.249171
-0.249212
-0.249254
-0.249295
-0.249336
-0.249376
-0.249416
-0.268584
-0.268639
-0.268695
-0.268751
-0.268808
-0.268865
-0.268923
-0.268981
-0.269038
-0.269097
-0.269155
-0.269213
-0.269271
-0.269329
-0.269387
-0.269445
-0.269503
-0.26956
-0.269617
-0.269674
-0.269731
-0.269788
-0.269844
-0.2699
-0.269955
-0.27001
-0.270065
-0.27012
-0.270174
-0.270227
-0.27028
-0.270333
-0.270386
-0.270438
-0.270489
-0.270541
-0.270591
-0.270642
-0.270692
-0.270741
-0.27079
-0.270839
-0.270887
-0.270935
-0.270982
-0.271029
-0.271076
-0.271122
-0.271167
-0.271212
-0.290024
-0.290097
-0.29017
-0.290242
-0.290315
-0.290388
-0.290461
-0.290533
-0.290605
-0.290676
-0.290748
-0.290818
-0.290889
-0.290959
-0.291028
-0.291097
-0.291165
-0.291233
-0.2913
-0.291367
-0.291433
-0.291499
-0.291564
-0.291628
-0.291692
-0.291755
-0.291817
-0.291879
-0.29194
-0.292001
-0.292061
-0.29212
-0.292179
-0.292237
-0.292295
-0.292352
-0.292408
-0.292464
-0.29252
-0.292574
-0.292628
-0.292682
-0.292735
-0.292787
-0.292839
-0.29289
-0.292941
-0.292991
-0.293041
-0.29309
-0.311313
-0.311423
-0.31153
-0.311635
-0.311739
-0.31184
-0.311939
-0.312037
-0.312133
-0.312227
-0.31232
-0.312411
-0.312501
-0.312589
-0.312676
-0.312762
-0.312846
-0.312929
-0.31301
-0.313091
-0.31317
-0.313248
-0.313324
-0.3134
-0.313475
-0.313548
-0.31362
-0.313692
-0.313762
-0.313831
-0.3139
-0.313967
-0.314033
-0.314099
-0.314163
-0.314227
-0.31429
-0.314352
-0.314413
-0.314473
-0.314533
-0.314592
-0.31465
-0.314707
-0.314763
-0.314819
-0.314874
-0.314928
-0.314981
-0.315034
-0.333131
-0.333249
-0.333366
-0.333481
-0.333594
-0.333705
-0.333814
-0.333922
-0.334027
-0.334131
-0.334233
-0.334333
-0.334431
-0.334527
-0.334622
-0.334715
-0.334806
-0.334896
-0.334984
-0.33507
-0.335155
-0.335238
-0.33532
-0.335401
-0.33548
-0.335558
-0.335635
-0.33571
-0.335784
-0.335857
-0.335928
-0.335999
-0.336068
-0.336136
-0.336203
-0.33627
-0.336335
-0.336399
-0.336462
-0.336524
-0.336586
-0.336646
-0.336706
-0.336764
-0.336822
-0.336879
-0.336936
-0.336991
-0.337046
-0.3371
-0.354908
-0.35507
-0.355225
-0.355374
-0.355518
-0.355656
-0.35579
-0.355919
-0.356044
-0.356164
-0.356282
-0.356395
-0.356506
-0.356613
-0.356717
-0.356819
-0.356918
-0.357014
-0.357109
-0.357201
-0.35729
-0.357378
-0.357464
-0.357548
-0.35763
-0.35771
-0.357789
-0.357867
-0.357942
-0.358017
-0.358089
-0.358161
-0.358231
-0.3583
-0.358368
-0.358435
-0.3585
-0.358565
-0.358628
-0.35869
-0.358752
-0.358812
-0.358871
-0.35893
-0.358987
-0.359044
-0.3591
-0.359155
-0.359209
-0.359262
-0.378216
-0.378308
-0.378399
-0.378489
-0.378579
-0.378667
-0.378754
-0.378841
-0.378926
-0.37901
-0.379093
-0.379175
-0.379256
-0.379336
-0.379414
-0.379491
-0.379568
-0.379643
-0.379717
-0.37979
-0.379862
-0.379933
-0.380003
-0.380072
-0.38014
-0.380207
-0.380273
-0.380338
-0.380402
-0.380466
-0.380528
-0.380589
-0.38065
-0.38071
-0.380769
-0.380827
-0.380885
-0.380942
-0.380998
-0.381053
-0.381107
-0.381161
-0.381214
-0.381267
-0.381319
-0.38137
-0.381421
-0.38147
-0.38152
-0.381568
-0.40126
-0.401323
-0.401386
-0.401448
-0.401511
-0.401574
-0.401637
-0.4017
-0.401763
-0.401825
-0.401887
-0.401949
-0.402011
-0.402072
-0.402133
-0.402193
-0.402253
-0.402312
-0.402371
-0.40243
-0.402488
-0.402545
-0.402602
-0.402658
-0.402714
-0.40277
-0.402825
-0.402879
-0.402933
-0.402986
-0.403039
-0.403091
-0.403143
-0.403194
-0.403244
-0.403295
-0.403344
-0.403393
-0.403442
-0.40349
-0.403538
-0.403585
-0.403631
-0.403677
-0.403723
-0.403768
-0.403813
-0.403857
-0.403901
-0.403944
-0.424524
-0.424558
-0.424592
-0.424627
-0.424663
-0.4247
-0.424737
-0.424775
-0.424813
-0.424852
-0.424891
-0.424931
-0.424971
-0.425011
-0.425051
-0.425091
-0.425132
-0.425172
-0.425213
-0.425254
-0.425294
-0.425335
-0.425375
-0.425416
-0.425456
-0.425496
-0.425537
-0.425577
-0.425617
-0.425656
-0.425696
-0.425735
-0.425775
-0.425814
-0.425853
-0.425891
-0.42593
-0.425968
-0.426006
-0.426044
-0.426082
-0.42612
-0.426157
-0.426194
-0.426231
-0.426268
-0.426304
-0.426341
-0.426377
-0.426412
-0.0108292
-0.0108298
-0.0108305
-0.0108311
-0.0108318
-0.0108325
-0.0108331
-0.0108338
-0.0108345
-0.0108352
-0.0108359
-0.0108366
-0.0108373
-0.010838
-0.0108387
-0.0108394
-0.0108401
-0.0108408
-0.0108416
-0.0108423
-0.010843
-0.0108438
-0.0108445
-0.0108453
-0.010846
-0.0108468
-0.0108476
-0.0108483
-0.0108491
-0.0108499
-0.0108507
-0.0108515
-0.0108523
-0.0108531
-0.0108539
-0.0108547
-0.0108555
-0.0108563
-0.0108571
-0.0108579
-0.0108588
-0.0108596
-0.0108604
-0.0108613
-0.0108621
-0.010863
-0.0108638
-0.0108647
-0.0108656
-0.0108664
-0.0108673
-0.0108682
-0.010869
-0.0108699
-0.0108708
-0.0108717
-0.0108726
-0.0108735
-0.0108744
-0.0108753
-0.0108762
-0.0108771
-0.010878
-0.0108789
-0.0108798
-0.0108808
-0.0108817
-0.0108826
-0.0108835
-0.0108845
-0.0108854
-0.0108864
-0.0108873
-0.0108882
-0.0108892
-0.0108901
-0.0108911
-0.0108921
-0.010893
-0.010894
-0.0108949
-0.0108959
-0.0108969
-0.0108978
-0.0108988
-0.0108998
-0.0109008
-0.0109017
-0.0109027
-0.0109037
-0.0109047
-0.0109057
-0.0109066
-0.0109076
-0.0109086
-0.0109096
-0.0109106
-0.0109116
-0.0109126
-0.0109136
-0.0109146
-0.0109156
-0.0109166
-0.0109176
-0.0109185
-0.0109195
-0.0109205
-0.0109215
-0.0109225
-0.0109235
-0.0109245
-0.0109255
-0.0109265
-0.0109275
-0.0109286
-0.0109296
-0.0109306
-0.0109316
-0.0109326
-0.0109336
-0.0109346
-0.0109356
-0.0109365
-0.0109375
-0.0109385
-0.0109395
-0.0109405
-0.0109415
-0.0109425
-0.0109435
-0.0109445
-0.0109455
-0.0109465
-0.0109475
-0.0109485
-0.0109494
-0.0109504
-0.0109514
-0.0109524
-0.0109534
-0.0109543
-0.0109553
-0.0109563
-0.0109573
-0.0109582
-0.0109592
-0.0109602
-0.0109611
-0.0109621
-0.010963
-0.010964
-0.0109649
-0.0109659
-0.0109668
-0.0109678
-0.0109687
-0.0109697
-0.0109706
-0.0109715
-0.0109725
-0.0109734
-0.0109743
-0.0109752
-0.0109761
-0.0109771
-0.010978
-0.0109789
-0.0109798
-0.0109807
-0.0109816
-0.0109825
-0.0109834
-0.0109842
-0.0109851
-0.010986
-0.0109869
-0.0109878
-0.0109886
-0.0109895
-0.0109903
-0.0109912
-0.010992
-0.0109929
-0.0109937
-0.0109946
-0.0109954
-0.0109962
-0.0109971
-0.0109979
-0.0109987
-0.0109995
-0.0110003
-0.0110011
-0.0110019
-0.0110027
-0.0110035
-0.0110043
-0.0110051
-0.0110058
-0.0110066
-0.0110074
-0.0110081
-0.0110089
-0.0110096
-0.0110104
-0.0110111
-0.0110119
-0.0110126
-0.0110133
-0.011014
-0.0110148
-0.0110155
-0.0110162
-0.0110169
-0.0110176
-0.0110183
-0.0110189
-0.0110196
-0.0110203
-0.011021
-0.0110216
-0.0110223
-0.0110229
-0.0110236
-0.0110242
-0.0110249
-0.0110255
-0.0110261
-0.0110268
-0.0110274
-0.011028
-0.0110286
-0.0110292
-0.0110298
-0.0110304
-0.0110309
-0.0110315
-0.0110321
-0.0110327
-0.0110332
-0.0110338
-0.0110343
-0.0110349
-0.0110354
-0.0110359
-0.0110365
-0.011037
-0.0110375
-0.011038
-0.0110385
-0.011039
-0.0110395
-0.01104
-0.0110404
-0.0110409
-0.0110414
-0.0110418
-0.0110423
-0.0110427
-0.0110431
-0.0110436
-0.011044
-0.0110444
-0.0110448
-0.0110452
-0.0110456
-0.011046
-0.0110464
-0.0110468
-0.0110471
-0.0110475
-0.0110478
-0.0110482
-0.0110485
-0.0110489
-0.0110492
-0.0110495
-0.0110498
-0.0110501
-0.0110504
-0.0110507
-0.0110509
-0.0110512
-0.0110514
-0.0110517
-0.0110519
-0.0110522
-0.0110524
-0.0110526
-0.0110528
-0.011053
-0.0110531
-0.0110533
-0.0110535
-0.0110536
-0.0110537
-0.0110539
-0.011054
-0.0110541
-0.0110542
-0.0325366
-0.0325384
-0.0325402
-0.032542
-0.0325438
-0.0325456
-0.0325474
-0.0325492
-0.0325511
-0.032553
-0.0325548
-0.0325567
-0.0325586
-0.0325605
-0.0325624
-0.0325644
-0.0325663
-0.0325683
-0.0325703
-0.0325722
-0.0325742
-0.0325763
-0.0325783
-0.0325803
-0.0325823
-0.0325844
-0.0325865
-0.0325886
-0.0325906
-0.0325928
-0.0325949
-0.032597
-0.0325991
-0.0326013
-0.0326034
-0.0326056
-0.0326078
-0.03261
-0.0326122
-0.0326144
-0.0326167
-0.0326189
-0.0326211
-0.0326234
-0.0326257
-0.032628
-0.0326303
-0.0326326
-0.0326349
-0.0326372
-0.0326395
-0.0326419
-0.0326442
-0.0326466
-0.032649
-0.0326514
-0.0326538
-0.0326562
-0.0326586
-0.032661
-0.0326634
-0.0326659
-0.0326683
-0.0326708
-0.0326733
-0.0326757
-0.0326782
-0.0326807
-0.0326832
-0.0326857
-0.0326883
-0.0326908
-0.0326933
-0.0326959
-0.0326984
-0.032701
-0.0327036
-0.0327061
-0.0327087
-0.0327113
-0.0327139
-0.0327165
-0.0327191
-0.0327217
-0.0327243
-0.032727
-0.0327296
-0.0327322
-0.0327349
-0.0327375
-0.0327402
-0.0327428
-0.0327455
-0.0327482
-0.0327508
-0.0327535
-0.0327562
-0.0327589
-0.0327616
-0.0327643
-0.032767
-0.0327697
-0.0327724
-0.0327751
-0.0327778
-0.0327805
-0.0327833
-0.032786
-0.0327887
-0.0327914
-0.0327942
-0.0327969
-0.0327996
-0.0328024
-0.0328051
-0.0328078
-0.0328106
-0.0328133
-0.032816
-0.0328188
-0.0328215
-0.0328243
-0.032827
-0.0328297
-0.0328325
-0.0328352
-0.032838
-0.0328407
-0.0328434
-0.0328462
-0.0328489
-0.0328516
-0.0328544
-0.0328571
-0.0328598
-0.0328625
-0.0328653
-0.032868
-0.0328707
-0.0328734
-0.0328761
-0.0328788
-0.0328815
-0.0328842
-0.0328869
-0.0328896
-0.0328923
-0.032895
-0.0328977
-0.0329004
-0.032903
-0.0329057
-0.0329084
-0.032911
-0.0329137
-0.0329163
-0.0329189
-0.0329216
-0.0329242
-0.0329268
-0.0329294
-0.032932
-0.0329346
-0.0329372
-0.0329398
-0.0329424
-0.032945
-0.0329475
-0.0329501
-0.0329526
-0.0329552
-0.0329577
-0.0329602
-0.0329627
-0.0329652
-0.0329677
-0.0329702
-0.0329727
-0.0329752
-0.0329776
-0.0329801
-0.0329825
-0.0329849
-0.0329874
-0.0329898
-0.0329922
-0.0329945
-0.0329969
-0.0329993
-0.0330016
-0.033004
-0.0330063
-0.0330087
-0.033011
-0.0330133
-0.0330155
-0.0330178
-0.0330201
-0.0330223
-0.0330246
-0.0330268
-0.033029
-0.0330312
-0.0330334
-0.0330356
-0.0330377
-0.0330399
-0.033042
-0.0330442
-0.0330463
-0.0330484
-0.0330504
-0.0330525
-0.0330546
-0.0330566
-0.0330586
-0.0330606
-0.0330626
-0.0330646
-0.0330666
-0.0330685
-0.0330705
-0.0330724
-0.0330743
-0.0330762
-0.0330781
-0.0330799
-0.0330818
-0.0330836
-0.0330854
-0.0330872
-0.033089
-0.0330907
-0.0330925
-0.0330942
-0.0330959
-0.0330976
-0.0330993
-0.0331009
-0.0331026
-0.0331042
-0.0331058
-0.0331074
-0.033109
-0.0331105
-0.0331121
-0.0331136
-0.0331151
-0.0331166
-0.033118
-0.0331195
-0.0331209
-0.0331223
-0.0331237
-0.033125
-0.0331264
-0.0331277
-0.033129
-0.0331303
-0.0331316
-0.0331328
-0.033134
-0.0331352
-0.0331364
-0.0331376
-0.0331387
-0.0331398
-0.0331409
-0.033142
-0.033143
-0.0331441
-0.0331451
-0.0331461
-0.033147
-0.033148
-0.0331489
-0.0331498
-0.0331506
-0.0331515
-0.0331523
-0.0331531
-0.0331538
-0.0331546
-0.0331553
-0.033156
-0.0331566
-0.0331572
-0.0331579
-0.0331584
-0.033159
-0.0331595
-0.03316
-0.0331604
-0.0331609
-0.0331613
-0.0331616
-0.033162
-0.0331623
-0.0331625
-0.0331628
-0.0542022
-0.0542053
-0.0542084
-0.0542116
-0.0542147
-0.0542179
-0.0542211
-0.0542243
-0.0542275
-0.0542308
-0.0542341
-0.0542374
-0.0542407
-0.0542441
-0.0542474
-0.0542508
-0.0542542
-0.0542577
-0.0542611
-0.0542646
-0.0542681
-0.0542716
-0.0542752
-0.0542787
-0.0542823
-0.0542859
-0.0542895
-0.0542932
-0.0542968
-0.0543005
-0.0543042
-0.0543079
-0.0543117
-0.0543154
-0.0543192
-0.054323
-0.0543268
-0.0543307
-0.0543345
-0.0543384
-0.0543423
-0.0543462
-0.0543502
-0.0543541
-0.0543581
-0.0543621
-0.0543661
-0.0543701
-0.0543741
-0.0543782
-0.0543823
-0.0543864
-0.0543905
-0.0543946
-0.0543987
-0.0544029
-0.0544071
-0.0544113
-0.0544155
-0.0544197
-0.0544239
-0.0544282
-0.0544324
-0.0544367
-0.054441
-0.0544453
-0.0544496
-0.054454
-0.0544583
-0.0544627
-0.0544671
-0.0544715
-0.0544759
-0.0544803
-0.0544847
-0.0544892
-0.0544936
-0.0544981
-0.0545026
-0.054507
-0.0545115
-0.054516
-0.0545206
-0.0545251
-0.0545296
-0.0545342
-0.0545387
-0.0545433
-0.0545479
-0.0545524
-0.054557
-0.0545616
-0.0545662
-0.0545708
-0.0545755
-0.0545801
-0.0545847
-0.0545894
-0.054594
-0.0545987
-0.0546033
-0.054608
-0.0546126
-0.0546173
-0.054622
-0.0546267
-0.0546313
-0.054636
-0.0546407
-0.0546454
-0.0546501
-0.0546548
-0.0546595
-0.0546642
-0.0546689
-0.0546736
-0.0546783
-0.054683
-0.0546877
-0.0546924
-0.0546971
-0.0547018
-0.0547065
-0.0547111
-0.0547158
-0.0547205
-0.0547252
-0.0547299
-0.0547346
-0.0547393
-0.0547439
-0.0547486
-0.0547533
-0.0547579
-0.0547626
-0.0547672
-0.0547719
-0.0547765
-0.0547812
-0.0547858
-0.0547904
-0.054795
-0.0547996
-0.0548042
-0.0548088
-0.0548134
-0.054818
-0.0548226
-0.0548271
-0.0548317
-0.0548362
-0.0548407
-0.0548453
-0.0548498
-0.0548543
-0.0548587
-0.0548632
-0.0548677
-0.0548721
-0.0548766
-0.054881
-0.0548854
-0.0548898
-0.0548942
-0.0548986
-0.054903
-0.0549073
-0.0549116
-0.054916
-0.0549203
-0.0549245
-0.0549288
-0.0549331
-0.0549373
-0.0549416
-0.0549458
-0.05495
-0.0549541
-0.0549583
-0.0549624
-0.0549666
-0.0549707
-0.0549748
-0.0549789
-0.0549829
-0.0549869
-0.054991
-0.054995
-0.0549989
-0.0550029
-0.0550068
-0.0550108
-0.0550147
-0.0550185
-0.0550224
-0.0550262
-0.0550301
-0.0550339
-0.0550376
-0.0550414
-0.0550451
-0.0550488
-0.0550525
-0.0550562
-0.0550598
-0.0550635
-0.0550671
-0.0550706
-0.0550742
-0.0550777
-0.0550812
-0.0550847
-0.0550882
-0.0550916
-0.055095
-0.0550984
-0.0551018
-0.0551051
-0.0551084
-0.0551117
-0.0551149
-0.0551182
-0.0551214
-0.0551246
-0.0551277
-0.0551309