/*--------------------------------*- C++ -*----------------------------------*\
| =========                 |                                                 |
| \\      /  F ield         | OpenFOAM: The Open Source CFD Toolbox           |
|  \\    /   O peration     | Version:  2.4.0                                 |
|   \\  /    A nd           | Web:      www.OpenFOAM.org                      |
|    \\/     M anipulation  |                                                 |
\*---------------------------------------------------------------------------*/
FoamFile
{
    version     2.0;
    format      ascii;
    class       volScalarField;
    location    "4";
    object      alpha1;
}
// * * * * * * * * * * * * * * * * * * * * * * * * * * * * * * * * * * * * * //

dimensions      [0 0 0 0 0 0 0];

internalField   nonuniform List<scalar> 
8000
(
1
0.999999
0.999998
0.999998
0.999998
0.999999
0.999999
0.999999
0.999999
1
0.999999
0.999998
0.999998
0.999999
0.999998
0.999995
0.999935
0.999819
0.999657
0.967749
0.873687
0.767114
0.628837
0.494262
0.365397
0.248923
0.15626
0.0909569
0.0525855
0.0312633
0.0183866
0.00992489
0.00475896
0.00229931
0.00128747
0.000762734
0.000415854
0.00020371
9.50232e-05
4.50599e-05
2.22673e-05
1.16846e-05
6.73705e-06
4.33264e-06
2.89569e-06
1.81205e-06
1.04647e-06
5.32777e-07
1.8157e-07
2.85304e-07
1
0.999999
0.999998
0.999998
0.999998
0.999999
0.999999
1
0.999999
0.999998
0.999999
0.999997
0.999885
0.999614
0.999532
0.879303
0.585095
0.355387
0.183873
0.0910547
0.0491043
0.0304902
0.0190518
0.0111176
0.00606791
0.00317604
0.00167304
0.000956991
0.000630289
0.000467018
0.00036821
0.00029793
0.000233311
0.000188929
0.00017935
0.00013775
8.08646e-05
4.07039e-05
1.96008e-05
9.79746e-06
5.06685e-06
2.6981e-06
1.59988e-06
1.17822e-06
9.85694e-07
6.77591e-07
3.93386e-07
2.06327e-07
7.94734e-08
7.5588e-08
1
0.999999
0.999998
0.999998
0.999998
0.999998
0.999999
0.999999
0.999987
0.999699
0.998887
0.999852
0.447423
0.150969
0.0461036
0.0232609
0.0122838
0.005363
0.00206842
0.000836751
0.000422038
0.000256418
0.000170179
0.000117953
8.39669e-05
6.08599e-05
4.46443e-05
3.26231e-05
2.31764e-05
1.60105e-05
1.1012e-05
7.72358e-06
5.51747e-06
3.88615e-06
2.7152e-06
2.00219e-06
1.55786e-06
1.0602e-06
5.87715e-07
1.37697e-06
1.25928e-06
5.53426e-07
9.99053e-08
9.35403e-08
5.2901e-07
6.99034e-07
5.33206e-07
1.25712e-07
7.46685e-08
7.2792e-08
1
0.999999
0.999999
0.999999
0.999998
0.999998
0.999787
0.999661
0.794842
0.051185
0.0151689
0.00209678
0.00010137
2.72527e-05
6.76869e-06
4.28125e-06
2.81442e-06
1.8455e-06
1.20017e-06
7.17011e-07
5.05623e-07
3.57687e-07
2.65469e-07
2.11389e-07
1.84681e-07
1.76587e-07
1.74712e-07
1.7361e-07
1.73194e-07
1.72783e-07
1.74886e-07
1.81157e-07
1.77443e-07
1.51189e-07
1.34361e-07
1.34704e-07
1.3542e-07
3.17292e-07
2.82244e-07
1.2208e-07
8.92502e-08
8.89498e-08
8.89891e-08
1.1723e-07
2.64872e-07
1.23966e-07
7.90277e-08
7.81139e-08
1.1075e-07
7.24326e-08
1
0.999999
0.999999
0.999998
0.999998
0.999226
0.242215
0.0196836
0.0198575
6.52244e-05
2.77525e-05
3.43126e-07
3.07494e-07
2.33269e-07
1.55817e-07
1.10958e-07
8.06128e-08
6.79784e-08
6.73968e-08
6.91697e-08
8.07802e-08
9.07816e-08
1.1141e-07
1.37709e-07
1.74902e-07
2.16336e-07
2.17137e-07
1.89945e-07
1.88411e-07
1.72376e-07
2.64152e-07
2.98817e-07
2.93398e-07
1.54503e-07
1.3007e-07
1.69602e-07
1.68528e-07
1.24508e-07
1.02863e-07
1.02003e-07
8.88036e-08
1.25722e-07
1.34996e-07
1.00338e-07
8.51853e-08
8.25837e-08
8.22901e-08
7.83125e-08
1.12111e-07
1.12847e-07
1
0.999999
0.999998
0.999998
0.96467
0.0121851
0.00485614
0.000273762
0.000176941
2.13281e-06
1.26911e-06
7.43915e-07
4.95743e-07
3.35062e-07
2.19636e-07
1.41555e-07
9.80951e-08
8.28484e-08
8.34248e-08
9.34267e-08
1.31215e-07
1.36185e-07
1.76554e-07
2.42839e-07
2.71838e-07
3.70338e-07
1.54766e-07
1.63305e-07
3.15003e-07
1.18038e-07
1.43392e-07
1.35433e-07
1.20663e-07
1.19319e-07
9.91705e-08
9.43236e-08
8.36899e-08
8.28278e-08
8.40186e-08
1.43731e-07
7.56699e-08
6.97823e-08
7.92581e-08
8.3179e-08
8.45073e-08
9.10372e-08
9.33382e-08
9.58817e-08
9.37226e-08
9.29158e-08
1
0.999999
0.999997
0.999992
0.682263
3.60716e-05
5.02207e-05
9.30416e-06
3.18946e-06
3.0386e-06
1.6605e-06
7.72642e-07
3.78122e-07
1.97353e-07
1.13009e-07
8.139e-08
8.05723e-08
9.03633e-08
9.45524e-08
9.57173e-08
1.92761e-07
1.17967e-07
1.45691e-07
3.39912e-07
3.92663e-07
1.53705e-07
1.54542e-07
1.74832e-07
1.84608e-07
1.01054e-07
1.06176e-07
9.63396e-08
8.77202e-08
8.24053e-08
7.86467e-08
7.55846e-08
7.363e-08
7.36092e-08
9.01305e-08
6.92857e-08
6.94861e-08
7.08808e-08
8.2333e-08
9.77084e-08
9.59812e-08
1.14111e-07
1.13573e-07
9.94981e-08
6.31647e-08
7.44897e-08
1
0.999999
0.999998
0.999997
0.787378
0.000182257
0.00022401
0.000144862
6.32534e-05
1.86962e-05
4.21045e-06
4.33868e-07
1.68578e-07
9.80755e-08
8.90355e-08
8.59772e-08
8.71578e-08
9.22803e-08
9.62668e-08
1.00895e-07
1.07801e-07
1.17914e-07
1.52743e-07
3.09583e-07
3.91124e-07
1.55074e-07
1.9365e-07
3.37586e-07
1.02598e-07
1.01996e-07
9.29542e-08
8.4363e-08
7.87986e-08
7.54945e-08
7.37223e-08
7.29151e-08
7.26645e-08
7.28876e-08
7.3394e-08
7.42229e-08
7.47064e-08
7.16297e-08
1.06257e-07
1.12606e-07
9.44968e-08
6.0701e-08
6.00606e-08
6.06099e-08
6.19136e-08
6.5723e-08
1
0.999999
0.999997
1
0.729482
0.00760396
0.0100292
0.0037119
0.00235659
0.0011802
0.000737581
0.000355147
0.000212219
0.000111828
7.10628e-05
4.58182e-05
3.00016e-05
1.79684e-05
1.07863e-05
7.54354e-06
5.619e-06
4.33513e-06
3.35477e-06
2.51512e-06
1.76693e-06
1.12223e-06
6.70421e-07
4.58634e-07
3.17907e-07
2.09902e-07
1.47609e-07
1.12146e-07
9.20262e-08
8.1058e-08
7.62212e-08
7.53697e-08
7.50892e-08
7.53366e-08
7.74944e-08
7.86754e-08
1.58092e-07
7.08433e-08
7.03681e-08
7.04741e-08
9.57254e-08
6.02555e-08
6.01618e-08
6.18275e-08
6.07347e-08
6.09255e-08
1
0.999999
0.999995
0.999999
1
0.358017
0.170544
0.121914
0.108992
0.0785434
0.0677424
0.0518763
0.0421436
0.0330683
0.0263399
0.0205307
0.0158888
0.0122515
0.0094692
0.0072456
0.00546212
0.00400703
0.00289239
0.00207599
0.00148955
0.00105584
0.000738124
0.000496222
0.000319387
0.000201478
0.000128905
8.42443e-05
5.53513e-05
3.56973e-05
2.17788e-05
1.19149e-05
5.59516e-06
2.29255e-06
9.05479e-07
3.79272e-07
1.74497e-07
1.21847e-07
8.2667e-08
6.86465e-08
6.60895e-08
6.35967e-08
6.2495e-08
1.146e-07
6.11202e-08
6.1004e-08
1
0.999998
0.999993
0.999997
1
1
1
0.999986
0.91318
0.688864
0.656883
0.603453
0.558122
0.505562
0.457502
0.411755
0.370216
0.329616
0.291871
0.255671
0.222793
0.192422
0.164838
0.138987
0.115635
0.0947001
0.0764802
0.0606981
0.0472119
0.0359654
0.0267713
0.0195191
0.0139656
0.00978995
0.00664152
0.00426931
0.0025191
0.00135116
0.000686336
0.000349307
0.000180993
9.41188e-05
4.6044e-05
1.784e-05
4.88081e-06
1.27633e-06
4.00656e-07
1.49877e-07
9.52698e-08
6.6318e-08
1
0.999998
0.999992
0.999998
1
1
1
1
1
1
1
1
1
1
1
1
1.00005
0.972175
0.949436
0.924641
0.896003
0.862586
0.824178
0.783349
0.740162
0.691238
0.637939
0.586245
0.533061
0.476446
0.417223
0.357838
0.299476
0.244918
0.196008
0.153941
0.11778
0.0878628
0.0630977
0.0433474
0.028486
0.0180597
0.0108139
0.00542308
0.00211668
0.000781088
0.000311252
0.000127983
4.83974e-05
1.41472e-05
1
0.999998
0.999999
0.999999
1
1
1
1
1
1
1
1
1
1
1
1
1
1
1
1
1
1
1
1
1
1
1
0.999999
0.993595
0.973386
0.955846
0.933293
0.903819
0.867957
0.82249
0.765143
0.697208
0.622343
0.544878
0.461521
0.371704
0.281548
0.201715
0.138751
0.0909719
0.0559218
0.0314564
0.0163806
0.00762726
0.00280866
1
0.999999
0.999999
0.999999
1
1
1
1
1
1
1
1
1
1
1
1
1
1
0.999999
0.999999
0.999999
0.999999
0.999999
0.999999
0.999999
0.999999
0.999999
0.999998
0.999999
1
1
1
1
1
1
1
0.997123
0.975508
0.962246
0.944862
0.915444
0.871378
0.808526
0.721106
0.613452
0.486111
0.342827
0.211546
0.1198
0.0637632
1
0.999998
0.999998
1
1
1
1
1
1
1
1
1
1
1
1
1
1
0.999999
0.999999
0.999998
0.999998
0.999998
0.999998
0.999998
0.999998
0.999997
0.999994
0.999983
0.99996
0.999977
0.999996
0.999999
0.999999
1
1
1
1
1
1
1
1
1
0.999997
0.990831
0.978161
0.96108
0.925021
0.848796
0.695962
0.469563
1
0.999996
0.999997
1
1
1
1
1
1
1
1
1
1
1
1
1
1
0.999999
0.999998
0.999998
0.999998
0.999997
0.999997
0.999997
0.999997
0.999996
0.999991
0.99995
0.99993
0.999942
0.999992
0.999997
0.999998
0.999999
0.999999
0.999999
0.999999
0.999999
0.999999
0.999999
0.999999
0.999999
1
1
1
1
1
1
0.999994
0.982025
1
0.999995
0.999998
1
1
1
1
1
1
1
1
1
1
1
1
1
0.999999
0.999999
0.999999
0.999998
0.999998
0.999997
0.999997
0.999997
0.999997
0.999997
0.999995
0.999969
0.999931
0.999931
0.99996
0.999993
0.999995
0.999997
0.999998
0.999998
0.999998
0.999998
0.999998
0.999997
0.999997
0.999997
0.999997
0.999997
0.999998
0.999999
0.999999
0.999999
1
1
1
0.999996
0.999998
1
1
1
1
1
1
1
1
1
1
1
1
1
1
0.999999
0.999999
0.999999
0.999999
0.999998
0.999998
0.999998
0.999998
0.999998
0.999998
0.999997
0.999992
0.999966
0.999947
0.999967
0.999987
0.999993
0.999997
0.999998
0.999998
0.999999
0.999998
0.999998
0.999997
0.999996
0.999996
0.999995
0.999995
0.999996
0.999997
0.999994
0.999997
0.999997
1
0.999998
0.999999
1
1
1
1
1
1
1
1
1
1
1
1
1
1
1
0.999999
0.999999
0.999999
0.999999
0.999999
0.999999
0.999999
0.999999
0.999999
0.999999
0.999999
0.999998
0.999995
0.999989
0.999981
0.999988
0.999995
0.999997
0.999998
0.999998
0.999999
0.999999
0.999998
0.999998
0.999997
0.999996
0.999995
0.999996
0.999996
0.999968
0.999991
0.999997
1
1
1
1
1
1
1
1
1
1
1
1
1
1
1
1
1
1
1
1
1
0.999999
0.999999
0.999999
0.999999
0.999999
0.999999
0.999999
0.999999
0.999999
0.999999
0.999998
0.999997
0.999997
0.999997
0.999998
0.999998
0.999998
0.999999
0.999998
0.999998
0.999998
0.999997
0.999997
0.999997
0.999998
0.999926
0.993864
0.999985
0.970114
1.55184e-07
1.65023e-07
1.63879e-07
1.64961e-07
1.62372e-07
1.48524e-07
1.19013e-07
1.47628e-07
2.72729e-07
4.84317e-07
4.80419e-07
2.26515e-07
1.2968e-07
1.31448e-07
1.26946e-07
1.80624e-07
1.00747e-06
1.19829e-06
1.19676e-06
4.53333e-07
3.28506e-07
1.14024e-06
1.94457e-06
1.97716e-06
1.03687e-06
6.82398e-07
5.90484e-07
4.16622e-07
1.69032e-07
7.5585e-08
7.66769e-08
7.46131e-08
7.46707e-08
2.12503e-07
5.34512e-07
5.30805e-07
5.33576e-07
4.25472e-07
1.51056e-07
7.05233e-08
6.84204e-08
6.79434e-08
6.79369e-08
1.09553e-07
2.62388e-07
1.24177e-07
6.83784e-08
6.71805e-08
6.71771e-08
1.37768e-07
7.49738e-08
7.32998e-08
7.09894e-08
1.1446e-07
3.0905e-07
3.96856e-07
1.92961e-07
7.84427e-08
7.4596e-08
7.40901e-08
7.46703e-08
7.55099e-08
7.59711e-08
7.59853e-08
7.59295e-08
7.5927e-08
7.59398e-08
4.5506e-07
5.17767e-07
1.98626e-07
7.92378e-08
7.72313e-08
1.51149e-07
2.4162e-07
1.14565e-07
9.79753e-08
9.73386e-08
7.48212e-08
7.35077e-08
7.34005e-08
7.33989e-08
8.03918e-08
2.67604e-07
2.03086e-07
7.39988e-08
7.25208e-08
7.40467e-08
7.2557e-08
7.16259e-08
7.47502e-08
6.85675e-08
6.79783e-08
6.80873e-08
6.93572e-08
6.93542e-08
6.77229e-08
6.76816e-08
7.59205e-08
1.34063e-07
1.34209e-07
7.48772e-08
7.35388e-08
7.09235e-08
7.09928e-08
7.31014e-08
4.00377e-07
5.11099e-07
5.05673e-07
2.57957e-07
7.64408e-08
7.50679e-08
7.69102e-08
7.81165e-08
7.70721e-08
7.62803e-08
7.74142e-08
7.76462e-08
7.75308e-08
7.70815e-08
7.69749e-08
7.70497e-08
7.71132e-08
7.71234e-08
7.79336e-08
9.53671e-08
3.73782e-07
4.02537e-07
3.96907e-07
1.40234e-07
7.4431e-08
7.34102e-08
7.34148e-08
1.4302e-07
6.66551e-07
3.41929e-07
7.81321e-08
6.95059e-08
6.93727e-08
6.93657e-08
2.03118e-07
1.41124e-07
6.93616e-08
6.76612e-08
6.76022e-08
6.76732e-08
6.85834e-08
6.90065e-08
6.80096e-08
6.79803e-08
6.96846e-08
7.07352e-08
7.06691e-08
7.06937e-08
7.11513e-08
1.25539e-07
4.2121e-07
2.52625e-07
7.00376e-08
6.76544e-08
1.79706e-07
1.24252e-07
7.71572e-08
7.5986e-08
7.59501e-08
7.59399e-08
7.59814e-08
1.74594e-07
9.26978e-08
7.73961e-08
7.69412e-08
7.69202e-08
7.69199e-08
7.69949e-08
5.45249e-07
3.85127e-07
1.1683e-07
7.46998e-08
7.3853e-08
7.37937e-08
7.36541e-08
7.34826e-08
7.37364e-08
1.41372e-07
8.91341e-07
8.54825e-07
4.29579e-07
8.54001e-08
6.95092e-08
6.95282e-08
1.99868e-07
7.80082e-07
3.95377e-07
8.34468e-08
6.77589e-08
6.78016e-08
6.8837e-08
1.97005e-07
1.28123e-07
7.01805e-08
7.08383e-08
7.22374e-08
7.07851e-08
7.27024e-08
1.66779e-07
1.69145e-07
8.42943e-08
6.85342e-08
6.80353e-08
6.77532e-08
2.2308e-07
1.81303e-07
7.87228e-08
7.61553e-08
7.62592e-08
7.60829e-08
7.71291e-08
3.9839e-07
2.89697e-07
9.77161e-08
7.74169e-08
7.6973e-08
7.7118e-08
7.86802e-08
5.70442e-07
6.79076e-07
3.00353e-07
7.64371e-08
7.39978e-08
7.40732e-08
7.55924e-08
1.04641e-07
1.87076e-07
7.71339e-07
8.94028e-07
8.99129e-07
4.98951e-07
8.99445e-08
6.97319e-08
7.93578e-08
5.89459e-07
1.12548e-06
1.12986e-06
5.71758e-07
1.00255e-07
6.80485e-08
6.82625e-08
3.39882e-07
6.32418e-07
6.28943e-07
4.62315e-07
8.19957e-08
7.23373e-08
8.63195e-08
7.95582e-08
8.30841e-08
8.99743e-08
1.12583e-07
1.06346e-07
8.21773e-08
2.24767e-07
1.85243e-07
8.15136e-08
8.9116e-08
8.01242e-08
1.0675e-07
3.15473e-07
3.99793e-07
4.03406e-07
1.7968e-07
7.97279e-08
8.0194e-08
1.24634e-07
4.56656e-07
7.27154e-07
7.39101e-07
4.48199e-07
1.42243e-07
7.56276e-08
1.21227e-07
4.92445e-07
8.9028e-07
8.95166e-07
8.89148e-07
4.79476e-07
1.50304e-07
1.17115e-07
1.16009e-07
1.66275e-07
6.04376e-07
1.12656e-06
1.12934e-06
1.12499e-06
1.10688e-06
4.73907e-07
1.30784e-07
7.03254e-08
1.12394e-07
1.74981e-07
2.47849e-07
6.54904e-07
6.58674e-08
7.13789e-08
6.37648e-08
9.3215e-08
1.50718e-07
1.76494e-07
1.54627e-07
1.76119e-07
9.12613e-08
8.73804e-08
8.12842e-08
9.12445e-08
1.5306e-07
2.99035e-07
4.20159e-07
4.68473e-07
3.81103e-07
2.62183e-07
2.10302e-07
2.0038e-07
2.70489e-07
4.54905e-07
5.27008e-07
6.97295e-07
4.92229e-07
4.4414e-07
3.88712e-07
4.78651e-07
4.61071e-07
3.5659e-07
4.72403e-07
4.88289e-07
5.18728e-07
5.92589e-07
6.45213e-07
6.43755e-07
5.7388e-07
4.89737e-07
4.91586e-07
5.08207e-07
7.99386e-07
1.07252e-06
7.17997e-07
4.10908e-07
1.87168e-07
3.25818e-07
7.3927e-07
8.59064e-07
5.76832e-07
1.8902e-07
7.33416e-08
7.72852e-08
7.82749e-08
2.27298e-07
2.96734e-07
1.74242e-07
6.97305e-08
6.66575e-08
6.76452e-08
7.01022e-08
7.21685e-08
1.56509e-07
3.84098e-07
6.35016e-07
6.40253e-07
5.43451e-07
1.02178e-07
6.1527e-08
5.23159e-08
1.65726e-07
6.38654e-07
8.01278e-07
6.9258e-07
1.36922e-07
1.42714e-07
3.82354e-07
6.5323e-07
6.00676e-07
1.66494e-07
8.93068e-08
1.58564e-07
6.00648e-07
9.54874e-07
9.44266e-07
6.04687e-07
3.61951e-07
3.61987e-07
5.0693e-07
6.1185e-07
4.99979e-07
1.14856e-07
1.18067e-07
1.73665e-07
4.38107e-07
8.88038e-07
9.48739e-07
9.13602e-07
2.46596e-07
1.48276e-07
1.8219e-07
6.11444e-08
6.31938e-08
9.65685e-08
2.07954e-07
2.97602e-07
6.73819e-08
6.5367e-08
6.54156e-08
6.62391e-08
1.01968e-07
2.50528e-07
2.50158e-07
1.47107e-07
8.11989e-08
4.02027e-07
5.59025e-07
1.35595e-07
5.03032e-08
5.0358e-08
7.25192e-08
4.11776e-07
8.06127e-07
3.24754e-07
6.56051e-08
1.68051e-07
4.76532e-07
6.43953e-07
6.21016e-08
5.56138e-08
1.92716e-07
7.56865e-07
8.8289e-07
7.26164e-07
1.76396e-07
1.74432e-07
6.43461e-07
7.34398e-07
5.79832e-08
3.15417e-08
3.30628e-08
1.24614e-07
7.31826e-07
1.11417e-06
1.09688e-06
2.58738e-07
3.1837e-08
3.19643e-08
8.16995e-08
9.21495e-07
1.91577e-06
6.19225e-08
6.19539e-08
6.30937e-08
1.03841e-07
2.14728e-07
6.67713e-08
6.53674e-08
6.53679e-08
6.54171e-08
6.66369e-08
1.19649e-07
2.38494e-07
5.76415e-08
5.06715e-08
1.99294e-07
4.39381e-07
9.66806e-08
5.02198e-08
5.0127e-08
7.50035e-08
3.56115e-07
6.45974e-07
1.00722e-07
5.63306e-08
1.09469e-07
3.21122e-07
4.13371e-07
5.43948e-08
5.43888e-08
6.70899e-08
3.52503e-07
8.23606e-07
4.09355e-07
1.11028e-07
1.49232e-07
5.40277e-07
7.15148e-07
3.13158e-08
3.09634e-08
3.11754e-08
3.55842e-08
2.52606e-07
7.80602e-07
1.11624e-06
1.39169e-07
3.12622e-08
3.12871e-08
3.71666e-08
4.50672e-07
1.64577e-06
6.43885e-08
6.44106e-08
6.43177e-08
7.12901e-08
1.13038e-07
1.09371e-07
6.5521e-08
6.54357e-08
6.63518e-08
6.60805e-08
6.7021e-08
9.63842e-08
7.601e-08
4.91049e-08
6.61362e-08
1.83296e-07
1.83944e-07
4.98334e-08
4.97554e-08
5.22266e-08
2.12149e-07
4.62e-07
1.45519e-07
5.57973e-08
5.43518e-08
2.22915e-07
3.62738e-07
5.4474e-08
5.42805e-08
5.51428e-08
1.40663e-07
3.8842e-07
4.82827e-07
8.0541e-08
1.13202e-07
4.68379e-07
6.58305e-07
3.65881e-08
3.15121e-08
3.11639e-08
3.24542e-08
8.24101e-08
4.75498e-07
9.39131e-07
1.50018e-07
3.41578e-08
3.20497e-08
3.29077e-08
3.42339e-08
1.13038e-07
3.5298e-06
1.15431e-06
4.24444e-07
1.48073e-07
9.1031e-08
7.10539e-08
6.8208e-08
6.7703e-08
7.06486e-08
6.72918e-08
6.8098e-08
8.52377e-08
4.94874e-08
4.91129e-08
5.0432e-08
9.82029e-08
1.67448e-07
4.97932e-08
4.9736e-08
5.06297e-08
8.60972e-08
2.36308e-07
2.3635e-07
5.94961e-08
5.21765e-08
1.75266e-07
3.44888e-07
6.86091e-08
5.42565e-08
5.36685e-08
8.15738e-08
2.81282e-07
4.15058e-07
4.76032e-08
4.40199e-08
2.09469e-07
4.15598e-07
4.15835e-07
1.3456e-07
3.20203e-08
3.30589e-08
3.43168e-08
6.41596e-08
2.66653e-07
4.53479e-07
4.46695e-07
2.20934e-07
3.34847e-08
3.3972e-08
3.77755e-08
0.000898382
0.000350924
0.000152216
5.21679e-05
1.3255e-05
3.2007e-06
9.20727e-07
2.61774e-07
8.79209e-08
7.37287e-08
7.29605e-08
7.44144e-08
6.53946e-08
7.38956e-08
1.04254e-07
9.74735e-08
5.54161e-08
5.29635e-08
5.01362e-08
4.97672e-08
5.04195e-08
7.17623e-08
1.55046e-07
5.35181e-08
5.0513e-08
5.45557e-08
1.60184e-07
1.94105e-07
1.5929e-07
5.33524e-08
5.34583e-08
7.22334e-08
1.82252e-07
7.82575e-08
4.17704e-08
4.08656e-08
8.83005e-08
2.09576e-07
2.06286e-07
7.78274e-08
2.89318e-07
2.87597e-07
2.01654e-07
4.0858e-08
4.08656e-08
5.83511e-08
1.5417e-07
1.59442e-07
1.42708e-07
3.46184e-07
0.0328329
0.0166719
0.00785308
0.00315557
0.001065
0.000357817
0.000134721
4.61886e-05
1.15845e-05
2.27422e-06
4.0188e-07
1.08964e-07
1.00844e-07
9.96012e-08
7.95662e-08
7.20818e-08
7.42308e-08
7.41237e-08
5.09828e-08
5.38803e-08
5.55229e-08
5.64091e-08
5.73405e-08
7.33157e-08
5.0449e-08
5.05549e-08
5.11425e-08
5.50743e-08
9.51942e-08
9.99009e-08
5.27396e-08
4.96631e-08
7.29494e-08
1.07956e-07
4.09501e-08
3.98248e-08
4.98725e-08
1.32862e-07
1.66223e-07
4.0619e-08
4.08122e-08
5.17774e-08
1.22127e-07
1.21208e-07
6.05921e-08
3.94071e-08
4.2347e-08
1.49068e-07
2.08265e-07
1.71894e-07
0.257164
0.121285
0.0506097
0.0216388
0.010029
0.00491748
0.00239109
0.00106124
0.000401376
0.000136059
3.95813e-05
9.31705e-06
1.53276e-06
2.21306e-07
1.22888e-07
9.75794e-08
7.84e-08
7.35212e-08
7.0395e-08
6.76845e-08
6.48125e-08
6.12627e-08
5.90202e-08
9.25405e-08
5.0633e-08
5.28121e-08
5.25273e-08
5.29772e-08
5.2927e-08
5.09372e-08
4.83386e-08
4.8275e-08
4.79805e-08
4.87528e-08
6.42296e-08
3.88293e-08
3.92716e-08
3.94795e-08
3.97128e-08
4.04256e-08
4.06724e-08
4.07468e-08
4.17474e-08
9.4783e-08
1.18663e-07
9.58631e-08
3.96993e-08
3.86855e-08
4.03223e-08
7.6618e-08
0.930914
0.738727
0.34868
0.122204
0.0353741
0.0115008
0.00496233
0.00253005
0.00138951
0.000761385
0.000385416
0.000171099
6.10653e-05
1.68987e-05
3.21497e-06
3.75213e-07
1.33424e-07
1.13515e-07
9.80864e-08
7.29282e-08
6.71364e-08
1.01209e-07
5.91223e-08
6.45337e-08
6.04268e-08
6.21257e-08
5.83745e-08
5.48303e-08
5.13792e-08
4.82161e-08
4.56108e-08
4.35764e-08
4.19473e-08
4.06351e-08
3.95705e-08
3.87285e-08
3.80058e-08
3.74536e-08
3.71859e-08
3.7317e-08
3.78824e-08
3.88011e-08
3.9878e-08
4.08593e-08
4.16195e-08
4.17827e-08
4.07404e-08
3.80719e-08
6.38034e-08
3.08589e-08
1
0.999997
0.978061
0.77762
0.274972
0.0563674
0.0117222
0.00287725
0.00116558
0.000752659
0.000533809
0.000363423
0.00023688
0.000134424
6.04497e-05
1.96393e-05
4.2381e-06
7.24686e-07
2.50051e-07
1.39326e-07
1.02534e-07
9.40686e-08
8.38286e-08
6.6843e-08
1.08022e-07
6.63153e-08
6.90861e-08
6.59297e-08
6.22303e-08
5.84929e-08
5.46367e-08
5.08773e-08
4.74164e-08
4.43017e-08
4.15302e-08
3.90876e-08
3.69478e-08
3.50871e-08
3.34918e-08
3.21627e-08
3.11129e-08
3.03597e-08
2.99045e-08
2.97081e-08
2.96886e-08
2.97534e-08
2.98467e-08
2.99778e-08
3.0234e-08
3.00001e-08
0.999996
0.999997
0.999987
0.952439
0.76987
0.283637
0.045352
0.00760314
0.00158678
0.000476254
0.000314832
0.000293208
0.000277424
0.000229317
0.000152925
9.86246e-05
5.25174e-05
2.09728e-05
5.99024e-06
1.2153e-06
1.94673e-07
1.36703e-07
1.14831e-07
1.01342e-07
9.71857e-08
8.81952e-08
8.22566e-08
7.7796e-08
7.41251e-08
7.07572e-08
6.73597e-08
6.37733e-08
5.9995e-08
5.6144e-08
5.23552e-08
4.83949e-08
4.43239e-08
4.09811e-08
3.79734e-08
3.52562e-08
3.28205e-08
3.0648e-08
2.87361e-08
2.70937e-08
2.57237e-08
2.46104e-08
2.3723e-08
2.30289e-08
2.24971e-08
2.20817e-08
0.999985
0.982779
0.847349
0.510294
0.162978
0.0233127
0.00442947
0.00142142
0.000454084
0.000156484
3.36314e-05
6.58186e-06
1.15984e-05
4.75143e-05
0.000129617
0.000130844
0.000115365
6.4729e-05
4.10593e-05
2.56141e-05
1.12857e-05
2.77762e-06
4.01138e-07
1.06248e-07
1.10314e-07
1.05058e-07
9.84588e-08
9.23019e-08
8.71315e-08
8.15569e-08
7.79812e-08
7.46864e-08
7.13467e-08
6.79065e-08
6.43545e-08
6.06402e-08
5.67266e-08
5.28048e-08
4.89602e-08
4.52473e-08
4.17048e-08
3.83554e-08
3.51945e-08
3.22096e-08
2.90295e-08
2.65414e-08
2.43696e-08
2.24789e-08
2.08668e-08
1.95154e-08
0.789234
0.581225
0.194034
0.0165226
0.00618281
0.000871663
0.000228269
7.72375e-05
2.67077e-05
7.70684e-06
1.73373e-06
5.44349e-07
5.45755e-07
5.4412e-07
6.72639e-07
1.40618e-06
5.77072e-06
3.41113e-05
6.55946e-05
6.56984e-05
5.18726e-05
2.84266e-05
1.45493e-05
5.08015e-06
9.11338e-07
1.07885e-07
1.04713e-07
1.01011e-07
9.12634e-08
1.08921e-07
8.72334e-08
8.23855e-08
7.97715e-08
7.71416e-08
7.40894e-08
7.07682e-08
6.72993e-08
6.37064e-08
5.99963e-08
5.62107e-08
5.2411e-08
4.86502e-08
4.49502e-08
4.13134e-08
3.76598e-08
3.41931e-08
3.09708e-08
2.79975e-08
2.52551e-08
2.27367e-08
1.36851e-07
9.43127e-08
6.23061e-08
6.02352e-08
5.99398e-08
5.97267e-08
5.95829e-08
5.94955e-08
5.95061e-08
6.2834e-08
6.0415e-08
5.97478e-08
6.01736e-08
6.00809e-08
5.92235e-08
5.92149e-08
6.72372e-08
1.24146e-06
8.21038e-07
2.3964e-07
6.10283e-08
5.77652e-08
6.29425e-08
7.6177e-08
7.65669e-08
5.81721e-08
5.75227e-08
5.64425e-08
6.78168e-08
1.71791e-06
8.73834e-06
8.08142e-06
2.23499e-06
2.13335e-07
5.30421e-08
5.06719e-08
5.05684e-08
5.05712e-08
5.10958e-08
2.4645e-06
1.65978e-05
1.5935e-05
1.23257e-05
3.88207e-06
2.77281e-07
5.05802e-08
3.51904e-07
2.02481e-07
1.9364e-07
2.65064e-07
3.08215e-07
2.91578e-07
2.93308e-07
2.81401e-07
9.0728e-08
3.94895e-08
3.84412e-08
3.82865e-08
3.82774e-08
1.213e-07
2.19247e-06
1.95817e-06
1.09479e-06
2.37075e-07
5.00822e-08
4.80209e-08
4.81321e-08
4.65936e-08
4.59006e-08
4.58893e-08
4.88254e-08
9.91242e-07
1.63075e-06
1.6679e-06
6.95202e-07
7.96277e-08
4.78608e-08
1.08981e-07
1.10807e-07
7.03201e-08
4.16798e-08
4.27766e-08
3.89338e-07
1.59793e-06
1.51971e-06
1.10523e-06
2.99615e-07
4.67517e-08
3.61913e-07
2.58877e-07
8.27992e-08
6.74824e-08
6.38369e-08
4.42246e-07
1.1201e-06
1.10776e-06
4.58001e-07
6.76619e-08
5.87363e-08
5.72999e-08
5.8322e-08
2.99978e-07
7.68307e-07
7.4846e-07
3.36481e-07
5.35196e-08
5.2147e-08
2.68174e-07
6.98921e-07
6.48074e-07
2.56192e-07
6.82413e-08
6.62567e-08
6.63168e-08
7.9269e-08
3.75111e-07
2.51942e-07
1.00718e-07
1.64703e-07
2.44389e-07
2.47e-07
1.00818e-07
7.36849e-08
8.43132e-08
3.23397e-07
3.45906e-07
2.10219e-07
5.25435e-08
5.0395e-08
5.05135e-08
7.91564e-08
4.03648e-07
3.19289e-07
1.23988e-07
4.85461e-08
4.70304e-08
4.69578e-08
4.69562e-08
2.41625e-07
1.97657e-07
6.10497e-08
4.83484e-08
1.2696e-07
4.10076e-07
4.13002e-07
2.49862e-07
7.02081e-08
6.81651e-08
9.7648e-08
3.23951e-07
3.34244e-07
2.08374e-07
8.83074e-08
8.68165e-08
8.6856e-08
3.23261e-07
5.66589e-07
5.55456e-07
3.86218e-07
1.03161e-07
4.38309e-08
4.2326e-08
4.03446e-08
4.10097e-08
4.52707e-08
6.07443e-08
2.10917e-07
3.16667e-07
2.05463e-07
5.36356e-08
3.59076e-08
2.25159e-08
1.33566e-08
7.05369e-09
3.15635e-09
1.15441e-09
3.32881e-10
7.23668e-11
1.12326e-11
1.31471e-12
3.49471e-13
3.1714e-13
3.24689e-13
3.31567e-13
3.36316e-13
3.38799e-13
3.39138e-13
3.37688e-13
3.34935e-13
3.31539e-13
3.28206e-13
3.25284e-13
3.2245e-13
3.20014e-13
3.18193e-13
3.171e-13
3.1674e-13
3.17019e-13
3.17757e-13
3.18703e-13
3.19551e-13
3.19967e-13
3.19644e-13
3.18574e-13
3.16456e-13
3.13002e-13
3.07977e-13
3.01204e-13
2.92587e-13
2.82106e-13
2.69831e-13
2.55911e-13
2.40567e-13
2.24076e-13
2.0676e-13
1.8896e-13
1.71021e-13
1.53274e-13
1.36022e-13
1.19525e-13
1.03998e-13
8.96018e-14
7.64446e-14
6.45854e-14
5.40378e-14
4.47767e-14
3.67461e-14
2.98665e-14
2.40423e-14
1.91684e-14
1.5136e-14
1.1837e-14
9.16773e-15
7.03158e-15
5.34056e-15
4.01631e-15
2.9904e-15
2.20413e-15
1.608e-15
1.16092e-15
8.29295e-16
5.86071e-16
4.09817e-16
2.83954e-16
1.96273e-16
1.39119e-16
1.10998e-16
1.21336e-16
2.02013e-16
4.32809e-16
9.94079e-16
2.26968e-15
5.03672e-15
1.07942e-14
2.2294e-14
4.4333e-14
8.48926e-14
1.56696e-13
2.71233e-13
4.21479e-13
6.00466e-13
8.01173e-13
1.01554e-12
1.23459e-12
1.44882e-12
1.64873e-12
1.82532e-12
1.97056e-12
2.0779e-12
2.14261e-12
2.16209e-12
2.13608e-12
2.06674e-12
1.9585e-12
1.81782e-12
1.65273e-12
1.47216e-12
1.28521e-12
1.10038e-12
9.2488e-13
7.64111e-13
6.21473e-13
4.98392e-13
3.9464e-13
3.08787e-13
2.38725e-13
1.82112e-13
1.36709e-13
1.00567e-13
7.20799e-14
4.99629e-14
3.31812e-14
2.08682e-14
1.22507e-14
6.59521e-15
3.18691e-15
1.34758e-15
4.83885e-16
1.40805e-16
2.79089e-17
7.71443e-08
7.42594e-08
8.66524e-08
6.78516e-08
6.05684e-08
5.977e-08
5.96834e-08
5.96807e-08
5.96491e-08
5.96011e-08
5.96096e-08
5.93099e-08
2.03033e-07
1.23473e-06
1.23733e-06
1.23114e-06
1.23792e-06
6.14109e-07
6.82615e-08
5.85396e-08
5.91197e-08
5.75987e-08
5.72775e-08
5.72722e-08
5.68232e-08
5.67284e-08
5.37152e-08
5.15779e-08
1.01629e-07
1.9234e-06
1.26505e-06
3.21329e-07
5.41534e-08
5.09859e-08
5.06593e-08
5.05685e-08
5.05666e-08
5.06027e-08
6.86981e-07
1.57256e-05
1.50355e-05
9.83218e-06
2.65384e-06
1.31239e-07
4.9071e-08
4.85375e-08
4.88893e-08
5.0434e-08
2.70852e-07
3.08585e-07
2.0248e-07
6.60044e-08
5.3375e-08
5.3386e-08
1.63531e-07
1.13697e-07
4.15621e-08
3.83848e-08
3.8463e-08
5.6966e-08
1.61892e-06
1.03017e-06
2.47222e-07
3.90531e-08
5.11727e-08
2.155e-07
1.22498e-07
4.80424e-08
4.59294e-08
4.59226e-08
4.60372e-08
1.25112e-06
1.15079e-06
5.33487e-07
8.59628e-08
4.64844e-08
6.08669e-08
6.36772e-08
4.43492e-08
4.03751e-08
3.9974e-08
3.99751e-08
9.55801e-08
6.78522e-07
3.90634e-07
8.66203e-08
4.21718e-08
4.2436e-08
8.86393e-07
2.31661e-06
1.89638e-06
6.72716e-07
6.08808e-08
7.73736e-08
5.98599e-07
1.28631e-06
1.327e-06
8.79637e-07
1.66291e-07
5.6682e-08
5.66477e-08
5.75982e-08
4.57374e-07
7.67695e-07
5.58898e-07
1.03042e-07
4.84887e-08
5.01573e-08
6.71842e-07
5.94048e-07
3.05533e-07
7.18008e-08
6.59408e-08
6.60521e-08
1.87325e-07
3.77075e-07
3.7459e-07
1.86812e-07
8.44847e-08
8.54809e-08
1.72701e-07
4.63843e-07
4.62315e-07
2.48734e-07
5.67463e-08
2.88132e-07
4.33693e-07
4.33535e-07
1.85258e-07
5.17121e-08
5.24226e-08
2.45811e-07
3.47771e-07
3.05654e-07
7.80948e-08
4.75045e-08
4.69634e-08
4.69581e-08
1.41704e-07
9.312e-08
4.83853e-08
4.78764e-08
4.83065e-08
2.63804e-07
4.13223e-07
4.11727e-07
2.67921e-07
7.09914e-08
6.6752e-08
6.67412e-08
1.96152e-07
5.27025e-07
4.39827e-07
1.50599e-07
1.68547e-07
1.56983e-07
1.13592e-07
1.13506e-07
4.49311e-07
6.3222e-07
5.96107e-07
1.81448e-07
4.10609e-08
3.9409e-08
3.89866e-08
3.95486e-08
4.7545e-08
2.17899e-07
3.58948e-07
1.53364e-07
3.69038e-08
3.10444e-08
2.1586e-08
1.33932e-08
7.21188e-09
3.26013e-09
1.20171e-09
3.49862e-10
7.73754e-11
1.25117e-11
1.69959e-12
5.98101e-13
5.92385e-13
6.3707e-13
6.7913e-13
7.19445e-13
7.5839e-13
7.96642e-13
8.35044e-13
8.74476e-13
9.15747e-13
9.59793e-13
1.00803e-12
1.06096e-12
1.11879e-12
1.18149e-12
1.24885e-12
1.32047e-12
1.39581e-12
1.47427e-12
1.5552e-12
1.63796e-12
1.72201e-12
1.80689e-12
1.89232e-12
1.97819e-12
2.06466e-12
2.1521e-12
2.24116e-12
2.3327e-12
2.42781e-12
2.52774e-12
2.63389e-12
2.74773e-12
2.87077e-12
3.00451e-12
3.15037e-12
3.30967e-12
3.48358e-12
3.67307e-12
3.87885e-12
4.10138e-12
4.34076e-12
4.59676e-12
4.86873e-12
5.1556e-12
5.45586e-12
5.7675e-12
6.08799e-12
6.41428e-12
6.74277e-12
7.06928e-12
7.38908e-12
7.69692e-12
7.98707e-12
8.25347e-12
8.48977e-12
8.68959e-12
8.84666e-12
8.95508e-12
9.00951e-12
9.00542e-12
8.93935e-12
8.8091e-12
8.614e-12
8.35509e-12
8.03547e-12
7.66074e-12
7.23991e-12
6.78716e-12
6.32505e-12
5.89037e-12
5.54355e-12
5.38257e-12
5.56025e-12
6.30092e-12
7.84161e-12
9.92558e-12
1.2291e-11
1.47848e-11
1.7295e-11
1.97328e-11
2.20255e-11
2.41129e-11
2.59443e-11
2.7478e-11
2.86802e-11
2.95246e-11
2.99928e-11
3.00746e-11
2.97687e-11
2.90836e-11
2.80391e-11
2.66666e-11
2.50095e-11
2.3123e-11
2.10715e-11
1.89257e-11
1.67579e-11
1.46364e-11
1.26201e-11
1.07543e-11
9.06818e-12
7.57416e-12
6.27048e-12
5.1448e-12
4.1787e-12
3.35198e-12
2.64577e-12
2.04433e-12
1.53573e-12
1.11165e-12
7.66527e-13
4.9624e-13
2.96235e-13
1.59579e-13
7.57178e-14
3.08936e-14
1.05334e-14
2.61078e-15
3.73012e-07
1.24453e-06
1.22442e-06
1.24529e-06
8.45653e-07
1.94728e-07
6.39397e-08
1.09573e-07
8.25238e-08
6.15895e-08
5.98802e-08
5.92039e-08
5.9226e-08
8.0144e-08
9.61686e-08
6.56139e-08
6.11587e-08
6.11607e-08
5.81506e-08
5.80226e-08
5.94584e-08
5.93408e-08
5.72161e-08
5.68025e-08
5.66818e-08
5.67858e-08
3.46761e-07
1.61821e-06
1.43053e-06
9.56334e-07
1.19842e-07
5.33297e-08
5.24714e-08
5.08245e-08
5.06042e-08
5.05768e-08
5.06086e-08
3.74337e-07
3.47184e-06
4.21339e-06
1.13144e-06
1.34414e-07
5.11835e-08
4.87394e-08
4.85486e-08
4.85118e-08
4.84963e-08
5.27086e-08
5.19192e-08
5.02523e-08
5.02903e-08
5.0387e-08
2.45183e-07
7.3238e-07
8.48331e-07
2.22045e-07
3.99671e-08
3.93836e-08
4.28344e-08
2.68947e-07
3.43492e-07
9.25773e-08
3.70431e-08
3.69646e-08
1.33071e-07
7.18319e-07
7.37905e-07
2.59316e-07
4.74684e-08
4.73496e-08
4.84997e-08
1.72396e-07
1.36049e-07
4.90543e-08
4.60418e-08
4.59881e-08
2.43099e-07
9.94026e-07
9.26309e-07
4.88988e-07
5.55428e-08
4.00961e-08
4.98384e-08
6.28939e-08
4.33802e-08
4.1494e-08
4.1335e-08
4.13252e-08
6.6716e-07
2.17127e-06
2.09369e-06
7.67052e-07
6.54799e-08
1.80816e-07
7.79222e-07
7.85736e-07
2.16046e-07
5.82192e-08
5.57845e-08
5.5777e-08
1.37845e-07
1.73771e-06
9.96236e-07
2.22135e-07
5.03712e-08
4.81396e-08
4.81115e-08
4.81606e-08
5.6886e-07
4.17043e-07
1.4346e-07
6.91205e-08
9.10008e-08
2.13343e-07
2.16424e-07
1.16215e-07
5.40922e-08
5.41279e-08
1.08528e-07
1.08749e-06
9.69093e-07
4.97862e-07