/*--------------------------------*- C++ -*----------------------------------*\
| =========                 |                                                 |
| \\      /  F ield         | OpenFOAM: The Open Source CFD Toolbox           |
|  \\    /   O peration     | Version:  2.4.0                                 |
|   \\  /    A nd           | Web:      www.OpenFOAM.org                      |
|    \\/     M anipulation  |                                                 |
\*---------------------------------------------------------------------------*/
FoamFile
{
    version     2.0;
    format      ascii;
    class       volScalarField;
    location    "4";
    object      H;
}
// * * * * * * * * * * * * * * * * * * * * * * * * * * * * * * * * * * * * * //

dimensions      [0 2 -2 0 0 0 0];

internalField   nonuniform List<scalar> 
8000
(
-11915
-11282.8
-10644.2
-9995.96
-9336.1
-8663.69
-7979.12
-7283.99
-6581.23
-5875.35
-5172.29
-4478.4
-3798.76
-3146.34
-2538.53
-1977.16
-1406.94
-805.261
-251.332
-1.00926
-11.5818
-17.5235
-20.5068
-21.0438
-19.5277
-17.1487
-15.0811
-13.2491
-11.569
-9.96748
-8.40514
-6.90673
-5.5766
-4.51707
-3.70527
-3.07249
-2.56369
-2.14708
-1.80471
-1.52339
-1.29246
-1.10251
-0.945237
-0.813901
-0.70358
-0.610836
-0.533139
-0.468414
-0.4148
-0.370563
-11843.8
-11066.1
-10274.1
-9461.44
-8624.23
-7761.75
-6876.43
-5973.5
-5060.16
-4146.79
-3258.72
-2424.83
-1551.48
-636.908
-25.3849
-0.135071
-0.0390338
-0.0317708
-0.0183331
-0.333109
-0.763773
-1.17651
-1.48069
-1.63889
-1.6657
-1.61064
-1.52031
-1.41933
-1.31817
-1.2207
-1.12724
-1.03772
-0.952379
-0.872213
-0.798045
-0.729547
-0.666963
-0.61017
-0.558628
-0.511804
-0.469259
-0.430576
-0.3954
-0.363437
-0.334438
-0.308177
-0.284431
-0.262979
-0.243603
-0.226099
-11718.4
-10685.4
-9626.98
-8533.24
-7401.38
-6236.9
-5055.7
-3873.68
-2682.29
-1375.59
-66.0653
-103.898
-0.585476
-0.053889
-0.00774596
-0.149356
-0.296173
-0.428386
-0.539237
-0.630967
-0.700335
-0.744899
-0.768709
-0.775892
-0.769591
-0.752737
-0.727882
-0.697144
-0.662322
-0.624965
-0.586379
-0.547564
-0.509236
-0.471887
-0.435857
-0.401377
-0.36862
-0.3377
-0.308684
-0.281592
-0.256411
-0.233116
-0.211662
-0.191983
-0.174001
-0.157623
-0.142754
-0.129291
-0.117131
-0.10617
-11518.6
-10076.8
-8588.72
-7042.63
-5440.42
-3795.39
-2134.7
-757.683
-2.70063
-0.301499
-0.0310506
-0.084185
-0.577247
-0.965271
-1.23681
-1.39845
-1.4795
-1.50492
-1.48849
-1.44143
-1.3728
-1.28997
-1.19896
-1.10434
-1.00935
-0.916303
-0.826771
-0.741799
-0.662056
-0.587956
-0.519726
-0.457438
-0.401028
-0.350314
-0.305025
-0.264825
-0.229336
-0.198157
-0.170886
-0.147131
-0.126512
-0.108674
-0.0932861
-0.0800453
-0.0686762
-0.0589313
-0.0505912
-0.0434618
-0.0373733
-0.0321779
-11254.9
-9284.59
-7270.33
-5219.9
-3178.08
-1203.2
-9.95798
-0.502975
-1.15719
-1.36386
-1.70104
-2.02247
-2.23737
-2.32645
-2.303
-2.19435
-2.03457
-1.84771
-1.64969
-1.45146
-1.26046
-1.08159
-0.917931
-0.771184
-0.641952
-0.529986
-0.434399
-0.353882
-0.286872
-0.231695
-0.18668
-0.150237
-0.120916
-0.0974295
-0.0786737
-0.0637187
-0.0517976
-0.0422828
-0.0346707
-0.0285617
-0.02364
-0.0196574
-0.0164191
-0.0137736
-0.0116028
-0.00981527
-0.00834008
-0.00712197
-0.00611776
-0.00529347
-11003.6
-8506.05
-5869.16
-3021.88
-9.43951
-1.02898
-1.72732
-2.02976
-2.35129
-2.63501
-2.86003
-2.9547
-2.88422
-2.68226
-2.39311
-2.05898
-1.71583
-1.39027
-1.0992
-0.851024
-0.647562
-0.486142
-0.361547
-0.267536
-0.197887
-0.147008
-0.110209
-0.0837473
-0.0647448
-0.0510524
-0.0411035
-0.0337752
-0.0282749
-0.0240491
-0.0207153
-0.0180104
-0.0157917
-0.0139186
-0.0122972
-0.010874
-0.00961447
-0.00849485
-0.0074992
-0.00661707
-0.00584196
-0.00516985
-0.00459794
-0.00412366
-0.00374403
-0.00345538
-10881.1
-8191.55
-5528.58
-2911.87
-11.2214
-7.85601
-6.71761
-5.8654
-5.1836
-4.63337
-4.12003
-3.58154
-3.02099
-2.44949
-1.92234
-1.46299
-1.08283
-0.782885
-0.556204
-0.391215
-0.274861
-0.194807
-0.140647
-0.104293
-0.0798423
-0.0631937
-0.0516054
-0.043293
-0.0371177
-0.032358
-0.0285567
-0.0254198
-0.0227551
-0.0204342
-0.018371
-0.016509
-0.0148129
-0.0132622
-0.0118452
-0.0105544
-0.00938413
-0.00832989
-0.00738877
-0.00656007
-0.00584482
-0.00524463
-0.00476012
-0.00438998
-0.00413068
-0.0039768
-10866.8
-8147.24
-5452.38
-2807.38
-9.86865
-7.03346
-6.18389
-5.36732
-4.62028
-3.93242
-3.28966
-2.68396
-2.12538
-1.63817
-1.23482
-0.912343
-0.663828
-0.478757
-0.345052
-0.250952
-0.186054
-0.141775
-0.111484
-0.0903971
-0.0752692
-0.0639993
-0.055271
-0.0482772
-0.0425257
-0.0377105
-0.0336294
-0.0301351
-0.0271092
-0.0244516
-0.0220792
-0.0199279
-0.0179561
-0.0161431
-0.0144823
-0.0129711
-0.0116033
-0.01037
-0.00926234
-0.0082761
-0.00741277
-0.00667792
-0.00607688
-0.00561131
-0.00527862
-0.00507315
-10883.4
-8198.52
-5538.78
-2918.91
-10.9421
-8.21854
-6.48176
-4.85301
-3.8309
-3.05968
-2.47985
-2.02117
-1.65409
-1.35279
-1.10235
-0.893235
-0.719285
-0.575885
-0.458742
-0.364211
-0.289208
-0.230733
-0.185859
-0.15183
-0.125945
-0.105927
-0.0900634
-0.0771853
-0.0665567
-0.0577287
-0.0504072
-0.0443656
-0.0393911
-0.0352637
-0.0317621
-0.028685
-0.0258836
-0.0232889
-0.0208985
-0.0187313
-0.0167896
-0.0150513
-0.0134812
-0.012046
-0.0107295
-0.00954078
-0.0085023
-0.00762881
-0.00692279
-0.00638042
-10962.3
-8464.79
-6088.14
-3951.05
-2152.13
-16.1727
-0.704767
-0.755685
-0.924711
-0.73911
-0.632975
-0.557493
-0.497983
-0.447721
-0.407155
-0.37639
-0.357549
-0.352135
-0.344363
-0.331262
-0.313779
-0.293312
-0.271284
-0.248435
-0.225041
-0.20129
-0.17772
-0.154984
-0.133745
-0.114576
-0.0978196
-0.0836488
-0.0720358
-0.0627318
-0.0552814
-0.0491068
-0.0436929
-0.0387652
-0.0342946
-0.0303508
-0.0269713
-0.024115
-0.0216666
-0.0194627
-0.0173575
-0.0153241
-0.0134404
-0.0117678
-0.0103148
-0.00906369
-11247.3
-9318.48
-7487.15
-5794.11
-4263.4
-2910.97
-1767.87
-874.054
-4.08487
-0.879568
-0.737016
-0.605617
-0.474291
-0.357754
-0.245547
-0.131784
-0.0279886
-0.197762
-0.255785
-0.259837
-0.245717
-0.226607
-0.207115
-0.188738
-0.172059
-0.157569
-0.145923
-0.137925
-0.134028
-0.13539
-0.13416
-0.130218
-0.124139
-0.116351
-0.107188
-0.0970619
-0.0865159
-0.0761979
-0.0665711
-0.0579132
-0.050441
-0.0442687
-0.0392818
-0.0350708
-0.0311347
-0.0273203
-0.0237929
-0.0206982
-0.0180364
-0.0156806
-11441.9
-9891.65
-8413.14
-7042.49
-5804.35
-4711.88
-3767.51
-2967.19
-2300.3
-1754.62
-1314
-963.715
-688.158
-472.391
-302.41
-162.352
-31.3161
-0.523042
-0.387804
-0.346514
-0.305558
-0.265535
-0.226328
-0.187119
-0.148261
-0.110784
-0.074071
-0.038307
-0.000642147
-0.0662506
-0.0831459
-0.0865618
-0.0861019
-0.0846426
-0.0833006
-0.0823032
-0.0822665
-0.0850605
-0.0872268
-0.087853
-0.0866534
-0.0833931
-0.0778795
-0.0701488
-0.0616168
-0.0538109
-0.0466684
-0.0402818
-0.0348539
-0.0302038
-11586.8
-10317.8
-9097.34
-7951.54
-6899.72
-5954.01
-5119.49
-4395.06
-3774.69
-3248.74
-2805.46
-2432.18
-2116.53
-1847.27
-1614.76
-1411.14
-1230.31
-1067.92
-920.523
-785.929
-662.688
-549.819
-446.633
-352.633
-267.409
-190.683
-122.516
-61.7627
-0.35789
-0.1448
-0.11936
-0.096516
-0.0757547
-0.0567676
-0.0390415
-0.0210786
-0.000267762
-0.0212699
-0.0327226
-0.0398839
-0.0456707
-0.0511343
-0.0564932
-0.0616747
-0.0668894
-0.0703696
-0.0713403
-0.0691006
-0.063805
-0.0566996
-11712.8
-10690.2
-9700.07
-8759.5
-7880.87
-7072.05
-6336.57
-5674.23
-5081.86
-4554.25
-4084.98
-3667.17
-3294.07
-2959.52
-2658.11
-2385.35
-2137.58
-1911.91
-1706.07
-1518.22
-1346.87
-1190.69
-1048.49
-919.122
-801.466
-694.424
-596.953
-508.137
-427.253
-353.827
-287.392
-227.649
-174.308
-126.888
-84.294
-43.8048
-0.208357
-0.0617123
-0.0475423
-0.0351322
-0.0243894
-0.0150221
-0.00678084
-0.000128682
-0.0167163
-0.0249349
-0.0321406
-0.0391059
-0.0458021
-0.0520927
-11804.7
-10960.9
-10136.1
-9340.5
-8582.06
-7866.31
-7196.29
-6573.04
-5995.88
-5462.93
-4971.63
-4519.09
-4102.39
-3718.83
-3365.95
-3041.63
-2743.97
-2471.31
-2222.11
-1994.91
-1788.25
-1600.7
-1430.8
-1277.1
-1138.15
-1012.55
-898.95
-796.092
-702.831
-618.142
-541.122
-470.984
-407.043
-348.708
-295.465
-246.879
-202.61
-162.443
-126.076
-93.3709
-64.372
-39.118
-16.8252
-0.0810976
-0.0223452
-0.0156107
-0.0102624
-0.00585368
-0.00204772
-0.00981384
-11865.7
-11140.5
-10424.7
-9724.13
-9043.6
-8387.1
-7757.56
-7157.03
-6586.76
-6047.41
-5539.22
-5062.14
-4615.96
-4200.31
-3814.68
-3458.46
-3130.82
-2830.78
-2557.13
-2308.47
-2083.25
-1879.74
-1696.17
-1530.7
-1381.51
-1246.84
-1125.04
-1014.59
-914.104
-822.374
-738.355
-661.155
-590.03
-524.37
-463.681
-407.572
-355.735
-307.927
-263.959
-223.678
-186.956
-153.678
-123.731
-97.0058
-73.3903
-52.7323
-34.8871
-19.5428
-5.81849
-0.0284845
-11902.9
-11250.4
-10602.4
-9962.24
-9333.08
-8717.94
-8119.66
-7540.77
-6983.57
-6450.07
-5941.99
-5460.75
-5007.5
-4582.99
-4187.66
-3821.54
-3484.26
-3175.11
-2893.01
-2636.56
-2404.14
-2193.91
-2003.96
-1832.28
-1676.91
-1535.94
-1407.57
-1290.17
-1182.25
-1082.52
-989.873
-903.397
-822.347
-746.14
-674.337
-606.623
-542.784
-482.688
-426.26
-373.471
-324.309
-278.768
-236.84
-198.502
-163.716
-132.427
-104.555
-79.9931
-58.5998
-40.1586
-11924.8
-11315.6
-10709.9
-10110.3
-9519.33
-8939.51
-8373.41
-7823.49
-7292.12
-6781.46
-6293.46
-5829.78
-5391.73
-4980.27
-4595.92
-4238.81
-3908.67
-3604.85
-3326.32
-3071.81
-2839.77
-2628.48
-2436.12
-2260.79
-2100.61
-1953.74
-1818.43
-1693.05
-1576.14
-1466.37
-1362.61
-1263.92
-1169.52
-1078.83
-991.392
-906.929
-825.276
-746.392
-670.352
-597.328
-527.539
-461.218
-398.602
-339.913
-285.344
-235.039
-189.085
-147.509
-110.297
-77.4529
-11937.9
-11355.2
-10776.7
-10205
-9642.72
-9092.33
-8556.14
-8036.36
-7535.02
-7053.95
-6594.72
-6158.62
-5746.6
-5359.26
-4996.86
-4659.27
-4346.05
-4056.42
-3789.33
-3543.49
-3317.41
-3109.49
-2918.02
-2741.23
-2577.38
-2424.77
-2281.77
-2146.85
-2018.62
-1895.85
-1777.46
-1662.55
-1550.39
-1440.46
-1332.4
-1226.01
-1121.29
-1018.35
-917.46
-819.003
-723.445
-631.314
-543.17
-459.564
-380.991
-307.824
-240.263
-178.237
-121.302
-69.3083
-11947.6
-11384.5
-10826.9
-10277.7
-9739.74
-9215.53
-8707.22
-8216.7
-7745.57
-7295.18
-6866.58
-6460.51
-6077.4
-5717.34
-5380.16
-5065.34
-4772.12
-4499.49
-4246.23
-4010.95
-3792.13
-3588.17
-3397.41
-3218.19
-3048.88
-2887.89
-2733.76
-2585.12
-2440.73
-2299.53
-2160.63
-2023.3
-1887.04
-1751.52
-1616.6
-1482.36
-1349.05
-1217.08
-1087.01
-959.536
-835.421
-715.493
-600.612
-491.681
-389.652
-295.041
-208.592
-130.904
-54.7174
-0.170431
-0.3341
-0.303981
-0.278968
-0.258035
-0.240344
-0.225229
-0.212161
-0.20072
-0.190565
-0.181411
-0.173008
-0.165123
-0.157526
-0.149974
-0.142217
-0.134685
-0.127664
-0.121243
-0.115422
-0.110165
-0.105428
-0.101156
-0.0972965
-0.0938014
-0.0906293
-0.0877404
-0.0850907
-0.0826161
-0.0802942
-0.0781172
-0.0760767
-0.0741644
-0.0723719
-0.070691
-0.069114
-0.0676337
-0.0662435
-0.0649372
-0.0637089
-0.0625536
-0.061466
-0.0604415
-0.0594757
-0.0585648
-0.0577048
-0.0568922
-0.0561238
-0.0553967
-0.0547094
-0.0540723
-0.210272
-0.195946
-0.182962
-0.171178
-0.160467
-0.150717
-0.141828
-0.133714
-0.126298
-0.119509
-0.113286
-0.107576
-0.102329
-0.0975016
-0.0930552
-0.0889563
-0.0851751
-0.0816849
-0.0784608
-0.0754811
-0.0727258
-0.070176
-0.0678144
-0.0656252
-0.0635944
-0.0617107
-0.0599692
-0.0583894
-0.0569639
-0.0556758
-0.0545105
-0.0534552
-0.0524989
-0.0516319
-0.0508458
-0.0501333
-0.0494876
-0.0489031
-0.0483744
-0.0478972
-0.0474673
-0.0470814
-0.0467362
-0.046429
-0.0461573
-0.045919
-0.0457122
-0.0455352
-0.0453867
-0.0452672
-0.0963061
-0.0874409
-0.079481
-0.0723385
-0.0659318
-0.0601857
-0.055031
-0.0504051
-0.0462511
-0.0425185
-0.0391619
-0.0361407
-0.0334188
-0.0309642
-0.0287483
-0.0267461
-0.0249353
-0.023296
-0.0218108
-0.0204643
-0.0192427
-0.0181337
-0.0171264
-0.0162113
-0.0153795
-0.0146234
-0.0139359
-0.0133108
-0.0127426
-0.0122261
-0.0117568
-0.0113305
-0.0109433
-0.0105919
-0.010273
-0.00998369
-0.00972143
-0.00948375
-0.00926841
-0.00907337
-0.00889674
-0.00873678
-0.00859189
-0.0084606
-0.00834155
-0.00823347
-0.0081352
-0.00804566
-0.00796396
-0.00789034
-0.0277475
-0.0239718
-0.0207557
-0.0180182
-0.0156896
-0.0137108
-0.0120311
-0.0106075
-0.00940373
-0.00838859
-0.00753571
-0.00682269
-0.00623042
-0.00574264
-0.00534549
-0.0050271
-0.00477734
-0.0045875
-0.00445008
-0.00435862
-0.00430749
-0.0042918
-0.00430729
-0.00435022
-0.00441725
-0.00450546
-0.00461226
-0.00473531
-0.00487249
-0.00502189
-0.00518176
-0.0053505
-0.00552663
-0.00570882
-0.0058958
-0.00608645
-0.00627971
-0.00647457
-0.00667008
-0.00686534
-0.00705953
-0.00725187
-0.00744167
-0.00762828
-0.00781109
-0.00798951
-0.008163
-0.00833106
-0.00849294
-0.00864523
-0.00462207
-0.00408183
-0.00365501
-0.00332691
-0.00308516
-0.00291926
-0.00282015
-0.00277998
-0.0027919
-0.00284993
-0.00294882
-0.00308399
-0.00325143
-0.0034476
-0.00366941
-0.00391414
-0.00417938
-0.004463
-0.00476304
-0.00507766
-0.00540519
-0.00574404
-0.00609274
-0.00644989
-0.00681411
-0.00718412
-0.00755868
-0.00793655
-0.00831648
-0.00869724
-0.00907762
-0.00945643
-0.00983257
-0.0102049
-0.0105725
-0.0109342
-0.0112891
-0.0116363
-0.0119747
-0.0123035
-0.012622
-0.0129293
-0.013225
-0.0135083
-0.0137789
-0.0140361
-0.0142796
-0.014509
-0.0147236
-0.0149191
-0.00325323
-0.00313237
-0.00308698
-0.00311084
-0.00319753
-0.00334068
-0.00353418
-0.00377231
-0.00404986
-0.00436216
-0.00470507
-0.00507502
-0.00546887
-0.00588391
-0.00631775
-0.00676835
-0.00723399
-0.00771321
-0.00820354
-0.008703
-0.00920986
-0.00972248
-0.0102392
-0.0107583
-0.011278
-0.0117967
-0.0123126
-0.012824
-0.0133292
-0.0138264
-0.0143141
-0.0147905
-0.0152544
-0.0157042
-0.0161386
-0.0165564
-0.0169565
-0.0173378
-0.0176995
-0.0180408
-0.018361
-0.0186596
-0.0189363
-0.0191905
-0.0194222
-0.0196312
-0.0198175
-0.0199808
-0.0201211
-0.0202364
-0.00392148
-0.00395688
-0.00407449
-0.00426549
-0.00452114
-0.0048331
-0.00519373
-0.0055962
-0.00603456
-0.00650372
-0.00699936
-0.00751787
-0.00805616
-0.00861157
-0.00918179
-0.00976487
-0.0103596
-0.0109663
-0.0115765
-0.0121881
-0.0128004
-0.0134116
-0.0140194
-0.0146216
-0.0152159
-0.0158001
-0.0163721
-0.0169297
-0.0174709
-0.0179938
-0.0184969
-0.0189785
-0.0194371
-0.0198716
-0.020281
-0.0206643
-0.0210209
-0.0213501
-0.0216517
-0.0219253
-0.0221708
-0.0223881
-0.0225771
-0.0227382
-0.0228716
-0.0229776
-0.0230564
-0.0231083
-0.0231335
-0.0231327
-0.00498728
-0.00501193
-0.00513676
-0.00535059
-0.00564196
-0.00599989
-0.00641425
-0.00687601
-0.00737729
-0.00791143
-0.00847284
-0.00905685
-0.00965957
-0.0102776
-0.010908
-0.0115479
-0.0121948
-0.0128462
-0.0134994
-0.0141519
-0.0148011
-0.0154446
-0.0160797
-0.016704
-0.0173152
-0.0179111
-0.0184895
-0.0190485
-0.0195863
-0.0201015
-0.0205925
-0.0210584
-0.021498
-0.0219104
-0.0222952
-0.0226518
-0.0229802
-0.0232799
-0.0235512
-0.023794
-0.0240084
-0.0241949
-0.0243537
-0.0244852
-0.0245897
-0.0246678
-0.0247199
-0.0247464
-0.024748
-0.0247252
-0.00599644
-0.00576462
-0.00567575
-0.00571685
-0.00587255
-0.00612697
-0.00646482
-0.00687197
-0.00733577
-0.00784536
-0.00839166
-0.00896724
-0.00956612
-0.0101835
-0.0108154
-0.0114585
-0.0121097
-0.0127666
-0.0134264
-0.0140867
-0.0147451
-0.0153991
-0.0160463
-0.0166846
-0.0173117
-0.0179256
-0.0185243
-0.019106
-0.0196692
-0.0202125
-0.0207346
-0.0212345
-0.0217112
-0.0221641
-0.0225927
-0.0229969
-0.0233762
-0.0237306
-0.0240604
-0.0243658
-0.0246469
-0.0249041
-0.0251379
-0.0253485
-0.0255365
-0.0257026
-0.0258474
-0.0259713
-0.0260751
-0.0261593
-0.00800345
-0.00714167
-0.00648752
-0.00603662
-0.00577372
-0.00567914
-0.00573173
-0.00590957
-0.00619089
-0.0065556
-0.00698624
-0.00746821
-0.00798975
-0.00854171
-0.00911706
-0.00971048
-0.0103179
-0.0109361
-0.0115625
-0.0121946
-0.0128303
-0.0134675
-0.0141042
-0.0147384
-0.0153682
-0.0159918
-0.0166073
-0.017213
-0.0178075
-0.0183891
-0.0189567
-0.0195089
-0.0200447
-0.0205632
-0.0210639
-0.0215461
-0.0220093
-0.0224532
-0.022878
-0.0232833
-0.0236693
-0.0240362
-0.0243841
-0.0247134
-0.0250243
-0.0253176
-0.0255935
-0.0258525
-0.0260952
-0.0263221
-0.0135024
-0.0115111
-0.00978075
-0.00834149
-0.00718431
-0.00629275
-0.00565493
-0.00525336
-0.00506029
-0.00504315
-0.00516936
-0.00540864
-0.00573443
-0.00612477
-0.00656253
-0.00703491
-0.00753274
-0.00804964
-0.00858117
-0.00912416
-0.00967626
-0.0102355
-0.0108002
-0.0113689
-0.0119399
-0.0125119
-0.0130833
-0.0136527
-0.0142188
-0.0147803
-0.0153357
-0.0158839
-0.0164238
-0.0169541
-0.0174742
-0.0179829
-0.0184795
-0.0189633
-0.019434
-0.0198908
-0.0203336
-0.020762
-0.0211758
-0.0215749
-0.0219593
-0.022329
-0.0226842
-0.023025
-0.0233517
-0.0236645
-0.0259846
-0.0221102
-0.0186706
-0.0156895
-0.0130983
-0.0108173
-0.00885813
-0.00725479
-0.00600707
-0.00509392
-0.00448523
-0.00414029
-0.00401087
-0.00404853
-0.00420991
-0.00445936
-0.00476971
-0.00512154
-0.0055018
-0.00590198
-0.00631672
-0.00674257
-0.00717723
-0.00761905
-0.00806671
-0.00851908
-0.00897509
-0.00943371
-0.00989397
-0.0103549
-0.0108155
-0.0112748
-0.0117319
-0.0121859
-0.012636
-0.0130813
-0.0135211
-0.0139545
-0.0143809
-0.0147997
-0.0152102
-0.0156119
-0.0160043
-0.0163871
-0.0167598
-0.017122
-0.0174734
-0.017814
-0.0181435
-0.0184619
-0.04974
-0.0432588
-0.0370892
-0.0315127
-0.0266376
-0.0223352
-0.0185222
-0.0151644
-0.012208
-0.00963407
-0.00748599
-0.00579871
-0.00456214
-0.00373087
-0.00323632
-0.00300109
-0.00295284
-0.00303234
-0.00319573
-0.00341285
-0.0036641
-0.00393731
-0.00422514
-0.00452325
-0.00482903
-0.00514087
-0.00545764
-0.00577846
-0.00610257
-0.00642928
-0.00675791
-0.00708778
-0.00741825
-0.00774867
-0.00807841
-0.00840688
-0.00873349
-0.00905768
-0.00937892
-0.00969668
-0.0100105
-0.0103198
-0.0106243
-0.0109235
-0.011217
-0.0115044
-0.0117855
-0.0120598
-0.0123271
-0.0125871
-0.0559694
-0.0565008
-0.0541023
-0.0499248
-0.0452371
-0.0404851
-0.0356073
-0.0307465
-0.0260856
-0.0217033
-0.0176431
-0.0139391
-0.0106512
-0.00789146
-0.00574068
-0.00419338
-0.0031693
-0.00255318
-0.00223061
-0.00210668
-0.00211077
-0.00219414
-0.0023252
-0.00248446
-0.00266048
-0.00284681
-0.00303991
-0.00323788
-0.00343965
-0.00364457
-0.00385211
-0.00406184
-0.0042733
-0.00448606
-0.00469966
-0.00491366
-0.00512763
-0.00534112
-0.00555374
-0.00576507
-0.00597474
-0.00618235
-0.00638756
-0.00658999
-0.00678933
-0.00698527
-0.0071775
-0.00736575
-0.00754975
-0.0077293
-0.0164847
-0.0237508
-0.0311203
-0.0362859
-0.0390352
-0.0401679
-0.0401656
-0.0392181
-0.0374594
-0.035008
-0.0319544
-0.0284212
-0.0245186
-0.0203807
-0.0162003
-0.0122554
-0.00884274
-0.00615546
-0.00422466
-0.00295093
-0.00217805
-0.00175336
-0.00155457
-0.00149426
-0.00151468
-0.00158007
-0.00166958
-0.0017718
-0.00188085
-0.00199389
-0.00210961
-0.00222746
-0.00234716
-0.00246854
-0.00259142
-0.0027156
-0.00284081
-0.00296678
-0.00309321
-0.00321977
-0.00334615
-0.00347204
-0.00359718
-0.00372131
-0.00384418
-0.00396556
-0.00408524
-0.00420301
-0.00431863
-0.00443191
-0.00672226
-0.00347157
-0.0102199
-0.0167177
-0.0223796
-0.0266121
-0.0299965
-0.0327511
-0.034748
-0.0358809
-0.0361293
-0.0355419
-0.034176
-0.0320803
-0.029282
-0.0258465
-0.0219373
-0.0178562
-0.0139783
-0.0106124
-0.00780627
-0.00558878
-0.00394176
-0.00279495
-0.00204851
-0.0015979
-0.00135107
-0.00123604
-0.00120124
-0.00121254
-0.00124891
-0.00129826
-0.00135411
-0.00141329
-0.00147442
-0.00153699
-0.00160089
-0.00166613
-0.00173274
-0.00180068
-0.00186989
-0.00194025
-0.00201159
-0.00208373
-0.00215646
-0.00222955
-0.00230278
-0.00237592
-0.00244874
-0.002521
-24.2539
-10.1093
-0.0326965
-0.0289934
-0.0276169
-0.0281725
-0.0289682
-0.030089
-0.0323183
-0.034618
-0.0364713
-0.0377672
-0.038441
-0.0383947
-0.0375594
-0.0358807
-0.0333209
-0.0300179
-0.0261833
-0.022148
-0.018441
-0.015135
-0.0121705
-0.00954673
-0.007279
-0.00537654
-0.00385177
-0.00276603
-0.00203349
-0.00156636
-0.00128649
-0.00113134
-0.00105497
-0.00102592
-0.00102391
-0.0010366
-0.00105692
-0.00108109
-0.00110726
-0.00113464
-0.00116301
-0.00119239
-0.00122286
-0.00125447
-0.00128726
-0.00132119
-0.00135619
-0.00139213
-0.00142885
-0.00146617
-49.0204
-24.5833
-5.13138
-0.016065
-0.0154942
-0.0152111
-0.018076
-0.0217162
-0.0259674
-0.0310089
-0.0360791
-0.0405579
-0.0440761
-0.0463745
-0.047478
-0.0475017
-0.0464878
-0.0444736
-0.0415145
-0.0377133
-0.0332296
-0.0285734
-0.0243653
-0.0206907
-0.017412
-0.0144625
-0.011818
-0.00948112
-0.00745887
-0.00575487
-0.00436398
-0.00326923
-0.00244163
-0.00184263
-0.00142852
-0.00115518
-0.000990598
-0.000900302
-0.000853421
-0.00083092
-0.000821592
-0.000819155
-0.000820291
-0.000823388
-0.000827767
-0.00083322
-0.000839751
-0.000847438
-0.000856362
-0.000866575
-25.1043
-0.0774097
-0.000382042
-0.00416419
-0.00932823
-0.0165685
-0.0239339
-0.0316948
-0.0392171
-0.0460128
-0.051633
-0.0559806
-0.0590373
-0.0609771
-0.0619914
-0.0621436
-0.061563
-0.0602823
-0.0583158
-0.0556061
-0.0521089
-0.0478081
-0.042703
-0.0372662
-0.0322015
-0.0277065
-0.0237089
-0.0201418
-0.0169537
-0.0141093
-0.0115878
-0.0093777
-0.00747182
-0.00586186
-0.00453443
-0.00346908
-0.00263899
-0.00201175
-0.00155204
-0.00122516
-0.000999511
-0.000847998
-0.00074851
-0.000683807
-0.000641567
-0.000614639
-0.000596104
-0.000582271
-0.000571291
-0.000562319
-0.00120515
-0.00855345
-0.0162882
-0.0260608
-0.0373603
-0.0462092
-0.0553202
-0.0622831
-0.0668367
-0.0693832
-0.0705267
-0.0708192
-0.0706562
-0.0702758
-0.0697986
-0.0692593
-0.0686334
-0.0678728
-0.0668365
-0.0654086
-0.063482
-0.0609547
-0.0577344
-0.0537191
-0.0488082
-0.0433993
-0.0381601
-0.0333256
-0.0289306
-0.0249632
-0.0213929
-0.0181864
-0.015316
-0.0127608
-0.010506
-0.00854046
-0.00685302
-0.00543011
-0.00425387
-0.00330176
-0.00254753
-0.00196284
-0.00151906
-0.00118897
-0.000948007
-0.000775071
-0.000652404
-0.00056574
-0.000504041
-0.00045904
-0.0537142
-0.0533841
-0.0530617
-0.0527466
-0.0524387
-0.0521378
-0.0518434
-0.0515555
-0.0512736
-0.0509977
-0.0507273
-0.0504622
-0.0502022
-0.0499471
-0.0496965
-0.0494502
-0.049208
-0.0489698
-0.0487347
-0.0485027
-0.0482736
-0.0480471
-0.0478231
-0.0476016
-0.0473825
-0.0471657
-0.0469511
-0.0467386
-0.0465279
-0.0463196
-0.0461127
-0.0459052
-0.0456968
-0.0454889
-0.045281
-0.045073
-0.0448648
-0.0446563
-0.0444475
-0.0442387
-0.0440302
-0.0438182
-0.0436032
-0.0433854
-0.0431666
-0.0429467
-0.0427255
-0.0425029
-0.0422788
-0.0420532
-0.0418259
-0.0415969
-0.0413663
-0.041134
-0.0409001
-0.0406646
-0.0404276
-0.0401893
-0.03995
-0.0397098
-0.0394691
-0.0392274
-0.0389846
-0.0387408
-0.0384963
-0.0382511
-0.0380055
-0.0377598
-0.0375143
-0.0372694
-0.0370255
-0.0367833
-0.0365426
-0.0363034
-0.0360661
-0.0358308
-0.0355982
-0.0353686
-0.0351426
-0.0349206
-0.0347032
-0.0344912
-0.034285
-0.0340854
-0.0338927
-0.0337077
-0.0335312
-0.0333642
-0.0332077
-0.0330627
-0.0329304
-0.0328121
-0.0327091
-0.032623
-0.0325552
-0.0325075
-0.0324817
-0.0324802
-0.0325054
-0.0325597
-0.0326458
-0.0327667
-0.0329254
-0.0331251
-0.0333692
-0.0336613
-0.0340052
-0.0344045
-0.0348629
-0.0353839
-0.0359708
-0.0366268
-0.0373544
-0.0381557
-0.0390322
-0.0399843
-0.0410116
-0.0421128
-0.0432852
-0.0445249
-0.0458266
-0.0471837
-0.0485883
-0.0500312
-0.051502
-0.052989
-0.0544799
-0.0559618
-0.0574216
-0.0588467
-0.0602256
-0.0615481
-0.0628054
-0.0639897
-0.0650921
-0.0661026
-0.0670126
-0.0678199
-0.0685422
-0.0692498
-0.0699622
-0.0706728
-0.0713748
-0.0720606
-0.0727199
-0.0733306
-0.073836
-0.0742373
-0.0745453
-0.0747672
-0.0749031
-0.0749407
-0.0748515
-0.074586
-0.0740721
-0.0732155
-0.0719039
-0.0700161
-0.0674348
-0.0640654
-0.0598558
-0.0548162
-0.0490346
-0.0426835
-0.0360133
-0.0293308
-0.0229616
-0.0172032
-0.0122795
-0.00831064
-0.00530539
-0.00317686
-0.00177357
-0.000917092
-0.000436027
-0.00018903
-7.40028e-05
-2.58603e-05
-7.95183e-06
-2.10467e-06
-4.64841e-07
-8.81823e-08
-1.02925e-08
4.01446e-09
6.36742e-09
6.69705e-09
6.70979e-09
6.67352e-09
6.62808e-09
6.581e-09
6.53585e-09
6.4937e-09
6.451e-09
6.40946e-09
6.37027e-09
6.33442e-09
6.30244e-09
6.27474e-09
6.25093e-09
6.23026e-09
6.21169e-09
6.19404e-09
6.17652e-09
6.16136e-09
6.14776e-09
6.13492e-09
6.12152e-09
6.10727e-09
6.09175e-09
6.07482e-09
6.05557e-09
6.03498e-09
6.01351e-09
5.99082e-09
5.96788e-09
5.94572e-09
5.92484e-09
5.90548e-09
5.88912e-09
5.87457e-09
5.86366e-09
5.85603e-09
5.85134e-09
5.84997e-09
5.85061e-09
5.85374e-09
5.85768e-09
5.86212e-09
5.86628e-09
5.86744e-09
5.86692e-09
5.8613e-09
5.85057e-09
5.83385e-09
5.80829e-09
5.77418e-09
5.73094e-09
5.67615e-09
5.61047e-09
5.53384e-09
5.44502e-09
5.34355e-09
5.23186e-09
5.10919e-09
4.97575e-09
4.83415e-09
4.68575e-09
4.53198e-09
4.37552e-09
4.22171e-09
4.07578e-09
3.94585e-09
3.84419e-09
3.78923e-09
3.80596e-09
3.92893e-09
4.20684e-09
4.7073e-09
5.4719e-09
6.40567e-09
7.43243e-09
8.49453e-09
9.54323e-09
1.05354e-08
1.14329e-08
1.22026e-08
1.2817e-08
1.32552e-08
1.35032e-08
1.35548e-08
1.34111e-08
1.30811e-08
1.25806e-08
1.19316e-08
1.11609e-08
1.02986e-08
9.37619e-09
8.42509e-09
7.47446e-09
6.54994e-09
5.67238e-09
4.85743e-09
4.11542e-09
3.45178e-09
2.86786e-09
2.36184e-09
1.92964e-09
1.56577e-09
1.26396e-09
1.01744e-09
8.1938e-10
6.62992e-10
5.41673e-10
4.49112e-10
3.7942e-10
3.27315e-10
2.88313e-10
2.58826e-10
2.36193e-10
2.1853e-10
-0.0452104
-0.0451632
-0.0451226
-0.0450887
-0.0450615
-0.0450409
-0.0450268
-0.0450187
-0.0450122
-0.0450052
-0.0449978
-0.0449899
-0.0449816
-0.0449729
-0.0449637
-0.0449541
-0.044944
-0.0449335
-0.0449227
-0.0449114
-0.0448998
-0.0448877
-0.0448751
-0.0448619
-0.0448483
-0.044834
-0.0448191
-0.0448035
-0.0447872
-0.0447704
-0.0447525
-0.0447336
-0.0447138
-0.0446931
-0.0446712
-0.0446481
-0.0446239
-0.0445986
-0.0445719
-0.0445458
-0.044517
-0.0444859
-0.044453
-0.0444192
-0.0443839
-0.0443471
-0.0443085
-0.0442683
-0.0442263
-0.0441824
-0.0441366
-0.0440888
-0.044039
-0.0439871
-0.043933
-0.0438768
-0.0438182
-0.0437573
-0.0436941
-0.0436285
-0.0435606
-0.04349
-0.0434168
-0.043341
-0.0432625
-0.0431812
-0.0430972
-0.0430102
-0.0429205
-0.0428278
-0.0427324
-0.0426344
-0.0425336
-0.04243
-0.0423236
-0.0422146
-0.0421029
-0.0419886
-0.0418719
-0.0417528
-0.0416314
-0.0415081
-0.0413831
-0.0412565
-0.0411286
-0.0409996
-0.0408698
-0.0407397
-0.0406098
-0.0404804
-0.0403518
-0.0402247
-0.0400998
-0.039978
-0.0398601
-0.0397468
-0.039639
-0.0395378
-0.0394443
-0.0393599
-0.039286
-0.0392244
-0.0391765
-0.0391444
-0.0391297
-0.0391347
-0.0391616
-0.0392128
-0.0392908
-0.039398
-0.039537
-0.0397105
-0.0399209
-0.0401707
-0.0404623
-0.0407977
-0.0411786
-0.0416063
-0.042082
-0.0426057
-0.0431774
-0.043796
-0.0444597
-0.045166
-0.0459117
-0.0466927
-0.0475041
-0.0483402
-0.049195
-0.0500619
-0.0509338
-0.0518038
-0.0526646
-0.0535093
-0.0543311
-0.0551234
-0.0558804
-0.0565968
-0.0572693
-0.0578962
-0.058476
-0.0590069
-0.0594874
-0.0599169
-0.0602973
-0.0606393
-0.0609855
-0.0613474
-0.0617319
-0.0621478
-0.0626051
-0.0631128
-0.0636753
-0.0642874
-0.0649263
-0.0655429
-0.0660546
-0.0663401
-0.0662406
-0.0655691
-0.0641294
-0.061744
-0.0582881
-0.0537238
-0.04813
-0.0417156
-0.0348098
-0.0278258
-0.0211994
-0.0153151
-0.0104406
-0.00668285
-0.00399523
-0.00221788
-0.0011357
-0.000532285
-0.000226287
-8.63361e-05
-2.9191e-05
-8.60879e-06
-2.16739e-06
-4.4921e-07
-6.69112e-08
-1.81572e-09
8.12333e-09
9.68522e-09
1.00734e-08
1.03084e-08
1.05258e-08
1.07447e-08
1.09698e-08
1.12059e-08
1.14622e-08
1.17423e-08
1.20485e-08
1.23822e-08
1.2744e-08
1.31335e-08
1.35505e-08
1.39937e-08
1.44618e-08
1.49536e-08
1.54679e-08
1.60039e-08
1.65611e-08
1.71397e-08
1.77402e-08
1.83638e-08
1.90124e-08
1.96884e-08
2.03946e-08
2.11346e-08
2.19121e-08
2.27311e-08
2.35958e-08
2.45101e-08
2.54781e-08
2.65035e-08
2.75896e-08
2.8739e-08
2.99539e-08
3.12355e-08
3.2584e-08
3.39989e-08
3.54781e-08
3.70187e-08
3.86161e-08
4.02649e-08
4.19577e-08
4.36864e-08
4.54413e-08
4.72112e-08
4.89838e-08
5.0745e-08
5.248e-08
5.4173e-08
5.58067e-08
5.73641e-08
5.88276e-08
6.01797e-08
6.14042e-08
6.24856e-08
6.34106e-08
6.41684e-08
6.4752e-08
6.51594e-08
6.53961e-08
6.54784e-08
6.5438e-08
6.53298e-08
6.52421e-08
6.53116e-08
6.57442e-08
6.68508e-08
6.90911e-08
7.31135e-08
7.96261e-08
8.77272e-08
9.64762e-08
1.05365e-07
1.14019e-07
1.22143e-07
1.29495e-07
1.35885e-07
1.41156e-07
1.45192e-07
1.47903e-07
1.49234e-07
1.4916e-07
1.47687e-07
1.44852e-07
1.40723e-07
1.35399e-07
1.29009e-07
1.21709e-07
1.13677e-07
1.05107e-07
9.62022e-08
8.71648e-08
7.81859e-08
6.94369e-08
6.10622e-08
5.31742e-08
4.58523e-08
3.91449e-08
3.3074e-08
2.76412e-08
2.28346e-08
1.86336e-08
1.50128e-08
1.19439e-08
9.3959e-09
7.33299e-09
5.71224e-09
4.4812e-09
3.57801e-09
2.9353e-09
2.48703e-09
2.1758e-09
1.95684e-09
-0.00785014
-0.00781335
-0.00777788
-0.00774366
-0.00771058
-0.00767857
-0.00764761
-0.00761807
-0.00759393
-0.00757702
-0.00756731
-0.00756477
-0.00756938
-0.00758115
-0.0076001
-0.00762622
-0.00765949
-0.00769991
-0.00774745
-0.00780212
-0.00786394
-0.00793295
-0.00800918
-0.00809269
-0.00818351
-0.0082817
-0.0083873
-0.00850037
-0.00862088
-0.00874889
-0.00888445
-0.00902763
-0.00917842
-0.00933691
-0.00950318
-0.00967708
-0.00985849
-0.0100474
-0.0102443
-0.0104497
-0.0106641
-0.0108875
-0.0111198
-0.0113605
-0.0116093
-0.0118659
-0.0121303
-0.0124023
-0.0126818
-0.0129687
-0.0132628
-0.0135641
-0.0138723
-0.0141873
-0.0145088
-0.0148368
-0.0151709
-0.0155109
-0.0158567
-0.0162079
-0.0165643
-0.0169255
-0.0172915
-0.0176618
-0.0180362
-0.0184145
-0.0187964
-0.0191815
-0.0195695
-0.0199602
-0.0203531
-0.0207477
-0.0211436
-0.0215405
-0.021938
-0.0223357
-0.0227334
-0.0231305
-0.0235268
-0.0239219
-0.0243153
-0.0247067
-0.0250957
-0.0254818
-0.0258646
-0.0262439
-0.0266193
-0.0269904
-0.027357
-0.027719
-0.0280761
-0.0284282
-0.0287753
-0.029117
-0.0294532
-0.0297838
-0.0301088
-0.0304283
-0.0307426
-0.0310519
-0.0313565
-0.0316567
-0.0319529
-0.0322457
-0.0325359
-0.0328242
-0.0331114
-0.0333986
-0.0336868
-0.0339773
-0.0342712
-0.0345701
-0.0348755
-0.0351888
-0.0355118
-0.0358461
-0.0361932
-0.0365547
-0.0369322
-0.0373271
-0.0377405
-0.0381734
-0.0386266
-0.0391005
-0.0395954