/*--------------------------------*- C++ -*----------------------------------*\
| =========                 |                                                 |
| \\      /  F ield         | OpenFOAM: The Open Source CFD Toolbox           |
|  \\    /   O peration     | Version:  2.4.0                                 |
|   \\  /    A nd           | Web:      www.OpenFOAM.org                      |
|    \\/     M anipulation  |                                                 |
\*---------------------------------------------------------------------------*/
FoamFile
{
    version     2.0;
    format      ascii;
    class       volScalarField;
    location    "4";
    object      p;
}
// * * * * * * * * * * * * * * * * * * * * * * * * * * * * * * * * * * * * * //

dimensions      [1 -1 -2 0 0 0 0];

internalField   nonuniform List<scalar> 
8000
(
12.3302
12.271
12.1924
12.0904
11.9595
11.7987
11.6083
11.3899
11.1465
10.8832
10.6034
10.309
9.99118
9.61504
9.25054
8.7423
7.87356
6.80316
5.79207
0.860816
-3.65634
-4.90862
-4.60414
-3.86006
-3.08882
-2.22447
-1.37069
0.00621575
1.74914
3.02313
3.57085
3.59532
3.39458
3.22801
3.16346
3.14029
3.12249
3.10606
3.09466
3.08745
3.08218
3.07771
3.07379
3.07054
3.06807
3.0663
3.06511
3.06442
3.06419
3.06442
2.03851
2.13069
2.22899
2.32986
2.43578
2.54953
2.67329
2.81143
2.98115
3.19774
3.40376
3.30961
2.05966
0.270552
-0.701652
-9.11097
-8.19286
-6.56184
-4.80511
-1.92988
0.860086
2.28857
2.83943
3.04589
3.14247
3.14014
3.08829
3.04387
3.02631
3.03006
3.04305
3.05282
3.05324
3.04743
3.04049
3.02955
3.021
3.01613
3.01279
3.01051
3.00888
3.00767
3.00682
3.00624
3.00585
3.00558
3.0054
3.0053
3.00528
3.00536
-4.73363
-4.55287
-4.37724
-4.22927
-4.09965
-3.98333
-3.91415
-4.00677
-5.1615
-8.16147
-9.38508
-7.458
-6.90024
-3.57298
0.273296
2.18598
3.00893
3.09363
3.08724
3.05013
3.01704
3.00657
3.01242
3.01997
3.02359
3.02393
3.02224
3.01945
3.01654
3.01423
3.01234
3.01038
3.00804
3.00528
3.00219
2.9988
2.99513
2.99121
2.9872
2.98309
2.97892
2.9746
2.97052
2.96637
2.96208
2.95797
2.95363
2.9493
2.94492
2.94046
0.163234
0.18583
0.240525
0.355501
0.478239
0.116261
-1.83232
-4.52798
-13.1684
-6.4502
-0.558114
2.5745
2.89513
2.99235
2.98586
2.976
2.99467
3.00967
3.01278
3.0106
3.0083
3.00712
3.00618
3.00458
3.00223
2.99925
2.99573
2.99174
2.98733
2.98257
2.97749
2.9721
2.96637
2.96033
2.95397
2.94731
2.94039
2.93327
2.92587
2.91824
2.91043
2.90241
2.8942
2.8858
2.87726
2.86838
2.85935
2.85009
2.8406
2.83083
-6.52165
-6.5406
-6.54825
-6.95739
-9.06388
-12.8842
-7.39025
2.87148
3.27391
2.87609
2.91544
2.91583
2.91789
2.92005
2.9217
2.92302
2.92397
2.92424
2.92391
2.92306
2.92173
2.91997
2.91783
2.91533
2.91246
2.9092
2.90556
2.9015
2.89705
2.89218
2.88689
2.88118
2.875
2.86838
2.86131
2.85377
2.84577
2.83729
2.82836
2.81897
2.80914
2.79886
2.78814
2.77696
2.76535
2.75327
2.7407
2.72762
2.71402
2.69984
-1.01169
-0.955055
-1.61386
-4.8858
-9.45579
1.80606
2.61095
2.79
2.8192
2.81244
2.81274
2.81359
2.8147
2.81624
2.8175
2.81858
2.8194
2.81992
2.8201
2.81993
2.81943
2.8186
2.81742
2.81589
2.81398
2.81169
2.80883
2.80551
2.80162
2.797
2.79178
2.78584
2.77912
2.77163
2.76334
2.75427
2.74443
2.73384
2.72255
2.71061
2.69798
2.68481
2.67107
2.6568
2.64197
2.62657
2.61055
2.59388
2.57651
2.5584
1.61169
1.65509
1.19262
-0.9663
-3.62215
2.75573
2.75431
2.7466
2.74677
2.7463
2.74551
2.74492
2.74452
2.74418
2.74373
2.74313
2.74234
2.74132
2.74007
2.73858
2.73686
2.7348
2.73239
2.72962
2.72649
2.7228
2.71873
2.71412
2.70894
2.70311
2.69656
2.68923
2.68107
2.67204
2.66212
2.65131
2.63962
2.62708
2.61375
2.59967
2.58495
2.56964
2.55382
2.53752
2.52073
2.50343
2.48556
2.46709
2.44795
2.42808
1.89394
1.96768
1.51565
-0.850445
-4.08201
2.66864
2.66217
2.65066
2.64007
2.64046
2.64093
2.64025
2.63881
2.6369
2.63457
2.63179
2.62862
2.62503
2.62098
2.61649
2.61156
2.60629
2.60077
2.59513
2.58955
2.58402
2.57861
2.57337
2.56807
2.5628
2.55733
2.55152
2.5452
2.5382
2.53041
2.52177
2.51225
2.50188
2.49065
2.4786
2.46575
2.45218
2.43791
2.42301
2.40751
2.39146
2.37486
2.3577
2.33998
2.32165
0.876449
1.05276
0.706919
-1.6711
-5.14941
1.8145
1.67427
2.45517
2.49587
2.52853
2.51071
2.50421
2.49933
2.49433
2.48952
2.48615
2.48432
2.48305
2.48152
2.47954
2.47713
2.47435
2.4712
2.46766
2.46371
2.45933
2.45451
2.44926
2.4436
2.43751
2.43091
2.4237
2.41582
2.40739
2.39884
2.39079
2.38362
2.37721
2.37112
2.36485
2.35801
2.35022
2.3415
2.33196
2.32172
2.31081
2.29928
2.28719
2.27452
2.2613
-12.1443
-11.8219
-11.4797
-11.5788
-13.3789
-14.0072
-6.26733
-0.302249
0.911698
0.986011
1.25268
1.66768
1.87874
2.10416
2.23924
2.34148
2.39826
2.42211
2.42645
2.42021
2.40434
2.38162
2.35753
2.33547
2.3167
2.30235
2.29441
2.2938
2.29836
2.30442
2.30984
2.3141
2.31713
2.31875
2.31883
2.31734
2.31447
2.31058
2.30583
2.3001
2.29307
2.28487
2.27677
2.2708
2.26757
2.26565
2.26356
2.26067
2.25691
2.25252
6.44597
6.52875
6.63852
6.74386
6.93276
7.4445
8.18008
6.1061
-8.15909
-5.38142
-3.30857
-1.33081
-1.45302
-1.24156
-0.787398
-0.176079
0.357333
0.749754
1.01059
1.25888
1.4928
1.6724
1.76991
1.83833
1.92606
2.02689
2.1161
2.18463
2.22817
2.2568
2.28109
2.29585
2.28405
2.23827
2.17534
2.13204
2.13782
2.18534
2.24139
2.28505
2.31413
2.33158
2.33988
2.34168
2.34034
2.3379
2.33447
2.33013
2.32676
2.32645
9.10392
9.05298
9.02099
9.02124
9.06708
9.14068
9.18727
9.21321
9.13203
9.0027
8.8965
8.88579
8.9026
8.97825
9.21292
9.71041
9.93717
5.98446
5.33683
5.26874
4.84155
4.30057
3.86251
3.54717
3.14656
2.69262
2.48254
2.4338
2.25312
1.86086
1.48783
1.27129
1.23329
1.37796
1.61453
1.80078
1.89232
1.94739
2.04375
2.17928
2.27037
2.22667
2.08783
2.05306
2.21942
2.39248
2.47901
2.51308
2.52476
2.52748
8.43923
8.39077
8.33517
8.28025
8.22582
8.16977
8.11154
8.05467
8.00715
7.9725
7.96041
7.97074
8.01003
8.0725
8.14953
8.21589
8.26811
8.30029
8.31652
8.33268
8.35543
8.38226
8.41351
8.45419
8.51459
8.61855
8.77169
8.78
7.55067
6.60205
6.57668
6.34102
5.78789
5.11808
4.26313
3.39571
2.77054
2.29671
1.86713
1.42013
1.11089
1.15365
1.47989
1.81172
2.03638
2.21051
2.3339
2.33863
2.3285
2.44134
8.57551
8.55313
8.52843
8.50549
8.48406
8.4634
8.44374
8.42459
8.40617
8.38853
8.37184
8.35614
8.34132
8.32706
8.31274
8.29761
8.28156
8.26623
8.25187
8.24057
8.23433
8.23392
8.2401
8.25407
8.27765
8.31028
8.34198
8.35883
8.36116
8.34768
8.32267
8.29583
8.27494
8.27165
8.28583
8.21766
7.42806
6.72713
7.01184
6.84134
5.87681
4.7878
3.73362
2.76644
2.02454
1.60539
1.70055
2.28492
2.83228
2.99393
8.87165
8.84781
8.8225
8.79851
8.77714
8.75642
8.73766
8.71996
8.70355
8.68848
8.67472
8.66225
8.65096
8.64073
8.63141
8.62285
8.61488
8.60739
8.60035
8.59377
8.58763
8.58192
8.57662
8.57168
8.56703
8.56255
8.55803
8.55351
8.55938
8.549
8.54767
8.54868
8.55374
8.56224
8.56796
8.56018
8.54547
8.52347
8.50062
8.48391
8.47905
8.47862
8.38706
7.55055
7.37909
6.89927
5.46129
3.62468
2.28628
2.12037
8.68275
8.65364
8.62033
8.59052
8.56414
8.53911
8.51658
8.496
8.47741
8.46081
8.44621
8.43358
8.42293
8.41425
8.40756
8.40286
8.40016
8.39951
8.40091
8.40441
8.41003
8.4178
8.42776
8.43991
8.45428
8.47089
8.48974
8.51094
8.54437
8.56396
8.59187
8.62252
8.6559
8.69206
8.73108
8.7732
8.81904
8.86946
8.92498
8.98643
9.05256
9.11687
9.18005
9.2425
9.30329
9.36645
9.44546
9.55299
9.59428
7.65649
8.60023
8.56981
8.53569
8.50659
8.48068
8.45755
8.43666
8.41807
8.40179
8.3878
8.37609
8.36664
8.35945
8.35452
8.35184
8.35143
8.3533
8.35746
8.36394
8.37277
8.38398
8.39762
8.41373
8.43237
8.45359
8.47746
8.50408
8.53358
8.56795
8.6033
8.62852
8.67
8.7148
8.76304
8.81483
8.87041
8.92975
8.99317
9.06092
9.13321
9.21025
9.29224
9.37946
9.47292
9.5734
9.68207
9.7972
9.90911
10.0172
10.1271
7.36067
7.34456
7.324
7.30592
7.289
7.27378
7.2596
7.24646
7.23439
7.22337
7.21339
7.20445
7.19654
7.18965
7.18378
7.17892
7.17506
7.1722
7.17035
7.16948
7.1696
7.1707
7.17279
7.17591
7.17991
7.185
7.19093
7.19785
7.20569
7.21434
7.23367
7.23398
7.2455
7.258
7.27141
7.28572
7.30091
7.31728
7.33393
7.35168
7.37024
7.38957
7.40965
7.43066
7.45199
7.4745
7.49769
7.52217
7.54645
7.56864
6.76712
6.75909
6.75024
6.74308
6.73621
6.73038
6.7251
6.72038
6.71623
6.71265
6.70966
6.70725
6.70542
6.70418
6.70352
6.70345
6.70397
6.70507
6.70675
6.70901
6.71184
6.71525
6.71922
6.72376
6.72886
6.73451
6.74066
6.74739
6.75458
6.76229
6.77041
6.77899
6.79206
6.79849
6.80852
6.81898
6.82983
6.84103
6.85278
6.86446
6.87649
6.88869
6.90099
6.91316
6.92588
6.94015
6.95924
6.98318
6.98314
6.93384
5.2637
5.26722
5.26974
5.27163
5.27284
5.27419
5.27505
5.27564
5.27595
5.27599
5.27576
5.27527
5.27453
5.27353
5.27229
5.27081
5.26908
5.26711
5.26489
5.26243
5.25972
5.25677
5.25357
5.25011
5.24639
5.24241
5.23816
5.23364
5.22884
5.22375
5.21838
5.21273
5.20685
5.20075
5.19405
5.18711
5.17989
5.17235
5.16494
5.1562
5.14767
5.13944
5.13193
5.12211
5.09928
5.07208
5.0505
5.64452
6.24043
3.39349
3.0651
3.06623
3.06781
3.0698
3.07218
3.07488
3.07785
3.08099
3.08424
3.08757
3.09069
3.09352
3.09599
3.09791
3.09919
3.09971
3.09945
3.09836
3.09612
3.09288
3.08855
3.08286
3.07655
3.06871
3.05936
3.04904
3.03755
3.02489
3.01112
2.99634
2.98053
2.96368
2.94582
2.927
2.90723
2.88652
2.86492
2.84247
2.81925
2.79531
2.77071
2.74548
2.71969
2.69338
2.66668
2.63942
2.61188
2.58405
2.55597
2.52774
3.00554
3.00584
3.00626
3.0068
3.00746
3.00824
3.00895
3.0098
3.01066
3.01149
3.01222
3.01281
3.0132
3.01331
3.01309
3.01245
3.01132
3.00964
3.00731
3.00405
3.00014
2.99535
2.98962
2.98296
2.97519
2.96642
2.95656
2.94557
2.93336
2.91989
2.90519
2.88931
2.87235
2.8541
2.83476
2.81434
2.79288
2.77042
2.747
2.72267
2.69747
2.67145
2.64466
2.61715
2.58898
2.5602
2.53085
2.501
2.47072
2.44001
2.9359
2.93123
2.92642
2.92147
2.91635
2.91105
2.90558
2.8998
2.89374
2.88739
2.88072
2.87369
2.86627
2.85841
2.85008
2.84125
2.83189
2.82195
2.8114
2.80022
2.78838
2.77583
2.76255
2.74852
2.73373
2.71816
2.70177
2.68453
2.66644
2.64753
2.62779
2.60722
2.58583
2.56386
2.54061
2.51669
2.492
2.46654
2.44032
2.4134
2.38567
2.35727
2.32821
2.29852
2.26823
2.23737
2.20598
2.1741
2.14178
2.1091
2.82079
2.81046
2.79982
2.78884
2.7775
2.76594
2.75372
2.74116
2.72815
2.71467
2.70065
2.68613
2.67106
2.65541
2.63916
2.62228
2.60479
2.58653
2.56762
2.54799
2.52761
2.50648
2.48458
2.4621
2.43851
2.41414
2.38897
2.36299
2.33616
2.30849
2.27997
2.25062
2.22045
2.18948
2.15761
2.12468
2.09117
2.05691
2.0219
1.98615
1.94994
1.91251
1.87459
1.83605
1.79692
1.75721
1.717
1.6762
1.63497
1.59333
2.68506
2.66967
2.65362
2.63692
2.61951
2.60136
2.58252
2.56293
2.54259
2.52155
2.49964
2.47695
2.45347
2.42919
2.40409
2.37817
2.35158
2.32395
2.29552
2.26627
2.23618
2.20526
2.1735
2.14091
2.10752
2.07301
2.03784
2.00185
1.96502
1.92734
1.88881
1.84946
1.8093
1.76835
1.7265
1.68379
1.6403
1.59603
1.55099
1.50522
1.45884
1.41154
1.36338
1.31468
1.26539
1.2155
1.16504
1.11405
1.06255
1.01052
2.53951
2.5198
2.49923
2.4778
2.45549
2.43228
2.40818
2.38317
2.35728
2.33054
2.30282
2.27423
2.24474
2.21438
2.18313
2.15101
2.11807
2.08422
2.04949
2.01392
1.97748
1.94016
1.90201
1.86304
1.82316
1.78228
1.74063
1.69812
1.65468
1.61036
1.56515
1.519
1.47192
1.42391
1.37499
1.32517
1.27443
1.22277
1.17024
1.11682
1.06253
1.00739
0.95143
0.894686
0.83722
0.779104
0.720303
0.660932
0.601065
0.540784
2.40743
2.38594
2.36358
2.34033
2.31618
2.29113
2.26517
2.23833
2.2106
2.182
2.15254
2.12221
2.09104
2.05904
2.0262
1.99255
1.95803
1.92272
1.88659
1.84963
1.81181
1.77317
1.73368
1.6934
1.65207
1.60993
1.56691
1.52292
1.47797
1.4321
1.38515
1.33724
1.28831
1.23834
1.18735
1.13529
1.08216
1.02799
0.972771
0.91652
0.859275
0.801169
0.741787
0.681645
0.620723
0.558788
0.496145
0.432844
0.368693
0.304301
2.30266
2.28297
2.26254
2.24134
2.2194
2.19658
2.17304
2.14871
2.12362
2.09776
2.07116
2.04381
2.01572
1.98691
1.95738
1.92707
1.89609
1.8644
1.83196
1.79877
1.76483
1.73021
1.69469
1.65844
1.62136
1.58332
1.54468
1.50501
1.46446
1.42303
1.38057
1.33717
1.2929
1.24754
1.20111
1.15373
1.10532
1.05581
1.00539
0.953861
0.90139
0.847925
0.793468
0.738101
0.681836
0.624741
0.566789
0.508123
0.448863
0.38888
2.24753
2.23321
2.21832
2.20286
2.18685
2.17005
2.15273
2.13476
2.11614
2.09687
2.07696
2.05641
2.03524
2.01347
1.99102
1.96805
1.94419
1.91991
1.895
1.86945
1.84326
1.81665
1.78897
1.76099
1.73216
1.70269
1.67262
1.64151
1.60993
1.57752
1.54439
1.51057
1.47585
1.44047
1.4042
1.36707
1.3292
1.29038
1.25081
1.2104
1.16914
1.12704
1.08434
1.04068
0.996297
0.951186
0.90534
0.85883
0.811756
0.764503
2.24755
2.24197
2.23577
2.22896
2.2216
2.21351
2.20489
2.19567
2.18583
2.17537
2.16429
2.15266
2.1403
2.12742
2.11386
2.09992
2.08512
2.06993
2.05417
2.03784
2.02096
2.00369
1.98549
1.96704
1.94798
1.92843
1.90838
1.88762
1.86645
1.84472
1.82243
1.79983
1.77628
1.75252
1.728
1.70294
1.67743
1.65097
1.62424
1.59693
1.56906
1.54062
1.51161
1.48227
1.45181
1.42128
1.39022
1.35871
1.32677
1.29487
2.32857
2.33116
2.33319
2.33451
2.33524
2.33533
2.33474
2.33345
2.33149
2.32888
2.32561
2.32172
2.31718
2.31205
2.30628
2.29996
2.29302
2.28551
2.27745
2.26885
2.25972
2.2502
2.23993
2.22936
2.21828
2.20672
2.1948
2.18224
2.1694
2.15614
2.14247
2.12842
2.11403
2.09923
2.08401
2.0684
2.05258
2.03604
2.01943
2.00246
1.98517
1.96754
1.94956
1.93153
1.91261
1.89379
1.87466
1.85527
1.83569
1.8158
2.52708
2.52554
2.52401
2.52395
2.52624
2.52976
2.53324
2.53622
2.53862
2.54039
2.54151
2.54201
2.54188
2.54115
2.53983
2.53793
2.53552
2.53247
2.52894
2.52489
2.52034
2.51535
2.50984
2.50388
2.49749
2.4906
2.48346
2.47573
2.46776
2.45943
2.45074
2.44173
2.43249
2.42274
2.41286
2.40262
2.39229
2.38165
2.37078
2.35971
2.34842
2.33694
2.32527
2.31342
2.3015
2.28935
2.27707
2.2647
2.25225
2.23965
2.61127
2.70531
2.73869
2.7481
2.75122
2.75206
2.75242
2.75398
2.75693
2.76037
2.76358
2.7663
2.76844
2.76997
2.77093
2.77132
2.77117
2.7705
2.76932
2.76764
2.76549
2.76286
2.75982
2.75627
2.75235
2.74802
2.74329
2.73822
2.73276
2.72698
2.72088
2.71445
2.70779
2.70076
2.69353
2.68604
2.67831
2.67042
2.66229
2.65402
2.64543
2.63679
2.62797
2.61907
2.61005
2.6009
2.59166
2.58238
2.57309
2.5637
2.89457
2.78918
2.75869
2.79436
2.86102
2.91469
2.94196
2.95211
2.95568
2.95778
2.9601
2.96298
2.96595
2.96861
2.97075
2.97235
2.97341
2.97396
2.974
2.97356
2.97265
2.97129
2.9695
2.96732
2.96473
2.96177
2.95845
2.95478
2.95078
2.94646
2.94182
2.9369
2.93169
2.92625
2.92051
2.91456
2.90838
2.902
2.89543
2.88862
2.88167
2.87456
2.86731
2.85993
2.8524
2.84479
2.83706
2.82925
2.82144
2.81351
2.91128
3.37751
3.24999
3.11435
3.07262
3.06179
3.06389
3.07703
3.09553
3.11019
3.11802
3.12156
3.12388
3.12623
3.1286
3.13072
3.1324
3.13358
3.13424
3.13442
3.13415
3.13346
3.13238
3.13092
3.12906
3.12686
3.12432
3.12148
3.11834
3.11492
3.11124
3.1073
3.10313
3.09873
3.09411
3.08928
3.08426
3.07905
3.07366
3.06811
3.0624
3.05653
3.05053
3.04439
3.03814
3.03176
3.02527
3.01869
3.01204
3.00532
5.48436
3.49556
3.2372
3.52922
3.37213
3.2595
3.23732
3.23557
3.23643
3.23669
3.23744
3.23989
3.24285
3.24514
3.24697
3.24875
3.25049
3.25199
3.25314
3.25384
3.25404
3.25378
3.25306
3.25197
3.25052
3.24875
3.24668
3.24431
3.24165
3.23871
3.23551
3.23208
3.22842
3.22457
3.22053
3.21632
3.21196
3.20746
3.20283
3.19807
3.19321
3.18824
3.18317
3.17802
3.17278
3.16746
3.16208
3.15662
3.15111
3.14553
10.2493
10.3106
8.56743
6.28548
4.17525
3.49571
3.35434
3.33577
3.33619
3.33826
3.33974
3.33967
3.33871
3.33803
3.33826
3.33915
3.3405
3.34198
3.34334
3.34433
3.34484
3.34483
3.34428
3.34324
3.34173
3.33978
3.33749
3.3349
3.33207
3.32902
3.32577
3.32234
3.31872
3.31493
3.31098
3.30689
3.30267
3.29833
3.2939
3.28939
3.2848
3.28014
3.27544
3.27069
3.26591
3.2611
3.25626
3.2514
3.24653
3.24166
7.56674
7.51397
7.40285
6.65579
5.40667
3.83965
3.45111
3.40711
3.40099
3.40228
3.4069
3.41153
3.41532
3.41368
3.41053
3.40914
3.40891
3.40934
3.41013
3.41102
3.41164
3.41171
3.41118
3.41007
3.40845
3.40638
3.40392
3.40111
3.39798
3.39459
3.39097
3.38718
3.38325
3.37919
3.37502
3.37074
3.36638
3.36192
3.35739
3.35279
3.34813
3.34343
3.33871
3.33396
3.32921
3.32446
3.31971
3.31497
3.31024
3.30555
6.81089
5.59063
4.78554
4.31309
3.74308
3.5092
3.4563
3.44209
3.43427
3.43033
3.42945
3.43902
3.43874
3.4361
3.43871
3.44072
3.43181
3.4297
3.42918
3.42931
3.42936
3.42916
3.42878
3.42817
3.42722
3.42593
3.42435
3.42255
3.42053
3.41831
3.41589
3.41327
3.41045
3.40744
3.40427
3.40095
3.3975
3.39393
3.39024
3.38644
3.38255
3.37856
3.37449
3.37036
3.36616
3.36193
3.35765
3.35335
3.34903
3.3447
2.58669
2.0105
2.18427
3.16364
3.47946
3.43789
3.42072
3.42132
3.42067
3.42046
3.42045
3.42029
3.41987
3.4195
3.41921
3.41869
3.41769
3.41677
3.4171
3.41685
3.40927
3.40844
3.40773
3.40698
3.40625
3.40571
3.40539
3.40521
3.40511
3.40503
3.40493
3.40475
3.40443
3.40392
3.40321
3.40226
3.40108
3.39967
3.39803
3.39618
3.39413
3.39189
3.38946
3.38687
3.38412
3.38122
3.37817
3.375
3.37171
3.3683
2.50607
2.49101
2.47589
2.46063
2.44526
2.4298
2.41427
2.39868
2.38302
2.36731
2.35154
2.33574
2.31991
2.30406
2.28818
2.27232
2.25647
2.24147
2.22523
2.20929
2.19346
2.17769
2.16195
2.14627
2.13064
2.11508
2.09959
2.08417
2.06897
2.05403
2.04191
2.0262
2.0089
1.99408
1.97948
1.96501
1.95067
1.93648
1.9226
1.90915
1.89594
1.88198
1.86568
1.85226
1.83924
1.82668
1.81405
1.80164
1.78954
1.77764
1.76601
1.75461
1.74347
1.73257
1.72193
1.71156
1.70145
1.69161
1.68205
1.67276
1.66378
1.65492
1.64593
1.63781
1.62999
1.62246
1.61523
1.60829
1.60165
1.59531
1.58925
1.58349
1.57846
1.57337
1.56855
1.56404
1.55983
1.55586
1.55221
1.54883
1.54576
1.54294
1.54037
1.53808
1.53601
1.53402
1.5325
1.53132
1.53016
1.52923
1.52852
1.52803
1.52768
1.52746
1.52757
1.52769
1.52777
1.52813
1.52858
1.5291
1.5297
1.53033
1.53113
1.53189
1.53258
1.53342
1.53425
1.53497
1.536
1.53687
1.53775
1.5387
1.53967
1.54069
1.54178
1.5431
1.54437
1.54593
1.5476
1.54959
1.55188
1.55455
1.55768
1.5613
1.56553
1.57048
1.57614
1.58274
1.59029
1.59889
1.60863
1.61974
1.63203
1.64581
1.66114
1.67812
1.69685
1.71736
1.7397
1.76367
1.78909
1.81573
1.84342
1.87211
1.90162
1.93173
1.96242
1.99355
2.02497
2.05654
2.08809
2.11936
2.15028
2.18062
2.21023
2.239
2.26683
2.29362
2.31928
2.34391
2.36743
2.38988
2.41132
2.43184
2.45151
2.4704
2.48854
2.506
2.52269
2.53871
2.55395
2.56835
2.58185
2.59438
2.60592
2.61646
2.62601
2.63461
2.64228
2.64907
2.65503
2.66019
2.66458
2.66823
2.67119
2.67346
2.67508
2.67606
2.67642
2.67615
2.67527
2.67405
2.67232
2.67009
2.66735
2.66412
2.66039
2.65618
2.6515
2.64634
2.64074
2.6347
2.62821
2.62122
2.61377
2.60585
2.59748
2.58864
2.57935
2.56961
2.55942
2.54877
2.53768
2.52615
2.51417
2.50176
2.48893
2.47567
2.46199
2.44791
2.43343
2.41856
2.40332
2.38773
2.37181
2.35557
2.33904
2.32224
2.30521
2.28797
2.27055
2.25298
2.2353
2.21755
2.19976
2.18197
2.16421
2.14654
2.12898
2.11159
2.09439
2.07742
2.06074
2.04436
2.02833
2.01268
1.99744
1.98263
1.96828
1.95441
1.94104
1.92819
1.91587
1.90409
1.89282
1.88206
1.87188
1.86232
1.85338
1.84496
1.83703
1.82959
1.82262
1.81608
1.80995
1.80421
1.79882
1.79375
1.78896
1.78441
1.78008
1.77591
1.77188
1.76795
1.76406
1.76019
1.75629
1.75233
1.74826
1.74406
1.73968
1.73509
1.73026
1.72517
1.71978
1.71408
1.70806
1.70169
1.69498
1.68791
1.6805
1.67276
1.66469
1.65626
1.64756
1.63882
1.63016
1.62098
1.61017
1.59848
2.41642
2.40008
2.38376
2.36726
2.35053
2.33365
2.31663
2.29948
2.28222
2.26484
2.24737
2.22986
2.21231
2.19467
2.17692
2.15911
2.14123
2.1233
2.10539
2.0875
2.06959
2.0517
2.03382
2.01596
1.99814
1.98037
1.96266
1.94506
1.92756
1.91129
1.89336
1.87595
1.85883
1.84186
1.82504
1.80836
1.79183
1.77566
1.76002
1.74462
1.72835
1.70848
1.6928
1.67769
1.66291
1.64835
1.63405
1.62003
1.6063
1.59288
1.57965
1.56681
1.55431
1.54213
1.53035
1.51881
1.50765
1.49686
1.48644
1.4764
1.4677
1.45801
1.44908
1.44063
1.43256
1.42492
1.41763
1.41082
1.40443
1.39847
1.39293
1.38784
1.38311
1.37851
1.37471
1.37136
1.36842
1.36592
1.36384
1.36219
1.36096
1.36014
1.35973
1.36004
1.36029
1.36111
1.36236
1.36395
1.36591
1.36907
1.37164
1.37479
1.3783
1.38211
1.38597
1.39048
1.39535
1.4003
1.40579
1.41156
1.41763
1.42398
1.4306
1.43769
1.44481
1.45232
1.46012
1.46815
1.47645
1.48502
1.49379
1.503
1.51251
1.52232
1.53246
1.543
1.55388
1.56511
1.57682
1.58896
1.60154
1.61468
1.62838
1.6426
1.65763
1.67313
1.68953
1.70665
1.72459
1.74344
1.76311
1.78369
1.80531
1.82787
1.85147
1.87607
1.90167
1.92827
1.95588
1.98438
2.01379
2.04406
2.07514
2.10696
2.13949
2.17259
2.20608
2.23983
2.27358
2.30711
2.34022
2.37288
2.40465
2.43553
2.46529
2.49382
2.52105
2.54686
2.57121
2.5942
2.61572
2.63588
2.65471
2.67227
2.68866
2.70399
2.71833
2.73179
2.74449
2.75634
2.76765
2.7781
2.78765
2.79624
2.80385
2.81046
2.81608
2.82072
2.8244
2.82736
2.82956
2.831
2.83173
2.83175
2.8311
2.82978
2.82783
2.82527
2.82213
2.81843
2.81421
2.80921
2.80361
2.79744
2.79072
2.78345
2.77564
2.76729
2.75841
2.749
2.73907
2.7286
2.71761
2.70608
2.69402
2.68142
2.66828
2.6546
2.64038
2.62561
2.6103
2.59445
2.57806
2.56114
2.54371
2.52576
2.50732
2.4884
2.46902
2.4492
2.42897
2.40836
2.38739
2.36611
2.34456
2.32278
2.30081
2.2787
2.2565
2.23428
2.21207
2.18996
2.16798
2.14621
2.12471
2.10353
2.08274
2.06241
2.04258
2.02332
2.00468
1.98671
1.96945
1.95295
1.93724
1.92236
1.90832
1.89515
1.88286
1.87145
1.86092
1.85126
1.84246
1.83447
1.82731
1.82102
1.81548
1.81067
1.80652
1.80305
1.80023
1.798
1.79629
1.79506
1.79426
1.79381
1.79368
1.7938
1.79413
1.7946
1.79517
1.79579
1.7964
1.79696
1.79742
1.79773
1.79784
1.79769
1.79724
1.79643
1.79523
1.79357
1.79143
1.78876
1.78553
1.78172
1.7773
1.77227
1.76661
1.76033
1.75346
1.74601
1.738
1.72942
1.72036
1.71109
1.70185
1.69209
1.68046
1.66735
2.08399
2.06659
2.04913
2.03146
2.01351
1.99541
1.97722
1.95885
1.94032
1.92164
1.90282
1.88385
1.86475
1.84554
1.82621
1.80676
1.78722
1.76761
1.74792
1.72817
1.70836
1.68852
1.66865
1.64876
1.62887
1.60902
1.58924
1.56946
1.5495
1.52934
1.50968
1.49014
1.4707
1.45136
1.43216
1.41313
1.39437
1.37591
1.35767
1.33987
1.31961
1.30192
1.28456
1.26749
1.25072
1.23428
1.21818
1.20244
1.18708
1.17211
1.15756
1.14344
1.12976
1.11657
1.10387
1.09122
1.07946
1.06819
1.05743
1.04722
1.03759
1.02832
1.01981
1.01186
1.00451
0.997796
0.991668
0.985869
0.980982
0.976731
0.973122
0.970206
0.967876
0.96622
0.965259
0.964967
0.965347
0.966438
0.968151
0.97035
0.973481
0.977269
0.98172
0.986852
0.992652
0.999132
1.00628
1.01408
1.02251
1.03197
1.04172
1.05173
1.06317
1.07475
1.08711
1.10002
1.11332
1.12743
1.14213
1.15739
1.1732
1.1904
1.20701
1.22455
1.24264
1.26127
1.28044
1.30013
1.32054
1.34122
1.3625
1.38435
1.40666
1.42951
1.45289
1.47676
1.5012
1.52617
1.55162
1.57764
1.60418
1.63116
1.65888
1.68714
1.71597
1.74538
1.77534
1.80587
1.83711
1.86875
1.90102
1.93384
1.96715
2.00093
2.03551
2.07006
2.10523
2.14073
2.17651
2.21252
2.24868
2.28488
2.32103
2.35712
2.39285
2.42832
2.46329
2.49767
2.53131
2.56409
2.59588
2.62657
2.65617
2.68439
2.71132
2.7368
2.76078
2.7832
2.80402
2.82321
2.8409
2.85701
2.87169
2.88496
2.89689
2.90762
2.91724
2.92584
2.9336
2.94042
2.94634
2.95152
2.95591
2.95948
2.96221
2.96409
2.96517
2.96547
2.96505
2.96375
2.96167
2.95885
2.95533
2.95112
2.94626
2.94077
2.93466
2.92795
2.92064
2.91274
2.90427
2.89521
2.88556
2.87533
2.8645
2.85308
2.84105
2.82842
2.81518
2.80131
2.78683
2.77171
2.75595
2.73955
2.72251
2.70481
2.68647
2.66747
2.64782
2.62752
2.60659
2.58503
2.56286
2.5401
2.51677
2.49289
2.46851
2.44366
2.41837
2.39271
2.36671
2.34044
2.31396
2.28734
2.26065
2.23396
2.20736
2.18093
2.15475
2.12891
2.1035
2.07861
2.05433
2.03074
2.00793
1.98598
1.96496
1.94496
1.92603
1.90823
1.89161
1.87621
1.86207
1.84919
1.83759
1.82729
1.81826
1.81049
1.80393
1.7985
1.79414
1.7909
1.7888
1.78776
1.78769
1.7885
1.79008
1.79225
1.79497
1.79814
1.80168
1.8055
1.80953
1.81368
1.8179
1.82211
1.82626
1.8303
1.83418
1.83785
1.84129
1.84444
1.8473
1.84981
1.85196
1.85372
1.85506
1.85595
1.85635
1.85625
1.85561
1.85441
1.85262
1.85023
1.84721
1.84356
1.83925
1.83429
1.82866
1.82235
1.81537
1.80771
1.79937
1.7903
1.78051
1.77014
1.7594
1.74804
1.73527
1.72155
1.5612
1.53876
1.51626
1.4936
1.47069
1.44752
1.42416
1.4006
1.37686
1.3529
1.32886
1.30473
1.28046
1.25608
1.2316
1.20704
1.18243
1.15768
1.13292
1.10815
1.08335
1.05856
1.03378
1.00904
0.98435
0.959728
0.9352
0.910842
0.88667
0.862605
0.838581
0.814473
0.790812
0.767464
0.744419
0.721644
0.699171
0.676878
0.654516
0.632931
0.611787
0.59107
0.570784
0.550955
0.531598
0.51271
0.494347
0.476525
0.459251
0.442548
0.426439
0.410949
0.396122
0.381999
0.368548
0.356295
0.344212
0.332827
0.322269
0.312526
0.303586
0.295472
0.288206
0.281803
0.27629
0.271678
0.269133
0.265859
0.263972
0.263091
0.263168
0.26422
0.266262
0.269305
0.273355
0.278421
0.284511
0.291623
0.299755
0.309435
0.319681
0.330855
0.343172
0.356534
0.370934
0.386364
0.402819
0.4205
0.439014
0.458551
0.479096
0.500643
0.523162
0.546709
0.571145
0.596549
0.622899
0.650169
0.678348
0.707409
0.737293
0.76805
0.799371
0.831346
0.864626
0.898638
0.933388
0.968872
1.00505
1.04189
1.07965
1.11766
1.15646
1.19584
1.23577
1.27625
1.31724
1.35872
1.40064
1.44295
1.48572
1.52894
1.57228
1.61618
1.66035
1.70476
1.7494
1.79421
1.83916
1.88429
1.92943
1.97464
2.01978
2.06472
2.10956
2.15423
2.19857
2.24261
2.28618
2.3292
2.3716
2.41329
2.45414
2.49424
2.53329
2.57129
2.60821
2.64373
2.67786
2.71069
2.74194
2.77158
2.79969
2.82604
2.85072
2.87363
2.89475
2.9141
2.9317
2.94769
2.96204
2.9749
2.98626
2.9962
3.00482
3.01219
3.01838
3.02347
3.02762
3.03074
3.03304
3.03447
3.03507
3.03487
3.03387
3.0321
3.02958
3.02634
3.0224
3.01779
3.0125
3.00656
2.99997
2.99275
2.9849
2.97642
2.96731
2.95757
2.9472
2.93619
2.92455
2.91225
2.8993
2.88568
2.87138
2.8564
2.84071
2.82431
2.8072
2.78935
2.77076
2.75143
2.73134
2.71049
2.68888
2.66651
2.64339
2.61952
2.59493
2.56962
2.54363
2.51698
2.48971
2.46187
2.4335
2.40466
2.37542
2.34583
2.316
2.28599
2.25589
2.22581
2.19584
2.1661
2.13669
2.10773
2.07934
2.05162
2.02471
1.99871
1.97375
1.94992
1.92734
1.90609
1.88627
1.86797
1.85123
1.83612
1.82268
1.81094
1.80092
1.79262
1.78602
1.78104
1.77753
1.77591
1.77581
1.77716
1.77985
1.78378
1.78882
1.79474
1.80132
1.80841
1.81587
1.82358
1.83139
1.8392
1.84688
1.85433
1.86148
1.86826
1.87461
1.8805
1.88591
1.8908
1.89518
1.89903
1.90237
1.90519
1.90749
1.9093
1.91061
1.91144
1.91178
1.91164
1.91102
1.90991
1.90831
1.90621
1.9036
1.90048
1.89684
1.89268
1.88799
1.88277
1.87701
1.87072
1.8639
1.85652
1.8486
1.84012
1.83107
1.82144
1.81124
1.80048
1.78923
1.77751
1.76517
1.75245
0.970334
0.94215
0.913727
0.885112
0.856315
0.82727
0.797986
0.768553
0.738859
0.708963
0.678935
0.648809
0.618562
0.588187
0.557703
0.527166
0.496896
0.465943
0.434818
0.404036
0.373287
0.342554
0.311854
0.281215
0.250658
0.220207
0.189935
0.159868
0.129991
0.100215
0.0706722
0.0413967
0.0123864
-0.0163531
-0.0447152
-0.0726488
-0.100141
-0.127205
-0.153802
-0.179893
-0.20534
-0.230385
-0.254915
-0.278705
-0.301825
-0.32423
-0.345913
-0.366834
-0.386924
-0.406148
-0.424521
-0.442093
-0.458772
-0.474554
-0.489427
-0.503328
-0.516175
-0.527971
-0.538719
-0.548391
-0.556964
-0.564413
-0.570712
-0.575835
-0.579749
-0.582423
-0.58387
-0.584051
-0.58307
-0.581354
-0.577704
-0.572673
-0.56632
-0.558662
-0.549594
-0.5392
-0.527678
-0.514155
-0.499604
-0.483546
-0.466091
-0.447784
-0.42751
-0.40558
-0.382495
-0.358025
-0.331979
-0.304888
-0.27625
-0.246261
-0.214933
-0.182271
-0.148286
-0.113018
-0.0764507
-0.0386111
0.000261379
0.0405981
0.0821576
0.124838
0.168616
0.2137
0.259567
0.306078
0.354205
0.403281
0.453274
0.504165
0.555891
0.608391
0.661676
0.715666
0.770134
0.825369
0.881135
0.93739
0.994054
1.05105
1.10839
1.16605
1.22372
1.28178
1.3399
1.39801
1.45602
1.51399
1.57182
1.62933
1.68667
1.74364
1.80018
1.85619
1.91164
1.96649
2.02061
2.074
2.12651
2.17805
2.22855
2.27793
2.32608
2.37302
2.41863
2.46273
2.50544
2.54656
2.58599
2.62371
2.65973
2.69387
2.72623
2.75669
2.78523
2.81184
2.83654
2.85936
2.88032
2.89947
2.91681
2.9324
2.94633
2.95867
2.96948
2.97884
2.9868
2.99342
2.99875
3.00291
3.00591
3.00786
3.00882
3.00883
3.00798
3.00632
3.00387
3.00069
2.99678
2.99217
2.98689
2.98094
2.97433
2.96706
2.95913
2.95053
2.94125
2.9313
2.92067
2.90935
2.89733
2.88459
2.87113
2.85693
2.84197
2.82624
2.80972
2.7924
2.77427
2.75531
2.73551
2.71487
2.69337
2.67102
2.64782
2.62377
2.59888
2.57317
2.54666
2.51937
2.49134
2.46262
2.43326
2.40331
2.37284
2.34192
2.31065
2.27912
2.24742
2.21566
2.18397
2.15246
2.12126
2.09051
2.06034
2.0309
2.00232
1.97475
1.94833
1.92318
1.89946
1.87726
1.85672
1.83793
1.82098
1.80595
1.79291
1.78189
1.77293
1.76605
1.76123
1.75841
1.75756
1.75861
1.76147
1.76602
1.77215
1.77922
1.78739
1.79644
1.80616
1.81634
1.82678
1.83727
1.84764
1.85772
1.86738
1.8765
1.88501
1.89284
1.89996
1.90634
1.91195
1.91678
1.92086
1.92421
1.92686
1.92886
1.93025
1.93107
1.93138
1.93121
1.93061
1.92961
1.92825
1.92655
1.92452
1.92219
1.91957
1.91665
1.91346
1.90997
1.9062
1.90213
1.89776
1.89309
1.8881
1.8828
1.87718
1.87124
1.86498
1.85839
1.85146
1.84419
1.83656
1.82854
1.82009
1.81121
1.80189
1.79216
1.78219
1.77171
0.494127
0.461243
0.428035
0.394554
0.360859
0.326889
0.292682
0.258272
0.223671
0.188857
0.153849
0.11867
0.0833304
0.0478593
0.0123047
-0.0233063
-0.0590085
-0.0948226
-0.131241
-0.167127
-0.20294
-0.238689
-0.27437
-0.309953
-0.345379
-0.380604
-0.415623
-0.450472
-0.485858
-0.52018
-0.554117
-0.587733
-0.620956
-0.652504
-0.685168
-0.717073
-0.748387
-0.779085
-0.809179
-0.838601
-0.867358
-0.895464
-0.923184
-0.949752
-0.97545
-1.00028
-1.02421
-1.04721
-1.06924
-1.08982
-1.11009
-1.12915
-1.14704
-1.16376
-1.17937
-1.19379
-1.20693
-1.2189
-1.23014
-1.2396
-1.24768
-1.25476
-1.26022
-1.26436
-1.26763
-1.26896
-1.26879
-1.26717
-1.26408
-1.25952
-1.25338
-1.24577
-1.23709
-1.22635
-1.21396
-1.20001
-1.1845
-1.16736
-1.14843
-1.12802
-1.10602
-1.08237
-1.05708
-1.03026
-1.00175
-0.971548
-0.939973
-0.906643
-0.87157
-0.835063
-0.797029
-0.757428
-0.716314
-0.673901
-0.629753
-0.584104
-0.537009
-0.488525
-0.438654
-0.387189
-0.334623
-0.280847
-0.225678
-0.169296
-0.111896
-0.0532805
0.00641598
0.0668768
0.128499
0.190991
0.254301
0.31835
0.38308
0.448493
0.514243
0.581034
0.647486