/*--------------------------------*- C++ -*----------------------------------*\
| =========                 |                                                 |
| \\      /  F ield         | OpenFOAM: The Open Source CFD Toolbox           |
|  \\    /   O peration     | Version:  2.4.0                                 |
|   \\  /    A nd           | Web:      www.OpenFOAM.org                      |
|    \\/     M anipulation  |                                                 |
\*---------------------------------------------------------------------------*/
FoamFile
{
    version     2.0;
    format      ascii;
    class       volScalarField;
    location    "4";
    object      p_rgh;
}
// * * * * * * * * * * * * * * * * * * * * * * * * * * * * * * * * * * * * * //

dimensions      [1 -1 -2 0 0 0 0];

internalField   nonuniform List<scalar> 
8000
(
67.0193
66.96
66.8813
66.7793
66.6485
66.4876
66.2973
66.0789
65.8355
65.5722
65.2923
64.9979
64.6801
64.304
63.9395
63.4311
62.5591
61.4825
60.4627
53.8153
44.2392
37.2551
30.1226
23.6288
17.4693
12.0692
7.93931
5.80402
5.48321
5.61042
5.46559
5.03496
4.55639
4.25753
4.13856
4.08717
4.05071
4.02287
4.00563
3.99573
3.98923
3.9842
3.98
3.97663
3.97408
3.97225
3.97102
3.97031
3.97006
3.97029
58.0779
58.17
58.2683
58.3691
58.4751
58.5888
58.7126
58.8508
59.0205
59.237
59.4431
59.3488
58.0927
56.2886
55.3119
40.2766
24.9806
13.9522
6.25658
4.01647
4.4945
4.89714
4.81762
4.58682
4.40511
4.2434
4.10871
4.02483
3.98927
3.98402
3.99157
3.99747
3.99432
3.98607
3.9786
3.96536
3.95368
3.94659
3.94209
3.93927
3.93738
3.93604
3.93513
3.93453
3.93413
3.93384
3.93365
3.93353
3.93351
3.93359
52.6561
52.8368
53.0124
53.1604
53.29
53.4063
53.4755
53.3829
52.2275
49.2113
47.9418
49.9234
19.3025
5.89815
3.82593
4.4494
4.6528
4.3469
4.15457
4.04795
3.99144
3.97163
3.97261
3.97721
3.97892
3.97795
3.97535
3.97188
3.96844
3.96572
3.96355
3.96141
3.95894
3.95609
3.95293
3.94951
3.94581
3.94186
3.93782
3.93376
3.92958
3.92522
3.92111
3.91696
3.9127
3.9086
3.90425
3.8999
3.89551
3.89105
58.9033
58.9259
58.9805
59.0955
59.2182
58.8562
56.8955
54.1925
33.7203
-2.52044
1.29111
3.66858
3.87395
3.96688
3.9592
3.94921
3.96779
3.98273
3.98581
3.98359
3.98128
3.9801
3.97915
3.97755
3.97519
3.97222
3.9687
3.9647
3.96029
3.95554
3.95046
3.94506
3.93934
3.93329
3.92693
3.92028
3.91336
3.90625
3.89884
3.89121
3.88339
3.87537
3.86716
3.85876
3.85023
3.84134
3.83231
3.82305
3.81356
3.80379
53.5688
53.5498
53.5421
53.1329
51.0264
47.1605
7.91881
5.03001
5.44271
3.87526
3.9124
3.91117
3.91323
3.91539
3.91703
3.91835
3.9193
3.91957
3.91923
3.91838
3.91705
3.9153
3.91316
3.91066
3.90779
3.90454
3.90089
3.89684
3.89238
3.88752
3.88223
3.87652
3.87034
3.86371
3.85664
3.8491
3.8411
3.83262
3.82369
3.8143
3.80447
3.79419
3.78347
3.77229
3.76068
3.74859
3.73603
3.72295
3.70935
3.69517
60.4291
60.4857
59.8268
56.5549
49.8502
3.56001
3.92206
3.82423
3.84758
3.83026
3.83051
3.83133
3.83242
3.83395
3.8352
3.83628
3.8371
3.83761
3.83779
3.83763
3.83713
3.83629
3.83512
3.83359
3.83168
3.82941
3.82652
3.82321
3.81933
3.8147
3.80948
3.80353
3.79682
3.78932
3.78103
3.77196
3.76212
3.75154
3.74024
3.72831
3.71568
3.7025
3.68877
3.67449
3.65967
3.64426
3.62824
3.61158
3.59421
3.5761
64.4028
64.4462
63.9836
61.8243
39.5484
3.79801
3.79746
3.78723
3.78703
3.78654
3.78567
3.78503
3.7846
3.78425
3.7838
3.7832
3.7824
3.78138
3.78014
3.77864
3.77693
3.77486
3.77245
3.7697
3.76657
3.76286
3.75879
3.75419
3.74901
3.74317
3.73662
3.72929
3.72113
3.7121
3.70218
3.69137
3.67968
3.66714
3.65381
3.63973
3.62501
3.6097
3.59388
3.57758
3.56079
3.54349
3.52563
3.50715
3.48801
3.46814
66.0354
66.1091
65.657
63.2908
46.6474
3.74256
3.73873
3.72222
3.70649
3.70406
3.70362
3.7027
3.70124
3.69933
3.69699
3.69422
3.69105
3.68745
3.68341
3.67892
3.67399
3.66872
3.6632
3.65758
3.652
3.64645
3.64105
3.63582
3.6305
3.62522
3.61976
3.61395
3.60762
3.60063
3.59284
3.58419
3.57468
3.56431
3.55308
3.54103
3.52818
3.5146
3.50034
3.48544
3.46994
3.45388
3.43728
3.42013
3.40241
3.38407
66.3683
66.5445
66.1985
63.8207
42.9191
3.38904
3.40501
3.77903
3.73244
3.68934
3.643
3.61187
3.59779
3.58632
3.57888
3.57389
3.57104
3.56899
3.56701
3.56482
3.56228
3.55942
3.55621
3.55261
3.54861
3.54419
3.53935
3.53408
3.52841
3.52231
3.51571
3.50849
3.50061
3.49218
3.48364
3.47558
3.46841
3.46201
3.45592
3.44964
3.44281
3.43501
3.4263
3.41675
3.40652
3.3956
3.38408
3.37198
3.35932
3.34609
54.6979
55.0201
55.3621
55.2633
53.4635
10.6342
6.05052
8.81892
9.18344
7.25622
6.81288
6.18493
5.75621
5.38506
5.07785
4.79822
4.54986
4.33462
4.15607
4.00365
3.87055
3.75218
3.65482
3.5791
3.52177
3.47891
3.45009
3.43358
3.42651
3.42482
3.42547
3.4268
3.42792
3.42825
3.42742
3.42528
3.422
3.41788
3.41305
3.40728
3.40024
3.39204
3.38393
3.37797
3.37473
3.37281
3.37073
3.36784
3.36407
3.35968
74.6385
74.7211
74.8305
74.9362
75.1252
75.637
76.3729
74.2977
54.211
41.9454
41.8735
40.2681
37.1058
33.7924
31.0235
28.567
26.3146
23.9843
21.7139
19.5344
17.5635
15.7063
13.954
12.2887
10.8104
9.50728
8.37462
7.38475
6.52386
5.79828
5.20598
4.73438
4.35015
4.02433
3.75026
3.54788
3.43628
3.40548
3.41694
3.438
3.45579
3.46741
3.47249
3.4724
3.47019
3.46751
3.46402
3.45966
3.45629
3.45598
78.6468
78.5957
78.5633
78.5639
78.6099
78.6835
78.7301
78.7561
78.6749
78.5455
78.4393
78.4286
78.4454
78.5211
78.7558
79.2533
79.4835
73.6243
71.4216
69.6577
67.272
64.4456
61.3807
58.273
54.9188
51.1189
47.2637
43.6795
39.8615
35.5973
31.174
26.896
22.8667
19.28
16.1716
13.4809
11.0993
9.1083
7.51095
6.29574
5.37045
4.61368
3.9793
3.57584
3.51607
3.59779
3.65219
3.67373
3.67996
3.68034
79.3324
79.2839
79.2283
79.1734
79.119
79.063
79.0048
78.9479
78.9004
78.8657
78.8536
78.8639
78.9032
78.9657
79.0427
79.1091
79.1613
79.1935
79.2097
79.2259
79.2486
79.2754
79.3067
79.3474
79.4078
79.5117
79.6649
79.6731
77.9973
75.6397
74.3915
72.5835
69.9754
66.8053
62.7805
57.9149
52.5534
46.8601
41.0297
34.7711
28.2
21.9571
16.7175
12.6596
9.5531
7.28358
5.70126
4.65493
4.03452
3.81141
80.8191
80.7966
80.7719
80.749
80.7277
80.707
80.6873
80.6682
80.6498
80.6321
80.6154
80.5997
80.5849
80.5706
80.5563
80.5412
80.5251
80.5097
80.4954
80.4841
80.4778
80.4774
80.4836
80.4975
80.5211
80.5538
80.5854
80.6022
80.6046
80.5912
80.5662
80.5394
80.5185
80.5152
80.5294
80.4612
79.4672
77.2306
76.5731
75.1675
72.1129
67.8931
62.3735
55.1954
46.8051
37.3387
27.254
18.5112
12.5403
8.72073
82.4655
82.4415
82.4162
82.3924
82.3712
82.3504
82.3316
82.3139
82.2975
82.2824
82.2687
82.2562
82.2449
82.2346
82.2253
82.2168
82.2087
82.2012
82.1941
82.1875
82.1814
82.1757
82.1703
82.1654
82.1608
82.1562
82.1515
82.1462
82.1504
82.1412
82.1413
82.1425
82.1476
82.1561
82.1618
82.154
82.1394
82.1174
82.0945
82.0778
82.0729
82.0725
81.9807
80.4809
79.3924
77.6763
73.6286
66.2752
53.8754
37.3239
83.627
83.5976
83.5644
83.5348
83.5085
83.4834
83.4609
83.4403
83.4217
83.4051
83.3905
83.3779
83.3672
83.3585
83.3518
83.3471
83.3444
83.3437
83.345
83.3485
83.3541
83.3618
83.3718
83.3839
83.3983
83.4148
83.4333
83.4515
83.4835
83.5039
83.5355
83.5665
83.6
83.6362
83.6752
83.7174
83.7632
83.8136
83.8691
83.9306
83.9967
84.0611
84.1243
84.1867
84.2475
84.3107
84.3897
84.4972
84.5381
81.2759
84.8948
84.864
84.8301
84.8013
84.7754
84.7523
84.7314
84.7128
84.6965
84.6825
84.6707
84.6613
84.6541
84.6491
84.6465
84.646
84.6478
84.652
84.6584
84.6672
84.6784
84.692
84.7081
84.7267
84.748
84.7718
84.7983
84.8258
84.8574
84.8927
84.9201
84.9641
85.009
85.0574
85.1093
85.1649
85.2242
85.2876
85.3553
85.4276
85.5046
85.5866
85.6738
85.7673
85.8678
85.9765
86.0917
86.2036
86.3117
86.4217
85.0056
84.9892
84.9688
84.9511
84.9341
84.9189
84.9047
84.8915
84.8794
84.8684
84.8584
84.8494
84.8415
84.8346
84.8287
84.8238
84.82
84.8171
84.8152
84.8143
84.8144
84.8155
84.8176
84.8207
84.8247
84.8298
84.8357
84.8425
84.85
84.8566
84.8745
84.8764
84.8895
84.9024
84.9161
84.9305
84.9457
84.9621
84.9787
84.9965
85.0149
85.0342
85.0542
85.0752
85.0966
85.1192
85.1424
85.1667
85.1911
85.2134
85.7624
85.7542
85.7454
85.7386
85.7316
85.7258
85.7205
85.7158
85.7116
85.708
85.705
85.7026
85.7007
85.6995
85.6988
85.6987
85.6992
85.7003
85.702
85.7042
85.707
85.7104
85.7144
85.7189
85.724
85.7297
85.7358
85.7426
85.7497
85.7574
85.7653
85.7734
85.7859
85.7928
85.8034
85.814
85.825
85.8362
85.848
85.8596
85.8716
85.8838
85.896
85.9081
85.9208
85.9351
85.9542
85.976
85.9777
85.9289
85.6093
85.6128
85.6153
85.6174
85.6185
85.6199
85.6208
85.6213
85.6216
85.6217
85.6214
85.6209
85.6201
85.6191
85.6179
85.6164
85.6147
85.6127
85.6105
85.608
85.6053
85.6023
85.5991
85.5957
85.592
85.588
85.5837
85.5792
85.5744
85.5693
85.5639
85.5582
85.5523
85.5461
85.5395
85.5325
85.5254
85.5178
85.5105
85.5017
85.4931
85.4849
85.4773
85.4675
85.4446
85.4176
85.3903
85.5053
86.5848
81.3776
3.97096
3.9721
3.97367
3.97567
3.97804
3.98074
3.98372
3.98686
3.99011
3.99346
3.99657
3.99939
4.00185
4.00377
4.00505
4.00557
4.00536
4.00428
4.00204
3.99876
3.99443
3.98877
3.98251
3.97467
3.96528
3.95493
3.94344
3.93076
3.91698
3.9022
3.88639
3.86954
3.85168
3.83287
3.81311
3.7924
3.7708
3.74835
3.72511
3.70117
3.67657
3.65134
3.62555
3.59924
3.57255
3.54528
3.51774
3.4899
3.46183
3.4336
3.93377
3.93407
3.93449
3.93503
3.93569
3.93649
3.93719
3.93803
3.93889
3.93971
3.94045
3.94104
3.94143
3.94154
3.94131
3.94067
3.93954
3.93789
3.93556
3.93229
3.92837
3.92358
3.91786
3.91119
3.90342
3.89464
3.88479
3.8738
3.86159
3.84812
3.83342
3.81754
3.80058
3.78233
3.76298
3.74257
3.72111
3.69865
3.67523
3.6509
3.62569
3.59967
3.57289
3.54538
3.51721
3.48842
3.45908
3.42923
3.39895
3.36824
3.8865
3.88182
3.87702
3.87206
3.86694
3.86166
3.8562
3.85042
3.84435
3.83799
3.83132
3.82429
3.81686
3.809
3.80068
3.79185
3.78248
3.77254
3.762
3.75082
3.73897
3.72642
3.71315
3.69912
3.68433
3.66877
3.65238
3.63514
3.61704
3.59812
3.57838
3.55781
3.53643
3.51449
3.49121
3.46728
3.4426
3.41713
3.39091
3.364
3.33627
3.30786
3.2788
3.24911
3.21882
3.18796
3.15658
3.1247
3.09237
3.05969
3.79375
3.78342
3.77278
3.7618
3.75047
3.73892
3.72669
3.71412
3.70111
3.68763
3.67362
3.65909
3.64402
3.62837
3.61212
3.59524
3.57775
3.5595
3.54058
3.52095
3.50057
3.47944
3.45754
3.43509
3.41148
3.3871
3.36193
3.33595
3.30912
3.28145
3.25293
3.22358
3.19341
3.16248
3.13061
3.09766
3.06413
3.02987
2.99486
2.95911
2.92294
2.88549
2.84755
2.80901
2.76988
2.73017
2.68997
2.64916
2.60793
2.56629
3.68039
3.66499
3.64895
3.63225
3.61485
3.59669
3.57784
3.55826
3.53792
3.51689
3.49498
3.47228
3.4488
3.42451
3.39941
3.3735
3.34693
3.31929
3.29085
3.2616
3.23151
3.20059
3.16883
3.13627
3.10288
3.06835
3.03317
2.99718
2.96035
2.92267
2.88414
2.8448
2.80467
2.76373
2.72187
2.67914
2.63562
2.59136
2.54632
2.50057
2.45423
2.40693
2.35873
2.31001
2.26072
2.21082
2.16039
2.10941
2.05791
2.00587
3.55721
3.53749
3.51693
3.4955
3.47318
3.44997
3.42588
3.40087
3.37497
3.34824
3.32052
3.29192
3.26243
3.23207
3.20083
3.16872
3.13578
3.10193
3.06719
3.03161
2.99517
2.95786
2.91973
2.88078
2.84089
2.8
2.75833
2.71582
2.67237
2.62808
2.58289
2.53674
2.48966
2.44163
2.39269
2.34287
2.29212
2.24047
2.18796
2.13458
2.08029
2.02515
1.96919
1.9124
1.85492
1.7968
1.738
1.67863
1.61877
1.55851
3.44749
3.426
3.40364
3.38039
3.35624
3.3312
3.30523
3.2784
3.25066
3.22206
3.1926
3.16227
3.13111
3.09911
3.06628
3.03264
2.99811
2.96279
2.92666
2.8897
2.85188
2.81325
2.77376
2.7335
2.69215
2.65002
2.60699
2.563
2.51806
2.47218
2.42523
2.37733
2.32839
2.27843
2.22745
2.17538
2.12225
2.06808
2.01286
1.95661
1.89938
1.84129
1.78189
1.72173
1.66079
1.59886
1.53625
1.47295
1.40878
1.34437
3.36509
3.34539
3.32497
3.30378
3.28184
3.25902
3.23546
3.21114
3.18604
3.16019
3.13358
3.10624
3.07817
3.04938
3.01984
2.98953
2.95852
2.92683
2.89439
2.86121
2.8273
2.79269
2.75715
2.72087
2.68379
2.64577
2.60714
2.56747
2.52689
2.48546
2.443
2.39963
2.35539
2.31002
2.26357
2.21618
2.16777
2.11827
2.06786
2.01632
1.96382
1.91036
1.8559
1.80055
1.74431
1.68722
1.62927
1.57056
1.5113
1.45131
3.33232
3.318
3.30312
3.28767
3.27165
3.25485
3.23752
3.21955
3.20093
3.18166
3.16177
3.14122
3.12004
3.09826
3.07583
3.05287
3.02898
3.0047
2.97979
2.95424
2.92808
2.90149
2.87378
2.84579
2.81696
2.78751
2.75745
2.7263
2.69472
2.66232
2.62923
2.59542
2.56069
2.52527
2.48901
2.4519
2.41403
2.37517
2.3356
2.29519
2.25393
2.21188
2.1692
2.12555
2.0811
2.03598
1.99013
1.94362
1.8966
1.84942
3.35471
3.34913
3.34293
3.33613
3.32877
3.32067
3.31206
3.30283
3.29299
3.28253
3.27145
3.25984
3.24746
3.23458
3.22103
3.20711
3.19229
3.17709
3.16133
3.145
3.12814
3.11089
3.09266
3.0742
3.05514
3.03561
3.01556
2.99478
2.97361
2.95188
2.92961
2.90704
2.88346
2.85968
2.83517
2.81014
2.78463
2.75813
2.7314
2.70409
2.67622
2.64779
2.61882
2.5895
2.55898
2.52844
2.49738
2.46586
2.43396
2.40214
3.4581
3.46069
3.46271
3.46404
3.46477
3.46486
3.46426
3.46298
3.46102
3.4584
3.45514
3.45125
3.44671
3.44157
3.4358
3.42949
3.42256
3.41504
3.40698
3.39838
3.38926
3.37976
3.36946
3.35889
3.3478
3.33626
3.32435
3.31177
3.29893
3.28567
3.272
3.25797
3.24358
3.22876
3.21354
3.19795
3.18214
3.16556
3.14895
3.13199
3.1147
3.09707
3.07912
3.06111
3.04214
3.02331
3.00418
2.9848
2.96521
2.94533
3.67921
3.67751
3.67593
3.67586
3.67813
3.68165
3.68513
3.68812
3.69051
3.69228
3.69341
3.6939
3.69377
3.69304
3.69172
3.68983
3.68742
3.68436
3.68083
3.67679
3.67223
3.66725
3.66175
3.65577
3.64938
3.64251
3.63538
3.62762
3.61965
3.61132
3.60264
3.59364
3.58441
3.57463
3.56475
3.55452
3.54421
3.53357
3.52268
3.5116
3.50031
3.48883
3.47716
3.46533
3.45342
3.44127
3.42898
3.41659
3.40414
3.39154
3.84816
3.90403
3.92356
3.92599
3.9264
3.92654
3.92675
3.92825
3.93119
3.93463
3.93784
3.94056
3.9427
3.94423
3.94519
3.94558
3.94543
3.94476
3.94358
3.9419
3.93975
3.93712
3.93409
3.93053
3.92661
3.92228
3.91756
3.91249
3.90703
3.90124
3.89514
3.88871
3.88206
3.87502
3.86779
3.8603
3.85258
3.84469
3.83656
3.82828
3.81971
3.81106
3.80224
3.79333
3.78431
3.77516
3.76593
3.75665
3.74736
3.73798
6.42386
5.17029
4.51325
4.21518
4.1333
4.13673
4.14815
4.15202
4.15313
4.15457
4.15675
4.15961
4.16258
4.16524
4.16738
4.16898
4.17004
4.17059
4.17063
4.17019
4.16928
4.16792
4.16613
4.16395
4.16136
4.1584
4.15508
4.15141
4.14741
4.14309
4.13845
4.13353
4.12832
4.12288
4.11714
4.11119
4.10501
4.09863
4.09207
4.08524
4.0783
4.07119
4.06395
4.05656
4.04903
4.04142
4.03369
4.02589
4.01808
4.01015
22.7425
13.3745
8.13185
5.89945
5.01746
4.63668
4.45594
4.37283
4.34357
4.33903
4.33987
4.34123
4.34298
4.34523
4.3476
4.34972
4.3514
4.35257
4.35324
4.35341
4.35314
4.35246
4.35137
4.34992
4.34805
4.34585
4.34332
4.34047
4.33733
4.33391
4.33023
4.3263
4.32212
4.31772
4.31311
4.30827
4.30325
4.29804
4.29266
4.2871
4.28139
4.27553
4.26952
4.26339
4.25714
4.25075
4.24427
4.23769
4.23103
4.22432
75.3368
59.1832
30.1773
13.7774
7.22066
5.3485
4.84441
4.6634
4.5802
4.53416
4.50721
4.49386
4.48871
4.48775
4.48856
4.49014
4.49186
4.49336
4.4945
4.4952
4.49541
4.49515
4.49443
4.49333
4.49189
4.49012
4.48804
4.48567
4.48301
4.48007
4.47687
4.47344
4.46978
4.46593
4.46189
4.45768
4.45332
4.44882
4.44419
4.43943
4.43457
4.4296
4.42453
4.41938
4.41414
4.40882
4.40344
4.39798
4.39247
4.38689
86.5439
86.605
83.2159
65.8947
26.0703
8.98873
5.49759
4.81537
4.68737
4.65845
4.64351
4.63066
4.62021
4.61184
4.60652
4.60435
4.60455
4.60576
4.60709
4.60807
4.60857
4.60856
4.60801
4.60697
4.60546
4.60351
4.60122
4.59863
4.5958
4.59275
4.5895
4.58607
4.58245
4.57866
4.57471
4.57062
4.5664
4.56206
4.55763
4.55311
4.54852
4.54387
4.53917
4.53442
4.52964
4.52482
4.51999
4.51513
4.51026
4.50538
85.2113
85.1587
85.0468
80.669
65.4791
26.784
8.20023
5.27377
4.80825
4.72474
4.71703
4.72001
4.7226
4.71728
4.7083
4.70276
4.69901
4.69703
4.69668
4.6972
4.69774
4.69781
4.69728
4.69617
4.69455
4.69248
4.69002
4.68721
4.68408
4.68069
4.67707
4.67328
4.66934
4.66528
4.66111
4.65684
4.65247
4.64802
4.64348
4.63888
4.63422
4.62953
4.6248
4.62006
4.6153
4.61055
4.6058
4.60106
4.59634
4.59164
85.805
83.248
71.9219
45.2647
17.7127
6.62875
5.10887
4.86097
4.778
4.75095
4.74052
4.74799
4.7481
4.74825
4.75724
4.75934
4.74923
4.74318
4.74082
4.73976
4.7387
4.73783
4.73727
4.73664
4.73569
4.73439
4.73282
4.73101
4.729
4.72678
4.72435
4.72173
4.71891
4.71591
4.71274
4.70942
4.70596
4.70239
4.6987
4.6949
4.69101
4.68702
4.68295
4.67882
4.67462
4.67039
4.66611
4.66181
4.65749
4.65316
66.2787
49.2667
18.8467
5.79999
5.29882
4.83759
4.76958
4.75825
4.7536
4.75189
4.75141
4.75116
4.75074
4.75037
4.75009
4.74963
4.74897
4.75029
4.75311
4.75287
4.74419
4.74152
4.73971
4.73821
4.73715
4.73654
4.73622
4.73604
4.73594
4.73587
4.73576
4.73558
4.73526
4.73476
4.73404
4.73309
4.73191
4.7305
4.72886
4.72701
4.72496
4.72271
4.72029
4.7177
4.71495
4.71204
4.709
4.70583
4.70253
4.69913
3.41194
3.39687
3.38175
3.36649
3.35112
3.33566
3.32013
3.30454
3.28888
3.27317
3.2574
3.2416
3.22577
3.20992
3.19404
3.17817
3.16233
3.1474
3.13113
3.11516
3.09932
3.08355
3.06781
3.05213
3.0365
3.02094
3.00544
2.99003
2.97483
2.95997
2.94824
2.93249
2.91488
2.89995
2.88534
2.87087
2.85653
2.84233
2.82846
2.81514
2.80269
2.78869
2.7722
2.75832
2.74511
2.73254
2.71993
2.7075
2.69541
2.68351
2.67188
2.66048
2.64934
2.63844
2.62779
2.61742
2.60731
2.59747
2.5879
2.57863
2.56976
2.56088
2.55185
2.54368
2.53585
2.52832
2.52108
2.51415
2.50751
2.50116
2.49511
2.4894
2.4844
2.47931
2.47444
2.4699
2.46569
2.46172
2.45807
2.45469
2.45162
2.4488
2.44624
2.44402
2.44195
2.43993
2.43837
2.43718
2.43604
2.4351
2.43438
2.43389
2.43353
2.43334
2.43349
2.43361
2.43365
2.43399
2.43443
2.43496
2.43555
2.43621
2.43702
2.43779
2.43845
2.43928
2.44011
2.44084
2.44189
2.44276
2.44362
2.44456
2.44553
2.44655
2.44764
2.44897
2.45023
2.45179
2.45347
2.45546
2.45774
2.46041
2.46354
2.46716
2.47141
2.47635
2.48201
2.4886
2.49615
2.50475
2.51449
2.52562
2.5379
2.55167
2.567
2.58398
2.6027
2.62321
2.64557
2.66954
2.69495
2.72159
2.74928
2.77799
2.8075
2.8376
2.86828
2.89941
2.93083
2.96242
2.99396
3.02523
3.05614
3.08648
3.11609
3.14487
3.17271
3.19951
3.22516
3.24977
3.27329
3.29574
3.31718
3.3377
3.35737
3.37626
3.3944
3.41187
3.42856
3.44457
3.45981
3.47421
3.4877
3.50023
3.51177
3.52231
3.53186
3.54046
3.54813
3.55493
3.56089
3.56604
3.57043
3.57409
3.57704
3.57931
3.58093
3.58191
3.58227
3.58201
3.58113
3.5799
3.57818
3.57595
3.57321
3.56998
3.56625
3.56204
3.55735
3.5522
3.5466
3.54055
3.53406
3.52708
3.51963
3.51171
3.50333
3.4945
3.48521
3.47547
3.46527
3.45463
3.44354
3.432
3.42003
3.40762
3.39478
3.38152
3.36785
3.35377
3.33928
3.32442
3.30918
3.29359
3.27766
3.26142
3.24489
3.2281
3.21107
3.19382
3.1764
3.15884
3.14116
3.1234
3.10561
3.08782
3.07007
3.05239
3.03484
3.01744
3.00024
2.98328
2.96659
2.95022
2.93419
2.91854
2.90329
2.88849
2.87414
2.86027
2.8469
2.83404
2.82172
2.80995
2.79868
2.78792
2.77773
2.76818
2.75924
2.75082
2.74289
2.73545
2.72847
2.72193
2.71581
2.71007
2.70468
2.6996
2.69481
2.69027
2.68593
2.68177
2.67774
2.6738
2.66992
2.66604
2.66215
2.65819
2.65412
2.64991
2.64553
2.64094
2.63612
2.63102
2.62564
2.61994
2.61392
2.60755
2.60083
2.59376
2.58635
2.57862
2.57055
2.56212
2.55341
2.54468
2.53602
2.52683
2.51602
2.50433
3.34464
3.32831
3.31199
3.29548
3.27876
3.26187
3.24485
3.22771
3.21044
3.19306
3.1756
3.15808
3.14054
3.12296
3.10521
3.0874
3.06952
3.05156
3.03362
3.01572
2.99782
2.97992
2.96204
2.94419
2.92637
2.9086
2.89089
2.87328
2.85579
2.83962
2.82165
2.80419
2.78705
2.77009
2.75326
2.73658
2.72006
2.70389
2.68828
2.67371
2.6574
2.63725
2.62117
2.60592
2.59114
2.57658
2.56228
2.54826
2.53453
2.52111
2.50789
2.49504
2.48253
2.47035
2.45858
2.44704
2.43588
2.42509
2.41467
2.40463
2.39601
2.38629
2.37732
2.36885
2.36079
2.35315
2.34586
2.33904
2.33266
2.32669
2.32115
2.31613
2.31139
2.30676
2.30294
2.29958
2.29664
2.29415
2.29207
2.29042
2.28918
2.28836
2.28795
2.2883
2.28853
2.28933
2.29058
2.29217
2.29418
2.29742
2.29997
2.30305
2.30653
2.31033
2.31422
2.31877
2.32365
2.32857
2.33402
2.33979
2.34585
2.3522
2.35885
2.36595
2.37306
2.38055
2.38834
2.39637
2.40471
2.41327
2.42203
2.43123
2.44073
2.45054
2.46069
2.47124
2.48212
2.49334
2.50505
2.51718
2.52977
2.54292
2.55663
2.57084
2.58586
2.60137
2.61777
2.63489
2.65282
2.67166
2.69134
2.71193
2.73355
2.75611
2.7797
2.80429
2.8299
2.8565
2.88411
2.9126
2.94201
2.97229
3.00337
3.0352
3.06774
3.10084
3.13432
3.16806
3.20181
3.23534
3.26845
3.30113
3.33289
3.36376
3.39352
3.42205
3.44928
3.47509
3.49946
3.52246
3.54397
3.56411
3.58294
3.6005
3.61689
3.63221
3.64656
3.66002
3.67274
3.68457
3.69587
3.70632
3.71587
3.72447
3.73208
3.73868
3.7443
3.74894
3.75262
3.75558
3.75778
3.75923
3.75995
3.75998
3.75932
3.758
3.75605
3.75349
3.75035
3.74665
3.74243
3.73743
3.73183
3.72566
3.71894
3.71167
3.70386
3.69552
3.68664
3.67723
3.66729
3.65682
3.64583
3.6343
3.62224
3.60964
3.5965
3.58282
3.5686
3.55383
3.53852
3.52267
3.50628
3.48937
3.47193
3.45398
3.43554
3.41662
3.39724
3.37742
3.35719
3.33658
3.31561
3.29434
3.27279
3.251
3.22903
3.20692
3.18473
3.1625
3.1403
3.11818
3.0962
3.07443
3.05293
3.03175
3.01097
2.99063
2.97081
2.95155
2.93291
2.91493
2.89768
2.88118
2.86546
2.85058
2.83654
2.82337
2.81108
2.79967
2.78914
2.77948
2.77068
2.76269
2.75553
2.74925
2.7437
2.7389
2.73475
2.73128
2.72845
2.72622
2.72451
2.72329
2.72248
2.72204
2.7219
2.72202
2.72235
2.72282
2.72339
2.72401
2.72462
2.72518
2.72564
2.72595
2.72606
2.72591
2.72546
2.72465
2.72345
2.72179
2.71965
2.71698
2.71375
2.70994
2.70552
2.70049
2.69483
2.68855
2.68168
2.67423
2.66622
2.65765
2.64858
2.63931
2.63007
2.62031
2.60868
2.59557
3.0346
3.01725
2.99979
2.98212
2.96415
2.94601
2.92782
2.90944
2.89092
2.87224
2.85341
2.83444
2.81535
2.79613
2.7768
2.75735
2.73782
2.7182
2.69851
2.67876
2.65895
2.63911
2.61924
2.59935
2.57946
2.55961
2.53985
2.52015
2.50017
2.47998
2.46027
2.44074
2.42129
2.40196
2.38275
2.36372
2.34496
2.32652
2.30845
2.29069
2.27026
2.25252
2.23516
2.21808
2.20131
2.18487
2.16877
2.15303
2.13767
2.12271
2.10815
2.09403
2.08036
2.0672
2.0545
2.04182
2.03006
2.01878
2.00802
1.99782
1.98819
1.97891
1.9704
1.96245
1.95511
1.94843
1.9423
1.93647
1.93157
1.92732
1.92371
1.9208
1.91847
1.91681
1.91585
1.91556
1.91595
1.91708
1.91879
1.92097
1.92407
1.92786
1.93231
1.93744
1.94324
1.94972
1.95687
1.96467
1.97313
1.98268
1.99243
2.00236
2.01376
2.02535
2.03775
2.05065
2.06392
2.07803
2.09272
2.10798
2.12379
2.14109
2.15766
2.17516
2.19324
2.21186
2.23103
2.25072
2.27116
2.29183
2.31309
2.33494
2.35726
2.38011
2.40349
2.42735
2.4518
2.47676
2.50221
2.52829
2.55482
2.58177
2.60947
2.63774
2.66657
2.69597
2.72594
2.75648
2.78773
2.81937
2.85161
2.88443
2.91774
2.95154
2.98614
3.02067
3.05583
3.09132
3.1271
3.16311
3.19927
3.23547
3.27165
3.30774
3.34346
3.37892
3.41389
3.44826
3.4819
3.51468
3.54647
3.57719
3.60679
3.635
3.66192
3.6874
3.71137
3.7338
3.75462
3.77383
3.79152
3.80763
3.82229
3.83555
3.84748
3.85821
3.86783
3.87644
3.88421
3.89102
3.89693
3.90211
3.9065
3.91007
3.9128
3.91468
3.91576
3.91606
3.91564
3.91433
3.91226
3.90944
3.90592
3.9017
3.89685
3.89136
3.88525
3.87854
3.87123
3.86333
3.85486
3.8458
3.83615
3.82592
3.81509
3.80367
3.79164
3.77901
3.76577
3.7519
3.73741
3.72229
3.70654
3.69014
3.6731
3.6554
3.63705
3.61806
3.59841
3.57811
3.55718
3.53562
3.51345
3.49069
3.46736
3.44348
3.4191
3.39425
3.36896
3.34329
3.3173
3.29103
3.26455
3.23793
3.21124
3.18455
3.15795
3.13152
3.10534
3.0795
3.05409
3.0292
3.00491
2.98133
2.95852
2.93657
2.91555
2.89555
2.87662
2.85882
2.8422
2.8268
2.81265
2.79978
2.78818
2.77788
2.76885
2.76108
2.75452
2.74909
2.74473
2.74149
2.73939
2.73835
2.73828
2.73909
2.74067
2.74284
2.74556
2.74873
2.75227
2.75609
2.76012
2.76427
2.76849
2.7727
2.77685
2.78089
2.78477
2.78844
2.79187
2.79503
2.79789
2.8004
2.80255
2.80431
2.80565
2.80654
2.80694
2.80684
2.8062
2.805
2.80321
2.80082
2.7978
2.79415
2.78984
2.78488
2.77925
2.77294
2.76596
2.7583
2.74996
2.74089
2.7311
2.72073
2.70999
2.69863
2.68586
2.67214
2.53416
2.51172
2.48922
2.46656
2.44372
2.42058
2.39722
2.37366
2.34992
2.32591
2.30182
2.27769
2.25342
2.22904
2.20456
2.18
2.1554
2.13064
2.10588
2.0811
2.05631
2.03152
2.00674
1.982
1.95731
1.93269
1.90816
1.8838
1.85967
1.83571
1.81168
1.78756
1.76381
1.74042
1.71738
1.6946
1.67222
1.64993
1.62753
1.6059
1.58475
1.56403
1.54374
1.52391
1.50456
1.48567
1.46731
1.44948
1.43221
1.41551
1.3994
1.38391
1.36908
1.35496
1.34161
1.3294
1.31733
1.30586
1.29523
1.28548
1.27654
1.26843
1.26116
1.25476
1.24925
1.24464
1.2422
1.23889
1.23694
1.23605
1.23613
1.23718
1.23922
1.24226
1.24631
1.25138
1.25747
1.26458
1.2728
1.28253
1.29278
1.30387
1.31613
1.32949
1.34389
1.35932
1.37581
1.39351
1.41202
1.43152
1.45206
1.4736
1.49612
1.51968
1.54411
1.56951
1.59586
1.62313
1.65131
1.68037
1.71025
1.74116
1.77245
1.80437
1.83759
1.8716
1.90635
1.94183
1.97801
2.01486
2.05266
2.09064
2.12942
2.16879
2.20873
2.24921
2.2902
2.33168
2.3736
2.41594
2.45875
2.50198
2.54528
2.58915
2.63331
2.67772
2.72236
2.76717
2.81216
2.85729
2.90241
2.9476
2.99274
3.03769
3.08257
3.12724
3.17157
3.21558
3.25914
3.30216
3.34456
3.38624
3.42712
3.46723
3.50629
3.54426
3.58117
3.6167
3.65083
3.68365
3.7149
3.74455
3.77268
3.79903
3.82368
3.84659
3.86772
3.88706
3.90469
3.92068
3.93503
3.94786
3.95922
3.96916
3.97777
3.98515
3.99134
3.99644
4.0006
4.00372
4.00599
4.00743
4.00803
4.00782
4.00682
4.00505
4.00253
3.9993
3.99536
3.99074
3.98545
3.97951
3.97293
3.96571
3.95786
3.94937
3.94026
3.93052
3.92015
3.90915
3.8975
3.88521
3.87225
3.85863
3.84434
3.82935
3.81367
3.79727
3.78015
3.76231
3.74372
3.72438
3.70429
3.68344
3.66183
3.63947
3.61634
3.59248
3.56788
3.54258
3.51659
3.48994
3.46267
3.43482
3.40645
3.37762
3.34837
3.31879
3.28895
3.25894
3.22885
3.19877
3.1688
3.13906
3.10965
3.08069
3.05229
3.02458
2.99767
2.97167
2.9467
2.92288
2.90029
2.87905
2.85923
2.84092
2.82418
2.80908
2.79564
2.7839
2.77388
2.76557
2.75897
2.75399
2.75049
2.74886
2.74877
2.75012
2.75281
2.75674
2.76178
2.7677
2.77427
2.78136
2.78883
2.79653
2.80435
2.81215
2.81984
2.82729
2.83444
2.84121
2.84757
2.85346
2.85886
2.86376
2.86813
2.87199
2.87532
2.87814
2.88045
2.88226
2.88357
2.88439
2.88474
2.88459
2.88397
2.88286
2.88126
2.87916
2.87656
2.87344
2.8698
2.86563
2.86094
2.85572
2.84997
2.84368
2.83685
2.82948
2.82156
2.81308
2.80403
2.7944
2.78419
2.77343
2.76219
2.75046
2.73813
2.72541
1.96567
1.93748
1.90905
1.88044
1.8517
1.82269
1.79341
1.76398
1.73428
1.70436
1.67427
1.64414
1.61389
1.58351
1.55303
1.52249
1.49229
1.46132
1.43017
1.39936
1.36861
1.33788
1.30718
1.27654
1.24598
1.21553
1.18526
1.15522
1.12546
1.09569
1.06614
1.03687
1.00786
0.979098
0.950646
0.922679
0.895185
0.868121
0.841524
0.815433
0.79001
0.764961
0.740417
0.716621
0.6935
0.671096
0.649412
0.628492
0.608402
0.589183
0.57094
0.553392
0.536713
0.520931
0.506047
0.49204
0.479151
0.467354
0.456605
0.446933
0.438361
0.430912
0.424613
0.41949
0.415576
0.412902
0.411548
0.411444
0.412421
0.414082
0.417636
0.422652
0.429005
0.436671
0.445803
0.456192
0.467685
0.481179
0.495739
0.511913
0.529368
0.54762
0.567841
0.589745
0.61283
0.637357
0.663421
0.690494
0.719084
0.749065
0.780393
0.813055
0.847039
0.882316
0.918939
0.956776
0.995623
1.03593
1.07748
1.12016
1.16396
1.20918
1.25503
1.30146
1.34953
1.39861
1.4486
1.49949
1.55122
1.60374
1.65705
1.71104
1.76549
1.8207
1.87646
1.93272
1.98938
2.04642
2.10381
2.16147
2.21911
2.27712
2.33522
2.39333
2.45135
2.50934
2.56717
2.62468
2.68201
2.73897
2.79551
2.85153
2.90702
2.96187
3.01599
3.06935
3.12184
3.17338
3.22388
3.27325
3.32143
3.36839
3.414
3.45808
3.50077
3.54189
3.58132
3.61905
3.65508
3.68921
3.72156
3.75202
3.78056
3.80718
3.83191
3.85473
3.87569
3.89481
3.91214
3.92773
3.94166
3.954
3.96481
3.97416
3.98212
3.98874
3.99409
3.99825
4.00124
4.00319
4.00414
4.00416
4.00331
4.00164
3.9992
3.99601
3.9921
3.9875
3.98221
3.97626
3.96965
3.96238
3.95445
3.94585
3.93657
3.92663
3.91599
3.90467
3.89265
3.87992
3.86645
3.85225
3.83729
3.82156
3.80504
3.78772
3.76959
3.75063
3.73083
3.71019
3.6887
3.66635
3.64315
3.6191
3.59421
3.56849
3.54198
3.51469
3.48667
3.45795
3.42858
3.39863
3.36816
3.33725
3.30598
3.27444
3.24274
3.21099
3.17929
3.14778
3.11658
3.08583
3.05566
3.02622
2.99764
2.97007
2.94365
2.91851
2.89478
2.87259
2.85204
2.83325
2.8163
2.80127
2.78823
2.77721
2.76825
2.76137
2.75655
2.75374
2.75288
2.75394
2.75679
2.76135
2.76747
2.77455
2.78272
2.79176
2.80148
2.81166
2.8221
2.8326
2.84296
2.85304
2.8627
2.87182
2.88033
2.88816
2.89529
2.90166
2.90727
2.9121
2.91618
2.91953
2.92218
2.92418
2.92557
2.92639
2.9267
2.92653
2.92594
2.92494
2.92357
2.92187
2.91984
2.91751
2.91489
2.91198
2.90878
2.9053
2.90152
2.89745
2.89308
2.88841
2.88342
2.87812
2.8725
2.86656
2.8603
2.85371
2.84679
2.83952
2.83188
2.82386
2.81542
2.80653
2.79721
2.78749
2.77751
2.76703
1.5119
1.47903
1.44583
1.41234
1.37865
1.34465
1.3104
1.27597
1.24136
1.20655
1.17154
1.13636
1.10103
1.06556
1.03
0.99447
0.958808
0.922995
0.886538
0.850582
0.814753
0.779004
0.743323
0.70774
0.672315
0.637155
0.602198
0.567351
0.531908
0.497522
0.46358
0.429964
0.396764
0.365313
0.332626
0.300654
0.269307
0.238608
0.208514
0.179158
0.150456
0.122349
0.0946006
0.0679616
0.0422428
0.0174172
-0.00652215
-0.029517
-0.051437
-0.0719765
-0.0922607
-0.111419
-0.129344
-0.146071
-0.161672
-0.176064
-0.189124
-0.201089
-0.212371
-0.221898
-0.229981
-0.237039
-0.242393
-0.246536
-0.249848
-0.251248
-0.251092
-0.24947
-0.246384
-0.241778
-0.23556
-0.227953
-0.219319
-0.208644
-0.196266
-0.182317
-0.166798
-0.14956
-0.130615
-0.110203
-0.0882815
-0.0646724
-0.0393828
-0.0125519
0.0160291
0.0462416
0.0778017
0.111067
0.146123
0.18263
0.220685
0.260369
0.301483
0.343871
0.387962
0.433591
0.480687
0.529171
0.579102
0.630606
0.683172
0.736906
0.792023
0.848403
0.905816
0.964467
1.02417
1.0846
1.1462
1.20869
1.272
1.33606
1.40084
1.46627
1.532
1.59874
1.66522
1.73256
1.79984
1.86725
1.93477
2.00228
2.06967
2.13692
2.20398
2.27049
2.33686
2.40264
2.46785
2.53254
2.5964
2.65943
2.72166
2.78286
2.84316
2.90213
2.95996
3.01662
3.07182
3.1256
3.17799
3.22878
3.27794
3.32543
3.37117
3.4151
3.45719
3.4974
3.53569
3.57204
3.60642
3.63879
3.66915
3.69752
3.7239
3.74831
3.7708
3.7914
3.81016
3.82715
3.84242
3.85604
3.86803
3.87846
3.88738
3.89484
3.90093