/*--------------------------------*- C++ -*----------------------------------*\
| =========                 |                                                 |
| \\      /  F ield         | OpenFOAM: The Open Source CFD Toolbox           |
|  \\    /   O peration     | Version:  2.4.0                                 |
|   \\  /    A nd           | Web:      www.OpenFOAM.org                      |
|    \\/     M anipulation  |                                                 |
\*---------------------------------------------------------------------------*/
FoamFile
{
    version     2.0;
    format      ascii;
    class       surfaceScalarField;
    location    "4";
    object      phi;
}
// * * * * * * * * * * * * * * * * * * * * * * * * * * * * * * * * * * * * * //

dimensions      [0 3 -1 0 0 0 0];

internalField   nonuniform List<scalar> 
15580
(
-2.6933e-13
-3.64291e-13
-7.26304e-13
-1.74074e-12
-1.06769e-12
-3.58637e-12
-1.07051e-12
-5.64275e-12
-5.50048e-13
-7.80773e-12
6.70838e-13
-1.01194e-11
2.76917e-12
-1.26059e-11
5.92648e-12
-1.52763e-11
1.03456e-11
-1.81488e-11
1.6265e-11
-2.12476e-11
2.39277e-11
-2.4567e-11
3.35229e-11
-2.80439e-11
4.54589e-11
-3.19009e-11
5.86181e-11
-3.46102e-11
7.33621e-11
-3.76459e-11
8.85514e-11
-4.01197e-11
9.95525e-11
-4.33746e-11
1.04702e-10
-5.15309e-11
1.00723e-10
-6.27027e-11
1.00568e-10
-5.27117e-11
1.04678e-10
-3.41788e-11
1.10432e-10
-3.75685e-11
1.37607e-10
-6.20241e-11
1.8124e-10
-8.46086e-11
2.3573e-10
-1.05317e-10
3.12125e-10
-1.25755e-10
4.04676e-10
-1.3376e-10
4.80633e-10
-1.07285e-10
5.11392e-10
-5.54979e-11
5.13753e-10
-3.44148e-11
5.13123e-10
-5.70772e-11
5.25297e-10
-1.10136e-10
5.60222e-10
-1.75537e-10
6.66197e-10
-2.47969e-10
8.91691e-10
-3.22321e-10
1.16513e-09
-3.64333e-10
1.44596e-09
-4.12302e-10
1.74224e-09
-4.90737e-10
2.07097e-09
-5.85447e-10
2.42256e-09
-6.90411e-10
2.75046e-09
-7.96161e-10
2.99924e-09
-8.89017e-10
3.1321e-09
-9.60827e-10
3.15775e-09
-1.01076e-09
3.1147e-09
-1.04291e-09
3.0425e-09
-1.06281e-09
2.96817e-09
-1.07531e-09
2.90549e-09
-1.08368e-09
2.85951e-09
-1.08959e-09
-1.09364e-09
2.83157e-09
7.49263e-13
-1.11355e-12
2.81168e-12
-3.80315e-12
6.09941e-12
-6.87409e-12
1.06321e-11
-1.01754e-11
1.64565e-11
-1.36322e-11
2.35793e-11
-1.72422e-11
3.20122e-11
-2.10388e-11
4.17574e-11
-2.50214e-11
5.29809e-11
-2.93723e-11
6.60298e-11
-3.42966e-11
8.01622e-11
-3.86994e-11
9.59871e-11
-4.38688e-11
9.81919e-11
-4.8874e-11
8.41897e-11
-7.14101e-11
5.33942e-11
-6.86425e-11
3.89965e-11
-2.86588e-11
8.64446e-11
-9.13877e-11
1.69612e-10
-1.34982e-10
2.64458e-10
-1.57638e-10
3.43593e-10
-1.31846e-10
3.72155e-10
-6.2741e-11
3.92822e-10
-5.82354e-11
4.30469e-10
-9.96719e-11
4.90787e-10
-1.44926e-10
5.81974e-10
-1.96504e-10
7.17374e-10
-2.61155e-10
9.19465e-10
-3.35851e-10
1.22578e-09
-4.13604e-10
1.6582e-09
-4.87917e-10
2.16912e-09
-5.45335e-10
2.71718e-09
-6.05132e-10
3.28404e-09
-6.76995e-10
3.86906e-09
-7.60563e-10
4.4713e-09
-8.50207e-10
5.08916e-09
-9.40182e-10
5.74962e-09
-1.0248e-09
6.43929e-09
-1.10196e-09
7.1238e-09
-1.17525e-09
7.78415e-09
-1.2458e-09
8.40563e-09
-1.3119e-09
8.97728e-09
-1.36781e-09
9.5025e-09
-1.41424e-09
9.99384e-09
-1.45217e-09
1.04664e-08
-1.48331e-09
1.0932e-08
-1.50856e-09
1.13979e-08
-1.52867e-09
1.18669e-08
-1.54431e-09
1.23394e-08
-1.55617e-09
1.28146e-08
-1.56478e-09
-1.57055e-09
1.32915e-08
1.94935e-12
-3.06291e-12
7.00968e-12
-8.86348e-12
1.47227e-11
-1.45871e-11
2.48999e-11
-2.03526e-11
3.7434e-11
-2.61663e-11
5.22746e-11
-3.20828e-11
6.73943e-11
-3.61585e-11
8.23663e-11
-3.99935e-11
9.36064e-11
-4.2391e-11
6.44892e-11
-4.52808e-11
3.13021e-11
-1.54506e-10
-1.80452e-11
-9.91835e-12
8.32832e-11
-1.56792e-10
3.70309e-10
-3.58654e-10
4.63422e-10
-1.61767e-10
4.5238e-10
-1.76161e-11
4.89773e-10
-1.28781e-10
5.86648e-10
-2.31857e-10
7.61521e-10
-3.3251e-10
1.06755e-09
-4.37875e-10
1.55102e-09
-5.46213e-10
2.11572e-09
-6.22932e-10
2.72116e-09
-7.05109e-10
3.37711e-09
-8.00885e-10
4.07621e-09
-8.95598e-10
4.80648e-09
-9.91423e-10
5.56234e-09
-1.09171e-09
6.34236e-09
-1.19363e-09
7.14513e-09
-1.29068e-09
7.97715e-09
-1.37735e-09
8.82371e-09
-1.4517e-09
9.66144e-09
-1.51472e-09
1.04698e-08
-1.56894e-09
1.12361e-08
-1.61648e-09
1.1955e-08
-1.65909e-09
1.26294e-08
-1.69917e-09
1.32636e-08
-1.73615e-09
1.38584e-08
-1.77008e-09
1.44136e-08
-1.80099e-09
1.49315e-08
-1.82985e-09
1.54207e-08
-1.857e-09
1.58887e-08
-1.8822e-09
1.63424e-08
-1.90593e-09
1.67877e-08
-1.92861e-09
1.72298e-08
-1.95061e-09
1.7673e-08
-1.97188e-09
1.81212e-08
-1.99248e-09
1.85775e-08
-2.01253e-09
1.90447e-08
-2.03194e-09
-2.05067e-09
1.95248e-08
-2.21322e-14
-3.04078e-12
4.98708e-13
-9.38432e-12
1.70902e-12
-1.57975e-11
3.59921e-12
-2.22428e-11
6.05051e-12
-2.86176e-11
8.92359e-12
-3.49559e-11
-5.21179e-12
-5.07732e-11
-4.51561e-11
-4.5098e-11
-1.54974e-10
1.47376e-11
-1.13437e-10
-8.73105e-11
-4.78563e-10
2.10594e-10
-2.84511e-10
-2.04008e-10
-1.3446e-10
-3.06844e-10
-5.89277e-12
-4.87221e-10
4.41504e-10
-6.09164e-10
1.12242e-09
-6.98537e-10
1.77817e-09
-7.84528e-10
2.46556e-09
-9.19251e-10
3.17941e-09
-1.04635e-09
3.90807e-09
-1.16654e-09
4.64242e-09
-1.28056e-09
5.40211e-09
-1.38261e-09
6.16631e-09
-1.46931e-09
6.90732e-09
-1.5419e-09
7.61562e-09
-1.6039e-09
8.28286e-09
-1.65866e-09
8.89972e-09
-1.70857e-09
9.4613e-09
-1.75522e-09
9.97021e-09
-1.79958e-09
1.04351e-08
-1.84229e-09
1.08671e-08
-1.8837e-09
1.12765e-08
-1.92407e-09
1.16713e-08
-1.96374e-09
1.20577e-08
-2.00287e-09
1.24402e-08
-2.04162e-09
1.28211e-08
-2.08002e-09
1.3203e-08
-2.1181e-09
1.35889e-08
-2.15594e-09
1.39814e-08
-2.19348e-09
1.43822e-08
-2.23066e-09
1.47927e-08
-2.26751e-09
1.52144e-08
-2.30396e-09
1.56486e-08
-2.34007e-09
1.60959e-08
-2.37589e-09
1.65567e-08
-2.41149e-09
1.70318e-08
-2.44694e-09
1.75216e-08
-2.48228e-09
1.80266e-08
-2.51753e-09
1.85473e-08
-2.55267e-09
-2.58762e-09
1.90843e-08
-5.69729e-13
-2.47105e-12
-3.05885e-12
-6.89519e-12
-7.95458e-12
-1.09017e-11
-1.5649e-11
-1.45484e-11
-2.63849e-11
-1.81448e-11
-1.41795e-10
-2.23733e-11
-2.78994e-10
2.43495e-11
-3.55844e-10
3.13099e-11
-7.52557e-10
4.1145e-10
-1.11444e-09
2.74568e-10
-1.04554e-09
1.41704e-10
-1.00319e-09
-2.46365e-10
-7.03298e-10
-6.06733e-10
-3.19741e-10
-8.70778e-10
1.41077e-10
-1.06998e-09
6.61753e-10
-1.21921e-09
1.20377e-09
-1.32654e-09
1.69024e-09
-1.40572e-09
2.11232e-09
-1.46844e-09
2.46821e-09
-1.52244e-09
2.75987e-09
-1.57222e-09
2.99787e-09
-1.62061e-09
3.19832e-09
-1.66976e-09
3.37766e-09
-1.72124e-09
3.54993e-09
-1.77617e-09
3.72634e-09
-1.83507e-09
3.91599e-09
-1.89822e-09
4.1261e-09
-1.96533e-09
4.3621e-09
-2.03558e-09
4.62791e-09
-2.1081e-09
4.92607e-09
-2.18186e-09
5.25753e-09
-2.25553e-09
5.62163e-09
-2.32783e-09
6.01671e-09
-2.39796e-09
6.44028e-09
-2.46519e-09
6.88927e-09
-2.52901e-09
7.36013e-09
-2.58897e-09
7.84908e-09
-2.64488e-09
8.3522e-09
-2.6966e-09
8.86565e-09
-2.74411e-09
9.38589e-09
-2.78774e-09
9.91021e-09
-2.82829e-09
1.04369e-08
-2.86675e-09
1.09652e-08
-2.90419e-09
1.14953e-08
-2.94158e-09
1.2028e-08
-2.97962e-09
1.25645e-08
-3.0188e-09
1.31064e-08
-3.05938e-09
1.36551e-08
-3.10139e-09
-3.14464e-09
1.42121e-08
-1.17363e-12
-1.29742e-12
-4.60848e-12
-3.46034e-12
-1.03152e-11
-5.19502e-12
-1.85661e-11
-6.53897e-12
-2.51971e-10
-7.4665e-12
-2.67923e-10
-7.1396e-12
-5.22222e-10
2.78648e-10
-7.00549e-10
2.09637e-10
-5.78233e-10
2.89134e-10
-5.01012e-10
1.97348e-10
-2.2805e-10
-1.31259e-10
-5.58082e-11
-4.18607e-10
-2.11071e-11
-6.41434e-10
-8.8014e-11
-8.03871e-10
-2.38715e-10
-9.19281e-10
-4.53602e-10
-1.00433e-09
-7.06458e-10
-1.07369e-09
-9.74489e-10
-1.13769e-09
-1.24035e-09
-1.20258e-09
-1.49109e-09
-1.2717e-09
-1.7167e-09
-1.34661e-09
-1.90926e-09
-1.42805e-09
-2.06278e-09
-1.51624e-09
-2.17301e-09
-1.61101e-09
-2.23695e-09
-1.71223e-09
-2.25226e-09
-1.81976e-09
-2.21753e-09
-1.93296e-09
-2.13215e-09
-2.0507e-09
-1.99626e-09
-2.17147e-09
-1.81086e-09
-2.29349e-09
-1.57806e-09
-2.41466e-09
-1.30112e-09
-2.53248e-09
-9.84188e-10
-2.64476e-09
-6.32467e-10
-2.74968e-09
-2.51692e-10
-2.84596e-09
1.52241e-10
-2.93294e-09
5.73661e-10
-3.01039e-09
1.00703e-09
-3.07825e-09
1.44692e-09
-3.1365e-09
1.88826e-09
-3.18545e-09
2.32678e-09
-3.22626e-09
2.75955e-09
-3.26106e-09
3.18539e-09
-3.29259e-09
3.60483e-09
-3.32363e-09
4.01959e-09
-3.35634e-09
4.43196e-09
-3.39199e-09
4.84434e-09
-3.43119e-09
5.25909e-09
-3.47413e-09
5.6783e-09
-3.52059e-09
-3.56986e-09
6.10352e-09
-7.32527e-13
-5.64898e-13
-2.68583e-12
-1.50704e-12
-5.63566e-12
-2.24518e-12
-1.04653e-11
-2.75032e-12
-2.03456e-10
-3.01027e-12
-2.07394e-10
-3.20139e-12
-4.33563e-11
1.1461e-10
8.12171e-11
8.50638e-11
3.33575e-10
3.67762e-11
5.84314e-10
-5.33908e-11
5.94169e-10
-1.41114e-10
3.90164e-10
-2.14602e-10
2.40528e-11
-2.75323e-10
-4.5125e-10
-3.28568e-10
-9.90043e-10
-3.80489e-10
-1.55793e-09
-4.36439e-10
-2.13213e-09
-4.99487e-10
-2.69896e-09
-5.70862e-10
-3.25064e-09
-6.50894e-10
-3.78259e-09
-7.39746e-10
-4.29168e-09
-8.3752e-10
-4.7755e-09
-9.4423e-10
-5.23179e-09
-1.05994e-09
-5.65813e-09
-1.18467e-09
-6.05172e-09
-1.31864e-09
-6.40952e-09
-1.46196e-09
-6.72873e-09
-1.61375e-09
-7.00691e-09
-1.77252e-09
-7.24153e-09
-1.93685e-09
-7.43019e-09
-2.10483e-09
-7.57072e-09
-2.27412e-09
-7.66102e-09
-2.44218e-09
-7.69969e-09
-2.6061e-09
-7.68672e-09
-2.76266e-09
-7.6238e-09
-2.90888e-09
-7.51407e-09
-3.04267e-09
-7.36146e-09
-3.16299e-09
-7.17043e-09
-3.26928e-09
-6.94602e-09
-3.36091e-09
-6.69414e-09
-3.43733e-09
-6.42165e-09
-3.49875e-09
-6.13589e-09
-3.54683e-09
-5.84361e-09
-3.58487e-09
-5.54988e-09
-3.61735e-09
-5.25765e-09
-3.64858e-09
-4.96844e-09
-3.6812e-09
-4.68337e-09
-3.71625e-09
-4.40309e-09
-3.75441e-09
-4.12746e-09
-3.79622e-09
-3.84143e-09
-3.85589e-09
-7.65306e-13
2.00407e-13
-2.77446e-12
5.02116e-13
-5.65844e-12
6.38804e-13
-9.42891e-12
5.99194e-13
-2.03541e-10
3.70032e-13
-2.05742e-10
-1.00096e-12
1.31694e-10
-2.22825e-10
3.28567e-10
-1.1181e-10
4.6598e-10
-1.00636e-10
4.97579e-10
-8.49903e-11
3.94308e-10
-3.78433e-11
1.95515e-10
-1.58093e-11
-7.9166e-11
-6.41205e-13
-4.11144e-10
3.40958e-12
-7.84949e-10
-6.6831e-12
-1.19419e-09
-2.71935e-11
-1.63698e-09
-5.67039e-11
-2.12058e-09
-8.7258e-11
-2.65452e-09
-1.16957e-10
-3.24345e-09
-1.50815e-10
-3.88389e-09
-1.97078e-10
-4.56573e-09
-2.62394e-10
-5.27541e-09
-3.5026e-10
-5.9997e-09
-4.60391e-10
-6.72746e-09
-5.90877e-10
-7.45031e-09
-7.39108e-10
-8.16362e-09
-9.00443e-10
-8.86502e-09
-1.07112e-09
-9.55335e-09
-1.24852e-09
-1.02271e-08
-1.43108e-09
-1.08821e-08
-1.61914e-09
-1.15104e-08
-1.81386e-09
-1.21008e-08
-2.01571e-09
-1.26396e-08
-2.22384e-09
-1.31128e-08
-2.43567e-09
-1.35089e-08
-2.64663e-09
-1.38215e-08
-2.8503e-09
-1.40506e-08
-3.04021e-09
-1.41993e-08
-3.2122e-09
-1.42721e-08
-3.36451e-09
-1.42751e-08
-3.49579e-09
-1.42175e-08
-3.60441e-09
-1.41128e-08
-3.68958e-09
-1.39766e-08
-3.75359e-09
-1.38228e-08
-3.80236e-09
-1.36625e-08
-3.84147e-09
-1.35052e-08
-3.87358e-09
-1.33587e-08
-3.90091e-09
-1.32283e-08
-3.92663e-09
-3.95384e-09
-1.31159e-08
-7.2942e-15
2.07701e-13
5.19114e-13
-2.42928e-14
1.64261e-12
-4.84694e-13
3.24539e-12
-9.99042e-13
-1.91272e-10
-1.29696e-12
-1.92272e-10
-8.67911e-16
-3.26028e-10
-8.90694e-11
-3.45362e-10
-9.24758e-11
-3.44434e-10
-1.01564e-10
-3.66206e-10
-6.32188e-11
-3.24864e-10
-7.91855e-11
-2.85619e-10
-5.50538e-11
-2.30193e-10
-5.60675e-11
-1.91932e-10
-3.48517e-11
-1.69941e-10
-2.86737e-11
-1.7476e-10
-2.23743e-11
-2.09758e-10
-2.17067e-11
-2.84424e-10
-1.25912e-11
-4.06192e-10
4.81077e-12
-5.79008e-10
2.20016e-11
-8.08627e-10
3.25408e-11
-1.10064e-09
2.96226e-11
-1.46122e-09
1.03115e-11
-1.89545e-09
-2.61561e-11
-2.4075e-09
-7.88289e-11
-3.00117e-09
-1.45438e-10
-3.67952e-09
-2.22093e-10
-4.44493e-09
-3.05701e-10
-5.2996e-09
-3.93855e-10
-6.24481e-09
-4.85876e-10
-7.28134e-09
-5.82607e-10
-8.40619e-09
-6.89007e-10
-9.60629e-09
-8.15614e-10
-1.08513e-08
-9.78836e-10
-1.20913e-08
-1.19566e-09
-1.32686e-08
-1.46932e-09
-1.43445e-08
-1.77443e-09
-1.53124e-08
-2.0723e-09
-1.61828e-08
-2.34186e-09
-1.69617e-08
-2.58551e-09
-1.76442e-08
-2.81331e-09
-1.82177e-08
-3.03097e-09
-1.86691e-08
-3.23814e-09
-1.89951e-08
-3.42756e-09
-1.92119e-08
-3.58558e-09
-1.935e-08
-3.70338e-09
-1.94366e-08
-3.78698e-09
-1.94924e-08
-3.84507e-09
-1.95361e-08
-3.88295e-09
-3.90682e-09
-1.95831e-08
3.15662e-12
-2.94892e-12
1.0518e-11
-7.38563e-12
2.08208e-11
-1.07875e-11
3.3248e-11
-1.34262e-11
4.73128e-11
-1.53407e-11
-8.091e-11
-1.72849e-11
-1.66291e-10
-6.82011e-12
-2.47158e-10
-1.41356e-11
-3.29819e-10
-1.89026e-11
-3.59451e-10
-3.35865e-11
-3.86245e-10
-5.23916e-11
-3.92734e-10
-4.85645e-11
-3.9612e-10
-5.26814e-11
-3.7791e-10
-5.30624e-11
-3.52038e-10
-5.45454e-11
-3.20296e-10
-5.41165e-11
-2.89538e-10
-5.24642e-11
-2.52103e-10
-5.00264e-11
-1.97875e-10
-4.94168e-11
-1.26913e-10
-4.89607e-11
-4.55748e-11
-4.87975e-11
3.24684e-11
-4.84206e-11
9.05944e-11
-4.78145e-11
1.11774e-10
-4.7336e-11
7.9937e-11
-4.69916e-11
-1.89338e-11
-4.65675e-11
-1.93324e-10
-4.77031e-11
-4.47988e-10
-5.10375e-11
-7.86513e-10
-5.53296e-11
-1.2144e-09
-5.79899e-11
-1.73718e-09
-5.98304e-11
-2.36259e-09
-6.35892e-11
-3.10238e-09
-7.58329e-11
-3.96855e-09
-1.12661e-10
-4.96718e-09
-1.97027e-10
-6.09584e-09
-3.4066e-10
-7.34435e-09
-5.25914e-10
-8.69988e-09
-7.16772e-10
-1.01503e-08
-8.91436e-10
-1.16828e-08
-1.05302e-09
-1.32762e-08
-1.21985e-09
-1.48814e-08
-1.42587e-09
-1.63969e-08
-1.72257e-09
-1.76914e-08
-2.13312e-09
-1.872e-08
-2.55691e-09
-1.95529e-08
-2.87048e-09
-2.02512e-08
-3.08873e-09
-2.08317e-08
-3.26453e-09
-2.12966e-08
-3.41811e-09
-3.5444e-09
-2.1659e-08
3.37416e-13
-3.28633e-12
2.2397e-12
-9.28792e-12
6.08883e-12
-1.46367e-11
1.199e-11
-1.93274e-11
1.99968e-11
-2.33475e-11
2.9275e-11
-2.65842e-11
5.39431e-11
-3.03526e-11
7.23333e-11
-3.41024e-11
1.69347e-12
-3.94178e-11
-2.43021e-12
-4.43387e-11
-1.85059e-11
-4.82122e-11
-2.61888e-11
-4.98782e-11
-3.45976e-11
-5.08002e-11
-4.13369e-11
-5.07932e-11
-4.91865e-11
-4.94783e-11
-6.0048e-11
-4.46012e-11
-7.03259e-11
-4.24371e-11
-7.41957e-11
-4.61566e-11
-7.44187e-11
-4.91938e-11
-7.32897e-11
-5.00897e-11
-7.12597e-11
-5.08276e-11
-6.82338e-11
-5.14465e-11
-6.40563e-11
-5.1992e-11
-5.93035e-11
-5.20888e-11
-5.461e-11
-5.16851e-11
-4.97035e-11
-5.1474e-11
-4.60557e-11
-5.13509e-11
-4.66589e-11
-5.04343e-11
-5.31905e-11
-4.87981e-11
-6.29285e-11
-4.82518e-11
-7.36222e-11
-4.91366e-11
-8.67726e-11
-5.04388e-11
-1.10399e-10
-5.22069e-11
-1.67999e-10
-5.50609e-11
-3.05566e-10
-5.94604e-11
-5.79669e-10
-6.65568e-11
-1.02734e-09
-7.82403e-11
-1.65061e-09
-9.35039e-11
-2.43473e-09
-1.07313e-10
-3.36972e-09
-1.18028e-10
-4.45666e-09
-1.32918e-10
-5.70822e-09
-1.74312e-10
-7.12603e-09
-3.04754e-10
-8.67667e-09
-5.8248e-10
-1.03113e-08
-9.22287e-10
-1.19932e-08
-1.18856e-09
-1.36809e-08
-1.40103e-09
-1.53147e-08
-1.63078e-09
-1.67767e-08
-1.95604e-09
-2.37725e-09
-1.79439e-08
-7.48878e-13
-2.53744e-12
-2.5654e-12
-7.4714e-12
-4.98366e-12
-1.22184e-11
-7.55023e-12
-1.67608e-11
-9.78864e-12
-2.11091e-11
-1.10932e-11
-2.52796e-11
-1.21476e-11
-2.92983e-11
-1.30862e-11
-3.31637e-11
-1.57787e-11
-3.67253e-11
-2.0198e-11
-3.99194e-11
-2.59299e-11
-4.24804e-11
-3.12962e-11
-4.45119e-11
-3.61582e-11
-4.59399e-11
-3.99938e-11
-4.69417e-11
-4.18901e-11
-4.74721e-11
-3.84536e-11
-4.80465e-11
-2.54432e-11
-4.88883e-11
-3.37813e-11
-5.01835e-11
-4.03643e-11
-5.16206e-11
-4.55301e-11
-5.27663e-11
-4.94827e-11
-5.35786e-11
-5.24102e-11
-5.41301e-11
-5.46015e-11
-5.43734e-11
-5.60723e-11
-5.42141e-11
-5.68399e-11
-5.36123e-11
-5.76358e-11
-5.25609e-11
-5.95923e-11
-5.05577e-11
-6.28607e-11
-4.77197e-11
-6.42598e-11
-4.74074e-11
-6.36244e-11
-4.88873e-11
-6.31614e-11
-4.95995e-11
-6.39041e-11
-4.96962e-11
-6.61093e-11
-5.00018e-11
-7.10181e-11
-5.01521e-11
-8.01646e-11
-5.03138e-11
-9.57437e-11
-5.09778e-11
-1.22022e-10
-5.19624e-11
-1.62095e-10
-5.34308e-11
-2.14129e-10
-5.52792e-11
-2.74626e-10
-5.75305e-11
-3.46911e-10
-6.06324e-11
-4.55945e-10
-6.52784e-11
-6.86266e-10
-7.44324e-11
-1.17398e-09
-9.47624e-11
-1.96589e-09
-1.30382e-10
-2.98461e-09
-1.69838e-10
-4.19311e-09
-1.92531e-10
-5.57341e-09
-2.50474e-10
-7.0895e-09
-4.39951e-10
-7.78949e-10
-8.6878e-09
-3.92194e-13
-2.14525e-12
-1.58655e-12
-6.27705e-12
-3.55934e-12
-1.02456e-11
-6.2791e-12
-1.4041e-11
-9.73179e-12
-1.76564e-11
-1.39209e-11
-2.10906e-11
-1.88763e-11
-2.43429e-11
-2.46257e-11
-2.74143e-11
-3.105e-11
-3.0301e-11
-3.79699e-11
-3.29995e-11
-4.49447e-11
-3.55057e-11
-5.16363e-11
-3.78203e-11
-5.76274e-11
-3.99488e-11
-6.26676e-11
-4.19015e-11
-6.64475e-11
-4.36922e-11
-6.91537e-11
-4.53404e-11
-7.11732e-11
-4.68687e-11
-7.31087e-11
-4.8248e-11
-7.52545e-11
-4.94749e-11
-7.75096e-11
-5.05112e-11
-7.9747e-11
-5.13413e-11
-8.19115e-11
-5.19656e-11
-8.39146e-11
-5.23704e-11
-8.55844e-11
-5.25443e-11
-8.67224e-11
-5.24744e-11
-8.71408e-11
-5.21426e-11
-8.60549e-11
-5.16499e-11
-8.26071e-11
-5.13115e-11
-8.75148e-11
-5.11772e-11
-8.85971e-11
-5.12479e-11
-8.96713e-11
-5.13129e-11
-9.03846e-11
-5.11845e-11
-9.12056e-11
-5.08549e-11
-9.22395e-11
-5.03238e-11
-9.39053e-11
-4.94344e-11
-9.74113e-11
-4.78673e-11
-1.01001e-10
-4.83778e-11
-1.04672e-10
-4.97594e-11
-1.10035e-10
-4.99165e-11
-1.18538e-10
-4.90273e-11
-1.30257e-10
-4.89136e-11
-1.46196e-10
-4.93395e-11
-1.7041e-10
-5.02177e-11
-2.13667e-10
-5.15055e-11
-2.90898e-10
-5.3151e-11
-4.05261e-10
-5.54749e-11
-5.38099e-10
-5.96934e-11
-7.20541e-10
-6.80321e-11
-1.077e-09
-8.34905e-11
-1.1048e-10
-1.74547e-09
-1.97059e-13
-1.94819e-12
-7.92525e-13
-5.68158e-12
-1.77771e-12
-9.26043e-12
-3.13476e-12
-1.2684e-11
-4.84225e-12
-1.59489e-11
-6.87796e-12
-1.90549e-11
-9.21879e-12
-2.20021e-11
-1.18418e-11
-2.47913e-11
-1.47195e-11
-2.74233e-11
-1.78202e-11
-2.98988e-11
-2.11067e-11
-3.22192e-11
-2.45406e-11
-3.43864e-11
-2.80863e-11
-3.64031e-11
-3.17149e-11
-3.82729e-11
-3.54075e-11
-3.99995e-11
-3.91608e-11
-4.15871e-11
-4.29896e-11
-4.30399e-11
-4.68766e-11
-4.4361e-11
-5.07992e-11
-4.55522e-11
-5.46953e-11
-4.66152e-11
-5.84844e-11
-4.75522e-11
-6.20843e-11
-4.83658e-11
-6.53954e-11
-4.90593e-11
-6.83031e-11
-4.96366e-11
-7.06748e-11
-5.01027e-11
-7.23533e-11
-5.04641e-11
-7.32736e-11
-5.07296e-11
-7.36774e-11
-5.09078e-11
-7.38575e-11
-5.09971e-11
-7.41205e-11
-5.09866e-11
-7.45746e-11
-5.08589e-11
-7.51629e-11
-5.05963e-11
-7.58315e-11
-5.01863e-11
-7.65343e-11
-4.96209e-11
-7.70438e-11
-4.89245e-11
-7.65794e-11
-4.83637e-11
-8.21801e-11
-4.78492e-11
-8.6035e-11
-4.73746e-11
-9.03887e-11
-4.668e-11
-9.45094e-11
-4.57175e-11
-9.93706e-11
-4.4598e-11
-1.06002e-10
-4.3028e-11
-1.14401e-10
-4.19532e-11
-1.24223e-10
-4.16854e-11
-1.36468e-10
-4.09058e-11
-1.52395e-10
-3.95487e-11
-1.73251e-10
-3.88368e-11
-2.0225e-10
-3.90332e-11
-2.45929e-10
-3.98111e-11
-4.14498e-11
-3.1496e-10
-2.25914e-13
-1.72228e-12
-8.70035e-13
-5.03746e-12
-1.90947e-12
-8.22099e-12
-3.32414e-12
-1.12693e-11
-5.09106e-12
-1.4182e-11
-7.18547e-12
-1.69604e-11
-9.58132e-12
-1.96062e-11
-1.22515e-11
-2.21211e-11
-1.51681e-11
-2.45067e-11
-1.83022e-11
-2.67647e-11
-2.16246e-11
-2.88969e-11
-2.51061e-11
-3.09049e-11
-2.87186e-11
-3.27906e-11
-3.24357e-11
-3.45558e-11
-3.62327e-11
-3.62025e-11
-4.00873e-11
-3.77326e-11
-4.39792e-11
-3.9148e-11
-4.78897e-11
-4.04505e-11
-5.17998e-11
-4.16421e-11
-5.56905e-11
-4.27245e-11
-5.9543e-11
-4.36997e-11
-6.33392e-11
-4.45695e-11
-6.70626e-11
-4.5336e-11
-7.06981e-11
-4.60011e-11
-7.42338e-11
-4.6567e-11
-7.76622e-11
-4.70357e-11
-8.09824e-11
-4.74094e-11
-8.42004e-11
-4.76899e-11
-8.73195e-11
-4.7878e-11
-9.03283e-11
-4.79778e-11
-9.32022e-11
-4.79851e-11
-9.58985e-11
-4.79e-11
-9.83628e-11
-4.77221e-11
-1.00533e-10
-4.7451e-11
-1.0237e-10
-4.70868e-11
-1.04105e-10
-4.66289e-11
-1.05885e-10
-4.60693e-11
-1.07873e-10
-4.53869e-11
-1.09983e-10
-4.45701e-11
-1.12094e-10
-4.36062e-11
-1.14213e-10
-4.24796e-11
-1.15933e-10
-4.13149e-11
-1.18225e-10
-4.01243e-11
-1.22982e-10
-3.88907e-11
-1.26874e-10
-3.75477e-11
-1.30737e-10
-3.60513e-11
-1.35376e-10
-3.44306e-11
-1.42388e-10
-3.21429e-11
-1.51819e-10
-3.04147e-11
-2.98783e-11
-1.6339e-10
-2.77004e-13
-1.44528e-12
-1.09589e-12
-4.21858e-12
-2.43001e-12
-6.88687e-12
-4.24576e-12
-9.45356e-12
-6.5104e-12
-1.19173e-11
-9.19243e-12
-1.42784e-11
-1.22615e-11
-1.65371e-11
-1.56884e-11
-1.86942e-11
-1.94449e-11
-2.07502e-11
-2.35037e-11
-2.27059e-11
-2.78385e-11
-2.45621e-11
-3.24238e-11
-2.63196e-11
-3.72349e-11
-2.79795e-11
-4.22479e-11
-2.95428e-11
-4.74399e-11
-3.10106e-11
-5.27884e-11
-3.23841e-11
-5.82716e-11
-3.36647e-11
-6.38685e-11
-3.48537e-11
-6.95582e-11
-3.59524e-11
-7.53204e-11
-3.69623e-11
-8.11351e-11
-3.78849e-11
-8.6983e-11
-3.87216e-11
-9.28449e-11
-3.94741e-11
-9.87023e-11
-4.01437e-11
-1.04537e-10
-4.07321e-11
-1.10332e-10
-4.12407e-11
-1.16071e-10
-4.16711e-11
-1.21736e-10
-4.20247e-11
-1.27311e-10
-4.2303e-11
-1.32781e-10
-4.25076e-11
-1.38126e-10
-4.26396e-11
-1.43326e-10
-4.27006e-11
-1.48356e-10
-4.26916e-11
-1.53194e-10
-4.26137e-11
-1.57812e-10
-4.2468e-11
-1.62186e-10
-4.22555e-11
-1.66278e-10
-4.1977e-11
-1.70032e-10
-4.16324e-11
-1.73381e-10
-4.12216e-11
-1.76242e-10
-4.07449e-11
-1.78519e-10
-4.02029e-11
-1.80237e-10
-3.95966e-11
-1.81435e-10
-3.89259e-11
-1.82146e-10
-3.818e-11
-1.8234e-10
-3.73542e-11
-1.81955e-10
-3.64357e-11
-1.80987e-10
-3.53986e-11
-1.78716e-10
-3.44132e-11
-1.76405e-10
-3.35535e-11
-3.29594e-11
-1.74007e-10
-3.23376e-13
-1.1219e-12
-1.21201e-12
-3.32995e-12
-2.61475e-12
-5.48413e-12
-4.49518e-12
-7.57313e-12
-6.81843e-12
-9.59409e-12
-9.5515e-12
-1.15453e-11
-1.26632e-11
-1.34254e-11
-1.6124e-11
-1.52334e-11
-1.99059e-11
-1.69683e-11
-2.39824e-11
-1.86295e-11
-2.8328e-11
-2.02165e-11
-3.29186e-11
-2.1729e-11
-3.77311e-11
-2.3167e-11
-4.27435e-11
-2.45304e-11
-4.79343e-11
-2.58197e-11
-5.32834e-11
-2.70351e-11
-5.87709e-11
-2.81772e-11
-6.43777e-11
-2.92468e-11
-7.00854e-11
-3.02447e-11
-7.58759e-11
-3.11719e-11
-8.17313e-11
-3.20295e-11
-8.76341e-11
-3.28188e-11
-9.3567e-11
-3.35412e-11
-9.95126e-11
-3.41981e-11
-1.05453e-10
-3.47913e-11
-1.11372e-10
-3.53224e-11
-1.17249e-10
-3.57935e-11
-1.23067e-10
-3.62064e-11
-1.28807e-10
-3.65635e-11
-1.34447e-10
-3.68673e-11
-1.39968e-10
-3.71189e-11
-1.45347e-10
-3.73212e-11
-1.50562e-10
-3.74772e-11
-1.55586e-10
-3.75898e-11
-1.60392e-10
-3.7662e-11
-1.6495e-10
-3.76971e-11
-1.69229e-10
-3.76984e-11
-1.73191e-10
-3.76696e-11
-1.76798e-10
-3.76146e-11
-1.80006e-10
-3.75376e-11
-1.82766e-10
-3.74431e-11
-1.85026e-10
-3.7336e-11
-1.8673e-10
-3.72217e-11
-1.87805e-10
-3.71053e-11
-1.88166e-10
-3.69928e-11
-1.87712e-10
-3.689e-11
-1.86306e-10
-3.68045e-11
-1.83975e-10
-3.67444e-11
-1.8081e-10
-3.67187e-11
-3.67138e-11
-1.77056e-10
-1.4382e-13
-9.78084e-13
-5.99934e-13
-2.87383e-12
-1.36327e-12
-4.72079e-12
-2.41401e-12
-6.52239e-12
-3.73242e-12
-8.27567e-12
-5.29922e-12
-9.97854e-12
-7.09545e-12
-1.16292e-11
-9.10259e-12
-1.32262e-11
-1.13025e-11
-1.47683e-11
-1.36776e-11
-1.62544e-11
-1.62104e-11
-1.76836e-11
-1.88841e-11
-1.90553e-11
-2.1682e-11
-2.03691e-11
-2.45878e-11
-2.16246e-11
-2.75857e-11
-2.28218e-11
-3.06599e-11
-2.39608e-11
-3.37952e-11
-2.5042e-11
-3.69763e-11
-2.60657e-11
-4.01885e-11
-2.70326e-11
-4.34169e-11
-2.79435e-11
-4.6647e-11
-2.87994e-11
-4.98644e-11
-2.96014e-11
-5.30549e-11
-3.03507e-11
-5.6204e-11
-3.1049e-11
-5.92976e-11
-3.16977e-11
-6.23214e-11
-3.22986e-11
-6.52612e-11
-3.28537e-11
-6.81024e-11
-3.33652e-11
-7.08307e-11
-3.38353e-11
-7.34318e-11
-3.42662e-11
-7.58896e-11
-3.46611e-11
-7.81901e-11
-3.50207e-11
-8.03176e-11
-3.53497e-11
-8.22564e-11
-3.5651e-11
-8.39904e-11
-3.5928e-11
-8.55033e-11
-3.61843e-11
-8.6778e-11
-3.64237e-11
-8.77973e-11
-3.66504e-11
-8.85434e-11
-3.68685e-11
-8.89984e-11
-3.70826e-11
-8.9144e-11
-3.72975e-11
-8.89619e-11
-3.75181e-11
-8.84336e-11
-3.775e-11
-8.75403e-11
-3.79986e-11
-8.62628e-11
-3.82702e-11
-8.45818e-11
-3.8571e-11
-8.24774e-11
-3.8909e-11
-7.99409e-11
-3.92809e-11
-7.69722e-11
-3.96874e-11
-4.00977e-11
-7.35882e-11
-1.00368e-13
-8.77716e-13
-3.49358e-13
-2.62484e-12
-7.24911e-13
-4.34524e-12
-1.21916e-12
-6.02814e-12
-1.82393e-12
-7.67091e-12
-2.5311e-12
-9.27137e-12
-3.33255e-12
-1.08278e-11
-4.22024e-12
-1.23385e-11
-5.1862e-12
-1.38024e-11
-6.22257e-12
-1.5218e-11
-7.32159e-12
-1.65846e-11
-8.47565e-12
-1.79013e-11
-9.67726e-12
-1.91675e-11
-1.09191e-11
-2.03827e-11
-1.21941e-11
-2.15468e-11
-1.34952e-11
-2.26597e-11
-1.48156e-11
-2.37215e-11
-1.61489e-11
-2.47323e-11
-1.74888e-11
-2.56928e-11
-1.88289e-11
-2.66033e-11
-2.01636e-11
-2.74647e-11
-2.14872e-11
-2.82778e-11
-2.27942e-11
-2.90437e-11
-2.40796e-11
-2.97636e-11
-2.53385e-11
-3.04388e-11
-2.65663e-11
-3.10708e-11
-2.77587e-11
-3.16613e-11
-2.89118e-11
-3.22121e-11
-3.0022e-11
-3.27251e-11
-3.10858e-11
-3.32024e-11
-3.21006e-11
-3.36462e-11
-3.30623e-11
-3.4059e-11
-3.39687e-11
-3.44433e-11
-3.48183e-11
-3.48014e-11
-3.56097e-11
-3.51366e-11
-3.63419e-11
-3.54521e-11
-3.70144e-11
-3.57512e-11
-3.76277e-11
-3.60371e-11
-3.81824e-11
-3.63137e-11
-3.86808e-11
-3.65842e-11
-3.91249e-11
-3.68533e-11
-3.95189e-11
-3.71242e-11
-3.98665e-11
-3.74023e-11
-4.01746e-11
-3.76906e-11
-4.04489e-11
-3.79959e-11
-4.0697e-11
-3.83229e-11
-4.08533e-11
-3.87527e-11
-4.09586e-11
-3.91756e-11
-4.11795e-11
-3.94665e-11
-3.9734e-11
-4.19051e-11
5.27792e-14
1.61998e-13
3.09051e-13
4.90336e-13
7.02737e-13
9.43501e-13
1.21009e-12
1.50017e-12
1.81154e-12
2.14211e-12
2.48985e-12
2.85272e-12
3.22868e-12
3.61558e-12
4.01119e-12
4.41312e-12
4.81878e-12
5.2254e-12
5.62992e-12
6.02903e-12
6.41908e-12
6.7961e-12
7.15573e-12
7.49324e-12
7.80343e-12
8.0807e-12
8.31895e-12
8.51157e-12
8.65141e-12
8.73081e-12
8.7417e-12
8.67529e-12
8.52219e-12
8.27291e-12
7.91683e-12
7.44276e-12
6.83872e-12
6.09242e-12
5.19063e-12
4.11994e-12
2.86581e-12
1.41427e-12
-2.45438e-13
-2.0909e-12
-4.34695e-12
-7.17806e-12
-1.0951e-11
-1.5006e-11
-2.10931e-11
-3.13184e-11
2.82266e-09
-1.09576e-09
2.83467e-09
-1.09549e-09
2.87097e-09
-1.09243e-09
2.93634e-09
-1.0861e-09
3.03679e-09
-1.07618e-09
3.17932e-09
-1.06244e-09
3.37161e-09
-1.0446e-09
3.62216e-09
-1.02254e-09
3.9397e-09
-9.96269e-10
4.3328e-09
-9.65916e-10
4.80876e-09
-9.31308e-10
5.37298e-09
-8.92511e-10
6.02949e-09
-8.49671e-10
6.78407e-09
-8.03094e-10
7.61948e-09
-7.52955e-10
8.5348e-09
-6.99066e-10
9.52826e-09
-6.42051e-10
1.05959e-08
-5.82802e-10
1.17321e-08
-5.21256e-10
1.29306e-08
-4.5777e-10
1.41833e-08
-3.93358e-10
1.54837e-08
-3.29219e-10
1.68247e-08
-2.6583e-10
1.81995e-08
-2.02906e-10
1.96016e-08
-1.40687e-10
2.10247e-08
-7.97979e-11
2.24638e-08
-2.09322e-11
2.39124e-08
3.75184e-11
2.53661e-08
9.36113e-11
2.68205e-08
1.47689e-10
2.82717e-08
1.99857e-10
2.97161e-08
2.50115e-10
3.11503e-08
2.98477e-10
3.25715e-08
3.44979e-10
3.3977e-08
3.89686e-10
3.53648e-08
4.32649e-10
3.67326e-08
4.73957e-10
3.8079e-08
5.13629e-10
3.94023e-08
5.51764e-10
4.07015e-08
5.88449e-10
4.19753e-08
6.23766e-10
4.3223e-08
6.57809e-10
4.44436e-08
6.90691e-10
4.56367e-08
7.22504e-10
4.68015e-08
7.53335e-10
4.79378e-08
7.83294e-10
4.90451e-08
8.12483e-10
5.01234e-08
8.40973e-10
5.11724e-08
8.68866e-10
8.96227e-10
5.2192e-08
1.37695e-08
-1.57378e-09
1.42487e-08
-1.57467e-09
1.47296e-08
-1.57336e-09
1.52135e-08
-1.56996e-09
1.57019e-08
-1.56457e-09
1.61967e-08
-1.55725e-09
1.67e-08
-1.54797e-09
1.72143e-08
-1.5368e-09
1.77418e-08
-1.52373e-09
1.82847e-08
-1.50885e-09
1.88456e-08
-1.49224e-09
1.94271e-08
-1.47396e-09
2.00315e-08
-1.45408e-09
2.06611e-08
-1.43271e-09
2.13181e-08
-1.40993e-09
2.20048e-08
-1.38584e-09
2.27233e-08
-1.3605e-09
2.34747e-08
-1.33416e-09
2.42603e-08
-1.30695e-09
2.50813e-08
-1.27872e-09
2.59375e-08
-1.24953e-09
2.68278e-08
-1.21952e-09
2.77508e-08
-1.18884e-09
2.87055e-08
-1.15759e-09
2.96905e-08
-1.12571e-09
3.0704e-08
-1.0933e-09
3.17435e-08
-1.06042e-09
3.28082e-08
-1.02723e-09
3.38955e-08
-9.93684e-10
3.5003e-08
-9.59791e-10
3.61284e-08
-9.25541e-10
3.72694e-08
-8.90926e-10
3.84239e-08
-8.55973e-10
3.95896e-08
-8.20706e-10
4.07643e-08
-7.85057e-10
4.19459e-08
-7.48991e-10
4.31324e-08
-7.12516e-10
4.43217e-08
-6.75647e-10
4.55119e-08
-6.38393e-10
4.67011e-08
-6.00755e-10
4.78875e-08
-5.62719e-10
4.90696e-08
-5.24265e-10
5.02457e-08
-4.85379e-10
5.14142e-08
-4.46048e-10
5.25738e-08
-4.06262e-10
5.37231e-08
-3.66004e-10
5.48609e-08
-3.25252e-10
5.59858e-08
-2.83986e-10
5.70969e-08
-2.42191e-10
-1.99924e-10
5.8193e-08
2.00197e-08
-2.06865e-09
2.05308e-08
-2.08577e-09
2.10594e-08
-2.10195e-09
2.16065e-08
-2.11708e-09
2.2173e-08
-2.13103e-09
2.27594e-08
-2.14371e-09
2.33665e-08
-2.15503e-09
2.39946e-08
-2.16492e-09
2.46443e-08
-2.17346e-09
2.5316e-08
-2.18053e-09
2.60099e-08
-2.18609e-09
2.6726e-08
-2.19012e-09
2.74646e-08
-2.19263e-09
2.82255e-08
-2.19363e-09
2.90087e-08
-2.19312e-09
2.9814e-08
-2.19111e-09
3.06411e-08
-2.1876e-09
3.14895e-08
-2.18261e-09
3.23587e-08
-2.17614e-09
3.32482e-08
-2.16822e-09
3.41575e-08
-2.15883e-09
3.5086e-08
-2.148e-09
3.60329e-08
-2.13573e-09
3.69973e-08
-2.12201e-09
3.79784e-08
-2.10684e-09
3.89754e-08
-2.09026e-09
3.99873e-08
-2.07229e-09
4.10129e-08
-2.05288e-09
4.20513e-08
-2.03206e-09
4.31013e-08
-2.00983e-09
4.4162e-08
-1.98619e-09
4.52322e-08
-1.96114e-09
4.63109e-08
-1.93467e-09
4.7397e-08
-1.9068e-09
4.84895e-08
-1.87758e-09
4.95875e-08
-1.84694e-09
5.06899e-08
-1.81492e-09
5.17957e-08
-1.78153e-09
5.29041e-08
-1.74679e-09
5.40141e-08
-1.71067e-09
5.51245e-08
-1.67317e-09
5.62345e-08
-1.63429e-09
5.73432e-08
-1.59403e-09
5.84495e-08
-1.55239e-09
5.95526e-08
-1.50937e-09
6.06516e-08
-1.46496e-09
6.17455e-08
-1.41912e-09
6.28333e-08
-1.37184e-09
6.39142e-08
-1.3231e-09
-1.27293e-09
6.49872e-08
1.96379e-08
-2.6223e-09
2.02087e-08
-2.65656e-09
2.0797e-08
-2.69026e-09
2.14031e-08
-2.7232e-09
2.20273e-08
-2.75517e-09
2.26696e-08
-2.78602e-09
2.33302e-08
-2.81563e-09
2.40092e-08
-2.84391e-09
2.47065e-08
-2.87073e-09
2.54219e-08
-2.89598e-09
2.61553e-08
-2.91953e-09
2.69065e-08
-2.94132e-09
2.76752e-08
-2.96131e-09
2.8461e-08
-2.97944e-09
2.92636e-08
-2.99566e-09
3.00824e-08
-3.00993e-09
3.09169e-08
-3.02212e-09
3.17666e-08
-3.03225e-09
3.26307e-08
-3.04029e-09
3.35087e-08
-3.04625e-09
3.44e-08
-3.05011e-09
3.53039e-08
-3.05185e-09
3.62196e-08
-3.05148e-09
3.71465e-08
-3.0489e-09
3.80838e-08
-3.04413e-09