/*--------------------------------*- C++ -*----------------------------------*\
| =========                 |                                                 |
| \\      /  F ield         | OpenFOAM: The Open Source CFD Toolbox           |
|  \\    /   O peration     | Version:  2.4.0                                 |
|   \\  /    A nd           | Web:      www.OpenFOAM.org                      |
|    \\/     M anipulation  |                                                 |
\*---------------------------------------------------------------------------*/
FoamFile
{
    version     2.0;
    format      ascii;
    class       volVectorField;
    location    "4";
    object      U;
}
// * * * * * * * * * * * * * * * * * * * * * * * * * * * * * * * * * * * * * //

dimensions      [0 1 -1 0 0 0 0];

internalField   nonuniform List<vector> 
8000
(
(-1.03448e-06 -6.63707e-05 0)
(-3.96601e-06 -0.000239155 0)
(-7.52611e-06 -0.000435162 0)
(-9.37188e-06 -0.000629483 0)
(-7.706e-06 -0.00081513 0)
(-1.11466e-06 -0.000999718 0)
(1.18036e-05 -0.0011877 0)
(3.24022e-05 -0.00137982 0)
(6.22826e-05 -0.00157569 0)
(0.000103125 -0.00177367 0)
(0.000157073 -0.00197223 0)
(0.000226069 -0.00216942 0)
(0.000311467 -0.0023646 0)
(0.000413598 -0.00256024 0)
(0.000529435 -0.00275878 0)
(0.000651544 -0.00296536 0)
(0.000759836 -0.00324231 0)
(0.00082398 -0.00362387 0)
(0.000826707 -0.00392114 0)
(0.000802672 -0.00386233 0)
(0.000805489 -0.00383541 0)
(0.00084741 -0.00409723 0)
(0.000974387 -0.00461218 0)
(0.00124476 -0.00539691 0)
(0.00163997 -0.0063574 0)
(0.0021603 -0.00639385 0)
(0.00282255 -0.00547438 0)
(0.00351835 -0.00408557 0)
(0.00402325 -0.00306269 0)
(0.00421958 -0.00395271 0)
(0.00421124 -0.00760823 0)
(0.00410713 -0.013515 0)
(0.00415615 -0.0198739 0)
(0.0045541 -0.0219012 0)
(0.00614007 -0.0174896 0)
(0.00848715 -0.0160615 0)
(0.0103698 -0.0204023 0)
(0.0124047 -0.0268484 0)
(0.0151912 -0.0356218 0)
(0.0181167 -0.0473533 0)
(0.0208588 -0.0603315 0)
(0.023174 -0.0719555 0)
(0.0247206 -0.0805588 0)
(0.025341 -0.0858743 0)
(0.025211 -0.0886058 0)
(0.0246772 -0.0897642 0)
(0.0240381 -0.0902093 0)
(0.0234644 -0.09048 0)
(0.023022 -0.0908144 0)
(0.0227265 -0.0912541 0)
(1.8947e-06 -1.95735e-05 0)
(1.1918e-05 -0.000128253 0)
(3.31758e-05 -0.000300119 0)
(6.4334e-05 -0.000515266 0)
(0.000105697 -0.000760235 0)
(0.00015753 -0.00103502 0)
(0.000219606 -0.0013407 0)
(0.000291983 -0.001678 0)
(0.000375664 -0.0020485 0)
(0.000473905 -0.00245652 0)
(0.000592091 -0.00291372 0)
(0.000719366 -0.00341161 0)
(0.000793593 -0.00396584 0)
(0.000735183 -0.00465197 0)
(0.000535935 -0.00483721 0)
(0.000366278 -0.00498421 0)
(0.000461498 -0.00558134 0)
(0.000930216 -0.00652804 0)
(0.0016424 -0.00753115 0)
(0.00239715 -0.00651927 0)
(0.00292862 -0.0042364 0)
(0.0031427 -0.00421428 0)
(0.00333076 -0.00695053 0)
(0.00376718 -0.0101278 0)
(0.00432888 -0.0132696 0)
(0.00492468 -0.0161934 0)
(0.00605776 -0.0175898 0)
(0.0081442 -0.0146675 0)
(0.0113994 -0.00791608 0)
(0.0155431 -0.00382299 0)
(0.0198969 -0.00547343 0)
(0.0241312 -0.011903 0)
(0.0283204 -0.0212628 0)
(0.0330653 -0.0325225 0)
(0.0381896 -0.0441487 0)
(0.0432934 -0.0540626 0)
(0.0486377 -0.0635888 0)
(0.0542471 -0.0735756 0)
(0.059759 -0.0837272 0)
(0.0649092 -0.0933808 0)
(0.0696515 -0.101791 0)
(0.0740122 -0.108799 0)
(0.0780527 -0.114514 0)
(0.0818795 -0.119132 0)
(0.0856064 -0.122795 0)
(0.0893169 -0.125609 0)
(0.0930517 -0.127682 0)
(0.0968175 -0.129126 0)
(0.10061 -0.130034 0)
(0.10442 -0.130479 0)
(4.25019e-06 -0.000217601 0)
(3.10932e-05 -0.000653688 0)
(8.17909e-05 -0.00109575 0)
(0.000153466 -0.00154105 0)
(0.000244763 -0.00198789 0)
(0.000355306 -0.00243452 0)
(0.000484853 -0.00288407 0)
(0.000623102 -0.00333837 0)
(0.000720794 -0.00381703 0)
(0.000651406 -0.00438692 0)
(0.000354982 -0.00510726 0)
(7.06313e-05 -0.00533863 0)
(0.000184057 -0.00596627 0)
(0.00124666 -0.00795507 0)
(0.00314934 -0.00789546 0)
(0.00413911 -0.00444767 0)
(0.00414277 -0.0103667 0)
(0.00443103 -0.0165617 0)
(0.00501582 -0.0203291 0)
(0.00620727 -0.0177148 0)
(0.00986456 -0.00906442 0)
(0.0152744 -0.00767261 0)
(0.0199737 -0.0136171 0)
(0.0243636 -0.0206327 0)
(0.029594 -0.0290654 0)
(0.0353818 -0.0405655 0)
(0.0413233 -0.0551021 0)
(0.0474404 -0.0709461 0)
(0.0538532 -0.0861918 0)
(0.060508 -0.0997201 0)
(0.0672706 -0.111244 0)
(0.0740115 -0.121045 0)
(0.0805974 -0.129494 0)
(0.0869063 -0.136901 0)
(0.0928591 -0.143706 0)
(0.0984218 -0.149754 0)
(0.103643 -0.155066 0)
(0.108551 -0.15965 0)
(0.113159 -0.163592 0)
(0.11745 -0.167067 0)
(0.121456 -0.169982 0)
(0.125269 -0.172399 0)
(0.128947 -0.174415 0)
(0.132537 -0.176141 0)
(0.136077 -0.177647 0)
(0.139604 -0.178965 0)
(0.143162 -0.18012 0)
(0.146778 -0.181142 0)
(0.150468 -0.182044 0)
(0.154252 -0.182834 0)
(-1.13457e-06 -0.000354075 0)
(2.51171e-07 -0.00105866 0)
(6.79972e-06 -0.00176197 0)
(2.22685e-05 -0.00246867 0)
(5.13426e-05 -0.0031788 0)
(8.15648e-05 -0.00390841 0)
(3.21223e-05 -0.0046684 0)
(-0.000226612 -0.00468414 0)
(-0.000621852 -0.00456314 0)
(-0.00103558 -0.0051001 0)
(-0.00191685 -0.0149307 0)
(-0.00338541 -0.00421406 0)
(-0.000740897 -0.0158429 0)
(0.0001764 -0.0441633 0)
(-0.00356557 -0.02231 0)
(0.00776561 0.00236779 0)
(0.0144889 -0.0183856 0)
(0.0161377 -0.0360076 0)
(0.0213028 -0.0539084 0)
(0.0277856 -0.0736945 0)
(0.0342381 -0.0935308 0)
(0.0403912 -0.111164 0)
(0.0463762 -0.125649 0)
(0.0523231 -0.137295 0)
(0.0581406 -0.146742 0)
(0.0636756 -0.154504 0)
(0.0688274 -0.160943 0)
(0.0735433 -0.166315 0)
(0.0778175 -0.170813 0)
(0.0816974 -0.174596 0)
(0.0852657 -0.177815 0)
(0.088612 -0.180612 0)
(0.0918126 -0.183114 0)
(0.094926 -0.185422 0)
(0.097994 -0.187621 0)
(0.101042 -0.189775 0)
(0.10409 -0.191956 0)
(0.107157 -0.194206 0)
(0.110264 -0.196532 0)
(0.113434 -0.198962 0)
(0.116679 -0.201506 0)
(0.120005 -0.204165 0)
(0.123427 -0.206929 0)
(0.126952 -0.209783 0)
(0.130583 -0.212709 0)
(0.134326 -0.21568 0)
(0.138185 -0.218679 0)
(0.142164 -0.221692 0)
(0.146266 -0.224698 0)
(0.150495 -0.227677 0)
(-3.14932e-07 -0.000295863 0)
(-9.57894e-06 -0.000880782 0)
(-2.59162e-05 -0.00145843 0)
(-5.92338e-05 -0.00203595 0)
(-0.000194708 -0.00262096 0)
(-0.00058416 -0.00321147 0)
(-0.00123429 -0.00414361 0)
(-0.00243769 -0.00377411 0)
(-0.00431103 0.00253914 0)
(-0.00490933 -0.00481419 0)
(-0.0142977 0.0350189 0)
(-0.00765088 -0.0229761 0)
(-0.0066814 -0.0602783 0)
(-0.00428912 -0.0865234 0)
(-0.000915071 -0.109616 0)
(0.0031926 -0.128028 0)
(0.00754653 -0.140371 0)
(0.0116657 -0.148994 0)
(0.015328 -0.15553 0)
(0.0184442 -0.160628 0)
(0.0210195 -0.164607 0)
(0.0231148 -0.167791 0)
(0.0248413 -0.170548 0)
(0.0263325 -0.173211 0)
(0.0277138 -0.17602 0)
(0.0290877 -0.179122 0)
(0.0305359 -0.182605 0)
(0.0321224 -0.186503 0)
(0.033897 -0.190803 0)
(0.035899 -0.19546 0)
(0.0381523 -0.20041 0)
(0.0406698 -0.20558 0)
(0.0434533 -0.210895 0)
(0.0464942 -0.216303 0)
(0.0497757 -0.221747 0)
(0.0532723 -0.227168 0)
(0.0569575 -0.232513 0)
(0.0608039 -0.23775 0)
(0.0647803 -0.242849 0)
(0.0688538 -0.247783 0)
(0.0729953 -0.252536 0)
(0.0771791 -0.257106 0)
(0.0813857 -0.261507 0)
(0.0856068 -0.265768 0)
(0.0898404 -0.269923 0)
(0.0940899 -0.274005 0)
(0.098364 -0.278041 0)
(0.102675 -0.282054 0)
(0.107034 -0.286059 0)
(0.111454 -0.290058 0)
(2.48713e-06 -0.000171841 0)
(2.62791e-06 -0.000458032 0)
(-1.58299e-05 -0.000685454 0)
(-0.00019112 -0.000853926 0)
(-0.000732088 -0.000969116 0)
(-0.00151213 -0.00104259 0)
(-0.0032457 0.0051575 0)
(-0.00500528 0.00993223 0)
(-0.00627746 0.067131 0)
(-0.00509301 0.0485753 0)
(-0.00274721 0.00628523 0)
(-0.000811344 -0.0336667 0)
(-6.73241e-05 -0.0659731 0)
(-0.000238347 -0.090161 0)
(-0.00114261 -0.107242 0)
(-0.00265522 -0.119025 0)
(-0.00458306 -0.127431 0)
(-0.0067107 -0.133977 0)
(-0.00887868 -0.139721 0)
(-0.010969 -0.145335 0)
(-0.0128912 -0.15121 0)
(-0.014575 -0.157554 0)
(-0.0159667 -0.164455 0)
(-0.0170265 -0.171932 0)
(-0.0177259 -0.17997 0)
(-0.018044 -0.188528 0)
(-0.0179678 -0.197563 0)
(-0.0174869 -0.206987 0)
(-0.0166017 -0.216652 0)
(-0.0153149 -0.226428 0)
(-0.0136384 -0.236168 0)
(-0.0115949 -0.245679 0)
(-0.00921257 -0.254796 0)
(-0.0065298 -0.263396 0)
(-0.00359052 -0.271393 0)
(-0.000442052 -0.278738 0)
(0.00286852 -0.285402 0)
(0.00629652 -0.291371 0)
(0.0097995 -0.296641 0)
(0.0133334 -0.301235 0)
(0.0168613 -0.30524 0)
(0.0203551 -0.30881 0)
(0.0237941 -0.312129 0)
(0.0271758 -0.315385 0)
(0.0305104 -0.318736 0)
(0.0338153 -0.322292 0)
(0.0371102 -0.32612 0)
(0.0404145 -0.33025 0)
(0.0437463 -0.334676 0)
(0.0471204 -0.339356 0)
(1.98607e-06 -8.86036e-05 0)
(3.26414e-06 -0.000235821 0)
(-8.35142e-06 -0.000352612 0)
(-0.000116095 -0.000438093 0)
(-0.000511942 -0.000496438 0)
(-0.00121444 -0.000505866 0)
(-0.00287735 0.0470245 0)
(0.00111295 0.0322571 0)
(0.00102696 0.0153531 0)
(0.00401004 -0.00842952 0)
(0.00514051 -0.0303571 0)
(0.00435313 -0.0474005 0)
(0.00195676 -0.0594596 0)
(-0.00152528 -0.0676984 0)
(-0.00566378 -0.0737403 0)
(-0.0101537 -0.0790349 0)
(-0.014761 -0.0845803 0)
(-0.0193448 -0.0909199 0)
(-0.0238287 -0.0982372 0)
(-0.0281708 -0.106522 0)
(-0.0323386 -0.115697 0)
(-0.0363139 -0.125704 0)
(-0.0400824 -0.136506 0)
(-0.0436184 -0.148056 0)
(-0.0468993 -0.160345 0)
(-0.0499097 -0.173384 0)
(-0.0526246 -0.187089 0)
(-0.0550178 -0.201323 0)
(-0.0570717 -0.215928 0)
(-0.0587701 -0.230683 0)
(-0.060093 -0.245307 0)
(-0.0610221 -0.259495 0)
(-0.0615422 -0.272968 0)
(-0.0616461 -0.285484 0)
(-0.0613403 -0.296876 0)
(-0.0606452 -0.307063 0)
(-0.0595901 -0.316024 0)
(-0.0582087 -0.323758 0)
(-0.0565387 -0.33026 0)
(-0.0546221 -0.335572 0)
(-0.0525091 -0.339834 0)
(-0.0502574 -0.343318 0)
(-0.0479267 -0.346387 0)
(-0.0455694 -0.349409 0)
(-0.0432181 -0.35266 0)
(-0.040888 -0.356286 0)
(-0.0385875 -0.360342 0)
(-0.0363245 -0.364839 0)
(-0.0341015 -0.369741 0)
(-0.0319152 -0.374948 0)
(2.14341e-06 -2.62086e-05 0)
(3.86268e-06 -6.84055e-05 0)
(-4.25476e-06 -9.99849e-05 0)
(-0.000116626 -0.000120234 0)
(-0.000528474 -0.000130152 0)
(-0.00120551 -0.000140034 0)
(-0.00240862 -0.0286669 0)
(0.00279091 -0.0128945 0)
(0.00382834 -0.00868559 0)
(0.00423302 -0.00374441 0)
(0.00381275 0.000422273 0)
(0.00253672 0.00364383 0)
(0.000583222 0.00398236 0)
(-0.00186121 0.00181393 0)
(-0.0047157 -0.00252136 0)
(-0.00785117 -0.00850958 0)
(-0.0112461 -0.0157533 0)
(-0.0149326 -0.0239007 0)
(-0.0189968 -0.0328045 0)
(-0.0234986 -0.0425001 0)
(-0.0284387 -0.0530809 0)
(-0.0337546 -0.0646092 0)
(-0.0393492 -0.0771079 0)
(-0.0451057 -0.0906096 0)
(-0.0509173 -0.105181 0)
(-0.0567236 -0.120848 0)
(-0.0624724 -0.137484 0)
(-0.0681231 -0.154941 0)
(-0.0736781 -0.173106 0)
(-0.079132 -0.191816 0)
(-0.0844567 -0.210894 0)
(-0.0896095 -0.230143 0)
(-0.0945141 -0.249271 0)
(-0.0990683 -0.267886 0)
(-0.103152 -0.285577 0)
(-0.106651 -0.30202 0)
(-0.109493 -0.317034 0)
(-0.111656 -0.330507 0)
(-0.11316 -0.342306 0)
(-0.114039 -0.35227 0)
(-0.114328 -0.360293 0)
(-0.114086 -0.36643 0)
(-0.113405 -0.370977 0)
(-0.11241 -0.374462 0)
(-0.111223 -0.377472 0)
(-0.109944 -0.380386 0)
(-0.108654 -0.383355 0)
(-0.107423 -0.386504 0)
(-0.106306 -0.389972 0)
(-0.105334 -0.393811 0)
(2.28839e-06 8.49033e-05 0)
(1.79311e-05 0.0001968 0)
(3.82144e-05 0.000254525 0)
(-3.59235e-05 0.000262944 0)
(-0.000428507 0.000229675 0)
(-0.00116018 0.000110276 0)
(-0.00252026 -0.012388 0)
(-0.00271263 -0.01507 0)
(-0.00296302 -0.015674 0)
(-0.00315107 -0.0110469 0)
(-0.00288084 -0.0104534 0)
(-0.00213281 -0.0062597 0)
(-0.00203166 -0.00491875 0)
(-0.00168904 -0.00128457 0)
(-0.00147969 0.000377134 0)
(-0.00125009 0.00175246 0)
(-0.0013302 0.00219146 0)
(-0.00181768 0.00385259 0)
(-0.00266196 0.00683749 0)
(-0.00384974 0.0100657 0)
(-0.005445 0.0118203 0)
(-0.00750182 0.0109172 0)
(-0.0101016 0.0067142 0)
(-0.0132751 -0.000985283 0)
(-0.0170462 -0.0119372 0)
(-0.0214672 -0.025559 0)
(-0.0265576 -0.0411383 0)
(-0.032324 -0.0580452 0)
(-0.0387873 -0.0757552 0)
(-0.0459759 -0.0940106 0)
(-0.0539064 -0.112979 0)
(-0.0625849 -0.133066 0)
(-0.0719691 -0.154656 0)
(-0.0818738 -0.177955 0)
(-0.0919215 -0.202833 0)
(-0.101631 -0.228667 0)
(-0.110625 -0.25436 0)
(-0.11877 -0.278753 0)
(-0.126111 -0.301181 0)
(-0.132721 -0.321477 0)
(-0.138605 -0.339499 0)
(-0.143688 -0.354884 0)
(-0.147824 -0.367201 0)
(-0.15091 -0.376408 0)
(-0.15302 -0.383108 0)
(-0.154379 -0.38801 0)
(-0.155229 -0.391465 0)
(-0.155758 -0.393785 0)
(-0.156121 -0.395459 0)
(-0.156459 -0.397059 0)
(6.93139e-06 -0.000118162 0)
(5.01127e-05 -0.000311126 0)
(0.000133177 -0.000457122 0)
(0.000241357 -0.000560851 0)
(0.00029995 -0.00060453 0)
(5.13013e-05 -0.000557827 0)
(-0.000899298 6.53559e-05 0)
(-0.00174023 -0.000301165 0)
(-0.00236397 -0.000999917 0)
(-0.00279844 -0.00267517 0)
(-0.00303191 -0.00479366 0)
(-0.00314061 -0.0049753 0)
(-0.00318189 -0.0054383 0)
(-0.00311731 -0.00568203 0)
(-0.00292229 -0.00602206 0)
(-0.00267341 -0.00613907 0)
(-0.00245906 -0.00599714 0)
(-0.0022165 -0.00565798 0)
(-0.00183124 -0.00535567 0)
(-0.0013118 -0.00508712 0)
(-0.000699734 -0.00490455 0)
(-5.10462e-05 -0.00473902 0)
(0.00052472 -0.00456448 0)
(0.00088715 -0.00439859 0)
(0.000870811 -0.0042401 0)
(0.000349224 -0.0041105 0)
(-0.000707208 -0.00421346 0)
(-0.00233068 -0.00463783 0)
(-0.00465846 -0.00523182 0)
(-0.00776996 -0.0056729 0)
(-0.0116017 -0.00600435 0)
(-0.0161634 -0.00669391 0)
(-0.0215928 -0.00912771 0)
(-0.0280053 -0.0165164 0)
(-0.0354858 -0.0332146 0)
(-0.0440514 -0.0612434 0)
(-0.0535902 -0.0970152 0)
(-0.0639791 -0.133493 0)
(-0.075179 -0.166319 0)
(-0.0871472 -0.195823 0)
(-0.0998228 -0.224133 0)
(-0.112935 -0.252811 0)
(-0.125651 -0.282216 0)
(-0.136823 -0.31092 0)
(-0.145922 -0.335651 0)
(-0.153286 -0.35405 0)
(-0.15943 -0.36704 0)
(-0.164586 -0.376084 0)
(-0.16876 -0.381777 0)
(-0.171998 -0.38481 0)
(-8.33414e-07 -0.000388208 0)
(7.28991e-06 -0.00104234 0)
(2.92979e-05 -0.00157925 0)
(6.55067e-05 -0.00200782 0)
(0.000118358 -0.00232675 0)
(0.000204841 -0.00253883 0)
(0.000362516 -0.00257693 0)
(0.000494868 -0.00298168 0)
(0.000325009 -0.00349238 0)
(1.62072e-05 -0.00413277 0)
(-0.000109814 -0.00471853 0)
(-0.000187479 -0.0049081 0)
(-0.000246504 -0.00502631 0)
(-0.000302619 -0.00499642 0)
(-0.000361395 -0.00479059 0)
(-0.000436663 -0.00432066 0)
(-0.000523534 -0.00406828 0)
(-0.00058391 -0.00431061 0)
(-0.000601698 -0.00460742 0)
(-0.000595393 -0.00475009 0)
(-0.000580779 -0.00484383 0)
(-0.000559694 -0.00491975 0)
(-0.000530847 -0.00498877 0)
(-0.000494872 -0.00502843 0)
(-0.000455846 -0.0050468 0)
(-0.000414244 -0.00510717 0)
(-0.000374291 -0.0051879 0)
(-0.000361053 -0.00516463 0)
(-0.000395959 -0.00503815 0)
(-0.00046261 -0.00497422 0)
(-0.000537272 -0.00505196 0)
(-0.000620684 -0.00523372 0)
(-0.000746349 -0.00553382 0)
(-0.00103613 -0.00601574 0)
(-0.00176302 -0.0067692 0)
(-0.00330922 -0.00795768 0)
(-0.00603426 -0.00977486 0)
(-0.0101766 -0.0120846 0)
(-0.0158158 -0.0143055 0)
(-0.0228241 -0.0162483 0)
(-0.0309897 -0.019221 0)
(-0.0403761 -0.0277475 0)
(-0.0512723 -0.0535068 0)
(-0.0634135 -0.106678 0)
(-0.0759718 -0.170427 0)
(-0.0890839 -0.218053 0)
(-0.102834 -0.250298 0)
(-0.116523 -0.277212 0)
(-0.129002 -0.302588 0)
(-0.139289 -0.324844 0)
(-1.44623e-06 -0.000291334 0)
(-1.21548e-05 -0.000848756 0)
(-2.96099e-05 -0.00138169 0)
(-5.03078e-05 -0.0018922 0)
(-6.99948e-05 -0.00238302 0)
(-8.4823e-05 -0.00285671 0)
(-9.28788e-05 -0.0033182 0)
(-9.86344e-05 -0.00377499 0)
(-0.000112688 -0.00422257 0)
(-0.000142119 -0.0045886 0)
(-0.00018343 -0.00484851 0)
(-0.000229222 -0.00497407 0)
(-0.000272551 -0.00504361 0)
(-0.000309234 -0.00504545 0)
(-0.00033394 -0.00497289 0)
(-0.00031841 -0.00481426 0)
(-0.000255369 -0.00478401 0)
(-0.00023473 -0.00495843 0)
(-0.000287652 -0.00513833 0)
(-0.00034412 -0.00524839 0)
(-0.000382476 -0.00532691 0)
(-0.000409983 -0.0053811 0)
(-0.000429813 -0.00540629 0)
(-0.000443536 -0.00538655 0)
(-0.000451773 -0.00531407 0)
(-0.000457566 -0.00518883 0)
(-0.00046865 -0.00498209 0)
(-0.000489539 -0.00472737 0)
(-0.000509061 -0.00464792 0)
(-0.000513351 -0.0047393 0)
(-0.000507845 -0.00482806 0)
(-0.000506408 -0.00488124 0)
(-0.000515964 -0.00494745 0)
(-0.000541414 -0.00501823 0)
(-0.000592539 -0.00510699 0)
(-0.000688472 -0.00523627 0)
(-0.0008561 -0.00541717 0)
(-0.00111729 -0.00566302 0)
(-0.00147473 -0.00598087 0)
(-0.00191158 -0.00640063 0)
(-0.00242366 -0.00700007 0)
(-0.00313014 -0.00790981 0)
(-0.004414 -0.00957598 0)
(-0.00690312 -0.0128131 0)
(-0.0114394 -0.0181476 0)
(-0.0188353 -0.0245849 0)
(-0.0285332 -0.0302576 0)
(-0.0393574 -0.0427973 0)
(-0.0510467 -0.079351 0)
(-0.0634696 -0.14291 0)
(-5.42836e-07 -0.000223304 0)
(-6.55869e-06 -0.000655848 0)
(-1.90898e-05 -0.00107212 0)
(-3.78439e-05 -0.00147021 0)
(-6.25582e-05 -0.00184929 0)
(-9.3132e-05 -0.00220934 0)
(-0.000129719 -0.00255043 0)
(-0.000172563 -0.00287278 0)
(-0.000221566 -0.00317595 0)
(-0.000275553 -0.00345912 0)
(-0.000331961 -0.00372127 0)
(-0.00038737 -0.00396216 0)
(-0.000438619 -0.00418274 0)
(-0.000483134 -0.00438443 0)
(-0.000518715 -0.00456911 0)
(-0.00054433 -0.00473954 0)
(-0.000561936 -0.00490099 0)
(-0.000576968 -0.00505647 0)
(-0.000593296 -0.00518882 0)
(-0.000610997 -0.0052919 0)
(-0.000629074 -0.00536902 0)
(-0.000646889 -0.00541941 0)
(-0.000663861 -0.00543916 0)
(-0.000679112 -0.00542325 0)
(-0.000691025 -0.00536924 0)
(-0.000696719 -0.00527673 0)
(-0.000691145 -0.00513802 0)
(-0.000675246 -0.00499324 0)
(-0.000679988 -0.00496867 0)
(-0.000702004 -0.00502848 0)
(-0.000713961 -0.00506497 0)
(-0.000720801 -0.0050657 0)
(-0.00072606 -0.00505227 0)
(-0.00073257 -0.00501568 0)
(-0.000743308 -0.00495135 0)
(-0.000763731 -0.00487442 0)
(-0.000791804 -0.0049283 0)
(-0.000820838 -0.00505815 0)
(-0.000856003 -0.00512447 0)
(-0.000909188 -0.00512413 0)
(-0.000986052 -0.00517885 0)
(-0.00109037 -0.00529921 0)
(-0.00124395 -0.00549861 0)
(-0.00150462 -0.00580547 0)
(-0.00196451 -0.00621804 0)
(-0.00268899 -0.00675387 0)
(-0.00365824 -0.00757167 0)
(-0.00491603 -0.00903456 0)
(-0.00685676 -0.0116218 0)
(-0.010327 -0.0160592 0)
(-2.75509e-07 -0.000204675 0)
(-3.28562e-06 -0.000597863 0)
(-9.52446e-06 -0.000975084 0)
(-1.89168e-05 -0.00133575 0)
(-3.12232e-05 -0.0016793 0)
(-4.62446e-05 -0.00200557 0)
(-6.37989e-05 -0.00231447 0)
(-8.37047e-05 -0.00260598 0)
(-0.000105767 -0.0028801 0)
(-0.00012975 -0.0031368 0)
(-0.000155374 -0.00337616 0)
(-0.000182329 -0.00359839 0)
(-0.000210309 -0.00380387 0)
(-0.000239051 -0.00399308 0)
(-0.000268362 -0.00416662 0)
(-0.000298155 -0.00432516 0)
(-0.000328471 -0.00446935 0)
(-0.000359371 -0.00459967 0)
(-0.000390723 -0.00471626 0)
(-0.00042213 -0.00481925 0)
(-0.000453019 -0.00490889 0)
(-0.000482759 -0.0049855 0)
(-0.000510628 -0.0050495 0)
(-0.000535758 -0.00510142 0)
(-0.000557075 -0.00514198 0)
(-0.000573392 -0.00517214 0)
(-0.000583797 -0.00519323 0)
(-0.000588601 -0.00520707 0)
(-0.000590188 -0.00521521 0)
(-0.000591674 -0.00521358 0)
(-0.000594573 -0.00519526 0)
(-0.000598877 -0.00515926 0)
(-0.000604112 -0.00510595 0)
(-0.000609188 -0.00503195 0)
(-0.000612074 -0.00493342 0)
(-0.000613568 -0.00482448 0)
(-0.000633491 -0.00481377 0)
(-0.000670306 -0.00484267 0)
(-0.000705237 -0.00480736 0)
(-0.000738568 -0.00471387 0)
(-0.000773845 -0.00462947 0)
(-0.000819038 -0.00453957 0)
(-0.000878332 -0.00448672 0)
(-0.000950806 -0.00448418 0)
(-0.0010384 -0.00446142 0)
(-0.0011482 -0.00441703 0)
(-0.00128873 -0.00444505 0)
(-0.00147737 -0.0045901 0)
(-0.00175263 -0.00485362 0)
(-0.00218136 -0.00528103 0)
(-3.79647e-07 -0.000183817 0)
(-3.69695e-06 -0.000536789 0)
(-1.03483e-05 -0.000875408 0)
(-2.01949e-05 -0.00119952 0)
(-3.29762e-05 -0.00150902 0)
(-4.84769e-05 -0.00180403 0)
(-6.64922e-05 -0.00208466 0)
(-8.68106e-05 -0.00235107 0)
(-0.000109215 -0.00260342 0)
(-0.000133475 -0.00284185 0)
(-0.000159359 -0.00306654 0)
(-0.000186631 -0.00327765 0)
(-0.000215062 -0.00347536 0)
(-0.000244431 -0.00365988 0)
(-0.000274535 -0.00383141 0)
(-0.000305184 -0.00399015 0)
(-0.000336209 -0.00413631 0)
(-0.000367457 -0.00427007 0)
(-0.000398778 -0.00439162 0)
(-0.000430019 -0.00450115 0)
(-0.000461028 -0.00459886 0)
(-0.000491658 -0.00468497 0)
(-0.000521768 -0.00475971 0)
(-0.00055123 -0.00482333 0)
(-0.000579934 -0.00487609 0)
(-0.0006078 -0.00491828 0)
(-0.000634794 -0.00495023 0)
(-0.000660939 -0.00497224 0)
(-0.000686287 -0.00498452 0)
(-0.000710843 -0.00498728 0)
(-0.000734454 -0.00498017 0)
(-0.000756824 -0.00496302 0)
(-0.000777531 -0.00493575 0)
(-0.000796068 -0.00489821 0)
(-0.000812101 -0.00485044 0)
(-0.000826043 -0.00479252 0)
(-0.000839629 -0.00472445 0)
(-0.000854744 -0.00464225 0)
(-0.000871451 -0.00453819 0)
(-0.000888462 -0.00441292 0)
(-0.0009048 -0.00427054 0)
(-0.000919471 -0.00410386 0)
(-0.000936122 -0.00396027 0)
(-0.000963861 -0.00384951 0)
(-0.000997883 -0.00370993 0)
(-0.00102923 -0.00353716 0)
(-0.00106306 -0.00337175 0)
(-0.00110914 -0.00319529 0)
(-0.00117266 -0.00305872 0)
(-0.0012529 -0.00301804 0)
(-4.00822e-07 -0.000161678 0)
(-4.60242e-06 -0.000472277 0)
(-1.31213e-05 -0.000770399 0)
(-2.57576e-05 -0.00105599 0)
(-4.21517e-05 -0.00132904 0)
(-6.20063e-05 -0.00158976 0)
(-8.50719e-05 -0.00183831 0)
(-0.000111113 -0.00207489 0)
(-0.000139902 -0.00229969 0)
(-0.000171217 -0.00251289 0)
(-0.000204843 -0.00271465 0)
(-0.000240574 -0.00290517 0)
(-0.000278208 -0.0030846 0)
(-0.000317551 -0.00325314 0)
(-0.000358417 -0.00341096 0)
(-0.000400622 -0.00355824 0)
(-0.000443992 -0.00369517 0)
(-0.000488355 -0.00382192 0)
(-0.000533542 -0.00393867 0)
(-0.00057939 -0.0040456 0)
(-0.000625737 -0.00414287 0)
(-0.000672426 -0.00423065 0)
(-0.000719303 -0.00430911 0)
(-0.000766216 -0.0043784 0)
(-0.000813021 -0.00443866 0)
(-0.000859575 -0.00449002 0)
(-0.000905741 -0.00453261 0)
(-0.000951387 -0.00456652 0)
(-0.000996382 -0.00459184 0)
(-0.0010406 -0.00460881 0)
(-0.0010839 -0.0046173 0)
(-0.00112612 -0.00461737 0)
(-0.00116709 -0.00460902 0)
(-0.00120661 -0.00459225 0)
(-0.00124449 -0.00456702 0)
(-0.00128053 -0.00453328 0)
(-0.00131447 -0.00449089 0)
(-0.00134599 -0.00443955 0)
(-0.00137456 -0.00437887 0)
(-0.0013995 -0.00430852 0)
(-0.00142016 -0.00422821 0)
(-0.00143616 -0.00413761 0)
(-0.00144765 -0.00403649 0)
(-0.00145529 -0.00392387 0)
(-0.00145918 -0.0037947 0)
(-0.0014587 -0.00364701 0)
(-0.001453 -0.00348013 0)
(-0.0014397 -0.00328396 0)
(-0.00142052 -0.00312738 0)
(-0.00140064 -0.00304451 0)
(-5.86087e-07 -0.000125157 0)
(-5.24294e-06 -0.000368153 0)
(-1.43186e-05 -0.000603702 0)
(-2.75012e-05 -0.000831464 0)
(-4.43956e-05 -0.00105116 0)
(-6.46913e-05 -0.00126267 0)
(-8.81322e-05 -0.00146586 0)
(-0.000114479 -0.00166069 0)
(-0.000143504 -0.00184708 0)
(-0.00017499 -0.00202502 0)
(-0.000208728 -0.00219447 0)
(-0.00024452 -0.00235545 0)
(-0.000282178 -0.00250797 0)
(-0.000321521 -0.00265207 0)
(-0.000362375 -0.00278779 0)
(-0.000404575 -0.00291519 0)
(-0.00044796 -0.00303436 0)
(-0.000492375 -0.00314537 0)
(-0.00053767 -0.00324834 0)
(-0.000583698 -0.00334337 0)
(-0.000630317 -0.00343059 0)
(-0.000677385 -0.00351012 0)
(-0.000724763 -0.00358212 0)
(-0.000772312 -0.00364673 0)
(-0.000819892 -0.00370411 0)
(-0.000867364 -0.00375444 0)
(-0.000914585 -0.00379789 0)
(-0.000961406 -0.00383466 0)
(-0.00100768 -0.00386493 0)
(-0.00105324 -0.00388895 0)
(-0.00109792 -0.00390686 0)
(-0.00114157 -0.00391892 0)
(-0.00118399 -0.00392538 0)
(-0.001225 -0.00392649 0)
(-0.00126438 -0.00392251 0)
(-0.0013019 -0.0039137 0)
(-0.00133731 -0.00390036 0)
(-0.00137035 -0.00388278 0)
(-0.00140072 -0.00386131 0)
(-0.00142806 -0.00383632 0)
(-0.00145203 -0.00380822 0)
(-0.00147223 -0.00377746 0)
(-0.00148822 -0.00374453 0)
(-0.00149949 -0.00370989 0)
(-0.00150543 -0.00367405 0)
(-0.00150518 -0.00363752 0)
(-0.00149789 -0.00360099 0)
(-0.00148298 -0.00356516 0)
(-0.00146081 -0.00353123 0)
(-0.0014325 -0.00349954 0)
(-1.54566e-07 -0.000102395 0)
(-2.44908e-06 -0.000302526 0)
(-7.27244e-06 -0.000497772 0)
(-1.45465e-05 -0.000687783 0)
(-2.40654e-05 -0.000872256 0)
(-3.56481e-05 -0.00105099 0)
(-4.91387e-05 -0.00122381 0)
(-6.43886e-05 -0.00139057 0)
(-8.12527e-05 -0.00155116 0)
(-9.95877e-05 -0.00170547 0)
(-0.000119254 -0.00185343 0)
(-0.000140113 -0.00199498 0)
(-0.000162032 -0.00213008 0)
(-0.000184879 -0.00225872 0)
(-0.000208526 -0.00238089 0)
(-0.000232845 -0.00249661 0)
(-0.000257714 -0.00260593 0)
(-0.000283009 -0.00270889 0)
(-0.000308612 -0.00280557 0)
(-0.000334403 -0.00289605 0)
(-0.000360266 -0.00298044 0)
(-0.000386085 -0.00305885 0)
(-0.000411745 -0.00313142 0)
(-0.000437132 -0.00319831 0)
(-0.000462132 -0.00325967 0)
(-0.00048663 -0.00331569 0)
(-0.000510513 -0.00336657 0)
(-0.000533666 -0.00341254 0)
(-0.000555973 -0.00345381 0)
(-0.00057732 -0.00349065 0)
(-0.000597585 -0.00352324 0)
(-0.00061665 -0.00355181 0)
(-0.000634392 -0.00357675 0)
(-0.000650689 -0.00359837 0)
(-0.000665413 -0.00361703 0)
(-0.000678434 -0.0036331 0)
(-0.000689618 -0.00364697 0)
(-0.000698829 -0.00365905 0)
(-0.000705926 -0.0036698 0)
(-0.000710768 -0.00367968 0)
(-0.000713206 -0.00368921 0)
(-0.000713098 -0.00369891 0)
(-0.000710292 -0.00370937 0)
(-0.000704645 -0.00372118 0)
(-0.000695998 -0.00373501 0)
(-0.000684208 -0.00375154 0)
(-0.000669106 -0.00377155 0)
(-0.000650551 -0.0037958 0)
(-0.000628352 -0.00382514 0)
(-0.000602534 -0.00386037 0)
(-2.31942e-07 -9.04841e-05 0)
(-1.57217e-06 -0.000268165 0)
(-4.04587e-06 -0.000442317 0)
(-7.54116e-06 -0.000612622 0)
(-1.19582e-05 -0.000778798 0)
(-1.72237e-05 -0.000940629 0)
(-2.32745e-05 -0.00109793 0)
(-3.00468e-05 -0.00125056 0)
(-3.74772e-05 -0.00139837 0)
(-4.55021e-05 -0.00154125 0)
(-5.40591e-05 -0.00167911 0)
(-6.30865e-05 -0.00181187 0)
(-7.25239e-05 -0.00193949 0)
(-8.23123e-05 -0.00206192 0)
(-9.23936e-05 -0.00217915 0)
(-0.000102711 -0.00229119 0)
(-0.000113211 -0.00239806 0)
(-0.000123839 -0.00249979 0)
(-0.000134544 -0.00259644 0)
(-0.000145276 -0.00268809 0)
(-0.000155987 -0.00277482 0)
(-0.000166631 -0.00285675 0)
(-0.000177164 -0.00293399 0)
(-0.000187544 -0.00300668 0)
(-0.00019773 -0.00307498 0)
(-0.000207685 -0.00313907 0)
(-0.000217374 -0.00319913 0)
(-0.000226764 -0.00325537 0)
(-0.000235824 -0.00330802 0)
(-0.000244527 -0.00335731 0)
(-0.000252847 -0.00340351 0)
(-0.000260759 -0.00344681 0)
(-0.000268235 -0.00348758 0)
(-0.000275264 -0.00352609 0)
(-0.000281829 -0.00356269 0)
(-0.000287926 -0.00359774 0)
(-0.000293543 -0.00363162 0)
(-0.000298687 -0.00366472 0)
(-0.000303354 -0.00369743 0)
(-0.000307565 -0.00373021 0)
(-0.000311325 -0.00376348 0)
(-0.000314671 -0.00379773 0)
(-0.000317623 -0.00383346 0)
(-0.000320252 -0.00387117 0)
(-0.000322598 -0.00391141 0)
(-0.000324675 -0.00395474 0)
(-0.000326249 -0.00400193 0)
(-0.000326929 -0.00405371 0)
(-0.000327291 -0.00410684 0)
(-0.00033094 -0.00415861 0)
(1.5981e-07 -8.82081e-05 0)
(7.85754e-07 -0.00026149 0)
(1.80515e-06 -0.000431412 0)
(3.12866e-06 -0.000597689 0)
(4.71245e-06 -0.000760068 0)
(6.53103e-06 -0.000918337 0)
(8.56509e-06 -0.00107232 0)
(1.07962e-05 -0.00122186 0)
(1.32062e-05 -0.00136683 0)
(1.57781e-05 -0.00150709 0)
(1.84954e-05 -0.00164257 0)
(2.1342e-05 -0.00177315 0)
(2.43015e-05 -0.0018988 0)
(2.73573e-05 -0.00201944 0)
(3.04919e-05 -0.00213505 0)
(3.36871e-05 -0.00224562 0)
(3.69228e-05 -0.00235113 0)
(4.01778e-05 -0.0024516 0)
(4.34287e-05 -0.00254707 0)
(4.66502e-05 -0.00263756 0)
(4.98144e-05 -0.00272314 0)
(5.2891e-05 -0.00280388 0)
(5.58467e-05 -0.00287987 0)
(5.86452e-05 -0.0029512 0)
(6.12467e-05 -0.00301798 0)
(6.36084e-05 -0.00308034 0)
(6.5683e-05 -0.00313843 0)
(6.74204e-05 -0.00319239 0)
(6.87648e-05 -0.00324239 0)
(6.96579e-05 -0.00328862 0)
(7.00356e-05 -0.00333127 0)
(6.98317e-05 -0.00337054 0)
(6.89723e-05 -0.00340667 0)
(6.73837e-05 -0.00343985 0)
(6.49832e-05 -0.00347036 0)
(6.16865e-05 -0.00349846 0)
(5.73975e-05 -0.00352446 0)
(5.20233e-05 -0.0035486 0)
(4.54556e-05 -0.00357126 0)
(3.7591e-05 -0.00359266 0)
(2.83097e-05 -0.00361325 0)
(1.75289e-05 -0.0036332 0)
(5.20073e-06 -0.0036531 0)
(-8.78007e-06 -0.00367304 0)
(-2.49276e-05 -0.00369398 0)
(-4.4663e-05 -0.00371558 0)
(-6.98853e-05 -0.00374039 0)
(-0.000100807 -0.00379663 0)
(-0.000142934 -0.00382766 0)
(-0.000205915 -0.00377326 0)
(0.0225794 -0.09172 0)
(0.0225895 -0.09208 0)
(0.0227777 -0.0922074 0)
(0.0231767 -0.0919786 0)
(0.02383 -0.0912992 0)
(0.0247896 -0.0900963 0)
(0.0261148 -0.0883144 0)
(0.0278725 -0.0859074 0)
(0.0301319 -0.0828553 0)
(0.0329613 -0.0791625 0)
(0.0364212 -0.0747907 0)
(0.0405722 -0.0697239 0)
(0.0454526 -0.0639758 0)
(0.0510832 -0.0575924 0)
(0.0574553 -0.0505929 0)
(0.064483 -0.0429439 0)
(0.072122 -0.0347692 0)
(0.0803598 -0.0261945 0)
(0.0891751 -0.0172568 0)
(0.0985235 -0.00801229 0)
(0.108366 0.00130969 0)
(0.118604 0.0105525 0)
(0.129158 0.0195864 0)
(0.140018 0.0284656 0)
(0.151152 0.0371594 0)
(0.162473 0.0455569 0)
(0.173918 0.053627 0)
(0.185481 0.0613556 0)
(0.197108 0.0687065 0)
(0.208749 0.0756731 0)
(0.220376 0.0822517 0)
(0.231964 0.0884409 0)
(0.243487 0.0942455 0)
(0.254914 0.09967 0)
(0.266223 0.104726 0)
(0.277401 0.10943 0)
(0.288427 0.113795 0)
(0.299286 0.117836 0)
(0.309969 0.121573 0)
(0.320462 0.125026 0)
(0.330755 0.128208 0)
(0.340842 0.13114 0)
(0.350718 0.133845 0)
(0.360375 0.136339 0)
(0.369805 0.138639 0)
(0.379011 0.14077 0)
(0.387987 0.142747 0)
(0.396729 0.144583 0)
(0.405239 0.146298 0)
(0.413493 0.147895 0)
(0.108241 -0.130524 0)
(0.11207 -0.13021 0)
(0.11591 -0.129574 0)
(0.119768 -0.128643 0)
(0.123654 -0.127444 0)
(0.127582 -0.125993 0)
(0.131571 -0.124292 0)
(0.135639 -0.122353 0)
(0.139801 -0.120189 0)
(0.144078 -0.117819 0)
(0.148489 -0.115251 0)
(0.153055 -0.112499 0)
(0.157793 -0.109578 0)
(0.162725 -0.1065 0)
(0.167867 -0.103283 0)
(0.173237 -0.0999377 0)
(0.178857 -0.0964716 0)
(0.184734 -0.0929321 0)
(0.190874 -0.0893234 0)
(0.1973 -0.0856202 0)
(0.204011 -0.0818294 0)
(0.210999 -0.077976 0)
(0.218253 -0.0740899 0)
(0.225765 -0.0701659 0)
(0.233526 -0.0662041 0)
(0.241524 -0.062219 0)
(0.249747 -0.0582247 0)
(0.258164 -0.0542397 0)
(0.266769 -0.0502655 0)
(0.275552 -0.0462982 0)
(0.28449 -0.0423349 0)
(0.293561 -0.0383764 0)
(0.302746 -0.0344253 0)
(0.312029 -0.0304786 0)
(0.321397 -0.0265322 0)
(0.330827 -0.0225886 0)
(0.340303 -0.0186493 0)
(0.34981 -0.0147179 0)