/*--------------------------------*- C++ -*----------------------------------*\
| =========                 |                                                 |
| \\      /  F ield         | OpenFOAM: The Open Source CFD Toolbox           |
|  \\    /   O peration     | Version:  2.4.0                                 |
|   \\  /    A nd           | Web:      www.OpenFOAM.org                      |
|    \\/     M anipulation  |                                                 |
\*---------------------------------------------------------------------------*/
FoamFile
{
    version     2.0;
    format      ascii;
    class       volScalarField;
    location    "4.4";
    object      T;
}
// * * * * * * * * * * * * * * * * * * * * * * * * * * * * * * * * * * * * * //

dimensions      [0 0 0 1 0 0 0];

internalField   nonuniform List<scalar> 
125
(
293.092
293.092
293.092
293.092
293.092
293.277
293.277
293.277
293.277
293.277
293.464
293.464
293.464
293.464
293.464
293.653
293.653
293.653
293.653
293.653
293.844
293.844
293.844
293.844
293.844
294.037
294.037
294.037
294.037
294.037
294.232
294.232
294.232
294.232
294.232
294.429
294.429
294.428
294.428
294.429
294.628
294.627
294.627
294.627
294.628
294.828
294.828
294.827
294.827
294.828
295.03
295.03
295.03
295.03
295.031
295.235
295.234
295.234
295.234
295.235
295.441
295.44
295.44
295.44
295.441
295.649
295.648
295.648
295.648
295.649
295.859
295.858
295.858
295.858
295.859
296.071
296.07
296.07
296.07
296.071
296.285
296.284
296.284
296.284
296.285
296.501
296.501
296.501
296.501
296.501
296.719
296.719
296.719
296.719
296.72
296.94
296.94
296.94
296.94
296.94
297.164
297.164
297.164
297.164
297.164
297.39
297.39
297.39
297.39
297.39
297.619
297.619
297.619
297.619
297.619
297.974
297.974
297.974
297.974
297.974
297.974
297.974
297.974
297.974
297.974
)
;

boundaryField
{
    BotWall
    {
        type            fixedValue;
        value           uniform 293;
    }
    FreeStream
    {
        type            fixedValue;
        value           nonuniform 0();
    }
    FrontNBack
    {
        type            empty;
    }
    LeftSide
    {
        type            symmetryPlane;
    }
    RightSide
    {
        type            symmetryPlane;
    }
    procBoundary0to1
    {
        type            processor;
        value           nonuniform List<scalar> 5(297.974 297.974 297.974 297.974 297.974);
    }
}


// ************************************************************************* //
