/*--------------------------------*- C++ -*----------------------------------*\
| =========                 |                                                 |
| \\      /  F ield         | OpenFOAM: The Open Source CFD Toolbox           |
|  \\    /   O peration     | Version:  2.4.0                                 |
|   \\  /    A nd           | Web:      www.OpenFOAM.org                      |
|    \\/     M anipulation  |                                                 |
\*---------------------------------------------------------------------------*/
FoamFile
{
    version     2.0;
    format      ascii;
    class       surfaceScalarField;
    location    "2.4";
    object      phi;
}
// * * * * * * * * * * * * * * * * * * * * * * * * * * * * * * * * * * * * * //

dimensions      [0 3 -1 0 0 0 0];

internalField   nonuniform List<scalar> 
15580
(
1.90109e-13
-1.5278e-12
7.60202e-13
-4.53959e-12
1.68896e-12
-7.49599e-12
2.94605e-12
-1.03911e-11
4.50338e-12
-1.32264e-11
6.33536e-12
-1.6005e-11
8.41852e-12
-1.87296e-11
1.07315e-11
-2.14025e-11
1.32546e-11
-2.40256e-11
1.59699e-11
-2.66007e-11
1.88606e-11
-2.91292e-11
2.19117e-11
-3.16129e-11
2.51086e-11
-3.40525e-11
2.84387e-11
-3.645e-11
3.18889e-11
-3.88058e-11
3.54482e-11
-4.11221e-11
3.91043e-11
-4.33989e-11
4.28476e-11
-4.56389e-11
4.66655e-11
-4.78415e-11
5.05492e-11
-5.00104e-11
5.44847e-11
-5.21442e-11
5.84636e-11
-5.42479e-11
6.24691e-11
-5.63188e-11
6.64929e-11
-5.83639e-11
7.05134e-11
-6.03783e-11
7.4522e-11
-6.23713e-11
7.84902e-11
-6.43352e-11
8.2409e-11
-6.62819e-11
8.62399e-11
-6.81998e-11
8.99736e-11
-7.0103e-11
9.35583e-11
-7.19753e-11
9.69935e-11
-7.3841e-11
1.00239e-10
-7.56983e-11
1.03366e-10
-7.7615e-11
1.06296e-10
-7.94998e-11
1.08363e-10
-8.07078e-11
1.09291e-10
-8.17832e-11
1.05802e-10
-8.33368e-11
9.54955e-11
-8.67937e-11
6.62805e-11
-8.40826e-11
5.97386e-11
-7.99992e-11
3.9592e-11
-7.09125e-11
1.293e-12
-5.35303e-11
-1.29609e-11
-7.58927e-11
-1.38284e-11
-8.77384e-11
-4.85734e-11
-5.13951e-11
-3.05299e-11
-9.91682e-11
-6.98289e-11
-3.42028e-11
-7.20242e-11
-8.11579e-11
-7.01096e-11
-7.77218e-11
2.53221e-13
-1.78102e-12
9.26703e-13
-5.21308e-12
1.97063e-12
-8.53992e-12
3.3541e-12
-1.17746e-11
5.0488e-12
-1.49211e-11
7.02842e-12
-1.79847e-11
9.26905e-12
-2.09703e-11
1.17484e-11
-2.38819e-11
1.44467e-11
-2.67239e-11
1.7345e-11
-2.9499e-11
2.04269e-11
-3.22111e-11
2.36761e-11
-3.4862e-11
2.70787e-11
-3.74551e-11
3.06198e-11
-3.99911e-11
3.42874e-11
-4.24734e-11
3.80665e-11
-4.49013e-11
4.19458e-11
-4.72782e-11
4.59086e-11
-4.96017e-11
4.99429e-11
-5.18757e-11
5.40276e-11
-5.40952e-11
5.81483e-11
-5.62649e-11
6.2277e-11
-5.83766e-11
6.63938e-11
-6.04357e-11
7.04604e-11
-6.24304e-11
7.44482e-11
-6.4366e-11
7.83041e-11
-6.62272e-11
8.19863e-11
-6.80173e-11
8.54236e-11
-6.97193e-11
8.85645e-11
-7.13407e-11
9.13494e-11
-7.28879e-11
9.37646e-11
-7.43905e-11
9.5589e-11
-7.56654e-11
9.62473e-11
-7.63565e-11
9.52397e-11
-7.67408e-11
9.10491e-11
-7.80307e-11
7.34397e-11
-8.13389e-11
3.27161e-11
-7.65156e-11
-7.50916e-12
-4.37035e-11
-5.0064e-11
-4.43639e-11
-2.1241e-11
-1.12906e-10
-7.55606e-11
-2.56797e-11
-4.23002e-11
-1.04174e-10
-7.99791e-11
-1.58518e-11
-1.0809e-10
-4.7782e-11
-1.30078e-10
-6.57483e-11
-1.22357e-10
-5.91161e-11
-1.7674e-10
-4.47857e-11
-1.52609e-10
-5.83342e-11
-1.91417e-10
-4.23494e-11
-4.34904e-11
-2.18036e-10
-5.71869e-15
-1.7753e-12
1.97568e-14
-5.23855e-12
9.18149e-14
-8.61197e-12
2.12838e-13
-1.18956e-11
3.85491e-13
-1.50938e-11
6.1162e-13
-1.82108e-11
8.9278e-13
-2.12514e-11
1.22952e-12
-2.42187e-11
1.62241e-12
-2.71167e-11
2.07091e-12
-2.99476e-11
2.57489e-12
-3.27151e-11
3.13292e-12
-3.54201e-11
3.74434e-12
-3.80665e-11
4.40679e-12
-4.06536e-11
5.11907e-12
-4.31857e-11
5.87748e-12
-4.56597e-11
6.67997e-12
-4.80807e-11
7.52054e-12
-5.04422e-11
8.39541e-12
-5.27506e-11
9.29451e-12
-5.49943e-11
1.0211e-11
-5.71813e-11
1.11278e-11
-5.92934e-11
1.20327e-11
-6.13406e-11
1.28967e-11
-6.32945e-11
1.36995e-11
-6.51688e-11
1.43972e-11
-6.69249e-11
1.49831e-11
-6.86033e-11
1.5443e-11
-7.01792e-11
1.56091e-11
-7.15068e-11
1.49177e-11
-7.21965e-11
1.2906e-11
-7.25053e-11
8.88957e-12
-7.39373e-11
-2.46336e-11
-7.51988e-11
-5.89178e-11
-6.99886e-11
-1.40563e-10
3.01854e-12
-1.43062e-10
-7.89983e-11
-7.51914e-11
-1.44386e-10
-1.47616e-10
2.87208e-11
-1.82316e-10
-9.66443e-12
-2.33788e-10
-6.1433e-11
-2.05896e-10
-5.35712e-11
-2.78814e-10
-3.12561e-11
-2.69754e-10
-2.49112e-11
-2.94422e-10
-2.31087e-11
-3.35543e-10
-2.46273e-11
-3.78262e-10
-1.63976e-11
-4.11676e-10
-1.13715e-11
-4.6146e-10
-8.55071e-12
-5.00049e-10
-3.75948e-12
1.64851e-12
-5.45188e-10
-2.33016e-13
-1.54229e-12
-9.13801e-13
-4.55777e-12
-1.99908e-12
-7.5267e-12
-3.43487e-12
-1.04598e-11
-5.17344e-12
-1.33552e-11
-7.17021e-12
-1.6214e-11
-9.38727e-12
-1.90343e-11
-1.17875e-11
-2.18184e-11
-1.43409e-11
-2.45634e-11
-1.70151e-11
-2.72734e-11
-1.97858e-11
-2.99444e-11
-2.26226e-11
-3.25832e-11
-2.55051e-11
-3.5184e-11
-2.84018e-11
-3.77569e-11
-3.12946e-11
-4.0293e-11
-3.41476e-11
-4.28067e-11
-3.69439e-11
-4.52844e-11
-3.96405e-11
-4.77456e-11
-4.22207e-11
-5.01704e-11
-4.46314e-11
-5.25835e-11
-4.68561e-11
-5.49566e-11
-4.88302e-11
-5.73193e-11
-5.05371e-11
-5.96337e-11
-5.18923e-11
-6.19393e-11
-5.28529e-11
-6.42082e-11
-5.32772e-11
-6.65006e-11
-5.40676e-11
-6.78128e-11
-5.54807e-11
-6.87661e-11
-5.83175e-11
-7.05367e-11
-9.0497e-11
-7.25382e-11
-1.22119e-10
-6.98685e-11
-2.04996e-10
8.30169e-12
-1.53928e-10
-1.26399e-10
-2.32929e-10
9.01096e-12
-2.59582e-10
2.96711e-11
-3.29093e-10
-9.48761e-12
-4.51316e-10
-2.2163e-11
-4.1698e-10
-5.61429e-12
-4.36591e-10
9.95228e-12
-4.81355e-10
-1.66693e-11
-5.34029e-10
-8.96595e-13
-5.71423e-10
6.1374e-12
-6.06012e-10
9.67797e-12
-6.4269e-10
1.35688e-11
-6.84412e-10
1.70951e-11
-7.2051e-10
1.97e-11
-7.53309e-10
2.14281e-11
-7.84479e-10
2.26193e-11
-8.1173e-10
2.34911e-11
2.42283e-11
-8.3431e-10
-3.18789e-13
-1.2235e-12
-1.12614e-12
-3.75041e-12
-2.3369e-12
-6.31594e-12
-3.89975e-12
-8.89694e-12
-5.76626e-12
-1.14887e-11
-7.89266e-12
-1.40876e-11
-1.02357e-11
-1.66913e-11
-1.2756e-11
-1.92981e-11
-1.54116e-11
-2.19077e-11
-1.81642e-11
-2.45208e-11
-2.09693e-11
-2.71393e-11
-2.37862e-11
-2.97663e-11
-2.65635e-11
-3.24066e-11
-2.92553e-11
-3.50651e-11
-3.17986e-11
-3.77497e-11
-3.41384e-11
-4.04668e-11
-3.61947e-11
-4.32281e-11
-3.79001e-11
-4.60403e-11
-3.91509e-11
-4.89196e-11
-3.98634e-11
-5.1871e-11
-3.99027e-11
-5.49174e-11
-3.91574e-11
-5.80646e-11
-3.74326e-11
-6.13585e-11
-3.45664e-11
-6.48056e-11
-3.17403e-11
-6.70343e-11
-2.89447e-11
-6.92962e-11
-3.41752e-11
-7.45043e-11
-9.72536e-11
-7.16271e-11
-1.70849e-10
-2.13813e-12
-1.63554e-10
-8.00047e-11
-1.39144e-10
-9.42794e-11
-5.65494e-10
4.34651e-10
-9.30907e-10
2.39014e-10
-1.05053e-09
1.2863e-10
-1.13192e-09
1.1107e-10
-1.22051e-09
7.91075e-11
-1.29188e-09
4.92109e-11
-1.33618e-09
3.8685e-11
-1.35735e-09
3.11201e-11
-1.40012e-09
2.61011e-11
-1.42328e-09
2.22615e-11
-1.43574e-09
1.8602e-11
-1.44104e-09
1.49726e-11
-1.43887e-09
1.14006e-11
-1.42969e-09
7.90914e-12
-1.41453e-09
4.54513e-12
-1.3945e-09
1.40197e-12
-1.37001e-09
-1.8758e-12
-1.34129e-09
-5.2293e-12
-8.27844e-12
-1.30878e-09
1.5257e-14
-1.23875e-12
-3.39519e-14
-3.7012e-12
-1.78891e-13
-6.171e-12
-4.19274e-13
-8.65656e-12
-7.5338e-13
-1.11546e-11
-1.17737e-12
-1.36636e-11
-1.68462e-12
-1.61841e-11
-2.26504e-12
-1.87177e-11
-2.90459e-12
-2.12682e-11
-3.58436e-12
-2.3841e-11
-4.28048e-12
-2.64432e-11
-4.96233e-12
-2.90845e-11
-5.59348e-12
-3.17755e-11
-6.12773e-12
-3.45309e-11
-6.51278e-12
-3.73647e-11
-6.68116e-12
-4.02985e-11
-6.56076e-12
-4.33485e-11
-6.05434e-12
-4.65467e-11
-5.06452e-12
-4.99094e-11
-3.4472e-12
-5.34883e-11
-1.0691e-12
-5.72955e-11
2.26728e-12
-6.1401e-11
6.01596e-12
-6.51071e-11
1.02754e-11
-6.9065e-11
2.75195e-12
-7.80552e-11
-7.31696e-11
-7.26665e-11
-1.68848e-10
1.96639e-11
-1.23632e-10
-1.16873e-10
-1.28578e-10
2.80808e-12
-4.43184e-10
2.34602e-10
-7.02415e-10
1.64951e-10
-5.85423e-10
3.17665e-10
-7.63123e-10
4.16714e-10
-9.25129e-10
2.90636e-10
-1.02805e-09
2.13987e-10
-1.10564e-09
1.56706e-10
-1.17164e-09
1.15209e-10
-1.21646e-09
8.35071e-11
-1.24341e-09
5.80631e-11
-1.2541e-09
3.67924e-11
-1.25026e-09
1.84204e-11
-1.2334e-09
1.73983e-12
-1.20677e-09
-1.16502e-11
-1.17146e-09
-2.39121e-11
-1.12851e-09
-3.50443e-11
-1.07889e-09
-4.50738e-11
-1.02338e-09
-5.41025e-11
-9.63027e-10
-6.22315e-11
-8.98702e-10
-6.95543e-11
-7.61795e-11
-8.30801e-10
2.93356e-14
-1.26809e-12
1.5294e-13
-3.82481e-12
3.39735e-13
-6.35779e-12
5.30408e-13
-8.84723e-12
6.693e-13
-1.12935e-11
7.07174e-13
-1.37015e-11
5.95813e-13
-1.60727e-11
2.94132e-13
-1.8416e-11
-2.40865e-13
-2.07332e-11
-1.04346e-12
-2.30384e-11
-2.15384e-12
-2.53328e-11
-3.60051e-12
-2.76378e-11
-5.42348e-12
-2.99525e-11
-7.64592e-12
-3.23084e-11
-1.03106e-11
-3.47e-11
-1.34352e-11
-3.71739e-11
-1.70683e-11
-3.97154e-11
-2.12199e-11
-4.23951e-11
-2.59497e-11
-4.51795e-11
-3.12642e-11
-4.81738e-11
-3.72554e-11
-5.13042e-11
-4.39104e-11
-5.47461e-11
-5.22334e-11
-6.03038e-11
-1.49143e-10
-6.10318e-11
-1.9417e-10
-4.60758e-11
-1.77428e-10
-8.95015e-11
-1.11959e-10
-4.58048e-11
-2.40512e-10
1.16796e-11
-2.54947e-10
1.72429e-11
-1.81813e-10
1.61468e-10
-2.66163e-10
2.49302e-10
-2.00541e-10
2.52043e-10
-2.41123e-11
2.40285e-10
6.10182e-11
2.05505e-10
1.07396e-10
1.67609e-10
1.33983e-10
1.30119e-10
1.55311e-10
9.38799e-11
1.79071e-10
5.97474e-11
2.08881e-10
2.82533e-11
2.44995e-10
6.78421e-13
2.90038e-10
-2.66232e-11
3.41595e-10
-4.98171e-11
4.00006e-10
-7.00606e-11
4.63595e-10
-8.75016e-11
5.31196e-10
-1.02645e-10
6.02154e-10
-1.16032e-10
6.75362e-10
-1.27311e-10
7.50087e-10
-1.36957e-10
8.25823e-10
-1.4529e-10
-1.52407e-10
9.0205e-10
5.77359e-14
-1.32582e-12
1.19191e-14
-3.77899e-12
-2.46736e-13
-6.09914e-12
-7.74933e-13
-8.31903e-12
-1.62965e-12
-1.04387e-11
-2.87017e-12
-1.2461e-11
-4.556e-12
-1.43869e-11
-6.75061e-12
-1.62214e-11
-9.5174e-12
-1.79664e-11
-1.29262e-11
-1.96296e-11
-1.70456e-11
-2.12134e-11
-2.19545e-11
-2.27289e-11
-2.7728e-11
-2.4179e-11
-3.44575e-11
-2.5579e-11
-4.22258e-11
-2.69317e-11
-5.11413e-11
-2.82584e-11
-6.12954e-11
-2.95613e-11
-7.28224e-11
-3.08681e-11
-8.58275e-11
-3.21744e-11
-1.00486e-10
-3.35158e-11
-1.16873e-10
-3.49163e-11
-1.52365e-10
-3.65859e-11
-2.2453e-10
-3.81181e-11
-2.39844e-10
-4.60783e-11
-1.19162e-10
-1.66757e-10
6.35284e-11
-2.72192e-10
2.75355e-10
-2.57632e-10
4.90353e-10
-2.03318e-10
6.41706e-10
-1.34111e-10
8.80482e-10
-7.73073e-11
1.16067e-09
-3.08898e-11
1.41623e-09
-3.5161e-12
1.64791e-09
8.61095e-12
1.84201e-09
1.14063e-11
2.00422e-09
5.39349e-12
2.14226e-09
-7.92132e-12
2.26168e-09
-2.55337e-11
2.36675e-09
-4.53254e-11
2.46045e-09
-6.54511e-11
2.54594e-09
-8.48065e-11
2.6218e-09
-1.0249e-10
2.6901e-09
-1.18113e-10
2.75149e-09
-1.31452e-10
2.80656e-09
-1.42569e-10
2.85595e-09
-1.52037e-10
2.89904e-09
-1.59121e-10
2.93632e-09
-1.64594e-10
2.9685e-09
-1.69134e-10
2.99576e-09
-1.72551e-10
-1.75154e-10
3.01851e-09
-1.53052e-13
-1.17277e-12
-4.49269e-13
-3.48277e-12
-8.92112e-13
-5.6563e-12
-1.56941e-12
-7.64173e-12
-2.57075e-12
-9.4374e-12
-3.99469e-12
-1.10371e-11
-5.94011e-12
-1.24414e-11
-8.51879e-12
-1.36427e-11
-1.18403e-11
-1.46449e-11
-1.60326e-11
-1.54373e-11
-2.12175e-11
-1.60285e-11
-2.7543e-11
-1.64035e-11
-3.51448e-11
-1.65771e-11
-4.41965e-11
-1.65272e-11
-5.48495e-11
-1.62786e-11
-6.73106e-11
-1.57974e-11
-8.17486e-11
-1.51233e-11
-9.84115e-11
-1.42052e-11
-1.17476e-10
-1.31099e-11
-1.39232e-10
-1.17602e-11
-1.74076e-10
-1.02309e-11
-2.59753e-10
-8.27211e-12
-2.89347e-10
-8.52475e-12
-3.22485e-10
-1.29397e-11
-4.03588e-11
-4.48884e-10
-3.64755e-11
-2.76075e-10
5.89036e-11
-3.53011e-10
3.15114e-10
-4.59529e-10
5.63722e-10
-3.82719e-10
8.32278e-10
-3.45862e-10
1.10873e-09
-3.0734e-10
1.37903e-09
-2.73821e-10
1.63088e-09
-2.43239e-10
1.86121e-09
-2.18922e-10
2.06641e-09
-1.99802e-10
2.24515e-09
-1.86667e-10
2.39723e-09
-1.77607e-10
2.52339e-09
-1.71485e-10
2.62524e-09
-1.67306e-10
2.70462e-09
-1.6418e-10
2.76392e-09
-1.61792e-10
2.80555e-09
-1.59749e-10
2.83193e-09
-1.57833e-10
2.84528e-09
-1.55921e-10
2.84721e-09
-1.53958e-10
2.83993e-09
-1.51841e-10
2.82543e-09
-1.50096e-10
2.80429e-09
-1.48e-10
2.77758e-09
-1.45832e-10
-1.43854e-10
2.74628e-09
7.71834e-13
-1.9446e-12
2.62051e-12
-5.33145e-12
5.25686e-12
-8.29265e-12
8.48255e-12
-1.08674e-11
1.21066e-11
-1.30614e-11
1.59438e-11
-1.48743e-11
1.98117e-11
-1.63094e-11
2.35298e-11
-1.73608e-11
2.69153e-11
-1.80304e-11
2.9784e-11
-1.8306e-11
3.19445e-11
-1.8189e-11
3.32006e-11
-1.76595e-11
3.33434e-11
-1.67199e-11
3.21562e-11
-1.53401e-11
2.94031e-11
-1.35255e-11
2.48375e-11
-1.12319e-11
1.81857e-11
-8.47142e-12
9.15929e-12
-5.17877e-12
-2.57097e-12
-1.37962e-12
-1.73492e-11
3.01799e-12
-3.55411e-11
7.96103e-12
-8.38047e-11
1.35791e-11
-1.60709e-10
2.60942e-11
-1.94355e-10
2.01884e-11
-6.05487e-10
-3.77521e-11
-8.56078e-10
-2.54848e-11
-7.82709e-10
-4.2638e-10
-9.96238e-10
-2.45999e-10
-1.07998e-09
-2.98981e-10
-9.7485e-10
-4.50989e-10
-8.60099e-10
-4.22091e-10
-7.03103e-10
-4.30817e-10
-5.63437e-10
-3.82906e-10
-4.25454e-10
-3.56904e-10
-2.94948e-10
-3.30308e-10
-1.81449e-10
-3.00167e-10
-8.78519e-11
-2.71204e-10
-1.21121e-11
-2.47225e-10
4.8002e-11
-2.2742e-10
9.54565e-11
-2.11634e-10
1.32433e-10
-1.98769e-10
1.60764e-10
-1.8808e-10
1.81972e-10
-1.7904e-10
1.97324e-10
-1.71273e-10
2.07859e-10
-1.64493e-10
2.14548e-10
-1.5853e-10
2.17718e-10
-1.53266e-10
2.18298e-10
-1.4858e-10
2.16726e-10
-1.4426e-10
-1.40367e-10
2.13239e-10
3.83077e-13
-2.32768e-12
1.53455e-12
-6.48293e-12
3.38568e-12
-1.01438e-11
5.8373e-12
-1.3319e-11
8.79287e-12
-1.6017e-11
1.21632e-11
-1.82447e-11
1.58589e-11
-2.0005e-11
1.97994e-11
-2.13013e-11
2.39006e-11
-2.21316e-11
2.80904e-11
-2.24958e-11
3.22889e-11
-2.23875e-11
3.64326e-11
-2.18032e-11
4.04444e-11
-2.07318e-11
4.4271e-11
-1.91666e-11
4.7837e-11
-1.70916e-11
5.11018e-11
-1.44966e-11
5.39912e-11
-1.13608e-11
5.64825e-11
-7.67011e-12
5.85013e-11
-3.39844e-12
6.00435e-11
1.47578e-12
6.10158e-11
6.98875e-12
6.14265e-11
1.31685e-11
6.06497e-11
1.835e-11
3.75345e-11
2.39963e-11
-8.84893e-11
3.39808e-11
-1.46183e-10
3.16606e-11
-5.56537e-10
-1.6026e-11
-8.12465e-10
9.92903e-12
-7.59838e-10
-3.51607e-10
-1.06357e-09
-1.47254e-10
-1.16826e-09
-3.17401e-10
-1.33855e-09
-2.60531e-10
-1.48273e-09
-2.3873e-10
-1.48213e-09
-3.57503e-10
-1.43364e-09
-3.788e-10
-1.3538e-09
-3.79998e-10
-1.3051e-09
-3.19905e-10
-1.26832e-09
-2.84008e-10
-1.23837e-09
-2.5737e-10
-1.21058e-09
-2.3943e-10
-1.182e-09
-2.27345e-10
-1.15159e-09
-2.18488e-10
-1.11947e-09
-2.1116e-10
-1.08619e-09
-2.04554e-10
-1.05266e-09
-1.98024e-10
-1.01974e-09
-1.91449e-10
-9.88212e-10
-1.84794e-10
-9.58662e-10
-1.7813e-10
-9.31351e-10
-1.71571e-10
-1.65209e-10
-9.06509e-10
-2.26898e-13
-2.10078e-12
-8.36436e-13
-5.87339e-12
-1.7401e-12
-9.24012e-12
-2.84628e-12
-1.22129e-11
-4.06937e-12
-1.47939e-11
-5.33102e-12
-1.6983e-11
-6.55374e-12
-1.87823e-11
-7.665e-12
-2.019e-11
-8.58801e-12
-2.12086e-11
-9.24911e-12
-2.18347e-11
-9.56463e-12
-2.2072e-11
-9.45291e-12
-2.19149e-11
-8.81546e-12
-2.13692e-11
-7.55547e-12
-2.04266e-11
-5.55079e-12
-1.90963e-11
-2.68166e-12
-1.73658e-11
1.20793e-12
-1.52504e-11
6.2692e-12
-1.27314e-11
1.27044e-11
-9.83367e-12
2.07092e-11
-6.52896e-12
3.05557e-11
-2.85781e-12
4.25004e-11
1.22382e-12
5.51944e-11
5.656e-12
6.86717e-11
1.0519e-11
7.71669e-11
1.43647e-11
6.12654e-11
1.8201e-11
-1.97935e-11
2.12979e-11
-4.7109e-11
3.68861e-11
-3.97033e-10
-1.85914e-12
-5.79663e-10
3.53759e-11
-8.74064e-10
-2.30006e-11
-1.16477e-09
3.01768e-11
-1.19109e-09
-2.124e-10
-1.43364e-09
-1.14951e-10
-1.48453e-09
-3.27916e-10
-1.60279e-09
-2.61733e-10
-1.68942e-09
-2.33278e-10
-1.66597e-09
-3.0746e-10
-1.66472e-09
-2.58612e-10
-1.64006e-09
-2.64095e-10
-1.61396e-09
-2.53439e-10
-1.57851e-09
-2.53945e-10
-1.53394e-09
-2.55724e-10
-1.48374e-09
-2.5476e-10
-1.43151e-09
-2.50252e-10
-1.37967e-09
-2.43287e-10
-1.33032e-09
-2.34145e-10
-1.28478e-09
-2.23673e-10
-1.2439e-09
-2.12447e-10
-2.01056e-10
-1.20806e-09
-4.3861e-13
-1.66217e-12
-1.54072e-12
-4.77128e-12
-3.15071e-12
-7.63013e-12
-5.14335e-12
-1.02202e-11
-7.40019e-12
-1.25371e-11
-9.80587e-12
-1.45774e-11
-1.22507e-11
-1.63375e-11
-1.46248e-11
-1.78159e-11
-1.68231e-11
-1.90102e-11
-1.87372e-11
-1.99207e-11
-2.02628e-11
-2.05463e-11
-2.12888e-11
-2.0889e-11
-2.17086e-11
-2.09494e-11
-2.14044e-11
-2.07308e-11
-2.02645e-11
-2.02362e-11
-1.81605e-11
-1.94697e-11
-1.49733e-11
-1.84376e-11
-1.05604e-11
-1.71443e-11
-4.79286e-12
-1.56012e-11
2.48948e-12
-1.38113e-11
1.14258e-11
-1.17941e-11
2.21984e-11
-9.54879e-12
3.49619e-11
-7.10751e-12
4.99401e-11
-4.45914e-12
6.59493e-11
-1.6446e-12
8.27602e-11
1.39015e-12
9.85605e-11
4.73356e-12
9.50665e-11
6.70304e-12
8.39983e-11
9.34911e-12
8.70531e-11
1.00698e-11
5.20272e-11
1.17467e-11
5.19001e-11
3.03039e-11
-1.57586e-10
-2.91543e-12
-3.07363e-10
3.48259e-11
-5.90864e-10
-4.44141e-11
-9.02386e-10
4.97902e-11
-8.58087e-10
-2.77568e-10
-1.09742e-09
-6.81314e-11
-1.18482e-09
-1.71205e-10
-1.29347e-09
-1.55444e-10
-1.37615e-09
-1.70761e-10
-1.41164e-09
-2.18459e-10
-1.4105e-09
-2.56864e-10
-1.37266e-09
-2.92601e-10
-1.32268e-09
-3.00226e-10
-1.26518e-09
-3.00791e-10
-1.20924e-09
-2.9008e-10
-1.15877e-09
-2.74148e-10
-1.11588e-09
-2.55334e-10
-2.35865e-10
-1.08107e-09
-5.15569e-14
-1.61061e-12
-2.00434e-13
-4.6224e-12
-4.03368e-13
-7.42719e-12
-5.99687e-13
-1.00239e-11
-7.29229e-13
-1.24075e-11
-7.31437e-13
-1.45751e-11
-5.46194e-13
-1.65228e-11
-1.12444e-13
-1.82497e-11
6.29826e-13
-1.97525e-11
1.74221e-12
-2.1033e-11
3.28395e-12
-2.20881e-11
5.31697e-12
-2.2922e-11
7.89857e-12
-2.3531e-11
1.10906e-11
-2.39228e-11
1.49465e-11
-2.40921e-11
1.95277e-11
-2.40509e-11
2.4881e-11
-2.37909e-11
3.10667e-11
-2.33301e-11
3.81213e-11
-2.26557e-11
4.61038e-11
-2.17939e-11
5.50347e-11
-2.0725e-11
6.49722e-11
-1.94864e-11
7.59134e-11
-1.80487e-11
8.79191e-11
-1.64648e-11
1.00965e-10
-1.46907e-11
1.15155e-10
-1.28001e-11
1.3061e-10
-1.07214e-11
1.45855e-10
-8.54165e-12
1.61371e-10
-6.16707e-12
1.74902e-10
-3.60764e-12
1.82455e-10
-5.63806e-13
1.83826e-10
1.62473e-12
1.7574e-10
4.67762e-12
2.03898e-10
6.59374e-12
1.48444e-10
1.10303e-11
1.78486e-10
1.97474e-11
-8.58789e-11
-1.32028e-11
-1.84932e-10
3.09219e-11
-3.08854e-10
-4.7283e-11
-4.26386e-10
-3.79117e-11
-5.41527e-10
-5.56106e-11
-6.76192e-10
-8.37936e-11
-7.82243e-10
-1.50813e-10
-8.78222e-10
-1.96622e-10
-9.16945e-10
-2.61504e-10
-8.84857e-10
-3.32879e-10
-8.51448e-10
-3.23489e-10
-8.15935e-10
-3.09661e-10
-7.89684e-10
-2.81584e-10
-2.52912e-10
-7.72638e-10
-1.67177e-14
-1.5939e-12
-3.20665e-14
-4.60705e-12
-1.67795e-14
-7.44248e-12
5.5849e-14
-1.00965e-11
2.15086e-13
-1.25667e-11
4.90763e-13
-1.48508e-11
9.15472e-13
-1.69475e-11
1.52079e-12
-1.8855e-11
2.34125e-12
-2.0573e-11
3.40848e-12
-2.21003e-11
4.75774e-12
-2.34373e-11
6.41908e-12
-2.45833e-11
8.42752e-12
-2.55394e-11
1.08099e-11
-2.63052e-11
1.36001e-11
-2.68823e-11
1.68199e-11
-2.72707e-11
2.05014e-11
-2.74724e-11
2.46591e-11
-2.74878e-11
2.93225e-11
-2.73192e-11
3.44963e-11
-2.69677e-11
4.02069e-11
-2.64355e-11
4.6446e-11
-2.57255e-11
5.32359e-11
-2.48386e-11
6.0552e-11
-2.37809e-11
6.84122e-11
-2.25509e-11
7.67725e-11
-2.11604e-11
8.5654e-11
-1.96029e-11
9.50112e-11
-1.78988e-11
1.04877e-10
-1.60331e-11
1.15306e-10
-1.40367e-11
1.26615e-10
-1.18726e-11
1.37836e-10
-9.59874e-12
1.49645e-10
-7.13335e-12
1.6038e-10
-4.58219e-12
1.71272e-10
-2.08162e-12
1.88211e-10
-2.56896e-13
1.72832e-10
2.08901e-12
2.00335e-10
3.40506e-12
1.42135e-10
1.09171e-11
1.11532e-10
-7.30946e-12
4.11808e-11
1.47411e-11
-5.23977e-11
9.78576e-12
-1.59449e-10
-4.37547e-11
-3.34612e-10
-2.14586e-11
-3.8411e-10
-2.12006e-10
-5.38008e-10
-1.7898e-10
-6.27786e-10
-2.33712e-10
-6.48834e-10
-2.88612e-10
-6.72074e-10
-2.58345e-10
-2.40964e-10
-6.84022e-10
-5.65988e-14
-1.5373e-12
-1.97259e-13
-4.46639e-12
-4.00678e-13
-7.23906e-12
-6.48262e-13
-9.84894e-12
-9.20136e-13
-1.22949e-11
-1.19453e-12
-1.45764e-11
-1.44886e-12
-1.66931e-11
-1.65878e-12
-1.86451e-11
-1.79973e-12
-2.0432e-11
-1.84546e-12
-2.20545e-11
-1.77015e-12
-2.35126e-11
-1.54632e-12
-2.48072e-11
-1.14735e-12
-2.59384e-11
-5.45021e-13
-2.69075e-11
2.87715e-13
-2.77151e-11
1.3794e-12
-2.83623e-11
2.75729e-12
-2.88503e-11
4.44977e-12
-2.91802e-11
6.4842e-12
-2.93536e-11
8.8881e-12
-2.93716e-11
1.16889e-11
-2.92364e-11
1.49124e-11
-2.89489e-11
1.85861e-11
-2.85123e-11
2.27322e-11
-2.7927e-11
2.73789e-11
-2.71977e-11
3.25424e-11
-2.63239e-11
3.82516e-11
-2.53121e-11
4.45137e-11
-2.41609e-11
5.13601e-11
-2.28794e-11
5.87877e-11
-2.14643e-11
6.68434e-11
-1.99283e-11
7.55099e-11
-1.82652e-11
8.48694e-11
-1.64929e-11
9.48871e-11
-1.45998e-11
1.05416e-10
-1.26108e-11
1.15649e-10
-1.04904e-11
1.25997e-10
-8.2743e-12
1.34877e-10
-5.88839e-12
1.46365e-10
-4.00571e-12
1.40405e-10
-1.42619e-12
1.54105e-10
1.03322e-12
1.60282e-10
3.60892e-12
1.21536e-10
-5.00878e-12
1.00408e-10
-3.30823e-13
-9.90605e-11
-1.25372e-11
-2.76952e-10
-1.08683e-12
-3.17689e-10
-1.92962e-10
-4.98733e-10
-1.07569e-10
-5.98638e-10
-1.5844e-10
-1.87402e-10
-6.52199e-10
-7.81845e-14
-1.45911e-12
-3.40753e-13
-4.20382e-12
-7.81852e-13
-6.79796e-12
-1.37982e-12
-9.25098e-12
-2.11372e-12
-1.1561e-11
-2.96319e-12
-1.3727e-11
-3.90766e-12
-1.57487e-11
-4.92656e-12
-1.76262e-11
-5.99862e-12
-1.936e-11
-7.10222e-12
-2.09509e-11
-8.21479e-12
-2.24001e-11
-9.3133e-12
-2.37086e-11
-1.03737e-11
-2.4878e-11
-1.13714e-11
-2.59098e-11
-1.2281e-11
-2.68055e-11
-1.30764e-11
-2.7567e-11
-1.3731e-11
-2.81957e-11
-1.42174e-11
-2.86938e-11
-1.45083e-11
-2.90627e-11
-1.45755e-11
-2.93045e-11
-1.43915e-11
-2.94203e-11
-1.39277e-11
-2.94128e-11
-1.31575e-11
-2.92824e-11
-1.20524e-11
-2.90322e-11
-1.0588e-11
-2.86621e-11
-8.73641e-12
-2.81754e-11
-6.47718e-12
-2.75714e-11
-3.78416e-12
-2.68539e-11
-6.424e-13
-2.60212e-11
2.97115e-12
-2.50779e-11
7.06353e-12
-2.40207e-11
1.16538e-11
-2.28554e-11
1.67379e-11
-2.1577e-11
2.23303e-11
-2.01923e-11
2.84134e-11
-1.86938e-11
3.50127e-11
-1.70897e-11
4.2108e-11
-1.53696e-11
4.97605e-11
-1.35409e-11
5.73341e-11
-1.15793e-11
6.54328e-11
-9.52522e-12
7.40256e-11
-7.55958e-12
8.18999e-11
-5.83293e-12
8.0292e-11
-3.4384e-12
8.10985e-11
-1.14098e-12
7.21414e-11
-3.58017e-12
7.92342e-11
-8.17964e-12
-1.03043e-10
-1.06845e-11
-1.93469e-10
-1.71401e-11
-2.42177e-10
-1.09719e-10
-5.98387e-11
-3.6974e-10
-7.57436e-14
-1.38337e-12
-2.32135e-13
-4.04743e-12
-4.72903e-13
-6.5572e-12
-8.37523e-13
-8.88636e-12
-1.35633e-12
-1.10422e-11
-2.05157e-12
-1.30317e-11
-2.93834e-12
-1.48619e-11
-4.02522e-12
-1.65393e-11
-5.3149e-12
-1.80703e-11
-6.80473e-12
-1.94611e-11
-8.48722e-12
-2.07176e-11
-1.03506e-11
-2.18452e-11
-1.23792e-11
-2.28495e-11
-1.45538e-11
-2.37351e-11
-1.68523e-11
-2.4507e-11
-1.92498e-11
-2.51695e-11
-2.17187e-11
-2.57268e-11
-2.423e-11
-2.61826e-11
-2.67518e-11
-2.65408e-11
-2.92518e-11
-2.68045e-11
-3.1695e-11
-2.69771e-11
-3.40466e-11
-2.70612e-11
-3.62691e-11
-2.70599e-11
-3.83261e-11
-2.69752e-11
-4.01782e-11
-2.681e-11
-4.17878e-11
-2.65658e-11
-4.31139e-11
-2.62453e-11
-4.41184e-11
-2.58494e-11
-4.47587e-11
-2.53809e-11
-4.49965e-11
-2.48401e-11
-4.47875e-11
-2.42298e-11
-4.40931e-11
-2.35498e-11
-4.28671e-11
-2.2803e-11
-4.10707e-11
-2.19887e-11
-3.86543e-11
-2.11102e-11
-3.55778e-11
-2.01662e-11
-3.17871e-11
-1.91603e-11
-2.72374e-11
-1.80907e-11
-2.18549e-11
-1.69618e-11
-1.56081e-11
-1.5772e-11
-8.64148e-12
-1.45262e-11
-1.28008e-12
-1.31944e-11
7.22001e-12
-1.19408e-11
1.77115e-11
-1.09969e-11
2.36581e-11
-1.00329e-11
2.45423e-11
-9.08111e-12
2.39544e-11
-1.00966e-11
1.816e-11
-1.13459e-11
-7.88071e-11
-1.27513e-11
-1.74243e-11
-1.2122e-10
5.58e-13
-1.94137e-12
1.69429e-12
-5.18372e-12
3.09506e-12
-7.95796e-12
4.57966e-12
-1.0371e-11
6.00843e-12
-1.24709e-11
7.27505e-12
-1.42983e-11
8.3011e-12
-1.58879e-11
9.03139e-12
-1.72696e-11
9.42995e-12
-1.84689e-11
9.4767e-12
-1.95079e-11
9.16455e-12
-2.04054e-11
8.49717e-12
-2.11779e-11
7.48688e-12
-2.18392e-11
6.15321e-12
-2.24014e-11
4.52131e-12
-2.28751e-11
2.62107e-12
-2.32692e-11
4.85855e-13
-2.35916e-11
-1.84785e-12
-2.38489e-11
-4.34165e-12
-2.4047e-11
-6.95513e-12
-2.4191e-11
-9.64704e-12
-2.42852e-11
-1.23748e-11
-2.43334e-11
-1.5096e-11
-2.43387e-11
-1.77671e-11
-2.43041e-11
-2.03455e-11
-2.42316e-11
-2.27878e-11
-2.41235e-11
-2.50519e-11
-2.39812e-11
-2.70952e-11
-2.38061e-11
-2.88771e-11
-2.3599e-11
-3.03563e-11
-2.33609e-11
-3.14941e-11
-2.30919e-11
-3.22514e-11
-2.27925e-11
-3.25923e-11
-2.24621e-11
-3.24805e-11
-2.21005e-11
-3.18842e-11
-2.17066e-11
-3.07711e-11
-2.12793e-11
-2.91146e-11
-2.08168e-11
-2.68885e-11
-2.03168e-11
-2.40735e-11
-1.97768e-11
-2.0653e-11
-1.91925e-11
-1.66188e-11
-1.85604e-11
-1.19395e-11
-1.78737e-11
-6.75206e-12
-1.71282e-11
-1.43528e-12
-1.63137e-11
3.98639e-12
-1.54634e-11
9.59496e-12
-1.47258e-11
1.30093e-11
-1.39836e-11
1.47932e-11
-1.31297e-11
1.41581e-11
-1.21162e-11
-1.20328e-11
8.76611e-12
1.74586e-11
3.16749e-11
4.31169e-11
5.2146e-11
5.90751e-11
6.41767e-11
6.76888e-11
6.98192e-11
7.07503e-11
7.06425e-11
6.9637e-11
6.78592e-11
6.542e-11
6.24186e-11
5.89435e-11
5.50742e-11
5.08827e-11
4.64338e-11
4.17868e-11
3.69957e-11
3.21105e-11
2.71771e-11
2.22384e-11
1.73343e-11
1.25027e-11
7.77922e-12
3.19806e-12
-1.20801e-12
-5.40701e-12
-9.36793e-12
-1.30599e-11
-1.64524e-11
-1.95145e-11
-2.22149e-11
-2.45215e-11
-2.64008e-11
-2.78176e-11
-2.87344e-11
-2.91112e-11
-2.89038e-11
-2.80642e-11
-2.65382e-11
-2.42677e-11
-2.11835e-11
-1.72507e-11
-1.2583e-11
-7.47151e-12
-1.35584e-12
5.52442e-12
9.13197e-12
-9.63366e-11
-5.71852e-11
-1.2169e-10
-6.16743e-11
-1.26225e-10
-6.36764e-11
-1.48832e-10
-5.09204e-11
-1.84573e-10
-4.19938e-11
-2.18383e-10
-3.21627e-11
-2.56807e-10
-1.51994e-11
-3.02177e-10
2.15392e-12
-3.50725e-10
1.86085e-11
-4.01047e-10
3.45462e-11
-4.48377e-10
4.92313e-11
-4.8668e-10
6.27121e-11
-5.16605e-10
7.50948e-11
-5.39184e-10
8.63861e-11
-5.55649e-10
9.65315e-11
-5.67171e-10
1.05485e-10
-5.74781e-10
1.13211e-10
-5.79416e-10
1.19694e-10
-5.8191e-10
1.24937e-10
-5.83005e-10
1.28959e-10
-5.83376e-10
1.31802e-10
-5.83653e-10
1.33521e-10
-5.84447e-10
1.34195e-10
-5.86358e-10
1.33916e-10
-5.89877e-10
1.32927e-10
-5.94176e-10
1.3114e-10
-5.997e-10
1.29663e-10
-6.06616e-10
1.27749e-10
-6.15204e-10
1.25355e-10
-6.25225e-10
1.22456e-10
-6.37667e-10
1.1917e-10
-6.52138e-10
1.15619e-10
-6.68032e-10
1.12028e-10
-6.85551e-10
1.08446e-10
-7.04777e-10
1.04821e-10
-7.26028e-10
1.0129e-10
-7.48604e-10
9.79825e-11
-7.72806e-10
9.50094e-11
-7.98743e-10
9.21553e-11
-8.26448e-10
8.94045e-11
-8.55906e-10
8.67722e-11
-8.87085e-10
8.42413e-11
-9.19948e-10
8.181e-11
-9.54385e-10
7.94388e-11
-9.90307e-10
7.71214e-11
-1.02758e-09
7.4821e-11
-1.06596e-09
7.25028e-11
-1.10525e-09
7.01205e-11
-1.14518e-09
6.76316e-11
6.47471e-11
-1.18528e-09
-2.40617e-10
-3.46045e-11
-2.76059e-10
-2.62322e-11
-3.20666e-10
-1.90695e-11
-3.62879e-10
-8.708e-12
-4.06975e-10
2.10274e-12
-4.52253e-10
1.3115e-11
-4.91246e-10
2.37936e-11
-5.23228e-10
3.41362e-11
-5.4871e-10
4.40909e-11
-5.6777e-10
5.36061e-11
-5.81128e-10
6.25894e-11
-5.89391e-10
7.09741e-11
-5.9301e-10
7.87145e-11
-5.92405e-10
8.57805e-11
-5.88025e-10
9.21517e-11
-5.80358e-10
9.78182e-11
-5.69925e-10
1.02778e-10
-5.57266e-10
1.07035e-10
-5.42931e-10
1.10602e-10
-5.27469e-10
1.13497e-10
-5.11415e-10
1.15747e-10
-4.95278e-10
1.17385e-10
-4.79534e-10
1.18451e-10
-4.64611e-10
1.18993e-10
-4.50748e-10
1.19064e-10
-4.38418e-10
1.1881e-10
-4.27029e-10
1.18274e-10
-4.16983e-10
1.17702e-10
-4.08522e-10
1.16894e-10
-4.01891e-10
1.15825e-10
-3.97247e-10
1.14526e-10
-3.94676e-10
1.13049e-10
-3.94133e-10
1.11484e-10
-3.95564e-10
1.09878e-10
-3.98924e-10
1.08181e-10
-4.04296e-10
1.06661e-10
-4.11426e-10
1.05112e-10
-4.1998e-10
1.03564e-10
-4.29881e-10
1.02056e-10
-4.41038e-10
1.00561e-10
-4.53286e-10
9.90204e-11
-4.66552e-10
9.75076e-11
-4.80688e-10
9.59456e-11
-4.95597e-10
9.43473e-11
-5.11135e-10
9.26598e-11
-5.27193e-10
9.08795e-11
-5.43729e-10
8.90382e-11
-5.60625e-10
8.70162e-11
-5.77715e-10
8.47221e-11
8.22953e-11
-5.95263e-10
-5.8687e-10
7.07761e-12
-6.25706e-10
1.26038e-11
-6.62888e-10
1.81123e-11
-6.95179e-10
2.35826e-11
-7.22086e-10
2.90098e-11
-7.43343e-10
3.43716e-11
-7.59183e-10
3.96345e-11
-7.69809e-10
4.47621e-11
-7.75436e-10
4.97177e-11
-7.76295e-10
5.44649e-11
-7.72681e-10
5.8975e-11
-7.64929e-10
6.32227e-11
-7.53402e-10
6.71874e-11
-7.38473e-10
7.08519e-11
-7.20525e-10
7.42033e-11
-6.99939e-10
7.72323e-11
-6.77095e-10
7.9934e-11
-6.52367e-10
8.23073e-11
-6.26118e-10
8.4353e-11
-5.98699e-10
8.60782e-11
-5.7043e-10
8.74781e-11
-5.41605e-10
8.85601e-11
-5.1255e-10
8.93951e-11
-4.83537e-10
8.99808e-11
-4.54884e-10
9.04107e-11
-4.26774e-10
9.07002e-11
-3.99366e-10
9.08659e-11
-3.72619e-10
9.09552e-11
-3.4668e-10
9.09557e-11
-3.21705e-10
9.08499e-11
-2.97801e-10
9.06218e-11
-2.74973e-10
9.0221e-11
-2.53302e-10
8.98129e-11
-2.32802e-10
8.93783e-11
-2.13563e-10
8.89413e-11
-1.95244e-10
8.83423e-11
-1.77756e-10
8.76243e-11
-1.61162e-10
8.69702e-11
-1.45376e-10
8.6271e-11
-1.30348e-10
8.55321e-11
-1.16005e-10
8.46774e-11
-1.01958e-10
8.34614e-11
-8.77993e-11
8.17865e-11
-7.38239e-11
8.03719e-11
-5.97681e-11
7.8604e-11
-4.55604e-11
7.66719e-11
-3.13449e-11
7.48227e-11
-1.7005e-11
7.26762e-11
-2.27626e-12
6.99934e-11
6.6853e-11
1.3166e-11
-8.52147e-10
2.49154e-11
-8.65155e-10
2.5611e-11
-8.73406e-10
2.63638e-11
-8.77011e-10
2.71878e-11
-8.76082e-10
2.80803e-11
-8.70745e-10
2.90351e-11
-8.61152e-10
3.00409e-11
-8.47469e-10
3.10791e-11
-8.29878e-10
3.21274e-11
-8.08517e-10
3.31032e-11
-7.83591e-10
3.40493e-11
-7.55339e-10
3.4971e-11
-7.24071e-10
3.59188e-11
-6.90086e-10
3.68669e-11
-6.53651e-10
3.77688e-11
-6.14991e-10
3.85717e-11
-5.74276e-10
3.92195e-11
-5.317e-10
3.97308e-11
-4.87449e-10
4.01021e-11
-4.41751e-10
4.03805e-11
-3.94867e-10
4.05939e-11
-3.46963e-10
4.06563e-11
-2.97924e-10
4.03567e-11
-2.48215e-10
4.02711e-11
-1.97938e-10
4.01342e-11
-1.47144e-10
3.99058e-11
-9.59524e-11
3.96747e-11
-4.44179e-11
3.94206e-11
7.35045e-12
3.91874e-11
5.93291e-11
3.88712e-11
1.11442e-10
3.85087e-11
1.63547e-10
3.81161e-11
2.15908e-10
3.74524e-11
2.686e-10
3.66865e-11