/*--------------------------------*- C++ -*----------------------------------*\
| =========                 |                                                 |
| \\      /  F ield         | OpenFOAM: The Open Source CFD Toolbox           |
|  \\    /   O peration     | Version:  2.4.0                                 |
|   \\  /    A nd           | Web:      www.OpenFOAM.org                      |
|    \\/     M anipulation  |                                                 |
\*---------------------------------------------------------------------------*/
FoamFile
{
    version     2.0;
    format      ascii;
    class       volScalarField;
    location    "0.3";
    object      H;
}
// * * * * * * * * * * * * * * * * * * * * * * * * * * * * * * * * * * * * * //

dimensions      [0 2 -2 0 0 0 0];

internalField   nonuniform List<scalar> 
8000
(
-11739.8
-10764.5
-9803.81
-8867.14
-7963.06
-7099.21
-6282.1
-5516.97
-4807.71
-4156.84
-3565.53
-3033.71
-2560.19
-2142.78
-1778.5
-1463.77
-1194.53
-966.516
-775.316
-616.576
-486.086
-379.875
-294.277
-225.967
-171.987
-129.748
-97.0174
-71.9016
-52.8154
-38.4516
-27.7456
-19.8428
-14.0649
-9.88095
-6.88003
-4.74803
-3.24768
-2.20177
-1.47949
-0.985366
-0.650458
-0.425548
-0.275861
-0.177086
-0.11238
-0.070173
-0.0425449
-0.0240514
-0.0108595
-0.000100146
-11739.8
-10764.5
-9803.82
-8867.15
-7963.07
-7099.23
-6282.12
-5517
-4807.75
-4156.88
-3565.57
-3033.76
-2560.24
-2142.83
-1778.56
-1463.82
-1194.59
-966.569
-775.366
-616.623
-486.129
-379.914
-294.311
-225.997
-172.014
-129.771
-97.0366
-71.9176
-52.8287
-38.4623
-27.7543
-19.8497
-14.0703
-9.88514
-6.88324
-4.75047
-3.2495
-2.20312
-1.48048
-0.986084
-0.650973
-0.425912
-0.276117
-0.177263
-0.112501
-0.0702547
-0.0425986
-0.0240844
-0.0108759
-0.000100321
-11739.8
-10764.5
-9803.83
-8867.16
-7963.09
-7099.25
-6282.16
-5517.05
-4807.8
-4156.94
-3565.64
-3033.83
-2560.32
-2142.91
-1778.64
-1463.9
-1194.67
-966.643
-775.437
-616.688
-486.189
-379.969
-294.36
-226.04
-172.051
-129.802
-97.0634
-71.9399
-52.847
-38.4773
-27.7663
-19.8592
-14.0778
-9.89091
-6.88766
-4.75381
-3.252
-2.20497
-1.48184
-0.987064
-0.651674
-0.426408
-0.276464
-0.177503
-0.112666
-0.0703654
-0.042671
-0.0241289
-0.0108979
-0.000100557
-11739.8
-10764.5
-9803.84
-8867.18
-7963.12
-7099.29
-6282.21
-5517.1
-4807.87
-4157.02
-3565.73
-3033.93
-2560.42
-2143.02
-1778.75
-1464.01
-1194.77
-966.745
-775.533
-616.778
-486.271
-380.042
-294.426
-226.098
-172.101
-129.845
-97.0993
-71.9698
-52.8716
-38.4972
-27.7823
-19.8718
-14.0877
-9.89856
-6.89351
-4.75823
-3.2553
-2.20741
-1.48362
-0.98835
-0.652593
-0.427058
-0.276919
-0.177817
-0.11288
-0.0705093
-0.0427651
-0.0241864
-0.0109262
-0.00010086
-11739.9
-10764.5
-9803.85
-8867.21
-7963.15
-7099.34
-6282.27
-5517.18
-4807.96
-4157.12
-3565.85
-3034.06
-2560.56
-2143.16
-1778.89
-1464.15
-1194.91
-966.877
-775.658
-616.894
-486.377
-380.138
-294.511
-226.172
-172.165
-129.9
-97.1454
-72.0081
-52.903
-38.5226
-27.8026
-19.8879
-14.1002
-9.90827
-6.90092
-4.76382
-3.25947
-2.21048
-1.48586
-0.989968
-0.653747
-0.427873
-0.277487
-0.17821
-0.113148
-0.0706887
-0.042882
-0.0242578
-0.0109612
-0.000101233
-11739.9
-10764.5
-9803.87
-8867.24
-7963.2
-7099.4
-6282.35
-5517.28
-4808.08
-4157.26
-3566
-3034.22
-2560.73
-2143.33
-1779.07
-1464.33
-1195.08
-967.042
-775.813
-617.038
-486.508
-380.256
-294.615
-226.264
-172.244
-129.967
-97.2019
-72.0549
-52.9413
-38.5536
-27.8274
-19.9075
-14.1155
-9.92002
-6.90987
-4.77056
-3.26449
-2.21418
-1.48855
-0.991906
-0.655127
-0.428845
-0.278165
-0.178676
-0.113465
-0.0709012
-0.0430202
-0.0243418
-0.0110021
-0.000101665
-11739.9
-10764.5
-9803.9
-8867.28
-7963.26
-7099.48
-6282.45
-5517.41
-4808.23
-4157.42
-3566.18
-3034.42
-2560.93
-2143.55
-1779.28
-1464.54
-1195.29
-967.237
-775.996
-617.207
-486.663
-380.395
-294.738
-226.371
-172.336
-130.045
-97.2674
-72.1091
-52.9856
-38.5893
-27.8558
-19.9299
-14.1329
-9.93344
-6.92007
-4.77823
-3.27019
-2.21837
-1.49159
-0.994092
-0.656682
-0.429938
-0.278925
-0.179199
-0.11382
-0.0711379
-0.0431736
-0.0244345
-0.0110471
-0.00010213
-11739.9
-10764.5
-9803.93
-8867.33
-7963.33
-7099.58
-6282.57
-5517.55
-4808.39
-4157.61
-3566.38
-3034.64
-2561.16
-2143.78
-1779.52
-1464.77
-1195.51
-967.453
-776.199
-617.394
-486.832
-380.547
-294.872
-226.487
-172.436
-130.13
-97.3382
-72.1675
-53.0332
-38.6276
-27.8863
-19.9538
-14.1515
-9.94767
-6.93086
-4.78631
-3.27618
-2.22276
-1.49477
-0.996372
-0.658298
-0.431071
-0.279711
-0.179738
-0.114184
-0.0713801
-0.0433297
-0.0245282
-0.0110919
-0.000102576
-11739.9
-10764.6
-9803.97
-8867.39
-7963.41
-7099.68
-6282.7
-5517.7
-4808.57
-4157.81
-3566.6
-3034.87
-2561.4
-2144.03
-1779.76
-1465.01
-1195.75
-967.674
-776.405
-617.583
-487.004
-380.699
-295.006
-226.603
-172.535
-130.214
-97.408
-72.2248
-53.0797
-38.6649
-27.9158
-19.9768
-14.1693
-9.96127
-6.94112
-4.79397
-3.28183
-2.22687
-1.49774
-0.998488
-0.65979
-0.432112
-0.280429
-0.180227
-0.114513
-0.0715972
-0.043468
-0.0246099
-0.01113
-0.000102922
-11739.9
-10764.6
-9804.01
-8867.45
-7963.49
-7099.78
-6282.83
-5517.85
-4808.74
-4158
-3566.81
-3035.09
-2561.63
-2144.26
-1779.99
-1465.24
-1195.96
-967.878
-776.594
-617.756
-487.159
-380.837
-295.126
-226.707
-172.623
-130.287
-97.4687
-72.2744
-53.1196
-38.6966
-27.9407
-19.9962
-14.1841
-9.97248
-6.9495
-4.80017
-3.28636
-2.23014
-1.50008
-1.00014
-0.660942
-0.432907
-0.280971
-0.180592
-0.114755
-0.0717528
-0.043564
-0.0246637
-0.0111533
-0.000103083
-11739.9
-10764.6
-9804.05
-8867.51
-7963.57
-7099.88
-6282.95
-5517.99
-4808.9
-4158.17
-3567
-3035.28
-2561.83
-2144.46
-1780.19
-1465.43
-1196.14
-968.046
-776.749
-617.895
-487.283
-380.946
-295.22
-226.787
-172.69
-130.342
-97.5137
-72.3106
-53.1483
-38.7191
-27.958
-20.0093
-14.194
-9.97983
-6.95488
-4.80405
-3.28913
-2.2321
-1.50144
-1.00107
-0.661572
-0.433327
-0.281246
-0.180768
-0.114862
-0.0718127
-0.0435907
-0.0246685
-0.0111487
-0.000102966
-11739.9
-10764.6
-9804.1
-8867.57
-7963.65
-7099.97
-6283.05
-5518.11
-4809.03
-4158.31
-3567.14
-3035.43
-2561.98
-2144.6
-1780.33
-1465.56
-1196.26
-968.153
-776.843
-617.977
-487.353
-381.004
-295.268
-226.825
-172.72
-130.366
-97.5316
-72.3237
-53.1577
-38.7256
-27.9624
-20.0121
-14.1956
-9.98068
-6.95523
-4.80409
-3.28899
-2.23187
-1.50118
-1.00082
-0.66135
-0.433136
-0.281086
-0.180633
-0.114744
-0.0717012
-0.043476
-0.0245517
-0.0110595
-0.000101988
-11739.9
-10764.7
-9804.13
-8867.61
-7963.7
-7100.03
-6283.11
-5518.17
-4809.08
-4158.36
-3567.18
-3035.46
-2562
-2144.61
-1780.32
-1465.54
-1196.24
-968.123
-776.807
-617.936
-487.309
-380.959
-295.223
-226.781
-172.678
-130.327
-97.4961
-72.2921
-53.13
-38.7018
-27.9422
-19.9953
-14.1819
-9.96956
-6.94637
-4.79713
-3.28359
-2.22774
-1.49807
-0.998501
-0.659638
-0.431885
-0.280172
-0.179957
-0.114218
-0.0712438
-0.0430108
-0.024042
-0.0106219
-9.77171e-05
-11739.9
-10764.7
-9804.14
-8867.62
-7963.69
-7100.01
-6283.06
-5518.09
-4808.98
-4158.23
-3567.02
-3035.27
-2561.78
-2144.38
-1780.08
-1465.29
-1195.98
-967.865
-776.555
-617.695
-487.082
-380.748
-295.03
-226.608
-172.526
-130.194
-97.3814
-72.1948
-53.0486
-38.6345
-27.8874
-19.9512
-14.1468
-9.94207
-6.92507
-4.78083
-3.27127
-2.21854
-1.49127
-0.993536
-0.656048
-0.429306
-0.278317
-0.178589
-0.113127
-0.070205
-0.0417555
-0.0223241
-0.00868679
-8.00654e-05
-11739.9
-10764.7
-9804.11
-8867.56
-7963.59
-7099.85
-6282.85
-5517.83
-4808.65
-4157.84
-3566.58
-3034.79
-2561.26
-2143.83
-1779.52
-1464.72
-1195.42
-967.324
-776.039
-617.211
-486.635
-380.341
-294.666
-226.286
-172.245
-129.952
-97.1765
-72.0233
-52.9068
-38.5188
-27.7942
-19.877
-14.0885
-9.89677
-6.89031
-4.75446
-3.25151
-2.20389
-1.48054
-0.985759
-0.650463
-0.425316
-0.275451
-0.176462
-0.111381
-0.0684258
-0.0392997
-0.0180068
-0.000165566
-1.56615e-06
-11739.9
-10764.6
-9804.02
-8867.41
-7963.36
-7099.54
-6282.45
-5517.32
-4808.05
-4157.15
-3565.81
-3033.95
-2560.38
-2142.92
-1778.59
-1463.8
-1194.52
-966.457
-775.22
-616.449
-485.936
-379.71
-294.104
-225.793
-171.818
-129.588
-96.8694
-71.7677
-52.6969
-38.3486
-27.6577
-19.769
-14.0041
-9.83153
-6.84049
-4.71687
-3.22347
-2.18321
-1.46546
-0.974872
-0.642675
-0.419776
-0.2715
-0.173582
-0.109175
-0.0666221
-0.0378285
-0.0170798
-0.000156597
-1.51641e-06
-11739.9
-10764.5
-9803.86
-8867.15
-7962.99
-7099.04
-6281.81
-5516.55
-4807.14
-4156.12
-3564.67
-3032.73
-2559.09
-2141.59
-1777.25
-1462.48
-1193.23
-965.226
-774.061
-615.376
-484.957
-378.83
-293.324
-225.112
-171.23
-129.088
-96.4495
-71.4197
-52.412
-38.1183
-27.4739
-19.624
-13.8911
-9.74452
-6.77428
-4.66707
-3.18643
-2.15599
-1.44566
-0.960628
-0.632522
-0.41259
-0.266424
-0.169976
-0.106572
-0.0647071
-0.0364294
-0.016205
-0.000148608
-1.50548e-06
-11739.8
-10764.4
-9803.61
-8866.76
-7962.46
-7098.34
-6280.93
-5515.48
-4805.9
-4154.72
-3563.13
-3031.08
-2557.37
-2139.83
-1775.48
-1460.73
-1191.54
-963.609
-772.545
-613.976
-483.684
-377.689
-292.315
-224.232
-170.474
-128.446
-95.9123
-70.9755
-52.0495
-37.826
-27.2411
-19.4409
-13.7487
-9.63518
-6.69128
-4.60479
-3.14024
-2.12211
-1.42109
-0.942992
-0.619984
-0.403739
-0.260186
-0.165535
-0.103297
-0.0620633
-0.0338828
-0.0135693
-0.000124333
-1.35787e-06
-11739.8
-10764.2
-9803.27
-8866.26
-7961.75
-7097.42
-6279.78
-5514.12
-4804.32
-4152.95
-3561.2
-3029.02
-2555.22
-2137.63
-1773.28
-1458.56
-1189.44
-961.617
-770.681
-612.258
-482.124
-376.294
-291.085
-223.162
-169.556
-127.668
-95.2622
-70.4391
-51.6124
-37.4743
-26.9616
-19.2215
-13.5785
-9.50469
-6.59242
-4.53077
-3.08545
-2.08201
-1.39206
-0.9222
-0.605221
-0.393311
-0.252789
-0.160133
-0.0989692
-0.0576685
-0.0272045
-0.000250008
-2.33579e-06
-1.7603e-06
-11739.7
-10764
-9802.84
-8865.61
-7960.87
-7096.29
-6278.39
-5512.46
-4802.42
-4150.82
-3558.88
-3026.56
-2552.66
-2135.02
-1770.67
-1456
-1186.97
-959.269
-768.487
-610.24
-480.295
-374.66
-289.646
-221.912
-168.485
-126.763
-94.5062
-69.8163
-51.1057
-37.0673
-26.6387
-18.9683
-13.3825
-9.3547
-6.47901
-4.44601
-3.02283
-2.03627
-1.35902
-0.898566
-0.588455
-0.381454
-0.244328
-0.153865
-0.0939197
-0.053231
-0.0238904
-0.000218929
-2.07464e-06
-1.78594e-06
-1.96793e-05
-1.62989e-05
-1.4509e-05
-1.29041e-05
-1.14677e-05
-1.01837e-05
-9.03685e-06
-8.01311e-06
-7.09999e-06
-6.28614e-06
-5.56131e-06
-4.91625e-06
-4.34265e-06
-3.833e-06
-3.38051e-06
-2.9791e-06
-2.62333e-06
-2.30822e-06
-2.0294e-06
-1.78285e-06
-1.56507e-06
-1.37278e-06
-1.20321e-06
-1.05377e-06
-9.22174e-07
-8.06393e-07
-7.04589e-07
-6.15186e-07
-5.36707e-07
-4.67868e-07
-4.07559e-07
-3.54775e-07
-3.0857e-07
-2.68182e-07
-2.32889e-07
-2.02109e-07
-1.75266e-07
-1.51868e-07
-1.31481e-07
-1.13778e-07
-9.83811e-08
-8.49922e-08
-7.33663e-08
-6.33062e-08
-5.45614e-08
-4.70089e-08
-4.04662e-08
-3.47752e-08
-2.99426e-08
-2.57047e-08
-1.81334e-05
-1.46506e-05
-1.30847e-05
-1.16752e-05
-1.04088e-05
-9.27224e-06
-8.25311e-06
-7.33992e-06
-6.52245e-06
-5.79118e-06
-5.1376e-06
-4.55397e-06
-4.03323e-06
-3.56906e-06
-3.15562e-06
-2.78772e-06
-2.46062e-06
-2.17009e-06
-1.91227e-06
-1.68364e-06
-1.48112e-06
-1.30188e-06
-1.14335e-06
-1.00332e-06
-8.79695e-07
-7.70696e-07
-6.74604e-07
-5.90026e-07
-5.15599e-07
-4.50252e-07
-3.9285e-07
-3.42457e-07
-2.98297e-07
-2.59643e-07
-2.25819e-07
-1.96208e-07
-1.7039e-07
-1.47817e-07
-1.28145e-07
-1.10998e-07
-9.60949e-08
-8.30989e-08
-7.18175e-08
-6.20358e-08
-5.35208e-08
-4.615e-08
-3.97694e-08
-3.42323e-08
-2.94566e-08
-2.5314e-08
-1.6323e-05
-1.2858e-05
-1.1524e-05
-1.03189e-05
-9.23164e-06
-8.2518e-06
-7.36954e-06
-6.57585e-06
-5.86244e-06
-5.22182e-06
-4.64706e-06
-4.13182e-06
-3.67038e-06
-3.2576e-06
-2.88857e-06
-2.55907e-06
-2.26508e-06
-2.00306e-06
-1.76979e-06
-1.56225e-06
-1.37781e-06
-1.21405e-06
-1.06881e-06
-9.40144e-07
-8.26193e-07
-7.25415e-07
-6.36339e-07
-5.57756e-07
-4.88419e-07
-4.27362e-07
-3.73576e-07
-3.26282e-07
-2.84733e-07
-2.483e-07
-2.16293e-07
-1.88258e-07
-1.63717e-07
-1.42293e-07
-1.23529e-07
-1.07155e-07
-9.29066e-08
-8.04472e-08
-6.96363e-08
-6.02126e-08
-5.2016e-08
-4.48977e-08
-3.87362e-08
-3.33837e-08
-2.87668e-08
-2.4755e-08
-1.4385e-05
-1.10648e-05
-9.94964e-06
-8.93933e-06
-8.02455e-06
-7.197e-06
-6.44905e-06
-5.7736e-06
-5.16421e-06
-4.61492e-06
-4.12021e-06
-3.67512e-06
-3.27507e-06
-2.91576e-06
-2.59351e-06
-2.30463e-06
-2.046e-06
-1.81471e-06
-1.60798e-06
-1.42351e-06
-1.25897e-06
-1.11242e-06
-9.81977e-07
-8.66023e-07
-7.63032e-07
-6.71673e-07
-5.90693e-07
-5.1899e-07
-4.55563e-07
-3.99491e-07
-3.50041e-07
-3.06403e-07
-2.67957e-07
-2.34126e-07
-2.04367e-07
-1.78249e-07
-1.55321e-07
-1.35241e-07
-1.1761e-07
-1.02234e-07
-8.87472e-08
-7.69931e-08
-6.6743e-08
-5.78266e-08
-5.0009e-08
-4.32394e-08
-3.73481e-08
-3.22509e-08
-2.78019e-08
-2.39422e-08
-1.24768e-05
-9.39845e-06
-8.47359e-06
-7.63471e-06
-6.87316e-06
-6.18237e-06
-5.55615e-06
-4.989e-06
-4.47573e-06
-4.01166e-06
-3.59238e-06
-3.21396e-06
-2.87272e-06
-2.56529e-06
-2.28857e-06
-2.03978e-06
-1.81626e-06
-1.61567e-06
-1.43585e-06
-1.27482e-06
-1.13072e-06
-1.00196e-06
-8.86938e-07
-7.8441e-07
-6.93039e-07
-6.11675e-07
-5.39367e-07
-4.75136e-07
-4.18143e-07
-3.67618e-07
-3.2289e-07
-2.83361e-07
-2.48371e-07
-2.1752e-07
-1.90307e-07
-1.66384e-07
-1.4528e-07
-1.26737e-07
-1.10494e-07
-9.61974e-08
-8.37217e-08
-7.27377e-08
-6.31873e-08
-5.48235e-08
-4.75232e-08
-4.11407e-08
-3.56109e-08
-3.07848e-08
-2.65962e-08
-2.29387e-08
-1.07301e-05
-7.94261e-06
-7.173e-06
-6.47537e-06
-5.84133e-06
-5.2654e-06
-4.74249e-06
-4.26805e-06
-3.83794e-06
-3.44823e-06
-3.09542e-06
-2.77631e-06
-2.48785e-06
-2.22733e-06
-1.9923e-06
-1.7804e-06
-1.58955e-06
-1.41783e-06
-1.2634e-06
-1.12476e-06
-1.00032e-06
-8.88832e-07
-7.88946e-07
-6.99623e-07
-6.19762e-07
-5.48493e-07
-4.84939e-07
-4.28326e-07
-3.77911e-07
-3.33106e-07
-2.93331e-07
-2.58049e-07
-2.26772e-07
-1.99077e-07
-1.74624e-07
-1.52985e-07
-1.33946e-07
-1.171e-07
-1.02294e-07
-8.93004e-08
-7.78556e-08
-6.78166e-08
-5.90019e-08
-5.12987e-08
-4.45629e-08
-3.86659e-08
-3.35392e-08
-2.9021e-08
-2.51267e-08
-2.17193e-08
-9.22581e-06
-6.73364e-06
-6.08398e-06
-5.4969e-06
-4.96364e-06
-4.4792e-06
-4.03932e-06
-3.64013e-06
-3.27802e-06
-2.94975e-06
-2.65231e-06
-2.38296e-06
-2.13927e-06
-1.91891e-06
-1.71979e-06
-1.54002e-06
-1.37783e-06
-1.23162e-06
-1.09992e-06
-9.81396e-07
-8.74854e-07
-7.79138e-07
-6.9323e-07
-6.16186e-07
-5.47212e-07
-4.85413e-07
-4.30228e-07
-3.80929e-07
-3.36924e-07
-2.97705e-07
-2.62796e-07
-2.31742e-07
-2.04138e-07
-1.79679e-07
-1.57939e-07
-1.38719e-07
-1.21739e-07
-1.06655e-07
-9.34437e-08
-8.1711e-08
-7.14035e-08
-6.23424e-08
-5.43572e-08
-4.73787e-08
-4.12065e-08
-3.58518e-08
-3.11584e-08
-2.70224e-08
-2.34248e-08
-2.03028e-08
-7.99462e-06
-5.77206e-06
-5.21028e-06
-4.70632e-06
-4.24921e-06
-3.83458e-06
-3.45855e-06
-3.11764e-06
-2.80869e-06
-2.52877e-06
-2.27531e-06
-2.04586e-06
-1.83829e-06
-1.65059e-06
-1.48096e-06
-1.3278e-06
-1.18951e-06
-1.06473e-06
-9.52355e-07
-8.5106e-07
-7.59912e-07
-6.7794e-07
-6.04267e-07
-5.38102e-07
-4.78763e-07
-4.25543e-07
-3.77903e-07
-3.35265e-07
-2.97159e-07
-2.63118e-07
-2.32766e-07
-2.057e-07
-1.81611e-07
-1.60155e-07
-1.41132e-07
-1.24214e-07
-1.09239e-07
-9.59362e-08
-8.4218e-08
-7.38078e-08
-6.46511e-08
-5.65504e-08
-4.9418e-08
-4.31664e-08
-3.76526e-08
-3.28103e-08
-2.85451e-08
-2.48467e-08
-2.15568e-08
-1.87171e-08
-7.03327e-06
-5.03741e-06
-4.53715e-06
-4.09306e-06
-3.69125e-06
-3.32762e-06
-2.99859e-06
-2.70086e-06
-2.4316e-06
-2.18812e-06
-1.96796e-06
-1.76908e-06
-1.58934e-06
-1.42706e-06
-1.28056e-06
-1.14837e-06
-1.02916e-06
-9.21658e-07
-8.24834e-07
-7.37652e-07
-6.59185e-07
-5.88583e-07
-5.25184e-07
-4.68171e-07
-4.17069e-07
-3.71173e-07
-3.30048e-07
-2.93246e-07
-2.60312e-07
-2.30818e-07
-2.04555e-07
-1.81051e-07
-1.60126e-07
-1.41494e-07
-1.24865e-07
-1.10099e-07
-9.70365e-08
-8.53725e-08
-7.5083e-08
-6.59271e-08
-5.78508e-08
-5.07375e-08
-4.44096e-08
-3.88626e-08
-3.39641e-08
-2.96397e-08
-2.58785e-08
-2.25377e-08
-1.96171e-08
-1.70535e-08
-6.33435e-06
-4.51067e-06
-4.04917e-06
-3.6447e-06
-3.27975e-06
-2.9504e-06
-2.65328e-06
-2.38527e-06
-2.14359e-06
-1.92567e-06
-1.72926e-06
-1.55223e-06
-1.39275e-06
-1.2491e-06
-1.11972e-06
-1.00325e-06
-8.98425e-07
-8.04123e-07
-7.19333e-07
-6.43072e-07
-5.74539e-07
-5.13005e-07
-4.57758e-07
-4.08163e-07
-3.63672e-07
-3.23808e-07
-2.8811e-07
-2.56117e-07
-2.27527e-07
-2.01955e-07
-1.79084e-07
-1.58704e-07
-1.40502e-07
-1.24281e-07
-1.09852e-07
-9.69756e-08
-8.55777e-08
-7.54185e-08
-6.63926e-08
-5.84153e-08
-5.1325e-08
-4.51043e-08
-3.95327e-08
-3.46442e-08
-3.03281e-08
-2.65375e-08
-2.31788e-08
-2.02222e-08
-1.7647e-08
-1.53595e-08
-5.92907e-06
-4.19847e-06
-3.74964e-06
-3.36107e-06
-3.01251e-06
-2.6997e-06
-2.41903e-06
-2.16714e-06
-1.94115e-06
-1.73838e-06
-1.55647e-06
-1.39323e-06
-1.24681e-06
-1.11543e-06
-9.97635e-07
-8.91954e-07
-7.9716e-07
-7.1224e-07
-6.36033e-07
-5.67779e-07
-5.06613e-07
-4.51786e-07
-4.02725e-07
-3.58793e-07
-3.19446e-07
-2.84272e-07
-2.52806e-07
-2.24679e-07
-1.99565e-07
-1.77087e-07
-1.57113e-07
-1.39207e-07
-1.23302e-07
-1.0912e-07
-9.64731e-08
-8.52525e-08
-7.52333e-08
-6.63802e-08
-5.84765e-08
-5.14832e-08
-4.53287e-08
-3.98333e-08
-3.49867e-08
-3.06818e-08
-2.68872e-08
-2.35444e-08
-2.06052e-08
-1.80244e-08
-1.57224e-08
-1.37157e-08
-5.77146e-06
-4.0638e-06
-3.60657e-06
-3.2134e-06
-2.86357e-06
-2.55224e-06
-2.27518e-06
-2.02847e-06
-1.80873e-06
-1.61293e-06
-1.43834e-06
-1.28259e-06
-1.14368e-06
-1.01969e-06
-9.0902e-07
-8.10201e-07
-7.22026e-07
-6.43277e-07
-5.73002e-07
-5.10217e-07
-4.5422e-07
-4.04219e-07
-3.59584e-07
-3.19737e-07
-2.84222e-07
-2.52536e-07
-2.24273e-07
-1.99081e-07
-1.76588e-07
-1.56581e-07
-1.38775e-07
-1.22901e-07
-1.08786e-07
-9.61922e-08
-8.50688e-08
-7.51018e-08
-6.63007e-08
-5.84967e-08
-5.15297e-08
-4.54204e-08
-3.99562e-08
-3.51304e-08
-3.08649e-08
-2.70895e-08
-2.37706e-08
-2.08237e-08
-1.82291e-08
-1.59703e-08
-1.39421e-08
-1.21581e-08
-5.68313e-06
-3.9568e-06
-3.47302e-06
-3.06466e-06
-2.70973e-06
-2.40015e-06
-2.1292e-06
-1.89112e-06
-1.68116e-06
-1.49541e-06
-1.33068e-06
-1.18429e-06
-1.05405e-06
-9.38073e-07
-8.34676e-07
-7.42551e-07
-6.60425e-07
-5.87251e-07
-5.22037e-07
-4.63952e-07
-4.1221e-07
-3.661e-07
-3.25061e-07
-2.8853e-07
-2.56009e-07
-2.27071e-07
-2.01306e-07
-1.78395e-07
-1.58021e-07
-1.39884e-07
-1.23831e-07
-1.09492e-07
-9.68104e-08
-8.55413e-08
-7.55462e-08
-6.66486e-08
-5.87823e-08
-5.18228e-08
-4.56426e-08
-4.01896e-08
-3.53672e-08
-3.10531e-08
-2.72991e-08
-2.39423e-08
-2.10109e-08
-1.84319e-08
-1.61185e-08
-1.41306e-08
-1.23208e-08
-1.07941e-08
-5.02159e-06
-3.4144e-06
-2.93946e-06
-2.56134e-06
-2.25101e-06
-1.9921e-06
-1.77239e-06
-1.58298e-06
-1.41725e-06
-1.27056e-06
-1.13951e-06
-1.02179e-06
-9.1568e-07
-8.19893e-07
-7.33391e-07
-6.55406e-07
-5.85113e-07
-5.21915e-07
-4.65115e-07
-4.14215e-07
-3.68588e-07
-3.27789e-07
-2.91316e-07
-2.58722e-07
-2.29639e-07
-2.03736e-07
-1.80584e-07
-1.60015e-07
-1.41724e-07
-1.25401e-07
-1.10907e-07
-9.80503e-08
-8.66044e-08
-7.6484e-08
-6.74491e-08
-5.95129e-08
-5.24355e-08
-4.61793e-08
-4.06653e-08
-3.57471e-08
-3.14342e-08
-2.76286e-08
-2.42482e-08
-2.1267e-08
-1.86445e-08
-1.63334e-08
-1.43108e-08
-1.24999e-08
-1.09421e-08
-9.55249e-09
-1.45626e-06
-1.1337e-06
-1.11331e-06
-1.0899e-06
-1.06142e-06
-1.02747e-06
-9.88005e-07
-9.43259e-07
-8.94047e-07
-8.41359e-07
-7.8632e-07
-7.30223e-07
-6.74184e-07
-6.19136e-07
-5.66026e-07
-5.1538e-07
-4.67613e-07
-4.23024e-07
-3.81677e-07
-3.43597e-07
-3.08699e-07
-2.76861e-07
-2.47888e-07
-2.21643e-07
-1.9788e-07
-1.76431e-07
-1.57138e-07
-1.39742e-07
-1.24185e-07
-1.10243e-07
-9.77523e-08
-8.65797e-08
-7.66153e-08
-6.77633e-08
-5.98253e-08
-5.2871e-08
-4.65842e-08
-4.1068e-08
-3.61412e-08
-3.17904e-08
-2.79898e-08
-2.45413e-08
-2.1577e-08
-1.89038e-08
-1.65809e-08
-1.45331e-08
-1.27044e-08
-1.1116e-08
-9.70221e-09
-8.49485e-09
-1.34918e-06
-9.97036e-07
-9.19325e-07
-8.52023e-07
-7.92563e-07
-7.39295e-07
-6.9087e-07
-6.46182e-07
-6.04463e-07
-5.65097e-07
-5.27665e-07
-4.91907e-07
-4.57634e-07
-4.24798e-07
-3.93372e-07
-3.63289e-07
-3.34701e-07
-3.07505e-07
-2.81778e-07
-2.57534e-07
-2.34776e-07
-2.13526e-07
-1.93671e-07
-1.75297e-07
-1.58293e-07
-1.4264e-07
-1.28301e-07
-1.15133e-07
-1.03141e-07
-9.2218e-08
-8.23675e-08
-7.3421e-08
-6.53544e-08
-5.80392e-08
-5.15385e-08
-4.56795e-08
-4.04405e-08
-3.57266e-08
-3.15748e-08
-2.78358e-08
-2.45405e-08
-2.15944e-08
-1.89781e-08
-1.66856e-08
-1.4644e-08
-1.2832e-08
-1.12479e-08
-9.83295e-09
-8.59894e-09
-7.51105e-09
-1.29622e-06
-9.60535e-07
-8.63973e-07
-7.79662e-07
-7.05533e-07
-6.40183e-07
-5.82298e-07
-5.30967e-07
-4.85182e-07
-4.4418e-07
-4.07328e-07
-3.74008e-07
-3.43693e-07
-3.16056e-07
-2.90688e-07
-2.67324e-07
-2.45748e-07
-2.25785e-07
-2.07245e-07
-1.89996e-07
-1.73977e-07
-1.59063e-07
-1.45223e-07
-1.32369e-07
-1.20397e-07
-1.09384e-07
-9.91455e-08
-8.9711e-08
-8.10392e-08
-7.30697e-08
-6.57509e-08
-5.90622e-08
-5.29739e-08
-4.74011e-08
-4.23604e-08
-3.77832e-08
-3.36765e-08
-2.99209e-08
-2.6589e-08
-2.35555e-08
-2.08726e-08
-1.84413e-08
-1.62919e-08
-1.43388e-08
-1.26535e-08
-1.11201e-08
-9.76345e-09
-8.56462e-09
-7.51888e-09
-6.57414e-09
-1.13928e-06
-8.93639e-07
-8.09715e-07
-7.30884e-07
-6.58166e-07
-5.91939e-07
-5.32302e-07
-4.78832e-07
-4.3114e-07
-3.88605e-07
-3.50788e-07
-3.1704e-07
-2.86959e-07
-2.60034e-07
-2.35979e-07
-2.14304e-07
-1.94869e-07
-1.77262e-07
-1.61377e-07
-1.46983e-07
-1.33847e-07
-1.21872e-07
-1.11016e-07
-1.01007e-07
-9.18701e-08
-8.35036e-08
-7.58307e-08
-6.87986e-08
-6.23332e-08
-5.6394e-08
-5.09775e-08
-4.6016e-08
-4.14752e-08
-3.73242e-08
-3.35469e-08
-3.00719e-08
-2.69416e-08
-2.40952e-08
-2.15254e-08
-1.91841e-08
-1.70858e-08
-1.51783e-08
-1.34813e-08
-1.1924e-08
-1.05704e-08
-9.33538e-09
-8.23457e-09
-7.25458e-09
-6.37078e-09
-5.61001e-09
-1.34089e-06
-1.04639e-06
-9.01426e-07
-7.81318e-07
-6.81448e-07
-5.9786e-07
-5.27119e-07
-4.66562e-07
-4.14197e-07
-3.68468e-07
-3.28356e-07
-2.9295e-07
-2.61664e-07
-2.33944e-07
-2.09405e-07
-1.87645e-07
-1.68325e-07
-1.51164e-07
-1.35894e-07
-1.22291e-07
-1.10179e-07
-9.93253e-08
-8.96068e-08
-8.09151e-08
-7.30834e-08
-6.60104e-08
-5.96696e-08
-5.38991e-08
-4.86784e-08
-4.39876e-08
-3.96773e-08
-3.5829e-08
-3.22903e-08
-2.90913e-08
-2.61611e-08
-2.35332e-08
-2.11424e-08
-1.89633e-08
-1.70024e-08
-1.51707e-08
-1.35852e-08
-1.21293e-08
-1.07935e-08
-9.62376e-09
-8.55045e-09
-7.5834e-09
-6.70113e-09
-5.96256e-09
-5.24074e-09
-4.63652e-09
-1.30785e-06
-1.10302e-06
-9.70366e-07
-8.52742e-07
-7.48678e-07
-6.5696e-07
-5.76208e-07
-5.05305e-07
-4.43215e-07
-3.88797e-07
-3.4127e-07
-2.9979e-07
-2.63513e-07
-2.31941e-07
-2.04361e-07
-1.80273e-07
-1.59295e-07
-1.40892e-07
-1.24848e-07
-1.10754e-07
-9.84003e-08
-8.7519e-08
-7.79647e-08
-6.95304e-08
-6.20886e-08
-5.54634e-08
-4.96496e-08
-4.44145e-08
-3.98193e-08
-3.56799e-08
-3.20184e-08
-2.86906e-08
-2.57352e-08
-2.30943e-08
-2.07423e-08
-1.85601e-08
-1.66398e-08
-1.49392e-08
-1.33609e-08
-1.19582e-08
-1.06937e-08
-9.56147e-09
-8.50816e-09
-7.63366e-09
-6.75295e-09
-6.02679e-09
-5.3365e-09
-4.76797e-09
-4.19158e-09
-3.75034e-09
-2.28748e-08
-2.10968e-08
-1.9387e-08
-1.78742e-08
-1.63999e-08
-1.50576e-08
-1.3866e-08
-1.26724e-08
-1.16721e-08
-1.06601e-08
-9.75049e-09
-8.92387e-09
-8.16419e-09
-7.46358e-09
-6.78697e-09
-6.24805e-09
-5.642e-09
-5.13734e-09
-4.67606e-09
-4.29193e-09
-3.91015e-09
-3.51621e-09
-3.18449e-09
-2.90517e-09
-2.62147e-09
-2.38724e-09
-2.13092e-09
-1.93356e-09
-1.76997e-09
-1.60409e-09
-1.42112e-09
-1.30701e-09
-1.18072e-09
-1.01375e-09
-9.1364e-10
-8.70947e-10
-7.5365e-10
-6.95748e-10
-5.72577e-10
-5.65281e-10
-4.73868e-10
-4.71271e-10
-3.71574e-10
-3.60819e-10
-2.91524e-10
-2.85168e-10
-2.56521e-10
-2.32244e-10
-1.62641e-10
-1.78748e-10
-1.8366e-10
-1.15956e-10
-1.52512e-10
-9.79013e-11
-6.42403e-11
-5.33912e-11
-6.87295e-11
-6.23821e-11
-2.93079e-11
-9.28643e-11
-1.22119e-11
-8.05564e-11
-1.608e-11
-8.29728e-11
-2.80603e-11
-4.9752e-11
-4.58052e-11
-3.25209e-11
-3.41252e-11
-8.4476e-12
1.83394e-12
2.96574e-12
1.56401e-12
3.6735e-13
-1.03034e-13
-1.41256e-13
-6.66416e-14
-1.40654e-14
2.90487e-15
3.54203e-15
1.35395e-15
2.59589e-16
5.51246e-17
6.46188e-17
4.45267e-17
5.05362e-18
-1.61704e-17
-1.5886e-17
-7.45622e-18
-8.41223e-19
1.6088e-18
1.46957e-18
6.43865e-19
6.60436e-20
-1.29977e-19
-1.13597e-19
-4.75295e-20
-3.84349e-21
9.90747e-21
8.07624e-21
3.11697e-21
9.20136e-23
-7.35526e-22
-5.29308e-22
-1.75725e-22
1.31698e-23
5.21022e-23
3.12589e-23
7.89142e-24
-2.35759e-24
-3.3819e-24
-1.59649e-24
-2.1934e-25
2.30268e-25
1.91785e-25
6.51026e-26
-3.46027e-27
-1.64272e-26
-8.94766e-27
-1.67919e-27
9.42247e-28
8.93582e-28
3.07734e-28
-1.30965e-29
-7.02692e-29
-3.57014e-29
-5.16711e-30
4.33188e-30
3.2989e-30
8.76412e-31
-1.83852e-31
-2.60824e-31
-9.67131e-32
5.62887e-34
1.81833e-32
8.77264e-33
9.41254e-34
-1.12293e-33
-6.9822e-34
-1.30442e-34
6.01449e-35
4.97536e-35
1.24391e-35
-2.64306e-36
-3.18011e-36
-9.61735e-37
8.39328e-38
1.81758e-37
6.23617e-38
-1.26605e-39
-9.31349e-39
-3.37894e-39
-2.37772e-42
4.37157e-40
1.47848e-40
-6.65509e-42
-1.98916e-41
-4.66276e-42
1.31623e-42
9.56169e-43
4.83086e-44
-1.39377e-43
-5.08105e-44
6.63434e-45
1.08096e-44
2.83468e-45
-6.65404e-46
-6.79427e-46
-1.52082e-46
4.16463e-47
3.62454e-47
7.4e-48
-2.11944e-48
-1.68218e-48
-3.17768e-49
9.45462e-50
6.88759e-50
1.18909e-50
-3.81038e-51
-2.50654e-51
-3.83919e-52
1.40189e-52
8.13114e-53
1.05353e-53
-4.70596e-54
-2.34958e-54
-2.38276e-55
1.43244e-55
6.02457e-56
4.10932e-57
-3.92061e-57
-1.36121e-57
-3.92916e-59
9.56487e-59
2.68064e-59
-5.13514e-61
-2.06215e-60
-4.52223e-61
3.69547e-62
3.89471e-62
6.33914e-63
-1.10102e-63
-6.38076e-64
-6.90861e-65
2.3701e-65
8.95404e-66
4.68058e-67
-4.0648e-67
-1.05606e-67
1.2067e-69
5.72727e-69
1.0118e-69
-9.79355e-71
-6.68243e-71
-7.27559e-72
1.81545e-72
6.41942e-73
2.88368e-74
-2.2852e-74
-4.96765e-75
1.36623e-76
2.21195e-76
2.92519e-77
-3.96952e-78
-1.69598e-78
-1.0778e-79
4.47435e-80
1.0221e-80
-7.24668e-83
-3.50532e-82
-4.58862e-83
4.93525e-84
2.08431e-84
1.23227e-85
-4.60545e-86
-9.41981e-87
1.35225e-88
2.7846e-88
2.97936e-89
-3.89751e-90
-1.22665e-90
-3.95452e-92
2.62258e-92
3.80334e-93
-2.2576e-94
-1.12229e-94
-6.02408e-96
1.93745e-96
3.13762e-97
-1.35038e-98
-7.81546e-99
-3.69084e-100
1.30762e-100
1.74008e-101
-1.35454e-102
-4.39589e-103
-2.41758e-105
8.53245e-105
5.81021e-106
-1.33149e-106
-1.96392e-107
1.4244e-108
4.73292e-109
1.86258e-111
-8.95379e-111
-6.04121e-112
1.2684e-112
1.90413e-113
-1.02073e-114
-3.92802e-115
-7.74962e-117
5.92656e-117
4.91065e-118
-6.1456e-119
-1.10951e-119
2.36345e-121
1.71367e-121
6.62495e-123
-1.9215e-123
-1.93239e-124
1.37464e-125
3.11028e-126
-5.21578e-130
-3.6027e-128
-1.81004e-129
3.03112e-130
3.37273e-131
-1.51128e-132
-4.03413e-133
-3.59956e-135
3.57561e-135
1.83386e-136
-2.32408e-137
-2.43309e-138
9.2184e-140
2.17429e-140
6.9728e-143
-1.46077e-142
-4.48414e-144
8.13825e-145
-2.25966e-08
-2.0776e-08
-1.91806e-08
-1.75954e-08
-1.61998e-08
-1.4911e-08
-1.36713e-08
-1.25337e-08
-1.15417e-08
-1.05283e-08
-9.62605e-09
-8.8667e-09
-8.09634e-09
-7.36287e-09
-6.75684e-09
-6.13074e-09
-5.61911e-09
-5.13855e-09
-4.64059e-09
-4.24474e-09
-3.85757e-09
-3.4875e-09
-3.18054e-09
-2.8778e-09
-2.62679e-09
-2.34576e-09
-2.15299e-09
-1.93393e-09
-1.74742e-09
-1.57946e-09
-1.41858e-09
-1.27717e-09
-1.18582e-09
-1.01293e-09
-9.0604e-10
-8.57864e-10
-7.6341e-10
-6.91547e-10
-5.80589e-10
-5.69747e-10
-4.8259e-10
-4.33775e-10
-4.07899e-10
-3.24861e-10
-3.19586e-10
-2.61152e-10
-2.62143e-10
-2.43811e-10
-1.7787e-10
-1.44044e-10
-1.4183e-10
-1.82077e-10
-1.32882e-10
-9.64348e-11
-5.68017e-11
-6.41426e-11
-8.13997e-11
-3.2023e-11
-5.95381e-11
-7.21516e-11
-3.21467e-11
-4.16031e-11
-7.29469e-11
-2.46333e-11
-6.81476e-11
-2.73507e-11
-4.19466e-11
-5.12346e-11
-3.33382e-11
-5.7858e-12
2.48948e-12
3.16474e-12
1.66698e-12
4.07589e-13
-9.90457e-14
-1.47842e-13
-7.15394e-14
-1.55347e-14
3.05392e-15
3.88435e-15
1.49423e-15
2.70783e-16
4.17197e-17
6.00382e-17
4.58331e-17
6.33218e-18
-1.61233e-17
-1.62435e-17
-7.64323e-18
-8.30059e-19
1.67406e-18
1.50492e-18
6.43772e-19
5.27236e-20
-1.40354e-19
-1.1715e-19
-4.6829e-20
-2.11313e-21
1.10523e-20
8.43606e-21
3.051e-21
-6.28098e-23
-8.32289e-22
-5.57449e-22
-1.69872e-22
2.4751e-23
5.86515e-23
3.28005e-23
7.29457e-24
-3.13112e-24
-3.741e-24
-1.64166e-24
-1.6286e-25
2.76103e-25
2.06871e-25
6.36868e-26
-7.78799e-27
-1.86933e-26
-9.30832e-27
-1.37947e-27
1.19837e-27
9.75504e-28
2.98466e-28
-3.62167e-29
-8.13222e-29
-3.69588e-29
-3.54192e-30
5.47883e-30
3.58435e-30
7.96522e-31
-2.82803e-31
-2.96353e-31
-9.55648e-32
8.02698e-33
2.17019e-32
9.09612e-33
4.3534e-34
-1.43034e-33
-7.53084e-34
-1.00283e-34
8.45245e-35
5.58986e-35
1.10175e-35
-4.37544e-36
-3.73771e-36
-9.26663e-37
1.91025e-37
2.23849e-37
6.41605e-38
-6.85161e-39
-1.19362e-38
-3.67183e-39
2.36753e-40
5.68522e-40
1.67503e-40
-1.49664e-41
-2.48027e-41
-5.32873e-42
1.57627e-42
1.05394e-42
3.3558e-44
-1.50865e-43
-4.746e-44
1.07657e-44
1.16678e-44
2.33796e-45
-1.03485e-45
-7.4551e-46
-1.18373e-46
6.53279e-47
4.04759e-47
5.64365e-48
-3.35787e-48
-1.90457e-48
-2.39157e-49
1.49991e-49
7.8642e-50
8.7201e-51
-5.98487e-51
-2.86937e-51
-2.66088e-52
2.15745e-52
9.27547e-53
6.47815e-54
-7.04236e-54
-2.6536e-54
-1.09521e-55
2.07531e-55
6.68756e-56
3.83289e-58
-5.48849e-57
-1.47165e-57
5.78675e-59
1.29293e-58
2.78581e-59
-2.77109e-60
-2.69009e-60
-4.41678e-61
8.32329e-62
4.89574e-62
5.5419e-63
-1.92997e-63
-7.70046e-64
-4.62863e-65
3.65414e-65
1.02933e-65
2.2933e-69
-5.76203e-67
-1.13715e-67
8.7479e-69
7.60333e-69
9.79776e-70
-1.97858e-70
-8.35311e-71
-5.50719e-72
2.90762e-72
7.51398e-73
-1.0203e-75
-3.26335e-74
-5.32065e-75
4.8441e-76
2.91222e-76
2.65503e-77
-7.09168e-78
-2.07084e-78
-4.91325e-80
6.68991e-80
1.13842e-80
-6.66511e-82
-4.7328e-82
-4.34405e-83
9.20158e-84
2.58086e-84
5.82474e-86
-6.93688e-86
-1.04993e-86
6.67153e-88
3.74447e-88
2.68631e-89
-6.82264e-90
-1.49165e-90
5.32787e-93
3.79335e-92
3.9803e-93
-4.89709e-94
-1.43962e-94
-3.1228e-96
2.94496e-96
3.45302e-97
-3.26308e-98
-1.01961e-98
-1.69267e-100
1.9669e-100
1.85102e-101
-2.60621e-102