/*--------------------------------*- C++ -*----------------------------------*\
| =========                 |                                                 |
| \\      /  F ield         | OpenFOAM: The Open Source CFD Toolbox           |
|  \\    /   O peration     | Version:  2.4.0                                 |
|   \\  /    A nd           | Web:      www.OpenFOAM.org                      |
|    \\/     M anipulation  |                                                 |
\*---------------------------------------------------------------------------*/
FoamFile
{
    version     2.0;
    format      ascii;
    class       surfaceScalarField;
    location    "0.3";
    object      phi;
}
// * * * * * * * * * * * * * * * * * * * * * * * * * * * * * * * * * * * * * //

dimensions      [0 3 -1 0 0 0 0];

internalField   nonuniform List<scalar> 
15580
(
1.65919e-16
-3.50419e-12
6.55666e-16
-1.03718e-11
1.46138e-15
-1.70986e-11
2.57564e-15
-2.36847e-11
3.99145e-15
-3.01301e-11
5.70235e-15
-3.64347e-11
7.70238e-15
-4.25987e-11
9.98606e-15
-4.86221e-11
1.25484e-14
-5.45049e-11
1.5385e-14
-6.02471e-11
1.84918e-14
-6.58488e-11
2.18653e-14
-7.13101e-11
2.55022e-14
-7.66308e-11
2.94002e-14
-8.18112e-11
3.3557e-14
-8.68511e-11
3.79709e-14
-9.17507e-11
4.26407e-14
-9.65099e-11
4.75658e-14
-1.01129e-10
5.27458e-14
-1.05608e-10
5.8181e-14
-1.09946e-10
6.38722e-14
-1.14144e-10
6.98206e-14
-1.18202e-10
7.60279e-14
-1.2212e-10
8.24964e-14
-1.25898e-10
8.92288e-14
-1.29535e-10
9.62287e-14
-1.33033e-10
1.035e-13
-1.3639e-10
1.11047e-13
-1.39608e-10
1.18874e-13
-1.42685e-10
1.26988e-13
-1.45623e-10
1.35395e-13
-1.4842e-10
1.44101e-13
-1.51078e-10
1.53115e-13
-1.53595e-10
1.62445e-13
-1.55973e-10
1.72099e-13
-1.58211e-10
1.82087e-13
-1.60309e-10
1.9242e-13
-1.62267e-10
2.0311e-13
-1.64085e-10
2.14167e-13
-1.65764e-10
2.25606e-13
-1.67302e-10
2.37439e-13
-1.68701e-10
2.49683e-13
-1.69961e-10
2.62351e-13
-1.7108e-10
2.75461e-13
-1.7206e-10
2.8903e-13
-1.72899e-10
3.03078e-13
-1.736e-10
3.17626e-13
-1.7416e-10
3.32698e-13
-1.74581e-10
3.48299e-13
-1.74862e-10
-1.75003e-10
3.63655e-13
2.58686e-16
-3.50445e-12
1.02077e-15
-1.03726e-11
2.2726e-15
-1.70999e-11
4.00125e-15
-2.36865e-11
6.19457e-15
-3.01323e-11
8.84122e-15
-3.64374e-11
1.19306e-14
-4.26018e-11
1.5453e-14
-4.86256e-11
1.93995e-14
-5.45088e-11
2.37616e-14
-6.02515e-11
2.8532e-14
-6.58536e-11
3.37039e-14
-7.13152e-11
3.9271e-14
-7.66364e-11
4.5228e-14
-8.18171e-11
5.15702e-14
-8.68574e-11
5.82937e-14
-9.17574e-11
6.53949e-14
-9.6517e-11
7.28714e-14
-1.01136e-10
8.07212e-14
-1.05615e-10
8.8943e-14
-1.09954e-10
9.75361e-14
-1.14153e-10
1.06501e-13
-1.18211e-10
1.15838e-13
-1.22129e-10
1.25548e-13
-1.25907e-10
1.35635e-13
-1.29545e-10
1.46101e-13
-1.33043e-10
1.56949e-13
-1.36401e-10
1.68185e-13
-1.39619e-10
1.79812e-13
-1.42697e-10
1.91838e-13
-1.45635e-10
2.04268e-13
-1.48433e-10
2.17111e-13
-1.51091e-10
2.30374e-13
-1.53609e-10
2.44067e-13
-1.55987e-10
2.582e-13
-1.58225e-10
2.72784e-13
-1.60323e-10
2.87831e-13
-1.62282e-10
3.03353e-13
-1.64101e-10
3.19363e-13
-1.6578e-10
3.35878e-13
-1.67319e-10
3.52913e-13
-1.68718e-10
3.70483e-13
-1.69978e-10
3.88608e-13
-1.71098e-10
4.07306e-13
-1.72078e-10
4.26596e-13
-1.72919e-10
4.46502e-13
-1.7362e-10
4.67045e-13
-1.74181e-10
4.88253e-13
-1.74602e-10
5.10139e-13
-1.74884e-10
-1.75026e-10
5.31929e-13
3.79949e-16
-3.50483e-12
1.49759e-15
-1.03737e-11
3.33148e-15
-1.71017e-11
5.86133e-15
-2.3689e-11
9.06806e-15
-3.01355e-11
1.29337e-14
-3.64413e-11
1.74416e-14
-4.26063e-11
2.25761e-14
-4.86308e-11
2.83227e-14
-5.45146e-11
3.46679e-14
-6.02578e-11
4.15995e-14
-6.58605e-11
4.91059e-14
-7.13227e-11
5.7177e-14
-7.66445e-11
6.58032e-14
-8.18257e-11
7.49763e-14
-8.68666e-11
8.46888e-14
-9.17671e-11
9.49342e-14
-9.65273e-11
1.05707e-13
-1.01147e-10
1.17002e-13
-1.05627e-10
1.28817e-13
-1.09966e-10
1.41148e-13
-1.14165e-10
1.53993e-13
-1.18224e-10
1.67352e-13
-1.22143e-10
1.81224e-13
-1.25921e-10
1.9561e-13
-1.2956e-10
2.10512e-13
-1.33058e-10
2.25933e-13
-1.36417e-10
2.41875e-13
-1.39635e-10
2.58345e-13
-1.42713e-10
2.75347e-13
-1.45652e-10
2.92887e-13
-1.4845e-10
3.10973e-13
-1.51109e-10
3.29613e-13
-1.53627e-10
3.48817e-13
-1.56006e-10
3.68595e-13
-1.58245e-10
3.88958e-13
-1.60344e-10
4.09918e-13
-1.62303e-10
4.31489e-13
-1.64122e-10
4.53686e-13
-1.65802e-10
4.76523e-13
-1.67342e-10
5.00018e-13
-1.68742e-10
5.24189e-13
-1.70002e-10
5.49054e-13
-1.71123e-10
5.74634e-13
-1.72104e-10
6.00949e-13
-1.72945e-10
6.28024e-13
-1.73647e-10
6.55882e-13
-1.74209e-10
6.84551e-13
-1.74631e-10
7.14048e-13
-1.74913e-10
-1.75056e-10
7.43603e-13
5.30067e-16
-3.50536e-12
2.08807e-15
-1.03752e-11
4.64285e-15
-1.71043e-11
8.16481e-15
-2.36925e-11
1.2626e-14
-3.014e-11
1.80002e-14
-3.64466e-11
2.42627e-14
-4.26126e-11
3.13904e-14
-4.86379e-11
3.93616e-14
-5.45226e-11
4.81563e-14
-6.02666e-11
5.77558e-14
-6.58701e-11
6.81428e-14
-7.13331e-11
7.93012e-14
-7.66556e-11
9.12165e-14
-8.18377e-11
1.03875e-13
-8.68793e-11
1.17266e-13
-9.17805e-11
1.31377e-13
-9.65414e-11
1.46198e-13
-1.01162e-10
1.61723e-13
-1.05642e-10
1.77943e-13
-1.09982e-10
1.94852e-13
-1.14182e-10
2.12445e-13
-1.18242e-10
2.30719e-13
-1.22161e-10
2.49671e-13
-1.2594e-10
2.69299e-13
-1.29579e-10
2.89603e-13
-1.33079e-10
3.10583e-13
-1.36438e-10
3.32241e-13
-1.39657e-10
3.5458e-13
-1.42736e-10
3.77603e-13
-1.45675e-10
4.01316e-13
-1.48474e-10
4.25725e-13
-1.51133e-10
4.50836e-13
-1.53652e-10
4.76657e-13
-1.56032e-10
5.03199e-13
-1.58271e-10
5.30471e-13
-1.60371e-10
5.58485e-13
-1.62331e-10
5.87253e-13
-1.64151e-10
6.16788e-13
-1.65832e-10
6.47107e-13
-1.67372e-10
6.78223e-13
-1.68773e-10
7.10156e-13
-1.70034e-10
7.42921e-13
-1.71156e-10
7.76541e-13
-1.72137e-10
8.11033e-13
-1.7298e-10
8.46421e-13
-1.73682e-10
8.82726e-13
-1.74245e-10
9.19976e-13
-1.74668e-10
9.5819e-13
-1.74952e-10
-1.75095e-10
9.96592e-13
7.05287e-16
-3.50607e-12
2.7765e-15
-1.03773e-11
6.17084e-15
-1.71077e-11
1.08478e-14
-2.36972e-11
1.6769e-14
-3.01459e-11
2.38984e-14
-3.64538e-11
3.22018e-14
-4.26209e-11
4.16472e-14
-4.86473e-11
5.22045e-14
-5.45331e-11
6.38455e-14
-6.02783e-11
7.65438e-14
-6.58828e-11
9.02749e-14
-7.13469e-11
1.05016e-13
-7.66704e-11
1.20745e-13
-8.18534e-11
1.37444e-13
-8.6896e-11
1.55094e-13
-9.17981e-11
1.73679e-13
-9.65599e-11
1.93184e-13
-1.01181e-10
2.13595e-13
-1.05663e-10
2.349e-13
-1.10003e-10
2.57089e-13
-1.14204e-10
2.80153e-13
-1.18265e-10
3.04083e-13
-1.22185e-10
3.28873e-13
-1.25965e-10
3.54517e-13
-1.29605e-10
3.81012e-13
-1.33105e-10
4.08355e-13
-1.36465e-10
4.36543e-13
-1.39685e-10
4.65576e-13
-1.42765e-10
4.95455e-13
-1.45705e-10
5.26182e-13
-1.48505e-10
5.57759e-13
-1.51165e-10
5.90191e-13
-1.53685e-10
6.23482e-13
-1.56065e-10
6.57639e-13
-1.58305e-10
6.92668e-13
-1.60406e-10
7.28578e-13
-1.62367e-10
7.65379e-13
-1.64188e-10
8.0308e-13
-1.65869e-10
8.41693e-13
-1.67411e-10
8.81229e-13
-1.68813e-10
9.21703e-13
-1.70075e-10
9.63128e-13
-1.71197e-10
1.00552e-12
-1.7218e-10
1.04889e-12
-1.73023e-10
1.09327e-12
-1.73726e-10
1.13866e-12
-1.7429e-10
1.18509e-12
-1.74715e-10
1.23257e-12
-1.74999e-10
-1.75144e-10
1.28033e-12
8.94449e-16
-3.50696e-12
3.52063e-15
-1.03799e-11
7.82337e-15
-1.7112e-11
1.37502e-14
-2.37031e-11
2.12514e-14
-3.01534e-11
3.02798e-14
-3.64628e-11
4.0791e-14
-4.26314e-11
5.27429e-14
-4.86593e-11
6.6096e-14
-5.45465e-11
8.08131e-14
-6.0293e-11
9.6859e-14
-6.58989e-11
1.14201e-13
-7.13642e-11
1.32808e-13
-7.6689e-11
1.52651e-13
-8.18732e-11
1.73705e-13
-8.6917e-11
1.95942e-13
-9.18204e-11
2.19342e-13
-9.65833e-11
2.43881e-13
-1.01206e-10
2.69541e-13
-1.05688e-10
2.96304e-13
-1.1003e-10
3.24152e-13
-1.14232e-10
3.53071e-13
-1.18294e-10
3.83048e-13
-1.22215e-10
4.14071e-13
-1.25996e-10
4.46128e-13
-1.29637e-10
4.79211e-13
-1.33138e-10
5.13311e-13
-1.36499e-10
5.48422e-13
-1.3972e-10
5.84537e-13
-1.42801e-10
6.21652e-13
-1.45742e-10
6.59764e-13
-1.48543e-10
6.9887e-13
-1.51204e-10
7.38968e-13
-1.53725e-10
7.80058e-13
-1.56106e-10
8.2214e-13
-1.58348e-10
8.65215e-13
-1.60449e-10
9.09285e-13
-1.62411e-10
9.54353e-13
-1.64233e-10
1.00042e-12
-1.65915e-10
1.04749e-12
-1.67458e-10
1.09558e-12
-1.68861e-10
1.14467e-12
-1.70124e-10
1.19479e-12
-1.71247e-10
1.24593e-12
-1.72231e-10
1.2981e-12
-1.73075e-10
1.35132e-12
-1.7378e-10
1.40557e-12
-1.74345e-10
1.46088e-12
-1.7477e-10
1.51726e-12
-1.75055e-10
-1.75202e-10
1.57389e-12
1.07798e-15
-3.50804e-12
4.24091e-15
-1.03831e-11
9.42146e-15
-1.71172e-11
1.65559e-14
-2.37103e-11
2.55837e-14
-3.01624e-11
3.64473e-14
-3.64737e-11
4.90921e-14
-4.26441e-11
6.34664e-14
-4.86737e-11
7.95213e-14
-5.45625e-11
9.72104e-14
-6.03107e-11
1.1649e-13
-6.59182e-11
1.37318e-13
-7.1385e-11
1.59657e-13
-7.67113e-11
1.83469e-13
-8.1897e-11
2.08719e-13
-8.69423e-11
2.35376e-13
-9.1847e-11
2.63408e-13
-9.66114e-11
2.92787e-13
-1.01235e-10
3.23487e-13
-1.05719e-10
3.55482e-13
-1.10062e-10
3.88749e-13
-1.14265e-10
4.23267e-13
-1.18328e-10
4.59015e-13
-1.22251e-10
4.95975e-13
-1.26033e-10
5.34129e-13
-1.29675e-10
5.73462e-13
-1.33177e-10
6.13958e-13
-1.36539e-10
6.55603e-13
-1.39762e-10
6.98386e-13
-1.42844e-10
7.42294e-13
-1.45786e-10
7.87317e-13
-1.48588e-10
8.33444e-13
-1.5125e-10
8.80665e-13
-1.53772e-10
9.28973e-13
-1.56154e-10
9.78359e-13
-1.58397e-10
1.02881e-12
-1.605e-10
1.08033e-12
-1.62462e-10
1.1329e-12
-1.64286e-10
1.18651e-12
-1.65969e-10
1.24117e-12
-1.67512e-10
1.29685e-12
-1.68916e-10
1.35355e-12
-1.7018e-10
1.41126e-12
-1.71305e-10
1.46997e-12
-1.7229e-10
1.52966e-12
-1.73135e-10
1.59033e-12
-1.7384e-10
1.65196e-12
-1.74406e-10
1.71452e-12
-1.74832e-10
1.778e-12
-1.75119e-10
-1.75266e-10
1.84158e-12
1.22075e-15
-3.50926e-12
4.80503e-15
-1.03867e-11
1.06777e-14
-1.7123e-11
1.8767e-14
-2.37183e-11
2.90042e-14
-3.01726e-11
4.13238e-14
-3.6486e-11
5.56632e-14
-4.26584e-11
7.19628e-14
-4.869e-11
9.01657e-14
-5.45807e-11
1.10218e-13
-6.03307e-11
1.32067e-13
-6.594e-11
1.55665e-13
-7.14086e-11
1.80964e-13
-7.67366e-11
2.07921e-13
-8.1924e-11
2.36492e-13
-8.69708e-11
2.66637e-13
-9.18772e-11
2.98319e-13
-9.66431e-11
3.31501e-13
-1.01269e-10
3.66148e-13
-1.05754e-10
4.02228e-13
-1.10098e-10
4.39709e-13
-1.14303e-10
4.78562e-13
-1.18367e-10
5.18758e-13
-1.22291e-10
5.60272e-13
-1.26075e-10
6.03076e-13
-1.29718e-10
6.47147e-13
-1.33221e-10
6.92461e-13
-1.36585e-10
7.38995e-13
-1.39808e-10
7.86728e-13
-1.42891e-10
8.35639e-13
-1.45834e-10
8.85707e-13
-1.48638e-10
9.36912e-13
-1.51301e-10
9.89234e-13
-1.53824e-10
1.04265e-12
-1.56208e-10
1.09715e-12
-1.58451e-10
1.1527e-12
-1.60555e-10
1.20929e-12
-1.62519e-10
1.2669e-12
-1.64343e-10
1.3255e-12
-1.66027e-10
1.38507e-12
-1.67572e-10
1.44558e-12
-1.68977e-10
1.50702e-12
-1.70242e-10
1.56934e-12
-1.71367e-10
1.63253e-12
-1.72353e-10
1.69654e-12
-1.73199e-10
1.76134e-12
-1.73905e-10
1.82689e-12
-1.74472e-10
1.89314e-12
-1.74899e-10
1.96005e-12
-1.75186e-10
-1.75333e-10
2.02675e-12
1.28698e-15
-3.51055e-12
5.06612e-15
-1.03905e-11
1.12604e-14
-1.71292e-11
1.97963e-14
-2.37269e-11
3.06025e-14
-3.01834e-11
4.36099e-14
-3.6499e-11
5.87517e-14
-4.26735e-11
7.59631e-14
-4.87072e-11
9.51815e-14
-5.46e-11
1.16346e-13
-6.03519e-11
1.39399e-13
-6.59631e-11
1.64284e-13
-7.14335e-11
1.90945e-13
-7.67633e-11
2.1933e-13
-8.19524e-11
2.49387e-13
-8.70009e-11
2.81068e-13
-9.19089e-11
3.14323e-13
-9.66763e-11
3.49107e-13
-1.01303e-10
3.85375e-13
-1.0579e-10
4.23082e-13
-1.10136e-10
4.62186e-13
-1.14342e-10
5.02645e-13
-1.18407e-10
5.4442e-13
-1.22333e-10
5.8747e-13
-1.26118e-10
6.31758e-13
-1.29762e-10
6.77245e-13
-1.33267e-10
7.23894e-13
-1.36631e-10
7.71669e-13
-1.39856e-10
8.20534e-13
-1.4294e-10
8.70453e-13
-1.45884e-10
9.21391e-13
-1.48689e-10
9.73314e-13
-1.51353e-10
1.02619e-12
-1.53877e-10
1.07997e-12
-1.56262e-10
1.13464e-12
-1.58506e-10
1.19016e-12
-1.60611e-10
1.24648e-12
-1.62575e-10
1.30359e-12
-1.644e-10
1.36144e-12
-1.66085e-10
1.42e-12
-1.67631e-10
1.47923e-12
-1.69036e-10
1.53911e-12
-1.70302e-10
1.59959e-12
-1.71428e-10
1.66065e-12
-1.72414e-10
1.72225e-12
-1.7326e-10
1.78436e-12
-1.73967e-10
1.84695e-12
-1.74534e-10
1.90999e-12
-1.74962e-10
1.97347e-12
-1.75249e-10
-1.75397e-10
2.03655e-12
1.24633e-15
-3.51179e-12
4.91881e-15
-1.03941e-11
1.0949e-14
-1.71353e-11
1.92677e-14
-2.37352e-11
2.98065e-14
-3.0194e-11
4.24975e-14
-3.65117e-11
5.72741e-14
-4.26883e-11
7.40703e-14
-4.8724e-11
9.28213e-14
-5.46187e-11
1.13463e-13
-6.03725e-11
1.35933e-13
-6.59855e-11
1.60169e-13
-7.14577e-11
1.8611e-13
-7.67892e-11
2.13696e-13
-8.198e-11
2.42868e-13
-8.70301e-11
2.73568e-13
-9.19396e-11
3.05738e-13
-9.67085e-11
3.39323e-13
-1.01337e-10
3.74265e-13
-1.05825e-10
4.1051e-13
-1.10172e-10
4.48003e-13
-1.14379e-10
4.86691e-13
-1.18446e-10
5.26518e-13
-1.22372e-10
5.67433e-13
-1.26158e-10
6.09381e-13
-1.29804e-10
6.52311e-13
-1.3331e-10
6.96169e-13
-1.36675e-10
7.40904e-13
-1.39901e-10
7.86463e-13
-1.42986e-10
8.32793e-13
-1.45931e-10
8.79844e-13
-1.48736e-10
9.27564e-13
-1.51401e-10
9.75899e-13
-1.53926e-10
1.0248e-12
-1.56311e-10
1.07421e-12
-1.58556e-10
1.12409e-12
-1.60661e-10
1.17438e-12
-1.62626e-10
1.22503e-12
-1.64451e-10
1.27599e-12
-1.66136e-10
1.32722e-12
-1.67682e-10
1.37867e-12
-1.69088e-10
1.4303e-12
-1.70353e-10
1.48206e-12
-1.71479e-10
1.53391e-12
-1.72466e-10
1.58582e-12
-1.73312e-10
1.63776e-12
-1.74019e-10
1.68971e-12
-1.74586e-10
1.74163e-12
-1.75014e-10
1.79353e-12
-1.75301e-10
-1.75449e-10
1.84456e-12
1.18439e-15
-3.51298e-12
4.6641e-15
-1.03976e-11
1.03633e-14
-1.7141e-11
1.82059e-14
-2.3743e-11
2.81178e-14
-3.02039e-11
4.00265e-14
-3.65236e-11
5.38615e-14
-4.27022e-11
6.95534e-14
-4.87397e-11
8.70347e-14
-5.46362e-11
1.06239e-13
-6.03917e-11
1.271e-13
-6.60064e-11
1.49555e-13
-7.14802e-11
1.7354e-13
-7.68132e-11
1.98993e-13
-8.20054e-11
2.25852e-13
-8.70569e-11
2.54056e-13
-9.19678e-11
2.83545e-13
-9.6738e-11
3.14258e-13
-1.01368e-10
3.46137e-13
-1.05857e-10
3.79121e-13
-1.10205e-10
4.13152e-13
-1.14413e-10
4.4817e-13
-1.18481e-10
4.84114e-13
-1.22408e-10
5.20927e-13
-1.26195e-10
5.58546e-13
-1.29842e-10
5.96911e-13
-1.33348e-10
6.35961e-13
-1.36714e-10
6.75632e-13
-1.3994e-10
7.15862e-13
-1.43026e-10
7.56584e-13
-1.45971e-10
7.97732e-13
-1.48777e-10
8.39238e-13
-1.51442e-10
8.81031e-13
-1.53967e-10
9.2304e-13
-1.56353e-10
9.65189e-13
-1.58598e-10
1.0074e-12
-1.60703e-10
1.04959e-12
-1.62668e-10
1.09168e-12
-1.64493e-10
1.13358e-12
-1.66178e-10
1.17519e-12
-1.67723e-10
1.21642e-12
-1.69129e-10
1.25716e-12
-1.70394e-10
1.29731e-12
-1.7152e-10
1.33675e-12
-1.72505e-10
1.37535e-12
-1.73351e-10
1.41298e-12
-1.74057e-10
1.4495e-12
-1.74623e-10
1.48475e-12
-1.75049e-10
1.51858e-12
-1.75335e-10
-1.75481e-10
1.54999e-12
1.00785e-15
-3.51399e-12
3.9244e-15
-1.04005e-11
8.66051e-15
-1.71457e-11
1.51369e-14
-2.37495e-11
2.32771e-14
-3.0212e-11
3.30074e-14
-3.65333e-11
4.42564e-14
-4.27134e-11
5.69548e-14
-4.87524e-11
7.10351e-14
-5.46503e-11
8.64314e-14
-6.04071e-11
1.03079e-13
-6.60231e-11
1.20914e-13
-7.1498e-11
1.39874e-13
-7.68322e-11
1.59897e-13
-8.20254e-11
1.80921e-13
-8.7078e-11
2.02884e-13
-9.19897e-11
2.25724e-13
-9.67608e-11
2.49381e-13
-1.01391e-10
2.73791e-13
-1.05881e-10
2.98892e-13
-1.1023e-10
3.2462e-13
-1.14439e-10
3.5091e-13
-1.18507e-10
3.77695e-13
-1.22435e-10
4.04907e-13
-1.26223e-10
4.32476e-13
-1.29869e-10
4.6033e-13
-1.33376e-10
4.88393e-13
-1.36742e-10
5.16588e-13
-1.39968e-10
5.44833e-13
-1.43054e-10
5.73042e-13
-1.46e-10
6.01126e-13
-1.48805e-10
6.2899e-13
-1.5147e-10
6.56533e-13
-1.53995e-10
6.8365e-13
-1.5638e-10
7.10227e-13
-1.58624e-10
7.36143e-13
-1.60729e-10
7.6127e-13
-1.62693e-10
7.85467e-13
-1.64517e-10
8.08587e-13
-1.66201e-10
8.30468e-13
-1.67745e-10
8.50937e-13
-1.69149e-10
8.69804e-13
-1.70413e-10
8.86866e-13
-1.71537e-10
9.019e-13
-1.7252e-10
9.14665e-13
-1.73364e-10
9.24897e-13
-1.74067e-10
9.32309e-13
-1.7463e-10
9.36588e-13
-1.75053e-10
9.37398e-13
-1.75336e-10
-1.75479e-10
9.33716e-13
3.77622e-16
-3.51436e-12
1.47276e-15
-1.04016e-11
3.24693e-15
-1.71475e-11
5.65913e-15
-2.37519e-11
8.66636e-15
-3.0215e-11
1.22238e-14
-3.65369e-11
1.6285e-14
-4.27175e-11
2.08015e-14
-4.87569e-11
2.57234e-14
-5.46552e-11
3.09989e-14
-6.04124e-11
3.65742e-14
-6.60286e-11
4.23939e-14
-7.15039e-11
4.84004e-14
-7.68382e-11
5.45341e-14
-8.20316e-11
6.07332e-14
-8.70842e-11
6.69335e-14
-9.19959e-11
7.30685e-14
-9.6767e-11
7.9069e-14
-1.01397e-10
8.4863e-14
-1.05887e-10
9.03755e-14
-1.10236e-10
9.55284e-14
-1.14444e-10
1.0024e-13
-1.18512e-10
1.04425e-13
-1.22439e-10
1.07995e-13
-1.26226e-10
1.10857e-13
-1.29872e-10
1.12912e-13
-1.33378e-10
1.14059e-13
-1.36744e-10
1.14191e-13
-1.39969e-10
1.13194e-13
-1.43053e-10
1.1095e-13
-1.45997e-10
1.07336e-13
-1.48801e-10
1.0222e-13
-1.51465e-10
9.54652e-14
-1.53988e-10
8.69266e-14
-1.56371e-10
7.64517e-14
-1.58614e-10
6.38809e-14
-1.60716e-10
4.90449e-14
-1.62678e-10
3.1767e-14
-1.645e-10
1.18595e-14
-1.66181e-10
-1.08726e-14
-1.67723e-10
-3.6637e-14
-1.69123e-10
-6.56488e-14
-1.70384e-10
-9.81372e-14
-1.71504e-10
-1.34338e-13
-1.72484e-10
-1.74503e-13
-1.73324e-10
-2.1889e-13
-1.74023e-10
-2.67773e-13
-1.74581e-10
-3.2143e-13
-1.74999e-10
-3.80154e-13
-1.75277e-10
-1.75415e-10
-4.44513e-13
-6.58905e-16
-3.5137e-12
-2.5954e-15
-1.03997e-11
-5.7749e-15
-1.71443e-11
-1.01719e-14
-2.37475e-11
-1.57696e-14
-3.02094e-11
-2.25596e-14
-3.65301e-11
-3.05413e-14
-4.27095e-11
-3.97214e-14
-4.87477e-11
-5.01138e-14
-5.46448e-11
-6.17394e-14
-6.04008e-11
-7.46255e-14
-6.60157e-11
-8.88059e-14
-7.14897e-11
-1.04321e-13
-7.68226e-11
-1.21217e-13
-8.20147e-11
-1.39546e-13
-8.70658e-11
-1.59366e-13
-9.19761e-11
-1.80741e-13
-9.67456e-11
-2.03741e-13
-1.01374e-10
-2.28442e-13
-1.05862e-10
-2.54926e-13
-1.10209e-10
-2.83279e-13
-1.14416e-10
-3.13594e-13
-1.18482e-10
-3.45971e-13
-1.22407e-10
-3.80514e-13
-1.26192e-10
-4.17334e-13
-1.29836e-10
-4.56548e-13
-1.33339e-10
-4.98278e-13
-1.36702e-10
-5.42654e-13
-1.39924e-10
-5.89809e-13
-1.43006e-10
-6.39886e-13
-1.45947e-10
-6.93031e-13
-1.48748e-10
-7.49398e-13
-1.51409e-10
-8.09145e-13
-1.53928e-10
-8.72439e-13
-1.56308e-10
-9.3945e-13
-1.58547e-10
-1.01035e-12
-1.60645e-10
-1.08534e-12
-1.62603e-10
-1.16458e-12
-1.64421e-10
-1.24829e-12
-1.66098e-10
-1.33664e-12
-1.67634e-10
-1.42986e-12
-1.6903e-10
-1.52813e-12
-1.70286e-10
-1.63167e-12
-1.71401e-10
-1.74068e-12
-1.72375e-10
-1.85539e-12
-1.73209e-10
-1.97599e-12
-1.73902e-10
-2.10269e-12
-1.74455e-10
-2.23569e-12
-1.74866e-10
-2.3752e-12
-1.75138e-10
-1.7527e-10
-2.52073e-12
-1.93212e-15
-3.51177e-12
-7.61143e-15
-1.0394e-11
-1.69342e-14
-1.7135e-11
-2.98122e-14
-2.37347e-11
-4.61699e-14
-3.01931e-11
-6.5944e-14
-3.65103e-11
-8.90831e-14
-4.26863e-11
-1.15547e-13
-4.87212e-11
-1.45306e-13
-5.4615e-11
-1.78342e-13
-6.03678e-11
-2.14645e-13
-6.59794e-11
-2.54218e-13
-7.14501e-11
-2.9707e-13
-7.67798e-11
-3.43224e-13
-8.19685e-11
-3.92706e-13
-8.70163e-11
-4.45557e-13
-9.19233e-11
-5.01822e-13
-9.66893e-11
-5.61557e-13
-1.01315e-10
-6.24825e-13
-1.05799e-10
-6.91699e-13
-1.10143e-10
-7.62257e-13
-1.14345e-10
-8.36588e-13
-1.18407e-10
-9.14786e-13
-1.22329e-10
-9.96954e-13
-1.26109e-10
-1.0832e-12
-1.29749e-10
-1.17365e-12
-1.33249e-10
-1.26842e-12
-1.36607e-10
-1.36765e-12
-1.39825e-10
-1.47147e-12
-1.42902e-10
-1.58003e-12
-1.45839e-10
-1.69349e-12
-1.48635e-10
-1.81201e-12
-1.5129e-10
-1.93575e-12
-1.53805e-10
-2.06489e-12
-1.56179e-10
-2.19961e-12
-1.58412e-10
-2.34009e-12
-1.60505e-10
-2.48654e-12
-1.62457e-10
-2.63914e-12
-1.64268e-10
-2.79812e-12
-1.65939e-10
-2.96368e-12
-1.67469e-10
-3.13605e-12
-1.68858e-10
-3.31544e-12
-1.70106e-10
-3.5021e-12
-1.71214e-10
-3.69626e-12
-1.72181e-10
-3.89817e-12
-1.73007e-10
-4.10808e-12
-1.73692e-10
-4.32626e-12
-1.74236e-10
-4.55295e-12
-1.7464e-10
-4.78974e-12
-1.74902e-10
-1.75028e-10
-5.03178e-12
-3.40055e-15
-3.50837e-12
-1.34327e-14
-1.0384e-11
-2.99314e-14
-1.71185e-11
-5.27453e-14
-2.37118e-11
-8.17392e-14
-3.01641e-11
-1.16794e-13
-3.64753e-11
-1.57805e-13
-4.26453e-11
-2.04683e-13
-4.86744e-11
-2.57353e-13
-5.45624e-11
-3.15753e-13
-6.03094e-11
-3.79835e-13
-6.59154e-11
-4.49564e-13
-7.13804e-11
-5.24918e-13
-7.67044e-11
-6.05886e-13
-8.18876e-11
-6.9247e-13
-8.69298e-11
-7.84684e-13
-9.1831e-11
-8.82552e-13
-9.65914e-11
-9.86111e-13
-1.01211e-10
-1.09541e-12
-1.0569e-10
-1.2105e-12
-1.10027e-10
-1.33145e-12
-1.14224e-10
-1.45834e-12
-1.18281e-10
-1.59126e-12
-1.22196e-10
-1.73031e-12
-1.2597e-10
-1.87559e-12
-1.29604e-10
-2.02722e-12
-1.33097e-10
-2.18533e-12
-1.36449e-10
-2.35005e-12
-1.3966e-10
-2.52153e-12
-1.42731e-10
-2.69992e-12
-1.4566e-10
-2.88538e-12
-1.48449e-10
-3.0781e-12
-1.51097e-10
-3.27825e-12
-1.53605e-10
-3.48602e-12
-1.55971e-10
-3.70161e-12
-1.58196e-10
-3.92524e-12
-1.60281e-10
-4.15713e-12
-1.62225e-10
-4.3975e-12
-1.64028e-10
-4.6466e-12
-1.6569e-10
-4.90467e-12
-1.67211e-10
-5.17198e-12
-1.68591e-10
-5.44881e-12
-1.6983e-10
-5.73543e-12
-1.70927e-10
-6.03215e-12
-1.71884e-10
-6.33928e-12
-1.727e-10
-6.65714e-12
-1.73374e-10
-6.98607e-12
-1.73907e-10
-7.32641e-12
-1.74299e-10
-7.67971e-12
-1.7455e-10
-1.74668e-10
-8.03996e-12
-5.05148e-15
-3.50332e-12
-1.99431e-14
-1.03691e-11
-4.44412e-14
-1.7094e-11
-7.83397e-14
-2.36779e-11
-1.21453e-13
-3.0121e-11
-1.73614e-13
-3.64231e-11
-2.34674e-13
-4.25843e-11
-3.04504e-13
-4.86045e-11
-3.8299e-13
-5.44839e-11
-4.70036e-13
-6.02223e-11
-5.65564e-13
-6.58198e-11
-6.6951e-13
-7.12764e-11
-7.81826e-13
-7.65921e-11
-9.02479e-13
-8.17669e-11
-1.03145e-12
-8.68008e-11
-1.16874e-12
-9.16938e-11
-1.31436e-12
-9.64458e-11
-1.46833e-12
-1.01057e-10
-1.63069e-12
-1.05527e-10
-1.80149e-12
-1.09857e-10
-1.9808e-12
-1.14045e-10
-2.16869e-12
-1.18093e-10
-2.36526e-12
-1.21999e-10
-2.5706e-12
-1.25765e-10
-2.78483e-12
-1.2939e-10
-3.00808e-12
-1.32874e-10
-3.24048e-12
-1.36217e-10
-3.48218e-12
-1.39419e-10
-3.73334e-12
-1.4248e-10
-3.99414e-12
-1.454e-10
-4.26476e-12
-1.48179e-10
-4.54539e-12
-1.50817e-10
-4.83623e-12
-1.53314e-10
-5.13751e-12
-1.5567e-10
-5.44945e-12
-1.57884e-10
-5.77228e-12
-1.59958e-10
-6.10625e-12
-1.61891e-10
-6.45163e-12
-1.63682e-10
-6.80867e-12
-1.65333e-10
-7.17766e-12
-1.66842e-10
-7.55889e-12
-1.68209e-10
-7.95266e-12
-1.69436e-10
-8.35928e-12
-1.70521e-10
-8.77907e-12
-1.71464e-10
-9.21236e-12
-1.72266e-10
-9.65949e-12
-1.72927e-10
-1.01208e-11
-1.73446e-10
-1.05967e-11
-1.73824e-10
-1.10883e-11
-1.7406e-10
-1.74168e-10
-1.15884e-11
-6.73169e-15
-3.49659e-12
-2.66592e-14
-1.03492e-11
-5.95198e-14
-1.70611e-11
-1.05068e-13
-2.36324e-11
-1.63081e-13
-3.0063e-11
-2.33358e-13
-3.63528e-11
-3.15721e-13
-4.25019e-11
-4.10009e-13
-4.85102e-11
-5.16085e-13
-5.43778e-11
-6.3383e-13
-6.01046e-11
-7.63143e-13
-6.56905e-11
-9.03943e-13
-7.11356e-11
-1.05617e-12
-7.64399e-11
-1.21977e-12
-8.16033e-11
-1.39473e-12
-8.66258e-11
-1.58103e-12
-9.15075e-11
-1.77867e-12
-9.62482e-11
-1.98769e-12
-1.00848e-10
-2.20812e-12
-1.05307e-10
-2.44001e-12
-1.09625e-10
-2.68344e-12
-1.13802e-10
-2.93849e-12
-1.17838e-10
-3.20526e-12
-1.21732e-10
-3.48387e-12
-1.25486e-10
-3.77446e-12
-1.29099e-10
-4.07715e-12
-1.32571e-10
-4.39213e-12
-1.35902e-10
-4.71954e-12
-1.39091e-10
-5.05959e-12
-1.4214e-10
-5.41248e-12
-1.45047e-10
-5.77841e-12
-1.47813e-10
-6.1576e-12
-1.50437e-10
-6.55031e-12
-1.52921e-10
-6.95678e-12
-1.55263e-10
-7.37726e-12
-1.57464e-10
-7.81203e-12
-1.59523e-10
-8.26138e-12
-1.61442e-10
-8.7256e-12
-1.63218e-10
-9.20498e-12
-1.64853e-10
-9.69983e-12
-1.66347e-10
-1.02105e-11
-1.67699e-10
-1.07372e-11
-1.68909e-10
-1.12805e-11
-1.69978e-10
-1.18404e-11
-1.70904e-10
-1.24176e-11
-1.71689e-10
-1.30121e-11
-1.72333e-10
-1.36244e-11
-1.72834e-10
-1.42548e-11
-1.73193e-10
-1.49036e-11
-1.73412e-10
-1.73509e-10
-1.55625e-11
-8.32202e-15
-3.48827e-12
-3.29646e-14
-1.03245e-11
-7.36561e-14
-1.70204e-11
-1.30164e-13
-2.35759e-11
-2.02279e-13
-2.99909e-11
-2.89808e-13
-3.62653e-11
-3.92583e-13
-4.23991e-11
-5.10453e-13
-4.83924e-11
-6.43284e-13
-5.4245e-11
-7.90966e-13
-5.99569e-11
-9.53406e-13
-6.55281e-11
-1.13053e-12
-7.09585e-11
-1.32228e-12
-7.62481e-11
-1.52862e-12
-8.1397e-11
-1.74953e-12
-8.64049e-11
-1.98501e-12
-9.1272e-11
-2.23508e-12
-9.59981e-11
-2.49978e-12
-1.00583e-10
-2.77916e-12
-1.05027e-10
-3.07329e-12
-1.09331e-10
-3.38226e-12
-1.13493e-10
-3.70617e-12
-1.17514e-10
-4.04516e-12
-1.21393e-10
-4.39937e-12
-1.25132e-10
-4.76895e-12
-1.2873e-10
-5.15409e-12
-1.32186e-10
-5.55497e-12
-1.35501e-10
-5.97182e-12
-1.38674e-10
-6.40485e-12
-1.41706e-10
-6.85432e-12
-1.44597e-10
-7.32049e-12
-1.47347e-10
-7.80363e-12
-1.49954e-10
-8.30405e-12
-1.52421e-10
-8.82205e-12
-1.54745e-10
-9.35796e-12
-1.56928e-10
-9.91213e-12
-1.58969e-10
-1.04849e-11
-1.60869e-10
-1.10767e-11
-1.62626e-10
-1.16878e-11
-1.64242e-10
-1.23187e-11
-1.65716e-10
-1.29698e-11
-1.67048e-10
-1.36415e-11
-1.68237e-10
-1.43342e-11
-1.69285e-10
-1.50483e-11
-1.7019e-10
-1.57844e-11
-1.70953e-10
-1.65428e-11
-1.71574e-10
-1.7324e-11
-1.72053e-10
-1.81304e-11
-1.72389e-10
-1.89562e-11
-1.72586e-10
-1.72668e-10
-1.97967e-11
-9.73981e-15
-3.8806e-14
-8.70088e-14
-1.54151e-13
-2.40053e-13
-3.44547e-13
-4.67484e-13
-6.08729e-13
-7.68163e-13
-9.45684e-13
-1.14121e-12
-1.35466e-12
-1.586e-12
-1.83518e-12
-2.10219e-12
-2.38703e-12
-2.68972e-12
-3.0103e-12
-3.34882e-12
-3.70535e-12
-4.07999e-12
-4.47285e-12
-4.88407e-12
-5.31378e-12
-5.76218e-12
-6.22944e-12
-6.71578e-12
-7.22144e-12
-7.74667e-12
-8.29177e-12
-8.85703e-12
-9.44279e-12
-1.00494e-11
-1.06773e-11
-1.13268e-11
-1.19985e-11
-1.26927e-11
-1.34101e-11
-1.41512e-11
-1.49166e-11
-1.57069e-11
-1.65228e-11
-1.73652e-11
-1.82349e-11
-1.91326e-11
-2.00595e-11
-2.10165e-11
-2.20063e-11
-2.3023e-11
-2.40644e-11
3.80699e-13
-1.75005e-10
4.62679e-13
-1.74904e-10
5.50352e-13
-1.70424e-10
6.49583e-13
-1.65947e-10
7.58388e-13
-1.61477e-10
8.743e-13
-1.57041e-10
9.95242e-13
-1.52647e-10
1.1191e-12
-1.48296e-10
1.24373e-12
-1.43995e-10
1.36703e-12
-1.39746e-10
1.48699e-12
-1.35554e-10
1.60169e-12
-1.31423e-10
1.70934e-12
-1.27356e-10
1.80833e-12
-1.23357e-10
1.8972e-12
-1.19428e-10
1.9747e-12
-1.15572e-10
2.03974e-12
-1.11792e-10
2.09146e-12
-1.0809e-10
2.12916e-12
-1.04468e-10
2.15236e-12
-1.00928e-10
2.16072e-12
-9.74709e-11
2.1541e-12
-9.40984e-11
2.13249e-12
-9.08114e-11
2.09603e-12
-8.76109e-11
2.04498e-12
-8.44974e-11
1.97971e-12
-8.14713e-11
1.90068e-12
-7.85329e-11
1.80841e-12
-7.56821e-11
1.70351e-12
-7.2919e-11
1.58662e-12
-7.02431e-11
1.45839e-12
-6.76539e-11
1.31954e-12
-6.51509e-11
1.17076e-12
-6.27332e-11
1.01276e-12
-6.04e-11
8.46234e-13
-5.81502e-11
6.71873e-13
-5.59827e-11
4.9034e-13
-5.38963e-11
3.02279e-13
-5.18895e-11
1.08306e-13
-4.99609e-11
-9.09925e-14
-4.8109e-11
-2.95061e-13
-4.63322e-11
-5.03376e-13
-4.46287e-11
-7.15446e-13
-4.2997e-11
-9.30815e-13
-4.1435e-11
-1.14905e-12
-3.99411e-11
-1.36977e-12
-3.85133e-11
-1.5926e-12
-3.71498e-11
-1.8172e-12
-3.58486e-11
-2.04326e-12
-3.46069e-11
-3.34226e-11
-2.27051e-12
5.55691e-13
-1.75029e-10
6.16609e-13
-1.74965e-10
6.95299e-13
-1.70502e-10
7.76325e-13
-1.66028e-10
8.5919e-13
-1.6156e-10
9.43093e-13
-1.57125e-10
1.02733e-12
-1.52731e-10
1.11107e-12
-1.4838e-10
1.19335e-12
-1.44077e-10
1.27315e-12
-1.39826e-10
1.34941e-12
-1.3563e-10
1.42105e-12
-1.31495e-10
1.487e-12
-1.27422e-10
1.54622e-12
-1.23416e-10
1.59772e-12
-1.19479e-10
1.64061e-12
-1.15615e-10
1.67405e-12
-1.11826e-10
1.6973e-12
-1.08113e-10
1.70973e-12
-1.04481e-10
1.71082e-12
-1.00929e-10
1.70014e-12
-9.74602e-11
1.67739e-12
-9.40756e-11
1.64237e-12
-9.07764e-11
1.59498e-12
-8.75635e-11
1.53523e-12
-8.44376e-11
1.46321e-12
-8.13993e-11
1.3791e-12
-7.84487e-11
1.28315e-12
-7.55862e-11
1.17568e-12
-7.28115e-11
1.05708e-12
-7.01245e-11
9.27759e-13
-6.75246e-11
7.88199e-13
-6.50113e-11
6.38896e-13
-6.25839e-11
4.80372e-13
-6.02415e-11
3.13167e-13
-5.7983e-11
1.37829e-13
-5.58074e-11
-4.5092e-14
-5.37134e-11
-2.35046e-13
-5.16995e-11
-4.31492e-13
-4.97644e-11
-6.339e-13
-4.79066e-11
-8.41755e-13
-4.61243e-11
-1.05456e-12
-4.44159e-11
-1.27183e-12
-4.27797e-11
-1.49312e-12
-4.12138e-11
-1.71798e-12
-3.97163e-11
-1.94601e-12
-3.82853e-11
-2.17681e-12
-3.6919e-11
-2.41002e-12
-3.56154e-11
-2.64528e-12
-3.43717e-11
-3.31856e-11
-2.88228e-12
7.75435e-13
-1.7506e-10
8.29126e-13
-1.75019e-10
9.26581e-13
-1.706e-10
1.01598e-12
-1.66117e-10
1.0976e-12
-1.61641e-10
1.17203e-12
-1.572e-10
1.23979e-12
-1.52799e-10
1.30118e-12
-1.48441e-10
1.35633e-12
-1.44132e-10
1.40519e-12
-1.39874e-10
1.44761e-12
-1.35673e-10
1.48333e-12
-1.3153e-10
1.51201e-12
-1.27451e-10
1.53328e-12
-1.23437e-10
1.54671e-12
-1.19493e-10
1.55188e-12
-1.1562e-10
1.54837e-12
-1.11822e-10
1.53576e-12
-1.08101e-10
1.5137e-12
-1.04459e-10
1.48184e-12
-1.00897e-10
1.4399e-12
-9.74183e-11
1.38766e-12
-9.40234e-11
1.32495e-12
-9.07137e-11
1.25166e-12
-8.74902e-11
1.16774e-12
-8.43537e-11
1.07322e-12
-8.13047e-11
9.68165e-13
-7.83437e-11
8.52724e-13
-7.54708e-11
7.27084e-13
-7.26859e-11
5.91484e-13
-6.99889e-11
4.46208e-13
-6.73793e-11
2.91583e-13
-6.48567e-11
1.27967e-13
-6.24203e-11
-4.4252e-14
-6.00693e-11
-2.24661e-13
-5.78026e-11
-4.12831e-13
-5.56192e-11
-6.08317e-13
-5.35179e-11
-8.10667e-13
-5.14972e-11
-1.01942e-12
-4.95557e-11
-1.23413e-12
-4.76919e-11
-1.45433e-12
-4.59041e-11
-1.67958e-12
-4.41907e-11
-1.90943e-12
-4.25498e-11
-2.14346e-12
-4.09797e-11
-2.38125e-12
-3.94785e-11
-2.6224e-12
-3.80442e-11
-2.86651e-12
-3.66749e-11
-3.11321e-12
-3.53687e-11
-3.36213e-12
-3.41228e-11
-3.29348e-11
-3.61292e-12
1.03758e-12
-1.75101e-10
1.09182e-12
-1.75073e-10
1.2367e-12
-1.70745e-10
1.36072e-12
-1.66241e-10
1.46453e-12
-1.61745e-10
1.55024e-12
-1.57285e-10
1.61976e-12
-1.52868e-10
1.67467e-12
-1.48496e-10
1.71626e-12
-1.44174e-10
1.74555e-12
-1.39904e-10
1.76336e-12
-1.3569e-10
1.77031e-12
-1.31537e-10
1.76688e-12
-1.27447e-10
1.75338e-12
-1.23424e-10
1.73005e-12
-1.19469e-10
1.69704e-12
-1.15587e-10
1.65441e-12
-1.11779e-10
1.60221e-12
-1.08049e-10
1.54043e-12
-1.04397e-10
1.46905e-12
-1.00826e-10
1.38806e-12
-9.73373e-11
1.29744e-12
-9.39328e-11
1.19719e-12
-9.06134e-11
1.08733e-12
-8.73803e-11
9.67904e-13
-8.42343e-11
8.38988e-13
-8.11758e-11
7.00689e-13
-7.82054e-11
5.53144e-13
-7.53232e-11
3.96527e-13
-7.25293e-11
2.31043e-13
-6.98234e-11
5.693e-14
-6.72052e-11
-1.25546e-13
-6.46742e-11
-3.1609e-13
-6.22298e-11
-5.14384e-13
-5.9871e-11
-7.20088e-13
-5.75969e-11
-9.32843e-13