/*--------------------------------*- C++ -*----------------------------------*\
| =========                 |                                                 |
| \\      /  F ield         | OpenFOAM: The Open Source CFD Toolbox           |
|  \\    /   O peration     | Version:  2.4.0                                 |
|   \\  /    A nd           | Web:      www.OpenFOAM.org                      |
|    \\/     M anipulation  |                                                 |
\*---------------------------------------------------------------------------*/
FoamFile
{
    version     2.0;
    format      ascii;
    class       volVectorField;
    location    "0.3";
    object      U;
}
// * * * * * * * * * * * * * * * * * * * * * * * * * * * * * * * * * * * * * //

dimensions      [0 1 -1 0 0 0 0];

internalField   nonuniform List<vector> 
8000
(
(2.55409e-10 -0.000350409 0)
(2.74035e-09 -0.00103715 0)
(7.84977e-09 -0.00170981 0)
(1.55292e-08 -0.0023684 0)
(2.56686e-08 -0.00301292 0)
(3.81912e-08 -0.00364337 0)
(5.30471e-08 -0.00425975 0)
(7.01919e-08 -0.00486207 0)
(8.95856e-08 -0.00545033 0)
(1.1119e-07 -0.00602454 0)
(1.34971e-07 -0.00658469 0)
(1.60898e-07 -0.0071308 0)
(1.88946e-07 -0.00766286 0)
(2.1909e-07 -0.00818088 0)
(2.51313e-07 -0.00868485 0)
(2.85599e-07 -0.0091748 0)
(3.21936e-07 -0.00965071 0)
(3.60316e-07 -0.0101126 0)
(4.00737e-07 -0.0105604 0)
(4.43196e-07 -0.0109943 0)
(4.87701e-07 -0.0114141 0)
(5.34255e-07 -0.0118199 0)
(5.82875e-07 -0.0122116 0)
(6.33572e-07 -0.0125894 0)
(6.8637e-07 -0.0129531 0)
(7.41291e-07 -0.0133029 0)
(7.98368e-07 -0.0136386 0)
(8.57628e-07 -0.0139603 0)
(9.19117e-07 -0.014268 0)
(9.82868e-07 -0.0145618 0)
(1.04894e-06 -0.0148415 0)
(1.11738e-06 -0.0151072 0)
(1.18825e-06 -0.015359 0)
(1.2616e-06 -0.0155967 0)
(1.33752e-06 -0.0158205 0)
(1.41606e-06 -0.0160303 0)
(1.49733e-06 -0.0162261 0)
(1.58139e-06 -0.0164079 0)
(1.66837e-06 -0.0165757 0)
(1.7583e-06 -0.0167296 0)
(1.85139e-06 -0.0168694 0)
(1.94765e-06 -0.0169953 0)
(2.0473e-06 -0.0171072 0)
(2.15029e-06 -0.0172052 0)
(2.2568e-06 -0.0172891 0)
(2.36701e-06 -0.0173591 0)
(2.48285e-06 -0.0174152 0)
(2.6064e-06 -0.0174572 0)
(2.73403e-06 -0.0174853 0)
(2.81854e-06 -0.0174994 0)
(3.99092e-10 -0.00035043 0)
(4.27116e-09 -0.00103721 0)
(1.22165e-08 -0.00170991 0)
(2.41401e-08 -0.00236854 0)
(3.98603e-08 -0.0030131 0)
(5.92473e-08 -0.00364358 0)
(8.22129e-08 -0.00426 0)
(1.08678e-07 -0.00486235 0)
(1.38571e-07 -0.00545065 0)
(1.71821e-07 -0.00602489 0)
(2.08366e-07 -0.00658508 0)
(2.48147e-07 -0.00713121 0)
(2.91115e-07 -0.00766331 0)
(3.37221e-07 -0.00818135 0)
(3.86427e-07 -0.00868536 0)
(4.38697e-07 -0.00917534 0)
(4.94002e-07 -0.00965128 0)
(5.52317e-07 -0.0101132 0)
(6.13626e-07 -0.0105611 0)
(6.77913e-07 -0.0109949 0)
(7.45174e-07 -0.0114148 0)
(8.15404e-07 -0.0118206 0)
(8.88609e-07 -0.0122124 0)
(9.64794e-07 -0.0125902 0)
(1.04398e-06 -0.0129539 0)
(1.12618e-06 -0.0133037 0)
(1.21143e-06 -0.0136395 0)
(1.29975e-06 -0.0139612 0)
(1.3912e-06 -0.014269 0)
(1.48579e-06 -0.0145628 0)
(1.58361e-06 -0.0148425 0)
(1.68468e-06 -0.0151083 0)
(1.78909e-06 -0.0153601 0)
(1.89689e-06 -0.0155979 0)
(2.00819e-06 -0.0158217 0)
(2.12302e-06 -0.0160315 0)
(2.24153e-06 -0.0162273 0)
(2.36376e-06 -0.0164092 0)
(2.48988e-06 -0.016577 0)
(2.61993e-06 -0.0167309 0)
(2.75413e-06 -0.0168708 0)
(2.89248e-06 -0.0169968 0)
(3.03529e-06 -0.0171087 0)
(3.18241e-06 -0.0172067 0)
(3.33409e-06 -0.0172908 0)
(3.49051e-06 -0.0173608 0)
(3.65429e-06 -0.0174169 0)
(3.82836e-06 -0.017459 0)
(4.00786e-06 -0.0174871 0)
(4.12733e-06 -0.0175013 0)
(5.8748e-10 -0.000350461 0)
(6.27152e-09 -0.0010373 0)
(1.79181e-08 -0.00171007 0)
(3.53779e-08 -0.00236875 0)
(5.83742e-08 -0.00301336 0)
(8.67063e-08 -0.0036439 0)
(1.20234e-07 -0.00426037 0)
(1.58833e-07 -0.00486278 0)
(2.02385e-07 -0.00545112 0)
(2.50778e-07 -0.00602541 0)
(3.03909e-07 -0.00658565 0)
(3.61683e-07 -0.00713183 0)
(4.24013e-07 -0.00766397 0)
(4.90819e-07 -0.00818207 0)
(5.62033e-07 -0.00868612 0)
(6.37588e-07 -0.00917614 0)
(7.17432e-07 -0.00965213 0)
(8.01515e-07 -0.0101141 0)
(8.89797e-07 -0.010562 0)
(9.82243e-07 -0.0109959 0)
(1.07883e-06 -0.0114158 0)
(1.17954e-06 -0.0118216 0)
(1.28435e-06 -0.0122135 0)
(1.39327e-06 -0.0125913 0)
(1.50631e-06 -0.0129551 0)
(1.62345e-06 -0.013305 0)
(1.74474e-06 -0.0136408 0)
(1.87018e-06 -0.0139626 0)
(1.99983e-06 -0.0142704 0)
(2.13369e-06 -0.0145642 0)
(2.27185e-06 -0.014844 0)
(2.41434e-06 -0.0151098 0)
(2.56123e-06 -0.0153616 0)
(2.71258e-06 -0.0155995 0)
(2.8685e-06 -0.0158233 0)
(3.02902e-06 -0.0160332 0)
(3.19431e-06 -0.0162291 0)
(3.36438e-06 -0.016411 0)
(3.53945e-06 -0.0165789 0)
(3.71952e-06 -0.0167329 0)
(3.90486e-06 -0.0168728 0)
(4.09545e-06 -0.0169988 0)
(4.29163e-06 -0.0171109 0)
(4.4932e-06 -0.0172089 0)
(4.70043e-06 -0.017293 0)
(4.91351e-06 -0.0173631 0)
(5.13584e-06 -0.0174193 0)
(5.37139e-06 -0.0174614 0)
(5.61385e-06 -0.0174897 0)
(5.77606e-06 -0.0175039 0)
(8.2009e-10 -0.000350506 0)
(8.74842e-09 -0.00103743 0)
(2.49794e-08 -0.00171028 0)
(4.92955e-08 -0.00236905 0)
(8.13004e-08 -0.00301374 0)
(1.20704e-07 -0.00364435 0)
(1.673e-07 -0.0042609 0)
(2.20905e-07 -0.00486338 0)
(2.81342e-07 -0.0054518 0)
(3.48444e-07 -0.00602616 0)
(4.22057e-07 -0.00658646 0)
(5.02036e-07 -0.00713271 0)
(5.88249e-07 -0.00766492 0)
(6.80571e-07 -0.00818308 0)
(7.78893e-07 -0.0086872 0)
(8.83112e-07 -0.00917728 0)
(9.93138e-07 -0.00965333 0)
(1.10889e-06 -0.0101153 0)
(1.23029e-06 -0.0105633 0)
(1.35728e-06 -0.0109973 0)
(1.48981e-06 -0.0114172 0)
(1.62782e-06 -0.0118231 0)
(1.7713e-06 -0.012215 0)
(1.92021e-06 -0.0125929 0)
(2.07453e-06 -0.0129568 0)
(2.23425e-06 -0.0133067 0)
(2.39939e-06 -0.0136426 0)
(2.56993e-06 -0.0139644 0)
(2.74592e-06 -0.0142723 0)
(2.92735e-06 -0.0145662 0)
(3.1143e-06 -0.014846 0)
(3.30676e-06 -0.0151119 0)
(3.50483e-06 -0.0153638 0)
(3.70853e-06 -0.0156017 0)
(3.91798e-06 -0.0158256 0)
(4.1332e-06 -0.0160356 0)
(4.35434e-06 -0.0162315 0)
(4.58141e-06 -0.0164135 0)
(4.81463e-06 -0.0165815 0)
(5.05398e-06 -0.0167355 0)
(5.29974e-06 -0.0168755 0)
(5.55186e-06 -0.0170016 0)
(5.8107e-06 -0.0171137 0)
(6.076e-06 -0.0172118 0)
(6.348e-06 -0.017296 0)
(6.62692e-06 -0.0173662 0)
(6.91697e-06 -0.0174224 0)
(7.2233e-06 -0.0174647 0)
(7.53805e-06 -0.017493 0)
(7.7498e-06 -0.0175074 0)
(1.09292e-09 -0.000350567 0)
(1.1638e-08 -0.00103761 0)
(3.32094e-08 -0.00171058 0)
(6.55091e-08 -0.00236945 0)
(1.08e-07 -0.00301425 0)
(1.60288e-07 -0.00364497 0)
(2.22088e-07 -0.00426162 0)
(2.93144e-07 -0.0048642 0)
(3.73212e-07 -0.00545272 0)
(4.6206e-07 -0.00602717 0)
(5.59468e-07 -0.00658757 0)
(6.65233e-07 -0.00713391 0)
(7.79165e-07 -0.0076662 0)
(9.01088e-07 -0.00818445 0)
(1.03084e-06 -0.00868866 0)
(1.16827e-06 -0.00917882 0)
(1.31324e-06 -0.00965495 0)
(1.46563e-06 -0.010117 0)
(1.62531e-06 -0.0105651 0)
(1.7922e-06 -0.0109991 0)
(1.9662e-06 -0.0114192 0)
(2.14723e-06 -0.0118252 0)
(2.33522e-06 -0.0122171 0)
(2.53011e-06 -0.0125951 0)
(2.73186e-06 -0.0129591 0)
(2.94042e-06 -0.013309 0)
(3.15578e-06 -0.013645 0)
(3.3779e-06 -0.0139669 0)
(3.60679e-06 -0.0142748 0)
(3.84243e-06 -0.0145688 0)
(4.08486e-06 -0.0148487 0)
(4.33406e-06 -0.0151147 0)
(4.59009e-06 -0.0153667 0)
(4.85296e-06 -0.0156046 0)
(5.12275e-06 -0.0158286 0)
(5.39946e-06 -0.0160387 0)
(5.68323e-06 -0.0162347 0)
(5.97402e-06 -0.0164167 0)
(6.27204e-06 -0.0165848 0)
(6.57723e-06 -0.0167389 0)
(6.88986e-06 -0.0168791 0)
(7.20984e-06 -0.0170052 0)
(7.5375e-06 -0.0171174 0)
(7.8725e-06 -0.0172156 0)
(8.21503e-06 -0.0172999 0)
(8.56531e-06 -0.0173702 0)
(8.92831e-06 -0.0174265 0)
(9.31046e-06 -0.0174689 0)
(9.7024e-06 -0.0174973 0)
(9.96775e-06 -0.0175117 0)
(1.38556e-09 -0.000350647 0)
(1.47593e-08 -0.00103785 0)
(4.21079e-08 -0.00171096 0)
(8.30469e-08 -0.00236998 0)
(1.36886e-07 -0.00301492 0)
(2.03114e-07 -0.00364578 0)
(2.81363e-07 -0.00426256 0)
(3.71295e-07 -0.00486527 0)
(4.72592e-07 -0.00545391 0)
(5.84944e-07 -0.00602849 0)
(7.08064e-07 -0.006589 0)
(8.41679e-07 -0.00713546 0)
(9.85535e-07 -0.00766787 0)
(1.13939e-06 -0.00818623 0)
(1.30303e-06 -0.00869054 0)
(1.47624e-06 -0.00918081 0)
(1.65884e-06 -0.00965704 0)
(1.85063e-06 -0.0101192 0)
(2.05147e-06 -0.0105674 0)
(2.26119e-06 -0.0110015 0)
(2.47967e-06 -0.0114217 0)
(2.70677e-06 -0.0118278 0)
(2.94238e-06 -0.0122198 0)
(3.1864e-06 -0.0125979 0)
(3.43874e-06 -0.0129619 0)
(3.69931e-06 -0.013312 0)
(3.96806e-06 -0.013648 0)
(4.24491e-06 -0.0139701 0)
(4.52983e-06 -0.0142781 0)
(4.82276e-06 -0.0145721 0)
(5.12368e-06 -0.0148522 0)
(5.43254e-06 -0.0151182 0)
(5.74937e-06 -0.0153703 0)
(6.07411e-06 -0.0156084 0)
(6.40682e-06 -0.0158325 0)
(6.74742e-06 -0.0160426 0)
(7.09602e-06 -0.0162387 0)
(7.45254e-06 -0.0164208 0)
(7.81711e-06 -0.016589 0)
(8.18962e-06 -0.0167432 0)
(8.57029e-06 -0.0168835 0)
(8.95896e-06 -0.0170097 0)
(9.35589e-06 -0.017122 0)
(9.76066e-06 -0.0172203 0)
(1.01733e-05 -0.0173047 0)
(1.0594e-05 -0.0173751 0)
(1.10284e-05 -0.0174315 0)
(1.14841e-05 -0.017474 0)
(1.19505e-05 -0.0175025 0)
(1.22684e-05 -0.0175171 0)
(1.67264e-09 -0.000350746 0)
(1.77837e-08 -0.00103814 0)
(5.07164e-08 -0.00171144 0)
(1.00003e-07 -0.00237064 0)
(1.64806e-07 -0.00301575 0)
(2.44506e-07 -0.00364678 0)
(3.3865e-07 -0.00426372 0)
(4.46826e-07 -0.00486659 0)
(5.68637e-07 -0.00545539 0)
(7.03703e-07 -0.00603011 0)
(8.51663e-07 -0.00659078 0)
(1.01218e-06 -0.00713738 0)
(1.18492e-06 -0.00766993 0)
(1.36959e-06 -0.00818842 0)
(1.56591e-06 -0.00869287 0)
(1.7736e-06 -0.00918327 0)
(1.99241e-06 -0.00965963 0)
(2.22211e-06 -0.010122 0)
(2.46248e-06 -0.0105702 0)
(2.71331e-06 -0.0110045 0)
(2.97441e-06 -0.0114247 0)
(3.24559e-06 -0.0118309 0)
(3.52669e-06 -0.0122231 0)
(3.81756e-06 -0.0126013 0)
(4.11805e-06 -0.0129655 0)
(4.42802e-06 -0.0133156 0)
(4.74737e-06 -0.0136518 0)
(5.07596e-06 -0.0139739 0)
(5.4137e-06 -0.0142821 0)
(5.76048e-06 -0.0145762 0)
(6.11623e-06 -0.0148564 0)
(6.48084e-06 -0.0151225 0)
(6.85426e-06 -0.0153747 0)
(7.23639e-06 -0.0156129 0)
(7.62719e-06 -0.0158371 0)
(8.02655e-06 -0.0160473 0)
(8.43447e-06 -0.0162435 0)
(8.8508e-06 -0.0164258 0)
(9.27559e-06 -0.016594 0)
(9.70864e-06 -0.0167483 0)
(1.015e-05 -0.0168887 0)
(1.05996e-05 -0.017015 0)
(1.10573e-05 -0.0171274 0)
(1.15228e-05 -0.0172259 0)
(1.19957e-05 -0.0173103 0)
(1.24764e-05 -0.0173808 0)
(1.29704e-05 -0.0174374 0)
(1.34864e-05 -0.01748 0)
(1.4013e-05 -0.0175086 0)
(1.43746e-05 -0.0175232 0)
(1.89e-09 -0.000350862 0)
(2.01426e-08 -0.00103848 0)
(5.74692e-08 -0.001712 0)
(1.13347e-07 -0.00237141 0)
(1.86828e-07 -0.00301673 0)
(2.77209e-07 -0.00364795 0)
(3.83971e-07 -0.00426509 0)
(5.06642e-07 -0.00486814 0)
(6.44762e-07 -0.00545712 0)
(7.97887e-07 -0.00603202 0)
(9.65594e-07 -0.00659286 0)
(1.14748e-06 -0.00713963 0)
(1.34316e-06 -0.00767234 0)
(1.55227e-06 -0.00819099 0)
(1.77446e-06 -0.00869559 0)
(2.00941e-06 -0.00918614 0)
(2.25679e-06 -0.00966265 0)
(2.51632e-06 -0.0101251 0)
(2.7877e-06 -0.0105735 0)
(3.07067e-06 -0.0110079 0)
(3.36498e-06 -0.0114283 0)
(3.67037e-06 -0.0118347 0)
(3.98662e-06 -0.012227 0)
(4.31351e-06 -0.0126053 0)
(4.65083e-06 -0.0129696 0)
(4.99838e-06 -0.0133199 0)
(5.35597e-06 -0.0136561 0)
(5.7234e-06 -0.0139784 0)
(6.10052e-06 -0.0142866 0)
(6.48713e-06 -0.0145809 0)
(6.88309e-06 -0.0148612 0)
(7.28822e-06 -0.0151274 0)
(7.70237e-06 -0.0153797 0)
(8.12537e-06 -0.015618 0)
(8.55708e-06 -0.0158423 0)
(8.99731e-06 -0.0160527 0)
(9.44594e-06 -0.016249 0)
(9.90276e-06 -0.0164314 0)
(1.03676e-05 -0.0165997 0)
(1.08403e-05 -0.0167542 0)
(1.13208e-05 -0.0168946 0)
(1.18086e-05 -0.0170211 0)
(1.23038e-05 -0.0171335 0)
(1.28057e-05 -0.0172321 0)
(1.33138e-05 -0.0173166 0)
(1.38282e-05 -0.0173872 0)
(1.43546e-05 -0.0174439 0)
(1.49017e-05 -0.0174865 0)
(1.54582e-05 -0.0175152 0)
(1.58431e-05 -0.0175299 0)
(1.99459e-09 -0.00035099 0)
(2.12317e-08 -0.00103886 0)
(6.05929e-08 -0.00171261 0)
(1.19543e-07 -0.00237226 0)
(1.97095e-07 -0.0030178 0)
(2.92513e-07 -0.00364924 0)
(4.05245e-07 -0.00426659 0)
(5.34783e-07 -0.00486985 0)
(6.80625e-07 -0.00545903 0)
(8.42277e-07 -0.00603412 0)
(1.01926e-06 -0.00659515 0)
(1.21113e-06 -0.0071421 0)
(1.41742e-06 -0.00767499 0)
(1.6377e-06 -0.00819381 0)
(1.87157e-06 -0.00869858 0)
(2.11862e-06 -0.0091893 0)
(2.37846e-06 -0.00966596 0)
(2.65071e-06 -0.0101286 0)
(2.93501e-06 -0.0105772 0)
(3.23099e-06 -0.0110117 0)
(3.53832e-06 -0.0114322 0)
(3.85665e-06 -0.0118387 0)
(4.18567e-06 -0.0122312 0)
(4.52505e-06 -0.0126096 0)
(4.87447e-06 -0.012974 0)
(5.23365e-06 -0.0133244 0)
(5.60227e-06 -0.0136608 0)
(5.98004e-06 -0.0139832 0)
(6.36667e-06 -0.0142916 0)
(6.76187e-06 -0.014586 0)
(7.16537e-06 -0.0148664 0)
(7.57689e-06 -0.0151328 0)
(7.99613e-06 -0.0153851 0)
(8.42284e-06 -0.0156235 0)
(8.85673e-06 -0.015848 0)
(9.29754e-06 -0.0160584 0)
(9.74497e-06 -0.0162548 0)
(1.01988e-05 -0.0164373 0)
(1.06586e-05 -0.0166058 0)
(1.11244e-05 -0.0167603 0)
(1.15956e-05 -0.0169008 0)
(1.20721e-05 -0.0170273 0)
(1.25536e-05 -0.0171399 0)
(1.30397e-05 -0.0172385 0)
(1.35297e-05 -0.0173231 0)
(1.40238e-05 -0.0173938 0)
(1.4527e-05 -0.0174505 0)
(1.50482e-05 -0.0174932 0)
(1.55774e-05 -0.017522 0)
(1.59465e-05 -0.0175367 0)
(1.91376e-09 -0.000351119 0)
(2.05799e-08 -0.00103924 0)
(5.88672e-08 -0.00171323 0)
(1.16288e-07 -0.00237312 0)
(1.91895e-07 -0.00301889 0)
(2.84976e-07 -0.00365055 0)
(3.94983e-07 -0.00426812 0)
(5.21404e-07 -0.00487158 0)
(6.6372e-07 -0.00546096 0)
(8.21418e-07 -0.00603626 0)
(9.93989e-07 -0.00659747 0)
(1.18093e-06 -0.0071446 0)
(1.38176e-06 -0.00767767 0)
(1.59599e-06 -0.00819666 0)
(1.82314e-06 -0.0087016 0)
(2.06274e-06 -0.00919248 0)
(2.31434e-06 -0.0096693 0)
(2.57747e-06 -0.0101321 0)
(2.85169e-06 -0.0105808 0)
(3.13655e-06 -0.0110155 0)
(3.43161e-06 -0.0114361 0)
(3.73644e-06 -0.0118428 0)
(4.05061e-06 -0.0122353 0)
(4.37368e-06 -0.0126139 0)
(4.70524e-06 -0.0129784 0)
(5.04486e-06 -0.013329 0)
(5.39211e-06 -0.0136655 0)
(5.74659e-06 -0.0139879 0)
(6.10786e-06 -0.0142964 0)
(6.47553e-06 -0.0145909 0)
(6.84916e-06 -0.0148714 0)
(7.22835e-06 -0.0151378 0)
(7.61266e-06 -0.0153903 0)
(8.00172e-06 -0.0156288 0)
(8.39506e-06 -0.0158533 0)
(8.79234e-06 -0.0160638 0)
(9.19308e-06 -0.0162603 0)
(9.59696e-06 -0.0164428 0)
(1.00035e-05 -0.0166113 0)
(1.04124e-05 -0.0167659 0)
(1.08232e-05 -0.0169064 0)
(1.12356e-05 -0.017033 0)
(1.16492e-05 -0.0171456 0)
(1.20637e-05 -0.0172443 0)
(1.24781e-05 -0.0173289 0)
(1.2893e-05 -0.0173996 0)
(1.33119e-05 -0.0174564 0)
(1.37424e-05 -0.0174991 0)
(1.41768e-05 -0.0175279 0)
(1.44814e-05 -0.0175427 0)
(1.82474e-09 -0.00035124 0)
(1.95512e-08 -0.00103959 0)
(5.57878e-08 -0.00171382 0)
(1.09997e-07 -0.00237392 0)
(1.812e-07 -0.00301991 0)
(2.68652e-07 -0.00365178 0)
(3.7177e-07 -0.00426955 0)
(4.90014e-07 -0.00487321 0)
(6.22839e-07 -0.00546278 0)
(7.69712e-07 -0.00603825 0)
(9.30104e-07 -0.00659964 0)
(1.1035e-06 -0.00714695 0)
(1.28938e-06 -0.00768017 0)
(1.48726e-06 -0.00819933 0)
(1.69663e-06 -0.00870442 0)
(1.917e-06 -0.00919544 0)
(2.14789e-06 -0.0096724 0)
(2.38882e-06 -0.0101353 0)
(2.63931e-06 -0.0105842 0)
(2.89888e-06 -0.011019 0)
(3.16706e-06 -0.0114397 0)
(3.44337e-06 -0.0118465 0)
(3.72734e-06 -0.0122391 0)
(4.01849e-06 -0.0126178 0)
(4.31634e-06 -0.0129824 0)
(4.6204e-06 -0.013333 0)
(4.93018e-06 -0.0136696 0)
(5.2452e-06 -0.0139922 0)
(5.56493e-06 -0.0143007 0)
(5.88886e-06 -0.0145953 0)
(6.21648e-06 -0.0148758 0)
(6.54723e-06 -0.0151423 0)
(6.88057e-06 -0.0153948 0)
(7.21593e-06 -0.0156333 0)
(7.55271e-06 -0.0158578 0)
(7.89031e-06 -0.0160684 0)
(8.22808e-06 -0.0162649 0)
(8.56539e-06 -0.0164474 0)
(8.9015e-06 -0.016616 0)
(9.23574e-06 -0.0167705 0)
(9.56729e-06 -0.0169111 0)
(9.89544e-06 -0.0170377 0)
(1.02192e-05 -0.0171503 0)
(1.05378e-05 -0.0172489 0)
(1.08498e-05 -0.0173335 0)
(1.11547e-05 -0.0174042 0)
(1.14536e-05 -0.0174609 0)
(1.175e-05 -0.0175036 0)
(1.20375e-05 -0.0175324 0)
(1.22338e-05 -0.0175471 0)
(1.61133e-09 -0.000351357 0)
(1.65712e-08 -0.00103993 0)
(4.68086e-08 -0.00171437 0)
(9.17272e-08 -0.00237469 0)
(1.50377e-07 -0.00302087 0)
(2.22026e-07 -0.00365294 0)
(3.06087e-07 -0.00427088 0)
(4.02012e-07 -0.00487472 0)
(5.0926e-07 -0.00546446 0)
(6.27297e-07 -0.0060401 0)
(7.55601e-07 -0.00660164 0)
(8.93659e-07 -0.00714909 0)
(1.04097e-06 -0.00768246 0)
(1.19702e-06 -0.00820176 0)
(1.36133e-06 -0.00870697 0)
(1.5334e-06 -0.00919812 0)
(1.71274e-06 -0.0096752 0)
(1.89885e-06 -0.0101382 0)
(2.09124e-06 -0.0105872 0)
(2.28942e-06 -0.0110221 0)
(2.49286e-06 -0.0114429 0)
(2.70106e-06 -0.0118498 0)
(2.91349e-06 -0.0122425 0)
(3.12962e-06 -0.0126213 0)
(3.34889e-06 -0.012986 0)
(3.57073e-06 -0.0133366 0)
(3.79455e-06 -0.0136733 0)
(4.01975e-06 -0.0139959 0)
(4.24567e-06 -0.0143045 0)
(4.47167e-06 -0.014599 0)
(4.69701e-06 -0.0148796 0)
(4.92101e-06 -0.0151461 0)
(5.14283e-06 -0.0153987 0)
(5.36171e-06 -0.0156372 0)
(5.57669e-06 -0.0158617 0)
(5.78695e-06 -0.0160722 0)
(5.99135e-06 -0.0162687 0)
(6.18898e-06 -0.0164512 0)
(6.37851e-06 -0.0166197 0)
(6.55892e-06 -0.0167742 0)
(6.72859e-06 -0.0169147 0)
(6.88643e-06 -0.0170412 0)
(7.03043e-06 -0.0171537 0)
(7.15945e-06 -0.0172522 0)
(7.27099e-06 -0.0173367 0)
(7.36392e-06 -0.0174072 0)
(7.43466e-06 -0.0174637 0)
(7.48118e-06 -0.0175062 0)
(7.49858e-06 -0.0175347 0)
(7.49525e-06 -0.0175492 0)
(5.89252e-10 -0.000351439 0)
(6.2194e-09 -0.00104017 0)
(1.75687e-08 -0.00171476 0)
(3.43664e-08 -0.00237521 0)
(5.61419e-08 -0.00302153 0)
(8.25026e-08 -0.00365372 0)
(1.13072e-07 -0.00427179 0)
(1.47482e-07 -0.00487575 0)
(1.85336e-07 -0.00546559 0)
(2.26232e-07 -0.00604133 0)
(2.69743e-07 -0.00660297 0)
(3.15438e-07 -0.00715051 0)
(3.62858e-07 -0.00768396 0)
(4.11543e-07 -0.00820333 0)
(4.60997e-07 -0.00870862 0)
(5.10728e-07 -0.00919983 0)
(5.60203e-07 -0.00967696 0)
(6.0889e-07 -0.01014 0)
(6.5621e-07 -0.010589 0)
(7.01594e-07 -0.011024 0)
(7.44409e-07 -0.0114449 0)
(7.84042e-07 -0.0118517 0)
(8.19795e-07 -0.0122445 0)
(8.51009e-07 -0.0126232 0)
(8.76913e-07 -0.0129879 0)
(8.96796e-07 -0.0133386 0)
(9.09796e-07 -0.0136752 0)
(9.15153e-07 -0.0139978 0)
(9.11894e-07 -0.0143064 0)
(8.99208e-07 -0.0146009 0)
(8.75992e-07 -0.0148814 0)
(8.41388e-07 -0.0151479 0)
(7.94128e-07 -0.0154003 0)
(7.33321e-07 -0.0156387 0)
(6.57494e-07 -0.0158631 0)
(5.65743e-07 -0.0160735 0)
(4.56338e-07 -0.0162699 0)
(3.28395e-07 -0.0164522 0)
(1.79858e-07 -0.0166206 0)
(9.92006e-09 -0.0167749 0)
(-1.8391e-07 -0.0169152 0)
(-4.02287e-07 -0.0170414 0)
(-6.48233e-07 -0.0171537 0)
(-9.2189e-07 -0.0172519 0)
(-1.22665e-06 -0.0173361 0)
(-1.56281e-06 -0.0174062 0)
(-1.94026e-06 -0.0174623 0)
(-2.36739e-06 -0.0175044 0)
(-2.84229e-06 -0.0175325 0)
(-3.19731e-06 -0.0175465 0)
(-1.02544e-09 -0.000351433 0)
(-1.08747e-08 -0.00104015 0)
(-3.10544e-08 -0.00171473 0)
(-6.13377e-08 -0.00237517 0)
(-1.01367e-07 -0.00302147 0)
(-1.50938e-07 -0.00365365 0)
(-2.10023e-07 -0.0042717 0)
(-2.78646e-07 -0.00487563 0)
(-3.56903e-07 -0.00546545 0)
(-4.44924e-07 -0.00604115 0)
(-5.42912e-07 -0.00660276 0)
(-6.51102e-07 -0.00715026 0)
(-7.698e-07 -0.00768367 0)
(-8.99342e-07 -0.00820298 0)
(-1.04013e-06 -0.00870821 0)
(-1.1926e-06 -0.00919936 0)
(-1.35725e-06 -0.00967643 0)
(-1.53461e-06 -0.0101394 0)
(-1.72526e-06 -0.0105883 0)
(-1.92982e-06 -0.0110232 0)
(-2.149e-06 -0.011444 0)
(-2.38347e-06 -0.0118507 0)
(-2.63405e-06 -0.0122434 0)
(-2.90149e-06 -0.012622 0)
(-3.18674e-06 -0.0129865 0)
(-3.49061e-06 -0.013337 0)
(-3.81417e-06 -0.0136735 0)
(-4.15829e-06 -0.0139959 0)
(-4.52418e-06 -0.0143043 0)
(-4.91277e-06 -0.0145986 0)
(-5.32542e-06 -0.0148789 0)
(-5.76308e-06 -0.0151451 0)
(-6.2273e-06 -0.0153973 0)
(-6.71903e-06 -0.0156355 0)
(-7.24002e-06 -0.0158596 0)
(-7.79117e-06 -0.0160697 0)
(-8.37453e-06 -0.0162657 0)
(-8.99084e-06 -0.0164477 0)
(-9.6425e-06 -0.0166157 0)
(-1.033e-05 -0.0167696 0)
(-1.10563e-05 -0.0169095 0)
(-1.18215e-05 -0.0170354 0)
(-1.26289e-05 -0.0171472 0)
(-1.34777e-05 -0.0172449 0)
(-1.43712e-05 -0.0173286 0)
(-1.53093e-05 -0.0173983 0)
(-1.63091e-05 -0.0174539 0)
(-1.73886e-05 -0.0174955 0)
(-1.85315e-05 -0.0175229 0)
(-1.9357e-05 -0.0175364 0)
(-2.99878e-09 -0.000351307 0)
(-3.18783e-08 -0.00103978 0)
(-9.10613e-08 -0.00171413 0)
(-1.79849e-07 -0.00237433 0)
(-2.96999e-07 -0.00302041 0)
(-4.41679e-07 -0.00365237 0)
(-6.13433e-07 -0.0042702 0)
(-8.11909e-07 -0.00487391 0)
(-1.03685e-06 -0.00546351 0)
(-1.28805e-06 -0.006039 0)
(-1.56542e-06 -0.00660039 0)
(-1.86891e-06 -0.00714767 0)
(-2.19858e-06 -0.00768086 0)
(-2.55455e-06 -0.00819995 0)
(-2.93703e-06 -0.00870495 0)
(-3.34627e-06 -0.00919586 0)
(-3.78264e-06 -0.00967269 0)
(-4.24652e-06 -0.0101354 0)
(-4.7384e-06 -0.0105841 0)
(-5.25881e-06 -0.0110187 0)
(-5.80838e-06 -0.0114392 0)
(-6.38774e-06 -0.0118456 0)
(-6.99767e-06 -0.012238 0)
(-7.6389e-06 -0.0126163 0)
(-8.31237e-06 -0.0129806 0)
(-9.01888e-06 -0.0133308 0)
(-9.75953e-06 -0.0136669 0)
(-1.05352e-05 -0.0139889 0)
(-1.13472e-05 -0.0142969 0)
(-1.21964e-05 -0.0145909 0)
(-1.30842e-05 -0.0148708 0)
(-1.40117e-05 -0.0151366 0)
(-1.49805e-05 -0.0153884 0)
(-1.59915e-05 -0.0156261 0)
(-1.70467e-05 -0.0158497 0)
(-1.8147e-05 -0.0160594 0)
(-1.92945e-05 -0.0162549 0)
(-2.04901e-05 -0.0164364 0)
(-2.17363e-05 -0.0166038 0)
(-2.30336e-05 -0.0167572 0)
(-2.43853e-05 -0.0168965 0)
(-2.57915e-05 -0.0170218 0)
(-2.7256e-05 -0.017133 0)
(-2.87773e-05 -0.0172301 0)
(-3.03591e-05 -0.0173131 0)
(-3.20019e-05 -0.0173821 0)
(-3.37329e-05 -0.017437 0)
(-3.55842e-05 -0.0174779 0)
(-3.75145e-05 -0.0175046 0)
(-3.88975e-05 -0.0175175 0)
(-5.22072e-09 -0.000351047 0)
(-5.61585e-08 -0.00103902 0)
(-1.60807e-07 -0.00171287 0)
(-3.18029e-07 -0.00237259 0)
(-5.25632e-07 -0.0030182 0)
(-7.82118e-07 -0.00364969 0)
(-1.08659e-06 -0.00426707 0)
(-1.43831e-06 -0.00487034 0)
(-1.83663e-06 -0.00545949 0)
(-2.28102e-06 -0.00603455 0)
(-2.77103e-06 -0.0065955 0)
(-3.30633e-06 -0.00714235 0)
(-3.8867e-06 -0.0076751 0)
(-4.51199e-06 -0.00819375 0)
(-5.18219e-06 -0.00869832 0)
(-5.89734e-06 -0.00918879 0)
(-6.65761e-06 -0.00966517 0)
(-7.46323e-06 -0.0101275 0)
(-8.31455e-06 -0.0105757 0)
(-9.21196e-06 -0.0110098 0)
(-1.0156e-05 -0.0114299 0)
(-1.11472e-05 -0.0118358 0)
(-1.21863e-05 -0.0122277 0)
(-1.32739e-05 -0.0126055 0)
(-1.4411e-05 -0.0129693 0)
(-1.55984e-05 -0.0133189 0)
(-1.68371e-05 -0.0136545 0)
(-1.81281e-05 -0.0139761 0)
(-1.94727e-05 -0.0142835 0)
(-2.08717e-05 -0.0145769 0)
(-2.23269e-05 -0.0148562 0)
(-2.38392e-05 -0.0151214 0)
(-2.54104e-05 -0.0153726 0)
(-2.70415e-05 -0.0156096 0)
(-2.87348e-05 -0.0158327 0)
(-3.0491e-05 -0.0160416 0)
(-3.23129e-05 -0.0162364 0)
(-3.42011e-05 -0.0164172 0)
(-3.61589e-05 -0.0165839 0)
(-3.81866e-05 -0.0167365 0)
(-4.02882e-05 -0.0168751 0)
(-4.24637e-05 -0.0169995 0)
(-4.47179e-05 -0.0171098 0)
(-4.70485e-05 -0.0172061 0)
(-4.94599e-05 -0.0172883 0)
(-5.19544e-05 -0.0173563 0)
(-5.45727e-05 -0.0174103 0)
(-5.73623e-05 -0.0174501 0)
(-6.02211e-05 -0.0174758 0)
(-6.2265e-05 -0.017488 0)
(-7.79176e-09 -0.000350625 0)
(-8.33724e-08 -0.00103777 0)
(-2.38712e-07 -0.00171082 0)
(-4.72235e-07 -0.00236977 0)
(-7.80807e-07 -0.00301461 0)
(-1.16232e-06 -0.00364535 0)
(-1.6155e-06 -0.00426199 0)
(-2.1393e-06 -0.00486453 0)
(-2.73277e-06 -0.00545298 0)
(-3.39507e-06 -0.00602732 0)
(-4.12552e-06 -0.00658757 0)
(-4.92352e-06 -0.00713373 0)
(-5.78865e-06 -0.00766579 0)
(-6.72057e-06 -0.00818376 0)
(-7.7191e-06 -0.00868763 0)
(-8.78413e-06 -0.00917742 0)
(-9.91574e-06 -0.00965311 0)
(-1.1114e-05 -0.0101147 0)
(-1.23792e-05 -0.0105622 0)
(-1.37118e-05 -0.0109957 0)
(-1.51121e-05 -0.011415 0)
(-1.65807e-05 -0.0118203 0)
(-1.81184e-05 -0.0122114 0)
(-1.97258e-05 -0.0125885 0)
(-2.14038e-05 -0.0129515 0)
(-2.31534e-05 -0.0133004 0)
(-2.49758e-05 -0.0136353 0)
(-2.68718e-05 -0.013956 0)
(-2.8843e-05 -0.0142626 0)
(-3.08905e-05 -0.0145552 0)
(-3.30159e-05 -0.0148337 0)
(-3.52203e-05 -0.015098 0)
(-3.7506e-05 -0.0153483 0)
(-3.98738e-05 -0.0155845 0)
(-4.23264e-05 -0.0158066 0)
(-4.48647e-05 -0.0160146 0)
(-4.74918e-05 -0.0162085 0)
(-5.02082e-05 -0.0163883 0)
(-5.30178e-05 -0.016554 0)
(-5.59208e-05 -0.0167056 0)
(-5.89219e-05 -0.0168431 0)
(-6.20207e-05 -0.0169664 0)
(-6.52228e-05 -0.0170756 0)
(-6.85246e-05 -0.0171707 0)
(-7.19311e-05 -0.0172517 0)
(-7.54476e-05 -0.0173185 0)
(-7.9132e-05 -0.0173712 0)
(-8.30469e-05 -0.0174098 0)
(-8.69679e-05 -0.0174342 0)
(-8.97849e-05 -0.0174454 0)
(-1.02656e-08 -0.000350039 0)
(-1.1122e-07 -0.00103604 0)
(-3.19341e-07 -0.00170797 0)
(-6.32831e-07 -0.00236582 0)
(-1.04773e-06 -0.00300958 0)
(-1.56141e-06 -0.00363927 0)
(-2.17233e-06 -0.00425486 0)
(-2.87922e-06 -0.00485637 0)
(-3.68094e-06 -0.0054438 0)
(-4.57643e-06 -0.00601714 0)
(-5.56485e-06 -0.0065764 0)
(-6.64544e-06 -0.00712156 0)
(-7.81765e-06 -0.00765264 0)
(-9.08103e-06 -0.00816963 0)
(-1.04353e-05 -0.00867253 0)
(-1.18803e-05 -0.00916134 0)
(-1.34161e-05 -0.00963605 0)
(-1.50427e-05 -0.0100967 0)
(-1.67604e-05 -0.0105432 0)
(-1.85695e-05 -0.0109757 0)
(-2.04706e-05 -0.011394 0)
(-2.24643e-05 -0.0117983 0)
(-2.45515e-05 -0.0121884 0)
(-2.67327e-05 -0.0125645 0)
(-2.90093e-05 -0.0129264 0)
(-3.1382e-05 -0.0132743 0)
(-3.38524e-05 -0.0136081 0)
(-3.64216e-05 -0.0139277 0)
(-3.90911e-05 -0.0142333 0)
(-4.18624e-05 -0.0145247 0)
(-4.47373e-05 -0.0148021 0)
(-4.77172e-05 -0.0150653 0)
(-5.08045e-05 -0.0153144 0)
(-5.40005e-05 -0.0155494 0)
(-5.7308e-05 -0.0157703 0)
(-6.07282e-05 -0.015977 0)
(-6.42645e-05 -0.0161696 0)
(-6.79176e-05 -0.0163481 0)
(-7.1692e-05 -0.0165125 0)
(-7.55876e-05 -0.0166627 0)
(-7.96099e-05 -0.0167988 0)
(-8.37583e-05 -0.0169207 0)
(-8.80387e-05 -0.0170285 0)
(-9.24464e-05 -0.0171221 0)
(-9.69866e-05 -0.0172016 0)
(-0.000101671 -0.0172669 0)
(-0.000106578 -0.017318 0)
(-0.000111781 -0.0173549 0)
(-0.000116839 -0.0173777 0)
(-0.00012053 -0.0173879 0)
(-1.27475e-08 -0.000349276 0)
(-1.37416e-07 -0.00103379 0)
(-3.94895e-07 -0.00170425 0)
(-7.83401e-07 -0.00236066 0)
(-1.29858e-06 -0.00300301 0)
(-1.93769e-06 -0.00363129 0)
(-2.69926e-06 -0.00424552 0)
(-3.5821e-06 -0.00484567 0)
(-4.58515e-06 -0.00543176 0)
(-5.7074e-06 -0.00600377 0)
(-6.94806e-06 -0.0065617 0)
(-8.30643e-06 -0.00710556 0)
(-9.78202e-06 -0.00763534 0)
(-1.13744e-05 -0.00815103 0)
(-1.30835e-05 -0.00865264 0)
(-1.4909e-05 -0.00914015 0)
(-1.68512e-05 -0.00961358 0)
(-1.89102e-05 -0.0100729 0)
(-2.10863e-05 -0.0105181 0)
(-2.33802e-05 -0.0109493 0)
(-2.57924e-05 -0.0113663 0)
(-2.83237e-05 -0.0117693 0)
(-3.09751e-05 -0.0121581 0)
(-3.37475e-05 -0.0125328 0)
(-3.66424e-05 -0.0128934 0)
(-3.96609e-05 -0.0132399 0)
(-4.28046e-05 -0.0135723 0)
(-4.6075e-05 -0.0138905 0)
(-4.94741e-05 -0.0141946 0)
(-5.30035e-05 -0.0144846 0)
(-5.66657e-05 -0.0147605 0)
(-6.04622e-05 -0.0150222 0)
(-6.4396e-05 -0.0152698 0)
(-6.84688e-05 -0.0155032 0)
(-7.2684e-05 -0.0157225 0)
(-7.70433e-05 -0.0159277 0)
(-8.15508e-05 -0.0161187 0)
(-8.62077e-05 -0.0162955 0)
(-9.1019e-05 -0.0164581 0)
(-9.59857e-05 -0.0166066 0)
(-0.000101114 -0.0167409 0)
(-0.000106403 -0.016861 0)
(-0.000111861 -0.016967 0)
(-0.000117481 -0.0170587 0)
(-0.000123271 -0.0171363 0)
(-0.000129254 -0.0171996 0)
(-0.000135538 -0.0172488 0)
(-0.00014219 -0.0172837 0)
(-0.00014843 -0.0173046 0)
(-0.000153114 -0.0173135 0)
(-1.46055e-08 -0.000348382 0)
(-1.61154e-07 -0.00103113 0)
(-4.6553e-07 -0.00169984 0)
(-9.26409e-07 -0.00235453 0)
(-1.53926e-06 -0.00299517 0)
(-2.30136e-06 -0.00362177 0)
(-3.21141e-06 -0.00423432 0)
(-4.26837e-06 -0.00483281 0)
(-5.4713e-06 -0.00541725 0)
(-6.81931e-06 -0.00598762 0)
(-8.31164e-06 -0.00654392 0)
(-9.94766e-06 -0.00708615 0)
(-1.17269e-05 -0.0076143 0)
(-1.3649e-05 -0.00812837 0)
(-1.57138e-05 -0.00862835 0)
(-1.79212e-05 -0.00911425 0)
(-2.02713e-05 -0.00958605 0)
(-2.27642e-05 -0.0100438 0)
(-2.54005e-05 -0.0104873 0)
(-2.81805e-05 -0.0109168 0)
(-3.1105e-05 -0.0113322 0)
(-3.41748e-05 -0.0117335 0)
(-3.73908e-05 -0.0121206 0)
(-4.07542e-05 -0.0124936 0)
(-4.42663e-05 -0.0128525 0)
(-4.79285e-05 -0.0131973 0)
(-5.17425e-05 -0.0135279 0)
(-5.57099e-05 -0.0138444 0)
(-5.98331e-05 -0.0141467 0)
(-6.41137e-05 -0.0144348 0)
(-6.85546e-05 -0.0147088 0)
(-7.31579e-05 -0.0149687 0)
(-7.79268e-05 -0.0152143 0)
(-8.28638e-05 -0.0154458 0)
(-8.79728e-05 -0.0156631 0)
(-9.32564e-05 -0.0158662 0)
(-9.87193e-05 -0.0160551 0)
(-0.000104364 -0.0162298 0)
(-0.000110198 -0.0163903 0)
(-0.000116222 -0.0165366 0)
(-0.000122444 -0.0166686 0)
(-0.000128867 -0.0167864 0)
(-0.000135499 -0.01689 0)
(-0.000142337 -0.0169793 0)
(-0.000149392 -0.0170544 0)
(-0.000156711 -0.0171152 0)
(-0.000164438 -0.0171618 0)
(-0.000172575 -0.0171941 0)
(-0.00017991 -0.0172125 0)
(-0.00018566 -0.0172197 0)
(2.86461e-06 -0.0174995 0)
(3.1038e-06 -0.0174871 0)
(4.4549e-06 -0.0170385 0)
(4.84593e-06 -0.0165905 0)
(5.602e-06 -0.0161432 0)
(6.50606e-06 -0.0156994 0)
(7.46735e-06 -0.0152598 0)
(8.4541e-06 -0.0148247 0)
(9.4523e-06 -0.0143945 0)
(1.04478e-05 -0.0139697 0)
(1.14247e-05 -0.0135506 0)
(1.2367e-05 -0.0131377 0)
(1.32599e-05 -0.0127313 0)
(1.40895e-05 -0.0123317 0)
(1.48437e-05 -0.0119392 0)
(1.55115e-05 -0.0115541 0)
(1.60836e-05 -0.0111766 0)
(1.65522e-05 -0.010807 0)
(1.69111e-05 -0.0104454 0)
(1.71555e-05 -0.010092 0)
(1.72822e-05 -0.00974694 0)
(1.72893e-05 -0.00941035 0)
(1.71762e-05 -0.00908233 0)
(1.69436e-05 -0.00876294 0)
(1.65929e-05 -0.00845226 0)
(1.61268e-05 -0.00815032 0)
(1.55486e-05 -0.00785712 0)
(1.48623e-05 -0.00757268 0)
(1.40724e-05 -0.00729698 0)
(1.31839e-05 -0.00702997 0)
(1.2202e-05 -0.00677162 0)
(1.11323e-05 -0.00652184 0)
(9.98037e-06 -0.00628058 0)
(8.75183e-06 -0.00604773 0)
(7.45234e-06 -0.0058232 0)
(6.08744e-06 -0.00560686 0)
(4.66255e-06 -0.00539859 0)
(3.18291e-06 -0.00519826 0)
(1.65357e-06 -0.00500572 0)
(7.9341e-08 -0.00482082 0)
(-1.53521e-06 -0.00464341 0)
(-3.18575e-06 -0.0044733 0)
(-4.86824e-06 -0.00431034 0)
(-6.57889e-06 -0.00415434 0)
(-8.31414e-06 -0.00400512 0)
(-1.00707e-05 -0.00386248 0)
(-1.18455e-05 -0.00372626 0)
(-1.36358e-05 -0.00359624 0)
(-1.54396e-05 -0.00347218 0)
(-1.72508e-05 -0.00335382 0)
(4.19371e-06 -0.0175015 0)
(4.48386e-06 -0.0174938 0)
(5.75616e-06 -0.0170462 0)
(5.96e-06 -0.0165988 0)
(6.52095e-06 -0.0161522 0)
(7.19181e-06 -0.0157088 0)
(7.87857e-06 -0.0152695 0)
(8.55616e-06 -0.0148346 0)
(9.2221e-06 -0.0144044 0)
(9.87204e-06 -0.0139795 0)