/*--------------------------------*- C++ -*----------------------------------*\
| =========                 |                                                 |
| \\      /  F ield         | OpenFOAM: The Open Source CFD Toolbox           |
|  \\    /   O peration     | Version:  2.4.0                                 |
|   \\  /    A nd           | Web:      www.OpenFOAM.org                      |
|    \\/     M anipulation  |                                                 |
\*---------------------------------------------------------------------------*/
FoamFile
{
    version     2.0;
    format      ascii;
    class       volScalarField;
    location    "0.003";
    object      p_rgh;
}
// * * * * * * * * * * * * * * * * * * * * * * * * * * * * * * * * * * * * * //

dimensions      [1 -1 -2 0 0 0 0];

internalField   nonuniform List<scalar> 
125
(
1.53744
-4.25221
-0.533053
0.0553374
-0.022288
-0.0759833
-0.0859974
-0.0833573
-0.0815239
-0.0812822
-0.0814719
-0.0816256
-0.0817191
-0.0817955
-0.0818715
-0.0819478
-0.0820228
-0.0820959
-0.082167
-0.0822362
-0.0823036
-0.082369
-0.0824325
-0.0824941
-0.0825537
-0.0826114
-0.0826672
-0.082721
-0.0827728
-0.0828227
-0.0828705
-0.0829164
-0.0829603
-0.0830021
-0.0830419
-0.0830797
-0.0831155
-0.0831492
-0.0831808
-0.0832104
-0.0832379
-0.0832633
-0.0832866
-0.0833079
-0.083327
-0.083344
-0.0833588
-0.0833713
-0.0833812
-0.0833884
-0.0553874
-0.0548409
-0.054294
-0.0537467
-0.053199
-0.0526509
-0.0521023
-0.0515532
-0.0510036
-0.0504534
-0.0499026
-0.0493512
-0.0487992
-0.0482465
-0.0476931
-0.047139
-0.0465842
-0.0460287
-0.0454724
-0.0449152
-0.0443573
-0.0437985
-0.0432389
-0.0426783
-0.0421169
-0.0415545
-0.0409911
-0.0404268
-0.0398615
-0.0392951
-0.0387277
-0.0381592
-0.0375896
-0.0370189
-0.036447
-0.0358739
-0.0352997
-0.0347242
-0.0341475
-0.0335695
-0.0329902
-0.0324096
-0.0318276
-0.0312443
-0.0306595
-0.0300734
-0.0294858
-0.0288967
-0.0283061
-0.027714
-0.0271203
-0.0265251
-0.0259282
-0.0253297
-0.0247296
-0.0241277
-0.0235241
-0.0229188
-0.0223117
-0.0217028
-0.0210921
-0.0204795
-0.019865
-0.0192486
-0.0186303
-0.0180099
-0.0173876
-0.0167631
-0.0161366
-0.015508
-0.0148773
-0.0142444
-0.0136095
-0.0129719
-0.0123277
)
;

boundaryField
{
    BotWall
    {
        type            fixedFluxPressure;
        gradient        uniform 0;
        value           uniform 1.53744;
    }
    FreeStream
    {
        type            totalPressure;
        rho             rho;
        psi             none;
        gamma           1;
        p0              uniform 0;
        value           uniform -0.0120033;
    }
    FrontNBack
    {
        type            empty;
    }
    LeftSide
    {
        type            symmetryPlane;
    }
    RightSide
    {
        type            symmetryPlane;
    }
    procBoundary2to0
    {
        type            processor;
        value           nonuniform List<scalar> 
75
(
-0.0483079
-0.0479017
-0.0474933
-0.0470826
-0.0466696
-0.0462544
-0.045837
-0.0454173
-0.0449954
-0.0445712
-0.0441448
-0.0437162
-0.0432853
-0.0428521
-0.0424168
-0.0419792
-0.0415394
-0.0410973
-0.040653
-0.0402065
-0.0397578
-0.0393068
-0.0388536
-0.0383982
-0.0379405
-0.0374807
-0.0370186
-0.0365543
-0.0360878
-0.0356191
-0.0351482
-0.034675
-0.0341997
-0.0337221
-0.0332423
-0.0327604
-0.0322762
-0.0317898
-0.0313012
-0.0308105
-0.0303175
-0.0298223
-0.029325
-0.0288254
-0.0283237
-0.0278198
-0.0273137
-0.0268054
-0.0262949
-0.0257823
-0.0252674
-0.0247504
-0.0242313
-0.0237099
-0.0231864
-0.0226608
-0.022133
-0.021603
-0.0210708
-0.0205366
-0.0200001
-0.0194616
-0.0189208
-0.018378
-0.017833
-0.0172859
-0.0167367
-0.0161853
-0.0156318
-0.0150762
-0.0145185
-0.0139589
-0.0133973
-0.0128331
-0.0122627
)
;
    }
    procBoundary2to1
    {
        type            processor;
        value           uniform -0.083393;
    }
    procBoundary2to3
    {
        type            processor;
        value           uniform -0.0559335;
    }
    procBoundary2to4
    {
        type            processor;
        value           nonuniform List<scalar> 
75
(
415.631
-4.4898
-0.662252
-0.061536
-0.139776
-0.193341
-0.202543
-0.198929
-0.196147
-0.194983
-0.194259
-0.193502
-0.192687
-0.191858
-0.191032
-0.190209
-0.189388
-0.188569
-0.187752
-0.186936
-0.186122
-0.18531
-0.1845
-0.183691
-0.182884
-0.182079
-0.181276
-0.180475
-0.179676
-0.178878
-0.178083
-0.177289
-0.176498
-0.175708
-0.17492
-0.174134
-0.17335
-0.172568
-0.171788
-0.17101
-0.170234
-0.16946
-0.168688
-0.167918
-0.16715
-0.166384
-0.16562
-0.164858
-0.164098
-0.16334
-0.0253712
-0.0248519
-0.0243304
-0.0238069
-0.0232811
-0.0227532
-0.022223
-0.0216907
-0.0211561
-0.0206193
-0.0200803
-0.0195392
-0.0189958
-0.0184502
-0.0179025
-0.0173525
-0.0168004
-0.0162462
-0.0156898
-0.0151312
-0.0145706
-0.0140079
-0.0134432
-0.012876
-0.0123026
)
;
    }
    procBoundary2to5
    {
        type            processor;
        value           nonuniform List<scalar> 
50
(
-0.0482974
-0.0479001
-0.0475003
-0.0470978
-0.0466926
-0.0462849
-0.0458746
-0.0454617
-0.0450462
-0.0446281
-0.0442075
-0.0437843
-0.0433586
-0.0429303
-0.0424995
-0.0420662
-0.0416304
-0.0411921
-0.0407513
-0.040308
-0.0398622
-0.039414
-0.0389633
-0.0385101
-0.0380545
-0.0375964
-0.037136
-0.0366731
-0.0362077
-0.03574
-0.0352699
-0.0347973
-0.0343224
-0.0338451
-0.0333654
-0.0328834
-0.032399
-0.0319122
-0.0314231
-0.0309316
-0.0304378
-0.0299417
-0.0294432
-0.0289425
-0.0284394
-0.027934
-0.0274262
-0.026916
-0.0264033
-0.0258884
)
;
    }
}


// ************************************************************************* //
