/*--------------------------------*- C++ -*----------------------------------*\
| =========                 |                                                 |
| \\      /  F ield         | OpenFOAM: The Open Source CFD Toolbox           |
|  \\    /   O peration     | Version:  2.4.0                                 |
|   \\  /    A nd           | Web:      www.OpenFOAM.org                      |
|    \\/     M anipulation  |                                                 |
\*---------------------------------------------------------------------------*/
FoamFile
{
    version     2.0;
    format      ascii;
    class       volVectorField;
    location    "3.3";
    object      U;
}
// * * * * * * * * * * * * * * * * * * * * * * * * * * * * * * * * * * * * * //

dimensions      [0 1 -1 0 0 0 0];

internalField   nonuniform List<vector> 
8000
(
(-3.82372e-07 -0.000230347 0)
(-2.3983e-06 -0.000672788 0)
(-5.92298e-06 -0.00109745 0)
(-1.07046e-05 -0.00150476 0)
(-1.65366e-05 -0.00189506 0)
(-2.32836e-05 -0.00226863 0)
(-3.08278e-05 -0.0026257 0)
(-3.90838e-05 -0.0029665 0)
(-4.79542e-05 -0.0032912 0)
(-5.73785e-05 -0.00359996 0)
(-6.72726e-05 -0.00389293 0)
(-7.75978e-05 -0.00417022 0)
(-8.82766e-05 -0.00443193 0)
(-9.92878e-05 -0.00467815 0)
(-0.000110554 -0.00490894 0)
(-0.000122068 -0.00512436 0)
(-0.000133747 -0.00532446 0)
(-0.000145599 -0.00550925 0)
(-0.000157524 -0.00567878 0)
(-0.000169545 -0.005833 0)
(-0.000181536 -0.00597196 0)
(-0.000193542 -0.00609556 0)
(-0.000205439 -0.00620385 0)
(-0.00021736 -0.0062967 0)
(-0.000229005 -0.00637413 0)
(-0.000239574 -0.0064359 0)
(-0.000247038 -0.00648181 0)
(-0.000253936 -0.00651128 0)
(-0.000283046 -0.0065253 0)
(-0.000375347 -0.006529 0)
(-0.000504283 -0.00652992 0)
(-0.000588403 -0.00653484 0)
(-0.000723952 -0.0114654 0)
(-0.000666009 -0.0156873 0)
(-0.000727822 -0.0195456 0)
(-0.000822591 -0.0231025 0)
(-0.000927672 -0.026403 0)
(-0.00103748 -0.0294716 0)
(-0.00115247 -0.0323206 0)
(-0.00127314 -0.0349685 0)
(-0.00139928 -0.0374298 0)
(-0.00153064 -0.0397184 0)
(-0.00166721 -0.0418475 0)
(-0.00180905 -0.043829 0)
(-0.00195635 -0.0456734 0)
(-0.00210924 -0.0473891 0)
(-0.00226787 -0.0489834 0)
(-0.00243224 -0.0504622 0)
(-0.00260236 -0.0518318 0)
(-0.00277822 -0.0530983 0)
(-5.97132e-08 -0.000209212 0)
(-1.31507e-06 -0.000614805 0)
(-3.96903e-06 -0.00100732 0)
(-7.96167e-06 -0.00138652 0)
(-1.31591e-05 -0.0017522 0)
(-1.94428e-05 -0.00210418 0)
(-2.67229e-05 -0.00244231 0)
(-3.49162e-05 -0.00276645 0)
(-4.39533e-05 -0.00307652 0)
(-5.3765e-05 -0.00337243 0)
(-6.42942e-05 -0.00365411 0)
(-7.54829e-05 -0.00392153 0)
(-8.72832e-05 -0.00417466 0)
(-9.9646e-05 -0.00441347 0)
(-0.000112529 -0.00463797 0)
(-0.00012589 -0.00484815 0)
(-0.000139688 -0.00504404 0)
(-0.000153889 -0.00522567 0)
(-0.000168446 -0.00539307 0)
(-0.000183332 -0.0055463 0)
(-0.00019849 -0.00568541 0)
(-0.000213906 -0.00581048 0)
(-0.000229538 -0.00592161 0)
(-0.000245412 -0.00601889 0)
(-0.000261278 -0.00610243 0)
(-0.000276427 -0.00617235 0)
(-0.00028988 -0.00622882 0)
(-0.000305489 -0.00627213 0)
(-0.000341106 -0.00630306 0)
(-0.000417936 -0.00632414 0)
(-0.000525858 -0.0063313 0)
(-0.000637569 -0.0063627 0)
(-0.000772504 -0.0107615 0)
(-0.000640144 -0.0145595 0)
(-0.000658307 -0.0180724 0)
(-0.000716858 -0.0213388 0)
(-0.000788201 -0.0244303 0)
(-0.00086579 -0.0273287 0)
(-0.000951454 -0.0300296 0)
(-0.0010464 -0.0325428 0)
(-0.00115074 -0.0348762 0)
(-0.00126421 -0.0370406 0)
(-0.00138689 -0.0390465 0)
(-0.00151855 -0.0409021 0)
(-0.00165927 -0.0426174 0)
(-0.00180909 -0.0442015 0)
(-0.0019679 -0.0456623 0)
(-0.00213552 -0.0470068 0)
(-0.00231172 -0.0482421 0)
(-0.00249624 -0.0493757 0)
(-7.65969e-08 -0.000209783 0)
(-6.01077e-07 -0.000614829 0)
(-1.67149e-06 -0.00100544 0)
(-3.29587e-06 -0.00138166 0)
(-5.47697e-06 -0.00174354 0)
(-8.23122e-06 -0.00209106 0)
(-1.15575e-05 -0.00242424 0)
(-1.54698e-05 -0.00274308 0)
(-1.99544e-05 -0.00304756 0)
(-2.50236e-05 -0.00333771 0)
(-3.06545e-05 -0.0036135 0)
(-3.68623e-05 -0.00387494 0)
(-4.36169e-05 -0.00412203 0)
(-5.09405e-05 -0.00435477 0)
(-5.87969e-05 -0.00457316 0)
(-6.72195e-05 -0.00477722 0)
(-7.61667e-05 -0.00496693 0)
(-8.56874e-05 -0.00514232 0)
(-9.57342e-05 -0.00530339 0)
(-0.000106376 -0.00545017 0)
(-0.00011756 -0.00558266 0)
(-0.000129398 -0.0057009 0)
(-0.000141868 -0.0058049 0)
(-0.0001551 -0.00589473 0)
(-0.00016869 -0.00597037 0)
(-0.000181904 -0.00603186 0)
(-0.000194875 -0.00607914 0)
(-0.000216617 -0.00611258 0)
(-0.000269126 -0.0061336 0)
(-0.00035184 -0.00614816 0)
(-0.000449239 -0.00614786 0)
(-0.000561871 -0.00625845 0)
(-0.000605747 -0.010649 0)
(-0.00052207 -0.0144108 0)
(-0.000550963 -0.0178709 0)
(-0.00060928 -0.0210807 0)
(-0.000676534 -0.0241262 0)
(-0.000751194 -0.0269563 0)
(-0.000835251 -0.0295695 0)
(-0.000930126 -0.0319836 0)
(-0.001036 -0.0342108 0)
(-0.00115244 -0.0362664 0)
(-0.0012795 -0.0381647 0)
(-0.00141637 -0.0399137 0)
(-0.00156276 -0.0415249 0)
(-0.0017183 -0.0430089 0)
(-0.0018824 -0.0443743 0)
(-0.00205442 -0.0456293 0)
(-0.00223371 -0.0467816 0)
(-0.00241962 -0.0478393 0)
(-6.1709e-08 -0.000203692 0)
(-8.0497e-07 -0.000597111 0)
(-2.37546e-06 -0.000976589 0)
(-4.76148e-06 -0.00134214 0)
(-7.94328e-06 -0.00169376 0)
(-1.18855e-05 -0.00203142 0)
(-1.65917e-05 -0.00235509 0)
(-2.2028e-05 -0.00266474 0)
(-2.82087e-05 -0.00296035 0)
(-3.50908e-05 -0.00324189 0)
(-4.27001e-05 -0.00350932 0)
(-5.09823e-05 -0.00376262 0)
(-5.9978e-05 -0.00400175 0)
(-6.96182e-05 -0.00422669 0)
(-7.9963e-05 -0.00443738 0)
(-9.09238e-05 -0.0046338 0)
(-0.000102586 -0.00481588 0)
(-0.000114837 -0.00498359 0)
(-0.000127792 -0.00513683 0)
(-0.000141302 -0.00527559 0)
(-0.000155537 -0.00539973 0)
(-0.000170336 -0.00550924 0)
(-0.000185985 -0.00560392 0)
(-0.000202114 -0.00568377 0)
(-0.000218162 -0.00574841 0)
(-0.000232297 -0.00579764 0)
(-0.000247823 -0.00583124 0)
(-0.000286088 -0.00585184 0)
(-0.000382941 -0.00586533 0)
(-0.000516127 -0.00586577 0)
(-0.000615286 -0.00585873 0)
(-0.000715122 -0.00696042 0)
(-0.000474003 -0.0106945 0)
(-0.000384407 -0.0140467 0)
(-0.000350287 -0.0171906 0)
(-0.000341947 -0.0201751 0)
(-0.000351377 -0.0230075 0)
(-0.000381108 -0.0256486 0)
(-0.000429669 -0.0280843 0)
(-0.000496112 -0.0303315 0)
(-0.000579451 -0.0323979 0)
(-0.000678173 -0.0343006 0)
(-0.000791853 -0.0360575 0)
(-0.000918399 -0.0376728 0)
(-0.00105678 -0.0391585 0)
(-0.00120585 -0.0405258 0)
(-0.00136437 -0.0417841 0)
(-0.00153115 -0.0429416 0)
(-0.00170513 -0.0440062 0)
(-0.00188533 -0.0449856 0)
(-9.11738e-08 -0.000199225 0)
(-9.07849e-07 -0.00058364 0)
(-2.58367e-06 -0.000954058 0)
(-5.1201e-06 -0.0013105 0)
(-8.48596e-06 -0.00165297 0)
(-1.26867e-05 -0.00198144 0)
(-1.76976e-05 -0.00229591 0)
(-2.35379e-05 -0.00259635 0)
(-3.0171e-05 -0.00288275 0)
(-3.76254e-05 -0.0031551 0)
(-4.58491e-05 -0.00341338 0)
(-5.48849e-05 -0.00365758 0)
(-6.46616e-05 -0.00388769 0)
(-7.52427e-05 -0.00410369 0)
(-8.65314e-05 -0.00430558 0)
(-9.86202e-05 -0.00449332 0)
(-0.000111377 -0.00466691 0)
(-0.000124934 -0.00482632 0)
(-0.000139106 -0.00497155 0)
(-0.000154087 -0.00510256 0)
(-0.000169686 -0.00521935 0)
(-0.000186292 -0.00532187 0)
(-0.00020347 -0.00541015 0)
(-0.000220251 -0.00548398 0)
(-0.000233156 -0.00554323 0)
(-0.000245472 -0.00558789 0)
(-0.000290994 -0.00562029 0)
(-0.000445054 -0.00564532 0)
(-0.000641854 -0.00566273 0)
(-0.000753823 -0.00566136 0)
(-0.000844326 -0.00573748 0)
(-0.000797183 -0.00889195 0)
(-0.000560121 -0.0122984 0)
(-0.000451197 -0.0154033 0)
(-0.000377553 -0.018275 0)
(-0.000326356 -0.020966 0)
(-0.000297287 -0.0234754 0)
(-0.000293933 -0.025816 0)
(-0.00031515 -0.0279656 0)
(-0.000358838 -0.0299469 0)
(-0.000422333 -0.031764 0)
(-0.000504112 -0.0334372 0)
(-0.000602794 -0.0349905 0)
(-0.000716003 -0.0364248 0)
(-0.000841555 -0.0377519 0)
(-0.000977576 -0.0389826 0)
(-0.00112229 -0.0401245 0)
(-0.00127422 -0.0411839 0)
(-0.00143214 -0.0421665 0)
(-0.00159502 -0.0430779 0)
(-7.30847e-08 -0.000193334 0)
(-9.24208e-07 -0.000565965 0)
(-2.737e-06 -0.000924628 0)
(-5.50782e-06 -0.00126939 0)
(-9.22669e-06 -0.00160028 0)
(-1.38618e-05 -0.00191732 0)
(-1.94262e-05 -0.0022205 0)
(-2.58835e-05 -0.00250983 0)
(-3.32572e-05 -0.0027853 0)
(-4.14938e-05 -0.00304689 0)
(-5.06306e-05 -0.0032946 0)
(-6.05939e-05 -0.0035284 0)
(-7.14417e-05 -0.00374829 0)
(-8.30735e-05 -0.00395421 0)
(-9.5576e-05 -0.00414616 0)
(-0.000108812 -0.00432406 0)
(-0.000122905 -0.00448792 0)
(-0.000137663 -0.00463761 0)
(-0.000153262 -0.00477314 0)
(-0.000169491 -0.00489436 0)
(-0.00018668 -0.00500127 0)
(-0.000204392 -0.00509362 0)
(-0.000221808 -0.00517129 0)
(-0.000235945 -0.0052336 0)
(-0.000249321 -0.00528079 0)
(-0.00028941 -0.00531561 0)
(-0.000421803 -0.00534696 0)
(-0.000590086 -0.00537093 0)
(-0.000697849 -0.00538035 0)
(-0.000785286 -0.00541361 0)
(-0.000782313 -0.00669076 0)
(-0.000520661 -0.0101954 0)
(-0.000392768 -0.0133962 0)
(-0.000312824 -0.0163187 0)
(-0.000257274 -0.0189707 0)
(-0.000224341 -0.021348 0)
(-0.000217298 -0.023486 0)
(-0.000236566 -0.0254992 0)
(-0.000275934 -0.0273547 0)
(-0.000331642 -0.0290744 0)
(-0.000401237 -0.030668 0)
(-0.000482611 -0.0321314 0)
(-0.000574762 -0.0334816 0)
(-0.000677296 -0.034761 0)
(-0.000786812 -0.035965 0)
(-0.000902643 -0.0370973 0)
(-0.00102406 -0.0381598 0)
(-0.00115044 -0.0391547 0)
(-0.00128123 -0.0400848 0)
(-0.0014159 -0.0409536 0)
(-1.8343e-07 -0.000187434 0)
(-1.90945e-06 -0.000548297 0)
(-5.37584e-06 -0.000895227 0)
(-1.0508e-05 -0.0012283 0)
(-1.71632e-05 -0.00154753 0)
(-2.52598e-05 -0.00185296 0)
(-3.46888e-05 -0.00214459 0)
(-4.54041e-05 -0.00242246 0)
(-5.7291e-05 -0.00268655 0)
(-7.03216e-05 -0.00293692 0)
(-8.43676e-05 -0.00317352 0)
(-9.94261e-05 -0.00339641 0)
(-0.000115347 -0.00360551 0)
(-0.000132162 -0.00380095 0)
(-0.000149683 -0.00398256 0)
(-0.000167991 -0.00415058 0)
(-0.000186827 -0.00430473 0)
(-0.000206355 -0.00444548 0)
(-0.00022628 -0.00457235 0)
(-0.000247024 -0.00468624 0)
(-0.000267929 -0.00478625 0)
(-0.000287779 -0.00487395 0)
(-0.000301949 -0.00494758 0)
(-0.000314303 -0.0050104 0)
(-0.000365521 -0.0050621 0)
(-0.000554898 -0.00508653 0)
(-0.00078883 -0.00510451 0)
(-0.000902672 -0.00512073 0)
(-0.000979274 -0.00516623 0)
(-0.000942477 -0.00598468 0)
(-0.000703593 -0.00896186 0)
(-0.000556806 -0.0118562 0)
(-0.000476205 -0.0145317 0)
(-0.000433596 -0.0169926 0)
(-0.000420535 -0.0192736 0)
(-0.000428266 -0.0213463 0)
(-0.000450702 -0.0232263 0)
(-0.000484234 -0.0250303 0)
(-0.000530197 -0.0267193 0)
(-0.000587729 -0.0283156 0)
(-0.000654353 -0.0298278 0)
(-0.000725044 -0.031244 0)
(-0.000798036 -0.0325555 0)
(-0.000874363 -0.0337922 0)
(-0.000955681 -0.0349453 0)
(-0.00104303 -0.0360219 0)
(-0.00113633 -0.0370266 0)
(-0.00123534 -0.0379639 0)
(-0.00133973 -0.0388384 0)
(-0.00144909 -0.0396549 0)
(-2.85411e-07 -0.000170101 0)
(-2.7234e-06 -0.000498892 0)
(-7.59694e-06 -0.000816176 0)
(-1.47274e-05 -0.0011219 0)
(-2.40013e-05 -0.00141594 0)
(-3.51783e-05 -0.00169827 0)
(-4.82552e-05 -0.00196871 0)
(-6.29697e-05 -0.00222733 0)
(-7.93861e-05 -0.00247388 0)
(-9.71888e-05 -0.00270853 0)
(-0.000116518 -0.0029309 0)
(-0.000136999 -0.00314135 0)
(-0.000158862 -0.00333927 0)
(-0.000181665 -0.00352531 0)
(-0.00020574 -0.00369854 0)
(-0.000230565 -0.00386004 0)
(-0.000256604 -0.00400843 0)
(-0.000283296 -0.00414546 0)
(-0.000311334 -0.00426913 0)
(-0.000339837 -0.00438214 0)
(-0.000368389 -0.00448151 0)
(-0.000394001 -0.00457135 0)
(-0.000421719 -0.00464825 0)
(-0.000481198 -0.00472131 0)
(-0.000624178 -0.00478078 0)
(-0.00079752 -0.00481873 0)
(-0.000888158 -0.00485345 0)
(-0.000954499 -0.00494829 0)
(-0.000898327 -0.00587161 0)
(-0.000649394 -0.00825615 0)
(-0.000458814 -0.0106676 0)
(-0.000319275 -0.0129913 0)
(-0.000213575 -0.0151923 0)
(-0.000133113 -0.0172723 0)
(-7.6901e-05 -0.0192529 0)
(-4.18909e-05 -0.021138 0)
(-2.73881e-05 -0.0229104 0)
(-2.87935e-05 -0.0245702 0)
(-4.61484e-05 -0.0261356 0)
(-7.90354e-05 -0.0276137 0)
(-0.000126428 -0.0290153 0)
(-0.000188584 -0.0303505 0)
(-0.00026531 -0.0315963 0)
(-0.000353785 -0.0327481 0)
(-0.000452629 -0.0338153 0)
(-0.000560431 -0.0348061 0)
(-0.000676329 -0.0357287 0)
(-0.000799316 -0.0365894 0)
(-0.00092846 -0.037394 0)
(-0.00106288 -0.038148 0)
(-1.29961e-07 -0.000155592 0)
(-1.74909e-06 -0.00045616 0)
(-5.18831e-06 -0.000746085 0)
(-1.05008e-05 -0.00102541 0)
(-1.7585e-05 -0.00129406 0)
(-2.64892e-05 -0.00155205 0)
(-3.70957e-05 -0.00179918 0)
(-4.95108e-05 -0.00203552 0)
(-6.35707e-05 -0.00226074 0)
(-7.94325e-05 -0.00247499 0)
(-9.68807e-05 -0.00267778 0)
(-0.000116135 -0.00286937 0)
(-0.000136925 -0.00304905 0)
(-0.000159542 -0.0032173 0)
(-0.000183656 -0.00337304 0)
(-0.000209658 -0.00351707 0)
(-0.000237212 -0.00364791 0)
(-0.000266829 -0.00376675 0)
(-0.000297737 -0.00387154 0)
(-0.000329255 -0.00396384 0)
(-0.000360042 -0.00404109 0)
(-0.000398878 -0.00410691 0)
(-0.000477591 -0.00416198 0)
(-0.000612016 -0.00420808 0)
(-0.000767038 -0.00424603 0)
(-0.000880074 -0.00429703 0)
(-0.000954001 -0.00449385 0)
(-0.000850695 -0.00593278 0)
(-0.000600727 -0.00830925 0)
(-0.000410905 -0.0106019 0)
(-0.000257053 -0.0127771 0)
(-0.000127657 -0.0148274 0)
(-2.05637e-05 -0.0167593 0)
(6.32815e-05 -0.0185635 0)
(0.000124823 -0.0202482 0)
(0.000164041 -0.0218295 0)
(0.000181645 -0.0233136 0)
(0.000178448 -0.0247058 0)
(0.000155874 -0.0259998 0)
(0.000113963 -0.027221 0)
(5.42977e-05 -0.0283729 0)
(-2.22086e-05 -0.0294607 0)
(-0.000113989 -0.0304845 0)
(-0.000219569 -0.0314492 0)
(-0.000337437 -0.0323606 0)
(-0.00046569 -0.0332208 0)
(-0.000603052 -0.0340343 0)
(-0.000748136 -0.0348044 0)
(-0.000899756 -0.0355345 0)
(-0.00105684 -0.036228 0)
(-1.58347e-07 -0.000147607 0)
(-1.68164e-06 -0.00043128 0)
(-4.84935e-06 -0.000703476 0)
(-9.65913e-06 -0.000964283 0)
(-1.6091e-05 -0.00121375 0)
(-2.41275e-05 -0.00145185 0)
(-3.37877e-05 -0.00167856 0)
(-4.50673e-05 -0.00189377 0)
(-5.79912e-05 -0.00209746 0)
(-7.25505e-05 -0.00228945 0)
(-8.87742e-05 -0.00246971 0)
(-0.000106645 -0.00263797 0)
(-0.000126194 -0.00279421 0)
(-0.000147393 -0.00293807 0)
(-0.000170314 -0.00306956 0)
(-0.000194975 -0.0031882 0)
(-0.000221414 -0.00329405 0)
(-0.000248868 -0.0033864 0)
(-0.000275627 -0.00346517 0)
(-0.000302138 -0.00352968 0)
(-0.000345474 -0.0035824 0)
(-0.000451631 -0.00362783 0)
(-0.000599399 -0.00366494 0)
(-0.000737594 -0.00370281 0)
(-0.000861445 -0.00375265 0)
(-0.000912777 -0.00423746 0)
(-0.000719394 -0.00612149 0)
(-0.000506773 -0.00832454 0)
(-0.000345613 -0.0104286 0)
(-0.000219856 -0.0124161 0)
(-0.000118458 -0.0142739 0)
(-3.93373e-05 -0.0160084 0)
(1.79453e-05 -0.0176341 0)
(5.43508e-05 -0.0191544 0)
(7.11597e-05 -0.0205741 0)
(6.9699e-05 -0.0219026 0)
(5.1057e-05 -0.0231435 0)
(1.51883e-05 -0.0243072 0)
(-3.54775e-05 -0.0253868 0)
(-9.99065e-05 -0.0264101 0)
(-0.000177517 -0.0273785 0)
(-0.000267912 -0.0282955 0)
(-0.000370491 -0.0291657 0)
(-0.000484353 -0.0299909 0)
(-0.000608318 -0.0307742 0)
(-0.000741665 -0.0315201 0)
(-0.000883303 -0.0322322 0)
(-0.0010322 -0.0329136 0)
(-0.00118738 -0.0335674 0)
(-0.00134789 -0.0341963 0)
(-2.03013e-07 -0.000135772 0)
(-2.20456e-06 -0.000396576 0)
(-6.24767e-06 -0.00064659 0)
(-1.22543e-05 -0.000885845 0)
(-2.0097e-05 -0.00111433 0)
(-2.96624e-05 -0.00133194 0)
(-4.08907e-05 -0.00153856 0)
(-5.36965e-05 -0.00173408 0)
(-6.80422e-05 -0.00191838 0)
(-8.38388e-05 -0.00209134 0)
(-0.000101066 -0.00225283 0)
(-0.000119616 -0.00240271 0)
(-0.000139495 -0.00254083 0)
(-0.000160616 -0.00266706 0)
(-0.000183108 -0.00278122 0)
(-0.000206713 -0.00288317 0)
(-0.000230352 -0.00297262 0)
(-0.000251173 -0.00304923 0)
(-0.000271376 -0.0031129 0)
(-0.000319768 -0.0031655 0)
(-0.000462023 -0.00321141 0)
(-0.000649613 -0.00325376 0)
(-0.000788474 -0.0033042 0)
(-0.000906519 -0.0033996 0)
(-0.00089163 -0.00426807 0)
(-0.000623844 -0.00620626 0)
(-0.000427943 -0.00815642 0)
(-0.000271997 -0.0100321 0)
(-0.000141618 -0.0118081 0)
(-3.16254e-05 -0.0134804 0)
(5.54546e-05 -0.0150475 0)
(0.0001203 -0.0165296 0)
(0.000163631 -0.0179199 0)
(0.00018523 -0.0192187 0)
(0.000185733 -0.020429 0)
(0.000165471 -0.021555 0)
(0.000124787 -0.0226029 0)
(6.61293e-05 -0.0235842 0)
(-7.54943e-06 -0.024526 0)
(-9.50057e-05 -0.0254093 0)
(-0.000195343 -0.0262349 0)
(-0.000308256 -0.027011 0)
(-0.000432837 -0.0277453 0)
(-0.000567856 -0.0284437 0)
(-0.000712108 -0.0291113 0)
(-0.000864428 -0.0297533 0)
(-0.0010236 -0.0303734 0)
(-0.00118848 -0.0309749 0)
(-0.00135801 -0.0315605 0)
(-0.00153124 -0.0321324 0)
(-1.70164e-07 -0.000120258 0)
(-1.51e-06 -0.000352443 0)
(-4.08519e-06 -0.000575764 0)
(-7.84149e-06 -0.000790056 0)
(-1.26653e-05 -0.000995197 0)
(-1.84763e-05 -0.00119095 0)
(-2.52177e-05 -0.00137708 0)
(-3.28397e-05 -0.00155339 0)
(-4.12998e-05 -0.00171964 0)
(-5.0565e-05 -0.00187571 0)
(-6.05946e-05 -0.00202138 0)
(-7.1373e-05 -0.00215656 0)
(-8.28989e-05 -0.00228106 0)
(-9.52605e-05 -0.00239484 0)
(-0.000108342 -0.00249771 0)
(-0.000121166 -0.0025897 0)
(-0.000131352 -0.00267053 0)
(-0.000140597 -0.00274029 0)
(-0.000174583 -0.00279919 0)
(-0.000289707 -0.0028491 0)
(-0.000455588 -0.00290446 0)
(-0.000602959 -0.00296741 0)
(-0.000739029 -0.00319481 0)
(-0.000657013 -0.00453279 0)
(-0.000307999 -0.0065359 0)
(-6.30343e-05 -0.0084651 0)
(0.000147136 -0.0102851 0)
(0.000334696 -0.0119773 0)
(0.00049417 -0.0135312 0)
(0.000623057 -0.0149537 0)
(0.000718746 -0.0162338 0)
(0.000779406 -0.0174009 0)
(0.000805211 -0.0184726 0)
(0.000798283 -0.0194546 0)
(0.000761436 -0.0203579 0)
(0.000697852 -0.0211918 0)
(0.000610542 -0.0219718 0)
(0.000503718 -0.0227121 0)
(0.000377769 -0.0234331 0)
(0.000234251 -0.0241139 0)
(7.74468e-05 -0.0247571 0)
(-9.03789e-05 -0.0253711 0)
(-0.000266934 -0.0259634 0)
(-0.000450164 -0.02654 0)
(-0.000638307 -0.0271056 0)
(-0.000829855 -0.0276639 0)
(-0.00102349 -0.0282174 0)
(-0.00121811 -0.0287677 0)
(-0.0014128 -0.0293159 0)
(-0.00160679 -0.0298623 0)
(1.76441e-07 -0.000119152 0)
(1.27339e-06 -0.000349111 0)
(3.48479e-06 -0.000569945 0)
(6.66589e-06 -0.000781716 0)
(1.08017e-05 -0.000984543 0)
(1.58223e-05 -0.00117807 0)
(2.17182e-05 -0.00136197 0)
(2.8406e-05 -0.00153588 0)
(3.58926e-05 -0.00169953 0)
(4.40713e-05 -0.00185262 0)
(5.2977e-05 -0.00199499 0)
(6.24807e-05 -0.00212636 0)
(7.26074e-05 -0.00224664 0)
(8.31598e-05 -0.00235555 0)
(9.4359e-05 -0.00245308 0)
(0.00010702 -0.00253891 0)
(0.000122869 -0.00261302 0)
(0.000138234 -0.00267509 0)
(0.000131065 -0.00272553 0)
(4.75887e-05 -0.00276606 0)
(-0.000129454 -0.0028003 0)
(-0.00032147 -0.00278664 0)
(-0.00028859 -0.00523587 0)
(0.000140288 -0.00778824 0)
(0.000485093 -0.00990651 0)
(0.000846214 -0.0116229 0)
(0.00116135 -0.0130727 0)
(0.00140403 -0.0142857 0)
(0.00156307 -0.015298 0)
(0.00164504 -0.0161588 0)
(0.00166199 -0.0168876 0)
(0.00162623 -0.0175108 0)
(0.00154648 -0.018077 0)
(0.00143036 -0.0186013 0)
(0.00128435 -0.019101 0)
(0.00111451 -0.0195898 0)
(0.000926303 -0.0200775 0)
(0.000723694 -0.0205722 0)
(0.000510152 -0.0210756 0)
(0.000289603 -0.0215875 0)
(6.439e-05 -0.0221098 0)
(-0.00016286 -0.0226433 0)
(-0.000390071 -0.0231883 0)
(-0.000615682 -0.0237444 0)
(-0.000838554 -0.024311 0)
(-0.00105787 -0.0248871 0)
(-0.00127306 -0.0254712 0)
(-0.00148376 -0.026062 0)
(-0.00168974 -0.0266576 0)
(-0.0018909 -0.0272564 0)
(5.64348e-07 -0.000134278 0)
(6.30003e-06 -0.000392688 0)
(1.76619e-05 -0.000640591 0)
(3.43554e-05 -0.0008786 0)
(5.57226e-05 -0.00110677 0)
(8.15176e-05 -0.0013247 0)
(0.000111137 -0.00153194 0)
(0.000144608 -0.00172836 0)
(0.000181234 -0.00191355 0)
(0.000221244 -0.00208761 0)
(0.000263793 -0.00225016 0)
(0.000309324 -0.00240148 0)
(0.000356729 -0.00254117 0)
(0.000406599 -0.0026698 0)
(0.000457754 -0.00278662 0)
(0.00051265 -0.0028924 0)
(0.00057222 -0.00298482 0)
(0.000634088 -0.00306542 0)
(0.000661705 -0.00313359 0)
(0.000575231 -0.00319444 0)
(0.0003432 -0.00324709 0)
(0.000200502 -0.00392416 0)
(0.000284659 -0.0122794 0)
(0.000801386 -0.0115413 0)
(0.000897713 -0.0177052 0)
(0.000816726 -0.0180342 0)
(0.000699575 -0.0175712 0)
(0.000601182 -0.0170346 0)
(0.000496014 -0.0165864 0)
(0.000365969 -0.0162332 0)
(0.000206853 -0.0160402 0)
(3.0503e-05 -0.0160016 0)
(-0.00015548 -0.0160569 0)
(-0.000348195 -0.0162043 0)
(-0.000543727 -0.0164359 0)
(-0.000738127 -0.0167425 0)
(-0.000928636 -0.0171178 0)
(-0.00111433 -0.0175526 0)
(-0.00129525 -0.0180373 0)
(-0.00147163 -0.0185639 0)
(-0.00164357 -0.0191252 0)
(-0.00181126 -0.0197145 0)
(-0.00197496 -0.0203264 0)
(-0.00213497 -0.0209561 0)
(-0.0022916 -0.0215993 0)
(-0.00244514 -0.0222526 0)
(-0.00259587 -0.0229129 0)
(-0.00274405 -0.0235775 0)
(-0.0028899 -0.0242441 0)
(-0.00303365 -0.0249103 0)
(1.1295e-06 -0.000198793 0)
(1.04868e-05 -0.000574572 0)
(2.87514e-05 -0.000928903 0)
(5.51316e-05 -0.00126305 0)
(8.89147e-05 -0.00157818 0)
(0.000129048 -0.001875 0)
(0.000175343 -0.00215405 0)
(0.000226721 -0.00241557 0)
(0.00028333 -0.00265979 0)
(0.000343792 -0.00288682 0)
(0.000408673 -0.00309685 0)
(0.000476429 -0.00328974 0)
(0.000547282 -0.00346573 0)
(0.000620613 -0.00362416 0)
(0.000695173 -0.00376537 0)
(0.000772995 -0.00388781 0)
(0.000855821 -0.0039925 0)
(0.000931281 -0.00407698 0)
(0.00101569 -0.00414356 0)
(0.00108658 -0.00418425 0)
(0.00106097 -0.00419508 0)
(0.000914679 -0.00430185 0)
(0.000741835 -0.00478412 0)
(0.000347067 -0.00653582 0)
(2.41413e-05 -0.0101798 0)
(-0.000265481 -0.0122029 0)
(-0.000510527 -0.0131352 0)
(-0.000719577 -0.0127871 0)
(-0.00101284 -0.0126246 0)
(-0.00129859 -0.0127615 0)
(-0.00151472 -0.0129417 0)
(-0.00170436 -0.01317 0)
(-0.00188803 -0.0134378 0)
(-0.00206403 -0.0138001 0)
(-0.00222566 -0.0142749 0)
(-0.00236839 -0.0148678 0)
(-0.00249311 -0.0154727 0)
(-0.00260661 -0.016078 0)
(-0.00271388 -0.0166871 0)
(-0.00281711 -0.0173097 0)
(-0.00291735 -0.0179367 0)
(-0.00301595 -0.0185693 0)
(-0.00311379 -0.0192062 0)
(-0.00321155 -0.0198471 0)
(-0.00330974 -0.0204912 0)
(-0.00340872 -0.0211378 0)
(-0.00350875 -0.0217859 0)
(-0.00361004 -0.0224347 0)
(-0.00371273 -0.0230829 0)
(-0.00381693 -0.0237295 0)
(3.70774e-07 -0.000255378 0)
(5.45301e-06 -0.000737822 0)
(1.60675e-05 -0.00119253 0)
(3.2328e-05 -0.0016197 0)
(5.37896e-05 -0.00202037 0)
(8.0326e-05 -0.00239485 0)
(0.000111455 -0.00274466 0)
(0.000147164 -0.00306936 0)
(0.000186867 -0.00337065 0)
(0.000230656 -0.00364733 0)
(0.000277867 -0.00390167 0)
(0.000328632 -0.00413152 0)
(0.000382304 -0.00434012 0)
(0.000439127 -0.00452383 0)
(0.000498119 -0.00468746 0)
(0.000560521 -0.00482504 0)
(0.000622815 -0.00494426 0)
(0.000689547 -0.0050354 0)
(0.000761935 -0.00510955 0)
(0.000851173 -0.00515195 0)
(0.000940584 -0.0051781 0)
(0.00087406 -0.00523096 0)
(0.000707562 -0.00537158 0)
(0.000653527 -0.00569224 0)
(0.000569747 -0.00638208 0)
(0.000347987 -0.00753148 0)
(9.73118e-05 -0.00886544 0)
(-0.000101324 -0.00970881 0)
(-0.000261603 -0.0102791 0)
(-0.000417182 -0.010795 0)
(-0.00057649 -0.0113036 0)
(-0.000724455 -0.0117761 0)
(-0.000866339 -0.0121527 0)
(-0.00100936 -0.0123442 0)
(-0.0011706 -0.0126293 0)
(-0.00134923 -0.0133197 0)
(-0.00153995 -0.014047 0)
(-0.00172742 -0.01463 0)
(-0.0018946 -0.0152633 0)
(-0.00204685 -0.0158942 0)
(-0.00219554 -0.016518 0)
(-0.00234329 -0.0171462 0)
(-0.00248925 -0.0177755 0)
(-0.00263338 -0.0184071 0)
(-0.00277585 -0.0190411 0)
(-0.00291699 -0.019677 0)
(-0.00305729 -0.0203136 0)
(-0.00319727 -0.0209499 0)
(-0.00333739 -0.0215847 0)
(-0.00347803 -0.022217 0)
(2.23084e-07 -0.000270178 0)
(2.07402e-06 -0.000785864 0)
(6.13573e-06 -0.00127739 0)
(1.26731e-05 -0.00174442 0)
(2.16889e-05 -0.00218654 0)
(3.34702e-05 -0.00260384 0)
(4.80014e-05 -0.00299649 0)
(6.55596e-05 -0.00336465 0)
(8.60611e-05 -0.00370862 0)
(0.000109813 -0.00402848 0)
(0.000136644 -0.0043247 0)
(0.000166962 -0.00459721 0)
(0.000200437 -0.00484687 0)
(0.000237672 -0.00507326 0)
(0.000278247 -0.00527798 0)
(0.00032257 -0.00545989 0)
(0.000370951 -0.00562221 0)
(0.0004223 -0.00576207 0)
(0.000478953 -0.00588545 0)
(0.000540536 -0.0059873 0)
(0.000607322 -0.00607665 0)
(0.000694867 -0.00614519 0)
(0.000776775 -0.00624239 0)
(0.000771118 -0.00634904 0)
(0.000718766 -0.00660074 0)
(0.000709993 -0.00694617 0)
(0.000687986 -0.00738871 0)
(0.000621154 -0.00775453 0)
(0.000523925 -0.00798765 0)
(0.000410706 -0.00818839 0)
(0.000279148 -0.00843916 0)
(0.00013312 -0.00873382 0)
(-2.18233e-05 -0.00907367 0)
(-0.000178577 -0.00947827 0)
(-0.000327136 -0.0100098 0)
(-0.000473598 -0.0107383 0)
(-0.000633135 -0.0116557 0)
(-0.000819147 -0.0124355 0)
(-0.00103106 -0.0131313 0)
(-0.00125763 -0.0136732 0)
(-0.0014868 -0.0143505 0)
(-0.0016934 -0.0150345 0)
(-0.0018778 -0.0157074 0)
(-0.00204928 -0.0163822 0)
(-0.00221324 -0.0170567 0)
(-0.00237297 -0.0177233 0)
(-0.0025312 -0.0183791 0)
(-0.00269015 -0.0190236 0)
(-0.0028511 -0.0196574 0)
(-0.00301466 -0.0202817 0)
(-1.07484e-07 -0.000276432 0)
(1.8003e-07 -0.000808282 0)
(1.26044e-06 -0.00131903 0)
(3.42489e-06 -0.00180794 0)
(6.83884e-06 -0.00227446 0)
(1.17276e-05 -0.00271892 0)
(1.82263e-05 -0.00314129 0)
(2.6576e-05 -0.00354206 0)
(3.68936e-05 -0.00392109 0)
(4.94576e-05 -0.00427898 0)
(6.43334e-05 -0.00461543 0)
(8.18554e-05 -0.00493126 0)
(0.000102028 -0.00522604 0)
(0.000125199 -0.00550081 0)
(0.000151402 -0.00575506 0)
(0.000180849 -0.00599003 0)
(0.00021367 -0.00620524 0)
(0.000250098 -0.00640213 0)
(0.000289702 -0.00658034 0)
(0.000334316 -0.00674144 0)
(0.000380283 -0.00688553 0)
(0.000430656 -0.00701389 0)
(0.000482063 -0.00713006 0)
(0.000538414 -0.00723063 0)
(0.000621556 -0.00740894 0)
(0.000685476 -0.0075796 0)
(0.000702858 -0.00774363 0)
(0.000715039 -0.0078802 0)
(0.000724352 -0.00797096 0)
(0.00072634 -0.00805083 0)
(0.000725698 -0.0081431 0)
(0.000713453 -0.00824537 0)
(0.000689778 -0.00835358 0)
(0.000651061 -0.00847157 0)
(0.000593497 -0.0085999 0)
(0.000511042 -0.00874115 0)
(0.00039942 -0.0088926 0)
(0.000256264 -0.0090523 0)
(7.0615e-05 -0.0092339 0)
(-0.000209113 -0.00960505 0)
(-0.000427358 -0.0109203 0)
(-0.000570119 -0.0122672 0)
(-0.000711481 -0.0131923 0)
(-0.000846807 -0.0140585 0)
(-0.000986551 -0.0148694 0)
(-0.00113835 -0.0155938 0)
(-0.00130597 -0.0162463 0)
(-0.0014894 -0.0168499 0)
(-0.00168587 -0.0174365 0)
(-0.00189203 -0.0180074 0)
(2.0139e-07 -0.000277309 0)
(7.73182e-07 -0.000812142 0)
(1.76838e-06 -0.00132767 0)
(3.09276e-06 -0.00182348 0)
(4.87629e-06 -0.00229912 0)
(7.19319e-06 -0.00275454 0)
(1.01952e-05 -0.00318983 0)
(1.3931e-05 -0.00360522 0)
(1.85592e-05 -0.00400092 0)
(2.41009e-05 -0.00437714 0)
(3.07238e-05 -0.0047341 0)
(3.84328e-05 -0.00507199 0)
(4.73877e-05 -0.00539104 0)
(5.75853e-05 -0.00569146 0)
(6.91613e-05 -0.00597352 0)
(8.20999e-05 -0.00623748 0)
(9.65211e-05 -0.00648355 0)
(0.000112362 -0.00671212 0)
(0.00012972 -0.0069233 0)
(0.000148504 -0.00711763 0)
(0.000168508 -0.00729508 0)
(0.000190336 -0.00745625 0)
(0.000213446 -0.007601 0)
(0.000238939 -0.00773006 0)
(0.000261306 -0.00784291 0)
(0.000263571 -0.00794226 0)
(0.000234543 -0.00801975 0)
(0.000209284 -0.00808615 0)
(0.000211061 -0.00815203 0)
(0.00022041 -0.00821321 0)
(0.000229226 -0.00826563 0)
(0.000234237 -0.00830702 0)
(0.000236163 -0.00834121 0)
(0.000235142 -0.00837194 0)
(0.000230426 -0.00839779 0)
(0.000221524 -0.00841929 0)
(0.000207426 -0.00843467 0)
(0.000188133 -0.00844635 0)
(0.000163104 -0.00846476 0)
(0.000129166 -0.00855498 0)
(6.71619e-05 -0.0091482 0)
(-1.91651e-05 -0.0121025 0)
(-6.37175e-05 -0.0132492 0)
(-0.000212591 -0.0130579 0)
(-0.000408091 -0.0135294 0)
(-0.000593166 -0.0138218 0)
(-0.000782838 -0.0140328 0)
(-0.000981054 -0.0142836 0)
(-0.00118601 -0.014656 0)
(-0.00139685 -0.0150622 0)
(-1.82452e-07 -0.000279888 0)
(-1.1831e-06 -0.000818612 0)
(-2.92909e-06 -0.00133713 0)
(-5.32603e-06 -0.00183591 0)
(-8.21459e-06 -0.00231514 0)
(-1.14826e-05 -0.00277497 0)
(-1.50072e-05 -0.00321543 0)
(-1.86793e-05 -0.00363664 0)
(-2.23873e-05 -0.00403869 0)
(-2.60394e-05 -0.00442173 0)
(-2.95292e-05 -0.00478582 0)
(-3.27849e-05 -0.00513113 0)
(-3.57039e-05 -0.00545767 0)
(-3.82376e-05 -0.00576564 0)
(-4.02873e-05 -0.00605498 0)
(-4.18292e-05 -0.00632593 0)
(-4.27752e-05 -0.00657833 0)
(-4.31203e-05 -0.00681254 0)
(-4.27945e-05 -0.0070282 0)
(-4.18325e-05 -0.00722583 0)
(-4.01114e-05 -0.00740477 0)
(-3.78153e-05 -0.00756584 0)
(-3.46435e-05 -0.00770796 0)
(-3.11867e-05 -0.00783232 0)
(-2.72798e-05 -0.00793722 0)
(-2.12569e-05 -0.00802442 0)
(-1.17246e-05 -0.00808963 0)
(-2.78592e-06 -0.00814583 0)
(-1.53789e-05 -0.00820523 0)
(-3.81862e-05 -0.00825395 0)
(-4.43135e-05 -0.0082781 0)
(-4.14361e-05 -0.0083195 0)
(-3.67584e-05 -0.00836499 0)
(-3.17127e-05 -0.00840487 0)
(-2.73363e-05 -0.00843354 0)
(-2.28564e-05 -0.00845586 0)
(-1.79522e-05 -0.00847336 0)
(-1.21287e-05 -0.00849269 0)
(-5.6505e-06 -0.0085178 0)
(1.10358e-06 -0.00856315 0)
(1.61676e-06 -0.00866459 0)
(-5.26733e-05 -0.00895679 0)
(-0.000246885 -0.00936782 0)
(-0.000454971 -0.00970532 0)
(-0.000638098 -0.0104527 0)
(-0.000797984 -0.0110322 0)
(-0.000967035 -0.0115348 0)
(-0.00113701 -0.0119909 0)
(-0.00130933 -0.0123774 0)
(-0.0014893 -0.0127155 0)
(-0.00295971 -0.0542683 0)
(-0.00314672 -0.0553484 0)
(-0.00333909 -0.0563448 0)
(-0.00353662 -0.0572637 0)
(-0.00373904 -0.0581111 0)
(-0.00394609 -0.058893 0)
(-0.00415751 -0.0596145 0)
(-0.00437302 -0.0602807 0)
(-0.00459231 -0.0608959 0)
(-0.00481505 -0.0614643 0)
(-0.0050409 -0.0619895 0)
(-0.00526952 -0.062475 0)
(-0.00550054 -0.0629238 0)
(-0.00573358 -0.0633386 0)
(-0.00596826 -0.0637217 0)
(-0.00620418 -0.0640754 0)
(-0.00644095 -0.0644015 0)
(-0.00667815 -0.0647016 0)
(-0.00691536 -0.0649771 0)
(-0.00715215 -0.0652292 0)
(-0.0073881 -0.0654589 0)
(-0.00762278 -0.065667 0)
(-0.00785577 -0.0658542 0)
(-0.00808664 -0.0660208 0)
(-0.00831499 -0.0661665 0)
(-0.00854043 -0.0662903 0)
(-0.00876249 -0.06639 0)
(-0.00898026 -0.0664639 0)
(-0.00919324 -0.0665083 0)
(-0.00940201 -0.0665203 0)
(-0.00960294 -0.0664943 0)
(-0.00978936 -0.0664012 0)
(-0.00995968 -0.0660613 0)
(-0.0101139 -0.0657807 0)
(-0.0102561 -0.065531 0)
(-0.0103917 -0.0652889 0)
(-0.0105218 -0.0650424 0)
(-0.0106473 -0.0647859 0)
(-0.0107691 -0.0645169 0)
(-0.0108873 -0.0642102 0)
(-0.0110012 -0.0638892 0)
(-0.0111107 -0.0635613 0)