/*--------------------------------*- C++ -*----------------------------------*\
| =========                 |                                                 |
| \\      /  F ield         | OpenFOAM: The Open Source CFD Toolbox           |
|  \\    /   O peration     | Version:  2.4.0                                 |
|   \\  /    A nd           | Web:      www.OpenFOAM.org                      |
|    \\/     M anipulation  |                                                 |
\*---------------------------------------------------------------------------*/
FoamFile
{
    version     2.0;
    format      ascii;
    class       volScalarField;
    location    "1.5";
    object      alpha1;
}
// * * * * * * * * * * * * * * * * * * * * * * * * * * * * * * * * * * * * * //

dimensions      [0 0 0 0 0 0 0];

internalField   nonuniform List<scalar> 
8000
(
1
1
1
1
1
1
1
0.999998
0.999998
0.999979
0.993923
0.999579
1.00331
0.994104
0.794634
0.490723
0.179671
0.0573277
0.0207307
0.0121897
0.00788713
0.00448607
0.00206376
0.00070222
0.000208894
9.4027e-05
5.69474e-05
3.81134e-05
2.52772e-05
1.62816e-05
9.99193e-06
6.17405e-06
4.13872e-06
2.56071e-06
1.26462e-06
9.9212e-07
7.76547e-07
6.08636e-07
4.89716e-07
4.08124e-07
3.4971e-07
3.24188e-07
3.11418e-07
2.98396e-07
2.8557e-07
2.77005e-07
2.76208e-07
2.79006e-07
2.83903e-07
2.88836e-07
1
1
1
1
1
1
1
1
1
1
1
1
1
1
1
1
1
1
0.998875
0.971002
0.786206
0.600206
0.347774
0.129299
0.0368717
0.0120876
0.00712187
0.00486563
0.00312747
0.00181092
0.00112605
0.000764969
0.000555174
0.000377123
0.000225553
0.000124549
6.77777e-05
3.84312e-05
2.17069e-05
1.09158e-05
4.56432e-06
1.17253e-06
7.50945e-07
6.6509e-07
5.55843e-07
4.98704e-06
3.83744e-06
1.26083e-06
2.91225e-07
3.21364e-07
1
1
1
1
1
1
1
1
1
1
1
1
0.999999
0.999999
0.999999
0.999999
1
1
1
1
1
1
1
0.999989
0.999322
0.999542
0.904509
0.667031
0.366922
0.133137
0.0375785
0.0243186
0.0166579
0.01093
0.00695324
0.00369648
0.00179589
0.000831384
0.000371659
0.000170528
8.75393e-05
5.7106e-05
5.36389e-05
4.18874e-05
2.43976e-05
1.27352e-05
6.13999e-06
2.55587e-06
5.95917e-07
5.45195e-07
1
1
1
1
1
1
1
1
1
1
1
1
1
1
1
1
1
1
1
1
1
1
1
1
1
1
1
0.99999
0.999891
0.999653
0.975381
0.961076
0.73498
0.313019
0.0768207
0.0339293
0.023528
0.0147986
0.00689218
0.00280823
0.00140873
0.000871449
0.000481732
0.000223398
9.85739e-05
4.86399e-05
2.69623e-05
1.57791e-05
9.05529e-06
4.97336e-06
1
1
1
1
1
1
1
1
1
1
1
1
1
1
1
1
1
1
1
1
1
1
1
1
1
1
1
0.999999
0.999999
1
1
1
0.999989
0.999862
0.988201
0.976547
0.85327
0.549653
0.194222
0.0490235
0.0350658
0.0196749
0.00856148
0.0032691
0.00137925
0.000653447
0.000312837
0.000141266
6.12366e-05
2.62692e-05
1
1
1
1
1
1
1
1
1
1
1
1
1
1
1
1
1
1
1
1
1
1
1
0.999999
0.999999
0.999999
0.999999
0.999999
0.999999
0.999999
0.999999
0.999999
0.999999
1
1
1
0.999998
0.999944
0.999839
0.962646
0.933756
0.643057
0.216071
0.0570342
0.0299908
0.0134538
0.00510218
0.00180228
0.000672631
0.000279061
1
1
1
1
1
1
1
1
1
1
1
1
1
1
1
1
1
1
1
1
1
0.999999
0.999999
0.999999
0.999999
0.999999
0.999998
0.999998
0.999998
0.999998
0.999998
0.999998
0.999998
0.999998
0.999998
0.999999
0.999999
1
1
1
1
0.999988
0.987319
0.959859
0.825924
0.303903
0.0741981
0.0333479
0.0108603
0.00372285
1
1
1
1
1
1
1
1
1
1
1
1
1
1
1
1
1
1
1
0.999999
0.999999
0.999999
0.999999
0.999999
0.999998
0.999998
0.999998
0.999998
0.999997
0.999997
0.999997
0.999997
0.999997
0.999997
0.999998
0.999998
0.999998
0.999999
0.999999
1
1
1
1
1
0.999999
0.999923
0.962856
0.687663
0.248537
0.0982438
1
1
1
1
1
1
1
1
1
1
1
1
1
1
1
1
1
1
0.999999
0.999999
0.999999
0.999999
0.999999
0.999999
0.999998
0.999998
0.999998
0.999998
0.999998
0.999997
0.999997
0.999998
0.999998
0.999998
0.999998
0.999998
0.999999
0.999999
0.999999
0.999999
1
1
0.999999
0.999999
0.999999
1
1
1
0.984308
0.801065
1
1
1
1
1
1
1
1
1
1
1
1
1
1
1
1
1
1
1
0.999999
0.999999
0.999999
0.999999
0.999999
0.999998
0.999998
0.999998
0.999998
0.999998
0.999998
0.999998
0.999998
0.999998
0.999998
0.999998
0.999999
0.999999
0.999999
0.999999
0.999999
0.999999
0.999999
0.999998
0.999997
0.999995
0.999993
0.999988
0.999994
1
1
1
1
1
1
1
1
1
1
1
1
1
1
1
1
1
1
1
1
1
1
0.999999
0.999999
0.999999
0.999999
0.999999
0.999999
0.999998
0.999998
0.999998
0.999998
0.999998
0.999998
0.999998
0.999998
0.999999
0.999999
0.999999
0.999999
0.999999
0.999999
0.999998
0.999998
0.999997
0.999995
0.99999
0.999982
0.999966
0.999923
0.999974
0.999995
1
1
1
1
1
1
1
1
1
1
1
1
1
1
1
1
1
1
1
1
1
1
0.999999
0.999999
0.999999
0.999999
0.999999
0.999999
0.999999
0.999999
0.999999
0.999999
0.999999
0.999999
0.999999
0.999999
0.999999
0.999999
0.999999
0.999999
0.999999
0.999998
0.999997
0.999994
0.999987
0.999973
0.999866
0.999728
0.999933
0.999986
1
1
1
1
1
1
1
1
1
1
1
1
1
1
1
1
1
1
1
1
1
1
1
1
1
0.999999
0.999999
0.999999
0.999999
0.999999
0.999999
0.999999
0.999999
0.999999
0.999999
0.999999
0.999999
0.999999
0.999999
0.999999
0.999999
0.999999
0.999997
0.999994
0.999987
0.999961
0.999782
0.99971
0.999907
0.999986
1
1
1
1
1
1
1
1
1
1
1
1
1
1
1
1
1
1
1
1
1
1
1
1
1
1
1
1
1
1
0.999999
0.999999
0.999999
0.999999
0.999999
0.999999
0.999999
0.999999
0.999999
0.999999
0.999999
0.999999
0.999998
0.999994
0.999985
0.999953
0.999796
0.9998
0.999907
0.939207
1
1
1
1
1
1
1
1
1
1
1
1
1
1
1
1
1
1
1
1
1
1
1
1
1
1
1
1
1
1
1
1
1
1
1
1
0.999999
0.999999
0.999999
0.999999
0.999999
0.999999
0.999997
0.999992
0.99998
0.999939
0.99983
0.99983
0.81922
0.308831
1
1
1
1
1
1
1
1
1
1
1
1
1
1
1
1
1
1
1
1
1
1
1
1
1
1
1
1
1
1
1
1
1
1
1
1
1
1
1
0.999999
0.999999
0.999998
0.999995
0.999989
0.99998
0.99993
0.99828
0.649376
0.140156
0.0144544
1
1
1
1
1
1
1
1
1
1
1
1
1
1
1
1
1
1
1
1
1
1
1
1
1
1
1
1
1
1
1
1
1
1
1
1
1
1
1
0.999999
0.999998
0.999996
0.999992
0.999989
0.99999
0.999701
0.575173
0.0427818
0.00120942
0.000104898
1
1
1
1
1
1
1
1
1
1
1
1
1
1
1
1
1
1
1
1
1
1
1
1
1
1
1
1
1
1
1
1
1
1
1
1
1
1
1
0.999999
0.999999
0.999998
0.999997
0.999994
0.99999
0.999995
0.925592
0.187511
0.00622757
0.000281727
1
1
1
1
1
1
1
1
1
1
1
1
1
1
1
1
1
1
1
1
1
1
1
1
1
1
1
1
1
1
1
1
1
1
1
1
1
1
0.999999
0.999999
0.999998
0.999998
0.999997
0.999997
0.999995
0.999999
0.95965
0.110457
0.0195328
6.07093e-07
1
1
1
1
1
1
1
1
1
1
1
1
1
1
1
1
1
1
1
1
1
1
1
1
1
1
1
1
1
1
1
1
1
1
1
1
0.999999
0.999999
0.999998
0.999998
0.999997
0.999997
0.999997
0.999998
0.999999
0.999999
1
1
0.799093
0.0031789
2.94552e-07
2.98792e-07
3.19283e-07
3.48954e-07
3.62029e-07
6.36933e-07
4.69902e-07
4.33167e-07
4.25594e-07
4.46986e-07
4.61236e-07
3.99627e-07
1.07724e-06
5.64479e-07
4.26674e-07
1.10638e-06
5.45285e-07
5.25635e-07
6.94533e-07
8.17008e-07
9.71966e-07
1.19177e-06
1.37395e-06
1.37192e-06
1.11656e-06
9.97966e-07
1.01261e-06
1.05929e-06
1.10666e-06
1.15707e-06
1.20997e-06
4.23896e-06
4.60232e-06
4.19717e-06
1.26982e-06
8.10885e-07
8.36179e-07
8.79977e-07
9.11202e-07
1.00176e-06
4.25099e-06
5.63047e-06
5.0145e-06
2.02069e-06
5.29403e-07
6.33437e-07
6.85969e-07
2.82615e-06
3.63981e-06
3.62193e-06
3.34831e-07
3.56479e-07
3.88913e-07
4.38408e-07
4.46041e-07
6.39363e-07
5.3116e-07
4.83973e-07
4.58481e-07
4.33805e-07
4.13501e-07
3.98543e-07
4.11432e-07
4.1646e-07
4.21949e-07
4.4465e-07
4.56623e-07
4.69454e-07
4.89305e-07
5.12229e-07
5.38117e-07
5.6633e-07
5.90908e-07
6.08515e-07
6.15183e-07
6.18338e-07
6.21945e-07
6.26096e-07
6.3025e-07
6.34476e-07
6.45039e-07
6.68913e-07
6.83614e-07
6.82346e-07
7.14242e-07
6.26261e-07
6.25064e-07
6.25044e-07
6.25044e-07
1.53978e-06
4.98315e-06
5.64383e-06
3.44212e-06
7.55165e-07
5.22147e-07
5.19356e-07
5.19603e-07
5.19787e-07
1.19277e-06
8.47363e-07
5.19991e-07
5.15298e-07
5.67249e-07
6.35217e-07
6.27219e-07
5.34453e-07
5.16083e-07
5.04935e-07
4.92675e-07
4.79417e-07
4.67843e-07
4.59583e-07
4.55577e-07
4.5477e-07
4.56226e-07
4.59616e-07
4.64356e-07
4.70639e-07
4.78585e-07
4.87604e-07
4.98367e-07
5.12107e-07
2.31591e-06
2.81011e-06
2.80225e-06
9.8103e-07
6.13527e-07
6.10341e-07
6.66522e-07
6.77726e-07
6.4564e-07
6.46249e-07
8.75546e-07
6.5205e-07
6.47224e-07
6.47152e-07
6.45679e-07
6.37145e-07
6.25372e-07
6.25576e-07
1.37103e-06
5.37818e-06
5.61247e-06
4.81016e-06
1.40872e-06
5.18991e-07
5.19369e-07
5.21029e-07
5.21065e-07
5.21742e-07
2.42612e-06
6.75493e-07
6.58989e-07
6.35208e-07
6.04742e-07
5.77618e-07
5.58441e-07
5.44765e-07
5.36411e-07
5.35029e-07
5.43579e-07
5.66462e-07
6.09381e-07
6.72683e-07
7.45712e-07
8.11148e-07
9.54472e-07
1.03361e-06
9.7962e-07
9.36779e-07
9.2581e-07
9.33912e-07
9.44256e-07
9.3727e-07
9.37296e-07
3.79383e-06
1.79563e-05
1.90592e-05
1.82601e-05
6.71296e-06
8.7655e-07
8.53617e-07
2.63022e-06
2.78864e-06
9.61934e-07
8.76336e-07
9.533e-07
8.18252e-07
7.27199e-07
6.62104e-07
6.27054e-07
5.87954e-07
5.47663e-07
5.12791e-07
5.0154e-07
5.13181e-07
5.60754e-07
6.45896e-07
7.74489e-07
1.63939e-06
1.12968e-05
4.41969e-06
9.77764e-07
8.62888e-07
8.52518e-07
8.81626e-07
8.83964e-07
8.56019e-07
8.1587e-07
7.81971e-07
7.63613e-07
7.60332e-07
7.66364e-07
7.74792e-07
7.79107e-07
8.71821e-07
1.07432e-06
9.15786e-07
9.12989e-07
9.11882e-07
9.12261e-07
9.12761e-07
9.13288e-07
2.26531e-06
1.10419e-05
1.19371e-05
9.97055e-06
2.75296e-06
8.59862e-07
8.53939e-07
8.4913e-07
8.49407e-07
1.82241e-06
4.82161e-06
4.82664e-06
3.47974e-06
7.86547e-07
5.30027e-07
6.95223e-07
5.47036e-07
5.37928e-07
5.11542e-07
4.61546e-07
3.96545e-07
3.23447e-07
2.4909e-07
1.80148e-07
1.21849e-07
7.7126e-08
4.67465e-08
0.000128405
6.14725e-05
2.92287e-05
1.34481e-05
5.50691e-06
1.22333e-06
1.02704e-06
1.05012e-06
1.09577e-06
1.08892e-06
1.0616e-06
1.04275e-06
1.04019e-06
1.05574e-06
1.0869e-06
1.12432e-06
1.74701e-06
3.825e-06
2.45733e-06
9.18844e-07
9.55986e-07
1.01452e-06
3.80278e-06
5.47483e-06
4.12818e-06
1.22708e-06
1.10914e-06
1.10818e-06
1.0322e-06
1.00441e-06
1.61886e-06
4.23901e-06
4.2536e-06
2.63341e-06
5.92277e-07
5.43301e-07
5.28182e-07
4.97805e-07
4.569e-07
4.16062e-07
3.67285e-07
3.12069e-07
2.53443e-07
1.95437e-07
1.42289e-07
9.74203e-08
6.27493e-08
3.85489e-08
2.37987e-08
1.67599e-08
0.00145775
0.000625373
0.000273046
0.00011251
4.244e-05
1.38506e-05
2.34082e-06
1.46973e-06
3.13396e-06
2.4199e-06
2.16139e-06
2.15088e-06
2.16013e-06
2.15091e-06
2.143e-06
2.15163e-06
2.26416e-06
3.83835e-06
3.56145e-06
1.96503e-06
1.78344e-06
2.2083e-06
4.11461e-06
2.72207e-06
1.76078e-06
1.32918e-06
2.09595e-06
1.02412e-06
1.52054e-06
7.41492e-07
7.47858e-07
6.70529e-07
5.35e-07
4.06058e-07
2.97523e-07
2.02947e-07
1.30542e-07
7.95088e-08
4.58828e-08
2.50989e-08
1.30626e-08
6.5625e-09
3.33094e-09
1.9157e-09
1.47701e-09
1.58064e-09
2.03185e-09
2.78178e-09
3.86508e-09
5.27677e-09
0.0368734
0.0119935
0.00341191
0.000866444
0.00021276
5.04658e-05
7.97723e-06
3.63872e-06
3.93905e-06
3.69883e-06
3.47062e-06
3.34567e-06
3.30438e-06
3.30799e-06
3.31301e-06
3.30432e-06
3.26773e-06
3.19211e-06
3.07312e-06
2.90863e-06
2.70193e-06
2.4296e-06
2.15154e-06
1.87753e-06
1.57928e-06
1.28902e-06
9.96131e-07
7.57183e-07
5.38499e-07
3.74728e-07
2.45831e-07
1.52143e-07
8.88058e-08
4.88038e-08
2.51999e-08
1.21978e-08
5.5219e-09
2.33245e-09
9.17211e-10
3.35031e-10
1.13423e-10
3.55406e-11
1.0413e-11
3.26958e-12
2.24163e-12
4.13869e-12
8.96272e-12
1.78474e-11
3.20401e-11
5.21235e-11
0.466011
0.218504
0.0816614
0.0220746
0.0048651
0.000958488
0.000160438
1.24453e-05
5.95309e-06
5.44642e-06
4.99275e-06
4.84092e-06
4.60184e-06
4.5041e-06
4.21067e-06
3.99618e-06
3.75138e-06
3.46989e-06
3.16293e-06
2.83812e-06
2.50121e-06
2.15854e-06
1.81775e-06
1.48782e-06
1.17846e-06
8.99095e-07
6.57553e-07
4.58721e-07
3.03747e-07
1.89977e-07
1.11702e-07
6.14653e-08
3.15197e-08
1.50045e-08
6.60677e-09
2.68186e-09
1.00047e-09
3.41974e-10
1.06794e-10
3.03817e-11
7.85094e-12
1.83716e-12
3.88042e-13
7.37277e-14
1.25569e-14
1.91084e-15
2.59256e-16
3.14018e-17
3.46519e-18
5.73406e-19
0.975803
0.829459
0.537269
0.223292
0.0513462
0.00691354
0.000555086
2.23085e-05
8.20066e-06
6.67914e-06
4.8836e-06
6.3171e-06
3.91472e-06
5.62814e-06
3.05281e-06
3.3535e-06
3.17399e-06
2.81396e-06
2.42058e-06
2.03645e-06
1.67505e-06
1.34361e-06
1.04749e-06
7.90592e-07
5.75079e-07
4.0116e-07
2.6692e-07
1.68429e-07
1.00195e-07
5.5859e-08
2.90232e-08
1.39852e-08
6.22459e-09
2.55091e-09
9.59966e-10
3.30834e-10
1.04073e-10
2.97625e-11
7.70138e-12
1.79419e-12
3.74647e-13
6.99368e-14
1.16851e-14
1.75985e-15
2.4229e-16
3.11455e-17
3.84541e-18
4.72824e-19
6.01176e-20
7.76197e-21
1
1
0.919658
0.540745
0.122967
0.0120189
0.000557441
9.97281e-06
1.01294e-05
4.83067e-06
4.61156e-06
4.12676e-06
3.90932e-06
3.32991e-06
3.02194e-06
2.59248e-06
2.16466e-06
1.76715e-06
1.41001e-06
1.09809e-06
8.33255e-07
6.14852e-07
4.40153e-07
3.04862e-07
2.03666e-07
1.30769e-07
8.03749e-08
4.7076e-08
2.61437e-08
1.36894e-08
6.71622e-09
3.06663e-09
1.29438e-09
5.01878e-10
1.77635e-10
5.69897e-11
1.64398e-11
4.23255e-12
9.68537e-13
1.96972e-13
3.60383e-14
6.08194e-15
9.73338e-16
1.51395e-16
2.28883e-17
3.37621e-18
4.96702e-19
7.46087e-20
1.19665e-20
1.86372e-21
0.999994
0.999947
0.8986
0.496755
0.101774
0.00827797
0.000259715
6.99088e-06
4.7156e-06
4.33431e-06
3.79628e-06
3.2496e-06
2.73139e-06
2.2559e-06
1.82614e-06
1.4451e-06
1.11538e-06
8.38003e-07
6.1188e-07
4.3351e-07
2.97486e-07
1.9747e-07
1.26515e-07
7.80649e-08
4.62837e-08
2.62961e-08
1.42724e-08
7.37327e-09
3.61168e-09
1.66917e-09
7.23985e-10
2.92861e-10
1.09408e-10
3.80441e-11
1.23972e-11
3.8064e-12
1.09909e-12
3.01212e-13
7.89865e-14
1.9776e-14
4.7419e-15
1.06917e-15
2.2636e-16
4.49859e-17
8.4024e-18
1.47488e-18
2.43795e-19
3.81598e-20
5.71746e-21
7.89875e-22
0.997915
0.787172
0.371947
0.0754226
0.00784251
0.000362139
8.58495e-06
5.83088e-06
3.5223e-06
2.51276e-06
1.98194e-06
1.57142e-06
1.21564e-06
9.13424e-07
6.66587e-07
4.7367e-07
3.27729e-07
2.20489e-07
1.44187e-07
9.16121e-08
5.65166e-08
3.38151e-08
1.95957e-08
1.09796e-08
5.93598e-09
3.08934e-09
1.54372e-09
7.38539e-10
3.37263e-10
1.46625e-10
6.06313e-11
2.38283e-11
8.88058e-12
3.13839e-12
1.05004e-12
3.33053e-13
1.0029e-13
2.86796e-14
7.76995e-15
1.98909e-15
4.8055e-16
1.09531e-16
2.35429e-17
4.77059e-18
9.11205e-19
1.64049e-19
2.78417e-20
4.45771e-21
6.72069e-22
8.91258e-23
0.568787
0.204764
0.0432865
0.00582466
0.000271404
3.94616e-06
2.356e-06
1.4037e-06
9.40937e-07
6.57918e-07
4.54799e-07
3.0913e-07
2.06851e-07
1.36265e-07
8.8303e-08
5.62265e-08
3.51358e-08
2.15196e-08
1.28996e-08
7.5549e-09
4.31408e-09
2.39634e-09
1.29181e-09
6.7422e-10
3.39864e-10
1.65074e-10
7.70793e-11
3.45235e-11
1.48024e-11
6.06481e-12
2.37091e-12
8.83268e-13
3.13309e-13
1.05758e-13
3.39627e-14
1.03754e-14
3.01542e-15
8.33829e-16
2.19397e-16
5.49344e-17
1.30901e-17
2.96874e-18
6.40907e-19
1.31739e-19
2.57914e-20
4.8113e-21
8.55777e-22
1.4522e-22
2.32952e-23
3.17781e-24
0.0548345
0.00694751
0.000543889
6.35284e-06
3.69453e-06
7.65464e-07
4.12715e-07
2.41488e-07
1.44874e-07
8.84665e-08
5.54806e-08
3.57792e-08
2.36721e-08
1.60008e-08
1.09798e-08
7.58146e-09
5.22127e-09
3.55397e-09
2.37283e-09
1.54306e-09
9.72379e-10
5.91292e-10
3.45761e-10
1.93755e-10
1.03702e-10
5.28794e-11
2.56852e-11
1.17961e-11
5.09477e-12
2.05862e-12
7.75038e-13
2.6967e-13
8.62068e-14
2.51773e-14
6.68178e-15
1.60297e-15
3.45893e-16
6.6815e-17
1.14998e-17
1.75622e-18
2.37133e-19
2.8259e-20
2.98087e-21
2.82694e-22
2.52403e-23
2.33278e-24
2.50959e-25
3.23768e-26
4.53865e-27
5.47025e-28
0.000541477
1.74377e-05
1.16069e-05
3.62232e-06
2.28226e-06
8.6008e-07
4.75658e-07
2.97533e-07
2.03647e-07
1.47997e-07
1.12208e-07
8.71349e-08
6.86793e-08
5.42934e-08
4.27053e-08
3.30093e-08
2.49499e-08
1.82989e-08
1.29924e-08
8.8792e-09
5.82852e-09
3.66552e-09
2.20381e-09
1.26401e-09
6.90838e-10
3.59166e-10
1.78203e-10
8.35885e-11
3.68521e-11
1.52071e-11
5.87179e-12
2.09587e-12
6.87168e-13
2.0574e-13
5.59365e-14
1.3735e-14
3.03004e-15
5.97512e-16
1.04776e-16
1.62539e-17
2.21849e-18
2.64871e-19
2.74884e-20
2.46496e-21
1.90378e-22
1.26205e-23
7.13178e-25
3.40695e-26
1.36511e-27
4.61731e-29
7.41371e-06
4.72529e-06
3.11604e-06
1.49582e-06
9.48062e-07
6.65367e-07
5.36177e-07
4.49387e-07
3.82635e-07
3.2543e-07
2.77752e-07
2.34757e-07
1.97522e-07
1.62903e-07
1.32678e-07
1.04927e-07
8.12805e-08
6.07214e-08
4.41327e-08
3.08316e-08
2.07612e-08
1.34032e-08
8.28144e-09
4.89058e-09
2.7559e-09
1.47834e-09
7.51892e-10
3.61504e-10
1.62816e-10
6.90696e-11
2.77173e-11
1.03048e-11
3.52247e-12
1.1e-12
3.11911e-13
7.98394e-14
1.83455e-14
3.76391e-15
6.8576e-16
1.10345e-16
1.55922e-17
1.92308e-18
2.05659e-19
1.89616e-20
1.50515e-21
1.02625e-22
5.97929e-24
2.95652e-25
1.23146e-26
4.34301e-28
8.58914e-06
3.00956e-06
9.81373e-07
9.47212e-07
9.11652e-07
8.52482e-07
8.03585e-07
7.49395e-07
6.97427e-07
6.1332e-07
5.49897e-07
4.71727e-07
4.14428e-07
3.42464e-07
2.89846e-07
2.28803e-07
1.8483e-07
1.38568e-07
1.05393e-07
7.50288e-08
5.27409e-08
3.54203e-08
2.27698e-08
1.4021e-08
8.25976e-09
4.64548e-09
2.48668e-09
1.26299e-09
6.05541e-10
2.71869e-10
1.14459e-10
4.47511e-11
1.60967e-11
5.28881e-12
1.57665e-12
4.23732e-13
1.02049e-13
2.18985e-14
4.16301e-15
6.97092e-16
1.02203e-16
1.30364e-17
1.43646e-18
1.35966e-19
1.1064e-20
7.74087e-22
4.64078e-23
2.37256e-24
1.02786e-25
3.79025e-27
1.51885e-06
1.49844e-06
1.46903e-06
1.42933e-06
1.40381e-06
1.26755e-06
1.19971e-06
1.15712e-06
1.14896e-06
9.95178e-07
8.86883e-07
7.44689e-07
6.93106e-07
5.62146e-07
5.11989e-07
3.91322e-07
3.46751e-07
2.49289e-07
2.12159e-07
1.44667e-07
1.11778e-07
7.93994e-08
5.30413e-08
3.37448e-08
2.05092e-08
1.19045e-08
6.58949e-09
3.46967e-09
1.73129e-09
8.14335e-10
3.58687e-10
1.46831e-10
5.54155e-11
1.91283e-11
5.99246e-12
1.69142e-12
4.27211e-13
9.59341e-14
1.90327e-14
3.31476e-15
5.03425e-16
6.61924e-17
7.47304e-18
7.19641e-19
5.92161e-20
4.1743e-21
2.51788e-22
1.29765e-23
5.69789e-25
2.14182e-26
9.47778e-06
5.50414e-06
2.36237e-06
1.25841e-06
3.13643e-06
1.67915e-06
1.20751e-06
7.70856e-07
2.15004e-06
1.97026e-06
1.73724e-06
1.00257e-06
1.41617e-06
7.44268e-07
1.16218e-06
5.70804e-07
8.52995e-07
4.06791e-07
5.59779e-07
2.6652e-07
2.67051e-07
2.19042e-07
1.57767e-07
1.05232e-07
6.63461e-08
3.97478e-08
2.2645e-08
1.2259e-08
6.29228e-09
3.04982e-09
1.38758e-09
5.88143e-10
2.30282e-10
8.25648e-11
2.68779e-11
7.88103e-12
2.0659e-12
4.80778e-13
9.86625e-14
1.77327e-14
2.77143e-15
3.73703e-16
4.30802e-17
4.20819e-18
3.47533e-19
2.43007e-20
1.43969e-21
7.2668e-23
3.15571e-24
1.18381e-25
2.21961e-06
6.43182e-07
6.53977e-07
6.94673e-07
7.20092e-07
7.3128e-07
7.33261e-07
7.41963e-07
7.40537e-07
6.98834e-07
7.00264e-07
1.6381e-06
7.03493e-06
7.53646e-06
7.53767e-06
7.53596e-06
3.64677e-06
5.0088e-07
3.24211e-07
9.41299e-07
6.20082e-07
5.3778e-07
5.36035e-07
5.21765e-07
2.04665e-06
1.07731e-05
1.67256e-05
5.95474e-06
1.03085e-06
9.72735e-07
9.7272e-07
3.65587e-06
4.71061e-06
4.72839e-06
2.07146e-06
4.37143e-07
4.58693e-07
7.37282e-07
2.8323e-06
1.47082e-05
1.70222e-05
1.70493e-05
1.38974e-05
2.9623e-06
3.08434e-06
1.27664e-05
7.74756e-06
3.214e-06
1.42013e-06
5.10843e-07
4.62732e-07
4.54395e-07
4.79564e-07
3.6553e-06
5.82984e-06
5.81871e-06
3.43319e-06
8.30088e-07
6.4894e-07
6.53688e-07
5.44934e-07
4.96999e-07
4.83678e-07
4.85284e-07
6.46482e-07
6.63532e-06
2.02314e-05
2.03255e-05
1.79861e-05
6.18409e-06
9.60312e-07
6.78641e-07
6.84349e-07
4.20605e-06
2.65525e-06
1.12435e-06
1.13007e-06
1.1404e-06
5.52347e-06
1.90077e-05
1.93084e-05
1.48383e-05
4.74579e-06
1.3185e-05
1.38046e-05
1.30436e-05
6.19219e-06
5.22365e-06
4.35418e-06
1.68614e-06
4.05506e-07
4.95982e-07
4.14707e-07
9.43274e-07
1.3684e-06
7.98081e-07
7.3838e-07
5.92938e-07
4.9962e-07
4.66229e-07
4.0189e-07
2.93513e-07
1.75016e-07
1.06885e-07
8.74461e-08
8.49172e-08
8.78653e-08
9.28815e-08
9.92184e-08
1.06875e-07
1.16465e-07
1.30423e-07
1.52983e-07
1.8738e-07
2.3346e-07
2.8863e-07
3.50911e-07
4.19755e-07
4.93433e-07
5.57489e-07
6.26672e-07
6.82278e-07
7.07944e-07
7.15176e-07
7.72309e-07
7.99883e-07
8.74224e-07
8.42764e-07
7.49181e-07
7.99037e-07
8.72166e-07
8.98043e-07
9.06997e-07
8.79895e-07
7.68546e-07
7.67345e-07
7.25556e-07
6.43509e-07
5.51189e-07
4.50972e-07
3.48762e-07
2.52579e-07
1.65214e-07
9.1264e-08
3.88032e-08
1.3964e-08
7.20562e-09
6.29113e-09
4.42006e-09
2.58644e-09
1.24064e-09
5.83444e-10
2.91164e-10
1.67667e-10
1.13108e-10
8.36372e-11
6.31964e-11
4.68103e-11
3.33697e-11
2.27893e-11
1.48973e-11
9.30006e-12
5.52091e-12
3.09762e-12
1.62965e-12
7.97651e-13
3.60745e-13
1.50044e-13
5.7245e-14
2.00105e-14
6.40675e-15
1.87908e-15
5.05079e-16
1.24485e-16
2.8151e-17
5.84483e-18
1.11493e-18
1.95531e-19
3.15478e-20
4.68598e-21
6.41202e-22
8.08786e-23
9.41011e-24
1.01053e-24
1.00221e-25
9.18494e-27
7.78283e-28
6.10058e-29
4.42584e-30
2.97319e-31
1.85036e-32
1.0673e-33
5.70831e-35
2.83197e-36
1.30375e-37
5.57157e-39
2.21094e-40
8.14923e-42
2.79067e-43
8.88071e-45
2.62673e-46
7.2223e-48
1.84619e-49
4.38781e-51
9.69628e-53
1.99225e-54
3.80577e-56
6.75864e-58
1.11567e-59
1.71156e-61
2.43966e-63
3.2302e-65
3.97149e-67
4.5325e-69
4.79958e-71
4.71348e-73
4.2907e-75
3.61834e-77
2.82496e-79
2.0405e-81
1.36257e-83
8.40478e-86
4.78479e-88
2.51166e-90
1.21468e-92
5.43163e-95
2.24212e-97
8.54685e-100
3.03307e-102
9.99632e-105
3.02115e-107
8.36077e-110
2.115e-112
4.88847e-115
1.03217e-117
1.99499e-120
3.53169e-123
5.91222e-126
8.9749e-129
1.22881e-131
1.51301e-134
1.67011e-137
1.65401e-140
1.4597e-143
1.21086e-146
8.96823e-150
5.78573e-153
3.2279e-156
1.54255e-159
6.23694e-163
2.18302e-166
6.72788e-170
1.64012e-173
3.04073e-177
4.08214e-181
3.61631e-185
1.85255e-189
3.77734e-194
4.21569e-200
9.12468e-206
1.4957e-211
1.68196e-215
2.63915e-219
3.65108e-223
5.56671e-227
1.35655e-230
4.77234e-234
1.76543e-237
6.15966e-241
1.99693e-244
6.14777e-248
1.74926e-251
4.5525e-255
1.08136e-258
2.34036e-262
4.61417e-266
8.24442e-270
1.33155e-273
1.93876e-277
2.53779e-281
2.97806e-285
3.1246e-289
2.92618e-293
2.45574e-297
1.91655e-301
1.69866e-305
2.77965e-309
8.3831e-313
2.50009e-316
0
0
0
0
0
0
0
0
0
0
0
5.943e-07
5.89547e-07
5.89445e-07
6.0606e-07
6.35242e-07
6.64813e-07
6.8246e-07
6.93652e-07
6.96786e-07
6.97045e-07
6.98939e-07
2.8949e-06
6.56957e-06
3.13372e-06
5.5509e-07
3.12917e-07
3.07849e-07
3.08421e-07
3.13732e-07
7.85538e-07
1.83095e-06
1.83124e-06
8.83616e-07
3.28511e-07
3.59683e-07
3.35358e-06
1.78263e-05
4.29961e-05
1.84004e-05
3.93954e-06
1.43098e-06
6.90993e-07
3.66154e-07
3.57698e-07
3.5468e-07
3.5466e-07
1.01375e-06
7.82971e-06
1.35485e-05
6.99381e-06
1.06294e-06
5.18694e-07
5.13247e-07
5.13027e-07
8.79289e-07
1.17929e-05
4.32991e-05
4.39187e-05
4.01764e-05
1.37154e-05
2.07528e-06
8.7221e-07
4.86353e-07
4.20448e-07
4.18168e-07
4.16225e-07
4.15775e-07
7.00497e-07
5.25798e-06
8.49585e-06
3.17657e-06
5.32317e-07
4.83762e-07
5.35489e-07
5.96253e-07
6.00206e-07
7.93079e-07
2.95005e-06
1.74346e-05
1.98335e-05
1.98954e-05
8.54915e-06
1.04493e-06
4.29982e-07
4.26839e-07
4.9063e-07
4.25155e-06
1.32333e-05
9.26092e-06
1.90107e-06
1.01175e-06
1.00756e-06
9.9007e-07
9.90007e-07
1.40894e-06
1.65555e-05
7.19903e-05
7.46932e-05
7.37042e-05
2.86461e-05
3.45199e-06
4.20851e-07
4.12791e-07
4.14921e-07
3.35096e-06
7.50416e-06
7.49705e-06
4.53061e-06
7.62985e-07
3.02008e-06
8.86705e-06
8.92276e-06
4.85902e-06
7.85146e-07
2.46566e-07
2.58314e-07
2.53657e-07
2.49202e-07
2.40132e-07
2.26951e-07
2.1179e-07
1.9745e-07
1.86726e-07
1.81881e-07
1.84618e-07
1.96765e-07
2.21422e-07
2.63791e-07
3.30023e-07
4.21408e-07
5.17152e-07
5.19986e-07
1.20788e-06
7.0339e-07
6.97032e-07
9.09109e-07
6.41516e-06
4.07773e-06
9.80532e-07
8.71865e-07
1.83737e-06
4.75731e-06
3.5665e-06
2.24214e-06
3.54582e-06
4.29365e-06
4.03906e-06
4.03212e-06
4.0536e-06
3.9064e-06
3.50896e-06
3.03252e-06
2.4358e-06
1.77245e-06
9.92784e-07
3.34143e-07
8.17421e-08
7.527e-08
6.98112e-08
4.72729e-08
2.50142e-08
1.12636e-08
4.73098e-09
1.96421e-09
9.29619e-10
5.69708e-10
4.29722e-10
3.48473e-10
2.76558e-10
2.08862e-10
1.50141e-10
1.03022e-10
6.74417e-11
4.19483e-11
2.45819e-11
1.34378e-11
6.77925e-12
3.13054e-12
1.31762e-12
5.04762e-13
1.76016e-13
5.59139e-14
1.61974e-14
4.28366e-15
1.03542e-15
2.2899e-16
4.63835e-17
8.61356e-18
1.46784e-18
2.2974e-19
3.30543e-20
4.37527e-21
5.33226e-22
5.98792e-23
6.20036e-24
5.92429e-25
5.22658e-26
4.26021e-27
3.21023e-28
2.2376e-29
1.44348e-30
8.62293e-32
4.77237e-33
2.44827e-34
1.16474e-35
5.14082e-37
2.10591e-38
8.00958e-40
2.82937e-41
9.28555e-43
2.83191e-44
8.02794e-46
2.11575e-47
5.18471e-49
1.1815e-50
2.50397e-52
4.93535e-54
9.04692e-56
1.54225e-57
2.44477e-59
3.60323e-61
4.93671e-63
6.28602e-65
7.43683e-67
8.17208e-69
8.33776e-71
7.89507e-73
6.93499e-75
5.64797e-77
4.26229e-79
2.97866e-81
1.92632e-83
1.15195e-85
6.36483e-88
3.24641e-90
1.52711e-92
6.61827e-95
2.63966e-97
9.67749e-100
3.25713e-102
1.00499e-104
2.83847e-107
7.32642e-110
1.72975e-112
3.74542e-115
7.44921e-118
1.36545e-120
2.33877e-123
3.63537e-126
5.09668e-129
6.42251e-132
7.27564e-135
7.40484e-138
6.7255e-141
5.70685e-144
4.35877e-147
2.9005e-150
1.66811e-153
8.22011e-157
3.43158e-160
1.22917e-163
3.9595e-167
1.01564e-170
1.99506e-174
2.85179e-178
2.7183e-182
1.51882e-186
3.5404e-191
3.9592e-197
3.32977e-203
8.66305e-209
1.25709e-212
2.04367e-216
2.87147e-220
4.14719e-224
9.06997e-228
3.07026e-231
1.14692e-234
4.07985e-238
1.34598e-241
4.22727e-245
1.23385e-248
3.29668e-252
8.04615e-256
1.79057e-259
3.62946e-263
6.67334e-267
1.1102e-270
1.6668e-274
2.25227e-278
2.73166e-282
2.96584e-286
2.87698e-290
2.49856e-294
1.99236e-298
1.68873e-302
2.38432e-306
6.64068e-310
2.35406e-313
2.9255e-317
0
0
0
0
0
0
0
0
0
0
6.26561e-07
1.1803e-06
1.15981e-06
1.65666e-06
4.95556e-06
2.44799e-05
1.38351e-05
3.14719e-06
7.06572e-07
1.83352e-06
2.38539e-05
6.05522e-05
6.05133e-05
5.25851e-05
1.59578e-05
1.26535e-06
1.87555e-07
2.23551e-07
2.45834e-07
2.61683e-07
2.74073e-07
2.8433e-07
2.95279e-07
3.08759e-07
3.21401e-07
7.76446e-07
1.00099e-05
4.56383e-05
4.84709e-05
4.84799e-05
4.84706e-05
3.04209e-05
5.21668e-06
3.91323e-07
3.55137e-07
3.55193e-07
6.52093e-07
8.33566e-06
1.35508e-05
1.35495e-05
7.87597e-06
1.2522e-06
5.17656e-07
6.09321e-07
6.57101e-06
2.65167e-05
4.14821e-05
1.72852e-05
3.83008e-06
3.7557e-06
6.0359e-06
7.07483e-06
6.47158e-06
2.02187e-06
4.27401e-07
4.171e-07
4.1743e-07
6.58763e-07
6.06457e-06
8.88829e-06
8.81298e-06
4.82099e-06
7.26782e-07
5.39572e-07
2.58741e-06
1.44848e-05
1.58419e-05
1.51145e-05
5.36944e-06
7.17364e-07
5.59649e-07
5.70332e-07
5.60308e-07
4.24779e-07
4.22145e-07
4.21928e-07
9.41081e-07
7.92793e-06
4.23821e-05
4.59829e-05
4.45574e-05
1.76378e-05
3.20645e-06
9.95926e-07
1.16321e-06
1.59852e-05
2.86049e-05
1.10613e-05
1.47151e-06
4.56613e-07
4.50221e-07
4.17121e-07
4.12685e-07
6.10569e-07
2.54404e-06
1.22809e-06
5.46975e-07
5.41373e-07
5.4135e-07
3.59263e-06
8.88679e-06
7.28803e-06
1.64141e-06
2.08726e-06
7.26647e-06
5.57136e-06
2.06124e-06
3.05362e-07
2.89811e-07
3.04385e-07
3.17272e-07
3.3363e-07
3.56467e-07
3.86647e-07
4.23447e-07
4.63675e-07
5.01275e-07
5.27978e-07
5.43845e-07
1.65081e-06
5.74625e-06
5.85776e-06
4.27295e-06
7.60608e-07
8.6896e-07
4.86359e-06
1.47663e-05
1.48626e-05
1.48668e-05
8.33339e-06
1.85156e-06
3.13409e-06
1.13361e-05
1.42104e-05
1.13093e-05
6.8895e-06
4.22979e-06
4.04276e-06
5.63597e-06
1.59316e-05
1.62123e-05
1.56227e-05
1.6309e-05
1.62989e-05
1.63093e-05
7.59701e-06
2.45047e-06
2.01848e-06
1.92883e-06
1.19608e-06
4.77209e-07
2.30234e-07
9.92837e-08
3.81947e-08
1.3333e-08
4.78979e-09
2.32536e-09
1.7596e-09
1.59655e-09
1.37399e-09
1.09597e-09
8.23155e-10
5.89315e-10
4.0391e-10
2.63787e-10
1.62569e-10
9.3034e-11
4.86195e-11
2.29733e-11
9.78839e-12
3.76322e-12
1.30786e-12
4.11734e-13
1.17651e-13
3.05698e-14
7.23479e-15
1.56188e-15
3.07998e-16
5.55485e-17
9.17333e-18
1.38863e-18
1.92884e-19
2.46084e-20
2.88639e-21
3.11528e-22
3.09655e-23
2.8369e-24
2.39728e-25
1.86989e-26
1.34722e-27
8.97184e-29
5.52618e-30
3.15021e-31
1.66297e-32
8.13407e-34
3.68842e-35
1.55132e-36
6.05477e-38
2.1939e-39
7.38298e-41
2.30835e-42
6.70766e-44
1.81202e-45
4.55186e-47
1.0635e-48
2.31147e-50
4.67407e-52
8.79424e-54
1.53964e-55
2.50821e-57
3.80203e-59
5.36214e-61
7.03528e-63
8.58559e-65
9.74344e-67
1.028e-68
1.00805e-70
9.18371e-73
7.77009e-75
6.10243e-77
4.44657e-79
3.0043e-81
1.88097e-83
1.09054e-85
5.85041e-88
2.90177e-90
1.32946e-92
5.62081e-95
2.19063e-97
7.86108e-100
2.5941e-102
7.86106e-105
2.18427e-107
5.55568e-110
1.29113e-112
2.736e-115
5.27445e-118
9.22637e-121
1.46018e-123
2.08381e-126
2.6714e-129
3.10969e-132
3.26196e-135
3.10606e-138
2.71467e-141
2.12729e-144
1.45236e-147
8.61233e-151
4.38901e-154
1.90915e-157
7.0715e-161
2.37116e-164
6.37067e-168
1.31801e-171
1.99687e-175
2.03915e-179
1.24074e-183
3.30932e-188
5.83803e-194
9.2699e-201
5.36795e-206
9.57814e-210
1.61469e-213
2.32046e-217
3.23198e-221
6.31633e-225
2.01791e-228
7.56629e-232
2.7402e-235
9.20043e-239
2.93861e-242
8.79407e-246
2.41095e-249
6.0426e-253
1.38177e-256
2.87812e-260
5.44301e-264
9.32318e-268
1.44272e-271
2.01169e-275
2.52082e-279
2.83133e-283
2.84439e-287
2.55767e-291
2.0936e-295
1.73202e-299
2.13139e-303
5.34524e-307
1.86455e-310
6.8047e-314
0
0
0
0
0
0
0
0
0
0
3.66684e-06
9.70239e-06
5.23136e-05
0.000105644
0.000105504
0.000105633
0.000105496
4.94145e-05
8.41416e-06
4.36983e-07
2.8756e-07
2.58151e-07
2.34264e-07
2.11567e-07
1.94633e-07
1.83001e-07
1.76466e-07
1.7793e-07
1.88534e-07
2.06835e-07
2.30967e-07
2.59357e-07
2.90554e-07
3.25026e-07
3.66214e-07
4.05164e-07
4.35961e-07
4.6322e-07
5.51328e-07
6.00362e-07
6.08435e-07
6.24972e-07
6.26559e-07
1.01149e-06
8.03926e-07
6.64038e-07
6.84603e-07
4.18422e-06
3.50658e-06
1.19471e-06
6.71929e-07
6.66934e-07
6.79186e-07
7.36708e-07
8.13015e-07
1.4509e-06
6.60294e-06
2.82122e-05
2.963e-05
2.76804e-05
9.69807e-06
1.11939e-06
6.75175e-07
6.71179e-07
6.72109e-07
1.3237e-06
5.06835e-06
5.31939e-06
2.8975e-06
2.89673e-06
5.75551e-06
9.18166e-06
9.11392e-06
5.73596e-06
1.14142e-06
6.51729e-07
6.45079e-07
5.7752e-06
4.39156e-06
1.72159e-06
5.63187e-07
5.66533e-07
4.76029e-07
4.29761e-07
5.7667e-07
6.63096e-07
6.07785e-07
5.78407e-07
1.25584e-06
1.71094e-05
7.28348e-05
7.54764e-05
6.89178e-05
2.32278e-05
2.28402e-06
4.01413e-07
4.2399e-07
4.59301e-07
4.98873e-07
5.46078e-07
6.21337e-07
6.54402e-07
6.17465e-07
6.153e-07
6.22654e-07
8.4313e-07
6.73161e-06
9.58935e-06
9.63525e-06
5.35836e-06
1.07796e-06
8.35921e-07
8.356e-07
4.01751e-06
7.22939e-06
6.29245e-06
2.13692e-06
3.56884e-07
3.61667e-07
3.64114e-07
3.72107e-07