/*--------------------------------*- C++ -*----------------------------------*\
| =========                 |                                                 |
| \\      /  F ield         | OpenFOAM: The Open Source CFD Toolbox           |
|  \\    /   O peration     | Version:  2.4.0                                 |
|   \\  /    A nd           | Web:      www.OpenFOAM.org                      |
|    \\/     M anipulation  |                                                 |
\*---------------------------------------------------------------------------*/
FoamFile
{
    version     2.0;
    format      ascii;
    class       volScalarField;
    location    "1.5";
    object      p_rgh;
}
// * * * * * * * * * * * * * * * * * * * * * * * * * * * * * * * * * * * * * //

dimensions      [1 -1 -2 0 0 0 0];

internalField   nonuniform List<scalar> 
8000
(
84.919
84.9987
85.1011
85.1923
85.2879
85.3477
85.4303
85.5585
85.3605
84.9488
85.7057
87.1015
91.0239
83.4859
57.6657
30.2808
8.23516
0.695821
1.22044
1.59041
1.44673
1.1246
0.857676
0.728726
0.699639
0.698718
0.704422
0.717084
0.726914
0.727719
0.722322
0.718158
0.717443
0.718336
0.719049
0.719265
0.719281
0.719349
0.719489
0.719659
0.719837
0.72002
0.720202
0.720376
0.720548
0.720715
0.720882
0.721053
0.721223
0.721394
78.4402
78.4907
78.5358
78.5893
78.6613
78.7514
78.8586
78.9831
79.1292
79.3042
79.5403
79.8038
80.067
80.3205
80.4838
80.6464
80.947
81.5675
81.8073
75.5638
58.6476
44.0979
21.6918
3.22504
-0.0436584
1.17655
1.28843
1.17158
1.02687
0.880894
0.797272
0.770973
0.782146
0.786576
0.77087
0.752282
0.741515
0.737368
0.735716
0.734736
0.734386
0.734676
0.734989
0.73526
0.735506
0.737095
0.736685
0.736256
0.736404
0.736606
85.5385
85.556
85.5848
85.6123
85.6342
85.6523
85.6661
85.674
85.6765
85.6729
85.6617
85.6414
85.6116
85.5775
85.5451
85.5258
85.5378
85.5857
85.6475
85.7154
85.7591
85.8245
85.885
85.846
85.5381
85.7797
69.433
50.7188
24.7954
4.94318
2.89106
3.37108
3.2567
2.4282
1.55466
0.97082
0.845523
0.817276
0.788891
0.765461
0.756685
0.756089
0.756593
0.754706
0.752095
0.751332
0.751172
0.751263
0.751494
0.751826
87.7311
87.7325
87.7351
87.7376
87.7386
87.7391
87.7392
87.7391
87.7391
87.7394
87.7399
87.7408
87.7419
87.7429
87.7439
87.7447
87.7452
87.745
87.7432
87.7406
87.7412
87.755
87.7968
87.8681
87.9474
88.0688
88.171
88.2388
88.106
87.6243
81.6728
78.8971
56.1786
19.437
2.81139
3.88409
4.11538
3.15801
1.62604
0.93206
0.868568
0.869169
0.830501
0.791174
0.775846
0.77206
0.77091
0.770234
0.769859
0.769792
90.4786
90.4691
90.4605
90.4555
90.4537
90.455
90.4591
90.466
90.4755
90.4876
90.5022
90.5193
90.5387
90.5606
90.5847
90.6112
90.64
90.6712
90.7044
90.7396
90.7768
90.8161
90.8572
90.9002
90.9445
90.9917
91.0475
91.1101
91.1721
91.2445
91.3364
91.468
91.4379
90.9095
87.7182
85.0812
68.7512
41.8509
11.007
4.59722
4.68499
3.94953
1.92575
1.0528
0.899445
0.858991
0.823071
0.801246
0.79257
0.789587
92.8997
92.8811
92.8626
92.8477
92.8364
92.8281
92.8227
92.8203
92.8209
92.8244
92.831
92.8405
92.8532
92.869
92.8881
92.9102
92.9357
92.9645
92.9967
93.0322
93.0715
93.114
93.1603
93.2098
93.2631
93.3193
93.3791
93.4414
93.5072
93.5751
93.6484
93.7267
93.8109
93.8878
93.9467
94.0465
94.0978
94.1191
94.037
85.9452
80.0314
51.6266
14.4043
4.93718
4.32533
2.74979
1.335
0.966907
0.870149
0.833623
94.7847
94.7607
94.7355
94.7136
94.6951
94.6792
94.6658
94.6549
94.6465
94.6405
94.6369
94.6357
94.6369
94.6404
94.6463
94.6545
94.665
94.6777
94.6927
94.7099
94.7294
94.751
94.775
94.801
94.8294
94.8598
94.8927
94.9276
94.9652
95.0048
95.0473
95.0916
95.1395
95.1898
95.2459
95.308
95.3788
95.4372
95.4973
95.5608
95.6393
95.5609
93.0545
87.6258
69.5574
23.1448
5.9911
3.76469
1.91548
1.19512
96.4209
96.3915
96.361
96.3348
96.3124
96.2931
96.2766
96.2631
96.2524
96.2446
96.2397
96.2376
96.2384
96.2421
96.2487
96.2581
96.2704
96.2857
96.3038
96.3249
96.349
96.3761
96.4062
96.4394
96.4757
96.5151
96.5577
96.6036
96.6528
96.7054
96.7613
96.8207
96.8837
96.9501
97.0202
97.0938
97.1711
97.252
97.3373
97.4284
97.5239
97.6169
97.7005
97.8273
97.9855
97.9108
89.8759
60.4774
21.4114
9.03948
97.2135
97.1886
97.1617
97.1377
97.1167
97.098
97.0815
97.0671
97.0549
97.0447
97.0367
97.0308
97.027
97.0253
97.0256
97.0281
97.0325
97.0391
97.0477
97.0583
97.071
97.0858
97.1027
97.1215
97.1425
97.1655
97.1907
97.2179
97.2472
97.2786
97.3122
97.3478
97.3857
97.4256
97.4678
97.5121
97.5586
97.6073
97.6583
97.7114
97.7671
97.8258
97.889
97.9542
98.008
98.0459
98.1074
98.0824
94.6022
75.2373
98.074
98.055
98.0352
98.0176
98.0018
97.9873
97.9742
97.9623
97.9516
97.9422
97.9341
97.9273
97.9216
97.9172
97.914
97.912
97.9111
97.9114
97.9128
97.9153
97.9188
97.9234
97.929
97.9355
97.943
97.9514
97.9607
97.9708
97.9816
97.9932
98.0054
98.0182
98.0316
98.0454
98.0596
98.0741
98.0889
98.1038
98.1188
98.1337
98.1483
98.1626
98.1765
98.1898
98.2025
98.2144
98.225
98.2262
98.2251
98.1406
98.23
98.218
98.2043
98.1915
98.1799
98.169
98.159
98.1497
98.1411
98.1333
98.1263
98.12
98.1144
98.1096
98.1055
98.1021
98.0993
98.0973
98.0959
98.0952
98.0951
98.0956
98.0967
98.0984
98.1006
98.1033
98.1065
98.1101
98.1141
98.1185
98.1233
98.1283
98.1336
98.1391
98.1447
98.1504
98.1561
98.1618
98.1675
98.1729
98.1779
98.1826
98.1868
98.1904
98.1932
98.1947
98.195
98.2115
98.195
98.2102
98.9115
98.9024
98.8934
98.8855
98.8785
98.872
98.8661
98.8606
98.8558
98.8515
98.8477
98.8445
98.8419
98.8398
98.8383
98.8373
98.837
98.8371
98.8379
98.8393
98.8412
98.8437
98.8469
98.8507
98.8551
98.8601
98.8658
98.8721
98.8792
98.887
98.8955
98.9047
98.9147
98.9256
98.9373
98.9498
98.9633
98.9778
98.9935
99.0097
99.0274
99.0462
99.0662
99.0873
99.1095
99.1323
99.149
99.2352
99.1864
99.2284
98.7647
98.7625
98.7593
98.7559
98.7528
98.7498
98.747
98.7444
98.742
98.7397
98.7376
98.7357
98.734
98.7324
98.7311
98.7299
98.729
98.7282
98.7277
98.7274
98.7272
98.7273
98.7277
98.7282
98.729
98.73
98.7312
98.7327
98.7344
98.7364
98.7386
98.7411
98.744
98.7471
98.7505
98.7542
98.7582
98.7626
98.7674
98.7726
98.7781
98.7841
98.7905
98.797
98.8035
98.8097
98.8056
98.8524
98.8369
98.7874
99.4309
99.4326
99.4353
99.4379
99.44
99.4415
99.4426
99.4433
99.4435
99.4434
99.4428
99.4419
99.4405
99.4387
99.4365
99.4339
99.4309
99.4275
99.4236
99.4193
99.4146
99.4093
99.4036
99.3974
99.3907
99.3835
99.3757
99.3673
99.3583
99.3487
99.3385
99.3275
99.3158
99.3034
99.2902
99.2761
99.2611
99.2452
99.2284
99.2105
99.1915
99.1711
99.1493
99.1263
99.1053
99.087
99.0432
98.9197
98.6383
92.6112
99.1777
99.182
99.185
99.1871
99.1888
99.1903
99.1915
99.1925
99.1933
99.1938
99.1941
99.1941
99.1939
99.1934
99.1927
99.1918
99.1906
99.1892
99.1875
99.1856
99.1834
99.181
99.1783
99.1753
99.1721
99.1686
99.1647
99.1606
99.1561
99.1513
99.1461
99.1405
99.1345
99.1281
99.1212
99.1138
99.1058
99.0973
99.0882
99.0783
99.0675
99.0555
99.0437
99.0364
99.0344
99.0009
98.8167
98.4616
80.8594
30.7369
100.312
100.315
100.319
100.324
100.329
100.332
100.335
100.338
100.34
100.342
100.343
100.344
100.344
100.344
100.343
100.342
100.34
100.337
100.335
100.331
100.328
100.323
100.319
100.313
100.307
100.301
100.294
100.286
100.278
100.269
100.26
100.25
100.239
100.227
100.214
100.201
100.186
100.171
100.154
100.136
100.117
100.098
100.086
100.08
100.03
99.7732
99.1321
65.2874
14.8404
2.46906
99.7013
99.7082
99.7131
99.7166
99.7197
99.7225
99.725
99.7272
99.7289
99.7303
99.7313
99.7319
99.7321
99.732
99.7316
99.7308
99.7298
99.7286
99.7272
99.7256
99.7239
99.7222
99.7205
99.7188
99.7173
99.716
99.7149
99.7142
99.714
99.7142
99.7151
99.7167
99.7191
99.7226
99.7271
99.7329
99.7401
99.7489
99.759
99.7709
99.7868
99.8137
99.851
99.839
99.6114
99.1686
57.2641
5.03123
1.29523
1.25554
101.554
101.573
101.595
101.614
101.629
101.641
101.65
101.657
101.662
101.665
101.668
101.669
101.67
101.671
101.671
101.671
101.672
101.672
101.673
101.675
101.677
101.68
101.684
101.689
101.694
101.701
101.708
101.717
101.726
101.737
101.748
101.76
101.773
101.786
101.801
101.815
101.83
101.845
101.859
101.873
101.885
101.898
101.912
101.922
101.89
101.751
93.981
19.3834
1.92235
1.36048
100.065
100.136
100.201
100.248
100.284
100.31
100.328
100.34
100.346
100.346
100.341
100.333
100.32
100.303
100.284
100.261
100.236
100.208
100.177
100.144
100.109
100.071
100.03
99.9879
99.9428
99.8953
99.8451
99.7922
99.7364
99.6775
99.6152
99.5494
99.4796
99.4056
99.3268
99.2429
99.1532
99.0571
98.9537
98.8423
98.7229
98.5964
98.4579
98.2795
98.0105
97.7338
93.9268
9.85326
3.39266
1.46907
106.57
106.152
105.736
105.381
105.074
104.8
104.553
104.329
104.126
103.943
103.777
103.627
103.492
103.37
103.26
103.163
103.076
103
102.934
102.878
102.831
102.795
102.767
102.75
102.742
102.744
102.756
102.779
102.813
102.859
102.918
102.991
103.078
103.181
103.303
103.444
103.608
103.797
104.015
104.265
104.552
104.884
105.268
105.707
106.124
106.537
107.732
111.354
91.2385
2.26534
0.721563
0.721732
0.7219
0.722066
0.722229
0.722539
0.7226
0.722753
0.722906
0.723053
0.723197
0.72335
0.723876
0.723739
0.723923
0.724143
0.723934
0.724053
0.724093
0.724204
0.724313
0.724424
0.724611
0.724686
0.724733
0.724793
0.724847
0.724886
0.724938
0.724982
0.725022
0.72531
0.725558
0.725303
0.725041
0.724987
0.724955
0.724908
0.72487
0.72483
0.725055
0.725788
0.725344
0.724986
0.724769
0.724625
0.724499
0.724569
0.72493
0.72478
0.736808
0.737011
0.73721
0.737405
0.737593
0.737882
0.737997
0.738166
0.738332
0.738494
0.738651
0.738809
0.738954
0.739097
0.739235
0.739369
0.739496
0.739619
0.739737
0.739851
0.739961
0.740064
0.740163
0.74026
0.740351
0.740433
0.740507
0.740574
0.740639
0.740702
0.740761
0.740817
0.740865
0.740913
0.740966
0.740977
0.741008
0.741033
0.741055
0.741152
0.741467
0.741856
0.740541
0.74028
0.740218
0.740166
0.740101
0.740022
0.740244
0.739957
0.752147
0.752457
0.75275
0.753073
0.753349
0.753609
0.75387
0.754123
0.754368
0.754604
0.754832
0.755052
0.755263
0.755467
0.755662
0.755849
0.756028
0.756199
0.756363
0.756519
0.756665
0.756804
0.757087
0.757498
0.757603
0.757643
0.757784
0.757871
0.757969
0.758057
0.758141
0.75821
0.758361
0.758314
0.758357
0.758391
0.758414
0.758425
0.758429
0.75842
0.758467
0.758795
0.758895
0.758349
0.757968
0.757805
0.757712
0.757612
0.757505
0.757395
0.769924
0.770146
0.770499
0.770839
0.771166
0.771482
0.771787
0.772083
0.772368
0.772642
0.772905
0.773158
0.773404
0.773642
0.773872
0.774092
0.774311
0.774546
0.774703
0.774877
0.775047
0.775206
0.775359
0.775503
0.775635
0.77601
0.777412
0.778207
0.777797
0.776833
0.776414
0.7765
0.776051
0.776206
0.775431
0.775494
0.775549
0.77555
0.775572
0.775591
0.77561
0.775622
0.775621
0.775625
0.775626
0.775618
0.775608
0.775607
0.77561
0.775683
0.788664
0.788485
0.788677
0.789028
0.789351
0.789665
0.789969
0.790251
0.790529
0.790798
0.79106
0.791312
0.791554
0.791785
0.792008
0.792226
0.792516
0.792642
0.792831
0.79301
0.793178
0.793336
0.793483
0.793735
0.794657
0.795313
0.794246
0.793723
0.793766
0.793846
0.793905
0.793947
0.794047
0.794376
0.794395
0.793598
0.793347
0.793314
0.793294
0.793228
0.793171
0.793103
0.793023
0.792932
0.792832
0.792721
0.7926
0.79247
0.792334
0.792187
0.82059
0.815015
0.812281
0.81096
0.810429
0.810305
0.810595
0.810868
0.811131
0.811383
0.811624
0.811857
0.812078
0.812286
0.81248
0.812663
0.812882
0.814258
0.813596
0.81359
0.8137
0.813789
0.814138
0.815198
0.814487
0.814343
0.814418
0.814467
0.814524
0.814568
0.814642
0.814909
0.814929
0.813986
0.81381
0.813782
0.813737
0.813673
0.8136
0.813516
0.81342
0.813312
0.813192
0.81306
0.812918
0.812764
0.812599
0.812424
0.812238
0.812039
1.00146
0.907658
0.860993
0.841614
0.834915
0.832727
0.832073
0.832729
0.832789
0.832674
0.832884
0.833136
0.83337
0.833587
0.833788
0.833973
0.834134
0.835196
0.835171
0.835155
0.835336
0.835261
0.836471
0.835705
0.835678
0.835883
0.835976
0.835438
0.835492
0.835421
0.835403
0.835368
0.8353
0.835224
0.83514
0.835052
0.834958
0.834855
0.834742
0.834619
0.834486
0.834342
0.834188
0.834023
0.833848
0.833663
0.833468
0.833263
0.83305
0.832828
4.11544
1.99834
1.21197
0.95232
0.879823
0.861594
0.857174
0.857032
0.857334
0.857586
0.857805
0.858034
0.858247
0.85844
0.858616
0.858772
0.858903
0.859013
0.859109
0.859183
0.859235
0.859264
0.859288
0.859296
0.85928
0.859252
0.859206
0.859151
0.859084
0.859008
0.858921
0.858826
0.858719
0.858601
0.858472
0.858331
0.858178
0.858013
0.857836
0.857647
0.857447
0.857234
0.857011
0.856776
0.85653
0.856274
0.856007
0.85573
0.855444
0.855149
43.6889
21.1733
8.69717
3.07753
1.37265
0.977278
0.898783
0.884992
0.884593
0.884758
0.884903
0.885049
0.885163
0.885274
0.885343
0.885406
0.885448
0.885472
0.885477
0.885463
0.88543
0.885379
0.885314
0.885233
0.885137
0.885027
0.884906
0.884773
0.884628
0.884473
0.884306
0.884127
0.883936
0.883732
0.883514
0.883284
0.88304
0.882783
0.882513
0.882231
0.881936
0.881629
0.881309
0.880978
0.880635
0.88028
0.879915
0.879538
0.879153
0.878757
94.9129
80.4211
52.3441
22.218
5.76914
1.56243
0.966405
0.916684
0.915393
0.915328
0.915212
0.915389
0.915161
0.915327
0.915052
0.91503
0.914958
0.91484
0.914712
0.914569
0.914411
0.91424
0.914055
0.913857
0.913648
0.913426
0.913192
0.912946
0.912687
0.912415
0.912129
0.91183
0.911517
0.911189
0.910847
0.910491
0.910122
0.909738
0.909341
0.90893
0.908507
0.908071
0.907622
0.90716
0.906687
0.906202
0.905704
0.905196
0.904679
0.904152
98.222
98.1582
89.697
52.6138
12.5987
2.08312
1.00048
0.948678
0.948608
0.948064
0.947982
0.947848
0.947715
0.947528
0.947347
0.947137
0.946909
0.946665
0.946404
0.94613
0.945842
0.945539
0.945223
0.944893
0.944548
0.944189
0.943815
0.943425
0.94302
0.9426
0.942163
0.941711
0.941243
0.94076
0.940261
0.939748
0.939219
0.938676
0.938119
0.937548
0.936963
0.936365
0.935753
0.935129
0.934491
0.933841
0.933179
0.932505
0.931824
0.931131
99.2113
99.0737
88.8245
49.1666
10.7677
1.77699
1.00923
0.984742
0.984361
0.984145
0.98388
0.983591
0.983283
0.982956
0.982611
0.982248
0.981869
0.981473
0.98106
0.980631
0.980186
0.979723
0.979243
0.978745
0.978229
0.977695
0.977142
0.976571
0.975982
0.975375
0.97475
0.974107
0.973447
0.97277
0.972077
0.971367
0.970642
0.9699
0.969144
0.968373
0.967587
0.966786
0.965972
0.965144
0.964303
0.963449
0.962583
0.961704
0.960819
0.959921
98.0783
77.5689
37.3246
8.47277
1.80773
1.06086
1.02533
1.02474
1.02418
1.02372
1.02328
1.02282
1.02234
1.02184
1.02132
1.02077
1.02021
1.01962
1.01902
1.01839
1.01774
1.01706
1.01637
1.01565
1.01491
1.01415
1.01337
1.01256
1.01174
1.01089
1.01003
1.00914
1.00824
1.00732
1.00638
1.00542
1.00444
1.00345
1.00245
1.00142
1.00038
0.999329
0.998261
0.997178
0.996082
0.994972
0.99385
0.992716
0.991577
0.990424
56.5636
21.0913
5.31996
1.63833
1.09535
1.06992
1.06945
1.06879
1.06817
1.06756
1.06693
1.06627
1.06558
1.06486
1.06411
1.06334
1.06253
1.0617
1.06083
1.05994
1.05902
1.05807
1.0571
1.05609
1.05507
1.05401
1.05293
1.05183
1.0507
1.04955
1.04838
1.04719
1.04597
1.04474
1.04348
1.04221
1.04092
1.03961
1.03828
1.03693
1.03557
1.0342
1.03281
1.0314
1.02999
1.02855
1.02711
1.02566
1.0242
1.02273
6.09126
1.67201
1.15403
1.12147
1.12113
1.11987
1.11901
1.11822
1.1174
1.11654
1.11564
1.1147
1.11372
1.1127
1.11164
1.11054
1.10941
1.10824
1.10703
1.10579
1.10451
1.1032
1.10185
1.10048
1.09907
1.09763
1.09616
1.09467
1.09314
1.09159
1.09002
1.08842
1.08679
1.08515
1.08348
1.08179
1.08009
1.07836
1.07662
1.07486
1.07308
1.07129
1.06949
1.06767
1.06584
1.064
1.06215
1.06029
1.05843
1.05655
1.20002
1.18222
1.181
1.17869
1.17758
1.17656
1.17553
1.17445
1.17333
1.17215
1.17091
1.16962
1.16826
1.16685
1.16539
1.16387
1.16229
1.16067
1.15899
1.15727
1.1555
1.15369
1.15183
1.14993
1.14799
1.14601
1.144
1.14196
1.13988
1.13777
1.13563
1.13347
1.13128
1.12907
1.12684
1.12458
1.12231
1.12002
1.11772
1.1154
1.11306
1.11072
1.10837
1.106
1.10363
1.10126
1.09887
1.09648
1.09411
1.09172
1.24618
1.24528
1.24463
1.24379
1.24288
1.24185
1.2407
1.23943
1.23804
1.23652
1.23488
1.23313
1.23128
1.22932
1.22727
1.22513
1.2229
1.22059
1.2182
1.21575
1.21322
1.21064
1.208
1.2053
1.20256
1.19977
1.19694
1.19407
1.19117
1.18823
1.18527
1.18229
1.17928
1.17626
1.17322
1.17016
1.1671
1.16402
1.16094
1.15786
1.15477
1.15168
1.14859
1.14551
1.14242
1.13935
1.13627
1.13321
1.13017
1.12713
1.33352
1.33251
1.33167
1.33071
1.32944
1.32787
1.32604
1.32396
1.32164
1.31911
1.31637
1.31345
1.31036
1.30712
1.30373
1.30022
1.29658
1.29285
1.28902
1.28512
1.28114
1.27709
1.273
1.26886
1.26468
1.26047
1.25624
1.25198
1.24772
1.24344
1.23917
1.23489
1.23062
1.22636
1.22211
1.21787
1.21365
1.20945
1.20527
1.20112
1.19699
1.19289
1.18881
1.18477
1.18075
1.17677
1.17282
1.1689
1.16504
1.1612
1.47011
1.46898
1.46695
1.46413
1.46055
1.45628
1.45148
1.44623
1.4406
1.43463
1.42841
1.42197
1.41536
1.4086
1.40174
1.3948
1.38782
1.3808
1.37378
1.36677
1.35979
1.35284
1.34594
1.3391
1.33232
1.32561
1.31897
1.31241
1.30594
1.29955
1.29324
1.28702
1.28089
1.27485
1.2689
1.26304
1.25727
1.25158
1.24598
1.24047
1.23505
1.22971
1.22445
1.21927
1.21418
1.20916
1.20423
1.19937
1.19461
1.1899
1.83425
1.79819
1.76872
1.74097
1.71472
1.68895
1.66546
1.64334
1.62213
1.60199
1.58282
1.56463
1.54745
1.53093
1.51531
1.50024
1.48595
1.47216
1.45902
1.44634
1.4342
1.42251
1.41124
1.40039
1.38992
1.37981
1.37003
1.36057
1.35142
1.34255
1.33394
1.3256
1.31749
1.30961
1.30195
1.29449
1.28723
1.28016
1.27327
1.26655
1.25999
1.25359
1.24734
1.24124
1.23527
1.22943
1.22372
1.21814
1.2127
1.20736
0.724547
0.724377
0.7243
0.724195
0.724118
0.724041
0.723961
0.723881
0.723794
0.723722
0.723628
0.723594
0.723889
0.723884
0.723838
0.723774
0.723388
0.723131
0.723222
0.723089
0.722791
0.722748
0.722732
0.722727
0.722839
0.723564
0.728816
0.71934
0.718958
0.719034
0.71906
0.719236
0.720171
0.720218
0.720023
0.719952
0.719982
0.719837
0.72006
0.721082
0.723044
0.723089
0.722788
0.722072
0.722072
0.722531
0.718603
0.718209
0.718214
0.718198
0.718241
0.718273
0.71828
0.718539
0.719886
0.719874
0.719293
0.719085
0.719091
0.719075
0.719045
0.719027
0.719002
0.71898
0.718919
0.71934
0.720435
0.720497
0.718692
0.717662
0.717229
0.717322
0.717222
0.719555
0.718362
0.718131
0.718036
0.717917
0.718113
0.718924
0.71905
0.715905
0.720878
0.716542
0.716898
0.71627
0.716089
0.716004
0.715859
0.715164
0.714846
0.714675
0.714571
0.714468
0.714548
0.714069
0.713885
0.713688
0.713492
0.713298
0.713095
0.712872
0.712652
0.712435
0.712227
0.712016
0.7118
0.711579
0.711354
0.711124
0.710889
0.71065
0.710407
0.710161
0.709912
0.70966
0.709405
0.709146
0.708885
0.70862
0.708351
0.708083
0.70781
0.707532
0.707254
0.706977
0.706718
0.706433
0.70616
0.705878
0.705612
0.705337
0.705057
0.704761
0.704447
0.704127
0.703795
0.703454
0.703108
0.702761
0.702415
0.702068
0.701725
0.701384
0.701044
0.700709
0.700375
0.700037
0.699697
0.699354
0.699008
0.69866
0.698308
0.697954
0.697596
0.697235
0.696871
0.696504
0.696134
0.69576
0.695384
0.695005
0.694622
0.694237
0.693849
0.693457
0.693062
0.692665
0.692264
0.69186
0.691453
0.691044
0.690631
0.690216
0.689798
0.689377
0.688953
0.688527
0.688098
0.687667
0.687234
0.686799
0.686361
0.685921
0.685479
0.685036
0.68459
0.684143
0.683694
0.683244
0.682792
0.682338
0.681884
0.681428
0.680971
0.680513
0.680054
0.679594
0.679133
0.678672
0.67821
0.677747
0.677284
0.676821
0.676357
0.675893
0.675429
0.674964
0.6745
0.674036
0.673572
0.673108
0.672644
0.672181
0.671719
0.671257
0.670796
0.670335
0.669875
0.669417
0.668959
0.668502
0.668047
0.667592
0.667139
0.666688
0.666238
0.66579
0.665343
0.664899
0.664456
0.664015
0.663576
0.66314
0.662706
0.662274
0.661845
0.661418
0.660994
0.660573
0.660155
0.65974
0.659328
0.658919
0.658513
0.658111
0.657713
0.657318
0.656927
0.65654
0.656157
0.655778
0.655404
0.655034
0.654668
0.654307
0.653951
0.653599
0.653253
0.652912
0.652576
0.652246
0.651921
0.651601
0.651288
0.65098
0.650679
0.650384
0.650095
0.649813
0.649537
0.649268
0.649006
0.648752
0.648504
0.648264
0.648031
0.647806
0.647589
0.64738
0.64718
0.646987
0.646803
0.646628
0.646462
0.646304
0.646156
0.646017
0.645888
0.645768
0.645658
0.645558
0.645468
0.645389
0.64532
0.645262
0.645215
0.645179
0.645155
0.645142
0.73984
0.739792
0.739739
0.739681
0.739639
0.739612
0.739598
0.739596
0.739594
0.739583
0.739563
0.739845
0.742789
0.739904
0.739423
0.739441
0.739425
0.739401
0.739373
0.739377
0.73945
0.739407
0.738515
0.738858
0.738768
0.738947
0.740078
0.762082
0.740219
0.739009
0.738944
0.738874
0.738761
0.738704
0.738646
0.738584
0.738566
0.739063
0.743744
0.738187
0.737653
0.737669
0.737576
0.737468
0.73731
0.738099
0.74075
0.74114
0.737927
0.735592
0.734588
0.734436
0.734338
0.734266
0.734184
0.734111
0.734037
0.733928
0.734216
0.736578
0.73252
0.732242
0.732183
0.732055
0.731963
0.731849
0.731675
0.731689
0.732885
0.734495
0.734328
0.733175
0.732405
0.732208
0.732012
0.731767
0.731835
0.737554
0.734557
0.73362
0.733477
0.733264
0.733054
0.732826
0.732571
0.733688
0.738488
0.740217
0.738961
0.734489
0.731977
0.731415
0.731139
0.730869
0.730852
0.730975
0.730741
0.728621
0.730149
0.728865
0.729355
0.729178
0.72658
0.726062
0.725862
0.725619
0.725364
0.725099
0.724824
0.724541
0.72425
0.723951
0.723644
0.72333
0.723007
0.722675
0.722337
0.721993
0.721645
0.721303
0.720949
0.720567
0.720484
0.719844
0.71945
0.718949
0.721158
0.719455
0.718709
0.718324
0.717535
0.71828
0.717171
0.716901
0.715922
0.715465
0.714955
0.714658
0.714391
0.714084
0.713749
0.713451
0.713131
0.712805
0.712502
0.712188
0.711923
0.71166
0.711385
0.7111
0.71082
0.710539
0.710251
0.709948
0.709629
0.709293
0.708943
0.70858
0.708205
0.70782
0.707427
0.707027
0.70662
0.706206
0.705787
0.705362
0.704932
0.704496
0.704056
0.703612
0.703163
0.70271
0.702254
0.701793
0.701329
0.700862
0.700392
0.699918
0.699442
0.698964
0.698483
0.697999
0.697514
0.697026
0.696537
0.696046
0.695553
0.695058
0.694563
0.694065
0.693567
0.693068
0.692567
0.692066
0.691563
0.69106
0.690556
0.690052
0.689547
0.689042
0.688536
0.68803
0.687524
0.687018
0.686512
0.686006
0.6855
0.684995
0.684489
0.683984
0.68348
0.682976
0.682472
0.68197
0.681468
0.680967
0.680467
0.679968
0.679471
0.678974
0.678479
0.677985
0.677493
0.677002
0.676513
0.676025
0.67554
0.675056
0.674575
0.674095
0.673618
0.673144
0.672671
0.672201
0.671734
0.67127
0.670808
0.670349
0.669894
0.669441
0.668992
0.668546
0.668104
0.667665
0.66723
0.666799
0.666372
0.665948
0.665529
0.665115
0.664704
0.664299
0.663898
0.663501
0.66311
0.662724
0.662343
0.661967
0.661597
0.661232
0.660873
0.66052
0.660173
0.659832
0.659497
0.659169
0.658847
0.658532
0.658224
0.657922
0.657628
0.657342
0.657062
0.656791
0.656527
0.656271
0.656023
0.655783
0.655552
0.655329
0.655115
0.65491
0.654715
0.654528
0.654351
0.654183
0.654025
0.653877
0.65374
0.653612
0.653495
0.653389
0.653294
0.653209
0.653136
0.653075
0.653025
0.652987
0.652961
0.652947
0.757334
0.757502
0.757465
0.757362
0.756997
0.773861
0.763657
0.761778
0.763672
0.762828
0.764819
0.768237
0.768387
0.760574
0.757259
0.755948
0.755839
0.7558
0.755769
0.755756
0.755744
0.755731
0.755718
0.755708
0.755703
0.755747
0.756562
0.759729
0.760131
0.760166
0.759991
0.758263
0.756078
0.755648
0.755634
0.755593
0.755569
0.756172
0.759351
0.759297
0.757524
0.756971
0.757448
0.757371
0.757828
0.759498
0.771525
0.751993
0.750865
0.750941
0.749462
0.750205
0.749642
0.749175
0.748954
0.748842
0.748705
0.748533
0.748771
0.750714
0.750467
0.749931
0.749475
0.749395
0.748046
0.748836
0.749651
0.748896
0.74795
0.74755
0.747374
0.747142
0.746906
0.746636
0.746404
0.746167
0.74598
0.746383
0.749216
0.751503
0.750074
0.747195
0.745781
0.746574
0.746167
0.747175
0.7552
0.743345
0.74254
0.742317
0.742016
0.74172
0.741407
0.741089
0.741923
0.74072
0.740279
0.739897
0.73949
0.739245
0.742043
0.740555
0.742471
0.741815
0.744324
0.742816
0.741941
0.74136
0.740918
0.740464
0.740015
0.739565
0.739114
0.738661
0.738206
0.737747
0.737283
0.736811
0.736331
0.735934
0.735801
0.73537
0.73392
0.734721
0.734132
0.733928
0.734281
0.733764
0.733115
0.73187
0.733567
0.732486
0.733865
0.7342
0.732906
0.731709
0.73124
0.730889
0.730265
0.72978
0.729522
0.729008
0.728589
0.728263
0.727844
0.72666
0.725946
0.7256
0.725206
0.724749
0.724254
0.723768
0.723256
0.722796
0.722362
0.721916
0.721456
0.720989
0.720533
0.720078
0.719622
0.719167
0.71871
0.718251
0.717789
0.717321
0.716849
0.716371
0.715886
0.715396
0.714901
0.7144
0.713893
0.713383
0.712867
0.712348
0.711825
0.711298
0.710769
0.710237
0.709702
0.709164
0.708625
0.708084
0.707541
0.706996
0.706451
0.705903
0.705355
0.704806
0.704256
0.703705
0.703153
0.702601
0.702049
0.701496
0.700943
0.700389
0.699836
0.699282
0.698729
0.698176
0.697623
0.69707
0.696518
0.695967
0.695415
0.694865
0.694315
0.693766
0.693218
0.69267
0.692124
0.691579
0.691035
0.690492
0.689951
0.689411
0.688873
0.688336
0.687801
0.687267
0.686736
0.686206
0.685678
0.685153
0.68463
0.684109
0.68359
0.683074
0.682561
0.68205
0.681542
0.681037
0.680536
0.680037
0.679541
0.679049
0.67856
0.678075
0.677593
0.677115
0.676641
0.676171
0.675705
0.675244
0.674786
0.674334
0.673886
0.673442
0.673003
0.67257
0.672141
0.671718
0.6713
0.670888
0.670481
0.67008
0.669685
0.669296
0.668913
0.668536
0.668166
0.667803
0.667446
0.667096
0.666753
0.666418
0.666089
0.665769
0.665456
0.665151
0.664853
0.664564
0.664284
0.664011
0.663748
0.663493
0.663247
0.66301
0.662783
0.662565
0.662357
0.662159
0.661971
0.661793
0.661625
0.661468
0.661322
0.661186
0.661062
0.66095
0.660848
0.660759
0.660682
0.660616
0.660563
0.660523
0.660495
0.660481
0.775895
0.776529
0.780519
0.7858
0.786304
0.786576
0.786023
0.780459
0.776521
0.775687
0.775655
0.77558
0.775467
0.775407
0.775321
0.775206
0.775085
0.774961
0.774834
0.774706
0.774576
0.774443
0.774308
0.774171
0.774032
0.7739
0.773767
0.773623
0.773475
0.773299
0.773172
0.773022
0.772851
0.772781
0.772447
0.772323
0.772122
0.773725
0.77297
0.771898
0.771687
0.771482
0.77126
0.771046
0.770802
0.770567
0.770799
0.772359
0.773311
0.771462
0.769681
0.768741
0.768532
0.768332
0.76813
0.767987
0.768277
0.768276
0.767512
0.767333
0.766871
0.768307
0.768054
0.766559
0.765987
0.766049
0.765823
0.768273
0.767069
0.766149
0.76585
0.765628
0.765399
0.765191
0.764884
0.764699
0.764439
0.764198
0.763969
0.765112
0.770061
0.771825
0.766592
0.761919
0.759687
0.759401
0.759035
0.758677
0.758325
0.75799
0.75767
0.757366
0.757017
0.756693
0.756365
0.756047
0.756212
0.757698
0.757384
0.756622
0.755997
0.755806
0.755479
0.755395
0.757004
0.756077
0.755384
0.755008
0.754677
0.754332
0.753983
0.753632
0.753283
0.752934
0.752587
0.75224
0.751898
0.751561
0.751226
0.750902
0.750568
0.750232
0.749906
0.749595
0.749302
0.749024
0.748755
0.748486
0.748216
0.747861
0.747789
0.748889
0.755694
0.784989
0.802474
0.80426
0.792942
0.76196
0.744658
0.741151
0.740677
0.740079
0.739402
0.738719
0.738089
0.737424
0.736747
0.738273
0.743257
0.742401
0.740278
0.739809
0.73921
0.738645
0.738002
0.737303
0.736586
0.735879
0.735177
0.734486
0.733804
0.733129
0.732459
0.731794
0.731134
0.730477
0.729824
0.729175
0.728528
0.727884
0.727243
0.726603
0.725965
0.72533
0.724696
0.724064
0.723434
0.722805
0.722178
0.721553
0.720929
0.720307
0.719686
0.719066
0.718448
0.717831
0.717215
0.7166
0.715986
0.715373
0.71476
0.714149
0.713539
0.71293
0.712321
0.711713
0.711106
0.7105
0.709895
0.709291
0.708687
0.708085
0.707483
0.706882
0.706283
0.705684
0.705087
0.70449
0.703895
0.703301
0.702709
0.702118
0.701528
0.70094
0.700353
0.699768
0.699185
0.698603
0.698023
0.697446
0.69687
0.696297
0.695725
0.695156
0.69459
0.694026
0.693464
0.692905
0.692349
0.691796
0.691245
0.690698
0.690154
0.689613
0.689076
0.688542
0.688012
0.687485
0.686963
0.686444
0.685929
0.685418
0.684912
0.68441
0.683913
0.68342
0.682932
0.682449
0.681971
0.681498
0.68103
0.680568
0.680112
0.679661
0.679216
0.678776
0.678343
0.677916
0.677496
0.677082
0.676675
0.676274
0.675881
0.675494
0.675115
0.674743
0.674379
0.674022
0.673674
0.673333
0.673001
0.672677
0.672361
0.672055
0.671757
0.671468
0.671188
0.670918
0.670657
0.670406
0.670165
0.669934
0.669714
0.669504
0.669304
0.669115
0.668938
0.668771
0.668617
0.668473
0.668342
0.668223
0.668116
0.668021
0.667939
0.66787
0.667814
0.667771
0.667742
0.667727
0.792066
0.791981
0.791886
0.791768
0.791611
0.791469
0.791367
0.791233
0.791075
0.790904
0.790724
0.790543
0.790361
0.790175
0.789995
0.789815
0.789634
0.789456
0.789278
0.789092
0.788896
0.788692
0.788478
0.788255
0.78804
0.787872
0.787612
0.78762
0.789183
0.788238
0.78888
0.788503
0.788373
0.790227
0.78994
0.789383
0.7904
0.790339
0.789069
0.788635
0.788343
0.788036
0.787729
0.788028
0.792433
0.792056
0.791224
0.790646
0.790433
0.789902
0.790187
0.789042
0.788734
0.788411
0.788064
0.787715
0.787668
0.788408
0.788543
0.785987
0.784867
0.784389
0.784045
0.783705
0.783382
0.783065
0.78283
0.782953
0.782737
0.780619
0.780047
0.779722
0.779409
0.779096
0.77878
0.778462
0.778142
0.77782
0.777498
0.777174
0.776835
0.77647
0.776189
0.775884
0.775568
0.775251
0.775015
0.775057
0.774496
0.774177
0.773857
0.773539
0.773219
0.7729
0.772586
0.772409
0.77377
0.77152
0.771646
0.770866
0.771194
0.770825
0.770341
0.770076
0.769707
0.769287
0.769452
0.769404
0.768977
0.768108
0.767438
0.767008
0.766583
0.766152
0.765717
0.765282
0.764848
0.764513
0.764234
0.763636
0.763108
0.762676
0.762251
0.761821
0.761389
0.760953
0.760511
0.760067
0.759763
0.759513
0.758608
0.758239
0.757754
0.757258
0.756738
0.756097
0.755885
0.755504
0.754956
0.75436
0.753764
0.75317
0.752576
0.751982
0.751389
0.750806
0.75022
0.749601
0.748997
0.749257
0.754798
0.772077
0.780927
0.778345
0.764701
0.751828
0.747941
0.74698
0.746293
0.745586
0.744881
0.744188
0.743505
0.742829
0.742157
0.741488
0.740821
0.740156
0.739492
0.738828
0.738165
0.737502
0.736839
0.736177
0.735515
0.734853
0.734191
0.733529
0.732867
0.732206
0.731545
0.730883
0.730223
0.729562
0.728902
0.728243
0.727584
0.726924
0.726265
0.725606
0.724948
0.72429
0.723633
0.722976
0.722321
0.721665
0.721011
0.720357
0.719705
0.719053
0.718402
0.717752
0.717104
0.716456
0.715809
0.715164
0.71452
0.713878
0.713237
0.712597
0.711959
0.711323
0.710689
0.710056
0.709425
0.708796
0.70817
0.707545
0.706922
0.706302
0.705685
0.705069
0.704457
0.703847
0.70324
0.702635
0.702034
0.701435
0.70084