/*--------------------------------*- C++ -*----------------------------------*\
| =========                 |                                                 |
| \\      /  F ield         | OpenFOAM: The Open Source CFD Toolbox           |
|  \\    /   O peration     | Version:  2.4.0                                 |
|   \\  /    A nd           | Web:      www.OpenFOAM.org                      |
|    \\/     M anipulation  |                                                 |
\*---------------------------------------------------------------------------*/
FoamFile
{
    version     2.0;
    format      ascii;
    class       volVectorField;
    location    "1.5";
    object      U;
}
// * * * * * * * * * * * * * * * * * * * * * * * * * * * * * * * * * * * * * //

dimensions      [0 1 -1 0 0 0 0];

internalField   nonuniform List<vector> 
8000
(
(-1.65181e-06 -0.000194759 0)
(6.74612e-06 -0.000527808 0)
(3.25651e-05 -0.000804927 0)
(7.89078e-05 -0.00103192 0)
(0.000149836 -0.00121251 0)
(0.000233676 -0.00135523 0)
(0.000352213 -0.00146166 0)
(0.000492202 -0.00154501 0)
(0.000629014 -0.00159272 0)
(0.000785254 -0.00162246 0)
(0.000886924 -0.00159262 0)
(0.00105223 -0.00125961 0)
(0.00136645 -0.000744372 0)
(0.00165178 -0.000667849 0)
(0.00196167 -0.000613835 0)
(0.00253401 -0.000600115 0)
(0.00384052 -0.000302568 0)
(0.00648276 0.00109923 0)
(0.00829673 0.00688134 0)
(0.00754615 0.00801306 0)
(0.00674705 0.0150974 0)
(0.00654263 0.0227694 0)
(0.0066593 0.032865 0)
(0.00783785 0.0451624 0)
(0.00654708 0.0387736 0)
(0.00702154 0.0118824 0)
(0.0114546 0.00762953 0)
(0.0136928 0.0143539 0)
(0.0132044 0.0218705 0)
(0.0118964 0.0277048 0)
(0.0119496 0.0292753 0)
(0.0133297 0.0268562 0)
(0.014149 0.0236633 0)
(0.0142082 0.0204429 0)
(0.014028 0.018106 0)
(0.0137902 0.0168752 0)
(0.013447 0.0162141 0)
(0.0129666 0.0156873 0)
(0.0124321 0.0151673 0)
(0.0119068 0.0146193 0)
(0.011417 0.0140383 0)
(0.0109713 0.0134341 0)
(0.0105637 0.0128396 0)
(0.0101786 0.0122606 0)
(0.00979987 0.0116992 0)
(0.00941636 0.0111488 0)
(0.00903038 0.0105496 0)
(0.00865307 0.00995328 0)
(0.00829043 0.00938499 0)
(0.00794523 0.00884242 0)
(2.38143e-06 -0.000158682 0)
(8.0128e-06 -0.00046863 0)
(1.76903e-05 -0.000764963 0)
(3.11372e-05 -0.00103492 0)
(4.85841e-05 -0.0012695 0)
(7.04811e-05 -0.00146587 0)
(9.70041e-05 -0.00162473 0)
(0.000128179 -0.00175126 0)
(0.000163538 -0.00184581 0)
(0.000203057 -0.00190929 0)
(0.000249211 -0.00194298 0)
(0.000306871 -0.00194999 0)
(0.00037992 -0.00194502 0)
(0.00046357 -0.00194363 0)
(0.000546566 -0.00192679 0)
(0.000623593 -0.00182523 0)
(0.000698284 -0.00157458 0)
(0.000790697 -0.0011122 0)
(0.000882546 -0.000466512 0)
(0.000976036 -4.40261e-05 0)
(0.00139192 0.0004064 0)
(0.00236982 0.000797078 0)
(0.00378531 0.00119753 0)
(0.00573596 0.00180655 0)
(0.00821595 0.00463277 0)
(0.00994364 0.00397595 0)
(0.0100595 0.00648846 0)
(0.00983923 0.018145 0)
(0.00966417 0.0287056 0)
(0.00949663 0.0333984 0)
(0.00918257 0.0193171 0)
(0.011436 0.00435193 0)
(0.0138566 0.00518768 0)
(0.0133519 0.0128206 0)
(0.0121523 0.0217947 0)
(0.0119767 0.0248814 0)
(0.0124993 0.0248278 0)
(0.0126882 0.0237359 0)
(0.0126142 0.0224724 0)
(0.0126327 0.0209316 0)
(0.0128342 0.0190128 0)
(0.013105 0.0171116 0)
(0.0133463 0.0158965 0)
(0.0135185 0.0150383 0)
(0.0136287 0.0147221 0)
(0.0136648 0.0146398 0)
(0.0136523 0.0142012 0)
(0.0136154 0.013621 0)
(0.0135569 0.0129974 0)
(0.0134809 0.012354 0)
(-4.85425e-07 -0.0002118 0)
(1.65222e-06 -0.000596048 0)
(6.6721e-06 -0.000947752 0)
(1.41366e-05 -0.0012694 0)
(2.48273e-05 -0.00156034 0)
(3.85783e-05 -0.00181889 0)
(5.58718e-05 -0.0020438 0)
(7.67366e-05 -0.00223588 0)
(0.000101543 -0.0023961 0)
(0.000130117 -0.00252494 0)
(0.000162774 -0.00262309 0)
(0.000199091 -0.00269109 0)
(0.000239051 -0.00272991 0)
(0.000281366 -0.00274029 0)
(0.000326176 -0.00272254 0)
(0.000373671 -0.00267629 0)
(0.000428071 -0.00260151 0)
(0.000493647 -0.00249976 0)
(0.000576264 -0.00237617 0)
(0.000674152 -0.00224245 0)
(0.000784878 -0.00207605 0)
(0.000903169 -0.00184639 0)
(0.00102559 -0.00151852 0)
(0.00114305 -0.00103685 0)
(0.00122994 -0.000298231 0)
(0.00127864 0.000278364 0)
(0.00141731 0.000934254 0)
(0.00195369 0.00173611 0)
(0.00304826 0.00270122 0)
(0.00457258 0.00374742 0)
(0.00623107 0.00494749 0)
(0.00692864 0.00234931 0)
(0.00673608 0.0128165 0)
(0.00643408 0.0223012 0)
(0.00626096 0.0235417 0)
(0.00709233 0.017156 0)
(0.00872056 0.0117926 0)
(0.00989152 0.0100898 0)
(0.00965183 0.0118208 0)
(0.00954428 0.0117927 0)
(0.0105229 0.00794132 0)
(0.0115082 0.00647304 0)
(0.0117728 0.00824435 0)
(0.0119794 0.00929798 0)
(0.012307 0.00987503 0)
(0.0126738 0.0104727 0)
(0.0130267 0.0107506 0)
(0.0133376 0.010857 0)
(0.0136051 0.0108343 0)
(0.0138342 0.0106951 0)
(3.64383e-08 -0.000214885 0)
(9.48111e-07 -0.000615773 0)
(2.694e-06 -0.000986978 0)
(5.21008e-06 -0.00132723 0)
(8.77662e-06 -0.00163671 0)
(1.3509e-05 -0.00191567 0)
(1.95801e-05 -0.00216415 0)
(2.73581e-05 -0.00238263 0)
(3.69571e-05 -0.00257153 0)
(4.87194e-05 -0.00273095 0)
(6.2732e-05 -0.00286114 0)
(7.93169e-05 -0.00296211 0)
(9.85182e-05 -0.00303408 0)
(0.000120628 -0.00307693 0)
(0.000145648 -0.00309087 0)
(0.000173884 -0.0030756 0)
(0.000205375 -0.00303148 0)
(0.00024039 -0.00295829 0)
(0.000278829 -0.00285689 0)
(0.000320586 -0.00272719 0)
(0.000365539 -0.00256995 0)
(0.000414688 -0.00238453 0)
(0.000470461 -0.00217209 0)
(0.000536728 -0.0019327 0)
(0.00061823 -0.00166904 0)
(0.000717298 -0.00138562 0)
(0.000834285 -0.00108369 0)
(0.000968047 -0.000714041 0)
(0.00110635 -0.000249693 0)
(0.00121615 0.000209098 0)
(0.00128311 0.000687884 0)
(0.00134046 0.00104167 0)
(0.00159957 0.00181139 0)
(0.00225171 0.00269268 0)
(0.0033411 0.00410695 0)
(0.00463918 0.00152449 0)
(0.00525431 0.0058207 0)
(0.00525464 0.0152133 0)
(0.00491748 0.0198357 0)
(0.00465909 0.0127133 0)
(0.00575988 -4.85364e-05 0)
(0.00682454 0.000858589 0)
(0.00591022 0.00566283 0)
(0.0054485 0.00750679 0)
(0.00581546 0.00640545 0)
(0.00622483 0.00575554 0)
(0.00633104 0.00611029 0)
(0.00647192 0.00665191 0)
(0.00665706 0.0070326 0)
(0.00684524 0.00725517 0)
(-1.9882e-07 -0.000213193 0)
(-1.83434e-06 -0.000612366 0)
(-4.74622e-06 -0.000984689 0)
(-8.67917e-06 -0.00132975 0)
(-1.31867e-05 -0.00164729 0)
(-1.78931e-05 -0.00193743 0)
(-2.24795e-05 -0.00220038 0)
(-2.65582e-05 -0.00243676 0)
(-2.98347e-05 -0.00264693 0)
(-3.19344e-05 -0.00283139 0)
(-3.25628e-05 -0.00299027 0)
(-3.13354e-05 -0.00312405 0)
(-2.79619e-05 -0.00323269 0)
(-2.20389e-05 -0.00331674 0)
(-1.32778e-05 -0.00337595 0)
(-1.25129e-06 -0.00341101 0)
(1.43336e-05 -0.00342139 0)
(3.39175e-05 -0.003408 0)
(5.77878e-05 -0.00336992 0)
(8.63631e-05 -0.00330842 0)
(0.00011993 -0.00322199 0)
(0.000158884 -0.00311244 0)
(0.000203559 -0.00297753 0)
(0.000254275 -0.00282011 0)
(0.000311358 -0.0026371 0)
(0.000374864 -0.00243292 0)
(0.00044535 -0.00220298 0)
(0.000523435 -0.00195344 0)
(0.000610708 -0.0016776 0)
(0.000707186 -0.00138502 0)
(0.000814552 -0.0010644 0)
(0.000933364 -0.000724298 0)
(0.00106433 -0.000322831 0)
(0.00117949 0.000114255 0)
(0.00122751 0.000639818 0)
(0.00123459 0.000864067 0)
(0.00137081 0.00145751 0)
(0.00179098 0.00230923 0)
(0.00253396 0.00304595 0)
(0.0035184 0.00322381 0)
(0.00397777 0.000889675 0)
(0.0037513 0.00915787 0)
(0.00320668 0.0138619 0)
(0.00295989 0.0111297 0)
(0.0036666 0.00425796 0)
(0.00425238 0.00458578 0)
(0.00394122 0.00634406 0)
(0.00402457 0.0064086 0)
(0.004201 0.00616937 0)
(0.00437812 0.0057671 0)
(-3.46509e-07 -0.000193647 0)
(-3.20093e-06 -0.000558714 0)
(-8.65534e-06 -0.000902006 0)
(-1.64288e-05 -0.00122361 0)
(-2.60284e-05 -0.00152347 0)
(-3.7093e-05 -0.00180159 0)
(-4.92064e-05 -0.00205801 0)
(-6.20442e-05 -0.002293 0)
(-7.51964e-05 -0.00250673 0)
(-8.83811e-05 -0.00269945 0)
(-0.000101174 -0.00287128 0)
(-0.00011333 -0.00302247 0)
(-0.000124403 -0.00315312 0)
(-0.000134186 -0.00326352 0)
(-0.000142202 -0.00335371 0)
(-0.000148283 -0.00342404 0)
(-0.00015191 -0.00347446 0)
(-0.00015296 -0.00350539 0)
(-0.000150859 -0.00351664 0)
(-0.000145537 -0.00350878 0)
(-0.000136349 -0.00348136 0)
(-0.000123286 -0.00343522 0)
(-0.000105615 -0.00336953 0)
(-8.34081e-05 -0.00328552 0)
(-5.58454e-05 -0.00318181 0)
(-2.31025e-05 -0.00306027 0)
(1.57128e-05 -0.00291863 0)
(6.03172e-05 -0.00275984 0)
(0.000111689 -0.00258036 0)
(0.000169392 -0.00238485 0)
(0.000234616 -0.00216777 0)
(0.00030694 -0.0019364 0)
(0.000388343 -0.00168224 0)
(0.000478272 -0.00141672 0)
(0.000577407 -0.00112545 0)
(0.000684541 -0.000823273 0)
(0.000798928 -0.000475034 0)
(0.000925818 -6.10985e-05 0)
(0.0010534 0.000291359 0)
(0.00117323 0.000554875 0)
(0.00125163 0.000762302 0)
(0.00142352 0.00137588 0)
(0.00187812 0.00202496 0)
(0.00259191 0.00160476 0)
(0.00315978 2.71511e-05 0)
(0.00309719 0.00489571 0)
(0.00291658 0.00564183 0)
(0.00314275 0.00365046 0)
(0.00351913 0.00326018 0)
(0.00377681 0.00192909 0)
(-3.77498e-07 -0.00017487 0)
(-3.83931e-06 -0.000506095 0)
(-1.0654e-05 -0.000819032 0)
(-2.05227e-05 -0.00111375 0)
(-3.29996e-05 -0.00139033 0)
(-4.77176e-05 -0.00164893 0)
(-6.43209e-05 -0.00188972 0)
(-8.24868e-05 -0.00211296 0)
(-0.000101872 -0.00231889 0)
(-0.000122174 -0.00250768 0)
(-0.000143051 -0.00267955 0)
(-0.000164222 -0.00283463 0)
(-0.000185343 -0.00297312 0)
(-0.000206157 -0.00309514 0)
(-0.000226311 -0.00320091 0)
(-0.000245578 -0.00329052 0)
(-0.000263587 -0.00336419 0)
(-0.000280144 -0.00342197 0)
(-0.000294853 -0.00346412 0)
(-0.00030756 -0.00349064 0)
(-0.000317829 -0.0035018 0)
(-0.000325555 -0.00349754 0)
(-0.000330249 -0.00347817 0)
(-0.000331869 -0.00344356 0)
(-0.000329852 -0.00339403 0)
(-0.000324235 -0.00332939 0)
(-0.000314365 -0.00324998 0)
(-0.000300372 -0.00315552 0)
(-0.000281497 -0.00304638 0)
(-0.000257987 -0.00292221 0)
(-0.00022897 -0.00278331 0)
(-0.000194827 -0.00262941 0)
(-0.000154579 -0.00246062 0)
(-0.000108718 -0.00227691 0)
(-5.61307e-05 -0.00207801 0)
(2.8226e-06 -0.00186435 0)
(6.96724e-05 -0.00163477 0)
(0.000144153 -0.00139066 0)
(0.000226075 -0.00113064 0)
(0.000313351 -0.00085762 0)
(0.000405656 -0.000554852 0)
(0.00050113 -0.000221906 0)
(0.000582732 0.000157007 0)
(0.00064857 0.000367999 0)
(0.000683589 0.000650312 0)
(0.000741026 0.00130173 0)
(0.0009935 0.000921729 0)
(0.00135261 -0.000291355 0)
(0.00150928 0.000719381 0)
(0.00158745 7.65686e-05 0)
(-5.25517e-07 -0.00014551 0)
(-4.86058e-06 -0.000423757 0)
(-1.32882e-05 -0.000689256 0)
(-2.54426e-05 -0.000941874 0)
(-4.08512e-05 -0.00118145 0)
(-5.91138e-05 -0.0014079 0)
(-7.98897e-05 -0.00162116 0)
(-0.000102839 -0.0018213 0)
(-0.000127652 -0.00200834 0)
(-0.000154007 -0.00218232 0)
(-0.000181614 -0.00234329 0)
(-0.000210164 -0.0024913 0)
(-0.000239389 -0.00262641 0)
(-0.000268988 -0.0027487 0)
(-0.000298708 -0.00285823 0)
(-0.000328256 -0.00295512 0)
(-0.000357391 -0.00303941 0)
(-0.000385824 -0.00311125 0)
(-0.000413325 -0.00317067 0)
(-0.000439602 -0.00321784 0)
(-0.000464433 -0.00325278 0)
(-0.000487524 -0.00327568 0)
(-0.000508653 -0.00328652 0)
(-0.000527522 -0.00328553 0)
(-0.000543904 -0.00327264 0)
(-0.000557494 -0.00324811 0)
(-0.000568052 -0.00321181 0)
(-0.000575267 -0.00316403 0)
(-0.000578873 -0.00310457 0)
(-0.000578555 -0.00303377 0)
(-0.000574007 -0.00295135 0)
(-0.000564911 -0.00285766 0)
(-0.000550908 -0.00275235 0)
(-0.000531677 -0.00263582 0)
(-0.000506785 -0.0025076 0)
(-0.000475923 -0.00236816 0)
(-0.000438547 -0.00221693 0)
(-0.00039437 -0.0020545 0)
(-0.000342722 -0.00188017 0)
(-0.000283188 -0.00169458 0)
(-0.000214903 -0.00149664 0)
(-0.000137123 -0.00128729 0)
(-5.01103e-05 -0.00106511 0)
(4.6779e-05 -0.000829026 0)
(0.000156234 -0.000561444 0)
(0.000276516 -0.000315649 0)
(0.000376013 -0.000361071 0)
(0.000437266 -0.000364367 0)
(0.000494389 -0.000422595 0)
(0.000611975 -0.000750619 0)
(-3.43199e-07 -0.000117865 0)
(-3.86978e-06 -0.000344951 0)
(-1.0968e-05 -0.000563355 0)
(-2.14145e-05 -0.00077293 0)
(-3.48396e-05 -0.000973498 0)
(-5.09314e-05 -0.0011649 0)
(-6.94063e-05 -0.00134703 0)
(-8.9998e-05 -0.00151981 0)
(-0.000112439 -0.00168318 0)
(-0.000136474 -0.00183711 0)
(-0.000161842 -0.00198154 0)
(-0.000188298 -0.00211647 0)
(-0.00021559 -0.0022419 0)
(-0.000243482 -0.00235782 0)
(-0.000271727 -0.00246428 0)
(-0.000300098 -0.00256131 0)
(-0.000328352 -0.00264898 0)
(-0.000356267 -0.00272736 0)
(-0.000383605 -0.00279654 0)
(-0.000410148 -0.00285661 0)
(-0.000435657 -0.0029077 0)
(-0.000459917 -0.00294994 0)
(-0.000482688 -0.00298347 0)
(-0.000503755 -0.00300845 0)
(-0.000522873 -0.00302507 0)
(-0.000539823 -0.00303351 0)
(-0.000554355 -0.00303399 0)
(-0.000566242 -0.00302673 0)
(-0.000575224 -0.00301199 0)
(-0.000581062 -0.00299005 0)
(-0.000583486 -0.00296119 0)
(-0.000582238 -0.00292577 0)
(-0.000577031 -0.0028841 0)
(-0.000567589 -0.00283665 0)
(-0.0005536 -0.00278376 0)
(-0.000534764 -0.00272602 0)
(-0.000510743 -0.00266382 0)
(-0.000481208 -0.00259795 0)
(-0.00044579 -0.00252878 0)
(-0.000404132 -0.0024574 0)
(-0.000355827 -0.00238416 0)
(-0.000300441 -0.00231055 0)
(-0.000237406 -0.00223688 0)
(-0.00016615 -0.00216507 0)
(-8.65316e-05 -0.00209534 0)
(5.65735e-07 -0.0020306 0)
(9.29729e-05 -0.00197064 0)
(0.000188302 -0.00191486 0)
(0.000266035 -0.00197006 0)
(0.000323589 -0.00203757 0)
(-3.51254e-07 -9.59487e-05 0)
(-3.1049e-06 -0.000282482 0)
(-8.48203e-06 -0.000463508 0)
(-1.62897e-05 -0.000638825 0)
(-2.62783e-05 -0.000808204 0)
(-3.82408e-05 -0.000971448 0)
(-5.19904e-05 -0.00112839 0)
(-6.73406e-05 -0.00127892 0)
(-8.4106e-05 -0.00142291 0)
(-0.000102098 -0.00156029 0)
(-0.000121131 -0.00169098 0)
(-0.000141017 -0.00181492 0)
(-0.000161572 -0.00193207 0)
(-0.000182609 -0.00204241 0)
(-0.000203947 -0.00214594 0)
(-0.000225403 -0.00224268 0)
(-0.000246796 -0.00233264 0)
(-0.000267948 -0.00241588 0)
(-0.000288681 -0.00249245 0)
(-0.00030882 -0.00256242 0)
(-0.000328193 -0.00262588 0)
(-0.000346628 -0.00268294 0)
(-0.000363957 -0.00273369 0)
(-0.000380016 -0.00277828 0)
(-0.00039464 -0.00281684 0)
(-0.000407672 -0.00284953 0)
(-0.000418953 -0.00287652 0)
(-0.000428337 -0.002898 0)
(-0.000435668 -0.00291415 0)
(-0.000440815 -0.0029252 0)
(-0.000443629 -0.00293136 0)
(-0.000443994 -0.0029329 0)
(-0.000441775 -0.00293006 0)
(-0.000436873 -0.00292313 0)
(-0.00042917 -0.00291238 0)
(-0.000418593 -0.00289817 0)
(-0.000405046 -0.00288078 0)
(-0.000388493 -0.00286061 0)
(-0.000368864 -0.00283798 0)
(-0.000346171 -0.00281335 0)
(-0.000320389 -0.00278706 0)
(-0.000291585 -0.00275965 0)
(-0.000259797 -0.00273146 0)
(-0.000225166 -0.00270315 0)
(-0.000187807 -0.00267505 0)
(-0.00014793 -0.00264796 0)
(-0.000105827 -0.002622 0)
(-6.20549e-05 -0.00259806 0)
(-1.80022e-05 -0.00257576 0)
(2.22452e-05 -0.00256167 0)
(-9.92258e-08 -8.30708e-05 0)
(-1.6857e-06 -0.000244917 0)
(-5.0447e-06 -0.000402475 0)
(-1.01249e-05 -0.000555716 0)
(-1.67742e-05 -0.000704552 0)
(-2.48556e-05 -0.000848882 0)
(-3.4243e-05 -0.000988623 0)
(-4.48126e-05 -0.00112371 0)
(-5.64398e-05 -0.00125407 0)
(-6.89984e-05 -0.00137966 0)
(-8.23617e-05 -0.00150043 0)
(-9.64033e-05 -0.00161635 0)
(-0.000110996 -0.00172738 0)
(-0.000126015 -0.00183351 0)
(-0.000141334 -0.00193475 0)
(-0.000156829 -0.00203109 0)
(-0.000172377 -0.00212256 0)
(-0.000187854 -0.00220919 0)
(-0.000203142 -0.00229102 0)
(-0.000218121 -0.00236809 0)
(-0.000232674 -0.00244048 0)
(-0.000246686 -0.00250824 0)
(-0.000260044 -0.00257147 0)
(-0.000272639 -0.00263025 0)
(-0.000284362 -0.00268469 0)
(-0.000295109 -0.00273488 0)
(-0.000304778 -0.00278095 0)
(-0.00031327 -0.00282303 0)
(-0.000320491 -0.00286123 0)
(-0.000326349 -0.0028957 0)
(-0.000330759 -0.00292658 0)
(-0.000333638 -0.00295402 0)
(-0.000334909 -0.00297816 0)
(-0.000334501 -0.00299917 0)
(-0.000332347 -0.00301719 0)
(-0.000328392 -0.00303238 0)
(-0.00032258 -0.00304488 0)
(-0.000314873 -0.00305486 0)
(-0.000305233 -0.00306243 0)
(-0.000293642 -0.00306776 0)
(-0.000280079 -0.00307093 0)
(-0.000264554 -0.0030721 0)
(-0.000247071 -0.00307128 0)
(-0.00022767 -0.00306863 0)
(-0.000206384 -0.00306407 0)
(-0.000183292 -0.00305776 0)
(-0.000158486 -0.00304948 0)
(-0.000132128 -0.00303946 0)
(-0.000104267 -0.00302789 0)
(-7.46855e-05 -0.0030143 0)
(-2.29603e-07 -7.16992e-05 0)
(-1.62694e-06 -0.000212365 0)
(-4.23881e-06 -0.000350239 0)
(-7.95461e-06 -0.00048527 0)
(-1.26669e-05 -0.000617347 0)
(-1.82964e-05 -0.000746342 0)
(-2.47725e-05 -0.000872143 0)
(-3.20246e-05 -0.000994651 0)
(-3.9982e-05 -0.00111378 0)
(-4.85733e-05 -0.00122944 0)
(-5.77279e-05 -0.00134158 0)
(-6.73753e-05 -0.00145013 0)
(-7.74457e-05 -0.00155505 0)
(-8.78699e-05 -0.0016563 0)
(-9.85792e-05 -0.00175386 0)
(-0.000109506 -0.00184773 0)
(-0.000120584 -0.00193788 0)
(-0.000131747 -0.00202435 0)
(-0.00014293 -0.00210713 0)
(-0.00015407 -0.00218626 0)
(-0.000165104 -0.00226178 0)
(-0.000175972 -0.00233374 0)
(-0.000186614 -0.00240218 0)
(-0.000196972 -0.00246718 0)
(-0.000206988 -0.0025288 0)
(-0.000216607 -0.00258714 0)
(-0.000225773 -0.00264227 0)
(-0.000234434 -0.0026943 0)
(-0.000242535 -0.00274333 0)
(-0.000250027 -0.00278948 0)
(-0.000256856 -0.00283284 0)
(-0.000262972 -0.00287356 0)
(-0.000268322 -0.00291176 0)
(-0.000272855 -0.00294756 0)
(-0.00027652 -0.00298111 0)
(-0.000279258 -0.00301253 0)
(-0.000281018 -0.00304197 0)
(-0.000281736 -0.00306957 0)
(-0.000281356 -0.00309544 0)
(-0.000279801 -0.00311972 0)
(-0.000277012 -0.00314253 0)
(-0.000272896 -0.00316399 0)
(-0.000267384 -0.00318418 0)
(-0.000260362 -0.00320319 0)
(-0.000251753 -0.00322109 0)
(-0.000241422 -0.00323792 0)
(-0.000229258 -0.00325369 0)
(-0.000214975 -0.00326842 0)
(-0.000198248 -0.00328296 0)
(-0.000179068 -0.00329623 0)
(7.30164e-08 -6.77023e-05 0)
(-9.71692e-08 -0.000200495 0)
(-6.62211e-07 -0.000330671 0)
(-1.66312e-06 -0.000458259 0)
(-3.0706e-06 -0.000583213 0)
(-4.85244e-06 -0.00070545 0)
(-6.97653e-06 -0.000824894 0)
(-9.41326e-06 -0.000941469 0)
(-1.21326e-05 -0.00105511 0)
(-1.51045e-05 -0.00116575 0)
(-1.82977e-05 -0.00127333 0)
(-2.16817e-05 -0.00137781 0)
(-2.52246e-05 -0.00147915 0)
(-2.88955e-05 -0.00157732 0)
(-3.26621e-05 -0.00167229 0)
(-3.64938e-05 -0.00176405 0)
(-4.03585e-05 -0.0018526 0)
(-4.4226e-05 -0.00193793 0)
(-4.80646e-05 -0.00202007 0)
(-5.18454e-05 -0.00209903 0)
(-5.55376e-05 -0.00217484 0)
(-5.91136e-05 -0.00224754 0)
(-6.25439e-05 -0.00231719 0)
(-6.58027e-05 -0.00238383 0)
(-6.88624e-05 -0.00244754 0)
(-7.16987e-05 -0.0025084 0)
(-7.42861e-05 -0.00256649 0)
(-7.66022e-05 -0.00262192 0)
(-7.86239e-05 -0.0026748 0)
(-8.033e-05 -0.00272524 0)
(-8.17003e-05 -0.00277339 0)
(-8.27139e-05 -0.00281938 0)
(-8.3354e-05 -0.00286338 0)
(-8.35987e-05 -0.00290555 0)
(-8.34351e-05 -0.00294609 0)
(-8.28385e-05 -0.00298519 0)
(-8.18007e-05 -0.00302305 0)
(-8.02917e-05 -0.00305993 0)
(-7.83085e-05 -0.003096 0)
(-7.58129e-05 -0.00313162 0)
(-7.28071e-05 -0.00316691 0)
(-6.92412e-05 -0.00320234 0)
(-6.51239e-05 -0.00323794 0)
(-6.03992e-05 -0.00327437 0)
(-5.50946e-05 -0.00331147 0)
(-4.91172e-05 -0.0033502 0)
(-4.23036e-05 -0.00339002 0)
(-3.41621e-05 -0.00343239 0)
(-2.50468e-05 -0.00347668 0)
(-1.89539e-05 -0.00352577 0)
(-8.79908e-08 -6.55788e-05 0)
(4.23902e-08 -0.000194625 0)
(5.14873e-07 -0.000321476 0)
(1.3437e-06 -0.000446137 0)
(2.48702e-06 -0.000568541 0)
(3.89659e-06 -0.000688584 0)
(5.53796e-06 -0.000806176 0)
(7.38426e-06 -0.000921224 0)
(9.41372e-06 -0.00103365 0)
(1.16092e-05 -0.00114338 0)
(1.39568e-05 -0.00125036 0)
(1.64465e-05 -0.00135454 0)
(1.90705e-05 -0.00145587 0)
(2.18243e-05 -0.00155433 0)
(2.47044e-05 -0.00164989 0)
(2.77103e-05 -0.00174253 0)
(3.08413e-05 -0.00183226 0)
(3.40992e-05 -0.00191905 0)
(3.74847e-05 -0.00200294 0)
(4.10007e-05 -0.00208392 0)
(4.46478e-05 -0.00216202 0)
(4.84284e-05 -0.00223727 0)
(5.23418e-05 -0.00230971 0)
(5.63886e-05 -0.00237937 0)
(6.05651e-05 -0.00244632 0)
(6.48684e-05 -0.00251059 0)
(6.92905e-05 -0.00257227 0)
(7.38231e-05 -0.00263141 0)
(7.84523e-05 -0.00268811 0)
(8.31621e-05 -0.00274245 0)
(8.7931e-05 -0.00279452 0)
(9.27329e-05 -0.00284443 0)
(9.75369e-05 -0.00289229 0)
(0.000102304 -0.00293821 0)
(0.000106991 -0.00298233 0)
(0.000111542 -0.00302477 0)
(0.000115903 -0.00306566 0)
(0.000119995 -0.00310518 0)
(0.000123749 -0.00314343 0)
(0.000127061 -0.00318063 0)
(0.000129846 -0.00321682 0)
(0.000131961 -0.00325234 0)
(0.000133282 -0.00328708 0)
(0.000133633 -0.00332155 0)
(0.000133031 -0.00335539 0)
(0.000131748 -0.00338934 0)
(0.000129708 -0.00342264 0)
(0.0001231 -0.00345702 0)
(9.86455e-05 -0.00349245 0)
(6.1443e-05 -0.0035295 0)
(2.3305e-07 -7.42074e-05 0)
(1.03806e-06 -0.000218192 0)
(2.29494e-06 -0.00035795 0)
(3.87635e-06 -0.000493784 0)
(5.73683e-06 -0.000625883 0)
(7.84802e-06 -0.000754356 0)
(1.0191e-05 -0.000879291 0)
(1.27438e-05 -0.00100074 0)
(1.54842e-05 -0.00111876 0)
(1.83905e-05 -0.00123339 0)
(2.14414e-05 -0.00134466 0)
(2.46165e-05 -0.00145259 0)
(2.78962e-05 -0.00155722 0)
(3.12614e-05 -0.00165858 0)
(3.46938e-05 -0.00175668 0)
(3.81759e-05 -0.00185155 0)
(4.16906e-05 -0.00194322 0)
(4.52213e-05 -0.0020317 0)
(4.8752e-05 -0.00211701 0)
(5.22667e-05 -0.00219919 0)
(5.57495e-05 -0.00227826 0)
(5.91842e-05 -0.00235423 0)
(6.25547e-05 -0.00242713 0)
(6.58434e-05 -0.00249699 0)
(6.90331e-05 -0.00256382 0)
(7.21034e-05 -0.00262766 0)
(7.50349e-05 -0.00268852 0)
(7.78028e-05 -0.00274643 0)
(8.03843e-05 -0.0028014 0)
(8.27479e-05 -0.00285347 0)
(8.48663e-05 -0.00290263 0)
(8.66986e-05 -0.00294891 0)
(8.82116e-05 -0.00299232 0)
(8.93516e-05 -0.00303287 0)
(9.00782e-05 -0.00307055 0)
(9.03213e-05 -0.00310537 0)
(9.00311e-05 -0.00313731 0)
(8.91178e-05 -0.00316637 0)
(8.75211e-05 -0.00319249 0)
(8.51255e-05 -0.00321568 0)
(8.18454e-05 -0.00323587 0)
(7.75112e-05 -0.00325302 0)
(7.20432e-05 -0.00326704 0)
(6.55201e-05 -0.00327785 0)
(5.84663e-05 -0.00328525 0)
(5.03057e-05 -0.00328919 0)
(3.4703e-05 -0.00329019 0)
(-6.20579e-06 -0.00328999 0)
(-5.17772e-05 -0.00328371 0)
(-7.7226e-05 -0.00326199 0)
(-1.80271e-07 -7.02227e-05 0)
(-6.62382e-08 -0.000207916 0)
(6.04182e-07 -0.000342708 0)
(1.88586e-06 -0.000474647 0)
(3.72162e-06 -0.000603709 0)
(6.02928e-06 -0.00072982 0)
(8.74033e-06 -0.000852913 0)
(1.17904e-05 -0.000972906 0)
(1.51184e-05 -0.00108973 0)
(1.86651e-05 -0.00120333 0)
(2.2373e-05 -0.00131367 0)
(2.61877e-05 -0.00142071 0)
(3.00568e-05 -0.00152442 0)
(3.39315e-05 -0.0016248 0)
(3.77648e-05 -0.00172183 0)
(4.15137e-05 -0.00181553 0)
(4.51369e-05 -0.00190589 0)
(4.85976e-05 -0.00199292 0)
(5.18595e-05 -0.00207664 0)
(5.4892e-05 -0.00215707 0)
(5.76637e-05 -0.00223422 0)
(6.01498e-05 -0.00230813 0)
(6.23228e-05 -0.0023788 0)
(6.41641e-05 -0.00244627 0)
(6.56486e-05 -0.00251057 0)
(6.67639e-05 -0.0025717 0)
(6.7486e-05 -0.00262969 0)
(6.78089e-05 -0.00268457 0)
(6.77077e-05 -0.00273633 0)
(6.71836e-05 -0.002785 0)
(6.62088e-05 -0.00283057 0)
(6.47919e-05 -0.00287305 0)
(6.29e-05 -0.00291242 0)
(6.05503e-05 -0.00294868 0)
(5.77021e-05 -0.00298178 0)
(5.43819e-05 -0.00301169 0)
(5.05393e-05 -0.00303836 0)
(4.62123e-05 -0.00306173 0)
(4.13357e-05 -0.0030817 0)
(3.59429e-05 -0.00309818 0)
(2.9919e-05 -0.00311104 0)
(2.33511e-05 -0.00312015 0)
(1.64987e-05 -0.00312526 0)
(1.0294e-05 -0.00312614 0)
(3.93345e-06 -0.00312256 0)
(-1.1539e-05 -0.00311514 0)
(-5.97563e-05 -0.00310549 0)
(-0.000113322 -0.00309515 0)
(-0.00014083 -0.00308077 0)
(-0.000196346 -0.00305917 0)
(4.01401e-07 -8.42099e-05 0)
(1.7094e-06 -0.000246306 0)
(3.72407e-06 -0.000402273 0)
(6.22741e-06 -0.000552488 0)
(9.12549e-06 -0.000697216 0)
(1.23407e-05 -0.000836632 0)
(1.57957e-05 -0.000970891 0)
(1.93984e-05 -0.0011001 0)
(2.30509e-05 -0.00122435 0)
(2.6652e-05 -0.00134374 0)
(3.00999e-05 -0.00145836 0)
(3.32938e-05 -0.00156832 0)
(3.61354e-05 -0.0016737 0)
(3.8529e-05 -0.00177461 0)
(4.03835e-05 -0.00187113 0)
(4.16111e-05 -0.00196337 0)
(4.213e-05 -0.00205142 0)
(4.18616e-05 -0.00213536 0)
(4.07339e-05 -0.00221531 0)
(3.86778e-05 -0.00229134 0)
(3.56313e-05 -0.00236355 0)
(3.15342e-05 -0.00243201 0)
(2.63343e-05 -0.00249681 0)
(1.99791e-05 -0.00255802 0)
(1.24266e-05 -0.00261573 0)
(3.63096e-06 -0.00266999 0)
(-6.43987e-06 -0.00272088 0)
(-1.78254e-05 -0.00276844 0)
(-3.05467e-05 -0.00281274 0)
(-4.46376e-05 -0.0028538 0)
(-6.01061e-05 -0.00289169 0)
(-7.69802e-05 -0.00292641 0)
(-9.52512e-05 -0.00295801 0)
(-0.00011494 -0.00298647 0)
(-0.000136015 -0.00301183 0)
(-0.000158488 -0.00303404 0)
(-0.000182294 -0.00305312 0)
(-0.000207434 -0.00306899 0)
(-0.000233817 -0.00308165 0)
(-0.000261457 -0.00309097 0)
(-0.00029015 -0.00309692 0)
(-0.000319432 -0.00309933 0)
(-0.000348162 -0.00309812 0)
(-0.000377243 -0.00309306 0)
(-0.000416829 -0.00308419 0)
(-0.000489518 -0.00307144 0)
(-0.000565841 -0.00305278 0)
(-0.000609569 -0.00301575 0)
(-0.000658744 -0.00275495 0)
(-0.000634177 0.000452714 0)
(-1.14186e-07 -7.62181e-05 0)
(2.3815e-06 -0.000226264 0)
(7.74538e-06 -0.000372897 0)
(1.56639e-05 -0.000515494 0)
(2.54896e-05 -0.000653567 0)
(3.66372e-05 -0.00078671 0)
(4.86267e-05 -0.000914621 0)
(6.10506e-05 -0.00103705 0)
(7.35579e-05 -0.00115381 0)
(8.58434e-05 -0.00126483 0)
(9.76484e-05 -0.00137004 0)
(0.000108752 -0.00146946 0)
(0.000118972 -0.00156313 0)
(0.000128156 -0.00165112 0)
(0.000136184 -0.00173352 0)
(0.000142958 -0.00181046 0)
(0.000148407 -0.00188205 0)
(0.000152476 -0.00194841 0)
(0.000155132 -0.0020097 0)
(0.000156352 -0.00206604 0)
(0.000156135 -0.00211758 0)
(0.000154482 -0.00216444 0)
(0.000151414 -0.00220677 0)
(0.000146949 -0.00224469 0)
(0.000141123 -0.00227833 0)
(0.000133969 -0.00230783 0)
(0.000125533 -0.00233329 0)
(0.000115852 -0.00235485 0)
(0.000104981 -0.00237263 0)
(9.29596e-05 -0.00238677 0)
(7.98441e-05 -0.00239738 0)
(6.56736e-05 -0.00240463 0)
(5.05031e-05 -0.00240866 0)
(3.43678e-05 -0.00240966 0)
(1.73179e-05 -0.00240782 0)
(-6.17316e-07 -0.00240337 0)
(-1.93958e-05 -0.00239656 0)
(-3.89947e-05 -0.00238773 0)
(-5.93877e-05 -0.00237722 0)
(-8.05665e-05 -0.00236549 0)
(-0.000102529 -0.00235303 0)
(-0.000125205 -0.00234049 0)
(-0.000148356 -0.00232857 0)
(-0.000171715 -0.00231827 0)
(-0.000196374 -0.00231063 0)
(-0.00022823 -0.00230675 0)
(-0.000273276 -0.00230649 0)
(-0.000324521 -0.00231397 0)
(-0.000360014 -0.00237665 0)
(-0.000376595 -0.00280132 0)
(2.31258e-06 -0.0001393 0)
(1.48044e-05 -0.00038835 0)
(3.54006e-05 -0.000613074 0)
(6.1757e-05 -0.000815977 0)
(9.18535e-05 -0.000999259 0)
(0.000124247 -0.00116483 0)
(0.000157853 -0.00131439 0)
(0.000191823 -0.00144948 0)
(0.000225481 -0.00157148 0)
(0.00025831 -0.00168165 0)
(0.000289913 -0.00178115 0)
(0.000320007 -0.00187101 0)
(0.000348389 -0.0019522 0)
(0.000374934 -0.00202556 0)
(0.000399565 -0.00209188 0)
(0.000422264 -0.00215187 0)
(0.000443035 -0.00220616 0)
(0.000461929 -0.0022553 0)
(0.000478998 -0.00229983 0)
(0.000494333 -0.00234018 0)
(0.00050801 -0.00237676 0)
(0.000520142 -0.00240993 0)
(0.000530809 -0.00244 0)
(0.000540127 -0.00246723 0)
(0.000548162 -0.00249187 0)
(0.00055502 -0.0025141 0)
(0.000560731 -0.00253408 0)
(0.000565376 -0.00255195 0)
(0.000568927 -0.0025678 0)
(0.000571416 -0.00258168 0)
(0.000572732 -0.00259366 0)
(0.000572829 -0.00260372 0)
(0.000571471 -0.00261188 0)
(0.000568495 -0.00261805 0)
(0.000563484 -0.00262221 0)
(0.000556105 -0.00262418 0)
(0.000545675 -0.00262396 0)
(0.000531611 -0.00262125 0)
(0.000512838 -0.00261606 0)
(0.000488405 -0.00260801 0)
(0.000456716 -0.00259712 0)
(0.000416479 -0.00258305 0)
(0.000365473 -0.00256597 0)
(0.000300616 -0.00254638 0)
(0.000214228 -0.00252616 0)
(9.61718e-05 -0.0025119 0)
(-2.83728e-05 -0.00250949 0)
(-0.000148395 -0.00263815 0)
(-0.000137288 -0.00429965 0)
(-0.000618951 -0.00459064 0)
(6.95689e-05 -0.000222061 0)
(0.000200654 -0.000595021 0)
(0.000305752 -0.000905656 0)
(0.000389294 -0.00116456 0)
(0.000455339 -0.00138043 0)
(0.000506733 -0.00156041 0)
(0.000545434 -0.00171041 0)
(0.000573073 -0.00183541 0)
(0.000591084 -0.00193954 0)
(0.000600715 -0.00202627 0)
(0.000603049 -0.00209852 0)
(0.000599007 -0.00215871 0)
(0.000589396 -0.00220887 0)
(0.000574896 -0.00225068 0)
(0.000556113 -0.00228557 0)
(0.00053355 -0.00231467 0)
(0.000507668 -0.00233896 0)
(0.000478839 -0.0023592 0)
(0.000447422 -0.00237601 0)
(0.000413693 -0.00238987 0)
(0.000377944 -0.00240113 0)
(0.00034038 -0.00241004 0)
(0.000301259 -0.00241671 0)
(0.000260738 -0.00242116 0)
(0.000219066 -0.00242332 0)
(0.00017637 -0.00242295 0)
(0.000132923 -0.00241975 0)
(8.88367e-05 -0.00241322 0)
(4.44476e-05 -0.00240278 0)
(-1.36163e-07 -0.0023876 0)
(-4.44657e-05 -0.00236671 0)
(-8.84229e-05 -0.00233882 0)
(-0.00013138 -0.00230249 0)
(-0.000173194 -0.00225574 0)
(-0.00021297 -0.00219646 0)
(-0.000250512 -0.00212172 0)
(-0.000284552 -0.00202844 0)
(-0.00031478 -0.00191234 0)
(-0.000339425 -0.00176893 0)
(-0.000357951 -0.00159203 0)
(-0.000368079 -0.00137503 0)
(-0.000368334 -0.00110915 0)
(-0.000356396 -0.000784556 0)
(-0.000326878 -0.000388954 0)
(-0.00028781 9.34761e-05 0)
(-0.000240326 0.000675897 0)
(-0.000157076 0.00139024 0)
(8.31916e-05 0.00218544 0)
(0.000739157 0.00320829 0)
(0.00178982 0.00550322 0)
(0.00761877 0.00832626 0)
(0.00731165 0.00783547 0)
(0.00702413 0.00737115 0)
(0.00675622 0.00693424 0)
(0.00650726 0.00652609 0)
(0.00627776 0.00614859 0)
(0.00606757 0.0057978 0)
(0.00587629 0.00546993 0)
(0.00570387 0.00516114 0)
(0.00554895 0.0048748 0)
(0.00541114 0.00462415 0)
(0.00529026 0.00441506 0)
(0.0051872 0.00423036 0)
(0.00510101 0.00407259 0)
(0.00503198 0.00392379 0)
(0.0049824 0.0037496 0)
(0.00495036 0.00358136 0)
(0.00493465 0.00342491 0)
(0.00493543 0.0032667 0)
(0.00495228 0.00313493 0)
(0.00498482 0.00300894 0)
(0.00503136 0.00289172 0)
(0.00509408 0.00280782 0)
(0.00517116 0.00274526 0)
(0.0052595 0.00269407 0)
(0.00536138 0.00265284 0)
(0.00547786 0.00261776 0)
(0.00561052 0.00258525 0)
(0.0057598 0.00255406 0)
(0.00592456 0.00252095 0)
(0.00610869 0.00248568 0)
(0.00631176 0.00244059 0)
(0.00653982 0.00238966 0)
(0.00678363 0.0023498 0)
(0.0070315 0.00234975 0)
(0.0072876 0.00238834 0)
(0.00754909 0.00243397 0)
(0.00781936 0.00246797 0)
(0.00809901 0.00249971 0)
(0.00839273 0.00253746 0)
(0.00869518 0.00257093 0)
(0.00900403 0.00261952 0)
(0.00931763 0.00260137 0)
(0.00963345 0.00260419 0)
(0.00995528 0.00263364 0)