/*--------------------------------*- C++ -*----------------------------------*\
| =========                 |                                                 |
| \\      /  F ield         | OpenFOAM: The Open Source CFD Toolbox           |
|  \\    /   O peration     | Version:  2.4.0                                 |
|   \\  /    A nd           | Web:      www.OpenFOAM.org                      |
|    \\/     M anipulation  |                                                 |
\*---------------------------------------------------------------------------*/
FoamFile
{
    version     2.0;
    format      ascii;
    class       volScalarField;
    location    "0.013";
    object      alpha1;
}
// * * * * * * * * * * * * * * * * * * * * * * * * * * * * * * * * * * * * * //

dimensions      [0 0 0 0 0 0 0];

internalField   nonuniform List<scalar> 
125
(
1
1
1
1
0.0390031
9.63697e-137
6.54469e-143
4.40215e-149
2.73676e-155
1.4652e-161
6.72123e-168
2.71525e-174
9.12504e-181
2.56067e-187
6.1538e-194
1.37381e-200
3.3084e-207
9.19485e-214
2.57467e-220
6.13469e-227
1.11058e-233
1.36919e-240
9.48182e-248
2.07409e-255
0
0
0
0
0
0
0
0
0
0
0
0
0
0
0
0
0
0
0
0
0
0
0
0
0
0
0
0
0
0
0
0
0
0
0
0
0
0
0
0
0
0
0
0
0
0
0
0
0
0
0
0
0
0
0
0
0
0
0
0
0
0
0
0
0
0
0
0
0
0
0
0
0
0
0
0
0
0
0
0
0
0
0
0
0
0
0
0
0
0
0
0
0
0
0
0
0
0
0
0
0
)
;

boundaryField
{
    BotWall
    {
        type            fixedValue;
        value           uniform 1;
    }
    FreeStream
    {
        type            inletOutlet;
        inletValue      uniform 0;
        value           uniform 0;
    }
    FrontNBack
    {
        type            empty;
    }
    LeftSide
    {
        type            symmetryPlane;
    }
    RightSide
    {
        type            symmetryPlane;
    }
    procBoundary9to6
    {
        type            processor;
        value           uniform 0;
    }
    procBoundary9to7
    {
        type            processor;
        value           nonuniform List<scalar> 
75
(
1
1
1
1
0.0455726
2.95136e-138
4.62624e-144
7.29376e-150
1.04873e-155
1.33046e-161
1.47175e-167
1.4182e-173
1.18702e-179
8.61065e-186
5.39334e-192
2.89564e-198
1.31796e-204
5.00415e-211
1.54705e-217
3.76108e-224
6.81265e-231
8.3793e-238
5.79069e-245
1.26461e-252
0
0
0
0
0
0
0
0
0
0
0
0
0
0
0
0
0
0
0
0
0
0
0
0
0
0
0
0
0
0
0
0
0
0
0
0
0
0
0
0
0
0
0
0
0
0
0
0
0
0
0
)
;
    }
    procBoundary9to8
    {
        type            processor;
        value           uniform 0;
    }
    procBoundary9to10
    {
        type            processor;
        value           uniform 0;
    }
    procBoundary9to11
    {
        type            processor;
        value           nonuniform List<scalar> 
75
(
1
1
1
1
0.0419342
1.44568e-139
9.91675e-146
6.70384e-152
4.16098e-158
2.21255e-164
1.00476e-170
4.00298e-177
1.31773e-183
3.56144e-190
7.85091e-197
1.41588e-203
2.18997e-210
3.40945e-217
6.4524e-224
1.33454e-230
2.32412e-237
2.82391e-244
1.93777e-251
4.21394e-259
0
0
0
0
0
0
0
0
0
0
0
0
0
0
0
0
0
0
0
0
0
0
0
0
0
0
0
0
0
0
0
0
0
0
0
0
0
0
0
0
0
0
0
0
0
0
0
0
0
0
0
)
;
    }
}


// ************************************************************************* //
