/*--------------------------------*- C++ -*----------------------------------*\
| =========                 |                                                 |
| \\      /  F ield         | OpenFOAM: The Open Source CFD Toolbox           |
|  \\    /   O peration     | Version:  2.4.0                                 |
|   \\  /    A nd           | Web:      www.OpenFOAM.org                      |
|    \\/     M anipulation  |                                                 |
\*---------------------------------------------------------------------------*/
FoamFile
{
    version     2.0;
    format      ascii;
    class       surfaceScalarField;
    location    "0.013";
    object      phi;
}
// * * * * * * * * * * * * * * * * * * * * * * * * * * * * * * * * * * * * * //

dimensions      [0 3 -1 0 0 0 0];

internalField   nonuniform List<scalar> 
123
(
-9.20785e-18
-3.67163e-16
-1.16033e-15
-3.03432e-14
-2.88211e-09
-2.88211e-09
-2.88211e-09
-2.88213e-09
-2.88215e-09
-2.88218e-09
-2.88222e-09
-2.88228e-09
-2.88235e-09
-2.88243e-09
-2.88252e-09
-2.88263e-09
-2.88275e-09
-2.88287e-09
-2.883e-09
-2.88314e-09
-2.88329e-09
-2.88344e-09
-2.88359e-09
-2.88374e-09
-2.88389e-09
-2.88405e-09
-2.8842e-09
-2.88435e-09
-2.88449e-09
-2.88464e-09
-2.88478e-09
-2.88491e-09
-2.88505e-09
-2.88518e-09
-2.8853e-09
-2.88543e-09
-2.88555e-09
-2.88566e-09
-2.88578e-09
-2.88589e-09
-2.886e-09
-2.88611e-09
-2.88622e-09
-2.88633e-09
-2.88643e-09
-2.88654e-09
-2.88664e-09
-2.88674e-09
-2.88685e-09
-2.88695e-09
-2.88705e-09
-2.88715e-09
-2.88725e-09
-2.88735e-09
-2.88745e-09
-2.88755e-09
-2.88765e-09
-2.88775e-09
-2.88785e-09
-2.88795e-09
-2.88805e-09
-2.88814e-09
-2.88824e-09
-2.88834e-09
-2.88844e-09
-2.88854e-09
-2.88863e-09
-2.88873e-09
-2.88883e-09
-2.88892e-09
-2.88902e-09
-2.88912e-09
-2.88921e-09
-2.88931e-09
-2.90883e-09
-2.90883e-09
-2.90883e-09
-2.90883e-09
-2.90883e-09
-2.90883e-09
-2.90883e-09
-2.90884e-09
-2.90884e-09
-2.90884e-09
-2.90884e-09
-2.90884e-09
-2.90884e-09
-2.90884e-09
-2.90884e-09
-2.90884e-09
-2.90884e-09
-2.90885e-09
-2.90885e-09
-2.90885e-09
-2.90885e-09
-2.90885e-09
-2.90885e-09
-2.90886e-09
-2.90886e-09
-2.90886e-09
-2.90886e-09
-2.90886e-09
-2.90886e-09
-2.90887e-09
-2.90887e-09
-2.90887e-09
-2.90887e-09
-2.90888e-09
-2.90888e-09
-2.90888e-09
-2.90888e-09
-2.90888e-09
-2.90889e-09
-2.90889e-09
-2.90889e-09
-2.9089e-09
-2.9089e-09
-2.9089e-09
-2.9089e-09
-2.90891e-09
-2.90891e-09
-2.90891e-09
-2.90892e-09
)
;

boundaryField
{
    BotWall
    {
        type            calculated;
        value           uniform -3.09864e-22;
    }
    FreeStream
    {
        type            calculated;
        value           uniform -2.90892e-09;
    }
    FrontNBack
    {
        type            empty;
        value           nonuniform 0();
    }
    LeftSide
    {
        type            symmetryPlane;
        value           nonuniform 0();
    }
    RightSide
    {
        type            symmetryPlane;
        value           uniform 0;
    }
    procBoundary9to6
    {
        type            processor;
        value           nonuniform List<scalar> 
50
(
1.4901e-13
1.47898e-13
1.46086e-13
1.43715e-13
1.40918e-13
1.37821e-13
1.34539e-13
1.31174e-13
1.27813e-13
1.24526e-13
1.21374e-13
1.18397e-13
1.15627e-13
1.13083e-13
1.10774e-13
1.087e-13
1.06855e-13
1.05229e-13
1.03806e-13
1.02568e-13
1.01498e-13
1.00575e-13
9.9781e-14
9.90977e-14
9.8508e-14
9.79962e-14
9.75485e-14
9.71526e-14
9.67976e-14
9.64746e-14
9.61758e-14
9.58948e-14
9.56263e-14
9.53663e-14
9.51112e-14
9.48585e-14
9.46063e-14
9.43529e-14
9.40973e-14
9.38387e-14
9.35766e-14
9.33107e-14
9.30407e-14
9.27667e-14
9.24886e-14
9.22066e-14
9.19206e-14
9.1631e-14
9.13379e-14
9.10414e-14
)
;
    }
    procBoundary9to7
    {
        type            processor;
        value           nonuniform List<scalar> 
75
(
9.44071e-18
2.66346e-16
6.00038e-16
7.87852e-16
1.60061e-15
1.64839e-15
4.65258e-15
1.06228e-14
1.87854e-14
2.8592e-14
3.96066e-14
5.14233e-14
6.36402e-14
7.58782e-14
8.7795e-14
9.90942e-14
1.09529e-13
1.18907e-13
1.27088e-13
1.33984e-13
1.39558e-13
1.43814e-13
1.46798e-13
1.48587e-13
1.49284e-13
3.65235e-16
4.24108e-16
4.82167e-16
5.39491e-16
5.96179e-16
6.52322e-16
7.08009e-16
7.63326e-16
8.18356e-16
8.7318e-16
9.27879e-16
9.82529e-16
1.03721e-15
1.09198e-15
1.14693e-15
1.20212e-15
1.25762e-15
1.31349e-15
1.36979e-15
1.42658e-15
1.4839e-15
1.54181e-15
1.60035e-15
1.65953e-15
1.7194e-15
1.77991e-15
1.84106e-15
1.90275e-15
1.96486e-15
2.02717e-15
2.08937e-15
2.15102e-15
2.2116e-15
2.27052e-15
2.3272e-15
2.38128e-15
2.43274e-15
2.48221e-15
2.53104e-15
2.58136e-15
2.63569e-15
2.69621e-15
2.76374e-15
2.83651e-15
2.90931e-15
2.97349e-15
3.01811e-15
3.03221e-15
3.00645e-15
2.93383e-15
)
;
    }
    procBoundary9to8
    {
        type            processor;
        value           uniform -2.8894e-09;
    }
    procBoundary9to10
    {
        type            processor;
        value           uniform 2.90883e-09;
    }
    procBoundary9to11
    {
        type            processor;
        value           nonuniform List<scalar> 
75
(
-2.32437e-19
9.16088e-17
1.93134e-16
2.20726e-16
5.57449e-16
3.72174e-16
1.02534e-15
1.88107e-15
2.72713e-15
3.50565e-15
4.19818e-15
4.79165e-15
5.27373e-15
5.63647e-15
5.87773e-15
6.00071e-15
6.01301e-15
5.92581e-15
5.75298e-15
5.5102e-15
5.21412e-15
4.8815e-15
4.52848e-15
4.16997e-15
3.81911e-15
3.48697e-15
3.18236e-15
2.91173e-15
2.67932e-15
2.48727e-15
2.33598e-15
2.22434e-15
2.15008e-15
2.11009e-15
2.10065e-15
2.11771e-15
2.15707e-15
2.21455e-15
2.28614e-15
2.36809e-15
2.45702e-15
2.54996e-15
2.64438e-15
2.73821e-15
2.82983e-15
2.918e-15
3.0019e-15
3.081e-15
3.15505e-15
3.22402e-15
3.28806e-15
3.34742e-15
3.40246e-15
3.45356e-15
3.50114e-15
3.54561e-15
3.58736e-15
3.62676e-15
3.66414e-15
3.69978e-15
3.73395e-15
3.76684e-15
3.79865e-15
3.8295e-15
3.85953e-15
3.88882e-15
3.91743e-15
3.94543e-15
3.97286e-15
3.99973e-15
4.02606e-15
4.05188e-15
4.07718e-15
4.10197e-15
4.12625e-15
)
;
    }
}


// ************************************************************************* //
