/*--------------------------------*- C++ -*----------------------------------*\
| =========                 |                                                 |
| \\      /  F ield         | OpenFOAM: The Open Source CFD Toolbox           |
|  \\    /   O peration     | Version:  2.4.0                                 |
|   \\  /    A nd           | Web:      www.OpenFOAM.org                      |
|    \\/     M anipulation  |                                                 |
\*---------------------------------------------------------------------------*/
FoamFile
{
    version     2.0;
    format      ascii;
    class       volScalarField;
    location    "0.01";
    object      p;
}
// * * * * * * * * * * * * * * * * * * * * * * * * * * * * * * * * * * * * * //

dimensions      [1 -1 -2 0 0 0 0];

internalField   nonuniform List<scalar> 
125
(
0.0482743
-0.0431556
0.200303
-1.12677
-0.144341
0.035453
0.0108374
-0.00791646
-0.0117368
-0.0109851
-0.0104382
-0.010463
-0.0106567
-0.0108422
-0.0110063
-0.0111647
-0.011324
-0.0114847
-0.0116463
-0.0118084
-0.0119711
-0.0121344
-0.0122983
-0.0124628
-0.0126279
-0.0127937
-0.01296
-0.0131269
-0.0132945
-0.0134627
-0.0136314
-0.0138009
-0.0139709
-0.0141416
-0.0143128
-0.0144848
-0.0146573
-0.0148305
-0.0150043
-0.0151788
-0.0153539
-0.0155296
-0.015706
-0.0158831
-0.0160608
-0.0162391
-0.0164181
-0.0165978
-0.0167781
-0.0169591
-0.0171407
-0.0173231
-0.0175061
-0.0176897
-0.0178741
-0.0180591
-0.0182448
-0.0184312
-0.0186183
-0.018806
-0.0189945
-0.0191836
-0.0193735
-0.019564
-0.0197552
-0.0199472
-0.0201398
-0.0203332
-0.0205273
-0.020722
-0.0209175
-0.0211138
-0.0213107
-0.0215084
-0.0217068
-0.0219059
-0.0221058
-0.0223063
-0.0225077
-0.0227098
-0.0229126
-0.0231161
-0.0233204
-0.0235255
-0.0237313
-0.0239379
-0.0241452
-0.0243533
-0.0245622
-0.0247718
-0.0249822
-0.0251934
-0.0254054
-0.0256181
-0.0258316
-0.0260459
-0.026261
-0.0264769
-0.0266936
-0.0269111
-0.0808203
-0.081237
-0.0816553
-0.0820751
-0.0824964
-0.0829194
-0.0833438
-0.0837699
-0.0841975
-0.0846266
-0.0850574
-0.0854897
-0.0859237
-0.0863592
-0.0867963
-0.0872351
-0.0876754
-0.0881174
-0.088561
-0.0890063
-0.0894531
-0.0899017
-0.0903519
-0.0908037
-0.091257
)
;

boundaryField
{
    BotWall
    {
        type            calculated;
        value           uniform 0.0532177;
    }
    FreeStream
    {
        type            calculated;
        value           uniform -0.0914839;
    }
    FrontNBack
    {
        type            empty;
    }
    LeftSide
    {
        type            symmetryPlane;
    }
    RightSide
    {
        type            symmetryPlane;
    }
    procBoundary4to1
    {
        type            processor;
        value           nonuniform List<scalar> 
50
(
-0.0171563
-0.0173385
-0.0175214
-0.017705
-0.0178892
-0.0180741
-0.0182597
-0.018446
-0.0186329
-0.0188206
-0.0190089
-0.0191979
-0.0193876
-0.0195781
-0.0197692
-0.019961
-0.0201536
-0.0203468
-0.0205408
-0.0207355
-0.0209309
-0.021127
-0.0213238
-0.0215214
-0.0217196
-0.0219187
-0.0221184
-0.0223189
-0.0225201
-0.0227221
-0.0229248
-0.0231283
-0.0233325
-0.0235374
-0.0237432
-0.0239496
-0.0241569
-0.0243649
-0.0245736
-0.0247832
-0.0249935
-0.0252045
-0.0254164
-0.025629
-0.0258425
-0.0260567
-0.0262717
-0.0264875
-0.026704
-0.0269214
)
;
    }
    procBoundary4to2
    {
        type            processor;
        value           nonuniform List<scalar> 
75
(
0.0465659
-0.0437334
0.195228
-1.10895
-0.142422
0.0349459
0.0106262
-0.00794938
-0.0117385
-0.010997
-0.0104566
-0.0104824
-0.0106756
-0.0108608
-0.0110248
-0.0111831
-0.0113423
-0.0115029
-0.0116644
-0.0118265
-0.0119891
-0.0121523
-0.0123161
-0.0124806
-0.0126456
-0.0128112
-0.0129775
-0.0131443
-0.0133118
-0.0134799
-0.0136486
-0.0138179
-0.0139879
-0.0141585
-0.0143297
-0.0145015
-0.014674
-0.0148471
-0.0150208
-0.0151952
-0.0153703
-0.0155459
-0.0157222
-0.0158992
-0.0160768
-0.0162551
-0.016434
-0.0166136
-0.0167939
-0.0169748
-0.0808208
-0.0812375
-0.0816557
-0.0820755
-0.0824969
-0.0829198
-0.0833442
-0.0837702
-0.0841978
-0.084627
-0.0850577
-0.08549
-0.085924
-0.0863595
-0.0867966
-0.0872353
-0.0876756
-0.0881176
-0.0885612
-0.0890064
-0.0894533
-0.0899018
-0.0903519
-0.0908037
-0.091257
)
;
    }
    procBoundary4to3
    {
        type            processor;
        value           uniform -0.0271293;
    }
    procBoundary4to5
    {
        type            processor;
        value           uniform -0.080405;
    }
    procBoundary4to6
    {
        type            processor;
        value           nonuniform List<scalar> 
75
(
-0.0127924
-0.0129587
-0.0131256
-0.0132931
-0.0134612
-0.01363
-0.0137994
-0.0139693
-0.01414
-0.0143112
-0.0144831
-0.0146556
-0.0148287
-0.0150025
-0.015177
-0.015352
-0.0155277
-0.0157041
-0.0158811
-0.0160588
-0.0162371
-0.016416
-0.0165957
-0.016776
-0.0169569
-0.0171386
-0.0173208
-0.0175038
-0.0176874
-0.0178718
-0.0180568
-0.0182424
-0.0184288
-0.0186158
-0.0188036
-0.018992
-0.0191811
-0.0193709
-0.0195614
-0.0197527
-0.0199446
-0.0201372
-0.0203305
-0.0205246
-0.0207193
-0.0209148
-0.021111
-0.0213079
-0.0215056
-0.021704
-0.0219031
-0.0221029
-0.0223035
-0.0225048
-0.0227069
-0.0229097
-0.0231132
-0.0233175
-0.0235226
-0.0237284
-0.0239349
-0.0241422
-0.0243503
-0.0245592
-0.0247688
-0.0249792
-0.0251903
-0.0254023
-0.025615
-0.0258285
-0.0260428
-0.0262579
-0.0264738
-0.0266904
-0.0269079
)
;
    }
    procBoundary4to7
    {
        type            processor;
        value           nonuniform List<scalar> 
50
(
0.0482183
-0.0432774
0.200421
-1.12781
-0.144443
0.0354804
0.0108489
-0.00791442
-0.0117364
-0.0109842
-0.0104369
-0.0104617
-0.0106554
-0.010841
-0.0110051
-0.0111634
-0.0113227
-0.0114835
-0.011645
-0.0118072
-0.0119699
-0.0121332
-0.0122971
-0.0124616
-0.0126267
-0.0808185
-0.0812353
-0.0816535
-0.0820734
-0.0824947
-0.0829177
-0.0833421
-0.0837682
-0.0841958
-0.084625
-0.0850557
-0.0854881
-0.085922
-0.0863576
-0.0867947
-0.0872335
-0.0876738
-0.0881158
-0.0885594
-0.0890047
-0.0894516
-0.0899001
-0.0903503
-0.0908021
-0.0912556
)
;
    }
}


// ************************************************************************* //
