/*--------------------------------*- C++ -*----------------------------------*\
| =========                 |                                                 |
| \\      /  F ield         | OpenFOAM: The Open Source CFD Toolbox           |
|  \\    /   O peration     | Version:  2.4.0                                 |
|   \\  /    A nd           | Web:      www.OpenFOAM.org                      |
|    \\/     M anipulation  |                                                 |
\*---------------------------------------------------------------------------*/
FoamFile
{
    version     2.0;
    format      ascii;
    class       volScalarField;
    location    "0.01";
    object      p_rgh;
}
// * * * * * * * * * * * * * * * * * * * * * * * * * * * * * * * * * * * * * //

dimensions      [1 -1 -2 0 0 0 0];

internalField   nonuniform List<scalar> 
125
(
0.0532177
-0.0283073
0.225093
-1.10922
-0.143599
0.0363613
0.0119128
-0.00667337
-0.0103254
-0.00940474
-0.00868826
-0.00854283
-0.00856571
-0.00857978
-0.00857179
-0.0085574
-0.00854334
-0.00853008
-0.00851701
-0.00850387
-0.00849065
-0.00847738
-0.00846406
-0.00845069
-0.00843726
-0.0084238
-0.00841028
-0.00839671
-0.00838309
-0.00836941
-0.00835569
-0.00834192
-0.0083281
-0.00831422
-0.0083003
-0.00828632
-0.00827229
-0.00825821
-0.00824408
-0.00822989
-0.00821566
-0.00820137
-0.00818702
-0.00817263
-0.00815818
-0.00814367
-0.00812912
-0.00811451
-0.00809984
-0.00808512
-0.00807035
-0.00805552
-0.00804064
-0.0080257
-0.00801071
-0.00799566
-0.00798056
-0.0079654
-0.00795018
-0.00793491
-0.00791958
-0.0079042
-0.00788876
-0.00787326
-0.0078577
-0.00784209
-0.00782642
-0.00781069
-0.0077949
-0.00777905
-0.00776315
-0.00774719
-0.00773116
-0.00771508
-0.00769894
-0.00768274
-0.00766648
-0.00765016
-0.00763378
-0.00761734
-0.00760084
-0.00758428
-0.00756765
-0.00755097
-0.00753422
-0.00751741
-0.00750054
-0.00748361
-0.00746662
-0.00744956
-0.00743244
-0.00741525
-0.00739801
-0.0073807
-0.00736332
-0.00734588
-0.00732838
-0.00731081
-0.00729317
-0.00727546
-0.00288466
-0.00285076
-0.00281673
-0.00278257
-0.00274829
-0.00271388
-0.00267935
-0.00264469
-0.00260991
-0.00257499
-0.00253995
-0.00250478
-0.00246948
-0.00243404
-0.00239848
-0.00236279
-0.00232697
-0.00229101
-0.00225493
-0.00221871
-0.00218236
-0.00214588
-0.00210927
-0.00207251
-0.00203541
)
;

boundaryField
{
    BotWall
    {
        type            fixedFluxPressure;
        gradient        uniform 0;
        value           uniform 0.0532177;
    }
    FreeStream
    {
        type            totalPressure;
        rho             rho;
        psi             none;
        gamma           1;
        p0              uniform 0;
        value           uniform -0.00201673;
    }
    FrontNBack
    {
        type            empty;
    }
    LeftSide
    {
        type            symmetryPlane;
    }
    RightSide
    {
        type            symmetryPlane;
    }
    procBoundary4to1
    {
        type            processor;
        value           nonuniform List<scalar> 
50
(
-0.00808592
-0.00807098
-0.00805598
-0.00804093
-0.00802582
-0.00801066
-0.00799544
-0.00798016
-0.00796483
-0.00794945
-0.007934
-0.00791851
-0.00790295
-0.00788734
-0.00787167
-0.00785595
-0.00784016
-0.00782432
-0.00780843
-0.00779247
-0.00777646
-0.00776039
-0.00774426
-0.00772807
-0.00771182
-0.00769551
-0.00767915
-0.00766272
-0.00764624
-0.00762969
-0.00761308
-0.00759642
-0.00757969
-0.0075629
-0.00754605
-0.00752914
-0.00751217
-0.00749514
-0.00747804
-0.00746088
-0.00744366
-0.00742638
-0.00740903
-0.00739162
-0.00737415
-0.00735661
-0.00733901
-0.00732134
-0.00730361
-0.00728582
)
;
    }
    procBoundary4to2
    {
        type            processor;
        value           nonuniform List<scalar> 
75
(
0.0515093
-0.0288851
0.220017
-1.09176
-0.141681
0.0358542
0.0117016
-0.00670629
-0.0103271
-0.00941659
-0.00870667
-0.00856223
-0.00858463
-0.00859836
-0.00859024
-0.00857578
-0.00856165
-0.0085483
-0.00853515
-0.00852193
-0.00850863
-0.00849527
-0.00848186
-0.00846841
-0.00845491
-0.00844136
-0.00842776
-0.00841411
-0.0084004
-0.00838665
-0.00837285
-0.008359
-0.0083451
-0.00833115
-0.00831714
-0.00830309
-0.00828898
-0.00827482
-0.00826061
-0.00824635
-0.00823204
-0.00821767
-0.00820325
-0.00818878
-0.00817425
-0.00815968
-0.00814504
-0.00813036
-0.00811561
-0.00810079
-0.00288517
-0.00285125
-0.0028172
-0.00278303
-0.00274873
-0.00271431
-0.00267975
-0.00264508
-0.00261027
-0.00257534
-0.00254027
-0.00250508
-0.00246976
-0.00243431
-0.00239873
-0.00236302
-0.00232718
-0.0022912
-0.0022551
-0.00221886
-0.00218249
-0.00214599
-0.00210936
-0.00207258
-0.00203547
)
;
    }
    procBoundary4to3
    {
        type            processor;
        value           uniform -0.00725768;
    }
    procBoundary4to5
    {
        type            processor;
        value           uniform -0.00291844;
    }
    procBoundary4to6
    {
        type            processor;
        value           nonuniform List<scalar> 
75
(
-0.00842254
-0.00840898
-0.00839537
-0.00838171
-0.008368
-0.00835423
-0.00834042
-0.00832655
-0.00831264
-0.00829867
-0.00828466
-0.00827059
-0.00825647
-0.0082423
-0.00822807
-0.0082138
-0.00819947
-0.00818509
-0.00817066
-0.00815618
-0.00814164
-0.00812705
-0.00811241
-0.00809771
-0.00808296
-0.00806816
-0.0080533
-0.00803839
-0.00802342
-0.0080084
-0.00799332
-0.00797819
-0.007963
-0.00794776
-0.00793246
-0.0079171
-0.00790169
-0.00788623
-0.0078707
-0.00785512
-0.00783948
-0.00782379
-0.00780804
-0.00779223
-0.00777636
-0.00776043
-0.00774445
-0.00772841
-0.0077123
-0.00769614
-0.00767992
-0.00766365
-0.00764731
-0.00763091
-0.00761445
-0.00759793
-0.00758135
-0.00756471
-0.00754801
-0.00753125
-0.00751442
-0.00749754
-0.00748059
-0.00746358
-0.00744651
-0.00742937
-0.00741218
-0.00739492
-0.00737759
-0.00736021
-0.00734275
-0.00732524
-0.00730766
-0.00729002
-0.00727231
)
;
    }
    procBoundary4to7
    {
        type            processor;
        value           nonuniform List<scalar> 
50
(
0.0531617
-0.0284291
0.22521
-1.11023
-0.143701
0.0363886
0.0119243
-0.00667133
-0.010325
-0.00940381
-0.00868698
-0.0085415
-0.00856441
-0.0085785
-0.00857052
-0.00855613
-0.00854208
-0.00852882
-0.00851576
-0.00850263
-0.00848943
-0.00847616
-0.00846284
-0.00844947
-0.00843603
-0.00288292
-0.00284903
-0.00281501
-0.00278086
-0.00274659
-0.00271219
-0.00267767
-0.00264302
-0.00260824
-0.00257333
-0.0025383
-0.00250314
-0.00246784
-0.00243242
-0.00239687
-0.00236118
-0.00232536
-0.00228942
-0.00225334
-0.00221712
-0.00218078
-0.0021443
-0.00210768
-0.00207092
-0.002034
)
;
    }
}


// ************************************************************************* //
