/*--------------------------------*- C++ -*----------------------------------*\
| =========                 |                                                 |
| \\      /  F ield         | OpenFOAM: The Open Source CFD Toolbox           |
|  \\    /   O peration     | Version:  2.4.0                                 |
|   \\  /    A nd           | Web:      www.OpenFOAM.org                      |
|    \\/     M anipulation  |                                                 |
\*---------------------------------------------------------------------------*/
FoamFile
{
    version     2.0;
    format      ascii;
    class       surfaceScalarField;
    location    "3.7";
    object      phi;
}
// * * * * * * * * * * * * * * * * * * * * * * * * * * * * * * * * * * * * * //

dimensions      [0 3 -1 0 0 0 0];

internalField   nonuniform List<scalar> 
220
(
6.13098e-18
-6.13104e-18
4.86219e-18
1.26872e-18
-3.40602e-18
8.26838e-18
-7.12377e-18
3.71797e-18
-7.12388e-18
1.90795e-17
-2.52127e-17
1.53314e-17
5.01314e-18
-1.06554e-17
3.42499e-17
-2.24244e-17
1.5483e-17
-2.95513e-17
3.28854e-17
-5.81006e-17
2.65946e-17
1.12997e-17
-1.84113e-17
7.92502e-17
-3.88831e-17
3.59504e-17
-6.84375e-17
4.7575e-17
-1.05679e-16
3.86351e-17
2.02351e-17
-2.66761e-17
1.44555e-16
-5.64901e-17
6.57598e-17
-1.24931e-16
6.32124e-17
-1.68894e-16
5.15012e-17
3.19417e-17
-3.5486e-17
2.31536e-16
-7.53212e-17
1.0559e-16
-2.00255e-16
7.98276e-17
-2.48725e-16
6.52317e-17
4.65327e-17
-4.48598e-17
3.41621e-16
-9.54293e-17
1.56155e-16
-2.95688e-16
9.7498e-17
-3.46226e-16
7.9886e-17
6.41399e-17
-5.48403e-17
4.76341e-16
-1.16912e-16
2.18221e-16
-4.12603e-16
1.16252e-16
-4.62482e-16
9.55012e-17
8.48862e-17
-6.54469e-17
6.37283e-16
-1.39817e-16
2.92587e-16
-5.52423e-16
1.3618e-16
-5.98666e-16
1.12146e-16
1.08916e-16
-7.67291e-17
8.26151e-16
-1.64258e-16
3.80111e-16
-7.16684e-16
1.57311e-16
-7.5598e-16
1.2986e-16
1.36362e-16
-8.8707e-17
1.04471e-15
-1.90285e-16
4.81685e-16
-9.06972e-16
1.79745e-16
-9.35728e-16
1.4872e-16
1.67384e-16
-1.01437e-16
1.29486e-15
-2.18027e-16
5.98271e-16
-1.125e-15
2.03516e-16
-1.13925e-15
1.6877e-16
2.02125e-16
-1.1494e-16
1.57857e-15
-2.47542e-16
7.30868e-16
-1.37255e-15
2.28734e-16
-1.36798e-15
1.90098e-16
2.40756e-16
-1.29281e-16
1.89794e-15
-2.78971e-16
8.80554e-16
-1.65152e-15
2.5544e-16
-1.62343e-15
2.12756e-16
2.83437e-16
-1.44484e-16
2.25517e-15
-3.12386e-16
1.04845e-15
-1.96391e-15
2.83757e-16
-1.90719e-15
2.36838e-16
3.30353e-16
-1.60618e-16
2.65263e-15
-3.47945e-16
1.23578e-15
-2.31185e-15
3.13718e-16
-2.22091e-15
2.62401e-16
3.81666e-16
-1.77712e-16
3.09274e-15
-3.85716e-16
1.44378e-15
-2.69757e-15
3.45426e-16
-2.56633e-15
2.89514e-16
4.37576e-16
-1.95824e-16
3.57807e-15
-4.25814e-16
1.67376e-15
-3.12339e-15
3.78939e-16
-2.94528e-15
3.18192e-16
4.9832e-16
-2.1494e-16
4.1112e-15
-4.68334e-16
1.92716e-15
-3.59172e-15
4.14518e-16
-3.35979e-15
3.48962e-16
5.63874e-16
-2.3547e-16
4.69563e-15
-5.13318e-16
2.205e-15
-4.10504e-15
4.53261e-16
-3.81306e-15
3.80824e-16
6.3631e-16
-2.57379e-16
5.33383e-15
-5.63121e-16
2.51075e-15
-4.66816e-15
4.95424e-16
-6.59946e-15
4.20933e-16
7.10802e-16
-2.82314e-16
6.03708e-15
-6.20464e-16
2.84889e-15
-8.10264e-15
5.47438e-16
-2.18374e-10
4.77432e-16
-2.18379e-10
-3.1513e-16
-2.18386e-10
-7.00034e-16
-2.18382e-10
-2.18373e-10
5.57634e-16
-2.18375e-10
4.73119e-16
-2.18379e-10
-3.16977e-16
-2.18385e-10
-6.97419e-16
-2.18382e-10
-2.18374e-10
5.60695e-16
-2.18376e-10
4.76973e-16
-2.18379e-10
-3.16886e-16
-2.18384e-10
-7.04429e-16
-2.18382e-10
-2.18375e-10
5.3431e-16
4.54995e-16
-3.03483e-16
-6.66414e-16
)
;

boundaryField
{
    BotWall
    {
        type            calculated;
        value           nonuniform List<scalar> 5(4.04519e-23 5.02363e-23 -2.58211e-22 -2.27792e-22 8.44895e-23);
    }
    FreeStream
    {
        type            calculated;
        value           nonuniform 0();
    }
    FrontNBack
    {
        type            empty;
        value           nonuniform 0();
    }
    LeftSide
    {
        type            symmetryPlane;
        value           uniform 0;
    }
    RightSide
    {
        type            symmetryPlane;
        value           uniform 0;
    }
    procBoundary0to1
    {
        type            processor;
        value           nonuniform List<scalar> 5(-2.18376e-10 -2.18379e-10 -2.18383e-10 -2.18381e-10 -2.18375e-10);
    }
}


// ************************************************************************* //
