/*--------------------------------*- C++ -*----------------------------------*\
| =========                 |                                                 |
| \\      /  F ield         | OpenFOAM: The Open Source CFD Toolbox           |
|  \\    /   O peration     | Version:  2.4.0                                 |
|   \\  /    A nd           | Web:      www.OpenFOAM.org                      |
|    \\/     M anipulation  |                                                 |
\*---------------------------------------------------------------------------*/
FoamFile
{
    version     2.0;
    format      ascii;
    class       volScalarField;
    location    "3.7";
    object      T;
}
// * * * * * * * * * * * * * * * * * * * * * * * * * * * * * * * * * * * * * //

dimensions      [0 0 0 1 0 0 0];

internalField   nonuniform List<scalar> 
125
(
293.101
293.101
293.101
293.101
293.101
293.304
293.304
293.304
293.304
293.304
293.51
293.51
293.51
293.51
293.51
293.718
293.718
293.718
293.718
293.718
293.928
293.928
293.928
293.928
293.928
294.141
294.141
294.141
294.141
294.141
294.356
294.356
294.356
294.356
294.356
294.574
294.574
294.574
294.574
294.574
294.794
294.794
294.794
294.794
294.794
295.017
295.017
295.017
295.017
295.017
295.242
295.242
295.242
295.242
295.242
295.47
295.47
295.47
295.47
295.47
295.701
295.701
295.701
295.701
295.701
295.935
295.935
295.935
295.935
295.935
296.171
296.171
296.171
296.171
296.171
296.41
296.41
296.41
296.41
296.41
296.652
296.652
296.652
296.652
296.652
296.897
296.897
296.898
296.898
296.897
297.145
297.146
297.146
297.146
297.145
297.397
297.397
297.397
297.397
297.397
297.651
297.651
297.651
297.651
297.651
297.99
297.99
297.99
297.99
297.99
297.99
297.99
297.99
297.99
297.99
297.989
297.989
297.989
297.989
297.989
297.989
297.989
297.989
297.989
297.989
)
;

boundaryField
{
    BotWall
    {
        type            fixedValue;
        value           uniform 293;
    }
    FreeStream
    {
        type            fixedValue;
        value           nonuniform 0();
    }
    FrontNBack
    {
        type            empty;
    }
    LeftSide
    {
        type            symmetryPlane;
    }
    RightSide
    {
        type            symmetryPlane;
    }
    procBoundary0to1
    {
        type            processor;
        value           nonuniform List<scalar> 5(297.989 297.989 297.989 297.989 297.989);
    }
}


// ************************************************************************* //
