/*--------------------------------*- C++ -*----------------------------------*\
| =========                 |                                                 |
| \\      /  F ield         | OpenFOAM: The Open Source CFD Toolbox           |
|  \\    /   O peration     | Version:  2.4.0                                 |
|   \\  /    A nd           | Web:      www.OpenFOAM.org                      |
|    \\/     M anipulation  |                                                 |
\*---------------------------------------------------------------------------*/
FoamFile
{
    version     2.0;
    format      ascii;
    class       volScalarField;
    location    "0.8";
    object      alpha1;
}
// * * * * * * * * * * * * * * * * * * * * * * * * * * * * * * * * * * * * * //

dimensions      [0 0 0 0 0 0 0];

internalField   nonuniform List<scalar> 
8000
(
1
1
1
1
1
1
1
1
1
1
1
1
1
1
1
1
1
1
1
0.999999
0.999999
0.999997
0.999993
0.999959
0.72957
0.0131345
5.5633e-06
6.77371e-06
3.97112e-06
2.62652e-06
2.00856e-06
1.66452e-06
1.44526e-06
1.29055e-06
1.17069e-06
1.07113e-06
9.83257e-07
8.98789e-07
8.08762e-07
7.13455e-07
6.33664e-07
5.87496e-07
5.467e-07
5.3479e-07
6.34218e-07
4.62224e-07
5.68874e-07
3.50451e-07
3.512e-07
3.08431e-07
1
1
1
1
1
1
1
1
1
1
1
1
1
1
1
1
1
1
1
0.999999
0.999998
0.999997
0.999994
0.999863
0.572692
0.00674112
4.67234e-06
5.73178e-06
3.74137e-06
2.6742e-06
2.13787e-06
1.81022e-06
1.58249e-06
1.4104e-06
1.27048e-06
1.1508e-06
1.0444e-06
9.4318e-07
8.38687e-07
7.31226e-07
6.39314e-07
5.78676e-07
5.15474e-07
4.78091e-07
7.23926e-07
3.65482e-07
5.35265e-07
2.91216e-07
3.1138e-07
2.56844e-07
1
1
1
1
1
1
1
1
1
1
1
1
1
1
1
1
1
1
1
0.999999
0.999998
0.999997
0.999996
0.99962
0.400006
0.0031693
4.51864e-06
4.51536e-06
3.52892e-06
2.71734e-06
2.23622e-06
1.91219e-06
1.67324e-06
1.49108e-06
1.34454e-06
1.21734e-06
1.10454e-06
9.97293e-07
8.83879e-07
7.75121e-07
6.77969e-07
6.06222e-07
5.33525e-07
4.80322e-07
4.40096e-07
3.71433e-07
3.34305e-07
3.12396e-07
3.07166e-07
2.6976e-07
1
1
1
1
1
1
1
1
1
1
1
1
1
1
1
1
1
1
1
0.999999
0.999998
0.999997
0.999997
0.996732
0.232122
0.00132214
4.62967e-06
3.78247e-06
3.39353e-06
2.78342e-06
2.34133e-06
2.02761e-06
1.79651e-06
1.6362e-06
1.52143e-06
1.41551e-06
1.34825e-06
1.30968e-06
1.16108e-06
1.04256e-06
9.1939e-07
8.18798e-07
7.26979e-07
6.55665e-07
5.84148e-07
5.4508e-07
4.88042e-07
4.67454e-07
4.54183e-07
4.43162e-07
1
1
1
1
1
1
1
1
1
1
1
1
1
1
1
1
1
1
0.999999
0.999999
0.999998
0.999997
0.999995
0.934345
0.140446
0.000735292
7.47109e-06
3.69714e-06
3.42468e-06
2.97121e-06
2.54296e-06
2.2148e-06
2.00719e-06
1.88415e-06
1.77642e-06
1.6376e-06
1.75124e-06
2.27108e-06
1.95681e-06
1.8025e-06
1.64649e-06
1.39549e-06
1.19091e-06
1.06086e-06
9.80211e-07
9.12943e-07
7.95264e-07
7.71584e-07
7.67638e-07
8.00412e-07
1
1
1
1
1
1
1
1
1
1
1
1
1
1
1
1
1
1
0.999999
0.999999
0.999998
0.999997
0.999987
0.894309
0.107429
0.000579494
7.63877e-06
3.68493e-06
3.62296e-06
3.22546e-06
2.76253e-06
2.19975e-06
2.02136e-06
1.88738e-06
1.46825e-06
2.54722e-06
1.46244e-06
3.53948e-06
2.56118e-06
2.31775e-06
3.11205e-06
2.61674e-06
1.69052e-06
1.39895e-06
1.24627e-06
1.17796e-06
8.66175e-07
1.048e-06
1.09833e-06
1.015e-06
1
1
1
1
1
1
1
1
1
1
1
1
1
1
1
1
1
1
0.999999
0.999999
0.999998
0.999997
0.999995
0.932507
0.152862
0.000822644
9.19398e-06
3.69451e-06
4.39687e-06
3.27744e-06
2.66655e-06
2.00809e-06
1.79138e-06
1.60099e-06
1.46625e-06
1.21875e-06
1.11738e-06
1.22517e-06
1.24041e-06
1.21232e-06
2.63848e-06
3.03918e-06
2.83034e-06
9.2844e-07
7.28739e-07
1.17926e-06
9.02426e-07
8.49427e-07
8.26436e-07
8.27586e-07
1
1
1
1
1
1
1
1
1
1
1
1
1
1
1
1
1
1
0.999999
0.999999
0.999998
0.999997
0.999998
0.999436
0.42478
0.0169463
0.000262208
1.40344e-05
5.99014e-06
3.32171e-06
1.63414e-06
1.628e-06
1.60263e-06
1.26525e-06
1.11747e-06
1.01518e-06
6.67941e-07
1.22655e-06
8.34322e-07
7.98251e-07
7.229e-07
6.64019e-07
6.03751e-07
6.1179e-07
4.79943e-07
6.83663e-07
9.08106e-07
6.08431e-07
6.25314e-07
6.08733e-07
1
1
1
1
1
1
1
1
1
1
1
1
1
1
1
1
1
1
1
1
0.999999
0.999999
0.999998
0.999999
0.999578
0.418284
0.0423672
0.00107116
0.00073765
3.78194e-05
6.88396e-06
1.6326e-06
1.6312e-06
7.80105e-07
7.50402e-07
6.81964e-07
5.81313e-07
3.8935e-07
3.91403e-07
3.739e-07
3.55371e-07
3.33116e-07
3.22667e-07
3.12439e-07
3.21682e-07
2.7664e-07
3.9819e-07
4.66319e-07
4.71773e-07
4.45476e-07
1
1
1
1
1
1
1
1
1
1
1
1
1
1
1
1
1
1
1
1
1
1
0.999999
0.999999
0.999998
0.999998
0.857992
0.0549663
0.0337621
0.00123859
0.00083053
3.37083e-06
2.32313e-06
7.25041e-07
6.78671e-07
6.08384e-07
4.36718e-07
3.86842e-07
2.87883e-07
2.25924e-07
1.86101e-07
1.61939e-07
1.62724e-07
1.62877e-07
1.61769e-07
1.62742e-07
1.68139e-07
1.77317e-07
1.86645e-07
1.92667e-07
1
1
1
1
1
1
1
1
1
1
1
1
1
1
1
1
1
1
1
1
1
1
1
1
1
0.999999
0.999998
0.999853
0.814642
0.0473301
0.0553073
0.00151226
0.00139829
1.38564e-06
1.57682e-06
1.79884e-06
7.66204e-07
7.0243e-07
4.5088e-07
3.96622e-07
2.7084e-07
1.57167e-07
1.47211e-07
1.35843e-07
1.10834e-07
8.42698e-08
6.37154e-08
5.18405e-08
4.51251e-08
4.14793e-08
1
1
1
1
1
1
1
1
1
1
1
1
1
1
1
1
1
1
1
1
1
1
1
1
1
1
1
0.999999
0.999982
0.999019
0.999366
0.602963
0.12471
0.0268953
0.00176843
0.00095955
3.78927e-05
4.90022e-06
6.40653e-06
7.80462e-07
5.65717e-07
2.44911e-07
2.50292e-07
2.88104e-07
2.45153e-07
1.74461e-07
1.05761e-07
6.40504e-08
3.81484e-08
2.26396e-08
1
1
1
1
1
1
1
1
1
1
1
1
1
1
1
1
1
1
1
1
1
1
1
1
1
1
1
1
0.999997
0.999998
0.999998
0.999952
0.984545
0.906916
0.330727
0.0512859
0.0192434
0.00127068
0.00109854
1.22662e-05
6.94042e-06
2.52386e-07
2.97289e-07
4.22425e-07
3.4223e-07
2.31631e-07
1.34142e-07
7.82557e-08
4.53141e-08
2.4224e-08
1
1
1
1
1
1
1
1
1
1
1
1
1
1
1
1
1
1
1
1
1
1
1
1
1
1
1
1
1
1
0.999999
0.999997
0.999999
0.999999
0.999855
0.967295
0.635297
0.107414
0.0522333
0.00203335
0.00176908
3.6586e-05
1.70064e-05
6.6839e-07
5.74453e-07
4.34915e-07
2.41715e-07
1.31337e-07
8.36983e-08
5.25459e-08
1
1
1
1
1
1
1
1
1
1
1
1
1
1
1
1
1
1
1
1
1
1
1
1
1
1
1
1
1
0.999999
0.999999
0.999999
0.999999
0.999996
0.999997
0.999999
0.999984
0.984019
0.908222
0.363231
0.0867026
0.0203144
0.00500268
0.000389911
0.000160846
1.55076e-06
9.27267e-07
3.76443e-07
2.54024e-07
1.99265e-07
1
1
1
1
1
1
1
1
1
1
1
1
1
1
1
1
1
1
1
1
1
1
1
1
1
1
0.999999
0.999999
0.999999
0.999999
0.999998
0.999998
0.999998
0.999998
0.999998
0.999999
0.999999
1
1
0.999952
0.966813
0.640771
0.202501
0.0597442
0.0176441
0.00158624
0.00041091
1.20188e-06
6.48115e-07
6.33306e-07
1
1
1
1
1
1
1
1
1
1
1
1
1
1
1
1
1
1
1
1
1
1
1
1
1
1
0.999999
0.999999
0.999999
0.999998
0.999997
0.999997
0.999997
0.999996
0.999997
0.999997
0.999998
0.999999
0.999999
1
1
1
0.978656
0.75927
0.330145
0.120953
0.0317632
0.00156492
0.000150504
1.3333e-06
1
1
1
1
1
1
1
1
1
1
1
1
1
1
1
1
1
1
1
1
1
1
1
1
1
1
0.999999
0.999999
0.999999
0.999998
0.999997
0.999997
0.999996
0.999996
0.999996
0.999996
0.999997
0.999998
0.999998
0.999999
0.999999
0.999999
1
0.999995
0.97542
0.82802
0.449014
0.136778
0.0164862
0.000402464
1
1
1
1
1
1
1
1
1
1
1
1
1
1
1
1
1
1
1
1
1
1
1
1
1
1
1
0.999999
0.999999
0.999999
0.999998
0.999998
0.999997
0.999997
0.999997
0.999997
0.999997
0.999998
0.999998
0.999998
0.999998
0.999997
0.999983
0.999943
0.999999
0.999994
0.986621
0.82395
0.277652
0.0387955
1
1
1
1
1
1
1
1
1
1
1
1
1
1
1
1
1
1
1
1
1
1
1
1
1
1
1
1
0.999999
0.999999
0.999999
0.999999
0.999999
0.999999
0.999999
0.999999
0.999999
0.999999
0.999998
0.999998
0.999996
0.999991
0.999913
0.999586
0.998496
0.992831
0.985192
0.978638
0.953452
0.619803
5.52824e-07
3.37245e-07
4.94125e-07
2.71617e-07
4.01105e-07
2.18624e-07
2.75355e-07
1.5875e-07
3.20975e-07
1.62945e-07
2.08424e-07
1.53247e-07
3.60198e-07
2.12282e-07
2.13442e-07
2.03548e-07
1.91431e-07
1.77727e-07
1.94516e-07
1.84223e-07
1.56177e-07
1.43449e-07
2.03558e-07
1.81548e-07
1.46786e-07
1.59251e-07
1.57766e-07
1.58532e-07
1.58741e-07
1.64864e-07
1.59204e-07
1.48804e-07
1.36973e-07
1.26624e-07
1.19405e-07
1.15301e-07
1.13563e-07
1.12866e-07
1.12587e-07
1.1071e-07
1.07441e-07
1.02398e-07
9.62815e-08
8.98684e-08
8.35979e-08
7.75347e-08
7.16146e-08
6.56815e-08
5.96705e-08
5.36089e-08
2.19193e-07
2.665e-07
2.69344e-07
2.28111e-07
2.04037e-07
1.9027e-07
1.65139e-07
1.53534e-07
1.12189e-07
1.12607e-07
9.55308e-08
8.53209e-08
1.81866e-07
1.76589e-07
1.66931e-07
1.65997e-07
1.60887e-07
1.47845e-07
1.95139e-07
1.75243e-07
1.47435e-07
9.36329e-08
2.54475e-07
1.49368e-07
9.48038e-08
1.68212e-07
1.54005e-07
1.51696e-07
1.48215e-07
1.87854e-07
1.78335e-07
1.68177e-07
1.56651e-07
1.44755e-07
1.35281e-07
1.29722e-07
1.28261e-07
1.2953e-07
1.35293e-07
1.38441e-07
1.40417e-07
1.36947e-07
1.31012e-07
1.24587e-07
1.18909e-07
1.13158e-07
1.07715e-07
1.01968e-07
9.55503e-08
8.85054e-08
2.17846e-07
2.22089e-07
1.90297e-07
1.84382e-07
1.61516e-07
1.52309e-07
1.37185e-07
1.26433e-07
1.14517e-07
1.04106e-07
9.43292e-08
8.61809e-08
8.03482e-08
8.76947e-08
9.74076e-08
1.03832e-07
1.02373e-07
7.3602e-08
2.09126e-07
1.09458e-07
9.64146e-08
8.89852e-08
5.9358e-08
1.66006e-07
8.87399e-08
8.13677e-08
8.47355e-08
9.52441e-08
7.18274e-08
2.37197e-07
1.36405e-07
1.40402e-07
1.39302e-07
1.33802e-07
1.27665e-07
1.23798e-07
1.23563e-07
1.25403e-07
1.42681e-07
1.49303e-07
1.68986e-07
1.5879e-07
1.48424e-07
1.39984e-07
1.40032e-07
1.33124e-07
1.29951e-07
1.27312e-07
1.23585e-07
1.17574e-07
4.18304e-07
3.79609e-07
3.3276e-07
2.92299e-07
2.59457e-07
2.32264e-07
2.09145e-07
1.88684e-07
1.69993e-07
1.52597e-07
1.36382e-07
1.21339e-07
1.07575e-07
9.56089e-08
8.61421e-08
7.93464e-08
7.20321e-08
7.1507e-08
6.59007e-08
6.27622e-08
5.96375e-08
5.6953e-08
5.56009e-08
4.92285e-08
5.16282e-08
5.60061e-08
6.0866e-08
6.53566e-08
6.8356e-08
7.09831e-08
8.69496e-08
9.81239e-08
1.01555e-07
1.01104e-07
1.00728e-07
1.02075e-07
1.05178e-07
1.00598e-07
1.48238e-07
1.12696e-07
2.96524e-07
1.53969e-07
1.38905e-07
1.21403e-07
2.32104e-07
1.18152e-07
1.19201e-07
1.90557e-07
1.27716e-07
1.33924e-07
8.68048e-07
9.00743e-07
8.02417e-07
6.80464e-07
5.83329e-07
5.04547e-07
4.45355e-07
3.99771e-07
3.62097e-07
3.28212e-07
2.96165e-07
2.64887e-07
2.34442e-07
2.04989e-07
1.77053e-07
1.51088e-07
1.27675e-07
1.07105e-07
8.94664e-08
7.47139e-08
6.2885e-08
5.3977e-08
4.78197e-08
4.40415e-08
4.21899e-08
4.18744e-08
4.28265e-08
4.48732e-08
4.78727e-08
5.1377e-08
5.48589e-08
5.81892e-08
6.18663e-08
6.6496e-08
7.21909e-08
7.86556e-08
8.35793e-08
9.90731e-08
1.01309e-07
1.09222e-07
9.07597e-08
2.29263e-07
1.19173e-07
1.20028e-07
1.09063e-07
1.10069e-07
2.14539e-07
1.20438e-07
1.59006e-07
1.08919e-07
1.1013e-06
1.392e-06
2.47194e-06
1.32609e-06
1.16231e-06
9.52692e-07
8.15726e-07
7.25014e-07
6.64372e-07
6.17719e-07
5.77244e-07
5.34965e-07
4.91086e-07
4.43983e-07
3.95517e-07
3.45699e-07
2.96767e-07
2.49717e-07
2.06392e-07
1.67537e-07
1.33968e-07
1.05866e-07
8.31924e-08
6.56585e-08
5.2728e-08
4.37653e-08
3.8133e-08
3.52247e-08
3.44867e-08
3.54391e-08
3.76789e-08
4.07468e-08
4.47269e-08
5.00738e-08
5.65569e-08
6.32357e-08
5.73727e-08
1.4059e-07
7.84519e-08
8.36581e-08
8.84809e-08
8.47932e-08
8.58417e-08
9.4133e-08
7.51899e-08
2.10804e-07
1.11833e-07
1.13716e-07
1.07802e-07
1.04142e-07
8.51734e-07
9.35669e-07
2.42684e-06
2.68163e-06
2.21989e-06
7.8223e-07
8.0957e-07
7.98207e-07
7.97082e-07
7.78366e-07
7.8288e-07
7.48519e-07
7.23439e-07
6.7006e-07
6.24488e-07
5.59198e-07
4.99083e-07
4.29148e-07
3.65512e-07
3.02251e-07
2.45672e-07
1.95177e-07
1.51891e-07
1.16564e-07
8.85339e-08
6.68359e-08
5.07341e-08
3.95842e-08
3.26613e-08
2.91535e-08
2.82529e-08
2.89449e-08
3.14955e-08
3.70188e-08
4.46322e-08
5.15442e-08
5.5883e-08
5.50939e-08
5.56741e-08
5.61943e-08
5.7099e-08
5.87088e-08
4.76022e-08
1.24924e-07
7.24952e-08
7.24136e-08
7.37262e-08
7.21301e-08
6.86386e-08
6.44496e-08
5.1651e-07
6.76057e-07
2.44181e-06
1.1606e-06
1.00257e-06
7.48298e-07
1.53883e-06
8.18945e-07
1.29976e-06
7.31572e-07
1.24148e-06
6.06314e-07
9.75246e-07
4.75297e-07
7.43116e-07
3.58678e-07
5.29416e-07
2.51381e-07
2.98173e-07
2.09148e-07
1.78883e-07
1.37298e-07
1.02802e-07
8.43898e-08
7.10887e-08
5.73489e-08
4.42297e-08
3.37945e-08
2.6852e-08
2.31245e-08
2.18941e-08
2.25445e-08
2.4563e-08
2.74998e-08
3.08317e-08
3.39521e-08
3.65164e-08
3.8669e-08
4.07501e-08
4.28106e-08
4.45723e-08
4.56422e-08
4.56127e-08
4.1162e-08
3.77799e-08
3.43976e-08
3.16797e-08
2.96054e-08
2.75997e-08
2.49891e-08
4.20706e-07
2.8579e-07
8.33093e-07
5.38095e-07
3.10106e-07
7.44754e-07
6.08176e-07
1.09704e-06
4.50335e-07
7.2447e-07
3.39452e-07
4.49542e-07
3.12823e-07
2.79331e-07
2.34689e-07
2.26895e-07
1.84256e-07
1.55436e-07
1.18966e-07
9.82124e-08
7.89753e-08
6.40926e-08
4.93558e-08
3.64051e-08
2.63704e-08
1.95609e-08
1.56301e-08
1.39151e-08
1.36817e-08
1.42983e-08
1.52569e-08
1.62822e-08
1.74837e-08
1.91106e-08
2.10766e-08
2.28929e-08
2.40315e-08
2.41401e-08
2.30047e-08
2.0523e-08
1.73284e-08
1.46758e-08
1.3111e-08
1.204e-08
1.07613e-08
8.97388e-09
6.81451e-09
4.64939e-09
2.81374e-09
1.5171e-09
1.94381e-07
1.92789e-07
1.88086e-07
1.78882e-07
1.66536e-07
1.58515e-07
1.52572e-07
1.36362e-07
1.3798e-07
1.25467e-07
1.16366e-07
1.01411e-07
8.87614e-08
7.59875e-08
6.62954e-08
5.68642e-08
4.69845e-08
3.67309e-08
2.74101e-08
1.97892e-08
1.41399e-08
1.03663e-08
8.15694e-09
7.11484e-09
6.85145e-09
7.04777e-09
7.4842e-09
8.00938e-09
8.50784e-09
8.84202e-09
8.85777e-09
8.48296e-09
7.81465e-09
7.06887e-09
6.39777e-09
5.81715e-09
5.23121e-09
4.53325e-09
3.70163e-09
2.82067e-09
2.02761e-09
1.42703e-09
1.03303e-09
7.86158e-10
6.14182e-10
4.69501e-10
3.35469e-10
2.16383e-10
1.22309e-10
5.88237e-11
3.94455e-08
3.80445e-08
3.66388e-08
3.48877e-08
3.26909e-08
3.00811e-08
2.71425e-08
2.39749e-08
2.06824e-08
1.73762e-08
1.41805e-08
1.12271e-08
8.63759e-09
6.49786e-09
4.84055e-09
3.64399e-09
2.84512e-09
2.35807e-09
2.09109e-09
1.9601e-09
1.89704e-09
1.85309e-09
1.79815e-09
1.7181e-09
1.61059e-09
1.48029e-09
1.33435e-09
1.17975e-09
1.02338e-09
8.73474e-10
7.39952e-10
6.32319e-10
5.53633e-10
4.8913e-10
4.3535e-10
3.85306e-10
3.31994e-10
2.72513e-10
2.09929e-10
1.50816e-10
1.01833e-10
6.63256e-11
4.34295e-11
2.96272e-11
2.10728e-11
1.50375e-11
1.02098e-11
6.28995e-12
3.36871e-12
1.47946e-12
1.40166e-08
9.7618e-09
7.81878e-09
6.73218e-09
5.81886e-09
4.89446e-09
3.9617e-09
3.0757e-09
2.29195e-09
1.64705e-09
1.15291e-09
7.99665e-10
5.63137e-10
4.13297e-10
3.21211e-10
2.63322e-10
2.23087e-10
1.90619e-10
1.61226e-10
1.33623e-10
1.08298e-10
8.62756e-11
6.83212e-11
5.45708e-11
4.45161e-11
3.72392e-11
3.17455e-11
2.72425e-11
2.32673e-11
1.9659e-11
1.64397e-11
1.3685e-11
1.14373e-11
9.67419e-12
8.3206e-12
7.28165e-12
6.45265e-12
5.61753e-12
4.5033e-12
3.31225e-12
2.2523e-12
1.44568e-12
9.09172e-13
5.85281e-13
3.93721e-13
2.69811e-13
1.78117e-13
1.06915e-13
5.52558e-14
2.27846e-14
1.14243e-08
4.768e-09
1.86657e-09
7.71437e-10
3.49814e-10
1.71243e-10
8.76422e-11
4.72495e-11
2.75103e-11
1.75513e-11
1.21591e-11
8.8937e-12
6.66694e-12
5.02401e-12
3.78124e-12
2.85285e-12
2.17826e-12
1.69984e-12
1.36238e-12
1.11854e-12
9.33218e-13
7.84168e-13
6.59462e-13
5.53457e-13
4.63169e-13
3.86145e-13
3.1988e-13
2.62151e-13
2.11515e-13
1.67463e-13
1.30111e-13
9.96343e-14
7.57758e-14
5.77113e-14
4.43121e-14
3.46022e-14
2.80895e-14
2.46007e-14
2.33203e-14
2.19805e-14
1.77302e-14
1.27046e-14
8.4862e-15
5.58834e-15
3.76031e-15
2.55826e-15
1.67322e-15
9.89752e-16
4.97518e-16
1.94256e-16
2.90301e-08
1.37289e-08
5.58733e-09
2.27473e-09
9.80071e-10
4.54582e-10
2.11777e-10
9.56098e-11
4.17378e-11
1.75507e-11
7.07225e-12
2.71901e-12
9.99586e-13
3.59661e-13
1.36212e-13
6.19955e-14
3.69011e-14
2.66679e-14
2.0759e-14
1.63038e-14
1.26147e-14
9.54002e-15
7.03396e-15
5.05658e-15
3.55316e-15
2.4531e-15
1.67648e-15
1.14369e-15
7.84322e-16
5.42556e-16
3.78256e-16
2.64773e-16
1.85218e-16
1.28901e-16
8.88079e-17
6.01755e-17
3.97453e-17
2.53108e-17
1.53582e-17
8.7819e-18
4.70326e-18
2.39169e-18
1.25104e-18
8.17534e-19
7.36447e-19
7.37504e-19
6.58058e-19
4.82352e-19
2.83158e-19
1.24503e-19
1.36656e-07
7.68008e-08
3.34492e-08
1.4128e-08
6.23887e-09
3.11787e-09
1.60381e-09
7.98022e-10
3.83663e-10
1.77585e-10
7.86313e-11
3.30024e-11
1.29855e-11
4.73243e-12
1.5777e-12
4.75274e-13
1.279e-13
3.04785e-14
6.44168e-15
1.26404e-15
2.80955e-16
1.01021e-16
5.70238e-17
3.70397e-17
2.4217e-17
1.54896e-17
9.63928e-18
5.82624e-18
3.41707e-18
1.94358e-18
1.07196e-18
5.7357e-19
2.9809e-19
1.50799e-19
7.44915e-20
3.60673e-20
1.71745e-20
8.0519e-21
3.70409e-21
1.65645e-21
7.09614e-22
2.86253e-22
1.06985e-22
3.65609e-23
1.12969e-23
3.11506e-24
7.5202e-25
1.54616e-25
2.62469e-26
3.67576e-27
5.80836e-07
4.13194e-07
1.9294e-07
8.42533e-08
3.64542e-08
1.90164e-08
1.06859e-08
5.79201e-09
3.03232e-09
1.5307e-09
7.41214e-10
3.41324e-10
1.47798e-10
5.94172e-11
2.18822e-11
7.28441e-12
2.16349e-12
5.66107e-13
1.28932e-13
2.52735e-14
4.22734e-15
5.98963e-16
7.15501e-17
7.31883e-18
7.44604e-19
1.34507e-19
5.39815e-20
2.71639e-20
1.37031e-20
6.72668e-21
3.20031e-21
1.47254e-21
6.53723e-22
2.79235e-22
1.14398e-22
4.47915e-23
1.66949e-23
5.89773e-24
1.96522e-24
6.14388e-25
1.79135e-25
4.8378e-26
1.20046e-26
2.71027e-27
5.49767e-28
9.84897e-29
1.51904e-29
1.93329e-30
1.86987e-31
1.11512e-32
2.08555e-06
2.07522e-06
1.01295e-06
4.65878e-07
1.87135e-07
9.72761e-08
5.97518e-08
3.5208e-08
2.00102e-08
1.09802e-08
5.79957e-09
2.92626e-09
1.39474e-09
6.19517e-10
2.52726e-10
9.33008e-11
3.07301e-11
8.90843e-12
2.24393e-12
4.85253e-13
8.92213e-14
1.38292e-14
1.7912e-15
1.92023e-16
1.68465e-17
1.19326e-18
6.74643e-20
3.21194e-21
2.41207e-22
6.79825e-23
2.82762e-23
1.16391e-23
4.59621e-24
1.73466e-24
6.2378e-25
2.12999e-25
6.88021e-26
2.09337e-26
5.9702e-27
1.58702e-27
3.90624e-28
8.83301e-29
1.81756e-29
3.36293e-30
5.50918e-31
7.824e-32
9.33766e-33
8.89786e-34
6.1282e-35
2.34709e-36
1.04612e-05
8.85876e-06
3.70894e-06
2.0343e-06
7.6509e-07
3.80404e-07
2.6347e-07
1.72697e-07
1.08454e-07
6.55742e-08
3.81972e-08
2.13305e-08
1.13069e-08
5.6111e-09
2.56521e-09
1.06241e-09
3.92208e-10
1.2713e-10
3.56819e-11
8.56072e-12
1.7369e-12
2.95301e-13
4.17044e-14
4.84701e-15
4.58479e-16
3.48023e-17
2.08117e-18
9.55948e-20
3.25177e-21
7.73357e-23
1.15851e-24
8.49762e-27
1.3382e-29
1.41864e-31
2.4381e-32
4.07419e-33
6.39839e-34
9.03055e-35
1.07745e-35
1.02207e-36
7.16791e-38
3.27588e-39
7.7179e-41
1.33383e-42
1.67123e-43
1.77945e-44
1.54551e-45
1.02639e-46
4.63254e-48
1.06593e-49
0.00320555
0.000342487
1.94608e-05
6.33139e-06
2.61784e-06
1.15893e-06
9.54613e-07
7.21399e-07
5.11279e-07
3.43641e-07
2.20961e-07
1.36175e-07
8.00404e-08
4.43409e-08
2.27563e-08
1.06088e-08
4.40638e-09
1.60219e-09
5.02177e-10
1.33815e-10
2.99591e-11
5.58031e-12
8.57229e-13
1.07631e-13
1.0928e-14
8.84941e-16
5.61027e-17
2.71298e-18
9.62892e-20
2.35671e-21
3.53408e-23
2.36804e-25
2.58994e-28
5.00527e-32
4.63136e-35
1.1897e-38
2.56238e-45
3.32644e-48
1.12833e-51
2.49819e-57
7.16237e-63
1.06167e-65
2.37916e-75
1.05235e-77
4.65284e-80
2.03296e-82
8.67242e-85
3.58435e-87
1.42691e-89
5.09771e-92
0.0852381
0.00477023
0.000419389
8.75522e-05
2.64362e-05
5.08523e-06
4.79971e-06
4.07427e-06
3.10813e-06
2.19406e-06
1.46672e-06
9.40863e-07
5.81483e-07
3.43886e-07
1.91189e-07
9.75358e-08
4.45354e-08
1.78058e-08
6.12199e-09
1.78294e-09
4.3425e-10
8.75152e-11
1.44611e-11
1.94161e-12
2.09584e-13
1.79373e-14
1.19406e-15
6.0142e-17
2.19744e-18
5.42398e-20
7.81458e-22
4.16438e-24
3.1438e-27
4.89606e-31
4.28188e-34
1.08677e-37
2.30576e-44
2.95961e-47
9.92059e-51
2.16933e-56
1.04864e-69
4.55974e-72
1.98443e-74
8.67127e-77
3.78757e-79
1.63491e-81
6.88992e-84
2.81301e-86
1.1064e-88
3.91737e-91
5.03178e-08
4.70124e-08
4.3696e-08
4.03836e-08
3.70814e-08
3.38057e-08
3.05688e-08
2.73931e-08
2.43003e-08
2.13183e-08
1.84745e-08
1.57974e-08
1.33128e-08
1.1043e-08
9.00474e-09
7.20835e-09
5.6568e-09
4.34562e-09
3.26316e-09
2.39157e-09
1.70818e-09
1.18724e-09
8.01741e-10
5.25253e-10
3.33336e-10
2.04606e-10
1.21287e-10
6.93281e-11
3.81543e-11
2.0186e-11
1.0251e-11
4.9892e-12
2.3237e-12
1.03408e-12
4.39027e-13
1.77559e-13
6.83055e-14
2.49565e-14
8.64738e-15
2.83739e-15
8.80349e-16
2.57905e-16
7.12372e-17
1.85256e-17
4.52928e-18
1.03958e-18
2.23684e-19
4.50543e-20
8.48265e-21
1.4907e-21
2.44158e-22
3.72156e-23
5.27096e-24
6.92612e-25
8.43004e-26
9.48832e-27
9.85877e-28
9.43953e-29
8.31292e-30
6.71996e-31
4.97588e-32
3.36729e-33
2.07749e-34
1.16547e-35
5.9281e-37
2.72531e-38
1.12846e-39
4.19227e-41
1.39129e-42
4.10453e-44
1.07044e-45
2.45205e-47
4.89698e-49
8.45187e-51
1.2476e-52
1.5553e-54
1.6122e-56
1.36266e-58
9.15571e-61
4.72592e-63
1.78531e-65
4.58303e-68
7.08217e-71
6.1113e-74
2.55784e-77
6.81242e-82
0
0
0
0
0
0
0
0
0
0
0
0
0
0
0
0
0
0
0
0
0
0
0
0
0
0
0
0
0
0
0
0
0
0
0
0
0
0
0
0
0
0
0
0
0
0
0
0
0
0
0
0
0
0
0
0
0
0
0
0
0
0
0
0
0
0
0
0
0
0
0
0
0
0
0
0
0
0
0
0
0
0
0
0
0
0
0
0
0
0
0
0
0
0
0
0
0
0
0
0
0
0
0
0
0
0
0
0
0
0
0
0
0
0
0
0
0
0
0
0
0
0
0
0
0
0
0
0
0
0
0
0
0
0
0
0
0
0
0
0
0
0
0
0
0
0
0
0
0
0
0
0
0
0
0
0
0
0
0
0
0
0
0
0
0
0
0
0
0
0
0
0
0
0
0
0
0
0
0
0
0
0
0
0
0
0
0
0
0
0
0
0
0
0
0
0
0
0
0
0
0
0
0
0
0
0
0
0
0
0
0
0
0
0
8.45656e-08
8.05203e-08
7.62641e-08
7.19694e-08
6.7527e-08
6.30392e-08
5.84087e-08
5.37349e-08
4.89666e-08
4.41993e-08
3.9438e-08
3.4764e-08
3.02259e-08
2.58904e-08
2.1819e-08
1.80666e-08
1.46773e-08
1.16815e-08
9.09455e-09
6.91554e-09
5.12816e-09
3.70266e-09
2.59902e-09
1.77082e-09
1.16934e-09
7.47201e-10
4.61314e-10
2.74758e-10
1.57626e-10
8.69692e-11
4.60777e-11
2.34065e-11
1.13825e-11
5.29083e-12
2.34713e-12
9.92235e-13
3.99119e-13
1.52527e-13
5.5297e-14
1.89899e-14
6.16835e-15
1.89237e-15
5.47526e-16
1.49187e-16
3.82264e-17
9.19751e-18
2.07505e-18
4.3834e-19
8.65738e-20
1.59633e-20
2.74396e-21
4.3904e-22
6.52893e-23
9.00988e-24
1.15198e-24
1.36241e-25
1.48789e-26
1.49786e-27
1.38742e-28
1.18015e-29
9.19956e-31
6.55769e-32
4.26454e-33
2.5237e-34
1.35538e-35
6.58645e-37
2.88661e-38
1.13685e-39
4.00727e-41
1.25854e-42
3.5038e-44
8.59689e-46
1.84656e-47
3.44526e-49
5.53265e-51
7.56396e-53
8.68807e-55
8.24845e-57
6.34125e-59
3.84392e-61
1.77271e-63
5.91248e-66
1.31982e-68
1.72308e-71
9.73943e-75
6.01102e-79
0
0
0
0
0
0
0
0
0
0
0
0
0
0
0
0
0
0
0
0
0
0
0
0
0
0
0
0
0
0
0
0
0
0
0
0
0
0
0
0
0
0
0
0
0
0
0
0
0
0
0
0
0
0
0
0
0
0
0
0
0
0
0
0
0
0
0
0
0
0
0
0
0
0
0
0
0
0
0
0
0
0
0
0
0
0
0
0
0
0
0
0
0
0
0
0
0
0
0
0
0
0
0
0
0
0
0
0
0
0
0
0
0
0
0
0
0
0
0
0
0
0
0
0
0
0
0
0
0
0
0
0
0
0
0
0
0
0
0
0
0
0
0
0
0
0
0
0
0
0
0
0
0
0
0
0
0
0
0
0
0
0
0
0
0
0
0
0
0
0
0
0
0
0
0
0
0
0
0
0
0
0
0
0
0
0
0
0
0
0
0
0
0
0
0
0
0
0
0
0
0
0
0
0
0
0
0
0
0
0
0
0
0
0
1.14552e-07
1.11594e-07
1.06221e-07
1.02235e-07
9.68325e-08
9.2598e-08
8.68508e-08
8.20812e-08
7.59236e-08
7.05e-08
6.41163e-08
5.81233e-08
5.18509e-08
4.56096e-08
3.94577e-08
3.35521e-08
2.80079e-08
2.29177e-08
1.83536e-08
1.43631e-08
1.09665e-08
8.15626e-09
5.89966e-09
4.14375e-09
2.82167e-09
1.8599e-09
1.18485e-09
7.28382e-10
4.31417e-10
2.45814e-10
1.34528e-10
7.06058e-11
3.5483e-11
1.70482e-11
7.81895e-12
3.41791e-12
1.42185e-12
5.62036e-13
2.10784e-13
7.48898e-14
2.51692e-14
7.98972e-15
2.39203e-15
6.74428e-16
1.78813e-16
4.45158e-17
1.03907e-17
2.27066e-18
4.63857e-19
8.8449e-20
1.57188e-20
2.59955e-21
3.99433e-22
5.69331e-23
7.51527e-24
9.17166e-25
1.03303e-25
1.07187e-26
1.02261e-27
8.95232e-29
7.1763e-30
5.25556e-31
3.50784e-32
2.12827e-33
1.17045e-34
5.81669e-36
2.60327e-37
1.04532e-38
3.75006e-40
1.19625e-41
3.37489e-43
8.36851e-45
1.81069e-46
3.38958e-48
5.43396e-50
7.36827e-52
8.3215e-54
7.67584e-56
5.63647e-58
3.18184e-60
1.31305e-62
3.66079e-65
5.98272e-68
4.08659e-71
1.59855e-75
0
0
0
0
0
0
0
0
0
0
0
0
0
0
0
0
0
0
0
0
0
0
0
0
0
0
0
0
0
0
0
0
0
0
0
0
0
0
0
0
0
0
0
0
0
0
0
0
0
0
0
0
0
0
0
0
0
0
0
0
0
0
0
0
0
0
0
0
0
0
0
0
0
0
0
0
0
0
0
0
0
0
0
0
0
0
0
0
0
0
0
0
0
0
0
0
0
0
0
0
0
0
0
0
0
0
0
0
0
0
0
0
0
0
0
0
0
0
0
0
0
0
0
0
0
0
0
0
0
0
0
0
0
0
0
0
0
0
0
0
0
0
0
0
0
0
0
0
0
0
0
0
0
0
0
0
0
0
0
0
0
0
0
0
0
0
0
0
0
0
0
0
0
0
0
0
0
0
0
0
0
0
0
0
0
0
0
0
0
0
0
0
0
0
0
0
0
0
0
0
0
0
0
0
0
0
0
0
0
0
0
0
0
0
0
1.30661e-07
1.51183e-07
1.11098e-07
1.32966e-07
1.01292e-07
1.22608e-07
9.15345e-08
1.10667e-07
8.07867e-08
9.6192e-08
6.91742e-08
7.45422e-08
6.28103e-08
5.95168e-08
5.27602e-08
4.55899e-08
3.86348e-08
3.2092e-08
2.60904e-08
2.07271e-08
1.60645e-08
1.21274e-08
8.90317e-09
6.346e-09
4.38472e-09
2.93213e-09
1.89469e-09
1.18119e-09
7.09328e-10
4.09668e-10
2.2719e-10
1.2079e-10
6.14718e-11
2.98972e-11
1.38743e-11
6.13388e-12
2.57938e-12
1.03008e-12
3.90053e-13
1.39827e-13
4.73806e-14
1.51521e-14
4.56594e-15
1.29448e-15
3.44733e-16
8.61009e-17
2.01362e-17
4.40236e-18
8.98293e-19
1.70783e-19
3.02004e-20
4.9585e-21
7.54496e-22
1.06193e-22
1.37975e-23
1.65138e-24
1.81663e-25
1.83244e-26
1.69056e-27
1.4226e-28
1.08869e-29
7.5526e-31
4.73283e-32
2.66859e-33
1.34799e-34
6.07031e-36
2.42346e-37
8.52294e-39
2.62094e-40
6.98646e-42
1.59764e-43
3.09493e-45
5.00031e-47
6.60582e-49
6.95348e-51
5.63033e-53
3.33373e-55
1.33375e-57
3.13041e-60
3.08791e-63
2.06176e-67
3.42376e-314
0
0
0
0
0
0
0
0
0
0
0
0
0
0
0
0
0
0
0
0
0
0
0
0
0
0
0
0
0
0
0
0
0
0
0
0
0
0
0
0
0
0
0
0
0
0
0
0
0
0
0
0
0
0
0
0
0
0
0
0
0
0
0
0
0
0
0
0
0
0
0
0
0
0
0
0
0
0
0
0
0
0
0
0
0
0
0
0
0
0
0
0
0
0
0
0
0
0
0
0
0
0
0
0
0
0
0
0
0
0
0
0
0
0
0
0
0
0
0
0
0
0
0
0
0
0
0
0
0
0
0
0
0
0
0
0
0
0
0
0
0
0
0
0
0
0
0
0
0
0
0
0
0
0
0
0
0
0
0
0
0
0
0
0
0
0
0
0
0
0
0
0
0
0
0
0
0
0
0
0
0
0
0
0
0
0
0
0
0
0
0
0
0
0
0
0
0
0
0
0
0
0
0
0
0
0
0
0
0
0
0
0
0
0
0
0
0
0
1.47919e-07
1.02884e-07
1.37591e-07
9.52271e-08
1.26884e-07
8.79162e-08
1.16207e-07
8.0016e-08
1.03854e-07
7.03324e-08
8.7482e-08
5.99543e-08
6.29275e-08
5.83191e-08
5.14173e-08
4.42445e-08
3.73015e-08
3.07854e-08
2.48333e-08
1.95464e-08
1.49869e-08
1.11747e-08
8.08913e-09
5.67519e-09
3.85242e-09
2.52594e-09
1.59701e-09
9.71924e-10
5.68382e-10
3.18832e-10
1.71245e-10
8.79057e-11
4.30485e-11
2.00737e-11
8.89614e-12
3.73973e-12
1.4883e-12
5.59609e-13
1.98397e-13
6.61813e-14
2.07279e-14
6.08198e-15
1.6681e-15
4.26657e-16
1.01525e-16
2.24198e-17
4.58287e-18
8.64839e-19
1.50251e-19
2.39623e-20
3.49737e-21
4.65657e-22
5.63667e-23
6.18069e-24
6.11528e-25
5.43663e-26
4.32292e-27
3.05882e-28
1.91516e-29
1.05428e-30
5.06577e-32
2.10667e-33
7.50728e-35
2.26518e-36
5.70271e-38
1.17596e-39
1.93917e-41
2.47569e-43
2.33674e-45
1.51907e-47
6.01174e-50
1.10093e-52
2.52973e-56
7.06159e-292
6.17673e-295
5.31828e-298
4.51833e-301
3.8028e-304
3.18996e-307
2.68966e-310
2.2798e-313
3.44616e-314
0
0
0
0
0
0
0
0
0
0
0
0
0
0
0
0
0
0
0
0
0
0
0
0
0
0
0
0
0
0
0
0
0
0
0
0
0
0
0
0
0
0
0
0
0
0
0
0
0
0
0
0
0
0
0
0
0
0
0
0
0
0
0
0
0
0
0
0
0
0
0
0
0
0
0
0
0
0
0
0
0
0
0
0
0
0
0
0
0
0
0
0
0
0
0
0
0
0
0
0
0
0
0
0
0
0
0
0
0
0
0
0
0
0
0
0
0
0
0
0
0
0
0
0
0
0
0
0
0
0
0
0
0
0
0
0
0
0
0
0
0
0
0
0
0
0
0
0
0
0
0
0
0
0
0
0
0
0
0
0
0
0
0
0
0
0
0
0
0
0
0
0
0
0
0
0
0
0
0
0
0
0
0
0
0
0
0
0
0
0
0
0
0
0
0
0
0
0
0
0
0
0
0
0
0
0
0
0
0
0
0
0
0
0
0
0
0
0
9.94786e-08
9.65012e-08
9.13631e-08
8.85057e-08
8.38878e-08
8.12673e-08
7.67927e-08
7.3558e-08
6.84703e-08
6.40247e-08
5.82341e-08
5.26578e-08
4.65576e-08
4.03545e-08
3.42752e-08
2.84848e-08
2.31226e-08
1.82999e-08
1.40939e-08
1.05427e-08
7.64485e-09
5.36325e-09
3.6329e-09
2.37107e-09
1.48789e-09
8.95696e-10
5.16057e-10
2.83865e-10
1.48689e-10
7.39624e-11
3.48393e-11
1.54937e-11
6.48504e-12
2.54645e-12
9.3489e-13
3.19795e-13
1.01553e-13
2.98249e-14
8.06906e-15
2.0028e-15
4.54097e-16
9.36248e-17
1.747e-17
2.93539e-18
4.41769e-19
5.92126e-20
7.02554e-21
7.33063e-22
6.67856e-23
5.27046e-24
3.57054e-25
2.05506e-26
9.92587e-28
3.96302e-29
1.28336e-30
3.288e-32
6.44103e-34
9.18076e-36
8.80462e-38
4.93528e-40
1.16199e-42
1.19851e-46
1.90124e-259
2.0249e-262
2.12672e-265
2.2009e-268
2.24287e-271
2.2498e-274
2.22103e-277
2.15842e-280
2.06648e-283
1.95251e-286
1.82653e-289
1.70114e-292
1.59112e-295
1.51288e-298
1.48354e-301
1.51958e-304
1.63514e-307
1.83975e-310
2.2388e-313
2.9084e-314
1.80966e-314
0
0
0
0
0
0
0
0
0
0
0
0
0
0
0
0
0
0
0
0
0
0
0
0
0
0
0
0
0
0
0
0
0
0
0
0
0
0
0
0
0
0
0
0
0
0
0
0
0
0
0
0
0
0
0
0
0
0
0
0
0
0
0
0
0
0
0
0
0
0
0
0
0
0
0
0
0
0
0
0
0
0
0
0
0
0
0
0
0
0
0
0
0
0
0
0
0
0
0
0
0
0
0
0
0
0
0
0
0
0
0
0
0
0
0
0
0
0
0
0
0
0
0
0
0
0
0
0
0
0
0
0
0
0
0
0
0
0
0
0
0
0
0
0
0
0
0
0
0
0
0
0
0
0
0
0
0
0
0
0
0
0
0
0
0
0
0
0
0
0
0
0
0
0
0
0
0
0
0
0
0
0
0
0
0
0
0
0
0
0
0
0
0
0
0
0
0
0
0
0
0
0
0
0
0
0
0
0
0
0
0
0
0
0
0
0
0
6.20758e-08
5.96213e-08
5.70086e-08
5.41429e-08
5.09622e-08
4.74465e-08
4.36081e-08
3.94857e-08
3.51471e-08
3.06896e-08
2.6232e-08
2.19007e-08
1.78166e-08
1.40851e-08
1.07887e-08
7.98127e-09
5.68335e-09
3.88183e-09
2.53371e-09
1.57416e-09
9.26957e-10
5.14969e-10
2.68572e-10
1.30814e-10
5.91927e-11
2.47523e-11
9.51405e-12
3.34264e-12
1.06705e-12
3.07509e-13
7.9462e-14
1.8283e-14
3.7183e-15
6.63069e-16
1.02702e-16
1.36578e-17
1.53735e-18
1.43922e-19
1.09624e-20
6.59992e-22
3.01081e-23
9.68337e-25
1.87869e-26
1.26668e-28
1.60237e-31
6.80518e-34
1.89025e-36
2.63264e-39
4.70617e-42
3.30638e-45
8.13841e-50
4.76298e-57
1.19215e-231
1.4445e-234
1.73642e-237
2.07274e-240
2.45817e-243
2.89637e-246
3.38896e-249
3.93448e-252
4.52743e-255
5.15815e-258
5.81503e-261
6.48417e-264
7.14992e-267
7.80701e-270
8.46918e-273
9.1862e-276
1.00704e-278
1.13354e-281
1.33525e-284
1.67244e-287
2.23788e-290
3.16733e-293
4.6494e-296
6.93129e-299
1.03196e-301
1.51698e-304
2.18583e-307
3.07336e-310
4.22304e-313
2.2586e-314
2.23311e-314
0
0
0
0
0
0
0
0
0
0
0
0
0
0
0
0
0
0
0
0
0
0
0
0
0
0
0
0
0
0
0
0
0
0
0
0
0
0
0
0
0
0
0
0
0
0
0
0
0
0
0
0
0
0
0
0
0
0
0
0
0
0
0
0
0
0
0
0
0
0
0
0
0
0
0
0
0
0
0
0
0
0
0
0
0
0
0
0
0
0
0
0
0
0
0
0
0
0
0
0
0
0
0
0
0
0
0
0
0
0
0
0
0
0
0
0
0
0
0
0
0
0
0
0
0
0
0
0
0
0
0
0
0
0
0
0
0
0
0
0
0
0
0
0
0
0
0
0
0
0
0
0
0
0
0
0
0
0
0
0
0
0
0
0
0
0
0
0
0
0
0
0
0
0
0
0
0
0
0
0
0
0
0
0
0
0
0
0
0
0
0
0
0
0
0
0
0
0
0
0
0
0
0
0
0
0
0
0
0
0
0
0
0
0
0
0
0
2.32293e-08
2.11238e-08
1.87096e-08
1.60995e-08
1.34367e-08
1.08513e-08
8.447e-09
6.30787e-09
4.49761e-09
3.04938e-09
1.95857e-09
1.18708e-09
6.75955e-10
3.59785e-10
1.77966e-10
8.12755e-11
3.39961e-11
1.29155e-11
4.42975e-12
1.36741e-12
3.79855e-13
9.68745e-14
2.2743e-14
4.82168e-15
2.06313e-15
1.73603e-15
1.28711e-15
7.49565e-16
3.56316e-16
1.42041e-16
4.80795e-17
1.38902e-17
3.4284e-18
7.21791e-19
1.2898e-19
1.94154e-20
2.4322e-21
2.49857e-22
2.06383e-23
1.33575e-24
6.51924e-26
2.24401e-27
4.70973e-29
3.74447e-31
6.74266e-34
3.0894e-36
9.1975e-39