/*--------------------------------*- C++ -*----------------------------------*\
| =========                 |                                                 |
| \\      /  F ield         | OpenFOAM: The Open Source CFD Toolbox           |
|  \\    /   O peration     | Version:  2.4.0                                 |
|   \\  /    A nd           | Web:      www.OpenFOAM.org                      |
|    \\/     M anipulation  |                                                 |
\*---------------------------------------------------------------------------*/
FoamFile
{
    version     2.0;
    format      ascii;
    class       volScalarField;
    location    "0.8";
    object      H;
}
// * * * * * * * * * * * * * * * * * * * * * * * * * * * * * * * * * * * * * //

dimensions      [0 2 -2 0 0 0 0];

internalField   nonuniform List<scalar> 
8000
(
-11907.8
-11264.3
-10623.9
-9988.7
-9360.84
-8742.45
-8135.57
-7542.08
-6963.71
-6401.93
-5857.97
-5332.7
-4826.67
-4339.99
-3872.34
-3422.95
-2990.67
-2574.02
-2171.42
-1781.44
-1403.14
-1036.34
-681.769
-341.059
-3.81668
-3.21047
-2.63903
-2.4976
-2.36242
-2.23319
-2.10936
-1.99044
-1.87601
-1.76568
-1.6591
-1.55595
-1.45596
-1.35885
-1.26441
-1.17242
-1.08271
-0.99511
-0.909497
-0.825754
-0.743789
-0.663522
-0.584897
-0.507862
-0.432389
-0.358453
-11907
-11261.8
-10619.5
-9982.2
-9351.91
-8730.79
-8120.88
-7524.12
-6942.26
-6376.85
-5829.15
-5300.09
-4790.26
-4299.82
-3828.56
-3375.83
-2940.7
-2522
-2118.55
-1729.31
-1353.56
-990.91
-641.148
-303.835
-3.9869
-3.17992
-2.71266
-2.54236
-2.38103
-2.22791
-2.08217
-1.94309
-1.81006
-1.68256
-1.56013
-1.44237
-1.32894
-1.21952
-1.11383
-1.01163
-0.91269
-0.816821
-0.723846
-0.633608
-0.545972
-0.460808
-0.37802
-0.297504
-0.21918
-0.142971
-11905.7
-11257.9
-10612.8
-9972.32
-9338.62
-8713.79
-8099.9
-7498.96
-6912.79
-6342.99
-5790.92
-5257.58
-4743.65
-4249.38
-3774.67
-3319.02
-2881.65
-2461.58
-2057.66
-1668.61
-1292.82
-927.947
-570.05
-212.488
-3.5897
-2.74532
-2.45216
-2.30935
-2.17156
-2.03758
-1.9068
-1.77899
-1.65415
-1.53235
-1.41366
-1.29814
-1.1858
-1.07663
-0.970576
-0.867579
-0.76756
-0.670429
-0.576091
-0.484449
-0.395403
-0.308853
-0.224722
-0.142998
-0.0635979
0.0135544
-11904
-11252.7
-10603.9
-9959.59
-9321.74
-8692.52
-8074.06
-7468.43
-6877.54
-6303.09
-5746.52
-5208.94
-4691.08
-4193.32
-3715.62
-3257.57
-2818.39
-2396.91
-1991.41
-1599.25
-1215.97
-833.329
-435.687
-4.02269
-0.108747
-0.36928
-0.694187
-0.947131
-1.11785
-1.21719
-1.26029
-1.26184
-1.234
-1.18594
-1.12432
-1.05377
-0.977492
-0.897659
-0.815737
-0.732729
-0.649311
-0.566018
-0.483276
-0.401333
-0.320372
-0.240523
-0.161884
-0.0845239
-0.00849426
0.0661667
-11902.1
-11247
-10594.2
-9945.75
-9303.58
-8669.92
-8046.94
-7436.8
-6841.48
-6262.79
-5702.22
-5160.97
-4639.86
-4139.28
-3659.22
-3199.24
-2758.36
-2334.92
-1926.35
-1528.89
-1138.16
-751.316
-371.268
-3.57044
-3.3446
-2.37289
-2.09262
-1.87223
-1.67874
-1.51111
-1.36738
-1.24478
-1.13997
-1.04943
-0.96973
-0.897947
-0.831402
-0.767947
-0.705943
-0.644267
-0.582172
-0.519228
-0.455249
-0.390214
-0.324202
-0.257357
-0.189853
-0.121872
-0.0535924
0.0148159
-11900.6
-11242.6
-10586.9
-9935.46
-9290.33
-8653.74
-8027.93
-7415.11
-6817.32
-6236.38
-5673.86
-5130.96
-4608.51
-4106.9
-3626.13
-3165.68
-2724.48
-2300.75
-1891.81
-1494.31
-1105.13
-723.756
-355.079
-3.50463
-3.30969
-2.39394
-2.15903
-1.96162
-1.77808
-1.60996
-1.45785
-1.32168
-1.20074
-1.09335
-0.997543
-0.911364
-0.832835
-0.760322
-0.692225
-0.627333
-0.564636
-0.503357
-0.44293
-0.38295
-0.323115
-0.26322
-0.203145
-0.142815
-0.0821929
-0.0212689
-11900.6
-11242.5
-10587.1
-9936.28
-9292.22
-8657.14
-8033.28
-7422.79
-6827.62
-6249.52
-5689.92
-5149.92
-4630.25
-4131.23
-3652.79
-3194.43
-2755.12
-2333.19
-1925.99
-1529.8
-1140.29
-754.595
-374.738
-3.70861
-3.4948
-2.50265
-2.21866
-1.99078
-1.78273
-1.5944
-1.42627
-1.27579
-1.1408
-1.01925
-0.909241
-0.809006
-0.716973
-0.631754
-0.552184
-0.477281
-0.406254
-0.338439
-0.27339
-0.210658
-0.149903
-0.090815
-0.0331598
0.0232795
0.0787193
0.133359
-11904.1
-11253.5
-10606.1
-9964.3
-9330.28
-8706.22
-8094.15
-7495.93
-6913.16
-6347.18
-5799.04
-5269.46
-4758.83
-4267.25
-3794.49
-3340.01
-2903.01
-2482.42
-2076.78
-1684.02
-1301.1
-923.442
-544.376
-154.683
-2.74073
-2.40276
-1.94133
-1.78994
-1.63117
-1.45937
-1.28301
-1.11146
-0.950257
-0.801041
-0.663738
-0.537349
-0.420705
-0.312706
-0.212429
-0.119105
-0.0321056
0.0490907
0.124947
0.195873
0.262286
0.32461
0.383249
0.438589
0.49105
0.541032
-11915.2
-11287.3
-10664.4
-10049.4
-9444.41
-8851.39
-8271.78
-7706.68
-7156.86
-6622.81
-6104.77
-5602.73
-5116.54
-4645.82
-4190.02
-3748.34
-3319.69
-2903.5
-2498.86
-2103.95
-1716.8
-1335.28
-957.436
-581.847
-206.288
-3.71605
-3.24865
-2.22304
-1.77512
-1.37534
-1.03636
-0.74428
-0.501012
-0.296462
-0.122
0.0305419
0.165839
0.287464
0.397753
0.498272
0.590129
0.674169
0.751024
0.821262
0.885435
0.94408
0.997727
1.04688
1.09206
1.13373
-11933.2
-11342.2
-10758.5
-10185.3
-9624.63
-9077.89
-8545.79
-8028.61
-7526.34
-7038.74
-6565.36
-6105.62
-5658.82
-5224.1
-4800.5
-4386.87
-3981.92
-3584.11
-3191.73
-2802.77
-2415.05
-2026.26
-1634.27
-1237.53
-835.678
-430.138
-4.38346
-0.504019
-0.634392
-0.357043
-0.181381
-0.0212272
0.127443
0.271123
0.412666
0.546805
0.67252
0.789587
0.898355
0.999395
1.09322
1.18023
1.26073
1.33497
1.40318
1.46559
1.52248
1.57411
1.6208
1.66289
-11946
-11380.3
-10821.2
-10271.5
-9733.24
-9207.73
-8695.82
-8198.04
-7714.69
-7245.94
-6791.81
-6352.2
-5926.88
-5515.46
-5117.38
-4731.88
-4357.93
-3994.25
-3639.25
-3291.04
-2947.42
-2605.9
-2263.8
-1918.17
-1565.76
-1202.04
-817.968
-409.971
-4.70085
-0.339078
-0.0109374
-0.00297737
0.00324093
0.0299795
0.230798
0.403233
0.553321
0.688303
0.813922
0.934331
1.05149
1.16548
1.27588
1.38191
1.48281
1.5779
1.66669
1.74885
1.8242
1.89272
-11944.6
-11374.9
-10808.4
-10247.5
-9694.14
-9150.3
-8617.72
-8098.06
-7592.81
-7103.27
-6630.6
-6175.76
-5739.46
-5322.17
-4924.08
-4545.08
-4184.68
-3842.1
-3516.16
-3205.28
-2907.48
-2620.25
-2340.38
-2063.64
-1784.22
-1494.18
-1184.99
-845.114
-458.493
-10.3136
-0.14166
-0.0158858
-0.00106479
-2.37355e-05
0.000398823
0.00256017
0.0207866
0.17685
0.327175
0.475546
0.622865
0.770907
0.91994
1.0679
1.21299
1.35357
1.4883
1.6161
1.73616
1.84789
-11934.8
-11344.6
-10755.8
-10169.9
-9589.24
-9016.09
-8453.01
-7902.51
-7366.99
-6848.7
-6349.63
-5871.5
-5415.7
-4983.26
-4574.82
-4190.63
-3830.53
-3493.96
-3179.99
-2887.32
-2614.29
-2358.84
-2118.3
-1889.4
-1669.35
-1454.93
-1241.32
-1024.3
-802.114
-579.52
-367.682
-169.47
-1.93063
-0.0334307
-0.00603857
-0.000521292
9.41954e-05
0.00253365
0.0227632
0.204043
0.37832
0.556162
0.741138
0.927128
1.11195
1.29198
1.46494
1.62912
1.78337
1.92695
-11925.6
-11317
-10709.9
-10106
-9507.27
-8916.25
-8335.54
-7767.81
-7215.66
-6681.54
-6167.7
-5676.07
-5208.28
-4765.58
-4348.85
-3958.56
-3594.82
-3257.32
-2945.41
-2658.11
-2394.09
-2151.62
-1928.93
-1724.09
-1534.9
-1359.05
-1194.1
-1037.61
-887.237
-740.9
-596.77
-453.277
-310.409
-171.807
-42.7251
-0.496208
-0.0125534
-0.00070427
-9.27542e-06
0.000594489
0.00459937
0.0398288
0.326495
0.596126
0.849925
1.09445
1.32988
1.55347
1.76438
1.96115
-11917.6
-11293.3
-10670.6
-10051.4
-9437.79
-8832.34
-8237.67
-7656.48
-7091.38
-6544.87
-6019.2
-5516.38
-5038.09
-4585.66
-4160.07
-3761.95
-3391.53
-3048.73
-2733.1
-2443.89
-2180.07
-1940.35
-1723.22
-1526.98
-1349.85
-1189.98
-1045.49
-914.484
-795.074
-685.287
-583.219
-487.52
-396.966
-310.225
-226.321
-144.992
-66.9241
-0.718015
-0.0111552
-0.00154903
-9.43633e-05
2.76312e-05
0.000734482
0.00576618
0.0466759
0.395477
0.722218
1.03457
1.3321
1.61241
-11912.3
-11277.6
-10645.3
-10017.4
-9395.97
-8783.61
-8182.77
-7595.95
-7025.56
-6473.86
-5942.9
-5434.52
-4950.27
-4491.45
-4059.05
-3653.77
-3276.01
-2925.88
-2603.19
-2307.49
-2038.04
-1793.87
-1573.78
-1376.39
-1200.17
-1043.46
-904.544
-781.665
-673.072
-577.053
-491.952
-416.206
-348.385
-287.253
-231.771
-180.998
-134.314
-90.9763
-50.2391
-11.4927
-0.128426
-0.00802765
-0.000413251
-2.05296e-05
0.000320444
0.00496413
0.0445722
0.391415
0.726772
1.05335
-11917.4
-11293
-10671.5
-10055
-9445.56
-8845.48
-8256.88
-7681.83
-7122.24
-6579.9
-6056.39
-5553.16
-5071.47
-4612.44
-4177.02
-3765.99
-3379.98
-3019.44
-2684.61
-2375.53
-2092
-1833.56
-1599.55
-1389.05
-1200.95
-1033.94
-886.562
-757.258
-644.393
-546.312
-461.362
-387.927
-324.488
-269.739
-222.492
-181.554
-145.879
-114.639
-87.1801
-62.9615
-41.3573
-21.1876
-0.229217
-0.00737208
-0.00740485
-0.000186859
0.000240394
0.00504451
0.045753
0.401532
-11924.8
-11315.7
-10710.6
-10111.9
-9522
-8942.69
-8375.66
-7822.24
-7283.52
-6760.38
-6253.59
-5763.84
-5291.82
-4838.22
-4403.79
-3989.32
-3595.66
-3223.7
-2874.24
-2548.02
-2245.55
-1967.15
-1712.87
-1482.47
-1275.41
-1090.88
-927.773
-784.774
-660.381
-552.973
-460.864
-382.358
-315.797
-259.601
-212.299
-172.547
-139.134
-110.977
-87.1132
-66.7006
-49.057
-33.7549
-20.6939
-9.83318
-0.10434
-0.002281
-0.00142489
-4.33648e-06
0.00259117
0.0396214
-11916.9
-11293.5
-10679.1
-10078.2
-9494.05
-8927.94
-8380.22
-7850.42
-7337.72
-6841.15
-6359.81
-5893.03
-5440.41
-5001.89
-4577.78
-4168.67
-3775.48
-3399.34
-3041.52
-2703.36
-2386.15
-2091.02
-1818.89
-1570.34
-1345.58
-1144.41
-966.221
-810.008
-674.447
-557.955
-458.781
-375.087
-305.033
-246.825
-198.768
-159.299
-127.015
-100.675
-79.2021
-61.6711
-47.2885
-35.365
-25.2805
-16.4712
-8.56101
-2.3075
-0.0234581
-0.00664188
-0.00175085
0.00137157
-11743.5
-10920.1
-10200.8
-9556.39
-8967.15
-8419.33
-7903.09
-7411.28
-6938.64
-6481.34
-6036.68
-5602.87
-5178.92
-4764.51
-4359.94
-3966.02
-3584.04
-3215.61
-2862.64
-2527.14
-2211.15
-1916.58
-1645.06
-1397.83
-1175.62
-978.595
-806.294
-657.697
-531.284
-425.146
-337.083
-264.883
-206.638
-160.086
-123.2
-94.1835
-71.4872
-53.8095
-40.079
-29.4291
-21.1712
-14.7666
-9.79293
-5.89886
-2.75599
-0.0254811
-0.000235918
3.30389e-05
0.000268409
0.000469646
-0.28606
-0.215236
-0.145998
-0.0783604
-0.0123417
0.052035
0.114743
0.175752
0.235035
0.292553
0.348279
0.402182
0.454235
0.504402
0.552664
0.598997
0.643382
0.685805
0.726253
0.764716
0.801188
0.835671
0.868167
0.898679
0.927218
0.953801
0.978444
1.00117
1.022
1.04096
1.05808
1.0734
1.08695
1.09876
1.10887
1.11733
1.12418
1.12946
1.13321
1.13549
1.13634
1.13582
1.13396
1.13082
1.12645
1.1209
1.11421
1.10645
1.09766
1.0879
-0.0688428
0.00322581
0.0732818
0.141362
0.207499
0.271717
0.334036
0.394472
0.453034
0.50973
0.564562
0.617531
0.668636
0.717871
0.76523
0.810706
0.854295
0.895991
0.935789
0.973681
1.00967
1.04374
1.07592
1.10618
1.13453
1.161
1.18557
1.20827
1.22909
1.24807
1.26521
1.28053
1.29406
1.30583
1.31586
1.32418
1.33083
1.33585
1.33927
1.34114
1.34149
1.34036
1.33781
1.33387
1.3286
1.32203
1.31423
1.30523
1.2951
1.28388
0.0885269
0.161381
0.232172
0.300945
0.367742
0.432596
0.495537
0.556586
0.615763
0.67308
0.728546
0.782167
0.833942
0.883871
0.931951
0.978175
1.02253
1.06502
1.10564
1.14436
1.18119
1.21611
1.24913
1.28024
1.30943
1.33672
1.36209
1.38555
1.4071
1.42677
1.44455
1.46047
1.47453
1.48676
1.49718
1.50582
1.51271
1.51786
1.52133
1.52314
1.52334
1.52195
1.51902
1.51461
1.50874
1.50147
1.49284
1.48291
1.47173
1.45935
0.139428
0.211264
0.281652
0.350574
0.418013
0.483955
0.548384
0.611282
0.672632
0.732411
0.790594
0.847154
0.90206
0.95528
1.00678
1.05653
1.10448
1.15061
1.19488
1.23726
1.27772
1.31622
1.35275
1.38728
1.41979
1.45027
1.47871
1.5051
1.52944
1.55173
1.57197
1.59018
1.60635
1.62052
1.6327
1.64292
1.6512
1.65758
1.66208
1.66475
1.66563
1.66474
1.66216
1.65791
1.65206
1.64464
1.63572
1.62535
1.61359
1.60049
0.0831974
0.151411
0.219329
0.286835
0.353826
0.420208
0.485893
0.550798
0.614841
0.677938
0.740003
0.80095
0.860691
0.919134
0.976188
1.03176
1.08577
1.13811
1.18871
1.23748
1.28435
1.32924
1.37209
1.41283
1.45142
1.4878
1.52195
1.55382
1.5834
1.61066
1.63561
1.65823
1.67853
1.69652
1.71223
1.72566
1.73686
1.74586
1.75269
1.75739
1.76002
1.76063
1.75927
1.75599
1.75087
1.74395
1.73532
1.72502
1.71314
1.69973
0.0399581
0.10147
0.163246
0.225255
0.287469
0.34983
0.412288
0.474777
0.537225
0.599547
0.661643
0.723406
0.784713
0.845434
0.905429
0.964553
1.02266
1.07959
1.13519
1.18932
1.24183
1.29257
1.34142
1.38826
1.43296
1.47542
1.51556
1.5533
1.58856
1.62131
1.65148
1.67907
1.70404
1.7264
1.74614
1.76328
1.77785
1.78988
1.7994
1.80646
1.81113
1.81346
1.81351
1.81136
1.80708
1.80075
1.79244
1.78225
1.77025
1.75653
0.187382
0.240947
0.294205
0.347237
0.400181
0.4532
0.506395
0.559813
0.613502
0.667477
0.721723
0.776196
0.830826
0.885515
0.940146
0.994581
1.04867
1.10224
1.15511
1.20711
1.25805
1.30774
1.35599
1.40264
1.4475
1.49043
1.53127
1.56989
1.60617
1.64001
1.67133
1.70006
1.72613
1.74951
1.77019
1.78814
1.80338
1.81592
1.8258
1.83305
1.83773
1.8399
1.83962
1.83697
1.83203
1.82489
1.81564
1.80437
1.79118
1.77617
0.588931
0.635113
0.679894
0.723449
0.766178
0.808366
0.850236
0.891894
0.93351
0.975149
1.01691
1.05878
1.10079
1.14286
1.18496
1.22698
1.26883
1.31037
1.35147
1.39198
1.43173
1.47058
1.50836
1.5449
1.58006
1.61367
1.6456
1.6757
1.70387
1.72998
1.75393
1.77563
1.795
1.812
1.82658
1.83871
1.84838
1.8556
1.86037
1.86274
1.86272
1.86038
1.85577
1.84896
1.84002
1.82904
1.81609
1.80127
1.78468
1.76641
1.17239
1.20849
1.24243
1.27454
1.3052
1.33473
1.36331
1.39117
1.4184
1.4452
1.47163
1.49778
1.52368
1.54934
1.57476
1.59991
1.62472
1.64915
1.6731
1.69649
1.71923
1.74121
1.76233
1.78247
1.80153
1.8194
1.83599
1.85117
1.86482
1.87686
1.88721
1.89578
1.90253
1.90741
1.91038
1.91142
1.91051
1.90766
1.90287
1.89618
1.8876
1.87719
1.86498
1.85104
1.83543
1.81822
1.79948
1.77928
1.75772
1.73488
1.70072
1.73468
1.7651
1.79236
1.8168
1.83873
1.85848
1.87629
1.89243
1.90711
1.92052
1.93284
1.94419
1.95469
1.96443
1.97346
1.98183
1.98954
1.99661
2.00302
2.00873
2.01372
2.01794
2.02133
2.02383
2.02539
2.02593
2.02542
2.02382
2.02109
2.01718
2.01206
2.00569
1.99802
1.98903
1.97868
1.96698
1.95391
1.93948
1.92371
1.90662
1.88823
1.8686
1.84776
1.82575
1.80264
1.77848
1.75334
1.72727
1.70035
1.95449
2.0097
2.05862
2.10157
2.1389
2.17101
2.19828
2.22113
2.23995
2.25512
2.267
2.27594
2.28225
2.28621
2.28808
2.28808
2.28642
2.28325
2.27873
2.27298
2.26608
2.25813
2.24917
2.23926
2.22842
2.21668
2.20405
2.19055
2.17617
2.16092
2.14479
2.12779
2.10991
2.09118
2.07159
2.05118
2.02994
2.00789
1.98504
1.96139
1.93696
1.91176
1.88583
1.8592
1.83189
1.80395
1.77542
1.74634
1.71677
1.68674
1.95092
2.04508
2.13031
2.20671
2.27449
2.33395
2.38545
2.4294
2.46627
2.49654
2.52069
2.53924
2.55265
2.5614
2.56595
2.5667
2.56406
2.55839
2.55001
2.53922
2.52629
2.51145
2.49491
2.47686
2.45746
2.43684
2.41511
2.3924
2.36878
2.34432
2.3191
2.29318
2.2666
2.2394
2.21164
2.18334
2.15455
2.12529
2.0956
2.06553
2.0351
2.00433
1.97324
1.94185
1.9102
1.87832
1.84622
1.81395
1.78153
1.749
2.05948
2.18083
2.29105
2.39038
2.47914
2.55773
2.62661
2.68628
2.73725
2.78005
2.81522
2.84328
2.86476
2.88016
2.88999
2.89473
2.89482
2.8907
2.88279
2.87145
2.85706
2.83992
2.82036
2.79863
2.77499
2.74967
2.72286
2.69475
2.6655
2.63526
2.60414
2.57226
2.53972
2.50662
2.47302
2.439
2.40462
2.36993
2.33499
2.29984
2.26453
2.22913
2.19366
2.15818
2.12272
2.08729
2.05195
2.0167
1.98157
1.94659
2.14299
2.30963
2.46118
2.59802
2.72069
2.82988
2.92633
3.01082
3.08414
3.14705
3.2003
3.2446
3.28063
3.30904
3.33043
3.34538
3.35442
3.35806
3.35679
3.35104
3.34125
3.32779
3.31104
3.29134
3.26899
3.24428
3.21748
3.18883
3.15855
3.12684
3.09388
3.05983
3.02485
2.98907
2.95261
2.91558
2.87807
2.84016
2.80195
2.76349
2.72485
2.68609
2.64726
2.60839
2.56955
2.53075
2.49204
2.45345
2.41501
2.37674
1.87497
2.11914
2.34473
2.5519
2.74108
2.91288
3.06805
3.20743
3.33189
3.44232
3.53962
3.62465
3.69825
3.76123
3.81437
3.85839
3.894
3.92185
3.94255
3.9567
3.96485
3.96751
3.96516
3.95826
3.94722
3.93244
3.91428
3.89307
3.86913
3.84273
3.81413
3.78358
3.75129
3.71746
3.68227
3.64588
3.60844
3.57009
3.53094
3.49111
3.45069
3.40978
3.36846
3.32679
3.28484
3.24268
3.20035
3.15791
3.1154
3.07285
1.36917
1.67185
1.95995
2.23248
2.48883
2.72867
2.95193
3.15875
3.34945
3.52444
3.68426
3.8295
3.96079
4.07881
4.18422
4.27773
4.36
4.43172
4.49354
4.54609
4.59001
4.62589
4.65429
4.67577
4.69085
4.70001
4.70373
4.70243
4.69652
4.68639
4.67238
4.65483
4.63405
4.61031
4.58387
4.55498
4.52386
4.4907
4.45569
4.41902
4.38082
4.34125
4.30045
4.25852
4.21558
4.17173
4.12707
4.08169
4.03565
3.98904
0.750297
1.09
1.41979
1.73864
2.04533
2.33888
2.6185
2.88367
3.13403
3.36945
3.58994
3.79565
3.98684
4.16385
4.32706
4.47692
4.61392
4.73857
4.85137
4.95288
5.04364
5.12418
5.19505
5.25678
5.3099
5.3549
5.39228
5.42252
5.44605
5.46332
5.47474
5.48068
5.48152
5.4776
5.46925
5.45676
5.44042
5.42049
5.39724
5.37088
5.34164
5.30972
5.2753
5.23857
5.19969
5.15882
5.1161
5.07166
5.02563
4.97813
0.358131
0.678086
0.997745
1.3151
1.62761
1.93366
2.23177
2.52073
2.79954
3.0674
3.32371
3.56805
3.80014
4.01981
4.22703
4.42185
4.60441
4.77488
4.93353
5.08063
5.21652
5.34153
5.45604
5.56042
5.65506
5.74035
5.81668
5.88444
5.94401
5.99577
6.04007
6.07727
6.10773
6.13176
6.1497
6.16184
6.1685
6.16994
6.16645
6.15829
6.14569
6.12892
6.10818
6.0837
6.05569
6.02435
5.98986
5.95241
5.91217
5.86931
0.0354919
0.361069
0.683479
1.00402
1.31909
1.62744
1.92821
2.22071
2.50439
2.77886
3.04381
3.29899
3.54425
3.77947
4.00459
4.21956
4.42439
4.61911
4.80378
4.97847
5.1433
5.29837
5.44383
5.57984
5.70655
5.82417
5.93286
6.03285
6.12435
6.20756
6.28273
6.35007
6.40983
6.46225
6.50755
6.54599
6.5778
6.60323
6.6225
6.63587
6.64356
6.64581
6.64283
6.63486
6.62211
6.6048
6.58313
6.55731
6.52753
6.494
0.00070883
0.0278325
0.302071
0.575594
0.848778
1.12058
1.39088
1.65894
1.92437
2.18672
2.44547
2.70011
2.95011
3.19492
3.43403
3.66692
3.89314
4.11224
4.32383
4.52755
4.72311
4.91025
5.08874
5.25844
5.41921
5.57098
5.71372
5.84742
5.97212
6.08789
6.19482
6.29303
6.38263
6.4638
6.53671
6.60158
6.65862
6.70805
6.7501
6.78501
6.81302
6.83438
6.84932
6.85809
6.86094
6.8581
6.84982
6.83632
6.81785
6.79462
1.07969
1.07367
1.06736
1.06077
1.05391
1.04678
1.03938
1.03171
1.02379
1.01562
1.0072
0.998535
0.989635
0.980503
0.971146
0.961569
0.951779
0.941781
0.931583
0.92119
0.91061
0.899849
0.888914
0.877813
0.866552
0.855139
0.843581
0.831887
0.820063
0.808118
0.796059
0.783894
0.771632
0.75928
0.746847
0.73434
0.721768
0.70914
0.696463
0.683745
0.670996
0.658223
0.645435
0.632639
0.619844
0.607059
0.59429
0.581547
0.568836
0.556167
0.543546
0.530981
0.51848
0.50605
0.493699
0.481432
0.469258
0.457183
0.445213
0.433355
0.421616
0.41
0.398514
0.387164
0.375954
0.364891
0.353978
0.343221
0.332623
0.322189
0.311924
0.30183
0.291911
0.28217
0.27261
0.263233
0.254043
0.245041
0.236229
0.227608
0.21918
0.210946
0.202907
0.195064
0.187418
0.179969
0.172716
0.16566
0.158799
0.152133
0.145659
0.139378
0.133287
0.127384
0.121668
0.116137
0.110788
0.105619
0.100627
0.0958101
0.0911648
0.0866884
0.0823778
0.07823
0.0742416
0.0704093
0.0667297
0.0631994
0.0598148
0.0565722
0.0534682
0.050499
0.0476609
0.0449502
0.0423632
0.0398962
0.0375454
0.0353071
0.0331776
0.0311533
0.0292304
0.0274055
0.0256748
0.0240349
0.0224823
0.0210135
0.0196252
0.0183141
0.017077
0.0159105
0.0148117
0.0137775
0.012805
0.0118913
0.0110335
0.010229
0.00947511
0.0087693
0.00810909
0.00749209
0.006916
0.00637861
0.00587778
0.00541145
0.00497765
0.00457451
0.00420019
0.00385298
0.00353123
0.00323335
0.00295783
0.00270326
0.00246827
0.00225157
0.00205193
0.0018682
0.00169928
0.00154413
0.00140177
0.00127129
0.00115182
0.00104254
0.000942684
0.000851538
0.000768431
0.000692732
0.000623856
0.000561253
0.000504415
0.000452866
0.000406164
0.0003639
0.000325694
0.000291195
0.000260077
0.00023204
0.000206807
0.000184123
0.000163754
0.000145483
0.000129113
0.000114463
0.000101366
8.96726e-05
7.92428e-05
6.99512e-05
6.16829e-05
5.43335e-05
4.78086e-05
4.20221e-05
3.68965e-05
3.23614e-05
2.83533e-05
2.48152e-05
2.16954e-05
1.89477e-05
1.65304e-05
1.44063e-05
1.25418e-05
1.09071e-05
9.47552e-06
8.22322e-06
7.12897e-06
6.1739e-06
5.34123e-06
4.61609e-06
3.98529e-06
3.43715e-06
2.96137e-06
2.54884e-06
2.19155e-06
1.88243e-06
1.61527e-06
1.38462e-06
1.18571e-06
1.01435e-06
8.66883e-07
7.40104e-07
6.31228e-07
5.37823e-07
4.57774e-07
3.89242e-07
3.30631e-07
2.80556e-07
2.37818e-07
2.0138e-07
1.70345e-07
1.43939e-07
1.21496e-07
1.0244e-07
8.62777e-08
7.2584e-08
6.09943e-08
5.11959e-08
4.2921e-08
3.59406e-08
3.00587e-08
2.51081e-08
2.09463e-08
1.74516e-08
1.45207e-08
1.20658e-08
1.00119e-08
8.29597e-09
6.86406e-09
5.67088e-09
4.67808e-09
3.85303e-09
3.16836e-09
2.60101e-09
2.13173e-09
1.74413e-09
1.42433e-09
1.16067e-09
9.44347e-10
7.66655e-10
6.20895e-10
5.02434e-10
4.04997e-10
3.26076e-10
2.60975e-10
2.08859e-10
1.66703e-10
1.32306e-10
1.03751e-10
7.99997e-11
6.2176e-11
4.87633e-11
3.82909e-11
3.00646e-11
2.35652e-11
1.83847e-11
1.43319e-11
1.11588e-11
8.67397e-12
6.73069e-12
5.21269e-12
4.02854e-12
3.10635e-12
2.38954e-12
1.83354e-12
1.40325e-12
1.07104e-12
8.15209e-13
6.18721e-13
4.68232e-13
3.53313e-13
2.65824e-13
1.99435e-13
1.49231e-13
1.1141e-13
8.30415e-14
6.1874e-14
4.61867e-14
3.4672e-14
2.63446e-14
2.04704e-14
1.65129e-14
1.40923e-14
1.29556e-14
1.27446
1.26755
1.26032
1.25277
1.24491
1.23674
1.22826
1.21948
1.21041
1.20105
1.1914
1.18146
1.17126
1.16078
1.15004
1.13905
1.1278
1.11631
1.10458
1.09262
1.08043
1.06803
1.05542
1.04261
1.02961
1.01642
1.00306
0.989523
0.97583
0.961985
0.947999
0.933878
0.919633
0.905273
0.890807
0.876244
0.861593
0.846864
0.832067
0.817211
0.802305
0.78736
0.772384
0.757388
0.742381
0.727372
0.712371
0.697388
0.682432
0.667512
0.652637
0.637817
0.62306
0.608376
0.593773
0.579259
0.564844
0.550534
0.53634
0.522267
0.508324
0.494518
0.480857
0.467347
0.453995
0.440807
0.42779
0.41495
0.402291
0.38982
0.377542
0.36546
0.353581
0.341907
0.330443
0.319191
0.308157
0.297341
0.286748
0.276378
0.266235
0.25632
0.246633
0.237177
0.227952
0.218958
0.210197
0.20167
0.193375
0.185312
0.177479
0.169875
0.162499
0.155348
0.14842
0.141713
0.135225
0.128952
0.122892
0.117042
0.111398
0.105958
0.100717
0.0956725
0.0908199
0.0861556
0.0816756
0.0773758
0.0732521
0.0693001
0.0655158
0.0618945
0.0584321
0.0551241
0.051966
0.0489534
0.0460818
0.0433469
0.0407441
0.038269
0.0359174
0.0336848
0.0315669
0.0295595
0.0276583
0.0258593
0.0241584
0.0225516
0.0210349
0.0196046
0.0182568
0.0169878
0.0157942
0.0146723
0.0136189
0.0126306
0.0117041
0.0108365
0.0100247
0.00926574
0.00855689
0.00789543
0.00727876
0.00670437
0.00616987
0.00567294
0.00521139
0.00478309
0.00438604
0.00401829
0.00367802
0.00336348
0.003073
0.00280501
0.00255801
0.00233057
0.00212136
0.0019291
0.00175261
0.00159075
0.00144245
0.00130672
0.00118263
0.00106928
0.000965858
0.00087159
0.000785753
0.000707676
0.000636732
0.000572335
0.000513943
0.000461052
0.000413195
0.000369938
0.00033088
0.000295652
0.000263912
0.000235344
0.00020966
0.000186593
0.000165898
0.000147352
0.000130749
0.000115902
0.000102639
9.08031e-05
8.02531e-05
7.08588e-05
6.25027e-05
5.50779e-05
4.84877e-05
4.26443e-05
3.74688e-05
3.28894e-05
2.8842e-05
2.52683e-05
2.21162e-05
1.93388e-05
1.68942e-05
1.47447e-05
1.28565e-05
1.11996e-05
9.74712e-06
8.4751e-06
7.36224e-06
6.38959e-06
5.54032e-06
4.79949e-06
4.1539e-06
3.59184e-06
3.10298e-06
2.67818e-06
2.30941e-06
1.98958e-06
1.71245e-06
1.47255e-06
1.26507e-06
1.0858e-06
9.31053e-07
7.97594e-07
6.82605e-07
5.83623e-07
4.98501e-07
4.25367e-07
3.62593e-07
3.08764e-07
2.62651e-07
2.23186e-07
1.89445e-07
1.60627e-07
1.36038e-07
1.15081e-07
9.72381e-08
8.20628e-08
6.91707e-08
5.82307e-08
4.8958e-08
4.11078e-08
3.447e-08
2.88642e-08
2.41361e-08
2.01534e-08
1.68031e-08
1.39886e-08
1.16275e-08
9.64974e-09
7.99542e-09
6.61377e-09
5.46163e-09
4.50242e-09
3.70509e-09
3.04348e-09
2.49535e-09
2.04209e-09
1.66793e-09
1.35965e-09
1.10608e-09
8.97948e-10
7.27419e-10
5.87991e-10
4.74245e-10
3.81577e-10
3.06328e-10
2.45355e-10
1.95962e-10
1.56209e-10
1.24192e-10
9.84699e-11
7.79887e-11
6.17434e-11
4.90744e-11
3.88851e-11
3.0705e-11
2.41399e-11
1.88559e-11
1.46955e-11
1.1424e-11
8.85723e-12
6.84837e-12
5.28046e-12
4.06011e-12
3.11296e-12
2.3799e-12
1.81416e-12
1.37882e-12
1.04482e-12
7.8936e-13
5.94591e-13
4.4659e-13
3.34525e-13
2.5e-13
1.86528e-13
1.39117e-13
1.03946e-13
7.81085e-14
5.94088e-14
4.62105e-14
3.73159e-14
3.18764e-14
2.93268e-14
1.44896
1.44133
1.43333
1.42499
1.41629
1.40725
1.39787
1.38814
1.37809
1.36771
1.35701
1.34599
1.33465
1.32302
1.31108
1.29885
1.28633
1.27354
1.26047
1.24714
1.23355
1.21971
1.20563
1.19132
1.17678
1.16203
1.14707
1.13192
1.11657
1.10105
1.08536
1.0695
1.0535
1.03736
1.02109
1.0047
0.988203
0.971607
0.954924
0.938164
0.921338
0.904457
0.887531
0.870572
0.85359
0.836596
0.819601
0.802616
0.785651
0.768717
0.751824
0.734984
0.718206
0.7015
0.684877
0.668346
0.651918
0.635601
0.619406
0.603341
0.587416
0.571638
0.556017
0.54056
0.525276
0.510173
0.495256
0.480535
0.466014
0.451702
0.437603
0.423724
0.410069
0.396645
0.383456
0.370505
0.357798
0.345337
0.333127
0.32117
0.309468
0.298024
0.28684
0.275917
0.265256
0.254861
0.244732
0.234868
0.22527
0.215936
0.206866
0.198057
0.189509
0.181219
0.173185
0.165404
0.157874
0.150592
0.143555
0.136759
0.130201
0.123877
0.117783
0.111915
0.106269
0.100841
0.0956247
0.0906171
0.0858131
0.0812078
0.0767964
0.0725739
0.0685354
0.0646757
0.0609899
0.0574729
0.0541195
0.0509246
0.0478833
0.0449903
0.0422407
0.0396295
0.0371517
0.0348024
0.0325768
0.0304701
0.0284776
0.0265946
0.0248168
0.0231395
0.0215585
0.0200695
0.0186683
0.0173509
0.0161134
0.014952
0.0138628
0.0128424
0.0118872
0.0109938
0.0101591
0.00937979
0.00865292
0.00797556
0.00734493
0.00675834
0.00621321
0.00570708
0.0052376
0.00480253
0.00439972
0.00402713
0.00368283
0.00336495
0.00307177
0.00280162
0.00255292
0.00232421
0.00211407
0.00192118
0.00174431
0.00158227
0.00143398
0.0012984
0.00117456
0.00106156
0.000958551
0.000864742
0.000779397
0.00070183
0.000631403
0.000567521
0.000509635
0.000457233
0.000409844
0.000367031
0.00032839
0.000293551
0.000262169
0.00023393
0.000208544
0.000185745
0.000165291
0.000146958
0.000130541
0.000115856
0.000102732
9.10149e-05
8.05634e-05
7.12499e-05
6.29585e-05
5.5584e-05
4.90311e-05
4.32137e-05
3.80541e-05
3.34822e-05
2.94346e-05
2.58546e-05
2.26909e-05
1.98976e-05
1.74337e-05
1.52621e-05
1.33499e-05
1.16675e-05
1.01887e-05
8.88981e-06
7.75004e-06
6.75073e-06
5.8753e-06
5.10905e-06
4.43893e-06
3.85339e-06
3.34217e-06
2.89622e-06
2.50755e-06
2.16907e-06
1.87457e-06
1.61856e-06
1.39619e-06
1.20321e-06
1.0359e-06
8.90964e-07
7.6553e-07
6.57074e-07
5.63388e-07
4.82538e-07
4.12834e-07
3.528e-07
3.01148e-07
2.56755e-07
2.18641e-07
1.85954e-07
1.57954e-07
1.33996e-07
1.1352e-07
9.60434e-08
8.1144e-08
6.84585e-08
5.76721e-08
4.8513e-08
4.07463e-08
3.41699e-08
2.86093e-08
2.39148e-08
1.99575e-08
1.66268e-08
1.38281e-08
1.14802e-08
9.51382e-09
7.86985e-09
6.4978e-09
5.35477e-09
4.40427e-09
3.61534e-09
2.9618e-09
2.42146e-09
1.97556e-09
1.60843e-09
1.30668e-09
1.05925e-09
8.56793e-10
6.91452e-10
5.56853e-10
4.47414e-10
3.5864e-10
2.86709e-10
2.28827e-10
1.8214e-10
1.44755e-10
1.14662e-10
9.06243e-11
7.1554e-11
5.64686e-11
4.4729e-11
3.52753e-11
2.76868e-11
2.15852e-11
1.67781e-11
1.30018e-11
1.00442e-11
7.73635e-12
5.9411e-12
4.54886e-12
3.47244e-12
2.64276e-12
2.00523e-12
1.51689e-12
1.14405e-12
8.60341e-13
6.45235e-13
4.82779e-13
3.60634e-13
2.69288e-13
2.01449e-13
1.51561e-13
1.15423e-13
8.98983e-14
7.26875e-14
6.216e-14
5.72268e-14
1.58944
1.5813
1.57276
1.56383
1.55452
1.54481
1.53473
1.52427
1.51345
1.50226
1.49071
1.47881
1.46656
1.45397
1.44105
1.4278
1.41424
1.40036
1.38619
1.37171
1.35695
1.34192
1.32661
1.31105
1.29523
1.27918
1.26289
1.24638
1.22966
1.21274
1.19563
1.17834
1.16088
1.14327
1.12551
1.10761
1.08959
1.07146
1.05322
1.0349
1.0165
0.998036
0.979517
0.960957
0.942367
0.923758
0.905144
0.886535
0.867943
0.84938
0.830858
0.812388
0.793981
0.775649
0.757403
0.739254
0.721212
0.703288
0.685493
0.667836
0.650327
0.632977
0.615794
0.598788
0.581967
0.565341
0.548916
0.532701
0.516704
0.500932
0.485391
0.470088
0.45503
0.440221
0.425668
0.411375
0.397347
0.383588
0.370101
0.356891
0.343959
0.331312
0.318952
0.306881
0.295099
0.283607
0.272406
0.261496
0.250875
0.240544
0.230502
0.220747
0.211277
0.20209
0.193185
0.184558
0.176207
0.168129
0.16032
0.152777
0.145496
0.138472
0.131702
0.125182
0.118906
0.11287
0.107069
0.101498
0.0961518
0.0910254
0.0861134
0.0814104
0.0769108
0.0726092
0.0685001
0.0645778
0.0608369
0.0572716
0.0538764
0.0506458
0.0475742
0.0446562
0.0418862
0.0392588
0.0367688
0.0344109
0.03218
0.0300708
0.0280784
0.0261979
0.0244245
0.0227536
0.0211804
0.0197006
0.0183097
0.0170036
0.0157782
0.0146294
0.0135534
0.0125464
0.0116049
0.0107253
0.00990438
0.00913881
0.00842551
0.00776151
0.00714394
0.00657009
0.00603733
0.00554317
0.00508522
0.00466122
0.004269
0.00390652
0.00357182
0.00326306
0.00297849
0.00271646
0.0024754
0.00225384
0.00205038
0.00186373
0.00169265
0.00153599
0.00139266
0.00126165
0.00114201
0.00103286
0.000933364
0.000842756
0.000760316
0.000685377
0.000617318
0.000555564
0.000499581
0.000448876
0.000402992
0.000361508
0.000324036
0.000290217
0.000259722
0.000232249
0.000207519
0.000185278
0.000165293
0.00014735
0.000131253
0.000116826
0.000103905
9.23437e-05
8.20064e-05
7.27714e-05
6.45278e-05
5.71751e-05
5.06221e-05
4.47866e-05
3.95939e-05
3.4977e-05
3.08751e-05
2.72336e-05
2.40033e-05
2.11399e-05
1.86037e-05
1.63591e-05
1.43739e-05
1.26196e-05
1.10706e-05
9.7037e-06
8.49858e-06
7.43687e-06
6.50224e-06
5.68014e-06
4.95758e-06
4.32304e-06
3.76625e-06
3.27809e-06
2.85046e-06
2.47619e-06
2.1489e-06
1.86296e-06
1.61337e-06
1.39572e-06
1.2061e-06
1.04107e-06
8.97584e-07
7.72961e-07
6.64836e-07
5.71128e-07
4.90007e-07
4.19863e-07
3.59282e-07
3.07026e-07
2.62006e-07
2.2327e-07
1.89985e-07
1.61423e-07
1.36947e-07
1.16003e-07
9.81069e-08
8.28383e-08
6.98312e-08
5.8768e-08
4.93733e-08
4.14083e-08
3.46668e-08
2.89706e-08
2.4166e-08
2.01206e-08
1.67206e-08
1.38683e-08
1.14801e-08
9.48422e-09
7.81948e-09
6.43369e-09