/*--------------------------------*- C++ -*----------------------------------*\
| =========                 |                                                 |
| \\      /  F ield         | OpenFOAM: The Open Source CFD Toolbox           |
|  \\    /   O peration     | Version:  2.4.0                                 |
|   \\  /    A nd           | Web:      www.OpenFOAM.org                      |
|    \\/     M anipulation  |                                                 |
\*---------------------------------------------------------------------------*/
FoamFile
{
    version     2.0;
    format      ascii;
    class       surfaceScalarField;
    location    "0.8";
    object      phi;
}
// * * * * * * * * * * * * * * * * * * * * * * * * * * * * * * * * * * * * * //

dimensions      [0 3 -1 0 0 0 0];

internalField   nonuniform List<scalar> 
15580
(
-4.9192e-14
-1.64734e-12
-1.93922e-13
-4.80711e-12
-4.3163e-13
-7.83185e-12
-7.59868e-13
-1.07215e-11
-1.17615e-12
-1.34761e-11
-1.67798e-12
-1.60956e-11
-2.26282e-12
-1.85801e-11
-2.92816e-12
-2.09297e-11
-3.67149e-12
-2.31442e-11
-4.49031e-12
-2.52239e-11
-5.38218e-12
-2.71686e-11
-6.34466e-12
-2.89784e-11
-7.37541e-12
-3.06533e-11
-8.47211e-12
-3.21934e-11
-9.63253e-12
-3.35986e-11
-1.08545e-11
-3.48691e-11
-1.21359e-11
-3.60047e-11
-1.34748e-11
-3.70056e-11
-1.48692e-11
-3.78717e-11
-1.63173e-11
-3.86032e-11
-1.78176e-11
-3.91998e-11
-1.93688e-11
-3.96614e-11
-2.09694e-11
-3.99892e-11
-2.4386e-11
-4.01891e-11
-4.84493e-11
-4.02918e-11
-5.01344e-11
-4.02564e-11
-5.1821e-11
-4.02353e-11
-5.30081e-11
-4.13925e-11
-5.36881e-11
-4.24845e-11
-5.38967e-11
-4.35123e-11
-5.36621e-11
-4.44751e-11
-5.30149e-11
-4.53776e-11
-5.19833e-11
-4.6226e-11
-5.05937e-11
-4.7025e-11
-4.88715e-11
-4.77773e-11
-4.68415e-11
-4.84852e-11
-4.45288e-11
-4.91501e-11
-4.19585e-11
-4.97728e-11
-3.91563e-11
-5.03534e-11
-3.61475e-11
-5.08921e-11
-3.29574e-11
-5.13885e-11
-2.96113e-11
-5.1842e-11
-2.61587e-11
-5.22431e-11
-2.25258e-11
-5.26558e-11
-1.87759e-11
-5.29676e-11
-1.49078e-11
-5.32131e-11
-1.09423e-11
-5.34254e-11
-6.90729e-12
-5.35883e-11
-2.82699e-12
-5.36951e-11
-5.37763e-11
1.2547e-12
-5.59588e-14
-1.59138e-12
-2.22236e-13
-4.64083e-12
-4.96763e-13
-7.55733e-12
-8.77185e-13
-1.03411e-11
-1.36106e-12
-1.29922e-11
-1.94587e-12
-1.55108e-11
-2.62904e-12
-1.7897e-11
-3.40799e-12
-2.01507e-11
-4.28011e-12
-2.22721e-11
-5.24283e-12
-2.42612e-11
-6.2936e-12
-2.61178e-11
-7.42998e-12
-2.7842e-11
-8.64954e-12
-2.94338e-11
-9.95005e-12
-3.08929e-11
-1.13292e-11
-3.22195e-11
-1.2785e-11
-3.34132e-11
-1.43153e-11
-3.44744e-11
-1.59183e-11
-3.54026e-11
-1.75916e-11
-3.61984e-11
-1.93337e-11
-3.68612e-11
-2.11423e-11
-3.73912e-11
-2.30169e-11
-3.77867e-11
-2.49568e-11
-3.80493e-11
-3.28899e-11
-3.81874e-11
-5.34101e-11
-3.82584e-11
-5.54674e-11
-3.81991e-11
-5.75168e-11
-3.81859e-11
-5.91032e-11
-3.98061e-11
-6.02032e-11
-4.13845e-11
-6.08281e-11
-4.28874e-11
-6.09907e-11
-4.43125e-11
-6.07022e-11
-4.56661e-11
-5.99732e-11
-4.6955e-11
-5.88162e-11
-4.8182e-11
-5.72457e-11
-4.93478e-11
-5.52802e-11
-5.04508e-11
-5.294e-11
-5.14903e-11
-5.02472e-11
-5.24655e-11
-4.72243e-11
-5.33764e-11
-4.38941e-11
-5.42222e-11
-4.02804e-11
-5.50022e-11
-3.64084e-11
-5.5714e-11
-3.2301e-11
-5.63505e-11
-2.80263e-11
-5.69305e-11
-2.34851e-11
-5.75088e-11
-1.86452e-11
-5.80531e-11
-1.35711e-11
-5.84995e-11
-8.28355e-12
-5.88758e-11
-2.79875e-12
-5.91799e-11
-5.94141e-11
2.83898e-12
-7.12629e-14
-1.52011e-12
-2.81409e-13
-4.43069e-12
-6.26197e-13
-7.21254e-12
-1.10104e-12
-9.86623e-12
-1.70123e-12
-1.2392e-11
-2.42197e-12
-1.47901e-11
-3.25835e-12
-1.70606e-11
-4.20539e-12
-1.92037e-11
-5.25804e-12
-2.12195e-11
-6.41118e-12
-2.3108e-11
-7.6596e-12
-2.48694e-11
-8.99809e-12
-2.65035e-11
-1.04213e-11
-2.80105e-11
-1.1924e-11
-2.93902e-11
-1.35007e-11
-3.06428e-11
-1.51461e-11
-3.17678e-11
-1.68547e-11
-3.27658e-11
-1.8621e-11
-3.36363e-11
-2.04396e-11
-3.43799e-11
-2.23048e-11
-3.4996e-11
-2.42107e-11
-3.54852e-11
-2.61528e-11
-3.58447e-11
-2.81287e-11
-3.60735e-11
-4.66495e-11
-3.61768e-11
-6.04646e-11
-3.62362e-11
-6.24914e-11
-3.61723e-11
-6.44258e-11
-3.62515e-11
-6.58093e-11
-3.84226e-11
-6.6627e-11
-4.05668e-11
-6.68725e-11
-4.26419e-11
-6.65367e-11
-4.46483e-11
-6.56114e-11
-4.65914e-11
-6.40913e-11
-4.8475e-11
-6.19752e-11
-5.02981e-11
-5.92684e-11
-5.20546e-11
-5.60202e-11
-5.3699e-11
-5.22525e-11
-5.5258e-11
-4.79825e-11
-5.67354e-11
-4.32273e-11
-5.81317e-11
-3.79693e-11
-5.94802e-11
-3.22459e-11
-6.07255e-11
-2.6103e-11
-6.1857e-11
-1.95732e-11
-6.28803e-11
-1.26996e-11
-6.38041e-11
-5.57742e-12
-6.46309e-11
1.72483e-12
-6.53553e-11
9.20137e-12
-6.5976e-11
1.6789e-11
-6.64634e-11
2.44146e-11
-6.68056e-11
-6.70316e-11
3.20322e-11
-9.6315e-14
-1.4238e-12
-3.75751e-13
-4.15125e-12
-8.29308e-13
-6.75898e-12
-1.44826e-12
-9.24729e-12
-2.22388e-12
-1.16164e-11
-3.14751e-12
-1.38664e-11
-4.21046e-12
-1.59976e-11
-5.40401e-12
-1.80101e-11
-6.71939e-12
-1.99041e-11
-8.14778e-12
-2.16796e-11
-9.6802e-12
-2.3337e-11
-1.13076e-11
-2.48762e-11
-1.30206e-11
-2.62974e-11
-1.481e-11
-2.76008e-11
-1.66663e-11
-2.87865e-11
-1.85797e-11
-2.98544e-11
-2.05409e-11
-3.08047e-11
-2.25399e-11
-3.16373e-11
-2.45679e-11
-3.23519e-11
-2.66153e-11
-3.29485e-11
-2.86737e-11
-3.34268e-11
-3.07297e-11
-3.37887e-11
-3.27648e-11
-3.40384e-11
-6.68497e-11
-3.41829e-11
-6.91101e-11
-3.41891e-11
-7.11253e-11
-3.41571e-11
-7.2941e-11
-3.44357e-11
-7.4039e-11
-3.73246e-11
-7.43413e-11
-4.02645e-11
-7.37103e-11
-4.32729e-11
-7.20276e-11
-4.63311e-11
-6.92033e-11
-4.94157e-11
-6.517e-11
-5.25083e-11
-5.98898e-11
-5.55783e-11
-5.337e-11
-5.85744e-11
-4.56048e-11
-6.14642e-11
-3.69958e-11
-6.3867e-11
-2.76092e-11
-6.6122e-11
-1.71961e-11
-6.85448e-11
-5.96689e-12
-7.07094e-11
5.9557e-12
-7.26481e-11
1.82695e-11
-7.41708e-11
3.09338e-11
-7.55445e-11
4.37953e-11
-7.66657e-11
5.67032e-11
-7.75388e-11
6.95259e-11
-7.8178e-11
8.21187e-11
-7.85688e-11
9.44117e-11
-7.87565e-11
1.06208e-10
-7.86018e-11
-7.81466e-11
1.17323e-10
-1.12045e-13
-1.31175e-12
-4.37206e-13
-3.82609e-12
-9.65446e-13
-6.23074e-12
-1.68725e-12
-8.52548e-12
-2.59323e-12
-1.07104e-11
-3.6741e-12
-1.27856e-11
-4.92068e-12
-1.47511e-11
-6.32384e-12
-1.6607e-11
-7.87459e-12
-1.83533e-11
-9.56394e-12
-1.99903e-11
-1.1383e-11
-2.15179e-11
-1.33229e-11
-2.29363e-11
-1.53748e-11
-2.42455e-11
-1.75298e-11
-2.54458e-11
-1.97793e-11
-2.6537e-11
-2.21143e-11
-2.75194e-11
-2.45262e-11
-2.83928e-11
-2.70062e-11
-2.91573e-11
-2.95454e-11
-2.98126e-11
-3.21349e-11
-3.0359e-11
-3.47659e-11
-3.07958e-11
-3.74308e-11
-3.11238e-11
-4.03248e-11
-3.13428e-11
-6.9753e-11
-3.14581e-11
-7.24703e-11
-3.14717e-11
-7.51669e-11
-3.14605e-11
-7.71606e-11
-3.24421e-11
-7.5499e-11
-3.89862e-11
-7.0034e-11
-4.57295e-11
-6.11278e-11
-5.2179e-11
-4.91362e-11
-5.83227e-11
-3.44063e-11
-6.41456e-11
-1.72895e-11
-6.96251e-11
1.94472e-12
-7.48125e-11
2.30745e-11
-7.97042e-11
4.57356e-11
-8.41253e-11
6.922e-11
-8.73514e-11
9.31189e-11
-9.0021e-11
1.17792e-10
-9.32176e-11
1.42902e-10
-9.58196e-11
1.66978e-10
-9.67243e-11
1.91136e-10
-9.83284e-11
2.14782e-10
-9.91904e-11
2.37646e-10
-9.95305e-11
2.59523e-10
-9.9415e-11
2.80207e-10
-9.8862e-11
2.99736e-10
-9.80979e-11
3.17678e-10
-9.66989e-11
3.34e-10
-9.49236e-11
-9.31697e-11
3.49023e-10
-1.22039e-13
-1.18971e-12
-4.80299e-13
-3.46783e-12
-1.06492e-12
-5.64612e-12
-1.86528e-12
-7.72512e-12
-2.87118e-12
-9.70451e-12
-4.07274e-12
-1.1584e-11
-5.46043e-12
-1.33634e-11
-7.02495e-12
-1.50424e-11
-8.75733e-12
-1.6621e-11
-1.06488e-11
-1.80989e-11
-1.26907e-11
-1.9476e-11
-1.48746e-11
-2.07523e-11
-1.71924e-11
-2.19278e-11
-1.96359e-11
-2.30023e-11
-2.21969e-11
-2.3976e-11
-2.48675e-11
-2.48488e-11
-2.76396e-11
-2.56207e-11
-3.05053e-11
-2.62917e-11
-3.34562e-11
-2.68617e-11
-3.64842e-11
-2.7331e-11
-3.95809e-11
-2.76991e-11
-4.27391e-11
-2.79657e-11
-4.65213e-11
-2.81286e-11
-7.48961e-11
-2.81898e-11
-7.81985e-11
-2.81693e-11
-8.14814e-11
-2.81776e-11
-8.28743e-11
-3.10492e-11
-7.1705e-11
-5.01554e-11
-4.95326e-11
-6.79019e-11
-1.94448e-11
-8.22668e-11
1.61124e-11
-9.388e-11
5.56667e-11
-1.037e-10
9.79782e-11
-1.11937e-10
1.41787e-10
-1.18621e-10
1.86205e-10
-1.24122e-10
2.30496e-10
-1.28416e-10
2.74732e-10
-1.31587e-10
3.18527e-10
-1.33816e-10
3.59618e-10
-1.34309e-10
3.97931e-10
-1.34132e-10
4.35743e-10
-1.34537e-10
4.71086e-10
-1.33671e-10
5.04207e-10
-1.32312e-10
5.34658e-10
-1.29981e-10
5.62189e-10
-1.26946e-10
5.87104e-10
-1.23776e-10
6.08911e-10
-1.19905e-10
6.28162e-10
-1.1595e-10
6.45023e-10
-1.11784e-10
-1.07295e-10
6.59148e-10
-1.17334e-13
-1.07238e-12
-4.51883e-13
-3.13328e-12
-9.92146e-13
-5.10586e-12
-1.72983e-12
-6.98743e-12
-2.65715e-12
-8.77718e-12
-3.76672e-12
-1.04744e-11
-5.0515e-12
-1.20786e-11
-6.50465e-12
-1.35893e-11
-8.11949e-12
-1.50061e-11
-9.88932e-12
-1.6329e-11
-1.18074e-11
-1.75579e-11
-1.38667e-11
-1.8693e-11
-1.60601e-11
-1.97344e-11
-1.83796e-11
-2.06828e-11
-2.08172e-11
-2.15384e-11
-2.33638e-11
-2.23022e-11
-2.60097e-11
-2.29748e-11
-2.87441e-11
-2.35573e-11
-3.15554e-11
-2.40504e-11
-3.44303e-11
-2.4456e-11
-3.73546e-11
-2.47749e-11
-4.03127e-11
-2.50076e-11
-4.35194e-11
-2.51495e-11
-7.41933e-11
-2.5196e-11
-7.71767e-11
-2.51859e-11
-8.01972e-11
-2.5157e-11
-8.38371e-11
-2.74094e-11
-6.46761e-11
-6.93164e-11
8.13112e-12
-1.40709e-10
1.01433e-10
-1.75569e-10
1.90863e-10
-1.83309e-10
2.76992e-10
-1.89829e-10
3.58215e-10
-1.9316e-10
4.34461e-10
-1.94867e-10
5.04995e-10
-1.94656e-10
5.69317e-10
-1.92739e-10
6.27141e-10
-1.89411e-10
6.78735e-10
-1.8541e-10
7.24693e-10
-1.80268e-10
7.6529e-10
-1.74729e-10
7.99677e-10
-1.68925e-10
8.29665e-10
-1.63658e-10
8.53882e-10
-1.56529e-10
8.73231e-10
-1.49331e-10
8.88292e-10
-1.42008e-10
8.99641e-10
-1.35125e-10
9.07778e-10
-1.28043e-10
9.12622e-10
-1.20793e-10
9.14532e-10
-1.13694e-10
-1.06866e-10
9.14103e-10
-7.44313e-14
-9.9795e-13
-3.03461e-13
-2.90425e-12
-6.87033e-13
-4.72228e-12
-1.22357e-12
-6.45089e-12
-1.91368e-12
-8.08707e-12
-2.75987e-12
-9.62826e-12
-3.76601e-12
-1.10725e-11
-4.93729e-12
-1.2418e-11
-6.27959e-12
-1.36638e-11
-7.79953e-12
-1.48091e-11
-9.50374e-12
-1.58537e-11
-1.13991e-11
-1.67976e-11
-1.34918e-11
-1.76417e-11
-1.57878e-11
-1.83868e-11
-1.82914e-11
-1.90348e-11
-2.10064e-11
-1.95873e-11
-2.39337e-11
-2.00474e-11
-2.70735e-11
-2.04175e-11
-3.04221e-11
-2.07018e-11
-3.39749e-11
-2.09032e-11
-3.77211e-11
-2.10287e-11
-4.16433e-11
-2.10854e-11
-4.57073e-11
-2.10855e-11
-7.43989e-11
-2.10138e-11
-8.8374e-11
-2.07519e-11
-9.29199e-11
-2.06111e-11
-9.84144e-11
-2.19149e-11
-1.12778e-10
-5.49529e-11
-7.4205e-11
-1.79282e-10
9.54079e-12
-2.59315e-10
1.09268e-10
-2.83037e-10
2.31423e-10
-3.11984e-10
3.47284e-10
-3.0902e-10
4.49622e-10
-2.97205e-10
5.34643e-10
-2.79678e-10
6.02936e-10
-2.61032e-10
6.56316e-10
-2.42791e-10
6.96993e-10
-2.26087e-10
7.27038e-10
-2.10313e-10
7.48243e-10
-1.95934e-10
7.62085e-10
-1.82767e-10
7.68877e-10
-1.70449e-10
7.7137e-10
-1.59022e-10
7.70095e-10
-1.48056e-10
7.65744e-10
-1.37656e-10
7.58651e-10
-1.28032e-10
7.49613e-10
-1.19005e-10
7.38999e-10
-1.10179e-10
7.27091e-10
-1.01786e-10
-9.37672e-11
7.13992e-10
7.95862e-14
-1.07754e-12
3.23812e-13
-3.14848e-12
7.10944e-13
-5.10942e-12
1.20538e-12
-6.94533e-12
1.76993e-12
-8.65162e-12
2.36609e-12
-1.02244e-11
2.9542e-12
-1.16606e-11
3.49373e-12
-1.29575e-11
3.94329e-12
-1.41134e-11
4.26102e-12
-1.51268e-11
4.40447e-12
-1.59971e-11
4.33112e-12
-1.67243e-11
3.99814e-12
-1.73087e-11
3.36309e-12
-1.77517e-11
2.38352e-12
-1.80552e-11
1.01797e-12
-1.82217e-11
-7.74645e-13
-1.82548e-11
-3.0335e-12
-1.81586e-11
-5.79679e-12
-1.79385e-11
-9.09939e-12
-1.76006e-11
-1.29755e-11
-1.71526e-11
-1.74585e-11
-1.66024e-11
-2.25837e-11
-1.59604e-11
-2.83594e-11
-1.52381e-11
-5.30003e-11
-1.44585e-11
-7.30718e-11
-1.32564e-11
-8.25837e-11
-1.24029e-11
-1.21956e-10
-1.55805e-11
-9.98983e-11
-2.0134e-10
-2.23982e-10
-1.35231e-10
-2.60546e-10
-2.46473e-10
-1.97939e-10
-3.74591e-10
-1.20624e-10
-3.86335e-10
-4.35713e-11
-3.74258e-10
-1.91248e-12
-3.21336e-10
1.78978e-11
-2.80842e-10
2.45527e-11
-2.49445e-10
2.29149e-11
-2.24449e-10
1.6971e-11
-2.04369e-10
9.00594e-12
-1.87969e-10
3.46082e-13
-1.74107e-10
-8.04539e-12
-1.62058e-10
-1.57803e-11
-1.51287e-10
-2.23806e-11
-1.41456e-10
-2.78114e-11
-1.32225e-10
-3.22783e-11
-1.23565e-10
-3.59455e-11
-1.15338e-10
-3.86632e-11
-1.07462e-10
-4.05864e-11
-9.98627e-11
-9.24484e-11
-4.19052e-11
5.01765e-13
-1.5793e-12
1.85102e-12
-4.49773e-12
3.91783e-12
-7.17623e-12
6.58792e-12
-9.61543e-12
9.75221e-12
-1.18159e-11
1.33057e-11
-1.37779e-11
1.71463e-11
-1.55012e-11
2.1174e-11
-1.69852e-11
2.52898e-11
-1.82292e-11
2.93947e-11
-1.92317e-11
3.33888e-11
-1.99912e-11
3.71698e-11
-2.05053e-11
4.06331e-11
-2.0772e-11
4.36691e-11
-2.07878e-11
4.61638e-11
-2.05499e-11
4.79958e-11
-2.00537e-11
4.90369e-11
-1.9296e-11
4.91487e-11
-1.82704e-11
4.81834e-11
-1.69733e-11
4.59792e-11
-1.53964e-11
4.23625e-11
-1.35359e-11
3.71409e-11
-1.13808e-11
3.01075e-11
-8.92698e-12
2.10271e-11
-6.15773e-12
9.63991e-12
-3.07126e-12
-3.97966e-12
2.79002e-13
-5.13529e-11
4.8413e-12
-7.45114e-11
7.29358e-12
-2.65155e-10
-1.06963e-11
-3.99593e-10
-7.93195e-13
-3.77028e-10
-2.69038e-10
-5.86827e-10
-1.64792e-10
-7.14343e-10
-2.58818e-10
-8.35154e-10
-2.53447e-10
-9.45552e-10
-2.10939e-10
-1.00177e-09
-2.24626e-10
-1.03002e-09
-2.21188e-10
-1.03783e-09
-2.16647e-10
-1.0299e-09
-2.123e-10
-1.01208e-09
-2.0579e-10
-9.88515e-10
-1.97668e-10
-9.61063e-10
-1.8951e-10
-9.31383e-10
-1.80967e-10
-9.00684e-10
-1.72155e-10
-8.69698e-10
-1.6321e-10
-8.38971e-10
-1.54292e-10
-8.08796e-10
-1.45513e-10
-7.79327e-10
-1.36931e-10
-7.5061e-10
-1.28579e-10
-1.20495e-10
-7.22563e-10
5.04863e-13
-2.08416e-12
1.86681e-12
-5.85967e-12
3.96768e-12
-9.2771e-12
6.70949e-12
-1.23572e-11
1.00006e-11
-1.5107e-11
1.37546e-11
-1.75319e-11
1.78894e-11
-1.96359e-11
2.2326e-11
-2.14218e-11
2.6988e-11
-2.28912e-11
3.18002e-11
-2.4044e-11
3.66884e-11
-2.48794e-11
4.15778e-11
-2.53948e-11
4.63928e-11
-2.5587e-11
5.10555e-11
-2.54505e-11
5.54853e-11
-2.49797e-11
5.95975e-11
-2.41659e-11
6.33025e-11
-2.3001e-11
6.65044e-11
-2.14724e-11
6.91005e-11
-1.95694e-11
7.09788e-11
-1.72747e-11
7.20178e-11
-1.45748e-11
7.20833e-11
-1.14463e-11
7.10295e-11
-7.87315e-12
6.86948e-11
-3.82307e-12
6.48995e-11
7.24058e-13
5.93678e-11
5.81069e-12
5.30317e-11
1.10778e-11
3.72496e-11
1.66902e-11
-2.70493e-11
2.28971e-11
-7.60963e-11
4.80828e-11
-3.35806e-10
-9.3343e-12
-5.47857e-10
4.72583e-11
-7.09485e-10
-9.71896e-11
-1.06221e-09
9.9284e-11
-1.1806e-09
-9.25473e-11
-1.29826e-09
-1.0697e-10
-1.38018e-09
-1.39265e-10
-1.39355e-09
-2.03283e-10
-1.35477e-09
-2.51075e-10
-1.28571e-09
-2.74848e-10
-1.20948e-09
-2.73903e-10
-1.13351e-09
-2.65475e-10
-1.06327e-09
-2.51208e-10
-1.00031e-09
-2.35112e-10
-9.44816e-10
-2.18709e-10
-8.96361e-10
-2.02747e-10
-8.54276e-10
-1.87598e-10
-8.17751e-10
-1.73456e-10
-7.85948e-10
-1.60382e-10
-1.48354e-10
-7.58089e-10
-5.3337e-14
-2.03083e-12
-1.44272e-13
-5.76874e-12
-2.28365e-13
-9.19301e-12
-2.75152e-13
-1.23104e-11
-2.57676e-13
-1.51245e-11
-1.51332e-13
-1.76382e-11
6.68017e-14
-1.98541e-11
4.19082e-13
-2.17741e-11
9.27753e-13
-2.33999e-11
1.61626e-12
-2.47325e-11
2.50941e-12
-2.57725e-11
3.63509e-12
-2.65205e-11
5.02396e-12
-2.69759e-11
6.71196e-12
-2.71385e-11
8.73921e-12
-2.70069e-11
1.11538e-11
-2.65804e-11
1.40094e-11
-2.58566e-11
1.7371e-11
-2.4834e-11
2.13111e-11
-2.35094e-11
2.59176e-11
-2.18812e-11
3.12874e-11
-1.99446e-11
3.75391e-11
-1.76981e-11
4.48017e-11
-1.51357e-11
5.32347e-11
-1.22561e-11
6.3011e-11
-9.05223e-12
7.43444e-11
-5.52268e-12
8.70787e-11
-1.65657e-12
1.01218e-10
2.55134e-12
1.16102e-10
7.20918e-12
1.11739e-10
9.61552e-12
8.80499e-11
1.32174e-11
1.20522e-10
1.47087e-11
4.56645e-12
1.8765e-11
1.03071e-10
7.79523e-13
1.91806e-11
-8.65689e-12
-5.50761e-11
-3.27129e-11
-1.65603e-10
-2.8735e-11
-2.5192e-10
-1.16966e-10
-3.27919e-10
-1.75076e-10
-3.58845e-10
-2.43922e-10
-3.21789e-10
-3.10959e-10
-2.5665e-10
-3.30615e-10
-2.11843e-10
-2.96015e-10
-1.80593e-10
-2.66363e-10
-1.60628e-10
-2.38674e-10
-1.49564e-10
-2.13811e-10
-1.4565e-10
-1.91512e-10
-1.4726e-10
-1.71847e-10
-1.5316e-10
-1.54482e-10
-1.39128e-10
-1.62386e-10
-2.98037e-13
-1.73279e-12
-1.06555e-12
-5.00122e-12
-2.20881e-12
-8.04975e-12
-3.65317e-12
-1.08661e-11
-5.32966e-12
-1.3448e-11
-7.17374e-12
-1.57942e-11
-9.12453e-12
-1.79033e-11
-1.11237e-11
-1.97749e-11
-1.3115e-11
-2.14086e-11
-1.5043e-11
-2.28045e-11
-1.68528e-11
-2.39628e-11
-1.84888e-11
-2.48844e-11
-1.98946e-11
-2.55701e-11
-2.10116e-11
-2.60214e-11
-2.1779e-11
-2.62395e-11
-2.21323e-11
-2.62271e-11
-2.20033e-11
-2.59856e-11
-2.13185e-11
-2.55188e-11
-1.99993e-11
-2.48287e-11
-1.79597e-11
-2.39207e-11
-1.51071e-11
-2.27972e-11
-1.13396e-11
-2.14656e-11
-6.54641e-12
-1.99289e-11
-6.0516e-13
-1.81974e-11
6.61731e-12
-1.62747e-11
1.52693e-11
-1.41747e-11
2.55151e-11
-1.19024e-11
3.75423e-11
-9.47582e-12
5.16467e-11
-6.89522e-12
6.54335e-11
-4.17133e-12
7.99566e-11
-1.30573e-12
9.12754e-11
1.51309e-12
9.08958e-11
3.99148e-12
8.44423e-11
6.99091e-12
6.30527e-11
1.27164e-11
2.25915e-11
7.748e-12
4.44395e-12
-1.05874e-11
-1.2707e-10
1.45478e-11
-1.84879e-10
-1.17264e-10
-3.58543e-10
-7.02572e-11
-4.24222e-10
-2.4528e-10
-5.13895e-10
-2.40942e-10
-5.73133e-10
-2.36776e-10
-5.82334e-10
-2.57162e-10
-5.92095e-10
-2.28913e-10
-5.96015e-10
-2.0989e-10
-5.9852e-10
-1.89007e-10
-6.00004e-10
-1.70363e-10
-6.00933e-10
-1.53553e-10
-1.3851e-10
-6.01552e-10
-9.42486e-14
-1.63854e-12
-3.94759e-13
-4.70071e-12
-8.86898e-13
-7.55761e-12
-1.53908e-12
-1.02139e-11
-2.31729e-12
-1.26698e-11
-3.18558e-12
-1.49259e-11
-4.10642e-12
-1.69824e-11
-5.04094e-12
-1.88404e-11
-5.94927e-12
-2.05002e-11
-6.79069e-12
-2.19631e-11
-7.52397e-12
-2.32295e-11
-8.10744e-12
-2.4301e-11
-8.49938e-12
-2.51781e-11
-8.658e-12
-2.58628e-11
-8.5419e-12
-2.63556e-11
-8.11008e-12
-2.66589e-11
-7.32246e-12
-2.67732e-11
-6.13988e-12
-2.67014e-11
-4.52485e-12
-2.64438e-11
-2.44147e-12
-2.60041e-11
1.43473e-13
-2.53821e-11
3.26069e-12
-2.45828e-11
6.93682e-12
-2.36051e-11
1.11948e-11
-2.24553e-11
1.60514e-11
-2.11314e-11
2.15181e-11
-1.96414e-11
2.75975e-11
-1.79818e-11
3.42847e-11
-1.6163e-11
4.15681e-11
-1.41786e-11
4.94381e-11
-1.20414e-11
5.78737e-11
-9.74139e-12
6.66731e-11
-7.28629e-12
7.52424e-11
-4.63751e-12
8.40308e-11
-1.85743e-12
9.04788e-11
3.52301e-13
9.17246e-11
2.69492e-12
7.56882e-11
5.38507e-12
8.04611e-11
9.77422e-12
-3.46572e-11
-2.14544e-12
-1.13561e-10
8.64711e-12
-2.73291e-10
-8.55502e-11
-5.24854e-10
1.06267e-11
-5.90814e-10
-1.70817e-10
-7.26978e-10
-1.20998e-10
-8.12423e-10
-1.43467e-10
-8.51793e-10
-1.70521e-10
-8.78226e-10
-1.62574e-10
-8.8459e-10
-1.63999e-10
-8.87284e-10
-1.50859e-10
-1.39073e-10
-8.8672e-10
-2.01984e-13
-1.43656e-12
-7.64579e-13
-4.13812e-12
-1.64605e-12
-6.67614e-12
-2.80504e-12
-9.05492e-12
-4.19974e-12
-1.12751e-11
-5.78824e-12
-1.33374e-11
-7.5284e-12
-1.52423e-11
-9.3782e-12
-1.69906e-11
-1.12955e-11
-1.85829e-11
-1.32385e-11
-2.00201e-11
-1.51652e-11
-2.13028e-11
-1.70341e-11
-2.24321e-11
-1.88036e-11
-2.34086e-11
-2.04327e-11
-2.42337e-11
-2.18804e-11
-2.4908e-11
-2.31063e-11
-2.5433e-11
-2.40699e-11
-2.58095e-11
-2.47321e-11
-2.60392e-11
-2.50532e-11
-2.61226e-11
-2.49953e-11
-2.6062e-11
-2.45201e-11
-2.58573e-11
-2.35915e-11
-2.55114e-11
-2.21729e-11
-2.50237e-11
-2.02307e-11
-2.43975e-11
-1.77308e-11
-2.36313e-11
-1.4643e-11
-2.27292e-11
-1.09367e-11
-2.1688e-11
-6.58641e-12
-2.05133e-11
-1.56576e-12
-1.91992e-11
4.14602e-12
-1.77531e-11
1.05701e-11
-1.61655e-11
1.773e-11
-1.44461e-11
2.56728e-11
-1.25804e-11
3.43976e-11
-1.05822e-11
4.31753e-11
-8.42534e-12
5.19309e-11
-6.11848e-12
6.03999e-11
-3.78705e-12
6.63545e-11
-1.81372e-12
6.34224e-11
7.05769e-13
6.70584e-11
5.00645e-12
-1.86454e-11
1.53639e-13
4.15751e-12
-1.21763e-11
-1.56134e-10
-1.05249e-11
-2.45023e-10
-3.21084e-11
-2.87031e-10
-1.01453e-10
-4.15816e-10
-4.1736e-11
-4.74371e-10
-1.0402e-10
-5.19211e-10
-1.19159e-10
-5.61289e-10
-1.0878e-10
-1.09683e-10
-5.9068e-10
-2.44828e-13
-1.19174e-12
-8.91124e-13
-3.49182e-12
-1.88139e-12
-5.68587e-12
-3.17415e-12
-7.76216e-12
-4.72986e-12
-9.7194e-12
-6.51065e-12
-1.15566e-11
-8.48009e-12
-1.32729e-11
-1.06029e-11
-1.48677e-11
-1.2845e-11
-1.63409e-11
-1.51729e-11
-1.76922e-11
-1.75539e-11
-1.89218e-11
-1.99559e-11
-2.00301e-11
-2.2347e-11
-2.10175e-11
-2.46958e-11
-2.18849e-11
-2.69709e-11
-2.26329e-11
-2.91411e-11
-2.32628e-11
-3.1175e-11
-2.37756e-11
-3.30413e-11
-2.41729e-11
-3.47079e-11
-2.4456e-11
-3.61432e-11
-2.46267e-11
-3.73141e-11
-2.46864e-11
-3.8188e-11
-2.46375e-11
-3.87302e-11
-2.44816e-11
-3.89065e-11
-2.42211e-11
-3.868e-11
-2.38578e-11
-3.80144e-11
-2.33948e-11
-3.68691e-11
-2.28333e-11
-3.5205e-11
-2.21774e-11
-3.29764e-11
-2.14278e-11
-3.01402e-11
-2.05894e-11
-2.66434e-11
-1.96623e-11
-2.24372e-11
-1.86524e-11
-1.74587e-11
-1.75588e-11
-1.16518e-11
-1.63891e-11
-4.93698e-12
-1.51402e-11
2.76712e-12
-1.38226e-11
1.14081e-11
-1.2428e-11
2.05471e-11
-1.09527e-11
3.06832e-11
-9.43993e-12
4.2521e-11
-8.55932e-12
4.93083e-11
-7.61964e-12
4.35277e-11
-6.43706e-12
4.13774e-11
-8.37532e-12
2.07793e-11
-1.15103e-11
-6.62245e-11
-1.44489e-11
-8.36588e-11
-2.43011e-11
-1.17252e-10
-7.04202e-11
-2.07809e-10
-2.86019e-11
-2.57875e-10
-5.87142e-11
-6.60996e-11
-3.01458e-10
-7.19125e-14
-1.11983e-12
-3.32286e-13
-3.23145e-12
-7.79258e-13
-5.2389e-12
-1.38991e-12
-7.15151e-12
-2.14353e-12
-8.96578e-12
-3.02091e-12
-1.06792e-11
-4.00378e-12
-1.229e-11
-5.07444e-12
-1.37971e-11
-6.21545e-12
-1.51999e-11
-7.40939e-12
-1.64982e-11
-8.63865e-12
-1.76925e-11
-9.88536e-12
-1.87834e-11
-1.11312e-11
-1.97717e-11
-1.23573e-11
-2.06587e-11
-1.35443e-11
-2.14458e-11
-1.46725e-11
-2.21346e-11
-1.57213e-11
-2.27268e-11
-1.66698e-11
-2.32244e-11
-1.74964e-11
-2.36294e-11
-1.81793e-11
-2.39438e-11
-1.86957e-11
-2.41701e-11
-1.90228e-11
-2.43104e-11
-1.9137e-11
-2.43674e-11
-1.90146e-11
-2.43435e-11
-1.8631e-11
-2.42414e-11
-1.79618e-11
-2.4064e-11
-1.69811e-11
-2.38141e-11
-1.56635e-11
-2.34949e-11
-1.39818e-11
-2.31095e-11
-1.19096e-11
-2.26616e-11
-9.41732e-12
-2.21545e-11
-6.47718e-12
-2.15925e-11
-3.05653e-12
-2.09795e-11
8.74668e-13
-2.03203e-11
5.35392e-12
-1.96194e-11
1.04143e-11
-1.88829e-11
1.61016e-11
-1.81154e-11
2.24738e-11
-1.73249e-11
2.95512e-11
-1.65174e-11
3.66931e-11
-1.57012e-11
4.39581e-11
-1.48835e-11
5.19556e-11
-1.43478e-11
5.55535e-11
-1.37641e-11
5.7453e-11
-1.34548e-11
5.66965e-11
-1.36924e-11
4.69703e-11
-1.45751e-11
-8.13859e-12
-1.53112e-11
-1.95513e-11
-1.71884e-11
-4.23726e-11
-3.58868e-11
-2.16314e-11
-8.68408e-11
5.71402e-14
-1.17697e-12
2.91572e-13
-3.46588e-12
6.82204e-13
-5.62953e-12
1.16814e-12
-7.63745e-12
1.69895e-12
-9.49659e-12
2.23348e-12
-1.12137e-11
2.73884e-12
-1.27954e-11
3.18965e-12
-1.42479e-11
3.56728e-12
-1.55775e-11
3.8592e-12
-1.67902e-11
4.05834e-12
-1.78917e-11
4.16253e-12
-1.88876e-11
4.17389e-12
-1.97831e-11
4.09835e-12
-2.05832e-11
3.94518e-12
-2.12927e-11
3.72654e-12
-2.1916e-11
3.45703e-12
-2.24573e-11
3.15337e-12
-2.29208e-11
2.83403e-12
-2.331e-11
2.51882e-12
-2.36286e-11
2.22868e-12
-2.38799e-11
1.9853e-12
-2.4067e-11
1.81088e-12
-2.41929e-11
1.7278e-12
-2.42604e-11
1.75843e-12
-2.4272e-11
1.92474e-12
-2.42303e-11
2.24822e-12
-2.41376e-11
2.74933e-12
-2.3996e-11
3.44762e-12
-2.38078e-11
4.36091e-12
-2.35749e-11
5.50571e-12
-2.32993e-11
6.89597e-12
-2.29828e-11
8.54392e-12
-2.26274e-11
1.04582e-11
-2.22346e-11
1.26454e-11
-2.18066e-11
1.51071e-11
-2.13446e-11
1.78431e-11
-2.08514e-11
2.08459e-11
-2.03278e-11
2.41054e-11
-1.97769e-11
2.76034e-11
-1.91992e-11
3.13191e-11
-1.85991e-11
3.49461e-11
-1.79748e-11
3.85354e-11
-1.73527e-11
4.15726e-11
-1.67597e-11
4.31449e-11
-1.60793e-11
4.39997e-11
-1.54448e-11
4.43926e-11
-1.57042e-11
4.30058e-11
-1.58016e-11
2.29965e-11
-1.58768e-11
-1.7927e-11
1.92975e-11
7.37665e-13
-1.91464e-12
2.35691e-12
-5.08513e-12
4.50872e-12
-7.78134e-12
6.98826e-12
-1.0117e-11
9.63358e-12
-1.21419e-11
1.23177e-11
-1.38979e-11
1.49431e-11
-1.54207e-11
1.74365e-11
-1.67413e-11
1.97449e-11
-1.78859e-11
2.1832e-11
-1.88773e-11
2.36752e-11
-1.97349e-11
2.52632e-11
-2.04756e-11
2.65939e-11
-2.11138e-11
2.76726e-11
-2.16618e-11
2.85105e-11
-2.21306e-11
2.91237e-11
-2.25292e-11
2.95321e-11
-2.28657e-11
2.97583e-11
-2.3147e-11
2.98273e-11
-2.3379e-11
2.97655e-11
-2.35668e-11
2.96002e-11
-2.37146e-11
2.93594e-11
-2.38262e-11
2.90711e-11
-2.39047e-11
2.87632e-11
-2.39525e-11
2.84628e-11
-2.39716e-11
2.8196e-11
-2.39635e-11
2.79879e-11
-2.39294e-11
2.78615e-11
-2.38697e-11
2.78382e-11
-2.37845e-11
2.79368e-11
-2.36734e-11
2.81729e-11
-2.35355e-11
2.85591e-11
-2.3369e-11
2.91037e-11
-2.3172e-11
2.98101e-11
-2.2941e-11
3.06764e-11
-2.26729e-11
3.16937e-11
-2.23619e-11
3.28456e-11
-2.20032e-11
3.41059e-11
-2.15881e-11
3.54383e-11
-2.11093e-11
3.6793e-11
-2.05539e-11
3.81052e-11
-1.99113e-11
3.92931e-11
-1.91626e-11
4.02334e-11
-1.8293e-11
4.07467e-11
-1.7273e-11
4.07742e-11
-1.61434e-11
4.03235e-11
-1.49255e-11
3.79757e-11
-1.35372e-11
3.41495e-11
-1.19755e-11
2.85542e-11
-1.02815e-11
-9.96215e-12
2.059e-11
1.74854e-11
3.18002e-11
4.34189e-11
5.27019e-11
5.996e-11
6.54621e-11
6.94414e-11
7.21001e-11
7.36143e-11
7.4137e-11
7.38021e-11
7.27265e-11
7.10127e-11
6.87509e-11
6.60203e-11
6.28911e-11
5.94254e-11
5.56784e-11
5.16993e-11
4.75326e-11
4.32179e-11
3.87917e-11
3.4287e-11
2.97345e-11
2.51629e-11
2.05994e-11
1.607e-11
1.16003e-11
7.2157e-12
2.94228e-12
-1.19322e-12
-5.16221e-12
-8.9342e-12
-1.24753e-11
-1.57482e-11
-1.87101e-11
-2.13134e-11
-2.35015e-11
-2.52108e-11
-2.63648e-11
-2.68761e-11
-2.66389e-11
-2.55328e-11
-2.34102e-11
-2.01715e-11
-1.59853e-11
-1.02355e-11
-3.10008e-12
5.39075e-12
7.2754e-12
5.30464e-12
-5.37943e-11
9.43796e-12
-5.39557e-11
1.36031e-11
-5.40314e-11
1.76623e-11
-5.39336e-11
2.16648e-11
-5.38392e-11
2.56048e-11
-5.37143e-11
2.94682e-11
-5.35531e-11
3.32192e-11
-5.33446e-11
3.69227e-11
-5.32072e-11
4.05757e-11
-5.29659e-11
4.41222e-11
-5.26658e-11
4.75728e-11
-5.24886e-11
5.08964e-11
-5.22556e-11
5.40746e-11
-5.19833e-11
5.71041e-11
-5.16823e-11
5.99947e-11
-5.13703e-11
6.27457e-11
-5.10483e-11
6.536e-11
-5.0724e-11
6.78933e-11
-5.04248e-11
7.02915e-11
-5.00848e-11
7.25433e-11
-4.97259e-11
7.4693e-11
-4.93778e-11
7.67496e-11
-4.90121e-11
7.86694e-11
-4.86169e-11
8.04598e-11
-4.8193e-11
8.21344e-11
-4.7747e-11
8.37097e-11
-4.72748e-11
8.51921e-11
-4.68013e-11
8.66008e-11
-4.63191e-11
8.79336e-11
-4.582e-11
8.91804e-11
-4.53136e-11
9.03456e-11
-4.47982e-11
9.142e-11
-4.42619e-11
9.24027e-11
-4.37126e-11
9.32914e-11
-4.31498e-11
9.40858e-11
-4.25757e-11
9.4788e-11
-4.19919e-11
9.53917e-11
-4.1391e-11
9.58983e-11
-4.07848e-11
9.63065e-11
-4.01763e-11
9.66199e-11
-3.95712e-11
9.6847e-11
-3.89735e-11
9.69885e-11
-3.83763e-11
9.7044e-11
-3.7777e-11
9.70128e-11
-3.71756e-11
9.68939e-11
-3.65722e-11
9.66872e-11
-3.59682e-11
9.63934e-11
-3.53649e-11
9.60134e-11
-3.4763e-11
-3.41636e-11
9.55498e-11
8.64794e-12
-5.96033e-11
1.4461e-11
-5.97688e-11
2.03077e-11
-5.98781e-11
2.62689e-11
-5.98948e-11
3.22696e-11
-5.98399e-11
3.82852e-11
-5.973e-11
4.42982e-11
-5.9566e-11
5.03132e-11
-5.93596e-11
5.62013e-11
-5.90953e-11
6.20263e-11
-5.87909e-11
6.78038e-11
-5.84433e-11
7.33689e-11
-5.80536e-11
7.87419e-11
-5.76286e-11
8.40026e-11
-5.7244e-11
8.90684e-11
-5.67481e-11
9.39412e-11
-5.62432e-11
9.85325e-11
-5.56396e-11
1.02917e-10
-5.51088e-11
1.07048e-10
-5.45556e-11
1.10876e-10
-5.39129e-11
1.14372e-10
-5.32216e-11
1.17544e-10
-5.25496e-11
1.20433e-10
-5.19013e-11
1.23028e-10
-5.12125e-11
1.25302e-10
-5.04664e-11
1.27344e-10
-4.97894e-11
1.29235e-10
-4.91654e-11
1.30875e-10
-4.84419e-11
1.32362e-10
-4.78057e-11
1.33729e-10
-4.71866e-11
1.34928e-10
-4.65132e-11
1.35935e-10
-4.58049e-11
1.36778e-10
-4.51045e-11
1.37456e-10
-4.43908e-11
1.37977e-10
-4.36709e-11
1.38348e-10
-4.2947e-11
1.38578e-10
-4.22218e-11
1.38687e-10
-4.14999e-11
1.38681e-10
-4.07785e-11
1.38564e-10
-4.00595e-11
1.38344e-10
-3.93511e-11
1.38033e-10
-3.86629e-11
1.3764e-10
-3.79829e-11
1.3716e-10
-3.72976e-11
1.36588e-10
-3.66035e-11
1.35918e-10
-3.59017e-11
1.35143e-10
-3.51931e-11
1.34261e-10
-3.44829e-11
1.33273e-10
-3.37751e-11
-3.30751e-11
1.32184e-10
3.96098e-11
-6.71809e-11
4.71049e-11
-6.72639e-11
5.45213e-11
-6.72945e-11
6.18934e-11
-6.72669e-11
6.92107e-11
-6.71572e-11
7.64508e-11
-6.69701e-11
8.35927e-11
-6.67078e-11
9.06069e-11
-6.63738e-11
9.74832e-11
-6.59716e-11
1.04197e-10
-6.55043e-11
1.10731e-10
-6.49781e-11
1.17075e-10
-6.43969e-11
1.23221e-10
-6.37748e-11
1.29063e-10
-6.30861e-11
1.34675e-10
-6.23603e-11
1.40007e-10
-6.15753e-11
1.451e-10
-6.07321e-11
1.49853e-10
-5.98617e-11
1.54256e-10
-5.89586e-11
1.5835e-10
-5.80073e-11
1.62162e-10
-5.70331e-11
1.65644e-10
-5.60313e-11
1.68774e-10
-5.50313e-11
1.71582e-10
-5.40209e-11
1.74141e-10
-5.30253e-11
1.76388e-10
-5.20369e-11
1.78296e-10
-5.10728e-11
1.7997e-10
-5.01156e-11
1.81324e-10
-4.91603e-11
1.82343e-10
-4.8206e-11
1.8307e-10
-4.72399e-11
1.83552e-10
-4.62864e-11
1.83801e-10
-4.53539e-11
1.83822e-10
-4.44116e-11
1.8363e-10
-4.34787e-11
1.83244e-10
-4.25617e-11
1.8268e-10
-4.16573e-11
1.81961e-10
-4.07807e-11
1.81095e-10
-3.99133e-11
1.80097e-10
-3.90612e-11
1.78955e-10
-3.82091e-11
1.7772e-10
-3.74283e-11
1.76372e-10
-3.66342e-11
1.74921e-10
-3.5847e-11
1.73387e-10
-3.50689e-11
1.71761e-10
-3.4276e-11
1.70048e-10
-3.34805e-11
1.68236e-10
-3.26711e-11
1.66343e-10
-3.18817e-11
-3.11073e-11
1.64375e-10
1.27727e-10
-7.75853e-11
1.37479e-10
-7.70156e-11
1.46758e-10
-7.65733e-11
1.55529e-10
-7.60386e-11
1.63868e-10
-7.54955e-11
1.71755e-10
-7.48575e-11
1.79176e-10
-7.41282e-11
1.86116e-10
-7.33143e-11
1.92567e-10
-7.24229e-11
1.98527e-10
-7.14643e-11
2.03996e-10
-7.04469e-11
2.08979e-10
-6.93802e-11
2.13475e-10
-6.82701e-11
2.17513e-10
-6.7124e-11
2.21098e-10
-6.59459e-11
2.24263e-10
-6.47397e-11
2.27043e-10
-6.35127e-11
2.29447e-10
-6.22654e-11
2.31496e-10
-6.10076e-11
2.3323e-10
-5.97417e-11
2.34668e-10
-5.84704e-11
2.35837e-10
-5.72007e-11
2.36739e-10
-5.59335e-11
2.37393e-10
-5.46747e-11
2.37796e-10
-5.34285e-11
2.37958e-10
-5.2199e-11
2.37868e-10
-5.09829e-11
2.37533e-10
-4.97807e-11
2.36962e-10