/*--------------------------------*- C++ -*----------------------------------*\
| =========                 |                                                 |
| \\      /  F ield         | OpenFOAM: The Open Source CFD Toolbox           |
|  \\    /   O peration     | Version:  2.4.0                                 |
|   \\  /    A nd           | Web:      www.OpenFOAM.org                      |
|    \\/     M anipulation  |                                                 |
\*---------------------------------------------------------------------------*/
FoamFile
{
    version     2.0;
    format      ascii;
    class       volVectorField;
    location    "0.006";
    object      U;
}
// * * * * * * * * * * * * * * * * * * * * * * * * * * * * * * * * * * * * * //

dimensions      [0 1 -1 0 0 0 0];

internalField   nonuniform List<vector> 
125
(
(3.66583e-05 -0.0297631 0)
(3.60534e-05 -0.0297633 0)
(3.54564e-05 -0.0297636 0)
(3.48687e-05 -0.0297638 0)
(3.42913e-05 -0.029764 0)
(3.37252e-05 -0.0297643 0)
(3.31712e-05 -0.0297645 0)
(3.26301e-05 -0.0297648 0)
(3.21024e-05 -0.029765 0)
(3.15885e-05 -0.0297652 0)
(3.10886e-05 -0.0297655 0)
(3.06032e-05 -0.0297657 0)
(3.01321e-05 -0.0297659 0)
(2.96755e-05 -0.0297661 0)
(2.92334e-05 -0.0297663 0)
(2.88054e-05 -0.0297666 0)
(2.83916e-05 -0.0297668 0)
(2.79916e-05 -0.029767 0)
(2.76052e-05 -0.0297672 0)
(2.72319e-05 -0.0297674 0)
(2.68714e-05 -0.0297676 0)
(2.65234e-05 -0.0297678 0)
(2.61874e-05 -0.029768 0)
(2.58629e-05 -0.0297682 0)
(2.55495e-05 -0.0297684 0)
(2.52468e-05 -0.0297686 0)
(2.49542e-05 -0.0297688 0)
(2.46713e-05 -0.029769 0)
(2.43976e-05 -0.0297692 0)
(2.41327e-05 -0.0297694 0)
(2.38761e-05 -0.0297696 0)
(2.36274e-05 -0.0297698 0)
(2.33861e-05 -0.02977 0)
(2.31519e-05 -0.0297702 0)
(2.29243e-05 -0.0297704 0)
(2.2703e-05 -0.0297705 0)
(2.24876e-05 -0.0297707 0)
(2.22777e-05 -0.0297709 0)
(2.20731e-05 -0.0297711 0)
(2.18733e-05 -0.0297713 0)
(2.16782e-05 -0.0297715 0)
(2.14875e-05 -0.0297716 0)
(2.13008e-05 -0.0297718 0)
(2.11181e-05 -0.029772 0)
(2.09389e-05 -0.0297722 0)
(2.07632e-05 -0.0297723 0)
(2.05908e-05 -0.0297725 0)
(2.04214e-05 -0.0297727 0)
(2.0255e-05 -0.0297729 0)
(2.00914e-05 -0.029773 0)
(1.99304e-05 -0.0297732 0)
(1.97719e-05 -0.0297734 0)
(1.96158e-05 -0.0297736 0)
(1.94621e-05 -0.0297737 0)
(1.93106e-05 -0.0297739 0)
(1.91612e-05 -0.0297741 0)
(1.90139e-05 -0.0297742 0)
(1.88686e-05 -0.0297744 0)
(1.87253e-05 -0.0297746 0)
(1.85839e-05 -0.0297747 0)
(1.84443e-05 -0.0297749 0)
(1.83065e-05 -0.0297751 0)
(1.81704e-05 -0.0297752 0)
(1.80361e-05 -0.0297754 0)
(1.79035e-05 -0.0297755 0)
(1.77726e-05 -0.0297757 0)
(1.76433e-05 -0.0297759 0)
(1.75156e-05 -0.029776 0)
(1.73895e-05 -0.0297762 0)
(1.7265e-05 -0.0297763 0)
(1.7142e-05 -0.0297765 0)
(1.70205e-05 -0.0297767 0)
(1.69006e-05 -0.0297768 0)
(1.67821e-05 -0.029777 0)
(1.66652e-05 -0.0297771 0)
(1.65496e-05 -0.0297773 0)
(1.64355e-05 -0.0297774 0)
(1.63229e-05 -0.0297776 0)
(1.62116e-05 -0.0297777 0)
(1.61017e-05 -0.0297779 0)
(1.59932e-05 -0.029778 0)
(1.58861e-05 -0.0297782 0)
(1.57802e-05 -0.0297783 0)
(1.56757e-05 -0.0297785 0)
(1.55724e-05 -0.0297786 0)
(1.54705e-05 -0.0297788 0)
(1.53698e-05 -0.0297789 0)
(1.52703e-05 -0.0297791 0)
(1.5172e-05 -0.0297792 0)
(1.50749e-05 -0.0297794 0)
(1.49789e-05 -0.0297795 0)
(1.48842e-05 -0.0297797 0)
(1.47905e-05 -0.0297798 0)
(1.46979e-05 -0.02978 0)
(1.46064e-05 -0.0297801 0)
(1.45159e-05 -0.0297802 0)
(1.44265e-05 -0.0297804 0)
(1.4338e-05 -0.0297805 0)
(1.42505e-05 -0.0297807 0)
(1.4164e-05 -0.0297808 0)
(1.40784e-05 -0.0297809 0)
(1.39937e-05 -0.0297811 0)
(1.39098e-05 -0.0297812 0)
(1.38268e-05 -0.0297814 0)
(1.37446e-05 -0.0297815 0)
(1.36632e-05 -0.0297816 0)
(1.35826e-05 -0.0297818 0)
(1.35027e-05 -0.0297819 0)
(1.34235e-05 -0.029782 0)
(1.3345e-05 -0.0297822 0)
(1.32672e-05 -0.0297823 0)
(1.319e-05 -0.0297824 0)
(1.31134e-05 -0.0297826 0)
(1.30373e-05 -0.0297827 0)
(1.29619e-05 -0.0297828 0)
(1.28869e-05 -0.029783 0)
(1.28125e-05 -0.0297831 0)
(1.27386e-05 -0.0297832 0)
(1.26651e-05 -0.0297834 0)
(1.25921e-05 -0.0297835 0)
(1.25194e-05 -0.0297836 0)
(1.24472e-05 -0.0297838 0)
(1.23753e-05 -0.0297839 0)
(1.23038e-05 -0.029784 0)
(1.22326e-05 -0.0297841 0)
)
;

boundaryField
{
    BotWall
    {
        type            fixedValue;
        value           nonuniform 0();
    }
    FreeStream
    {
        type            zeroGradient;
    }
    FrontNBack
    {
        type            empty;
    }
    LeftSide
    {
        type            symmetryPlane;
    }
    RightSide
    {
        type            symmetryPlane;
    }
    procBoundary1to0
    {
        type            processor;
        value           uniform (1.21617e-05 -0.0297843 0);
    }
    procBoundary1to2
    {
        type            processor;
        value           uniform (3.72696e-05 -0.0297628 0);
    }
    procBoundary1to3
    {
        type            processor;
        value           nonuniform List<vector> 
75
(
(3.20566e-05 -0.0298279 0)
(3.17854e-05 -0.0298277 0)
(3.15172e-05 -0.0298276 0)
(3.1252e-05 -0.0298274 0)
(3.09896e-05 -0.0298273 0)
(3.07298e-05 -0.0298271 0)
(3.04727e-05 -0.029827 0)
(3.02181e-05 -0.0298268 0)
(2.9966e-05 -0.0298267 0)
(2.97162e-05 -0.0298265 0)
(2.94687e-05 -0.0298264 0)
(2.92235e-05 -0.0298262 0)
(2.89805e-05 -0.0298261 0)
(2.87396e-05 -0.0298259 0)
(2.85009e-05 -0.0298258 0)
(2.82642e-05 -0.0298257 0)
(2.80295e-05 -0.0298255 0)
(2.77967e-05 -0.0298254 0)
(2.75659e-05 -0.0298252 0)
(2.73371e-05 -0.0298251 0)
(2.711e-05 -0.029825 0)
(2.68849e-05 -0.0298248 0)
(2.66615e-05 -0.0298247 0)
(2.64399e-05 -0.0298246 0)
(2.622e-05 -0.0298244 0)
(2.60019e-05 -0.0298243 0)
(2.57854e-05 -0.0298242 0)
(2.55706e-05 -0.029824 0)
(2.53574e-05 -0.0298239 0)
(2.51459e-05 -0.0298238 0)
(2.49359e-05 -0.0298236 0)
(2.47274e-05 -0.0298235 0)
(2.45205e-05 -0.0298234 0)
(2.4315e-05 -0.0298233 0)
(2.41111e-05 -0.0298231 0)
(2.39086e-05 -0.029823 0)
(2.37074e-05 -0.0298229 0)
(2.35077e-05 -0.0298228 0)
(2.33093e-05 -0.0298226 0)
(2.31123e-05 -0.0298225 0)
(2.29166e-05 -0.0298224 0)
(2.27221e-05 -0.0298223 0)
(2.2529e-05 -0.0298222 0)
(2.2337e-05 -0.029822 0)
(2.21462e-05 -0.0298219 0)
(2.19567e-05 -0.0298218 0)
(2.17682e-05 -0.0298217 0)
(2.1581e-05 -0.0298216 0)
(2.13948e-05 -0.0298215 0)
(2.12097e-05 -0.0298213 0)
(2.10256e-05 -0.0298212 0)
(2.08426e-05 -0.0298211 0)
(2.06606e-05 -0.029821 0)
(2.04795e-05 -0.0298209 0)
(2.02995e-05 -0.0298208 0)
(2.01204e-05 -0.0298207 0)
(1.99422e-05 -0.0298206 0)
(1.97649e-05 -0.0298205 0)
(1.95885e-05 -0.0298203 0)
(1.94129e-05 -0.0298202 0)
(1.92382e-05 -0.0298201 0)
(1.90643e-05 -0.02982 0)
(1.88913e-05 -0.0298199 0)
(1.8719e-05 -0.0298198 0)
(1.85474e-05 -0.0298197 0)
(1.83767e-05 -0.0298196 0)
(1.82066e-05 -0.0298195 0)
(1.80373e-05 -0.0298194 0)
(1.78687e-05 -0.0298193 0)
(1.77008e-05 -0.0298192 0)
(1.75336e-05 -0.0298191 0)
(1.7367e-05 -0.029819 0)
(1.72011e-05 -0.0298189 0)
(1.70358e-05 -0.0298188 0)
(1.68712e-05 -0.0298187 0)
)
;
    }
    procBoundary1to4
    {
        type            processor;
        value           nonuniform List<vector> 
50
(
(5.5792e-05 -0.0298374 0)
(5.50284e-05 -0.0298371 0)
(5.42706e-05 -0.0298369 0)
(5.35205e-05 -0.0298366 0)
(5.27797e-05 -0.0298364 0)
(5.20495e-05 -0.0298362 0)
(5.13312e-05 -0.029836 0)
(5.06257e-05 -0.0298357 0)
(4.99338e-05 -0.0298355 0)
(4.92563e-05 -0.0298353 0)
(4.85937e-05 -0.0298351 0)
(4.79464e-05 -0.0298349 0)
(4.73147e-05 -0.0298347 0)
(4.66986e-05 -0.0298345 0)
(4.60984e-05 -0.0298343 0)
(4.55139e-05 -0.0298341 0)
(4.4945e-05 -0.0298339 0)
(4.43915e-05 -0.0298337 0)
(4.38532e-05 -0.0298335 0)
(4.33298e-05 -0.0298333 0)
(4.28208e-05 -0.0298331 0)
(4.2326e-05 -0.0298329 0)
(4.18448e-05 -0.0298327 0)
(4.13768e-05 -0.0298325 0)
(4.09216e-05 -0.0298323 0)
(4.04786e-05 -0.0298321 0)
(4.00473e-05 -0.0298319 0)
(3.96272e-05 -0.0298318 0)
(3.92179e-05 -0.0298316 0)
(3.88188e-05 -0.0298314 0)
(3.84294e-05 -0.0298312 0)
(3.80492e-05 -0.029831 0)
(3.76779e-05 -0.0298309 0)
(3.73148e-05 -0.0298307 0)
(3.69596e-05 -0.0298305 0)
(3.66118e-05 -0.0298303 0)
(3.6271e-05 -0.0298302 0)
(3.59369e-05 -0.02983 0)
(3.56091e-05 -0.0298298 0)
(3.52872e-05 -0.0298297 0)
(3.49708e-05 -0.0298295 0)
(3.46598e-05 -0.0298293 0)
(3.43538e-05 -0.0298292 0)
(3.40525e-05 -0.029829 0)
(3.37556e-05 -0.0298288 0)
(3.3463e-05 -0.0298287 0)
(3.31744e-05 -0.0298285 0)
(3.28897e-05 -0.0298284 0)
(3.26086e-05 -0.0298282 0)
(3.23309e-05 -0.029828 0)
)
;
    }
}


// ************************************************************************* //
