/*--------------------------------*- C++ -*----------------------------------*\
| =========                 |                                                 |
| \\      /  F ield         | OpenFOAM: The Open Source CFD Toolbox           |
|  \\    /   O peration     | Version:  2.4.0                                 |
|   \\  /    A nd           | Web:      www.OpenFOAM.org                      |
|    \\/     M anipulation  |                                                 |
\*---------------------------------------------------------------------------*/
FoamFile
{
    version     2.0;
    format      ascii;
    class       surfaceScalarField;
    location    "1.8";
    object      phi;
}
// * * * * * * * * * * * * * * * * * * * * * * * * * * * * * * * * * * * * * //

dimensions      [0 3 -1 0 0 0 0];

internalField   nonuniform List<scalar> 
220
(
-2.07321e-17
-3.1091e-10
-1.08172e-17
-3.1091e-10
4.66143e-18
-3.1091e-10
6.21774e-18
-3.1091e-10
-3.1091e-10
-2.16729e-17
-3.1091e-10
-1.14561e-17
-3.1091e-10
5.169e-18
-3.1091e-10
7.21072e-18
-3.1091e-10
-3.1091e-10
-2.2527e-17
-3.1091e-10
-1.20389e-17
-3.1091e-10
5.637e-18
-3.1091e-10
8.13129e-18
-3.1091e-10
-3.1091e-10
-2.32933e-17
-3.1091e-10
-1.25652e-17
-3.1091e-10
6.06479e-18
-3.1091e-10
8.97891e-18
-3.1091e-10
-3.1091e-10
-2.39708e-17
-3.1091e-10
-1.30346e-17
-3.1091e-10
6.45166e-18
-3.1091e-10
9.75258e-18
-3.1091e-10
-3.1091e-10
-2.4559e-17
-3.1091e-10
-1.34469e-17
-3.1091e-10
6.79703e-18
-3.1091e-10
1.04517e-17
-3.1091e-10
-3.1091e-10
-2.50573e-17
-3.1091e-10
-1.38021e-17
-3.1091e-10
7.10045e-18
-3.1091e-10
1.10757e-17
-3.1091e-10
-3.1091e-10
-2.54654e-17
-3.1091e-10
-1.41003e-17
-3.1091e-10
7.36157e-18
-3.1091e-10
1.16246e-17
-3.1091e-10
-3.1091e-10
-2.57833e-17
-3.1091e-10
-1.43417e-17
-3.1091e-10
7.58013e-18
-3.1091e-10
1.20981e-17
-3.1091e-10
-3.1091e-10
-2.60112e-17
-3.1091e-10
-1.45266e-17
-3.1091e-10
7.75602e-18
-3.1091e-10
1.24966e-17
-3.1091e-10
-3.1091e-10
-2.61494e-17
-3.1091e-10
-1.46555e-17
-3.1091e-10
7.88923e-18
-3.1091e-10
1.28204e-17
-3.1091e-10
-3.1091e-10
-2.61987e-17
-3.1091e-10
-1.47292e-17
-3.1091e-10
7.97986e-18
-3.1091e-10
1.30701e-17
-3.1091e-10
-3.1091e-10
-2.61599e-17
-3.1091e-10
-1.47484e-17
-3.1091e-10
8.02817e-18
-3.1091e-10
1.32466e-17
-3.1091e-10
-3.1091e-10
-2.60342e-17
-3.1091e-10
-1.4714e-17
-3.1091e-10
8.0345e-18
-3.1091e-10
1.33508e-17
-3.1091e-10
-3.1091e-10
-2.58231e-17
-3.1091e-10
-1.46272e-17
-3.1091e-10
7.99935e-18
-3.1091e-10
1.33839e-17
-3.1091e-10
-3.1091e-10
-2.55282e-17
-3.10909e-10
-1.44892e-17
-3.1091e-10
7.92334e-18
-3.1091e-10
1.33473e-17
-3.1091e-10
-3.1091e-10
-2.51516e-17
-3.10909e-10
-1.43015e-17
-3.1091e-10
7.80722e-18
-3.10911e-10
1.32427e-17
-3.1091e-10
-3.1091e-10
-2.46956e-17
-3.10909e-10
-1.40656e-17
-3.1091e-10
7.65187e-18
-3.10911e-10
1.30718e-17
-3.1091e-10
-3.1091e-10
-2.41626e-17
-3.10909e-10
-1.37833e-17
-3.1091e-10
7.4583e-18
-3.10911e-10
1.28366e-17
-3.1091e-10
-3.1091e-10
-2.35554e-17
-3.10909e-10
-1.34565e-17
-3.1091e-10
7.22762e-18
-3.10911e-10
1.25393e-17
-3.1091e-10
-3.1091e-10
-2.28773e-17
-3.10909e-10
-1.30871e-17
-3.1091e-10
6.9611e-18
-3.10911e-10
1.21821e-17
-3.1091e-10
-3.1091e-10
-2.21314e-17
-3.10909e-10
-1.26774e-17
-3.1091e-10
6.6601e-18
-3.10911e-10
1.17673e-17
-3.1091e-10
-3.1091e-10
-2.13216e-17
-3.10909e-10
-1.22298e-17
-3.1091e-10
6.32656e-18
-3.10911e-10
1.12979e-17
-3.1091e-10
-3.1091e-10
-2.04516e-17
-3.10909e-10
-1.17468e-17
-3.10911e-10
5.96185e-18
-3.10911e-10
1.07715e-17
-3.1091e-10
-3.1091e-10
-1.95257e-17
-1.12313e-17
5.56826e-18
1.01983e-17
)
;

boundaryField
{
    BotWall
    {
        type            calculated;
        value           nonuniform 0();
    }
    FreeStream
    {
        type            calculated;
        value           nonuniform 0();
    }
    FrontNBack
    {
        type            empty;
        value           nonuniform 0();
    }
    LeftSide
    {
        type            symmetryPlane;
        value           uniform 0;
    }
    RightSide
    {
        type            symmetryPlane;
        value           uniform 0;
    }
    procBoundary2to1
    {
        type            processor;
        value           nonuniform List<scalar> 5(3.1091e-10 3.1091e-10 3.1091e-10 3.1091e-10 3.1091e-10);
    }
    procBoundary2to3
    {
        type            processor;
        value           nonuniform List<scalar> 5(-3.10909e-10 -3.10911e-10 -3.10911e-10 -3.1091e-10 -3.1091e-10);
    }
}


// ************************************************************************* //
