/*--------------------------------*- C++ -*----------------------------------*\
| =========                 |                                                 |
| \\      /  F ield         | OpenFOAM: The Open Source CFD Toolbox           |
|  \\    /   O peration     | Version:  2.4.0                                 |
|   \\  /    A nd           | Web:      www.OpenFOAM.org                      |
|    \\/     M anipulation  |                                                 |
\*---------------------------------------------------------------------------*/
FoamFile
{
    version     2.0;
    format      ascii;
    class       volVectorField;
    location    "1.8";
    object      U;
}
// * * * * * * * * * * * * * * * * * * * * * * * * * * * * * * * * * * * * * //

dimensions      [0 1 -1 0 0 0 0];

internalField   nonuniform List<vector> 
125
(
(-3.84797e-09 -0.00155455 0)
(-4.819e-09 -0.00155455 0)
(2.88695e-10 -0.00155455 0)
(1.66662e-09 -0.00155455 0)
(9.21365e-10 -0.00155455 0)
(-3.95603e-09 -0.00155455 0)
(-5.00463e-09 -0.00155455 0)
(2.59886e-10 -0.00155455 0)
(1.88359e-09 -0.00155455 0)
(1.08741e-09 -0.00155455 0)
(-4.0473e-09 -0.00155455 0)
(-5.16404e-09 -0.00155455 0)
(2.33129e-10 -0.00155455 0)
(2.07799e-09 -0.00155455 0)
(1.23745e-09 -0.00155455 0)
(-4.12209e-09 -0.00155455 0)
(-5.29777e-09 -0.00155455 0)
(2.08287e-10 -0.00155455 0)
(2.2503e-09 -0.00155455 0)
(1.37191e-09 -0.00155455 0)
(-4.18074e-09 -0.00155455 0)
(-5.4064e-09 -0.00155455 0)
(1.85229e-10 -0.00155455 0)
(2.40097e-09 -0.00155455 0)
(1.49113e-09 -0.00155455 0)
(-4.22363e-09 -0.00155455 0)
(-5.49058e-09 -0.00155455 0)
(1.63822e-10 -0.00155455 0)
(2.5305e-09 -0.00155455 0)
(1.59549e-09 -0.00155455 0)
(-4.25116e-09 -0.00155455 0)
(-5.55095e-09 -0.00155455 0)
(1.4394e-10 -0.00155455 0)
(2.6394e-09 -0.00155455 0)
(1.6854e-09 -0.00155455 0)
(-4.26374e-09 -0.00155455 0)
(-5.58822e-09 -0.00155455 0)
(1.25461e-10 -0.00155455 0)
(2.72824e-09 -0.00155455 0)
(1.76129e-09 -0.00155455 0)
(-4.26185e-09 -0.00155455 0)
(-5.60313e-09 -0.00155455 0)
(1.08263e-10 -0.00155455 0)
(2.79765e-09 -0.00155455 0)
(1.82361e-09 -0.00155455 0)
(-4.24594e-09 -0.00155455 0)
(-5.59647e-09 -0.00155455 0)
(9.22321e-11 -0.00155455 0)
(2.84824e-09 -0.00155455 0)
(1.87285e-09 -0.00155455 0)
(-4.21653e-09 -0.00155455 0)
(-5.56903e-09 -0.00155455 0)
(7.72575e-11 -0.00155455 0)
(2.88068e-09 -0.00155455 0)
(1.90947e-09 -0.00155455 0)
(-4.17413e-09 -0.00155455 0)
(-5.52167e-09 -0.00155455 0)
(6.32332e-11 -0.00155455 0)
(2.89568e-09 -0.00155455 0)
(1.93399e-09 -0.00155455 0)
(-4.11931e-09 -0.00155455 0)
(-5.45528e-09 -0.00155455 0)
(5.00581e-11 -0.00155455 0)
(2.89396e-09 -0.00155455 0)
(1.94693e-09 -0.00155455 0)
(-4.05263e-09 -0.00155455 0)
(-5.37076e-09 -0.00155455 0)
(3.76365e-11 -0.00155455 0)
(2.87626e-09 -0.00155455 0)
(1.94881e-09 -0.00155455 0)
(-3.97469e-09 -0.00155455 0)
(-5.26907e-09 -0.00155455 0)
(2.58779e-11 -0.00155455 0)
(2.84336e-09 -0.00155455 0)
(1.94018e-09 -0.00155455 0)
(-3.8861e-09 -0.00155455 0)
(-5.15117e-09 -0.00155455 0)
(1.46977e-11 -0.00155455 0)
(2.79605e-09 -0.00155455 0)
(1.92159e-09 -0.00155455 0)
(-3.78751e-09 -0.00155455 0)
(-5.01806e-09 -0.00155455 0)
(4.01654e-12 -0.00155455 0)
(2.73514e-09 -0.00155455 0)
(1.89361e-09 -0.00155455 0)
(-3.67957e-09 -0.00155455 0)
(-4.87077e-09 -0.00155455 0)
(-6.23881e-12 -0.00155455 0)
(2.66147e-09 -0.00155455 0)
(1.85679e-09 -0.00155455 0)
(-3.56294e-09 -0.00155455 0)
(-4.71036e-09 -0.00155455 0)
(-1.61358e-11 -0.00155455 0)
(2.57588e-09 -0.00155455 0)
(1.81172e-09 -0.00155455 0)
(-3.43833e-09 -0.00155455 0)
(-4.53788e-09 -0.00155455 0)
(-2.57357e-11 -0.00155455 0)
(2.47922e-09 -0.00155455 0)
(1.75897e-09 -0.00155455 0)
(-3.30643e-09 -0.00155455 0)
(-4.35443e-09 -0.00155455 0)
(-3.50938e-11 -0.00155455 0)
(2.37236e-09 -0.00155455 0)
(1.69911e-09 -0.00155455 0)
(-3.16795e-09 -0.00155455 0)
(-4.16111e-09 -0.00155455 0)
(-4.42591e-11 -0.00155455 0)
(2.25614e-09 -0.00155455 0)
(1.63269e-09 -0.00155455 0)
(-3.02364e-09 -0.00155455 0)
(-3.95904e-09 -0.00155455 0)
(-5.32753e-11 -0.00155455 0)
(2.13154e-09 -0.00155455 0)
(1.5604e-09 -0.00155455 0)
(-2.87421e-09 -0.00155455 0)
(-3.74935e-09 -0.00155455 0)
(-6.2179e-11 -0.00155455 0)
(1.99898e-09 -0.00155455 0)
(1.48233e-09 -0.00155455 0)
(-2.72042e-09 -0.00155455 0)
(-3.53318e-09 -0.00155455 0)
(-7.10082e-11 -0.00155455 0)
(1.85999e-09 -0.00155455 0)
(1.39971e-09 -0.00155455 0)
)
;

boundaryField
{
    BotWall
    {
        type            fixedValue;
        value           nonuniform 0();
    }
    FreeStream
    {
        type            zeroGradient;
    }
    FrontNBack
    {
        type            empty;
    }
    LeftSide
    {
        type            symmetryPlane;
    }
    RightSide
    {
        type            symmetryPlane;
    }
    procBoundary2to1
    {
        type            processor;
        value           nonuniform List<vector> 5((-3.7228e-09 -0.00155455 0) (-4.60665e-09 -0.00155455 0) (3.19689e-10 -0.00155455 0) (1.42693e-09 -0.00155455 0) (7.39239e-10 -0.00155455 0));
    }
    procBoundary2to3
    {
        type            processor;
        value           nonuniform List<vector> 5((-2.56303e-09 -0.00155455 0) (-3.31169e-09 -0.00155455 0) (-7.97837e-11 -0.00155455 0) (1.71498e-09 -0.00155455 0) (1.31262e-09 -0.00155455 0));
    }
}


// ************************************************************************* //
