/*--------------------------------*- C++ -*----------------------------------*\
| =========                 |                                                 |
| \\      /  F ield         | OpenFOAM: The Open Source CFD Toolbox           |
|  \\    /   O peration     | Version:  2.4.0                                 |
|   \\  /    A nd           | Web:      www.OpenFOAM.org                      |
|    \\/     M anipulation  |                                                 |
\*---------------------------------------------------------------------------*/
FoamFile
{
    version     2.0;
    format      ascii;
    class       volScalarField;
    location    "3.1";
    object      alpha1;
}
// * * * * * * * * * * * * * * * * * * * * * * * * * * * * * * * * * * * * * //

dimensions      [0 0 0 0 0 0 0];

internalField   nonuniform List<scalar> 
8000
(
1
1
1
1
1
1
1
1
1
1
1
1
1
1
1
1
1
1
1
1
0.999999
0.999998
0.999997
0.999996
0.999996
0.999996
0.999997
0.999998
0.999997
0.999986
0.999731
0.206019
1.06644e-08
9.59786e-09
1.85256e-09
1.36647e-09
1.3037e-09
1.46164e-09
1.82203e-09
2.38751e-09
3.1706e-09
4.18868e-09
5.46313e-09
7.02287e-09
8.89388e-09
1.11032e-08
1.36796e-08
1.66506e-08
2.00194e-08
2.37783e-08
1
1
1
1
1
1
1
1
1
1
1
1
1
1
1
1
1
1
1
1
0.999999
0.999998
0.999997
0.999996
0.999996
0.999996
0.999997
0.999998
0.999997
0.999986
0.999594
0.126184
7.62083e-09
6.2673e-09
2.0027e-09
1.80114e-09
1.9937e-09
2.4869e-09
3.28649e-09
4.40613e-09
5.86701e-09
7.68754e-09
9.88524e-09
1.24933e-08
1.55242e-08
1.89939e-08
2.2928e-08
2.73551e-08
3.22628e-08
3.76246e-08
1
1
1
1
1
1
1
1
1
1
1
1
1
1
1
1
1
1
1
1
0.999999
0.999998
0.999997
0.999997
0.999996
0.999996
0.999997
0.999998
0.999997
0.999987
0.99942
0.0640773
5.96974e-09
4.78348e-09
2.52413e-09
2.72317e-09
3.41161e-09
4.5745e-09
6.25995e-09
8.49074e-09
1.12931e-08
1.46676e-08
1.86066e-08
2.31443e-08
2.82435e-08
3.38865e-08
4.00785e-08
4.68388e-08
5.41336e-08
6.19353e-08
1
1
1
1
1
1
1
1
1
1
1
1
1
1
1
1
1
1
1
1
0.999999
0.999999
0.999998
0.999997
0.999997
0.999997
0.999997
0.999998
0.999997
0.999999
0.93569
0.00831121
5.00834e-09
4.33482e-09
3.68995e-09
4.63251e-09
6.33157e-09
8.87755e-09
1.24012e-08
1.69062e-08
2.2397e-08
2.8797e-08
3.60343e-08
4.41308e-08
5.29243e-08
6.23345e-08
7.23078e-08
8.28321e-08
9.38363e-08
1.05369e-07
1
1
1
1
1
1
1
1
1
1
1
1
1
1
1
1
1
1
1
1
0.999999
0.999999
0.999998
0.999997
0.999997
0.999997
0.999997
0.999997
0.999998
0.999999
0.790188
0.00114484
5.31282e-09
5.40607e-09
6.11511e-09
8.44562e-09
1.21591e-08
1.74903e-08
2.46971e-08
3.36538e-08
4.42438e-08
5.61778e-08
6.92733e-08
8.35008e-08
9.84368e-08
1.13919e-07
1.29778e-07
1.45981e-07
1.62403e-07
1.79271e-07
1
1
1
1
1
1
1
1
1
1
1
1
1
1
1
1
1
1
1
1
0.999999
0.999999
0.999998
0.999997
0.999997
0.999997
0.999998
0.999997
0.999998
1
0.634388
0.000117538
6.92982e-09
8.27877e-09
1.10308e-08
1.62116e-08
2.41003e-08
3.50718e-08
4.94285e-08
6.66706e-08
8.63153e-08
1.07655e-07
1.30369e-07
1.5408e-07
1.78339e-07
2.02698e-07
2.26868e-07
2.5092e-07
2.74817e-07
2.99104e-07
1
1
1
1
1
1
1
1
1
1
1
1
1
1
1
1
1
1
1
1
0.999999
0.999999
0.999998
0.999998
0.999997
0.999997
0.999998
0.999997
0.999998
1
0.469935
1.63105e-05
1.06492e-08
1.41311e-08
2.06663e-08
3.16613e-08
4.78786e-08
6.95553e-08
9.64841e-08
1.27291e-07
1.61005e-07
1.96519e-07
2.33232e-07
2.70376e-07
3.07082e-07
3.42722e-07
3.77185e-07
4.10977e-07
4.44427e-07
4.78319e-07
1
1
1
1
1
1
1
1
1
1
1
1
1
1
1
1
1
1
1
1
0.999999
0.999999
0.999999
0.999998
0.999998
0.999998
0.999998
0.999997
0.999999
1
0.247478
4.70843e-06
1.73752e-08
2.47471e-08
3.82736e-08
6.02128e-08
9.13901e-08
1.30965e-07
1.77071e-07
2.27378e-07
2.80312e-07
3.34499e-07
3.88959e-07
4.42266e-07
4.93156e-07
5.4136e-07
5.8772e-07
6.33624e-07
6.79798e-07
7.26111e-07
1
1
1
1
1
1
1
1
1
1
1
1
1
1
1
1
1
1
1
1
0.999999
0.999999
0.999999
0.999998
0.999998
0.999998
0.999998
0.999997
0.999999
0.998931
0.0368903
1.07741e-06
2.94181e-08
4.35148e-08
6.92238e-08
1.09484e-07
1.6371e-07
2.28246e-07
2.98776e-07
3.72186e-07
4.46884e-07
5.21825e-07
5.95444e-07
6.65462e-07
7.30985e-07
7.93236e-07
8.54793e-07
9.17948e-07
9.82454e-07
1.04741e-06
1
1
1
1
1
1
1
1
1
1
1
1
1
1
1
1
1
1
1
1
0.999999
0.999999
0.999999
0.999998
0.999998
0.999998
0.999998
0.999997
1
0.688386
0.000691382
1.78055e-07
4.75031e-08
7.04604e-08
1.12764e-07
1.76979e-07
2.58906e-07
3.50418e-07
4.44865e-07
5.3953e-07
6.344e-07
7.29708e-07
8.23372e-07
9.11787e-07
9.95924e-07
1.07807e-06
1.16227e-06
1.25251e-06
1.3454e-06
1.44539e-06
1
1
1
1
1
1
1
1
1
1
1
1
1
1
1
1
1
1
1
1
1
1
0.999999
0.999999
0.999998
0.999998
0.999998
0.999997
0.999859
0.280622
7.15203e-05
1.67718e-07
7.67058e-08
1.09755e-07
1.69269e-07
2.55773e-07
3.60422e-07
4.70756e-07
5.79156e-07
6.86002e-07
7.95488e-07
9.1105e-07
1.03025e-06
1.14111e-06
1.25616e-06
1.36979e-06
1.4835e-06
1.61835e-06
1.74478e-06
1.8658e-06
1
1
1
1
1
1
1
1
1
1
1
1
1
1
1
1
1
1
1
1
1
1
0.999999
0.999999
0.999998
0.999998
0.999998
0.999873
0.705877
0.0152502
9.28132e-06
1.93348e-07
1.37554e-07
1.84123e-07
2.59486e-07
3.60608e-07
4.75903e-07
5.92085e-07
7.04773e-07
8.30317e-07
9.75902e-07
1.12944e-06
1.29178e-06
1.4007e-06
1.56096e-06
1.73364e-06
1.8854e-06
2.13468e-06
2.35374e-06
2.43487e-06
1
1
1
1
1
1
1
1
1
1
1
1
1
1
1
1
1
1
1
1
1
1
0.999999
0.999999
0.999998
0.999998
0.999589
0.71699
0.0674778
0.000345959
2.43412e-06
2.75823e-07
2.59417e-07
3.23724e-07
4.13291e-07
5.24502e-07
6.5097e-07
7.8059e-07
9.44894e-07
1.24717e-06
1.5899e-06
1.73993e-06
1.96531e-06
1.94268e-06
2.0536e-06
2.30234e-06
2.50113e-06
3.12801e-06
3.74767e-06
3.81512e-06
1
1
1
1
1
1
1
1
1
1
1
1
1
1
1
1
1
1
1
1
1
1
0.999999
0.999999
0.999921
0.998598
0.492779
0.0481978
0.00127492
1.43331e-05
1.2137e-06
4.57517e-07
5.0394e-07
5.87152e-07
6.90218e-07
8.22409e-07
9.97781e-07
1.19175e-06
1.92274e-06
3.04897e-06
3.64413e-06
3.72243e-06
2.78969e-06
3.45586e-06
2.22802e-06
2.60069e-06
3.02224e-06
5.16371e-06
6.6241e-06
6.01594e-06
1
1
1
1
1
1
1
1
1
1
1
1
1
1
1
1
1
1
1
1
1
1
0.999991
0.999399
0.786742
0.195606
0.0134914
0.000190183
2.30311e-06
1.04874e-06
7.56837e-07
8.16713e-07
8.93507e-07
9.84895e-07
1.14434e-06
1.39581e-06
1.79995e-06
5.25498e-06
9.10956e-06
9.10451e-06
6.35205e-06
2.01711e-06
2.0574e-06
1.89797e-06
2.01142e-06
2.03244e-06
6.41242e-06
1.11859e-05
1.11873e-05
5.16908e-06
1
1
1
1
1
1
1
1
1
1
1
1
1
1
1
1
1
1
1
1
0.999999
0.999684
0.923536
0.390288
0.0327493
0.000548121
7.79979e-05
2.20207e-06
8.54403e-07
9.31303e-07
9.96673e-07
1.01839e-06
1.00262e-06
1.00787e-06
1.25239e-06
1.77918e-06
8.54511e-06
1.22158e-05
9.93476e-06
2.19974e-06
1.58184e-06
1.63901e-06
1.69818e-06
1.56161e-06
1.54688e-06
2.74961e-06
8.99933e-06
1.11861e-05
8.47262e-06
2.17702e-06
1
1
1
1
1
1
1
1
1
1
1
0.999999
0.999999
1
1
1
1
1
0.999996
0.99958
0.968853
0.510888
0.0339706
0.00182078
0.000843274
4.63259e-06
1.42656e-06
1.16108e-06
1.1757e-06
1.29878e-06
1.20296e-06
1.02083e-06
1.01571e-06
1.00578e-06
1.01076e-06
2.48524e-06
8.31305e-06
1.22106e-05
2.17443e-06
1.26854e-06
1.30999e-06
2.90111e-06
3.00626e-06
1.54187e-06
1.5427e-06
1.65159e-06
5.03994e-06
9.59341e-06
3.55602e-06
2.0302e-06
1
1
1
1
1
1
1
1
1
1
0.999999
0.999998
0.999999
1.00001
1
1
0.999977
0.999233
0.946298
0.4533
0.020458
0.0108853
0.000396023
3.77524e-06
3.29332e-06
3.23682e-06
4.06792e-06
3.16193e-06
1.1627e-06
1.16279e-06
1.28729e-06
1.25495e-06
1.25551e-06
1.21621e-06
1.01702e-06
2.49917e-06
6.11928e-06
7.75475e-06
1.27672e-06
1.27279e-06
3.48447e-06
3.63995e-06
2.99838e-06
1.5316e-06
1.71351e-06
3.78436e-06
4.8981e-06
3.73407e-06
3.30064e-06
3.14108e-06
1
1
1
1
1
1
1
1
0.999999
0.999999
0.999999
0.999995
0.999988
1
0.999973
0.999159
0.867141
0.253905
0.0137327
0.0127798
0.000158491
3.1595e-05
3.69812e-06
1.59243e-06
1.59209e-06
1.59697e-06
2.76608e-06
3.72274e-06
1.68762e-06
1.28248e-06
1.51066e-06
5.0236e-06
9.44422e-06
9.48811e-06
6.11502e-06
3.05838e-06
2.02872e-06
1.58272e-06
1.29209e-06
1.26787e-06
2.44507e-06
1.79811e-06
1.41388e-06
1.52638e-06
1.77184e-06
2.0033e-06
2.1773e-06
3.10163e-06
5.67386e-06
6.41358e-06
1
1
1
1
1
1
1
0.999999
0.999999
0.999998
0.999998
0.999977
0.999632
0.999296
0.837379
0.158866
0.010722
0.00749682
0.000368693
0.000145375
4.10388e-05
4.30218e-06
3.7154e-06
5.40736e-06
4.36091e-06
2.66475e-06
1.59392e-06
1.31487e-06
1.29775e-06
1.28883e-06
3.85769e-06
1.10042e-05
1.10522e-05
9.82193e-06
3.1102e-06
1.70001e-06
2.27918e-06
5.25808e-06
3.73711e-06
1.70531e-06
1.95962e-06
1.17225e-06
1.1266e-06
1.12655e-06
1.59625e-06
1.11485e-06
1.11106e-06
1.11103e-06
1.11104e-06
4.98432e-06
2.79417e-08
3.25229e-08
3.75271e-08
4.29898e-08
4.89617e-08
5.55165e-08
6.2689e-08
7.05808e-08
7.918e-08
8.83851e-08
9.80869e-08
1.08117e-07
1.18169e-07
1.28001e-07
1.37307e-07
1.45901e-07
1.5374e-07
1.60848e-07
1.67423e-07
1.73617e-07
1.79605e-07
1.85533e-07
1.91531e-07
1.97682e-07
2.0402e-07
2.10541e-07
2.17258e-07
2.242e-07
2.31396e-07
2.38873e-07
2.46666e-07
2.54815e-07
2.6338e-07
2.7239e-07
2.81904e-07
2.91956e-07
3.02547e-07
3.13664e-07
3.25233e-07
3.37157e-07
3.49348e-07
3.61598e-07
3.73676e-07
3.85084e-07
3.95366e-07
4.04134e-07
4.11144e-07
4.16405e-07
4.19916e-07
4.21924e-07
4.3456e-08
4.9768e-08
5.65225e-08
6.37591e-08
7.15093e-08
7.98846e-08
8.88035e-08
9.86051e-08
1.09169e-07
1.20346e-07
1.32142e-07
1.44549e-07
1.57187e-07
1.69981e-07
1.82478e-07
1.9441e-07
2.05669e-07
2.15995e-07
2.25608e-07
2.34465e-07
2.42647e-07
2.50293e-07
2.57637e-07
2.64893e-07
2.72212e-07
2.79525e-07
2.86925e-07
2.94589e-07
3.02565e-07
3.10836e-07
3.19363e-07
3.28103e-07
3.37123e-07
3.46338e-07
3.55889e-07
3.65865e-07
3.76337e-07
3.87421e-07
3.99055e-07
4.11182e-07
4.23914e-07
4.37088e-07
4.50893e-07
4.64299e-07
4.76804e-07
4.88189e-07
4.98332e-07
5.07499e-07
5.14779e-07
5.19161e-07
7.02675e-08
7.91457e-08
8.83913e-08
9.81119e-08
1.08264e-07
1.19078e-07
1.29967e-07
1.42158e-07
1.54878e-07
1.67953e-07
1.81696e-07
1.96402e-07
2.1134e-07
2.27057e-07
2.42799e-07
2.58261e-07
2.73568e-07
2.87693e-07
3.01344e-07
3.14065e-07
3.25679e-07
3.3622e-07
3.4612e-07
3.5572e-07
3.65352e-07
3.74013e-07
3.82131e-07
3.90705e-07
3.99771e-07
4.09206e-07
4.18847e-07
4.28439e-07
4.38248e-07
4.4769e-07
4.57182e-07
4.66772e-07
4.76614e-07
4.87131e-07
4.98078e-07
5.09338e-07
5.21551e-07
5.34489e-07
5.50396e-07
5.64857e-07
5.77147e-07
5.88347e-07
5.99533e-07
6.13341e-07
6.27081e-07
6.36513e-07
1.1745e-07
1.3007e-07
1.42837e-07
1.56126e-07
1.69666e-07
1.83875e-07
1.96464e-07
2.1185e-07
2.27233e-07
2.42073e-07
2.57673e-07
2.74861e-07
2.91499e-07
3.09988e-07
3.28765e-07
3.47313e-07
3.6707e-07
3.84166e-07
4.0188e-07
4.18911e-07
4.34783e-07
4.49546e-07
4.6458e-07
4.79819e-07
4.9639e-07
5.07226e-07
5.15721e-07
5.26429e-07
5.38153e-07
5.50204e-07
5.62176e-07
5.73138e-07
5.84872e-07
5.94705e-07
6.0475e-07
6.14308e-07
6.23891e-07
6.34938e-07
6.46013e-07
6.56412e-07
6.68559e-07
6.81524e-07
7.08651e-07
7.24798e-07
7.30323e-07
7.33594e-07
7.39952e-07
7.61138e-07
7.86551e-07
8.02969e-07
1.96696e-07
2.14501e-07
2.31859e-07
2.5024e-07
2.68826e-07
2.87296e-07
2.99172e-07
3.184e-07
3.36351e-07
3.52069e-07
3.69619e-07
3.89741e-07
4.06866e-07
4.27788e-07
4.50053e-07
4.70624e-07
4.95913e-07
5.12766e-07
5.33247e-07
5.54209e-07
5.75201e-07
5.97466e-07
6.25892e-07
6.54966e-07
6.89104e-07
6.97493e-07
7.02345e-07
7.18532e-07
7.36282e-07
7.53223e-07
7.69495e-07
7.81182e-07
7.96704e-07
8.05669e-07
8.17479e-07
8.26581e-07
8.36106e-07
8.50373e-07
8.63823e-07
8.72016e-07
8.84357e-07
8.97622e-07
9.75076e-07
9.92892e-07
9.67298e-07
9.3992e-07
9.29064e-07
9.69665e-07
1.02225e-06
1.05275e-06
3.23772e-07
3.48052e-07
3.71032e-07
3.97416e-07
4.24803e-07
4.4562e-07
4.49085e-07
4.72749e-07
4.91997e-07
5.07977e-07
5.30568e-07
5.5311e-07
5.699e-07
5.93801e-07
6.24405e-07
6.44545e-07
6.73009e-07
6.82472e-07
7.0354e-07
7.29034e-07
7.60245e-07
8.06404e-07
8.7495e-07
9.47751e-07
9.86162e-07
9.6887e-07
9.6379e-07
9.95416e-07
1.02249e-06
1.03929e-06
1.06732e-06
1.07712e-06
1.09937e-06
1.10414e-06
1.12197e-06
1.1276e-06
1.13825e-06
1.1627e-06
1.18632e-06
1.18139e-06
1.19017e-06
1.20074e-06
1.44869e-06
1.4518e-06
1.32134e-06
1.19427e-06
1.13741e-06
1.21478e-06
1.30047e-06
1.34932e-06
5.11793e-07
5.43368e-07
5.7494e-07
6.16321e-07
6.58271e-07
6.61546e-07
6.4546e-07
6.72261e-07
6.91875e-07
7.15988e-07
7.53511e-07
7.59048e-07
7.83087e-07
8.19926e-07
8.8068e-07
9.0143e-07
8.80087e-07
8.87063e-07
9.08839e-07
9.47662e-07
1.0158e-06
1.1529e-06
1.28854e-06
1.61381e-06
1.33445e-06
1.32015e-06
1.30765e-06
1.37541e-06
1.38987e-06
1.32762e-06
1.44269e-06
1.46595e-06
1.49555e-06
1.49492e-06
1.52526e-06
1.52003e-06
1.53522e-06
1.58405e-06
1.65094e-06
1.61256e-06
1.59119e-06
1.56463e-06
2.06849e-06
2.16915e-06
1.9277e-06
1.48575e-06
1.246e-06
1.51029e-06
1.30602e-06
2.27773e-06
7.70518e-07
8.14867e-07
8.70315e-07
9.39542e-07
9.88862e-07
9.05002e-07
8.73535e-07
9.02537e-07
9.3167e-07
9.97145e-07
1.06107e-06
9.71082e-07
1.00932e-06
1.14139e-06
1.37954e-06
1.42676e-06
1.05355e-06
1.1103e-06
1.16394e-06
1.20246e-06
1.38385e-06
1.8827e-06
4.31882e-06
3.0962e-06
1.49599e-06
1.6894e-06
1.88692e-06
1.77134e-06
1.69302e-06
2.89752e-06
1.6334e-06
1.90598e-06
1.95145e-06
1.8846e-06
1.95592e-06
1.92094e-06
1.92977e-06
2.02757e-06
2.25324e-06
2.45421e-06
2.19579e-06
1.78519e-06
2.25154e-06
4.15026e-06
3.43832e-06
2.33802e-06
1.4645e-06
1.211e-06
1.45769e-06
1.18471e-06
1.11527e-06
1.20222e-06
1.32494e-06
1.41729e-06
1.48615e-06
1.14735e-06
1.10925e-06
1.16439e-06
1.18615e-06
1.3716e-06
1.68259e-06
3.05136e-06
1.0185e-06
1.69689e-06
4.60625e-06
3.00726e-06
1.14884e-06
1.40444e-06
2.13262e-06
1.28503e-06
1.58557e-06
5.35556e-06
9.11327e-06
2.58898e-06
2.24766e-06
2.18844e-06
2.22394e-06
2.04924e-06
2.83864e-06
2.94132e-06
2.61609e-06
2.43255e-06
2.36597e-06
1.89772e-06
2.18963e-06
2.07049e-06
2.0039e-06
2.06989e-06
2.38466e-06
4.71237e-06
4.3891e-06
2.07543e-06
1.55897e-06
3.51217e-06
6.56472e-06
6.79909e-06
3.86463e-06
1.65653e-06
9.46941e-07
9.40296e-07
1.57313e-06
1.78948e-06
2.14275e-06
2.02463e-06
2.8147e-06
1.52519e-06
1.35456e-06
2.3089e-06
1.19126e-06
1.43615e-06
3.52635e-06
5.22845e-06
1.39639e-06
3.04379e-06
5.16314e-06
4.63638e-06
1.80452e-06
2.11836e-06
2.13128e-06
2.60004e-06
2.96839e-06
5.85633e-06
9.10412e-06
4.56024e-06
3.014e-06
2.4761e-06
2.48935e-06
3.46347e-06
2.01249e-06
2.55795e-06
3.4688e-06
4.17358e-06
3.85419e-06
5.31292e-06
4.29624e-06
2.41008e-06
1.60287e-06
1.59829e-06
1.59839e-06
4.23769e-06
4.57757e-06
3.93124e-06
1.19797e-06
8.71609e-07
2.316e-06
6.82891e-06
7.04515e-06
6.78311e-06
3.05361e-06
8.82537e-07
2.02917e-06
2.47505e-06
4.28926e-06
2.1723e-06
2.81311e-06
4.54219e-06
1.92903e-06
2.30558e-06
2.29095e-06
2.61277e-06
3.09778e-06
5.22397e-06
2.74065e-06
2.76091e-06
3.60656e-06
5.49887e-06
3.27714e-06
2.95452e-06
2.30582e-06
2.73097e-06
2.7608e-06
3.76625e-06
8.81762e-06
8.46989e-06
5.38687e-06
2.88177e-06
2.25094e-06
1.88067e-06
1.31672e-06
1.34728e-06
1.35765e-06
2.68623e-06
5.9575e-06
7.07389e-06
7.10167e-06
5.85282e-06
3.11569e-06
1.604e-06
1.68406e-06
4.25328e-06
3.10439e-06
1.37223e-06
5.19808e-07
5.13896e-07
5.11458e-07
5.22669e-07
3.19866e-06
6.75215e-06
5.90069e-06
2.83153e-06
2.38809e-06
2.30288e-06
4.29422e-06
3.06764e-06
2.90731e-06
3.83783e-06
4.55901e-06
4.55252e-06
2.85303e-06
2.60864e-06
2.60601e-06
6.22185e-06
7.7584e-06
3.96303e-06
2.65638e-06
2.64682e-06
4.22373e-06
4.21189e-06
2.42399e-06
1.38823e-06
1.38211e-06
1.58321e-06
6.59176e-06
9.66831e-06
9.628e-06
6.11508e-06
2.12945e-06
1.24275e-06
1.30916e-06
1.29482e-06
1.10752e-06
7.5453e-07
7.14328e-07
7.34118e-07
2.2594e-06
6.04229e-06
6.10112e-06
6.0147e-06
3.82346e-06
2.85969e-06
2.14623e-06
1.32819e-06
5.60123e-07
4.68046e-07
4.47368e-07
4.10047e-07
3.6988e-07
4.99826e-07
3.53616e-06
2.28665e-06
3.11376e-06
2.87136e-06
2.67381e-06
3.61722e-06
3.21508e-06
3.00145e-06
2.87082e-06
4.55052e-06
2.94918e-06
2.77324e-06
2.60198e-06
6.93806e-06
7.75254e-06
7.67929e-06
3.77178e-06
1.49973e-06
2.36651e-06
4.52702e-06
4.61878e-06
2.84569e-06
1.33808e-06
1.06529e-06
9.5356e-07
4.75431e-06
9.67047e-06
7.43178e-06
2.70131e-06
5.30321e-07
5.68748e-07
1.5511e-06
3.06532e-06
2.44207e-06
7.89756e-07
4.33384e-07
4.10816e-07
3.89942e-07
3.87865e-07
3.82867e-07
6.12561e-07
3.35293e-06
3.80022e-06
3.79978e-06
1.81848e-06
7.91131e-07
3.43383e-07
3.38213e-07
2.87127e-07
2.48635e-07
2.00603e-07
1.87094e-07
3.63663e-06
3.08082e-06
2.58101e-06
4.47025e-06
2.8091e-06
2.86075e-06
2.86862e-06
2.87284e-06
2.87453e-06
3.14179e-06
2.59826e-06
4.40436e-06
7.76003e-06
6.53631e-06
2.69853e-06
1.48195e-06
1.41791e-06
3.63476e-06
6.11301e-06
6.11212e-06
5.07373e-06
1.88291e-06
8.80119e-07
1.14037e-06
3.8501e-06
1.96298e-06
4.9898e-07
5.00795e-07
4.9807e-07
1.14641e-06
3.08082e-06
2.70718e-06
1.32701e-06
3.45667e-07
3.44059e-07
3.36794e-07
3.17418e-07
2.91205e-07
2.59531e-07
2.24256e-07
2.18951e-07
2.2579e-07
3.69729e-07
1.04568e-06
1.06516e-06
6.30619e-07
1.86321e-07
1.8934e-07
1.77746e-07
1.67862e-07
2.69706e-06
2.62973e-06
2.57892e-06
2.58198e-06
2.80258e-06
3.37969e-06
2.82121e-06
3.52846e-06
2.98928e-06
2.51933e-06
2.5935e-06
2.27061e-06
4.6261e-06
5.17191e-06
3.20389e-06
1.62016e-06
1.34587e-06
1.21521e-06
1.58761e-06
4.94896e-06
5.31043e-06
3.87866e-06
8.85461e-07
5.76954e-07
4.02414e-07
4.32949e-07
4.58803e-07
4.15916e-07
4.50482e-07
7.5393e-07
1.82736e-06
8.15457e-07
2.89627e-07
3.16537e-07
2.76594e-07
2.37661e-07
2.10603e-07
1.91763e-07
1.76975e-07
1.63766e-07
1.51703e-07
1.4106e-07
1.30667e-07
1.19486e-07
1.13412e-07
1.15514e-07
1.23161e-07
1.27259e-07
1.29541e-07
1.32028e-07
2.18782e-06
2.26945e-06
2.48655e-06
2.65368e-06
3.20956e-06
3.43719e-06
3.09765e-06
3.79885e-06
2.94574e-06
2.52716e-06
2.03124e-06
1.94538e-06
1.39792e-06
2.07787e-06
3.60457e-06
3.27423e-06
1.16766e-06
1.00683e-06
8.32711e-07
6.0107e-07
2.38674e-06
1.50375e-06
5.2381e-07
4.44293e-07
3.65519e-07
4.26685e-07
3.77837e-07
1.98324e-07
5.37592e-07
2.47102e-07
1.73971e-07
1.69446e-07
1.72215e-07
1.59129e-07
1.43312e-07
1.29085e-07
1.17488e-07
1.08416e-07
1.01469e-07
9.62715e-08
9.25267e-08
9.00753e-08
8.9008e-08
8.9655e-08
9.24112e-08
9.75494e-08
1.05154e-07
1.15193e-07
1.27762e-07
1.44421e-07
1.96023e-06
1.85836e-06
2.20566e-06
2.65694e-06
2.27857e-06
2.04589e-06
3.63725e-06
3.61397e-06
3.59887e-06
2.68797e-06
1.70901e-06
1.45948e-06
1.14887e-06
1.15783e-06
3.05922e-06
1.30056e-06
1.07793e-06
8.68146e-07
6.94903e-07
5.96813e-07
3.70128e-07
3.22538e-07
3.32987e-07
3.12071e-07
1.75038e-07
4.12956e-07
2.09489e-07
1.68707e-07
9.89958e-08
9.74149e-08
9.19229e-08
8.54123e-08
7.94904e-08
7.45059e-08
7.04706e-08
6.74509e-08
6.55891e-08
6.50494e-08
6.59865e-08
6.85405e-08
7.28447e-08
7.90392e-08
8.7278e-08
9.77256e-08
1.10542e-07
1.25859e-07
1.43782e-07
1.64512e-07
1.89293e-07
2.27705e-07
2.782e-06
1.41798e-06
1.29703e-06
1.4823e-06
1.38955e-06
1.74131e-06
1.88074e-06
3.19511e-06
4.56691e-06
3.7755e-06
1.87591e-06
1.04003e-06
7.84798e-07
6.08653e-07
3.82241e-07
6.92109e-07
6.26686e-07
5.22742e-07
4.42522e-07
3.59913e-07
2.86475e-07
2.31038e-07
1.9071e-07
1.6019e-07
1.35862e-07
7.63282e-08
7.15782e-08
6.70797e-08
6.17697e-08
5.64951e-08
5.18679e-08
4.83212e-08
4.61321e-08
4.54531e-08
4.63592e-08
4.88924e-08
5.3098e-08
5.90436e-08
6.68346e-08
7.66238e-08
8.86037e-08
1.03006e-07
1.20077e-07
1.40042e-07
1.63055e-07
1.89165e-07
2.18409e-07
2.51527e-07
2.95455e-07
3.98895e-07
5.76474e-06
2.88673e-06
1.02618e-06
9.7382e-07
1.00856e-06
1.0226e-06
1.0306e-06
8.99298e-07
3.62192e-06
3.8008e-06
2.00543e-06
6.22291e-07
5.71667e-07
4.62536e-07
3.60421e-07
2.78255e-07
2.50107e-07
2.35032e-07
2.12806e-07
1.83845e-07
1.52545e-07
1.22705e-07
9.69021e-08
7.62727e-08
6.073e-08
4.95102e-08
4.16936e-08
3.65016e-08
3.33892e-08
3.20243e-08
3.22308e-08
3.39332e-08
3.712e-08
4.18203e-08
4.80969e-08
5.60414e-08
6.57918e-08
7.75258e-08
9.14795e-08
1.07953e-07
1.27275e-07
1.49794e-07
1.75808e-07
2.05474e-07
2.38728e-07
2.75315e-07
3.15338e-07
3.62703e-07
4.53562e-07
8.00606e-07
6.43479e-06
6.14515e-06
2.05569e-06
8.94984e-07
9.37787e-07
8.35833e-07
7.12176e-07
6.31012e-07
1.16924e-06
9.2757e-07
6.92237e-07
5.43303e-07
3.88947e-07
2.85337e-07
2.17271e-07
1.67221e-07
1.29863e-07
1.03632e-07
8.49725e-08
7.00821e-08
5.70487e-08
4.5654e-08
3.62921e-08
2.92548e-08
2.45392e-08
2.19265e-08
2.11215e-08
2.18586e-08
2.39535e-08
2.73126e-08
3.19186e-08
3.78115e-08
4.50798e-08
5.38397e-08
6.4245e-08
7.6475e-08
9.07874e-08
1.07475e-07
1.26912e-07
1.49537e-07
1.75763e-07
2.05961e-07
2.40284e-07
2.78536e-07
3.20152e-07
3.64544e-07
4.13315e-07
4.84289e-07
7.27365e-07
1.91733e-06
4.23151e-07
4.24478e-07
4.26033e-07
4.28037e-07
4.30654e-07
4.33996e-07
4.38104e-07
4.4311e-07
4.48936e-07
4.55469e-07
4.62588e-07
4.70171e-07
4.78019e-07
4.85888e-07
4.93434e-07
5.00429e-07
5.06708e-07
5.12041e-07
5.16218e-07
5.19084e-07
5.20768e-07
5.21346e-07
5.21069e-07
5.2034e-07
5.19495e-07
5.1884e-07
5.18729e-07
5.19568e-07
5.2167e-07
5.25716e-07
5.31782e-07
5.40005e-07
5.50639e-07
5.62913e-07
5.77777e-07
5.94098e-07
6.10442e-07
6.25275e-07
6.49208e-07
6.65827e-07
6.72456e-07
6.74232e-07
6.73123e-07
6.69856e-07
6.65049e-07
6.58346e-07
6.5133e-07
6.45242e-07
6.39713e-07
6.34879e-07
6.311e-07
6.28541e-07
6.27301e-07
6.24794e-07
6.30853e-07
6.34691e-07
6.38414e-07
6.44651e-07
6.37722e-07
6.59506e-07
6.63804e-07
7.05084e-07
7.19596e-07
7.7949e-07
7.97505e-07
9.10011e-07
9.47339e-07
1.1115e-06
1.23489e-06
1.19963e-06
1.06835e-06
9.36948e-07
8.45292e-07
7.98436e-07
8.0083e-07
8.50745e-07
8.58046e-07
8.16489e-07
8.1622e-07
8.62608e-07
9.54402e-07
1.06178e-06
1.21341e-06
1.21673e-06
2.24048e-06
1.13063e-06
1.05512e-06
2.38821e-06
1.36821e-06
1.36106e-06
1.36259e-06
4.42952e-06
3.06276e-06
1.18333e-06
9.64221e-07
1.18575e-06
1.27954e-06
1.33343e-06
2.68519e-06
2.36906e-06
1.16391e-06
1.15683e-06
1.15785e-06
1.16053e-06
4.34725e-06
2.93642e-06
1.1814e-06
6.26548e-07
6.22335e-07
6.52295e-07
6.553e-07
6.60314e-07
1.12333e-06
4.31737e-06
4.93601e-06
3.85154e-06
1.26472e-06
6.39743e-07
7.64573e-07
1.08985e-06
5.49972e-06
3.83144e-06
1.92965e-06
5.45975e-07
3.08405e-07
3.30754e-07
3.44975e-07
3.35302e-07
1.23069e-06
6.43638e-06
7.11588e-06
7.11637e-06
3.22989e-06
5.12707e-07
2.62131e-07
3.00165e-07
3.08632e-07
7.3264e-07
5.16305e-06
7.21919e-06
6.3894e-06
2.69839e-06
9.82199e-07
5.84201e-07
5.70418e-07
8.50981e-07
4.21491e-06
4.69097e-06
2.45078e-06
3.74754e-07
1.21808e-06
2.00941e-06
1.50177e-06
1.24361e-06
1.24357e-06
2.05503e-06
5.93113e-06
6.06361e-06
4.55623e-06
1.63399e-06
6.00145e-07
2.07359e-07
1.96334e-07
1.86634e-07
1.8069e-07
1.75862e-07
1.78785e-07
4.37817e-07
2.95586e-06
3.66903e-06
2.66467e-06
5.96269e-07
1.59594e-07
1.60225e-07
1.65583e-07
6.91243e-07
1.58964e-06
1.14026e-06
3.08171e-07
1.55886e-07
3.84677e-07
1.9e-06
2.11133e-06
1.55182e-06
4.12436e-07
1.90161e-07
2.34012e-07
3.09046e-07
6.08162e-07
3.08625e-07
1.70889e-07
1.68477e-07
1.66275e-07
1.62665e-07
4.51475e-07
5.02463e-07
2.78631e-07
2.18799e-07
2.17531e-07
1.86821e-07
1.57171e-07
1.53442e-07
1.50537e-07
1.34278e-07
3.70338e-07
3.26024e-07
1.53343e-07
2.02645e-07
7.58104e-07
4.93154e-07
2.20732e-07
2.17796e-07
2.51217e-07
1.99892e-07
1.52922e-07
1.50235e-07
2.82923e-07
6.68387e-07
5.81303e-07
2.9794e-07
2.63286e-07
2.60997e-07
3.78232e-07
3.65328e-07
2.19681e-07
1.73221e-07
1.71903e-07
1.53693e-07
1.47974e-07
1.46e-07
1.51629e-07
4.1885e-07
3.54696e-07
2.35871e-07
2.00411e-07
1.96954e-07
1.7171e-07
1.64056e-07
1.68861e-07
1.76061e-07
1.51523e-07
1.37652e-07
1.33474e-07
1.32486e-07
1.31205e-07
1.2941e-07
1.27505e-07
1.25684e-07
1.23817e-07
1.22207e-07
1.20977e-07
1.20097e-07
1.19427e-07
1.18795e-07
1.18071e-07
1.17158e-07
1.16035e-07
1.14744e-07
1.13356e-07
1.11945e-07
1.10574e-07
1.09292e-07
1.08132e-07
1.07115e-07
1.06253e-07
1.05552e-07
1.05016e-07
1.04647e-07
1.04456e-07
1.04455e-07
1.04671e-07
1.05135e-07
1.05883e-07
1.06938e-07
1.08332e-07
1.10165e-07
1.12657e-07
1.16018e-07
1.20229e-07
1.24945e-07
1.29697e-07
1.34186e-07
1.38427e-07
1.42639e-07
1.47075e-07
1.5192e-07
1.57327e-07
1.63516e-07
1.70863e-07
1.80028e-07
1.91921e-07
2.07272e-07
1.17131e-06
2.21421e-06
1.75519e-06
5.00899e-07
2.67079e-07
6.33632e-07
4.46774e-07
2.99979e-07
5.20687e-07
5.21739e-07
5.22388e-07
5.22922e-07
5.23619e-07
5.24726e-07
5.26291e-07
5.28953e-07
5.32527e-07
5.36865e-07
5.41965e-07
5.4798e-07
5.54904e-07
5.62624e-07
5.70729e-07
5.78626e-07
5.86602e-07
5.94452e-07
6.01553e-07
6.06611e-07
6.11098e-07
6.12792e-07
6.13118e-07
6.12506e-07
6.11536e-07
6.1024e-07
6.08827e-07
6.07654e-07
6.06537e-07
6.07791e-07
6.10255e-07
6.13801e-07
6.19247e-07
6.24743e-07
6.34434e-07
6.53234e-07
6.63218e-07
6.72709e-07
7.01831e-07
7.41216e-07
7.54438e-07
7.56781e-07
7.55994e-07
7.52795e-07
7.50436e-07
7.47386e-07
7.45612e-07
7.46306e-07
7.4743e-07
7.49205e-07
7.51632e-07
7.54053e-07
7.43013e-07
7.3842e-07
7.62982e-07
7.80854e-07
7.86754e-07
7.93957e-07
7.43049e-07
7.85002e-07
7.02854e-07
8.65686e-07
7.22494e-07
9.63437e-07
6.5593e-07
1.28701e-06
1.20476e-06
1.53286e-06
1.98862e-06
2.1318e-06
1.83099e-06
1.4887e-06
1.20279e-06
1.05408e-06
9.05552e-07
1.04202e-06
1.16175e-06
1.1006e-06
9.03476e-07
1.93659e-06
1.05436e-06
1.06e-06
1.81959e-06
4.31081e-06
4.31433e-06
4.00174e-06
1.7937e-06
1.38423e-06
1.37443e-06
2.06269e-06
4.87074e-06
4.87528e-06
3.85583e-06
1.12424e-06
9.64163e-07
1.71679e-06
3.47139e-06
3.46974e-06
2.25127e-06
1.16609e-06
1.16041e-06
1.15951e-06
3.16164e-06
4.64142e-06
4.62775e-06
3.64801e-06
1.46686e-06
6.406e-07
6.31383e-07
8.72239e-07
2.74785e-06
2.85816e-06
2.52113e-06
7.77523e-07
2.30953e-07
2.62595e-07
2.84258e-07
4.11177e-07
3.51206e-06
6.14499e-06
6.14248e-06
4.57398e-06
1.42652e-06
3.74721e-07
3.04974e-07
3.02189e-07
2.86611e-07
2.68933e-07
4.64505e-07
4.12506e-06
7.1186e-06
7.11558e-06
5.99357e-06
1.8128e-06
2.83951e-07
2.79255e-07
8.27327e-07
5.27158e-07
2.07324e-07
2.01124e-07
4.55003e-07
4.86528e-06
6.96586e-06
6.99e-06
4.16824e-06
7.03781e-07
1.81458e-07
1.41306e-06
1.29863e-06
4.31103e-07
2.2777e-07
2.45925e-07
9.30329e-07
2.09714e-06
1.85945e-06
1.3561e-06
1.36184e-06
3.72457e-06
5.78224e-06
5.80227e-06
4.67119e-06
1.90842e-06
1.04973e-06
8.03247e-07
4.72713e-07
1.71589e-07
1.59505e-07
1.58978e-07
5.37638e-07
3.41225e-06
1.78158e-06
3.41076e-07
1.55495e-07
1.52654e-07
1.52605e-07
1.52469e-07
1.51434e-07
1.52504e-07
1.5289e-07
1.50463e-07
1.51438e-07
6.55768e-07
1.81738e-06
7.44054e-07
1.74172e-07
1.79821e-07
8.14535e-07
1.39515e-06
1.40195e-06
6.58304e-07
1.88607e-07
1.66367e-07
1.64722e-07
1.62693e-07
1.59325e-07
1.59261e-07
3.15639e-07
9.09175e-07
8.8339e-07
2.4325e-07
1.36791e-07
1.34864e-07
1.34329e-07
1.3374e-07
1.32964e-07
1.32622e-07
1.32835e-07
5.14553e-07
8.9453e-07
8.80273e-07
6.27666e-07
7.72882e-07
5.88429e-07
2.69192e-07
1.51459e-07
1.4922e-07
1.49154e-07
1.49156e-07
2.74284e-07
1.03829e-06
1.09274e-06
9.1751e-07
3.82979e-07
3.63909e-07
6.25881e-07
6.59812e-07
5.92561e-07
2.43784e-07
1.40622e-07
1.38068e-07
1.35124e-07
1.32963e-07
1.31914e-07
4.62168e-07
6.49915e-07
6.52642e-07
2.63335e-07
1.64991e-07
1.75922e-07
4.47917e-07
4.75843e-07
1.98717e-07
1.35149e-07
1.40548e-07
1.57869e-07
1.35254e-07
1.38158e-07
1.36001e-07
1.34621e-07
1.31337e-07
1.29173e-07
1.28322e-07
1.2841e-07
1.28708e-07
1.28889e-07
1.28578e-07
1.27687e-07
1.26367e-07
1.24821e-07
1.23213e-07
1.2165e-07
1.20195e-07
1.18879e-07
1.17715e-07
1.16711e-07
1.15868e-07
1.15192e-07
1.14685e-07
1.14356e-07
1.14226e-07
1.14328e-07
1.1472e-07
1.15457e-07
1.16548e-07
1.17951e-07
1.19604e-07
1.21443e-07
1.234e-07
1.25419e-07
1.27467e-07
1.29549e-07
1.31712e-07
1.34043e-07
1.36651e-07
1.39652e-07
1.43155e-07
1.47245e-07
1.51981e-07
1.57408e-07
1.6359e-07
1.70832e-07
1.79812e-07
1.93129e-07
1.02256e-06
1.74805e-06
1.72891e-06
7.57448e-07
2.42851e-07
2.41465e-07
2.97712e-07
6.39986e-07
6.42312e-07
6.42847e-07
6.42305e-07
6.41093e-07
6.39848e-07
6.38331e-07
6.39145e-07
6.40888e-07
6.42841e-07
6.45004e-07
6.48048e-07
6.5241e-07
6.5837e-07
6.67538e-07
6.74369e-07
6.82146e-07
6.92289e-07
7.04166e-07
7.09263e-07
7.28681e-07
7.28855e-07
7.27549e-07
7.22287e-07
7.2022e-07
7.17322e-07
7.1486e-07
7.12758e-07
7.07776e-07
7.08816e-07
7.09725e-07
7.09337e-07
7.07963e-07
7.00803e-07
6.88677e-07
7.54429e-07
7.31179e-07
7.28744e-07
7.15282e-07
8.01946e-07
8.3151e-07
8.30876e-07
8.52304e-07
8.32384e-07
8.20306e-07
8.0974e-07
8.09225e-07
8.20899e-07
8.37455e-07
8.5951e-07
8.84748e-07
8.10416e-07
1.20628e-06
8.56836e-07
8.65425e-07
9.03034e-07
9.72813e-07
1.10625e-06
1.09868e-06
1.43825e-06
1.09862e-06
1.05364e-06
8.29304e-07
7.07317e-07
6.54126e-07
1.22659e-06
6.34415e-07
7.15134e-07
7.69723e-07
1.3136e-06
1.8314e-06
1.82162e-06
7.76215e-07
6.04531e-07
6.4399e-07
1.67841e-06
1.07991e-06
1.06864e-06
1.63118e-06
2.70681e-06
2.71775e-06
1.78627e-06
1.19106e-06
1.18573e-06
1.18394e-06
1.18376e-06
2.22144e-06
9.08978e-06
9.63231e-06
8.71424e-06
2.88238e-06
3.54666e-07
4.27379e-07
1.20027e-06
1.21807e-06
9.0757e-07
6.51592e-07
6.47823e-07
6.48354e-07
1.32833e-06
4.10372e-06
4.16045e-06
2.95965e-06
5.9443e-07
3.27244e-07
1.7282e-06
6.35328e-06
6.50209e-06
6.15603e-06
2.96995e-06
1.90583e-06
1.35411e-06
7.70347e-07
2.33992e-07
2.24929e-07
2.22956e-07
2.24031e-07
2.25654e-07
2.27223e-07
2.9403e-07
3.10268e-06
6.29156e-06
6.28088e-06
4.70966e-06
1.23876e-06
2.09534e-07
2.17131e-07
2.18201e-07
2.25116e-07
1.02649e-06
5.9486e-06
7.11543e-06
4.14055e-06
7.50514e-07
1.65428e-07
2.65049e-07
8.3471e-07
7.35067e-07
2.777e-07
1.80987e-07
2.8913e-07
3.51813e-06
6.98999e-06
4.82775e-06
1.10854e-06
1.83799e-07
1.77563e-07
1.77636e-07
1.77544e-07
1.77577e-07
2.1688e-07
2.55694e-07
2.9722e-07
9.16413e-07
3.67318e-06
3.83397e-06
3.49753e-06
1.16951e-06
1.82305e-07
1.69854e-07
1.687e-07
8.07715e-07
4.4318e-06
4.74779e-06
4.14254e-06
1.23526e-06
1.7144e-07
1.59098e-07
1.59709e-07
8.58002e-07
8.09605e-07
2.72487e-07
1.53275e-07
1.50869e-07
1.50791e-07
1.50619e-07
1.5045e-07
1.50299e-07
1.50244e-07
1.50251e-07
2.30419e-07
7.01629e-07
3.72918e-07
1.74369e-07
1.70278e-07
1.69675e-07
1.69661e-07
3.09576e-07
1.72923e-06
2.01829e-06
2.03403e-06
8.47779e-07
1.7527e-07
1.59556e-07
1.5921e-07
1.59176e-07
1.59631e-07
7.13903e-07
1.53054e-06
1.35387e-06
3.32531e-07
1.36949e-07
1.33589e-07
1.33402e-07
1.33022e-07
1.32695e-07
1.32423e-07
1.32262e-07
1.32277e-07
6.19665e-07
3.1454e-06