/*--------------------------------*- C++ -*----------------------------------*\
| =========                 |                                                 |
| \\      /  F ield         | OpenFOAM: The Open Source CFD Toolbox           |
|  \\    /   O peration     | Version:  2.4.0                                 |
|   \\  /    A nd           | Web:      www.OpenFOAM.org                      |
|    \\/     M anipulation  |                                                 |
\*---------------------------------------------------------------------------*/
FoamFile
{
    version     2.0;
    format      ascii;
    class       volScalarField;
    location    "3.1";
    object      p_rgh;
}
// * * * * * * * * * * * * * * * * * * * * * * * * * * * * * * * * * * * * * //

dimensions      [1 -1 -2 0 0 0 0];

internalField   nonuniform List<scalar> 
8000
(
0.823451
0.820675
0.81821
0.816281
0.814707
0.813372
0.81224
0.811292
0.810514
0.809888
0.809403
0.809045
0.808809
0.808683
0.808668
0.808757
0.808954
0.809255
0.809669
0.810198
0.810866
0.811678
0.81258
0.813339
0.814139
0.81637
0.826619
0.845988
0.824001
0.607908
0.18653
-0.065482
0.000409273
0.000800746
0.000723146
0.000692176
0.00068998
0.000692645
0.000693591
0.000693366
0.000692858
0.000692306
0.000691692
0.000690983
0.000690175
0.000689273
0.000688281
0.000687203
0.000686045
0.000684807
2.04483
2.04312
2.0411
2.03929
2.03774
2.0364
2.03524
2.03425
2.03343
2.03278
2.03229
2.03195
2.03177
2.03173
2.03185
2.03212
2.03254
2.0331
2.03382
2.03469
2.03574
2.03696
2.03825
2.0393
2.04033
2.04359
2.05747
2.08138
2.04413
1.74584
1.22113
0.0955578
0.00207981
0.00246715
0.00238457
0.00235245
0.00235082
0.00235438
0.00235629
0.00235717
0.00235798
0.00235898
0.00236013
0.00236141
0.00236281
0.00236434
0.00236599
0.00236777
0.00236968
0.00237173
3.43378
3.43315
3.43251
3.43191
3.4313
3.43068
3.43005
3.4294
3.42873
3.42805
3.42736
3.42664
3.42591
3.42516
3.4244
3.42361
3.4228
3.42196
3.42109
3.42021
3.41931
3.4184
3.41733
3.4157
3.41378
3.41477
3.42915
3.45454
3.39578
2.99764
2.34394
0.119102
0.00348365
0.00387839
0.00378879
0.00375629
0.00375569
0.0037599
0.00376207
0.003763
0.0037637
0.00376442
0.00376512
0.00376578
0.00376638
0.00376695
0.00376747
0.00376795
0.0037684
0.00376881
4.74877
4.74778
4.74673
4.74582
4.74504
4.74437
4.74381
4.74335
4.74299
4.74274
4.74258
4.74253
4.74258
4.74274
4.743
4.74336
4.74382
4.7444
4.74507
4.74587
4.74679
4.74784
4.74886
4.74944
4.7499
4.75398
4.77248
4.80048
4.73298
4.30552
3.35116
0.0313724
0.00524214
0.00549785
0.00542805
0.00540009
0.00539769
0.00539959
0.00540022
0.00540012
0.00540008
0.00540031
0.00540076
0.00540142
0.00540225
0.00540326
0.00540444
0.00540579
0.00540729
0.00540894
6.06288
6.06298
6.06306
6.0631
6.06307
6.063
6.06288
6.0627
6.06247
6.06218
6.06183
6.06143
6.06097
6.06046
6.05988
6.05926
6.05857
6.05783
6.05704
6.0562
6.05533
6.05442
6.05334
6.05176
6.05001
6.05129
6.06445
6.08406
6.01987
5.65592
3.87469
0.0113973
0.00682193
0.00691247
0.00686285
0.00684311
0.00683976
0.00683871
0.0068369
0.0068348
0.00683289
0.00683126
0.00682987
0.00682868
0.00682766
0.00682679
0.00682607
0.00682545
0.00682494
0.00682452
7.38017
7.38117
7.38222
7.38314
7.38394
7.38463
7.38522
7.38572
7.38613
7.38644
7.38666
7.38678
7.38681
7.38675
7.3866
7.38636
7.38603
7.38562
7.38511
7.38453
7.38389
7.38317
7.38226
7.3809
7.37942
7.38063
7.39168
7.40671
7.3474
7.04073
3.94961
0.00868251
0.00857931
0.00849069
0.00845342
0.008448
0.00844755
0.00844566
0.00844297
0.00844037
0.00843806
0.00843599
0.00843412
0.00843243
0.00843093
0.00842961
0.00842846
0.00842746
0.0084266
0.00842591
8.71771
8.72007
8.72256
8.72471
8.72652
8.72806
8.72934
8.73037
8.73114
8.73165
8.73191
8.73191
8.73166
8.73114
8.73036
8.7293
8.72797
8.72636
8.72446
8.72227
8.71977
8.71697
8.71374
8.70988
8.70561
8.70336
8.70804
8.71371
8.65736
8.41636
3.53974
0.00952726
0.00997205
0.00984773
0.00981403
0.00981423
0.00981691
0.00981719
0.00981648
0.00981573
0.00981508
0.00981443
0.00981375
0.00981304
0.00981228
0.00981148
0.00981063
0.00980974
0.00980883
0.009808
10.0699
10.0732
10.0765
10.0794
10.0817
10.0837
10.0854
10.0866
10.0876
10.0881
10.0884
10.0882
10.0877
10.0868
10.0856
10.084
10.082
10.0796
10.0768
10.0736
10.07
10.066
10.0615
10.0563
10.0508
10.0466
10.046
10.043
9.99683
9.84839
2.15533
0.0111579
0.0115883
0.0114609
0.0114238
0.0114195
0.0114166
0.0114113
0.0114051
0.0113988
0.0113925
0.0113862
0.0113796
0.0113729
0.011366
0.0113589
0.0113515
0.0113439
0.0113362
0.0113284
11.5478
11.5489
11.5503
11.5517
11.5532
11.5546
11.5562
11.5577
11.5593
11.5609
11.5626
11.5643
11.5661
11.568
11.5699
11.5719
11.574
11.5762
11.5786
11.5811
11.5839
11.5867
11.5888
11.5904
11.5981
11.6296
11.68
11.5825
10.885
9.73384
0.33993
0.0124501
0.0129309
0.0127934
0.0127317
0.0127252
0.0127249
0.0127217
0.0127168
0.0127113
0.0127054
0.0126991
0.0126923
0.0126849
0.0126768
0.012668
0.0126585
0.0126484
0.0126378
0.0126266
12.9901
12.9926
12.9954
12.9979
13.0002
13.0023
13.0042
13.006
13.0075
13.0089
13.0101
13.0111
13.0119
13.0125
13.013
13.0132
13.0133
13.0132
13.013
13.0126
13.0121
13.0113
13.01
13.0083
13.0097
13.0221
13.0393
12.9757
12.6373
8.07137
0.0213884
0.0143273
0.014351
0.0142871
0.014241
0.014227
0.0142148
0.0142017
0.0141882
0.0141743
0.0141603
0.0141461
0.0141315
0.0141165
0.0141012
0.0140853
0.014069
0.0140524
0.0140353
0.0140175
14.3281
14.334
14.3399
14.3448
14.349
14.3524
14.3553
14.3576
14.3592
14.3602
14.3606
14.3604
14.3594
14.3578
14.3554
14.3523
14.3483
14.3435
14.3377
14.331
14.3231
14.3139
14.3031
14.2919
14.2844
14.2829
14.257
14.1004
13.7687
3.59732
0.0162355
0.0157889
0.0157057
0.0156628
0.0156512
0.0156414
0.0156289
0.0156147
0.0155996
0.0155835
0.0155664
0.0155487
0.0155303
0.0155112
0.0154918
0.015472
0.015452
0.0154325
0.0154127
0.0153917
16.021
16.0244
16.0282
16.0316
16.0346
16.0372
16.0394
16.0413
16.0429
16.0442
16.0451
16.0456
16.0458
16.0457
16.0451
16.044
16.0425
16.0404
16.0377
16.0343
16.0296
16.0233
16.0165
16.0149
16.0251
16.0162
15.8419
15.3317
10.5054
0.234831
0.0172796
0.0173662
0.0173167
0.0172662
0.017257
0.017245
0.0172295
0.0172114
0.0171912
0.0171692
0.0171457
0.0171205
0.017094
0.0170649
0.0170348
0.017005
0.0169741
0.0169461
0.0169276
0.0169193
17.5384
17.5343
17.5299
17.5264
17.5241
17.5229
17.5227
17.5234
17.5252
17.5281
17.532
17.5371
17.5435
17.5514
17.5607
17.5718
17.5849
17.6004
17.6181
17.6385
17.6615
17.6927
17.744
17.8168
17.8103
17.4328
16.4027
11.7667
1.14319
0.0253077
0.0194839
0.0193763
0.0193496
0.0192835
0.0192412
0.0191942
0.0191427
0.0190871
0.0190289
0.0189728
0.0189183
0.0188601
0.0188089
0.0187445
0.0186738
0.018606
0.0185412
0.0184884
0.0185659
0.018534
19.4634
19.4588
19.4568
19.4577
19.4611
19.4667
19.4744
19.4844
19.4966
19.5111
19.5277
19.5465
19.5675
19.5907
19.616
19.6435
19.6727
19.7036
19.7344
19.7658
19.8072
19.8818
19.9814
19.8781
19.002
17.1408
8.65384
0.929164
0.0505918
0.0243985
0.0237953
0.0234969
0.0232053
0.0229121
0.0226751
0.0224554
0.0222532
0.0220649
0.021895
0.021738
0.0217887
0.02168
0.0213575
0.021256
0.0211321
0.0208391
0.0205447
0.0204957
0.0211291
0.0207149
19.7828
19.7937
19.8025
19.8076
19.8092
19.8079
19.8035
19.7963
19.7859
19.7725
19.7559
19.7362
19.713
19.6867
19.6567
19.6233
19.5851
19.5427
19.5004
19.4763
19.4773
19.3856
18.7579
17.1706
13.0322
2.94359
0.12904
0.0187248
0.0228932
0.0229619
0.0227204
0.0225992
0.0225364
0.0225116
0.0224776
0.0224371
0.0223902
0.0223968
0.022542
0.0225014
0.0210737
0.0209117
0.0208352
0.0208085
0.0206864
0.0205996
0.0206028
0.0228323
0.0227221
0.0222964
21.6579
21.6685
21.6784
21.6849
21.6878
21.6876
21.6842
21.6779
21.6683
21.6556
21.6393
21.6197
21.5962
21.5687
21.5359
21.4984
21.4582
21.4292
21.4179
21.3486
20.8977
19.4327
15.4817
5.05053
-0.0328611
-0.0117139
0.027879
0.0231341
0.0228484
0.0228197
0.0227883
0.022784
0.0227689
0.0227502
0.0227343
0.0227183
0.0228379
0.024697
0.0234714
0.0232774
0.0232755
0.0232348
0.0232078
0.0232074
0.0231938
0.023204
0.0233391
0.0244808
0.0230307
0.0228544
23.7342
23.7239
23.7147
23.7107
23.7125
23.7198
23.7326
23.7509
23.775
23.8051
23.8412
23.8837
23.932
23.9865
24.0499
24.1357
24.2582
24.3571
24.032
22.2776
16.8789
5.29798
-1.22055
0.0743744
0.096564
0.0227372
0.0249627
0.024959
0.0248343
0.0248384
0.0248335
0.024869
0.0249027
0.0249392
0.0249628
0.0250145
0.0252007
0.0272676
0.0221544
0.0226122
0.0226143
0.0227493
0.0228331
0.0221847
0.0222111
0.0221947
0.0223259
0.0247061
0.0216407
0.0216274
26.2299
26.1809
26.1369
26.1075
26.0914
26.0871
26.0944
26.1134
26.1443
26.1873
26.2418
26.3086
26.392
26.5148
26.6808
26.7877
26.2103
23.9198
17.5854
4.77985
-0.475577
0.220879
0.0245359
0.0149155
0.0188049
0.0184098
0.0185792
0.0184519
0.0187677
0.0190922
0.0193435
0.019588
0.0198157
0.0200308
0.0202921
0.0204281
0.0213713
0.0224251
0.0204
0.0205978
0.0197712
0.0200446
0.0198742
0.0207061
0.0207758
0.0209839
0.0216915
0.0212189
0.0213311
0.021442
24.4253
24.3747
24.3196
24.2704
24.2268
24.1877
24.1521
24.1198
24.0892
24.0594
24.0358
24.0449
24.1048
24.0482
23.2071
20.7931
14.4861
1.01968
0.49058
0.583967
0.0119644
0.0281427
0.0245357
0.0232553
0.0234635
0.0235798
0.0235835
0.0240053
0.0228837
0.023001
0.0228502
0.0229319
0.023484
0.0234902
0.0220171
0.0219298
0.0219378
0.02198
0.0221809
0.0222651
0.0229079
0.0226645
0.0228774
0.0229373
0.0230211
0.0231438
0.0232624
0.0233846
0.0235538
0.0240581
22.8809
22.8844
22.8822
22.8706
22.8493
22.8182
22.7779
22.7265
22.6679
22.6195
22.5965
22.5055
21.8317
20.0992
14.6755
-0.116779
0.359766
0.500615
0.0607197
0.0534095
0.0413641
0.0362205
0.0364543
0.0359045
0.0348061
0.0342077
0.0336866
0.0332124
0.0327689
0.0323488
0.0320081
0.0318813
0.0315565
0.0305405
0.0300018
0.0303502
0.0297973
0.0310431
0.0300092
0.0297127
0.0295331
0.0293616
0.0292295
0.0290841
0.0291823
0.0288253
0.0287099
0.028594
0.0284725
0.0284393
0.000683491
0.000682097
0.000680625
0.000679075
0.000677445
0.000675734
0.000673943
0.000672071
0.00067012
0.000668093
0.000665989
0.000663809
0.000661553
0.000659219
0.000656803
0.000654297
0.000651692
0.000648974
0.000646132
0.000643157
0.000640041
0.000636779
0.000633367
0.000629805
0.000626092
0.000622222
0.000618188
0.000613984
0.000609601
0.00060503
0.000600263
0.000595291
0.000590103
0.000584692
0.000579047
0.000573162
0.000567026
0.000560633
0.000553973
0.000547034
0.000539809
0.00053229
0.000524473
0.000516355
0.000507929
0.000499198
0.000490197
0.00048097
0.000471241
0.000459747
0.00237391
0.00237623
0.00237867
0.00238125
0.00238396
0.00238681
0.00238979
0.0023929
0.00239617
0.0023996
0.00240318
0.00240694
0.00241088
0.00241501
0.00241935
0.00242391
0.00242867
0.00243365
0.00243884
0.00244424
0.00244984
0.00245565
0.00246166
0.00246789
0.00247437
0.00248109
0.00248808
0.00249533
0.00250287
0.00251071
0.00251887
0.00252736
0.00253617
0.00254533
0.00255483
0.00256467
0.00257489
0.00258549
0.0025965
0.00260792
0.00261977
0.00263208
0.0026449
0.00265826
0.00267215
0.00268655
0.00270145
0.00271688
0.00273307
0.00275074
0.00376918
0.00376953
0.00376984
0.00377012
0.00377037
0.00377057
0.00377073
0.00377086
0.00377097
0.00377105
0.0037711
0.00377113
0.00377115
0.00377117
0.00377121
0.00377126
0.00377132
0.00377139
0.00377147
0.00377157
0.00377166
0.00377171
0.00377172
0.00377169
0.00377169
0.00377166
0.00377155
0.00377136
0.00377115
0.00377095
0.00377077
0.00377061
0.00377047
0.00377033
0.00377017
0.00376999
0.00376978
0.00376958
0.0037694
0.00376923
0.00376902
0.00376884
0.00376889
0.00376924
0.00376969
0.0037701
0.00377046
0.00377107
0.00377219
0.00377285
0.00541075
0.00541271
0.00541482
0.00541708
0.00541949
0.00542206
0.00542469
0.00542745
0.0054304
0.00543348
0.00543667
0.00544001
0.0054435
0.00544716
0.00545102
0.00545507
0.00545936
0.0054638
0.00546842
0.00547325
0.0054783
0.00548349
0.00548881
0.00549441
0.00550058
0.00550683
0.00551295
0.00551898
0.00552523
0.00553179
0.00553861
0.00554564
0.00555292
0.00556042
0.0055681
0.00557592
0.00558389
0.00559208
0.0056006
0.00560932
0.00561793
0.00562666
0.00563664
0.00564807
0.00565929
0.00567048
0.00568116
0.00569137
0.00570405
0.00571859
0.00682419
0.00682395
0.00682377
0.00682367
0.00682378
0.00682401
0.00682403
0.00682397
0.00682416
0.00682436
0.00682451
0.00682476
0.00682502
0.00682528
0.00682567
0.00682616
0.00682686
0.00682748
0.00682797
0.00682849
0.00682904
0.00682955
0.00683021
0.00683128
0.00683409
0.00683545
0.00683582
0.00683488
0.00683434
0.00683403
0.00683357
0.00683263
0.00683143
0.00682973
0.00682757
0.00682475
0.00682113
0.00681694
0.00681256
0.00680731
0.00680004
0.00679141
0.0067878
0.00678449
0.00676618
0.00675703
0.00674853
0.00672409
0.00670846
0.00668944
0.00842541
0.00842508
0.00842483
0.00842488
0.00842585
0.00842727
0.00842798
0.00842795
0.0084289
0.00843012
0.00843152
0.00843335
0.00843523
0.00843724
0.00843998
0.00844307
0.00844681
0.00845033
0.00845345
0.00845679
0.00846072
0.00846525
0.00847138
0.008481
0.00849659
0.00850067
0.00850801
0.00850947
0.00851584
0.00852262
0.00852986
0.0085364
0.00854361
0.0085501
0.00855703
0.00856364
0.00856966
0.00857608
0.00858534
0.00859251
0.00859879
0.00860409
0.00863708
0.00864597
0.00860486
0.00861171
0.00864545
0.00861854
0.00862858
0.00863587
0.00980729
0.00980655
0.00980574
0.00980583
0.00981085
0.00981211
0.00981386
0.00980969
0.00981016
0.00981213
0.00981591
0.00981912
0.00982132
0.00982492
0.00983492
0.00984502
0.00984825
0.00985234
0.00985361
0.00985628
0.00986034
0.00986858
0.00988327
0.0100316
0.00992065
0.00993627
0.00995324
0.0099673
0.00998504
0.0100061
0.0100012
0.0100206
0.0100424
0.0100624
0.0100847
0.010107
0.0101283
0.0101513
0.010194
0.010209
0.0102434
0.0102833
0.0103313
0.0104105
0.0103301
0.0103498
0.0104889
0.0103997
0.0104374
0.0105008
0.0113204
0.011312
0.0113034
0.0113011
0.0113143
0.0112772
0.0112796
0.01126
0.0112498
0.0112473
0.0112607
0.01125
0.0112341
0.0112172
0.0112769
0.011297
0.0112082
0.0111784
0.0111456
0.0111353
0.011122
0.011115
0.0122638
0.0116479
0.0115944
0.0114978
0.0114789
0.0114755
0.0115034
0.0121119
0.011484
0.0113637
0.0113604
0.0113569
0.0113594
0.0113673
0.0113733
0.0113761
0.0114005
0.0115037
0.0114
0.0115883
0.0113877
0.0122676
0.0119095
0.0118461
0.0118496
0.0118848
0.0118074
0.0119681
0.0126147
0.012603
0.0125918
0.0126084
0.0126263
0.0125609
0.0125584
0.0125185
0.0125018
0.0124843
0.0124798
0.0131557
0.0131652
0.0128321
0.0142801
0.0134599
0.0134346
0.0133164
0.0133391
0.0133359
0.0132104
0.0132938
0.0152606
0.01195
0.0119716
0.0119972
0.0120077
0.012107
0.0121454
0.0122316
0.0120991
0.0121274
0.0121594
0.0122951
0.0122816
0.0122907
0.0123493
0.012366
0.0124238
0.0135917
0.0134704
0.0134132
0.0137174
0.0128661
0.0130815
0.0132769
0.0119075
0.0119307
0.0119665
0.0120044
0.0139994
0.0139865
0.0139735
0.0139503
0.0143177
0.0137668
0.0138255
0.013838
0.0138117
0.0136708
0.0136802
0.0145221
0.0144447
0.0136263
0.0146719
0.0143715
0.0143022
0.0141208
0.0140887
0.0140718
0.0140595
0.0140834
0.0157107
0.0133696
0.013316
0.0135428
0.0135182
0.0140192
0.0139505
0.0136678
0.0136571
0.0136795
0.0136547
0.0144013
0.0138856
0.0138284
0.0138167
0.0138257
0.0138418
0.0139013
0.0140882
0.0137568
0.0137234
0.0138769
0.0132118
0.0133063
0.013427
0.0132694
0.0131636
0.0130955
0.0153713
0.0153566
0.0162847
0.0161931
0.0158777
0.0167369
0.0154226
0.0152576
0.0152601
0.0152579
0.0152636
0.0163335
0.0151219
0.0151291
0.0147649
0.0157683
0.0146629
0.0146814
0.0150043
0.0148427
0.0148868
0.0149615
0.0151195
0.0149989
0.0134988
0.0134852
0.013508
0.0135281
0.0135409
0.0135326
0.0135278
0.0135408
0.0136058
0.0139552
0.0139459
0.0135937
0.0134577
0.0140922
0.0140011
0.0152004
0.0145497
0.0144535
0.0143766
0.0143106
0.014241
0.0141712
0.0141409
0.0158391
0.0153306
0.0151165
0.0168885
0.0168821
0.0178605
0.0172084
0.0172478
0.0167789
0.0171063
0.0170505
0.0169492
0.017018
0.0169783
0.0170143
0.0177422
0.01577
0.0162049
0.0161406
0.016731
0.0166405
0.0165047
0.0164044
0.0163178
0.0161363
0.0161399
0.0176308
0.017493
0.0172771
0.0170838
0.0169694
0.0168722
0.0167807
0.0166901
0.0166306
0.0165651
0.016469
0.01637
0.0163345
0.0162958
0.0161455
0.0159539
0.015836
0.0157383
0.0156364
0.0155341
0.0154417
0.0153499
0.0152647
0.0151873
0.0150691
0.0164385
0.0157066
0.0182606
0.0183025
0.0183273
0.0186252
0.0183432
0.0183403
0.01832
0.0191193
0.0181998
0.0181997
0.0182013
0.0182022
0.0185427
0.0183995
0.0182142
0.0192193
0.0187032
0.018707
0.0186672
0.0177093
0.0175882
0.0176208
0.0175845
0.0175749
0.0200038
0.018732
0.0184855
0.0183296
0.0182054
0.0176437
0.0183232
0.0178835
0.0177297
0.0176224
0.0175188
0.0174156
0.0173095
0.0172194
0.0170861
0.0169855
0.0171225
0.0170011
0.0168216
0.0166769
0.0165503
0.0164343
0.0163192
0.0162088
0.0161026
0.0159903
0.0205242
0.0206723
0.0208009
0.0216629
0.0206899
0.0205526
0.020434
0.020316
0.0201931
0.0200693
0.0201079
0.0200229
0.0216078
0.0208394
0.0205944
0.0210204
0.0209136
0.0208303
0.0207749
0.0206454
0.0199548
0.0197243
0.0200458
0.0197883
0.0209891
0.0199074
0.0197096
0.0195777
0.0194512
0.0193382
0.0200386
0.0197083
0.0194091
0.0192465
0.0191056
0.0189666
0.0188262
0.0186849
0.0185479
0.0184117
0.0182692
0.0181319
0.0179695
0.0178351
0.0176967
0.0173193
0.0171501
0.0169869
0.0168214
0.0166517
0.0221385
0.0220469
0.021985
0.0219088
0.0218294
0.0218012
0.0217128
0.021987
0.0216774
0.0216224
0.0215445
0.0216608
0.0217689
0.0220412
0.0210554
0.0209916
0.0209821
0.0210119
0.0208569
0.0209237
0.0210886
0.020273
0.0201366
0.0200716
0.0200411
0.0199693
0.0199021
0.0198321
0.0197361
0.019655
0.0201158
0.0194873
0.0193605
0.0192422
0.0191166
0.0189839
0.0188448
0.0186984
0.0185445
0.0183834
0.0182153
0.0180397
0.017858
0.0176688
0.0174709
0.0172669
0.0170547
0.0168359
0.0166101
0.0163767
0.0228111
0.0227381
0.022701
0.0226615
0.0226372
0.0225957
0.0225304
0.0228413
0.0223336
0.0222517
0.0221665
0.0220877
0.0222525
0.0218786
0.0225529
0.0222784
0.0221185
0.022007
0.0219778
0.0219703
0.0226561
0.0221067
0.0219222
0.0218014
0.0216947
0.0215715
0.0214356
0.0213851
0.0212766
0.0209937
0.0208606
0.0207154
0.0205651
0.0204065
0.0202439
0.0200763
0.0199036
0.0197256
0.0195423
0.0193539
0.0191602
0.0189615
0.018758
0.0185492
0.0183357
0.0181178
0.017896
0.0176702
0.0174402
0.0172075
0.0216745
0.0217366
0.0217502
0.0219877
0.0219745
0.0220822
0.0220969
0.0220833
0.0220626
0.0220239
0.0219765
0.0219437
0.0220626
0.0220258
0.0229773
0.022018
0.0219656
0.0219096
0.0218504
0.0217896
0.0217368
0.0216761
0.0216055
0.021526
0.0215021
0.0214344
0.0212398
0.0211388
0.0210346
0.0209217
0.0208021
0.0206754
0.0205422
0.0204023
0.0202557
0.0201024
0.0199425
0.019776
0.0196028
0.0194231
0.0192373
0.0190455
0.018848
0.018645
0.0184366
0.018223
0.0180044
0.0177808
0.017552
0.0173199
0.0215371
0.0215923
0.0217301
0.0217388
0.0218289
0.0218946
0.0219617
0.0220516
0.0228174
0.0224342
0.0224051
0.0224037
0.0224136
0.0224294
0.0225252
0.0224423
0.0224048
0.0223509
0.0223257
0.0222936
0.0222552
0.0222104
0.0221584
0.0220979
0.0220296
0.0219549
0.0218712
0.0217791
0.0216786
0.0215701
0.0214539
0.02133
0.0211984
0.021059
0.0209118
0.0207572
0.0205953
0.0204265
0.0202507
0.0200681
0.0198789
0.0196831
0.019481
0.0192726
0.0190579
0.0188373
0.0186105
0.0183773
0.0181376
0.017894
0.0238058
0.0238115
0.0238483
0.0239455
0.0240076
0.0240799
0.0241437
0.0242486
0.0244194
0.0245621
0.0236921
0.0236833
0.0236998
0.0237065
0.023706
0.0236997
0.023684
0.0236593
0.0236251
0.0235825
0.0235322
0.0234743
0.0234086
0.0233353
0.0232542
0.0231654
0.0230691
0.0229655
0.0228546
0.0227366
0.0226115
0.0224793
0.0223408
0.022196
0.0220453
0.0218888
0.0217269
0.0215597
0.0213875
0.0212106
0.0210292
0.0208436
0.0206541
0.020461
0.0202645
0.0200649
0.0198624
0.0196571
0.01945
0.0192477
0.0290712
0.0287977
0.0285691
0.0284308
0.0283127
0.0281911
0.0281251
0.0280358
0.0280989
0.0278534
0.0276856
0.0275526
0.0274196
0.0272864
0.0271514
0.0270143
0.026875
0.026733
0.026588
0.0264397
0.0262879
0.0261328
0.0259742
0.0258122
0.0256467
0.0254777
0.0253049
0.0251283
0.0249481
0.0247644
0.0245773
0.0243868
0.024193
0.023996
0.0237958
0.0235925
0.023386
0.0231765
0.0229639
0.0227484
0.0225298
0.0223083
0.0220838
0.0218563
0.0216257
0.0213921
0.0211553
0.0209153
0.0206753
0.0204557
0.000448283
0.000440906
0.000434188
0.000427511
0.000420648
0.000413619
0.000406463
0.000399196
0.00039183
0.00038436
0.000376777
0.000369079
0.000361262
0.000353328
0.000345271
0.000337086
0.000328779
0.000320365
0.000311855
0.000303232
0.000294417
0.000285261
0.000275771
0.000266085
0.000256243
0.000246221
0.000235904
0.000225094
0.000213788
0.000202131
0.000190286
0.000178245
0.000165979
0.000153471
0.000140717
0.000127715
0.000114384
0.00010071
8.68285e-05
7.30281e-05
5.92336e-05
4.49081e-05
2.91071e-05
1.28677e-05
-3.4725e-06
-2.00544e-05
-3.68905e-05
-5.41035e-05
-7.17369e-05
-8.97797e-05
-0.000108264
-0.00012732
-0.000146874
-0.000166376
-0.00018894
-0.000210725
-0.000232754
-0.000255465
-0.000277448
-0.000304796
-0.000329634
-0.00035578
-0.000381905
-0.000409196
-0.00043675
-0.000464987
-0.00049399
-0.000523336
-0.000493911
-0.000547703
-0.000596112
-0.000630472
-0.000665565
-0.000684866
-0.000724782
-0.000769974
-0.000808315
-0.000856263
-0.000902236
-0.000962474
-0.00101566
-0.00106832
-0.00112182
-0.00117824
-0.000663848
-0.000954776
-0.000971111
-0.000606296
-0.00122033
-0.00128499
-0.00135782
0.000297655
-0.000558106
-0.000642456
-0.000604676
-0.000804095
-0.000888077
-0.000978235
-0.000367111
-0.000629848
-0.000733225
-0.000824369
-0.00091875
-0.00101672
0.000558623
-0.00028921
-0.000388184
-0.000479381
-0.000570009
-0.000669736
-0.000759649
-0.000852208
-0.000963339
-0.00100864
-0.000776506
-0.00143093
-0.0015552
-0.00154757
-0.00170656
-0.00191039
7.94239e-05
-0.000831958
-0.00094592
-0.00104817
-0.0011441
-0.00124825
-0.00134767
-0.00143862
-0.00152164
-0.00158635
-0.00135876
-0.00145353
-0.0015589
-0.00165689
-0.0017417
-0.00183669
-0.00191585
-0.00198558
-0.00202013
-0.00118023
-0.00163652
-0.00180957
-0.00179708
-0.00175243
-0.0017765
-0.00186861
-0.00182142
-0.00161734
-0.00258687
-0.00179259
-0.00215527
-0.00186314
-0.0020893
-0.00200663
-0.00201196
-0.00202284
-0.00196406
-0.00188752
-0.00247505
-0.00247594
-0.00245348
-0.00242642
-0.00240673
-0.00238677
-0.00236685
-0.0023428
-0.00231821
-0.00228834
-0.00224157
-0.00193312
-0.0022808
-0.00226029
-0.00223396
-0.0022057
-0.00217887
-0.00214939
-0.00180068
-0.00194038
-0.00192511
-0.00184367
-0.001889
-0.0018451
-0.00173028
-0.00189564
-0.00186496
-0.00181688
-0.001795
-0.00177947
-0.0016539
-0.00170551
-0.00166946
-0.00163458
-0.00159917
-0.00156352
-0.00152257
-0.00146996
-0.00150536
-0.00146672
-0.00143359
-0.00140291
-0.00137168
-0.00134073
-0.00131019
-0.00127756
-0.00120334
-0.00119202
-0.00113617
-0.0011286
-0.000948592
-0.00100302
-0.000971886
-0.000947442
-0.000923872
-0.000904475
-0.000865781
-0.000838123
-0.000812939
-0.000704053
-0.000703228
-0.000691617
-0.000658517
-0.000630741
-0.000587905
-0.000563124
-0.000531701
-0.000499003
-0.000468644
-0.000438658
-0.000407455
-0.000375127
-0.000344001
-0.000284755
-0.000268584
-0.00025372
-0.000218734
-0.000186314
-0.000156599
-0.000126366
-9.87919e-05
-7.13004e-05
-4.70264e-05
-2.22252e-05
2.29841e-06
2.60678e-05
4.88873e-05
7.08235e-05
9.18401e-05
0.000111876
0.000130934
0.000149007
0.00016608
0.000182134
0.000197169
0.000211205
0.000224282
0.000236446
0.000247744
0.000258228
0.00026795
0.000276966
0.000285331
0.000293102
0.00030033
0.00030706
0.00031333
0.000319163
0.000324572
0.000329551
0.000334081
0.000338124
0.000341625
0.000344512
0.000346696
0.000348076
0.000348531
0.000347923
0.000346096
0.000342889
0.000338134
0.000331643
0.000323197
0.000312537
0.000299376
0.000283401
0.000264268
0.000241593
0.000214938
0.000183797
0.000147581
0.000105602
5.67982e-05
-2.98728e-07
-6.38857e-05
5.78508e-05
-0.000111106
-0.000196723
-0.000254666
-0.000374327
-0.000537438
-0.000671967
0.00276647
0.00277677
0.00278641
0.00279604
0.00280586
0.0028158
0.00282581
0.00283582
0.00284597
0.0028563
0.00286682
0.00287751
0.00288843
0.00289963
0.00291113
0.00292287
0.00293488
0.00294725
0.00296002
0.00297314
0.00298676
0.00300035
0.00301397
0.00302779
0.00304191
0.00305633
0.00307108
0.00308622
0.0031018
0.00311724
0.00313285
0.00314877
0.00316498
0.00318154
0.0031983
0.0032159
0.00323375
0.00325178
0.00326981
0.00328933
0.00331014
0.00333031
0.00334947
0.00336881
0.0033888
0.00340938
0.00343033
0.00345108
0.00347216
0.00349356
0.00351573
0.00353839
0.00356138
0.00358614
0.00360236
0.00362655
0.00365236
0.00367875
0.00370029
0.00370861
0.00377116
0.00376815
0.00379386
0.00381608
0.00385027
0.00387633
0.003901
0.00392928
0.00396163
0.00408064
0.00391222
0.00393297
0.0039538
0.00397563
0.00408823
0.00403117
0.00412752
0.00414927
0.00429011
0.00492612
0.00452049
0.00454943
0.00423134
0.00428504
0.00433143
0.00416953
0.00419035
0.00435917
0.00439194
0.00428732
0.0043264
0.00437326
0.00381149
0.0038106
0.00392475
0.00354905
0.00360578
0.00363835
0.00298982
0.00300984
0.0030313
0.00304671
0.00309049
0.00322461
0.00323656
0.00275525
0.00275995
0.00285526
0.00288211
0.00280306
0.00278874
0.00285877
0.00267855
0.00268235
0.00273542
0.00273079
0.00272644
0.0027202
0.00274991
0.00281675
0.00283718
0.00208093
0.00207374
0.00207919
0.00207981
0.00207611
0.0020763
0.0020782
0.00208019
0.00210626
0.0021329
0.00213402
0.00159874
0.00155226
0.00152487
0.00151216
0.00149711
0.00134922
0.00138443
0.0013596
0.00128693
0.00121475
0.00195527
0.00192156
0.00156721
0.00152061
0.00168699
0.0013328
0.00125626
0.000998048
0.00103556
0.000989558
0.000937697
0.000978875
0.000842441
0.000821846
0.000781894
0.00078917
0.00086014
0.000842048
0.000355708
0.000273613
0.000232704
0.000188836
0.000141296
7.89522e-05
2.91885e-05
-2.58901e-05
-7.905e-05
0.000909072
0.000240005
0.000159811
0.00010097
4.56982e-05
-1.00131e-05
-6.61901e-05
-0.000122066
-0.000175269
-0.000229123
-0.00028402
-0.000340537
-0.000394218
-6.33595e-05
-0.000485308
-0.000372933
-0.000432879
-0.000504598
-0.000388439
-0.000444195
-0.0005417
-0.000581258
-0.000625786
-0.000671747
-0.000715489
-0.000756737
-0.000797655
-0.000840737
-0.000745112
-0.000786631
-0.000871393
-0.000897927
-0.000922766
-0.000946086
-0.000968219
-0.000989151
-0.00100889
-0.00102781
-0.00104587
-0.00104956
-0.00107312
-0.00113319
-0.00114904
-0.00118256
-0.00120249
-0.0012069
-0.00121052
-0.00121314
-0.00121517
-0.00122017
-0.00121738
-0.00120197
-0.00125599
-0.00123208
-0.00122365
-0.00126582
-0.00124795
-0.00125858
-0.00123972
-0.00121898
-0.00120394
-0.00118803
-0.00117158
-0.00115624
-0.00114269
-0.0010787
-0.001064
-0.00104892
-0.0010048
-0.000984972
-0.000946846
-0.000917811
-0.000936663
-0.000906555
-0.000881134
-0.000854372
-0.000832329
-0.000807723
-0.000783708
-0.000760765
-0.000738886
-0.000718128
-0.000698683
-0.000680846
-0.000664727
-0.000650317
-0.000637574
-0.000626569
-0.000617339
-0.000609872
-0.00060415
-0.00060015
-0.000597841
-0.000597183
-0.000598126
-0.000600613
-0.000604581
-0.00060996
-0.000616678
-0.000624657
-0.000633824
-0.000644107
-0.00065544
-0.000667765
-0.000681031
-0.0006952
-0.000710252
-0.000726187
-0.000743028
-0.000760824
-0.000779644
-0.000799585
-0.000820777
-0.000843385
-0.00086762
-0.000893737
-0.000922051
-0.000952937
-0.000986849
-0.00102433
-0.001066
-0.00111264
-0.00116525
-0.00122515
-0.00129558
-0.00123487
-0.00132076
-0.00142446
-0.00151761
-0.00163019
-0.0017664
0.00377222
0.00377307
0.00377469
0.00377651
0.00377844
0.00378059
0.00378305
0.00378534
0.00378773
0.00379041
0.00379324
0.00379612
0.003799
0.00380212
0.00380585
0.00380996
0.00381412
0.0038187
0.00382367
0.00382899
0.00383775
0.00384348
0.00384909
0.00385469
0.00386056
0.00386631
0.00387184
0.00387727
0.0038832
0.00388826
0.00389337
0.00389845
0.00390324
0.0039118
0.00392455
0.00394351
0.0039331
0.00393877
0.00395298
0.00395719
0.00396301
0.00396703
0.00398166
0.00397493
0.00397754
0.00398416
0.00398828
0.00398814
0.00399123
0.00400211
0.00400468
0.00403261
0.00430503
0.00407109
0.00406912
0.00404633
0.00404271
0.00403996
0.00403937
0.00425896
0.00402981
0.00402359
0.00401467
0.00408944
0.00412266
0.00447357
0.00410339
0.00405233
0.0040173
0.00401643
0.00434401
0.00433401
0.00431674
0.00441947
0.00439648
0.00490305
0.00466036
0.00467597
0.00447083
0.0045731
0.00458974
0.0040903
0.00409357
0.00410051
0.00411095
0.00412102
0.00413777
0.00421924
0.00456838
0.003996
0.00390389
0.00391321
0.00387649
0.00347298
0.00348314
0.00330577
0.00330253
0.00329748
0.00329298
0.00328777
0.00329069
0.00334039
0.00269417
0.00275998
0.0029045
0.00220296
0.00226401
0.00236357
0.00214756
0.00207481
0.00203786
0.00201184
0.0019928
0.0019717
0.00195262
0.00193337
0.00191376
0.00189427
0.00187622
0.00185266
0.00183915
0.00188893
0.00187533
0.00107448
0.00100147
0.000955371
0.000916446
0.000880214
0.000844698
0.000820544
0.000820573
0.00131962
-0.00011187
-0.000203649
-2.0272e-05
-0.000128342
9.03928e-06
-0.000108939
-0.000220172
-0.000255688
-0.000378853
-0.00043471
0.00101126
-3.71959e-05
-0.000170204
-0.000272263
-0.000356938
-0.000442395
-0.000527762
-0.00060899
-0.0006917
-0.000771402
-0.000850312
-0.000924745
-0.000964973
-0.000962096
-0.0011774
-0.00123224
-0.00123909
-0.00131958
-0.00139357
-0.00151784
-0.0015473
-0.00148081
-0.00181183
-0.00192324
-0.0019984
-0.00205292
-0.00210489
-0.00203824
-0.00209557
-0.00225008
-0.00228768
-0.00232436
-0.00236094
-0.00239772
-0.00243468
-0.00247186
-0.00250908
-0.002547
-0.00258644
-0.00246483
-0.0026145
-0.00264295
-0.00267633
-0.00270882
-0.00274175
-0.00277602
-0.0027962
-0.00273223
-0.00277194
-0.00282491
-0.00285852
-0.00288499
-0.00291064
-0.00293488
-0.00295807
-0.00297865
-0.00276686
-0.00284646
-0.00290157
-0.00291031
-0.00291406
-0.00291485
-0.0029123
-0.00290638
-0.00289722
-0.00288488
-0.00287002
-0.00285451
-0.00261543
-0.00253282
-0.0029567
-0.00291961
-0.00287839
-0.00283921
-0.00279998
-0.00276063
-0.00272048
-0.00267929
-0.00264122
-0.00255997
-0.00222345
-0.00269711
-0.00264327
-0.00258634
-0.00260426
-0.00229142
-0.00237535
-0.00233979
-0.00227905
-0.00221914
-0.00215836
-0.0020958
-0.00203361
-0.00196332
-0.00171128
-0.00188534
-0.00172124