/*--------------------------------*- C++ -*----------------------------------*\
| =========                 |                                                 |
| \\      /  F ield         | OpenFOAM: The Open Source CFD Toolbox           |
|  \\    /   O peration     | Version:  2.4.0                                 |
|   \\  /    A nd           | Web:      www.OpenFOAM.org                      |
|    \\/     M anipulation  |                                                 |
\*---------------------------------------------------------------------------*/
FoamFile
{
    version     2.0;
    format      ascii;
    class       surfaceScalarField;
    location    "3.1";
    object      phi;
}
// * * * * * * * * * * * * * * * * * * * * * * * * * * * * * * * * * * * * * //

dimensions      [0 3 -1 0 0 0 0];

internalField   nonuniform List<scalar> 
15580
(
-3.70643e-14
-2.21586e-12
-1.22432e-13
-6.51035e-12
-2.44234e-13
-1.06625e-11
-3.97686e-13
-1.46697e-11
-5.78597e-13
-1.85323e-11
-7.833e-13
-2.22503e-11
-1.00857e-12
-2.58239e-11
-1.25158e-12
-2.9253e-11
-1.50981e-12
-3.25378e-11
-1.78101e-12
-3.56783e-11
-2.06315e-12
-3.86745e-11
-2.35438e-12
-4.15266e-11
-2.65299e-12
-4.42345e-11
-2.95736e-12
-4.67983e-11
-3.26596e-12
-4.92179e-11
-3.57726e-12
-5.14934e-11
-3.88977e-12
-5.36247e-11
-4.20195e-12
-5.56118e-11
-4.51221e-12
-5.74547e-11
-4.81885e-12
-5.91532e-11
-5.12006e-12
-6.07075e-11
-5.41388e-12
-6.21172e-11
-5.69812e-12
-6.33824e-11
-5.97035e-12
-6.45029e-11
-6.22783e-12
-6.54787e-11
-6.46767e-12
-6.63094e-11
-6.68691e-12
-6.69949e-11
-6.88194e-12
-6.7534e-11
-7.04449e-12
-6.79267e-11
-7.15655e-12
-6.81777e-11
-1.89061e-11
-6.83058e-11
-3.44616e-11
-6.83481e-11
-3.45165e-11
-6.83322e-11
-3.45054e-11
-8.1975e-11
-3.43193e-11
-9.4245e-11
-3.40005e-11
-1.05366e-10
-3.35944e-11
-1.15423e-10
-3.31127e-11
-1.24486e-10
-3.25536e-11
-1.32621e-10
-3.19149e-11
-1.39894e-10
-3.11954e-11
-1.46375e-10
-3.03949e-11
-1.5213e-10
-2.95134e-11
-1.57225e-10
-2.85516e-11
-1.61725e-10
-2.75107e-11
-1.65689e-10
-2.63927e-11
-1.69174e-10
-2.52001e-11
-1.72232e-10
-2.39359e-11
-1.74912e-10
-2.26039e-11
-1.7726e-10
-1.79317e-10
-2.1208e-11
-1.27682e-14
-2.20309e-12
-5.79942e-14
-6.46512e-12
-1.35514e-13
-1.05849e-11
-2.41895e-13
-1.45633e-11
-3.74041e-13
-1.84002e-11
-5.29131e-13
-2.20953e-11
-7.04587e-13
-2.56484e-11
-8.98028e-13
-2.90595e-11
-1.10726e-12
-3.23285e-11
-1.33023e-12
-3.54553e-11
-1.56501e-12
-3.84397e-11
-1.80977e-12
-4.12818e-11
-2.06276e-12
-4.39815e-11
-2.32229e-12
-4.65387e-11
-2.58667e-12
-4.89535e-11
-2.85426e-12
-5.12258e-11
-3.12338e-12
-5.33556e-11
-3.39231e-12
-5.53428e-11
-3.65932e-12
-5.71877e-11
-3.92253e-12
-5.889e-11
-4.18002e-12
-6.045e-11
-4.42967e-12
-6.18675e-11
-4.66929e-12
-6.31428e-11
-4.8964e-12
-6.42758e-11
-5.10843e-12
-6.52666e-11
-5.3024e-12
-6.61154e-11
-5.47501e-12
-6.68223e-11
-5.6219e-12
-6.73871e-11
-5.73902e-12
-6.78096e-11
-5.82688e-12
-6.80899e-11
-2.35705e-11
-6.82333e-11
-3.57339e-11
-6.82737e-11
-3.57835e-11
-6.82827e-11
-3.61042e-11
-8.16543e-11
-3.63969e-11
-9.39523e-11
-3.65803e-11
-1.05182e-10
-3.6623e-11
-1.1538e-10
-3.65126e-11
-1.24596e-10
-3.62405e-11
-1.32893e-10
-3.57988e-11
-1.40336e-10
-3.51822e-11
-1.46991e-10
-3.43881e-11
-1.52924e-10
-3.3416e-11
-1.58197e-10
-3.22681e-11
-1.62873e-10
-3.09484e-11
-1.67009e-10
-2.94626e-11
-1.70659e-10
-2.78183e-11
-1.73876e-10
-2.60243e-11
-1.76706e-10
-2.40904e-11
-1.79194e-10
-1.8138e-10
-2.20276e-11
-7.10653e-15
-2.19598e-12
-2.47207e-14
-6.44751e-12
-5.16716e-14
-1.0558e-11
-8.79425e-14
-1.45271e-11
-1.33362e-13
-1.83548e-11
-1.87631e-13
-2.2041e-11
-2.50365e-13
-2.55857e-11
-3.21087e-13
-2.89888e-11
-3.99271e-13
-3.22503e-11
-4.84326e-13
-3.53702e-11
-5.75639e-13
-3.83484e-11
-6.72546e-13
-4.11849e-11
-7.74385e-13
-4.38797e-11
-8.80447e-13
-4.64327e-11
-9.90047e-13
-4.88439e-11
-1.10245e-12
-5.11134e-11
-1.21696e-12
-5.3241e-11
-1.33284e-12
-5.5227e-11
-1.4494e-12
-5.70711e-11
-1.56588e-12
-5.87735e-11
-1.68164e-12
-6.03342e-11
-1.7959e-12
-6.17533e-11
-1.90809e-12
-6.30306e-11
-2.01739e-12
-6.41665e-11
-2.12334e-12
-6.51607e-11
-2.22513e-12
-6.60136e-11
-2.32244e-12
-6.6725e-11
-2.41437e-12
-6.72952e-11
-2.50035e-12
-6.77236e-11
-2.5786e-12
-6.80116e-11
-2.78154e-11
-6.81643e-11
-3.5928e-11
-6.8194e-11
-3.59094e-11
-6.83012e-11
-3.56213e-11
-8.19424e-11
-3.51804e-11
-9.43931e-11
-3.45731e-11
-1.0579e-10
-3.37841e-11
-1.16169e-10
-3.27991e-11
-1.25581e-10
-3.16071e-11
-1.34085e-10
-3.02006e-11
-1.41742e-10
-2.85754e-11
-1.48616e-10
-2.67304e-11
-1.54769e-10
-2.46671e-11
-1.60261e-10
-2.2389e-11
-1.65151e-10
-1.99022e-11
-1.69496e-10
-1.72141e-11
-1.73347e-10
-1.4334e-11
-1.76756e-10
-1.12724e-11
-1.79768e-10
-8.04101e-12
-1.82426e-10
-1.84768e-10
-4.65243e-12
-9.52211e-15
-2.18646e-12
-3.71096e-14
-6.41992e-12
-8.14218e-14
-1.05137e-11
-1.41003e-13
-1.44675e-11
-2.14542e-13
-1.82812e-11
-3.00853e-13
-2.19547e-11
-3.98856e-13
-2.54877e-11
-5.0757e-13
-2.88801e-11
-6.26084e-13
-3.21318e-11
-7.53565e-13
-3.52428e-11
-8.89221e-13
-3.82128e-11
-1.03232e-12
-4.10418e-11
-1.18214e-12
-4.37299e-11
-1.338e-12
-4.62768e-11
-1.49923e-12
-4.86827e-11
-1.66516e-12
-5.09474e-11
-1.83511e-12
-5.30711e-11
-2.0084e-12
-5.50537e-11
-2.18431e-12
-5.68952e-11
-2.3621e-12
-5.85958e-11
-2.54097e-12
-6.01553e-11
-2.72012e-12
-6.15741e-11
-2.89859e-12
-6.28521e-11
-3.07549e-12
-6.39896e-11
-3.24969e-12
-6.49865e-11
-3.42017e-12
-6.58431e-11
-3.58568e-12
-6.65594e-11
-3.7448e-12
-6.71361e-11
-3.89499e-12
-6.75735e-11
-4.0706e-12
-6.78735e-11
-3.45045e-11
-6.80457e-11
-3.4636e-11
-6.80625e-11
-3.41018e-11
-6.88354e-11
-3.36411e-11
-8.24032e-11
-3.30009e-11
-9.50333e-11
-3.21669e-11
-1.06624e-10
-3.11348e-11
-1.17201e-10
-2.99026e-11
-1.26813e-10
-2.84686e-11
-1.35519e-10
-2.68322e-11
-1.43379e-10
-2.49941e-11
-1.50454e-10
-2.29569e-11
-1.56806e-10
-2.07247e-11
-1.62493e-10
-1.83039e-11
-1.67572e-10
-1.57023e-11
-1.72097e-10
-1.29298e-11
-1.7612e-10
-9.99766e-12
-1.79688e-10
-6.9189e-12
-1.82847e-10
-3.70773e-12
-1.85637e-10
-1.88096e-10
-3.79575e-13
1.2442e-15
-2.1877e-12
4.50653e-15
-6.42318e-12
9.26804e-15
-1.05184e-11
1.50066e-14
-1.44732e-11
2.12382e-14
-1.82875e-11
2.74999e-14
-2.19609e-11
3.33492e-14
-2.54935e-11
3.83546e-14
-2.88851e-11
4.20999e-14
-3.21356e-11
4.41725e-14
-3.52448e-11
4.41743e-14
-3.82128e-11
4.17057e-14
-4.10394e-11
3.63839e-14
-4.37245e-11
2.78197e-14
-4.62682e-11
1.56471e-14
-4.86705e-11
-5.13078e-16
-5.09313e-11
-2.10056e-14
-5.30506e-11
-4.61991e-14
-5.50285e-11
-7.64111e-14
-5.6865e-11
-1.12001e-13
-5.85602e-11
-1.5325e-13
-6.01141e-11
-2.00512e-13
-6.15269e-11
-2.54028e-13
-6.27986e-11
-3.1416e-13
-6.39295e-11
-3.81099e-13
-6.49196e-11
-4.55224e-13
-6.5769e-11
-5.36607e-13
-6.64781e-11
-6.25618e-13
-6.7047e-11
-7.22592e-13
-6.74765e-11
-8.67263e-13
-6.77666e-11
-2.9767e-11
-6.79338e-11
-2.98697e-11
-6.79598e-11
-2.67047e-11
-7.20004e-11
-2.37139e-11
-8.5394e-11
-2.09366e-11
-9.78105e-11
-1.82947e-11
-1.09266e-10
-1.57341e-11
-1.19762e-10
-1.32099e-11
-1.29337e-10
-1.06862e-11
-1.38043e-10
-8.13516e-12
-1.4593e-10
-5.53648e-12
-1.53053e-10
-2.87638e-12
-1.59466e-10
-1.46871e-13
-1.65222e-10
2.65475e-12
-1.70374e-10
5.52661e-12
-1.74969e-10
8.46281e-12
-1.79056e-10
1.1454e-11
-1.82679e-10
1.44879e-11
-1.85881e-10
1.75498e-11
-1.88699e-10
-1.9117e-10
2.06232e-11
9.88412e-15
-2.19759e-12
3.77051e-14
-6.451e-12
8.17768e-14
-1.05625e-11
1.40501e-13
-1.4532e-11
2.1228e-13
-1.83592e-11
2.95507e-13
-2.20442e-11
3.88574e-13
-2.55866e-11
4.89866e-13
-2.89864e-11
5.97768e-13
-3.22435e-11
7.1066e-13
-3.53577e-11
8.26923e-13
-3.8329e-11
9.44933e-13
-4.11574e-11
1.06307e-12
-4.38427e-11
1.1797e-12
-4.63849e-11
1.2932e-12
-4.8784e-11
1.40194e-12
-5.104e-11
1.5043e-12
-5.3153e-11
1.59865e-12
-5.51228e-11
1.68341e-12
-5.69497e-11
1.75697e-12
-5.86337e-11
1.81779e-12
-6.01749e-11
1.86435e-12
-6.15734e-11
1.89521e-12
-6.28295e-11
1.909e-12
-6.39432e-11
1.90447e-12
-6.4915e-11
1.88052e-12
-6.57451e-11
1.83623e-12
-6.64338e-11
1.77094e-12
-6.69817e-11
1.68444e-12
-6.739e-11
1.57677e-12
-6.76588e-11
-2.68475e-11
-6.78156e-11
-2.69628e-11
-6.78445e-11
-2.20801e-11
-7.68831e-11
-1.7828e-11
-8.96461e-11
-1.40806e-11
-1.01558e-10
-1.07589e-11
-1.12587e-10
-7.78323e-12
-1.22737e-10
-5.08828e-12
-1.32032e-10
-2.62347e-12
-1.40507e-10
-3.50287e-13
-1.48203e-10
1.75937e-12
-1.55163e-10
3.72425e-12
-1.61431e-10
5.55472e-12
-1.67053e-10
7.25386e-12
-1.72073e-10
8.81852e-12
-1.76534e-10
1.02404e-11
-1.80478e-10
1.15068e-11
-1.83946e-10
1.26019e-11
-1.86976e-10
1.35073e-11
-1.89604e-10
-1.91866e-10
1.42032e-11
2.29258e-14
-2.22051e-12
8.87452e-14
-6.51682e-12
1.93663e-13
-1.06674e-11
3.33657e-13
-1.4672e-11
5.04939e-13
-1.85305e-11
7.03901e-13
-2.22431e-11
9.2707e-13
-2.58098e-11
1.17109e-12
-2.92304e-11
1.43269e-12
-3.25051e-11
1.70865e-12
-3.56337e-11
1.99577e-12
-3.86162e-11
2.29086e-12
-4.14525e-11
2.5907e-12
-4.41425e-11
2.89202e-12
-4.66862e-11
3.19143e-12
-4.90834e-11
3.48549e-12
-5.13341e-11
3.77051e-12
-5.3438e-11
4.04272e-12
-5.5395e-11
4.29797e-12
-5.7205e-11
4.532e-12
-5.88677e-11
4.74e-12
-6.03829e-11
4.91703e-12
-6.17505e-11
5.05739e-12
-6.29698e-11
5.15519e-12
-6.40411e-11
5.20347e-12
-6.49633e-11
5.19482e-12
-6.57364e-11
5.11997e-12
-6.63589e-11
4.97075e-12
-6.68325e-11
4.74355e-12
-6.71628e-11
4.44837e-12
-6.73637e-11
-2.34762e-11
-6.74388e-11
-2.39078e-11
-6.74129e-11
-2.11684e-11
-7.96225e-11
-1.87941e-11
-9.20203e-11
-1.68067e-11
-1.03545e-10
-1.51857e-11
-1.14208e-10
-1.39113e-11
-1.24012e-10
-1.29693e-11
-1.32974e-10
-1.23538e-11
-1.41123e-10
-1.20654e-11
-1.48491e-10
-1.211e-11
-1.55118e-10
-1.24972e-11
-1.61044e-10
-1.32398e-11
-1.6631e-10
-1.4353e-11
-1.7096e-10
-1.58539e-11
-1.75033e-10
-1.77613e-11
-1.78571e-10
-2.00953e-11
-1.81612e-10
-2.28774e-11
-1.84194e-10
-2.613e-11
-1.86351e-10
-1.8812e-10
-2.98755e-11
3.42643e-14
-2.25478e-12
1.27377e-13
-6.60994e-12
2.72547e-13
-1.08126e-11
4.64613e-13
-1.4864e-11
6.98767e-13
-1.87647e-11
9.70461e-13
-2.25148e-11
1.27537e-12
-2.61147e-11
1.60935e-12
-2.95644e-11
1.96843e-12
-3.28641e-11
2.34873e-12
-3.6014e-11
2.7465e-12
-3.90139e-11
3.15806e-12
-4.1864e-11
3.57977e-12
-4.45642e-11
4.00804e-12
-4.71145e-11
4.43927e-12
-4.95146e-11
4.86985e-12
-5.17647e-11
5.29614e-12
-5.38643e-11
5.71443e-12
-5.58133e-11
6.12088e-12
-5.76114e-11
6.51157e-12
-5.92584e-11
6.88237e-12
-6.07537e-11
7.22894e-12
-6.2097e-11
7.54663e-12
-6.32875e-11
7.83051e-12
-6.43249e-11
8.07549e-12
-6.52083e-11
8.27684e-12
-6.59378e-11
8.4288e-12
-6.65109e-11
8.51712e-12
-6.69208e-11
8.50692e-12
-6.71526e-11
8.35526e-12
-6.72123e-11
-1.57672e-11
-6.73093e-11
-1.59227e-11
-6.72574e-11
-1.64848e-11
-7.90603e-11
-1.79816e-11
-9.05235e-11
-2.03515e-11
-1.01176e-10
-2.35258e-11
-1.11034e-10
-2.74725e-11
-1.20065e-10
-3.21761e-11
-1.28271e-10
-3.7627e-11
-1.35672e-10
-4.38171e-11
-1.42301e-10
-5.07379e-11
-1.48197e-10
-5.83789e-11
-1.53403e-10
-6.67271e-11
-1.57962e-10
-7.57668e-11
-1.6192e-10
-8.548e-11
-1.6532e-10
-9.58465e-11
-1.68204e-10
-1.06846e-10
-1.70613e-10
-1.18457e-10
-1.72582e-10
-1.30662e-10
-1.74147e-10
-1.75339e-10
-1.43443e-10
8.77603e-15
-2.26355e-12
3.728e-14
-6.63844e-12
8.60334e-14
-1.08613e-11
1.54625e-13
-1.49326e-11
2.42261e-13
-1.88523e-11
3.47724e-13
-2.26203e-11
4.69505e-13
-2.62365e-11
6.05792e-13
-2.97007e-11
7.54627e-13
-3.3013e-11
9.13859e-13
-3.61732e-11
1.08134e-12
-3.91814e-11
1.25483e-12
-4.20375e-11
1.43225e-12
-4.47416e-11
1.6115e-12
-4.72937e-11
1.79084e-12
-4.9694e-11
1.96858e-12
-5.19424e-11
2.14363e-12
-5.40393e-11
2.315e-12
-5.59847e-11
2.48263e-12
-5.77791e-11
2.64659e-12
-5.94224e-11
2.8083e-12
-6.09154e-11
2.96939e-12
-6.22581e-11
3.13339e-12
-6.34515e-11
3.30406e-12
-6.44956e-11
3.48732e-12
-6.53916e-11
3.68832e-12
-6.61388e-11
3.91706e-12
-6.67396e-11
4.19514e-12
-6.71989e-11
4.57524e-12
-6.75327e-11
-4.11752e-11
-6.77724e-11
-4.64467e-11
-6.77397e-11
-4.52902e-11
-6.84139e-11
-4.62416e-11
-7.81089e-11
-4.93527e-11
-8.74124e-11
-5.45315e-11
-9.59967e-11
-6.1679e-11
-1.03886e-10
-7.06764e-11
-1.11068e-10
-8.13934e-11
-1.17554e-10
-9.36986e-11
-1.23367e-10
-1.0746e-10
-1.2854e-10
-1.22545e-10
-1.33112e-10
-1.38819e-10
-1.37129e-10
-1.56143e-10
-1.40638e-10
-1.74373e-10
-1.4369e-10
-1.93358e-10
-1.46335e-10
-2.1294e-10
-1.48622e-10
-2.32952e-10
-1.50601e-10
-2.53218e-10
-1.52316e-10
-2.73555e-10
-1.5381e-10
-1.55118e-10
-2.93777e-10
1.99206e-14
-2.28348e-12
8.35812e-14
-6.7021e-12
1.89723e-13
-1.09675e-11
3.34809e-13
-1.50777e-11
5.15351e-13
-1.90328e-11
7.27754e-13
-2.28327e-11
9.68331e-13
-2.6477e-11
1.2333e-12
-2.99657e-11
1.51882e-12
-3.32985e-11
1.82096e-12
-3.64754e-11
2.13577e-12
-3.94962e-11
2.45926e-12
-4.2361e-11
2.78742e-12
-4.50698e-11
3.11627e-12
-4.76226e-11
3.44179e-12
-5.00195e-11
3.76008e-12
-5.22607e-11
4.06723e-12
-5.43465e-11
4.35946e-12
-5.62769e-11
4.63303e-12
-5.80526e-11
4.88443e-12
-5.96738e-11
5.1102e-12
-6.11412e-11
5.30725e-12
-6.24552e-11
5.47248e-12
-6.36168e-11
5.60335e-12
-6.46265e-11
5.69746e-12
-6.54857e-11
5.75371e-12
-6.6195e-11
5.77173e-12
-6.67577e-11
5.74983e-12
-6.7177e-11
5.66301e-12
-6.74551e-11
-2.36848e-11
-6.76424e-11
-2.37616e-11
-6.76629e-11
-2.23483e-11
-6.98272e-11
-2.42204e-11
-7.62368e-11
-2.92808e-11
-8.2352e-11
-3.72353e-11
-8.80422e-11
-4.78397e-11
-9.3282e-11
-6.08297e-11
-9.80778e-11
-7.59378e-11
-1.02446e-10
-9.28958e-11
-1.06409e-10
-1.11439e-10
-1.09996e-10
-1.31307e-10
-1.13244e-10
-1.52244e-10
-1.16192e-10
-1.73992e-10
-1.1889e-10
-1.96294e-10
-1.21388e-10
-2.18883e-10
-1.23746e-10
-2.41483e-10
-1.26022e-10
-2.63808e-10
-1.28276e-10
-2.85556e-10
-1.30568e-10
-3.06406e-10
-1.32959e-10
-1.35514e-10
-3.26011e-10
6.44936e-14
-2.34797e-12
2.33528e-13
-6.87114e-12
4.92316e-13
-1.12263e-11
8.31626e-13
-1.5417e-11
1.2432e-12
-1.94444e-11
1.71951e-12
-2.3309e-11
2.25348e-12
-2.7011e-11
2.83859e-12
-3.05508e-11
3.46848e-12
-3.39284e-11
4.13717e-12
-3.7144e-11
4.83865e-12
-4.01977e-11
5.56718e-12
-4.30895e-11
6.31669e-12
-4.58193e-11
7.08131e-12
-4.83872e-11
7.85458e-12
-5.07928e-11
8.6301e-12
-5.30362e-11
9.40055e-12
-5.51169e-11
1.01586e-11
-5.7035e-11
1.08955e-11
-5.87896e-11
1.16026e-11
-6.03808e-11
1.2269e-11
-6.18076e-11
1.28838e-11
-6.307e-11
1.34335e-11
-6.41664e-11
1.39039e-11
-6.50969e-11
1.42787e-11
-6.58604e-11
1.45434e-11
-6.64598e-11
1.46845e-11
-6.68987e-11
1.46829e-11
-6.71754e-11
8.46907e-12
-6.73466e-11
-1.14648e-11
-6.74076e-11
-1.17566e-11
-6.73711e-11
-9.76693e-12
-7.18169e-11
-8.82385e-12
-7.71799e-11
-9.16934e-12
-8.20065e-11
-1.0774e-11
-8.64376e-11
-1.35678e-11
-9.04882e-11
-1.74514e-11
-9.41941e-11
-2.23023e-11
-9.75947e-11
-2.79783e-11
-1.00733e-10
-3.43219e-11
-1.03653e-10
-4.11651e-11
-1.06401e-10
-4.83301e-11
-1.09027e-10
-5.56321e-11
-1.11588e-10
-6.28989e-11
-1.14121e-10
-6.99629e-11
-1.16682e-10
-7.6664e-11
-1.1932e-10
-8.28456e-11
-1.22094e-10
-8.83539e-11
-1.2506e-10
-9.29973e-11
-1.28315e-10
-1.31975e-10
-9.65362e-11
2.81065e-14
-2.37608e-12
1.1802e-13
-6.96105e-12
2.6745e-13
-1.13757e-11
4.70891e-13
-1.56204e-11
7.23871e-13
-1.96974e-11
1.02224e-12
-2.36074e-11
1.36236e-12
-2.73511e-11
1.74057e-12
-3.0929e-11
2.15362e-12
-3.43414e-11
2.59795e-12
-3.75884e-11
3.07041e-12
-4.06702e-11
3.5672e-12
-4.35863e-11
4.08494e-12
-4.6337e-11
4.61916e-12
-4.89214e-11
5.16582e-12
-5.13394e-11
5.71915e-12
-5.35896e-11
6.2738e-12
-5.56716e-11
6.82178e-12
-5.7583e-11
7.35538e-12
-5.93232e-11
7.86304e-12
-6.08885e-11
8.33304e-12
-6.22776e-11
8.74794e-12
-6.34849e-11
9.08963e-12
-6.45081e-11
9.33318e-12
-6.53405e-11
9.45673e-12
-6.5984e-11
9.42832e-12
-6.64314e-11
9.21524e-12
-6.66857e-11
3.42094e-12
-6.68864e-11
-1.97643e-11
-6.70782e-11
-2.01993e-11
-6.69727e-11
-1.9209e-11
-6.83614e-11
-1.47648e-11
-7.62611e-11
-8.2602e-12
-8.36844e-11
-2.9292e-13
-8.99738e-11
8.70164e-12
-9.54321e-11
1.84044e-11
-1.00191e-10
2.85681e-11
-1.04358e-10
3.90074e-11
-1.08034e-10
4.959e-11
-1.11315e-10
6.02316e-11
-1.14294e-10
7.0992e-11
-1.17161e-10
8.19318e-11
-1.19967e-10
9.31454e-11
-1.22801e-10
1.04719e-10
-1.25695e-10
1.16576e-10
-1.28539e-10
1.28641e-10
-1.31385e-10
1.40905e-10
-1.34358e-10
1.53323e-10
-1.37478e-10
1.66091e-10
-1.41083e-10
-1.45305e-10
1.79421e-10
-3.19168e-14
-2.34416e-12
-1.37887e-13
-6.85508e-12
-3.07508e-13
-1.12061e-11
-5.22467e-13
-1.54055e-11
-7.67652e-13
-1.94522e-11
-1.02944e-12
-2.33456e-11
-1.29609e-12
-2.70845e-11
-1.55602e-12
-3.06691e-11
-1.79889e-12
-3.40986e-11
-2.01316e-12
-3.73741e-11
-2.18809e-12
-4.04952e-11
-2.31015e-12
-4.34643e-11
-2.36642e-12
-4.62808e-11
-2.33913e-12
-4.89487e-11
-2.21131e-12
-5.14673e-11
-1.95833e-12
-5.38425e-11
-1.55712e-12
-5.60728e-11
-9.73017e-13
-5.81671e-11
-1.74689e-13
-6.01215e-11
8.86279e-13
-6.19495e-11
2.25177e-12
-6.36431e-11
3.99072e-12
-6.52238e-11
6.16372e-12
-6.66811e-11
8.87155e-12
-6.80483e-11
1.15974e-11
-6.87098e-11
1.4439e-11
-6.92729e-11
-6.62165e-13
-6.93634e-11
-1.64454e-11
-6.93854e-11
-1.43421e-11
-6.91816e-11
-1.22644e-11
-6.90503e-11
-7.01708e-12
-7.36087e-11
-1.58018e-12
-8.1698e-11
3.54115e-12
-8.88058e-11
8.20543e-12
-9.46381e-11
1.25863e-11
-9.9813e-11
1.675e-11
-1.04355e-10
2.07275e-11
-1.08335e-10
2.45073e-11
-1.11814e-10
2.79984e-11
-1.14806e-10
3.16121e-11
-1.17908e-10
3.51898e-11
-1.20739e-10
3.97985e-11
-1.24576e-10
4.56766e-11
-1.28679e-10
5.26751e-11
-1.32694e-10
6.0625e-11
-1.36489e-10
6.94023e-11
-1.40163e-10
7.84447e-11
-1.43401e-10
8.78733e-11
-1.46907e-10
9.71977e-11
-1.50407e-10
-1.56783e-10
1.08676e-10
-9.39667e-14
-2.25019e-12
-2.7887e-13
-6.67018e-12
-5.09698e-13
-1.09753e-11
-7.6958e-13
-1.51456e-11
-1.04624e-12
-1.91756e-11
-1.32866e-12
-2.30631e-11
-1.60849e-12
-2.68047e-11
-1.87656e-12
-3.0401e-11
-2.12592e-12
-3.38492e-11
-2.34668e-12
-3.71534e-11
-2.53125e-12
-4.03107e-11
-2.6662e-12
-4.33293e-11
-2.74111e-12
-4.62059e-11
-2.73544e-12
-4.89544e-11
-2.6332e-12
-5.15695e-11
-2.40191e-12
-5.40738e-11
-2.01655e-12
-5.64581e-11
-1.42604e-12
-5.87576e-11
-5.91862e-13
-6.09557e-11
5.66589e-13
-6.31079e-11
2.11161e-12
-6.51881e-11
4.17518e-12
-6.72874e-11
6.65493e-12
-6.91609e-11
9.70189e-12
-7.10953e-11
1.2094e-11
-7.45143e-11
-2.26615e-11
-7.30157e-11
-2.01432e-11
-7.2285e-11
-1.85345e-11
-7.09941e-11
-2.05721e-11
-6.7144e-11
-1.98186e-11
-6.98038e-11
-1.89928e-11
-7.44346e-11
-2.08947e-11
-7.97961e-11
-2.48027e-11
-8.48977e-11
-2.98222e-11
-8.96186e-11
-3.54941e-11
-9.41411e-11
-4.13832e-11
-9.84656e-11
-4.70912e-11
-1.02627e-10
-5.19326e-11
-1.06973e-10
-5.59195e-11
-1.10819e-10
-6.09649e-11
-1.12863e-10
-6.35492e-11
-1.18154e-10
-6.37615e-11
-1.24364e-10
-6.2392e-11
-1.30049e-10
-5.92125e-11
-1.35873e-10
-5.34998e-11
-1.42201e-10
-4.51732e-11
-1.48489e-10
-3.37156e-11
-1.54858e-10
-2.05174e-11
-1.60105e-10
-5.10124e-12
-1.65824e-10
-1.75044e-10
1.31595e-11
1.54748e-13
-2.40494e-12
5.17751e-13
-7.03318e-12
1.03327e-12
-1.14908e-11
1.67004e-12
-1.57824e-11
2.39914e-12
-1.99047e-11
3.19521e-12
-2.38592e-11
4.03268e-12
-2.76421e-11
4.88823e-12
-3.12566e-11
5.73518e-12
-3.46961e-11
6.54833e-12
-3.79665e-11
7.29533e-12
-4.10577e-11
7.94539e-12
-4.39794e-11
8.45592e-12
-4.67164e-11
8.78704e-12
-4.92855e-11
8.88093e-12
-5.16634e-11
8.68518e-12
-5.38781e-11
8.12084e-12
-5.58938e-11
7.1207e-12
-5.77574e-11
5.58313e-12
-5.94181e-11
3.44034e-12
-6.09651e-11
5.33496e-13
-6.22813e-11
-3.2994e-12
-6.34545e-11
-7.89666e-12
-6.49422e-11
-3.96422e-11
-6.53713e-11
-6.70912e-11
-6.47865e-11
-8.30644e-11
-5.71663e-11
-1.80271e-10
2.49211e-11
-2.31992e-10
-1.92726e-11
-2.74254e-10
-2.48824e-11
-3.11248e-10
-3.28099e-11
-3.42494e-10
-4.3188e-11
-3.69275e-10
-5.30158e-11
-3.92033e-10
-6.2139e-11
-4.11058e-10
-7.05944e-11
-4.26668e-10
-7.85307e-11
-4.39127e-10
-8.60065e-11
-4.48985e-10
-9.27695e-11
-4.57848e-10
-9.81098e-11
-4.6211e-10
-1.06557e-10
-4.5902e-10
-1.15953e-10
-4.55263e-10
-1.21912e-10
-4.50009e-10
-1.29618e-10
-4.41726e-10
-1.38332e-10
-4.3026e-10
-1.47339e-10
-4.14793e-10
-1.57668e-10
-3.94676e-10
-1.68606e-10
-3.70361e-10
-1.79174e-10
-3.42394e-10
-1.88071e-10
-3.10796e-10
-1.97422e-10
-2.08287e-10
-2.77552e-10
1.20516e-13
-2.52545e-12
4.4838e-13
-7.36104e-12
9.44862e-13
-1.19873e-11
1.57558e-12
-1.64131e-11
2.30951e-12
-2.06386e-11
3.12336e-12
-2.46731e-11
3.99034e-12
-2.85091e-11
4.89026e-12
-3.21565e-11
5.79273e-12
-3.55986e-11
6.67415e-12
-3.88479e-11
7.49295e-12
-4.18765e-11
8.21597e-12
-4.47024e-11
8.78229e-12
-4.72827e-11
9.14272e-12
-4.96459e-11
9.20706e-12
-5.17277e-11
8.90467e-12
-5.35757e-11
8.11453e-12
-5.51037e-11
6.76316e-12
-5.64061e-11
4.66436e-12
-5.73193e-11
1.10644e-12
-5.74072e-11
-4.03155e-12
-5.72033e-11
-2.43224e-11
-5.68646e-11
-6.61113e-11
-5.3837e-11
-1.23399e-10
-8.39819e-12
-1.26028e-10
-6.21571e-11
-1.34006e-10
-4.91887e-11
-1.17731e-10
8.64646e-12
-1.67124e-10
3.012e-11
-2.10227e-10
1.82207e-11
-2.52067e-10
9.02989e-12
-2.94219e-10
-1.03562e-12
-3.33574e-10
-1.36613e-11
-3.6966e-10
-2.60525e-11
-4.01639e-10
-3.86151e-11
-4.28919e-10
-5.12515e-11
-4.51228e-10
-6.36968e-11
-4.69039e-10
-7.4959e-11
-4.82461e-10
-8.46881e-11
-4.96863e-10
-9.21542e-11
-5.09569e-10
-1.03247e-10
-5.15323e-10
-1.16158e-10
-5.15599e-10
-1.29342e-10
-5.11511e-10
-1.42419e-10
-5.01191e-10
-1.5766e-10
-4.85095e-10
-1.73763e-10
-4.63408e-10
-1.90293e-10
-4.3619e-10
-2.06392e-10
-4.0164e-10
-2.22621e-10
-3.6484e-10
-2.34222e-10
-2.48468e-10
-3.2466e-10
-1.14021e-13
-2.41143e-12
-4.43307e-13
-7.03176e-12
-9.37351e-13
-1.14932e-11
-1.5328e-12
-1.58177e-11
-2.17542e-12
-1.9996e-11
-2.81605e-12
-2.40324e-11
-3.41214e-12
-2.7913e-11
-3.92248e-12
-3.16461e-11
-4.31123e-12
-3.52099e-11
-4.54011e-12
-3.8619e-11
-4.57614e-12
-4.18404e-11
-4.3794e-12
-4.48991e-11
-3.91684e-12
-4.77453e-11
-3.13927e-12
-5.04235e-11
-1.99949e-12
-5.28675e-11
-4.09405e-13
-5.51658e-11
1.50148e-12
-5.70145e-11
3.06503e-12
-5.79696e-11
4.26243e-12
-5.86832e-11
-1.02376e-11
-6.09546e-11
-5.10932e-11
-5.45494e-11
-1.3894e-10
3.05322e-11
-1.44694e-10
-4.80825e-11
-1.68585e-10
1.54927e-11
-3.70081e-10
1.39339e-10
-5.09536e-10
9.02665e-11
-5.92304e-10
9.14144e-11
-6.49469e-10
8.72846e-11
-7.07889e-10
7.66414e-11
-7.62576e-10
6.37169e-11
-8.12699e-10
4.9087e-11
-8.59304e-10
3.29436e-11
-9.00559e-10
1.52024e-11
-9.35003e-10
-4.17081e-12
-9.63088e-10
-2.31664e-11
-9.83347e-10
-4.3438e-11
-9.94358e-10
-6.39481e-11
-9.95242e-10
-8.38036e-11
-9.85645e-10
-1.01752e-10
-9.67757e-10
-1.21135e-10
-9.43593e-10
-1.40322e-10
-9.13227e-10
-1.59708e-10
-8.75827e-10
-1.79819e-10
-8.32167e-10
-2.01319e-10
-7.83997e-10
-2.21934e-10
-7.32445e-10
-2.41845e-10
-6.77858e-10
-2.60979e-10
-6.22453e-10
-2.78026e-10
-5.62186e-10
-2.94488e-10
-3.10896e-10
-4.99758e-10
-6.10778e-13
-1.80065e-12
-2.12902e-12
-5.51351e-12
-4.34475e-12
-9.27748e-12
-7.11043e-12
-1.3052e-11
-1.02957e-11
-1.68107e-11
-1.37828e-11
-2.05453e-11
-1.7464e-11
-2.42319e-11
-2.12372e-11
-2.78729e-11
-2.50052e-11
-3.14419e-11
-2.867e-11
-3.49542e-11
-3.2133e-11
-3.83774e-11
-3.52859e-11
-4.17462e-11
-3.80083e-11
-4.5023e-11
-4.01568e-11
-4.82749e-11
-4.19862e-11
-5.10382e-11
-4.36722e-11
-5.34797e-11
-4.54149e-11
-5.62514e-11
-7.55407e-11
-6.07722e-11
-1.16705e-10
-5.16205e-11
-1.96859e-10
1.8757e-11
-2.29628e-10
-2.17804e-11
-6.56683e-10
4.57588e-10
-9.23066e-10
2.183e-10
-1.05158e-09
1.44009e-10
-1.08841e-09
1.76171e-10
-1.16468e-09
1.6653e-10
-1.20773e-09
1.34468e-10
-1.22847e-09
1.08018e-10
-1.2357e-09
8.38709e-11
-1.23155e-09
5.95687e-11
-1.21848e-09
3.6017e-11
-1.19833e-09
1.27987e-11
-1.17287e-09
-1.02591e-11
-1.14334e-09
-3.37048e-11
-1.10744e-09
-5.90605e-11
-1.06627e-09
-8.46089e-11
-1.01976e-09
-1.10463e-10
-9.67204e-10
-1.36356e-10
-9.07173e-10
-1.61783e-10
-8.41603e-10
-1.86705e-10
-7.7026e-10
-2.11665e-10
-6.9642e-10
-2.33548e-10
-6.22793e-10
-2.53447e-10
-5.50839e-10
-2.73273e-10
-4.80041e-10
-2.92732e-10
-4.10825e-10
-3.1106e-10
-3.43384e-10
-3.28421e-10
-2.7772e-10
-3.4369e-10
-2.13846e-10
-3.58363e-10
-3.71426e-10
-1.53315e-10
-4.77782e-13
-1.32286e-12
-1.88176e-12
-4.10953e-12
-4.15684e-12
-7.00241e-12
-7.22681e-12
-9.982e-12
-1.10253e-11
-1.30121e-11
-1.5481e-11
-1.60897e-11
-2.05401e-11
-1.91728e-11
-2.61377e-11
-2.22752e-11
-3.22315e-11
-2.53481e-11
-3.87596e-11
-2.84261e-11
-4.56859e-11
-3.14511e-11
-5.29521e-11
-3.448e-11
-6.05502e-11
-3.74249e-11
-6.85595e-11
-4.02656e-11
-7.67286e-11
-4.41598e-11
-1.2112e-10
-4.62317e-11
-1.67661e-10
-3.83237e-11
-2.15607e-10
-1.31715e-11
-2.51701e-10
-1.55265e-11
-5.23693e-10
2.90749e-10
-7.48718e-10
2.03244e-10
-6.10871e-10
3.19741e-10
-7.1039e-10
3.17819e-10
-7.65706e-10
1.99325e-10
-7.23467e-10
1.33932e-10
-6.48686e-10
9.17494e-11
-5.73858e-10
5.96406e-11
-4.99143e-10
3.33029e-11
-4.25731e-10
1.04591e-11
-3.54543e-10
-1.1619e-11
-2.84664e-10
-3.38621e-11
-2.16869e-10
-5.49965e-11
-1.52508e-10
-7.46203e-11
-9.04064e-11
-9.58061e-11
-3.07869e-11
-1.1868e-10
2.66166e-11
-1.42012e-10
8.18202e-11
-1.65667e-10
1.34052e-10
-1.88588e-10
1.84726e-10
-2.12457e-10
2.31959e-10
-2.33938e-10
2.74639e-10
-2.54345e-10
3.14677e-10
-2.73585e-10
3.52333e-10
-2.91103e-10
3.86885e-10
-3.07824e-10
4.17925e-10
-3.23772e-10
4.44955e-10
-3.3809e-10
4.68126e-10
-3.51592e-10
4.88938e-10
-3.64502e-10
5.07827e-10
-3.77252e-10
-3.89071e-10
5.25471e-10
1.07677e-13
3.1978e-13
5.11783e-13
5.61426e-13
3.63591e-13
-1.89825e-13
-1.19717e-12
-2.76863e-12
-5.00589e-12
-8.03496e-12
-1.19758e-11
-1.69763e-11
-2.31093e-11
-5.63118e-11
-1.05263e-10
-1.19738e-10
-1.24045e-10
-1.25872e-10
-1.12582e-10
1.14926e-10
1.91402e-10
4.17755e-10
6.88579e-10
8.77886e-10
1.02682e-09
1.15033e-09
1.25461e-09
1.34288e-09
1.41763e-09
1.47801e-09
1.52607e-09
1.5637e-09
1.59478e-09
1.61557e-09
1.6271e-09
1.6298e-09
1.62423e-09
1.61013e-09
1.58719e-09
1.55928e-09
1.52632e-09
1.48865e-09
1.44715e-09
1.40184e-09
1.35235e-09
1.30153e-09
1.24954e-09
1.19705e-09
1.14452e-09
1.09374e-09
-1.97525e-11
-1.81119e-10
-1.82421e-11
-1.82699e-10
-1.66815e-11
-1.84089e-10
-1.50755e-11
-1.85313e-10
-1.34289e-11
-1.86396e-10
-1.17464e-11
-1.87358e-10
-1.00326e-11
-1.88217e-10
-8.2922e-12
-1.88988e-10
-6.52936e-12
-1.89685e-10
-4.74821e-12
-1.9032e-10
-2.95257e-12
-1.90901e-10
-1.14596e-12
-1.91437e-10
6.68425e-13
-1.91935e-10
2.48771e-12
-1.92401e-10
4.30944e-12
-1.92838e-10
6.1316e-12
-1.93251e-10
7.95267e-12
-1.93642e-10
9.77156e-12
-1.94014e-10
1.15876e-11
-1.94366e-10
1.34004e-11
-1.94701e-10
1.52101e-11
-1.95017e-10
1.70168e-11
-1.95314e-10
1.88206e-11
-1.95591e-10
2.06214e-11
-1.95845e-10
2.24193e-11
-1.96076e-10
2.42144e-11
-1.96281e-10
2.60065e-11
-1.96457e-10
2.77954e-11
-1.96602e-10
2.95807e-11
-1.96713e-10
3.13621e-11
-1.96786e-10
3.31398e-11
-1.96819e-10
3.49138e-11
-1.96809e-10
3.66842e-11
-1.9675e-10
3.84511e-11
-1.96638e-10
4.02147e-11
-1.96469e-10
4.1975e-11
-1.96237e-10
4.37319e-11
-1.95936e-10
4.54852e-11
-1.95561e-10
4.72348e-11
-1.95104e-10
4.89807e-11
-1.94561e-10
5.07229e-11
-1.93922e-10
5.24612e-11
-1.93181e-10
5.4196e-11
-1.9233e-10
5.59279e-11
-1.91362e-10
5.76577e-11
-1.90268e-10
5.93864e-11
-1.89039e-10
6.11148e-11
-1.87667e-10
6.28443e-11
-1.86144e-10
6.45808e-11
-1.84468e-10
-1.82553e-10
6.61761e-11
-1.98472e-11
-1.83299e-10
-1.75613e-11
-1.84985e-10
-1.5182e-11
-1.86468e-10
-1.27216e-11
-1.87773e-10
-1.01924e-11
-1.88925e-10
-7.60633e-12
-1.89944e-10
-4.97531e-12
-1.90848e-10
-2.31083e-12
-1.91653e-10
3.76155e-13
-1.92372e-10
3.07524e-12
-1.93019e-10
5.77652e-12
-1.93602e-10
8.4706e-12
-1.94131e-10
1.11487e-11
-1.94614e-10
1.38029e-11
-1.95055e-10
1.64258e-11
-1.95461e-10
1.90108e-11
-1.95836e-10
2.15522e-11
-1.96184e-10
2.40451e-11
-1.96507e-10
2.64851e-11
-1.96806e-10
2.88688e-11
-1.97084e-10
3.11939e-11
-1.97342e-10
3.34583e-11
-1.97578e-10
3.56606e-11
-1.97793e-10
3.77992e-11
-1.97984e-10
3.98731e-11
-1.9815e-10
4.18822e-11
-1.9829e-10
4.38252e-11
-1.984e-10
4.57e-11
-1.98477e-10
4.75038e-11
-1.98516e-10
4.92347e-11
-1.98517e-10
5.08913e-11
-1.98476e-10
5.24724e-11
-1.9839e-10
5.39776e-11
-1.98255e-10
5.54062e-11
-1.98067e-10
5.67578e-11
-1.9782e-10
5.80313e-11
-1.9751e-10
5.92255e-11
-1.9713e-10
6.03386e-11
-1.96674e-10
6.13693e-11
-1.96135e-10
6.23157e-11
-1.95507e-10
6.31753e-11
-1.94782e-10
6.39454e-11
-1.93951e-10
6.46243e-11
-1.93009e-10
6.52137e-11
-1.91951e-10
6.57154e-11
-1.90769e-10
6.61281e-11
-1.89452e-10
6.64471e-11
-1.87986e-10
6.66665e-11
-1.86364e-10
6.67834e-11
-1.84584e-10
-1.82714e-10
6.69442e-11
-1.1199e-12
-1.86831e-10
2.54284e-12
-1.88648e-10
6.32186e-12
-1.90247e-10
1.02032e-11
-1.91655e-10
1.41732e-11
-1.92895e-10
1.82184e-11
-1.93989e-10
2.23256e-11
-1.94955e-10
2.64817e-11
-1.95809e-10
3.06747e-11
-1.96565e-10
3.48935e-11
-1.97238e-10
3.91273e-11
-1.97836e-10
4.33663e-11
-1.9837e-10
4.76016e-11
-1.98849e-10
5.18249e-11
-1.99278e-10
5.60293e-11
-1.99666e-10
6.02087e-11
-2.00016e-10
6.43583e-11
-2.00333e-10
6.84744e-11
-2.00623e-10
7.25541e-11
-2.00886e-10
7.65954e-11
-2.01126e-10
8.05979e-11
-2.01344e-10
8.45624e-11
-2.01543e-10
8.84905e-11
-2.01721e-10
9.23846e-11
-2.01878e-10
9.62506e-11
-2.02016e-10
1.00099e-10
-2.02138e-10
1.03938e-10
-2.02239e-10
1.07769e-10
-2.02308e-10
1.11594e-10
-2.02341e-10
1.15417e-10
-2.02341e-10
1.19249e-10
-2.02307e-10
1.23096e-10
-2.02237e-10
1.26968e-10
-2.02127e-10
1.30875e-10
-2.01974e-10
1.34827e-10
-2.01773e-10
1.38834e-10
-2.01517e-10
1.42903e-10
-2.01199e-10
1.47041e-10
-2.00812e-10
1.51258e-10
-2.00352e-10
1.55562e-10
-1.99811e-10
1.59957e-10
-1.99177e-10
1.64442e-10
-1.98437e-10
1.69023e-10
-1.9759e-10
1.73727e-10
-1.96655e-10
1.78586e-10
-1.95629e-10
1.83625e-10
-1.9449e-10
1.88823e-10
-1.93184e-10
1.94162e-10
-1.91702e-10
1.99635e-10
-1.90058e-10
-1.88213e-10
2.05134e-10
3.04934e-12
-1.9026e-10
6.56224e-12
-1.92161e-10
1.01419e-11
-1.93827e-10
1.3771e-11
-1.95284e-10
1.74327e-11
-1.96557e-10
2.11119e-11
-1.97669e-10
2.47925e-11
-1.98636e-10
2.84564e-11
-1.99473e-10
3.20876e-11
-2.00197e-10
3.56727e-11
-2.00823e-10
3.91982e-11
-2.01362e-10
4.26526e-11
-2.01825e-10
4.60263e-11
-2.02223e-10
4.93105e-11
-2.02563e-10
5.24985e-11
-2.02854e-10
5.5585e-11
-2.03102e-10
5.85672e-11
-2.03316e-10
6.14442e-11
-2.035e-10
6.4215e-11
-2.03657e-10
6.68798e-11
-2.03791e-10
6.94425e-11
-2.03907e-10
7.19088e-11
-2.04009e-10
7.42871e-11
-2.04099e-10
7.65892e-11
-2.0418e-10
7.88403e-11
-2.04267e-10
8.10736e-11
-2.04372e-10
8.33194e-11
-2.04484e-10
8.55752e-11