/*--------------------------------*- C++ -*----------------------------------*\
| =========                 |                                                 |
| \\      /  F ield         | OpenFOAM: The Open Source CFD Toolbox           |
|  \\    /   O peration     | Version:  2.4.0                                 |
|   \\  /    A nd           | Web:      www.OpenFOAM.org                      |
|    \\/     M anipulation  |                                                 |
\*---------------------------------------------------------------------------*/
FoamFile
{
    version     2.0;
    format      ascii;
    class       volVectorField;
    location    "3.1";
    object      U;
}
// * * * * * * * * * * * * * * * * * * * * * * * * * * * * * * * * * * * * * //

dimensions      [0 1 -1 0 0 0 0];

internalField   nonuniform List<vector> 
8000
(
(-9.38071e-08 -0.000224542 0)
(-5.70754e-07 -0.000658465 0)
(-1.39559e-06 -0.00107733 0)
(-2.50612e-06 -0.00148124 0)
(-3.85305e-06 -0.00187025 0)
(-5.40331e-06 -0.00224444 0)
(-7.12889e-06 -0.00260385 0)
(-9.0078e-06 -0.00294854 0)
(-1.10169e-05 -0.00327855 0)
(-1.31396e-05 -0.0035939 0)
(-1.53561e-05 -0.00389462 0)
(-1.7654e-05 -0.00418074 0)
(-2.00157e-05 -0.00445227 0)
(-2.2432e-05 -0.00470922 0)
(-2.48855e-05 -0.00495161 0)
(-2.73699e-05 -0.00517942 0)
(-2.98662e-05 -0.00539268 0)
(-3.23704e-05 -0.00559135 0)
(-3.48609e-05 -0.00577545 0)
(-3.73352e-05 -0.00594494 0)
(-3.97665e-05 -0.00609982 0)
(-4.21527e-05 -0.00624005 0)
(-4.44617e-05 -0.00636561 0)
(-4.67078e-05 -0.00647645 0)
(-4.88818e-05 -0.00657255 0)
(-5.09644e-05 -0.00665385 0)
(-5.25477e-05 -0.00672029 0)
(-5.28083e-05 -0.0067717 0)
(-5.22308e-05 -0.0068078 0)
(-6.01248e-05 -0.00682877 0)
(-9.52079e-05 -0.00683714 0)
(-0.000156984 -0.00683855 0)
(-0.000257016 -0.00683875 0)
(-0.00043101 -0.00819927 0)
(-0.000274581 -0.0094164 0)
(-0.000263675 -0.0105183 0)
(-0.000266536 -0.0115155 0)
(-0.000266912 -0.012414 0)
(-0.000263236 -0.0132197 0)
(-0.000258183 -0.0139392 0)
(-0.000252606 -0.0145792 0)
(-0.000246508 -0.0151468 0)
(-0.00023979 -0.0156484 0)
(-0.00023242 -0.0160905 0)
(-0.000224407 -0.0164792 0)
(-0.000215767 -0.0168202 0)
(-0.000206518 -0.0171187 0)
(-0.000196684 -0.0173799 0)
(-0.000186292 -0.0176082 0)
(-0.000175371 -0.0178077 0)
(-3.65301e-09 -0.000219675 0)
(-2.28525e-07 -0.000645154 0)
(-7.15761e-07 -0.00105669 0)
(-1.45436e-06 -0.00145424 0)
(-2.41447e-06 -0.00183774 0)
(-3.56924e-06 -0.00220715 0)
(-4.89654e-06 -0.00256243 0)
(-6.37668e-06 -0.00290356 0)
(-7.99162e-06 -0.00323051 0)
(-9.72439e-06 -0.00354326 0)
(-1.15591e-05 -0.00384178 0)
(-1.34809e-05 -0.00412608 0)
(-1.54753e-05 -0.00439613 0)
(-1.75289e-05 -0.00465192 0)
(-1.96276e-05 -0.00489346 0)
(-2.17591e-05 -0.00512073 0)
(-2.39089e-05 -0.00533374 0)
(-2.60652e-05 -0.00553248 0)
(-2.8212e-05 -0.00571696 0)
(-3.03377e-05 -0.00588718 0)
(-3.24227e-05 -0.00604314 0)
(-3.44542e-05 -0.00618485 0)
(-3.64102e-05 -0.00631233 0)
(-3.82995e-05 -0.00642558 0)
(-4.01341e-05 -0.00652463 0)
(-4.18621e-05 -0.00660948 0)
(-4.29499e-05 -0.00668017 0)
(-4.23329e-05 -0.00673667 0)
(-4.10238e-05 -0.00677903 0)
(-5.1968e-05 -0.00680728 0)
(-9.86709e-05 -0.00682214 0)
(-0.000173721 -0.00682715 0)
(-0.000283005 -0.00682763 0)
(-0.000445671 -0.00817959 0)
(-0.000288642 -0.00940877 0)
(-0.000281737 -0.010528 0)
(-0.000288956 -0.011542 0)
(-0.00029281 -0.0124563 0)
(-0.000291786 -0.0132776 0)
(-0.000288659 -0.0140128 0)
(-0.00028428 -0.0146686 0)
(-0.000278621 -0.0152519 0)
(-0.000271566 -0.0157691 0)
(-0.000263086 -0.0162267 0)
(-0.000253206 -0.0166304 0)
(-0.00024197 -0.016986 0)
(-0.000229433 -0.0172986 0)
(-0.00021566 -0.0175731 0)
(-0.000200728 -0.017814 0)
(-0.000184719 -0.0180252 0)
(-1.73039e-08 -0.000220517 0)
(-1.10432e-07 -0.000647231 0)
(-2.86116e-07 -0.00105964 0)
(-5.39592e-07 -0.00145778 0)
(-8.66974e-07 -0.00184164 0)
(-1.2668e-06 -0.00221124 0)
(-1.73532e-06 -0.00256658 0)
(-2.27056e-06 -0.00290768 0)
(-2.86679e-06 -0.00323453 0)
(-3.52156e-06 -0.00354713 0)
(-4.22759e-06 -0.0038455 0)
(-4.98265e-06 -0.00412963 0)
(-5.778e-06 -0.00439952 0)
(-6.61218e-06 -0.00465518 0)
(-7.47486e-06 -0.0048966 0)
(-8.36591e-06 -0.00512379 0)
(-9.2731e-06 -0.00533675 0)
(-1.01984e-05 -0.00553548 0)
(-1.11271e-05 -0.00571998 0)
(-1.20639e-05 -0.00589025 0)
(-1.29899e-05 -0.00604629 0)
(-1.39117e-05 -0.00618811 0)
(-1.48094e-05 -0.0063157 0)
(-1.57229e-05 -0.00642907 0)
(-1.66766e-05 -0.00652821 0)
(-1.76284e-05 -0.00661314 0)
(-1.78892e-05 -0.00668384 0)
(-1.61701e-05 -0.00674032 0)
(-1.40484e-05 -0.00678251 0)
(-2.87872e-05 -0.00681054 0)
(-8.95118e-05 -0.00682478 0)
(-0.000182318 -0.00682785 0)
(-0.000305165 -0.00682899 0)
(-0.000449711 -0.00817383 0)
(-0.000280089 -0.0094057 0)
(-0.000268124 -0.0105326 0)
(-0.000269622 -0.0115581 0)
(-0.000266767 -0.0124868 0)
(-0.000258517 -0.0133248 0)
(-0.000247822 -0.0140783 0)
(-0.000235543 -0.0147536 0)
(-0.000221646 -0.015357 0)
(-0.000206019 -0.0158946 0)
(-0.00018865 -0.0163723 0)
(-0.000169577 -0.0167959 0)
(-0.00014886 -0.0171707 0)
(-0.000126567 -0.0175017 0)
(-0.000102777 -0.0177936 0)
(-7.75811e-05 -0.0180507 0)
(-5.10752e-05 -0.018277 0)
(-1.43104e-08 -0.000218808 0)
(-1.57618e-07 -0.000642471 0)
(-4.4281e-07 -0.00105216 0)
(-8.59924e-07 -0.00144786 0)
(-1.39535e-06 -0.00182954 0)
(-2.037e-06 -0.00219718 0)
(-2.77664e-06 -0.00255078 0)
(-3.60504e-06 -0.00289031 0)
(-4.51611e-06 -0.00321577 0)
(-5.5012e-06 -0.00352714 0)
(-6.55588e-06 -0.00382441 0)
(-7.67162e-06 -0.00410757 0)
(-8.84554e-06 -0.00437662 0)
(-1.00686e-05 -0.00463156 0)
(-1.13395e-05 -0.00487237 0)
(-1.26481e-05 -0.00509906 0)
(-1.39946e-05 -0.00531162 0)
(-1.53671e-05 -0.00551007 0)
(-1.67678e-05 -0.00569438 0)
(-1.81816e-05 -0.00586458 0)
(-1.96121e-05 -0.00602065 0)
(-2.1038e-05 -0.00616263 0)
(-2.24705e-05 -0.00629048 0)
(-2.39126e-05 -0.00640426 0)
(-2.54311e-05 -0.00650393 0)
(-2.69093e-05 -0.00658956 0)
(-2.76533e-05 -0.00666109 0)
(-2.6269e-05 -0.00671863 0)
(-2.4913e-05 -0.00676212 0)
(-4.20525e-05 -0.00679175 0)
(-0.00010893 -0.00680774 0)
(-0.000211035 -0.00681029 0)
(-0.000329914 -0.00683098 0)
(-0.000393806 -0.00819453 0)
(-0.000266087 -0.00945144 0)
(-0.000252154 -0.0106037 0)
(-0.000250207 -0.0116543 0)
(-0.000244527 -0.012608 0)
(-0.000234258 -0.0134708 0)
(-0.000221735 -0.0142488 0)
(-0.000207706 -0.0149482 0)
(-0.000192183 -0.0155753 0)
(-0.000175105 -0.016136 0)
(-0.000156484 -0.0166361 0)
(-0.000136377 -0.0170812 0)
(-0.000114859 -0.0174766 0)
(-9.20156e-05 -0.0178271 0)
(-6.79449e-05 -0.0181373 0)
(-4.27556e-05 -0.0184114 0)
(-1.65667e-05 -0.0186533 0)
(2.20006e-09 -0.000218491 0)
(2.04108e-08 -0.000641519 0)
(5.27761e-08 -0.00105057 0)
(9.5634e-08 -0.00144564 0)
(1.44426e-07 -0.0018267 0)
(1.95411e-07 -0.00219375 0)
(2.44622e-07 -0.00254675 0)
(2.89018e-07 -0.0028857 0)
(3.24673e-07 -0.00321059 0)
(3.48963e-07 -0.00352141 0)
(3.57792e-07 -0.00381815 0)
(3.49027e-07 -0.0041008 0)
(3.18233e-07 -0.00436936 0)
(2.63933e-07 -0.00462383 0)
(1.81122e-07 -0.0048642 0)
(6.92606e-08 -0.00509047 0)
(-7.75503e-08 -0.00530264 0)
(-2.58523e-07 -0.00550073 0)
(-4.8099e-07 -0.00568473 0)
(-7.42e-07 -0.00585466 0)
(-1.04998e-06 -0.00601052 0)
(-1.39739e-06 -0.00615232 0)
(-1.79986e-06 -0.00628008 0)
(-2.27108e-06 -0.00639381 0)
(-2.87213e-06 -0.00649354 0)
(-3.50782e-06 -0.00657927 0)
(-3.5994e-06 -0.00665103 0)
(-2.02376e-06 -0.00670885 0)
(-9.17861e-07 -0.00675281 0)
(-1.53223e-05 -0.00678293 0)
(-7.53881e-05 -0.00680037 0)
(-0.000175675 -0.00680326 0)
(-0.000332258 -0.00693749 0)
(-0.000266929 -0.00830512 0)
(-0.000176643 -0.00957367 0)
(-0.000150608 -0.0107395 0)
(-0.000134044 -0.0118045 0)
(-0.000115808 -0.0127733 0)
(-9.58543e-05 -0.0136517 0)
(-7.54336e-05 -0.0144458 0)
(-5.47916e-05 -0.0151615 0)
(-3.37716e-05 -0.0158049 0)
(-1.22308e-05 -0.0163817 0)
(9.88993e-06 -0.0168975 0)
(3.25917e-05 -0.0173575 0)
(5.58395e-05 -0.0177669 0)
(7.95707e-05 -0.0181302 0)
(0.000103698 -0.0184519 0)
(0.000128113 -0.018736 0)
(0.000152688 -0.0189862 0)
(1.66873e-08 -0.00021908 0)
(1.6192e-07 -0.000643164 0)
(4.47341e-07 -0.00105316 0)
(8.60866e-07 -0.00144905 0)
(1.38635e-06 -0.00183084 0)
(2.00989e-06 -0.00219849 0)
(2.71822e-06 -0.00255201 0)
(3.499e-06 -0.00289137 0)
(4.33884e-06 -0.00321657 0)
(5.22545e-06 -0.00352759 0)
(6.14506e-06 -0.00382444 0)
(7.08571e-06 -0.0041071 0)
(8.03316e-06 -0.00437557 0)
(8.97593e-06 -0.00462985 0)
(9.89913e-06 -0.00486992 0)
(1.0792e-05 -0.0050958 0)
(1.16388e-05 -0.00530748 0)
(1.24299e-05 -0.00550496 0)
(1.31482e-05 -0.00568825 0)
(1.37861e-05 -0.00585735 0)
(1.43255e-05 -0.00601227 0)
(1.47633e-05 -0.00615301 0)
(1.50752e-05 -0.00627958 0)
(1.52411e-05 -0.00639201 0)
(1.52015e-05 -0.00649029 0)
(1.50397e-05 -0.00657443 0)
(1.52421e-05 -0.00664446 0)
(1.67181e-05 -0.00670041 0)
(1.73285e-05 -0.00674233 0)
(5.04911e-06 -0.00677026 0)
(-4.99209e-05 -0.00678624 0)
(-0.000154646 -0.00678883 0)
(-0.000365382 -0.00745302 0)
(-0.000156485 -0.00875324 0)
(-0.000117225 -0.00996796 0)
(-9.48448e-05 -0.0110925 0)
(-7.35527e-05 -0.0121266 0)
(-5.13811e-05 -0.0130731 0)
(-3.05651e-05 -0.0139358 0)
(-1.1544e-05 -0.0147193 0)
(5.95543e-06 -0.0154282 0)
(2.22147e-05 -0.0160675 0)
(3.73779e-05 -0.0166421 0)
(5.14963e-05 -0.0171565 0)
(6.45637e-05 -0.0176156 0)
(7.65312e-05 -0.0180237 0)
(8.73131e-05 -0.018385 0)
(9.67936e-05 -0.0187035 0)
(0.000104834 -0.018983 0)
(0.00011128 -0.0192269 0)
(3.57179e-08 -0.000220428 0)
(3.78739e-07 -0.00064702 0)
(1.05675e-06 -0.00105932 0)
(2.04173e-06 -0.00145732 0)
(3.29477e-06 -0.00184099 0)
(4.78358e-06 -0.00221032 0)
(6.47873e-06 -0.00256529 0)
(8.35447e-06 -0.00290589 0)
(1.0383e-05 -0.0032321 0)
(1.25402e-05 -0.00354392 0)
(1.47982e-05 -0.00384134 0)
(1.71342e-05 -0.00412435 0)
(1.95196e-05 -0.00439294 0)
(2.19319e-05 -0.00464711 0)
(2.43404e-05 -0.00488686 0)
(2.67229e-05 -0.00511219 0)
(2.9045e-05 -0.00532311 0)
(3.12838e-05 -0.0055196 0)
(3.33995e-05 -0.0057017 0)
(3.53685e-05 -0.0058694 0)
(3.71436e-05 -0.00602274 0)
(3.87006e-05 -0.0061617 0)
(3.99783e-05 -0.00628635 0)
(4.09335e-05 -0.00639669 0)
(4.14686e-05 -0.00649278 0)
(4.16215e-05 -0.00657465 0)
(4.16993e-05 -0.00664238 0)
(4.23009e-05 -0.00669603 0)
(4.12786e-05 -0.00673579 0)
(3.0042e-05 -0.0067617 0)
(-1.90701e-05 -0.00677645 0)
(-0.000131197 -0.0067801 0)
(-0.000361998 -0.00794513 0)
(-0.000142446 -0.00919924 0)
(-0.000130179 -0.010367 0)
(-0.000123908 -0.0114483 0)
(-0.000116125 -0.0124438 0)
(-0.000107346 -0.0133558 0)
(-0.000100753 -0.0141876 0)
(-9.69981e-05 -0.0149429 0)
(-9.60067e-05 -0.0156254 0)
(-9.77271e-05 -0.0162394 0)
(-0.000102225 -0.0167889 0)
(-0.000109617 -0.017278 0)
(-0.000120038 -0.0177108 0)
(-0.000133633 -0.0180912 0)
(-0.000150558 -0.0184231 0)
(-0.000170981 -0.0187103 0)
(-0.000195076 -0.0189562 0)
(-0.000223024 -0.0191644 0)
(6.29933e-08 -0.00022387 0)
(5.5527e-07 -0.000656631 0)
(1.50147e-06 -0.00107444 0)
(2.85788e-06 -0.00147735 0)
(4.5731e-06 -0.00186539 0)
(6.6064e-06 -0.00223858 0)
(8.92094e-06 -0.00259694 0)
(1.14851e-05 -0.00294047 0)
(1.42645e-05 -0.00326919 0)
(1.72304e-05 -0.00358309 0)
(2.03492e-05 -0.00388217 0)
(2.3595e-05 -0.00416643 0)
(2.69339e-05 -0.00443585 0)
(3.03427e-05 -0.00469043 0)
(3.37858e-05 -0.00493013 0)
(3.72428e-05 -0.00515495 0)
(4.06748e-05 -0.00536482 0)
(4.40641e-05 -0.00555975 0)
(4.73665e-05 -0.00573966 0)
(5.05683e-05 -0.00590452 0)
(5.36171e-05 -0.00605424 0)
(5.65042e-05 -0.0061888 0)
(5.91617e-05 -0.00630805 0)
(6.15763e-05 -0.00641197 0)
(6.36562e-05 -0.00650037 0)
(6.54726e-05 -0.00657321 0)
(6.71716e-05 -0.00663013 0)
(6.90338e-05 -0.00667096 0)
(6.91694e-05 -0.0066955 0)
(6.30803e-05 -0.00670589 0)
(3.20514e-05 -0.00671038 0)
(-8.27968e-05 -0.00670245 0)
(-0.000285582 -0.00795472 0)
(-0.00011697 -0.00917724 0)
(-0.000140953 -0.0103137 0)
(-0.00017105 -0.0113656 0)
(-0.000202949 -0.0123317 0)
(-0.000237546 -0.013213 0)
(-0.000277821 -0.0140116 0)
(-0.000324279 -0.0147308 0)
(-0.000376745 -0.0153743 0)
(-0.000435031 -0.0159461 0)
(-0.000499023 -0.0164506 0)
(-0.00056861 -0.0168919 0)
(-0.000643661 -0.0172744 0)
(-0.000724022 -0.017602 0)
(-0.000809528 -0.0178788 0)
(-0.000900015 -0.0181085 0)
(-0.000995317 -0.0182946 0)
(-0.00109528 -0.0184406 0)
(1.05414e-08 -0.000226802 0)
(1.48879e-07 -0.000664949 0)
(4.5359e-07 -0.00108768 0)
(9.23204e-07 -0.00149507 0)
(1.55021e-06 -0.00188717 0)
(2.32585e-06 -0.00226402 0)
(3.23778e-06 -0.00262564 0)
(4.27433e-06 -0.00297205 0)
(5.4183e-06 -0.00330328 0)
(6.65563e-06 -0.00361933 0)
(7.96597e-06 -0.00392023 0)
(9.33529e-06 -0.00420598 0)
(1.07418e-05 -0.00447658 0)
(1.21739e-05 -0.00473204 0)
(1.36098e-05 -0.00497235 0)
(1.50432e-05 -0.00519751 0)
(1.64536e-05 -0.00540753 0)
(1.78434e-05 -0.00560238 0)
(1.91951e-05 -0.00578206 0)
(2.05261e-05 -0.00594656 0)
(2.18269e-05 -0.00609584 0)
(2.31275e-05 -0.0062299 0)
(2.43767e-05 -0.0063487 0)
(2.55423e-05 -0.00645221 0)
(2.67394e-05 -0.0065404 0)
(2.92115e-05 -0.00661321 0)
(3.52987e-05 -0.00667054 0)
(4.22508e-05 -0.00671226 0)
(1.95714e-05 -0.00673848 0)
(-8.42341e-05 -0.00674997 0)
(-0.000242923 -0.00675152 0)
(-0.000424152 -0.0067492 0)
(-0.00057522 -0.00787564 0)
(-0.00037192 -0.00895024 0)
(-0.000395932 -0.00994703 0)
(-0.000455465 -0.0108663 0)
(-0.000525924 -0.0117052 0)
(-0.000605581 -0.012464 0)
(-0.000697503 -0.0131447 0)
(-0.00080183 -0.0137505 0)
(-0.000917468 -0.0142855 0)
(-0.0010432 -0.014754 0)
(-0.00117788 -0.0151608 0)
(-0.00132039 -0.0155104 0)
(-0.00146956 -0.0158075 0)
(-0.00162416 -0.0160563 0)
(-0.00178288 -0.0162609 0)
(-0.00194436 -0.0164248 0)
(-0.00210715 -0.0165516 0)
(-0.00226976 -0.0166439 0)
(2.14608e-08 -0.000225787 0)
(3.40527e-07 -0.000662554 0)
(1.0144e-06 -0.0010844 0)
(2.02241e-06 -0.00149126 0)
(3.3329e-06 -0.00188309 0)
(4.91202e-06 -0.00225984 0)
(6.7321e-06 -0.00262146 0)
(8.7612e-06 -0.0029679 0)
(1.09718e-05 -0.00329913 0)
(1.33292e-05 -0.00361512 0)
(1.58063e-05 -0.00391586 0)
(1.83659e-05 -0.00420134 0)
(2.09825e-05 -0.00447157 0)
(2.36161e-05 -0.00472654 0)
(2.62443e-05 -0.00496629 0)
(2.8824e-05 -0.00519082 0)
(3.13375e-05 -0.0054002 0)
(3.37374e-05 -0.00559444 0)
(3.60137e-05 -0.00577364 0)
(3.81141e-05 -0.00593783 0)
(4.00415e-05 -0.00608716 0)
(4.17311e-05 -0.00622165 0)
(4.31778e-05 -0.00634155 0)
(4.42685e-05 -0.00644686 0)
(4.5125e-05 -0.0065379 0)
(4.62308e-05 -0.0066147 0)
(4.86625e-05 -0.00667773 0)
(5.01019e-05 -0.0067272 0)
(3.70846e-05 -0.00676401 0)
(-2.13339e-05 -0.00679022 0)
(-0.000127171 -0.00679717 0)
(-0.000301804 -0.00692982 0)
(-0.000225522 -0.00774059 0)
(-0.000205831 -0.0085186 0)
(-0.00025514 -0.00923832 0)
(-0.000333655 -0.00989785 0)
(-0.00043024 -0.0104966 0)
(-0.000543296 -0.011036 0)
(-0.000671945 -0.0115188 0)
(-0.000814411 -0.0119484 0)
(-0.00096857 -0.0123286 0)
(-0.00113231 -0.012664 0)
(-0.00130357 -0.0129597 0)
(-0.00148029 -0.0132209 0)
(-0.0016604 -0.0134531 0)
(-0.00184173 -0.0136622 0)
(-0.00202203 -0.0138536 0)
(-0.00219894 -0.0140328 0)
(-0.00236995 -0.014205 0)
(-0.00253244 -0.0143745 0)
(1.30398e-07 -0.000231716 0)
(1.03267e-06 -0.000679054 0)
(2.73373e-06 -0.00111027 0)
(5.13897e-06 -0.00152544 0)
(8.16154e-06 -0.00192462 0)
(1.17282e-05 -0.00230783 0)
(1.5784e-05 -0.00267508 0)
(2.0272e-05 -0.00302637 0)
(2.51458e-05 -0.0033617 0)
(3.03503e-05 -0.00368108 0)
(3.5845e-05 -0.00398451 0)
(4.15742e-05 -0.004272 0)
(4.75016e-05 -0.00454354 0)
(5.35666e-05 -0.00479913 0)
(5.97358e-05 -0.00503879 0)
(6.5939e-05 -0.00526252 0)
(7.21443e-05 -0.00547032 0)
(7.82662e-05 -0.0056622 0)
(8.42735e-05 -0.00583817 0)
(9.00591e-05 -0.00599825 0)
(9.55906e-05 -0.00614243 0)
(0.000100719 -0.00627077 0)
(0.000105386 -0.00638325 0)
(0.000109411 -0.00647995 0)
(0.000112983 -0.00656082 0)
(0.000116469 -0.00662589 0)
(0.00011973 -0.00667514 0)
(0.000116615 -0.0067092 0)
(9.41375e-05 -0.00672963 0)
(4.35686e-05 -0.00674043 0)
(-5.85489e-05 -0.0067369 0)
(-0.000220396 -0.00704215 0)
(-5.16215e-05 -0.007516 0)
(-6.17985e-05 -0.0079607 0)
(-7.5472e-05 -0.00837732 0)
(-9.55647e-05 -0.00876519 0)
(-0.000122358 -0.00912529 0)
(-0.000157287 -0.00945916 0)
(-0.000199611 -0.00976878 0)
(-0.000248021 -0.0100566 0)
(-0.000301129 -0.0103258 0)
(-0.000357527 -0.01058 0)
(-0.000415761 -0.0108237 0)
(-0.000474382 -0.0110623 0)
(-0.000532032 -0.0113013 0)
(-0.00058742 -0.0115474 0)
(-0.000639297 -0.0118069 0)
(-0.000686436 -0.0120861 0)
(-0.000727519 -0.0123912 0)
(-0.000760792 -0.0127282 0)
(2.75185e-08 -0.000236944 0)
(4.82458e-07 -0.000693779 0)
(1.43301e-06 -0.00113359 0)
(2.8483e-06 -0.00155656 0)
(4.68321e-06 -0.00196286 0)
(6.89731e-06 -0.00235256 0)
(9.45843e-06 -0.00272572 0)
(1.23392e-05 -0.00308238 0)
(1.55102e-05 -0.00342257 0)
(1.89476e-05 -0.00374632 0)
(2.26202e-05 -0.00405363 0)
(2.65066e-05 -0.00434451 0)
(3.05697e-05 -0.00461893 0)
(3.47899e-05 -0.00487692 0)
(3.91184e-05 -0.00511839 0)
(4.35357e-05 -0.00534337 0)
(4.7973e-05 -0.00555172 0)
(5.24094e-05 -0.00574347 0)
(5.67448e-05 -0.00591845 0)
(6.09532e-05 -0.00607665 0)
(6.48712e-05 -0.00621785 0)
(6.84223e-05 -0.00634205 0)
(7.13561e-05 -0.00644896 0)
(7.38581e-05 -0.00653849 0)
(7.64916e-05 -0.00661016 0)
(7.96313e-05 -0.00666398 0)
(7.67514e-05 -0.00670097 0)
(4.56017e-05 -0.00672532 0)
(-2.32351e-05 -0.00673874 0)
(-0.000114056 -0.00673849 0)
(-0.00020368 -0.00673759 0)
(-0.000236594 -0.0073354 0)
(-8.79711e-05 -0.00793014 0)
(-3.12156e-05 -0.00845171 0)
(3.22248e-05 -0.0089205 0)
(0.000106833 -0.00934155 0)
(0.000186975 -0.00972123 0)
(0.000269861 -0.0100661 0)
(0.00035414 -0.0103827 0)
(0.000439111 -0.0106776 0)
(0.000524617 -0.0109568 0)
(0.000611188 -0.0112271 0)
(0.000699664 -0.011494 0)
(0.000790817 -0.0117632 0)
(0.000884618 -0.0120343 0)
(0.000980421 -0.0123141 0)
(0.0010778 -0.0126081 0)
(0.00117645 -0.0129206 0)
(0.00127633 -0.0132557 0)
(0.00137971 -0.0136404 0)
(-1.55146e-08 -0.000239296 0)
(-5.69376e-07 -0.000699995 0)
(-1.68405e-06 -0.00114316 0)
(-3.24132e-06 -0.00156918 0)
(-5.11507e-06 -0.00197831 0)
(-7.16445e-06 -0.00237064 0)
(-9.30779e-06 -0.00274627 0)
(-1.1429e-05 -0.0031052 0)
(-1.34702e-05 -0.00344753 0)
(-1.53117e-05 -0.00377319 0)
(-1.69036e-05 -0.00408226 0)
(-1.8106e-05 -0.00437462 0)
(-1.88638e-05 -0.00465035 0)
(-1.89996e-05 -0.00490924 0)
(-1.8438e-05 -0.00515137 0)
(-1.6945e-05 -0.0053764 0)
(-1.4405e-05 -0.00558442 0)
(-1.05057e-05 -0.0057749 0)
(-5.07142e-06 -0.00594791 0)
(2.27037e-06 -0.00610268 0)
(1.17343e-05 -0.00623921 0)
(2.38961e-05 -0.00635639 0)
(3.99188e-05 -0.00645396 0)
(6.20087e-05 -0.00653007 0)
(8.95352e-05 -0.00658502 0)
(0.000105005 -0.00661868 0)
(5.62301e-05 -0.00664104 0)
(-3.52157e-05 -0.00665203 0)
(-0.000111975 -0.00666132 0)
(-0.000148597 -0.00665794 0)
(-0.000119958 -0.00695197 0)
(-2.40334e-05 -0.00795248 0)
(1.12259e-05 -0.00883934 0)
(4.78179e-05 -0.00956921 0)
(8.33575e-05 -0.0101912 0)
(0.00011762 -0.0107213 0)
(0.000150216 -0.0111746 0)
(0.000181166 -0.0115651 0)
(0.000210437 -0.011905 0)
(0.000238129 -0.0122055 0)
(0.000265606 -0.0124794 0)
(0.00029802 -0.0127812 0)
(0.000339871 -0.0130906 0)
(0.000391235 -0.0134018 0)
(0.000451561 -0.0137014 0)
(0.000518873 -0.0139921 0)
(0.00059073 -0.0142789 0)
(0.000664577 -0.0145929 0)
(0.000738416 -0.0149382 0)
(0.000820006 -0.0154764 0)
(-2.91339e-07 -0.000225997 0)
(-1.39776e-06 -0.000665752 0)
(-3.07508e-06 -0.00109278 0)
(-5.06438e-06 -0.00150661 0)
(-7.24232e-06 -0.00190678 0)
(-9.4954e-06 -0.00229306 0)
(-1.17653e-05 -0.00266513 0)
(-1.39685e-05 -0.00302301 0)
(-1.60592e-05 -0.00336647 0)
(-1.79521e-05 -0.0036958 0)
(-1.95986e-05 -0.0040108 0)
(-2.08957e-05 -0.00431209 0)
(-2.17689e-05 -0.00459949 0)
(-2.20802e-05 -0.00487399 0)
(-2.16952e-05 -0.00513537 0)
(-2.04203e-05 -0.00538518 0)
(-1.80057e-05 -0.00562299 0)
(-1.42003e-05 -0.00585113 0)
(-8.64343e-06 -0.00606881 0)
(-1.13536e-06 -0.00627949 0)
(9.44147e-06 -0.00648156 0)
(2.46123e-05 -0.00667995 0)
(4.96905e-05 -0.00687183 0)
(7.54898e-05 -0.00706609 0)
(7.71457e-05 -0.00726554 0)
(-2.11386e-05 -0.00724612 0)
(-0.000148678 -0.00722173 0)
(-0.000176916 -0.0072041 0)
(-0.0001917 -0.00716256 0)
(-0.000163527 -0.00712531 0)
(-0.000132249 -0.00766609 0)
(-0.000150485 -0.00825091 0)
(-0.000180295 -0.00878393 0)
(-0.0002172 -0.00924208 0)
(-0.000260578 -0.00966441 0)
(-0.00030742 -0.0100508 0)
(-0.000353862 -0.0104003 0)
(-0.000396644 -0.0107108 0)
(-0.000434016 -0.0109733 0)
(-0.000470033 -0.0111723 0)
(-0.000500388 -0.0115434 0)
(-0.00051282 -0.0120447 0)
(-0.000508795 -0.0125334 0)
(-0.000490893 -0.0130084 0)
(-0.000456104 -0.0134806 0)
(-0.000399718 -0.0139258 0)
(-0.000319988 -0.0143389 0)
(-0.000220713 -0.0147063 0)
(-0.000106166 -0.0151216 0)
(2.79056e-05 -0.015857 0)
(3.68391e-07 -0.0002296 0)
(2.41687e-06 -0.000676516 0)
(5.92351e-06 -0.00111046 0)
(1.05964e-05 -0.00153069 0)
(1.61094e-05 -0.00193654 0)
(2.2278e-05 -0.00232783 0)
(2.88427e-05 -0.00270415 0)
(3.56863e-05 -0.00306565 0)
(4.25217e-05 -0.00341198 0)
(4.92498e-05 -0.00374367 0)
(5.5518e-05 -0.00406033 0)
(6.12189e-05 -0.00436301 0)
(6.5898e-05 -0.0046512 0)
(6.94128e-05 -0.00492669 0)
(7.11737e-05 -0.00518866 0)
(7.09644e-05 -0.00544007 0)
(6.79823e-05 -0.00567952 0)
(6.1807e-05 -0.00591172 0)
(5.15255e-05 -0.00613417 0)
(3.75809e-05 -0.00635414 0)
(2.13432e-05 -0.00656718 0)
(1.55687e-06 -0.00678599 0)
(-4.46233e-05 -0.00700828 0)
(-0.000189763 -0.00717984 0)
(-0.00038572 -0.00737552 0)
(-0.000551879 -0.00731615 0)
(-0.00074273 -0.00720316 0)
(-0.0013828 -0.00710438 0)
(-0.00286297 -0.00653963 0)
(-0.00260549 -0.00687612 0)
(-0.00261468 -0.00730322 0)
(-0.00282486 -0.0077833 0)
(-0.0030438 -0.00826987 0)
(-0.00321977 -0.00874352 0)
(-0.00335802 -0.00921399 0)
(-0.00346828 -0.0096822 0)
(-0.0035595 -0.0101566 0)
(-0.00363593 -0.0106381 0)
(-0.00368578 -0.0112508 0)
(-0.00368987 -0.0118163 0)
(-0.0036633 -0.0123363 0)
(-0.00362568 -0.0129886 0)
(-0.00357212 -0.013668 0)
(-0.0034953 -0.014366 0)
(-0.00338987 -0.0151463 0)
(-0.003247 -0.0159638 0)
(-0.00306606 -0.0167667 0)
(-0.00285541 -0.0174543 0)
(-0.00262214 -0.0181737 0)
(-0.00236354 -0.0191456 0)
(1.96299e-07 -0.000249005 0)
(1.98967e-06 -0.000726543 0)
(5.27244e-06 -0.00118409 0)
(9.85355e-06 -0.00162216 0)
(1.53359e-05 -0.00204075 0)
(2.1622e-05 -0.00244037 0)
(2.83417e-05 -0.00282063 0)
(3.55186e-05 -0.00318203 0)
(4.27144e-05 -0.00352365 0)
(4.99898e-05 -0.00384607 0)
(5.67824e-05 -0.00414769 0)
(6.3134e-05 -0.00442941 0)
(6.831e-05 -0.0046887 0)
(7.22626e-05 -0.00492712 0)
(7.40004e-05 -0.00514085 0)
(7.32373e-05 -0.00533257 0)
(6.87831e-05 -0.00549653 0)
(6.08393e-05 -0.00563712 0)
(4.98628e-05 -0.00574564 0)
(3.53889e-05 -0.00583085 0)
(7.56232e-07 -0.00588623 0)
(-0.000118492 -0.00591952 0)
(-0.000343148 -0.00590216 0)
(-0.000621318 -0.0057595 0)
(-0.00091296 -0.00573339 0)
(-0.00114867 -0.00486086 0)
(-0.00126675 0.00664396 0)
(-0.00105712 0.00377599 0)
(-0.00145142 0.00194818 0)
(-0.00184061 0.00019535 0)
(-0.00219207 -0.00142915 0)
(-0.00251849 -0.00291066 0)
(-0.00282057 -0.00425281 0)
(-0.00309344 -0.00547491 0)
(-0.00333018 -0.00659826 0)
(-0.00353117 -0.00762953 0)
(-0.00369096 -0.00850903 0)
(-0.00381189 -0.00922343 0)
(-0.00391972 -0.00995542 0)
(-0.00403096 -0.0109027 0)
(-0.00410955 -0.0117817 0)
(-0.00413567 -0.0127237 0)
(-0.00412041 -0.0137134 0)
(-0.00406304 -0.0148515 0)
(-0.003959 -0.0161294 0)
(-0.00380388 -0.0174942 0)
(-0.00360318 -0.0188351 0)
(-0.00335963 -0.0200883 0)
(-0.00307872 -0.0211434 0)
(-0.00276694 -0.0223987 0)
(-1.33653e-07 -0.000256469 0)
(-1.94848e-06 -0.000746246 0)
(-5.28328e-06 -0.00121395 0)
(-9.73238e-06 -0.00166105 0)
(-1.47842e-05 -0.00208751 0)
(-2.00207e-05 -0.00249473 0)
(-2.50403e-05 -0.00288157 0)
(-2.95584e-05 -0.00324952 0)
(-3.32092e-05 -0.00359617 0)
(-3.57744e-05 -0.00392342 0)
(-3.68724e-05 -0.00422729 0)
(-3.63341e-05 -0.00451049 0)
(-3.37435e-05 -0.00476697 0)
(-2.90333e-05 -0.00500093 0)
(-2.16249e-05 -0.00520333 0)
(-1.08236e-05 -0.00538059 0)
(6.23885e-06 -0.00551952 0)
(3.08978e-05 -0.00563268 0)
(4.82751e-05 -0.00570996 0)
(-2.07279e-05 -0.00576847 0)
(-0.00024784 -0.00555606 0)
(-0.000582536 -0.00522883 0)
(-0.000958201 -0.00497158 0)
(-0.00137765 -0.000431458 0)
(-0.00209533 -0.00363927 0)
(-0.00309604 -0.0035815 0)
(-0.00527622 0.000499795 0)
(-0.00509335 0.00165555 0)
(-0.00542298 0.00204984 0)
(-0.00586566 0.00190168 0)
(-0.00630419 0.00134696 0)
(-0.00669901 0.000481739 0)
(-0.00705146 -0.000621644 0)
(-0.00735503 -0.00190006 0)
(-0.00760796 -0.00329756 0)
(-0.00780578 -0.00475914 0)
(-0.00792988 -0.00617665 0)
(-0.00797512 -0.00743807 0)
(-0.00794097 -0.00853527 0)
(-0.00783095 -0.00993335 0)
(-0.00766006 -0.0114877 0)
(-0.00743879 -0.0131468 0)
(-0.007169 -0.0148856 0)
(-0.00684427 -0.0168216 0)
(-0.00647518 -0.018777 0)
(-0.00607134 -0.0207214 0)
(-0.00563667 -0.0226127 0)
(-0.00520715 -0.0243473 0)
(-0.00475205 -0.0258388 0)
(-0.00425097 -0.027461 0)
(-1.31059e-06 -0.000217511 0)
(-9.70893e-06 -0.000647817 0)
(-2.46636e-05 -0.00107251 0)
(-4.48155e-05 -0.00149035 0)
(-6.89024e-05 -0.00189957 0)
(-9.58174e-05 -0.00229964 0)
(-0.000124716 -0.00268887 0)
(-0.000154712 -0.00306747 0)
(-0.000185089 -0.00343345 0)
(-0.000214977 -0.00378789 0)
(-0.000243752 -0.00412814 0)
(-0.000270554 -0.00445656 0)
(-0.000294607 -0.00476925 0)
(-0.000314002 -0.00507034 0)
(-0.000324852 -0.00535379 0)
(-0.000326466 -0.00562965 0)
(-0.000343632 -0.00589943 0)
(-0.000482156 -0.00610814 0)
(-0.000758407 -0.00601776 0)
(-0.00108069 -0.00592105 0)
(-0.00149892 -0.00534409 0)
(-0.00309728 0.00419088 0)
(-0.0048537 -0.000329386 0)
(-0.00999714 0.00668493 0)
(-0.0100401 0.0237317 0)
(-0.00919766 0.020441 0)
(-0.00943243 0.0176336 0)
(-0.00972623 0.0150288 0)
(-0.00987923 0.0125825 0)
(-0.00989361 0.0101883 0)
(-0.00981737 0.0078738 0)
(-0.00968024 0.00557402 0)
(-0.00949766 0.00323406 0)
(-0.00927861 0.000798312 0)
(-0.00901623 -0.00177266 0)
(-0.00870367 -0.00437826 0)
(-0.00834872 -0.00699246 0)
(-0.00796505 -0.00955041 0)
(-0.00752011 -0.0120081 0)
(-0.00699946 -0.0145113 0)
(-0.00644875 -0.0169396 0)
(-0.00586974 -0.0191913 0)
(-0.00528032 -0.0213662 0)
(-0.00469539 -0.0235992 0)
(-0.00411716 -0.0257579 0)
(-0.00355635 -0.0277874 0)
(-0.00301417 -0.0296997 0)
(-0.00248186 -0.0314484 0)
(-0.00196218 -0.0331197 0)
(-0.00146312 -0.034709 0)
(-6.76616e-07 -0.000150648 0)
(-7.93558e-06 -0.000466956 0)
(-2.25131e-05 -0.000795169 0)
(-4.39889e-05 -0.00113236 0)
(-7.16017e-05 -0.00147504 0)
(-0.000104775 -0.00182208 0)
(-0.000142909 -0.00217035 0)
(-0.000185684 -0.00252017 0)
(-0.000232488 -0.00286827 0)
(-0.000283394 -0.00321666 0)
(-0.000337614 -0.00356152 0)
(-0.000393946 -0.00390695 0)
(-0.000447877 -0.00424788 0)
(-0.000499021 -0.00459392 0)
(-0.000577776 -0.00494437 0)
(-0.00079728 -0.00516006 0)
(-0.00110448 -0.00527657 0)
(-0.00139076 -0.0054758 0)
(-0.00177056 -0.00451365 0)
(-0.00297586 0.00417353 0)
(-0.00386114 0.00310566 0)
(-0.00812866 0.0670371 0)
(-0.00470368 0.0387385 0)
(-0.00571476 0.0250673 0)
(-0.00599839 0.0176666 0)
(-0.00553351 0.0130145 0)
(-0.004908 0.00961943 0)
(-0.00429393 0.00686074 0)
(-0.00370175 0.00437045 0)
(-0.0031209 0.00189665 0)
(-0.00255089 -0.000547857 0)
(-0.00199336 -0.00293046 0)
(-0.00146904 -0.00520612 0)
(-0.000971975 -0.00754078 0)
(-0.000485973 -0.010046 0)
(-1.28285e-05 -0.0125926 0)
(0.000441234 -0.0152089 0)
(0.000870341 -0.0178425 0)
(0.00128067 -0.0204673 0)
(0.00167436 -0.0228983 0)
(0.00203397 -0.0252345 0)
(0.00236314 -0.027344 0)
(0.00267476 -0.0292401 0)
(0.00296455 -0.0310685 0)
(0.00322684 -0.0328157 0)
(0.00345842 -0.03443 0)
(0.00365881 -0.0359369 0)
(0.00383465 -0.0372941 0)
(0.00399293 -0.0385654 0)
(0.00413748 -0.039713 0)
(2.68793e-07 -0.000114813 0)
(1.7207e-06 -0.000356069 0)
(3.51448e-06 -0.000606219 0)
(4.68531e-06 -0.000864792 0)
(4.3014e-06 -0.00112804 0)
(1.49461e-06 -0.00139647 0)
(-4.46834e-06 -0.00166484 0)
(-1.48167e-05 -0.00193556 0)
(-3.00469e-05 -0.00220218 0)
(-5.05533e-05 -0.0024694 0)
(-7.49535e-05 -0.00272915 0)
(-9.98298e-05 -0.00298894 0)
(-0.000156171 -0.00324047 0)
(-0.000326315 -0.0034976 0)
(-0.000578146 -0.00372213 0)
(-0.000816439 -0.00382648 0)
(-0.000988127 -0.00298973 0)
(-0.00117891 0.000666096 0)
(-0.00111853 0.00244828 0)
(-0.000962187 0.0405403 0)
(0.00192587 0.0351944 0)
(0.00256178 0.0299462 0)
(0.00456736 0.0218425 0)
(0.00628653 0.0152257 0)
(0.00766225 0.00987083 0)
(0.00875579 0.00585528 0)
(0.00965817 0.00273717 0)
(0.0104213 0.00019879 0)
(0.0110694 -0.00195141 0)
(0.0116103 -0.00392298 0)
(0.012045 -0.00589797 0)
(0.0123798 -0.00774103 0)
(0.012648 -0.00957085 0)
(0.0128553 -0.0113703 0)
(0.0129892 -0.0133884 0)
(0.013048 -0.0154819 0)
(0.0130337 -0.0175936 0)
(0.0129513 -0.0195741 0)
(0.0128044 -0.021609 0)
(0.0125984 -0.0236048 0)
(0.0123526 -0.0254829 0)
(0.0120697 -0.027225 0)
(0.0117517 -0.0288241 0)
(0.0114029 -0.0303204 0)
(0.0110226 -0.0317072 0)
(0.0106205 -0.0330565 0)
(0.0102069 -0.034317 0)
(0.00978928 -0.0355413 0)
(0.00936352 -0.0367907 0)
(0.00894667 -0.0380228 0)
(-0.000163957 -0.0179823 0)
(-0.000152084 -0.0181352 0)
(-0.00013979 -0.0182694 0)
(-0.000127114 -0.0183877 0)
(-0.000114093 -0.0184923 0)
(-0.000100767 -0.0185853 0)
(-8.71731e-05 -0.0186685 0)
(-7.33476e-05 -0.0187434 0)
(-5.9326e-05 -0.0188114 0)
(-4.5142e-05 -0.0188734 0)
(-3.08274e-05 -0.0189306 0)
(-1.64116e-05 -0.0189837 0)
(-1.92148e-06 -0.0190332 0)
(1.26185e-05 -0.0190798 0)
(2.71871e-05 -0.0191239 0)
(4.17662e-05 -0.0191657 0)
(5.63419e-05 -0.0192056 0)
(7.09035e-05 -0.0192436 0)
(8.54442e-05 -0.0192798 0)
(9.99601e-05 -0.0193143 0)
(0.00011445 -0.019347 0)
(0.000128916 -0.0193777 0)
(0.000143357 -0.0194065 0)
(0.000157776 -0.0194331 0)
(0.000172171 -0.0194574 0)
(0.000186543 -0.019479 0)
(0.000200892 -0.0194979 0)
(0.000215217 -0.0195137 0)
(0.000229514 -0.0195262 0)
(0.000243782 -0.019535 0)
(0.000258018 -0.0195398 0)
(0.000272225 -0.0195402 0)
(0.000286402 -0.0195359 0)
(0.000300551 -0.0195263 0)
(0.000314674 -0.019511 0)
(0.00032877 -0.0194895 0)
(0.000342838 -0.0194612 0)
(0.000356879 -0.0194254 0)
(0.000370891 -0.0193817 0)
(0.000384874 -0.0193292 0)
(0.000398826 -0.0192674 0)
(0.000412748 -0.0191954 0)
(0.000426641 -0.0191124 0)
(0.000440506 -0.0190177 0)
(0.000454346 -0.0189103 0)
(0.000468162 -0.0187895 0)