/*--------------------------------*- C++ -*----------------------------------*\
| =========                 |                                                 |
| \\      /  F ield         | OpenFOAM: The Open Source CFD Toolbox           |
|  \\    /   O peration     | Version:  2.4.0                                 |
|   \\  /    A nd           | Web:      www.OpenFOAM.org                      |
|    \\/     M anipulation  |                                                 |
\*---------------------------------------------------------------------------*/
FoamFile
{
    version     2.0;
    format      ascii;
    class       volScalarField;
    location    "4.9";
    object      p_rgh;
}
// * * * * * * * * * * * * * * * * * * * * * * * * * * * * * * * * * * * * * //

dimensions      [1 -1 -2 0 0 0 0];

internalField   nonuniform List<scalar> 
8000
(
2.32196
2.29147
2.26468
2.24347
2.22686
2.22394
2.25573
2.29763
2.09277
1.10235
-0.739155
0.200016
0.203037
0.200848
0.199872
0.199348
0.198774
0.197962
0.196872
0.195504
0.193874
0.192005
0.189919
0.187641
0.185195
0.182602
0.179883
0.177057
0.17414
0.171148
0.168095
0.164994
0.161856
0.158691
0.15551
0.15232
0.149129
0.145944
0.142772
0.139618
0.136486
0.133382
0.13031
0.127272
0.124271
0.121312
0.118395
0.115523
0.112697
0.10992
2.05215
2.00673
1.95596
1.9123
1.89248
1.93605
2.02384
1.74684
0.069205
-2.46954
0.0363466
0.142795
0.144079
0.142479
0.141724
0.141345
0.141199
0.141149
0.141119
0.141068
0.140979
0.140845
0.140664
0.140437
0.140165
0.139849
0.139491
0.139093
0.138655
0.138179
0.137665
0.137114
0.136529
0.135909
0.135255
0.134569
0.13385
0.133101
0.132321
0.131511
0.130672
0.129804
0.128907
0.127984
0.127033
0.126055
0.125051
0.124022
0.122968
0.121889
3.41573
3.34146
3.26803
3.21448
3.19709
3.21583
3.12897
2.49638
1.2765
0.0102149
0.238313
0.240974
0.239241
0.238936
0.238641
0.238321
0.237966
0.23755
0.237045
0.236434
0.235716
0.234902
0.234009
0.23305
0.232034
0.230966
0.22985
0.228688
0.22748
0.226228
0.224933
0.223596
0.222217
0.2208
0.219343
0.21785
0.21632
0.214755
0.213155
0.211523
0.209859
0.208164
0.206439
0.204684
0.202902
0.201093
0.199258
0.197398
0.195513
0.193605
1.07345
1.0263
0.974581
0.935788
0.903327
0.717531
-0.0652572
-1.30191
-1.69082
0.0771342
0.221287
0.216998
0.213379
0.212796
0.212756
0.212425
0.211917
0.211479
0.211082
0.210682
0.21027
0.209858
0.209473
0.209093
0.208694
0.208267
0.207809
0.20732
0.206802
0.206256
0.205683
0.205081
0.204449
0.203786
0.203091
0.202363
0.201601
0.200804
0.199972
0.199103
0.198197
0.197253
0.19627
0.195249
0.194188
0.193087
0.191945
0.190763
0.18954
0.188276
-3.36196
-3.30039
-3.26395
-3.2546
-3.25251
-3.27887
-3.55255
-4.44214
-7.04627
2.04361
0.958254
-0.1385
0.0515817
0.225292
0.232602
0.227335
0.227028
0.226693
0.226508
0.226354
0.225974
0.2255
0.224991
0.224494
0.224034
0.223622
0.223263
0.222951
0.222666
0.222376
0.22206
0.221718
0.22135
0.220954
0.220526
0.220059
0.219551
0.218997
0.218395
0.217741
0.217034
0.216273
0.215458
0.214589
0.213666
0.212692
0.211667
0.210591
0.209466
0.208291
8.03342
8.09166
8.17476
8.26787
8.37781
8.53553
8.74685
8.76257
7.83184
5.73703
-5.7796
-5.11374
-10.3404
-0.943278
-0.785399
-0.0219574
0.0492953
0.118292
0.160646
0.17209
0.18758
0.201023
0.209029
0.212071
0.210778
0.20868
0.208067
0.208269
0.208446
0.208304
0.207947
0.20755
0.20716
0.206744
0.206269
0.205728
0.205125
0.204467
0.203757
0.202999
0.202198
0.201361
0.200498
0.199614
0.19871
0.197774
0.1968
0.195784
0.194725
0.19362
7.45274
7.55624
7.67307
7.79269
7.91881
8.0558
8.20344
8.33948
8.41356
8.46317
8.28487
7.68931
6.94196
3.97624
4.36171
-2.84946
-7.9588
-6.06492
-1.38222
-0.230928
0.1641
0.183274
0.159561
0.161998
0.166744
0.172557
0.186507
0.213981
0.231205
0.228812
0.219691
0.215264
0.215072
0.215846
0.215987
0.215567
0.215051
0.214444
0.213643
0.212618
0.21139
0.20998
0.208423
0.206801
0.205096
0.203195
0.20142
0.199736
0.198093
0.196471
9.56553
9.66562
9.7712
9.8639
9.94487
10.0162
10.079
10.1323
10.1772
10.2152
10.255
10.3005
10.3697
10.3485
10.3268
10.1227
9.83768
9.8679
10.7975
11.6704
2.5036
1.61107
-1.48694
-5.43618
-4.20027
-0.198475
0.590081
0.750265
0.514234
0.208932
0.136376
0.166027
0.19793
0.201566
0.184561
0.170538
0.16704
0.167864
0.167901
0.167099
0.166918
0.166173
0.169934
0.17289
0.173587
0.17523
0.175419
0.175046
0.17448
0.173727
13.6566
13.6831
13.7136
13.7436
13.773
13.8021
13.8315
13.8601
13.8888
13.9169
13.9457
13.9744
14.004
14.033
14.0633
14.1048
14.1725
14.2739
14.3938
14.5513
14.6743
14.8426
15.0657
15.2379
15.132
14.5301
5.30031
2.5451
-3.01993
-3.84079
0.425846
1.51262
1.5278
0.76039
0.234242
0.218277
0.277243
0.278666
0.238103
0.204078
0.210963
0.233001
0.214537
0.186827
0.737417
0.186903
0.150422
0.137475
0.135776
0.135409
17.1452
17.133
17.1221
17.116
17.1143
17.1165
17.1223
17.1316
17.1446
17.1611
17.1815
17.205
17.2321
17.2628
17.2977
17.3353
17.3777
17.424
17.4733
17.5451
17.5975
17.6751
17.7798
17.9059
18.0274
18.1949
18.3594
18.5169
18.3912
16.417
14.6107
6.80111
2.83236
-2.56363
-1.0438
1.23103
2.18663
1.09624
0.204853
0.195274
0.206783
0.150357
0.122892
0.538929
0.347517
0.746438
0.102356
0.063158
0.0627224
0.0649636
19.6922
19.6705
19.648
19.6301
19.6166
19.6071
19.6011
19.5987
19.6003
19.605
19.6132
19.6249
19.6401
19.6611
19.6825
19.7103
19.7372
19.7693
19.8366
19.9041
19.8521
19.8986
19.9474
19.9986
20.0519
20.1088
20.1736
20.242
20.3104
20.3671
20.4655
20.5823
20.7501
20.7036
17.1039
15.6793
7.22116
-0.404099
0.228313
1.71825
2.32934
1.53639
0.953178
0.469643
0.382366
0.480058
0.426321
0.309625
0.201452
0.125097
22.0791
22.0451
22.0105
21.982
21.9591
21.9408
21.9269
21.9173
21.912
21.911
21.9142
21.9216
21.9333
21.9521
21.9723
21.9966
22.0242
22.0528
22.2278
22.1296
22.1793
22.2282
22.2818
22.3376
22.4003
22.4663
22.5363
22.6108
22.6897
22.7739
22.8658
22.9664
23.0627
23.1622
23.2573
23.4225
23.6667
23.927
20.4874
12.2648
6.52337
4.92073
5.24401
5.13766
4.12727
3.14353
2.46345
1.83896
1.28066
0.850987
23.234
23.2068
23.1781
23.1535
23.1328
23.1155
23.1011
23.0898
23.0815
23.0762
23.0739
23.0746
23.0782
23.087
23.0967
23.1118
23.1262
23.1393
23.2597
23.2226
23.2574
23.289
23.3232
23.3536
23.3956
23.4373
23.4835
23.5331
23.5857
23.6415
23.7003
23.7621
23.8267
23.8947
23.9675
24.0451
24.1148
24.1555
24.2011
24.2505
24.1957
22.2055
20.0974
18.7845
17.4716
15.679
13.3796
10.7202
8.04894
5.73511
24.0814
24.0638
24.045
24.0286
24.0146
24.0026
23.9922
23.9836
23.9767
23.9716
23.9681
23.9662
23.9658
23.9704
23.9733
23.984
23.9826
23.9865
23.9981
24.0086
23.8696
23.8855
23.8983
23.9108
23.9207
23.9371
23.9484
23.9624
23.9766
23.9909
24.0052
24.0194
24.0337
24.0478
24.0618
24.0757
24.0896
24.1043
24.1199
24.1317
24.136
24.142
24.1636
24.1934
24.1376
23.1062
22.8268
22.7369
21.954
19.9652
24.7683
24.758
24.7476
24.7391
24.7323
24.7268
24.7227
24.7199
24.7184
24.7183
24.7195
24.722
24.7258
24.7311
24.7395
24.7476
24.76
24.7702
24.7791
24.9764
24.881
24.8987
24.9186
24.9389
24.9604
24.9833
25.0074
25.0335
25.0613
25.0906
25.1215
25.1541
25.1882
25.2239
25.261
25.2997
25.3398
25.3811
25.4233
25.4667
25.5114
25.5586
25.6083
25.6532
25.6942
25.7312
25.7681
25.822
25.9049
25.95
24.9153
24.9165
24.9174
24.9185
24.9199
24.9216
24.9236
24.9259
24.9285
24.9315
24.9347
24.9382
24.942
24.946
24.9503
24.9562
24.9587
24.9667
24.9668
24.9713
24.9737
24.9988
24.9803
24.9872
24.9948
25.0028
25.0104
25.0182
25.0261
25.0342
25.0424
25.0507
25.0591
25.0677
25.0764
25.0851
25.0941
25.1033
25.1124
25.1218
25.1316
25.1417
25.1522
25.1749
25.1826
25.1951
25.2124
25.2297
25.2439
25.2561
25.5009
25.5081
25.5169
25.5258
25.5345
25.5432
25.552
25.5609
25.5699
25.579
25.5883
25.5976
25.6071
25.6166
25.6263
25.6361
25.6465
25.6566
25.6684
25.678
25.6879
25.6974
25.7048
25.7149
25.7255
25.7222
25.7329
25.7433
25.7536
25.7635
25.7731
25.7825
25.7917
25.8007
25.8093
25.8177
25.8257
25.8334
25.8408
25.8473
25.8536
25.8593
25.8643
25.868
25.8729
25.8759
25.8575
25.8588
25.8582
25.858
25.5438
25.5603
25.5778
25.594
25.6091
25.6236
25.6376
25.651
25.6639
25.6763
25.6881
25.6994
25.7102
25.7205
25.7303
25.7395
25.7483
25.7566
25.7643
25.7714
25.778
25.7842
25.7897
25.7946
25.7988
25.8018
25.8048
25.8077
25.8007
25.8022
25.8027
25.8023
25.8012
25.7991
25.7963
25.7924
25.7876
25.7818
25.7752
25.7669
25.7576
25.7471
25.7353
25.7219
25.7063
25.6886
25.6842
25.6389
25.6257
25.6129
26.2296
26.2482
26.2692
26.2892
26.3082
26.3265
26.3444
26.3617
26.3786
26.3949
26.4108
26.4262
26.4411
26.4556
26.4696
26.4831
26.4962
26.5088
26.521
26.5326
26.5438
26.5545
26.5648
26.5745
26.5838
26.5926
26.6009
26.6087
26.6159
26.6226
26.6288
26.6346
26.6392
26.6437
26.6477
26.651
26.6537
26.6556
26.6569
26.6574
26.6573
26.6563
26.6545
26.6514
26.6474
26.6445
26.6922
26.6931
26.6761
26.3733
26.5485
26.5689
26.591
26.6119
26.6317
26.651
26.6698
26.6881
26.706
26.7234
26.7403
26.7567
26.7728
26.7883
26.8034
26.8181
26.8323
26.8461
26.8595
26.8725
26.8851
26.8972
26.909
26.9204
26.9314
26.9421
26.9524
26.9624
26.9721
26.9815
26.9905
26.9993
27.0078
27.016
27.024
27.0317
27.0393
27.0466
27.0537
27.0606
27.0674
27.0738
27.0797
27.0859
27.0977
27.1266
27.1543
26.8562
25.0706
21.7758
0.107192
0.104514
0.101888
0.0993134
0.0967913
0.0943218
0.091905
0.0895409
0.0872291
0.0849695
0.0827615
0.0806047
0.0784984
0.0764419
0.0744345
0.0724754
0.0705639
0.0686989
0.0668796
0.065105
0.0633741
0.0616859
0.0600394
0.0584334
0.056867
0.055339
0.0538484
0.052394
0.0509748
0.0495898
0.0482379
0.0469181
0.0456294
0.0443707
0.0431413
0.04194
0.040766
0.0396184
0.0384961
0.0373982
0.0363236
0.0352712
0.0342397
0.0332282
0.0322362
0.0312628
0.0303054
0.0293602
0.0284286
0.0275249
0.120786
0.11966
0.118511
0.117341
0.116149
0.114936
0.113704
0.112452
0.111183
0.109896
0.108592
0.107272
0.105936
0.104586
0.103222
0.101845
0.100456
0.0990553
0.0976441
0.0962231
0.0947932
0.0933552
0.0919102
0.0904587
0.0890014
0.0875392
0.0860726
0.0846023
0.0831289
0.0816531
0.0801756
0.078697
0.077218
0.0757395
0.0742622
0.0727872
0.0713153
0.0698475
0.0683847
0.0669277
0.0654771
0.0640333
0.0625968
0.0611682
0.0597467
0.0583308
0.0569219
0.0555285
0.0541549
0.0527781
0.191674
0.189722
0.187749
0.185755
0.183743
0.181711
0.179662
0.177596
0.175514
0.173416
0.171303
0.169176
0.167036
0.164884
0.16272
0.160545
0.15836
0.156166
0.153963
0.151752
0.149534
0.147309
0.145078
0.142842
0.140602
0.138358
0.136111
0.133863
0.131613
0.129363
0.127112
0.124863
0.122615
0.120369
0.118126
0.115886
0.11365
0.111419
0.109194
0.106974
0.104761
0.102555
0.100356
0.0981647
0.0959829
0.0938175
0.0916698
0.0895196
0.0873681
0.0852356
0.186971
0.185627
0.184242
0.182818
0.181354
0.179852
0.178312
0.176735
0.175121
0.173471
0.171786
0.170067
0.168314
0.166528
0.16471
0.162862
0.160982
0.159073
0.157136
0.155171
0.15317
0.151132
0.149082
0.14702
0.144942
0.142847
0.140737
0.138611
0.13647
0.134315
0.132147
0.129966
0.127773
0.12557
0.123356
0.121133
0.118902
0.116664
0.114419
0.112168
0.109911
0.107651
0.105386
0.10312
0.100851
0.0985728
0.0962865
0.0940141
0.091756
0.089493
0.207067
0.205793
0.204471
0.2031
0.20168
0.200212
0.198695
0.197131
0.195519
0.193861
0.192157
0.190408
0.188615
0.186779
0.184901
0.182982
0.181024
0.179027
0.176992
0.174922
0.172824
0.1707
0.16853
0.166323
0.164083
0.161812
0.159512
0.157184
0.154829
0.15245
0.150048
0.147624
0.145181
0.142718
0.140239
0.137743
0.135233
0.13271
0.130175
0.12763
0.125075
0.122512
0.119941
0.117365
0.114784
0.1122
0.109612
0.107018
0.10442
0.101834
0.192466
0.191262
0.190007
0.1887
0.187342
0.185934
0.184477
0.182973
0.181422
0.179828
0.178189
0.176508
0.174786
0.173024
0.171221
0.16938
0.167501
0.165585
0.163633
0.161646
0.159625
0.157571
0.155486
0.15337
0.151225
0.149051
0.146849
0.14462
0.142365
0.140085
0.137781
0.135455
0.133107
0.130738
0.12835
0.125943
0.123518
0.121077
0.118621
0.116149
0.113665
0.111167
0.108659
0.10614
0.103611
0.101073
0.0985267
0.0959769
0.0934257
0.0908623
0.194861
0.193255
0.191647
0.190033
0.188407
0.186765
0.185101
0.18341
0.181687
0.179929
0.178132
0.176295
0.174417
0.172497
0.170537
0.168537
0.166498
0.164421
0.162306
0.160156
0.15797
0.155751
0.153499
0.151216
0.148902
0.14656
0.14419
0.141794
0.139373
0.136928
0.134461
0.131972
0.129463
0.126935
0.12439
0.121827
0.11925
0.116658
0.114052
0.111435
0.108806
0.106167
0.10352
0.100864
0.0982014
0.095533
0.0928591
0.0901794
0.0874947
0.0848157
0.172821
0.171745
0.170507
0.16912
0.167601
0.16597
0.164244
0.162438
0.160566
0.158638
0.156663
0.154647
0.152596
0.150514
0.148403
0.146267
0.144106
0.141921
0.139713
0.137483
0.135232
0.132961
0.130669
0.128359
0.126029
0.123682
0.121317
0.118935
0.116535
0.11412
0.111689
0.109243
0.106782
0.104307
0.101818
0.0993163
0.0968022
0.0942765
0.0917396
0.0891923
0.0866351
0.0840688
0.0814941
0.0789117
0.0763223
0.0737264
0.0711249
0.0685194
0.065911
0.0632965
0.134363
0.133059
0.131276
0.130035
0.128955
0.127925
0.126917
0.125899
0.124848
0.123747
0.122571
0.121312
0.120295
0.11868
0.117214
0.115689
0.114098
0.112447
0.110739
0.108976
0.10716
0.105296
0.103384
0.101428
0.0994299
0.0973917
0.0953161
0.0932054
0.0910619
0.0888877
0.0866846
0.0844544
0.082199
0.0799199
0.0776188
0.0752973
0.0729566
0.0705983
0.0682236
0.0658338
0.0634302
0.0610138
0.0585859
0.0561474
0.0536997
0.0512437
0.0487803
0.0463096
0.0438331
0.0413571
0.0664032
0.0668977
0.0672085
0.0676266
0.0681061
0.068482
0.0686666
0.068697
0.0686052
0.068428
0.068174
0.06782
0.0673884
0.068294
0.0665645
0.0659106
0.0651707
0.064334
0.0634179
0.0624297
0.0613713
0.0602447
0.0590525
0.0577978
0.0564831
0.0551108
0.0536831
0.0522021
0.0506699
0.0490887
0.047461
0.0457888
0.0440744
0.0423196
0.0405264
0.0386968
0.0368325
0.0349354
0.0330073
0.0310499
0.0290647
0.0270535
0.0250178
0.0229591
0.0208789
0.0187787
0.0166599
0.0145242
0.0123727
0.0102057
0.0830169
0.0630266
0.0524201
0.0454703
0.0408088
0.0380628
0.0366769
0.03593
0.0352718
0.0346869
0.0339837
0.0323086
0.0323353
0.0313074
0.0302047
0.0292024
0.0282237
0.0272271
0.0262053
0.0251554
0.0240733
0.0229563
0.0218031
0.0206137
0.0193882
0.0181272
0.0168312
0.0155011
0.0141378
0.0127418
0.0113138
0.00985447
0.00836467
0.00684521
0.00529698
0.00372095
0.00211793
0.000488678
-0.00116592
-0.0028449
-0.00454729
-0.00627208
-0.00801827
-0.00978484
-0.0115708
-0.0133751
-0.0151967
-0.0170348
-0.0188879
-0.0207533
0.541762
0.314381
0.154951
0.0631815
0.0208053
0.00183812
-0.00914861
-0.0167514
-0.0215131
-0.023796
-0.0245962
-0.0249792
-0.0255174
-0.0260702
-0.0264779
-0.0267131
-0.0268368
-0.0269164
-0.0269885
-0.0270763
-0.0271988
-0.0273704
-0.0276003
-0.0278939
-0.0282534
-0.0286793
-0.0291706
-0.0297259
-0.0303431
-0.03102
-0.0317545
-0.0325442
-0.0333872
-0.0342814
-0.0352248
-0.0362155
-0.0372517
-0.0383314
-0.0394528
-0.0406142
-0.0418137
-0.0430498
-0.0443209
-0.0456254
-0.0469617
-0.0483282
-0.0497234
-0.0511457
-0.0525938
-0.0540658
3.88679
2.44151
1.3851
0.700177
0.319994
0.135616
0.0453554
-0.00795903
-0.0408041
-0.0605254
-0.0717274
-0.0773541
-0.0796067
-0.0802271
-0.0803179
-0.0802253
-0.0799452
-0.0794841
-0.0788921
-0.0782279
-0.0775401
-0.0768657
-0.076233
-0.0756623
-0.0751669
-0.0747546
-0.074429
-0.0741906
-0.0740384
-0.07397
-0.0739827
-0.0740733
-0.0742386
-0.0744754
-0.0747808
-0.0751517
-0.0755854
-0.0760793
-0.0766308
-0.0772374
-0.0778969
-0.0786068
-0.079365
-0.0801692
-0.0810174
-0.0819075
-0.0828374
-0.0838053
-0.0848091
-0.0858464
16.7269
12.5046
8.16792
4.40477
1.66381
0.506129
0.162455
0.034677
-0.0322272
-0.0739045
-0.0989165
-0.113259
-0.121188
-0.125013
-0.126326
-0.126303
-0.125664
-0.124726
-0.12361
-0.122366
-0.12104
-0.119684
-0.118342
-0.117047
-0.115825
-0.114693
-0.113662
-0.112736
-0.111917
-0.111204
-0.110594
-0.110084
-0.10967
-0.109348
-0.109114
-0.108963
-0.108892
-0.108897
-0.108975
-0.109122
-0.109335
-0.109611
-0.109947
-0.11034
-0.110788
-0.111288
-0.111837
-0.112434
-0.113076
-0.11376
25.2322
24.7294
23.5676
19.8335
11.0548
2.97853
0.341437
-0.0382204
-0.0932138
-0.115263
-0.128918
-0.137333
-0.14205
-0.144708
-0.146011
-0.146388
-0.146177
-0.145616
-0.14484
-0.143933
-0.142938
-0.141885
-0.140807
-0.139734
-0.138692
-0.137702
-0.136776
-0.135925
-0.135154
-0.134466
-0.13386
-0.133337
-0.132893
-0.132527
-0.132236
-0.132017
-0.131867
-0.131784
-0.131764
-0.131806
-0.131906
-0.132063
-0.132274
-0.132536
-0.132848
-0.133207
-0.133612
-0.134059
-0.134548
-0.135076
25.2681
25.2867
25.3008
25.2182
23.6542
14.2729
2.28503
-0.00640138
-0.127646
-0.138228
-0.142022
-0.144383
-0.146687
-0.148835
-0.150005
-0.150394
-0.150393
-0.15011
-0.149722
-0.149277
-0.148794
-0.148285
-0.147765
-0.147251
-0.146756
-0.146295
-0.145875
-0.145504
-0.145186
-0.144922
-0.144713
-0.144558
-0.144456
-0.144406
-0.144406
-0.144455
-0.14455
-0.144691
-0.144875
-0.145101
-0.145367
-0.145673
-0.146016
-0.146395
-0.146809
-0.147256
-0.147736
-0.148247
-0.148787
-0.149356
25.8597
25.8563
25.8193
25.7055
23.9915
14.2075
2.35992
-0.0338387
-0.160532
-0.164517
-0.152606
-0.151335
-0.138615
-0.14141
-0.147676
-0.14818
-0.148157
-0.148043
-0.147897
-0.147731
-0.14756
-0.147397
-0.147258
-0.147153
-0.147091
-0.147078
-0.147116
-0.147208
-0.14735
-0.147541
-0.147777
-0.148054
-0.14837
-0.148722
-0.149106
-0.14952
-0.149962
-0.150431
-0.150926
-0.151444
-0.151985
-0.152548
-0.153133
-0.153738
-0.154362
-0.155006
-0.155668
-0.156347
-0.157044
-0.157756
25.5594
25.3417
24.3475
21.4005
9.33913
1.06091
-0.102464
-0.147124
-0.149499
-0.151097
-0.151926
-0.141248
-0.153993
-0.134769
-0.137447
-0.140755
-0.141032
-0.141005
-0.141059
-0.141137
-0.141241
-0.141381
-0.141572
-0.141828
-0.142156
-0.142559
-0.143036
-0.143582
-0.144191
-0.144855
-0.145565
-0.146313
-0.147092
-0.147896
-0.148718
-0.149554
-0.150401
-0.151256
-0.152118
-0.152985
-0.153855
-0.15473
-0.155607
-0.156488
-0.157373
-0.15826
-0.15915
-0.160044
-0.160941
-0.161841
25.0353
22.2341
12.6712
1.51947
-0.218484
-0.137582
-0.136432
-0.139148
-0.140869
-0.140995
-0.141013
-0.139721
-0.139312
-0.13896
-0.138162
-0.135067
-0.138003
-0.138056
-0.138168
-0.138029
-0.137889
-0.137846
-0.137912
-0.13809
-0.13838
-0.138783
-0.139296
-0.139913
-0.140625
-0.141422
-0.142294
-0.143228
-0.144213
-0.145239
-0.146297
-0.147377
-0.148472
-0.149578
-0.150689
-0.151802
-0.152914
-0.154023
-0.155128
-0.156228
-0.157323
-0.158412
-0.159495
-0.160572
-0.161643
-0.162708
12.2296
0.762534
-0.423031
-0.100403
-0.127146
-0.134926
-0.135128
-0.134851
-0.134799
-0.134659
-0.134525
-0.134302
-0.133848
-0.133471
-0.133115
-0.132433
-0.130732
-0.130209
-0.141703
-0.142065
-0.141898
-0.141636
-0.141438
-0.141319
-0.141287
-0.141351
-0.141514
-0.141782
-0.142156
-0.142631
-0.143202
-0.143861
-0.144602
-0.145415
-0.146291
-0.147221
-0.148197
-0.149209
-0.150251
-0.151316
-0.152399
-0.153495
-0.1546
-0.155711
-0.156824
-0.157938
-0.159052
-0.160165
-0.161275
-0.162381
0.0268701
0.0264067
0.0259415
0.0254768
0.0250127
0.0245493
0.0240864
0.0236243
0.0231627
0.0227018
0.0222415
0.0217818
0.0213226
0.0208639
0.0204056
0.0199478
0.0194905
0.0190336
0.0185773
0.0181216
0.0176666
0.0172126
0.0167595
0.0163077
0.0158573
0.0154086
0.0149617
0.0145169
0.0140746
0.0136349
0.0131982
0.0127649
0.0123353
0.0119099
0.0114893
0.0110739
0.0106644
0.0102615
0.00986583
0.00947823
0.00909954
0.00873038
0.00837147
0.00802352
0.00768847
0.00736722
0.00706063
0.00676955
0.00649514
0.00623283
0.00599633
0.00578424
0.00557534
0.00536901
0.00518441
0.00500906
0.00482226
0.00462163
0.00436961
0.00409606
0.00378559
0.00344083
0.00303451
0.00262912
0.0022303
0.00181858
0.00139174
0.000970034
0.000506343
8.44447e-05
-0.000256323
-0.000504987
-0.000649182
-0.000725484
-0.000872779
-0.0013137
-0.00276699
-0.00470207
-0.00683546
-0.0088934
-0.0108366
-0.0126728
-0.0144293
-0.0164235
-0.0186624
-0.017955
-0.0172557
-0.0166379
-0.0161198
-0.0157109
-0.0154115
-0.0151996
-0.0153672
-0.0164276
-0.0182158
-0.019937
-0.0215774
-0.0233983
-0.025213
-0.0269503
-0.0287772
-0.0306531
-0.0326398
-0.0347141
-0.037229
-0.0401844
-0.0393009
-0.0384466
-0.0376157
-0.0370396
-0.0369722
-0.0384974
-0.0413455
-0.0395369
-0.0375946
-0.0364291
-0.037019
-0.0381898
-0.039559
-0.0410161
-0.0437385
-0.0463496
-0.0498956
-0.0532048
-0.0567345
-0.0609695
-0.0671208
-0.0680757
-0.0694109
-0.0717382
-0.0763124
-0.0821692
-0.0828257
-0.0846017
-0.0887156
-0.0936
-0.100778
-0.102448
-0.105814
-0.103886
-0.103071
-0.104516
-0.109314
-0.108409
-0.108407
-0.109983
-0.105688
-0.103986
-0.104397
-0.106576
-0.109984
-0.116707
-0.116829
-0.119069
-0.114652
-0.111533
-0.111066
-0.114657
-0.111082
-0.109277
-0.11077
-0.113116
-0.117157
-0.124912
-0.123976
-0.125981
-0.13276
-0.131591
-0.132685
-0.13888
-0.136741
-0.135839
-0.137537
-0.142707
-0.154494
-0.158522
-0.154099
-0.151526
-0.151991
-0.156362
-0.167971
-0.171255
-0.165446
-0.163185
-0.167999
-0.179677
-0.181098
-0.172409
-0.171619
-0.160642
-0.152478
-0.151913
-0.154115
-0.160621
-0.156146
-0.155484
-0.162774
-0.158219
-0.156284
-0.163203
-0.178725
-0.181621
-0.188677
-0.183931
-0.189328
-0.182631
-0.180851
-0.189859
-0.185883
-0.185972
-0.173038
-0.170086
-0.170383
-0.179639
-0.173639
-0.17177
-0.180833
-0.201012
-0.207368
-0.221004
-0.221891
-0.209376
-0.210685
-0.197843
-0.192993
-0.202148
-0.195785
-0.196658
-0.205965
-0.201567
-0.205607
-0.194794
-0.192805
-0.206186
-0.202615
-0.180497
-0.167061
-0.167541
-0.147913
-0.131871
-0.126379
-0.122649
-0.1282
-0.133107
-0.148144
-0.174224
-0.177237
-0.188675
-0.181274
-0.190304
-0.177566
-0.173059
-0.185087
-0.175636
-0.175723
-0.15362
-0.146619
-0.15353
-0.134059
-0.115923
-0.102897
-0.100967
-0.102407
-0.114678
-0.127601
-0.148074
-0.179803
-0.189582
-0.177284
-0.173028
-0.188824
-0.179667
-0.183067
-0.16221
-0.14931
-0.156217
-0.134863
-0.121608
-0.125023
-0.136683
-0.117137
-0.104539
-0.106027
-0.110079
-0.131194
-0.118445
-0.107839
-0.101857
-0.104601
-0.126717
-0.114166
-0.104828
-0.10231
-0.108328
-0.132702
-0.119025
-0.111816
-0.116075
-0.14143
-0.130214
0.0516882
0.0509269
0.0501657
0.0494042
0.048642
0.0478794
0.0471165
0.0463534
0.0455901
0.0448267
0.0440632
0.0432994
0.0425353
0.0417707
0.0410054
0.0402393
0.0394722
0.038704
0.0379345
0.0371636
0.0363913
0.0356178
0.034843
0.0340661
0.033286
0.0325043
0.0317228
0.0309404
0.0301568
0.0293717
0.0285849
0.0277962
0.0270052
0.0262118
0.0254156
0.0246165
0.0238142
0.0230083
0.0221987
0.0213848
0.0205663
0.0197429
0.0189142
0.01808
0.017239
0.0163906
0.0155346
0.0146704
0.0137975
0.0129149
0.0120276
0.0111167
0.0101956
0.00928803
0.00835231
0.00738107
0.00642829
0.005491
0.00454513
0.0035944
0.00267764
0.00176581
0.000842323
-8.55151e-05
-0.00100455
-0.00194428
-0.00290292
-0.00386563
-0.00483839
-0.00583589
-0.00688764
-0.00803508
-0.00922949
-0.0104655
-0.0117458
-0.0130088
-0.0139546
-0.0147594
-0.0156322
-0.0165654
-0.0176058
-0.0187465
-0.0199702
-0.0212659
-0.0223088
-0.0234395
-0.0246087
-0.0258201
-0.0269952
-0.0281736
-0.029448
-0.0307475
-0.0319225
-0.0328857
-0.0338409
-0.0349067
-0.0359868
-0.03715
-0.0383847
-0.0396846
-0.0410952
-0.0425534
-0.0440865
-0.0457119
-0.0474084
-0.048825
-0.0503785
-0.0519848
-0.0537051
-0.0554925
-0.0572174
-0.0587566
-0.0599172
-0.0614191
-0.0630303
-0.064654
-0.0659431
-0.0671684
-0.0685946
-0.0700504
-0.0715534
-0.0731962
-0.0749106
-0.0769079
-0.0791356
-0.0814284
-0.0832393
-0.0854125
-0.0876592
-0.0898105
-0.0918559
-0.0936792
-0.0957096
-0.0976235
-0.0994471
-0.101299
-0.10304
-0.104953
-0.106462
-0.108239
-0.109969
-0.111596
-0.112573
-0.113841
-0.115154
-0.116696
-0.118387
-0.119672
-0.120751
-0.122164
-0.123582
-0.124804
-0.126329
-0.127402
-0.128841
-0.130376
-0.131898
-0.132642
-0.133748
-0.134772
-0.135803
-0.137361
-0.138909
-0.140394
-0.142287
-0.14418
-0.145188
-0.146796
-0.148455
-0.149082
-0.150353
-0.152023
-0.154121
-0.156299
-0.15727
-0.15811
-0.159357
-0.161053
-0.163081
-0.165261
-0.166297
-0.167295
-0.168907
-0.170512
-0.171195
-0.170575
-0.171248
-0.172309
-0.171607
-0.171894
-0.172752
-0.172789
-0.173001
-0.173467
-0.174661
-0.176598
-0.176662
-0.178088
-0.180456
-0.181389
-0.180384
-0.180632
-0.182024
-0.184097
-0.18354
-0.184225
-0.185641
-0.184314
-0.184163
-0.185153
-0.186904
-0.187002
-0.188333
-0.188333
-0.190091
-0.192948
-0.194125
-0.192924
-0.193338
-0.193343
-0.194536
-0.196103
-0.194501
-0.194351
-0.194554
-0.191396
-0.189874
-0.189009
-0.187413
-0.186918
-0.185562
-0.185523
-0.185426
-0.181242
-0.178915
-0.177593
-0.176359
-0.17157
-0.169499
-0.168639
-0.16649
-0.166141
-0.165162
-0.166923
-0.167064
-0.166337
-0.167582
-0.168373
-0.170475
-0.168312
-0.167973
-0.168132
-0.164683
-0.163259
-0.161423
-0.161052
-0.157625
-0.151671
-0.148706
-0.147501
-0.147267
-0.145807
-0.145611
-0.144961
-0.146772
-0.149359
-0.15099
-0.15193
-0.153968
-0.15575
-0.154049
-0.152964
-0.150705
-0.149988
-0.149775
-0.145235
-0.142845
-0.140727
-0.136292
-0.132051
-0.130123
-0.128401
-0.12602
-0.125867
-0.121427
-0.119335
-0.118807
-0.119599
-0.120976
-0.117527
-0.116188
-0.116096
-0.116784
-0.117364
-0.115902
-0.116036
-0.116977
-0.117933
-0.114525
-0.112722
0.0836361
0.0825188
0.0813966
0.0802705
0.0791409
0.0780076
0.076871
0.0757309
0.0745876
0.073441
0.0722913
0.0711385
0.0699827
0.068824
0.0676624
0.0664981
0.0653311
0.0641615
0.0629895
0.061815
0.0606382
0.0594592
0.0582779
0.0570952
0.0559123
0.0547276
0.0535399
0.0523501
0.0511585
0.0499652
0.0487703
0.0475739
0.0463762
0.0451772
0.043977
0.0427759
0.0415738
0.0403709
0.0391673
0.037963
0.0367582
0.0355529
0.0343472
0.0331411
0.0319345
0.0307276
0.0295202
0.0283123
0.0271036
0.0258942
0.0246837
0.0234717
0.0222579
0.021042
0.0198234
0.0186016
0.0173764
0.0161474
0.014914
0.013676
0.0124332
0.0111854
0.00993233
0.00867356
0.00740889
0.00613812
0.00486116
0.00357812
0.00228895
0.000993793
-0.000307335
-0.00161439
-0.00292678
-0.00424312
-0.00556138
-0.00687825
-0.00819058
-0.00949773
-0.010801
-0.0121021
-0.0134026
-0.0147035
-0.0160053
-0.0173075
-0.0186098
-0.0199139
-0.0212224
-0.022537
-0.0238587
-0.0251887
-0.0265284
-0.0278781
-0.0292366
-0.0306033
-0.0319796
-0.0333676
-0.034768
-0.0361817
-0.0376094
-0.0390516
-0.0405094
-0.0419829
-0.0434722
-0.0449764
-0.0464933
-0.0480205
-0.0495586
-0.0511091
-0.0526722
-0.0542458
-0.0558259
-0.0574086
-0.0589925
-0.0605803
-0.0621717
-0.0637637
-0.0653543
-0.0669466
-0.068546
-0.0701567
-0.0717815
-0.0734232
-0.0750833
-0.0767636
-0.0784615
-0.0801706
-0.0818846
-0.0836041
-0.085327
-0.0870479
-0.0887627
-0.0904698
-0.0921698
-0.0938618
-0.0955448
-0.097218
-0.0988789
-0.100526
-0.102157
-0.103772
-0.105371
-0.106949
-0.108504
-0.110042
-0.111567
-0.113082
-0.114584
-0.11607
-0.11754
-0.118999
-0.120449
-0.121889
-0.12332
-0.124738
-0.126151
-0.127559
-0.128958
-0.130344
-0.131728
-0.133113
-0.134504
-0.135907
-0.137318
-0.138737
-0.140163
-0.141588
-0.143001
-0.144409
-0.145806
-0.147186
-0.148563
-0.149943
-0.151319
-0.152674
-0.153992
-0.155278
-0.156549
-0.157811
-0.15906
-0.160278
-0.161445
-0.162567
-0.163654
-0.164699
-0.165687
-0.16662
-0.167522
-0.168395
-0.169229
-0.170053
-0.170871
-0.171676
-0.172472
-0.173267
-0.174072
-0.17488
-0.175672
-0.176468
-0.177256
-0.178001
-0.178694
-0.179373
-0.180048
-0.180702
-0.181303
-0.181877
-0.182418
-0.182904
-0.183381
-0.183871
-0.184372
-0.184862
-0.185353
-0.185835
-0.186323
-0.186786
-0.187162
-0.187424
-0.18761
-0.187721
-0.187759
-0.187692
-0.187475
-0.187149
-0.186705
-0.18609
-0.185433
-0.184773
-0.184063
-0.183311
-0.182516
-0.181691
-0.180791
-0.179769
-0.178716
-0.177661
-0.176582
-0.175456
-0.174382
-0.173384
-0.172461
-0.171646
-0.170927
-0.17031
-0.169731
-0.169182
-0.168671
-0.168135
-0.167534
-0.166788
-0.165958
-0.165021
-0.163931
-0.162772
-0.161543
-0.160254
-0.158855
-0.1574
-0.156052
-0.154874
-0.153864
-0.152995
-0.152285
-0.151724
-0.151326
-0.151007
-0.150661
-0.150248
-0.149775
-0.149182
-0.148402
-0.147467
-0.146361
-0.145134
-0.143759
-0.142186
-0.14054
-0.138822
-0.137019
-0.135198
-0.133452
-0.131771
-0.130146
-0.128584
-0.127002
-0.125556
-0.124298
-0.123193
-0.12213
-0.120992
-0.119931
-0.118995
-0.118148
-0.117312
-0.11646
-0.115669
-0.114878
-0.113889
-0.112513
-0.111079
0.0877286
0.0864954
0.0852583
0.0840161
0.0827686
0.0815157
0.0802576
0.0789942
0.0777257
0.0764522
0.0751735
0.0738899
0.0726014
0.0713081
0.0700099
0.068707
0.0673994
0.0660872
0.0647704
0.063449
0.0621233
0.0607931
0.0594585
0.0581197
0.0567766
0.0554293
0.0540779
0.0527224
0.0513628
0.0499992
0.0486317
0.0472602
0.0458847
0.0445054
0.0431222
0.0417352
0.0403443
0.0389497
0.0375513
0.036149
0.0347431
0.0333333
0.0319198
0.0305026
0.0290816
0.0276568
0.0262283
0.0247961
0.0233601
0.0219204
0.0204769
0.0190298
0.0175791
0.0161248
0.0146669
0.0132057
0.0117411
0.0102732
0.00880218
0.00732802
0.00585077
0.00437041
0.00288698
0.00140051
-8.89845e-05
-0.0015815
-0.003077
-0.00457549
-0.00607695
-0.00758132
-0.00908856
-0.0105985
-0.0121109
-0.0136258
-0.015143
-0.0166625
-0.0181845
-0.0197089
-0.0212358
-0.0227652
-0.024297
-0.0258313
-0.0273679
-0.028907
-0.0304486
-0.0319926
-0.033539
-0.0350877
-0.0366388
-0.0381923
-0.0397483
-0.0413068
-0.0428681
-0.0444324
-0.0460001
-0.0475712
-0.0491461
-0.0507248
-0.0523076
-0.0538944
-0.0554853
-0.0570801
-0.0586786
-0.0602807
-0.0618862
-0.0634948
-0.0651063
-0.0667201
-0.0683358
-0.0699529
-0.0715711
-0.0731905
-0.0748107
-0.0764312
-0.078052
-0.079673
-0.0812943
-0.0829155
-0.0845364
-0.0861571
-0.0877776
-0.0893976
-0.0910172
-0.0926359
-0.0942531
-0.0958686
-0.0974819
-0.0990923
-0.100699
-0.102301
-0.103898
-0.105489
-0.107074
-0.108651
-0.110221
-0.111782
-0.113334
-0.114877
-0.116409
-0.117932
-0.119443
-0.120943
-0.122432
-0.12391
-0.125376
-0.126831
-0.128274
-0.129705
-0.131124
-0.132531
-0.133927
-0.135311
-0.136684
-0.138046
-0.139397
-0.140737
-0.142066
-0.143385
-0.144693
-0.145991
-0.147279
-0.148558
-0.149828
-0.151088
-0.152337
-0.153574
-0.1548
-0.156013
-0.157213
-0.158399
-0.159571
-0.160726
-0.161865
-0.162986
-0.164089
-0.165173
-0.166236
-0.167278
-0.168298
-0.169295
-0.170268
-0.171217
-0.17214
-0.173036
-0.173906
-0.174751
-0.175571
-0.176366
-0.177138
-0.177887
-0.178612
-0.179315
-0.179997
-0.180657
-0.181296
-0.181913