/*--------------------------------*- C++ -*----------------------------------*\
| =========                 |                                                 |
| \\      /  F ield         | OpenFOAM: The Open Source CFD Toolbox           |
|  \\    /   O peration     | Version:  2.4.0                                 |
|   \\  /    A nd           | Web:      www.OpenFOAM.org                      |
|    \\/     M anipulation  |                                                 |
\*---------------------------------------------------------------------------*/
FoamFile
{
    version     2.0;
    format      ascii;
    class       volVectorField;
    location    "3.6";
    object      U;
}
// * * * * * * * * * * * * * * * * * * * * * * * * * * * * * * * * * * * * * //

dimensions      [0 1 -1 0 0 0 0];

internalField   nonuniform List<vector> 
8000
(
(4.13031e-08 -0.000206835 0)
(5.99175e-07 -0.000600692 0)
(1.91007e-06 -0.000975009 0)
(4.09365e-06 -0.00132992 0)
(7.14021e-06 -0.00166545 0)
(1.12237e-05 -0.00198172 0)
(1.62651e-05 -0.0022788 0)
(2.24769e-05 -0.00255682 0)
(2.97071e-05 -0.00281581 0)
(3.8221e-05 -0.00305591 0)
(4.77944e-05 -0.00327714 0)
(5.87596e-05 -0.00347961 0)
(7.08285e-05 -0.00366335 0)
(8.44146e-05 -0.00382848 0)
(9.90639e-05 -0.00397497 0)
(0.000115293 -0.00410297 0)
(0.000132424 -0.00421242 0)
(0.00015282 -0.00430357 0)
(0.000178571 -0.00437666 0)
(0.000209192 -0.00443134 0)
(0.000212015 -0.00446509 0)
(0.000102913 -0.00447752 0)
(-7.30443e-05 -0.00447581 0)
(-0.000141884 -0.00447194 0)
(-0.000130546 -0.00446947 0)
(-6.85967e-05 -0.00536158 0)
(-0.000156116 -0.00711129 0)
(-0.000203676 -0.00877855 0)
(-0.000227116 -0.0103756 0)
(-0.000234962 -0.0119045 0)
(-0.000231811 -0.0133647 0)
(-0.00021925 -0.014756 0)
(-0.000198606 -0.0160779 0)
(-0.000171367 -0.0173292 0)
(-0.000139032 -0.0185088 0)
(-0.000102991 -0.0196156 0)
(-6.44939e-05 -0.0206487 0)
(-2.46475e-05 -0.0216076 0)
(1.55804e-05 -0.0224925 0)
(5.53563e-05 -0.0233037 0)
(9.39746e-05 -0.0240424 0)
(0.000130849 -0.0247099 0)
(0.000165503 -0.0253081 0)
(0.000197556 -0.0258392 0)
(0.00022672 -0.0263056 0)
(0.000252783 -0.0267099 0)
(0.000275604 -0.0270551 0)
(0.000295102 -0.027344 0)
(0.00031125 -0.0275795 0)
(0.000324068 -0.0277648 0)
(-6.59605e-09 -0.000205762 0)
(2.96051e-07 -0.000599876 0)
(1.10406e-06 -0.000976413 0)
(2.46231e-06 -0.00133519 0)
(4.45054e-06 -0.0016761 0)
(7.06122e-06 -0.00199903 0)
(1.03927e-05 -0.00230394 0)
(1.43989e-05 -0.00259076 0)
(1.91987e-05 -0.00285952 0)
(2.47042e-05 -0.00311016 0)
(3.10568e-05 -0.00334277 0)
(3.81285e-05 -0.00355734 0)
(4.60876e-05 -0.003754 0)
(5.47676e-05 -0.00393279 0)
(6.43743e-05 -0.0040939 0)
(7.4618e-05 -0.00423742 0)
(8.5723e-05 -0.00436359 0)
(9.7354e-05 -0.00447255 0)
(0.000111097 -0.00456479 0)
(0.000129031 -0.00464069 0)
(0.000149115 -0.00470074 0)
(0.000142635 -0.00474267 0)
(4.91535e-05 -0.00476022 0)
(-0.000101875 -0.00476696 0)
(-0.000185843 -0.00477588 0)
(-0.000194422 -0.00482025 0)
(-0.000151579 -0.00673827 0)
(-0.000144041 -0.00857859 0)
(-0.000130423 -0.0103333 0)
(-0.000102702 -0.0120049 0)
(-6.38796e-05 -0.0135892 0)
(-1.80172e-05 -0.015083 0)
(3.20902e-05 -0.0164849 0)
(8.44102e-05 -0.0177946 0)
(0.000137277 -0.0190124 0)
(0.000189304 -0.0201392 0)
(0.00023938 -0.0211765 0)
(0.00028665 -0.0221263 0)
(0.000330475 -0.0229909 0)
(0.000370398 -0.023773 0)
(0.000406104 -0.0244755 0)
(0.000437397 -0.0251017 0)
(0.000464172 -0.0256547 0)
(0.000486398 -0.026138 0)
(0.000504107 -0.0265553 0)
(0.000517376 -0.0269099 0)
(0.000526327 -0.0272054 0)
(0.000531115 -0.0274455 0)
(0.000531923 -0.0276336 0)
(0.000528959 -0.0277732 0)
(1.44338e-07 -0.000211748 0)
(1.09259e-06 -0.000617299 0)
(2.8861e-06 -0.00100483 0)
(5.47424e-06 -0.00137422 0)
(8.78747e-06 -0.00172541 0)
(1.28106e-05 -0.00205834 0)
(1.74937e-05 -0.00237294 0)
(2.28399e-05 -0.00266916 0)
(2.87869e-05 -0.00294698 0)
(3.534e-05 -0.00320635 0)
(4.24168e-05 -0.00344724 0)
(5.0018e-05 -0.00366964 0)
(5.80337e-05 -0.00387354 0)
(6.64516e-05 -0.00405894 0)
(7.51251e-05 -0.00422585 0)
(8.40126e-05 -0.00437429 0)
(9.28984e-05 -0.0045043 0)
(0.000101688 -0.00461593 0)
(0.000110201 -0.00470921 0)
(0.000118707 -0.00478425 0)
(0.000127321 -0.00484132 0)
(0.000133695 -0.00488107 0)
(0.000129819 -0.004904 0)
(9.72974e-05 -0.00491028 0)
(1.68202e-06 -0.00491266 0)
(-7.76519e-05 -0.00492535 0)
(-5.26358e-05 -0.00701553 0)
(3.28409e-05 -0.00910437 0)
(5.60698e-05 -0.0110454 0)
(8.98083e-05 -0.0128438 0)
(0.00012676 -0.0145043 0)
(0.000164201 -0.0160326 0)
(0.000199976 -0.0174357 0)
(0.000233193 -0.0187209 0)
(0.000263311 -0.0198953 0)
(0.000289955 -0.0209653 0)
(0.00031288 -0.0219369 0)
(0.000331949 -0.0228158 0)
(0.000347106 -0.0236068 0)
(0.00035834 -0.0243146 0)
(0.000365677 -0.0249433 0)
(0.00036916 -0.0254972 0)
(0.000368852 -0.02598 0)
(0.000364834 -0.0263958 0)
(0.000357206 -0.0267482 0)
(0.000346087 -0.0270412 0)
(0.000331621 -0.0272784 0)
(0.000313971 -0.0274637 0)
(0.000293325 -0.0276005 0)
(0.00026989 -0.0276926 0)
(-5.1094e-08 -0.000216751 0)
(-2.37787e-07 -0.000631523 0)
(-3.86814e-07 -0.00102763 0)
(-3.70831e-07 -0.00140509 0)
(-4.72603e-08 -0.00176389 0)
(6.9242e-07 -0.00210405 0)
(1.97393e-06 -0.00242548 0)
(3.8867e-06 -0.00272815 0)
(6.55551e-06 -0.00301191 0)
(1.00624e-05 -0.0032767 0)
(1.45413e-05 -0.00352228 0)
(2.00788e-05 -0.00374859 0)
(2.68272e-05 -0.00395526 0)
(3.48893e-05 -0.00414222 0)
(4.44206e-05 -0.00430896 0)
(5.5525e-05 -0.00445537 0)
(6.84085e-05 -0.00458073 0)
(8.36613e-05 -0.0046848 0)
(0.000102414 -0.00476644 0)
(0.000124945 -0.0048255 0)
(0.000142578 -0.00486263 0)
(0.000123516 -0.00488656 0)
(5.07518e-05 -0.00489642 0)
(-4.52188e-05 -0.00489724 0)
(-0.000113028 -0.00486997 0)
(-0.000114644 -0.00505764 0)
(6.70784e-05 -0.00718239 0)
(8.14702e-05 -0.00916412 0)
(0.000105106 -0.0110167 0)
(0.000120297 -0.0127427 0)
(0.000127133 -0.0143414 0)
(0.000126118 -0.0158166 0)
(0.000119226 -0.0171743 0)
(0.000108092 -0.0184211 0)
(9.38972e-05 -0.019563 0)
(7.74445e-05 -0.0206058 0)
(5.92479e-05 -0.0215542 0)
(3.95888e-05 -0.0224127 0)
(1.85708e-05 -0.023185 0)
(-3.82654e-06 -0.0238749 0)
(-2.76971e-05 -0.0244859 0)
(-5.31672e-05 -0.0250218 0)
(-8.03658e-05 -0.0254861 0)
(-0.000109401 -0.0258829 0)
(-0.000140347 -0.0262161 0)
(-0.000173233 -0.0264898 0)
(-0.000208044 -0.0267081 0)
(-0.00024472 -0.0268752 0)
(-0.00028316 -0.026995 0)
(-0.000323232 -0.0270716 0)
(-2.31261e-08 -0.000209203 0)
(4.85411e-07 -0.000613725 0)
(1.92501e-06 -0.00100391 0)
(4.43893e-06 -0.00137928 0)
(8.19118e-06 -0.00173952 0)
(1.32644e-05 -0.00208434 0)
(1.98317e-05 -0.0024136 0)
(2.79716e-05 -0.00272707 0)
(3.78737e-05 -0.00302485 0)
(4.96329e-05 -0.00330671 0)
(6.34635e-05 -0.00357306 0)
(7.95097e-05 -0.00382361 0)
(9.80036e-05 -0.00405918 0)
(0.000119138 -0.00427931 0)
(0.000143117 -0.00448536 0)
(0.000170487 -0.00467644 0)
(0.00020251 -0.00485457 0)
(0.000241947 -0.00501845 0)
(0.000286424 -0.00517389 0)
(0.000309799 -0.00532897 0)
(0.000226147 -0.00527361 0)
(8.14155e-05 -0.00520826 0)
(-8.04481e-05 -0.00510616 0)
(-0.000625885 -0.0051118 0)
(-0.00140843 -0.00510398 0)
(-0.00181026 -0.00686357 0)
(-0.001266 -0.00860455 0)
(-0.00127603 -0.010276 0)
(-0.00134471 -0.0118747 0)
(-0.00140239 -0.0133939 0)
(-0.00144561 -0.0148307 0)
(-0.00148389 -0.0161842 0)
(-0.00151905 -0.0174538 0)
(-0.00155009 -0.0186382 0)
(-0.0015763 -0.0197362 0)
(-0.00159781 -0.0207467 0)
(-0.00161527 -0.0216691 0)
(-0.00162958 -0.0225037 0)
(-0.00164174 -0.0232519 0)
(-0.00165272 -0.0239155 0)
(-0.0016634 -0.0244977 0)
(-0.00167454 -0.0250021 0)
(-0.00168676 -0.0254328 0)
(-0.00170052 -0.0257944 0)
(-0.00171614 -0.0260918 0)
(-0.00173383 -0.0263298 0)
(-0.00175368 -0.0265133 0)
(-0.00177571 -0.026647 0)
(-0.00179984 -0.0267356 0)
(-0.00182596 -0.0267835 0)
(4.84599e-07 -0.000225043 0)
(4.56523e-06 -0.000660802 0)
(1.25066e-05 -0.00108198 0)
(2.40311e-05 -0.00148792 0)
(3.87379e-05 -0.00187883 0)
(5.63849e-05 -0.00225399 0)
(7.66844e-05 -0.0026141 0)
(9.94792e-05 -0.00295826 0)
(0.000124466 -0.00328777 0)
(0.000151485 -0.00360141 0)
(0.000180153 -0.00390123 0)
(0.000210242 -0.00418558 0)
(0.000241262 -0.00445743 0)
(0.000273285 -0.00471436 0)
(0.000306827 -0.00496041 0)
(0.000343888 -0.00519269 0)
(0.000380455 -0.00542112 0)
(0.000385214 -0.00565731 0)
(0.000258792 -0.00573053 0)
(5.1281e-05 -0.00579191 0)
(-0.000143126 -0.00558712 0)
(-0.000395802 -0.00523531 0)
(-0.000855843 0.00588135 0)
(-0.00111077 0.00247153 0)
(-0.0019483 -0.000338795 0)
(-0.00209512 -0.00330006 0)
(-0.00225291 -0.00575384 0)
(-0.00242352 -0.00785603 0)
(-0.0025697 -0.00973531 0)
(-0.00268181 -0.0114738 0)
(-0.00276472 -0.0131134 0)
(-0.00282407 -0.0146679 0)
(-0.00286404 -0.0161355 0)
(-0.00288817 -0.017508 0)
(-0.00289988 -0.0187768 0)
(-0.00290242 -0.0199352 0)
(-0.00289873 -0.0209802 0)
(-0.0028914 -0.0219117 0)
(-0.00288257 -0.0227326 0)
(-0.00287394 -0.0234477 0)
(-0.00286686 -0.0240633 0)
(-0.00286229 -0.0245863 0)
(-0.0028609 -0.0250242 0)
(-0.00286311 -0.0253845 0)
(-0.00286913 -0.0256743 0)
(-0.00287901 -0.0259007 0)
(-0.00289269 -0.0260702 0)
(-0.00291001 -0.0261889 0)
(-0.00293076 -0.0262624 0)
(-0.00295467 -0.0262958 0)
(5.47672e-07 -0.000263375 0)
(4.7655e-06 -0.000766571 0)
(1.31779e-05 -0.00124678 0)
(2.56399e-05 -0.00170493 0)
(4.20925e-05 -0.00214115 0)
(6.24449e-05 -0.00255621 0)
(8.67323e-05 -0.00294961 0)
(0.000114875 -0.00332194 0)
(0.000146805 -0.00367212 0)
(0.000182381 -0.0040005 0)
(0.000221521 -0.00430548 0)
(0.000264558 -0.00458686 0)
(0.000312844 -0.00484292 0)
(0.000369255 -0.00507612 0)
(0.000426822 -0.00529514 0)
(0.000431773 -0.00552814 0)
(0.000228316 -0.00548211 0)
(-0.000110322 -0.00536017 0)
(-0.000371373 -0.00531004 0)
(-0.000530665 -0.00455823 0)
(-0.00155018 0.000705403 0)
(-0.00224343 7.45264e-05 0)
(-0.00601385 0.0157623 0)
(-0.00464053 0.00888247 0)
(-0.00503197 0.00382559 0)
(-0.00547199 -0.000153552 0)
(-0.0058274 -0.00341829 0)
(-0.00606068 -0.00621647 0)
(-0.00620415 -0.0087048 0)
(-0.00627663 -0.0109661 0)
(-0.00629101 -0.0130373 0)
(-0.00625927 -0.0149312 0)
(-0.00619304 -0.0166505 0)
(-0.00610274 -0.0181959 0)
(-0.00599709 -0.0195697 0)
(-0.00588315 -0.0207775 0)
(-0.00576641 -0.0218276 0)
(-0.00565107 -0.0227305 0)
(-0.0055402 -0.023498 0)
(-0.00543601 -0.0241425 0)
(-0.00533998 -0.0246764 0)
(-0.00525301 -0.0251115 0)
(-0.00517559 -0.0254591 0)
(-0.00510784 -0.0257295 0)
(-0.00504967 -0.025932 0)
(-0.00500078 -0.026075 0)
(-0.00496075 -0.026166 0)
(-0.0049291 -0.0262118 0)
(-0.00490526 -0.0262183 0)
(-0.00488867 -0.0261905 0)
(-4.55099e-07 -0.000277154 0)
(-2.12537e-06 -0.000814108 0)
(-3.73766e-06 -0.00133503 0)
(-3.5577e-06 -0.00183944 0)
(-8.86103e-07 -0.00232916 0)
(6.21507e-06 -0.00280205 0)
(1.80255e-05 -0.00326019 0)
(3.64859e-05 -0.00369976 0)
(6.21858e-05 -0.00412277 0)
(9.79191e-05 -0.00452418 0)
(0.00014715 -0.00490928 0)
(0.000208764 -0.00528332 0)
(0.000245696 -0.0056623 0)
(0.000120874 -0.00607548 0)
(-0.000183941 -0.00594831 0)
(-0.000488636 -0.00595028 0)
(-0.000733621 -0.00567829 0)
(-0.00112496 -0.000377397 0)
(-0.00230383 -0.00460072 0)
(-0.00617757 0.00802704 0)
(-0.00634291 0.0302028 0)
(-0.00523293 0.0260542 0)
(-0.00595679 0.0208579 0)
(-0.00613073 0.0154417 0)
(-0.00619947 0.0102043 0)
(-0.00624128 0.00526004 0)
(-0.00628411 0.000665572 0)
(-0.00630581 -0.00354186 0)
(-0.00629854 -0.00732862 0)
(-0.00626219 -0.0106871 0)
(-0.00620166 -0.0136277 0)
(-0.00612308 -0.0161728 0)
(-0.00603251 -0.0183514 0)
(-0.00593543 -0.0201962 0)
(-0.00583651 -0.0217412 0)
(-0.00573962 -0.02302 0)
(-0.00564774 -0.0240651 0)
(-0.00556315 -0.0249067 0)
(-0.00548743 -0.0255726 0)
(-0.00542164 -0.0260878 0)
(-0.00536636 -0.0264746 0)
(-0.00532184 -0.0267524 0)
(-0.005288 -0.0269384 0)
(-0.00526458 -0.0270472 0)
(-0.00525114 -0.0270914 0)
(-0.00524713 -0.0270818 0)
(-0.00525193 -0.0270275 0)
(-0.00526488 -0.0269361 0)
(-0.0052853 -0.0268142 0)
(-0.00531253 -0.0266673 0)
(-4.28593e-07 -0.000238503 0)
(-6.23881e-07 -0.000730383 0)
(2.09916e-06 -0.00123162 0)
(9.90991e-06 -0.00174828 0)
(2.44145e-05 -0.002267 0)
(4.82392e-05 -0.00280205 0)
(8.38189e-05 -0.00332967 0)
(0.000136852 -0.00387705 0)
(0.000206436 -0.00441529 0)
(0.000253638 -0.00499753 0)
(0.000130617 -0.00564288 0)
(-0.000235857 -0.00586899 0)
(-0.00059823 -0.00593038 0)
(-0.000798389 -0.00660454 0)
(-0.000854029 -0.00444741 0)
(-0.00162366 0.000518983 0)
(-0.00292614 -0.00656699 0)
(-0.00435901 0.0381074 0)
(-0.00369272 0.027454 0)
(-0.00438472 0.0245639 0)
(-0.00446397 0.0216885 0)
(-0.00393616 0.0176223 0)
(-0.00332932 0.0135128 0)
(-0.00278583 0.00944821 0)
(-0.00235048 0.00542257 0)
(-0.00201664 0.00149271 0)
(-0.00176551 -0.00226469 0)
(-0.00158757 -0.00578559 0)
(-0.00147261 -0.00902826 0)
(-0.00141359 -0.0119629 0)
(-0.00140296 -0.0145732 0)
(-0.00143344 -0.0168566 0)
(-0.00149852 -0.0188216 0)
(-0.0015925 -0.0204849 0)
(-0.00171043 -0.0218693 0)
(-0.00184804 -0.0230014 0)
(-0.00200163 -0.0239094 0)
(-0.00216802 -0.0246213 0)
(-0.00234447 -0.0251642 0)
(-0.00252865 -0.0255629 0)
(-0.00271857 -0.0258401 0)
(-0.00291255 -0.0260159 0)
(-0.00310914 -0.0261077 0)
(-0.00330716 -0.0261305 0)
(-0.00350558 -0.0260972 0)
(-0.00370357 -0.0260186 0)
(-0.00390042 -0.0259035 0)
(-0.00409558 -0.0257594 0)
(-0.00428857 -0.0255924 0)
(-0.00447902 -0.0254074 0)
(1.26459e-06 -0.000270655 0)
(1.55772e-05 -0.000852312 0)
(4.62741e-05 -0.00147234 0)
(9.39887e-05 -0.00212712 0)
(0.000163012 -0.002816 0)
(0.0002564 -0.0035363 0)
(0.000350571 -0.00429617 0)
(0.000334161 -0.0051152 0)
(5.10215e-05 -0.00569428 0)
(-0.000376073 -0.00569747 0)
(-0.000750711 -0.00656579 0)
(-0.00133664 -0.00614087 0)
(-0.00286786 9.20948e-05 0)
(-0.00438743 -0.0105038 0)
(-0.00934087 0.0158527 0)
(-0.00323472 0.0188324 0)
(-0.00645854 0.0174991 0)
(-0.00643219 0.0200365 0)
(-0.0053592 0.0178669 0)
(-0.0045164 0.0152726 0)
(-0.00367623 0.0124524 0)
(-0.00288307 0.00959578 0)
(-0.00215759 0.00671128 0)
(-0.00152136 0.00382328 0)
(-0.000980926 0.000969349 0)
(-0.000536099 -0.00180083 0)
(-0.000191173 -0.00444304 0)
(5.57375e-05 -0.00691631 0)
(0.000211325 -0.00919073 0)
(0.000283656 -0.0112481 0)
(0.000281307 -0.013081 0)
(0.000213329 -0.0146912 0)
(8.89961e-05 -0.0160878 0)
(-8.26047e-05 -0.0172838 0)
(-0.000292891 -0.0182954 0)
(-0.000534014 -0.0191406 0)
(-0.000798979 -0.019838 0)
(-0.00108168 -0.0204056 0)
(-0.0013769 -0.0208605 0)
(-0.00168024 -0.0212183 0)
(-0.00198809 -0.0214933 0)
(-0.0022975 -0.0216978 0)
(-0.00260611 -0.021843 0)
(-0.0029121 -0.0219382 0)
(-0.00321405 -0.0219914 0)
(-0.00351091 -0.0220096 0)
(-0.00380192 -0.0219985 0)
(-0.00408657 -0.0219628 0)
(-0.00436452 -0.0219066 0)
(-0.00463559 -0.0218332 0)
(1.21977e-06 -0.000442957 0)
(8.43445e-06 -0.00133513 0)
(2.31965e-05 -0.00224964 0)
(4.81222e-05 -0.00316853 0)
(7.3887e-05 -0.00413397 0)
(8.84016e-06 -0.00510895 0)
(-0.000313982 -0.00556076 0)
(-0.000886546 -0.00622096 0)
(-0.00194007 -0.00838131 0)
(-0.00397584 0.00078075 0)
(-0.00502529 -0.00924397 0)
(-0.0147242 0.0376325 0)
(-0.00744242 0.0197568 0)
(-0.0119849 0.0179675 0)
(-0.0126296 0.0161822 0)
(-0.0123911 0.0130198 0)
(-0.0121773 0.0101124 0)
(-0.0116376 0.00732773 0)
(-0.0109408 0.00475764 0)
(-0.0102118 0.00233562 0)
(-0.009496 6.07299e-05 0)
(-0.00881809 -0.00205787 0)
(-0.00819082 -0.00401365 0)
(-0.00762295 -0.00580047 0)
(-0.0071193 -0.00742189 0)
(-0.00668528 -0.00888739 0)
(-0.00632215 -0.0102069 0)
(-0.00602862 -0.0113907 0)
(-0.00580117 -0.0124483 0)
(-0.00563473 -0.0133896 0)
(-0.00552333 -0.014224 0)
(-0.00546062 -0.0149604 0)
(-0.00544025 -0.0156074 0)
(-0.00545615 -0.016173 0)
(-0.0055027 -0.0166648 0)
(-0.0055748 -0.0170898 0)
(-0.00566792 -0.017455 0)
(-0.00577814 -0.0177664 0)
(-0.00590211 -0.0180296 0)
(-0.00603698 -0.0182498 0)
(-0.00618038 -0.0184315 0)
(-0.00633038 -0.0185788 0)
(-0.00648537 -0.0186955 0)
(-0.00664409 -0.0187848 0)
(-0.00680549 -0.0188497 0)
(-0.00696878 -0.0188926 0)
(-0.0071333 -0.018916 0)
(-0.00729855 -0.0189219 0)
(-0.00746413 -0.0189121 0)
(-0.00762975 -0.0188882 0)
(-1.52647e-06 -0.000369668 0)
(-2.18034e-05 -0.00106867 0)
(-6.68724e-05 -0.00173427 0)
(-0.00016945 -0.00236729 0)
(-0.000391587 -0.00298547 0)
(-0.000812619 -0.00379583 0)
(-0.00150946 -0.00373136 0)
(-0.00274627 0.00579551 0)
(-0.00399686 0.0088399 0)
(-0.00399383 0.0619632 0)
(-0.00375693 0.0546376 0)
(-0.00472758 0.0462167 0)
(-0.0047355 0.034808 0)
(-0.00511445 0.0259018 0)
(-0.00524349 0.0185111 0)
(-0.00533017 0.0125052 0)
(-0.00538471 0.00763469 0)
(-0.00543623 0.00365877 0)
(-0.00548435 0.000403546 0)
(-0.00553054 -0.00227685 0)
(-0.00558164 -0.00449424 0)
(-0.00563844 -0.00634646 0)
(-0.00570246 -0.00791214 0)
(-0.00577409 -0.00925147 0)
(-0.00585303 -0.0104108 0)
(-0.00593878 -0.011424 0)
(-0.00603087 -0.0123158 0)
(-0.00612891 -0.0131045 0)
(-0.00623262 -0.0138037 0)
(-0.00634176 -0.014424 0)
(-0.00645606 -0.0149738 0)
(-0.00657515 -0.0154598 0)
(-0.00669845 -0.0158874 0)
(-0.00682536 -0.0162605 0)
(-0.00695538 -0.016583 0)
(-0.00708812 -0.0168588 0)
(-0.00722323 -0.0170918 0)
(-0.00736043 -0.0172857 0)
(-0.00749945 -0.0174438 0)
(-0.00764008 -0.0175694 0)
(-0.00778217 -0.0176656 0)
(-0.0079256 -0.0177352 0)
(-0.00807028 -0.0177807 0)
(-0.00821614 -0.0178047 0)
(-0.00836313 -0.0178093 0)
(-0.0085112 -0.0177966 0)
(-0.0086603 -0.0177685 0)
(-0.00881036 -0.0177267 0)
(-0.00896133 -0.0176727 0)
(-0.00911313 -0.017608 0)
(8.47664e-07 -0.00012874 0)
(-1.55265e-05 -0.000346743 0)
(-7.42463e-05 -0.000523395 0)
(-0.000234858 -0.00066009 0)
(-0.000635426 -0.000789542 0)
(-0.00137514 -0.000941316 0)
(-0.00315491 0.00946835 0)
(-0.00322107 0.0172228 0)
(-0.00230293 0.0197688 0)
(-0.00299869 0.0297923 0)
(-0.00179351 0.0306105 0)
(-0.00089463 0.0284975 0)
(-0.000220823 0.0253523 0)
(0.000121762 0.0217477 0)
(0.000154003 0.0180973 0)
(-1.75745e-05 0.0146218 0)
(-0.000327803 0.0114112 0)
(-0.000729936 0.00849153 0)
(-0.00118709 0.00585497 0)
(-0.00167133 0.00347665 0)
(-0.00216217 0.00132619 0)
(-0.00264561 -0.000619479 0)
(-0.00311286 -0.00238108 0)
(-0.00355628 -0.00397427 0)
(-0.00397515 -0.00541299 0)
(-0.00436993 -0.00670778 0)
(-0.00474171 -0.0078673 0)
(-0.00509254 -0.00889946 0)
(-0.00542506 -0.00981269 0)
(-0.00574203 -0.0106164 0)
(-0.00604586 -0.0113211 0)
(-0.00633822 -0.0119391 0)
(-0.00661997 -0.012483 0)
(-0.0068913 -0.0129611 0)
(-0.00715253 -0.0133766 0)
(-0.00740427 -0.0137344 0)
(-0.00764706 -0.0140403 0)
(-0.00788132 -0.0142997 0)
(-0.00810751 -0.0145172 0)
(-0.00832611 -0.0146965 0)
(-0.00853767 -0.014841 0)
(-0.00874275 -0.0149539 0)
(-0.0089419 -0.0150382 0)
(-0.00913565 -0.0150969 0)
(-0.00932453 -0.0151327 0)
(-0.00950903 -0.015148 0)
(-0.00968962 -0.0151454 0)
(-0.00986671 -0.015127 0)
(-0.0100407 -0.0150947 0)
(-0.0102119 -0.0150505 0)
(6.53338e-06 -3.16496e-05 0)
(7.48833e-06 -7.09373e-05 0)
(-5.50675e-05 -8.75944e-05 0)
(-0.000254113 -9.05066e-05 0)
(-0.000569869 -0.000131162 0)
(-0.00163064 -6.3197e-05 0)
(-0.0029883 0.0122292 0)
(-0.00111545 0.0166218 0)
(-0.000784533 0.0195627 0)
(-0.000197507 0.021482 0)
(0.000603494 0.0226493 0)
(0.00137106 0.0230483 0)
(0.00197096 0.0227507 0)
(0.0023767 0.021848 0)
(0.0025959 0.0204663 0)
(0.00265378 0.0187258 0)
(0.00257653 0.0167304 0)
(0.00238799 0.0145688 0)
(0.00210805 0.0123184 0)
(0.00175267 0.0100418 0)
(0.0013348 0.00779188 0)
(0.000865559 0.0056108 0)
(0.000354668 0.00353605 0)
(-0.000192333 0.00159606 0)
(-0.000766611 -0.000189964 0)
(-0.00136011 -0.00181379 0)
(-0.00196441 -0.00327277 0)
(-0.00256976 -0.0045691 0)
(-0.00316792 -0.00570657 0)
(-0.00375182 -0.00669857 0)
(-0.00431603 -0.00756852 0)
(-0.00485881 -0.00833841 0)
(-0.00537843 -0.00904556 0)
(-0.00587391 -0.0096914 0)
(-0.00634632 -0.010267 0)
(-0.00679702 -0.0107787 0)
(-0.00722604 -0.0112385 0)
(-0.00763344 -0.0116479 0)
(-0.00802057 -0.0120085 0)
(-0.00838893 -0.0123222 0)
(-0.00873972 -0.0125912 0)
(-0.00907376 -0.0128194 0)
(-0.00939176 -0.0130096 0)
(-0.00969434 -0.0131639 0)
(-0.0099821 -0.0132854 0)
(-0.0102556 -0.013377 0)
(-0.0105156 -0.0134416 0)
(-0.0107628 -0.0134819 0)
(-0.0109981 -0.0135008 0)
(-0.0112222 -0.0135006 0)
(2.26566e-05 -3.28958e-06 0)
(4.33058e-05 1.79027e-06 0)
(-0.000118155 1.607e-05 0)
(-0.000701676 3.5017e-05 0)
(-0.00156053 4.22977e-05 0)
(-0.00367438 -0.00151641 0)
(-0.00179015 0.00150659 0)
(-0.00133643 0.0041018 0)
(-0.00168225 0.00619645 0)
(-0.00287473 0.00777334 0)
(-0.00469913 0.00914951 0)
(-0.00675851 0.0105328 0)
(-0.00867591 0.0118873 0)
(-0.0101986 0.0130156 0)
(-0.0112524 0.0137445 0)
(-0.0119018 0.0140449 0)
(-0.0122471 0.013997 0)
(-0.0123733 0.0136983 0)
(-0.0123369 0.0132381 0)
(-0.0121754 0.0126813 0)
(-0.0119182 0.0120661 0)
(-0.0115904 0.0113839 0)
(-0.0112225 0.0106646 0)
(-0.0108494 0.0099234 0)
(-0.0105041 0.00914446 0)
(-0.0102121 0.00830392 0)
(-0.00998711 0.00737266 0)
(-0.00982401 0.00622822 0)
(-0.00971007 0.00506271 0)
(-0.00963764 0.00387829 0)
(-0.00959789 0.00270053 0)
(-0.00958344 0.00155144 0)
(-0.00959171 0.000441923 0)
(-0.00962316 -0.000602846 0)
(-0.00967851 -0.00154745 0)
(-0.00975565 -0.00243127 0)
(-0.00985031 -0.00328565 0)
(-0.00995908 -0.00407283 0)
(-0.010082 -0.0047699 0)
(-0.0102206 -0.00538966 0)
(-0.0103732 -0.00596339 0)
(-0.0105361 -0.00648856 0)
(-0.0107075 -0.00696462 0)
(-0.0108849 -0.0073974 0)
(-0.011065 -0.00779698 0)
(-0.0112448 -0.00816012 0)
(-0.011422 -0.00848718 0)
(-0.0115934 -0.00877976 0)
(-0.0117565 -0.00904328 0)
(-0.01191 -0.00927957 0)
(1.57307e-05 0.000126226 0)
(2.84541e-05 0.000306249 0)
(-9.00211e-05 0.000421301 0)
(-0.00058616 0.000500223 0)
(-0.00146602 0.000677215 0)
(-0.00215449 -0.01254 0)
(-0.00237769 0.00200856 0)
(-0.00132247 0.0160671 0)
(-0.00135521 0.0423852 0)
(-0.00143529 0.0667379 0)
(-0.00121089 0.0795684 0)
(-0.000719352 0.0805431 0)
(-0.000300411 0.0718516 0)
(-9.61785e-05 0.0571571 0)
(7.96856e-05 0.0427487 0)
(0.000654542 0.0317966 0)
(0.00136247 0.0233424 0)
(0.00185136 0.0163396 0)
(0.00196723 0.0103178 0)
(0.00154218 0.00504857 0)
(0.000484284 0.000519462 0)
(-0.00119417 -0.00323999 0)
(-0.00335744 -0.00602338 0)
(-0.00574113 -0.00770772 0)
(-0.0081233 -0.00845524 0)
(-0.0102801 -0.00861356 0)
(-0.0121195 -0.00854941 0)
(-0.0136332 -0.00850339 0)
(-0.0148124 -0.00853425 0)
(-0.0156157 -0.00867038 0)
(-0.0160326 -0.00887496 0)
(-0.0161378 -0.00906798 0)
(-0.0160499 -0.00921906 0)
(-0.0158573 -0.00930285 0)
(-0.0156369 -0.0093191 0)
(-0.0154368 -0.00933282 0)
(-0.0152582 -0.00938437 0)
(-0.0150726 -0.00944218 0)
(-0.0148733 -0.00940861 0)
(-0.0147084 -0.00931157 0)
(-0.0146131 -0.00928578 0)
(-0.0145738 -0.00927881 0)
(-0.0145679 -0.00926195 0)
(-0.0145983 -0.0093062 0)
(-0.0146751 -0.00941941 0)
(-0.014814 -0.00954296 0)
(-0.015012 -0.00969622 0)
(-0.0152226 -0.00990141 0)
(-0.0153937 -0.0101296 0)
(-0.0155145 -0.0103541 0)
(9.79167e-06 1.05024e-05 0)
(5.45988e-05 5.25412e-05 0)
(0.000122459 9.0323e-05 0)
(0.000149948 0.00018383 0)
(-1.9776e-05 0.000371683 0)
(-0.00109682 0.00249456 0)
(-0.00207987 0.00317354 0)
(-0.00193484 0.0021428 0)
(-0.000556228 0.00630838 0)
(0.000867023 0.00468726 0)
(0.00385512 0.0169478 0)
(0.00434081 0.0215992 0)
(0.00559463 0.0312991 0)
(0.0129934 0.029851 0)
(0.00406399 -0.000435316 0)
(0.0065835 -0.0108335 0)
(0.0113402 -0.00319794 0)
(0.0119021 0.00650871 0)
(0.0118612 0.0187594 0)
(0.0118635 0.0344797 0)
(0.0117789 0.051172 0)
(0.0115523 0.065131 0)
(0.0111962 0.0734315 0)
(0.0108399 0.0745673 0)
(0.0104029 0.0692624 0)
(0.00986323 0.0608 0)
(0.0091999 0.0515943 0)
(0.00906478 0.0417787 0)
(0.00902702 0.0308883 0)
(0.0088301 0.0195833 0)
(0.00855035 0.0094596 0)
(0.00812157 0.00185634 0)
(0.00762399 -0.00284762 0)
(0.0072541 -0.0052446 0)
(0.00701603 -0.00590317 0)
(0.00676418 -0.00545166 0)
(0.00656117 -0.00582673 0)
(0.00658909 -0.00750804 0)
(0.00671653 -0.00887522 0)
(0.0066753 -0.00805165 0)
(0.00624984 -0.00633641 0)
(0.00533057 -0.00598546 0)
(0.00454524 -0.00568143 0)
(0.00387493 -0.00550407 0)
(0.00324525 -0.00451279 0)
(0.00257647 -0.00316652 0)
(0.00179093 -0.00146485 0)
(0.000972853 -0.0026454 0)
(0.000202234 -0.00435574 0)
(-0.000533859 -0.00600683 0)
(-2.98674e-07 -0.000286587 0)
(1.80332e-05 -0.00075445 0)
(5.27335e-05 -0.00113664 0)
(0.000115977 -0.00141013 0)
(0.000214925 -0.00161753 0)
(0.00036106 -0.00163944 0)
(0.000480796 -0.002014 0)
(0.000262381 -0.00242987 0)
(-5.21828e-05 -0.00286537 0)
(0.000291319 -0.00315469 0)
(0.00125533 -0.00303753 0)
(0.00294099 -0.00264871 0)
(0.00505524 -0.00188598 0)
(0.00724062 0.000298291 0)
(0.00863125 0.00603368 0)
(0.00827617 0.00417376 0)
(0.00757632 0.00467114 0)
(0.00739307 0.00560179 0)
(0.00772674 0.00650869 0)
(0.0085261 0.00759301 0)
(0.00981937 0.00913128 0)
(0.0114827 0.0118568 0)
(0.0130591 0.0166291 0)
(0.0147447 0.0215288 0)
(0.0175261 0.0253914 0)
(0.0164482 0.0168332 0)
(0.0162433 -0.0102353 0)
(0.02107 -0.0182609 0)
(0.024439 -0.012279 0)
(0.0248074 -0.00535453 0)
(0.0241805 0.000505321 0)
(0.0229283 0.0043597 0)
(0.0218014 0.00306417 0)
(0.0217372 -0.0028677 0)
(0.0223376 -0.00531056 0)
(0.0223313 -0.00505053 0)
(0.022354 -0.00922555 0)
(0.0238145 -0.0145692 0)
(0.0226027 -0.0180382 0)
(0.0208798 -0.00417692 0)
(0.019897 0.00829287 0)
(0.0186749 0.0107615 0)
(0.017209 0.00948588 0)
(0.0159188 0.00575759 0)
(0.0149041 0.00662146 0)
(0.0138683 0.00750848 0)
(0.0127342 0.00832147 0)
(0.0111362 0.00792286 0)
(0.00924639 0.00735615 0)
(0.00764861 0.00712906 0)
(7.34911e-08 -0.000283149 0)
(1.6006e-06 -0.000820192 0)
(6.46577e-06 -0.00133059 0)
(1.82125e-05 -0.00181557 0)
(3.75369e-05 -0.00228026 0)
(6.74354e-05 -0.00272657 0)
(0.000101194 -0.00316644 0)
(0.000130819 -0.00359332 0)
(0.000146612 -0.00392725 0)
(0.000157332 -0.0041182 0)
(0.000171052 -0.00413546 0)
(0.000199837 -0.00403062 0)
(0.000261469 -0.00378229 0)
(0.000404109 -0.0033384 0)
(0.000628643 -0.00278368 0)
(0.00079363 -0.00256813 0)
(0.000952977 -0.00237778 0)
(0.00124845 -0.00217969 0)
(0.00165495 -0.00195135 0)
(0.00216019 -0.00164171 0)
(0.00280416 -0.00123658 0)
(0.0036707 -0.000684429 0)
(0.00488257 1.8791e-05 0)
(0.00646293 0.000904549 0)
(0.00828423 0.00219966 0)
(0.0098982 0.0041236 0)
(0.0104086 0.00475973 0)
(0.00957644 0.00487923 0)
(0.00854866 0.00874407 0)
(0.00790433 0.0141342 0)
(0.00759215 0.0189228 0)
(0.00738697 0.0213418 0)
(0.00700074 0.0161161 0)
(0.006935 0.000822353 0)
(0.00730277 -0.0108486 0)
(0.00735708 -0.0157366 0)
(0.00743373 -0.0182932 0)
(0.00760812 -0.00428371 0)
(0.0064664 0.0232937 0)
(0.00473509 0.0259804 0)
(0.00440138 0.0314592 0)
(0.00447843 0.0306434 0)
(0.00465948 0.0270884 0)
(0.00488029 0.0223575 0)
(0.00522254 0.0205876 0)
(0.00585852 0.0256054 0)
(0.00638159 0.0377433 0)
(0.00609323 0.0606028 0)
(0.00579484 0.0362108 0)
(0.00620742 0.0201282 0)
(1.88115e-08 -0.000282681 0)
(-1.74632e-06 -0.000808859 0)
(-6.07822e-06 -0.00129711 0)
(-1.31444e-05 -0.00174855 0)
(-2.3405e-05 -0.00216457 0)
(-3.70933e-05 -0.00254608 0)
(-5.50663e-05 -0.00289412 0)
(-7.72236e-05 -0.00320888 0)
(-0.000102972 -0.00348992 0)
(-0.000129033 -0.00373684 0)
(-0.000151634 -0.00394958 0)
(-0.000165292 -0.00413097 0)
(-0.0001653 -0.00428365 0)
(-0.000145807 -0.00441479 0)
(-0.000104783 -0.00453497 0)
(-4.63803e-05 -0.00466159 0)
(2.18781e-05 -0.00476942 0)
(9.6443e-05 -0.00481631 0)
(0.000177871 -0.00478743 0)
(0.000268536 -0.00468404 0)
(0.000369875 -0.00450682 0)
(0.000487592 -0.00425156 0)
(0.000628879 -0.00391672 0)
(0.000798521 -0.00349526 0)
(0.00100332 -0.00295611 0)
(0.00123041 -0.00233718 0)
(0.00143102 -0.00188703 0)
(0.00165772 -0.00149312 0)
(0.00205136 -0.00102783 0)
(0.00269598 -0.000592648 0)
(0.00356393 -0.0001244 0)
(0.00457582 0.000562639 0)
(0.0056381 0.00121504 0)
(0.00627923 0.000375284 0)
(0.00592516 0.000147715 0)
(0.00503561 0.00198798 0)
(0.00397661 0.00123539 0)
(0.00319669 0.0030902 0)
(0.00366019 0.00556839 0)
(0.00457622 0.0056338 0)
(0.00558343 0.00601945 0)
(0.0066026 0.00601376 0)
(0.007526 0.00408814 0)
(0.00836904 -0.00226892 0)
(0.00921789 -0.0155872 0)
(0.0108129 -0.00622005 0)
(0.0123355 -0.00345208 0)
(0.014527 -0.00196544 0)
(0.0166757 -0.00132966 0)
(0.0178246 -0.00100699 0)
(0.000333614 -0.0279029 0)
(0.000339982 -0.0279967 0)
(0.000343292 -0.0280491 0)
(0.000343686 -0.0280631 0)
(0.000341326 -0.0280414 0)
(0.000336384 -0.0279867 0)
(0.000329045 -0.0279015 0)
(0.000319497 -0.0277883 0)
(0.000307929 -0.0276494 0)
(0.000294532 -0.027487 0)
(0.000279491 -0.0273032 0)
(0.000262987 -0.0270999 0)
(0.000245191 -0.0268789 0)
(0.000226265 -0.0266419 0)
(0.000206362 -0.0263905 0)
(0.000185621 -0.0261263 0)
(0.000164167 -0.0258504 0)
(0.000142113 -0.0255643 0)
(0.000119556 -0.0252691 0)
(9.65801e-05 -0.0249659 0)
(7.32522e-05 -0.0246557 0)
(4.96244e-05 -0.0243396 0)
(2.57331e-05 -0.0240184 0)
(1.59849e-06 -0.0236929 0)
(-2.27749e-05 -0.023364 0)
(-4.73985e-05 -0.0230325 0)
(-7.23003e-05 -0.022699 0)
(-9.7524e-05 -0.0223642 0)
(-0.00012313 -0.0220289 0)
(-0.000149194 -0.0216936 0)
(-0.00017581 -0.021359 0)
(-0.000203086 -0.0210257 0)
(-0.00023115 -0.0206944 0)
(-0.000260143 -0.0203655 0)
(-0.000290226 -0.0200397 0)
(-0.000321579 -0.0197176 0)
(-0.000354395 -0.0193998 0)
(-0.000388879 -0.0190867 0)
(-0.000425234 -0.018779 0)
(-0.000463688 -0.0184775 0)
(-0.000504493 -0.0181827 0)
(-0.000547904 -0.0178949 0)
(-0.000594196 -0.0176144 0)
(-0.000643648 -0.017342 0)
(-0.000696541 -0.017078 0)
(-0.000753147 -0.0168226 0)
(-0.000813737 -0.0165763 0)
(-0.000878605 -0.0163394 0)
(-0.000948062 -0.0161116 0)
(-0.00102251 -0.0158926 0)
(0.000522451 -0.0278676 0)
(0.000512643 -0.0279202 0)
(0.000499788 -0.027934 0)
(0.000484151 -0.0279121 0)
(0.000465999 -0.0278574 0)
(0.0004456 -0.0277726 0)
(0.000423219 -0.0276603 0)
(0.000399117 -0.0275228 0)
(0.000373549 -0.0273625 0)
(0.000346758 -0.0271815 0)
(0.000318977 -0.0269816 0)
(0.000290425 -0.0267647 0)
(0.000261309 -0.0265325 0)
(0.00023182 -0.0262864 0)
(0.000202134 -0.026028 0)
(0.000172412 -0.0257584 0)
(0.000142798 -0.0254788 0)
(0.000113422 -0.0251904 0)
(8.43986e-05 -0.0248941 0)
(5.58252e-05 -0.0245908 0)
(2.77859e-05 -0.0242813 0)
(3.496e-07 -0.0239664 0)
(-2.64289e-05 -0.0236469 0)
(-5.25089e-05 -0.0233233 0)
(-7.78633e-05 -0.0229963 0)
(-0.000102478 -0.0226665 0)