/*--------------------------------*- C++ -*----------------------------------*\
| =========                 |                                                 |
| \\      /  F ield         | OpenFOAM: The Open Source CFD Toolbox           |
|  \\    /   O peration     | Version:  2.4.0                                 |
|   \\  /    A nd           | Web:      www.OpenFOAM.org                      |
|    \\/     M anipulation  |                                                 |
\*---------------------------------------------------------------------------*/
FoamFile
{
    version     2.0;
    format      ascii;
    class       volScalarField;
    location    "2.7";
    object      H;
}
// * * * * * * * * * * * * * * * * * * * * * * * * * * * * * * * * * * * * * //

dimensions      [0 2 -2 0 0 0 0];

internalField   nonuniform List<scalar> 
8000
(
-11951.9
-11388.8
-10805.8
-10191.2
-9534.51
-8826.52
-8059.74
-7229.06
-6332.55
-5372.33
-4355.12
-3290.18
-2181.9
-1028.47
-9.87983
-8.75703
-5.06389
-3.15668
-1.98471
-1.31526
-0.898448
-0.616289
-0.40768
-0.238444
-0.0909389
0.0424519
0.164804
0.277211
0.38001
0.473298
0.557142
0.631608
0.696892
0.753361
0.801456
0.841553
0.874262
0.900174
0.919903
0.934085
0.943275
0.948211
0.949375
0.94729
0.942435
0.935387
0.926528
0.916238
0.904889
0.892758
-11918.4
-11286.1
-10627.1
-9925.63
-9167.86
-8341.91
-7438.82
-6453.61
-5386.74
-4246.22
-3050.03
-1821.89
-555.237
-10.4704
-7.45506
-5.41861
-3.76102
-2.72387
-2.00043
-1.519
-1.19538
-0.962907
-0.777078
-0.612975
-0.458788
-0.310468
-0.16771
-0.0317584
0.0957811
0.213491
0.320359
0.415795
0.499627
0.572113
0.633729
0.684998
0.726844
0.760135
0.785766
0.804572
0.817352
0.824941
0.828074
0.827383
0.823464
0.816904
0.808141
0.797617
0.785717
0.772868
-11872.2
-11144.6
-10382.2
-9564.93
-8675.83
-7701.89
-6635.2
-5472.89
-4213.87
-2855.96
-1421.12
-14.1593
-1.2831
-1.69549
-2.20941
-2.50051
-2.65516
-2.71278
-2.69926
-2.63837
-2.538
-2.40296
-2.23707
-2.04484
-1.83196
-1.60531
-1.37219
-1.13975
-0.914257
-0.700967
-0.503702
-0.324825
-0.165558
-0.0260128
0.0945374
0.197253
0.283744
0.355645
0.414606
0.462209
0.499894
0.528943
0.550586
0.565901
0.575777
0.581001
0.582274
0.580221
0.575364
0.568194
-11824.8
-11001.1
-10137.6
-9210.27
-8198.31
-7084.56
-5856.03
-4504.76
-3037.65
-1510.93
-15.7447
-13.4053
-9.27289
-7.59036
-6.26957
-5.31801
-4.64523
-4.18827
-3.85772
-3.59888
-3.37684
-3.17048
-2.9653
-2.75343
-2.5327
-2.30457
-2.07285
-1.84241
-1.61783
-1.40347
-1.20254
-1.01724
-0.848739
-0.697381
-0.562799
-0.444188
-0.340573
-0.250695
-0.173202
-0.106775
-0.0501824
-0.00230946
0.0378701
0.0712659
0.0987032
0.120925
0.138621
0.152344
0.162559
0.169819
-11821.6
-10996.6
-10145.2
-9248.76
-8290.57
-7257.6
-6143.89
-4956.8
-3727.39
-2519.88
-1418.78
-43.5844
-4.72942
-5.10177
-3.78696
-3.33583
-3.07177
-2.86067
-2.67848
-2.52034
-2.37964
-2.24705
-2.11696
-1.98629
-1.85405
-1.72087
-1.58834
-1.4583
-1.33246
-1.21255
-1.09964
-0.994527
-0.897605
-0.808878
-0.728202
-0.655281
-0.589678
-0.53085
-0.47824
-0.431843
-0.391277
-0.355839
-0.324962
-0.298154
-0.274923
-0.254799
-0.237447
-0.222541
-0.209694
-0.198656
-11882.9
-11185
-10474.7
-9742.5
-8977.89
-8170.76
-7312.18
-6395.31
-5414.46
-4367.7
-3255.91
-2075.71
-1107.26
-14.9826
-2.60445
-0.645824
-0.875991
-1.08046
-1.25056
-1.37451
-1.4573
-1.51324
-1.54009
-1.53811
-1.51208
-1.46866
-1.41363
-1.35148
-1.28555
-1.21865
-1.15282
-1.08923
-1.02855
-0.971049
-0.916774
-0.865522
-0.817306
-0.772443
-0.730634
-0.691612
-0.655017
-0.620605
-0.588127
-0.557337
-0.527998
-0.499956
-0.472825
-0.446361
-0.420273
-0.394236
-11932.4
-11335.7
-10733.6
-10121.2
-9493.07
-8843.59
-8166.86
-7457.01
-6710.31
-5924.79
-5100.89
-4245.18
-3361.86
-2459.42
-1536.21
-590.017
-8.10409
-0.897882
-2.5265
-0.850412
-0.194471
-0.559988
-0.866257
-1.09009
-1.23857
-1.31071
-1.33978
-1.33339
-1.30449
-1.26205
-1.21249
-1.16013
-1.10734
-1.05512
-1.00374
-0.953055
-0.903653
-0.856433
-0.811691
-0.768656
-0.724745
-0.67953
-0.633449
-0.587033
-0.540799
-0.494804
-0.449235
-0.404029
-0.359201
-0.314594
-11990.2
-11511.2
-11033.1
-10554.8
-10074.6
-9590.18
-9098.89
-8598.1
-8085.12
-7557.23
-7011.56
-6445.16
-5855.02
-5238.47
-4593.25
-3918.3
-3215.28
-2489.48
-1736.54
-900.108
-64.7696
-1.02891
-0.210469
-0.296847
-0.476875
-0.485405
-0.594235
-0.637582
-0.665041
-0.680494
-0.688003
-0.689455
-0.684987
-0.674944
-0.659682
-0.640469
-0.618732
-0.597341
-0.579164
-0.565064
-0.549667
-0.529788
-0.505298
-0.47699
-0.445663
-0.411819
-0.375821
-0.337838
-0.297957
-0.256244
-12034.6
-11644.4
-11256.1
-10870.2
-10486.8
-10105.5
-9725.78
-9346.98
-8968.17
-8588.29
-8206.05
-7819.88
-7427.85
-7027.68
-6616.59
-6191.39
-5748.36
-5283.28
-4791.15
-4265.85
-3699.53
-3081.69
-2392.59
-1628.34
-837.903
-409.837
-4.96873
-0.155692
-0.0814717
-0.163516
-0.182275
-0.205085
-0.224809
-0.236682
-0.245471
-0.250811
-0.254026
-0.255343
-0.256677
-0.259032
-0.258465
-0.251846
-0.239079
-0.222098
-0.201447
-0.177613
-0.151057
-0.122088
-0.0909331
-0.0577337
-12027.5
-11622
-11215.7
-10808.6
-10401.4
-9995.05
-9590.53
-9188.99
-8791.53
-8399.11
-8012.48
-7632.09
-7258.03
-6889.92
-6526.91
-6167.57
-5809.89
-5451.27
-5088.45
-4717.63
-4334.49
-3934.43
-3512.68
-3064.55
-2585.24
-2075.57
-1547.28
-1007.44
-467.892
-5.96855
-0.126236
-0.0393133
-0.0298836
-0.0580917
-0.0533495
-0.047249
-0.0396859
-0.0293483
-0.018207
-0.00620391
0.00764249
0.023692
0.0426515
0.064461
0.0885335
0.11453
0.142347
0.171862
0.202973
0.23556
-11998.3
-11534.3
-11068.7
-10601.6
-10133.9
-9667.18
-9203.25
-8744.24
-8292.31
-7849.55
-7417.79
-6998.51
-6592.89
-6201.97
-5826.06
-5464.98
-5118.13
-4784.5
-4462.69
-4150.96
-3847.34
-3549.7
-3255.85
-2963.64
-2671.13
-2376.64
-2078.78
-1776.43
-1469.15
-1159.64
-855.112
-557.917
-264.781
-3.43492
-0.0718941
-0.0201321
-0.0138898
-0.0226164
-0.0169961
-0.0112846
-0.00578662
-0.000955149
0.00327612
0.0312976
0.060728
0.0916956
0.124164
0.157925
0.192854
0.228819
-11970.5
-11451.1
-10931.1
-10411.1
-9892.39
-9376.69
-8866.2
-8363.29
-7870.42
-7389.99
-6924.21
-6475.05
-6044.12
-5632.65
-5241.47
-4870.99
-4521.19
-4191.69
-3881.67
-3589.94
-3315.37
-3056.89
-2812.83
-2581.38
-2360.83
-2149.54
-1946.01
-1748.89
-1556.96
-1369.13
-1184.41
-1001.92
-821.138
-642.2
-466.324
-296.372
-136.344
-1.6107
-0.0306307
-0.00725005
-0.000324589
-0.000769766
-3.99595e-05
6.5933e-05
0.000545178
0.0046303
0.041597
0.0792534
0.118
0.158094
-11951.1
-11393.3
-10835.8
-10279.5
-9726
-9177.2
-8635.39
-8102.99
-7582.5
-7076.35
-6586.81
-6115.91
-5665.37
-5236.56
-4830.48
-4447.74
-4088.59
-3752.89
-3440.23
-3149.87
-2880.85
-2632.02
-2402.07
-2189.58
-1993.09
-1811.07
-1641.99
-1484.28
-1336.4
-1197.01
-1065.38
-940.747
-821.977
-708.194
-598.726
-493.144
-391.262
-292.933
-197.237
-101.459
-1.10222
-0.0204943
-0.00335804
-0.000163541
-2.23771e-05
-1.24302e-05
7.13028e-05
0.000673502
0.006044
0.0543939
-11939.3
-11358.1
-10777.8
-10199.7
-9625.4
-9056.99
-8496.78
-7947.2
-7410.71
-6889.7
-6386.36
-5902.68
-5440.33
-5000.65
-4584.64
-4192.93
-3825.82
-3483.28
-3164.99
-2870.36
-2598.59
-2348.68
-2119.5
-1909.81
-1718.29
-1543.6
-1384.36
-1239.21
-1106.84
-985.982
-875.426
-774.057
-680.843
-594.847
-515.229
-441.238
-372.19
-307.399
-246.607
-190.12
-137.992
-90.1833
-45.2211
-0.48587
-0.0171176
-0.0102164
-0.0121807
-0.000404966
5.47208e-06
0.000657642
-11937.1
-11351.8
-10768.3
-10188.1
-9613.11
-9045.39
-8487.09
-7940.42
-7407.53
-6890.45
-6391.03
-5910.9
-5451.42
-5013.69
-4598.49
-4206.35
-3837.52
-3492
-3169.58
-2869.82
-2592.14
-2335.79
-2099.9
-1883.53
-1685.65
-1505.18
-1341
-1191.99
-1057.04
-935.025
-824.877
-725.555
-636.066
-555.472
-482.891
-417.507
-358.56
-305.347
-257.212
-213.53
-173.682
-137.053
-103.087
-71.8066
-44.2041
-21.0141
-0.23012
-0.0103724
-0.00809253
-0.000298152
-11947.2
-11382.6
-10820.7
-10263.5
-9712.85
-9170.55
-8638.39
-8118.06
-7611.11
-7118.93
-6642.75
-6183.61
-5742.36
-5319.67
-4916.03
-4531.76
-4167.05
-3821.93
-3496.33
-3190.05
-2902.82
-2634.28
-2383.99
-2151.45
-1936.09
-1737.29
-1554.38
-1386.65
-1233.33
-1093.65
-966.8
-851.94
-748.238
-654.854
-570.954
-495.721
-428.355
-368.089
-314.189
-265.96
-222.746
-183.908
-148.808
-116.767
-87.0595
-59.0943
-33.2843
-12.6285
-0.138911
-0.0691639
-11964.8
-11435.6
-10909.5
-10388.6
-9874.55
-9369
-8873.34
-8388.81
-7916.41
-7456.97
-7011.14
-6579.44
-6162.2
-5759.7
-5372.09
-4999.47
-4641.91
-4299.43
-3972.04
-3659.76
-3362.56
-3080.44
-2813.37
-2561.29
-2324.13
-2101.78
-1894.05
-1700.74
-1521.55
-1356.14
-1204.09
-1064.92
-938.069
-822.949
-718.907
-625.256
-541.278
-466.232
-399.369
-339.94
-287.211
-240.467
-199.028
-162.242
-129.485
-100.116
-73.4346
-48.6263
-24.7082
-0.246824
-11978.4
-11476.4
-10978.3
-10486
-10001.7
-9526.73
-9062.32
-8609.27
-8168.11
-7739.09
-7322.27
-6917.58
-6524.82
-6143.78
-5774.24
-5415.99
-5068.9
-4732.88
-4407.93
-4094.11
-3791.59
-3500.55
-3221.26
-2954.01
-2699.1
-2456.84
-2227.48
-2011.26
-1808.34
-1618.81
-1442.67
-1279.8
-1130.01
-992.978
-868.307
-755.496
-653.965
-563.065
-482.092
-410.304
-346.932
-291.191
-242.294
-199.456
-161.891
-128.809
-99.3977
-72.8119
-48.1506
-24.4617
-11959.2
-11420.2
-10889.4
-10371.4
-9869.61
-9385.63
-8920.07
-8472.66
-8042.6
-7628.77
-7229.96
-6844.91
-6472.46
-6111.59
-5761.42
-5421.25
-5090.56
-4769.02
-4456.45
-4152.84
-3858.3
-3573.1
-3297.56
-3032.12
-2777.24
-2533.4
-2301.1
-2080.77
-1872.83
-1677.58
-1495.25
-1325.95
-1169.68
-1026.3
-895.569
-777.111
-670.449
-575.009
-490.133
-415.1
-349.139
-291.444
-241.187
-197.529
-159.625
-126.623
-97.6674
-71.8827
-48.3629
-26.1475
-11766.7
-10989.8
-10318.5
-9724.65
-9189.14
-8698.74
-8243.94
-7817.73
-7414.87
-7031.33
-6664.02
-6310.55
-5969.04
-5638.07
-5316.57
-5003.74
-4699.07
-4402.24
-4113.14
-3831.83
-3558.5
-3293.46
-3037.13
-2789.97
-2552.52
-2325.29
-2108.81
-1903.56
-1709.96
-1528.35
-1358.97
-1201.93
-1057.25
-924.789
-804.312
-695.454
-597.746
-510.625
-433.453
-365.529
-306.108
-254.416
-209.666
-171.067
-137.833
-109.192
-84.3867
-62.6765
-43.3371
-25.6577
0.880001
0.866738
0.853206
0.839661
0.826353
0.813437
0.801009
0.789229
0.778242
0.768093
0.758842
0.750462
0.742937
0.73625
0.730417
0.725341
0.720949
0.717159
0.713826
0.710818
0.70802
0.705327
0.702573
0.699606
0.696283
0.69245
0.687941
0.682584
0.676336
0.669042
0.660604
0.650907
0.63986
0.627446
0.613618
0.598349
0.58165
0.563536
0.544039
0.523253
0.501246
0.478123
0.454012
0.429047
0.403377
0.377153
0.350534
0.323679
0.296746
0.269891
0.759346
0.745418
0.731334
0.717139
0.702888
0.688926
0.675556
0.663009
0.651476
0.641124
0.632048
0.624343
0.618084
0.613314
0.610048
0.60824
0.60786
0.608839
0.611104
0.614539
0.619002
0.624299
0.630239
0.636652
0.643317
0.649999
0.656432
0.662357
0.667587
0.671865
0.674968
0.676652
0.676708
0.674964
0.671296
0.66556
0.657668
0.647541
0.635139
0.620466
0.603577
0.58454
0.563451
0.540454
0.515726
0.489445
0.461825
0.433092
0.403481
0.373237
0.559184
0.548715
0.537251
0.525173
0.512768
0.500026
0.486909
0.473956
0.461681
0.450506
0.440755
0.432657
0.42639
0.422067
0.419758
0.419532
0.421493
0.42565
0.431983
0.440437
0.45091
0.463232
0.477147
0.492496
0.509054
0.526551
0.544682
0.563138
0.581556
0.599615
0.616937
0.633165
0.647958
0.66098
0.67192
0.680477
0.686403
0.689469
0.689508
0.686369
0.679979
0.670311
0.657389
0.64127
0.622116
0.600092
0.575431
0.5484
0.519301
0.488455
0.17455
0.177153
0.178113
0.177889
0.176833
0.175357
0.17389
0.172279
0.170818
0.169783
0.169423
0.170024
0.171824
0.175014
0.179774
0.186143
0.194433
0.204875
0.217599
0.232667
0.250072
0.269712
0.291414
0.315067
0.340489
0.367418
0.395578
0.424643
0.454261
0.484054
0.513624
0.542564
0.570459
0.596897
0.621476
0.643788
0.663485
0.680145
0.693496
0.703226
0.709107
0.710958
0.708647
0.702101
0.691337
0.676476
0.657767
0.635438
0.609833
0.581285
-0.189077
-0.180655
-0.17311
-0.166023
-0.158975
-0.151552
-0.143289
-0.133686
-0.122701
-0.110315
-0.0965114
-0.081263
-0.0645222
-0.0462053
-0.0262029
-0.00437541
0.0193206
0.0448573
0.0721772
0.101184
0.131759
0.163795
0.197092
0.231508
0.266895
0.303062
0.339737
0.376641
0.413473
0.44991
0.485613
0.520228
0.553381
0.584721
0.613915
0.640607
0.664457
0.685149
0.70239
0.715938
0.725538
0.731044
0.732325
0.729299
0.721955
0.710351
0.694601
0.674884
0.65145
0.624565
-0.36798
-0.341251
-0.313872
-0.285854
-0.257247
-0.228108
-0.198506
-0.168527
-0.138258
-0.107809
-0.0772226
-0.0467477
-0.0158498
0.0154618
0.0474075
0.080067
0.113783
0.14857
0.184318
0.220846
0.257939
0.295365
0.332822
0.37015
0.407262
0.444004
0.480126
0.515372
0.549486
0.582191
0.61321
0.642264
0.669026
0.693263
0.714702
0.733125
0.748281
0.760007
0.768139
0.772558
0.773192
0.770006
0.763003
0.752261
0.737834
0.719896
0.698616
0.674219
0.646956
0.617163
-0.270082
-0.22558
-0.181059
-0.136522
-0.0920018
-0.0475312
-0.00317614
0.0409777
0.084822
0.128237
0.171124
0.213166
0.254043
0.29391
0.332984
0.371391
0.409127
0.446225
0.482659
0.518347
0.553161
0.586934
0.619486
0.650638
0.680193
0.70797
0.733783
0.757443
0.778758
0.797549
0.813648
0.826902
0.837179
0.844368
0.848386
0.849174
0.846711
0.841021
0.83217
0.820255
0.805403
0.787769
0.767528
0.744881
0.720048
0.693253
0.664742
0.634762
0.603567
0.57141
-0.212753
-0.167561
-0.120737
-0.0723719
-0.0226888
0.0280827
0.0796873
0.131891
0.184443
0.237072
0.289463
0.341274
0.392179
0.441809
0.489933
0.536339
0.580861
0.623307
0.663542
0.701411
0.736765
0.769458
0.799352
0.826322
0.85026
0.871074
0.88869
0.903057
0.91411
0.921859
0.926337
0.927597
0.925706
0.920752
0.912843
0.902101
0.888667
0.872695
0.854354
0.833823
0.811291
0.786955
0.761015
0.733675
0.705138
0.675607
0.645281
0.614353
0.583011
0.551435
-0.0225894
0.0144049
0.0531531
0.0935541
0.13561
0.179217
0.224264
0.270584
0.317948
0.36605
0.414597
0.463256
0.51164
0.559331
0.605908
0.650975
0.694173
0.735179
0.773712
0.809531
0.842438
0.872268
0.898896
0.922228
0.942203
0.958787
0.971973
0.981777
0.988238
0.991406
0.991366
0.988226
0.982115
0.973172
0.961555
0.947428
0.930966
0.91235
0.891766
0.869401
0.845444
0.820086
0.793514
0.765913
0.737463
0.70834
0.678713
0.648745
0.61859
0.588391
0.269493
0.304624
0.340802
0.377867
0.415656
0.454
0.49272
0.531632
0.570544
0.609259
0.647569
0.685264
0.722134
0.757968
0.792558
0.825701
0.857206
0.886889
0.914583
0.940132
0.963399
0.984263
1.00262
1.0184
1.0315
1.0419
1.04959
1.05458
1.0569
1.0566
1.05374
1.04839
1.04065
1.03063
1.01844
1.00422
0.988083
0.970186
0.950672
0.92969
0.907391
0.883926
0.859444
0.834093
0.808017
0.781355
0.754242
0.726806
0.699169
0.671445
0.265688
0.303349
0.341697
0.380621
0.420001
0.459711
0.499616
0.539576
0.579446
0.619075
0.658306
0.696976
0.734921
0.771974
0.807965
0.842727
0.876094
0.907905
0.938009
0.966259
0.992522
1.01668
1.03862
1.05825
1.0755
1.09032
1.10265
1.11248
1.11981
1.12465
1.12702
1.12698
1.12457
1.11989
1.11303
1.10409
1.09318
1.08043
1.06597
1.04992
1.03241
1.01359
0.993578
0.972515
0.950529
0.927749
0.904293
0.88028
0.855821
0.831022
0.199392
0.241749
0.284991
0.32896
0.373497
0.418439
0.463624
0.508887
0.554059
0.598974
0.643466
0.68737
0.730527
0.772779
0.813974
0.853964
0.892607
0.929768
0.965318
0.999137
1.03111
1.06114
1.08914
1.11502
1.13871
1.16017
1.17933
1.19618
1.2107
1.22288
1.23274
1.24029
1.24557
1.24862
1.24951
1.2483
1.24507
1.2399
1.2329
1.22416
1.21377
1.20185
1.1885
1.17381
1.15791
1.14089
1.12287
1.10395
1.08423
1.06382
0.103159
0.152672
0.202806
0.253382
0.304283
0.355406
0.40664
0.457866
0.508959
0.559792
0.610234
0.660158
0.709434
0.757939
0.805547
0.852138
0.897597
0.94181
0.984669
1.02607
1.06592
1.10412
1.14058
1.17524
1.20801
1.23883
1.26765
1.29442
1.3191
1.34166
1.3621
1.38039
1.39654
1.41056
1.42247
1.4323
1.44009
1.44587
1.4497
1.45164
1.45176
1.4501
1.44676
1.44179
1.43529
1.42732
1.41797
1.40731
1.39543
1.3824
0.00686318
0.0626886
0.11905
0.176015
0.233351
0.290935
0.348649
0.406382
0.464034
0.521506
0.5787
0.635517
0.691855
0.747612
0.802685
0.856971
0.91037
0.96278
1.01411
1.06425
1.11312
1.16064
1.20671
1.25126
1.29422
1.33551
1.37507
1.41286
1.44881
1.48289
1.51506
1.54529
1.57355
1.59985
1.62415
1.64648
1.66682
1.68519
1.70162
1.71611
1.72871
1.73945
1.74836
1.75548
1.76086
1.76455
1.7666
1.76706
1.76598
1.76342
0.000245505
0.00661684
0.0711694
0.135915
0.201663
0.267844
0.334108
0.400361
0.466465
0.532311
0.597803
0.662855
0.727385
0.791307
0.85454
0.917004
0.978621
1.03932
1.09901
1.15765
1.21515
1.27144
1.32647
1.38018
1.4325
1.48338
1.53276
1.58061
1.62686
1.67149
1.71445
1.75571
1.79524
1.83301
1.86901
1.90321
1.9356
1.96618
1.99493
2.02187
2.04699
2.07029
2.09179
2.11151
2.12945
2.14563
2.16008
2.17282
2.18387
2.19325
-0.0386938
-0.00140705
0.0067528
0.0829685
0.160317
0.238787
0.317397
0.395956
0.474293
0.55226
0.629723
0.706561
0.782671
0.857972
0.932396
1.00589
1.07839
1.14985
1.22019
1.28938
1.35734
1.42405
1.48945
1.55351
1.61618
1.67742
1.73721
1.79551
1.85229
1.90751
1.96116
2.01319
2.0636
2.11236
2.15945
2.20485
2.24855
2.29053
2.33077
2.36928
2.40604
2.44105
2.4743
2.50578
2.53551
2.56347
2.58967
2.61412
2.63681
2.65775
-0.200749
-0.135953
-0.00785406
0.0111224
0.10943
0.207595
0.305188
0.402078
0.498142
0.593267
0.687347
0.780283
0.87199
0.962385
1.0514
1.13896
1.22502
1.30954
1.39251
1.47391
1.55372
1.63192
1.70852
1.78351
1.85687
1.92861
1.99872
2.0672
2.13402
2.19918
2.26265
2.32444
2.38452
2.44289
2.49954
2.55446
2.60763
2.65906
2.70873
2.75663
2.80277
2.84712
2.88969
2.93048
2.96947
3.00667
3.04207
3.07566
3.10741
3.13732
-0.241354
-0.165404
-0.00929709
0.0124664
0.123954
0.235587
0.346782
0.457324
0.567024
0.675713
0.783245
0.889495
0.994357
1.09774
1.19956
1.29977
1.3983
1.49511
1.59016
1.68341
1.77484
1.86443
1.95214
2.03796
2.12188
2.20387
2.28391
2.36201
2.43816
2.51235
2.58459
2.65487
2.72318
2.78952
2.85389
2.91628
2.97669
3.03509
3.0915
3.1459
3.19827
3.24862
3.29693
3.34319
3.38739
3.42951
3.46955
3.5075
3.54336
3.57712
-0.335098
-0.259035
-0.0999599
0.0243334
0.147031
0.269965
0.392697
0.514851
0.636116
0.756237
0.875005
0.992259
1.10787
1.22173
1.33376
1.44391
1.55211
1.65834
1.76254
1.86471
1.9648
2.06279
2.15866
2.25239
2.34396
2.43334
2.52053
2.60551
2.68825
2.76876
2.84701
2.923
2.99672
3.06816
3.13731
3.20416
3.26872
3.33096
3.3909
3.44853
3.50384
3.55683
3.6075
3.65585
3.70188
3.74558
3.78697
3.82603
3.86277
3.8972
-0.779484
-0.503941
-0.314081
-0.156848
-0.00308179
0.147361
0.294594
0.438711
0.579795
0.717917
0.853141
0.985526
1.11512
1.24197
1.36611
1.48759
1.60639
1.72254
1.83606
1.94695
2.05524
2.16092
2.26401
2.36451
2.46242
2.55774
2.65048
2.74063
2.82819
2.91315
2.99552
3.0753
3.15248
3.22706
3.29903
3.36841
3.43519
3.49936
3.56094
3.61991
3.67629
3.73008
3.78128
3.82989
3.87592
3.91937
3.96027
3.9986
4.03439
4.06764
0.248377
0.233523
0.218803
0.204232
0.189824
0.175595
0.16156
0.147737
0.13414
0.120786
0.107691
0.0948692
0.0823352
0.0701025
0.0581836
0.0465901
0.0353325
0.02442
0.0138609
0.00366195
-0.00617102
-0.0156336
-0.0247224
-0.0334356
-0.041772
-0.0497321
-0.0573171
-0.0645294
-0.0713723
-0.07785
-0.0839677
-0.0897313
-0.0951473
-0.100223
-0.104966
-0.109386
-0.11349
-0.117287
-0.120789
-0.124003
-0.126941
-0.129611
-0.132025
-0.134193
-0.136124
-0.137829
-0.139319
-0.140603
-0.141691
-0.142592
-0.143318
-0.143876
-0.144276
-0.144526
-0.144637
-0.144616
-0.14447
-0.14421
-0.143841
-0.143371
-0.142808
-0.142158
-0.141428
-0.140624
-0.139752
-0.138818
-0.137827
-0.136785
-0.135697
-0.134566
-0.133399
-0.132198
-0.130968
-0.129712
-0.128435
-0.127138
-0.125826
-0.1245
-0.123164
-0.12182
-0.12047
-0.119116
-0.11776
-0.116403
-0.115048
-0.113694
-0.112344
-0.110999
-0.109659
-0.108325
-0.106997
-0.105677
-0.104365
-0.103061
-0.101765
-0.100477
-0.0991984
-0.0979282
-0.0966666
-0.0954135
-0.094169
-0.0929328
-0.0917047
-0.0904847
-0.0892724
-0.0880677
-0.0868703
-0.0856801
-0.0844967
-0.08332
-0.0821497
-0.0809857
-0.0798277
-0.0786756
-0.0775292
-0.0763885
-0.0752532
-0.0741234
-0.0729988
-0.0718796
-0.0707657
-0.0696571
-0.0685539
-0.0674561
-0.0663638
-0.0652771
-0.0641962
-0.0631211
-0.0620521
-0.0609894
-0.0599331
-0.0588835
-0.0578409
-0.0568054
-0.0557773
-0.0547569
-0.0537444
-0.0527403
-0.0517447
-0.0507581
-0.0497806
-0.0488127
-0.0478547
-0.0469069
-0.0459696
-0.0450434
-0.0441284
-0.043225
-0.0423337
-0.0414547
-0.0405883
-0.0397351
-0.0388951
-0.0380688
-0.0372564
-0.0364582
-0.0356744
-0.0349052
-0.0341507
-0.033411
-0.0326863
-0.0319764
-0.0312814
-0.0306013
-0.0299358
-0.0292848
-0.028648
-0.0280253
-0.0274163
-0.0268206
-0.026238
-0.025668
-0.0251102
-0.0245644
-0.02403
-0.0235068
-0.0229944
-0.0224926
-0.022001
-0.0215196
-0.0210482
-0.0205867
-0.0201352
-0.0196938
-0.0192627
-0.0188423
-0.0184329
-0.0180351
-0.0176495
-0.0172767
-0.0169178
-0.0165735
-0.0162449
-0.015933
-0.0156389
-0.0153636
-0.0151083
-0.0148738
-0.014661
-0.0144706
-0.0143031
-0.0141588
-0.0140378
-0.0139398
-0.0138643
-0.0138106
-0.0137776
-0.013764
-0.0137685
-0.0137892
-0.0138246
-0.0138729
-0.0139324
-0.0140013
-0.014078
-0.0141612
-0.0142497
-0.0143426
-0.0144391
-0.0145387
-0.0146411
-0.0147459
-0.0148528
-0.0149613
-0.0150706
-0.01518
-0.015288
-0.015393
-0.015493
-0.0155855
-0.0156674
-0.0157357
-0.0157865
-0.0158163
-0.0158209
-0.0157964
-0.0157392
-0.0156457
-0.0155134
-0.0153403
-0.0151253
-0.0148686
-0.0145709
-0.0142339
-0.0138598
-0.0134514
-0.013012
-0.0125452
-0.012055
-0.0115454
-0.0110204
-0.0104841
-0.00994026
-0.00939236
-0.00884382
-0.00829779
-0.00775719
-0.00722471
-0.00670273
-0.00619336
-0.00569852
-0.00522001
-0.00475953
-0.00431865
-0.00389875
-0.00350099
-0.00312632
-0.00277548
-0.00244904
-0.00214734
-0.0018705
-0.00161838
-0.00139054
-0.00118628
-0.00100461
-0.000844342
-0.000704069
-0.000582267
-0.000477334
-0.000387653
-0.000311647
-0.000247812
-0.000194725
-0.00015105
-0.000115541
-8.70432e-05
-6.44958e-05
-4.69344e-05
-3.34909e-05
-2.33932e-05
-1.59654e-05
-1.06256e-05
-6.88285e-06
-4.33174e-06
-2.64564e-06
-1.56831e-06
-9.04694e-07
-5.11376e-07
-2.86982e-07
-1.63045e-07
0.348711
0.331556
0.314349
0.297123
0.279908
0.26274
0.24565
0.228673
0.211842
0.195189
0.178747
0.162546
0.146617
0.130987
0.115684
0.100734
0.0861589
0.071981
0.0582199
0.0448929
0.0320153
0.0196004
0.0076592
-0.00379937
-0.0147685
-0.0252434
-0.0352212
-0.0447011
-0.0536841
-0.0621727
-0.0701713
-0.0776855
-0.0847227
-0.0912912
-0.0974006
-0.103062
-0.108286
-0.113085
-0.117473
-0.121463
-0.125069
-0.128306
-0.131187
-0.133729
-0.135946
-0.137852
-0.139464
-0.140795
-0.14186
-0.142675
-0.143253
-0.143607
-0.143752
-0.143702
-0.143468
-0.143063
-0.1425
-0.141789
-0.140943
-0.139973
-0.138887
-0.137698
-0.136413
-0.135042
-0.133594
-0.132077
-0.130498
-0.128866
-0.127187
-0.125468
-0.123714
-0.121932
-0.120127
-0.118305
-0.11647
-0.114626
-0.112778
-0.110929
-0.109083
-0.107242
-0.105411
-0.103592
-0.101786
-0.0999967
-0.0982252
-0.0964735
-0.094743
-0.093035
-0.0913506
-0.0896909
-0.0880564
-0.086448
-0.084866
-0.0833109
-0.0817828
-0.080282
-0.0788084
-0.077362
-0.0759426
-0.0745501
-0.0731842
-0.0718446
-0.0705308
-0.0692425
-0.0679792
-0.0667404
-0.0655257
-0.0643344
-0.063166
-0.06202
-0.0608959
-0.0597929
-0.0587106
-0.0576484
-0.0566058
-0.0555821
-0.0545767
-0.0535893
-0.0526191
-0.0516658
-0.0507287
-0.0498073
-0.0489012
-0.0480099
-0.0471328
-0.0462696
-0.0454197
-0.0445828
-0.0437584
-0.042946
-0.0421453
-0.0413559
-0.0405774
-0.0398094
-0.0390516
-0.0383036
-0.037565
-0.0368357
-0.0361152
-0.0354033
-0.0346997
-0.0340043
-0.0333167
-0.0326367
-0.0319643
-0.0312992
-0.0306413
-0.0299905
-0.0293467
-0.0287099
-0.02808
-0.0274569
-0.0268407
-0.0262315
-0.0256291
-0.0250338
-0.0244454
-0.0238642
-0.0232902
-0.0227235
-0.0221641
-0.0216122
-0.0210678
-0.020531
-0.020002
-0.0194807
-0.0189672
-0.0184617
-0.0179641
-0.0174746
-0.0169931
-0.0165197
-0.0160546
-0.0155976
-0.0151489
-0.0147085
-0.0142765
-0.013853
-0.0134379
-0.0130315
-0.0126339
-0.012245
-0.0118652
-0.0114944
-0.011133
-0.0107811
-0.010439
-0.0101067
-0.0097847
-0.00947314
-0.00917232
-0.00888253
-0.00860403
-0.00833711
-0.00808201
-0.00783895
-0.00760811
-0.00738962
-0.00718354
-0.00698985
-0.00680845
-0.00663912
-0.00648157
-0.00633539
-0.00620004
-0.00607493
-0.00595935
-0.00585251
-0.00575357
-0.00566166
-0.00557587
-0.00549531
-0.0054191
-0.00534643
-0.00527653
-0.00520871
-0.00514236
-0.00507696
-0.00501207
-0.00494732
-0.0048824
-0.00481707
-0.00475109
-0.00468423
-0.00461628
-0.00454697
-0.00447603
-0.00440314
-0.00432794
-0.00425003
-0.004169
-0.00408441
-0.00399586
-0.00390295
-0.00380534
-0.00370277
-0.00359508
-0.0034822
-0.00336422
-0.00324137
-0.00311402
-0.00298272
-0.0028481
-0.0027109
-0.00257192
-0.00243199
-0.00229196
-0.00215266
-0.00201489
-0.00187941
-0.00174689
-0.00161797
-0.00149317
-0.00137297
-0.00125775
-0.00114781
-0.00104338
-0.000944632
-0.000851666
-0.000764531
-0.000683226
-0.000607709
-0.000537902
-0.000473693
-0.000414938
-0.000361463
-0.000313069
-0.000269531
-0.000230604
-0.000196026
-0.000165519
-0.000138793
-0.000115549
-9.54848e-05
-7.82979e-05
-6.36908e-05
-5.13754e-05
-4.1077e-05
-3.25375e-05
-2.55185e-05
-1.98022e-05
-1.51925e-05
-1.15142e-05
-8.6125e-06
-6.35148e-06
-4.6132e-06
-3.29618e-06
-2.31404e-06
-1.59417e-06
-1.07634e-06
-7.11355e-07
-4.59707e-07
-2.90284e-07
-1.79087e-07
-1.08051e-07
-6.39286e-08
-3.72714e-08
-2.15809e-08
-1.2536e-08
-7.37089e-09
0.462997
0.444868
0.426381
0.407586
0.388534
0.369278
0.349873
0.330371
0.310828
0.291297
0.27183
0.252481
0.2333
0.214336
0.195634
0.177241
0.159199
0.141546
0.124319
0.107552
0.0912754
0.0755158
0.0602974
0.0456408
0.0315631
0.0180786
0.00519803
-0.00707069
-0.0187227
-0.029756
-0.0401713
-0.0499718
-0.0591629
-0.0677525
-0.0757503
-0.0831678
-0.0900181
-0.0963159
-0.102077
-0.107318
-0.112057
-0.116313
-0.120105
-0.123451
-0.126372
-0.128889
-0.13102
-0.132787
-0.134208
-0.135303
-0.136092
-0.136594
-0.136827
-0.136808
-0.136556
-0.136088
-0.13542
-0.134567
-0.133545
-0.132368
-0.131051
-0.129606
-0.128046
-0.126384
-0.12463
-0.122796
-0.120893
-0.118928
-0.116913
-0.114855
-0.112762
-0.110642
-0.108502
-0.106349
-0.104188
-0.102025
-0.0998655
-0.097714
-0.0955748
-0.093452
-0.0913491
-0.0892693
-0.0872156
-0.0851905
-0.0831963
-0.0812351
-0.0793084
-0.0774179
-0.0755647
-0.0737499
-0.0719743
-0.0702384
-0.0685428
-0.0668877
-0.0652732
-0.0636993
-0.0621659
-0.0606727
-0.0592194
-0.0578054
-0.0564304
-0.0550936
-0.0537944
-0.0525321
-0.0513058
-0.0501149
-0.0489583
-0.0478353
-0.046745
-0.0456864
-0.0446586
-0.0436606
-0.0426916
-0.0417505
-0.0408364
-0.0399485
-0.0390856
-0.038247
-0.0374317
-0.0366388
-0.0358674
-0.0351166
-0.0343856
-0.0336735
-0.0329795
-0.0323027
-0.0316423
-0.0309976
-0.0303678
-0.0297521
-0.0291498
-0.0285601
-0.0279825
-0.0274162
-0.0268605
-0.0263148
-0.0257785
-0.0252511
-0.0247318
-0.0242203
-0.023716
-0.0232185
-0.0227272
-0.0222417
-0.0217617
-0.0212868
-0.0208167
-0.0203511
-0.0198897
-0.0194323
-0.0189788
-0.0185289
-0.0180827
-0.0176399
-0.0172005
-0.0167646
-0.016332
-0.015903
-0.0154775
-0.0150557
-0.0146376
-0.0142235
-0.0138133
-0.0134074
-0.013006
-0.0126091
-0.0122171
-0.0118301
-0.0114483
-0.011072
-0.0107015
-0.0103369
-0.00997842
-0.00962634
-0.00928086
-0.00894219
-0.00861052
-0.00828605
-0.00796898
-0.00765946
-0.00735767
-0.00706376
-0.00677787
-0.00650012
-0.00623062
-0.00596948
-0.00571678
-0.00547259
-0.00523696
-0.00500994
-0.00479155
-0.0045818
-0.00438068
-0.00418816
-0.00400421
-0.00382875
-0.00366168
-0.0035029
-0.00335225
-0.00320957
-0.00307465
-0.00294725
-0.00282711
-0.00271392
-0.00260735
-0.00250705
-0.00241263
-0.0023237
-0.00223984
-0.00216062
-0.00208564
-0.00201446
-0.00194669
-0.00188195
-0.00181987
-0.00176014
-0.00170245
-0.00164654
-0.00159219
-0.00153921
-0.00148743
-0.00143672
-0.00138697
-0.00133809
-0.00129
-0.00124265
-0.00119597
-0.00114992
-0.00110445
-0.00105951
-0.00101507
-0.000971094
-0.000927555
-0.000884437
-0.000841733
-0.000799453
-0.00075762
-0.000716274
-0.000675471
-0.000635285
-0.0005958
-0.000557116
-0.00051934
-0.000482581
-0.000446951
-0.000412556
-0.000379494
-0.000347854
-0.00031771
-0.000289121
-0.000262131
-0.000236766
-0.000213037
-0.00019094
-0.000170453
-0.000151546
-0.000134174
-0.000118285
-0.000103818
-9.07045e-05
-7.88741e-05
-6.82516e-05
-5.87604e-05
-5.03227e-05
-4.2861e-05
-3.62983e-05
-3.0559e-05
-2.55695e-05
-2.12586e-05
-1.75578e-05
-1.4402e-05
-1.17295e-05
-9.48258e-06
-7.60738e-06
-6.0544e-06
-4.77843e-06
-3.73861e-06
-2.89839e-06
-2.22542e-06
-1.69136e-06
-1.27163e-06
-9.45132e-07
-6.93919e-07
-5.02874e-07
-3.594e-07
-2.53091e-07
-1.75456e-07
-1.1963e-07
-8.01571e-08
-5.27381e-08
-3.40523e-08
-2.1572e-08
-1.3415e-08
-8.19096e-09
-4.92594e-09
-2.92611e-09
-1.72224e-09
-1.00865e-09
-5.91164e-10
-3.5206e-10
0.557197
0.539685
0.521489
0.502671
0.483294
0.463427
0.443137
0.422495
0.401572
0.38044
0.35917
0.337832
0.316497
0.295233
0.274105
0.253177
0.232511
0.212164
0.19219
0.17264
0.153562
0.134997
0.116984
0.0995576
0.0827478
0.06658
0.0510757
0.0362519
0.0221218
0.00869443
-0.0040248
-0.0160341
-0.0273351
-0.0379324
-0.0478337
-0.0570493
-0.0655919
-0.0734762
-0.080719
-0.0873388
-0.0933552
-0.0987893
-0.103663
-0.107999
-0.111821
-0.115153
-0.118017
-0.120439
-0.122442
-0.12405
-0.125286
-0.126174
-0.126735
-0.126992
-0.126967
-0.12668
-0.126151
-0.125399
-0.124443
-0.123301
-0.12199
-0.120526
-0.118925
-0.117201
-0.115368
-0.11344
-0.111429
-0.109347
-0.107204
-0.105012
-0.10278
-0.100516
-0.0982305
-0.0959299
-0.0936218
-0.091313
-0.0890096
-0.0867173
-0.0844412
-0.082186
-0.079956
-0.077755
-0.0755863
-0.0734531
-0.0713579
-0.0693032
-0.0672908
-0.0653225
-0.0633997
-0.0615235
-0.0596948
-0.0579143
-0.0561824
-0.0544993
-0.0528651
-0.0512798
-0.049743
-0.0482544
-0.0468134
-0.0454195
-0.0440718
-0.0427696
-0.0415121
-0.0402981
-0.0391268
-0.0379971
-0.0369078
-0.0358578
-0.034846
-0.0338712
-0.0329321
-0.0320277
-0.0311566
-0.0303177
-0.0295098
-0.0287317
-0.0279821
-0.02726
-0.0265641
-0.0258934
-0.0252467
-0.0246229
-0.024021
-0.0234399
-0.0228785
-0.0223359
-0.021811
-0.021303
-0.0208108
-0.0203337
-0.0198706