/*--------------------------------*- C++ -*----------------------------------*\
| =========                 |                                                 |
| \\      /  F ield         | OpenFOAM: The Open Source CFD Toolbox           |
|  \\    /   O peration     | Version:  2.4.0                                 |
|   \\  /    A nd           | Web:      www.OpenFOAM.org                      |
|    \\/     M anipulation  |                                                 |
\*---------------------------------------------------------------------------*/
FoamFile
{
    version     2.0;
    format      ascii;
    class       volScalarField;
    location    "2.7";
    object      p_rgh;
}
// * * * * * * * * * * * * * * * * * * * * * * * * * * * * * * * * * * * * * //

dimensions      [1 -1 -2 0 0 0 0];

internalField   nonuniform List<scalar> 
8000
(
80.6782
80.6076
80.5399
80.4872
80.4476
80.4195
80.4012
80.3924
80.3963
80.4347
80.5358
80.613
80.1509
78.2158
69.625
9.77324
0.166566
0.200528
0.0175788
0.0215076
0.0207123
0.0205682
0.0207056
0.0208193
0.0208796
0.0210411
0.0209356
0.0209567
0.020972
0.0210704
0.0216024
0.0216303
0.0204419
0.020887
0.0210068
0.0201312
0.0200777
0.0200462
0.0199202
0.020344
0.0201903
0.0194939
0.0202173
0.0200079
0.0196797
0.0196195
0.0195502
0.0194628
0.0195072
0.0207539
79.0009
78.9372
78.8641
78.7933
78.7252
78.656
78.5862
78.5309
78.5384
78.6032
78.3133
76.4747
72.6419
24.2966
0.211114
0.315019
0.0238796
0.0220423
0.0199035
0.0199005
0.0200077
0.0199888
0.0199002
0.0203547
0.0196394
0.019546
0.0195304
0.0194176
0.0193314
0.0193271
0.0206053
0.0202195
0.0203718
0.0203101
0.0210704
0.0193657
0.019513
0.0193884
0.0194369
0.0196802
0.0189399
0.0188676
0.0188126
0.0188285
0.0188195
0.0190029
0.0194167
0.0190303
0.0188345
0.0188673
79.4958
79.3932
79.2808
79.1759
79.0775
78.9844
78.9107
78.8814
78.8502
78.4514
77.0194
66.0853
3.06584
0.0652449
0.0607432
0.0466952
0.0302332
0.0254076
0.0247385
0.0245339
0.0241845
0.0238062
0.0234261
0.0231889
0.0226392
0.022315
0.0220079
0.0225442
0.0216379
0.0214007
0.021147
0.0208773
0.0207082
0.0215418
0.0213155
0.0203463
0.0200536
0.0198475
0.0196067
0.01954
0.0205015
0.0194786
0.0191154
0.0189314
0.0186949
0.0185624
0.0184535
0.0184547
0.0182988
0.0183319
80.1503
80.0751
79.9927
79.9056
79.8116
79.7231
79.6604
79.5684
79.0974
77.7096
62.6849
1.74011
0.0513338
0.0559241
0.0258223
0.0177655
0.0180865
0.017705
0.0173605
0.0171367
0.0166528
0.0161406
0.0158095
0.0156867
0.015849
0.0161185
0.0164053
0.0181682
0.017353
0.0175893
0.0178479
0.0180868
0.0183019
0.0187164
0.0197884
0.0188965
0.0188477
0.0189613
0.0190597
0.01922
0.0196424
0.0197131
0.0185348
0.0184372
0.018473
0.0184916
0.0186002
0.0191866
0.0191884
0.0190013
74.4481
74.5149
74.556
74.5633
74.5421
74.4958
74.428
74.3362
74.1911
73.9168
73.5744
7.81653
3.29656
3.16674
-0.0562093
0.00724684
0.0137029
0.014537
0.0154537
0.0154141
0.0153482
0.015512
0.0152425
0.0154492
0.0157981
0.0162696
0.0169515
0.0182244
0.0173614
0.0179811
0.0185867
0.0192601
0.0200738
0.0205696
0.0198596
0.0201245
0.0203644
0.0205599
0.0208292
0.0212923
0.0212525
0.0213398
0.0216504
0.0217661
0.0219573
0.0235368
0.0219236
0.0218637
0.0218952
0.0219158
86.7421
86.7827
86.8474
86.9238
87.0063
87.0955
87.1907
87.3085
87.4843
87.7098
87.6361
86.2875
84.0373
48.9569
-2.95913
-2.98273
-0.208457
-0.0684615
-0.0587949
-0.0164319
0.00385661
0.0160996
0.0236236
0.0262247
0.0257469
0.0252532
0.0249829
0.0258595
0.0251266
0.0245761
0.0243082
0.0241456
0.0241241
0.0240744
0.0247049
0.023682
0.0234683
0.0233927
0.0233397
0.0242546
0.0236724
0.0235357
0.0234687
0.0233859
0.0233791
0.0269407
0.0253273
0.0248051
0.0249635
0.0245342
85.2676
85.3329
85.4027
85.4743
85.551
85.6341
85.7243
85.8234
85.9344
86.0569
86.1623
86.1795
86.1391
85.7668
85.2139
84.9689
81.2606
42.806
1.51002
-0.3996
0.289689
0.338077
0.043904
-0.0263488
-0.0171577
-0.00692393
0.00693159
0.0288827
0.0383285
0.0345327
0.0299872
0.0288999
0.0294248
0.0296688
0.0295134
0.0293714
0.0293066
0.0298753
0.0288914
0.0284471
0.0279498
0.0275595
0.0272301
0.0268096
0.0273357
0.0277146
0.0256994
0.0246888
0.0242758
0.0240689
89.4542
89.5056
89.5637
89.6162
89.6635
89.7054
89.7438
89.7766
89.806
89.8284
89.8473
89.8586
89.8709
89.8873
89.9018
89.8869
89.7964
89.5405
89.3296
89.7509
91.5428
73.8953
47.4833
10.8917
-0.419116
0.501244
0.788356
0.638742
0.289535
0.0797755
0.0554592
0.0713289
0.0809114
0.0596845
0.0372184
0.0299714
0.0271344
0.0255998
0.0260113
0.0254092
0.0255871
0.0284611
0.0265429
0.0233928
0.0229192
0.023017
0.0229009
0.0230961
0.0225407
0.0224376
91.9531
91.9712
91.9917
92.0124
92.0343
92.057
92.0813
92.1064
92.1331
92.1603
92.1893
92.2186
92.2503
92.2824
92.3182
92.3539
92.3973
92.4514
92.5276
92.6193
92.7571
92.8459
92.8256
92.4908
91.8835
91.9129
75.5292
46.7842
14.2783
2.11679
2.4511
2.53973
1.38346
0.437028
0.240898
0.21119
0.179082
0.192815
0.20681
0.123314
0.129367
0.046995
0.0246503
0.0164526
0.0148827
0.0151588
0.0155346
0.0158552
0.0161365
0.0163909
95.019
95.0251
95.0334
95.0437
95.0557
95.0695
95.0852
95.1027
95.122
95.143
95.1658
95.1905
95.2168
95.245
95.2748
95.3065
95.3401
95.3759
95.4137
95.4524
95.4927
95.5411
95.6029
95.6792
95.7619
95.9022
95.9711
95.7435
94.9254
91.6719
89.3963
67.5963
29.3716
4.02282
2.85193
2.99902
1.9278
0.434833
0.12938
0.11368
0.0751617
0.0318338
0.0209141
0.0205742
0.0210561
0.0209754
0.0216912
0.0209123
0.0208354
0.0208002
97.6109
97.6033
97.5972
97.5946
97.5953
97.5992
97.6062
97.6162
97.6293
97.6455
97.6647
97.687
97.7124
97.741
97.7727
97.8077
97.8457
97.8872
97.9318
97.98
98.031
98.0858
98.1434
98.2052
98.27
98.3413
98.4218
98.508
98.5911
98.6692
98.7967
98.7477
98.2229
94.8013
90.1831
73.8163
35.6553
6.20319
3.09679
2.65846
1.11005
0.20885
0.105055
0.0663441
0.031751
0.0206564
0.01884
0.0190136
0.0190104
0.0190003
99.5738
99.562
99.5505
99.542
99.5365
99.5336
99.5333
99.5355
99.5402
99.5474
99.5571
99.5694
99.5841
99.6014
99.6211
99.6434
99.6682
99.6956
99.7254
99.7579
99.7927
99.8305
99.8704
99.9133
99.9583
100.006
100.056
100.109
100.165
100.225
100.289
100.358
100.415
100.464
100.551
100.598
100.4
95.6326
91.9023
69.9195
22.0363
4.65308
3.08466
1.05333
0.198514
0.0844407
0.0489233
0.0315342
0.0235141
0.0203341
101.166
101.149
101.132
101.118
101.107
101.098
101.092
101.088
101.086
101.086
101.088
101.093
101.1
101.109
101.12
101.133
101.148
101.166
101.185
101.207
101.23
101.256
101.284
101.313
101.345
101.378
101.413
101.45
101.489
101.53
101.572
101.616
101.662
101.712
101.765
101.82
101.878
101.927
102.003
101.983
100.496
94.196
70.3637
18.4646
4.97032
1.90726
0.623686
0.238382
0.0956476
0.0399614
102.536
102.516
102.495
102.477
102.462
102.449
102.439
102.431
102.424
102.42
102.418
102.419
102.421
102.425
102.432
102.44
102.451
102.463
102.478
102.495
102.513
102.534
102.557
102.582
102.608
102.637
102.668
102.701
102.736
102.773
102.813
102.854
102.897
102.943
102.991
103.041
103.094
103.15
103.208
103.259
103.295
103.372
103.434
102.654
88.7205
46.4422
15.9903
6.28442
2.08755
0.540662
103.256
103.237
103.216
103.198
103.182
103.169
103.157
103.146
103.138
103.131
103.126
103.123
103.121
103.121
103.123
103.126
103.13
103.137
103.145
103.154
103.165
103.177
103.191
103.207
103.223
103.242
103.262
103.283
103.305
103.329
103.355
103.381
103.409
103.439
103.469
103.501
103.534
103.568
103.603
103.64
103.679
103.714
103.736
103.767
103.808
103.695
93.7086
66.4197
33.4927
12.7324
104.059
104.045
104.031
104.019
104.008
103.999
103.99
103.983
103.976
103.971
103.966
103.963
103.96
103.959
103.958
103.958
103.96
103.962
103.966
103.97
103.975
103.982
103.989
103.997
104.007
104.017
104.029
104.041
104.055
104.07
104.085
104.102
104.12
104.139
104.159
104.18
104.202
104.225
104.25
104.275
104.301
104.329
104.357
104.385
104.412
104.447
104.476
104.373
95.9623
72.0724
104.115
104.113
104.109
104.106
104.103
104.101
104.1
104.099
104.098
104.098
104.098
104.099
104.1
104.102
104.104
104.107
104.11
104.114
104.118
104.123
104.128
104.134
104.141
104.148
104.156
104.165
104.174
104.184
104.194
104.205
104.217
104.23
104.244
104.258
104.273
104.288
104.305
104.322
104.341
104.36
104.379
104.4
104.422
104.444
104.469
104.494
104.511
104.537
104.517
103.122
104.837
104.858
104.881
104.898
104.911
104.92
104.925
104.928
104.928
104.927
104.923
104.918
104.911
104.904
104.895
104.886
104.876
104.866
104.855
104.845
104.834
104.823
104.812
104.801
104.791
104.781
104.771
104.761
104.752
104.744
104.736
104.728
104.721
104.714
104.708
104.702
104.697
104.693
104.689
104.685
104.682
104.679
104.677
104.674
104.671
104.678
104.674
104.677
104.68
104.652
104.467
104.529
104.585
104.629
104.662
104.688
104.707
104.722
104.733
104.739
104.743
104.744
104.742
104.739
104.734
104.727
104.72
104.711
104.703
104.693
104.683
104.673
104.663
104.653
104.642
104.632
104.622
104.612
104.602
104.592
104.583
104.574
104.565
104.557
104.548
104.54
104.533
104.525
104.518
104.511
104.504
104.496
104.489
104.482
104.474
104.472
104.463
104.451
104.447
104.457
109.577
109.193
108.807
108.476
108.186
107.925
107.687
107.468
107.268
107.083
106.913
106.755
106.609
106.473
106.346
106.228
106.117
106.014
105.917
105.826
105.74
105.66
105.585
105.515
105.448
105.386
105.328
105.273
105.222
105.174
105.13
105.088
105.049
105.012
104.979
104.948
104.919
104.892
104.868
104.846
104.826
104.808
104.792
104.778
104.766
104.756
104.747
104.733
104.742
104.823
0.0205162
0.0201163
0.0202875
0.020201
0.0202645
0.0213788
0.0204199
0.020179
0.0202028
0.0199729
0.0201365
0.0206566
0.0198592
0.0196611
0.0196752
0.0197005
0.0197562
0.0199724
0.0203331
0.0196012
0.0194677
0.0194988
0.0195385
0.0196043
0.0196975
0.020118
0.0205846
0.01943
0.0194905
0.0193896
0.0195693
0.0199826
0.0189075
0.0189223
0.0189741
0.0190274
0.0191523
0.0195347
0.0187776
0.0188269
0.0188742
0.0189185
0.0189576
0.0189924
0.0190346
0.019073
0.0191095
0.0191452
0.0191801
0.0192184
0.0189272
0.0189536
0.0190299
0.0192516
0.0192966
0.0183693
0.0183474
0.0184392
0.0183196
0.0185002
0.018885
0.0183173
0.0182961
0.0184804
0.0179663
0.018067
0.0179514
0.0180203
0.0180969
0.0179786
0.018577
0.0185581
0.0184833
0.0186486
0.0184844
0.0187453
0.0191861
0.0180062
0.0182962
0.0183613
0.0185603
0.0190873
0.0186843
0.018643
0.0187301
0.0188238
0.0189362
0.0192637
0.0191594
0.0191546
0.0192325
0.019335
0.0192379
0.0192489
0.0193013
0.0193452
0.0193824
0.0194212
0.0194599
0.0194974
0.0191515
0.0180891
0.0180155
0.0178766
0.0178318
0.0182118
0.0175131
0.0174383
0.0173871
0.0173372
0.0173162
0.0172831
0.0173418
0.017257
0.0171325
0.0173111
0.0172427
0.0172709
0.0176356
0.0175872
0.0175572
0.0177494
0.0175207
0.0178741
0.0178221
0.0179363
0.0179865
0.0185212
0.0181053
0.0182168
0.0182877
0.0183643
0.0184514
0.0184874
0.0186175
0.018817
0.0189025
0.0189383
0.0190336
0.0190711
0.0192327
0.0192307
0.0195541
0.0191307
0.0191711
0.0192383
0.0192974
0.019343
0.0194001
0.0194454
0.0190532
0.0190457
0.0192251
0.0196119
0.019133
0.0189488
0.0189827
0.0187524
0.018974
0.0189766
0.0180372
0.018237
0.0182036
0.0182105
0.022155
0.019446
0.0190811
0.0191668
0.0191445
0.0192313
0.0195916
0.0210464
0.0185047
0.0183264
0.0183732
0.0184467
0.0184685
0.0184812
0.0185709
0.0186742
0.0188105
0.0188306
0.0188873
0.0189261
0.0189796
0.0191654
0.0201547
0.0195935
0.019682
0.0197108
0.0198548
0.0198201
0.0200773
0.0198964
0.020004
0.0201245
0.0205757
0.0201285
0.0202056
0.0202121
0.0219333
0.0222188
0.0222936
0.0218954
0.0216483
0.021769
0.0217909
0.0221434
0.021982
0.0220282
0.0220855
0.0221593
0.0222468
0.0223248
0.0234922
0.0249893
0.019802
0.0195317
0.0197882
0.0199175
0.020142
0.0212309
0.0220941
0.0186344
0.0181884
0.0182445
0.0183194
0.0184038
0.0184979
0.0185874
0.0187015
0.0193475
0.0194211
0.0193924
0.0194505
0.0195285
0.0195951
0.0196629
0.0197771
0.0202484
0.0199384
0.0199796
0.0198827
0.0199461
0.0198899
0.0199181
0.0200099
0.0201087
0.0205743
0.0203374
0.0245566
0.0239618
0.0239135
0.0239363
0.0239554
0.0239756
0.0239998
0.0240285
0.0241921
0.0266524
0.0257763
0.0260483
0.0254447
0.026613
0.0267453
0.022849
0.0217982
0.0216267
0.0217261
0.0218219
0.0221625
0.0233546
0.0241106
0.0200429
0.0196625
0.0197181
0.0198137
0.0198625
0.0199038
0.0199971
0.0200679
0.0208057
0.0201796
0.0202241
0.0203795
0.0205553
0.0202393
0.0202663
0.0202771
0.0202943
0.0203473
0.0203637
0.020486
0.0209483
0.0206176
0.0206237
0.0206178
0.0206313
0.0207026
0.0208425
0.023955
0.0237783
0.0242827
0.0235258
0.023429
0.0232417
0.0229755
0.0228241
0.0227372
0.0231335
0.0255213
0.026272
0.0246571
0.0224052
0.0213799
0.0213069
0.0212125
0.0211002
0.0209965
0.0209038
0.0208135
0.0207224
0.0206302
0.0206166
0.0204733
0.0203924
0.0203438
0.0203042
0.0202656
0.0202348
0.0202164
0.020202
0.0201886
0.0201849
0.0201813
0.0202123
0.0201774
0.0201795
0.0201864
0.0201973
0.0201883
0.0201901
0.0201886
0.0202141
0.0202256
0.0202141
0.0202123
0.0202156
0.0202214
0.0202292
0.0223402
0.0222605
0.0222049
0.0222026
0.0221316
0.02208
0.0220945
0.0220005
0.0219406
0.0218982
0.0218469
0.0217595
0.0217133
0.0216452
0.0215834
0.0216353
0.0216608
0.0213332
0.0212921
0.0212501
0.0212053
0.0211579
0.0211128
0.0210751
0.0210364
0.0209996
0.0209681
0.0209309
0.0208989
0.0208685
0.02084
0.0208133
0.020788
0.0207632
0.0207399
0.0207149
0.0206894
0.020666
0.0206437
0.0206217
0.0205995
0.0205775
0.0205569
0.0205395
0.0205249
0.0205117
0.0204994
0.0204877
0.0204767
0.0204668
0.0166272
0.0168432
0.0170363
0.0174795
0.0179694
0.0178387
0.0177593
0.017972
0.018113
0.0182168
0.0182002
0.0182784
0.0183723
0.0184686
0.0185562
0.0186376
0.0187143
0.0187915
0.0188697
0.0189405
0.0190061
0.01907
0.0191302
0.0191853
0.0192376
0.019288
0.0193344
0.0193792
0.0194225
0.0194645
0.019505
0.019544
0.0195821
0.0196135
0.0196398
0.0196649
0.0196882
0.01971
0.0197311
0.0197517
0.0197718
0.0197909
0.0198088
0.0198254
0.0198406
0.0198545
0.019867
0.0198783
0.0198883
0.0198968
0.0207812
0.0207689
0.0207532
0.0207401
0.0207267
0.020705
0.0206779
0.0206542
0.0206307
0.020606
0.0205802
0.0205566
0.0205368
0.0205204
0.0205064
0.0204929
0.0204779
0.0204611
0.0204444
0.0204282
0.0204125
0.0203971
0.0203793
0.020361
0.0203426
0.0203241
0.0203066
0.0202898
0.0202737
0.020258
0.02024
0.0202206
0.0202018
0.0201834
0.0201653
0.0201476
0.0201308
0.020115
0.0201002
0.0200864
0.0200733
0.0200608
0.0200487
0.0200372
0.0200262
0.0200158
0.0200059
0.0199965
0.0199877
0.0199795
0.0189994
0.0189788
0.0189886
0.0189983
0.0190077
0.0190181
0.0190274
0.0190346
0.0190401
0.0190446
0.0190485
0.0190536
0.0190623
0.0190763
0.0190958
0.0191198
0.0191466
0.0191756
0.0192043
0.0192307
0.0192586
0.0192865
0.0193136
0.0193393
0.0193642
0.0193883
0.0194119
0.0194354
0.0194584
0.0194786
0.0194965
0.0195139
0.0195307
0.019547
0.0195627
0.0195777
0.0195918
0.0196049
0.019617
0.019628
0.0196381
0.0196473
0.0196555
0.0196628
0.0196692
0.0196748
0.0196795
0.0196834
0.0196865
0.0196888
0.0197637
0.0197756
0.0197874
0.0198018
0.0198004
0.0198022
0.0198025
0.0197967
0.0197823
0.0197595
0.0197309
0.0197012
0.0196754
0.0196567
0.0196458
0.0196411
0.0196404
0.0196414
0.0196428
0.0196435
0.0196435
0.0196429
0.019642
0.0196407
0.0196392
0.0196376
0.0196351
0.0196318
0.0196283
0.0196249
0.0196214
0.0196178
0.0196142
0.0196105
0.0196067
0.0196028
0.0195989
0.0195951
0.0195912
0.0195874
0.0195835
0.0195797
0.0195759
0.0195721
0.0195682
0.0195643
0.0195605
0.0195566
0.0195528
0.0195489
0.0232727
0.0198045
0.0198107
0.019803
0.0197651
0.0197412
0.0197223
0.0196999
0.0196711
0.019637
0.0196018
0.0195708
0.0195478
0.0195342
0.0195288
0.0195293
0.0195333
0.0195391
0.0195453
0.0195514
0.019557
0.0195624
0.0195674
0.0195721
0.0195764
0.0195803
0.0195839
0.019587
0.0195897
0.019592
0.0195939
0.0195954
0.0195966
0.0195974
0.0195977
0.0195977
0.0195974
0.0195966
0.0195954
0.0195939
0.019592
0.0195898
0.0195872
0.0195843
0.019581
0.0195774
0.0195734
0.0195691
0.0195646
0.01956
0.11391
0.0316447
0.0204961
0.0203068
0.020189
0.0201286
0.02008
0.0200222
0.0199602
0.0198953
0.0198305
0.0197694
0.0197148
0.0196691
0.0196326
0.0196046
0.0195836
0.0195677
0.0195553
0.019545
0.019536
0.0195276
0.0195196
0.0195118
0.0195042
0.0194968
0.0194896
0.0194826
0.0194758
0.0194691
0.0194626
0.0194562
0.01945
0.0194438
0.0194378
0.019432
0.0194262
0.0194205
0.0194149
0.0194093
0.0194039
0.0193985
0.0193932
0.019388
0.0193828
0.0193776
0.0193725
0.0193675
0.0193625
0.0193573
3.08476
0.514121
0.0838649
0.0265087
0.0203153
0.020432
0.0201357
0.0201185
0.0200467
0.0199678
0.0198974
0.0198374
0.019788
0.0197489
0.0197189
0.0196964
0.0196794
0.0196663
0.0196557
0.0196468
0.0196389
0.0196315
0.0196244
0.0196174
0.0196106
0.0196039
0.0195972
0.0195907
0.0195842
0.0195777
0.0195713
0.0195648
0.0195584
0.0195519
0.0195454
0.0195389
0.0195323
0.0195257
0.0195191
0.0195124
0.0195056
0.0194988
0.0194919
0.019485
0.019478
0.0194709
0.0194637
0.0194565
0.0194493
0.0194421
31.68
7.03697
0.838676
0.0647944
0.0205551
0.0201233
0.0199866
0.019885
0.0197936
0.0197185
0.0196619
0.0196213
0.0195926
0.0195714
0.0195552
0.0195423
0.0195316
0.0195223
0.0195139
0.0195061
0.0194986
0.0194913
0.0194842
0.0194773
0.0194705
0.0194637
0.0194571
0.0194505
0.019444
0.0194376
0.0194312
0.0194248
0.0194184
0.0194121
0.0194058
0.0193995
0.0193932
0.0193869
0.0193806
0.0193743
0.019368
0.0193617
0.0193553
0.0193489
0.0193425
0.0193361
0.0193296
0.0193232
0.0193167
0.01931
84.1721
27.4614
2.65371
0.0895403
0.0202476
0.0199944
0.0198393
0.0197157
0.0196348
0.0195866
0.0195582
0.0195408
0.0195292
0.0195211
0.0195149
0.01951
0.0195057
0.0195019
0.0194984
0.019495
0.0194916
0.0194882
0.0194847
0.0194811
0.0194774
0.0194736
0.0194696
0.0194655
0.0194613
0.019457
0.0194525
0.019448
0.0194433
0.0194385
0.0194336
0.0194285
0.0194234
0.0194181
0.0194128
0.0194073
0.0194017
0.019396
0.0193902
0.0193843
0.0193783
0.0193722
0.0193659
0.0193595
0.0193531
0.0193467
98.6447
40.1929
3.74718
0.0945439
0.0199484
0.0197579
0.0196208
0.019529
0.0194791
0.0194522
0.0194363
0.019426
0.0194191
0.0194143
0.019411
0.0194087
0.019407
0.0194058
0.0194047
0.0194036
0.0194025
0.0194012
0.0193998
0.0193981
0.0193963
0.0193943
0.0193921
0.0193897
0.0193872
0.0193844
0.0193815
0.0193783
0.019375
0.0193715
0.0193679
0.019364
0.01936
0.0193558
0.0193515
0.019347
0.0193423
0.0193374
0.0193325
0.0193273
0.019322
0.0193166
0.0193111
0.0193054
0.0192996
0.0192936
66.0867
7.90801
0.173336
0.0201599
0.0196609
0.0194949
0.0194499
0.0194296
0.0194156
0.0194054
0.0193979
0.0193929
0.0193897
0.0193878
0.0193868
0.0193864
0.0193861
0.019386
0.0193858
0.0193854
0.019385
0.0193843
0.0193835
0.0193824
0.0193812
0.0193798
0.0193783
0.0193765
0.0193746
0.0193725
0.0193702
0.0193677
0.019365
0.0193621
0.0193591
0.0193559
0.0193525
0.019349
0.0193452
0.0193413
0.0193373
0.019333
0.0193286
0.0193241
0.0193193
0.0193145
0.0193094
0.0193043
0.0192989
0.0192935
20.0769
0.41387
0.0202203
0.0197578
0.0194486
0.0194056
0.0193963
0.019391
0.0193865
0.019383
0.0193808
0.0193796
0.0193794
0.0193796
0.01938
0.0193805
0.019381
0.0193812
0.0193814
0.0193814
0.0193812
0.0193808
0.0193803
0.0193796
0.0193787
0.0193777
0.0193764
0.019375
0.0193733
0.0193715
0.0193695
0.0193672
0.0193648
0.0193622
0.0193594
0.0193564
0.0193532
0.0193498
0.0193463
0.0193425
0.0193386
0.0193344
0.0193301
0.0193256
0.0193209
0.0193161
0.0193111
0.0193059
0.0193005
0.019295
0.0192432
0.0193357
0.0192618
0.0192649
0.0192803
0.0192955
0.0193103
0.0193248
0.0193388
0.0193525
0.0193659
0.0193788
0.0193913
0.0194035
0.0194152
0.0194266
0.0194375
0.0194481
0.0194583
0.0194681
0.0194775
0.0194864
0.019495
0.0195032
0.019511
0.0195184
0.0195254
0.019532
0.0195382
0.0195441
0.0195495
0.0195546
0.0195594
0.0195637
0.0195677
0.0195713
0.0195746
0.0195774
0.01958
0.0195822
0.019584
0.0195855
0.0195866
0.0195874
0.0195879
0.0195882
0.0195881
0.0195872
0.0195862
0.0195849
0.0195833
0.0195813
0.019579
0.0195764
0.0195735
0.0195708
0.0195677
0.0195934
0.0195522
0.0195438
0.0195392
0.0195339
0.0195285
0.0195228
0.0195169
0.0195106
0.0195041
0.0194973
0.0194902
0.0194828
0.0194752
0.0194673
0.0194592
0.0194508
0.0194421
0.0194332
0.0194241
0.0194147
0.0194051
0.0193953
0.0193852
0.0193749
0.0193645
0.0193538
0.0193429
0.0193318
0.0193206
0.0193091
0.0192975
0.0192857
0.0192738
0.0192617
0.0192494
0.019237
0.0192245
0.0192118
0.0191989
0.019186
0.0191729
0.0191597
0.0191464
0.019133
0.0191195
0.0191059
0.0190922
0.0190784
0.0190645
0.0190506
0.0190366
0.0190225
0.0190083
0.0189941
0.0189798
0.0189655
0.0189511
0.0189366
0.0189221
0.0189076
0.018893
0.0188783
0.0188636
0.0188489
0.0188341
0.0188193
0.0188045
0.0187896
0.0187746
0.0187596
0.0187446
0.0187295
0.0187143
0.0186991
0.0186838
0.0186685
0.018653
0.0186375
0.0186219
0.0186061
0.0185903
0.0185744
0.0185583
0.018542
0.0185256
0.0185091
0.0184924
0.0184754
0.0184583
0.0184409
0.0184233
0.0184054
0.0183873
0.0183688
0.0183501
0.018331
0.0183115
0.0182917
0.0182714
0.0182508
0.0182296
0.018208
0.0181859
0.0181632
0.01814
0.0181161
0.0180916
0.0180664
0.0180405
0.0180139
0.0179864
0.0179582
0.017929
0.017899
0.017868
0.0178361
0.0178031
0.0177691
0.017734
0.0176977
0.0176603
0.0176217
0.0175818
0.0175406
0.017498
0.017454
0.0174086
0.0173617
0.0173132
0.0172631
0.0172113
0.0171578
0.0171026
0.0170455
0.0169865
0.0169255
0.0168625
0.0167974
0.0167301
0.0166605
0.0165885
0.0165142
0.0164373
0.0163577
0.0162755
0.0161904
0.0161024
0.0160114
0.0159173
0.0158199
0.0157194
0.0156155
0.0155083
0.0153975
0.0152834
0.0151666
0.015046
0.0149213
0.0147924
0.0146593
0.0145222
0.0143812
0.0142363
0.0140874
0.0139346
0.0137779
0.0136173
0.0134529
0.0132851
0.0131137
0.012939
0.0127609
0.0125796
0.0123954
0.0122082
0.0120184
0.0118265
0.0116335
0.0114519
0.0112754
0.0111026
0.0109333
0.0107674
0.0106053
0.0104475
0.0102952
0.0101488
0.0100093
0.00987693
0.00975186
0.00963388
0.00952279
0.00941854
0.00932125
0.00923093
0.00914757
0.00907108
0.00900122
0.00893849
0.0088855
0.00884196
0.00880699
0.00878016
0.00876113
0.00874976
0.00874632
0.00875157
0.00876592
0.00878915
0.0088206
0.00885946
0.00890503
0.00895668
0.00901386
0.0090762
0.00914351
0.00921564
0.00929248
0.00937434
0.00946213
0.00955619
0.00965638
0.00976249
0.00987452
0.00999257
0.0101165
0.0102461
0.0103807
0.0105198
0.010663
0.0108101
0.0109606
0.0111145
0.0112714
0.0114314
0.0115941
0.0117592
0.0119252
0.0120924
0.0122651
0.0124482
0.0126285
0.0195261
0.0195457
0.0195644
0.0195824
0.0195998
0.0196168
0.0196333
0.0196494
0.0196649
0.01968
0.0196945
0.0197086
0.0197221
0.0197351
0.0197476
0.0197596
0.0197711
0.0197821
0.0197926
0.0198026
0.0198121
0.0198212
0.0198297
0.0198378
0.0198455
0.0198526
0.0198594
0.0198656
0.0198714
0.0198768
0.0198817
0.0198862
0.0198902
0.0198938
0.019897
0.0198998
0.0199021
0.0199041
0.0199056
0.0199066
0.0199074
0.0199079
0.0199079
0.0199075
0.0199068
0.0199057
0.0199043
0.0199025
0.0199004
0.0198979
0.0198951
0.0198919
0.0198885
0.0198847
0.0198805
0.0198761
0.0198714
0.0198664
0.019861
0.0198553
0.0198492
0.0198429
0.0198363
0.0198294
0.0198221
0.0198146
0.0198068
0.0197987
0.0197904
0.0197817
0.0197728
0.0197636
0.0197542
0.0197445
0.0197345
0.0197243
0.0197138
0.0197031
0.0196922
0.019681
0.0196696
0.019658
0.0196461
0.0196341
0.0196218
0.0196094
0.0195967
0.0195838
0.0195708
0.0195576
0.0195441
0.0195306
0.0195168
0.0195029
0.0194888
0.0194746
0.0194602
0.0194457
0.019431
0.0194162
0.0194013
0.0193863
0.0193711
0.0193558
0.0193404
0.0193248
0.0193092
0.0192935
0.0192776
0.0192617
0.0192456
0.0192295
0.0192133
0.019197
0.0191806
0.0191641
0.0191475
0.0191308
0.0191141
0.0190972
0.0190803
0.0190633
0.0190463
0.0190291
0.0190118
0.0189945
0.0189771
0.0189595
0.0189419
0.0189242
0.0189064
0.0188884
0.0188704
0.0188522
0.018834
0.0188156
0.018797
0.0187784
0.0187595
0.0187406
0.0187214
0.0187021
0.0186826
0.0186629
0.0186431
0.018623
0.0186027
0.0185821
0.0185614
0.0185403
0.018519
0.0184974
0.0184756
0.0184534
0.0184309
0.018408
0.0183848
0.0183612
0.0183372
0.0183128
0.018288
0.0182627
0.018237
0.0182107
0.018184
0.0181567
0.0181288
0.0181003
0.0180713
0.0180416
0.0180112
0.0179802
0.0179485
0.017916
0.0178828
0.0178488
0.0178139
0.0177783
0.0177417
0.0177043
0.0176659
0.0176266
0.0175863
0.0175449
0.0175025
0.017459
0.0174144
0.0173687
0.0173217
0.0172736
0.0172242
0.0171735
0.0171214
0.017068
0.0170132
0.016957
0.0168992
0.0168399
0.016779
0.0167165
0.0166523
0.0165864
0.0165186
0.0164491
0.0163776
0.0163042
0.0162288
0.0161513
0.0160717
0.01599
0.015906
0.0158197
0.0157312
0.0156404
0.0155472
0.0154515
0.0153534
0.0152528
0.0151497
0.0150441
0.014936
0.0148255
0.0147125
0.0145972
0.0144796
0.0143597
0.0142377
0.0141136
0.0139876
0.0138598
0.0137304
0.0135996
0.0134675
0.0133346
0.0132011
0.0130672
0.0129334
0.0128
0.0126674
0.0125361
0.0124063
0.0122786
0.0121533
0.0120311
0.0119121
0.0117967
0.0116849
0.011577
0.011473
0.0113732
0.0112778
0.011187
0.011101
0.0110199
0.0109437
0.0108727
0.0108068
0.0107461
0.0106908
0.010641
0.0105966
0.0105578
0.0105245
0.010497
0.0104754
0.0104596
0.0104495
0.0104451
0.0104462
0.0104525
0.010464
0.0104805
0.0105018
0.0105279
0.0105587
0.0105942
0.0106345
0.0106798
0.0107298
0.0107845
0.0108437
0.0109072
0.0109749
0.0110466
0.0111223
0.0112017
0.0112847
0.0113711
0.0114607
0.0115534
0.011649
0.0117473
0.0118481
0.0119513
0.0120564
0.0121628
0.0122705
0.0123826
0.0125005
0.0126135
0.0194777
0.0195027
0.0195286
0.0195552
0.0195816
0.0196068
0.0196312
0.019655
0.0196782
0.0197005
0.0197222
0.0197432
0.0197634
0.019783
0.0198018
0.0198199
0.0198373
0.0198541
0.0198701
0.0198854
0.0199001
0.0199141
0.0199275
0.0199402
0.0199523
0.0199638
0.0199747
0.019985
0.0199947
0.0200038
0.0200123
0.0200203
0.0200277
0.0200346
0.0200409
0.0200467
0.0200533
0.0200594
0.0200838
0.0200612
0.0200647
0.0200677
0.0200699
0.0200718
0.0200732
0.0200741
0.0200746
0.0200747
0.0200743
0.0200736
0.0200723
0.0200707
0.0200687
0.0200662
0.0200634
0.0200601
0.0200565
0.0200525
0.0200481
0.0200433
0.0200382
0.0200327
0.0200268
0.0200206
0.020014
0.0200071
0.0199999
0.0199923
0.0199844
0.0199761
0.0199675
0.0199587
0.0199495
0.01994
0.0199301
0.01992
0.0199096
0.019899
0.019888
0.0198768
0.0198652
0.0198535
0.0198414
0.0198291
0.0198166
0.0198038
0.0197907
0.0197774
0.0197639
0.0197502
0.0197362
0.0197221
0.0197077
0.0196931
0.0196783
0.0196633
0.0196481
0.0196328
0.0196172
0.0196015
0.0195856
0.0195696
0.0195533
0.0195369
0.0195204
0.0195037
0.0194868
0.0194698
0.0194527
0.0194354
0.019418
0.0194004
0.0193827
0.0193649
0.019347
0.0193289
0.0193107
0.0192924
0.0192739
0.0192553
0.0192367
0.0192178
0.0191989
0.0191799
0.0191607
0.0191414
0.0191219
0.0191024
0.0190827
0.0190629
0.0190429
0.0190229
0.0190026
0.0189823
0.0189618
0.0189411
0.0189203
0.0188993
0.0188782
0.0188568
0.0188353
0.0188137
0.0187918
0.0187697
0.0187475
0.018725
0.0187023
0.0186794
0.0186562
0.0186328
0.0186092
0.0185852
0.0185611
0.0185366
0.0185118
0.0184867
0.0184614
0.0184357
0.0184096
0.0183832
0.0183564
0.0183293
0.0183018
0.0182738
0.0182455
0.0182167
0.0181875
0.0181578
0.0181276
0.018097
0.0180658
0.0180341
0.0180019
0.0179691
0.0179357
0.0179017
0.0178671
0.0178319
0.017796
0.0177595
0.0177222
0.0176843
0.0176456
0.0176062
0.017566
0.0175251
0.0174833
0.0174407
0.0173972
0.0173529
0.0173077
0.0172616
0.0172145
0.0171665
0.0171175
0.0170676
0.0170166
0.0169645
0.0169114
0.0168572
0.0168019
0.0167454
0.0166877
0.0166289
0.0165688
0.0165075
0.0164448
0.0163809
0.0163157
0.0162491
0.0161811
0.0161117
0.0160408
0.0159685
0.0158948
0.0158196
0.0157428
0.0156646
0.0155848
0.0155035
0.0154208
0.0153365
0.0152508
0.0151636
0.015075
0.014985
0.0148938
0.0148012
0.0147075
0.0146126
0.0145167
0.0144199
0.0143223
0.0142241
0.0141253
0.0140263
0.0139272
0.0138282
0.0137294
0.013631
0.0135332
0.0134362
0.0133403
0.0132455
0.0131522
0.0130604
0.0129705
0.0128826
0.0127967
0.0127132
0.0126321
0.0125536
0.0124779
0.0124049
0.012335
0.0122682
0.0122046
0.0121443
0.0120875
0.0120342
0.0119844
0.0119383
0.0118958
0.0118571
0.0118221
0.0117908
0.0117633
0.0117395
0.0117194
0.011703
0.0116901
0.0116808
0.011675
0.0116726
0.0116736
0.011678
0.0116857
0.0116967
0.0117109
0.0117284
0.0117489
0.0117726
0.0117992
0.0118287
0.0118611
0.0118962
0.0119338
0.011974
0.0120165
0.0120612
0.0121079
0.0121566
0.0122072
0.0122594
0.012313
0.0123677
0.0124237
0.0124824
0.0125433
0.0125996
0.0202221
0.0202297
0.0202378
0.0202521
0.0202686
0.0202849
0.0202998
0.0203142
0.020328
0.020341
0.0203533
0.0203648
0.0203757
0.020386
0.0203955
0.0204044
0.0204126
0.0204202
0.0204272
0.0204335
0.0204391
0.0204442
0.0204487
0.0204526
0.020456
0.0204588
0.0204611
0.0204629
0.0204641
0.0204649
0.0204652
0.020465
0.0204644
0.0204633
0.0204618
0.0204599
0.0204575
0.0204548
0.0204517
0.0204482
0.0204442
0.02044
0.0204353
0.0204304
0.0204251
0.0204194
0.0204135
0.0204072
0.0204006
0.0203937
0.0203865
0.020379
0.0203713
0.0203632
0.0203549
0.0203463
0.0203374
0.0203283
0.0203188
0.0203092
0.0202992
0.0202891
0.0202786
0.020268
0.020257
0.0202459
0.0202345
0.0202228
0.0202109
0.0201988
0.0201865
0.0201739
0.0201612
0.0201482
0.0201349
0.0201215
0.0201079
0.020094
0.02008
0.0200657
0.0200513
0.0200366
0.0200218
0.0200067
0.0199915
0.0199761
0.0199605
0.0199447
0.0199288
0.0199127
0.0198964
0.0198799
0.0198633
0.0198465
0.0198296
0.0198125
0.0197952
0.0197778
0.0197603
0.0197426
0.0197247
0.0197067
0.0196886
0.0196704
0.019652
0.0196334
0.0196148
0.019596
0.0195771
0.0195581
0.0195389
0.0195196
0.0195002
0.0194807
0.019461
0.0194413
0.0194214
0.0194014
0.0193813
0.019361
0.0193406
0.0193202
0.0192996
0.0192788
0.019258
0.019237
0.0192159
0.0191947
0.0191733
0.0191518
0.0191302
0.0191084
0.0190865
0.0190645
0.0190423
0.0190199
0.0189974
0.0189748
0.0189519
0.018929
0.0189058
0.0188824
0.0188589
0.0188352
0.0188113
0.0187872
0.0187629
0.0187383
0.0187136
0.0186886
0.0186634
0.0186379
0.0186123
0.0185863
0.0185601
0.0185336
0.0185069
0.0184799
0.0184525
0.0184249
0.018397
0.0183687
0.0183401
0.0183112
0.018282
0.0182524
0.0182224
0.018192
0.0181613
0.0181302
0.0180986
0.0180667
0.0180343
0.0180015
0.0179682
0.0179345
0.0179003
0.0178656
0.0178304
0.0177947
0.0177585
0.0177218