/*--------------------------------*- C++ -*----------------------------------*\
| =========                 |                                                 |
| \\      /  F ield         | OpenFOAM: The Open Source CFD Toolbox           |
|  \\    /   O peration     | Version:  2.4.0                                 |
|   \\  /    A nd           | Web:      www.OpenFOAM.org                      |
|    \\/     M anipulation  |                                                 |
\*---------------------------------------------------------------------------*/
FoamFile
{
    version     2.0;
    format      ascii;
    class       volScalarField;
    location    "1";
    object      alpha1;
}
// * * * * * * * * * * * * * * * * * * * * * * * * * * * * * * * * * * * * * //

dimensions      [0 0 0 0 0 0 0];

internalField   nonuniform List<scalar> 
8000
(
1
1
1
1
1
1
1
1
1
1
1
1
1
1
1
1
1
1
1
1
1
1
1
1
1
0.999999
0.999999
0.999998
0.999996
0.999993
0.999838
0.438708
0.00643013
8.4303e-05
5.73751e-06
3.62375e-06
2.14031e-06
1.17201e-06
5.93035e-07
2.75237e-07
1.15934e-07
4.38172e-08
1.46704e-08
4.28658e-09
1.07351e-09
2.25172e-10
3.83668e-11
5.09522e-12
4.99343e-13
3.4216e-14
1
1
1
1
1
1
1
1
1
1
1
1
1
1
1
1
1
1
1
1
1
1
1
1
1
0.999999
0.999998
0.999997
0.999995
0.999995
0.997154
0.222264
0.00173892
3.00044e-05
4.95598e-06
3.16594e-06
1.83275e-06
9.85835e-07
4.89833e-07
2.22989e-07
9.20524e-08
3.40706e-08
1.11628e-08
3.18962e-09
7.80503e-10
1.59777e-10
2.65214e-11
3.42077e-12
3.23955e-13
2.14146e-14
1
1
1
1
1
1
1
1
1
1
1
1
1
1
1
1
1
1
1
1
1
1
1
1
1
0.999999
0.999998
0.999997
0.999995
0.999994
0.892514
0.0777313
0.000490438
1.33296e-05
4.39431e-06
2.73425e-06
1.55287e-06
8.20084e-07
3.99962e-07
1.78555e-07
7.22329e-08
2.6183e-08
8.3966e-09
2.34699e-09
5.61393e-10
1.12212e-10
1.81544e-11
2.27567e-12
2.08725e-13
1.3633e-14
1
1
1
1
1
1
1
1
1
1
1
1
1
1
1
1
1
1
1
1
1
1
1
1
0.999999
0.999999
0.999998
0.999996
0.999992
0.999952
0.682469
0.0205291
0.00015238
6.92187e-06
3.85954e-06
2.34227e-06
1.30508e-06
6.76062e-07
3.23304e-07
1.41418e-07
5.60204e-08
1.98745e-08
6.23543e-09
1.7044e-09
3.9843e-10
7.77535e-11
1.22622e-11
1.49515e-12
1.33788e-13
9.33307e-15
1
1
1
1
1
1
1
1
1
1
1
1
1
1
1
1
1
1
1
1
1
1
1
1
0.999999
0.999999
0.999998
0.999996
0.999992
0.999863
0.455713
0.00548443
5.3429e-05
5.03038e-06
3.41079e-06
2.0202e-06
1.10548e-06
5.61972e-07
2.63538e-07
1.12953e-07
4.38123e-08
1.5211e-08
4.66798e-09
1.24743e-09
2.84893e-10
5.42637e-11
8.34188e-12
9.91649e-13
8.85552e-14
7.97517e-15
1
1
1
1
1
1
1
1
1
1
1
1
1
1
1
1
1
1
1
1
1
1
1
1
0.999999
0.999999
0.999997
0.999995
0.999994
0.999443
0.230759
0.00137099
2.02305e-05
4.60372e-06
2.97634e-06
1.72324e-06
9.26926e-07
4.62788e-07
2.12974e-07
8.95119e-08
3.40245e-08
1.15699e-08
3.4759e-09
9.08852e-10
2.0296e-10
3.77688e-11
5.67135e-12
6.63437e-13
6.32916e-14
9.64847e-15
1
1
1
1
1
1
1
1
1
1
1
1
1
1
1
1
1
1
1
1
1
1
1
1
0.999999
0.999998
0.999997
0.999995
0.999995
0.906452
0.0739024
0.000333823
9.15126e-06
4.09193e-06
2.54282e-06
1.44211e-06
7.61921e-07
3.73439e-07
1.68586e-07
6.94703e-08
2.58783e-08
8.6207e-09
2.53634e-09
6.49236e-10
1.41872e-10
2.58314e-11
3.8071e-12
4.50196e-13
5.39212e-14
1.5762e-14
1
1
1
1
1
1
1
1
1
1
1
1
1
1
1
1
1
1
1
1
1
1
1
0.999999
0.999999
0.999998
0.999996
0.999992
0.999955
0.686244
0.017215
9.28051e-05
5.16242e-06
3.58061e-06
2.15978e-06
1.20045e-06
6.22339e-07
2.99192e-07
1.32399e-07
5.34585e-08
1.95063e-08
6.36379e-09
1.83336e-09
4.59453e-10
9.83025e-11
1.75555e-11
2.57106e-12
3.30238e-13
6.26713e-14
3.00435e-14
1
1
1
1
1
1
1
1
1
1
1
1
1
1
1
1
1
1
1
1
1
1
1
0.999999
0.999999
0.999998
0.999995
0.999991
0.999873
0.452627
0.00408869
2.99309e-05
4.60675e-06
3.14174e-06
1.85033e-06
1.00916e-06
5.13373e-07
2.42062e-07
1.04983e-07
4.1522e-08
1.48355e-08
4.73801e-09
1.33602e-09
3.27732e-10
6.87115e-11
1.21059e-11
1.82037e-12
2.95337e-13
9.84016e-14
6.06142e-14
1
1
1
1
1
1
1
1
1
1
1
1
1
1
1
1
1
1
1
1
1
1
1
0.999999
0.999999
0.999997
0.999995
0.999994
0.999475
0.224074
0.000935174
1.29103e-05
4.17604e-06
2.72301e-06
1.57104e-06
8.42114e-07
4.2084e-07
1.94826e-07
8.29059e-08
3.21566e-08
1.12632e-08
3.52554e-09
9.74326e-10
2.34406e-10
4.83882e-11
8.56599e-12
1.43515e-12
3.54848e-13
1.81506e-13
1.24006e-13
1
1
1
1
1
1
1
1
1
1
1
1
1
1
1
1
1
1
1
1
1
1
1
0.999999
0.999998
0.999997
0.999994
0.999994
0.909104
0.0637129
0.000196567
6.09125e-06
3.67467e-06
2.29767e-06
1.29809e-06
6.83486e-07
3.35367e-07
1.52375e-07
6.36137e-08
2.42002e-08
8.31277e-09
2.55202e-09
6.92178e-10
1.63882e-10
3.37001e-11
6.28695e-12
1.37119e-12
5.51843e-13
3.54857e-13
2.53713e-13
1
1
1
1
1
1
1
1
1
1
1
1
1
1
1
1
1
1
1
1
1
1
0.999999
0.999999
0.999998
0.999996
0.999991
0.999956
0.678839
0.0130693
4.8322e-05
4.60401e-06
3.21311e-06
1.93737e-06
1.07165e-06
5.53849e-07
2.6664e-07
1.18824e-07
4.86442e-08
1.81451e-08
6.11244e-09
1.84144e-09
4.91167e-10
1.15296e-10
2.43091e-11
5.29556e-12
1.74652e-12
9.99495e-13
7.09326e-13
5.19985e-13
1
1
1
1
1
1
1
1
1
1
1
1
1
1
1
1
1
1
1
1
1
1
0.999999
0.999999
0.999998
0.999995
0.999989
0.999882
0.444414
0.00276103
1.73525e-05
4.22804e-06
2.82216e-06
1.65207e-06
8.95877e-07
4.54457e-07
2.14643e-07
9.37916e-08
3.76391e-08
1.37625e-08
4.54632e-09
1.34528e-09
3.54473e-10
8.3991e-11
1.93776e-11
5.69826e-12
2.81315e-12
1.9253e-12
1.42719e-12
1.06545e-12
1
1
1
1
1
1
1
1
1
1
1
1
1
1
1
1
1
1
1
1
1
1
0.999999
0.999999
0.999997
0.999995
0.999993
0.999521
0.217792
0.000580089
8.04895e-06
3.79993e-06
2.44543e-06
1.39883e-06
7.45445e-07
3.717e-07
1.72489e-07
7.40215e-08
2.91674e-08
1.0474e-08
3.40206e-09
9.93972e-10
2.62409e-10
6.56111e-11
1.85654e-11
7.966e-12
5.09601e-12
3.77355e-12
2.86615e-12
2.17446e-12
1
1
1
1
1
1
1
1
1
1
1
1
1
1
1
1
1
1
1
1
1
1
0.999999
0.999998
0.999997
0.999994
0.999994
0.917735
0.0559714
0.000105279
4.43112e-06
3.2901e-06
2.04157e-06
1.14336e-06
5.98621e-07
2.93269e-07
1.33696e-07
5.63599e-08
2.18225e-08
7.70935e-09
2.47227e-09
7.21223e-10
1.97284e-10
5.70127e-11
2.23395e-11
1.31757e-11
9.60828e-12
7.39092e-12
5.71597e-12
4.40417e-12
1
1
1
1
1
1
1
1
1
1
1
1
1
1
1
1
1
1
1
1
1
1
0.999999
0.999998
0.999996
0.99999
0.999964
0.688027
0.0102271
2.479e-05
4.13054e-06
2.85342e-06
1.71201e-06
9.39633e-07
4.83168e-07
2.32465e-07
1.04085e-07
4.31086e-08
1.64173e-08
5.72216e-09
1.82682e-09
5.45331e-10
1.65256e-10
6.185e-11
3.36562e-11
2.38242e-11
1.84338e-11
1.44982e-11
1.13881e-11
8.90611e-12
1
1
1
1
1
1
1
1
1
1
1
1
1
1
1
1
1
1
1
1
1
0.999999
0.999999
0.999998
0.999994
0.999983
0.999907
0.46191
0.00191483
1.00532e-05
3.81162e-06
2.49927e-06
1.4555e-06
7.83518e-07
3.9568e-07
1.86938e-07
8.22059e-08
3.34677e-08
1.25607e-08
4.3458e-09
1.40641e-09
4.51335e-10
1.66814e-10
8.47669e-11
5.75991e-11
4.44626e-11
3.54445e-11
2.83398e-11
2.25829e-11
1.79166e-11
1
1
1
1
1
1
1
1
1
1
1
1
1
1
1
1
1
1
1
1
1
0.999999
0.999999
0.999997
0.999994
0.999986
0.9997
0.247746
0.000381277
5.34262e-06
3.45974e-06
2.1825e-06
1.24023e-06
6.56395e-07
3.26193e-07
1.51661e-07
6.56752e-08
2.63846e-08
9.82839e-09
3.42993e-09
1.16964e-09
4.36243e-10
2.10239e-10
1.36078e-10
1.0384e-10
8.35479e-11
6.78816e-11
5.50646e-11
4.44936e-11
3.58011e-11
1
1
1
1
1
1
1
1
1
1
1
1
1
1
1
1
1
1
1
1
1
0.999999
0.999998
0.999997
0.999993
0.999993
0.962883
0.0686079
6.02711e-05
3.9382e-06
2.98448e-06
1.81892e-06
1.01077e-06
5.262e-07
2.57471e-07
1.17978e-07
5.04589e-08
2.01303e-08
7.55086e-09
2.75012e-09
1.06062e-09
5.00354e-10
3.11177e-10
2.3371e-10
1.89048e-10
1.55791e-10
1.28526e-10
1.05701e-10
8.65874e-11
7.06499e-11
1
1
1
1
1
1
1
1
1
1
1
1
1
1
1
1
1
1
1
1
1
0.999999
0.999998
0.999996
0.999991
0.999983
0.765925
0.0116307
1.50546e-05
3.71503e-06
2.57386e-06
1.52392e-06
8.30219e-07
4.25307e-07
2.05032e-07
9.27678e-08
3.93722e-08
1.57754e-08
6.1198e-09
2.45948e-09
1.15581e-09
6.95894e-10
5.12447e-10
4.14842e-10
3.45811e-10
2.89705e-10
2.4223e-10
2.0182e-10
1.67518e-10
1.38533e-10
1.78312e-15
1.45971e-16
4.26422e-17
2.37005e-17
1.3917e-17
8.11043e-18
4.685e-18
2.68238e-18
1.52221e-18
8.562e-19
4.77335e-19
2.63765e-19
1.44461e-19
7.84173e-20
4.21871e-20
2.24926e-20
1.18843e-20
6.22257e-21
3.22856e-21
1.65985e-21
8.4551e-22
4.26695e-22
2.13311e-22
1.0562e-22
5.17902e-23
2.51443e-23
1.20846e-23
5.7482e-24
2.70537e-24
1.2595e-24
5.79845e-25
2.63892e-25
1.18683e-25
5.27266e-26
2.31287e-26
1.00118e-26
4.27348e-27
1.79679e-27
7.42988e-28
3.01485e-28
1.19674e-28
4.62799e-29
1.73442e-29
6.25877e-30
2.15805e-30
7.04519e-31
2.15309e-31
6.0669e-32
1.54007e-32
3.37724e-33
1.20568e-15
1.87322e-16
8.84096e-17
5.2512e-17
3.14334e-17
1.86606e-17
1.0983e-17
6.40864e-18
3.70731e-18
2.12619e-18
1.20893e-18
6.81484e-19
3.80852e-19
2.11003e-19
1.15887e-19
6.30917e-20
3.40478e-20
1.82124e-20
9.65577e-21
5.07371e-21
2.64211e-21
1.36339e-21
6.97082e-22
3.53083e-22
1.77145e-22
8.80168e-23
4.33007e-23
2.10873e-23
1.01632e-23
4.84623e-24
2.28564e-24
1.06586e-24
4.91273e-25
2.2372e-25
1.00613e-25
4.46603e-26
1.95519e-26
8.43339e-27
3.5785e-27
1.49055e-27
6.07619e-28
2.41443e-28
9.30418e-29
3.4555e-29
1.22767e-29
4.1356e-30
1.30667e-30
3.81667e-31
1.00847e-31
2.31921e-32
1.04488e-15
3.29864e-16
1.90038e-16
1.16375e-16
7.09603e-17
4.29118e-17
2.57335e-17
1.53028e-17
9.02389e-18
5.27681e-18
3.05991e-18
1.75956e-18
1.00335e-18
5.67326e-19
3.18075e-19
1.76816e-19
9.7452e-20
5.32499e-20
2.8846e-20
1.54906e-20
8.24574e-21
4.35041e-21
2.27465e-21
1.17848e-21
6.049e-22
3.07551e-22
1.54858e-22
7.72034e-23
3.8099e-23
1.86055e-23
8.98851e-24
4.29444e-24
2.02835e-24
9.4672e-25
4.36464e-25
1.98648e-25
8.91883e-26
3.9462e-26
1.71814e-26
7.34575e-27
3.07502e-27
1.25548e-27
4.9748e-28
1.90159e-28
6.96153e-29
2.42006e-29
7.90594e-30
2.39404e-30
6.58475e-31
1.58785e-31
1.33647e-15
6.65504e-16
4.11988e-16
2.57647e-16
1.59988e-16
9.85448e-17
6.02066e-17
3.64845e-17
2.19294e-17
1.30739e-17
7.7312e-18
4.53474e-18
2.63824e-18
1.52235e-18
8.71228e-19
4.94476e-19
2.78313e-19
1.55339e-19
8.59726e-20
4.71791e-20
2.56693e-20
1.38456e-20
7.40259e-21
3.92257e-21
2.05968e-21
1.0715e-21
5.52153e-22
2.81774e-22
1.42366e-22
7.11954e-23
3.52292e-23
1.72431e-23
8.34502e-24
3.99181e-24
1.88645e-24
8.80271e-25
4.05294e-25
1.83939e-25
8.21701e-26
3.60586e-26
1.55003e-26
6.50251e-27
2.64948e-27
1.0424e-27
3.93258e-28
1.41094e-28
4.76641e-29
1.49652e-29
4.28499e-30
1.08327e-30
2.33324e-15
1.40504e-15
8.97772e-16
5.71839e-16
3.61489e-16
2.26729e-16
1.41088e-16
8.71033e-17
5.3351e-17
3.24203e-17
1.95463e-17
1.16919e-17
6.93851e-18
4.08502e-18
2.38586e-18
1.38227e-18
7.94365e-19
4.52795e-19
2.55986e-19
1.43528e-19
7.98049e-20
4.39993e-20
2.4051e-20
1.30325e-20
6.9993e-21
3.72509e-21
1.9642e-21
1.02588e-21
5.30599e-22
2.71685e-22
1.37676e-22
6.90244e-23
3.42244e-23
1.6776e-23
8.12568e-24
3.88702e-24
1.83507e-24
8.54182e-25
3.91482e-25
1.76316e-25
7.7825e-26
3.3545e-26
1.40546e-26
5.69164e-27
2.21289e-27
8.19479e-28
2.86298e-28
9.32104e-29
2.77847e-29
7.36249e-30
4.63404e-15
2.99135e-15
1.95189e-15
1.26558e-15
8.14464e-16
5.20176e-16
3.29691e-16
2.07364e-16
1.29427e-16
8.01666e-17
4.92763e-17
3.00581e-17
1.81951e-17
1.09294e-17
6.51424e-18
3.8524e-18
2.26035e-18
1.31575e-18
7.59802e-19
4.35239e-19
2.47298e-19
1.39358e-19
7.78758e-20
4.31491e-20
2.3701e-20
1.29035e-20
6.96148e-21
3.72094e-21
1.96992e-21
1.03268e-21
5.35881e-22
2.75176e-22
1.39776e-22
7.0204e-23
3.48499e-23
1.70891e-23
8.27205e-24
3.94894e-24
1.85672e-24
8.58225e-25
3.88972e-25
1.72265e-25
7.4219e-26
3.09388e-26
1.23978e-26
4.73934e-27
1.71259e-27
5.78235e-28
1.79449e-28
4.98316e-29
9.56212e-15
6.37026e-15
4.23347e-15
2.79392e-15
1.83049e-15
1.19047e-15
7.6852e-16
4.9245e-16
3.13213e-16
1.97739e-16
1.23915e-16
7.70793e-17
4.75907e-17
2.91647e-17
1.77386e-17
1.07073e-17
6.41374e-18
3.81235e-18
2.24852e-18
1.31582e-18
7.63924e-19
4.39959e-19
2.5132e-19
1.42373e-19
7.99733e-20
4.45343e-20
2.45804e-20
1.3444e-20
7.28458e-21
3.90924e-21
2.0771e-21
1.09232e-21
5.68352e-22
2.9247e-22
1.48781e-22
7.47799e-23
3.7111e-23
1.8168e-23
8.76296e-24
4.15676e-24
1.93441e-24
8.80219e-25
3.89976e-25
1.67345e-25
6.91194e-26
2.72778e-26
1.01963e-26
3.57059e-27
1.15367e-27
3.35653e-28
1.99607e-14
1.35761e-14
9.18103e-15
6.166e-15
4.11201e-15
2.72278e-15
1.79002e-15
1.16837e-15
7.57141e-16
4.87137e-16
3.11177e-16
1.97355e-16
1.24268e-16
7.76832e-17
4.8208e-17
2.96967e-17
1.81579e-17
1.10197e-17
6.63727e-18
3.96731e-18
2.35316e-18
1.38486e-18
8.08537e-19
4.68244e-19
2.68935e-19
1.53161e-19
8.6473e-20
4.83893e-20
2.68315e-20
1.47382e-20
8.01706e-21
4.31726e-21
2.30074e-21
1.21288e-21
6.32213e-22
3.25672e-22
1.65685e-22
8.31749e-23
4.11511e-23
2.00315e-23
9.57117e-24
4.47471e-24
2.03867e-24
9.00588e-25
3.83435e-25
1.56235e-25
6.04173e-26
2.19454e-26
7.3824e-27
2.24982e-27
4.18626e-14
2.8977e-14
1.99307e-14
1.3617e-14
9.24044e-15
6.22766e-15
4.16827e-15
2.77059e-15
1.82881e-15
1.19881e-15
7.8041e-16
5.04526e-16
3.23908e-16
2.06499e-16
1.3072e-16
8.21613e-17
5.12696e-17
3.17611e-17
1.95319e-17
1.19227e-17
7.22346e-18
4.34319e-18
2.59123e-18
1.53381e-18
9.00599e-19
5.24452e-19
3.02834e-19
1.73354e-19
9.83512e-20
5.52873e-20
3.07848e-20
1.69733e-20
9.26316e-21
5.00196e-21
2.67127e-21
1.41016e-21
7.3538e-22
3.78518e-22
1.92084e-22
9.59451e-23
4.70666e-23
2.26078e-23
1.05919e-23
4.81694e-24
2.11417e-24
8.89488e-25
3.55886e-25
1.34095e-25
4.69652e-26
1.49884e-26
8.76202e-14
6.16785e-14
4.31439e-14
2.99849e-14
2.07038e-14
1.42013e-14
9.67647e-15
6.54935e-15
4.40318e-15
2.94052e-15
1.95063e-15
1.28534e-15
8.41284e-16
5.46925e-16
3.53138e-16
2.26443e-16
1.44192e-16
9.11716e-17
5.72385e-17
3.56774e-17
2.20766e-17
1.35599e-17
8.26619e-18
5.00049e-18
3.00127e-18
1.78691e-18
1.05515e-18
6.17801e-19
3.58587e-19
2.06269e-19
1.17554e-19
6.63523e-20
3.70797e-20
2.05071e-20
1.12195e-20
6.069e-21
3.24392e-21
1.71191e-21
8.90992e-22
4.56653e-22
2.29986e-22
1.13498e-22
5.46821e-23
2.56021e-23
1.15845e-23
5.03306e-24
2.08371e-24
8.14511e-25
2.97007e-25
9.92336e-26
1.82569e-13
1.30673e-13
9.29579e-14
6.57191e-14
4.61711e-14
3.22322e-14
2.23576e-14
1.54084e-14
1.05507e-14
7.17781e-15
4.85174e-15
3.25834e-15
2.17409e-15
1.44118e-15
9.49048e-16
6.20803e-16
4.0335e-16
2.60281e-16
1.66804e-16
1.06155e-16
6.70809e-17
4.20856e-17
2.6211e-17
1.62026e-17
9.93933e-18
6.04957e-18
3.65258e-18
2.18719e-18
1.29861e-18
7.64297e-19
4.45762e-19
2.5755e-19
1.47361e-19
8.34633e-20
4.67748e-20
2.59247e-20
1.42017e-20
7.6835e-21
4.10123e-21
2.15668e-21
1.11509e-21
5.65366e-22
2.80109e-22
1.35021e-22
6.29885e-23
2.82621e-23
1.21083e-23
4.91052e-24
1.8642e-24
6.5189e-25
3.80436e-13
2.76776e-13
2.00181e-13
1.43925e-13
1.02857e-13
7.30608e-14
5.15774e-14
3.61858e-14
2.52297e-14
1.74815e-14
1.20377e-14
8.23756e-15
5.60194e-15
3.78563e-15
2.54195e-15
1.69585e-15
1.12401e-15
7.40083e-16
4.84047e-16
3.14455e-16
2.02884e-16
1.29989e-16
8.26942e-17
5.22255e-17
3.27382e-17
2.03664e-17
1.2571e-17
7.69721e-18
4.67409e-18
2.81415e-18
1.67941e-18
9.93081e-19
5.81674e-19
3.37345e-19
1.93634e-19
1.09948e-19
6.17225e-20
3.42314e-20
1.87372e-20
1.01089e-20
5.36552e-21
2.79476e-21
1.42388e-21
7.06639e-22
3.39883e-22
1.57504e-22
6.98354e-23
2.93852e-23
1.16138e-23
4.24933e-24
7.91923e-13
5.85384e-13
4.30292e-13
3.14503e-13
2.28555e-13
1.65129e-13
1.18603e-13
8.4681e-14
6.01007e-14
4.24008e-14
2.97351e-14
2.07283e-14
1.43631e-14
9.89221e-15
6.77128e-15
4.6062e-15
3.11368e-15
2.09137e-15
1.39567e-15
9.25326e-16
6.0943e-16
3.98674e-16
2.5901e-16
1.67089e-16
1.07014e-16
6.80314e-17
4.29213e-17
2.68681e-17
1.6684e-17
1.02742e-17
6.27273e-18
3.7957e-18
2.27563e-18
1.35121e-18
7.9427e-19
4.61992e-19
2.65751e-19
1.51071e-19
8.47922e-20
4.69302e-20
2.55695e-20
1.36821e-20
7.16809e-21
3.6625e-21
1.81634e-21
8.69357e-22
3.98951e-22
1.74181e-22
7.16643e-23
2.74271e-23
1.64159e-12
1.23276e-12
9.20826e-13
6.84118e-13
5.05481e-13
3.71418e-13
2.71376e-13
1.97155e-13
1.42415e-13
1.02286e-13
7.3043e-14
5.18616e-14
3.66104e-14
2.56939e-14
1.79262e-14
1.24319e-14
8.56933e-15
5.87054e-15
3.9967e-15
2.70385e-15
1.81752e-15
1.21377e-15
8.05182e-16
5.30495e-16
3.47075e-16
2.25444e-16
1.45359e-16
9.30126e-17
5.90524e-17
3.71895e-17
2.32256e-17
1.43796e-17
8.82295e-18
5.36295e-18
3.22804e-18
1.92317e-18
1.13344e-18
6.60385e-19
3.80042e-19
2.15773e-19
1.20671e-19
6.633e-20
3.57332e-20
1.87972e-20
9.61182e-21
4.75191e-21
2.2571e-21
1.02254e-21
4.37941e-22
1.75265e-22
3.37674e-12
2.57599e-12
1.95518e-12
1.47639e-12
1.10904e-12
8.2868e-13
6.1587e-13
4.55226e-13
3.34646e-13
2.44658e-13
1.77887e-13
1.28628e-13
9.24951e-14
6.61409e-14
4.70276e-14
3.3245e-14
2.33643e-14
1.63229e-14
1.13352e-14
7.82378e-15
5.36682e-15
3.65829e-15
2.47763e-15
1.66694e-15
1.11392e-15
7.39192e-16
4.87017e-16
3.18511e-16
2.06728e-16
1.33126e-16
8.50344e-17
5.38602e-17
3.38174e-17
2.10404e-17
1.29669e-17
7.91199e-18
4.77725e-18
2.85256e-18
1.68307e-18
9.80198e-19
5.62644e-19
3.17686e-19
1.75976e-19
9.53044e-20
5.02485e-20
2.56602e-20
1.26161e-20
5.93076e-21
2.64393e-21
1.1061e-21
6.93216e-12
5.37008e-12
4.1401e-12
3.17634e-12
2.42489e-12
1.84188e-12
1.39189e-12
1.0464e-12
7.82568e-13
5.82197e-13
4.30862e-13
3.1719e-13
2.32274e-13
1.69181e-13
1.22556e-13
8.82892e-14
6.32454e-14
4.50468e-14
3.18996e-14
2.24574e-14
1.57162e-14
1.0932e-14
7.55704e-15
5.19074e-15
3.54206e-15
2.40077e-15
1.61595e-15
1.07994e-15
7.16414e-16
4.71652e-16
3.08075e-16
1.99592e-16
1.28216e-16
8.16408e-17
5.15068e-17
3.21829e-17
1.99053e-17
1.21795e-17
7.3669e-18
4.40046e-18
2.59234e-18
1.5034e-18
8.56233e-19
4.77379e-19
2.5951e-19
1.36887e-19
6.96651e-20
3.39828e-20
1.57677e-20
6.89357e-21
1.41511e-11
1.11272e-11
8.71018e-12
6.78697e-12
5.26368e-12
4.0628e-12
3.12068e-12
2.38527e-12
1.81415e-12
1.37294e-12
1.03387e-12
7.74648e-13
5.77505e-13
4.28337e-13
3.16048e-13
2.31959e-13
1.69322e-13
1.22922e-13
8.87416e-14
6.37063e-14
4.54734e-14
3.22703e-14
2.27643e-14
1.59601e-14
1.11192e-14
7.69625e-15
5.29141e-15
3.61293e-15
2.44933e-15
1.64829e-15
1.10079e-15
7.29364e-16
4.79308e-16
3.12301e-16
2.01676e-16
1.29026e-16
8.17392e-17
5.12464e-17
3.17738e-17
1.9465e-17
1.17677e-17
7.00911e-18
4.10403e-18
2.35542e-18
1.32014e-18
7.19269e-19
3.78907e-19
1.91793e-19
9.26133e-20
4.23e-20
2.86865e-11
2.28903e-11
1.81885e-11
1.43905e-11
1.13352e-11
8.88833e-12
6.93758e-12
5.38981e-12
4.16777e-12
3.2077e-12
2.45719e-12
1.8734e-12
1.42151e-12
1.07339e-12
8.06513e-13
6.02913e-13
4.48373e-13
3.31689e-13
2.44063e-13
1.78621e-13
1.30015e-13
9.41092e-14
6.77311e-14
4.84602e-14
3.44622e-14
2.43544e-14
1.71003e-14
1.1927e-14
8.26169e-15
5.68214e-15
3.8793e-15
2.6283e-15
1.76664e-15
1.1777e-15
7.7836e-16
5.0981e-16
3.30763e-16
2.12457e-16
1.35016e-16
8.48203e-17
5.26182e-17
3.21851e-17
1.93727e-17
1.14443e-17
6.61252e-18
3.72114e-18
2.02905e-18
1.06571e-18
5.35512e-19
2.55446e-19
5.74224e-11
4.64919e-11
3.74952e-11
3.01178e-11
2.40913e-11
1.91882e-11
1.52164e-11
1.20136e-11
9.44302e-12
7.38975e-12
5.75741e-12
4.46575e-12
3.44834e-12
2.65053e-12
2.02772e-12
1.54373e-12
1.16942e-12
8.81379e-13
6.60892e-13
4.93014e-13
3.65867e-13
2.70073e-13
1.98276e-13
1.44749e-13
1.05058e-13
7.57931e-14
5.43416e-14
3.87121e-14
2.73955e-14
1.92544e-14
1.34367e-14
9.30784e-15
6.39853e-15
4.36367e-15
2.95132e-15
1.97883e-15
1.31473e-15
8.65126e-16
5.63471e-16
3.62981e-16
2.31041e-16
1.45116e-16
8.97829e-17
5.4587e-17
3.25124e-17
1.88955e-17
1.06642e-17
5.81163e-18
3.03861e-18
1.51332e-18
1.14156e-10
9.37382e-11
7.66967e-11
6.25193e-11
5.07636e-11
4.10513e-11
3.30599e-11
2.65133e-11
2.11747e-11
1.68412e-11
1.33395e-11
1.05223e-11
8.26544e-12
6.4648e-12
5.03397e-12
3.90175e-12
3.00977e-12
2.31042e-12
1.76487e-12
1.34152e-12
1.01468e-12
7.63605e-13
5.71692e-13
4.25727e-13
3.15274e-13
2.32138e-13
1.69911e-13
1.23601e-13
8.93431e-14
6.41555e-14
4.57547e-14
3.24005e-14
2.27753e-14
1.58871e-14
1.09941e-14
7.54476e-15
5.13248e-15
3.45938e-15
2.30893e-15
1.52498e-15
9.9582e-16
6.42176e-16
4.08327e-16
2.55462e-16
1.56817e-16
9.41105e-17
5.49678e-17
3.10788e-17
1.69057e-17
8.78795e-18
5.80458e-34
2.94452e-34
1.47227e-34
7.25268e-35
3.51846e-35
1.68017e-35
7.89398e-36
3.64739e-36
1.65657e-36
7.39223e-37
3.23952e-37
1.39357e-37
5.88206e-38
2.43498e-38
9.88215e-39
3.93033e-39
1.53134e-39
5.84314e-40
2.18289e-40
7.98246e-41
2.85697e-41
1.00075e-41
3.43099e-42
1.15153e-42
3.78477e-43
1.21875e-43
3.84746e-44
1.19165e-44
3.62428e-45
1.08345e-45
3.18671e-46
9.23051e-47
2.63525e-47
7.42018e-48
2.06153e-48
5.65227e-49
1.52927e-49
4.08165e-50
1.07412e-50
2.78509e-51
7.10971e-52
1.78531e-52
4.40581e-53
1.06756e-53
2.53752e-54
5.91137e-55
1.34847e-55
3.00948e-56
6.56564e-57
1.39907e-57
2.90945e-58
5.89952e-59
1.16542e-59
2.24097e-60
4.19083e-61
7.61544e-62
1.34349e-62
2.29895e-63
3.81234e-64
6.12116e-65
9.50758e-66
1.42725e-66
2.06881e-67
2.89282e-68
3.89835e-69
5.05809e-70
6.31289e-71
7.57163e-72
8.71805e-73
9.62605e-74
1.01792e-74
1.02949e-75
9.94297e-77
9.15838e-78
8.03396e-79
6.70283e-80
5.31248e-81
3.99525e-82
2.8455e-83
1.91677e-84
1.21974e-85
7.31413e-87
4.1207e-88
2.17586e-89
1.07412e-90
4.9448e-92
2.11497e-93
8.37096e-95
3.0535e-96
1.0216e-97
3.11727e-99
8.62477e-101
2.15559e-102
4.86191e-104
9.81929e-106
1.7566e-107
2.72152e-109
3.58367e-111
3.9139e-113
3.44472e-115
2.41788e-117
1.33389e-119
5.26287e-122
1.29038e-124
2.05304e-127
1.95125e-130
1.2206e-133
1.51869e-138
5.50447e-145
2.44314e-149
0
0
0
0
0
0
0
0
0
0
0
0
0
0
0
0
0
0
0
0
0
0
0
0
0
0
0
0
0
0
0
0
0
0
0
0
0
0
0
0
0
0
0
0
0
0
0
0
0
0
0
0
0
0
0
0
0
0
0
0
0
0
0
0
0
0
0
0
0
0
0
0
0
0
0
0
0
0
0
0
0
0
0
0
0
0
0
0
0
0
0
0
0
0
0
0
0
0
0
0
0
0
0
0
0
0
0
0
0
0
0
0
0
0
0
0
0
0
0
0
0
0
0
0
0
0
0
0
0
0
0
0
0
0
0
0
0
0
0
0
0
0
0
0
0
0
0
0
0
0
0
0
0
0
0
0
0
0
0
0
0
0
0
0
0
0
0
0
0
0
0
0
0
0
0
0
0
0
0
0
0
0
0
0
0
0
0
0
0
0
4.25699e-33
2.19591e-33
1.11676e-33
5.59686e-34
2.763e-34
1.343e-34
6.42435e-35
3.02307e-35
1.39874e-35
6.36057e-36
2.84142e-36
1.24643e-36
5.36667e-37
2.26712e-37
9.39308e-38
3.81549e-38
1.519e-38
5.92527e-39
2.26411e-39
8.47334e-40
3.10555e-40
1.11469e-40
3.91877e-41
1.34967e-41
4.55563e-42
1.50775e-42
4.89601e-43
1.56105e-43
4.89119e-44
1.50737e-44
4.57308e-45
1.36689e-45
4.0279e-46
1.17073e-46
3.3572e-47
9.49848e-48
2.65095e-48
7.29528e-49
1.97845e-49
5.28382e-50
1.38855e-50
3.58753e-51
9.10472e-52
2.26772e-52
5.53838e-53
1.32515e-53
3.10362e-54
7.10928e-55
1.59141e-55
3.47847e-56
7.41791e-57
1.54202e-57
3.12204e-58
6.1512e-59
1.17836e-59
2.19288e-60
3.96085e-61
6.93763e-62
1.17733e-62
1.93404e-63
3.07279e-64
4.7174e-65
6.99152e-66
9.99378e-67
1.37645e-67
1.82493e-68
2.3269e-69
2.85057e-70
3.35161e-71
3.77805e-72
4.07767e-73
4.20816e-74
4.14634e-75
3.89544e-76
3.48475e-77
2.9643e-78
2.39506e-79
1.83596e-80
1.33268e-81
9.14816e-83
5.93163e-84
3.62372e-85
2.07947e-86
1.11815e-87
5.6195e-89
2.63278e-90
1.14567e-91
4.61209e-93
1.71071e-94
5.81851e-96
1.80471e-97
5.07599e-99
1.28966e-100
2.95637e-102
6.0686e-104
1.10283e-105
1.73562e-107
2.32229e-109
2.57938e-111
2.31343e-113
1.65903e-115
9.40917e-118
3.84429e-120
1.00081e-122
1.74431e-125
1.82802e-128
1.17349e-131
1.45789e-136
1.22738e-142
5.69883e-147
0
0
0
0
0
0
0
0
0
0
0
0
0
0
0
0
0
0
0
0
0
0
0
0
0
0
0
0
0
0
0
0
0
0
0
0
0
0
0
0
0
0
0
0
0
0
0
0
0
0
0
0
0
0
0
0
0
0
0
0
0
0
0
0
0
0
0
0
0
0
0
0
0
0
0
0
0
0
0
0
0
0
0
0
0
0
0
0
0
0
0
0
0
0
0
0
0
0
0
0
0
0
0
0
0
0
0
0
0
0
0
0
0
0
0
0
0
0
0
0
0
0
0
0
0
0
0
0
0
0
0
0
0
0
0
0
0
0
0
0
0
0
0
0
0
0
0
0
0
0
0
0
0
0
0
0
0
0
0
0
0
0
0
0
0
0
0
0
0
0
0
0
0
0
0
0
0
0
0
0
0
0
0
0
0
0
0
0
0
0
3.10856e-32
1.63072e-32
8.43593e-33
4.30164e-33
2.16121e-33
1.06938e-33
5.2089e-34
2.49661e-34
1.17694e-34
5.45463e-35
2.48428e-35
1.11142e-35
4.88227e-36
2.10507e-36
8.90542e-37
3.69522e-37
1.50348e-37
5.99668e-38
2.34422e-38
8.98053e-39
3.37132e-39
1.24026e-39
4.47208e-40
1.5809e-40
5.48116e-41
1.8648e-41
6.22959e-42
2.04486e-42
6.60061e-43
2.09683e-43
6.56039e-44
2.02286e-44
6.15027e-45
1.84439e-45
5.4562e-46
1.59207e-46
4.58078e-47
1.29901e-47
3.62842e-48
9.97562e-49
2.69734e-49
7.16709e-50
1.86978e-50
4.78527e-51
1.20039e-51
2.949e-52
7.08928e-53
1.66628e-53
3.82622e-54
8.57664e-55
1.87515e-55
3.99532e-56
8.28889e-57
1.67302e-57
3.28242e-58
6.25457e-59
1.15647e-59
2.07308e-60
3.5997e-61
6.04925e-62
9.82983e-63
1.54314e-63
2.33816e-64
3.41623e-65
4.80846e-66
6.51378e-67
8.48424e-68
1.0615e-68
1.27437e-69
1.46641e-70
1.61526e-71
1.70083e-72
1.70955e-73
1.63807e-74
1.49425e-75
1.29589e-76
1.0673e-77
8.33876e-79
6.16843e-80
4.31454e-81
2.8501e-82
1.77363e-83
1.03653e-84
5.67477e-86
2.90302e-87
1.38395e-88
6.12636e-90
2.50822e-91
9.45979e-93
3.27097e-94
1.03138e-95
2.94965e-97
7.62046e-99
1.77588e-100
3.70605e-102
6.84418e-104
1.09479e-105
1.48976e-107
1.68511e-109
1.54343e-111
1.13404e-113
6.63569e-116
2.82144e-118
7.83369e-121
1.48259e-123
1.67337e-126
1.09364e-129
1.36136e-134
2.65297e-140
1.28509e-144
0
0
0
0
0
0
0
0
0
0
0
0
0
0
0
0
0
0
0
0
0
0
0
0
0
0
0
0
0
0
0
0
0
0
0
0
0
0
0
0
0
0
0
0
0
0
0
0
0
0
0
0
0
0
0
0
0
0
0
0
0
0
0
0
0
0
0
0
0
0
0
0
0
0
0
0
0
0
0
0
0
0
0
0
0
0
0
0
0
0
0
0
0
0
0
0
0
0
0
0
0
0
0
0
0
0
0
0
0
0
0
0
0
0
0
0
0
0
0
0
0
0
0
0
0
0
0
0
0
0
0
0
0
0
0
0
0
0
0
0
0
0
0
0
0
0
0
0
0
0
0
0
0
0
0
0
0
0
0
0
0
0
0
0
0
0
0
0
0
0
0
0
0
0
0
0
0
0
0
0
0
0
0
0
0
0
0
0
0
0
2.25873e-31
1.20511e-31
6.34208e-32
3.29073e-32
1.68278e-32
8.47718e-33
4.20513e-33
2.05316e-33
9.86281e-34
4.65936e-34
2.16383e-34
9.87449e-35
4.42626e-35
1.94819e-35
8.41692e-36
3.56835e-36
1.48408e-36
6.05382e-37
2.42164e-37
9.49857e-38
3.65318e-38
1.37779e-38
5.09656e-39
1.84962e-39
6.58834e-40
2.30453e-40
7.92069e-41
2.67677e-41
8.90088e-42
2.91426e-42
9.40088e-43
2.98936e-43
9.37371e-44
2.89898e-44
8.84243e-45
2.65949e-45
7.88428e-46
2.30267e-46
6.62107e-47
1.87299e-47
5.20855e-48
1.42271e-48
3.81395e-49
1.00262e-49
2.58251e-50
6.51241e-51
1.6065e-51
3.87359e-52
9.12224e-53
2.09653e-53
4.69847e-54
1.02589e-54
2.18053e-55
4.50792e-56
9.05676e-57
1.76677e-57
3.34362e-58
6.13345e-59
1.08959e-59
1.87292e-60
3.11242e-61
4.99581e-62
7.7382e-63
1.15556e-63
1.66205e-64
2.30027e-65
3.06038e-66
3.91024e-67
4.79291e-68
5.62956e-69
6.32806e-70
6.7983e-71
6.97016e-72
6.81131e-73
6.33534e-74
5.60126e-75
4.70221e-76
3.74415e-77
2.82229e-78
2.01127e-79
1.3534e-80
8.57817e-82
5.10474e-83
2.8451e-84
1.48132e-85
7.18503e-87
3.23532e-88
1.34707e-89
5.16601e-91
1.81616e-92
5.82279e-94
1.69381e-95
4.45146e-97
1.055e-98
2.23922e-100
4.20461e-102
6.84113e-104
9.47744e-106
1.09339e-107
1.02502e-109
7.73858e-112
4.68619e-114
2.08065e-116
6.16179e-119
1.25149e-121
1.49307e-124
9.87957e-128
1.24127e-132
5.55795e-138
2.80094e-142
0
0
0
0
0
0
0
0
0
0
0
0
0
0
0
0
0
0
0
0
0
0
0
0
0
0
0
0
0
0
0
0
0
0
0
0
0
0
0
0
0
0
0
0
0
0
0
0
0
0
0
0
0
0
0
0
0
0
0
0
0
0
0
0
0
0
0
0
0
0
0
0
0
0
0
0
0
0
0
0
0
0
0
0
0
0
0
0
0
0
0
0
0
0
0
0
0
0
0
0
0
0
0
0
0
0
0
0
0
0
0
0
0
0
0
0
0
0
0
0
0
0
0
0
0
0
0
0
0
0
0
0
0
0
0
0
0
0
0
0
0
0
0
0
0
0
0
0
0
0
0
0
0
0
0
0
0
0
0
0
0
0
0
0
0
0
0
0
0
0
0
0
0
0
0
0
0
0
0
0
0
0
0
0
0
0
0
0
0
0
1.63303e-30
8.86226e-31
4.74504e-31
2.50556e-31
1.30425e-31
6.68997e-32
3.38001e-32
1.68135e-32
8.23131e-33
3.96434e-33
1.87756e-33
8.74117e-34
3.99892e-34
1.79707e-34
7.93047e-35
3.43578e-35
1.46096e-35
6.09616e-36
2.49587e-36
1.00256e-36
3.95124e-37
1.52805e-37
5.79987e-38
2.16128e-38
7.91039e-39
2.84508e-39
1.00612e-39
3.50052e-40
1.19897e-40
4.04517e-41
1.34502e-41
4.40914e-42
1.4253e-42
4.54362e-43
1.4282e-43
4.42525e-44
1.351e-44
4.06155e-45
1.20162e-45
3.49591e-46
9.99404e-47
2.80521e-47
7.72477e-48
2.08523e-48
5.51348e-49
1.42678e-49
3.6108e-50
8.92949e-51
2.1562e-51
5.07989e-52
1.16672e-52
2.61012e-53
5.68287e-54
1.20316e-54
2.47494e-55
4.94213e-56
9.57195e-57
1.79657e-57
3.26489e-58
5.73991e-59
9.75395e-60
1.60067e-60
2.53436e-61
3.86786e-62
5.68445e-63
8.03712e-64
1.09216e-64
1.42497e-65
1.78317e-66
2.13773e-67
2.45207e-68
2.6875e-69
2.81054e-70
2.80085e-71
2.65618e-72
2.39399e-73
2.04839e-74
1.66216e-75
1.27662e-76
9.26833e-78
6.35242e-79
4.10039e-80
2.48437e-81
1.40947e-82
7.46826e-84
3.68543e-85
1.68803e-86
7.14791e-88
2.78764e-89
9.96599e-91
3.24979e-92
9.6197e-94
2.57306e-95
6.20507e-97
1.34019e-98
2.56035e-100
4.24103e-102
5.98817e-104
7.05715e-106
6.78604e-108
5.27782e-110
3.3146e-112
1.53877e-114
4.84274e-117
1.04251e-119
1.29622e-122
8.65012e-126
1.11326e-130
1.12826e-135
5.89869e-140
0
0
0
0
0
0
0
0
0
0
0
0
0
0
0
0
0
0
0
0
0
0
0
0
0
0
0
0
0
0
0
0
0
0
0
0
0
0
0
0
0
0
0
0
0
0
0
0
0
0
0
0
0
0
0
0
0
0
0
0
0
0
0
0
0
0
0
0
0
0
0
0
0
0
0
0
0
0
0
0
0
0
0
0
0
0
0
0
0
0
0
0
0
0
0
0
0
0
0
0
0
0
0
0
0
0
0
0
0
0
0
0
0
0
0
0
0
0
0
0
0
0
0
0
0
0
0
0
0
0
0
0
0
0
0
0
0
0
0
0
0
0
0
0
0
0
0
0
0
0
0
0
0
0
0
0
0
0
0
0
0
0
0
0
0
0
0
0
0
0
0
0
0
0
0
0
0
0
0
0
0
0
0
0
0
0
0
0
0
0
1.17423e-29
6.48228e-30
3.53151e-30
1.89792e-30
1.00578e-30
5.25365e-31
2.70381e-31
1.37048e-31
6.83878e-32
3.35832e-32
1.62233e-32
7.70676e-33
3.59891e-33
1.65158e-33
7.4461e-34
3.29725e-34
1.43376e-34
6.12115e-35
2.56554e-35
1.05561e-35
4.26407e-36
1.69125e-36
6.58802e-37
2.52118e-37
9.48272e-38
3.50711e-38
1.27609e-38
4.57054e-39
1.61226e-39
5.60394e-40
1.92001e-40
6.48599e-41
2.16049e-41
7.09581e-42
2.29737e-42
7.32954e-43
2.30317e-43
7.124e-44
2.16759e-44
6.48299e-45
1.90455e-45
5.49149e-46
1.55287e-46
4.30315e-47
1.16765e-47
3.10009e-48
8.04701e-49
2.04061e-49
5.05148e-50
1.21975e-50
2.87059e-51
6.57881e-52
1.46702e-52
3.18038e-53
6.69743e-54
1.36884e-54
2.71297e-55
5.20961e-56
9.68416e-57
1.7412e-57
3.02546e-58
5.07579e-59
8.21443e-60
1.28116e-60
1.92382e-61
2.77863e-62
3.85638e-63
5.13767e-64
6.56325e-65
8.0305e-66
9.39901e-67
1.0509e-67
1.12094e-68
1.13914e-69
1.10143e-70
1.01194e-71
8.82477e-73
7.29709e-74
5.7103e-75
4.22317e-76
2.94796e-77
1.93771e-78
1.19526e-79
6.90229e-81
3.72185e-82
1.86862e-83
8.70643e-85
3.74982e-86
1.48744e-87
5.40903e-89
1.79463e-90
5.40855e-92
1.47325e-93
3.61734e-95
7.95519e-97
1.54741e-98
2.61178e-100
3.7626e-102
4.53617e-104
4.48225e-106
3.59817e-108
2.3455e-110
1.13756e-112
3.78063e-115
8.5278e-118
1.0937e-120
7.34102e-124
9.95791e-129
2.21865e-133
1.19986e-137
0
0
0
0
0
0
0
0
0
0
0
0
0
0
0
0
0
0
0
0
0
0
0
0
0
0
0
0
0
0
0
0
0
0
0
0
0
0
0
0
0
0
0
0
0
0
0
0
0
0
0
0
0
0
0
0
0
0
0
0
0
0
0
0
0
0
0
0
0
0
0
0
0
0
0
0
0
0
0
0
0
0
0
0
0
0
0
0
0
0
0
0
0
0
0
0
0
0
0
0
0
0
0
0
0
0
0
0
0
0
0
0
0
0
0
0
0
0
0
0
0
0
0
0
0
0
0
0
0
0
0
0
0
0
0
0
0
0
0
0
0
0
0
0
0
0
0
0
0
0
0
0
0
0
0
0
0
0
0
0
0
0
0
0
0
0
0
0
0
0
0
0
0
0
0
0
0
0
0
0
0
0
0
0
0
0
0
0
0
0
8.39284e-29
4.71362e-29
2.61319e-29
1.42952e-29