/*--------------------------------*- C++ -*----------------------------------*\
| =========                 |                                                 |
| \\      /  F ield         | OpenFOAM: The Open Source CFD Toolbox           |
|  \\    /   O peration     | Version:  2.4.0                                 |
|   \\  /    A nd           | Web:      www.OpenFOAM.org                      |
|    \\/     M anipulation  |                                                 |
\*---------------------------------------------------------------------------*/
FoamFile
{
    version     2.0;
    format      ascii;
    class       volScalarField;
    location    "1";
    object      p_rgh;
}
// * * * * * * * * * * * * * * * * * * * * * * * * * * * * * * * * * * * * * //

dimensions      [1 -1 -2 0 0 0 0];

internalField   nonuniform List<scalar> 
8000
(
27.1524
27.1509
27.1491
27.1473
27.1454
27.1434
27.1414
27.1393
27.1371
27.1348
27.1324
27.1299
27.1274
27.1248
27.1221
27.1193
27.1164
27.1134
27.1103
27.1071
27.1038
27.1004
27.0968
27.0929
27.0886
27.0852
27.0868
27.0938
27.0736
26.9243
26.6308
11.6632
0.17068
0.00174775
-0.000249531
-0.000325022
-0.000378844
-0.000407666
-0.000422541
-0.000430411
-0.000434323
-0.000435918
-0.000436289
-0.000436155
-0.000435972
-0.000435922
-0.000435936
-0.00043595
-0.000435951
-0.000435939
28.4963
28.4941
28.4915
28.4891
28.4868
28.4845
28.4823
28.4801
28.4779
28.4758
28.4737
28.4717
28.4697
28.4678
28.4659
28.464
28.4622
28.4605
28.4588
28.4572
28.4557
28.4542
28.4528
28.451
28.4489
28.4494
28.4603
28.4798
28.4352
28.1287
27.5375
6.1813
0.0484017
0.000384726
-0.000295985
-0.000361835
-0.000406719
-0.000431418
-0.000444761
-0.000451844
-0.000455269
-0.000456633
-0.000456979
-0.000456967
-0.000456995
-0.000457169
-0.000457403
-0.000457645
-0.000457883
-0.000458117
29.8473
29.8443
29.8411
29.8382
29.8354
29.8328
29.8302
29.8278
29.8255
29.8232
29.8211
29.8191
29.8172
29.8154
29.8138
29.8122
29.8108
29.8094
29.8083
29.8072
29.8063
29.8056
29.805
29.8042
29.8036
29.8052
29.8142
29.8261
29.7845
29.5625
26.0509
2.25747
0.0137643
-7.83559e-05
-0.000338927
-0.000405538
-0.000446024
-0.000467252
-0.00047844
-0.000484112
-0.000486535
-0.000487149
-0.000486906
-0.000486406
-0.00048599
-0.000485704
-0.000485463
-0.000485229
-0.000484998
-0.000484771
31.1411
31.139
31.1366
31.1342
31.1318
31.1294
31.127
31.1245
31.122
31.1195
31.1169
31.1143
31.1117
31.109
31.1063
31.1035
31.1007
31.0978
31.0948
31.0919
31.0888
31.0857
31.0823
31.0787
31.0753
31.0745
31.0793
31.0764
31.0026
30.7868
20.8381
0.62265
0.00400275
-0.000266966
-0.000380147
-0.000446199
-0.000482315
-0.000500566
-0.000510175
-0.000515001
-0.00051698
-0.000517397
-0.000517115
-0.000516674
-0.000516348
-0.000516129
-0.000515938
-0.000515749
-0.000515561
-0.000515373
32.4637
32.4624
32.4608
32.4592
32.4574
32.4556
32.4536
32.4515
32.4493
32.447
32.4446
32.442
32.4394
32.4366
32.4338
32.4308
32.4276
32.4244
32.4209
32.4174
32.4137
32.4098
32.4055
32.4008
32.3967
32.3971
32.403
32.3853
32.2499
31.9699
14.506
0.173907
0.00110829
-0.00031732
-0.000394841
-0.000455932
-0.000488643
-0.000505674
-0.000514973
-0.000519878
-0.000522183
-0.000523094
-0.000523401
-0.000523591
-0.000523872
-0.000524204
-0.000524521
-0.00052481
-0.000525072
-0.000525309
33.8028
33.8008
33.7985
33.7963
33.7942
33.7922
33.7901
33.788
33.786
33.784
33.7821
33.7801
33.7782
33.7763
33.7745
33.7727
33.771
33.7693
33.7676
33.7661
33.7646
33.7631
33.7611
33.7586
33.7596
33.7747
33.8023
33.7449
33.3297
32.5954
7.58652
0.0448616
7.15151e-05
-0.000419312
-0.000493599
-0.00054285
-0.000568244
-0.000580883
-0.000586779
-0.000588772
-0.000588567
-0.000587292
-0.000585656
-0.000584077
-0.000582688
-0.00058142
-0.000580217
-0.000579067
-0.000577965
-0.000576909
35.165
35.1619
35.1586
35.1556
35.1527
35.1501
35.1476
35.1452
35.1429
35.1408
35.1387
35.1369
35.1351
35.1335
35.1321
35.1308
35.1296
35.1286
35.1278
35.1271
35.1267
35.1263
35.1258
35.1254
35.1276
35.1383
35.153
35.1069
34.8507
31.202
2.53185
0.0108232
-0.000230956
-0.000414543
-0.000488391
-0.000532188
-0.000555248
-0.000567621
-0.000574051
-0.000576959
-0.000577906
-0.000577915
-0.000577623
-0.000577382
-0.000577259
-0.000577182
-0.000577111
-0.00057704
-0.000576969
-0.000576898
36.454
36.4517
36.4491
36.4465
36.444
36.4415
36.439
36.4365
36.4339
36.4313
36.4287
36.426
36.4234
36.4207
36.4179
36.4152
36.4124
36.4095
36.4066
36.4037
36.4007
36.3975
36.394
36.3907
36.3902
36.3959
36.3948
36.3198
36.0871
24.5513
0.611549
0.00254674
-0.000393491
-0.000478873
-0.0005512
-0.000589361
-0.000608368
-0.000618301
-0.000623152
-0.00062495
-0.000625067
-0.000624417
-0.000623567
-0.0006228
-0.000622131
-0.00062149
-0.000620853
-0.000620218
-0.000619587
-0.000618959
37.7695
37.7683
37.7669
37.7653
37.7637
37.7619
37.7599
37.7578
37.7556
37.7532
37.7507
37.7481
37.7453
37.7423
37.7393
37.736
37.7326
37.729
37.7252
37.7213
37.7171
37.7125
37.7075
37.703
37.7028
37.7081
37.6916
37.5604
37.2796
16.776
0.150616
0.000413407
-0.000397085
-0.000482831
-0.000548731
-0.000583267
-0.00060109
-0.000610822
-0.000615953
-0.000618358
-0.000619299
-0.000619598
-0.000619754
-0.000619981
-0.000620254
-0.000620515
-0.000620749
-0.000620956
-0.000621137
-0.000621295
39.1094
39.1076
39.1054
39.1033
39.1013
39.0993
39.0972
39.0952
39.0932
39.0912
39.0893
39.0873
39.0854
39.0835
39.0816
39.0797
39.0779
39.0761
39.0743
39.0727
39.0709
39.0687
39.0661
39.0667
39.0805
39.1064
39.0519
38.6583
37.9583
8.54165
0.0350836
-0.000191577
-0.000499835
-0.000578843
-0.000631526
-0.000658526
-0.000671982
-0.000678372
-0.00068068
-0.000680685
-0.000679559
-0.000678032
-0.000676527
-0.000675184
-0.00067395
-0.000672773
-0.000671641
-0.00067055
-0.000669499
-0.000668485
40.4791
40.4758
40.4724
40.4692
40.4663
40.4636
40.461
40.4586
40.4564
40.4543
40.4524
40.4506
40.449
40.4476
40.4463
40.4453
40.4444
40.4437
40.4432
40.4429
40.4428
40.4425
40.4423
40.445
40.4573
40.4743
40.4235
40.1359
36.0504
2.51417
0.00699684
-0.000384328
-0.000502091
-0.000579602
-0.000624695
-0.000648248
-0.000660947
-0.000667585
-0.000670602
-0.000671602
-0.000671638
-0.000671354
-0.000671099
-0.000670947
-0.000670836
-0.00067073
-0.000670622
-0.000670512
-0.0006704
-0.000670286
41.7644
41.7621
41.7595
41.7569
41.7543
41.7518
41.7493
41.7468
41.7442
41.7417
41.7391
41.7365
41.7339
41.7313
41.7286
41.7259
41.7232
41.7205
41.7178
41.715
41.712
41.7088
41.7057
41.7056
41.7124
41.713
41.6355
41.3834
27.8401
0.532067
0.00111653
-0.000465013
-0.000560984
-0.000636498
-0.000675475
-0.000694785
-0.000704973
-0.000710041
-0.000712013
-0.00071228
-0.000711769
-0.000711044
-0.000710383
-0.000709805
-0.000709252
-0.000708699
-0.000708146
-0.000707594
-0.000707043
-0.000706494
43.072
43.0711
43.0698
43.0685
43.0669
43.0653
43.0634
43.0614
43.0592
43.0568
43.0543
43.0516
43.0487
43.0456
43.0424
43.039
43.0354
43.0316
43.0275
43.0232
43.0185
43.0133
43.0085
43.0079
43.0131
42.9979
42.8703
42.5876
18.794
0.11562
-5.12413e-05
-0.000476517
-0.000571647
-0.000639848
-0.000674856
-0.000692731
-0.000702446
-0.000707549
-0.000709924
-0.000710839
-0.000711116
-0.000711244
-0.000711429
-0.000711655
-0.00071187
-0.000712059
-0.000712224
-0.000712365
-0.000712484
-0.000712583
44.4152
44.4135
44.4115
44.4095
44.4076
44.4057
44.4038
44.4018
44.3999
44.3979
44.396
44.394
44.3921
44.3902
44.3882
44.3863
44.3844
44.3825
44.3807
44.3788
44.3764
44.3736
44.3737
44.386
44.4094
44.3592
43.9969
43.3478
9.4456
0.0243094
-0.000403069
-0.000571527
-0.000656803
-0.000711206
-0.00073873
-0.00075258
-0.000759334
-0.000761988
-0.00076233
-0.000761537
-0.000760334
-0.000759132
-0.000758065
-0.000757089
-0.00075616
-0.000755265
-0.000754402
-0.00075357
-0.000752766
-0.00075199
45.7896
45.7862
45.7827
45.7795
45.7766
45.7738
45.7713
45.769
45.7668
45.7649
45.7631
45.7615
45.7601
45.7589
45.7579
45.7571
45.7565
45.7562
45.7561
45.7561
45.756
45.756
45.7592
45.7733
45.7932
45.7367
45.4104
41.1787
2.49944
0.00380969
-0.000501374
-0.000588378
-0.000669775
-0.00071502
-0.00073816
-0.000750672
-0.000757247
-0.000760245
-0.000761251
-0.000761314
-0.000761064
-0.000760833
-0.000760689
-0.000760581
-0.000760476
-0.000760369
-0.00076026
-0.000760148
-0.000760034
-0.000759917
47.0769
47.0745
47.0718
47.0692
47.0667
47.0642
47.0617
47.0593
47.0569
47.0545
47.0522
47.0498
47.0475
47.0451
47.0428
47.0405
47.0382
47.036
47.0337
47.0313
47.0286
47.0261
47.0267
47.0351
47.0393
46.9634
46.6918
31.8115
0.469245
0.000198377
-0.000533144
-0.0006393
-0.000716841
-0.000755864
-0.000774987
-0.000785173
-0.000790372
-0.000792545
-0.000793054
-0.000792809
-0.000792356
-0.000791951
-0.000791616
-0.000791299
-0.00079098
-0.000790657
-0.000790331
-0.000790003
-0.000789672
-0.00078934
48.3706
48.37
48.3691
48.3679
48.3666
48.3651
48.3634
48.3615
48.3594
48.3572
48.3547
48.352
48.3492
48.3461
48.3428
48.3393
48.3356
48.3316
48.3274
48.3228
48.3176
48.3127
48.3114
48.3162
48.3049
48.1911
47.9161
21.9489
0.0895775
-0.000397143
-0.000564011
-0.000665881
-0.000734643
-0.000769074
-0.000786297
-0.000795526
-0.000800288
-0.000802418
-0.00080315
-0.000803282
-0.000803281
-0.000803335
-0.000803429
-0.000803521
-0.000803597
-0.000803658
-0.000803703
-0.000803735
-0.000803753
-0.000803758
49.713
49.7118
49.7104
49.7089
49.7074
49.7058
49.7042
49.7024
49.7006
49.6987
49.6968
49.6948
49.6927
49.6906
49.6884
49.6861
49.6838
49.6814
49.6789
49.676
49.6726
49.6711
49.6777
49.6922
49.6591
49.416
48.9642
12.0692
0.0174822
-0.000551286
-0.000634983
-0.00072625
-0.000781852
-0.000810071
-0.000824621
-0.000832116
-0.000835539
-0.000836667
-0.000836658
-0.00083622
-0.000835744
-0.000835354
-0.000835016
-0.000834695
-0.000834379
-0.000834069
-0.000833764
-0.000833463
-0.000833166
-0.000832872
51.0934
51.0903
51.0871
51.0842
51.0815
51.0791
51.0769
51.0748
51.0729
51.0713
51.0698
51.0685
51.0674
51.0665
51.0658
51.0653
51.0651
51.0651
51.0652
51.0651
51.0649
51.0685
51.0857
51.1111
51.0454
50.642
48.1507
3.42137
0.00199415
-0.000582378
-0.000677639
-0.000763525
-0.000808471
-0.000831034
-0.00084323
-0.000849654
-0.000852586
-0.000853579
-0.000853662
-0.000853445
-0.000853237
-0.000853101
-0.000852995
-0.000852893
-0.000852791
-0.000852685
-0.000852578
-0.000852468
-0.000852355
-0.000852239
52.4068
52.404
52.401
52.3982
52.3956
52.3932
52.3908
52.3886
52.3865
52.3845
52.3825
52.3807
52.379
52.3774
52.3759
52.3746
52.3733
52.3722
52.3711
52.3697
52.3684
52.3703
52.3819
52.3945
52.328
52.0239
39.4119
0.593994
-0.000269892
-0.000607829
-0.000721732
-0.000802778
-0.000841823
-0.000860619
-0.000870701
-0.000875978
-0.000878326
-0.000879064
-0.000879078
-0.00087889
-0.000878734
-0.000878631
-0.000878543
-0.000878453
-0.000878356
-0.000878252
-0.000878142
-0.000878026
-0.000877903
-0.000877775
-0.000435918
-0.000435889
-0.000435852
-0.00043581
-0.000435763
-0.000435714
-0.000435661
-0.000435607
-0.000435552
-0.000435496
-0.000435441
-0.000435386
-0.000435333
-0.00043528
-0.000435229
-0.00043518
-0.000435132
-0.000435086
-0.000435042
-0.000435
-0.00043496
-0.000434922
-0.000434885
-0.00043485
-0.000434817
-0.000434785
-0.000434755
-0.000434725
-0.000434697
-0.00043467
-0.000434644
-0.000434618
-0.000434593
-0.000434568
-0.000434544
-0.000434519
-0.000434495
-0.000434471
-0.000434446
-0.000434422
-0.000434397
-0.000434371
-0.000434345
-0.000434318
-0.000434291
-0.000434263
-0.000434234
-0.000434205
-0.000434174
-0.000434139
-0.000458346
-0.000458567
-0.000458782
-0.000458988
-0.000459185
-0.000459373
-0.00045955
-0.000459718
-0.000459875
-0.000460021
-0.000460157
-0.000460281
-0.000460395
-0.000460498
-0.000460591
-0.000460673
-0.000460745
-0.000460807
-0.000460859
-0.000460902
-0.000460936
-0.000460961
-0.000460977
-0.000460986
-0.000460987
-0.00046098
-0.000460967
-0.000460947
-0.00046092
-0.000460888
-0.00046085
-0.000460806
-0.000460758
-0.000460705
-0.000460647
-0.000460585
-0.00046052
-0.000460451
-0.000460378
-0.000460302
-0.000460224
-0.000460142
-0.000460058
-0.000459972
-0.000459883
-0.000459792
-0.000459699
-0.000459604
-0.000459507
-0.000459416
-0.000484548
-0.000484331
-0.000484118
-0.000483911
-0.000483709
-0.000483513
-0.000483323
-0.00048314
-0.000482962
-0.000482791
-0.000482627
-0.000482468
-0.000482316
-0.000482169
-0.000482029
-0.000481894
-0.000481764
-0.00048164
-0.000481521
-0.000481407
-0.000481297
-0.000481192
-0.00048109
-0.000480993
-0.000480899
-0.000480808
-0.00048072
-0.000480635
-0.000480552
-0.000480472
-0.000480394
-0.000480317
-0.000480242
-0.000480169
-0.000480096
-0.000480025
-0.000479954
-0.000479884
-0.000479814
-0.000479745
-0.000479676
-0.000479607
-0.000479538
-0.000479468
-0.000479399
-0.000479329
-0.000479258
-0.000479188
-0.000479116
-0.000479039
-0.000515184
-0.000514995
-0.000514806
-0.000514615
-0.000514424
-0.000514232
-0.000514039
-0.000513845
-0.00051365
-0.000513454
-0.000513256
-0.000513058
-0.000512858
-0.000512657
-0.000512455
-0.000512252
-0.000512049
-0.000511844
-0.000511639
-0.000511434
-0.000511228
-0.000511022
-0.000510816
-0.000510609
-0.000510403
-0.000510196
-0.00050999
-0.000509785
-0.00050958
-0.000509375
-0.000509171
-0.000508968
-0.000508766
-0.000508564
-0.000508364
-0.000508165
-0.000507967
-0.00050777
-0.000507574
-0.000507379
-0.000507186
-0.000506994
-0.000506804
-0.000506614
-0.000506427
-0.00050624
-0.000506055
-0.00050587
-0.000505688
-0.000505515
-0.000525522
-0.000525714
-0.000525886
-0.00052604
-0.000526176
-0.000526296
-0.000526402
-0.000526494
-0.000526573
-0.000526641
-0.000526697
-0.000526743
-0.00052678
-0.000526808
-0.000526827
-0.000526839
-0.000526843
-0.000526841
-0.000526832
-0.000526817
-0.000526797
-0.00052677
-0.000526739
-0.000526703
-0.000526662
-0.000526617
-0.000526568
-0.000526514
-0.000526457
-0.000526396
-0.000526331
-0.000526263
-0.000526192
-0.000526117
-0.000526039
-0.000525959
-0.000525875
-0.000525789
-0.000525699
-0.000525608
-0.000525513
-0.000525416
-0.000525317
-0.000525215
-0.000525111
-0.000525005
-0.000524897
-0.000524787
-0.000524675
-0.000524555
-0.000575897
-0.000574925
-0.000573992
-0.000573096
-0.000572234
-0.000571405
-0.000570606
-0.000569836
-0.000569094
-0.000568379
-0.000567687
-0.00056702
-0.000566374
-0.00056575
-0.000565146
-0.000564561
-0.000563994
-0.000563444
-0.00056291
-0.000562393
-0.00056189
-0.000561401
-0.000560926
-0.000560464
-0.000560014
-0.000559576
-0.00055915
-0.000558734
-0.000558329
-0.000557933
-0.000557547
-0.000557171
-0.000556803
-0.000556443
-0.000556092
-0.000555748
-0.000555412
-0.000555083
-0.000554761
-0.000554446
-0.000554137
-0.000553834
-0.000553537
-0.000553245
-0.00055296
-0.000552679
-0.000552404
-0.000552132
-0.000551868
-0.000551615
-0.000576825
-0.000576751
-0.000576675
-0.000576598
-0.000576519
-0.000576437
-0.000576353
-0.000576267
-0.000576179
-0.000576087
-0.000575994
-0.000575897
-0.000575798
-0.000575697
-0.000575592
-0.000575485
-0.000575376
-0.000575263
-0.000575148
-0.000575031
-0.000574911
-0.000574788
-0.000574663
-0.000574536
-0.000574406
-0.000574273
-0.000574139
-0.000574002
-0.000573863
-0.000573721
-0.000573578
-0.000573432
-0.000573285
-0.000573135
-0.000572984
-0.00057283
-0.000572675
-0.000572518
-0.000572359
-0.000572198
-0.000572036
-0.000571872
-0.000571706
-0.000571539
-0.00057137
-0.0005712
-0.000571028
-0.000570855
-0.000570681
-0.0005705
-0.000618336
-0.000617719
-0.000617107
-0.000616502
-0.000615904
-0.000615314
-0.00061473
-0.000614155
-0.000613587
-0.000613028
-0.000612476
-0.000611933
-0.000611399
-0.000610873
-0.000610355
-0.000609845
-0.000609344
-0.000608851
-0.000608366
-0.000607889
-0.000607421
-0.00060696
-0.000606507
-0.000606062
-0.000605624
-0.000605194
-0.000604771
-0.000604355
-0.000603946
-0.000603544
-0.000603149
-0.00060276
-0.000602378
-0.000602002
-0.000601632
-0.000601269
-0.000600911
-0.000600559
-0.000600212
-0.000599871
-0.000599535
-0.000599205
-0.000598879
-0.000598559
-0.000598243
-0.000597932
-0.000597625
-0.000597323
-0.000597026
-0.00059674
-0.000621431
-0.000621545
-0.000621641
-0.000621717
-0.000621776
-0.000621819
-0.000621847
-0.00062186
-0.000621859
-0.000621845
-0.000621819
-0.000621782
-0.000621734
-0.000621676
-0.000621608
-0.000621531
-0.000621446
-0.000621353
-0.000621251
-0.000621143
-0.000621028
-0.000620907
-0.000620779
-0.000620646
-0.000620507
-0.000620363
-0.000620215
-0.000620061
-0.000619904
-0.000619742
-0.000619576
-0.000619407
-0.000619234
-0.000619058
-0.000618878
-0.000618696
-0.00061851
-0.000618322
-0.000618131
-0.000617938
-0.000617743
-0.000617545
-0.000617345
-0.000617142
-0.000616938
-0.000616732
-0.000616525
-0.000616316
-0.000616105
-0.000615888
-0.000667507
-0.000666562
-0.000665649
-0.000664766
-0.000663912
-0.000663085
-0.000662284
-0.000661508
-0.000660755
-0.000660025
-0.000659315
-0.000658626
-0.000657956
-0.000657305
-0.000656671
-0.000656054
-0.000655452
-0.000654866
-0.000654295
-0.000653738
-0.000653194
-0.000652662
-0.000652143
-0.000651636
-0.00065114
-0.000650655
-0.00065018
-0.000649715
-0.00064926
-0.000648814
-0.000648376
-0.000647948
-0.000647527
-0.000647114
-0.000646708
-0.00064631
-0.000645919
-0.000645535
-0.000645157
-0.000644785
-0.00064442
-0.00064406
-0.000643706
-0.000643357
-0.000643013
-0.000642675
-0.000642341
-0.000642012
-0.000641689
-0.000641376
-0.000670169
-0.00067005
-0.000669927
-0.000669801
-0.000669672
-0.000669539
-0.000669403
-0.000669264
-0.000669121
-0.000668974
-0.000668824
-0.00066867
-0.000668513
-0.000668353
-0.000668189
-0.000668021
-0.000667851
-0.000667677
-0.0006675
-0.00066732
-0.000667137
-0.000666951
-0.000666762
-0.000666571
-0.000666377
-0.00066618
-0.00066598
-0.000665778
-0.000665574
-0.000665367
-0.000665158
-0.000664946
-0.000664733
-0.000664517
-0.0006643
-0.00066408
-0.000663859
-0.000663636
-0.000663411
-0.000663184
-0.000662955
-0.000662725
-0.000662493
-0.00066226
-0.000662025
-0.000661789
-0.000661552
-0.000661313
-0.000661074
-0.00066083
-0.000705948
-0.000705405
-0.000704866
-0.000704331
-0.0007038
-0.000703274
-0.000702753
-0.000702238
-0.000701728
-0.000701223
-0.000700724
-0.000700231
-0.000699743
-0.000699262
-0.000698786
-0.000698316
-0.000697852
-0.000697394
-0.000696941
-0.000696495
-0.000696054
-0.000695618
-0.000695188
-0.000694764
-0.000694345
-0.000693931
-0.000693522
-0.000693119
-0.00069272
-0.000692326
-0.000691937
-0.000691553
-0.000691173
-0.000690798
-0.000690427
-0.00069006
-0.000689698
-0.000689339
-0.000688985
-0.000688634
-0.000688288
-0.000687944
-0.000687605
-0.000687269
-0.000686936
-0.000686607
-0.00068628
-0.000685957
-0.000685638
-0.000685326
-0.000712662
-0.000712723
-0.000712767
-0.000712794
-0.000712806
-0.000712803
-0.000712786
-0.000712757
-0.000712714
-0.000712661
-0.000712596
-0.000712521
-0.000712435
-0.000712341
-0.000712237
-0.000712125
-0.000712005
-0.000711877
-0.000711742
-0.000711601
-0.000711452
-0.000711298
-0.000711137
-0.000710971
-0.0007108
-0.000710623
-0.000710442
-0.000710256
-0.000710066
-0.000709871
-0.000709672
-0.00070947
-0.000709263
-0.000709054
-0.00070884
-0.000708624
-0.000708404
-0.000708182
-0.000707957
-0.000707728
-0.000707498
-0.000707264
-0.000707029
-0.00070679
-0.00070655
-0.000706307
-0.000706062
-0.000705816
-0.000705568
-0.000705315
-0.000751239
-0.000750512
-0.000749809
-0.000749126
-0.000748465
-0.000747822
-0.000747198
-0.000746591
-0.000746
-0.000745425
-0.000744864
-0.000744318
-0.000743784
-0.000743263
-0.000742754
-0.000742256
-0.000741768
-0.000741291
-0.000740824
-0.000740365
-0.000739915
-0.000739474
-0.00073904
-0.000738614
-0.000738195
-0.000737783
-0.000737377
-0.000736977
-0.000736583
-0.000736195
-0.000735812
-0.000735435
-0.000735062
-0.000734693
-0.00073433
-0.00073397
-0.000733614
-0.000733263
-0.000732915
-0.00073257
-0.000732229
-0.000731891
-0.000731557
-0.000731225
-0.000730896
-0.00073057
-0.000730246
-0.000729924
-0.000729607
-0.000729295
-0.000759798
-0.000759675
-0.000759549
-0.000759419
-0.000759286
-0.00075915
-0.00075901
-0.000758866
-0.000758719
-0.000758568
-0.000758414
-0.000758256
-0.000758094
-0.000757929
-0.00075776
-0.000757588
-0.000757412
-0.000757233
-0.00075705
-0.000756864
-0.000756675
-0.000756483
-0.000756287
-0.000756088
-0.000755887
-0.000755682
-0.000755474
-0.000755263
-0.00075505
-0.000754833
-0.000754614
-0.000754392
-0.000754168
-0.000753941
-0.000753711
-0.000753479
-0.000753244
-0.000753007
-0.000752767
-0.000752525
-0.000752281
-0.000752035
-0.000751786
-0.000751535
-0.000751282
-0.000751027
-0.00075077
-0.000750511
-0.00075025
-0.000749987
-0.000789007
-0.000788673
-0.000788339
-0.000788004
-0.00078767
-0.000787335
-0.000787001
-0.000786668
-0.000786335
-0.000786002
-0.000785671
-0.00078534
-0.000785011
-0.000784682
-0.000784355
-0.000784028
-0.000783703
-0.000783379
-0.000783055
-0.000782733
-0.000782412
-0.000782093
-0.000781774
-0.000781456
-0.000781139
-0.000780824
-0.000780509
-0.000780195
-0.000779882
-0.00077957
-0.000779259
-0.000778949
-0.000778639
-0.000778331
-0.000778022
-0.000777715
-0.000777408
-0.000777102
-0.000776797
-0.000776492
-0.000776187
-0.000775883
-0.00077558
-0.000775277
-0.000774974
-0.000774671
-0.000774369
-0.000774067
-0.000773767
-0.000773469
-0.000803752
-0.000803733
-0.000803704
-0.000803664
-0.000803615
-0.000803555
-0.000803487
-0.000803409
-0.000803324
-0.00080323
-0.000803128
-0.000803019
-0.000802903
-0.00080278
-0.000802651
-0.000802515
-0.000802373
-0.000802225
-0.000802071
-0.000801912
-0.000801747
-0.000801577
-0.000801402
-0.000801222
-0.000801038
-0.000800848
-0.000800655
-0.000800457
-0.000800255
-0.000800048
-0.000799838
-0.000799624
-0.000799406
-0.000799184
-0.000798959
-0.00079873
-0.000798498
-0.000798262
-0.000798023
-0.000797781
-0.000797535
-0.000797287
-0.000797035
-0.000796781
-0.000796523
-0.000796263
-0.000795999
-0.000795734
-0.000795466
-0.000795195
-0.000832582
-0.000832295
-0.00083201
-0.000831728
-0.000831448
-0.000831169
-0.000830892
-0.000830617
-0.000830342
-0.000830069
-0.000829796
-0.000829524
-0.000829252
-0.000828981
-0.00082871
-0.000828439
-0.000828168
-0.000827897
-0.000827625
-0.000827353
-0.000827081
-0.000826809
-0.000826536
-0.000826262
-0.000825987
-0.000825712
-0.000825436
-0.000825159
-0.000824882
-0.000824603
-0.000824323
-0.000824043
-0.000823761
-0.000823479
-0.000823195
-0.00082291
-0.000822624
-0.000822337
-0.000822049
-0.00082176
-0.000821469
-0.000821178
-0.000820885
-0.000820591
-0.000820295
-0.000819999
-0.000819701
-0.000819402
-0.000819103
-0.000818804
-0.00085212
-0.000851998
-0.000851872
-0.000851743
-0.00085161
-0.000851474
-0.000851333
-0.00085119
-0.000851042
-0.000850891
-0.000850735
-0.000850576
-0.000850413
-0.000850246
-0.000850075
-0.0008499
-0.000849721
-0.000849538
-0.000849351
-0.000849161
-0.000848966
-0.000848768
-0.000848566
-0.00084836
-0.00084815
-0.000847936
-0.000847719
-0.000847497
-0.000847272
-0.000847044
-0.000846811
-0.000846575
-0.000846336
-0.000846093
-0.000845846
-0.000845596
-0.000845342
-0.000845085
-0.000844825
-0.000844561
-0.000844294
-0.000844024
-0.00084375
-0.000843473
-0.000843193
-0.000842909
-0.000842623
-0.000842333
-0.000842042
-0.000841747
-0.000877641
-0.000877502
-0.000877358
-0.000877208
-0.000877053
-0.000876893
-0.000876728
-0.000876559
-0.000876385
-0.000876206
-0.000876022
-0.000875835
-0.000875643
-0.000875446
-0.000875245
-0.00087504
-0.000874831
-0.000874618
-0.000874401
-0.00087418
-0.000873955
-0.000873726
-0.000873493
-0.000873256
-0.000873016
-0.000872772
-0.000872524
-0.000872273
-0.000872018
-0.000871759
-0.000871497
-0.000871232
-0.000870963
-0.000870691
-0.000870415
-0.000870136
-0.000869854
-0.000869569
-0.00086928
-0.000868989
-0.000868694
-0.000868396
-0.000868095
-0.000867791
-0.000867484
-0.000867174
-0.000866861
-0.000866546
-0.000866229
-0.000865909
-0.000434111
-0.000434103
-0.000434099
-0.000434096
-0.000434093
-0.000434088
-0.000434083
-0.000434077
-0.00043407
-0.000434063
-0.000434055
-0.000434046
-0.000434037
-0.000434027
-0.000434017
-0.000434006
-0.000433994
-0.000433981
-0.000433968
-0.000433954
-0.00043394
-0.000433924
-0.000433908
-0.000433891
-0.000433874
-0.000433856
-0.000433837
-0.000433817
-0.000433797
-0.000433776
-0.000433754
-0.000433731
-0.000433707
-0.000433683
-0.000433658
-0.000433632
-0.000433606
-0.000433578
-0.00043355
-0.000433521
-0.000433491
-0.00043346
-0.000433429
-0.000433396
-0.000433363
-0.000433329
-0.000433294
-0.000433258
-0.000433221
-0.000433184
-0.000433145
-0.000433106
-0.000433065
-0.000433024
-0.000432982
-0.000432939
-0.000432895
-0.000432851
-0.000432805
-0.000432758
-0.00043271
-0.000432662
-0.000432612
-0.000432562
-0.000432511
-0.000432458
-0.000432405
-0.000432351
-0.000432295
-0.000432239
-0.000432182
-0.000432123
-0.000432064
-0.000432004
-0.000431943
-0.000431881
-0.000431817
-0.000431753
-0.000431688
-0.000431622
-0.000431554
-0.000431486
-0.000431417
-0.000431346
-0.000431275
-0.000431202
-0.000431129
-0.000431055
-0.000430979
-0.000430902
-0.000430825
-0.000430746
-0.000430666
-0.000430586
-0.000430504
-0.000430421
-0.000430337
-0.000430252
-0.000430166
-0.000430079
-0.000429991
-0.000429901
-0.000429811
-0.00042972
-0.000429627
-0.000429534
-0.000429439
-0.000429344
-0.000429247
-0.000429149
-0.00042905
-0.000428951
-0.00042885
-0.000428748
-0.000428645
-0.000428541
-0.000428436
-0.000428329
-0.000428222
-0.000428114
-0.000428005
-0.000427894
-0.000427783
-0.00042767
-0.000427557
-0.000427442
-0.000427327
-0.00042721
-0.000427093
-0.000426974
-0.000426854
-0.000426734
-0.000426612
-0.000426489
-0.000426366
-0.000426241
-0.000426115
-0.000425989
-0.000425861
-0.000425732
-0.000425603
-0.000425472
-0.000425341
-0.000425208
-0.000425075
-0.000424941
-0.000424805
-0.000424669
-0.000424532
-0.000424394
-0.000424255
-0.000424115
-0.000423975
-0.000423833
-0.00042369
-0.000423547
-0.000423403
-0.000423258
-0.000423112
-0.000422965
-0.000422818
-0.000422669
-0.00042252
-0.00042237
-0.000422219
-0.000422068
-0.000421915
-0.000421762
-0.000421609
-0.000421454
-0.000421299
-0.000421143
-0.000420986
-0.000420829
-0.000420671
-0.000420512
-0.000420353
-0.000420193
-0.000420032
-0.000419871
-0.000419709
-0.000419546
-0.000419383
-0.00041922
-0.000419056
-0.000418891
-0.000418726
-0.00041856
-0.000418394
-0.000418227
-0.00041806
-0.000417892
-0.000417724
-0.000417556
-0.000417387
-0.000417218
-0.000417048
-0.000416878
-0.000416708
-0.000416537
-0.000416367
-0.000416195
-0.000416024
-0.000415852
-0.000415681
-0.000415509
-0.000415336
-0.000415164
-0.000414991
-0.000414819
-0.000414646
-0.000414473
-0.000414301
-0.000414128
-0.000413955
-0.000413782
-0.000413609
-0.000413437
-0.000413264
-0.000413092
-0.00041292
-0.000412748
-0.000412576
-0.000412404
-0.000412233
-0.000412062
-0.000411892
-0.000411721
-0.000411552
-0.000411382
-0.000411213
-0.000411045
-0.000410877
-0.00041071
-0.000410543
-0.000410377
-0.000410212
-0.000410047
-0.000409883
-0.00040972
-0.000409558
-0.000409397
-0.000409237
-0.000409077
-0.000408919
-0.000408762
-0.000408605
-0.00040845
-0.000408296
-0.000408144
-0.000407992
-0.000407842
-0.000407694
-0.000407547
-0.000407401
-0.000407257
-0.000407114
-0.000406973
-0.000406834
-0.000406696
-0.000406561
-0.000406427
-0.000406295
-0.000406165
-0.000406037
-0.000405911
-0.000405788
-0.000405666
-0.000405547
-0.00040543
-0.000405316
-0.000405204
-0.000405094
-0.000404987
-0.000404883
-0.000404782
-0.000404683
-0.000404588
-0.000404495
-0.000404405
-0.000404318
-0.000404235
-0.000404155
-0.000404078
-0.000404004
-0.000403934
-0.000403868
-0.000403805
-0.000403746
-0.000403691
-0.00040364
-0.000403593
-0.00040355
-0.000403511
-0.000403476
-0.000403446
-0.00040342
-0.000403399
-0.000403383
-0.000403371
-0.000459361
-0.000459322
-0.00045928
-0.000459238
-0.000459194
-0.00045915
-0.000459105
-0.00045906
-0.000459013
-0.000458966
-0.000458918
-0.000458869
-0.000458819
-0.000458769
-0.000458717
-0.000458665
-0.000458612
-0.000458559
-0.000458505
-0.000458449
-0.000458394
-0.000458337
-0.00045828
-0.000458222
-0.000458163
-0.000458103
-0.000458043
-0.000457982
-0.00045792
-0.000457857
-0.000457794
-0.00045773
-0.000457665
-0.0004576
-0.000457534
-0.000457467
-0.0004574
-0.000457331
-0.000457262
-0.000457193
-0.000457122
-0.000457051
-0.000456979
-0.000456907
-0.000456833
-0.000456759
-0.000456685
-0.000456609
-0.000456533
-0.000456457
-0.000456379
-0.000456301
-0.000456222
-0.000456143
-0.000456063
-0.000455982
-0.0004559
-0.000455818
-0.000455735
-0.000455651
-0.000455566
-0.000455481
-0.000455395
-0.000455309
-0.000455222
-0.000455134
-0.000455045
-0.000454956
-0.000454866
-0.000454775
-0.000454684
-0.000454591
-0.000454499
-0.000454405
-0.000454311
-0.000454216
-0.00045412
-0.000454024
-0.000453927
-0.000453829
-0.00045373
-0.000453631
-0.000453531
-0.00045343
-0.000453329
-0.000453227
-0.000453124
-0.00045302
-0.000452916
-0.000452811
-0.000452705
-0.000452598
-0.000452491
-0.000452383
-0.000452274
-0.000452164
-0.000452054
-0.000451943
-0.000451831
-0.000451719
-0.000451605
-0.000451491
-0.000451377
-0.000451261
-0.000451145
-0.000451028
-0.00045091
-0.000450791
-0.000450672
-0.000450551
-0.000450431
-0.000450309
-0.000450186
-0.000450063
-0.000449939
-0.000449814
-0.000449688
-0.000449562
-0.000449435
-0.000449307
-0.000449178
-0.000449049
-0.000448918
-0.000448787
-0.000448655
-0.000448523
-0.000448389
-0.000448255
-0.00044812
-0.000447984
-0.000447847
-0.00044771
-0.000447571
-0.000447432
-0.000447292
-0.000447152
-0.00044701
-0.000446868
-0.000446725
-0.000446581
-0.000446436
-0.000446291
-0.000446144
-0.000445997
-0.00044585
-0.000445701
-0.000445551
-0.000445401
-0.00044525
-0.000445098
-0.000444946
-0.000444792
-0.000444638
-0.000444483
-0.000444327
-0.000444171
-0.000444014
-0.000443856
-0.000443697
-0.000443537
-0.000443377
-0.000443216
-0.000443054
-0.000442891
-0.000442728
-0.000442564
-0.000442399
-0.000442233
-0.000442067
-0.0004419
-0.000441733
-0.000441564
-0.000441395
-0.000441225
-0.000441055
-0.000440884
-0.000440712
-0.00044054
-0.000440367
-0.000440193
-0.000440019
-0.000439844
-0.000439668
-0.000439492
-0.000439315
-0.000439138
-0.00043896
-0.000438782
-0.000438603
-0.000438424
-0.000438244
-0.000438064
-0.000437883
-0.000437701
-0.00043752
-0.000437338