/*--------------------------------*- C++ -*----------------------------------*\
| =========                 |                                                 |
| \\      /  F ield         | OpenFOAM: The Open Source CFD Toolbox           |
|  \\    /   O peration     | Version:  2.4.0                                 |
|   \\  /    A nd           | Web:      www.OpenFOAM.org                      |
|    \\/     M anipulation  |                                                 |
\*---------------------------------------------------------------------------*/
FoamFile
{
    version     2.0;
    format      ascii;
    class       surfaceScalarField;
    location    "1";
    object      phi;
}
// * * * * * * * * * * * * * * * * * * * * * * * * * * * * * * * * * * * * * //

dimensions      [0 3 -1 0 0 0 0];

internalField   nonuniform List<scalar> 
15580
(
-1.22943e-14
-2.24716e-12
-5.08794e-14
-6.59905e-12
-1.17161e-13
-1.08086e-11
-2.12305e-13
-1.4876e-11
-3.37296e-13
-1.88012e-11
-4.92961e-13
-2.2584e-11
-6.79991e-13
-2.62246e-11
-8.98959e-13
-2.97227e-11
-1.15034e-12
-3.30784e-11
-1.43452e-12
-3.62915e-11
-1.75183e-12
-3.9362e-11
-2.10253e-12
-4.22896e-11
-2.48684e-12
-4.50744e-11
-2.90497e-12
-4.7716e-11
-3.3571e-12
-5.02144e-11
-3.84341e-12
-5.25695e-11
-4.36411e-12
-5.47809e-11
-4.91942e-12
-5.68486e-11
-5.50963e-12
-5.87722e-11
-6.13506e-12
-6.05517e-11
-6.79616e-12
-6.21867e-11
-7.49343e-12
-6.36772e-11
-8.22756e-12
-6.50227e-11
-8.99931e-12
-6.62231e-11
-9.80974e-12
-6.72779e-11
-1.06599e-11
-6.81873e-11
-1.15512e-11
-6.89505e-11
-1.2485e-11
-6.95675e-11
-1.34645e-11
-7.0036e-11
-1.4496e-11
-7.03539e-11
-2.26356e-11
-7.05239e-11
-3.09052e-11
-7.06128e-11
-3.20605e-11
-7.05965e-11
-3.3234e-11
-7.05854e-11
-3.44506e-11
-7.05664e-11
-3.56999e-11
-7.0579e-11
-3.69785e-11
-7.05945e-11
-3.828e-11
-7.06026e-11
-3.95973e-11
-7.05993e-11
-4.09243e-11
-7.05828e-11
-4.22564e-11
-7.05513e-11
-4.35904e-11
-7.05031e-11
-4.49238e-11
-7.04366e-11
-4.62549e-11
-7.03507e-11
-4.75821e-11
-7.02445e-11
-4.89043e-11
-7.01179e-11
-5.02204e-11
-6.99704e-11
-5.15296e-11
-6.98023e-11
-5.28312e-11
-6.96138e-11
-6.9405e-11
-5.41247e-11
-1.9966e-14
-2.22719e-12
-7.99335e-14
-6.53908e-12
-1.79535e-13
-1.0709e-11
-3.18222e-13
-1.47373e-11
-4.95487e-13
-1.86239e-11
-7.10851e-13
-2.23687e-11
-9.63853e-13
-2.59716e-11
-1.25404e-12
-2.94325e-11
-1.58095e-12
-3.27515e-11
-1.94413e-12
-3.59284e-11
-2.34307e-12
-3.8963e-11
-2.77725e-12
-4.18555e-11
-3.24609e-12
-4.46055e-11
-3.74896e-12
-4.72132e-11
-4.28516e-12
-4.96782e-11
-4.85392e-12
-5.20007e-11
-5.45439e-12
-5.41804e-11
-6.08563e-12
-5.62173e-11
-6.7466e-12
-5.81113e-11
-7.43619e-12
-5.98621e-11
-8.15314e-12
-6.14698e-11
-8.89621e-12
-6.29341e-11
-9.66387e-12
-6.4255e-11
-1.04547e-11
-6.54323e-11
-1.12669e-11
-6.64657e-11
-1.2099e-11
-6.73552e-11
-1.29492e-11
-6.81004e-11
-1.38155e-11
-6.87012e-11
-1.46927e-11
-6.91588e-11
-1.55702e-11
-6.94764e-11
-3.44077e-11
-6.96627e-11
-3.54495e-11
-6.9691e-11
-3.63606e-11
-6.96854e-11
-3.72755e-11
-6.96706e-11
-3.82353e-11
-6.96066e-11
-3.92578e-11
-6.95565e-11
-4.03317e-11
-6.95206e-11
-4.14425e-11
-6.94919e-11
-4.25794e-11
-6.94625e-11
-4.37357e-11
-6.94264e-11
-4.49075e-11
-6.93795e-11
-4.6092e-11
-6.93185e-11
-4.72871e-11
-6.92415e-11
-4.84909e-11
-6.91469e-11
-4.97015e-11
-6.9034e-11
-5.0917e-11
-6.89023e-11
-5.21358e-11
-6.87516e-11
-5.33561e-11
-6.8582e-11
-5.45763e-11
-6.83935e-11
-6.81863e-11
-5.57951e-11
-2.81931e-14
-2.199e-12
-1.08771e-13
-6.4585e-12
-2.39347e-13
-1.05785e-11
-4.18424e-13
-1.45583e-11
-6.44701e-13
-1.83976e-11
-9.17047e-13
-2.20963e-11
-1.23447e-12
-2.56541e-11
-1.59612e-12
-2.90709e-11
-2.00122e-12
-3.23464e-11
-2.4491e-12
-3.54805e-11
-2.93915e-12
-3.8473e-11
-3.47081e-12
-4.13238e-11
-4.04355e-12
-4.40328e-11
-4.65685e-12
-4.65998e-11
-5.31021e-12
-4.90249e-11
-6.00311e-12
-5.13078e-11
-6.73498e-12
-5.34486e-11
-7.50524e-12
-5.54471e-11
-8.31319e-12
-5.73033e-11
-9.15812e-12
-5.90172e-11
-1.00392e-11
-6.05888e-11
-1.09553e-11
-6.20179e-11
-1.19055e-11
-6.33048e-11
-1.28885e-11
-6.44493e-11
-1.39026e-11
-6.54516e-11
-1.49463e-11
-6.63116e-11
-1.60172e-11
-6.70295e-11
-1.71131e-11
-6.76053e-11
-1.82319e-11
-6.804e-11
-1.96149e-11
-6.83359e-11
-3.57621e-11
-6.8516e-11
-3.69041e-11
-6.85491e-11
-3.80241e-11
-6.85655e-11
-3.91216e-11
-6.8573e-11
-4.01957e-11
-6.85325e-11
-4.12521e-11
-6.85001e-11
-4.22973e-11
-6.84754e-11
-4.33369e-11
-6.84523e-11
-4.43749e-11
-6.84244e-11
-4.54146e-11
-6.83868e-11
-4.64584e-11
-6.83356e-11
-4.75084e-11
-6.82685e-11
-4.85658e-11
-6.8184e-11
-4.96313e-11
-6.80814e-11
-5.07051e-11
-6.79602e-11
-5.17869e-11
-6.78205e-11
-5.28763e-11
-6.76623e-11
-5.39726e-11
-6.74858e-11
-5.50748e-11
-6.72913e-11
-6.70792e-11
-5.6182e-11
-1.77709e-14
-2.18123e-12
-7.2775e-14
-6.4035e-12
-1.65774e-13
-1.04855e-11
-2.97047e-13
-1.4427e-11
-4.66835e-13
-1.82278e-11
-6.7535e-13
-2.18878e-11
-9.22785e-13
-2.54067e-11
-1.20933e-12
-2.87843e-11
-1.53518e-12
-3.20205e-11
-1.90055e-12
-3.51151e-11
-2.30567e-12
-3.80679e-11
-2.75082e-12
-4.08786e-11
-3.23632e-12
-4.35473e-11
-3.76256e-12
-4.60736e-11
-4.33e-12
-4.84574e-11
-4.93919e-12
-5.06986e-11
-5.59076e-12
-5.2797e-11
-6.28547e-12
-5.47524e-11
-7.02421e-12
-5.65646e-11
-7.80798e-12
-5.82334e-11
-8.63802e-12
-5.97587e-11
-9.51564e-12
-6.11403e-11
-1.04425e-11
-6.2378e-11
-1.14203e-11
-6.34715e-11
-1.24513e-11
-6.44206e-11
-1.35377e-11
-6.52251e-11
-1.4683e-11
-6.58843e-11
-1.58901e-11
-6.63981e-11
-1.71616e-11
-6.67685e-11
-2.0572e-11
-6.70031e-11
-3.46697e-11
-6.71318e-11
-3.60865e-11
-6.71323e-11
-3.75187e-11
-6.71333e-11
-3.89378e-11
-6.71539e-11
-4.02994e-11
-6.71709e-11
-4.16117e-11
-6.71878e-11
-4.28836e-11
-6.72035e-11
-4.41237e-11
-6.72121e-11
-4.53389e-11
-6.72093e-11
-4.65342e-11
-6.71915e-11
-4.77134e-11
-6.71564e-11
-4.88795e-11
-6.71024e-11
-5.00347e-11
-6.70289e-11
-5.11806e-11
-6.69355e-11
-5.23185e-11
-6.68223e-11
-5.34495e-11
-6.66894e-11
-5.45744e-11
-6.65374e-11
-5.56937e-11
-6.63665e-11
-5.68079e-11
-6.61772e-11
-6.59699e-11
-5.79171e-11
-1.04568e-14
-2.17077e-12
-4.37339e-14
-6.37022e-12
-1.01609e-13
-1.04276e-11
-1.85672e-13
-1.43429e-11
-2.97288e-13
-1.81162e-11
-4.37629e-13
-2.17475e-11
-6.07702e-13
-2.52366e-11
-8.08377e-13
-2.85837e-11
-1.0404e-12
-3.17885e-11
-1.30444e-12
-3.48511e-11
-1.60107e-12
-3.77712e-11
-1.93082e-12
-4.05489e-11
-2.29419e-12
-4.31839e-11
-2.69164e-12
-4.56761e-11
-3.12366e-12
-4.80254e-11
-3.59074e-12
-5.02315e-11
-4.09342e-12
-5.22943e-11
-4.63229e-12
-5.42135e-11
-5.20802e-12
-5.59888e-11
-5.8214e-12
-5.762e-11
-6.47331e-12
-5.91068e-11
-7.16483e-12
-6.04488e-11
-7.89721e-12
-6.16456e-11
-8.67195e-12
-6.26968e-11
-9.49065e-12
-6.36019e-11
-1.0355e-11
-6.43607e-11
-1.12671e-11
-6.49722e-11
-1.2232e-11
-6.54331e-11
-1.32629e-11
-6.57377e-11
-2.0318e-11
-6.58888e-11
-3.07909e-11
-6.59878e-11
-3.19572e-11
-6.5966e-11
-3.31514e-11
-6.5939e-11
-3.44479e-11
-6.58575e-11
-3.57743e-11
-6.58445e-11
-3.71101e-11
-6.5852e-11
-3.84504e-11
-6.58632e-11
-3.9792e-11
-6.58706e-11
-4.11321e-11
-6.58691e-11
-4.24687e-11
-6.58549e-11
-4.37999e-11
-6.58252e-11
-4.51243e-11
-6.57781e-11
-4.64405e-11
-6.57126e-11
-4.77477e-11
-6.56283e-11
-4.90452e-11
-6.55248e-11
-5.03324e-11
-6.54023e-11
-5.16089e-11
-6.52609e-11
-5.28743e-11
-6.51011e-11
-5.41284e-11
-6.4923e-11
-6.47272e-11
-5.53712e-11
-1.7091e-14
-2.15368e-12
-6.95383e-14
-6.31777e-12
-1.57613e-13
-1.03395e-11
-2.81177e-13
-1.42194e-11
-4.40113e-13
-1.79573e-11
-6.34323e-13
-2.15533e-11
-8.63697e-13
-2.50073e-11
-1.12812e-12
-2.83192e-11
-1.42746e-12
-3.14892e-11
-1.76154e-12
-3.4517e-11
-2.13012e-12
-3.74026e-11
-2.53297e-12
-4.01461e-11
-2.9697e-12
-4.27472e-11
-3.43994e-12
-4.52059e-11
-3.94313e-12
-4.75222e-11
-4.47868e-12
-4.9696e-11
-5.04579e-12
-5.17272e-11
-5.6436e-12
-5.36157e-11
-6.27096e-12
-5.53615e-11
-6.92663e-12
-5.69644e-11
-7.60899e-12
-5.84245e-11
-8.31629e-12
-5.97415e-11
-9.04622e-12
-6.09157e-11
-9.79636e-12
-6.19466e-11
-1.05637e-11
-6.28346e-11
-1.13454e-11
-6.3579e-11
-1.21373e-11
-6.41803e-11
-1.29305e-11
-6.464e-11
-1.37032e-11
-6.49649e-11
-3.85592e-11
-6.51643e-11
-4.11891e-11
-6.5188e-11
-4.19783e-11
-6.51769e-11
-4.27442e-11
-6.51731e-11
-4.3463e-11
-6.51387e-11
-4.42078e-11
-6.50997e-11
-4.49879e-11
-6.50719e-11
-4.5803e-11
-6.50481e-11
-4.66518e-11
-6.50218e-11
-4.75323e-11
-6.49886e-11
-4.8442e-11
-6.49452e-11
-4.93779e-11
-6.48892e-11
-5.03371e-11
-6.48189e-11
-5.13166e-11
-6.47332e-11
-5.23134e-11
-6.46314e-11
-5.33249e-11
-6.45133e-11
-5.43485e-11
-6.43787e-11
-5.53818e-11
-6.42276e-11
-5.64228e-11
-6.40601e-11
-5.74694e-11
-6.38764e-11
-6.36767e-11
-5.85199e-11
-2.99651e-14
-2.12372e-12
-1.14788e-13
-6.23295e-12
-2.51505e-13
-1.02028e-11
-4.38306e-13
-1.40326e-11
-6.73627e-13
-1.7722e-11
-9.5611e-13
-2.12708e-11
-1.28458e-12
-2.46788e-11
-1.65801e-12
-2.79458e-11
-2.07548e-12
-3.10717e-11
-2.5362e-12
-3.40563e-11
-3.03941e-12
-3.68994e-11
-3.58443e-12
-3.9601e-11
-4.17061e-12
-4.2161e-11
-4.79728e-12
-4.45792e-11
-5.46377e-12
-4.68557e-11
-6.16936e-12
-4.89904e-11
-6.9133e-12
-5.09833e-11
-7.6947e-12
-5.28343e-11
-8.51261e-12
-5.45435e-11
-9.3659e-12
-5.61111e-11
-1.02533e-11
-5.75371e-11
-1.11733e-11
-5.88215e-11
-1.21242e-11
-5.99648e-11
-1.3104e-11
-6.09669e-11
-1.41102e-11
-6.18283e-11
-1.514e-11
-6.25492e-11
-1.61901e-11
-6.31302e-11
-1.72579e-11
-6.35722e-11
-1.85808e-11
-6.38777e-11
-3.68495e-11
-6.40665e-11
-3.79335e-11
-6.4104e-11
-3.89838e-11
-6.41266e-11
-4.00329e-11
-6.4124e-11
-4.10861e-11
-6.40855e-11
-4.21172e-11
-6.40686e-11
-4.31326e-11
-6.40565e-11
-4.4139e-11
-6.40417e-11
-4.51417e-11
-6.40191e-11
-4.61449e-11
-6.39855e-11
-4.71514e-11
-6.39387e-11
-4.81631e-11
-6.38775e-11
-4.91812e-11
-6.38008e-11
-5.02061e-11
-6.37082e-11
-5.1238e-11
-6.35995e-11
-5.22765e-11
-6.34748e-11
-5.3321e-11
-6.33341e-11
-5.43709e-11
-6.31777e-11
-5.54252e-11
-6.30058e-11
-5.6483e-11
-6.28186e-11
-6.26163e-11
-5.75434e-11
-1.93678e-14
-2.10435e-12
-7.88618e-14
-6.17345e-12
-1.78952e-13
-1.01027e-11
-3.19638e-13
-1.38919e-11
-5.00908e-13
-1.75407e-11
-7.2274e-13
-2.10489e-11
-9.85125e-13
-2.44164e-11
-1.28806e-12
-2.76429e-11
-1.63159e-12
-3.07282e-11
-2.01576e-12
-3.36721e-11
-2.44069e-12
-3.64745e-11
-2.90653e-12
-3.91352e-11
-3.41351e-12
-4.1654e-11
-3.96194e-12
-4.40308e-11
-4.5522e-12
-4.62655e-11
-5.18479e-12
-4.83578e-11
-5.86034e-12
-5.03077e-11
-6.57961e-12
-5.2115e-11
-7.34355e-12
-5.37796e-11
-8.15327e-12
-5.53014e-11
-9.01019e-12
-5.66801e-11
-9.9159e-12
-5.79158e-11
-1.08724e-11
-5.90082e-11
-1.1882e-11
-5.99573e-11
-1.29476e-11
-6.07628e-11
-1.40726e-11
-6.14242e-11
-1.52612e-11
-6.19416e-11
-1.65163e-11
-6.23171e-11
-1.97798e-11
-6.25576e-11
-3.57752e-11
-6.26925e-11
-3.71831e-11
-6.26961e-11
-3.8608e-11
-6.27017e-11
-3.99921e-11
-6.27399e-11
-4.13046e-11
-6.2773e-11
-4.25702e-11
-6.2803e-11
-4.37984e-11
-6.28283e-11
-4.49959e-11
-6.28442e-11
-4.61675e-11
-6.28475e-11
-4.7317e-11
-6.2836e-11
-4.84476e-11
-6.28081e-11
-4.95622e-11
-6.2763e-11
-5.0663e-11
-6.27e-11
-5.17519e-11
-6.26193e-11
-5.28306e-11
-6.25208e-11
-5.39004e-11
-6.2405e-11
-5.49624e-11
-6.22722e-11
-5.60174e-11
-6.21227e-11
-5.70661e-11
-6.19571e-11
-5.81089e-11
-6.17757e-11
-6.15789e-11
-5.91463e-11
-8.60759e-15
-2.09574e-12
-3.7009e-14
-6.14505e-12
-8.74704e-14
-1.00523e-11
-1.61955e-13
-1.38174e-11
-2.62152e-13
-1.74405e-11
-3.89515e-13
-2.09216e-11
-5.45303e-13
-2.42606e-11
-7.30609e-13
-2.74576e-11
-9.4639e-13
-3.05124e-11
-1.1935e-12
-3.3425e-11
-1.47271e-12
-3.61953e-11
-1.78473e-12
-3.88232e-11
-2.13026e-12
-4.13085e-11
-2.50997e-12
-4.36511e-11
-2.92457e-12
-4.58509e-11
-3.3748e-12
-4.79076e-11
-3.8615e-12
-4.9821e-11
-4.38558e-12
-5.15909e-11
-4.94809e-12
-5.32171e-11
-5.55025e-12
-5.46992e-11
-6.19349e-12
-5.60369e-11
-6.87946e-12
-5.72298e-11
-7.61011e-12
-5.82776e-11
-8.38761e-12
-5.91798e-11
-9.21429e-12
-5.99361e-11
-1.00929e-11
-6.05455e-11
-1.10294e-11
-6.10052e-11
-1.20365e-11
-6.131e-11
-1.86342e-11
-6.14636e-11
-3.09961e-11
-6.15612e-11
-3.21548e-11
-6.15375e-11
-3.33453e-11
-6.15111e-11
-3.46442e-11
-6.1441e-11
-3.59682e-11
-6.1449e-11
-3.73007e-11
-6.14705e-11
-3.86367e-11
-6.14923e-11
-3.99724e-11
-6.15085e-11
-4.13044e-11
-6.15154e-11
-4.26301e-11
-6.15103e-11
-4.39473e-11
-6.14909e-11
-4.52545e-11
-6.14558e-11
-4.65505e-11
-6.1404e-11
-4.78344e-11
-6.13354e-11
-4.91056e-11
-6.12496e-11
-5.03638e-11
-6.11469e-11
-5.16086e-11
-6.10274e-11
-5.28398e-11
-6.08914e-11
-5.40576e-11
-6.07393e-11
-5.52619e-11
-6.05714e-11
-6.03881e-11
-5.64528e-11
-1.58399e-14
-2.0799e-12
-6.50021e-14
-6.09589e-12
-1.48046e-13
-9.96921e-12
-2.65014e-13
-1.37004e-11
-4.15958e-13
-1.72896e-11
-6.00907e-13
-2.07366e-11
-8.19884e-13
-2.40416e-11
-1.07287e-12
-2.72046e-11
-1.35982e-12
-3.02254e-11
-1.68062e-12
-3.31042e-11
-2.03516e-12
-3.58408e-11
-2.42319e-12
-3.84351e-11
-2.84446e-12
-4.08872e-11
-3.29858e-12
-4.3197e-11
-3.78512e-12
-4.53643e-11
-4.30347e-12
-4.73892e-11
-4.85298e-12
-4.92715e-11
-5.43275e-12
-5.10112e-11
-6.04183e-12
-5.2608e-11
-6.6789e-12
-5.40621e-11
-7.34262e-12
-5.53732e-11
-8.0311e-12
-5.65413e-11
-8.74244e-12
-5.75662e-11
-9.47416e-12
-5.84481e-11
-1.02241e-11
-5.91861e-11
-1.09888e-11
-5.97808e-11
-1.17608e-11
-6.02331e-11
-1.25223e-11
-6.05485e-11
-3.60118e-11
-6.07364e-11
-4.04233e-11
-6.07617e-11
-4.12167e-11
-6.0744e-11
-4.1987e-11
-6.07408e-11
-4.27166e-11
-6.07114e-11
-4.34793e-11
-6.06863e-11
-4.4277e-11
-6.06727e-11
-4.51077e-11
-6.06616e-11
-4.59691e-11
-6.06471e-11
-4.68588e-11
-6.06258e-11
-4.7774e-11
-6.05951e-11
-4.87118e-11
-6.05531e-11
-4.96692e-11
-6.04983e-11
-5.06435e-11
-6.04298e-11
-5.16319e-11
-6.0347e-11
-5.26318e-11
-6.02497e-11
-5.36408e-11
-6.01379e-11
-5.46567e-11
-6.00114e-11
-5.56777e-11
-5.98705e-11
-5.67018e-11
-5.97152e-11
-5.77274e-11
-5.95457e-11
-5.93623e-11
-5.87532e-11
-3.19114e-14
-2.04799e-12
-1.21735e-13
-6.00607e-12
-2.65952e-13
-9.82499e-12
-4.62362e-13
-1.3504e-11
-7.0905e-13
-1.70429e-11
-1.00435e-12
-2.04413e-11
-1.34681e-12
-2.36992e-11
-1.73513e-12
-2.68163e-11
-2.16818e-12
-2.97924e-11
-2.64492e-12
-3.26275e-11
-3.16437e-12
-3.53213e-11
-3.72565e-12
-3.78739e-11
-4.32785e-12
-4.0285e-11
-4.97008e-12
-4.25548e-11
-5.65142e-12
-4.4683e-11
-6.37088e-12
-4.66698e-11
-7.12735e-12
-4.8515e-11
-7.91966e-12
-5.02188e-11
-8.74641e-12
-5.17813e-11
-9.60607e-12
-5.32025e-11
-1.04968e-11
-5.44825e-11
-1.14166e-11
-5.56216e-11
-1.23629e-11
-5.66199e-11
-1.33331e-11
-5.74779e-11
-1.43236e-11
-5.81956e-11
-1.53307e-11
-5.87737e-11
-1.63507e-11
-5.92132e-11
-1.76311e-11
-5.95171e-11
-3.80697e-11
-5.97066e-11
-3.9093e-11
-5.97384e-11
-4.00784e-11
-5.97587e-11
-4.10653e-11
-5.97539e-11
-4.20411e-11
-5.97356e-11
-4.29956e-11
-5.97319e-11
-4.39374e-11
-5.97309e-11
-4.48725e-11
-5.97265e-11
-4.58055e-11
-5.97141e-11
-4.674e-11
-5.96913e-11
-4.76786e-11
-5.96565e-11
-4.8623e-11
-5.96087e-11
-4.95742e-11
-5.9547e-11
-5.05327e-11
-5.94713e-11
-5.14983e-11
-5.93814e-11
-5.24708e-11
-5.92773e-11
-5.34495e-11
-5.91592e-11
-5.44337e-11
-5.90272e-11
-5.54226e-11
-5.88817e-11
-5.64151e-11
-5.87227e-11
-5.74103e-11
-5.85505e-11
-5.83653e-11
-5.84072e-11
-2.00744e-14
-2.02792e-12
-8.13541e-14
-5.94479e-12
-1.84082e-13
-9.72227e-12
-3.28098e-13
-1.336e-11
-5.13249e-13
-1.68577e-11
-7.39397e-13
-2.02152e-11
-1.00642e-12
-2.34322e-11
-1.31425e-12
-2.65084e-11
-1.66281e-12
-2.94438e-11
-2.05211e-12
-3.22382e-11
-2.4822e-12
-3.48912e-11
-2.95316e-12
-3.74029e-11
-3.46518e-12
-3.9773e-11
-4.0185e-12
-4.20014e-11
-4.61344e-12
-4.40881e-11
-5.25047e-12
-4.60327e-11
-5.93013e-12
-4.78354e-11
-6.65312e-12
-4.94959e-11
-7.42029e-12
-5.10141e-11
-8.23272e-12
-5.239e-11
-9.09163e-12
-5.36236e-11
-9.99858e-12
-5.47146e-11
-1.09553e-11
-5.56631e-11
-1.19642e-11
-5.6469e-11
-1.30279e-11
-5.71319e-11
-1.41497e-11
-5.76519e-11
-1.53317e-11
-5.80313e-11
-1.8466e-11
-5.82762e-11
-3.63545e-11
-5.84156e-11
-3.76705e-11
-5.84223e-11
-3.89969e-11
-5.84323e-11
-4.02855e-11
-5.84653e-11
-4.15178e-11
-5.85033e-11
-4.27095e-11
-5.85401e-11
-4.38687e-11
-5.85718e-11
-4.50008e-11
-5.85944e-11
-4.61094e-11
-5.86054e-11
-4.71976e-11
-5.8603e-11
-4.82682e-11
-5.85859e-11
-4.93237e-11
-5.85533e-11
-5.0366e-11
-5.85048e-11
-5.13969e-11
-5.84404e-11
-5.2418e-11
-5.83603e-11
-5.34304e-11
-5.82648e-11
-5.44352e-11
-5.81543e-11
-5.54333e-11
-5.80292e-11
-5.64252e-11
-5.78898e-11
-5.74114e-11
-5.77365e-11
-5.83923e-11
-5.75696e-11
-5.73895e-11
-5.93681e-11
-6.23883e-15
-2.02168e-12
-2.83713e-14
-5.92266e-12
-6.9216e-14
-9.68142e-12
-1.3113e-13
-1.32981e-11
-2.16157e-13
-1.67727e-11
-3.26075e-13
-2.01053e-11
-4.6244e-13
-2.32958e-11
-6.26625e-13
-2.63443e-11
-8.19854e-13
-2.92506e-11
-1.04324e-12
-3.20148e-11
-1.2978e-12
-3.46367e-11
-1.58453e-12
-3.71162e-11
-1.90438e-12
-3.94532e-11
-2.25833e-12
-4.16475e-11
-2.64738e-12
-4.3699e-11
-3.07264e-12
-4.56075e-11
-3.53531e-12
-4.73727e-11
-4.03673e-12
-4.89944e-11
-4.57844e-12
-5.04724e-11
-5.16219e-12
-5.18063e-11
-5.79003e-12
-5.29957e-11
-6.46433e-12
-5.40403e-11
-7.18773e-12
-5.49397e-11
-7.96313e-12
-5.56936e-11
-8.79399e-12
-5.6301e-11
-9.68655e-12
-5.67594e-11
-1.0653e-11
-5.70648e-11
-1.68194e-11
-5.72219e-11
-3.12049e-11
-5.73164e-11
-3.23365e-11
-5.72907e-11
-3.35005e-11
-5.72683e-11
-3.47604e-11
-5.72054e-11
-3.6043e-11
-5.72208e-11
-3.73342e-11
-5.72489e-11
-3.86283e-11
-5.72777e-11
-3.99213e-11
-5.73013e-11
-4.12099e-11
-5.73168e-11
-4.24912e-11
-5.73217e-11
-4.37632e-11
-5.7314e-11
-4.50242e-11
-5.72923e-11
-4.62731e-11
-5.72559e-11
-4.7509e-11
-5.72045e-11
-4.87313e-11
-5.71379e-11
-4.99398e-11
-5.70564e-11
-5.11341e-11
-5.696e-11
-5.23142e-11
-5.68491e-11
-5.34801e-11
-5.67239e-11
-5.46319e-11
-5.65847e-11
-5.57697e-11
-5.64318e-11
-5.62656e-11
-5.68936e-11
-1.43389e-14
-2.00734e-12
-5.92157e-14
-5.87778e-12
-1.35413e-13
-9.60523e-12
-2.43191e-13
-1.31903e-11
-3.8278e-13
-1.66331e-11
-5.5438e-13
-1.99337e-11
-7.5814e-13
-2.3092e-11
-9.94182e-13
-2.61082e-11
-1.26256e-12
-2.89822e-11
-1.56328e-12
-3.1714e-11
-1.8963e-12
-3.43036e-11
-2.2615e-12
-3.6751e-11
-2.65868e-12
-3.9056e-11
-3.0876e-12
-4.12186e-11
-3.54787e-12
-4.32387e-11
-4.03907e-12
-4.51163e-11
-4.56058e-12
-4.68512e-11
-5.11175e-12
-4.84433e-11
-5.69165e-12
-4.98925e-11
-6.29934e-12
-5.11986e-11
-6.93343e-12
-5.23616e-11
-7.5926e-12
-5.33812e-11
-8.27501e-12
-5.42573e-11
-8.97915e-12
-5.49895e-11
-9.70239e-12
-5.55778e-11
-1.04395e-11
-5.60223e-11
-1.11774e-11
-5.63269e-11
-3.26805e-11
-5.65008e-11
-3.91902e-11
-5.65307e-11
-3.99744e-11
-5.65064e-11
-4.0741e-11
-5.65017e-11
-4.14757e-11
-5.64707e-11
-4.22418e-11
-5.64547e-11
-4.30392e-11
-5.64515e-11
-4.38659e-11
-5.6451e-11
-4.47198e-11
-5.64475e-11
-4.55986e-11
-5.6438e-11
-4.64999e-11
-5.64204e-11
-4.74211e-11
-5.63928e-11
-4.83594e-11
-5.6354e-11
-4.93122e-11
-5.63031e-11
-5.02769e-11
-5.62397e-11
-5.12513e-11
-5.61636e-11
-5.22329e-11
-5.60747e-11
-5.32198e-11
-5.59731e-11
-5.42102e-11
-5.58587e-11
-5.52023e-11
-5.57318e-11
-5.61946e-11
-5.55924e-11
-5.71858e-11
-5.54406e-11
-5.52766e-11
-5.81748e-11
-3.29809e-14
-1.97436e-12
-1.25618e-13
-5.78514e-12
-2.73974e-13
-9.45687e-12
-4.75433e-13
-1.29888e-11
-7.27709e-13
-1.63808e-11
-1.02878e-12
-1.96326e-11
-1.37687e-12
-2.27439e-11
-1.77038e-12
-2.57147e-11
-2.20787e-12
-2.85447e-11
-2.68798e-12
-3.12339e-11
-3.20949e-12
-3.37821e-11
-3.77114e-12
-3.61893e-11
-4.37176e-12
-3.84554e-11
-5.01008e-12
-4.05803e-11
-5.68483e-12
-4.2564e-11
-6.39458e-12
-4.44065e-11
-7.13784e-12
-4.61079e-11
-7.91287e-12
-4.76682e-11
-8.71778e-12
-4.90876e-11
-9.55035e-12
-5.0366e-11
-1.04081e-11
-5.15038e-11
-1.12883e-11
-5.2501e-11
-1.21875e-11
-5.33581e-11
-1.3102e-11
-5.4075e-11
-1.40273e-11
-5.46524e-11
-1.49583e-11
-5.50914e-11
-1.61591e-11
-5.53952e-11
-3.90572e-11
-5.55844e-11
-3.99776e-11
-5.56102e-11
-4.08564e-11
-5.56276e-11
-4.1743e-11
-5.56151e-11
-4.26064e-11
-5.56073e-11
-4.34528e-11
-5.56083e-11
-4.42917e-11
-5.56125e-11
-4.51285e-11
-5.56142e-11
-4.59668e-11
-5.56092e-11
-4.68094e-11
-5.55954e-11
-4.76587e-11
-5.55711e-11
-4.8516e-11
-5.55356e-11
-4.93819e-11
-5.5488e-11
-5.02567e-11
-5.54283e-11
-5.11401e-11
-5.53563e-11
-5.20317e-11
-5.52721e-11
-5.29306e-11
-5.51758e-11
-5.38361e-11
-5.50676e-11
-5.47472e-11
-5.49477e-11
-5.56628e-11
-5.48161e-11
-5.6582e-11
-5.46732e-11
-5.75038e-11
-5.45188e-11
-5.43533e-11
-5.84271e-11
-2.13459e-14
-1.95301e-12
-8.53503e-14
-5.72114e-12
-1.91614e-13
-9.3506e-12
-3.39581e-13
-1.28409e-11
-5.28753e-13
-1.61917e-11
-7.5869e-13
-1.94027e-11
-1.02901e-12
-2.24736e-11
-1.33937e-12
-2.54043e-11
-1.6895e-12
-2.81946e-11
-2.07916e-12
-3.08443e-11
-2.50819e-12
-3.33531e-11
-2.97643e-12
-3.57211e-11
-3.48384e-12
-3.7948e-11
-4.03036e-12
-4.00337e-11
-4.61605e-12
-4.19783e-11
-5.24096e-12
-4.37816e-11
-5.90528e-12
-4.54436e-11
-6.60919e-12
-4.69643e-11
-7.35304e-12
-4.83437e-11
-8.13716e-12
-4.95819e-11
-8.96212e-12
-5.06789e-11
-9.82845e-12
-5.16347e-11
-1.0737e-11
-5.24495e-11
-1.16888e-11
-5.31233e-11
-1.2685e-11
-5.36562e-11
-1.37263e-11
-5.405e-11
-1.63952e-11
-5.43085e-11
-3.65792e-11
-5.44617e-11
-3.77109e-11
-5.44786e-11
-3.88399e-11
-5.44987e-11
-3.99579e-11
-5.44971e-11
-4.10437e-11
-5.45214e-11
-4.21024e-11
-5.45497e-11
-4.31391e-11
-5.45758e-11
-4.41577e-11
-5.45956e-11
-4.51603e-11
-5.46066e-11
-4.61489e-11
-5.46068e-11
-4.71252e-11
-5.45948e-11
-4.80911e-11
-5.45697e-11
-4.90479e-11
-5.45312e-11
-4.99971e-11
-5.44791e-11
-5.09398e-11
-5.44136e-11
-5.18769e-11
-5.4335e-11
-5.2809e-11
-5.42436e-11
-5.37369e-11
-5.41397e-11
-5.4661e-11
-5.40236e-11
-5.55814e-11
-5.38957e-11
-5.64983e-11
-5.37562e-11
-5.74119e-11
-5.36053e-11
-5.34432e-11
-5.8322e-11
-3.24673e-15
-1.94977e-12
-1.73053e-14
-5.70708e-12
-4.5566e-14
-9.32234e-12
-9.07894e-14
-1.27957e-11
-1.5541e-13
-1.6127e-11
-2.41588e-13
-1.93165e-11
-3.5126e-13
-2.2364e-11
-4.86178e-13
-2.52694e-11
-6.47954e-13
-2.80328e-11
-8.38093e-13
-3.06541e-11
-1.05804e-12
-3.31332e-11
-1.30921e-12
-3.54699e-11
-1.59302e-12
-3.76641e-11
-1.91095e-12
-3.97158e-11
-2.26454e-12
-4.16247e-11
-2.65547e-12
-4.33907e-11
-3.08558e-12
-4.50135e-11
-3.55692e-12
-4.6493e-11
-4.07178e-12
-4.78289e-11
-4.63277e-12
-4.90209e-11
-5.24287e-12
-5.00688e-11
-5.90539e-12
-5.09722e-11
-6.62415e-12
-5.17307e-11
-7.40361e-12
-5.23438e-11
-8.2497e-12
-5.28101e-11
-9.17004e-12
-5.31297e-11
-1.4222e-11
-5.33085e-11
-3.1505e-11
-5.33998e-11
-3.26065e-11
-5.33771e-11
-3.3736e-11
-5.33692e-11
-3.49248e-11
-5.33084e-11
-3.61276e-11
-5.33185e-11
-3.73346e-11
-5.33427e-11
-3.85411e-11
-5.33693e-11
-3.97441e-11
-5.33926e-11
-4.09409e-11
-5.34098e-11
-4.21292e-11
-5.34184e-11
-4.33076e-11
-5.34165e-11
-4.44747e-11
-5.34026e-11
-4.56298e-11
-5.3376e-11
-4.67724e-11
-5.33365e-11
-4.79022e-11
-5.32838e-11
-4.9019e-11
-5.32182e-11
-5.01228e-11
-5.31398e-11
-5.12135e-11
-5.30489e-11
-5.22914e-11
-5.29458e-11
-5.33565e-11
-5.28306e-11
-5.44089e-11
-5.27038e-11
-5.54488e-11
-5.25654e-11
-5.24157e-11
-5.64764e-11
-8.84649e-15
-1.94092e-12
-3.81659e-14
-5.67776e-12
-8.97026e-14
-9.27081e-12
-1.64634e-13
-1.27207e-11
-2.64017e-13
-1.60277e-11
-3.88786e-13
-1.91917e-11
-5.39788e-13
-2.2213e-11
-7.17766e-13
-2.50915e-11
-9.23402e-13
-2.78272e-11
-1.15729e-12
-3.04202e-11
-1.42e-12
-3.28705e-11
-1.71201e-12
-3.51779e-11
-2.03381e-12
-3.73423e-11
-2.38582e-12
-3.93638e-11
-2.76847e-12
-4.1242e-11
-3.18214e-12
-4.2977e-11
-3.62726e-12
-4.45684e-11
-4.10418e-12
-4.60161e-11
-4.61334e-12
-4.73197e-11
-5.15511e-12
-4.84791e-11
-5.72997e-12
-4.94939e-11
-6.33824e-12
-5.03639e-11
-6.98042e-12
-5.10886e-11
-7.65677e-12
-5.16674e-11
-8.3685e-12
-5.20984e-11
-9.11789e-12
-5.23803e-11
-2.29258e-11
-5.25203e-11
-3.40628e-11
-5.25709e-11
-3.49065e-11
-5.25334e-11
-3.57671e-11
-5.25085e-11
-3.66202e-11
-5.24553e-11
-3.75052e-11
-5.24335e-11
-3.84187e-11
-5.24292e-11
-3.93571e-11
-5.2431e-11
-4.03169e-11
-5.24327e-11
-4.12954e-11
-5.24313e-11
-4.22895e-11
-5.24243e-11
-4.32963e-11
-5.24097e-11
-4.43129e-11
-5.2386e-11
-4.53365e-11
-5.23524e-11
-4.63647e-11
-5.23083e-11
-4.73952e-11
-5.22533e-11
-4.84262e-11
-5.21873e-11
-4.94558e-11
-5.21102e-11
-5.04827e-11
-5.20221e-11
-5.15054e-11
-5.1923e-11
-5.25231e-11
-5.1813e-11
-5.35346e-11
-5.16922e-11
-5.45392e-11
-5.15607e-11
-5.14186e-11
-5.55363e-11
-2.98776e-14
-1.91104e-12
-1.14287e-13
-5.59335e-12
-2.49609e-13
-9.13549e-12
-4.3317e-13
-1.25372e-11
-6.62587e-13
-1.57982e-11
-9.35728e-13
-1.89186e-11
-1.25065e-12
-2.1898e-11
-1.6056e-12
-2.47365e-11
-1.99889e-12
-2.74339e-11
-2.42896e-12
-2.99902e-11
-2.89426e-12
-3.24052e-11
-3.39329e-12
-3.46788e-11
-3.92448e-12
-3.68112e-11
-4.48621e-12
-3.88021e-11
-5.07674e-12
-4.06515e-11
-5.69423e-12
-4.23595e-11
-6.3366e-12
-4.3926e-11
-7.00159e-12
-4.53511e-11
-7.68662e-12
-4.66347e-11
-8.38883e-12
-4.77769e-11
-9.10491e-12
-4.87778e-11
-9.83131e-12
-4.96375e-11
-1.0564e-11
-5.03558e-11
-1.12983e-11
-5.09332e-11
-1.20257e-11
-5.1371e-11
-1.30269e-11
-5.16738e-11
-3.96205e-11
-5.18577e-11
-4.03224e-11
-5.18691e-11
-4.09833e-11
-5.18724e-11
-4.16628e-11
-5.18291e-11
-4.23229e-11
-5.17952e-11
-4.29849e-11
-5.17715e-11
-4.36575e-11
-5.17566e-11
-4.43435e-11
-5.1745e-11
-4.5044e-11
-5.17322e-11
-4.57598e-11
-5.17155e-11
-4.64911e-11
-5.1693e-11
-4.72374e-11
-5.16633e-11
-4.79981e-11
-5.16253e-11
-4.87721e-11
-5.15784e-11
-4.95584e-11
-5.15221e-11
-5.03556e-11
-5.14561e-11
-5.11625e-11
-5.13803e-11
-5.1978e-11
-5.12947e-11
-5.28008e-11
-5.11993e-11
-5.36297e-11
-5.10941e-11
-5.44636e-11
-5.09791e-11
-5.53015e-11
-5.08544e-11
-5.61422e-11
-5.072e-11
-5.0576e-11
-5.69848e-11
-2.62601e-14
-1.01801e-13
-2.24274e-13
-3.91857e-13
-6.02901e-13
-8.55916e-13
-1.14954e-12
-1.48252e-12
-1.85371e-12
-2.26202e-12
-2.70644e-12
-3.18598e-12
-3.69966e-12
-4.24656e-12
-4.82568e-12
-5.43605e-12
-6.07659e-12
-6.74625e-12
-7.4438e-12
-8.16803e-12
-8.9175e-12
-9.69074e-12
-1.04859e-11
-1.13011e-11
-1.21352e-11
-1.37368e-11
-3.72291e-11
-3.80804e-11
-3.89105e-11
-3.97663e-11
-4.06115e-11
-4.14447e-11
-4.22699e-11
-4.309e-11
-4.39065e-11
-4.47207e-11
-4.55335e-11
-4.63459e-11
-4.71587e-11
-4.79726e-11
-4.87879e-11
-4.9605e-11
-5.04239e-11
-5.12447e-11
-5.2067e-11
-5.28907e-11
-5.37154e-11
-5.45408e-11
-5.53663e-11
-5.61914e-11
-5.54094e-11
-6.91765e-11
-5.66849e-11
-6.89285e-11
-5.79509e-11
-6.86615e-11
-5.92069e-11
-6.83759e-11
-6.04526e-11
-6.80721e-11
-6.16876e-11
-6.77505e-11
-6.29117e-11
-6.74115e-11
-6.41244e-11
-6.70557e-11
-6.53256e-11
-6.66834e-11
-6.65149e-11
-6.62952e-11
-6.76919e-11
-6.58914e-11
-6.88563e-11
-6.54727e-11
-7.00079e-11
-6.50394e-11
-7.11462e-11
-6.45921e-11
-7.22709e-11
-6.41313e-11
-7.33818e-11
-6.36576e-11
-7.44784e-11
-6.31715e-11
-7.55606e-11
-6.26735e-11
-7.66279e-11
-6.21642e-11
-7.768e-11
-6.16441e-11
-7.87168e-11
-6.11139e-11
-7.97378e-11
-6.05741e-11
-8.07428e-11
-6.00252e-11
-8.17315e-11
-5.94679e-11
-8.27038e-11
-5.89028e-11
-8.36594e-11
-5.83303e-11
-8.4598e-11
-5.77512e-11
-8.55195e-11
-5.7166e-11
-8.64237e-11
-5.65752e-11
-8.73105e-11
-5.59794e-11
-8.81796e-11
-5.53792e-11
-8.9031e-11
-5.47752e-11
-8.98646e-11
-5.41679e-11
-9.06802e-11
-5.35578e-11
-9.14779e-11
-5.29456e-11
-9.22575e-11
-5.23316e-11
-9.3019e-11
-5.17165e-11
-9.37624e-11
-5.11008e-11
-9.44877e-11
-5.04849e-11
-9.51949e-11
-4.98693e-11
-9.5884e-11
-4.92546e-11
-9.65551e-11
-4.86412e-11
-9.72082e-11
-4.80297e-11
-9.78434e-11
-4.74205e-11
-9.84608e-11
-4.68144e-11
-9.90605e-11
-4.62117e-11
-9.96426e-11
-4.56133e-11
-1.00207e-10
-4.50199e-11
-1.00754e-10
-4.44323e-11
-4.38517e-11
-1.01283e-10
-5.70109e-11
-6.79607e-11
-5.82226e-11
-6.77168e-11
-5.9429e-11
-6.74551e-11
-6.06292e-11
-6.71757e-11
-6.18222e-11
-6.68791e-11
-6.30072e-11
-6.65655e-11
-6.41834e-11
-6.62353e-11
-6.53502e-11
-6.5889e-11
-6.65068e-11
-6.55268e-11
-6.76528e-11
-6.51492e-11
-6.87875e-11
-6.47567e-11
-6.99105e-11
-6.43497e-11
-7.10213e-11
-6.39286e-11
-7.21195e-11
-6.34939e-11
-7.32047e-11
-6.30462e-11
-7.42764e-11
-6.25859e-11
-7.53344e-11
-6.21135e-11
-7.63783e-11
-6.16296e-11
-7.74077e-11
-6.11347e-11
-7.84224e-11
-6.06294e-11
-7.9422e-11
-6.01142e-11
-8.04064e-11
-5.95897e-11
-8.13752e-11
-5.90564e-11
-8.23283e-11
-5.85149e-11
-8.32654e-11
-5.79657e-11
-8.41862e-11
-5.74095e-11
-8.50907e-11
-5.68467e-11
-8.59786e-11
-5.6278e-11
-8.68498e-11
-5.5704e-11
-8.77042e-11
-5.5125e-11
-8.85416e-11
-5.45418e-11
-8.93619e-11
-5.39549e-11
-9.0165e-11
-5.33648e-11
-9.09509e-11
-5.27719e-11
-9.17194e-11
-5.2177e-11
-9.24707e-11
-5.15804e-11
-9.32045e-11
-5.09827e-11
-9.39209e-11
-5.03843e-11
-9.462e-11
-4.97858e-11
-9.53017e-11
-4.91876e-11
-9.5966e-11
-4.85902e-11
-9.6613e-11
-4.79942e-11
-9.72428e-11
-4.73999e-11
-9.78555e-11
-4.68079e-11
-9.8451e-11
-4.62188e-11
-9.90296e-11
-4.56331e-11
-9.95913e-11
-4.50516e-11
-1.00136e-10
-4.4475e-11
-1.00665e-10
-4.3904e-11
-4.33392e-11
-1.01177e-10
-5.72931e-11
-6.68496e-11
-5.8407e-11
-6.66029e-11
-5.95226e-11
-6.63394e-11
-6.06389e-11
-6.60594e-11
-6.17547e-11
-6.57633e-11
-6.2869e-11
-6.54512e-11
-6.39806e-11
-6.51236e-11
-6.50887e-11
-6.47809e-11
-6.61923e-11
-6.44232e-11
-6.72904e-11
-6.40511e-11
-6.83821e-11
-6.3665e-11
-6.94667e-11
-6.32651e-11
-7.05433e-11
-6.2852e-11
-7.16111e-11
-6.24261e-11
-7.26695e-11
-6.19878e-11
-7.37178e-11
-6.15376e-11
-7.47554e-11
-6.1076e-11
-7.57815e-11
-6.06034e-11
-7.67958e-11
-6.01205e-11
-7.77976e-11
-5.96276e-11
-7.87865e-11
-5.91254e-11
-7.97619e-11
-5.86142e-11
-8.07236e-11
-5.80947e-11
-8.1671e-11
-5.75675e-11
-8.26038e-11
-5.70329e-11
-8.35217e-11
-5.64916e-11
-8.44244e-11
-5.59441e-11
-8.53115e-11
-5.53909e-11
-8.61829e-11
-5.48326e-11
-8.70383e-11
-5.42696e-11
-8.78775e-11
-5.37026e-11
-8.87003e-11
-5.31321e-11
-8.95066e-11
-5.25585e-11
-9.02962e-11
-5.19824e-11
-9.10689e-11
-5.14042e-11
-9.18249e-11
-5.08245e-11
-9.25638e-11
-5.02437e-11
-9.32858e-11
-4.96624e-11
-9.39907e-11
-4.90809e-11
-9.46786e-11
-4.84997e-11
-9.53494e-11
-4.79194e-11
-9.60032e-11
-4.73403e-11
-9.66401e-11
-4.6763e-11
-9.726e-11
-4.6188e-11
-9.7863e-11
-4.56157e-11
-9.84493e-11
-4.50469e-11
-9.90189e-11
-4.4482e-11
-9.95719e-11
-4.3922e-11
-1.00108e-10
-4.33675e-11
-4.282e-11
-1.00627e-10
-5.90216e-11
-6.57451e-11
-6.01212e-11
-6.55032e-11
-6.1216e-11
-6.52446e-11
-6.23057e-11
-6.49697e-11
-6.33901e-11
-6.46789e-11
-6.44689e-11
-6.43725e-11