/*--------------------------------*- C++ -*----------------------------------*\
| =========                 |                                                 |
| \\      /  F ield         | OpenFOAM: The Open Source CFD Toolbox           |
|  \\    /   O peration     | Version:  2.4.0                                 |
|   \\  /    A nd           | Web:      www.OpenFOAM.org                      |
|    \\/     M anipulation  |                                                 |
\*---------------------------------------------------------------------------*/
FoamFile
{
    version     2.0;
    format      ascii;
    class       volVectorField;
    location    "1";
    object      U;
}
// * * * * * * * * * * * * * * * * * * * * * * * * * * * * * * * * * * * * * //

dimensions      [0 1 -1 0 0 0 0];

internalField   nonuniform List<vector> 
8000
(
(-1.67033e-08 -0.000225367 0)
(-2.05104e-07 -0.000661932 0)
(-6.15834e-07 -0.00108432 0)
(-1.25852e-06 -0.00149254 0)
(-2.13749e-06 -0.00188656 0)
(-3.25908e-06 -0.00226637 0)
(-4.62834e-06 -0.00263198 0)
(-6.25162e-06 -0.00298336 0)
(-8.13171e-06 -0.0033205 0)
(-1.02738e-05 -0.00364339 0)
(-1.26785e-05 -0.00395201 0)
(-1.53508e-05 -0.00424634 0)
(-1.82896e-05 -0.00452638 0)
(-2.14999e-05 -0.00479209 0)
(-2.49794e-05 -0.00504346 0)
(-2.87341e-05 -0.00528047 0)
(-3.27603e-05 -0.0055031 0)
(-3.70654e-05 -0.00571132 0)
(-4.16452e-05 -0.00590512 0)
(-4.6509e-05 -0.00608447 0)
(-5.16518e-05 -0.00624935 0)
(-5.7085e-05 -0.00639974 0)
(-6.28044e-05 -0.0065356 0)
(-6.88353e-05 -0.00665694 0)
(-7.51959e-05 -0.00676369 0)
(-8.18922e-05 -0.00685589 0)
(-8.86868e-05 -0.00693343 0)
(-9.50499e-05 -0.00699634 0)
(-0.000101363 -0.00704443 0)
(-0.000113705 -0.00707783 0)
(-0.000145439 -0.00709716 0)
(-0.000190502 -0.00710722 0)
(-0.000234869 -0.0071061 0)
(-0.000284577 -0.00710524 0)
(-0.000322749 -0.00710679 0)
(-0.000287201 -0.00711127 0)
(-0.000287918 -0.0071158 0)
(-0.00029914 -0.00711902 0)
(-0.000311204 -0.00712047 0)
(-0.000322191 -0.00712009 0)
(-0.00033279 -0.00711786 0)
(-0.000343397 -0.00711373 0)
(-0.000354055 -0.00710758 0)
(-0.000364718 -0.00709935 0)
(-0.000375356 -0.00708896 0)
(-0.000385956 -0.00707639 0)
(-0.000396511 -0.00706165 0)
(-0.000407014 -0.00704474 0)
(-0.000417459 -0.00702571 0)
(-0.00042784 -0.00700459 0)
(-2.91695e-08 -0.000224047 0)
(-3.31136e-07 -0.000657853 0)
(-9.60191e-07 -0.00107739 0)
(-1.91198e-06 -0.00148265 0)
(-3.1781e-06 -0.00187366 0)
(-4.7491e-06 -0.00225042 0)
(-6.62467e-06 -0.00261292 0)
(-8.79691e-06 -0.00296117 0)
(-1.12679e-05 -0.00329517 0)
(-1.40272e-05 -0.0036149 0)
(-1.70791e-05 -0.00392037 0)
(-2.04098e-05 -0.00421157 0)
(-2.40265e-05 -0.00448848 0)
(-2.79106e-05 -0.00475109 0)
(-3.20731e-05 -0.0049994 0)
(-3.64892e-05 -0.00523339 0)
(-4.1174e-05 -0.00545305 0)
(-4.60959e-05 -0.00565835 0)
(-5.12749e-05 -0.00584928 0)
(-5.66707e-05 -0.00602582 0)
(-6.23089e-05 -0.00618794 0)
(-6.81374e-05 -0.00633563 0)
(-7.41926e-05 -0.00646885 0)
(-8.04308e-05 -0.00658759 0)
(-8.69394e-05 -0.00669179 0)
(-9.35877e-05 -0.00678145 0)
(-9.99377e-05 -0.0068565 0)
(-0.000104854 -0.00691692 0)
(-0.000109685 -0.00696262 0)
(-0.000127326 -0.00699366 0)
(-0.000181858 -0.00701025 0)
(-0.000254271 -0.00701546 0)
(-0.000295027 -0.00701338 0)
(-0.000332201 -0.00701152 0)
(-0.000327945 -0.00700664 0)
(-0.000311193 -0.00700366 0)
(-0.000316077 -0.00700179 0)
(-0.000326088 -0.00700014 0)
(-0.000335992 -0.00699809 0)
(-0.000345321 -0.00699522 0)
(-0.000354585 -0.00699121 0)
(-0.000363979 -0.00698578 0)
(-0.000373495 -0.0069787 0)
(-0.000383096 -0.00696984 0)
(-0.000392758 -0.00695909 0)
(-0.000402467 -0.00694641 0)
(-0.000412207 -0.00693176 0)
(-0.000421967 -0.00691513 0)
(-0.000431732 -0.00689654 0)
(-0.00044149 -0.006876 0)
(-4.72543e-08 -0.000221279 0)
(-4.61077e-07 -0.000649798 0)
(-1.29459e-06 -0.00106426 0)
(-2.53381e-06 -0.00146466 0)
(-4.15868e-06 -0.00185096 0)
(-6.15585e-06 -0.00222316 0)
(-8.51688e-06 -0.00258124 0)
(-1.12347e-05 -0.00292518 0)
(-1.43031e-05 -0.00325498 0)
(-1.77163e-05 -0.00357062 0)
(-2.14693e-05 -0.00387208 0)
(-2.55572e-05 -0.00415937 0)
(-2.99758e-05 -0.00443247 0)
(-3.4721e-05 -0.00469138 0)
(-3.97888e-05 -0.00493609 0)
(-4.51747e-05 -0.00516659 0)
(-5.08752e-05 -0.00538288 0)
(-5.68846e-05 -0.00558495 0)
(-6.31996e-05 -0.00577281 0)
(-6.98119e-05 -0.00594644 0)
(-7.67183e-05 -0.00610584 0)
(-8.39055e-05 -0.00625102 0)
(-9.13741e-05 -0.00638196 0)
(-9.91202e-05 -0.00649867 0)
(-0.00010717 -0.00660115 0)
(-0.000115439 -0.00668938 0)
(-0.000123556 -0.0067634 0)
(-0.000130858 -0.00682317 0)
(-0.000138775 -0.00686882 0)
(-0.000156842 -0.00690045 0)
(-0.000200014 -0.00691894 0)
(-0.000260563 -0.00692306 0)
(-0.000312019 -0.00692385 0)
(-0.000366054 -0.00692323 0)
(-0.000337038 -0.00691535 0)
(-0.000324931 -0.00690873 0)
(-0.000331718 -0.00690368 0)
(-0.000341798 -0.00689961 0)
(-0.000350889 -0.0068957 0)
(-0.000359253 -0.00689127 0)
(-0.000367512 -0.0068858 0)
(-0.000375852 -0.00687896 0)
(-0.000384277 -0.00687051 0)
(-0.000392771 -0.00686036 0)
(-0.000401329 -0.00684842 0)
(-0.000409952 -0.00683467 0)
(-0.000418638 -0.00681909 0)
(-0.000427382 -0.0068017 0)
(-0.000436178 -0.00678249 0)
(-0.000445018 -0.0067615 0)
(-2.3852e-08 -0.000218673 0)
(-2.96868e-07 -0.000642125 0)
(-8.78727e-07 -0.00105165 0)
(-1.77346e-06 -0.00144721 0)
(-2.9779e-06 -0.00182878 0)
(-4.49097e-06 -0.00219632 0)
(-6.31462e-06 -0.0025498 0)
(-8.44993e-06 -0.00288921 0)
(-1.08994e-05 -0.00321452 0)
(-1.36635e-05 -0.0035257 0)
(-1.67453e-05 -0.00382273 0)
(-2.01453e-05 -0.00410561 0)
(-2.38678e-05 -0.00437431 0)
(-2.79131e-05 -0.00462882 0)
(-3.22879e-05 -0.00486913 0)
(-3.69919e-05 -0.00509522 0)
(-4.20351e-05 -0.00530709 0)
(-4.74168e-05 -0.00550472 0)
(-5.31509e-05 -0.00568812 0)
(-5.92361e-05 -0.00585728 0)
(-6.56912e-05 -0.0060122 0)
(-7.25134e-05 -0.00615288 0)
(-7.97333e-05 -0.00627932 0)
(-8.73624e-05 -0.00639153 0)
(-9.54447e-05 -0.00648952 0)
(-0.000103869 -0.0065733 0)
(-0.000112304 -0.00664289 0)
(-0.000120539 -0.00669829 0)
(-0.000131394 -0.0067396 0)
(-0.000154188 -0.00676718 0)
(-0.000195711 -0.0067839 0)
(-0.000251339 -0.00678727 0)
(-0.000312272 -0.00678928 0)
(-0.000379111 -0.00679168 0)
(-0.000329424 -0.00679191 0)
(-0.000324641 -0.00679227 0)
(-0.000335398 -0.00679239 0)
(-0.000347584 -0.00679182 0)
(-0.000358032 -0.00679016 0)
(-0.000367634 -0.00678707 0)
(-0.00037704 -0.00678233 0)
(-0.000386391 -0.00677578 0)
(-0.000395673 -0.00676735 0)
(-0.000404878 -0.00675699 0)
(-0.000414012 -0.00674471 0)
(-0.000423085 -0.00673054 0)
(-0.000432107 -0.0067145 0)
(-0.000441083 -0.00669663 0)
(-0.000450016 -0.00667696 0)
(-0.00045891 -0.00665555 0)
(-1.40494e-08 -0.000217551 0)
(-1.74485e-07 -0.000638538 0)
(-5.30749e-07 -0.0010454 0)
(-1.0947e-06 -0.00143814 0)
(-1.8754e-06 -0.00181674 0)
(-2.88105e-06 -0.00218119 0)
(-4.12112e-06 -0.00253148 0)
(-5.60215e-06 -0.0028676 0)
(-7.33193e-06 -0.00318954 0)
(-9.31448e-06 -0.00349727 0)
(-1.15566e-05 -0.00379078 0)
(-1.40604e-05 -0.00407006 0)
(-1.68327e-05 -0.00433509 0)
(-1.98741e-05 -0.00458584 0)
(-2.31921e-05 -0.0048223 0)
(-2.67862e-05 -0.00504445 0)
(-3.06656e-05 -0.00525226 0)
(-3.48288e-05 -0.0054457 0)
(-3.92879e-05 -0.00562474 0)
(-4.40401e-05 -0.00578935 0)
(-4.91006e-05 -0.0059395 0)
(-5.44668e-05 -0.00607515 0)
(-6.01688e-05 -0.00619624 0)
(-6.62236e-05 -0.00630274 0)
(-7.26508e-05 -0.00639459 0)
(-7.9234e-05 -0.00647172 0)
(-8.5491e-05 -0.00653401 0)
(-9.16809e-05 -0.00658131 0)
(-0.000103286 -0.00661359 0)
(-0.000132694 -0.0066319 0)
(-0.000177585 -0.00664183 0)
(-0.000228756 -0.00663969 0)
(-0.000288036 -0.00663721 0)
(-0.000331298 -0.00663578 0)
(-0.000286901 -0.00663729 0)
(-0.00028799 -0.00664023 0)
(-0.000300135 -0.00664335 0)
(-0.000312708 -0.0066458 0)
(-0.000323854 -0.00664706 0)
(-0.000334496 -0.00664675 0)
(-0.000345098 -0.00664463 0)
(-0.000355706 -0.00664054 0)
(-0.000366272 -0.00663442 0)
(-0.000376771 -0.00662623 0)
(-0.000387191 -0.00661599 0)
(-0.000397531 -0.00660372 0)
(-0.000407786 -0.00658947 0)
(-0.000417954 -0.00657327 0)
(-0.000428033 -0.00655518 0)
(-0.000438021 -0.00653525 0)
(-2.32987e-08 -0.000216615 0)
(-2.85357e-07 -0.000635526 0)
(-8.38262e-07 -0.00104014 0)
(-1.68351e-06 -0.00143047 0)
(-2.81396e-06 -0.00180653 0)
(-4.2275e-06 -0.00216833 0)
(-5.92165e-06 -0.00251587 0)
(-7.89768e-06 -0.00284916 0)
(-1.01523e-05 -0.00316819 0)
(-1.26872e-05 -0.00347297 0)
(-1.54973e-05 -0.00376349 0)
(-1.85849e-05 -0.00403974 0)
(-2.19425e-05 -0.00430171 0)
(-2.55731e-05 -0.0045494 0)
(-2.94658e-05 -0.00478279 0)
(-3.36247e-05 -0.00500186 0)
(-3.80339e-05 -0.0052066 0)
(-4.26995e-05 -0.00539699 0)
(-4.75984e-05 -0.00557301 0)
(-5.27377e-05 -0.00573463 0)
(-5.8083e-05 -0.00588182 0)
(-6.3648e-05 -0.00601456 0)
(-6.94134e-05 -0.00613282 0)
(-7.54526e-05 -0.00623654 0)
(-8.1641e-05 -0.0063257 0)
(-8.73274e-05 -0.00640024 0)
(-9.09882e-05 -0.00646011 0)
(-9.42289e-05 -0.00650519 0)
(-0.00011455 -0.00653555 0)
(-0.000185832 -0.00655151 0)
(-0.000283009 -0.00655661 0)
(-0.000341957 -0.00655374 0)
(-0.000396586 -0.00655108 0)
(-0.000378121 -0.0065441 0)
(-0.000351574 -0.00654043 0)
(-0.000353624 -0.00653855 0)
(-0.000361872 -0.00653737 0)
(-0.000369711 -0.00653612 0)
(-0.000376804 -0.00653427 0)
(-0.000383893 -0.00653143 0)
(-0.000391234 -0.0065273 0)
(-0.000398814 -0.00652168 0)
(-0.000406577 -0.00651442 0)
(-0.000414489 -0.00650546 0)
(-0.000422528 -0.00649475 0)
(-0.000430673 -0.00648227 0)
(-0.000438905 -0.00646803 0)
(-0.000447206 -0.00645204 0)
(-0.00045556 -0.00643431 0)
(-0.000463952 -0.00641488 0)
(-5.13526e-08 -0.000213952 0)
(-4.88864e-07 -0.00062778 0)
(-1.36373e-06 -0.00102752 0)
(-2.65905e-06 -0.00141317 0)
(-4.35139e-06 -0.00178469 0)
(-6.42593e-06 -0.00214209 0)
(-8.8718e-06 -0.00248535 0)
(-1.16816e-05 -0.00281446 0)
(-1.48465e-05 -0.00312941 0)
(-1.83613e-05 -0.0034302 0)
(-2.22179e-05 -0.00371681 0)
(-2.64128e-05 -0.00398924 0)
(-3.09382e-05 -0.00424749 0)
(-3.57918e-05 -0.00449155 0)
(-4.09647e-05 -0.00472142 0)
(-4.64559e-05 -0.0049371 0)
(-5.2254e-05 -0.0051386 0)
(-5.83593e-05 -0.0053259 0)
(-6.47563e-05 -0.00549903 0)
(-7.14458e-05 -0.00565799 0)
(-7.84053e-05 -0.00580281 0)
(-8.56404e-05 -0.00593347 0)
(-9.31382e-05 -0.00605004 0)
(-0.000100934 -0.0061525 0)
(-0.000108925 -0.00624093 0)
(-0.000116687 -0.00631531 0)
(-0.000123421 -0.00637579 0)
(-0.0001307 -0.00642241 0)
(-0.00014956 -0.0064555 0)
(-0.000197439 -0.00647542 0)
(-0.000265141 -0.00648028 0)
(-0.000322786 -0.0064817 0)
(-0.000385419 -0.00648202 0)
(-0.000342103 -0.00647581 0)
(-0.000330836 -0.00647139 0)
(-0.00033827 -0.00646787 0)
(-0.000348417 -0.00646451 0)
(-0.000357216 -0.00646076 0)
(-0.000365253 -0.00645624 0)
(-0.000373204 -0.00645068 0)
(-0.000381243 -0.00644387 0)
(-0.00038936 -0.0064357 0)
(-0.000397535 -0.00642606 0)
(-0.000405763 -0.00641491 0)
(-0.000414046 -0.00640223 0)
(-0.000422379 -0.00638801 0)
(-0.000430758 -0.00637225 0)
(-0.000439176 -0.00635495 0)
(-0.000447627 -0.00633613 0)
(-0.000456102 -0.00631581 0)
(-2.64354e-08 -0.000210967 0)
(-3.23104e-07 -0.000619068 0)
(-9.5087e-07 -0.00101329 0)
(-1.91215e-06 -0.0013936 0)
(-3.20048e-06 -0.00175995 0)
(-4.81352e-06 -0.00211231 0)
(-6.75026e-06 -0.00245066 0)
(-9.01177e-06 -0.00277495 0)
(-1.15972e-05 -0.00308518 0)
(-1.45082e-05 -0.00338131 0)
(-1.77438e-05 -0.00366333 0)
(-2.13071e-05 -0.00393123 0)
(-2.51972e-05 -0.00418498 0)
(-2.9419e-05 -0.00442457 0)
(-3.39718e-05 -0.00465001 0)
(-3.88634e-05 -0.00486127 0)
(-4.4093e-05 -0.00505835 0)
(-4.96726e-05 -0.00524126 0)
(-5.56009e-05 -0.00540999 0)
(-6.18953e-05 -0.00556456 0)
(-6.85532e-05 -0.00570495 0)
(-7.56055e-05 -0.00583119 0)
(-8.30648e-05 -0.00594329 0)
(-9.0981e-05 -0.00604127 0)
(-9.92415e-05 -0.00612515 0)
(-0.000107495 -0.00619495 0)
(-0.000115457 -0.00625069 0)
(-0.000125997 -0.0062925 0)
(-0.000149069 -0.00632068 0)
(-0.000193743 -0.00633803 0)
(-0.000255803 -0.00634156 0)
(-0.00032467 -0.00634373 0)
(-0.000399331 -0.00634594 0)
(-0.000335605 -0.00634704 0)
(-0.00033135 -0.00634854 0)
(-0.000342638 -0.00634968 0)
(-0.000354798 -0.00634996 0)
(-0.000364887 -0.00634902 0)
(-0.000374094 -0.00634665 0)
(-0.000383111 -0.00634269 0)
(-0.000392062 -0.00633707 0)
(-0.000400921 -0.00632974 0)
(-0.00040968 -0.00632069 0)
(-0.000418349 -0.00630994 0)
(-0.00042694 -0.00629751 0)
(-0.000435466 -0.00628344 0)
(-0.000443932 -0.00626776 0)
(-0.000452346 -0.00625052 0)
(-0.000460711 -0.00623175 0)
(-0.000469032 -0.00621148 0)
(-1.05324e-08 -0.000209899 0)
(-1.44695e-07 -0.000615612 0)
(-4.51825e-07 -0.00100723 0)
(-9.47534e-07 -0.00138475 0)
(-1.64321e-06 -0.00174816 0)
(-2.55117e-06 -0.00209744 0)
(-3.68111e-06 -0.00243259 0)
(-5.04383e-06 -0.00275358 0)
(-6.64587e-06 -0.00306042 0)
(-8.4964e-06 -0.00335307 0)
(-1.05995e-05 -0.00363153 0)
(-1.29638e-05 -0.00389577 0)
(-1.55916e-05 -0.00414579 0)
(-1.84924e-05 -0.00438155 0)
(-2.16668e-05 -0.00460305 0)
(-2.51262e-05 -0.00481026 0)
(-2.88703e-05 -0.00500315 0)
(-3.29138e-05 -0.00518171 0)
(-3.72549e-05 -0.0053459 0)
(-4.19129e-05 -0.0054957 0)
(-4.68855e-05 -0.00563107 0)
(-5.22082e-05 -0.00575196 0)
(-5.78979e-05 -0.00585836 0)
(-6.39851e-05 -0.0059502 0)
(-7.02616e-05 -0.00602745 0)
(-7.62613e-05 -0.00608997 0)
(-8.21725e-05 -0.00613765 0)
(-9.32888e-05 -0.00617048 0)
(-0.000121759 -0.00618944 0)
(-0.000168014 -0.00619997 0)
(-0.000226237 -0.00619824 0)
(-0.000296337 -0.00619636 0)
(-0.000339016 -0.00619686 0)
(-0.000287506 -0.00620058 0)
(-0.000288826 -0.00620499 0)
(-0.000301488 -0.00620905 0)
(-0.000314213 -0.00621216 0)
(-0.000325299 -0.00621397 0)
(-0.000335842 -0.00621426 0)
(-0.000346338 -0.00621287 0)
(-0.000356821 -0.00620967 0)
(-0.00036724 -0.00620464 0)
(-0.000377564 -0.00619774 0)
(-0.000387786 -0.00618901 0)
(-0.000397904 -0.00617847 0)
(-0.000407916 -0.00616616 0)
(-0.00041782 -0.00615212 0)
(-0.000427616 -0.00613642 0)
(-0.000437305 -0.00611908 0)
(-0.000446885 -0.00610016 0)
(-2.08773e-08 -0.000209259 0)
(-2.65193e-07 -0.000613416 0)
(-7.85293e-07 -0.00100324 0)
(-1.58342e-06 -0.00137875 0)
(-2.65565e-06 -0.00173996 0)
(-3.99928e-06 -0.0020869 0)
(-5.61535e-06 -0.00241956 0)
(-7.50285e-06 -0.00273796 0)
(-9.66317e-06 -0.00304209 0)
(-1.20939e-05 -0.00333196 0)
(-1.47963e-05 -0.00360755 0)
(-1.77662e-05 -0.00386888 0)
(-2.1005e-05 -0.00411593 0)
(-2.45062e-05 -0.00434868 0)
(-2.82713e-05 -0.00456713 0)
(-3.22904e-05 -0.00477125 0)
(-3.65656e-05 -0.00496104 0)
(-4.10824e-05 -0.00513646 0)
(-4.58422e-05 -0.00529749 0)
(-5.08221e-05 -0.0054441 0)
(-5.60279e-05 -0.00557626 0)
(-6.14549e-05 -0.00569394 0)
(-6.71621e-05 -0.00579708 0)
(-7.30511e-05 -0.00588566 0)
(-7.849e-05 -0.0059596 0)
(-8.20597e-05 -0.00601883 0)
(-8.52436e-05 -0.00606325 0)
(-0.000104673 -0.0060929 0)
(-0.000172233 -0.00610822 0)
(-0.000266193 -0.00611305 0)
(-0.000331925 -0.00610949 0)
(-0.000402155 -0.00610651 0)
(-0.000373399 -0.00610017 0)
(-0.000345167 -0.00609796 0)
(-0.000347503 -0.00609743 0)
(-0.0003562 -0.00609746 0)
(-0.000364229 -0.00609732 0)
(-0.0003714 -0.0060966 0)
(-0.000378535 -0.00609497 0)
(-0.000385903 -0.00609218 0)
(-0.000393484 -0.00608805 0)
(-0.00040122 -0.00608246 0)
(-0.000409077 -0.00607534 0)
(-0.000417035 -0.00606666 0)
(-0.000425075 -0.00605641 0)
(-0.000433179 -0.00604458 0)
(-0.00044133 -0.0060312 0)
(-0.000449514 -0.00601626 0)
(-0.000457716 -0.00599981 0)
(-0.000465924 -0.00598187 0)
(-5.52986e-08 -0.000206521 0)
(-5.19953e-07 -0.00060547 0)
(-1.44484e-06 -0.000990319 0)
(-2.80893e-06 -0.00136106 0)
(-4.58627e-06 -0.00171767 0)
(-6.75771e-06 -0.00206015 0)
(-9.31194e-06 -0.0023885 0)
(-1.2237e-05 -0.0027027 0)
(-1.55252e-05 -0.00300274 0)
(-1.91657e-05 -0.00328862 0)
(-2.31531e-05 -0.00356033 0)
(-2.74769e-05 -0.00381788 0)
(-3.21337e-05 -0.00406125 0)
(-3.71119e-05 -0.00429045 0)
(-4.24097e-05 -0.00450546 0)
(-4.8013e-05 -0.00470631 0)
(-5.39216e-05 -0.00489297 0)
(-6.01165e-05 -0.00506548 0)
(-6.65985e-05 -0.00522382 0)
(-7.33405e-05 -0.00536801 0)
(-8.03485e-05 -0.00549806 0)
(-8.76063e-05 -0.005614 0)
(-9.51536e-05 -0.00571582 0)
(-0.000102874 -0.00580361 0)
(-0.000110291 -0.00587731 0)
(-0.000116499 -0.00593708 0)
(-0.000123226 -0.00598293 0)
(-0.000142875 -0.00601518 0)
(-0.000195122 -0.00603426 0)
(-0.000269899 -0.00603866 0)
(-0.00033545 -0.00603935 0)
(-0.000408743 -0.00603955 0)
(-0.000346901 -0.00603491 0)
(-0.000336701 -0.00603213 0)
(-0.000344711 -0.00603006 0)
(-0.000354665 -0.00602798 0)
(-0.000362865 -0.00602544 0)
(-0.000370297 -0.00602214 0)
(-0.000377688 -0.00601789 0)
(-0.000385188 -0.00601253 0)
(-0.000392771 -0.00600594 0)
(-0.000400413 -0.00599806 0)
(-0.00040811 -0.00598884 0)
(-0.000415864 -0.00597828 0)
(-0.00042367 -0.00596637 0)
(-0.000431523 -0.0059531 0)
(-0.000439417 -0.0059385 0)
(-0.000447344 -0.00592255 0)
(-0.000455297 -0.00590528 0)
(-0.000463268 -0.0058867 0)
(-2.79061e-08 -0.000203265 0)
(-3.34337e-07 -0.000596019 0)
(-9.79915e-07 -0.000974952 0)
(-1.9651e-06 -0.00134002 0)
(-3.28286e-06 -0.00169117 0)
(-4.92853e-06 -0.00202838 0)
(-6.9018e-06 -0.00235161 0)
(-9.20096e-06 -0.00266083 0)
(-1.1827e-05 -0.00295601 0)
(-1.47779e-05 -0.00323715 0)
(-1.8056e-05 -0.00350421 0)
(-2.1659e-05 -0.00375718 0)
(-2.55916e-05 -0.00399604 0)
(-2.98511e-05 -0.0042208 0)
(-3.44449e-05 -0.00443144 0)
(-3.937e-05 -0.00462795 0)
(-4.46378e-05 -0.00481035 0)
(-5.02441e-05 -0.00497862 0)
(-5.62054e-05 -0.00513278 0)
(-6.25152e-05 -0.00527283 0)
(-6.92034e-05 -0.0053988 0)
(-7.62786e-05 -0.0055107 0)
(-8.37921e-05 -0.00560856 0)
(-9.16206e-05 -0.00569239 0)
(-9.9379e-05 -0.00576224 0)
(-0.000106702 -0.00581813 0)
(-0.000116555 -0.0058602 0)
(-0.000139616 -0.00588874 0)
(-0.000187265 -0.00590651 0)
(-0.000255916 -0.00591014 0)
(-0.000333366 -0.00591253 0)
(-0.000411713 -0.0059148 0)
(-0.000335216 -0.00591693 0)
(-0.000331582 -0.00591934 0)
(-0.000343273 -0.00592131 0)
(-0.000355175 -0.00592238 0)
(-0.000364717 -0.0059223 0)
(-0.000373387 -0.00592089 0)
(-0.00038191 -0.00591804 0)
(-0.000390387 -0.00591369 0)
(-0.000398778 -0.0059078 0)
(-0.000407072 -0.00590039 0)
(-0.000415278 -0.00589147 0)
(-0.00042341 -0.00588107 0)
(-0.000431477 -0.00586923 0)
(-0.000439487 -0.00585598 0)
(-0.000447445 -0.00584135 0)
(-0.000455357 -0.00582537 0)
(-0.000463225 -0.00580808 0)
(-0.000471051 -0.00578951 0)
(-6.00528e-09 -0.000202342 0)
(-1.06481e-07 -0.000592967 0)
(-3.50656e-07 -0.000969522 0)
(-7.56714e-07 -0.001332 0)
(-1.34109e-06 -0.00168038 0)
(-2.11737e-06 -0.00201466 0)
(-3.09996e-06 -0.00233483 0)
(-4.29909e-06 -0.00264086 0)
(-5.72697e-06 -0.00293275 0)
(-7.39058e-06 -0.00321048 0)
(-9.30121e-06 -0.00347403 0)
(-1.14634e-05 -0.0037234 0)
(-1.3889e-05 -0.00395855 0)
(-1.65807e-05 -0.00417949 0)
(-1.95524e-05 -0.00438617 0)
(-2.28053e-05 -0.0045786 0)
(-2.63571e-05 -0.00475674 0)
(-3.02074e-05 -0.00492057 0)
(-3.43789e-05 -0.00507006 0)
(-3.88705e-05 -0.0052052 0)
(-4.37221e-05 -0.00532594 0)
(-4.89514e-05 -0.00543227 0)
(-5.45978e-05 -0.00552413 0)
(-6.04614e-05 -0.0056015 0)
(-6.60868e-05 -0.00566426 0)
(-7.15935e-05 -0.00571233 0)
(-8.21182e-05 -0.00574571 0)
(-0.000109624 -0.0057653 0)
(-0.000157425 -0.00577628 0)
(-0.000223531 -0.00577494 0)
(-0.000308017 -0.00577371 0)
(-0.000343042 -0.00577398 0)
(-0.000287306 -0.00577815 0)
(-0.000288715 -0.00578299 0)
(-0.000301514 -0.00578752 0)
(-0.000314016 -0.00579116 0)
(-0.00032474 -0.00579363 0)
(-0.000334913 -0.00579475 0)
(-0.000345046 -0.00579435 0)
(-0.000355165 -0.00579236 0)
(-0.00036521 -0.00578871 0)
(-0.000375154 -0.00578342 0)
(-0.000384989 -0.00577649 0)
(-0.000394712 -0.00576795 0)
(-0.000404323 -0.00575785 0)
(-0.000413821 -0.00574623 0)
(-0.000423205 -0.00573312 0)
(-0.000432476 -0.00571857 0)
(-0.000441634 -0.00570262 0)
(-0.000450681 -0.00568531 0)
(-1.84877e-08 -0.000201986 0)
(-2.40509e-07 -0.000591556 0)
(-7.16377e-07 -0.000966758 0)
(-1.45026e-06 -0.00132762 0)
(-2.43973e-06 -0.00167416 0)
(-3.68446e-06 -0.00200639 0)
(-5.18566e-06 -0.00232433 0)
(-6.94472e-06 -0.00262799 0)
(-8.96224e-06 -0.00291737 0)
(-1.12387e-05 -0.00319247 0)
(-1.37738e-05 -0.00345329 0)
(-1.65671e-05 -0.00369983 0)
(-1.96169e-05 -0.00393207 0)
(-2.29221e-05 -0.00415 0)
(-2.64795e-05 -0.0043536 0)
(-3.02869e-05 -0.00454287 0)
(-3.43387e-05 -0.00471777 0)
(-3.86309e-05 -0.00487827 0)
(-4.31528e-05 -0.00502436 0)
(-4.79019e-05 -0.00515599 0)
(-5.28884e-05 -0.00527312 0)
(-5.81559e-05 -0.00537571 0)
(-6.36343e-05 -0.00546371 0)
(-6.87273e-05 -0.00553705 0)
(-7.21534e-05 -0.00559565 0)
(-7.52335e-05 -0.00563938 0)
(-9.33193e-05 -0.0056683 0)
(-0.000155541 -0.00568297 0)
(-0.000244262 -0.00568761 0)
(-0.000317147 -0.00568341 0)
(-0.000407746 -0.00568044 0)
(-0.000361447 -0.00567433 0)
(-0.00033414 -0.00567294 0)
(-0.000337293 -0.0056733 0)
(-0.000346344 -0.00567427 0)
(-0.000354322 -0.00567513 0)
(-0.000361379 -0.00567552 0)
(-0.000368402 -0.00567512 0)
(-0.000375647 -0.00567372 0)
(-0.000383085 -0.00567113 0)
(-0.000390659 -0.00566727 0)
(-0.000398336 -0.00566206 0)
(-0.000406097 -0.00565547 0)
(-0.000413925 -0.0056475 0)
(-0.000421803 -0.00563813 0)
(-0.000429715 -0.00562739 0)
(-0.000437648 -0.00561529 0)
(-0.000445589 -0.00560183 0)
(-0.000453526 -0.00558706 0)
(-0.000461449 -0.00557097 0)
(-5.71147e-08 -0.000199274 0)
(-5.37524e-07 -0.000583697 0)
(-1.49014e-06 -0.000953993 0)
(-2.89203e-06 -0.00131016 0)
(-4.71214e-06 -0.00165218 0)
(-6.93041e-06 -0.00198006 0)
(-9.53003e-06 -0.0022938 0)
(-1.25001e-05 -0.00259338 0)
(-1.5826e-05 -0.0028788 0)
(-1.94999e-05 -0.00315006 0)
(-2.35078e-05 -0.00340716 0)
(-2.78442e-05 -0.00365009 0)
(-3.24941e-05 -0.00387885 0)
(-3.74543e-05 -0.00409344 0)
(-4.27071e-05 -0.00429386 0)
(-4.82508e-05 -0.00448009 0)
(-5.4063e-05 -0.00465217 0)
(-6.01428e-05 -0.00481007 0)
(-6.64589e-05 -0.00495382 0)
(-7.30163e-05 -0.00508341 0)
(-7.9796e-05 -0.00519886 0)
(-8.68416e-05 -0.00530017 0)
(-9.40237e-05 -0.00538739 0)
(-0.000100801 -0.00546049 0)
(-0.000106135 -0.00551957 0)
(-0.000111924 -0.00556464 0)
(-0.000132273 -0.00559597 0)
(-0.00018951 -0.00561401 0)
(-0.000272214 -0.00561799 0)
(-0.000346284 -0.00561789 0)
(-0.000429549 -0.00561783 0)
(-0.000348383 -0.00561439 0)
(-0.000339188 -0.00561283 0)
(-0.000347664 -0.00561192 0)
(-0.000357212 -0.00561098 0)
(-0.000364594 -0.00560959 0)
(-0.000371224 -0.00560751 0)
(-0.000377877 -0.00560457 0)
(-0.000384674 -0.00560065 0)
(-0.000391569 -0.00559564 0)
(-0.000398536 -0.0055895 0)
(-0.000405571 -0.00558221 0)
(-0.000412672 -0.00557373 0)
(-0.000419835 -0.00556409 0)
(-0.000427055 -0.00555327 0)
(-0.000434323 -0.00554128 0)
(-0.000441632 -0.00552813 0)
(-0.000448973 -0.00551383 0)
(-0.000456339 -0.00549838 0)
(-0.000463721 -0.00548179 0)
(-3.12156e-08 -0.000195762 0)
(-3.53937e-07 -0.000573573 0)
(-1.02464e-06 -0.000937619 0)
(-2.04078e-06 -0.00128785 0)
(-3.39072e-06 -0.00162422 0)
(-5.06877e-06 -0.00194669 0)
(-7.07017e-06 -0.00225522 0)
(-9.39398e-06 -0.0025498 0)
(-1.20358e-05 -0.00283038 0)
(-1.49962e-05 -0.00309696 0)
(-1.82703e-05 -0.00334951 0)
(-2.18607e-05 -0.00358802 0)
(-2.57621e-05 -0.00381247 0)
(-2.99795e-05 -0.00402287 0)
(-3.45062e-05 -0.0042192 0)
(-3.93509e-05 -0.00440148 0)
(-4.45044e-05 -0.00456969 0)
(-4.99797e-05 -0.00472386 0)
(-5.57631e-05 -0.00486399 0)
(-6.18797e-05 -0.00499011 0)
(-6.83297e-05 -0.00510222 0)
(-7.51627e-05 -0.00520038 0)
(-8.22456e-05 -0.00528458 0)
(-8.91528e-05 -0.00535489 0)
(-9.53771e-05 -0.00541133 0)
(-0.000103794 -0.00545404 0)
(-0.000125801 -0.00548327 0)
(-0.000176271 -0.00550153 0)
(-0.000252255 -0.00550525 0)
(-0.000339106 -0.00550778 0)
(-0.000417347 -0.00550818 0)
(-0.000330081 -0.00550969 0)
(-0.000326263 -0.00551177 0)
(-0.00033775 -0.00551366 0)
(-0.000348936 -0.00551488 0)
(-0.000357574 -0.00551518 0)
(-0.00036539 -0.00551439 0)
(-0.000373131 -0.00551238 0)
(-0.000380874 -0.0055091 0)
(-0.000388568 -0.00550451 0)
(-0.000396194 -0.00549861 0)
(-0.00040376 -0.00549142 0)
(-0.000411277 -0.00548297 0)
(-0.000418752 -0.00547328 0)
(-0.000426192 -0.00546238 0)
(-0.000433599 -0.0054503 0)
(-0.000440976 -0.00543707 0)
(-0.000448326 -0.0054227 0)
(-0.000455648 -0.00540722 0)
(-0.000462943 -0.00539064 0)
(-3.28527e-10 -0.000194914 0)
(-5.82553e-08 -0.000570757 0)
(-2.20262e-07 -0.000932597 0)
(-5.08927e-07 -0.00128042 0)
(-9.43608e-07 -0.0016142 0)
(-1.54303e-06 -0.00193392 0)
(-2.32241e-06 -0.00223957 0)
(-3.29783e-06 -0.00253114 0)
(-4.48095e-06 -0.00280861 0)
(-5.88632e-06 -0.00307196 0)
(-7.52299e-06 -0.00332119 0)
(-9.40561e-06 -0.00355627 0)
(-1.15414e-05 -0.00377719 0)
(-1.39469e-05 -0.00398395 0)
(-1.66279e-05 -0.00417654 0)
(-1.96048e-05 -0.00435493 0)
(-2.28823e-05 -0.00451912 0)
(-2.64859e-05 -0.0046691 0)
(-3.04196e-05 -0.00480486 0)
(-3.47256e-05 -0.00492639 0)
(-3.94262e-05 -0.00503368 0)
(-4.45714e-05 -0.00512671 0)
(-4.99928e-05 -0.00520549 0)
(-5.52655e-05 -0.00526996 0)
(-6.03582e-05 -0.0053201 0)
(-6.97981e-05 -0.00535595 0)
(-9.48974e-05 -0.00537809 0)
(-0.000143722 -0.00539072 0)
(-0.000219172 -0.00539112 0)
(-0.000323461 -0.00539185 0)
(-0.00034714 -0.00538952 0)
(-0.000287418 -0.00539199 0)
(-0.000288525 -0.00539545 0)
(-0.000301104 -0.00539889 0)
(-0.000313 -0.00540173 0)
(-0.000322978 -0.00540371 0)
(-0.000332393 -0.00540462 0)
(-0.000341775 -0.0054043 0)
(-0.000351144 -0.00540265 0)
(-0.000360439 -0.00539961 0)
(-0.000369634 -0.00539517 0)
(-0.000378725 -0.00538934 0)
(-0.000387711 -0.00538214 0)
(-0.000396593 -0.00537362 0)
(-0.000405371 -0.00536381 0)
(-0.000414045 -0.00535274 0)
(-0.000422617 -0.00534046 0)
(-0.000431086 -0.00532698 0)
(-0.000439455 -0.00531234 0)
(-0.000447725 -0.00529657 0)
(-9.6494e-09 -0.00019502 0)
(-1.50197e-07 -0.000570633 0)
(-4.66207e-07 -0.000931849 0)
(-9.69188e-07 -0.00127869 0)
(-1.66433e-06 -0.00161119 0)
(-2.55985e-06 -0.00192936 0)
(-3.66075e-06 -0.0022332 0)
(-4.976e-06 -0.00252272 0)
(-6.50825e-06 -0.00279794 0)
(-8.26629e-06 -0.00305884 0)
(-1.02503e-05 -0.00330543 0)
(-1.24698e-05 -0.00353769 0)
(-1.49223e-05 -0.00375561 0)
(-1.76188e-05 -0.00395918 0)
(-2.05543e-05 -0.00414837 0)
(-2.37418e-05 -0.00432317 0)
(-2.71723e-05 -0.00448353 0)
(-3.08612e-05 -0.00462944 0)
(-3.4797e-05 -0.00476085 0)
(-3.90166e-05 -0.00487772 0)
(-4.35366e-05 -0.00498 0)
(-4.83539e-05 -0.00506764 0)
(-5.30519e-05 -0.00514055 0)
(-5.68047e-05 -0.00519866 0)
(-6.03656e-05 -0.00524178 0)
(-7.40246e-05 -0.00526999 0)
(-0.000117446 -0.00528414 0)
(-0.000183809 -0.00528933 0)
(-0.000261138 -0.00528449 0)
(-0.000379865 -0.0052817 0)
(-0.000319963 -0.0052755 0)
(-0.00029491 -0.00527457 0)
(-0.000299668 -0.00527559 0)
(-0.0003099 -0.00527734 0)
(-0.000318727 -0.00527909 0)
(-0.000326574 -0.00528047 0)
(-0.000334358 -0.00528118 0)
(-0.000342319 -0.00528102 0)
(-0.000350415 -0.00527981 0)
(-0.000358585 -0.00527745 0)
(-0.000366798 -0.0052739 0)
(-0.000375037 -0.00526912 0)
(-0.000383287 -0.00526311 0)
(-0.000391532 -0.00525589 0)
(-0.000399761 -0.00524745 0)
(-0.000407962 -0.00523783 0)
(-0.000416125 -0.00522702 0)
(-0.000424244 -0.00521506 0)
(-0.00043231 -0.00520197 0)
(-0.000440318 -0.00518775 0)
(-5.07168e-08 -0.000192979 0)
(-4.88071e-07 -0.000564651 0)
(-1.3574e-06 -0.000922054 0)
(-2.63516e-06 -0.0012652 0)
(-4.29314e-06 -0.00159409 0)
(-6.30741e-06 -0.00190874 0)
(-8.66429e-06 -0.00220915 0)
(-1.13462e-05 -0.00249533 0)
(-1.43435e-05 -0.00276727 0)
(-1.76386e-05 -0.00302497 0)
(-2.12249e-05 -0.00326843 0)
(-2.50833e-05 -0.00349765 0)
(-2.92097e-05 -0.00371261 0)
(-3.3582e-05 -0.00391333 0)
(-3.8198e-05 -0.00409978 0)
(-4.30303e-05 -0.00427196 0)
(-4.80777e-05 -0.00442986 0)
(-5.33028e-05 -0.00457348 0)
(-5.87108e-05 -0.00470279 0)
(-6.42815e-05 -0.00481779 0)
(-7.00694e-05 -0.00491845 0)
(-7.59295e-05 -0.00500479 0)
(-8.11973e-05 -0.00507675 0)
(-8.45533e-05 -0.00513436 0)
(-8.81008e-05 -0.00517755 0)
(-0.000109381 -0.00520648 0)
(-0.000175808 -0.0052216 0)
(-0.000271339 -0.00522468 0)
(-0.000351711 -0.0052222 0)
(-0.000441989 -0.00521932 0)
(-0.000344198 -0.00521379 0)
(-0.000334794 -0.00521069 0)
(-0.000342978 -0.00520882 0)
(-0.000351597 -0.00520742 0)
(-0.000357795 -0.00520606 0)
(-0.000363323 -0.00520445 0)
(-0.000368988 -0.00520237 0)
(-0.000374874 -0.00519967 0)
(-0.000380909 -0.0051962 0)
(-0.000387055 -0.00519188 0)
(-0.000393299 -0.00518666 0)
(-0.000399635 -0.00518048 0)
(-0.000406054 -0.00517332 0)
(-0.000412546 -0.00516517 0)
(-0.000419102 -0.00515603 0)
(-0.000425711 -0.00514588 0)
(-0.000432364 -0.00513472 0)
(-0.000439054 -0.00512255 0)
(-0.00044577 -0.00510938 0)
(-0.000452505 -0.00509522 0)
(-4.28081e-08 -0.000189277 0)
(-4.30781e-07 -0.000554089 0)
(-1.21306e-06 -0.000905112 0)
(-2.37438e-06 -0.0012423 0)
(-3.89316e-06 -0.00156562 0)
(-5.7525e-06 -0.00187504 0)
(-7.94213e-06 -0.00217052 0)
(-1.04504e-05 -0.00245204 0)
(-1.327e-05 -0.00271959 0)
(-1.63893e-05 -0.00297314 0)
(-1.98032e-05 -0.00321268 0)
(-2.34997e-05 -0.00343821 0)
(-2.74761e-05 -0.0036497 0)
(-3.17185e-05 -0.00384717 0)
(-3.62269e-05 -0.00403062 0)
(-4.09841e-05 -0.00420004 0)
(-4.59926e-05 -0.00435544 0)
(-5.12286e-05 -0.00449685 0)
(-5.67036e-05 -0.00462427 0)
(-6.24077e-05 -0.00473773 0)
(-6.83854e-05 -0.00483725 0)
(-7.45038e-05 -0.00492286 0)
(-8.02679e-05 -0.00499461 0)
(-8.48711e-05 -0.00505253 0)
(-9.07294e-05 -0.00509677 0)
(-0.000110607 -0.00512749 0)
(-0.000165329 -0.00514635 0)
(-0.000249991 -0.00515008 0)
(-0.000344816 -0.00515239 0)
(-0.000426644 -0.00514783 0)
(-0.000326288 -0.00514531 0)
(-0.000320929 -0.00514397 0)
(-0.000331389 -0.00514309 0)
(-0.000341206 -0.00514218 0)
(-0.000348303 -0.00514096 0)
(-0.000354647 -0.00513922 0)
(-0.000361028 -0.00513679 0)
(-0.000367505 -0.00513354 0)
(-0.000374012 -0.00512939 0)
(-0.000380522 -0.00512431 0)
(-0.000387039 -0.00511826 0)
(-0.000393568 -0.00511123 0)
(-0.000400112 -0.00510322 0)
(-0.000406671 -0.00509423 0)
(-0.000413243 -0.00508429 0)
(-0.000419828 -0.00507338 0)
(-0.000426423 -0.00506153 0)
(-0.000433024 -0.00504874 0)
(-0.000439628 -0.00503502 0)
(-0.000446232 -0.00502038 0)
(-0.000438154 -0.00698143 0)
(-0.000448396 -0.00695628 0)
(-0.000458562 -0.00692917 0)
(-0.000468651 -0.00690017 0)
(-0.000478658 -0.00686931 0)
(-0.000488582 -0.00683664 0)
(-0.000498419 -0.00680221 0)
(-0.000508167 -0.00676607 0)
(-0.000517824 -0.00672826 0)
(-0.000527386 -0.00668884 0)