/*--------------------------------*- C++ -*----------------------------------*\
| =========                 |                                                 |
| \\      /  F ield         | OpenFOAM: The Open Source CFD Toolbox           |
|  \\    /   O peration     | Version:  2.4.0                                 |
|   \\  /    A nd           | Web:      www.OpenFOAM.org                      |
|    \\/     M anipulation  |                                                 |
\*---------------------------------------------------------------------------*/
FoamFile
{
    version     2.0;
    format      ascii;
    class       surfaceScalarField;
    location    "1.2";
    object      phi;
}
// * * * * * * * * * * * * * * * * * * * * * * * * * * * * * * * * * * * * * //

dimensions      [0 3 -1 0 0 0 0];

internalField   nonuniform List<scalar> 
220
(
1.08472e-17
-3.95812e-10
7.18895e-18
-3.95812e-10
-1.11946e-17
-3.95812e-10
-2.21112e-17
-3.95812e-10
-3.95812e-10
9.87488e-18
-3.95812e-10
6.4456e-18
-3.95812e-10
-1.10431e-17
-3.95812e-10
-2.15134e-17
-3.95812e-10
-3.95812e-10
8.91265e-18
-3.95812e-10
5.70713e-18
-3.95812e-10
-1.08825e-17
-3.95812e-10
-2.09005e-17
-3.95812e-10
-3.95812e-10
7.96138e-18
-3.95812e-10
4.97475e-18
-3.95812e-10
-1.07134e-17
-3.95812e-10
-2.02733e-17
-3.95812e-10
-3.95812e-10
7.02206e-18
-3.95812e-10
4.24952e-18
-3.95812e-10
-1.05362e-17
-3.95812e-10
-1.96333e-17
-3.95812e-10
-3.95812e-10
6.09576e-18
-3.95812e-10
3.53248e-18
-3.95812e-10
-1.03513e-17
-3.95812e-10
-1.89817e-17
-3.95812e-10
-3.95812e-10
5.18354e-18
-3.95812e-10
2.8247e-18
-3.95812e-10
-1.01592e-17
-3.95812e-10
-1.832e-17
-3.95812e-10
-3.95812e-10
4.28646e-18
-3.95812e-10
2.12718e-18
-3.95812e-10
-9.9604e-18
-3.95812e-10
-1.76497e-17
-3.95812e-10
-3.95812e-10
3.40555e-18
-3.95812e-10
1.44094e-18
-3.95812e-10
-9.75528e-18
-3.95812e-10
-1.69723e-17
-3.95812e-10
-3.95812e-10
2.54183e-18
-3.95812e-10
7.66961e-19
-3.95812e-10
-9.54437e-18
-3.95812e-10
-1.62891e-17
-3.95812e-10
-3.95812e-10
1.69629e-18
-3.95812e-10
1.06179e-19
-3.95812e-10
-9.32817e-18
-3.95812e-10
-1.56016e-17
-3.95812e-10
-3.95812e-10
8.69904e-19
-3.95812e-10
-5.40492e-19
-3.95812e-10
-9.1072e-18
-3.95812e-10
-1.49112e-17
-3.95812e-10
-3.95812e-10
6.36269e-20
-3.95812e-10
-1.17218e-18
-3.95812e-10
-8.88198e-18
-3.95812e-10
-1.42192e-17
-3.95812e-10
-3.95812e-10
-7.21615e-19
-3.95812e-10
-1.78804e-18
-3.95812e-10
-8.65307e-18
-3.95812e-10
-1.3527e-17
-3.95812e-10
-3.95812e-10
-1.48492e-18
-3.95812e-10
-2.38727e-18
-3.95812e-10
-8.42103e-18
-3.95812e-10
-1.2836e-17
-3.95812e-10
-3.95812e-10
-2.22543e-18
-3.95812e-10
-2.96913e-18
-3.95812e-10
-8.18642e-18
-3.95812e-10
-1.21475e-17
-3.95812e-10
-3.95812e-10
-2.94228e-18
-3.95812e-10
-3.53288e-18
-3.95812e-10
-7.94983e-18
-3.95812e-10
-1.14628e-17
-3.95812e-10
-3.95812e-10
-3.63468e-18
-3.95812e-10
-4.07785e-18
-3.95812e-10
-7.71185e-18
-3.95812e-10
-1.07833e-17
-3.95812e-10
-3.95812e-10
-4.30185e-18
-3.95812e-10
-4.6034e-18
-3.95812e-10
-7.47311e-18
-3.95812e-10
-1.01101e-17
-3.95812e-10
-3.95812e-10
-4.94305e-18
-3.95812e-10
-5.10894e-18
-3.95812e-10
-7.23422e-18
-3.95812e-10
-9.44457e-18
-3.95812e-10
-3.95812e-10
-5.55756e-18
-3.95812e-10
-5.59388e-18
-3.95812e-10
-6.99583e-18
-3.95812e-10
-8.78807e-18
-3.95812e-10
-3.95812e-10
-6.14475e-18
-3.95812e-10
-6.05769e-18
-3.95812e-10
-6.75853e-18
-3.95812e-10
-8.14225e-18
-3.95812e-10
-3.95812e-10
-6.704e-18
-3.95812e-10
-6.49986e-18
-3.95812e-10
-6.52257e-18
-3.95812e-10
-7.50817e-18
-3.95812e-10
-3.95812e-10
-7.2348e-18
-3.95812e-10
-6.91977e-18
-3.95812e-10
-6.28876e-18
-3.95812e-10
-6.89218e-18
-3.95812e-10
-3.95812e-10
-7.73666e-18
-7.31719e-18
-6.05699e-18
-6.28936e-18
)
;

boundaryField
{
    BotWall
    {
        type            calculated;
        value           nonuniform 0();
    }
    FreeStream
    {
        type            calculated;
        value           nonuniform 0();
    }
    FrontNBack
    {
        type            empty;
        value           nonuniform 0();
    }
    LeftSide
    {
        type            symmetryPlane;
        value           uniform 0;
    }
    RightSide
    {
        type            symmetryPlane;
        value           uniform 0;
    }
    procBoundary1to0
    {
        type            processor;
        value           nonuniform List<scalar> 5(3.95812e-10 3.95812e-10 3.95812e-10 3.95812e-10 3.95812e-10);
    }
    procBoundary1to2
    {
        type            processor;
        value           nonuniform List<scalar> 5(-3.95812e-10 -3.95812e-10 -3.95812e-10 -3.95812e-10 -3.95812e-10);
    }
}


// ************************************************************************* //
