/*--------------------------------*- C++ -*----------------------------------*\
| =========                 |                                                 |
| \\      /  F ield         | OpenFOAM: The Open Source CFD Toolbox           |
|  \\    /   O peration     | Version:  2.4.0                                 |
|   \\  /    A nd           | Web:      www.OpenFOAM.org                      |
|    \\/     M anipulation  |                                                 |
\*---------------------------------------------------------------------------*/
FoamFile
{
    version     2.0;
    format      ascii;
    class       volScalarField;
    location    "1.4";
    object      alpha1;
}
// * * * * * * * * * * * * * * * * * * * * * * * * * * * * * * * * * * * * * //

dimensions      [0 0 0 0 0 0 0];

internalField   nonuniform List<scalar> 
8000
(
1
1
1
1
1
1
1
1
1
1
1
1
1
1
1
1
1
1
1
1
1
1
1
1
0.999999
0.999999
0.999998
0.999996
0.999992
1
0.986429
0.150722
0.000208565
2.02432e-06
1.67987e-06
9.97319e-07
5.18475e-07
2.46551e-07
1.08223e-07
4.36337e-08
1.60189e-08
5.30326e-09
1.56617e-09
4.07466e-10
9.20079e-11
1.77072e-11
2.84025e-12
3.69511e-13
3.78037e-14
2.96126e-15
1
1
1
1
1
1
1
1
1
1
1
1
1
1
1
1
1
1
1
1
1
1
1
1
0.999999
0.999999
0.999998
0.999995
0.999992
0.999995
0.910761
0.0517661
3.01052e-05
1.86619e-06
1.5236e-06
8.72233e-07
4.45623e-07
2.08937e-07
9.03943e-08
3.58731e-08
1.29445e-08
4.2065e-09
1.21788e-09
3.10256e-10
6.85187e-11
1.28823e-11
2.01645e-12
2.55772e-13
2.55042e-14
1.94992e-15
1
1
1
1
1
1
1
1
1
1
1
1
1
1
1
1
1
1
1
1
1
1
1
1
0.999999
0.999999
0.999998
0.999995
0.999991
0.999991
0.826321
0.0207896
1.55731e-05
2.02561e-06
1.37714e-06
7.6689e-07
3.86225e-07
1.7881e-07
7.63259e-08
2.98481e-08
1.06014e-08
3.38762e-09
9.63549e-10
2.40936e-10
5.2182e-11
9.61279e-12
1.47302e-12
1.82768e-13
1.78216e-14
1.33427e-15
1
1
1
1
1
1
1
1
1
1
1
1
1
1
1
1
1
1
1
1
1
1
1
1
0.999999
0.999999
0.999997
0.999994
0.999987
0.999953
0.610321
0.00321615
4.84108e-06
1.83435e-06
1.18273e-06
6.42657e-07
3.17999e-07
1.44863e-07
6.0784e-08
2.33368e-08
8.12895e-09
2.54508e-09
7.08653e-10
1.73316e-10
3.66815e-11
6.59736e-12
9.86113e-13
1.19253e-13
1.13316e-14
8.28824e-16
1
1
1
1
1
1
1
1
1
1
1
1
1
1
1
1
1
1
1
1
1
1
1
1
0.999999
0.999998
0.999997
0.999993
0.999983
0.999926
0.433689
0.000739331
2.81256e-06
1.69538e-06
1.03487e-06
5.51486e-07
2.68561e-07
1.20468e-07
4.97167e-08
1.87508e-08
6.40954e-09
1.96744e-09
5.3661e-10
1.28442e-10
2.65809e-11
4.67022e-12
6.81249e-13
8.03255e-14
7.43993e-15
5.32582e-16
1
1
1
1
1
1
1
1
1
1
1
1
1
1
1
1
1
1
1
1
1
1
1
1
0.999999
0.999998
0.999996
0.999992
0.999983
0.999698
0.21107
0.000119635
1.86069e-06
1.48216e-06
8.76112e-07
4.58005e-07
2.19201e-07
9.66682e-08
3.91802e-08
1.44962e-08
4.85628e-09
1.45956e-09
3.89433e-10
9.11032e-11
1.84088e-11
3.15472e-12
4.48334e-13
5.14465e-14
4.63823e-15
3.26574e-16
1
1
1
1
1
1
1
1
1
1
1
1
1
1
1
1
1
1
1
1
1
1
1
1
0.999999
0.999998
0.999996
0.999991
0.999991
0.954461
0.0518769
1.9571e-05
1.75034e-06
1.2409e-06
7.09981e-07
3.63658e-07
1.7095e-07
7.40909e-08
2.94973e-08
1.07137e-08
3.52149e-09
1.0379e-09
2.71413e-10
6.21912e-11
1.23e-11
2.06136e-12
2.86206e-13
3.20609e-14
2.82791e-15
2.00797e-16
1
1
1
1
1
1
1
1
1
1
1
1
1
1
1
1
1
1
1
1
1
1
1
0.999999
0.999999
0.999997
0.999995
0.999989
0.999981
0.740201
0.00800153
5.62307e-06
1.56725e-06
1.04601e-06
5.81327e-07
2.91526e-07
1.34438e-07
5.7176e-08
2.23271e-08
7.94996e-09
2.56045e-09
7.39103e-10
1.892e-10
4.24136e-11
8.201e-12
1.34257e-12
1.81921e-13
1.98861e-14
1.72657e-15
1.31937e-16
1
1
1
1
1
1
1
1
1
1
1
1
1
1
1
1
1
1
1
1
1
1
1
0.999999
0.999999
0.999997
0.999994
0.999985
0.999947
0.532274
0.00135474
2.44684e-06
1.41642e-06
9.01393e-07
4.87992e-07
2.39755e-07
1.0848e-07
4.52658e-08
1.73346e-08
6.04991e-09
1.90896e-09
5.39611e-10
1.35202e-10
2.96496e-11
5.60466e-12
8.96299e-13
1.18567e-13
1.26811e-14
1.10785e-15
1.0598e-16
1
1
1
1
1
1
1
1
1
1
1
1
1
1
1
1
1
1
1
1
1
1
1
0.999999
0.999998
0.999997
0.999992
0.99998
0.99987
0.345659
0.000254133
1.51533e-06
1.27937e-06
7.82912e-07
4.14119e-07
1.99663e-07
8.87513e-08
3.63746e-08
1.36741e-08
4.68209e-09
1.44859e-09
4.01276e-10
9.84703e-11
2.11358e-11
3.90758e-12
6.10726e-13
7.89732e-14
8.32981e-15
7.76697e-16
1.15572e-16
1
1
1
1
1
1
1
1
1
1
1
1
1
1
1
1
1
1
1
1
1
1
1
0.999999
0.999998
0.999996
0.999992
0.999985
0.999414
0.153306
4.5108e-05
1.38754e-06
1.12519e-06
6.63311e-07
3.43366e-07
1.62689e-07
7.11491e-08
2.86866e-08
1.06045e-08
3.56902e-09
1.08486e-09
2.95114e-10
7.10794e-11
1.49656e-11
2.71235e-12
4.1545e-13
5.28034e-14
5.62816e-15
6.39596e-16
1.67137e-16
1
1
1
1
1
1
1
1
1
1
1
1
1
1
1
1
1
1
1
1
1
1
1
0.999999
0.999998
0.999995
0.999991
0.999991
0.925937
0.035233
9.76881e-06
1.32128e-06
9.60062e-07
5.45845e-07
2.76554e-07
1.28759e-07
5.54026e-08
2.19788e-08
7.99271e-09
2.6456e-09
7.90691e-10
2.11421e-10
5.00349e-11
1.03472e-11
1.84142e-12
2.77268e-13
3.50278e-14
4.01107e-15
6.79952e-16
2.85445e-16
1
1
1
1
1
1
1
1
1
1
1
1
1
1
1
1
1
1
1
1
1
1
0.999999
0.999999
0.999997
0.999994
0.999989
0.999979
0.73259
0.00658245
3.33243e-06
1.23367e-06
8.30121e-07
4.57653e-07
2.27229e-07
1.03981e-07
4.40123e-08
1.71753e-08
6.14268e-09
1.99919e-09
5.87356e-10
1.54346e-10
3.58884e-11
7.29031e-12
1.27505e-12
1.89595e-13
2.44255e-14
3.40266e-15
9.64648e-16
5.28821e-16
1
1
1
1
1
1
1
1
1
1
1
1
1
1
1
1
1
1
1
1
1
1
0.999999
0.999999
0.999997
0.999993
0.999985
0.999947
0.55198
0.00124127
1.6392e-06
1.14396e-06
7.27195e-07
3.9041e-07
1.90217e-07
8.55924e-08
3.56413e-08
1.36806e-08
4.81122e-09
1.53929e-09
4.44445e-10
1.14748e-10
2.62091e-11
5.2308e-12
9.00906e-13
1.33823e-13
1.86784e-14
3.74576e-15
1.63435e-15
1.00981e-15
1
1
1
1
1
1
1
1
1
1
1
1
1
1
1
1
1
1
1
1
1
1
0.999999
0.999998
0.999997
0.999992
0.999979
0.999879
0.384328
0.0002371
1.11244e-06
1.04931e-06
6.37622e-07
3.34449e-07
1.60138e-07
7.09207e-08
2.90721e-08
1.09825e-08
3.79993e-09
1.19571e-09
3.39454e-10
8.61517e-11
1.93432e-11
3.79934e-12
6.48484e-13
9.90951e-14
1.68252e-14
5.31122e-15
2.98575e-15
1.94434e-15
1
1
1
1
1
1
1
1
1
1
1
1
1
1
1
1
1
1
1
1
1
1
0.999999
0.999998
0.999996
0.999991
0.999983
0.999675
0.209841
4.42702e-05
1.08801e-06
9.42375e-07
5.51441e-07
2.83327e-07
1.33516e-07
5.82664e-08
2.35379e-08
8.76043e-09
2.98532e-09
9.24922e-10
2.58472e-10
6.45682e-11
1.42779e-11
2.77214e-12
4.7638e-13
7.99142e-14
1.90615e-14
8.8187e-15
5.59575e-15
3.74595e-15
1
1
1
1
1
1
1
1
1
1
1
1
1
1
1
1
1
1
1
1
1
1
0.999999
0.999998
0.999995
0.999991
0.999993
0.981753
0.0625818
8.9869e-06
1.07635e-06
8.07334e-07
4.55877e-07
2.29566e-07
1.06504e-07
4.58172e-08
1.82488e-08
6.69587e-09
2.24921e-09
6.86843e-10
1.89186e-10
4.6604e-11
1.0186e-11
1.97514e-12
3.55176e-13
7.38514e-14
2.67445e-14
1.56777e-14
1.05299e-14
7.18465e-15
1
1
1
1
1
1
1
1
1
1
1
1
1
1
1
1
1
1
1
1
1
1
0.999999
0.999997
0.999995
0.99999
0.999991
0.829024
0.0116936
2.75694e-06
1.0197e-06
6.93809e-07
3.79923e-07
1.87709e-07
8.57336e-08
3.63454e-08
1.42673e-08
5.15905e-09
1.70773e-09
5.13912e-10
1.39548e-10
3.39423e-11
7.37143e-12
1.45813e-12
2.96151e-13
8.67145e-14
4.40796e-14
2.89913e-14
2.00474e-14
1.38915e-14
1
1
1
1
1
1
1
1
1
1
1
1
1
1
1
1
1
1
1
1
1
0.999999
0.999999
0.999997
0.999994
0.999987
0.999969
0.642074
0.00199089
1.27894e-06
9.48165e-07
6.01833e-07
3.2078e-07
1.55602e-07
6.99462e-08
2.92034e-08
1.12899e-08
4.02012e-09
1.3104e-09
3.8842e-10
1.04002e-10
2.50467e-11
5.47151e-12
1.15635e-12
2.97743e-13
1.26389e-13
7.83974e-14
5.43839e-14
3.83139e-14
2.69209e-14
1
1
1
1
1
1
1
1
1
1
1
1
1
1
1
1
1
1
1
1
1
0.999999
0.999999
0.999997
0.999993
0.999982
0.999932
0.479881
0.000334846
8.83714e-07
8.7456e-07
5.27597e-07
2.74804e-07
1.31086e-07
5.80454e-08
2.38816e-08
9.09699e-09
3.19126e-09
1.02489e-09
2.99518e-10
7.92813e-11
1.906e-11
4.30822e-12
1.05595e-12
3.76539e-13
2.10605e-13
1.439e-13
1.02624e-13
7.3379e-14
5.22491e-14
1.77791e-16
8.57474e-18
3.46287e-19
2.69179e-20
1.05371e-20
5.37184e-21
2.75031e-21
1.39744e-21
7.04331e-22
3.52149e-22
1.74663e-22
8.59432e-23
4.1954e-23
2.03187e-23
9.76288e-24
4.65392e-24
2.20092e-24
1.03257e-24
4.80542e-25
2.21825e-25
1.01558e-25
4.61095e-26
2.07582e-26
9.26499e-27
4.09908e-27
1.79735e-27
7.80882e-28
3.36074e-28
1.43232e-28
6.04267e-29
2.52217e-29
1.04085e-29
4.24329e-30
1.70705e-30
6.76776e-31
2.64004e-31
1.01145e-31
3.79785e-32
1.39445e-32
4.99411e-33
1.74002e-33
5.88109e-34
1.92231e-34
6.05546e-35
1.83092e-35
5.28707e-36
1.44858e-36
3.73139e-37
8.91215e-38
1.92831e-38
1.14933e-16
5.54828e-18
2.66093e-19
4.3823e-20
2.10905e-20
1.10183e-20
5.7303e-21
2.95698e-21
1.5139e-21
7.69017e-22
3.87602e-22
1.93847e-22
9.61982e-23
4.73712e-23
2.31475e-23
1.12235e-23
5.39979e-24
2.57767e-24
1.22082e-24
5.73603e-25
2.67343e-25
1.23587e-25
5.66592e-26
2.5757e-26
1.16085e-26
5.186e-27
2.29598e-27
1.0071e-27
4.37523e-28
1.88185e-28
8.00938e-29
3.37099e-29
1.40183e-29
5.75374e-30
2.32788e-30
9.26946e-31
3.62622e-31
1.39086e-31
5.21892e-32
1.9112e-32
6.81325e-33
2.35799e-33
7.89928e-34
2.55311e-34
7.93111e-35
2.35702e-35
6.66101e-36
1.77515e-36
4.40583e-37
9.97584e-38
7.76039e-17
3.86531e-18
2.72297e-19
8.23453e-20
4.2889e-20
2.28117e-20
1.20509e-20
6.3174e-21
3.28637e-21
1.69658e-21
8.69209e-22
4.41957e-22
2.23023e-22
1.11696e-22
5.55192e-23
2.73879e-23
1.34082e-23
6.51409e-24
3.14037e-24
1.50216e-24
7.12874e-25
3.35603e-25
1.5671e-25
7.25709e-26
3.33237e-26
1.517e-26
6.84484e-27
3.06039e-27
1.35546e-27
5.94455e-28
2.58021e-28
1.10767e-28
4.69921e-29
1.96811e-29
8.12706e-30
3.30387e-30
1.31997e-30
5.17256e-31
1.9839e-31
7.43026e-32
2.71077e-32
9.60847e-33
3.29966e-33
1.09444e-33
3.49365e-34
1.0687e-34
3.11548e-35
8.58996e-36
2.21508e-36
5.24578e-37
4.78656e-17
2.68316e-18
3.63454e-19
1.60771e-19
8.68722e-20
4.69621e-20
2.52016e-20
1.34227e-20
7.09567e-21
3.72316e-21
1.93912e-21
1.00249e-21
5.1446e-22
2.62069e-22
1.32517e-22
6.65133e-23
3.31369e-23
1.63854e-23
8.04106e-24
3.91601e-24
1.89236e-24
9.07284e-25
4.31526e-25
2.03578e-25
9.52457e-26
4.41842e-26
2.0319e-26
9.26058e-27
4.18156e-27
1.86995e-27
8.27748e-28
3.62461e-28
1.56879e-28
6.70461e-29
2.82583e-29
1.17287e-29
4.78579e-30
1.91617e-30
7.51266e-31
2.87785e-31
1.07457e-31
3.90127e-32
1.3735e-32
4.67556e-33
1.53383e-33
4.82984e-34
1.45247e-34
4.14309e-35
1.10976e-35
2.74691e-36
3.12397e-17
2.35665e-18
6.17958e-19
3.20568e-19
1.76921e-19
9.71431e-20
5.29503e-20
2.86512e-20
1.53905e-20
8.20755e-21
4.34544e-21
2.28414e-21
1.19202e-21
6.17616e-22
3.17702e-22
1.62247e-22
8.22571e-23
4.13981e-23
2.06808e-23
1.02541e-23
5.04571e-24
2.46373e-24
1.19359e-24
5.73644e-25
2.73454e-25
1.29271e-25
6.05895e-26
2.81489e-26
1.29586e-26
5.90906e-27
2.66763e-27
1.19153e-27
5.26157e-28
2.29468e-28
9.87203e-29
4.18361e-29
1.74361e-29
7.13351e-30
2.85923e-30
1.12036e-30
4.28198e-31
1.59249e-31
5.74848e-32
2.00854e-32
6.77201e-33
2.19521e-33
6.8102e-34
2.00949e-34
5.58955e-35
1.44511e-35
2.08614e-17
2.74852e-18
1.14876e-18
6.36474e-19
3.5744e-19
1.9941e-19
1.10452e-19
6.07431e-20
3.31692e-20
1.79845e-20
9.68271e-21
5.17649e-21
2.748e-21
1.44857e-21
7.58221e-22
3.9407e-22
2.03354e-22
1.04185e-22
5.29905e-23
2.67543e-23
1.34074e-23
6.66811e-24
3.29086e-24
1.6114e-24
7.82732e-25
3.77101e-25
1.80154e-25
8.53222e-26
4.00477e-26
1.86219e-26
8.57409e-27
3.90663e-27
1.76007e-27
7.83344e-28
3.44004e-28
1.48856e-28
6.33687e-29
2.64926e-29
1.08562e-29
4.35155e-30
1.70247e-30
6.48625e-31
2.40075e-31
8.61028e-32
2.98374e-32
9.95689e-33
3.18637e-33
9.72463e-34
2.80805e-34
7.57715e-35
1.65862e-17
4.22758e-18
2.20581e-18
1.26098e-18
7.20047e-19
4.08324e-19
2.29929e-19
1.28572e-19
7.13967e-20
3.9373e-20
2.15633e-20
1.17282e-20
6.33507e-21
3.39835e-21
1.81041e-21
9.57768e-22
5.03153e-22
2.62463e-22
1.35934e-22
6.98948e-23
3.56756e-23
1.80741e-23
9.08751e-24
4.53394e-24
2.24428e-24
1.10198e-24
5.3662e-25
2.59092e-25
1.23994e-25
5.87953e-26
2.76104e-26
1.28331e-26
5.8991e-27
2.67937e-27
1.20111e-27
5.30711e-28
2.3078e-28
9.85965e-29
4.13092e-29
1.69392e-29
6.7842e-30
2.64801e-30
1.00501e-30
3.69999e-31
1.31783e-31
4.52708e-32
1.49433e-32
4.71623e-33
1.4132e-33
3.97708e-34
1.81712e-17
7.59102e-18
4.32649e-18
2.52318e-18
1.46375e-18
8.43341e-19
4.82568e-19
2.74254e-19
1.54809e-19
8.67963e-20
4.83359e-20
2.67366e-20
1.46895e-20
8.01627e-21
4.34499e-21
2.33906e-21
1.25058e-21
6.63994e-22
3.50083e-22
1.83269e-22
9.52519e-23
4.91446e-23
2.51675e-23
1.2791e-23
6.45059e-24
3.22736e-24
1.60161e-24
7.88178e-25
3.84518e-25
1.85897e-25
8.90211e-26
4.22007e-26
1.97895e-26
9.1716e-27
4.1964e-27
1.89309e-27
8.40804e-28
3.67056e-28
1.57221e-28
6.59488e-29
2.70366e-29
1.08106e-29
4.20695e-30
1.58973e-30
5.81907e-31
2.05757e-31
7.00421e-32
2.28536e-32
7.10295e-33
2.08299e-33
2.72356e-17
1.44912e-17
8.57249e-18
5.08202e-18
2.99387e-18
1.75194e-18
1.01838e-18
5.88056e-19
3.37333e-19
1.92236e-19
1.0883e-19
6.12075e-20
3.41976e-20
1.89808e-20
1.04654e-20
5.73186e-21
3.11827e-21
1.68493e-21
9.04193e-22
4.81852e-22
2.54973e-22
1.33953e-22
6.98603e-23
3.61636e-23
1.85782e-23
9.47008e-24
4.78883e-24
2.40174e-24
1.19431e-24
5.88635e-25
2.87418e-25
1.38955e-25
6.64682e-26
3.14309e-26
1.46772e-26
6.75989e-27
3.0664e-27
1.36781e-27
5.98949e-28
2.56995e-28
1.07846e-28
4.41744e-29
1.76255e-29
6.83604e-30
2.57147e-30
9.35791e-31
3.28465e-31
1.10768e-31
3.56921e-32
1.08984e-32
4.80944e-17
2.82129e-17
1.70535e-17
1.02675e-17
6.14207e-18
3.65035e-18
2.15545e-18
1.26456e-18
7.37139e-19
4.2694e-19
2.45694e-19
1.40485e-19
7.98122e-20
4.5051e-20
2.52652e-20
1.40768e-20
7.79159e-21
4.28408e-21
2.33971e-21
1.26911e-21
6.83629e-22
3.65662e-22
1.94187e-22
1.02373e-22
5.35675e-23
2.78161e-23
1.43312e-23
7.32416e-24
3.71189e-24
1.86484e-24
9.28341e-25
4.57667e-25
2.23291e-25
1.07722e-25
5.13341e-26
2.41359e-26
1.11811e-26
5.09581e-27
2.28103e-27
1.0011e-27
4.29995e-28
1.80413e-28
7.38011e-29
2.9376e-29
1.13544e-29
4.25199e-30
1.53855e-30
5.36071e-31
1.78992e-31
5.6859e-32
8.99778e-17
5.50595e-17
3.38618e-17
2.07074e-17
1.25827e-17
7.59725e-18
4.55819e-18
2.71763e-18
1.61012e-18
9.4798e-19
5.54637e-19
3.22468e-19
1.86305e-19
1.06959e-19
6.10163e-20
3.45857e-20
1.94778e-20
1.08981e-20
6.05738e-21
3.34431e-21
1.83387e-21
9.98674e-22
5.40028e-22
2.89926e-22
1.54515e-22
8.17322e-23
4.29011e-23
2.23406e-23
1.15386e-23
5.90871e-24
2.99867e-24
1.5074e-24
7.50072e-25
3.69148e-25
1.79514e-25
8.61585e-26
4.076e-26
1.89791e-26
8.68428e-27
3.89834e-27
1.71377e-27
7.36509e-28
3.08866e-28
1.26164e-28
5.01024e-29
1.93042e-29
7.19924e-30
2.59086e-30
8.9596e-31
2.95854e-31
1.72011e-16
1.07799e-16
6.73649e-17
4.18419e-17
2.5827e-17
1.58428e-17
9.65839e-18
5.85194e-18
3.52388e-18
2.10897e-18
1.25442e-18
7.41548e-19
4.35661e-19
2.54369e-19
1.47594e-19
8.51035e-20
4.87609e-20
2.77595e-20
1.57011e-20
8.82238e-21
4.92421e-21
2.72981e-21
1.50287e-21
8.21568e-22
4.45899e-22
2.4023e-22
1.28449e-22
6.81481e-23
3.58653e-23
1.87176e-23
9.68279e-24
4.96253e-24
2.51814e-24
1.26414e-24
6.27247e-25
3.07282e-25
1.48439e-25
7.06096e-26
3.30236e-26
1.51611e-26
6.8211e-27
3.00233e-27
1.29063e-27
5.40941e-28
2.20677e-28
8.74642e-29
3.36097e-29
1.24883e-29
4.47042e-30
1.53322e-30
3.3431e-16
2.13175e-16
1.35238e-16
8.52744e-17
5.34429e-17
3.32911e-17
2.06133e-17
1.26869e-17
7.76165e-18
4.71999e-18
2.85307e-18
1.71421e-18
1.02374e-18
6.07684e-19
3.5852e-19
2.10222e-19
1.22503e-19
7.09391e-20
4.08188e-20
2.33361e-20
1.32541e-20
7.47776e-21
4.1903e-21
2.33192e-21
1.28858e-21
7.06922e-22
3.84955e-22
2.08034e-22
1.11539e-22
5.93136e-23
3.12708e-23
1.63368e-23
8.4523e-24
4.3275e-24
2.19061e-24
1.09523e-24
5.40174e-25
2.62466e-25
1.25455e-25
5.88986e-26
2.71164e-26
1.22226e-26
5.38525e-27
2.31564e-27
9.70255e-28
3.95499e-28
1.56551e-28
6.00356e-29
2.22336e-29
7.91358e-30
6.54564e-16
4.2376e-16
2.72783e-16
1.74554e-16
1.11037e-16
7.02181e-17
4.41451e-17
2.75914e-17
1.71444e-17
1.05907e-17
6.50397e-18
3.97076e-18
2.40992e-18
1.45397e-18
8.72004e-19
5.1984e-19
3.08023e-19
1.81396e-19
1.06162e-19
6.17391e-20
3.5675e-20
2.048e-20
1.16791e-20
6.61518e-21
3.72109e-21
2.07838e-21
1.15246e-21
6.34279e-22
3.46402e-22
1.87669e-22
1.0082e-22
5.36838e-23
2.83155e-23
1.47836e-23
7.63382e-24
3.89469e-24
1.961e-24
9.73183e-25
4.75358e-25
2.28197e-25
1.07497e-25
4.96146e-26
2.24024e-26
9.88133e-27
4.25168e-27
1.78201e-27
7.26386e-28
2.87385e-28
1.10048e-28
4.06177e-29
1.28271e-15
8.4258e-16
5.50302e-16
3.57335e-16
2.30701e-16
1.48094e-16
9.45255e-17
5.9991e-17
3.78571e-17
2.37534e-17
1.48189e-17
9.19204e-18
5.66893e-18
3.47596e-18
2.11893e-18
1.28413e-18
7.73607e-19
4.63259e-19
2.75727e-19
1.63098e-19
9.58713e-20
5.59952e-20
3.24927e-20
1.87301e-20
1.07239e-20
6.09753e-21
3.44247e-21
1.92936e-21
1.07318e-21
5.9228e-22
3.24199e-22
1.75927e-22
9.45904e-23
5.03571e-23
2.65228e-23
1.38073e-23
7.09668e-24
3.59684e-24
1.79526e-24
8.8116e-25
4.24684e-25
2.00688e-25
9.28545e-26
4.20073e-26
1.85581e-26
7.99612e-27
3.35557e-27
1.36912e-27
5.41816e-28
2.07214e-28
2.50961e-15
1.67259e-15
1.10845e-15
7.30458e-16
4.78673e-16
3.11933e-16
2.02149e-16
1.30277e-16
8.34925e-17
5.32113e-17
3.37231e-17
2.12526e-17
1.33182e-17
8.29887e-18
5.14182e-18
3.16752e-18
1.94e-18
1.18121e-18
7.14934e-19
4.30104e-19
2.57163e-19
1.52801e-19
9.02139e-20
5.29177e-20
3.08354e-20
1.78465e-20
1.02574e-20
5.85352e-21
3.31582e-21
1.86396e-21
1.03944e-21
5.74777e-22
3.14993e-22
1.70972e-22
9.18412e-23
4.878e-23
2.55909e-23
1.32452e-23
6.75462e-24
3.3894e-24
1.67113e-24
8.08454e-25
3.83243e-25
1.77798e-25
8.06326e-26
3.57067e-26
1.54216e-26
6.48645e-27
2.65137e-27
1.04991e-27
4.88549e-15
3.30413e-15
2.2223e-15
1.48647e-15
9.88856e-16
6.54255e-16
4.3053e-16
2.81774e-16
1.83415e-16
1.1874e-16
7.64494e-17
4.8951e-17
3.11709e-17
1.97391e-17
1.24303e-17
7.7838e-18
4.84655e-18
3.00036e-18
1.84662e-18
1.12981e-18
6.87094e-19
4.15303e-19
2.49461e-19
1.48895e-19
8.82951e-20
5.2013e-20
3.04323e-20
1.76816e-20
1.01994e-20
5.83959e-21
3.31739e-21
1.86913e-21
1.04399e-21
5.777e-22
3.16473e-22
1.71485e-22
9.18205e-23
4.85275e-23
2.52835e-23
1.29694e-23
6.54104e-24
3.23922e-24
1.57307e-24
7.4829e-25
3.48303e-25
1.58487e-25
7.04278e-26
3.05253e-26
1.28812e-26
5.27762e-27
9.58053e-15
6.57195e-15
4.4839e-15
3.04291e-15
2.05404e-15
1.37921e-15
9.21193e-16
6.12031e-16
4.04471e-16
2.65879e-16
1.73841e-16
1.13053e-16
7.31252e-17
4.7043e-17
3.00992e-17
1.91525e-17
1.21195e-17
7.62603e-18
4.77128e-18
2.96792e-18
1.83532e-18
1.12815e-18
6.89249e-19
4.18489e-19
2.52486e-19
1.51347e-19
9.01214e-20
5.32989e-20
3.13007e-20
1.82483e-20
1.05582e-20
6.06023e-21
3.44917e-21
1.94543e-21
1.08665e-21
6.00604e-22
3.28166e-22
1.77069e-22
9.4238e-23
4.94077e-23
2.54851e-23
1.29166e-23
6.42477e-24
3.13295e-24
1.49634e-24
6.99417e-25
3.19669e-25
1.42712e-25
6.21357e-26
2.63217e-26
1.88206e-14
1.30888e-14
9.05505e-15
6.23197e-15
4.26695e-15
2.90654e-15
1.96973e-15
1.32802e-15
8.90749e-16
5.9436e-16
3.94525e-16
2.60507e-16
1.71111e-16
1.11799e-16
7.26589e-17
4.69692e-17
3.01985e-17
1.93097e-17
1.22786e-17
7.76367e-18
4.88078e-18
3.05051e-18
1.89527e-18
1.1704e-18
7.18311e-19
4.38069e-19
2.65437e-19
1.59769e-19
9.55094e-20
5.66918e-20
3.34031e-20
1.95293e-20
1.13248e-20
6.50994e-21
3.70722e-21
2.08981e-21
1.16509e-21
6.41754e-22
3.48851e-22
1.86917e-22
9.85954e-23
5.11366e-23
2.60485e-23
1.30191e-23
6.37923e-24
3.06223e-24
1.43908e-24
6.61493e-25
2.97016e-25
1.30002e-25
3.70168e-14
2.60919e-14
1.82983e-14
1.27682e-14
8.86502e-15
6.12447e-15
4.21015e-15
2.87978e-15
1.95994e-15
1.32718e-15
8.94148e-16
5.99333e-16
3.99668e-16
2.65152e-16
1.75002e-16
1.14901e-16
7.50448e-17
4.87525e-17
3.15007e-17
2.02419e-17
1.29346e-17
8.21828e-18
5.19148e-18
3.26013e-18
2.03498e-18
1.26244e-18
7.78253e-19
4.76672e-19
2.90018e-19
1.75241e-19
1.05132e-19
6.25996e-20
3.69801e-20
2.16621e-20
1.2575e-20
7.22881e-21
4.11161e-21
2.31163e-21
1.28327e-21
7.026e-22
3.78936e-22
2.01088e-22
1.04882e-22
5.37172e-23
2.69964e-23
1.33051e-23
6.42693e-24
3.04048e-24
1.40716e-24
6.35963e-25
3.60955e-39
1.93541e-39
1.03236e-39
5.47865e-40
2.8929e-40
1.51998e-40
7.94701e-41
4.13466e-41
2.14064e-41
1.10281e-41
5.65313e-42
2.88321e-42
1.46293e-42
7.38382e-43
3.70681e-43
1.85064e-43
9.18726e-44
4.53452e-44
2.22481e-44
1.08494e-44
5.25778e-45
2.53172e-45
1.21109e-45
5.7546e-46
2.71554e-46
1.2724e-46
5.91885e-47
2.73283e-47
1.25216e-47
5.69219e-48
2.56669e-48
1.1477e-48
5.08776e-49
2.23534e-49
9.73064e-50
4.19545e-50
1.79102e-50
7.56739e-51
3.16331e-51
1.3077e-51
5.34381e-52
2.15761e-52
8.60324e-53
3.38609e-53
1.31477e-53
5.03361e-54
1.89903e-54
7.05583e-55
2.58019e-55
9.28021e-56
3.2807e-56
1.13911e-56
3.88178e-57
1.29724e-57
4.24793e-58
1.36185e-58
4.27061e-59
1.30873e-59
3.91549e-60
1.1425e-60
3.24784e-61
8.98507e-62
2.41619e-62
6.30809e-63
1.59688e-63
3.91458e-64
9.27975e-65
2.12423e-65
4.68848e-66
9.96196e-67
2.03436e-67
3.98595e-68
7.47961e-69
1.34167e-69
2.29601e-70
3.74071e-71
5.78944e-72
8.49213e-73
1.17777e-73
1.54072e-74
1.89688e-75
2.19348e-76
2.37764e-77
2.40942e-78
2.27381e-79
1.99006e-80
1.60867e-81
1.19496e-82
8.10447e-84
4.98427e-85
2.76056e-86
1.36769e-87
6.03407e-89
2.36591e-90
8.16302e-92
2.44471e-93
6.30953e-95
1.38276e-96
2.50424e-98
3.73349e-100
4.51388e-102
4.02026e-104
2.57808e-106
1.04106e-108
2.25758e-111
2.60628e-114
3.73505e-117
1.92057e-120
4.25723e-124
7.96731e-130
1.51762e-196
3.25411e-198
6.59274e-200
1.26133e-201
2.27757e-203
3.87921e-205
6.22849e-207
9.42141e-209
1.34171e-210
1.79769e-212
2.26449e-214
2.67978e-216
2.97693e-218
3.10191e-220
3.02955e-222
2.77053e-224
2.3712e-226
1.89857e-228
1.42069e-230
9.91639e-233
6.45638e-235
3.9154e-237
2.20926e-239
1.1581e-241
5.63147e-244
2.53567e-246
1.05429e-248
4.04009e-251
1.42396e-253
4.60608e-256
1.36441e-258
3.69726e-261
9.13384e-264
2.05191e-266
4.19683e-269
7.76248e-272
1.28797e-274
1.90041e-277
2.47123e-280
2.80634e-283
2.75261e-286
2.30124e-289
1.61309e-292
9.28597e-296
4.27466e-299
1.52055e-302
4.00399e-306
7.47122e-310
9.45083e-314
0
0
0
0
0
0
0
0
0
0
0
0
0
0
0
0
0
0
0
0
0
0
0
0
0
0
0
0
0
0
0
0
0
0
0
0
0
0
0
0
0
0
0
0
0
0
0
0
0
0
0
0
0
0
0
0
0
0
0
0
0
0
0
0
0
0
0
0
0
0
0
0
0
0
0
0
0
0
0
0
0
0
0
0
0
0
0
0
0
0
0
0
0
0
0
0
0
0
0
0
0
0
0
0
0
0
0
0
0
0
0
0
0
0
0
0
0
0
0
0
0
0
0
0
0
0
0
0
0
0
0
0
0
0
0
0
0
0
0
0
0
1.98034e-38
1.07735e-38
5.83137e-39
3.14058e-39
1.68308e-39
8.97585e-40
4.7636e-40
2.51586e-40
1.32227e-40
6.91545e-41
3.59884e-41
1.86343e-41
9.59909e-42
4.9189e-42
2.50712e-42
1.27085e-42
6.40579e-43
3.2103e-43
1.59938e-43
7.92011e-44
3.89777e-44
1.90608e-44
9.26063e-45
4.46933e-45
2.14228e-45
1.01968e-45
4.81866e-46
2.26037e-46
1.05228e-46
4.86051e-47
2.22706e-47
1.01197e-47
4.55899e-48
2.03568e-48
9.00644e-49
3.94688e-49
1.7126e-49
7.35525e-50
3.12539e-50
1.31339e-50
5.45601e-51
2.23947e-51
9.07806e-52
3.63243e-52
1.43392e-52
5.58134e-53
2.14082e-53
8.08702e-54
3.00668e-54
1.09948e-54
3.95173e-55
1.39499e-55
4.83298e-56
1.64199e-56
5.46609e-57
1.7814e-57
5.67844e-58
1.76877e-58
5.37844e-59
1.59492e-59
4.60732e-60
1.29509e-60
3.5382e-61
9.38349e-62
2.41264e-62
6.00602e-63
1.44559e-63
3.3592e-64
7.5249e-65
1.62238e-65
3.361e-66
6.67877e-67
1.27071e-67
2.3104e-68
4.00638e-69
6.61192e-70
1.03622e-70
1.53856e-71
2.1591e-72
2.8568e-73
3.55601e-74
4.15583e-75
4.55103e-76
4.65744e-77
4.43658e-78
3.91699e-79
3.19183e-80
2.3883e-81
1.63039e-82
1.00841e-83
5.61195e-85
2.79134e-86
1.23569e-87
4.86117e-89
1.68228e-90
5.05039e-92
1.30589e-93
2.86301e-95
5.17494e-97
7.69031e-99
9.29095e-101
8.26993e-103
5.29709e-105
2.13929e-107
4.59298e-110
5.17211e-113
7.42042e-116
3.75391e-119
8.09471e-123
1.49504e-128
1.15411e-193
2.5227e-195
5.20887e-197
1.01542e-198
1.86778e-200
3.23992e-202
5.29677e-204
8.15617e-206
1.18217e-207
1.61174e-209
2.06551e-211
2.48629e-213
2.8089e-215
2.97602e-217
2.95489e-219
2.7467e-221
2.38898e-223
1.94339e-225
1.47716e-227
1.04712e-229
6.92319e-232
4.26306e-234
2.44225e-236
1.29985e-238
6.41795e-241
2.93462e-243
1.23911e-245
4.82153e-248
1.72534e-250
5.66527e-253
1.70333e-255
4.68292e-258
1.17368e-260
2.67582e-263
5.55643e-266
1.04427e-268
1.76208e-271
2.64641e-274
3.50515e-277
4.05753e-280
4.06055e-283
3.46763e-286
2.48703e-289
1.46841e-292
6.95845e-296
2.56224e-299
7.04111e-303
1.38337e-306
1.8488e-310
1.51073e-314
0
0
0
0
0
0
0
0
0
0
0
0
0
0
0
0
0
0
0
0
0
0
0
0
0
0
0
0
0
0
0
0
0
0
0
0
0
0
0
0
0
0
0
0
0
0
0
0
0
0
0
0
0
0
0
0
0
0
0
0
0
0
0
0
0
0
0
0
0
0
0
0
0
0
0
0
0
0
0
0
0
0
0
0
0
0
0
0
0
0
0
0
0
0
0
0
0
0
0
0
0
0
0
0
0
0
0
0
0
0
0
0
0
0
0
0
0
0
0
0
0
0
0
0
0
0
0
0
0
0
0
0
0
0
0
0
0
0
0
0
1.10266e-37
6.08519e-38
3.34149e-38
1.82588e-38
9.92866e-39
5.37296e-39
2.89365e-39
1.55092e-39
8.27234e-40
4.39084e-40
2.31909e-40
1.21872e-40
6.37189e-41
3.31407e-41
1.71449e-41
8.82136e-42
4.51343e-42
2.29609e-42
1.16125e-42
5.83785e-43
2.91682e-43
1.44821e-43
7.14419e-44
3.50109e-44
1.70417e-44
8.23765e-45
3.95363e-45
1.88367e-45
8.90712e-46
4.17924e-46
1.94526e-46
8.97985e-47
4.11005e-47
1.8646e-47
8.38192e-48
3.7323e-48
1.64562e-48
7.18183e-49
3.10113e-49
1.32435e-49
5.59097e-50
2.33224e-50
9.60828e-51
3.90737e-51
1.56767e-51
6.20178e-52
2.41776e-52
9.28276e-53
3.50779e-53
1.30374e-53
4.76259e-54
1.70874e-54
6.01664e-55
2.07746e-55
7.02824e-56
2.32764e-56
7.53957e-57
2.38628e-57
7.37234e-58
2.221e-58
6.51744e-59
1.86079e-59
5.16292e-60
1.39038e-60
3.62954e-61
9.17202e-62
2.24059e-62
5.28335e-63
1.20071e-63
2.62574e-64
5.516e-65
1.1112e-65
2.14269e-66
3.94716e-67
6.93259e-68
1.15843e-68
1.83754e-69
2.76046e-70
3.91785e-71
5.2407e-72
6.59217e-73
7.78226e-74
8.60551e-75
8.88912e-76
8.54253e-77
7.60409e-78
6.24288e-79
4.70283e-80
3.22959e-81
2.00777e-82
1.12206e-83
5.59963e-85
2.48585e-86
9.8065e-88
3.40214e-89
1.02334e-90
2.64974e-92
5.80852e-94
1.04724e-95
1.55021e-97
1.87054e-99
1.66336e-101
1.0637e-103
4.2952e-106
9.12845e-109
1.00209e-111
1.439e-114
7.16301e-118
1.5013e-121
2.73559e-127
8.61027e-191
1.9185e-192
4.03705e-194
8.01839e-196
1.50241e-197
2.65413e-199
4.41803e-201
6.92534e-203
1.0216e-204
1.4173e-206
1.84789e-208
2.26257e-210
2.59965e-212
2.80071e-214
2.82717e-216
2.67135e-218
2.36131e-220
1.95173e-222
1.507e-224
1.08502e-226
7.28537e-229
4.55534e-231
2.64979e-233
1.432e-235
7.17941e-238
3.33384e-240
1.42958e-242
5.64885e-245
2.05245e-247
6.84182e-250
2.08808e-252
5.82477e-255
1.4811e-257
3.42668e-260
7.22273e-263
1.37892e-265
2.36553e-268
3.61522e-271
4.87608e-274
5.75288e-277
5.87341e-280
5.12349e-283
3.76014e-286
2.2775e-289
1.11126e-292
4.23611e-296
1.21421e-299
2.5076e-303
3.53406e-307
3.0186e-311
1.11305e-315
0
0
0
0
0
0
0
0
0
0
0
0
0
0
0
0
0
0
0
0
0
0
0
0
0
0
0
0
0
0
0
0
0
0
0
0
0
0
0
0
0
0
0
0
0
0
0
0
0
0
0
0
0
0
0
0
0
0
0
0
0
0
0
0
0
0
0
0
0
0
0
0
0
0
0
0
0
0
0
0
0
0
0
0
0
0
0
0
0
0
0
0
0
0
0
0
0
0
0
0
0
0
0
0
0
0
0
0
0
0
0
0
0
0
0
0
0
0
0
0
0
0
0
0
0
0
0
0
0
0
0
0
0
0
0
0
0
0
0
6.10146e-37
3.41525e-37
1.90233e-37
1.05451e-37
5.81748e-38
3.19409e-38
1.74538e-38
9.49208e-39
5.13741e-39
2.76706e-39
1.48305e-39
7.90896e-40
4.19634e-40
2.21494e-40
1.16292e-40
6.07259e-41
3.15346e-41
1.62828e-41
8.35884e-42
4.26556e-42
2.16351e-42
1.09051e-42
5.46171e-43
2.71758e-43
1.34314e-43
6.59278e-44
3.21325e-44
1.55476e-44
7.46672e-45
3.55835e-45
1.68233e-45
7.88872e-46
3.66783e-46
1.69041e-46
7.71991e-47
3.4924e-47
1.56449e-47
6.93725e-48
3.04366e-48
1.32073e-48
5.66561e-49
2.40154e-49
1.00538e-49
4.15477e-50
1.69396e-50
6.81009e-51
2.698e-51
1.0527e-51
4.04256e-52
1.52689e-52
5.66826e-53
2.06663e-53
7.39457e-54
2.59446e-54
8.91867e-55
3.00114e-55
9.87658e-56
3.17571e-56
9.96666e-57
3.04984e-57
9.08961e-58
2.63545e-58
7.42482e-59
2.03e-59
5.3792e-60
1.37962e-60
3.41986e-61
8.18117e-62
1.88586e-62
4.18203e-63
8.9066e-64
1.8185e-64
3.55292e-65
6.62953e-66
1.17902e-66
1.99422e-67
3.20081e-68
4.8636e-69
6.97919e-70
9.43512e-71
1.19896e-71
1.42931e-72
1.5954e-73
1.66282e-74
1.61154e-75
1.44577e-76
1.19544e-77
9.06275e-79
6.25844e-80
3.9091e-81
2.19289e-82
1.09753e-83
4.88388e-85
1.93129e-86
6.71459e-88
2.02299e-89
5.24389e-91
1.14898e-92
2.06545e-94
3.04397e-96
3.6671e-98
3.25722e-100
2.079e-102
8.39287e-105
1.76567e-107
1.88862e-110
2.71447e-113
1.32989e-116
2.70724e-120
4.86605e-126
6.30856e-188
1.43277e-189
3.0724e-191
6.21728e-193
1.1866e-194
2.13475e-196
3.61802e-198
5.77312e-200
8.66749e-202
1.22358e-203
1.62303e-205
2.02144e-207
2.36214e-209
2.58774e-211
2.65579e-213
2.55091e-215
2.29169e-217
1.9247e-219
1.50975e-221
1.10409e-223
7.52914e-226
4.7806e-228
2.82362e-230
1.54942e-232
7.88797e-235
3.71981e-237
1.61992e-239
6.50031e-242
2.39821e-244
8.11649e-247
2.51457e-249
7.1177e-252
1.83628e-254
4.31109e-257
9.22208e-260
1.78803e-262
3.11759e-265
4.84728e-268
6.65644e-271
8.00333e-274
8.33569e-277
7.42786e-280
5.57888e-283
3.46711e-286
1.74216e-289
6.87471e-293
2.05386e-296
4.45046e-300
6.5956e-304
5.8752e-308
2.37821e-312
0
0
0
0
0
0
0
0
0
0
0
0
0
0
0
0
0
0
0
0
0
0
0
0
0
0
0
0
0
0
0
0
0
0
0
0
0
0
0
0
0
0
0
0
0
0
0
0
0
0
0
0
0
0
0
0
0
0
0
0
0
0
0
0
0
0
0
0
0
0
0
0
0
0
0
0
0
0
0
0
0
0
0
0
0
0
0
0
0
0
0
0
0
0
0
0
0
0
0
0
0
0
0
0
0
0
0
0
0
0
0
0
0
0
0
0
0
0
0
0
0
0
0
0
0
0
0
0
0
0
0
0
0
0
0
0
0
0
0
3.38641e-36
1.92235e-36
1.08602e-36
6.10628e-37
3.41712e-37
1.90325e-37
1.05507e-37
5.82117e-38
3.19644e-38
1.74673e-38
9.49859e-39
5.13962e-39
2.76695e-39
1.48193e-39
7.8951e-40
4.18355e-40
2.20464e-40
1.15525e-40
6.01883e-41
3.11733e-41
1.60483e-41
8.21092e-42
4.17449e-42
2.10862e-42
1.05804e-42
5.27283e-43
2.60938e-43
1.28203e-43
6.25223e-44
3.02582e-44
1.45285e-44
6.91906e-45
3.2674e-45
1.52952e-45
7.0952e-46
3.26048e-46
1.48371e-46
6.68339e-47
2.97888e-47
1.3132e-47
5.72311e-48
2.46465e-48
1.0483e-48
4.40149e-49
1.8233e-49
7.44765e-50
2.99793e-50
1.18849e-50
4.63727e-51
1.77961e-51
6.71229e-52
2.48645e-52
9.03881e-53
3.22191e-53
1.12516e-53
3.84612e-54
1.2857e-54
4.19891e-55
1.33836e-55
4.15896e-56
1.25861e-56
3.70499e-57
1.05961e-57
2.94049e-58
7.90742e-59
2.05776e-59
5.17458e-60
1.25552e-60
2.93469e-61
6.59748e-62
1.42405e-62
2.94597e-63
5.83001e-64
1.10153e-64
1.98298e-65
3.39391e-66
5.51006e-67
8.46553e-68
1.22779e-68
1.6769e-69
2.1519e-70
2.58949e-71
2.91645e-72
3.06579e-73
2.99519e-74
2.70701e-75
2.25328e-76
1.71838e-77
1.19275e-78
7.48173e-80
4.21086e-81
2.11257e-82
9.41853e-84
3.73178e-85
1.29972e-86
3.92077e-88
1.01709e-89
2.22664e-91
3.98915e-93
5.84981e-95
7.03326e-97
6.23852e-99
3.97297e-101
1.60319e-103
3.33856e-106
3.47803e-109
5.00272e-112
2.41293e-115
4.76784e-119