/*--------------------------------*- C++ -*----------------------------------*\
| =========                 |                                                 |
| \\      /  F ield         | OpenFOAM: The Open Source CFD Toolbox           |
|  \\    /   O peration     | Version:  2.4.0                                 |
|   \\  /    A nd           | Web:      www.OpenFOAM.org                      |
|    \\/     M anipulation  |                                                 |
\*---------------------------------------------------------------------------*/
FoamFile
{
    version     2.0;
    format      ascii;
    class       volScalarField;
    location    "1.4";
    object      p;
}
// * * * * * * * * * * * * * * * * * * * * * * * * * * * * * * * * * * * * * //

dimensions      [1 -1 -2 0 0 0 0];

internalField   nonuniform List<scalar> 
8000
(
0.325214
0.318708
0.312865
0.30825
0.304432
0.301146
0.298299
0.29585
0.293757
0.291982
0.290486
0.289243
0.288226
0.287419
0.286802
0.286372
0.286115
0.286035
0.286125
0.286407
0.286895
0.287614
0.288429
0.288994
0.289383
0.293239
0.31044
0.338879
0.286874
-0.0959164
-0.738281
-0.099945
-0.0118678
-0.0115623
-0.0115805
-0.0116
-0.0116044
-0.0116033
-0.011602
-0.0116013
-0.0116007
-0.0116003
-0.0115999
-0.0115997
-0.0115996
-0.0115996
-0.0115996
-0.0115996
-0.0115996
-0.0115996
0.0127304
0.00774028
0.00198104
-0.0032083
-0.00770449
-0.0116401
-0.0150911
-0.0180836
-0.0206292
-0.0227403
-0.0244273
-0.0256996
-0.0265631
-0.0270223
-0.0270789
-0.0267324
-0.0259814
-0.0248204
-0.0232443
-0.0212381
-0.0187782
-0.0158561
-0.0125817
-0.00924046
-0.0056763
0.0013935
0.0197324
0.0446061
-0.00518459
-0.324944
-0.78782
-0.0834214
-0.0350779
-0.0348317
-0.0348715
-0.0348933
-0.034895
-0.0348915
-0.0348886
-0.0348865
-0.0348847
-0.034883
-0.0348814
-0.0348801
-0.0348789
-0.0348778
-0.0348768
-0.0348757
-0.0348747
-0.0348738
0.0770307
0.0748954
0.0727389
0.0706908
0.0686491
0.066563
0.0644252
0.0622398
0.0600056
0.0577222
0.0553853
0.0529939
0.0505425
0.0480302
0.0454502
0.0428021
0.0400772
0.0372754
0.0343861
0.0314158
0.0283606
0.0252157
0.0218475
0.0180053
0.0139046
0.0124845
0.0201966
0.030739
-0.0304043
-0.325878
-0.713815
-0.0807773
-0.0582612
-0.0580194
-0.0580684
-0.058092
-0.0580943
-0.0580918
-0.05809
-0.0580891
-0.0580882
-0.0580874
-0.0580867
-0.0580861
-0.0580856
-0.058085
-0.0580845
-0.058084
-0.0580835
-0.0580829
-0.0850625
-0.0862002
-0.0876306
-0.0890794
-0.0905053
-0.0919223
-0.0933386
-0.0947523
-0.0961618
-0.0975642
-0.0989602
-0.100348
-0.101729
-0.103103
-0.104472
-0.105837
-0.107202
-0.108565
-0.109936
-0.111306
-0.11268
-0.114073
-0.115623
-0.117488
-0.119154
-0.117586
-0.108642
-0.106181
-0.187239
-0.453636
-0.581472
-0.0852966
-0.081483
-0.0813021
-0.0813443
-0.0813634
-0.0813636
-0.0813598
-0.081357
-0.0813548
-0.0813528
-0.0813509
-0.0813493
-0.0813477
-0.0813463
-0.0813449
-0.0813435
-0.0813422
-0.0813409
-0.0813396
-0.123266
-0.122976
-0.122754
-0.122764
-0.123024
-0.123516
-0.12423
-0.125162
-0.126309
-0.127669
-0.129243
-0.131028
-0.133027
-0.13524
-0.13767
-0.140319
-0.143195
-0.146296
-0.149635
-0.153207
-0.157023
-0.16111
-0.16561
-0.170619
-0.175442
-0.17708
-0.173128
-0.182044
-0.279643
-0.522783
-0.492915
-0.105787
-0.104603
-0.104538
-0.104568
-0.104579
-0.104578
-0.104575
-0.104572
-0.10457
-0.104568
-0.104567
-0.104565
-0.104564
-0.104562
-0.104561
-0.10456
-0.104559
-0.104558
-0.104556
-0.1787
-0.179064
-0.179605
-0.180248
-0.180971
-0.181774
-0.182657
-0.183619
-0.184659
-0.185774
-0.186964
-0.188227
-0.189564
-0.190972
-0.192455
-0.19401
-0.195641
-0.197344
-0.199124
-0.200964
-0.202874
-0.20493
-0.207393
-0.210247
-0.211353
-0.204438
-0.189879
-0.222652
-0.461647
-0.886564
-0.35717
-0.128209
-0.127762
-0.127796
-0.127821
-0.127824
-0.127821
-0.127818
-0.127815
-0.127813
-0.127811
-0.127809
-0.127808
-0.127806
-0.127804
-0.127803
-0.127801
-0.1278
-0.127799
-0.127797
-0.160576
-0.162613
-0.164747
-0.16666
-0.168384
-0.169974
-0.171443
-0.172795
-0.174026
-0.175138
-0.176127
-0.176994
-0.177733
-0.178343
-0.178816
-0.17915
-0.179333
-0.179364
-0.179219
-0.178882
-0.178341
-0.177742
-0.177434
-0.177207
-0.173181
-0.15592
-0.131092
-0.196699
-0.591841
-1.16182
-0.216755
-0.151225
-0.150956
-0.151009
-0.151034
-0.151036
-0.151033
-0.151031
-0.151029
-0.151028
-0.151027
-0.151026
-0.151025
-0.151024
-0.151023
-0.151022
-0.151021
-0.151019
-0.151018
-0.151017
-0.214713
-0.216533
-0.21852
-0.220376
-0.222119
-0.223793
-0.225413
-0.22698
-0.228494
-0.229957
-0.231369
-0.232731
-0.234042
-0.235303
-0.236509
-0.237664
-0.238761
-0.239801
-0.240772
-0.241665
-0.242482
-0.243348
-0.244486
-0.245566
-0.243489
-0.232221
-0.220542
-0.286578
-0.580587
-0.887825
-0.184619
-0.174425
-0.174193
-0.174244
-0.174267
-0.174269
-0.174265
-0.174263
-0.174261
-0.17426
-0.174258
-0.174257
-0.174256
-0.174254
-0.174253
-0.174252
-0.174251
-0.17425
-0.174248
-0.174247
-0.288596
-0.288835
-0.289265
-0.289874
-0.290651
-0.291592
-0.292695
-0.29396
-0.295385
-0.296974
-0.298724
-0.30064
-0.302723
-0.304979
-0.307409
-0.310024
-0.312823
-0.31582
-0.31901
-0.322407
-0.32603
-0.330026
-0.334541
-0.339016
-0.340404
-0.33501
-0.338063
-0.427108
-0.69215
-0.737825
-0.199629
-0.197581
-0.197455
-0.197493
-0.197508
-0.197507
-0.197504
-0.197501
-0.197498
-0.197496
-0.197494
-0.197492
-0.19749
-0.197488
-0.197487
-0.197485
-0.197484
-0.197482
-0.19748
-0.197479
-0.299868
-0.300085
-0.300412
-0.30088
-0.301493
-0.302248
-0.303139
-0.304164
-0.305319
-0.306606
-0.308022
-0.309569
-0.311245
-0.313057
-0.315002
-0.31709
-0.319319
-0.3217
-0.324226
-0.32691
-0.329793
-0.333055
-0.336757
-0.339817
-0.338354
-0.330769
-0.345323
-0.479573
-0.768505
-0.573343
-0.221361
-0.22068
-0.220684
-0.220712
-0.220719
-0.220717
-0.220715
-0.220713
-0.220711
-0.220709
-0.220708
-0.220707
-0.220706
-0.220704
-0.220703
-0.220702
-0.220701
-0.2207
-0.220698
-0.220697
-0.305034
-0.306409
-0.307972
-0.309474
-0.31091
-0.31231
-0.313683
-0.315028
-0.316343
-0.317627
-0.318878
-0.320093
-0.321271
-0.322408
-0.323503
-0.324551
-0.325548
-0.326483
-0.327336
-0.328098
-0.328919
-0.330217
-0.331936
-0.330149
-0.313901
-0.285037
-0.34369
-0.768768
-1.49275
-0.453046
-0.24429
-0.243887
-0.243946
-0.243975
-0.243976
-0.243971
-0.243967
-0.243964
-0.243961
-0.243959
-0.243956
-0.243954
-0.243952
-0.243949
-0.243947
-0.243945
-0.243943
-0.243941
-0.243939
-0.243937
-0.281569
-0.284305
-0.287183
-0.28976
-0.292075
-0.294198
-0.29615
-0.297932
-0.299544
-0.300984
-0.302256
-0.303355
-0.304282
-0.305033
-0.305606
-0.305993
-0.306195
-0.306193
-0.305971
-0.305522
-0.305
-0.304753
-0.304548
-0.300474
-0.283225
-0.259116
-0.326831
-0.721232
-1.27606
-0.31438
-0.267357
-0.267079
-0.267137
-0.267165
-0.267167
-0.267164
-0.267162
-0.26716
-0.267159
-0.267158
-0.267157
-0.267156
-0.267155
-0.267154
-0.267153
-0.267152
-0.267151
-0.26715
-0.267149
-0.267148
-0.341145
-0.34317
-0.345437
-0.347598
-0.349662
-0.351675
-0.353654
-0.3556
-0.357513
-0.359395
-0.361249
-0.363073
-0.364872
-0.366644
-0.368392
-0.370114
-0.371815
-0.373483
-0.375115
-0.376718
-0.378428
-0.380487
-0.382535
-0.381279
-0.370391
-0.35954
-0.432062
-0.745641
-1.05853
-0.299538
-0.290571
-0.290329
-0.290384
-0.290409
-0.29041
-0.290406
-0.290404
-0.290402
-0.2904
-0.290398
-0.290397
-0.290396
-0.290394
-0.290393
-0.290391
-0.29039
-0.290388
-0.290387
-0.290386
-0.290384
-0.389094
-0.38989
-0.390872
-0.391947
-0.393119
-0.394396
-0.395783
-0.397275
-0.398875
-0.40058
-0.402394
-0.404314
-0.406346
-0.408487
-0.410747
-0.413122
-0.415623
-0.418241
-0.420984
-0.42387
-0.42705
-0.430688
-0.43421
-0.434309
-0.426663
-0.426816
-0.518566
-0.807696
-0.900619
-0.315748
-0.313705
-0.31358
-0.31362
-0.313636
-0.313636
-0.313632
-0.313629
-0.313627
-0.313625
-0.313623
-0.313621
-0.313619
-0.313618
-0.313616
-0.313614
-0.313613
-0.313611
-0.31361
-0.313608
-0.313607
-0.411882
-0.412391
-0.413048
-0.413821
-0.414717
-0.415735
-0.416876
-0.418135
-0.419511
-0.421002
-0.42261
-0.424332
-0.426173
-0.42813
-0.43021
-0.432412
-0.434744
-0.437197
-0.439781
-0.442532
-0.445626
-0.449154
-0.452074
-0.450409
-0.441856
-0.453622
-0.586354
-0.892345
-0.745555
-0.337565
-0.336825
-0.336832
-0.336862
-0.336869
-0.336867
-0.336863
-0.336861
-0.336859
-0.336857
-0.336855
-0.336853
-0.336852
-0.33685
-0.336849
-0.336847
-0.336845
-0.336844
-0.336842
-0.336841
-0.336839
-0.420815
-0.421855
-0.423089
-0.424347
-0.425625
-0.426939
-0.428297
-0.429695
-0.431133
-0.432609
-0.434125
-0.435677
-0.437268
-0.438897
-0.440567
-0.442277
-0.444028
-0.445806
-0.447622
-0.449561
-0.45191
-0.45466
-0.45549
-0.447556
-0.431162
-0.465888
-0.7248
-1.18873
-0.612507
-0.360431
-0.360005
-0.360064
-0.360093
-0.360096
-0.360093
-0.36009
-0.360088
-0.360086
-0.360084
-0.360083
-0.360081
-0.36008
-0.360078
-0.360076
-0.360075
-0.360073
-0.360071
-0.36007
-0.360068
-0.360066
-0.393758
-0.396378
-0.399171
-0.401693
-0.403969
-0.406065
-0.407999
-0.409773
-0.411384
-0.412833
-0.414116
-0.415233
-0.416178
-0.41695
-0.41754
-0.417947
-0.418148
-0.418123
-0.417861
-0.417525
-0.417581
-0.417848
-0.413705
-0.393225
-0.361135
-0.435822
-0.921277
-1.66123
-0.471791
-0.383555
-0.383248
-0.38331
-0.383337
-0.383338
-0.383332
-0.383328
-0.383325
-0.383323
-0.38332
-0.383318
-0.383316
-0.383314
-0.383312
-0.38331
-0.383308
-0.383306
-0.383304
-0.383302
-0.3833
-0.383298
-0.417776
-0.420497
-0.42341
-0.426058
-0.428471
-0.430716
-0.432815
-0.434769
-0.436577
-0.438241
-0.439761
-0.44114
-0.442373
-0.443464
-0.444408
-0.445207
-0.445847
-0.446322
-0.446627
-0.446909
-0.447485
-0.448087
-0.445143
-0.430433
-0.41076
-0.477511
-0.836938
-1.31795
-0.423597
-0.40675
-0.406471
-0.406534
-0.406561
-0.406562
-0.406557
-0.406554
-0.406552
-0.40655
-0.406548
-0.406546
-0.406544
-0.406543
-0.406541
-0.406539
-0.406537
-0.406535
-0.406534
-0.406532
-0.40653
-0.406528
-0.493904
-0.495079
-0.496492
-0.497957
-0.499467
-0.501045
-0.502695
-0.504421
-0.506221
-0.508097
-0.510048
-0.51208
-0.51419
-0.516386
-0.518666
-0.521038
-0.523495
-0.526039
-0.528682
-0.531576
-0.534945
-0.538351
-0.538388
-0.529206
-0.522792
-0.605508
-0.92229
-1.16306
-0.433154
-0.429898
-0.42972
-0.429769
-0.42979
-0.42979
-0.429786
-0.429783
-0.42978
-0.429778
-0.429776
-0.429775
-0.429773
-0.429771
-0.429769
-0.429768
-0.429766
-0.429764
-0.429763
-0.429761
-0.429759
-0.429757
-0.521997
-0.52264
-0.523422
-0.524293
-0.525261
-0.526334
-0.527512
-0.528792
-0.530172
-0.531654
-0.533233
-0.534915
-0.536695
-0.53858
-0.540566
-0.542663
-0.544858
-0.54716
-0.549587
-0.552298
-0.555444
-0.558324
-0.55738
-0.548627
-0.550711
-0.653791
-0.953938
-0.998691
-0.453971
-0.452998
-0.452983
-0.453016
-0.453026
-0.453023
-0.45302
-0.453017
-0.453014
-0.453012
-0.45301
-0.453008
-0.453007
-0.453005
-0.453003
-0.453001
-0.452999
-0.452998
-0.452996
-0.452994
-0.452992
-0.45299
-0.0115996
-0.0115996
-0.0115997
-0.0115997
-0.0115997
-0.0115998
-0.0115998
-0.0115999
-0.0116
-0.0116
-0.0116001
-0.0116002
-0.0116002
-0.0116003
-0.0116004
-0.0116005
-0.0116006
-0.0116007
-0.0116008
-0.0116009
-0.011601
-0.0116011
-0.0116013
-0.0116014
-0.0116015
-0.0116016
-0.0116018
-0.0116019
-0.011602
-0.0116022
-0.0116023
-0.0116024
-0.0116026
-0.0116027
-0.0116028
-0.011603
-0.0116031
-0.0116032
-0.0116034
-0.0116035
-0.0116037
-0.0116038
-0.0116039
-0.0116041
-0.0116042
-0.0116043
-0.0116045
-0.0116046
-0.0116048
-0.0116049
-0.0348729
-0.034872
-0.0348711
-0.0348702
-0.0348694
-0.0348686
-0.0348678
-0.0348671
-0.0348663
-0.0348656
-0.0348649
-0.0348642
-0.0348635
-0.0348628
-0.0348622
-0.0348615
-0.0348609
-0.0348603
-0.0348597
-0.0348591
-0.0348585
-0.0348579
-0.0348573
-0.0348567
-0.0348562
-0.0348557
-0.0348551
-0.0348546
-0.0348541
-0.0348535
-0.034853
-0.0348525
-0.034852
-0.0348516
-0.0348511
-0.0348506
-0.0348501
-0.0348497
-0.0348492
-0.0348488
-0.0348483
-0.0348479
-0.0348474
-0.034847
-0.0348466
-0.0348462
-0.0348457
-0.0348453
-0.0348449
-0.0348445
-0.0580824
-0.0580819
-0.0580813
-0.0580808
-0.0580802
-0.0580797
-0.0580792
-0.0580786
-0.0580781
-0.0580776
-0.0580771
-0.0580766
-0.0580761
-0.0580756
-0.0580751
-0.0580746
-0.0580741
-0.0580737
-0.0580732
-0.0580727
-0.0580723
-0.0580718
-0.0580714
-0.058071
-0.0580705
-0.0580701
-0.0580697
-0.0580692
-0.0580688
-0.0580684
-0.058068
-0.0580676
-0.0580672
-0.0580668
-0.0580664
-0.058066
-0.0580657
-0.0580653
-0.0580649
-0.0580645
-0.0580641
-0.0580638
-0.0580634
-0.058063
-0.0580627
-0.0580623
-0.0580619
-0.0580616
-0.0580612
-0.0580608
-0.0813383
-0.081337
-0.0813358
-0.0813346
-0.0813334
-0.0813322
-0.0813311
-0.08133
-0.0813288
-0.0813277
-0.0813267
-0.0813256
-0.0813246
-0.0813235
-0.0813225
-0.0813215
-0.0813205
-0.0813195
-0.0813186
-0.0813176
-0.0813167
-0.0813158
-0.0813149
-0.081314
-0.0813131
-0.0813122
-0.0813113
-0.0813105
-0.0813096
-0.0813088
-0.081308
-0.0813071
-0.0813063
-0.0813055
-0.0813047
-0.0813039
-0.0813032
-0.0813024
-0.0813016
-0.0813009
-0.0813001
-0.0812994
-0.0812986
-0.0812979
-0.0812972
-0.0812965
-0.0812958
-0.0812951
-0.0812944
-0.0812937
-0.104555
-0.104554
-0.104553
-0.104552
-0.104551
-0.10455
-0.104549
-0.104548
-0.104547
-0.104546
-0.104545
-0.104544
-0.104543
-0.104542
-0.104541
-0.104541
-0.10454
-0.104539
-0.104538
-0.104537
-0.104536
-0.104535
-0.104534
-0.104534
-0.104533
-0.104532
-0.104531
-0.10453
-0.104529
-0.104529
-0.104528
-0.104527
-0.104526
-0.104525
-0.104525
-0.104524
-0.104523
-0.104522
-0.104522
-0.104521
-0.10452
-0.104519
-0.104519
-0.104518
-0.104517
-0.104516
-0.104516
-0.104515
-0.104514
-0.104513
-0.127796
-0.127794
-0.127793
-0.127792
-0.12779
-0.127789
-0.127788
-0.127787
-0.127785
-0.127784
-0.127783
-0.127782
-0.12778
-0.127779
-0.127778
-0.127777
-0.127776
-0.127774
-0.127773
-0.127772
-0.127771
-0.12777
-0.127769
-0.127768
-0.127767
-0.127765
-0.127764
-0.127763
-0.127762
-0.127761
-0.12776
-0.127759
-0.127758
-0.127757
-0.127756
-0.127755
-0.127754
-0.127753
-0.127752
-0.127751
-0.12775
-0.127749
-0.127748
-0.127747
-0.127746
-0.127745
-0.127744
-0.127743
-0.127742
-0.127741
-0.151016
-0.151015
-0.151014
-0.151013
-0.151012
-0.151011
-0.15101
-0.151008
-0.151007
-0.151006
-0.151005
-0.151004
-0.151003
-0.151002
-0.151001
-0.150999
-0.150998
-0.150997
-0.150996
-0.150995
-0.150994
-0.150993
-0.150992
-0.15099
-0.150989
-0.150988
-0.150987
-0.150986
-0.150985
-0.150984
-0.150983
-0.150982
-0.150981
-0.15098
-0.150979
-0.150977
-0.150976
-0.150975
-0.150974
-0.150973
-0.150972
-0.150971
-0.15097
-0.150969
-0.150968
-0.150967
-0.150966
-0.150965
-0.150964
-0.150963
-0.174246
-0.174245
-0.174244
-0.174242
-0.174241
-0.17424
-0.174239
-0.174237
-0.174236
-0.174235
-0.174234
-0.174233
-0.174231
-0.17423
-0.174229
-0.174228
-0.174226
-0.174225
-0.174224
-0.174223
-0.174222
-0.17422
-0.174219
-0.174218
-0.174217
-0.174216
-0.174214
-0.174213
-0.174212
-0.174211
-0.174209
-0.174208
-0.174207
-0.174206
-0.174205
-0.174204
-0.174202
-0.174201
-0.1742
-0.174199
-0.174198
-0.174196
-0.174195
-0.174194
-0.174193
-0.174192
-0.17419
-0.174189
-0.174188
-0.174187
-0.197477
-0.197476
-0.197474
-0.197473
-0.197471
-0.19747
-0.197468
-0.197467
-0.197465
-0.197464
-0.197462
-0.197461
-0.19746
-0.197458
-0.197457
-0.197455
-0.197454
-0.197453
-0.197451
-0.19745
-0.197448
-0.197447
-0.197446
-0.197444
-0.197443
-0.197442
-0.19744
-0.197439
-0.197438
-0.197436
-0.197435
-0.197434
-0.197432
-0.197431
-0.19743
-0.197428
-0.197427
-0.197426
-0.197424
-0.197423
-0.197422
-0.19742
-0.197419
-0.197418
-0.197416
-0.197415
-0.197414
-0.197413
-0.197411
-0.19741
-0.220696
-0.220695
-0.220694
-0.220692
-0.220691
-0.22069
-0.220689
-0.220687
-0.220686
-0.220685
-0.220684
-0.220682
-0.220681
-0.22068
-0.220679
-0.220677
-0.220676
-0.220675
-0.220673
-0.220672
-0.220671
-0.22067
-0.220668
-0.220667
-0.220666
-0.220664
-0.220663
-0.220662
-0.22066
-0.220659
-0.220658
-0.220656
-0.220655
-0.220654
-0.220652
-0.220651
-0.22065
-0.220648
-0.220647
-0.220646
-0.220644
-0.220643
-0.220641
-0.22064
-0.220639
-0.220637
-0.220636
-0.220635
-0.220633
-0.220632
-0.243936
-0.243934
-0.243932
-0.24393
-0.243928
-0.243926
-0.243925
-0.243923
-0.243921
-0.243919
-0.243918
-0.243916
-0.243914
-0.243913
-0.243911
-0.243909
-0.243908
-0.243906
-0.243904
-0.243903
-0.243901
-0.2439
-0.243898
-0.243896
-0.243895
-0.243893
-0.243892
-0.24389
-0.243889
-0.243887
-0.243885
-0.243884
-0.243882
-0.243881
-0.243879
-0.243878
-0.243876
-0.243875
-0.243873
-0.243871
-0.24387
-0.243868
-0.243867
-0.243865
-0.243864
-0.243862
-0.243861
-0.243859
-0.243858
-0.243856
-0.267147
-0.267146
-0.267145
-0.267144
-0.267142
-0.267141
-0.26714
-0.267139
-0.267137
-0.267136
-0.267135
-0.267133
-0.267132
-0.267131
-0.267129
-0.267128
-0.267126
-0.267125
-0.267124
-0.267122
-0.267121
-0.267119
-0.267118
-0.267117
-0.267115
-0.267114
-0.267112
-0.267111
-0.267109
-0.267108
-0.267106
-0.267105
-0.267103
-0.267102
-0.2671
-0.267099
-0.267097
-0.267096
-0.267094
-0.267093
-0.267091
-0.26709
-0.267088
-0.267086
-0.267085
-0.267083
-0.267082
-0.26708
-0.267079
-0.267077
-0.290383
-0.290381
-0.290379
-0.290378
-0.290376
-0.290375
-0.290373
-0.290372
-0.29037
-0.290369
-0.290367
-0.290365
-0.290364
-0.290362
-0.290361
-0.290359
-0.290357
-0.290356
-0.290354
-0.290353
-0.290351
-0.290349
-0.290348
-0.290346
-0.290344
-0.290343
-0.290341
-0.290339
-0.290338
-0.290336
-0.290334
-0.290333
-0.290331
-0.290329
-0.290328
-0.290326
-0.290324
-0.290323
-0.290321
-0.290319
-0.290318
-0.290316
-0.290314
-0.290313
-0.290311
-0.290309
-0.290307
-0.290306
-0.290304
-0.290302
-0.313605
-0.313604
-0.313602
-0.3136
-0.313599
-0.313597
-0.313596
-0.313594
-0.313593
-0.313591
-0.313589
-0.313588
-0.313586
-0.313585
-0.313583
-0.313582
-0.31358
-0.313578
-0.313577
-0.313575
-0.313573
-0.313572
-0.31357
-0.313569
-0.313567
-0.313565
-0.313564
-0.313562
-0.31356
-0.313559
-0.313557
-0.313555
-0.313553
-0.313552
-0.31355
-0.313548
-0.313547
-0.313545
-0.313543
-0.313541
-0.31354
-0.313538
-0.313536
-0.313534
-0.313533
-0.313531
-0.313529
-0.313527
-0.313526
-0.313524
-0.336837
-0.336836
-0.336834
-0.336832
-0.336831
-0.336829
-0.336827
-0.336826
-0.336824
-0.336822
-0.336821
-0.336819
-0.336817
-0.336815
-0.336814
-0.336812
-0.33681
-0.336809
-0.336807
-0.336805
-0.336803
-0.336801
-0.3368
-0.336798
-0.336796
-0.336794
-0.336793
-0.336791
-0.336789
-0.336787
-0.336785
-0.336784
-0.336782
-0.33678
-0.336778
-0.336776
-0.336774
-0.336773
-0.336771
-0.336769
-0.336767
-0.336765
-0.336763
-0.336761
-0.336759
-0.336758
-0.336756
-0.336754
-0.336752
-0.33675
-0.360065
-0.360063
-0.360061
-0.36006
-0.360058
-0.360056
-0.360054
-0.360053
-0.360051
-0.360049
-0.360047
-0.360045
-0.360044
-0.360042
-0.36004
-0.360038
-0.360036
-0.360035
-0.360033
-0.360031
-0.360029
-0.360027
-0.360025
-0.360023
-0.360022
-0.36002
-0.360018
-0.360016
-0.360014
-0.360012
-0.36001
-0.360008
-0.360007
-0.360005
-0.360003
-0.360001
-0.359999
-0.359997
-0.359995
-0.359993
-0.359991
-0.359989
-0.359987
-0.359985
-0.359983
-0.359981
-0.359979
-0.359977
-0.359975
-0.359973
-0.383296
-0.383294
-0.383293
-0.383291
-0.383289
-0.383287
-0.383285
-0.383283
-0.383281
-0.38328
-0.383278
-0.383276
-0.383274
-0.383272
-0.38327
-0.383268
-0.383267
-0.383265
-0.383263
-0.383261
-0.383259
-0.383257
-0.383255
-0.383253
-0.383251
-0.383249
-0.383247
-0.383245
-0.383243
-0.383242
-0.38324
-0.383238
-0.383236
-0.383234
-0.383232
-0.38323
-0.383228
-0.383225
-0.383223
-0.383221
-0.383219
-0.383217
-0.383215
-0.383213
-0.383211
-0.383209
-0.383207
-0.383205
-0.383203
-0.3832
-0.406526
-0.406524
-0.406522
-0.40652
-0.406519
-0.406517
-0.406515
-0.406513
-0.406511
-0.406509
-0.406507
-0.406505
-0.406503
-0.406501
-0.406499
-0.406497
-0.406495
-0.406493
-0.406491
-0.406489
-0.406487
-0.406485
-0.406483
-0.406481
-0.406479
-0.406477
-0.406475
-0.406473
-0.406471
-0.406469
-0.406467
-0.406465
-0.406463
-0.406461
-0.406459
-0.406456
-0.406454
-0.406452
-0.40645
-0.406448
-0.406446
-0.406444
-0.406441
-0.406439
-0.406437
-0.406435
-0.406433
-0.40643
-0.406428
-0.406426
-0.429756
-0.429754
-0.429752
-0.42975
-0.429748
-0.429747
-0.429745
-0.429743
-0.429741
-0.429739
-0.429737
-0.429736
-0.429734
-0.429732
-0.42973
-0.429728
-0.429726
-0.429724
-0.429722
-0.42972
-0.429718
-0.429716
-0.429714
-0.429712
-0.42971
-0.429708
-0.429706
-0.429704
-0.429702
-0.4297
-0.429698
-0.429696
-0.429694
-0.429691
-0.429689
-0.429687
-0.429685
-0.429683
-0.42968
-0.429678
-0.429676
-0.429674
-0.429672
-0.429669
-0.429667
-0.429665
-0.429662
-0.42966
-0.429658
-0.429655
-0.452988
-0.452987
-0.452985
-0.452983
-0.452981
-0.452979
-0.452977
-0.452975
-0.452973
-0.452972
-0.45297
-0.452968
-0.452966
-0.452964
-0.452962
-0.45296
-0.452958
-0.452956
-0.452954
-0.452952
-0.45295
-0.452947
-0.452945
-0.452943
-0.452941
-0.452939
-0.452937
-0.452935
-0.452933
-0.45293
-0.452928
-0.452926
-0.452924
-0.452921
-0.452919
-0.452917
-0.452915
-0.452912
-0.45291
-0.452908
-0.452905
-0.452903
-0.452901
-0.452898
-0.452896
-0.452894
-0.452891
-0.452889
-0.452886
-0.452884
-0.0116049
-0.0116049
-0.011605
-0.0116051
-0.0116052
-0.0116052
-0.0116053
-0.0116054
-0.0116055
-0.0116055
-0.0116056
-0.0116057
-0.0116058
-0.0116058
-0.0116059
-0.011606
-0.0116061
-0.0116061
-0.0116062
-0.0116063
-0.0116064
-0.0116065
-0.0116065
-0.0116066
-0.0116067
-0.0116068
-0.0116069
-0.0116069
-0.011607
-0.0116071
-0.0116072
-0.0116073
-0.0116073
-0.0116074
-0.0116075
-0.0116076
-0.0116076
-0.0116077
-0.0116078
-0.0116079
-0.011608
-0.011608
-0.0116081
-0.0116082
-0.0116082
-0.0116083
-0.0116084
-0.0116085
-0.0116085
-0.0116086
-0.0116087
-0.0116087
-0.0116088
-0.0116089
-0.0116089
-0.011609
-0.0116091
-0.0116091
-0.0116092
-0.0116092
-0.0116093
-0.0116093
-0.0116094
-0.0116095
-0.0116095
-0.0116096
-0.0116096
-0.0116097
-0.0116097
-0.0116097
-0.0116098
-0.0116098
-0.0116099
-0.0116099
-0.0116099
-0.01161
-0.01161
-0.01161
-0.0116101
-0.0116101
-0.0116101
-0.0116102
-0.0116102
-0.0116102
-0.0116102
-0.0116102
-0.0116103
-0.0116103
-0.0116103
-0.0116103
-0.0116103
-0.0116103
-0.0116103
-0.0116103
-0.0116103
-0.0116103
-0.0116103
-0.0116103
-0.0116103
-0.0116103
-0.0116103
-0.0116103
-0.0116103
-0.0116102
-0.0116102
-0.0116102
-0.0116102
-0.0116102
-0.0116101
-0.0116101
-0.0116101
-0.01161
-0.01161
-0.01161
-0.0116099
-0.0116099
-0.0116098
-0.0116098
-0.0116098
-0.0116097
-0.0116097
-0.0116096
-0.0116096
-0.0116095
-0.0116094
-0.0116094
-0.0116093
-0.0116093
-0.0116092
-0.0116091
-0.0116091
-0.011609
-0.0116089
-0.0116088
-0.0116088
-0.0116087
-0.0116086
-0.0116085
-0.0116084
-0.0116083
-0.0116083
-0.0116082
-0.0116081
-0.011608
-0.0116079
-0.0116078
-0.0116077
-0.0116076
-0.0116075
-0.0116074
-0.0116073
-0.0116072
-0.0116071
-0.011607
-0.0116069
-0.0116067
-0.0116066
-0.0116065
-0.0116064
-0.0116063
-0.0116062
-0.011606
-0.0116059
-0.0116058
-0.0116057
-0.0116056
-0.0116054
-0.0116053
-0.0116052
-0.011605
-0.0116049
-0.0116048
-0.0116046
-0.0116045
-0.0116044
-0.0116042
-0.0116041
-0.011604
-0.0116038
-0.0116037
-0.0116035
-0.0116034
-0.0116033
-0.0116031
-0.011603
-0.0116028
-0.0116027
-0.0116026
-0.0116024
-0.0116023
-0.0116021
-0.011602
-0.0116018
-0.0116017
-0.0116015
-0.0116014
-0.0116012
-0.0116011
-0.0116009
-0.0116008
-0.0116006
-0.0116005
-0.0116003
-0.0116002
-0.0116
-0.0115999
-0.0115997
-0.0115996
-0.0115994
-0.0115993
-0.0115991
-0.011599
-0.0115989
-0.0115987
-0.0115986
-0.0115984
-0.0115983
-0.0115981
-0.011598
-0.0115978
-0.0115977
-0.0115975
-0.0115974
-0.0115972
-0.0115971
-0.011597
-0.0115968
-0.0115967
-0.0115965
-0.0115964
-0.0115963
-0.0115961
-0.011596
-0.0115958
-0.0115957
-0.0115956
-0.0115954
-0.0115953
-0.0115952
-0.011595
-0.0115949
-0.0115948
-0.0115947
-0.0115945
-0.0115944
-0.0115943
-0.0115942
-0.011594
-0.0115939
-0.0115938
-0.0115937
-0.0115936
-0.0115934
-0.0115933
-0.0115932
-0.0115931
-0.011593
-0.0115929
-0.0115928
-0.0115927
-0.0115926
-0.0115925
-0.0115924
-0.0115923
-0.0115922
-0.0115921
-0.011592
-0.0115919
-0.0115918
-0.0115917
-0.0115916
-0.0115915
-0.0115914
-0.0115913
-0.0115913
-0.0115912
-0.0115911
-0.011591
-0.011591
-0.0115909
-0.0115908
-0.0115908
-0.0115907
-0.0115906
-0.0115906
-0.0115905
-0.0115905
-0.0115904
-0.0115904
-0.0115903
-0.0115903
-0.0115902
-0.0115902
-0.0115901
-0.0115901
-0.0115901
-0.01159
-0.01159
-0.01159
-0.01159
-0.0348443
-0.0348441
-0.0348438
-0.0348436
-0.0348434
-0.0348432
-0.0348429
-0.0348427
-0.0348425
-0.0348422
-0.034842
-0.0348418
-0.0348416
-0.0348413
-0.0348411
-0.0348409
-0.0348406
-0.0348404
-0.0348402
-0.0348399
-0.0348397
-0.0348394
-0.0348392
-0.034839
-0.0348387
-0.0348385
-0.0348383
-0.034838
-0.0348378
-0.0348375
-0.0348373
-0.034837
-0.0348368
-0.0348366
-0.0348363
-0.0348361
-0.0348358
-0.0348356
-0.0348353
-0.0348351
-0.0348348
-0.0348346
-0.0348344
-0.0348341
-0.0348339
-0.0348336
-0.0348334
-0.0348331
-0.0348329
-0.0348326
-0.0348324
-0.0348321
-0.0348319
-0.0348316
-0.0348314
-0.0348311
-0.0348309
-0.0348306
-0.0348304
-0.0348301
-0.0348298
-0.0348296
-0.0348293
-0.0348291
-0.0348288
-0.0348286
-0.0348283
-0.0348281
-0.0348278
-0.0348276
-0.0348273
-0.0348271
-0.0348268
-0.0348265
-0.0348263
-0.034826
-0.0348258
-0.0348255
-0.0348253
-0.034825
-0.0348248
-0.0348245
-0.0348242
-0.034824
-0.0348237
-0.0348235
-0.0348232
-0.034823
-0.0348227
-0.0348224
-0.0348222
-0.0348219
-0.0348217
-0.0348214
-0.0348212
-0.0348209
-0.0348206
-0.0348204
-0.0348201
-0.0348199
-0.0348196
-0.0348194
-0.0348191
-0.0348188
-0.0348186
-0.0348183
-0.0348181
-0.0348178
-0.0348175
-0.0348173
-0.034817
-0.0348168
-0.0348165
-0.0348163
-0.034816
-0.0348157
-0.0348155
-0.0348152
-0.034815
-0.0348147
-0.0348144
-0.0348142
-0.0348139
-0.0348137
-0.0348134
-0.0348131
-0.0348129
-0.0348126
-0.0348124
-0.0348121
-0.0348118
-0.0348116
-0.0348113
-0.0348111
-0.0348108
-0.0348105
-0.0348103
-0.03481
-0.0348097
-0.0348095
-0.0348092
-0.034809
-0.0348087
-0.0348084
-0.0348082
-0.0348079
-0.0348076
-0.0348074
-0.0348071
-0.0348068
-0.0348066
-0.0348063
-0.034806
-0.0348058
-0.0348055
-0.0348052
-0.034805
-0.0348047
-0.0348044
-0.0348042
-0.0348039
-0.0348036
-0.0348034
-0.0348031
-0.0348028
-0.0348025
-0.0348023
-0.034802
-0.0348017
-0.0348014
-0.0348012
-0.0348009
-0.0348006
-0.0348003
-0.0348001
-0.0347998
-0.0347995
-0.0347992
-0.034799
-0.0347987
-0.0347984
-0.0347981
-0.0347978
-0.0347976
-0.0347973
-0.034797
-0.0347967
-0.0347964
-0.0347961
-0.0347959
-0.0347956
-0.0347953
-0.034795
-0.0347947
-0.0347944
-0.0347941
-0.0347938
-0.0347936
-0.0347933
-0.034793
-0.0347927
-0.0347924
-0.0347921
-0.0347918
-0.0347915
-0.0347912
-0.0347909
-0.0347907
-0.0347904
-0.0347901
-0.0347898
-0.0347895
-0.0347892
-0.0347889
-0.0347886
-0.0347883
-0.034788
-0.0347877
-0.0347874
-0.0347871
-0.0347868
-0.0347865
-0.0347863
-0.034786
-0.0347857
-0.0347854
-0.0347851
-0.0347848
-0.0347845
-0.0347842
-0.0347839
-0.0347836
-0.0347833
-0.0347831
-0.0347828
-0.0347825
-0.0347822
-0.0347819
-0.0347816
-0.0347813
-0.0347811
-0.0347808
-0.0347805
-0.0347802
-0.03478
-0.0347797
-0.0347794
-0.0347791
-0.0347789
-0.0347786
-0.0347783
-0.0347781
-0.0347778
-0.0347776
-0.0347773
-0.034777
-0.0347768
-0.0347765
-0.0347763
-0.0347761
-0.0347758
-0.0347756
-0.0347753
-0.0347751
-0.0347749
-0.0347747
-0.0347744
-0.0347742
-0.034774
-0.0347738
-0.0347736
-0.0347734
-0.0347732
-0.034773
-0.0347728
-0.0347726
-0.0347724
-0.0347723
-0.0347721
-0.0347719
-0.0347717
-0.0347716
-0.0347714
-0.0347713
-0.0347712
-0.034771
-0.0347709
-0.0347708
-0.0347707
-0.0347705
-0.0347704
-0.0347703
-0.0347702
-0.0347702
-0.0347701
-0.03477
-0.0347699
-0.0347699
-0.0347698
-0.0347698
-0.0580605
-0.0580603
-0.0580601
-0.0580599
-0.0580597
-0.0580595
-0.0580593
-0.0580591
-0.0580589
-0.0580587
-0.0580585
-0.0580583
-0.0580581
-0.0580579
-0.0580577
-0.0580575
-0.0580573
-0.0580571
-0.0580569
-0.0580567
-0.0580565
-0.0580562
-0.058056
-0.0580558
-0.0580556
-0.0580554
-0.0580552
-0.058055
-0.0580548
-0.0580546
-0.0580544
-0.0580541
-0.0580539
-0.0580537
-0.0580535
-0.0580533
-0.0580531
-0.0580529
-0.0580526
-0.0580524
-0.0580522
-0.058052
-0.0580517
-0.0580515
-0.0580513
-0.0580511
-0.0580508
-0.0580506
-0.0580504
-0.0580501
-0.0580499
-0.0580497
-0.0580494
-0.0580492
-0.058049
-0.0580487
-0.0580485
-0.0580482
-0.058048
-0.0580478
-0.0580475
-0.0580473
-0.058047
-0.0580468
-0.0580465
-0.0580462
-0.058046
-0.0580457
-0.0580455
-0.0580452
-0.0580449
-0.0580447
-0.0580444
-0.0580441
-0.0580439
-0.0580436
-0.0580433
-0.058043
-0.0580427
-0.0580425
-0.0580422
-0.0580419
-0.0580416
-0.0580413
-0.058041
-0.0580407
-0.0580404
-0.0580401
-0.0580398
-0.0580395
-0.0580392
-0.0580389
-0.0580386
-0.0580383
-0.0580379
-0.0580376
-0.0580373
-0.058037
-0.0580366
-0.0580363
-0.058036
-0.0580356
-0.0580353
-0.058035
-0.0580346
-0.0580343
-0.0580339
-0.0580336
-0.0580332
-0.0580329
-0.0580325
-0.0580322
-0.0580318
-0.0580314
-0.0580311
-0.0580307
-0.0580303
-0.05803
-0.0580296
-0.0580292
-0.0580288
-0.0580284
-0.058028
-0.0580277
-0.0580273
-0.0580269
-0.0580265
-0.0580261
-0.0580257
-0.0580253
-0.0580248
-0.0580244
-0.058024
-0.0580236
-0.0580232
-0.0580228
-0.0580223
-0.0580219
-0.0580215
-0.0580211
-0.0580206
-0.0580202
-0.0580198
-0.0580193
-0.0580189
-0.0580184
-0.058018
-0.0580175
-0.0580171
-0.0580166
-0.0580162
-0.0580157
-0.0580152
-0.0580148
-0.0580143
-0.0580138
-0.0580134
-0.0580129
-0.0580124
-0.0580119
-0.0580114
-0.058011
-0.0580105
-0.05801
-0.0580095
-0.058009
-0.0580085
-0.058008
-0.0580075
-0.058007
-0.0580065
-0.058006
-0.0580055
-0.058005
-0.0580045
-0.058004
-0.0580035
-0.0580029
-0.0580024
-0.0580019
-0.0580014
-0.0580009
-0.0580003
-0.0579998
-0.0579993
-0.0579988
-0.0579982
-0.0579977
-0.0579972
-0.0579966
-0.0579961
-0.0579956
-0.057995
-0.0579945
-0.057994
-0.0579934
-0.0579929
-0.0579923
-0.0579918
-0.0579913
-0.0579907
-0.0579902
-0.0579896
-0.0579891
-0.0579885
-0.057988
-0.0579874
-0.0579869
-0.0579863
-0.0579858
-0.0579853
-0.0579847
-0.0579842
-0.0579836
-0.0579831
-0.0579825
-0.057982
-0.0579814
-0.0579809
-0.0579804
-0.0579798
-0.0579793
-0.0579787
-0.0579782
-0.0579777
-0.0579771
-0.0579766
-0.0579761
-0.0579755
-0.057975
-0.0579745
-0.0579739
-0.0579734
-0.0579729
-0.0579724
-0.0579718