/*--------------------------------*- C++ -*----------------------------------*\
| =========                 |                                                 |
| \\      /  F ield         | OpenFOAM: The Open Source CFD Toolbox           |
|  \\    /   O peration     | Version:  2.4.0                                 |
|   \\  /    A nd           | Web:      www.OpenFOAM.org                      |
|    \\/     M anipulation  |                                                 |
\*---------------------------------------------------------------------------*/
FoamFile
{
    version     2.0;
    format      ascii;
    class       surfaceScalarField;
    location    "1.4";
    object      phi;
}
// * * * * * * * * * * * * * * * * * * * * * * * * * * * * * * * * * * * * * //

dimensions      [0 3 -1 0 0 0 0];

internalField   nonuniform List<scalar> 
15580
(
-8.59031e-14
-2.1877e-12
-2.85163e-13
-6.43546e-12
-5.7084e-13
-1.05439e-11
-9.32006e-13
-1.45074e-11
-1.35908e-12
-1.83263e-11
-1.84366e-12
-2.20009e-11
-2.37838e-12
-2.55314e-11
-2.95675e-12
-2.89182e-11
-3.57301e-12
-3.21614e-11
-4.22203e-12
-3.52612e-11
-4.89921e-12
-3.82178e-11
-5.60037e-12
-4.10313e-11
-6.32164e-12
-4.3702e-11
-7.05946e-12
-4.62299e-11
-7.81041e-12
-4.86151e-11
-8.57123e-12
-5.08578e-11
-9.33867e-12
-5.2958e-11
-1.01095e-11
-5.49157e-11
-1.08804e-11
-5.67311e-11
-1.1648e-11
-5.8404e-11
-1.24084e-11
-5.99346e-11
-1.31579e-11
-6.13228e-11
-1.3892e-11
-6.25686e-11
-1.4606e-11
-6.3672e-11
-1.52945e-11
-6.46329e-11
-1.5952e-11
-6.54512e-11
-1.65728e-11
-6.61262e-11
-1.71496e-11
-6.66575e-11
-1.76647e-11
-6.7046e-11
-1.80837e-11
-6.73026e-11
-4.20907e-11
-6.74547e-11
-4.23961e-11
-6.74829e-11
-4.27153e-11
-6.74836e-11
-4.30812e-11
-6.74235e-11
-4.35389e-11
-6.74794e-11
-4.39844e-11
-6.74291e-11
-4.44231e-11
-6.731e-11
-4.48631e-11
-6.71721e-11
-4.53073e-11
-6.70295e-11
-4.57567e-11
-6.68833e-11
-4.62122e-11
-6.67329e-11
-4.66741e-11
-6.65773e-11
-4.71428e-11
-6.64154e-11
-4.76178e-11
-6.62465e-11
-4.8099e-11
-6.60698e-11
-4.85863e-11
-6.58848e-11
-4.90794e-11
-6.56911e-11
-4.95781e-11
-6.54883e-11
-5.0082e-11
-6.52761e-11
-6.50544e-11
-5.05907e-11
-3.94348e-14
-2.14827e-12
-1.72439e-13
-6.30246e-12
-3.97409e-13
-1.03189e-11
-7.0531e-13
-1.41995e-11
-1.08803e-12
-1.79436e-11
-1.53823e-12
-2.15507e-11
-2.04924e-12
-2.50204e-11
-2.61501e-12
-2.83524e-11
-3.22997e-12
-3.15464e-11
-3.88901e-12
-3.46021e-11
-4.58737e-12
-3.75194e-11
-5.32065e-12
-4.0298e-11
-6.08463e-12
-4.2938e-11
-6.87534e-12
-4.54392e-11
-7.6889e-12
-4.78016e-11
-8.52157e-12
-5.00251e-11
-9.36958e-12
-5.211e-11
-1.02292e-11
-5.40561e-11
-1.10966e-11
-5.58637e-11
-1.19678e-11
-5.75328e-11
-1.28386e-11
-5.90638e-11
-1.37047e-11
-6.04567e-11
-1.45614e-11
-6.17119e-11
-1.54036e-11
-6.28298e-11
-1.6226e-11
-6.38105e-11
-1.70224e-11
-6.46547e-11
-1.77858e-11
-6.53628e-11
-1.85078e-11
-6.59355e-11
-1.91798e-11
-6.6374e-11
-2.00761e-11
-6.66792e-11
-4.24736e-11
-6.68586e-11
-4.30547e-11
-6.69018e-11
-4.36086e-11
-6.69297e-11
-4.40646e-11
-6.69675e-11
-4.45363e-11
-6.70078e-11
-4.50234e-11
-6.6942e-11
-4.55093e-11
-6.68242e-11
-4.59928e-11
-6.66886e-11
-4.64775e-11
-6.65448e-11
-4.69664e-11
-6.63944e-11
-4.74616e-11
-6.62377e-11
-4.79646e-11
-6.60743e-11
-4.84761e-11
-6.59039e-11
-4.89967e-11
-6.57259e-11
-4.95265e-11
-6.554e-11
-5.00655e-11
-6.53458e-11
-5.06136e-11
-6.51431e-11
-5.11703e-11
-6.49316e-11
-5.17353e-11
-6.47112e-11
-6.44817e-11
-5.2308e-11
-2.35841e-14
-2.12469e-12
-8.28016e-14
-6.24324e-12
-1.74099e-13
-1.02276e-11
-2.97626e-13
-1.40759e-11
-4.53198e-13
-1.7788e-11
-6.40378e-13
-2.13635e-11
-8.58544e-13
-2.48023e-11
-1.10692e-12
-2.8104e-11
-1.38463e-12
-3.12687e-11
-1.69071e-12
-3.4296e-11
-2.02415e-12
-3.71859e-11
-2.38391e-12
-3.99383e-11
-2.76895e-12
-4.2553e-11
-3.1782e-12
-4.50299e-11
-3.61068e-12
-4.73691e-11
-4.06537e-12
-4.95704e-11
-4.54136e-12
-5.1634e-11
-5.03776e-12
-5.35597e-11
-5.5538e-12
-5.53477e-11
-6.08874e-12
-5.69979e-11
-6.64201e-12
-5.85105e-11
-7.21311e-12
-5.98856e-11
-7.80173e-12
-6.11233e-11
-8.40768e-12
-6.22238e-11
-9.03101e-12
-6.31872e-11
-9.67193e-12
-6.40138e-11
-1.0331e-11
-6.47037e-11
-1.10095e-11
-6.5257e-11
-1.17089e-11
-6.56745e-11
-1.28173e-11
-6.59581e-11
-3.47663e-11
-6.61357e-11
-3.55041e-11
-6.6164e-11
-3.62734e-11
-6.61604e-11
-3.70989e-11
-6.6142e-11
-3.79257e-11
-6.61811e-11
-3.87457e-11
-6.6122e-11
-3.95547e-11
-6.60151e-11
-4.03518e-11
-6.58915e-11
-4.11373e-11
-6.57593e-11
-4.19122e-11
-6.56196e-11
-4.26776e-11
-6.54723e-11
-4.34348e-11
-6.53171e-11
-4.41849e-11
-6.51538e-11
-4.49289e-11
-6.49819e-11
-4.56677e-11
-6.48012e-11
-4.6402e-11
-6.46115e-11
-4.71325e-11
-6.44126e-11
-4.78595e-11
-6.42046e-11
-4.85833e-11
-6.39873e-11
-6.37607e-11
-4.93044e-11
-7.10888e-15
-2.11758e-12
-3.50421e-14
-6.21531e-12
-8.61257e-14
-1.01765e-11
-1.60586e-13
-1.40015e-11
-2.58664e-13
-1.76899e-11
-3.80599e-13
-2.12416e-11
-5.2663e-13
-2.46562e-11
-6.97003e-13
-2.79337e-11
-8.91968e-13
-3.10737e-11
-1.11179e-12
-3.40762e-11
-1.35677e-12
-3.6941e-11
-1.62721e-12
-3.96678e-11
-1.92347e-12
-4.22567e-11
-2.24596e-12
-4.47074e-11
-2.59514e-12
-4.70199e-11
-2.97154e-12
-4.9194e-11
-3.37576e-12
-5.12298e-11
-3.80851e-12
-5.3127e-11
-4.27058e-12
-5.48856e-11
-4.76288e-12
-5.65056e-11
-5.28648e-12
-5.79869e-11
-5.84255e-12
-5.93296e-11
-6.43244e-12
-6.05334e-11
-7.05765e-12
-6.15986e-11
-7.71993e-12
-6.25249e-11
-8.42123e-12
-6.33125e-11
-9.16382e-12
-6.39611e-11
-9.94976e-12
-6.44711e-11
-1.078e-11
-6.48443e-11
-1.37013e-11
-6.50842e-11
-3.35884e-11
-6.52128e-11
-3.45285e-11
-6.52239e-11
-3.5514e-11
-6.51749e-11
-3.64081e-11
-6.52479e-11
-3.72994e-11
-6.52898e-11
-3.81849e-11
-6.52365e-11
-3.90594e-11
-6.51406e-11
-3.99219e-11
-6.5029e-11
-4.07726e-11
-6.49086e-11
-4.1612e-11
-6.47802e-11
-4.24407e-11
-6.46435e-11
-4.32597e-11
-6.44981e-11
-4.40699e-11
-6.43436e-11
-4.4872e-11
-6.41797e-11
-4.56671e-11
-6.40062e-11
-4.64557e-11
-6.38228e-11
-4.72386e-11
-6.36297e-11
-4.80163e-11
-6.34269e-11
-4.87893e-11
-6.32143e-11
-6.2992e-11
-4.95579e-11
3.87249e-15
-2.12145e-12
1.43603e-14
-6.22579e-12
2.87129e-14
-1.01909e-11
4.35626e-14
-1.40163e-11
5.58684e-14
-1.77022e-11
6.28615e-14
-2.12486e-11
6.20082e-14
-2.46554e-11
5.09722e-14
-2.79226e-11
2.75848e-14
-3.10503e-11
-1.01919e-14
-3.40384e-11
-6.42892e-14
-3.68869e-11
-1.36569e-13
-3.95956e-11
-2.28841e-13
-4.21644e-11
-3.42903e-13
-4.45934e-11
-4.80555e-13
-4.68823e-11
-6.43639e-13
-4.9031e-11
-8.3405e-13
-5.10393e-11
-1.05379e-12
-5.29072e-11
-1.30495e-12
-5.46344e-11
-1.58981e-12
-5.62207e-11
-1.91079e-12
-5.76659e-11
-2.27057e-12
-5.89698e-11
-2.67203e-12
-6.0132e-11
-3.11838e-12
-6.11522e-11
-3.61307e-12
-6.20303e-11
-4.1599e-12
-6.27657e-11
-4.76321e-12
-6.33578e-11
-5.42904e-12
-6.38053e-11
-6.16572e-12
-6.41076e-11
-1.01894e-11
-6.42707e-11
-2.80285e-11
-6.43543e-11
-2.8929e-11
-6.43235e-11
-2.98539e-11
-6.425e-11
-3.07941e-11
-6.43077e-11
-3.17743e-11
-6.43096e-11
-3.27716e-11
-6.42392e-11
-3.37725e-11
-6.41397e-11
-3.4773e-11
-6.40285e-11
-3.57715e-11
-6.39101e-11
-3.67669e-11
-6.37848e-11
-3.77582e-11
-6.36522e-11
-3.87446e-11
-6.35118e-11
-3.97253e-11
-6.33629e-11
-4.06998e-11
-6.32052e-11
-4.16675e-11
-6.30385e-11
-4.26278e-11
-6.28624e-11
-4.35806e-11
-6.2677e-11
-4.45253e-11
-6.24821e-11
-4.54618e-11
-6.22778e-11
-6.2064e-11
-4.63898e-11
-8.67728e-16
-2.12058e-12
-8.1541e-15
-6.21851e-12
-2.43165e-14
-1.01747e-11
-5.07036e-14
-1.39899e-11
-8.85903e-14
-1.76643e-11
-1.39188e-13
-2.1198e-11
-2.03641e-13
-2.45909e-11
-2.83039e-13
-2.78432e-11
-3.78413e-13
-3.0955e-11
-4.90757e-13
-3.39261e-11
-6.21007e-13
-3.67566e-11
-7.7008e-13
-3.94465e-11
-9.38839e-13
-4.19957e-11
-1.12814e-12
-4.44041e-11
-1.3388e-12
-4.66716e-11
-1.57162e-12
-4.87981e-11
-1.82738e-12
-5.07836e-11
-2.10687e-12
-5.26277e-11
-2.41081e-12
-5.43305e-11
-2.74e-12
-5.58915e-11
-3.09513e-12
-5.73108e-11
-3.47701e-12
-5.85879e-11
-3.8863e-12
-5.97227e-11
-4.32383e-12
-6.07147e-11
-4.79018e-12
-6.15639e-11
-5.28619e-12
-6.22697e-11
-5.81235e-12
-6.28316e-11
-6.36996e-12
-6.32477e-11
-6.96062e-12
-6.35169e-11
-2.0704e-11
-6.36474e-11
-3.16469e-11
-6.36847e-11
-3.23287e-11
-6.36417e-11
-3.29834e-11
-6.35953e-11
-3.36451e-11
-6.3646e-11
-3.43668e-11
-6.35879e-11
-3.5128e-11
-6.3478e-11
-3.59149e-11
-6.33528e-11
-3.67217e-11
-6.32217e-11
-3.75454e-11
-6.30863e-11
-3.83838e-11
-6.29465e-11
-3.92344e-11
-6.28015e-11
-4.00953e-11
-6.26509e-11
-4.09643e-11
-6.24939e-11
-4.18397e-11
-6.23299e-11
-4.27196e-11
-6.21585e-11
-4.36026e-11
-6.19794e-11
-4.44875e-11
-6.17922e-11
-4.53729e-11
-6.15967e-11
-4.62579e-11
-6.13928e-11
-6.11803e-11
-4.71415e-11
-2.06313e-14
-2.09995e-12
-7.7598e-14
-6.16154e-12
-1.68108e-13
-1.00842e-11
-2.90549e-13
-1.38675e-11
-4.43567e-13
-1.75113e-11
-6.26025e-13
-2.10155e-11
-8.36971e-13
-2.438e-11
-1.07559e-12
-2.76046e-11
-1.3412e-12
-3.06894e-11
-1.63318e-12
-3.36341e-11
-1.95099e-12
-3.64388e-11
-2.29409e-12
-3.91034e-11
-2.66196e-12
-4.16278e-11
-3.05403e-12
-4.4012e-11
-3.46969e-12
-4.62559e-11
-3.90822e-12
-4.83596e-11
-4.36882e-12
-5.0323e-11
-4.85047e-12
-5.21461e-11
-5.35203e-12
-5.38289e-11
-5.87209e-12
-5.53715e-11
-6.40899e-12
-5.67739e-11
-6.96073e-12
-5.80361e-11
-7.525e-12
-5.91584e-11
-8.09898e-12
-6.01407e-11
-8.6796e-12
-6.09833e-11
-9.26329e-12
-6.1686e-11
-9.84561e-12
-6.22493e-11
-1.04186e-11
-6.26747e-11
-1.13452e-11
-6.29667e-11
-3.74683e-11
-6.31428e-11
-3.80078e-11
-6.31452e-11
-3.85165e-11
-6.3133e-11
-3.90082e-11
-6.31036e-11
-3.95328e-11
-6.31214e-11
-4.00783e-11
-6.30423e-11
-4.06391e-11
-6.29173e-11
-4.1214e-11
-6.27778e-11
-4.18033e-11
-6.26324e-11
-4.24073e-11
-6.24824e-11
-4.30257e-11
-6.2328e-11
-4.36582e-11
-6.2169e-11
-4.43043e-11
-6.20048e-11
-4.49631e-11
-6.18351e-11
-4.56338e-11
-6.16592e-11
-4.63156e-11
-6.14768e-11
-4.70075e-11
-6.12875e-11
-4.77088e-11
-6.10909e-11
-4.84185e-11
-6.0887e-11
-4.91359e-11
-6.06754e-11
-6.04561e-11
-4.98602e-11
-1.7018e-14
-2.08293e-12
-6.63807e-14
-6.11218e-12
-1.46873e-13
-1.00037e-11
-2.57581e-13
-1.37568e-11
-3.97733e-13
-1.73712e-11
-5.66681e-13
-2.08465e-11
-7.63889e-13
-2.41828e-11
-9.88909e-13
-2.73796e-11
-1.24138e-12
-3.04369e-11
-1.521e-12
-3.33545e-11
-1.82753e-12
-3.61323e-11
-2.16076e-12
-3.87702e-11
-2.52052e-12
-4.1268e-11
-2.90666e-12
-4.36259e-11
-3.31903e-12
-4.58436e-11
-3.75746e-12
-4.79212e-11
-4.2218e-12
-4.98587e-11
-4.71182e-12
-5.16561e-11
-5.22731e-12
-5.33134e-11
-5.76793e-12
-5.48309e-11
-6.33337e-12
-5.62085e-11
-6.92313e-12
-5.74464e-11
-7.53673e-12
-5.85448e-11
-8.17345e-12
-5.9504e-11
-8.8326e-12
-6.03241e-11
-9.51302e-12
-6.10055e-11
-1.02137e-11
-6.15486e-11
-1.09338e-11
-6.19546e-11
-1.25104e-11
-6.2225e-11
-3.53685e-11
-6.23856e-11
-3.61075e-11
-6.24062e-11
-3.68648e-11
-6.23758e-11
-3.75981e-11
-6.23702e-11
-3.83325e-11
-6.2387e-11
-3.90674e-11
-6.23073e-11
-3.98011e-11
-6.21836e-11
-4.05339e-11
-6.20451e-11
-4.12663e-11
-6.19e-11
-4.1999e-11
-6.17497e-11
-4.27327e-11
-6.15943e-11
-4.3468e-11
-6.14337e-11
-4.42052e-11
-6.12676e-11
-4.49449e-11
-6.10954e-11
-4.56873e-11
-6.09169e-11
-4.64324e-11
-6.07316e-11
-4.71804e-11
-6.05394e-11
-4.79313e-11
-6.03401e-11
-4.86849e-11
-6.01334e-11
-4.94411e-11
-5.99192e-11
-5.96975e-11
-5.01996e-11
5.74731e-16
-2.08351e-12
-2.39288e-15
-6.10921e-12
-1.20332e-14
-9.99406e-12
-3.05976e-14
-1.37382e-11
-6.0111e-14
-1.73416e-11
-1.02416e-13
-2.08042e-11
-1.59195e-13
-2.4126e-11
-2.32014e-13
-2.73068e-11
-3.22336e-13
-3.03466e-11
-4.31568e-13
-3.32453e-11
-5.61062e-13
-3.60028e-11
-7.12172e-13
-3.86191e-11
-8.86247e-13
-4.1094e-11
-1.08469e-12
-4.34274e-11
-1.30896e-12
-4.56193e-11
-1.56062e-12
-4.76695e-11
-1.84134e-12
-4.95779e-11
-2.15297e-12
-5.13444e-11
-2.49753e-12
-5.29689e-11
-2.87731e-12
-5.44511e-11
-3.29481e-12
-5.5791e-11
-3.75294e-12
-5.69883e-11
-4.25488e-12
-5.80429e-11
-4.80437e-12
-5.89545e-11
-5.40558e-12
-5.97229e-11
-6.06364e-12
-6.03475e-11
-6.78393e-12
-6.08284e-11
-7.57087e-12
-6.11676e-11
-1.0733e-11
-6.1373e-11
-3.14634e-11
-6.14711e-11
-3.24179e-11
-6.14517e-11
-3.34122e-11
-6.13815e-11
-3.4356e-11
-6.14264e-11
-3.53251e-11
-6.14179e-11
-3.63046e-11
-6.13278e-11
-3.72833e-11
-6.12049e-11
-3.82571e-11
-6.10713e-11
-3.92242e-11
-6.09329e-11
-4.01833e-11
-6.07905e-11
-4.11338e-11
-6.06438e-11
-4.20753e-11
-6.04922e-11
-4.30077e-11
-6.03352e-11
-4.3931e-11
-6.01721e-11
-4.48453e-11
-6.00025e-11
-4.5751e-11
-5.9826e-11
-4.66481e-11
-5.96423e-11
-4.7537e-11
-5.94512e-11
-4.84179e-11
-5.92524e-11
-4.92911e-11
-5.9046e-11
-5.88318e-11
-5.01569e-11
-6.79956e-16
-2.08283e-12
-4.35773e-15
-6.10553e-12
-1.31389e-14
-9.98528e-12
-2.9248e-14
-1.37221e-11
-5.47196e-14
-1.73162e-11
-9.14245e-14
-2.07675e-11
-1.41098e-13
-2.40763e-11
-2.05358e-13
-2.72425e-11
-2.8573e-13
-3.02662e-11
-3.83668e-13
-3.31473e-11
-5.00576e-13
-3.58859e-11
-6.37823e-13
-3.84818e-11
-7.96775e-13
-4.0935e-11
-9.78801e-13
-4.32454e-11
-1.18531e-12
-4.54128e-11
-1.41777e-12
-4.74371e-11
-1.67771e-12
-4.9318e-11
-1.96678e-12
-5.10554e-11
-2.28675e-12
-5.26489e-11
-2.63953e-12
-5.40983e-11
-3.02726e-12
-5.54032e-11
-3.45227e-12
-5.65633e-11
-3.91717e-12
-5.7578e-11
-4.42472e-12
-5.84469e-11
-4.97784e-12
-5.91698e-11
-5.57988e-12
-5.97454e-11
-6.23745e-12
-6.01708e-11
-6.9641e-12
-6.0441e-11
-1.34146e-11
-6.05613e-11
-3.05364e-11
-6.06338e-11
-3.14016e-11
-6.05865e-11
-3.2289e-11
-6.04941e-11
-3.31981e-11
-6.05173e-11
-3.41596e-11
-6.04565e-11
-3.51443e-11
-6.03431e-11
-3.61357e-11
-6.02134e-11
-3.71284e-11
-6.00787e-11
-3.81201e-11
-5.99412e-11
-3.91095e-11
-5.98011e-11
-4.00956e-11
-5.96578e-11
-4.10773e-11
-5.95105e-11
-4.2054e-11
-5.93585e-11
-4.3025e-11
-5.92011e-11
-4.39898e-11
-5.90377e-11
-4.49479e-11
-5.88679e-11
-4.58991e-11
-5.86912e-11
-4.68429e-11
-5.85074e-11
-4.77791e-11
-5.83162e-11
-4.87075e-11
-5.81175e-11
-5.79113e-11
-4.96281e-11
-1.16504e-14
-2.07118e-12
-4.7943e-14
-6.06924e-12
-1.09085e-13
-9.92413e-12
-1.94775e-13
-1.36364e-11
-3.0478e-13
-1.72062e-11
-4.38904e-13
-2.06334e-11
-5.96993e-13
-2.39182e-11
-7.78892e-13
-2.70606e-11
-9.84469e-13
-3.00606e-11
-1.21355e-12
-3.29182e-11
-1.46598e-12
-3.56335e-11
-1.74152e-12
-3.82063e-11
-2.03991e-12
-4.06366e-11
-2.36078e-12
-4.29245e-11
-2.70372e-12
-4.50698e-11
-3.06816e-12
-4.70726e-11
-3.45346e-12
-4.89327e-11
-3.85873e-12
-5.06501e-11
-4.28302e-12
-5.22246e-11
-4.72501e-12
-5.36563e-11
-5.1833e-12
-5.49449e-11
-5.65593e-12
-5.60906e-11
-6.14092e-12
-5.7093e-11
-6.63559e-12
-5.79523e-11
-7.13759e-12
-5.86678e-11
-7.64312e-12
-5.92399e-11
-8.14531e-12
-5.96686e-11
-8.62804e-12
-5.99582e-11
-3.44735e-11
-6.01197e-11
-4.16308e-11
-6.01346e-11
-4.21159e-11
-6.01013e-11
-4.25435e-11
-6.00664e-11
-4.29751e-11
-6.00858e-11
-4.34337e-11
-5.99979e-11
-4.39164e-11
-5.98604e-11
-4.44208e-11
-5.9709e-11
-4.49459e-11
-5.95536e-11
-4.54914e-11
-5.93957e-11
-4.60569e-11
-5.92356e-11
-4.66419e-11
-5.90728e-11
-4.72452e-11
-5.89071e-11
-4.78659e-11
-5.87379e-11
-4.85025e-11
-5.85645e-11
-4.91537e-11
-5.83865e-11
-4.98181e-11
-5.82035e-11
-5.04944e-11
-5.8015e-11
-5.11811e-11
-5.78207e-11
-5.1877e-11
-5.76203e-11
-5.25808e-11
-5.74137e-11
-5.72006e-11
-5.32915e-11
-2.74046e-14
-2.04377e-12
-1.0365e-13
-5.99299e-12
-2.24994e-13
-9.80279e-12
-3.88927e-13
-1.34725e-11
-5.93204e-13
-1.70019e-11
-8.35817e-13
-2.03908e-11
-1.11494e-12
-2.36391e-11
-1.42893e-12
-2.67466e-11
-1.77623e-12
-2.97133e-11
-2.15542e-12
-3.25391e-11
-2.56511e-12
-3.52238e-11
-3.00398e-12
-3.77674e-11
-3.4707e-12
-4.01699e-11
-3.96391e-12
-4.24313e-11
-4.48221e-12
-4.45515e-11
-5.02414e-12
-4.65307e-11
-5.58809e-12
-4.83687e-11
-6.17236e-12
-5.00658e-11
-6.77504e-12
-5.16219e-11
-7.39405e-12
-5.30373e-11
-8.02702e-12
-5.4312e-11
-8.67137e-12
-5.54463e-11
-9.32414e-12
-5.64402e-11
-9.9821e-12
-5.72943e-11
-1.06414e-11
-5.80085e-11
-1.12977e-11
-5.85837e-11
-1.19456e-11
-5.90207e-11
-1.29662e-11
-5.93225e-11
-4.00394e-11
-5.95023e-11
-4.06542e-11
-5.95197e-11
-4.12369e-11
-5.95187e-11
-4.18317e-11
-5.94716e-11
-4.24445e-11
-5.9473e-11
-4.30624e-11
-5.938e-11
-4.36811e-11
-5.92417e-11
-4.43016e-11
-5.90886e-11
-4.49258e-11
-5.89294e-11
-4.55554e-11
-5.87662e-11
-4.61914e-11
-5.85995e-11
-4.68347e-11
-5.84296e-11
-4.74856e-11
-5.82561e-11
-4.81445e-11
-5.8079e-11
-4.88113e-11
-5.78977e-11
-4.94857e-11
-5.77121e-11
-5.01674e-11
-5.75217e-11
-5.08561e-11
-5.73263e-11
-5.15511e-11
-5.71256e-11
-5.2252e-11
-5.69194e-11
-5.29583e-11
-5.67074e-11
-5.64896e-11
-5.36693e-11
-1.79138e-14
-2.02586e-12
-7.17828e-14
-5.93913e-12
-1.61068e-13
-9.7135e-12
-2.84936e-13
-1.33486e-11
-4.42607e-13
-1.68442e-11
-6.33357e-13
-2.02001e-11
-8.565e-13
-2.34159e-11
-1.11141e-12
-2.64917e-11
-1.3975e-12
-2.94272e-11
-1.71422e-12
-3.22223e-11
-2.06106e-12
-3.48769e-11
-2.43757e-12
-3.73909e-11
-2.84329e-12
-3.97642e-11
-3.27786e-12
-4.19967e-11
-3.74087e-12
-4.40885e-11
-4.23204e-12
-4.60395e-11
-4.75104e-12
-4.78497e-11
-5.29765e-12
-4.95192e-11
-5.87161e-12
-5.1048e-11
-6.47284e-12
-5.24361e-11
-7.10114e-12
-5.36837e-11
-7.75661e-12
-5.47908e-11
-8.43917e-12
-5.57577e-11
-9.14914e-12
-5.65843e-11
-9.88658e-12
-5.7271e-11
-1.06523e-11
-5.7818e-11
-1.1447e-11
-5.8226e-11
-1.32058e-11
-5.84966e-11
-3.7695e-11
-5.86537e-11
-3.85434e-11
-5.86714e-11
-3.94264e-11
-5.86357e-11
-4.02616e-11
-5.86364e-11
-4.10887e-11
-5.86459e-11
-4.191e-11
-5.85586e-11
-4.2724e-11
-5.84277e-11
-4.35304e-11
-5.82822e-11
-4.43293e-11
-5.81304e-11
-4.51214e-11
-5.79741e-11
-4.59073e-11
-5.78136e-11
-4.66879e-11
-5.7649e-11
-4.74638e-11
-5.74802e-11
-4.82357e-11
-5.73071e-11
-4.90042e-11
-5.71293e-11
-4.97696e-11
-5.69467e-11
-5.05324e-11
-5.67589e-11
-5.12928e-11
-5.65659e-11
-5.20511e-11
-5.63673e-11
-5.28075e-11
-5.6163e-11
-5.3562e-11
-5.59529e-11
-5.57369e-11
-5.43147e-11
-5.60152e-15
-2.02026e-12
-2.467e-14
-5.92006e-12
-5.90398e-14
-9.67914e-12
-1.10255e-13
-1.32974e-11
-1.79716e-13
-1.67748e-11
-2.68686e-13
-2.01111e-11
-3.78329e-13
-2.33063e-11
-5.09711e-13
-2.63603e-11
-6.63836e-13
-2.92731e-11
-8.41646e-13
-3.20445e-11
-1.04406e-12
-3.46745e-11
-1.27197e-12
-3.7163e-11
-1.52628e-12
-3.95099e-11
-1.80789e-12
-4.17151e-11
-2.11775e-12
-4.37787e-11
-2.45684e-12
-4.57004e-11
-2.82623e-12
-4.74804e-11
-3.22705e-12
-4.91184e-11
-3.66056e-12
-5.06145e-11
-4.1281e-12
-5.19685e-11
-4.63121e-12
-5.31806e-11
-5.17151e-12
-5.42505e-11
-5.7509e-12
-5.51783e-11
-6.3714e-12
-5.59638e-11
-7.03548e-12
-5.6607e-11
-7.74582e-12
-5.71076e-11
-8.50494e-12
-5.74669e-11
-1.16036e-11
-5.76889e-11
-3.41109e-11
-5.78065e-11
-3.49804e-11
-5.78019e-11
-3.58807e-11
-5.77354e-11
-3.67651e-11
-5.7752e-11
-3.76821e-11
-5.77289e-11
-3.86142e-11
-5.76265e-11
-3.95492e-11
-5.74928e-11
-4.04827e-11
-5.73487e-11
-4.14128e-11
-5.72003e-11
-4.23383e-11
-5.70486e-11
-4.32582e-11
-5.68937e-11
-4.4172e-11
-5.67352e-11
-4.50794e-11
-5.65728e-11
-4.59802e-11
-5.64063e-11
-4.68742e-11
-5.62353e-11
-4.77615e-11
-5.60594e-11
-4.86419e-11
-5.58785e-11
-4.95156e-11
-5.56922e-11
-5.03826e-11
-5.55003e-11
-5.1243e-11
-5.53027e-11
-5.20967e-11
-5.50992e-11
-5.48897e-11
-5.29439e-11
-3.20925e-15
-2.01705e-12
-1.47203e-14
-5.90855e-12
-3.65523e-14
-9.6573e-12
-7.0712e-14
-1.32632e-11
-1.19056e-13
-1.67264e-11
-1.83317e-13
-2.00468e-11
-2.65114e-13
-2.32245e-11
-3.6599e-13
-2.62595e-11
-4.87411e-13
-2.91517e-11
-6.30811e-13
-3.19011e-11
-7.97584e-13
-3.45077e-11
-9.89135e-13
-3.69714e-11
-1.20686e-12
-3.92921e-11
-1.45222e-12
-4.14698e-11
-1.7267e-12
-4.35042e-11
-2.03189e-12
-4.53952e-11
-2.36945e-12
-4.71428e-11
-2.7412e-12
-4.87466e-11
-3.14906e-12
-5.02066e-11
-3.5952e-12
-5.15224e-11
-4.0819e-12
-5.26939e-11
-4.61177e-12
-5.37206e-11
-5.18757e-12
-5.46025e-11
-5.81244e-12
-5.5339e-11
-6.48993e-12
-5.59295e-11
-7.22463e-12
-5.63729e-11
-8.02137e-12
-5.66702e-11
-1.41482e-11
-5.68287e-11
-3.37601e-11
-5.68993e-11
-3.4699e-11
-5.68629e-11
-3.56315e-11
-5.6803e-11
-3.65443e-11
-5.68392e-11
-3.74952e-11
-5.6778e-11
-3.84605e-11
-5.66612e-11
-3.94269e-11
-5.65264e-11
-4.03901e-11
-5.63855e-11
-4.13491e-11
-5.62413e-11
-4.23035e-11
-5.60943e-11
-4.32528e-11
-5.59443e-11
-4.41968e-11
-5.57912e-11
-4.51352e-11
-5.56345e-11
-4.60676e-11
-5.54739e-11
-4.69938e-11
-5.53091e-11
-4.79135e-11
-5.51397e-11
-4.88264e-11
-5.49656e-11
-4.97323e-11
-5.47863e-11
-5.0631e-11
-5.46016e-11
-5.15223e-11
-5.44114e-11
-5.24062e-11
-5.42154e-11
-5.40135e-11
-5.32824e-11
-7.98536e-15
-2.00906e-12
-3.43216e-14
-5.88221e-12
-8.02732e-14
-9.61135e-12
-1.46523e-13
-1.3197e-11
-2.3366e-13
-1.66393e-11
-3.4221e-13
-1.99383e-11
-4.72626e-13
-2.30941e-11
-6.25321e-13
-2.61068e-11
-8.00647e-13
-2.89764e-11
-9.98937e-13
-3.17028e-11
-1.22046e-12
-3.42862e-11
-1.4655e-12
-3.67264e-11
-1.73427e-12
-3.90234e-11
-2.02701e-12
-4.1177e-11
-2.3439e-12
-4.31873e-11
-2.68515e-12
-4.5054e-11
-3.05092e-12
-4.6777e-11
-3.44144e-12
-4.83561e-11
-3.85682e-12
-4.97912e-11
-4.29732e-12
-5.10819e-11
-4.76305e-12
-5.22281e-11
-5.2543e-12
-5.32294e-11
-5.7711e-12
-5.40857e-11
-6.31361e-12
-5.47965e-11
-6.88172e-12
-5.53614e-11
-7.47712e-12
-5.57775e-11
-8.10478e-12
-5.60425e-11
-2.28912e-11
-5.61628e-11
-3.584e-11
-5.62132e-11
-3.65365e-11
-5.61664e-11
-3.72441e-11
-5.60953e-11
-3.79853e-11
-5.6098e-11
-3.87621e-11
-5.60012e-11
-3.95629e-11
-5.58605e-11
-4.03797e-11
-5.57096e-11
-4.12083e-11
-5.55569e-11
-4.20459e-11
-5.54037e-11
-4.28904e-11
-5.52498e-11
-4.37399e-11
-5.50949e-11
-4.45928e-11
-5.49383e-11
-4.54478e-11
-5.47795e-11
-4.63038e-11
-5.46178e-11
-4.71602e-11
-5.44527e-11
-4.80161e-11
-5.42838e-11
-4.8871e-11
-5.41106e-11
-4.97245e-11
-5.39328e-11
-5.0576e-11
-5.37501e-11
-5.14251e-11
-5.35622e-11
-5.22715e-11
-5.33689e-11
-5.31701e-11
-5.31149e-11
-2.55054e-14
-1.98356e-12
-9.78086e-14
-5.80991e-12
-2.13753e-13
-9.49541e-12
-3.70798e-13
-1.304e-11
-5.66624e-13
-1.64434e-11
-7.99088e-13
-1.97058e-11
-1.06622e-12
-2.2827e-11
-1.36614e-12
-2.58068e-11
-1.6971e-12
-2.86454e-11
-2.05737e-12
-3.13426e-11
-2.44526e-12
-3.38983e-11
-2.85909e-12
-3.63126e-11
-3.29716e-12
-3.85853e-11
-3.75768e-12
-4.07165e-11
-4.23882e-12
-4.27062e-11
-4.73858e-12
-4.45542e-11
-5.25488e-12
-4.62607e-11
-5.78537e-12
-4.78256e-11
-6.32758e-12
-4.9249e-11
-6.87865e-12
-5.05308e-11
-7.43553e-12
-5.16712e-11
-7.99469e-12
-5.26702e-11
-8.5525e-12
-5.35279e-11
-9.10494e-12
-5.4244e-11
-9.64724e-12
-5.48191e-11
-1.01701e-11
-5.52547e-11
-1.08883e-11
-5.55557e-11
-4.25595e-11
-5.57342e-11
-4.30372e-11
-5.57355e-11
-4.34797e-11
-5.57239e-11
-4.39275e-11
-5.56475e-11
-4.44156e-11
-5.56099e-11
-4.4933e-11
-5.54837e-11
-4.54746e-11
-5.53189e-11
-4.60376e-11
-5.51465e-11
-4.66196e-11
-5.49748e-11
-4.72182e-11
-5.48051e-11
-4.7831e-11
-5.4637e-11
-4.84562e-11
-5.44697e-11
-4.90922e-11
-5.43023e-11
-4.97379e-11
-5.41338e-11
-5.03925e-11
-5.39632e-11
-5.10553e-11
-5.37899e-11
-5.17258e-11
-5.36133e-11
-5.24036e-11
-5.34329e-11
-5.30882e-11
-5.32483e-11
-5.37791e-11
-5.30592e-11
-5.44757e-11
-5.28655e-11
-5.51777e-11
-5.2667e-11
-5.24636e-11
-5.58842e-11
-2.63753e-14
-1.95718e-12
-1.01346e-13
-5.73494e-12
-2.2193e-13
-9.37482e-12
-3.8581e-13
-1.28761e-11
-5.90854e-13
-1.62384e-11
-8.35099e-13
-1.94616e-11
-1.11673e-12
-2.25453e-11
-1.43406e-12
-2.54895e-11
-1.78549e-12
-2.8294e-11
-2.16951e-12
-3.09585e-11
-2.5847e-12
-3.34831e-11
-3.02965e-12
-3.58676e-11
-3.50301e-12
-3.8112e-11
-4.00342e-12
-4.02161e-11
-4.52956e-12
-4.218e-11
-5.08005e-12
-4.40037e-11
-5.6535e-12
-4.56873e-11
-6.24846e-12
-4.72307e-11
-6.86345e-12
-4.8634e-11
-7.49684e-12
-4.98975e-11
-8.14701e-12
-5.10211e-11
-8.81211e-12
-5.20051e-11
-9.49026e-12
-5.28497e-11
-1.01791e-11
-5.35552e-11
-1.08764e-11
-5.41218e-11
-1.15807e-11
-5.45503e-11
-1.26074e-11
-5.48417e-11
-4.02234e-11
-5.50149e-11
-4.09197e-11
-5.50391e-11
-4.16238e-11
-5.50198e-11
-4.2312e-11
-5.49593e-11
-4.29946e-11
-5.49274e-11
-4.36749e-11
-5.48034e-11
-4.43533e-11
-5.46405e-11
-4.50309e-11
-5.4469e-11
-4.57084e-11
-5.42972e-11
-4.63869e-11
-5.41267e-11
-4.70668e-11
-5.3957e-11
-4.77489e-11
-5.37876e-11
-4.84337e-11
-5.36175e-11
-4.91215e-11
-5.3446e-11
-4.98126e-11
-5.32721e-11
-5.05073e-11
-5.30953e-11
-5.12055e-11
-5.2915e-11
-5.19074e-11
-5.2731e-11
-5.26129e-11
-5.25428e-11
-5.33217e-11
-5.23504e-11
-5.40338e-11
-5.21535e-11
-5.47487e-11
-5.19521e-11
-5.17461e-11
-5.54662e-11
-8.68667e-15
-1.9485e-12
-3.78496e-14
-5.70577e-12
-8.90929e-14
-9.32358e-12
-1.63235e-13
-1.28019e-11
-2.60973e-13
-1.61407e-11
-3.82906e-13
-1.93396e-11
-5.29548e-13
-2.23987e-11
-7.01353e-13
-2.53177e-11
-8.98721e-13
-2.80966e-11
-1.12203e-12
-3.07352e-11
-1.37163e-12
-3.32335e-11
-1.64787e-12
-3.55914e-11
-1.95112e-12
-3.78087e-11
-2.28177e-12
-3.98855e-11
-2.64022e-12
-4.18216e-11
-3.02698e-12
-4.3617e-11
-3.44256e-12
-4.52717e-11
-3.88762e-12
-4.67856e-11
-4.36286e-12
-4.81588e-11
-4.86915e-12
-4.93912e-11
-5.40746e-12
-5.04828e-11
-5.97894e-12
-5.14336e-11
-6.58494e-12
-5.22437e-11
-7.22706e-12
-5.29131e-11
-7.90713e-12
-5.34417e-11
-8.62707e-12
-5.38304e-11
-1.07438e-11
-5.40811e-11
-3.63449e-11
-5.42208e-11
-3.71546e-11
-5.42294e-11
-3.80074e-11
-5.4167e-11
-3.88509e-11
-5.41158e-11
-3.97192e-11
-5.40591e-11
-4.05996e-11
-5.3923e-11
-4.1482e-11
-5.37581e-11
-4.23629e-11
-5.35881e-11
-4.32405e-11
-5.34196e-11
-4.4114e-11
-5.32532e-11
-4.49829e-11
-5.30881e-11
-4.58472e-11
-5.29234e-11
-4.67067e-11
-5.2758e-11
-4.75615e-11
-5.25912e-11
-4.84116e-11
-5.24219e-11
-4.92572e-11
-5.22497e-11
-5.00982e-11
-5.2074e-11
-5.09346e-11
-5.18946e-11
-5.17663e-11
-5.1711e-11
-5.25935e-11
-5.15232e-11
-5.34159e-11
-5.1331e-11
-5.42337e-11
-5.11343e-11
-5.0933e-11
-5.50468e-11
-4.83939e-15
-2.03962e-14
-4.82198e-14
-9.00449e-14
-1.47494e-13
-2.22096e-13
-3.15292e-13
-4.28462e-13
-5.62931e-13
-7.1999e-13
-9.00901e-13
-1.10693e-12
-1.33933e-12
-1.5994e-12
-1.88845e-12
-2.20788e-12
-2.55911e-12
-2.9437e-12
-3.36326e-12
-3.81958e-12
-4.31451e-12
-4.85016e-12
-5.42873e-12
-6.05292e-12
-6.72551e-12
-7.44872e-12
-1.11978e-11
-3.49018e-11
-3.57374e-11
-3.65763e-11
-3.73875e-11
-3.82497e-11
-3.91346e-11
-4.00265e-11
-4.09201e-11
-4.18139e-11
-4.2707e-11
-4.35986e-11
-4.44881e-11
-4.53751e-11
-4.62594e-11
-4.71404e-11
-4.80181e-11
-4.8892e-11
-4.97619e-11
-5.06274e-11
-5.14885e-11
-5.23448e-11
-5.31962e-11
-5.40425e-11
-5.11036e-11
-6.4823e-11
-5.16203e-11
-6.45817e-11
-5.21402e-11
-6.43304e-11
-5.26626e-11
-6.40692e-11
-5.3187e-11
-6.3798e-11
-5.37128e-11
-6.35168e-11
-5.42395e-11
-6.32256e-11
-5.47665e-11
-6.29247e-11
-5.52934e-11
-6.2614e-11
-5.58195e-11
-6.22938e-11
-5.63444e-11
-6.19641e-11
-5.68678e-11
-6.16252e-11
-5.73891e-11
-6.12772e-11
-5.7908e-11
-6.09204e-11
-5.8424e-11
-6.05549e-11
-5.89368e-11
-6.01809e-11
-5.9446e-11
-5.97988e-11
-5.99513e-11
-5.94087e-11
-6.04524e-11
-5.90109e-11
-6.09489e-11
-5.86056e-11
-6.14406e-11
-5.81931e-11
-6.19271e-11
-5.77736e-11
-6.24083e-11
-5.73475e-11
-6.28838e-11
-5.6915e-11
-6.33534e-11
-5.64763e-11
-6.38168e-11
-5.60318e-11
-6.42739e-11
-5.55817e-11
-6.47243e-11
-5.51264e-11
-6.5168e-11
-5.4666e-11
-6.56046e-11
-5.4201e-11
-6.60341e-11
-5.37315e-11
-6.64562e-11
-5.3258e-11
-6.68708e-11
-5.27806e-11
-6.72776e-11
-5.22997e-11
-6.76767e-11
-5.18156e-11
-6.80677e-11
-5.13285e-11
-6.84507e-11
-5.08388e-11
-6.88254e-11
-5.03467e-11
-6.91917e-11
-4.98526e-11
-6.95496e-11
-4.93568e-11
-6.9899e-11
-4.88594e-11
-7.02397e-11
-4.83609e-11
-7.05717e-11
-4.78615e-11
-7.08949e-11
-4.73614e-11
-7.12094e-11
-4.68611e-11
-7.15149e-11
-4.63607e-11
-7.18116e-11
-4.58602e-11
-7.20993e-11
-4.53586e-11
-7.2378e-11
-4.48531e-11
-4.43463e-11
-7.26442e-11
-5.28878e-11
-6.42432e-11
-5.34741e-11
-6.39954e-11
-5.40661e-11
-6.37385e-11
-5.4663e-11
-6.34722e-11
-5.52642e-11
-6.31968e-11
-5.58689e-11
-6.29121e-11
-5.64764e-11
-6.26182e-11
-5.70859e-11
-6.23152e-11
-5.76968e-11
-6.20031e-11
-5.83084e-11
-6.16822e-11
-5.89201e-11
-6.13525e-11
-5.95312e-11
-6.10141e-11
-6.01412e-11
-6.06673e-11
-6.07494e-11
-6.03121e-11
-6.13554e-11
-5.99489e-11
-6.19586e-11
-5.95777e-11
-6.25585e-11
-5.91989e-11
-6.31546e-11
-5.88126e-11
-6.37465e-11
-5.8419e-11
-6.43336e-11
-5.80184e-11
-6.49156e-11
-5.76111e-11
-6.5492e-11
-5.71972e-11
-6.60625e-11
-5.6777e-11
-6.66266e-11
-5.63509e-11
-6.7184e-11
-5.59189e-11
-6.77343e-11
-5.54815e-11
-6.82772e-11
-5.50388e-11
-6.88123e-11
-5.45912e-11
-6.93394e-11
-5.41389e-11
-6.98582e-11
-5.36822e-11
-7.03683e-11
-5.32214e-11
-7.08695e-11
-5.27567e-11
-7.13616e-11
-5.22885e-11
-7.18443e-11
-5.1817e-11
-7.23174e-11
-5.13425e-11
-7.27806e-11
-5.08653e-11
-7.32338e-11
-5.03856e-11
-7.36768e-11
-4.99038e-11
-7.41093e-11
-4.94201e-11
-7.45313e-11
-4.89348e-11
-7.49425e-11
-4.84482e-11
-7.53429e-11
-4.79605e-11
-7.57322e-11
-4.74721e-11
-7.61104e-11
-4.69832e-11
-7.64774e-11
-4.64941e-11
-7.6833e-11
-4.60051e-11
-7.71772e-11
-4.5516e-11
-7.75098e-11
-4.50259e-11
-7.78309e-11
-4.4532e-11
-4.40339e-11
-7.81433e-11
-5.00227e-11
-6.35248e-11
-5.07385e-11
-6.32797e-11
-5.14517e-11
-6.30253e-11
-5.21622e-11
-6.27617e-11
-5.28701e-11
-6.24889e-11
-5.35752e-11
-6.2207e-11
-5.42774e-11
-6.1916e-11
-5.49764e-11
-6.16162e-11
-5.5672e-11
-6.13075e-11
-5.63641e-11
-6.09901e-11
-5.70523e-11
-6.06642e-11
-5.77365e-11
-6.03299e-11
-5.84163e-11
-5.99875e-11
-5.90914e-11
-5.9637e-11
-5.97616e-11
-5.92787e-11
-6.04266e-11
-5.89128e-11
-6.1086e-11
-5.85395e-11
-6.17396e-11
-5.8159e-11
-6.23871e-11
-5.77715e-11
-6.30281e-11
-5.73774e-11
-6.36625e-11
-5.69767e-11
-6.42899e-11
-5.65698e-11
-6.49101e-11
-5.61569e-11
-6.55227e-11
-5.57382e-11
-6.61276e-11
-5.5314e-11
-6.67244e-11
-5.48846e-11
-6.7313e-11
-5.44503e-11
-6.78931e-11
-5.40111e-11
-6.84644e-11
-5.35676e-11
-6.90268e-11
-5.31198e-11
-6.958e-11
-5.26682e-11
-7.01238e-11
-5.22129e-11
-7.06582e-11
-5.17542e-11
-7.11827e-11
-5.12924e-11
-7.16974e-11
-5.08278e-11
-7.22021e-11
-5.03606e-11
-7.26965e-11
-4.98912e-11
-7.31805e-11
-4.94197e-11
-7.36541e-11
-4.89465e-11
-7.4117e-11
-4.84718e-11
-7.45693e-11
-4.79959e-11
-7.50107e-11
-4.75191e-11
-7.54411e-11
-4.70417e-11
-7.58606e-11
-4.65638e-11
-7.62689e-11
-4.60858e-11
-7.66661e-11
-4.56079e-11
-7.7052e-11
-4.51301e-11
-7.74266e-11
-4.46513e-11
-7.77899e-11
-4.41687e-11
-4.36842e-11
-7.81396e-11
-5.03225e-11
-6.27602e-11
-5.10833e-11
-6.25189e-11
-5.18405e-11
-6.22681e-11
-5.25941e-11
-6.20081e-11
-5.33442e-11
-6.17388e-11
-5.40907e-11
-6.14604e-11
-5.48337e-11