/*--------------------------------*- C++ -*----------------------------------*\
| =========                 |                                                 |
| \\      /  F ield         | OpenFOAM: The Open Source CFD Toolbox           |
|  \\    /   O peration     | Version:  2.4.0                                 |
|   \\  /    A nd           | Web:      www.OpenFOAM.org                      |
|    \\/     M anipulation  |                                                 |
\*---------------------------------------------------------------------------*/
FoamFile
{
    version     2.0;
    format      ascii;
    class       volVectorField;
    location    "1.4";
    object      U;
}
// * * * * * * * * * * * * * * * * * * * * * * * * * * * * * * * * * * * * * //

dimensions      [0 1 -1 0 0 0 0];

internalField   nonuniform List<vector> 
8000
(
(-2.15324e-07 -0.000225662 0)
(-1.32497e-06 -0.000660966 0)
(-3.25568e-06 -0.00108048 0)
(-5.86378e-06 -0.0014844 0)
(-9.03955e-06 -0.0018729 0)
(-1.27026e-05 -0.00224613 0)
(-1.67947e-05 -0.00260421 0)
(-2.12581e-05 -0.00294726 0)
(-2.60487e-05 -0.00327538 0)
(-3.11181e-05 -0.00358864 0)
(-3.64336e-05 -0.00388713 0)
(-4.19528e-05 -0.00417089 0)
(-4.76525e-05 -0.00443997 0)
(-5.3493e-05 -0.00469442 0)
(-5.94582e-05 -0.00493426 0)
(-6.55079e-05 -0.00515952 0)
(-7.16319e-05 -0.0053702 0)
(-7.77865e-05 -0.00556632 0)
(-8.39664e-05 -0.00574787 0)
(-9.01206e-05 -0.00591483 0)
(-9.62475e-05 -0.00606718 0)
(-0.000102282 -0.00620491 0)
(-0.000108232 -0.00632795 0)
(-0.000114042 -0.00643628 0)
(-0.000119774 -0.00652983 0)
(-0.000125264 -0.00660854 0)
(-0.000129898 -0.00667229 0)
(-0.000132238 -0.00672086 0)
(-0.000133888 -0.00675382 0)
(-0.000151163 -0.00677169 0)
(-0.000214376 -0.00677819 0)
(-0.000303683 -0.00678021 0)
(-0.000358905 -0.00678031 0)
(-0.000421797 -0.00677525 0)
(-0.000359557 -0.00678712 0)
(-0.000346906 -0.00678266 0)
(-0.000350872 -0.00677061 0)
(-0.000356617 -0.00675694 0)
(-0.00036081 -0.00674305 0)
(-0.000364352 -0.00672896 0)
(-0.000367884 -0.00671454 0)
(-0.000371527 -0.00669964 0)
(-0.00037525 -0.00668415 0)
(-0.000379029 -0.00666795 0)
(-0.000382855 -0.00665096 0)
(-0.000386729 -0.00663312 0)
(-0.000390651 -0.00661439 0)
(-0.000394619 -0.00659472 0)
(-0.00039863 -0.00657408 0)
(-0.000402682 -0.00655244 0)
(-2.42462e-08 -0.00021424 0)
(-6.91442e-07 -0.000629629 0)
(-2.11152e-06 -0.00103177 0)
(-4.25114e-06 -0.00142054 0)
(-7.02946e-06 -0.00179581 0)
(-1.03765e-05 -0.0021575 0)
(-1.42343e-05 -0.00250552 0)
(-1.85532e-05 -0.00283981 0)
(-2.32866e-05 -0.00316032 0)
(-2.83926e-05 -0.003467 0)
(-3.38312e-05 -0.00375983 0)
(-3.95666e-05 -0.00403878 0)
(-4.55636e-05 -0.00430381 0)
(-5.17904e-05 -0.00455493 0)
(-5.8215e-05 -0.00479213 0)
(-6.48074e-05 -0.00501539 0)
(-7.15379e-05 -0.00522472 0)
(-7.83757e-05 -0.00542014 0)
(-8.52921e-05 -0.00560164 0)
(-9.22538e-05 -0.00576925 0)
(-9.92306e-05 -0.00592299 0)
(-0.000106183 -0.00606289 0)
(-0.000113083 -0.00618898 0)
(-0.000119905 -0.00630129 0)
(-0.000126662 -0.00639988 0)
(-0.000133209 -0.00648481 0)
(-0.000138993 -0.00655613 0)
(-0.000142907 -0.00661394 0)
(-0.000146787 -0.00665837 0)
(-0.000164614 -0.00668955 0)
(-0.000219259 -0.00670806 0)
(-0.000299857 -0.00671375 0)
(-0.00037101 -0.00671637 0)
(-0.000452861 -0.00671638 0)
(-0.000361756 -0.00671939 0)
(-0.000352407 -0.00671214 0)
(-0.000358918 -0.00669974 0)
(-0.000365671 -0.00668574 0)
(-0.000370124 -0.00667105 0)
(-0.00037389 -0.00665584 0)
(-0.000377712 -0.00664009 0)
(-0.00038168 -0.00662375 0)
(-0.000385741 -0.00660677 0)
(-0.000389873 -0.00658907 0)
(-0.000394076 -0.0065706 0)
(-0.000398351 -0.00655132 0)
(-0.000402699 -0.00653119 0)
(-0.000407119 -0.00651018 0)
(-0.000411607 -0.00648827 0)
(-0.000416159 -0.00646546 0)
(-5.58256e-08 -0.000214353 0)
(-3.6784e-07 -0.000629265 0)
(-9.61254e-07 -0.00103039 0)
(-1.82097e-06 -0.00141772 0)
(-2.93937e-06 -0.00179126 0)
(-4.31155e-06 -0.00215099 0)
(-5.93464e-06 -0.00249691 0)
(-7.80204e-06 -0.00282901 0)
(-9.90869e-06 -0.0031473 0)
(-1.22453e-05 -0.00345176 0)
(-1.48061e-05 -0.00374239 0)
(-1.75802e-05 -0.00401919 0)
(-2.05624e-05 -0.00428215 0)
(-2.37405e-05 -0.00453128 0)
(-2.71107e-05 -0.00476658 0)
(-3.06598e-05 -0.00498806 0)
(-3.43861e-05 -0.00519571 0)
(-3.82753e-05 -0.00538955 0)
(-4.23292e-05 -0.0055696 0)
(-4.65315e-05 -0.00573585 0)
(-5.08883e-05 -0.00588834 0)
(-5.53795e-05 -0.00602707 0)
(-6.0022e-05 -0.00615208 0)
(-6.48127e-05 -0.00626337 0)
(-6.9807e-05 -0.00636099 0)
(-7.49016e-05 -0.00644497 0)
(-7.96418e-05 -0.00651532 0)
(-8.32013e-05 -0.00657209 0)
(-8.7597e-05 -0.00661538 0)
(-0.000105159 -0.00664533 0)
(-0.000156488 -0.00666315 0)
(-0.000234643 -0.0066674 0)
(-0.000316294 -0.00666956 0)
(-0.000398605 -0.00667032 0)
(-0.000304487 -0.00667475 0)
(-0.000299997 -0.00666895 0)
(-0.000310025 -0.0066579 0)
(-0.000319424 -0.00664495 0)
(-0.000326261 -0.00663102 0)
(-0.000332341 -0.00661631 0)
(-0.000338385 -0.00660085 0)
(-0.000344453 -0.00658465 0)
(-0.000350487 -0.00656768 0)
(-0.000356465 -0.00654991 0)
(-0.000362396 -0.00653132 0)
(-0.000368287 -0.00651188 0)
(-0.000374145 -0.00649158 0)
(-0.000379974 -0.0064704 0)
(-0.000385777 -0.00644833 0)
(-0.000391556 -0.00642536 0)
(6.71753e-10 -0.000211201 0)
(-1.29866e-07 -0.000620311 0)
(-4.39832e-07 -0.00101607 0)
(-9.39543e-07 -0.00139841 0)
(-1.62937e-06 -0.00176729 0)
(-2.50898e-06 -0.00212267 0)
(-3.58065e-06 -0.0024645 0)
(-4.84549e-06 -0.00279275 0)
(-6.30665e-06 -0.0031074 0)
(-7.96482e-06 -0.0034084 0)
(-9.82394e-06 -0.00369575 0)
(-1.18843e-05 -0.00396941 0)
(-1.41511e-05 -0.00422937 0)
(-1.66243e-05 -0.00447561 0)
(-1.93111e-05 -0.00470813 0)
(-2.22109e-05 -0.00492691 0)
(-2.53338e-05 -0.00513194 0)
(-2.86782e-05 -0.00532322 0)
(-3.22582e-05 -0.00550074 0)
(-3.60708e-05 -0.00566451 0)
(-4.01348e-05 -0.00581452 0)
(-4.44444e-05 -0.00595077 0)
(-4.90311e-05 -0.00607327 0)
(-5.39048e-05 -0.00618203 0)
(-5.91177e-05 -0.00627706 0)
(-6.45375e-05 -0.00635835 0)
(-6.97458e-05 -0.00642593 0)
(-7.43389e-05 -0.0064798 0)
(-8.15048e-05 -0.00652004 0)
(-0.000102416 -0.0065468 0)
(-0.000151236 -0.00656275 0)
(-0.00022811 -0.00656537 0)
(-0.000329395 -0.0065628 0)
(-0.000376706 -0.00656399 0)
(-0.000298268 -0.00656723 0)
(-0.000295825 -0.00656118 0)
(-0.00030622 -0.0065508 0)
(-0.000315779 -0.00653892 0)
(-0.000323058 -0.00652627 0)
(-0.000329668 -0.00651291 0)
(-0.000336238 -0.00649879 0)
(-0.000342811 -0.00648385 0)
(-0.000349331 -0.00646803 0)
(-0.000355783 -0.00645131 0)
(-0.000362171 -0.00643365 0)
(-0.000368504 -0.00641504 0)
(-0.000374788 -0.00639548 0)
(-0.00038103 -0.00637495 0)
(-0.000387231 -0.00635346 0)
(-0.000393397 -0.00633103 0)
(4.28214e-09 -0.000212066 0)
(6.62689e-08 -0.000622371 0)
(1.6892e-07 -0.00101885 0)
(2.91061e-07 -0.00140149 0)
(4.05372e-07 -0.00177029 0)
(4.88185e-07 -0.00212524 0)
(5.17427e-07 -0.00246633 0)
(4.74663e-07 -0.00279357 0)
(3.40801e-07 -0.00310694 0)
(1.0057e-07 -0.00340644 0)
(-2.63704e-07 -0.00369205 0)
(-7.64837e-07 -0.00396377 0)
(-1.4203e-06 -0.00422159 0)
(-2.24098e-06 -0.0044655 0)
(-3.24549e-06 -0.00469549 0)
(-4.4431e-06 -0.00491155 0)
(-5.85513e-06 -0.00511367 0)
(-7.4893e-06 -0.00530185 0)
(-9.37147e-06 -0.00547607 0)
(-1.15073e-05 -0.00563633 0)
(-1.39288e-05 -0.00578261 0)
(-1.66392e-05 -0.00591491 0)
(-1.96868e-05 -0.00603321 0)
(-2.30885e-05 -0.0061375 0)
(-2.69043e-05 -0.00622779 0)
(-3.0984e-05 -0.00630405 0)
(-3.49667e-05 -0.00636624 0)
(-3.87491e-05 -0.00641435 0)
(-4.62434e-05 -0.00644841 0)
(-6.72172e-05 -0.00646896 0)
(-0.000112247 -0.00647995 0)
(-0.000189976 -0.0064798 0)
(-0.000318329 -0.00647143 0)
(-0.000292119 -0.0064817 0)
(-0.000250865 -0.0064862 0)
(-0.000253593 -0.00648145 0)
(-0.000264475 -0.00647275 0)
(-0.000274157 -0.00646243 0)
(-0.000282368 -0.00645112 0)
(-0.000290227 -0.00643891 0)
(-0.00029811 -0.00642581 0)
(-0.000306014 -0.00641178 0)
(-0.000313889 -0.00639679 0)
(-0.000321713 -0.00638083 0)
(-0.000329483 -0.00636387 0)
(-0.000337196 -0.00634591 0)
(-0.000344849 -0.00632694 0)
(-0.00035244 -0.00630698 0)
(-0.000359965 -0.00628603 0)
(-0.000367423 -0.0062641 0)
(5.44564e-09 -0.000212384 0)
(-2.15068e-08 -0.000623029 0)
(-1.11496e-07 -0.00101957 0)
(-2.78228e-07 -0.00140203 0)
(-5.33074e-07 -0.00177041 0)
(-8.84317e-07 -0.00212473 0)
(-1.34279e-06 -0.00246499 0)
(-1.91548e-06 -0.00279121 0)
(-2.61324e-06 -0.00310338 0)
(-3.44134e-06 -0.0034015 0)
(-4.41086e-06 -0.00368558 0)
(-5.5252e-06 -0.00395559 0)
(-6.79618e-06 -0.00421154 0)
(-8.22516e-06 -0.00445342 0)
(-9.82525e-06 -0.0046812 0)
(-1.15954e-05 -0.00489487 0)
(-1.35507e-05 -0.00509442 0)
(-1.56873e-05 -0.00527981 0)
(-1.80231e-05 -0.00545102 0)
(-2.05496e-05 -0.00560802 0)
(-2.32879e-05 -0.00575077 0)
(-2.62257e-05 -0.00587923 0)
(-2.94069e-05 -0.00599336 0)
(-3.28444e-05 -0.0060931 0)
(-3.65434e-05 -0.00617841 0)
(-4.0087e-05 -0.0062492 0)
(-4.26823e-05 -0.00630538 0)
(-4.50869e-05 -0.00634679 0)
(-5.75022e-05 -0.00637348 0)
(-9.88826e-05 -0.00638635 0)
(-0.000163211 -0.00639045 0)
(-0.000243611 -0.00638493 0)
(-0.000378344 -0.00637841 0)
(-0.000279347 -0.00638357 0)
(-0.000266773 -0.00637953 0)
(-0.000274236 -0.00636987 0)
(-0.000283565 -0.00635848 0)
(-0.000290732 -0.00634648 0)
(-0.000297178 -0.00633403 0)
(-0.000303712 -0.0063211 0)
(-0.000310442 -0.0063076 0)
(-0.000317295 -0.00629345 0)
(-0.000324223 -0.00627858 0)
(-0.000331205 -0.00626294 0)
(-0.00033823 -0.00624648 0)
(-0.000345284 -0.00622916 0)
(-0.000352358 -0.00621097 0)
(-0.000359441 -0.00619188 0)
(-0.000366525 -0.0061719 0)
(-0.000373601 -0.00615101 0)
(-3.73375e-08 -0.000211476 0)
(-3.34484e-07 -0.000620296 0)
(-9.17531e-07 -0.001015 0)
(-1.77111e-06 -0.0013956 0)
(-2.87591e-06 -0.00176209 0)
(-4.22069e-06 -0.0021145 0)
(-5.79565e-06 -0.00245283 0)
(-7.59597e-06 -0.00277708 0)
(-9.61347e-06 -0.00308726 0)
(-1.18458e-05 -0.00338336 0)
(-1.42851e-05 -0.00366539 0)
(-1.6931e-05 -0.00393335 0)
(-1.97745e-05 -0.00418723 0)
(-2.28171e-05 -0.00442703 0)
(-2.60474e-05 -0.00465275 0)
(-2.9468e-05 -0.00486438 0)
(-3.30637e-05 -0.00506192 0)
(-3.68381e-05 -0.00524535 0)
(-4.077e-05 -0.00541468 0)
(-4.48629e-05 -0.00556989 0)
(-4.90856e-05 -0.00571097 0)
(-5.34468e-05 -0.00583792 0)
(-5.79319e-05 -0.00595074 0)
(-6.25959e-05 -0.00604938 0)
(-6.72985e-05 -0.00613389 0)
(-7.13884e-05 -0.0062042 0)
(-7.3598e-05 -0.00626035 0)
(-7.60626e-05 -0.00630227 0)
(-9.60129e-05 -0.00633015 0)
(-0.000159773 -0.00634445 0)
(-0.000252359 -0.00634654 0)
(-0.000335104 -0.0063434 0)
(-0.000424482 -0.00634092 0)
(-0.000318683 -0.00634315 0)
(-0.000311162 -0.00633583 0)
(-0.000319393 -0.00632376 0)
(-0.000327145 -0.00631018 0)
(-0.000332345 -0.00629602 0)
(-0.000336945 -0.00628144 0)
(-0.000341712 -0.00626645 0)
(-0.000346696 -0.00625102 0)
(-0.000351819 -0.00623508 0)
(-0.000357044 -0.00621859 0)
(-0.000362365 -0.00620149 0)
(-0.000367777 -0.00618373 0)
(-0.000373273 -0.00616526 0)
(-0.000378847 -0.00614605 0)
(-0.000384493 -0.00612607 0)
(-0.000390203 -0.00610531 0)
(-0.000395971 -0.00608374 0)
(-2.71729e-08 -0.000208607 0)
(-2.79726e-07 -0.000612149 0)
(-7.92145e-07 -0.00100198 0)
(-1.55727e-06 -0.00137804 0)
(-2.56256e-06 -0.0017403 0)
(-3.8007e-06 -0.00208873 0)
(-5.26612e-06 -0.0024233 0)
(-6.95613e-06 -0.00274398 0)
(-8.86634e-06 -0.00305075 0)
(-1.09957e-05 -0.0033436 0)
(-1.33402e-05 -0.00362251 0)
(-1.59003e-05 -0.00388747 0)
(-1.86717e-05 -0.00413848 0)
(-2.16568e-05 -0.00437552 0)
(-2.48497e-05 -0.00459859 0)
(-2.8255e-05 -0.0048077 0)
(-3.18643e-05 -0.00500284 0)
(-3.56849e-05 -0.00518403 0)
(-3.97044e-05 -0.00535128 0)
(-4.39326e-05 -0.00550459 0)
(-4.83502e-05 -0.00564399 0)
(-5.29765e-05 -0.0057695 0)
(-5.78044e-05 -0.00588114 0)
(-6.28854e-05 -0.00597896 0)
(-6.80886e-05 -0.00606298 0)
(-7.29439e-05 -0.00613325 0)
(-7.66921e-05 -0.00618983 0)
(-8.17804e-05 -0.00623284 0)
(-0.000100515 -0.00626247 0)
(-0.000153089 -0.00628053 0)
(-0.000235796 -0.0062835 0)
(-0.000331895 -0.00628329 0)
(-0.000405021 -0.00628035 0)
(-0.000307045 -0.00628138 0)
(-0.000302424 -0.00627307 0)
(-0.000312246 -0.00626024 0)
(-0.000321159 -0.00624591 0)
(-0.000327501 -0.00623095 0)
(-0.000333184 -0.00621552 0)
(-0.000338931 -0.00619961 0)
(-0.000344787 -0.00618323 0)
(-0.000350684 -0.00616631 0)
(-0.000356595 -0.00614884 0)
(-0.000362524 -0.00613075 0)
(-0.000368473 -0.00611203 0)
(-0.000374446 -0.00609262 0)
(-0.000380441 -0.00607252 0)
(-0.000386459 -0.0060517 0)
(-0.000392499 -0.00603014 0)
(-0.000398558 -0.00600783 0)
(6.64026e-09 -0.000208125 0)
(3.56928e-09 -0.000610495 0)
(-4.22092e-08 -0.000998966 0)
(-1.50745e-07 -0.00137351 0)
(-3.38924e-07 -0.00173412 0)
(-6.22933e-07 -0.00208077 0)
(-1.0157e-06 -0.00241344 0)
(-1.53147e-06 -0.00273212 0)
(-2.18067e-06 -0.00303681 0)
(-2.97673e-06 -0.00332748 0)
(-3.9282e-06 -0.00360413 0)
(-5.04879e-06 -0.00386675 0)
(-6.34572e-06 -0.00411532 0)
(-7.83422e-06 -0.00434985 0)
(-9.52054e-06 -0.00457033 0)
(-1.14228e-05 -0.00477675 0)
(-1.35467e-05 -0.00496911 0)
(-1.59149e-05 -0.00514741 0)
(-1.85322e-05 -0.00531165 0)
(-2.14276e-05 -0.00546183 0)
(-2.46045e-05 -0.00559797 0)
(-2.81076e-05 -0.00572006 0)
(-3.19578e-05 -0.00582811 0)
(-3.62207e-05 -0.00592215 0)
(-4.07708e-05 -0.00600218 0)
(-4.5217e-05 -0.00606821 0)
(-4.92483e-05 -0.00612027 0)
(-5.63312e-05 -0.00615843 0)
(-7.71777e-05 -0.00618298 0)
(-0.000126605 -0.00619711 0)
(-0.000209888 -0.00619846 0)
(-0.000336559 -0.0061921 0)
(-0.000343588 -0.00619559 0)
(-0.000280699 -0.00619724 0)
(-0.000280844 -0.00618946 0)
(-0.000292015 -0.00617754 0)
(-0.000302076 -0.00616414 0)
(-0.000310173 -0.00615004 0)
(-0.000317737 -0.00613537 0)
(-0.00032529 -0.00612017 0)
(-0.000332846 -0.0061044 0)
(-0.000340347 -0.00608803 0)
(-0.000347773 -0.00607104 0)
(-0.000355123 -0.00605338 0)
(-0.000362403 -0.00603503 0)
(-0.000369613 -0.00601596 0)
(-0.000376756 -0.00599615 0)
(-0.000383835 -0.00597561 0)
(-0.000390851 -0.0059543 0)
(-0.000397807 -0.00593224 0)
(-3.85624e-10 -0.000208477 0)
(-1.16205e-08 -0.000611199 0)
(-5.71325e-08 -0.000999698 0)
(-1.52931e-07 -0.00137398 0)
(-3.15138e-07 -0.00173406 0)
(-5.60578e-07 -0.00207993 0)
(-9.02274e-07 -0.00241161 0)
(-1.35542e-06 -0.00272908 0)
(-1.93028e-06 -0.00303235 0)
(-2.6415e-06 -0.00332142 0)
(-3.49709e-06 -0.00359627 0)
(-4.51219e-06 -0.00385691 0)
(-5.69278e-06 -0.00410331 0)
(-7.05567e-06 -0.00433547 0)
(-8.60484e-06 -0.00455337 0)
(-1.03603e-05 -0.00475698 0)
(-1.23237e-05 -0.00494631 0)
(-1.452e-05 -0.0051213 0)
(-1.69479e-05 -0.00528194 0)
(-1.96387e-05 -0.00542819 0)
(-2.25878e-05 -0.00556003 0)
(-2.58462e-05 -0.00567739 0)
(-2.94257e-05 -0.00578025 0)
(-3.33767e-05 -0.00586853 0)
(-3.74715e-05 -0.00594221 0)
(-4.12434e-05 -0.00600111 0)
(-4.48235e-05 -0.00604514 0)
(-5.38233e-05 -0.00607424 0)
(-8.0309e-05 -0.00608949 0)
(-0.000130613 -0.00609654 0)
(-0.000214236 -0.00609203 0)
(-0.000369711 -0.00608195 0)
(-0.000288284 -0.00608676 0)
(-0.000266531 -0.00608299 0)
(-0.000273043 -0.00607252 0)
(-0.000284089 -0.00605996 0)
(-0.000293183 -0.00604683 0)
(-0.000301159 -0.00603344 0)
(-0.000308964 -0.00601978 0)
(-0.000316823 -0.00600579 0)
(-0.000324694 -0.00599138 0)
(-0.000332534 -0.00597647 0)
(-0.000340328 -0.00596097 0)
(-0.000348072 -0.00594484 0)
(-0.000355764 -0.00592801 0)
(-0.000363402 -0.00591044 0)
(-0.000370982 -0.00589212 0)
(-0.000378503 -0.00587302 0)
(-0.000385962 -0.00585312 0)
(-0.000393358 -0.00583243 0)
(-1.47143e-08 -0.000208128 0)
(-1.95814e-07 -0.00060997 0)
(-5.79478e-07 -0.000997422 0)
(-1.166e-06 -0.00137051 0)
(-1.94947e-06 -0.00172924 0)
(-2.92669e-06 -0.00207365 0)
(-4.09579e-06 -0.00240373 0)
(-5.45615e-06 -0.0027195 0)
(-7.00618e-06 -0.00302096 0)
(-8.74536e-06 -0.00330812 0)
(-1.06716e-05 -0.00358098 0)
(-1.27842e-05 -0.00383953 0)
(-1.50802e-05 -0.00408377 0)
(-1.75584e-05 -0.00431368 0)
(-2.02142e-05 -0.00452926 0)
(-2.30455e-05 -0.0047305 0)
(-2.60455e-05 -0.00491736 0)
(-2.92105e-05 -0.00508984 0)
(-3.25294e-05 -0.0052479 0)
(-3.59941e-05 -0.00539152 0)
(-3.95922e-05 -0.00552067 0)
(-4.33425e-05 -0.0056353 0)
(-4.72816e-05 -0.00573539 0)
(-5.13338e-05 -0.00582088 0)
(-5.47748e-05 -0.00589171 0)
(-5.61305e-05 -0.00594781 0)
(-5.69838e-05 -0.00598904 0)
(-7.55665e-05 -0.00601547 0)
(-0.000145003 -0.00602788 0)
(-0.000247542 -0.00603081 0)
(-0.000342927 -0.0060253 0)
(-0.000481798 -0.00602057 0)
(-0.000349493 -0.00602215 0)
(-0.000337396 -0.00601444 0)
(-0.000345125 -0.00600204 0)
(-0.000352936 -0.00598832 0)
(-0.000357772 -0.00597419 0)
(-0.00036187 -0.00595982 0)
(-0.000366169 -0.00594519 0)
(-0.000370745 -0.00593027 0)
(-0.000375507 -0.00591499 0)
(-0.000380412 -0.00589928 0)
(-0.000385444 -0.00588309 0)
(-0.000390598 -0.00586635 0)
(-0.000395863 -0.00584903 0)
(-0.000401228 -0.00583108 0)
(-0.000406683 -0.00581247 0)
(-0.000412216 -0.00579318 0)
(-0.000417817 -0.00577319 0)
(-0.000423477 -0.00575249 0)
(-4.84837e-08 -0.000205911 0)
(-4.45555e-07 -0.00060359 0)
(-1.22746e-06 -0.000987122 0)
(-2.37112e-06 -0.0013565 0)
(-3.84945e-06 -0.00171171 0)
(-5.64107e-06 -0.00205276 0)
(-7.732e-06 -0.00237964 0)
(-1.01071e-05 -0.00269235 0)
(-1.27558e-05 -0.00299089 0)
(-1.56638e-05 -0.00327525 0)
(-1.8823e-05 -0.00354544 0)
(-2.22188e-05 -0.00380145 0)
(-2.58451e-05 -0.00404328 0)
(-2.9686e-05 -0.00427094 0)
(-3.37368e-05 -0.00448442 0)
(-3.79786e-05 -0.00468374 0)
(-4.24082e-05 -0.00486889 0)
(-4.70017e-05 -0.00503988 0)
(-5.17563e-05 -0.00519672 0)
(-5.66393e-05 -0.00533943 0)
(-6.1654e-05 -0.00546801 0)
(-6.67859e-05 -0.00558249 0)
(-7.20849e-05 -0.00568288 0)
(-7.74078e-05 -0.00576923 0)
(-8.20979e-05 -0.00584152 0)
(-8.49159e-05 -0.00589989 0)
(-8.81167e-05 -0.00594432 0)
(-0.00010884 -0.0059751 0)
(-0.00017355 -0.00599245 0)
(-0.000268543 -0.00599558 0)
(-0.000360398 -0.00599493 0)
(-0.000455944 -0.00598996 0)
(-0.000341211 -0.00598946 0)
(-0.000334037 -0.00597941 0)
(-0.000343281 -0.00596464 0)
(-0.000351698 -0.00594842 0)
(-0.000357236 -0.00593171 0)
(-0.000362054 -0.00591473 0)
(-0.000366982 -0.00589753 0)
(-0.000372076 -0.00588012 0)
(-0.00037726 -0.00586245 0)
(-0.000382504 -0.00584449 0)
(-0.000387808 -0.0058262 0)
(-0.000393173 -0.00580751 0)
(-0.000398598 -0.00578838 0)
(-0.00040408 -0.00576879 0)
(-0.000409616 -0.00574868 0)
(-0.000415201 -0.00572804 0)
(-0.000420831 -0.00570683 0)
(-0.000426501 -0.00568504 0)
(-2.5678e-08 -0.00020301 0)
(-2.97655e-07 -0.000595254 0)
(-8.62259e-07 -0.000973678 0)
(-1.71454e-06 -0.00133824 0)
(-2.84295e-06 -0.0016889 0)
(-4.2382e-06 -0.00202564 0)
(-5.89547e-06 -0.00234841 0)
(-7.80849e-06 -0.00265721 0)
(-9.9741e-06 -0.00295201 0)
(-1.23857e-05 -0.0032328 0)
(-1.50417e-05 -0.00349956 0)
(-1.79351e-05 -0.00375228 0)
(-2.1066e-05 -0.00399096 0)
(-2.44265e-05 -0.00421558 0)
(-2.80193e-05 -0.00442615 0)
(-3.18345e-05 -0.00462267 0)
(-3.58785e-05 -0.00480514 0)
(-4.01382e-05 -0.00497357 0)
(-4.4624e-05 -0.00512797 0)
(-4.93173e-05 -0.00526834 0)
(-5.42402e-05 -0.00539471 0)
(-5.939e-05 -0.00550709 0)
(-6.48242e-05 -0.00560552 0)
(-7.04108e-05 -0.00569 0)
(-7.5657e-05 -0.00576057 0)
(-7.97845e-05 -0.00581726 0)
(-8.54608e-05 -0.00586019 0)
(-0.000105762 -0.00588949 0)
(-0.000162054 -0.00590701 0)
(-0.00025068 -0.00590966 0)
(-0.000356997 -0.00590897 0)
(-0.000432953 -0.00590673 0)
(-0.000328738 -0.00590802 0)
(-0.000324309 -0.00589976 0)
(-0.000335119 -0.00588685 0)
(-0.000344846 -0.00587233 0)
(-0.000351774 -0.00585709 0)
(-0.000357946 -0.00584132 0)
(-0.000364133 -0.00582509 0)
(-0.000370378 -0.00580842 0)
(-0.00037661 -0.00579131 0)
(-0.000382805 -0.00577375 0)
(-0.000388966 -0.00575571 0)
(-0.000395101 -0.00573719 0)
(-0.000401213 -0.00571815 0)
(-0.000407305 -0.00569859 0)
(-0.00041338 -0.00567848 0)
(-0.000419438 -0.00565781 0)
(-0.000425481 -0.00563655 0)
(-0.00043151 -0.00561471 0)
(-6.0567e-09 -0.000202185 0)
(-9.49289e-08 -0.000592603 0)
(-3.02892e-07 -0.00096905 0)
(-6.41645e-07 -0.00133151 0)
(-1.12213e-06 -0.00167996 0)
(-1.7532e-06 -0.00201439 0)
(-2.54587e-06 -0.00233479 0)
(-3.50737e-06 -0.00264115 0)
(-4.64808e-06 -0.00293344 0)
(-5.97319e-06 -0.00321168 0)
(-7.49321e-06 -0.00347583 0)
(-9.21162e-06 -0.0037259 0)
(-1.114e-05 -0.00396189 0)
(-1.32802e-05 -0.00418377 0)
(-1.56461e-05 -0.00439156 0)
(-1.82376e-05 -0.00458524 0)
(-2.10721e-05 -0.00476481 0)
(-2.41473e-05 -0.00493028 0)
(-2.74849e-05 -0.00508164 0)
(-3.10791e-05 -0.00521889 0)
(-3.49651e-05 -0.00534204 0)
(-3.91532e-05 -0.00545108 0)
(-4.36997e-05 -0.00554604 0)
(-4.8457e-05 -0.0056269 0)
(-5.29735e-05 -0.00569367 0)
(-5.68354e-05 -0.00574635 0)
(-6.36151e-05 -0.00578501 0)
(-8.50915e-05 -0.00580987 0)
(-0.00013801 -0.00582398 0)
(-0.000227091 -0.00582509 0)
(-0.000364824 -0.0058181 0)
(-0.00036548 -0.00581976 0)
(-0.000299715 -0.00581956 0)
(-0.000299214 -0.0058102 0)
(-0.000310221 -0.00579696 0)
(-0.000320037 -0.00578242 0)
(-0.000327835 -0.00576733 0)
(-0.000335109 -0.00575185 0)
(-0.000342402 -0.005736 0)
(-0.000349724 -0.00571978 0)
(-0.000357016 -0.00570317 0)
(-0.000364252 -0.00568613 0)
(-0.000371432 -0.00566864 0)
(-0.000378556 -0.00565067 0)
(-0.000385627 -0.00563219 0)
(-0.000392644 -0.00561317 0)
(-0.000399607 -0.0055936 0)
(-0.000406516 -0.00557345 0)
(-0.000413372 -0.00555271 0)
(-0.000420175 -0.00553138 0)
(-3.52124e-09 -0.000201846 0)
(-5.41692e-08 -0.000591379 0)
(-1.82388e-07 -0.000966748 0)
(-4.02296e-07 -0.00132794 0)
(-7.29033e-07 -0.00167496 0)
(-1.1759e-06 -0.00200779 0)
(-1.75729e-06 -0.00232644 0)
(-2.48455e-06 -0.00263089 0)
(-3.37137e-06 -0.00292115 0)
(-4.42716e-06 -0.0031972 0)
(-5.66588e-06 -0.00345904 0)
(-7.09535e-06 -0.00370666 0)
(-8.73085e-06 -0.00394005 0)
(-1.05787e-05 -0.00415922 0)
(-1.26569e-05 -0.00436414 0)
(-1.49701e-05 -0.00455481 0)
(-1.75405e-05 -0.00473122 0)
(-2.03704e-05 -0.00489336 0)
(-2.34876e-05 -0.00504121 0)
(-2.68916e-05 -0.00517478 0)
(-3.06286e-05 -0.00529403 0)
(-3.47161e-05 -0.00539897 0)
(-3.92033e-05 -0.00548957 0)
(-4.38737e-05 -0.00556582 0)
(-4.82296e-05 -0.00562768 0)
(-5.22963e-05 -0.00567511 0)
(-6.15754e-05 -0.00570813 0)
(-8.88236e-05 -0.00572733 0)
(-0.000143098 -0.00573697 0)
(-0.000234029 -0.00573541 0)
(-0.000409563 -0.00572786 0)
(-0.00031697 -0.00573194 0)
(-0.000292883 -0.0057273 0)
(-0.000299268 -0.00571591 0)
(-0.000310451 -0.00570232 0)
(-0.00031942 -0.00568807 0)
(-0.000327143 -0.00567351 0)
(-0.000334664 -0.00565867 0)
(-0.00034223 -0.00564353 0)
(-0.000349803 -0.00562805 0)
(-0.000357338 -0.0056122 0)
(-0.000364823 -0.00559593 0)
(-0.000372259 -0.00557921 0)
(-0.000379642 -0.00556201 0)
(-0.000386973 -0.0055443 0)
(-0.000394249 -0.00552605 0)
(-0.000401468 -0.00550725 0)
(-0.000408628 -0.00548787 0)
(-0.000415729 -0.0054679 0)
(-0.000422769 -0.00544733 0)
(-8.56269e-09 -0.000201602 0)
(-1.35688e-07 -0.000590388 0)
(-4.19091e-07 -0.000964771 0)
(-8.65393e-07 -0.00132476 0)
(-1.47846e-06 -0.00167038 0)
(-2.25988e-06 -0.00200163 0)
(-3.21557e-06 -0.00231852 0)
(-4.34643e-06 -0.00262106 0)
(-5.6588e-06 -0.00290925 0)
(-7.1515e-06 -0.00318309 0)
(-8.83159e-06 -0.00344257 0)
(-1.06957e-05 -0.00368769 0)
(-1.27524e-05 -0.00391844 0)
(-1.49958e-05 -0.0041348 0)
(-1.74365e-05 -0.00433676 0)
(-2.00657e-05 -0.0045243 0)
(-2.28972e-05 -0.00469741 0)
(-2.59172e-05 -0.00485604 0)
(-2.91429e-05 -0.00500018 0)
(-3.25568e-05 -0.00512978 0)
(-3.62005e-05 -0.00524482 0)
(-4.00848e-05 -0.00534524 0)
(-4.42093e-05 -0.00543101 0)
(-4.81182e-05 -0.00550206 0)
(-5.09381e-05 -0.0055583 0)
(-5.3474e-05 -0.00559955 0)
(-6.67921e-05 -0.00562593 0)
(-0.000111503 -0.00563847 0)
(-0.000182004 -0.00564283 0)
(-0.000274353 -0.0056372 0)
(-0.000437884 -0.00563304 0)
(-0.00030769 -0.00563529 0)
(-0.00029903 -0.00562812 0)
(-0.000309131 -0.00561615 0)
(-0.000319382 -0.00560272 0)
(-0.000326668 -0.00558876 0)
(-0.000333158 -0.00557448 0)
(-0.000339747 -0.0055599 0)
(-0.000346499 -0.00554504 0)
(-0.000353319 -0.00552987 0)
(-0.000360158 -0.00551438 0)
(-0.000367006 -0.00549852 0)
(-0.000373856 -0.00548227 0)
(-0.000380707 -0.00546559 0)
(-0.000387551 -0.00544846 0)
(-0.000394385 -0.00543084 0)
(-0.000401206 -0.00541271 0)
(-0.000408009 -0.00539403 0)
(-0.000414792 -0.0053748 0)
(-0.000421552 -0.00535498 0)
(-4.26351e-08 -0.000200057 0)
(-4.17459e-07 -0.000585831 0)
(-1.16212e-06 -0.000957283 0)
(-2.25709e-06 -0.00131442 0)
(-3.67353e-06 -0.00165727 0)
(-5.39184e-06 -0.00198582 0)
(-7.3935e-06 -0.0023001 0)
(-9.66612e-06 -0.00260009 0)
(-1.21921e-05 -0.00288582 0)
(-1.49616e-05 -0.00315728 0)
(-1.79562e-05 -0.00341447 0)
(-2.11682e-05 -0.00365738 0)
(-2.45773e-05 -0.00388603 0)
(-2.81776e-05 -0.00410039 0)
(-3.19453e-05 -0.00430048 0)
(-3.58766e-05 -0.00448627 0)
(-3.99415e-05 -0.00465776 0)
(-4.4137e-05 -0.00481494 0)
(-4.84236e-05 -0.00495781 0)
(-5.28023e-05 -0.00508634 0)
(-5.72621e-05 -0.00520053 0)
(-6.18584e-05 -0.00530035 0)
(-6.64495e-05 -0.00538581 0)
(-7.02351e-05 -0.00545686 0)
(-7.15474e-05 -0.0055135 0)
(-7.28059e-05 -0.00555566 0)
(-9.51491e-05 -0.00558346 0)
(-0.000172288 -0.00559732 0)
(-0.000284531 -0.00559963 0)
(-0.000379948 -0.00559609 0)
(-0.000484033 -0.00558779 0)
(-0.000357195 -0.00558426 0)
(-0.000348611 -0.00557205 0)
(-0.00035762 -0.00555603 0)
(-0.000365784 -0.00553932 0)
(-0.000370961 -0.00552273 0)
(-0.000375473 -0.00550636 0)
(-0.00038018 -0.00549015 0)
(-0.000385112 -0.00547403 0)
(-0.000390168 -0.00545788 0)
(-0.000395302 -0.00544162 0)
(-0.000400505 -0.00542515 0)
(-0.000405776 -0.00540839 0)
(-0.00041111 -0.00539129 0)
(-0.000416504 -0.00537379 0)
(-0.000421954 -0.00535586 0)
(-0.000427457 -0.00533745 0)
(-0.000433008 -0.00531856 0)
(-0.000438604 -0.00529915 0)
(-0.000444239 -0.00527921 0)
(-4.40491e-08 -0.000196653 0)
(-4.3163e-07 -0.000576148 0)
(-1.20486e-06 -0.000941797 0)
(-2.34509e-06 -0.00129356 0)
(-3.82564e-06 -0.00163142 0)
(-5.62734e-06 -0.00195534 0)
(-7.73415e-06 -0.0022653 0)
(-1.01336e-05 -0.00256128 0)
(-1.28112e-05 -0.00284326 0)
(-1.57566e-05 -0.00311124 0)
(-1.89555e-05 -0.0033652 0)
(-2.23998e-05 -0.00360513 0)
(-2.60745e-05 -0.00383104 0)
(-2.99738e-05 -0.00404292 0)
(-3.40809e-05 -0.00424076 0)
(-3.83926e-05 -0.00442459 0)
(-4.28884e-05 -0.00459439 0)
(-4.75678e-05 -0.0047502 0)
(-5.24027e-05 -0.004892 0)
(-5.7402e-05 -0.00501985 0)
(-6.25563e-05 -0.00513374 0)
(-6.79134e-05 -0.00523371 0)
(-7.3351e-05 -0.00531979 0)
(-7.82689e-05 -0.00539202 0)
(-8.15882e-05 -0.00545046 0)
(-8.56458e-05 -0.00549524 0)
(-0.000105637 -0.00552646 0)
(-0.000168044 -0.00554513 0)
(-0.000264672 -0.00554825 0)
(-0.000373082 -0.00554875 0)
(-0.00046418 -0.00554123 0)
(-0.000344264 -0.00553758 0)
(-0.000338052 -0.00552481 0)
(-0.000348323 -0.00550794 0)
(-0.00035735 -0.00549018 0)
(-0.000363317 -0.00547243 0)
(-0.000368523 -0.00545485 0)
(-0.000373817 -0.00543743 0)
(-0.000379243 -0.0054201 0)
(-0.000384719 -0.00540276 0)
(-0.000390214 -0.00538531 0)
(-0.00039573 -0.00536766 0)
(-0.000401272 -0.00534975 0)
(-0.000406844 -0.00533151 0)
(-0.000412445 -0.00531291 0)
(-0.000418074 -0.00529391 0)
(-0.000423732 -0.00527449 0)
(-0.000429416 -0.00525463 0)
(-0.000435124 -0.00523433 0)
(-0.000440855 -0.00521357 0)
(-8.52338e-09 -0.00019496 0)
(-1.48492e-07 -0.000571096 0)
(-4.63266e-07 -0.000933418 0)
(-9.62439e-07 -0.0012819 0)
(-1.64859e-06 -0.0016165 0)
(-2.52678e-06 -0.00193721 0)
(-3.59964e-06 -0.00224401 0)
(-4.8732e-06 -0.00253687 0)
(-6.34833e-06 -0.00281577 0)
(-8.03125e-06 -0.00308071 0)
(-9.92104e-06 -0.00333167 0)
(-1.20251e-05 -0.00356864 0)
(-1.43407e-05 -0.0037916 0)
(-1.68774e-05 -0.00400056 0)
(-1.96306e-05 -0.00419551 0)
(-2.26133e-05 -0.00437643 0)
(-2.58182e-05 -0.00454334 0)
(-2.92625e-05 -0.00469623 0)
(-3.29344e-05 -0.0048351 0)
(-3.6864e-05 -0.00495996 0)
(-4.10568e-05 -0.00507081 0)
(-4.55747e-05 -0.00516766 0)
(-5.02809e-05 -0.00525051 0)
(-5.46836e-05 -0.00531938 0)
(-5.81062e-05 -0.00537428 0)
(-6.36372e-05 -0.00541527 0)
(-8.41766e-05 -0.0054425 0)
(-0.000141597 -0.00545842 0)
(-0.000237287 -0.00546034 0)
(-0.000374491 -0.00545538 0)
(-0.000402689 -0.00545051 0)
(-0.0003166 -0.00544728 0)
(-0.000314175 -0.00543525 0)
(-0.000325358 -0.00541959 0)
(-0.000335259 -0.00540307 0)
(-0.000342714 -0.00538648 0)
(-0.000349542 -0.00536995 0)
(-0.000356402 -0.00535346 0)
(-0.000363319 -0.00533692 0)
(-0.00037022 -0.00532028 0)
(-0.000377082 -0.00530343 0)
(-0.000383902 -0.00528633 0)
(-0.000390685 -0.0052689 0)
(-0.000397431 -0.00525111 0)
(-0.00040414 -0.00523293 0)
(-0.000410813 -0.00521432 0)
(-0.000417448 -0.00519528 0)
(-0.000424047 -0.00517578 0)
(-0.000430608 -0.00515583 0)
(-0.000437132 -0.00513541 0)
(-7.04817e-09 -0.000194657 0)
(-8.00035e-08 -0.000569938 0)
(-2.47967e-07 -0.000931178 0)
(-5.23293e-07 -0.00127837 0)
(-9.17134e-07 -0.00161151 0)
(-1.44284e-06 -0.00193059 0)
(-2.11071e-06 -0.00223561 0)
(-2.93408e-06 -0.00252655 0)
(-3.92126e-06 -0.00280342 0)
(-5.08575e-06 -0.00306621 0)
(-6.43396e-06 -0.0033149 0)
(-7.98057e-06 -0.0035495 0)
(-9.73006e-06 -0.00377 0)
(-1.16993e-05 -0.00397639 0)
(-1.38908e-05 -0.00416866 0)
(-1.63249e-05 -0.00434681 0)
(-1.9001e-05 -0.00451083 0)
(-2.19442e-05 -0.00466073 0)
(-2.51498e-05 -0.00479648 0)
(-2.86575e-05 -0.00491809 0)
(-3.24788e-05 -0.00502555 0)
(-3.66706e-05 -0.00511887 0)
(-4.10632e-05 -0.00519802 0)
(-4.51827e-05 -0.00526301 0)
(-4.86961e-05 -0.00531382 0)
(-5.57491e-05 -0.0053505 0)
(-7.84803e-05 -0.00537331 0)
(-0.000133782 -0.00538562 0)
(-0.000232057 -0.00538576 0)
(-0.000420388 -0.00537703 0)
(-0.000334904 -0.00537479 0)
(-0.000300368 -0.00536585 0)
(-0.000304411 -0.00535022 0)
(-0.000315187 -0.0053328 0)
(-0.000323881 -0.00531532 0)
(-0.000331137 -0.00529818 0)
(-0.000338143 -0.00528139 0)
(-0.000345222 -0.00526484 0)
(-0.000352343 -0.00524839 0)
(-0.000359456 -0.00523194 0)
(-0.000366544 -0.00521537 0)
(-0.000373606 -0.0051986 0)
(-0.000380641 -0.00518155 0)
(-0.000387648 -0.00516417 0)
(-0.000394624 -0.00514643 0)
(-0.000401566 -0.0051283 0)
(-0.000408473 -0.00510975 0)
(-0.000415343 -0.00509077 0)
(-0.000422174 -0.00507135 0)
(-0.000428965 -0.00505147 0)
(-0.000406769 -0.00652978 0)
(-0.000410889 -0.00650607 0)
(-0.000415036 -0.00648132 0)
(-0.000419206 -0.0064555 0)
(-0.000423395 -0.00642863 0)
(-0.000427597 -0.0064007 0)
(-0.000431808 -0.00637172 0)
(-0.000436024 -0.00634171 0)
(-0.00044024 -0.00631067 0)
(-0.000444453 -0.00627863 0)
(-0.000448658 -0.0062456 0)