/*--------------------------------*- C++ -*----------------------------------*\
| =========                 |                                                 |
| \\      /  F ield         | OpenFOAM: The Open Source CFD Toolbox           |
|  \\    /   O peration     | Version:  2.4.0                                 |
|   \\  /    A nd           | Web:      www.OpenFOAM.org                      |
|    \\/     M anipulation  |                                                 |
\*---------------------------------------------------------------------------*/
FoamFile
{
    version     2.0;
    format      ascii;
    class       volScalarField;
    location    "3.4";
    object      H;
}
// * * * * * * * * * * * * * * * * * * * * * * * * * * * * * * * * * * * * * //

dimensions      [0 2 -2 0 0 0 0];

internalField   nonuniform List<scalar> 
500
(
-11967.1
-11967.1
-11967.1
-11967.1
-11967.1
-11438.3
-11438.3
-11438.3
-11438.3
-11438.3
-10903.6
-10903.5
-10903.5
-10903.5
-10903.6
-10362.8
-10362.8
-10362.7
-10362.8
-10362.8
-9815.91
-9815.84
-9815.8
-9815.84
-9815.91
-9262.78
-9262.7
-9262.65
-9262.7
-9262.78
-8703.32
-8703.23
-8703.16
-8703.22
-8703.32
-8137.42
-8137.31
-8137.23
-8137.3
-8137.42
-7564.97
-7564.85
-7564.76
-7564.84
-7564.97
-6985.86
-6985.72
-6985.62
-6985.72
-6985.87
-6399.99
-6399.83
-6399.72
-6399.83
-6399.99
-5807.23
-5807.06
-5806.93
-5807.05
-5807.23
-5207.47
-5207.27
-5207.14
-5207.26
-5207.47
-4600.58
-4600.37
-4600.21
-4600.36
-4600.58
-3986.44
-3986.21
-3986.04
-3986.2
-3986.45
-3364.93
-3364.68
-3364.5
-3364.67
-3364.94
-2735.92
-2735.65
-2735.45
-2735.63
-2735.93
-2099.28
-2098.98
-2098.76
-2098.96
-2099.29
-1454.87
-1454.54
-1454.31
-1454.52
-1454.88
-802.563
-802.203
-801.949
-802.182
-802.57
-17.9801
-17.9525
-17.9332
-17.9508
-17.9807
-13.4313
-13.4107
-13.3963
-13.4094
-13.4317
-13.4857
-13.4655
-13.4514
-13.4643
-13.4862
-13.5374
-13.5175
-13.5036
-13.5163
-13.5378
-13.5861
-13.5665
-13.5529
-13.5654
-13.5865
-13.6317
-13.6125
-13.5991
-13.6114
-13.6321
-13.6741
-13.6552
-13.6421
-13.6541
-13.6744
-13.7131
-13.6945
-13.6816
-13.6935
-13.7134
-13.7486
-13.7303
-13.7177
-13.7293
-13.7489
-13.7804
-13.7625
-13.7501
-13.7615
-13.7807
-13.8084
-13.7908
-13.7787
-13.7899
-13.8087
-13.8324
-13.8152
-13.8033
-13.8142
-13.8327
-13.8523
-13.8354
-13.8237
-13.8345
-13.8526
-13.868
-13.8513
-13.8399
-13.8505
-13.8682
-13.8791
-13.8628
-13.8516
-13.862
-13.8794
-13.8857
-13.8697
-13.8588
-13.8689
-13.886
-13.8876
-13.8719
-13.8611
-13.8711
-13.8878
-13.8845
-13.8691
-13.8586
-13.8684
-13.8847
-13.8763
-13.8612
-13.8509
-13.8605
-13.8765
-13.8629
-13.8481
-13.8381
-13.8474
-13.8631
-13.8441
-13.8296
-13.8198
-13.8289
-13.8443
-13.8197
-13.8055
-13.7959
-13.8049
-13.8199
-13.7896
-13.7757
-13.7663
-13.7751
-13.7897
-13.7535
-13.74
-13.7308
-13.7394
-13.7537
-13.7115
-13.6982
-13.6892
-13.6976
-13.7116
-13.6632
-13.6502
-13.6414
-13.6496
-13.6633
-13.6085
-13.5958
-13.5872
-13.5953
-13.6086
-13.5473
-13.5349
-13.5265
-13.5344
-13.5474
-13.4794
-13.4673
-13.4591
-13.4668
-13.4795
-13.4047
-13.3928
-13.3848
-13.3924
-13.4048
-13.323
-13.3114
-13.3036
-13.3109
-13.3231
-13.2341
-13.2228
-13.2152
-13.2224
-13.2342
-13.138
-13.127
-13.1196
-13.1266
-13.1381
-13.0345
-13.0238
-13.0165
-13.0233
-13.0346
-12.9234
-12.913
-12.906
-12.9126
-12.9235
-12.8047
-12.7945
-12.7877
-12.7941
-12.8048
-12.6782
-12.6683
-12.6616
-12.6679
-12.6783
-12.5438
-12.5342
-12.5277
-12.5338
-12.5439
-12.4014
-12.3921
-12.3858
-12.3917
-12.4015
-12.251
-12.2418
-12.2357
-12.2415
-12.251
-12.0923
-12.0834
-12.0775
-12.0831
-12.0923
-11.9254
-11.9168
-11.911
-11.9165
-11.9254
-11.7501
-11.7418
-11.7362
-11.7415
-11.7502
-11.5665
-11.5584
-11.553
-11.5581
-11.5665
-11.3745
-11.3666
-11.3614
-11.3664
-11.3745
-11.1739
-11.1663
-11.1613
-11.1661
-11.174
-10.9649
-10.9576
-10.9527
-10.9573
-10.9649
-10.7474
-10.7403
-10.7356
-10.7401
-10.7474
-10.5214
-10.5145
-10.51
-10.5143
-10.5214
-10.2869
-10.2803
-10.2759
-10.2801
-10.2869
-10.044
-10.0376
-10.0334
-10.0374
-10.044
-9.7927
-9.78657
-9.78251
-9.78638
-9.79271
-9.53307
-9.52718
-9.52328
-9.52701
-9.53308
-9.26521
-9.25956
-9.25582
-9.25939
-9.26522
-8.98923
-8.9838
-8.98022
-8.98365
-8.98923
-8.70523
-8.70004
-8.69662
-8.69989
-8.70523
-8.41337
-8.40841
-8.40514
-8.40827
-8.41337
-8.1138
-8.10908
-8.10596
-8.10895
-8.1138
-7.80672
-7.80222
-7.79926
-7.8021
-7.80672
-7.49232
-7.48805
-7.48523
-7.48793
-7.49232
-7.17083
-7.16678
-7.16412
-7.16667
-7.17083
-6.8425
-6.83867
-6.83616
-6.83857
-6.8425
-6.5076
-6.504
-6.50163
-6.5039
-6.5076
-6.16643
-6.16305
-6.16082
-6.16296
-6.16643
-5.81931
-5.81615
-5.81407
-5.81606
-5.81931
-5.46658
-5.46363
-5.4617
-5.46356
-5.46658
-5.10862
-5.10588
-5.10408
-5.10581
-5.10861
-4.7458
-4.74328
-4.74162
-4.74322
-4.7458
-4.37856
-4.37625
-4.37473
-4.37619
-4.37856
-4.00734
-4.00524
-4.00386
-4.00519
-4.00733
-3.6326
-3.63071
-3.62947
-3.63066
-3.6326
-3.25485
-3.25316
-3.25206
-3.25312
-3.25485
-2.8746
-2.87312
-2.87215
-2.87308
-2.8746
-2.4924
-2.49112
-2.49028
-2.49109
-2.49239
-2.10881
-2.10773
-2.10703
-2.10771
-2.10881
-1.72444
-1.72356
-1.72298
-1.72354
-1.72444
-1.33989
-1.33921
-1.33877
-1.3392
-1.33989
-0.955823
-0.955338
-0.95502
-0.955326
-0.955821
-0.572886
-0.572596
-0.572406
-0.572589
-0.572885
-0.19177
-0.191673
-0.191609
-0.19167
-0.191769
)
;

boundaryField
{
    BotWall
    {
        type            zeroGradient;
    }
    FreeStream
    {
        type            zeroGradient;
    }
    FrontNBack
    {
        type            empty;
    }
    LeftSide
    {
        type            symmetryPlane;
    }
    RightSide
    {
        type            symmetryPlane;
    }
}


// ************************************************************************* //
