/*--------------------------------*- C++ -*----------------------------------*\
| =========                 |                                                 |
| \\      /  F ield         | OpenFOAM: The Open Source CFD Toolbox           |
|  \\    /   O peration     | Version:  2.4.0                                 |
|   \\  /    A nd           | Web:      www.OpenFOAM.org                      |
|    \\/     M anipulation  |                                                 |
\*---------------------------------------------------------------------------*/
FoamFile
{
    version     2.0;
    format      ascii;
    class       volScalarField;
    location    "3.4";
    object      p;
}
// * * * * * * * * * * * * * * * * * * * * * * * * * * * * * * * * * * * * * //

dimensions      [1 -1 -2 0 0 0 0];

internalField   nonuniform List<scalar> 
500
(
0.656073
0.656495
0.656874
0.656436
0.65606
0.626246
0.62667
0.62705
0.626611
0.626232
0.596113
0.596538
0.596918
0.596479
0.596098
0.565627
0.566054
0.566436
0.565995
0.565612
0.534819
0.53525
0.535634
0.535192
0.534804
0.50365
0.504083
0.504469
0.504025
0.503634
0.472149
0.472585
0.472973
0.472527
0.472133
0.440267
0.440706
0.441096
0.440649
0.440251
0.408047
0.408489
0.408882
0.408432
0.408031
0.375511
0.375958
0.376352
0.375901
0.375496
0.342864
0.343314
0.343711
0.343257
0.342848
0.309916
0.31037
0.31077
0.310314
0.3099
0.274931
0.275387
0.275789
0.275331
0.274915
0.233789
0.234238
0.234638
0.234182
0.233774
0.190077
0.190518
0.190909
0.190461
0.190061
0.189093
0.189587
0.189993
0.189531
0.189077
0.332943
0.333679
0.334226
0.333636
0.332923
0.529772
0.530856
0.53169
0.530862
0.529742
-0.378996
-0.378728
-0.378207
-0.37875
-0.379017
-4.92008
-4.92497
-4.92804
-4.92525
-4.91999
-10.8288
-10.8422
-10.8521
-10.8431
-10.8284
-0.0164622
-0.0164615
-0.0164611
-0.0164615
-0.0164622
-0.0111086
-0.0111092
-0.0111094
-0.0111092
-0.0111086
-0.0126163
-0.0126163
-0.0126163
-0.0126163
-0.0126163
-0.0137324
-0.0137323
-0.0137323
-0.0137323
-0.0137324
-0.0144485
-0.0144485
-0.0144485
-0.0144485
-0.0144485
-0.0150684
-0.0150684
-0.0150684
-0.0150684
-0.0150684
-0.0157089
-0.0157089
-0.0157089
-0.0157089
-0.0157089
-0.0163724
-0.0163724
-0.0163724
-0.0163724
-0.0163724
-0.0170473
-0.0170473
-0.0170473
-0.0170473
-0.0170473
-0.0177292
-0.0177291
-0.0177291
-0.0177291
-0.0177292
-0.018418
-0.018418
-0.018418
-0.018418
-0.018418
-0.0191143
-0.0191143
-0.0191143
-0.0191143
-0.0191143
-0.0198185
-0.0198185
-0.0198185
-0.0198185
-0.0198185
-0.0205305
-0.0205305
-0.0205305
-0.0205305
-0.0205305
-0.0212505
-0.0212505
-0.0212505
-0.0212505
-0.0212505
-0.0219785
-0.0219785
-0.0219785
-0.0219785
-0.0219785
-0.0227146
-0.0227146
-0.0227146
-0.0227146
-0.0227146
-0.023459
-0.023459
-0.023459
-0.023459
-0.023459
-0.0242116
-0.0242116
-0.0242116
-0.0242116
-0.0242116
-0.0249727
-0.0249727
-0.0249727
-0.0249727
-0.0249727
-0.0257422
-0.0257422
-0.0257422
-0.0257422
-0.0257422
-0.0265204
-0.0265204
-0.0265203
-0.0265203
-0.0265204
-0.0273072
-0.0273072
-0.0273072
-0.0273072
-0.0273072
-0.0281028
-0.0281028
-0.0281028
-0.0281028
-0.0281028
-0.0289072
-0.0289072
-0.0289072
-0.0289072
-0.0289072
-0.0297207
-0.0297207
-0.0297207
-0.0297207
-0.0297207
-0.0305432
-0.0305432
-0.0305432
-0.0305432
-0.0305432
-0.0313749
-0.0313749
-0.0313749
-0.0313749
-0.0313749
-0.0322159
-0.0322159
-0.0322159
-0.0322159
-0.0322159
-0.0330663
-0.0330663
-0.0330663
-0.0330663
-0.0330663
-0.0339262
-0.0339262
-0.0339261
-0.0339262
-0.0339262
-0.0347956
-0.0347956
-0.0347956
-0.0347956
-0.0347956
-0.0356748
-0.0356748
-0.0356748
-0.0356748
-0.0356748
-0.0365637
-0.0365637
-0.0365637
-0.0365637
-0.0365637
-0.0374626
-0.0374626
-0.0374626
-0.0374626
-0.0374626
-0.0383716
-0.0383715
-0.0383715
-0.0383715
-0.0383716
-0.0392906
-0.0392906
-0.0392906
-0.0392906
-0.0392906
-0.0402199
-0.0402199
-0.0402199
-0.0402199
-0.0402199
-0.0411596
-0.0411596
-0.0411596
-0.0411596
-0.0411596
-0.0421098
-0.0421098
-0.0421098
-0.0421098
-0.0421098
-0.0430706
-0.0430706
-0.0430706
-0.0430706
-0.0430706
-0.0440421
-0.0440421
-0.0440421
-0.0440421
-0.0440421
-0.0450244
-0.0450244
-0.0450244
-0.0450244
-0.0450244
-0.0460177
-0.0460177
-0.0460177
-0.0460177
-0.0460177
-0.0470221
-0.0470221
-0.0470221
-0.0470221
-0.0470221
-0.0480377
-0.0480377
-0.0480377
-0.0480377
-0.0480377
-0.0490646
-0.0490646
-0.0490646
-0.0490646
-0.0490646
-0.050103
-0.050103
-0.050103
-0.050103
-0.050103
-0.051153
-0.051153
-0.051153
-0.051153
-0.051153
-0.0522147
-0.0522147
-0.0522147
-0.0522147
-0.0522147
-0.0532882
-0.0532882
-0.0532882
-0.0532882
-0.0532882
-0.0543737
-0.0543737
-0.0543737
-0.0543737
-0.0543737
-0.0554714
-0.0554714
-0.0554714
-0.0554714
-0.0554714
-0.0565812
-0.0565812
-0.0565812
-0.0565812
-0.0565812
-0.0577035
-0.0577035
-0.0577035
-0.0577035
-0.0577035
-0.0588383
-0.0588383
-0.0588383
-0.0588383
-0.0588383
-0.0599857
-0.0599857
-0.0599857
-0.0599857
-0.0599857
-0.061146
-0.061146
-0.061146
-0.061146
-0.061146
-0.0623192
-0.0623192
-0.0623192
-0.0623192
-0.0623192
-0.0635055
-0.0635055
-0.0635055
-0.0635055
-0.0635055
-0.064705
-0.064705
-0.064705
-0.064705
-0.064705
-0.0659179
-0.0659179
-0.0659179
-0.0659179
-0.0659179
-0.0671444
-0.0671444
-0.0671444
-0.0671444
-0.0671444
-0.0683845
-0.0683845
-0.0683845
-0.0683845
-0.0683845
-0.0696385
-0.0696385
-0.0696385
-0.0696385
-0.0696385
-0.0709065
-0.0709064
-0.0709064
-0.0709064
-0.0709065
-0.0721886
-0.0721886
-0.0721886
-0.0721886
-0.0721886
-0.073485
-0.073485
-0.073485
-0.073485
-0.073485
-0.0747959
-0.0747959
-0.0747959
-0.0747959
-0.0747959
-0.0761214
-0.0761214
-0.0761214
-0.0761214
-0.0761214
-0.0774617
-0.0774617
-0.0774617
-0.0774617
-0.0774617
-0.078817
-0.078817
-0.078817
-0.078817
-0.078817
-0.0801874
-0.0801874
-0.0801874
-0.0801874
-0.0801874
-0.081573
-0.081573
-0.081573
-0.081573
-0.081573
-0.0829742
-0.0829742
-0.0829742
-0.0829742
-0.0829742
-0.084391
-0.084391
-0.084391
-0.084391
-0.084391
-0.0858236
-0.0858236
-0.0858236
-0.0858236
-0.0858236
-0.0872721
-0.0872721
-0.0872721
-0.0872721
-0.0872721
-0.0887369
-0.0887369
-0.0887369
-0.0887369
-0.0887369
)
;

boundaryField
{
    BotWall
    {
        type            calculated;
        value           nonuniform List<scalar> 5(0.670893 0.671315 0.671695 0.671256 0.67088);
    }
    FreeStream
    {
        type            calculated;
        value           nonuniform List<scalar> 5(-0.0894733 -0.0894733 -0.0894733 -0.0894733 -0.0894733);
    }
    FrontNBack
    {
        type            empty;
    }
    LeftSide
    {
        type            symmetryPlane;
    }
    RightSide
    {
        type            symmetryPlane;
    }
}


// ************************************************************************* //
