/*--------------------------------*- C++ -*----------------------------------*\
| =========                 |                                                 |
| \\      /  F ield         | OpenFOAM: The Open Source CFD Toolbox           |
|  \\    /   O peration     | Version:  2.4.0                                 |
|   \\  /    A nd           | Web:      www.OpenFOAM.org                      |
|    \\/     M anipulation  |                                                 |
\*---------------------------------------------------------------------------*/
FoamFile
{
    version     2.0;
    format      ascii;
    class       volScalarField;
    location    "3.4";
    object      p_rgh;
}
// * * * * * * * * * * * * * * * * * * * * * * * * * * * * * * * * * * * * * //

dimensions      [1 -1 -2 0 0 0 0];

internalField   nonuniform List<scalar> 
500
(
0.670893
0.671315
0.671695
0.671256
0.67088
0.670873
0.671296
0.671676
0.671237
0.670859
0.670877
0.671303
0.671683
0.671243
0.670863
0.670867
0.671294
0.671676
0.671235
0.670852
0.670874
0.671305
0.671689
0.671246
0.670859
0.670863
0.671297
0.671682
0.671238
0.670848
0.670869
0.671305
0.671693
0.671247
0.670853
0.670845
0.671284
0.671674
0.671227
0.67083
0.670838
0.671281
0.671674
0.671224
0.670823
0.670876
0.671323
0.671717
0.671266
0.670861
0.671165
0.671615
0.672013
0.671559
0.671149
0.671521
0.671976
0.672376
0.67192
0.671506
0.670212
0.670668
0.671071
0.670612
0.670197
0.663122
0.663571
0.663971
0.663515
0.663106
0.653841
0.654282
0.654673
0.654225
0.653825
0.687673
0.688167
0.688573
0.688111
0.687657
0.866728
0.867463
0.86801
0.86742
0.866707
1.09915
1.10024
1.10107
1.10024
1.09912
0.22638
0.226648
0.227169
0.226626
0.226359
-4.27831
-4.2832
-4.28626
-4.28347
-4.27822
-10.4123
-10.4251
-10.4345
-10.4259
-10.412
-0.00460612
-0.00460541
-0.00460504
-0.00460538
-0.00460613
0.00137072
0.00137018
0.00136993
0.00137016
0.00137072
0.000493317
0.000493302
0.000493268
0.0004933
0.000493318
1.44165e-05
1.4483e-05
1.45022e-05
1.4485e-05
1.44158e-05
-5.73055e-05
-5.72845e-05
-5.72717e-05
-5.7283e-05
-5.7306e-05
-2.56908e-05
-2.56908e-05
-2.56858e-05
-2.56899e-05
-2.5691e-05
-7.31263e-06
-7.31113e-06
-7.30801e-06
-7.31044e-06
-7.31286e-06
-4.71285e-06
-4.70775e-06
-4.70443e-06
-4.70706e-06
-4.71308e-06
-5.96875e-06
-5.96286e-06
-5.95931e-06
-5.96215e-06
-5.96898e-06
-6.69211e-06
-6.68661e-06
-6.68306e-06
-6.68591e-06
-6.69234e-06
-6.78704e-06
-6.78188e-06
-6.7784e-06
-6.78118e-06
-6.78726e-06
-6.7304e-06
-6.72538e-06
-6.72199e-06
-6.7247e-06
-6.7306e-06
-6.69545e-06
-6.69052e-06
-6.6872e-06
-6.68985e-06
-6.69565e-06
-6.68548e-06
-6.68064e-06
-6.67739e-06
-6.67999e-06
-6.68567e-06
-6.68141e-06
-6.67667e-06
-6.67349e-06
-6.67602e-06
-6.68159e-06
-6.67637e-06
-6.67174e-06
-6.66862e-06
-6.67111e-06
-6.67656e-06
-6.67028e-06
-6.66574e-06
-6.66269e-06
-6.66512e-06
-6.67045e-06
-6.66387e-06
-6.65944e-06
-6.65645e-06
-6.65883e-06
-6.66404e-06
-6.65744e-06
-6.6531e-06
-6.65018e-06
-6.6525e-06
-6.6576e-06
-6.65097e-06
-6.64673e-06
-6.64387e-06
-6.64614e-06
-6.65113e-06
-6.64444e-06
-6.64029e-06
-6.6375e-06
-6.63971e-06
-6.64459e-06
-6.63783e-06
-6.63378e-06
-6.63105e-06
-6.63321e-06
-6.63798e-06
-6.63115e-06
-6.62719e-06
-6.62452e-06
-6.62664e-06
-6.6313e-06
-6.6244e-06
-6.62053e-06
-6.61792e-06
-6.61999e-06
-6.62454e-06
-6.61757e-06
-6.61379e-06
-6.61124e-06
-6.61326e-06
-6.61771e-06
-6.61067e-06
-6.60698e-06
-6.60449e-06
-6.60646e-06
-6.6108e-06
-6.60369e-06
-6.60009e-06
-6.59765e-06
-6.59958e-06
-6.60381e-06
-6.59664e-06
-6.59312e-06
-6.59074e-06
-6.59262e-06
-6.59675e-06
-6.5895e-06
-6.58607e-06
-6.58375e-06
-6.58558e-06
-6.58962e-06
-6.58229e-06
-6.57894e-06
-6.57668e-06
-6.57847e-06
-6.5824e-06
-6.575e-06
-6.57173e-06
-6.56953e-06
-6.57127e-06
-6.57511e-06
-6.56763e-06
-6.56444e-06
-6.56229e-06
-6.56399e-06
-6.56773e-06
-6.56018e-06
-6.55707e-06
-6.55498e-06
-6.55663e-06
-6.56028e-06
-6.55265e-06
-6.54962e-06
-6.54758e-06
-6.54919e-06
-6.55274e-06
-6.54503e-06
-6.54208e-06
-6.54009e-06
-6.54167e-06
-6.54512e-06
-6.53733e-06
-6.53446e-06
-6.53253e-06
-6.53406e-06
-6.53742e-06
-6.52955e-06
-6.52676e-06
-6.52487e-06
-6.52636e-06
-6.52963e-06
-6.52168e-06
-6.51897e-06
-6.51713e-06
-6.51858e-06
-6.52176e-06
-6.51373e-06
-6.51109e-06
-6.50931e-06
-6.51071e-06
-6.51381e-06
-6.50569e-06
-6.50312e-06
-6.50139e-06
-6.50276e-06
-6.50576e-06
-6.49756e-06
-6.49507e-06
-6.49339e-06
-6.49471e-06
-6.49763e-06
-6.48935e-06
-6.48693e-06
-6.4853e-06
-6.48658e-06
-6.48941e-06
-6.48104e-06
-6.47869e-06
-6.47711e-06
-6.47836e-06
-6.48111e-06
-6.47264e-06
-6.47037e-06
-6.46883e-06
-6.47004e-06
-6.47271e-06
-6.46416e-06
-6.46195e-06
-6.46047e-06
-6.46164e-06
-6.46422e-06
-6.45558e-06
-6.45344e-06
-6.452e-06
-6.45314e-06
-6.45563e-06
-6.4469e-06
-6.44483e-06
-6.44345e-06
-6.44454e-06
-6.44696e-06
-6.43813e-06
-6.43613e-06
-6.43479e-06
-6.43585e-06
-6.43819e-06
-6.42927e-06
-6.42734e-06
-6.42604e-06
-6.42706e-06
-6.42932e-06
-6.42031e-06
-6.41845e-06
-6.4172e-06
-6.41818e-06
-6.42036e-06
-6.41125e-06
-6.40945e-06
-6.40825e-06
-6.4092e-06
-6.41129e-06
-6.40209e-06
-6.40036e-06
-6.39921e-06
-6.40012e-06
-6.40214e-06
-6.39284e-06
-6.39117e-06
-6.39006e-06
-6.39094e-06
-6.39288e-06
-6.38348e-06
-6.38188e-06
-6.38081e-06
-6.38165e-06
-6.38352e-06
-6.37402e-06
-6.37248e-06
-6.37146e-06
-6.37227e-06
-6.37405e-06
-6.36446e-06
-6.36299e-06
-6.36201e-06
-6.36278e-06
-6.36449e-06
-6.35479e-06
-6.35338e-06
-6.35245e-06
-6.35318e-06
-6.35482e-06
-6.34502e-06
-6.34367e-06
-6.34279e-06
-6.34348e-06
-6.34505e-06
-6.33514e-06
-6.33386e-06
-6.33301e-06
-6.33368e-06
-6.33516e-06
-6.32515e-06
-6.32393e-06
-6.32313e-06
-6.32376e-06
-6.32517e-06
-6.31505e-06
-6.3139e-06
-6.31314e-06
-6.31374e-06
-6.31508e-06
-6.30485e-06
-6.30376e-06
-6.30304e-06
-6.3036e-06
-6.30487e-06
-6.29453e-06
-6.2935e-06
-6.29283e-06
-6.29335e-06
-6.29455e-06
-6.2841e-06
-6.28313e-06
-6.2825e-06
-6.28299e-06
-6.28411e-06
-6.27355e-06
-6.27265e-06
-6.27206e-06
-6.27252e-06
-6.27357e-06
-6.26289e-06
-6.26205e-06
-6.2615e-06
-6.26193e-06
-6.2629e-06
-6.25211e-06
-6.25133e-06
-6.25083e-06
-6.25122e-06
-6.25212e-06
-6.24122e-06
-6.2405e-06
-6.24004e-06
-6.24039e-06
-6.24123e-06
-6.2302e-06
-6.22955e-06
-6.22913e-06
-6.22945e-06
-6.23021e-06
-6.21906e-06
-6.21847e-06
-6.21809e-06
-6.21838e-06
-6.21907e-06
-6.2078e-06
-6.20728e-06
-6.20694e-06
-6.2072e-06
-6.20781e-06
-6.19642e-06
-6.19596e-06
-6.19566e-06
-6.19588e-06
-6.19642e-06
-6.18492e-06
-6.18451e-06
-6.18426e-06
-6.18445e-06
-6.18492e-06
-6.17328e-06
-6.17294e-06
-6.17273e-06
-6.17289e-06
-6.17328e-06
-6.16152e-06
-6.16125e-06
-6.16108e-06
-6.1612e-06
-6.16152e-06
-6.14962e-06
-6.14942e-06
-6.1493e-06
-6.14938e-06
-6.14962e-06
-6.13759e-06
-6.13746e-06
-6.1374e-06
-6.13743e-06
-6.13758e-06
-6.12544e-06
-6.12537e-06
-6.12535e-06
-6.12535e-06
-6.12542e-06
-6.11328e-06
-6.11312e-06
-6.11301e-06
-6.11309e-06
-6.11327e-06
)
;

boundaryField
{
    BotWall
    {
        type            fixedFluxPressure;
        gradient        uniform 0;
        value           nonuniform List<scalar> 5(0.670893 0.671315 0.671695 0.671256 0.67088);
    }
    FreeStream
    {
        type            totalPressure;
        rho             rho;
        psi             none;
        gamma           1;
        p0              uniform 0;
        value           nonuniform List<scalar> 5(-6.10726e-06 -6.10692e-06 -6.1067e-06 -6.10689e-06 -6.10726e-06);
    }
    FrontNBack
    {
        type            empty;
    }
    LeftSide
    {
        type            symmetryPlane;
    }
    RightSide
    {
        type            symmetryPlane;
    }
}


// ************************************************************************* //
