/*--------------------------------*- C++ -*----------------------------------*\
| =========                 |                                                 |
| \\      /  F ield         | OpenFOAM: The Open Source CFD Toolbox           |
|  \\    /   O peration     | Version:  2.4.0                                 |
|   \\  /    A nd           | Web:      www.OpenFOAM.org                      |
|    \\/     M anipulation  |                                                 |
\*---------------------------------------------------------------------------*/
FoamFile
{
    version     2.0;
    format      ascii;
    class       surfaceScalarField;
    location    "3.4";
    object      phi;
}
// * * * * * * * * * * * * * * * * * * * * * * * * * * * * * * * * * * * * * //

dimensions      [0 3 -1 0 0 0 0];

internalField   nonuniform List<scalar> 
895
(
6.52632e-18
-6.52682e-18
4.41913e-18
2.10619e-18
-3.52573e-18
7.94334e-18
-6.96119e-18
3.4342e-18
-6.96216e-18
2.03798e-17
-2.69157e-17
1.38496e-17
8.62113e-18
-1.11923e-17
3.29637e-17
-2.16671e-17
1.38919e-17
-2.86419e-17
3.5169e-17
-6.20955e-17
2.39126e-17
1.98604e-17
-1.94853e-17
7.63379e-17
-3.73191e-17
3.17073e-17
-6.59739e-17
5.09267e-17
-1.13034e-16
3.45945e-17
3.61741e-17
-2.83882e-17
1.39295e-16
-5.39603e-17
5.72601e-17
-1.19947e-16
6.76903e-17
-1.80737e-16
4.59274e-17
5.79177e-17
-3.79319e-17
2.23129e-16
-7.16286e-17
9.0937e-17
-1.91589e-16
8.5533e-17
-2.66284e-16
5.79517e-17
8.5479e-17
-4.81584e-17
3.29212e-16
-9.03979e-17
1.33156e-16
-2.82001e-16
1.04494e-16
-3.70791e-16
7.06957e-17
1.19257e-16
-5.90968e-17
4.58978e-16
-1.10309e-16
1.84349e-16
-3.92323e-16
1.24656e-16
-4.9546e-16
8.42085e-17
1.59684e-16
-7.07971e-17
6.13956e-16
-1.31447e-16
2.44978e-16
-5.23783e-16
1.4606e-16
-6.41534e-16
9.85197e-17
2.07204e-16
-8.32901e-17
7.9574e-16
-1.53854e-16
3.15523e-16
-6.7765e-16
1.68802e-16
-8.10349e-16
1.13685e-16
2.62301e-16
-9.66324e-17
1.00603e-15
-1.77628e-16
3.965e-16
-8.55291e-16
1.92926e-16
-1.00329e-15
1.29737e-16
3.25471e-16
-1.10858e-16
1.2466e-15
-2.02816e-16
4.88439e-16
-1.05812e-15
2.18538e-16
-1.22184e-15
1.46738e-16
3.97254e-16
-1.26031e-16
1.51935e-15
-2.29525e-16
5.91915e-16
-1.28765e-15
2.45695e-16
-1.46755e-15
1.64725e-16
4.78206e-16
-1.4219e-16
1.82624e-15
-2.57813e-16
7.07522e-16
-1.54548e-15
2.74511e-16
-1.74207e-15
1.83769e-16
5.68932e-16
-1.59405e-16
2.16939e-15
-2.87799e-16
8.35902e-16
-1.83328e-15
3.05037e-16
-2.04712e-15
2.0391e-16
6.70044e-16
-1.77719e-16
2.55101e-15
-3.19535e-16
9.77704e-16
-2.15283e-15
3.37354e-16
-2.38448e-15
2.25206e-16
7.8218e-16
-1.97194e-16
2.97339e-15
-3.53103e-16
1.1336e-15
-2.50594e-15
3.71513e-16
-2.756e-15
2.47668e-16
9.06014e-16
-2.17849e-16
3.43889e-15
-3.88545e-16
1.30429e-15
-2.89449e-15
4.07903e-16
-3.16391e-15
2.71611e-16
1.0423e-15
-2.40031e-16
3.95053e-15
-4.26229e-16
1.49048e-15
-3.32072e-15
4.47544e-16
-3.61146e-15
2.97007e-16
1.19283e-15
-2.63224e-16
4.51075e-15
-4.67238e-16
1.69449e-15
-3.78796e-15
4.92225e-16
-4.83614e-15
3.26714e-16
1.35834e-15
-2.91013e-16
5.12848e-15
-5.13857e-16
1.91734e-15
-5.06974e-15
5.44828e-16
-2.31449e-10
3.63828e-16
-2.31454e-10
-3.25244e-16
-2.31458e-10
-5.69819e-16
-2.31454e-10
-2.31448e-10
5.47951e-16
-2.31449e-10
3.63358e-16
-2.31454e-10
-3.25352e-16
-2.31457e-10
-5.71499e-16
-2.31454e-10
-2.31449e-10
5.50089e-16
-2.3145e-10
3.6181e-16
-2.31454e-10
-3.24117e-16
-2.31456e-10
-5.73319e-16
-2.31454e-10
-2.3145e-10
5.24339e-16
-2.3145e-10
3.48347e-16
-2.31453e-10
-3.11961e-16
-2.31456e-10
-5.4592e-16
-2.31454e-10
-2.3145e-10
5.04748e-16
-2.31451e-10
3.35641e-16
-2.31453e-10
-3.00349e-16
-2.31455e-10
-5.25023e-16
-2.31453e-10
-2.31451e-10
4.88045e-16
-2.31451e-10
3.24086e-16
-2.31453e-10
-2.89777e-16
-2.31455e-10
-5.07189e-16
-2.31453e-10
-2.31451e-10
4.71435e-16
-2.31452e-10
3.13032e-16
-2.31453e-10
-2.79683e-16
-2.31454e-10
-4.89488e-16
-2.31453e-10
-2.31452e-10
4.5454e-16
-2.31452e-10
3.02048e-16
-2.31453e-10
-2.69659e-16
-2.31453e-10
-4.71515e-16
-2.31453e-10
-2.31452e-10
4.37707e-16
-2.31452e-10
2.91091e-16
-2.31453e-10
-2.59656e-16
-2.31453e-10
-4.53625e-16
-2.31453e-10
-2.31453e-10
4.21093e-16
-2.31453e-10
2.80217e-16
-2.31452e-10
-2.49725e-16
-2.31452e-10
-4.35979e-16
-2.31452e-10
-2.31453e-10
4.04696e-16
-2.31453e-10
2.6946e-16
-2.31452e-10
-2.39902e-16
-2.31452e-10
-4.18577e-16
-2.31452e-10
-2.31453e-10
3.88497e-16
-2.31454e-10
2.58829e-16
-2.31452e-10
-2.30195e-16
-2.31451e-10
-4.014e-16
-2.31452e-10
-2.31454e-10
3.72497e-16
-2.31454e-10
2.48327e-16
-2.31452e-10
-2.20605e-16
-2.31451e-10
-3.84449e-16
-2.31452e-10
-2.31454e-10
3.56706e-16
-2.31454e-10
2.37957e-16
-2.31452e-10
-2.11135e-16
-2.3145e-10
-3.67734e-16
-2.31452e-10
-2.31455e-10
3.41132e-16
-2.31455e-10
2.27723e-16
-2.31452e-10
-2.01791e-16
-2.3145e-10
-3.51263e-16
-2.31452e-10
-2.31455e-10
3.25784e-16
-2.31455e-10
2.17632e-16
-2.31452e-10
-1.92578e-16
-2.3145e-10
-3.35046e-16
-2.31451e-10
-2.31455e-10
3.10669e-16
-2.31455e-10
2.07688e-16
-2.31452e-10
-1.835e-16
-2.31449e-10
-3.19089e-16
-2.31451e-10
-2.31456e-10
2.95794e-16
-2.31456e-10
1.97896e-16
-2.31452e-10
-1.74563e-16
-2.31449e-10
-3.03399e-16
-2.31451e-10
-2.31456e-10
2.81166e-16
-2.31456e-10
1.88261e-16
-2.31451e-10
-1.6577e-16
-2.31448e-10
-2.87984e-16
-2.31451e-10
-2.31456e-10
2.66792e-16
-2.31456e-10
1.78788e-16
-2.31451e-10
-1.57125e-16
-2.31448e-10
-2.72849e-16
-2.31451e-10
-2.31456e-10
2.52678e-16
-2.31457e-10
1.6948e-16
-2.31451e-10
-1.48635e-16
-2.31448e-10
-2.58003e-16
-2.31451e-10
-2.31457e-10
2.3883e-16
-2.31457e-10
1.60344e-16
-2.31451e-10
-1.40301e-16
-2.31447e-10
-2.4345e-16
-2.31451e-10
-2.31457e-10
2.25255e-16
-2.31457e-10
1.51382e-16
-2.31451e-10
-1.3213e-16
-2.31447e-10
-2.29197e-16
-2.31451e-10
-2.31457e-10
2.11959e-16
-2.31457e-10
1.42599e-16
-2.31451e-10
-1.24123e-16
-2.31447e-10
-2.1525e-16
-2.3145e-10
-2.31457e-10
1.98947e-16
-2.31457e-10
1.33998e-16
-2.31451e-10
-1.16286e-16
-2.31447e-10
-2.01615e-16
-2.3145e-10
-2.31458e-10
1.86225e-16
-2.31458e-10
1.25584e-16
-2.31451e-10
-1.08622e-16
-2.31446e-10
-1.88296e-16
-2.3145e-10
-2.31458e-10
1.73798e-16
-2.31458e-10
1.17361e-16
-2.31451e-10
-1.01134e-16
-2.31446e-10
-1.75299e-16
-2.3145e-10
-2.31458e-10
1.61671e-16
-2.31458e-10
1.0933e-16
-2.31451e-10
-9.38256e-17
-2.31446e-10
-1.62628e-16
-2.3145e-10
-2.31458e-10
1.49848e-16
-2.31458e-10
1.01497e-16
-2.31451e-10
-8.66997e-17
-2.31446e-10
-1.50288e-16
-2.3145e-10
-2.31458e-10
1.38333e-16
-2.31458e-10
9.38636e-17
-2.31451e-10
-7.97592e-17
-2.31446e-10
-1.38282e-16
-2.3145e-10
-2.31458e-10
1.27132e-16
-2.31458e-10
8.64329e-17
-2.31451e-10
-7.30071e-17
-2.31446e-10
-1.26615e-16
-2.3145e-10
-2.31459e-10
1.16247e-16
-2.31458e-10
7.92077e-17
-2.31451e-10
-6.64457e-17
-2.31445e-10
-1.1529e-16
-2.3145e-10
-2.31459e-10
1.05681e-16
-2.31459e-10
7.21902e-17
-2.31451e-10
-6.00774e-17
-2.31445e-10
-1.04309e-16
-2.3145e-10
-2.31459e-10
9.54389e-17
-2.31459e-10
6.5383e-17
-2.31451e-10
-5.39044e-17
-2.31445e-10
-9.36763e-17
-2.3145e-10
-2.31459e-10
8.55222e-17
-2.31459e-10
5.87878e-17
-2.31451e-10
-4.79285e-17
-2.31445e-10
-8.33936e-17
-2.3145e-10
-2.31459e-10
7.59336e-17
-2.31459e-10
5.24066e-17
-2.31451e-10
-4.21515e-17
-2.31445e-10
-7.34628e-17
-2.3145e-10
-2.31459e-10
6.66751e-17
-2.31459e-10
4.62409e-17
-2.31451e-10
-3.65749e-17
-2.31445e-10
-6.38858e-17
-2.3145e-10
-2.31459e-10
5.77485e-17
-2.31459e-10
4.02921e-17
-2.3145e-10
-3.11998e-17
-2.31445e-10
-5.46637e-17
-2.3145e-10
-2.31459e-10
4.91551e-17
-2.31459e-10
3.45611e-17
-2.3145e-10
-2.60273e-17
-2.31445e-10
-4.57973e-17
-2.3145e-10
-2.31459e-10
4.08957e-17
-2.31459e-10
2.90489e-17
-2.3145e-10
-2.10581e-17
-2.31445e-10
-3.72872e-17
-2.3145e-10
-2.31459e-10
3.29711e-17
-2.31459e-10
2.37561e-17
-2.3145e-10
-1.62928e-17
-2.31445e-10
-2.91334e-17
-2.3145e-10
-2.31459e-10
2.53812e-17
-2.31459e-10
1.86828e-17
-2.3145e-10
-1.17315e-17
-2.31445e-10
-2.13356e-17
-2.3145e-10
-2.31459e-10
1.8126e-17
-2.31459e-10
1.38292e-17
-2.3145e-10
-7.37436e-18
-2.31445e-10
-1.38929e-17
-2.3145e-10
-2.31459e-10
1.12046e-17
-2.31459e-10
9.195e-18
-2.3145e-10
-3.22096e-18
-2.31445e-10
-6.80411e-18
-2.3145e-10
-2.31459e-10
4.61596e-18
-2.31459e-10
4.77964e-18
-2.3145e-10
7.29258e-19
-2.31445e-10
-6.75589e-20
-2.3145e-10
-2.31459e-10
-1.64143e-18
-2.31459e-10
5.82289e-19
-2.3145e-10
4.47715e-18
-2.31445e-10
6.31891e-18
-2.3145e-10
-2.31459e-10
-7.56964e-18
-2.31459e-10
-3.3982e-18
-2.3145e-10
8.02389e-18
-2.31445e-10
1.23579e-17
-2.3145e-10
-2.31459e-10
-1.31711e-17
-2.31459e-10
-7.16328e-18
-2.3145e-10
1.1371e-17
-2.31445e-10
1.80526e-17
-2.3145e-10
-2.31459e-10
-1.84489e-17
-2.31459e-10
-1.07147e-17
-2.3145e-10
1.45201e-17
-2.31445e-10
2.34065e-17
-2.3145e-10
-2.31459e-10
-2.34064e-17
-2.31459e-10
-1.40547e-17
-2.3145e-10
1.74735e-17
-2.31445e-10
2.84238e-17
-2.3145e-10
-2.31459e-10
-2.80477e-17
-2.31459e-10
-1.71856e-17
-2.3145e-10
2.02336e-17
-2.31445e-10
3.31092e-17
-2.3145e-10
-2.31459e-10
-3.23772e-17
-2.31459e-10
-2.01103e-17
-2.3145e-10
2.28032e-17
-2.31445e-10
3.74678e-17
-2.3145e-10
-2.31459e-10
-3.64e-17
-2.31459e-10
-2.2832e-17
-2.31451e-10
2.51853e-17
-2.31445e-10
4.15055e-17
-2.3145e-10
-2.31459e-10
-4.01218e-17
-2.31459e-10
-2.53542e-17
-2.31451e-10
2.73836e-17
-2.31445e-10
4.52285e-17
-2.3145e-10
-2.31459e-10
-4.35487e-17
-2.31459e-10
-2.76808e-17
-2.31451e-10
2.9402e-17
-2.31445e-10
4.86438e-17
-2.3145e-10
-2.31459e-10
-4.66877e-17
-2.31459e-10
-2.98163e-17
-2.31451e-10
3.12447e-17
-2.31445e-10
5.17591e-17
-2.3145e-10
-2.31459e-10
-4.95462e-17
-2.31459e-10
-3.17653e-17
-2.31451e-10
3.29164e-17
-2.31445e-10
5.45825e-17
-2.3145e-10
-2.31459e-10
-5.21322e-17
-2.31459e-10
-3.35332e-17
-2.31451e-10
3.44222e-17
-2.31445e-10
5.7123e-17
-2.3145e-10
-2.31459e-10
-5.44546e-17
-2.31459e-10
-3.51256e-17
-2.31451e-10
3.57678e-17
-2.31445e-10
5.93902e-17
-2.3145e-10
-2.31459e-10
-5.6523e-17
-2.31459e-10
-3.65487e-17
-2.31451e-10
3.69591e-17
-2.31445e-10
6.13944e-17
-2.3145e-10
-2.31459e-10
-5.83476e-17
-2.31459e-10
-3.7809e-17
-2.31451e-10
3.80027e-17
-2.31445e-10
6.31468e-17
-2.3145e-10
-2.31459e-10
-5.99393e-17
-2.31458e-10
-3.89138e-17
-2.31451e-10
3.89055e-17
-2.31445e-10
6.46593e-17
-2.3145e-10
-2.31459e-10
-6.13102e-17
-2.31458e-10
-3.98707e-17
-2.31451e-10
3.9675e-17
-2.31445e-10
6.59447e-17
-2.3145e-10
-2.31458e-10
-6.2473e-17
-2.31458e-10
-4.06881e-17
-2.31451e-10
4.03194e-17
-2.31446e-10
6.70167e-17
-2.3145e-10
-2.31458e-10
-6.34413e-17
-2.31458e-10
-4.13749e-17
-2.31451e-10
4.08472e-17
-2.31446e-10
6.78899e-17
-2.3145e-10
-2.31458e-10
-6.42297e-17
-2.31458e-10
-4.19406e-17
-2.31451e-10
4.12677e-17
-2.31446e-10
6.85801e-17
-2.3145e-10
-2.31458e-10
-6.48539e-17
-2.31458e-10
-4.23954e-17
-2.31451e-10
4.15909e-17
-2.31446e-10
6.91039e-17
-2.3145e-10
-2.31458e-10
-6.53306e-17
-2.31458e-10
-4.27503e-17
-2.31451e-10
4.18273e-17
-2.31446e-10
6.94793e-17
-2.3145e-10
-2.31458e-10
-6.56779e-17
-2.31458e-10
-4.3017e-17
-2.31451e-10
4.19881e-17
-2.31446e-10
6.97254e-17
-2.3145e-10
-2.31458e-10
-6.59148e-17
-2.31458e-10
-4.32082e-17
-2.31451e-10
4.20856e-17
-2.31446e-10
6.98627e-17
-2.3145e-10
-2.31458e-10
-6.60618e-17
-2.31458e-10
-4.33371e-17
-2.31451e-10
4.21326e-17
-2.31446e-10
6.99131e-17
-2.3145e-10
-2.31458e-10
-6.6141e-17
-2.31458e-10
-4.34184e-17
-2.31451e-10
4.21429e-17
-2.31446e-10
6.98999e-17
-2.3145e-10
-2.31458e-10
-6.6176e-17
-2.31458e-10
-4.34673e-17
-2.31451e-10
4.21312e-17
-2.31446e-10
6.98483e-17
-2.3145e-10
-2.31458e-10
-6.61918e-17
-2.31458e-10
-4.35005e-17
-2.31451e-10
4.21134e-17
-2.31446e-10
6.97853e-17
-2.3145e-10
-2.31458e-10
-6.62156e-17
-2.31458e-10
-4.35358e-17
-2.31451e-10
4.21064e-17
-2.31446e-10
6.97397e-17
-2.3145e-10
-2.31458e-10
-6.62762e-17
-2.31458e-10
-4.3592e-17
-2.31451e-10
4.2128e-17
-2.31447e-10
6.97422e-17
-2.3145e-10
-2.31458e-10
-6.64041e-17
-2.31458e-10
-4.36892e-17
-2.31451e-10
4.21972e-17
-2.31447e-10
6.98256e-17
-2.3145e-10
-2.31458e-10
-6.6634e-17
-2.31457e-10
-4.385e-17
-2.31451e-10
4.23355e-17
-2.31447e-10
7.00267e-17
-2.3145e-10
-2.31457e-10
-6.70115e-17
-2.31457e-10
-4.41051e-17
-2.31451e-10
4.25714e-17
-2.31447e-10
7.03949e-17
-2.3145e-10
-2.31457e-10
-6.76132e-17
-4.45049e-17
4.29481e-17
7.10181e-17
)
;

boundaryField
{
    BotWall
    {
        type            calculated;
        value           nonuniform List<scalar> 5(4.51518e-22 8.4487e-22 1.30595e-21 1.0436e-21 8.16702e-22);
    }
    FreeStream
    {
        type            calculated;
        value           nonuniform List<scalar> 5(-2.31457e-10 -2.31451e-10 -2.31447e-10 -2.3145e-10 -2.31457e-10);
    }
    FrontNBack
    {
        type            empty;
        value           nonuniform 0();
    }
    LeftSide
    {
        type            symmetryPlane;
        value           uniform 0;
    }
    RightSide
    {
        type            symmetryPlane;
        value           uniform 0;
    }
}


// ************************************************************************* //
