/*--------------------------------*- C++ -*----------------------------------*\
| =========                 |                                                 |
| \\      /  F ield         | OpenFOAM: The Open Source CFD Toolbox           |
|  \\    /   O peration     | Version:  2.4.0                                 |
|   \\  /    A nd           | Web:      www.OpenFOAM.org                      |
|    \\/     M anipulation  |                                                 |
\*---------------------------------------------------------------------------*/
FoamFile
{
    version     2.0;
    format      ascii;
    class       volVectorField;
    location    "3.4";
    object      U;
}
// * * * * * * * * * * * * * * * * * * * * * * * * * * * * * * * * * * * * * //

dimensions      [0 1 -1 0 0 0 0];

internalField   nonuniform List<vector> 
500
(
(1.83012e-09 1.8786e-10 0)
(2.96564e-09 2.00042e-10 0)
(3.20219e-10 2.04862e-10 0)
(-2.96354e-09 2.0138e-10 0)
(-2.13672e-09 1.87425e-10 0)
(5.61802e-09 -5.6794e-10 0)
(9.13281e-09 -4.8933e-10 0)
(9.49681e-10 -4.2789e-10 0)
(-9.12982e-09 -4.75633e-10 0)
(-6.53009e-09 -5.72443e-10 0)
(9.55796e-09 6.54985e-10 0)
(1.55765e-08 9.43988e-10 0)
(1.57137e-09 1.1288e-09 0)
(-1.55765e-08 9.83655e-10 0)
(-1.10715e-08 6.42029e-10 0)
(1.36593e-08 -1.60819e-09 0)
(2.23096e-08 -1.0835e-09 0)
(2.1849e-09 -7.02429e-10 0)
(-2.23173e-08 -1.00452e-09 0)
(-1.57709e-08 -1.63406e-09 0)
(1.79243e-08 8.4293e-10 0)
(2.93393e-08 1.81989e-09 0)
(2.79046e-09 2.47113e-09 0)
(-2.93592e-08 1.95203e-09 0)
(-2.06305e-08 7.99593e-10 0)
(2.23655e-08 -3.00561e-09 0)
(3.6683e-08 -1.60122e-09 0)
(3.38796e-09 -5.98352e-10 0)
(-3.67198e-08 -1.40283e-09 0)
(-2.56632e-08 -3.07089e-09 0)
(2.69838e-08 8.02345e-10 0)
(4.43465e-08 2.9271e-09 0)
(3.97731e-09 4.3639e-09 0)
(-4.44054e-08 3.20597e-09 0)
(-3.08703e-08 7.10299e-10 0)
(3.1794e-08 -4.99363e-09 0)
(5.23497e-08 -2.22181e-09 0)
(4.55856e-09 -2.58617e-10 0)
(-5.24362e-08 -1.84927e-09 0)
(-3.62672e-08 -5.11709e-09 0)
(3.67964e-08 -2.01755e-10 0)
(6.06985e-08 3.58993e-09 0)
(5.13159e-09 6.17163e-09 0)
(-6.08183e-08 4.07088e-09 0)
(-4.18544e-08 -3.61779e-10 0)
(4.20079e-08 -8.3009e-09 0)
(6.94151e-08 -3.61007e-09 0)
(5.69644e-09 -3.03645e-10 0)
(-6.95746e-08 -3.00736e-09 0)
(-4.76496e-08 -8.50217e-09 0)
(4.74286e-08 2.12044e-09 0)
(7.85058e-08 8.17149e-09 0)
(6.25299e-09 1.23125e-08 0)
(-7.87116e-08 8.91155e-09 0)
(-5.3653e-08 1.8727e-09 0)
(5.3077e-08 5.38315e-09 0)
(8.79954e-08 1.26454e-08 0)
(6.80131e-09 1.77442e-08 0)
(-8.82544e-08 1.3537e-08 0)
(-5.9884e-08 5.0831e-09 0)
(5.8954e-08 2.43215e-08 0)
(9.7891e-08 3.33248e-08 0)
(7.34128e-09 3.94994e-08 0)
(-9.82107e-08 3.43844e-08 0)
(-6.63438e-08 2.39624e-08 0)
(6.50791e-08 -7.72816e-08 0)
(1.08219e-07 -6.6907e-08 0)
(7.873e-09 -5.95817e-08 0)
(-1.08607e-07 -6.56714e-08 0)
(-7.30526e-08 -7.77027e-08 0)
(7.14514e-08 -4.1494e-07 0)
(1.18985e-07 -4.02931e-07 0)
(8.39624e-09 -3.94564e-07 0)
(-1.1945e-07 -4.01524e-07 0)
(-8.00099e-08 -4.15422e-07 0)
(7.8088e-08 -6.78898e-07 0)
(1.3021e-07 -6.65313e-07 0)
(8.9109e-09 -6.55921e-07 0)
(-1.3076e-07 -6.63736e-07 0)
(-8.72333e-08 -6.7944e-07 0)
(8.49993e-08 1.66509e-06 0)
(1.41912e-07 1.68448e-06 0)
(9.41678e-09 1.69673e-06 0)
(-1.42558e-07 1.6864e-06 0)
(-9.47337e-08 1.66443e-06 0)
(9.22585e-08 1.08557e-05 0)
(1.54202e-07 1.08892e-05 0)
(9.91668e-09 1.09106e-05 0)
(-1.54952e-07 1.0892e-05 0)
(-1.02588e-07 1.08547e-05 0)
(9.99535e-08 1.65485e-05 0)
(1.672e-07 1.6599e-05 0)
(1.04706e-08 1.66355e-05 0)
(-1.68005e-07 1.66032e-05 0)
(-1.10885e-07 1.6547e-05 0)
(1.08097e-07 -4.06756e-05 0)
(1.81071e-07 -4.06983e-05 0)
(1.09594e-08 -4.07025e-05 0)
(-1.82047e-07 -4.06976e-05 0)
(-1.19683e-07 -4.06759e-05 0)
(1.16541e-07 -0.00031269 0)
(1.95591e-07 -0.000312877 0)
(1.14838e-08 -0.000312997 0)
(-1.96752e-07 -0.000312887 0)
(-1.28836e-07 -0.000312687 0)
(1.1815e-07 -0.000854874 0)
(1.98233e-07 -0.000854796 0)
(1.1567e-08 -0.000854757 0)
(-1.99423e-07 -0.000854793 0)
(-1.30557e-07 -0.000854875 0)
(1.16173e-07 -0.00197579 0)
(1.94676e-07 -0.00197567 0)
(1.12074e-08 -0.00197559 0)
(-1.95749e-07 -0.00197566 0)
(-1.28082e-07 -0.0019758 0)
(1.10457e-07 -0.00119889 0)
(1.8566e-07 -0.00119896 0)
(1.07195e-08 -0.00119899 0)
(-1.86573e-07 -0.00119896 0)
(-1.21698e-07 -0.00119889 0)
(1.05202e-07 -0.00111462 0)
(1.77162e-07 -0.00111465 0)
(1.0244e-08 -0.00111467 0)
(-1.7792e-07 -0.00111465 0)
(-1.15797e-07 -0.00111462 0)
(1.00403e-07 -0.00113303 0)
(1.69278e-07 -0.00113304 0)
(9.78917e-09 -0.00113305 0)
(-1.69892e-07 -0.00113304 0)
(-1.10385e-07 -0.00113303 0)
(9.57926e-08 -0.00115484 0)
(1.61696e-07 -0.00115484 0)
(9.35095e-09 -0.00115485 0)
(-1.62174e-07 -0.00115484 0)
(-1.0519e-07 -0.00115484 0)
(9.12695e-08 -0.00115919 0)
(1.54272e-07 -0.0011592 0)
(8.92577e-09 -0.0011592 0)
(-1.5462e-07 -0.0011592 0)
(-1.00103e-07 -0.00115919 0)
(8.68527e-08 -0.00115823 0)
(1.47018e-07 -0.00115823 0)
(8.51293e-09 -0.00115823 0)
(-1.47242e-07 -0.00115823 0)
(-9.51436e-08 -0.00115823 0)
(8.25622e-08 -0.00115736 0)
(1.39957e-07 -0.00115736 0)
(8.11247e-09 -0.00115736 0)
(-1.40064e-07 -0.00115736 0)
(-9.03315e-08 -0.00115736 0)
(7.84006e-08 -0.00115718 0)
(1.33093e-07 -0.00115718 0)
(7.72434e-09 -0.00115718 0)
(-1.33089e-07 -0.00115718 0)
(-8.56689e-08 -0.00115719 0)
(7.43645e-08 -0.00115723 0)
(1.26422e-07 -0.00115722 0)
(7.34839e-09 -0.00115722 0)
(-1.26315e-07 -0.00115722 0)
(-8.1152e-08 -0.00115723 0)
(7.04512e-08 -0.00115727 0)
(1.19943e-07 -0.00115726 0)
(6.98442e-09 -0.00115725 0)
(-1.19737e-07 -0.00115726 0)
(-7.67776e-08 -0.00115727 0)
(6.66593e-08 -0.00115727 0)
(1.13654e-07 -0.00115726 0)
(6.63225e-09 -0.00115726 0)
(-1.13355e-07 -0.00115726 0)
(-7.25439e-08 -0.00115728 0)
(6.29875e-08 -0.00115727 0)
(1.07552e-07 -0.00115726 0)
(6.29169e-09 -0.00115725 0)
(-1.07166e-07 -0.00115726 0)
(-6.84492e-08 -0.00115728 0)
(5.94345e-08 -0.00115727 0)
(1.01637e-07 -0.00115726 0)
(5.96254e-09 -0.00115725 0)
(-1.0117e-07 -0.00115726 0)
(-6.44917e-08 -0.00115728 0)
(5.59987e-08 -0.00115728 0)
(9.59064e-08 -0.00115726 0)
(5.64461e-09 -0.00115725 0)
(-9.53637e-08 -0.00115726 0)
(-6.06695e-08 -0.00115728 0)
(5.26787e-08 -0.00115728 0)
(9.03589e-08 -0.00115726 0)
(5.33771e-09 -0.00115724 0)
(-8.97458e-08 -0.00115726 0)
(-5.69805e-08 -0.00115728 0)
(4.94729e-08 -0.00115728 0)
(8.49925e-08 -0.00115726 0)
(5.04164e-09 -0.00115724 0)
(-8.43142e-08 -0.00115726 0)
(-5.34229e-08 -0.00115728 0)
(4.63798e-08 -0.00115728 0)
(7.98051e-08 -0.00115726 0)
(4.75621e-09 -0.00115724 0)
(-7.90667e-08 -0.00115725 0)
(-4.99946e-08 -0.00115728 0)
(4.33977e-08 -0.00115728 0)
(7.47948e-08 -0.00115726 0)
(4.4812e-09 -0.00115724 0)
(-7.40013e-08 -0.00115725 0)
(-4.66936e-08 -0.00115728 0)
(4.05249e-08 -0.00115728 0)
(6.99595e-08 -0.00115726 0)
(4.21643e-09 -0.00115724 0)
(-6.91156e-08 -0.00115725 0)
(-4.35176e-08 -0.00115728 0)
(3.77599e-08 -0.00115728 0)
(6.5297e-08 -0.00115726 0)
(3.96168e-09 -0.00115724 0)
(-6.44073e-08 -0.00115725 0)
(-4.04647e-08 -0.00115729 0)
(3.51008e-08 -0.00115729 0)
(6.0805e-08 -0.00115726 0)
(3.71675e-09 -0.00115724 0)
(-5.98741e-08 -0.00115725 0)
(-3.75327e-08 -0.00115729 0)
(3.25459e-08 -0.00115729 0)
(5.64813e-08 -0.00115726 0)
(3.48145e-09 -0.00115723 0)
(-5.55135e-08 -0.00115725 0)
(-3.47193e-08 -0.00115729 0)
(3.00934e-08 -0.00115729 0)
(5.23235e-08 -0.00115725 0)
(3.25556e-09 -0.00115723 0)
(-5.13229e-08 -0.00115725 0)
(-3.20224e-08 -0.00115729 0)
(2.77416e-08 -0.00115729 0)
(4.83291e-08 -0.00115725 0)
(3.03887e-09 -0.00115723 0)
(-4.72998e-08 -0.00115725 0)
(-2.94397e-08 -0.00115729 0)
(2.54886e-08 -0.00115729 0)
(4.44956e-08 -0.00115725 0)
(2.83119e-09 -0.00115723 0)
(-4.34416e-08 -0.00115725 0)
(-2.69691e-08 -0.00115729 0)
(2.33326e-08 -0.00115729 0)
(4.08205e-08 -0.00115725 0)
(2.63231e-09 -0.00115723 0)
(-3.97454e-08 -0.00115725 0)
(-2.46081e-08 -0.00115729 0)
(2.12716e-08 -0.00115729 0)
(3.73011e-08 -0.00115725 0)
(2.44201e-09 -0.00115723 0)
(-3.62086e-08 -0.00115725 0)
(-2.23545e-08 -0.00115729 0)
(1.93038e-08 -0.00115729 0)
(3.39348e-08 -0.00115725 0)
(2.2601e-09 -0.00115723 0)
(-3.28284e-08 -0.00115725 0)
(-2.0206e-08 -0.00115729 0)
(1.74273e-08 -0.00115729 0)
(3.07188e-08 -0.00115725 0)
(2.08637e-09 -0.00115723 0)
(-2.96017e-08 -0.00115725 0)
(-1.81603e-08 -0.00115729 0)
(1.56401e-08 -0.00115729 0)
(2.76503e-08 -0.00115725 0)
(1.92061e-09 -0.00115723 0)
(-2.65257e-08 -0.00115725 0)
(-1.6215e-08 -0.00115729 0)
(1.39402e-08 -0.00115729 0)
(2.47264e-08 -0.00115725 0)
(1.76263e-09 -0.00115723 0)
(-2.35974e-08 -0.00115725 0)
(-1.43677e-08 -0.00115729 0)
(1.23258e-08 -0.00115729 0)
(2.19443e-08 -0.00115725 0)
(1.61221e-09 -0.00115723 0)
(-2.08137e-08 -0.00115725 0)
(-1.26161e-08 -0.00115729 0)
(1.07947e-08 -0.00115729 0)
(1.93011e-08 -0.00115725 0)
(1.46915e-09 -0.00115722 0)
(-1.81716e-08 -0.00115725 0)
(-1.09578e-08 -0.00115729 0)
(9.34497e-09 -0.00115729 0)
(1.67937e-08 -0.00115725 0)
(1.33326e-09 -0.00115722 0)
(-1.56679e-08 -0.00115725 0)
(-9.39032e-09 -0.0011573 0)
(7.97462e-09 -0.00115729 0)
(1.44191e-08 -0.00115725 0)
(1.20433e-09 -0.00115722 0)
(-1.32994e-08 -0.00115725 0)
(-7.91138e-09 -0.0011573 0)
(6.68159e-09 -0.00115729 0)
(1.21743e-08 -0.00115725 0)
(1.08216e-09 -0.00115722 0)
(-1.1063e-08 -0.00115725 0)
(-6.51851e-09 -0.0011573 0)
(5.46385e-09 -0.0011573 0)
(1.0056e-08 -0.00115725 0)
(9.66568e-10 -0.00115722 0)
(-8.95532e-09 -0.00115725 0)
(-5.20931e-09 -0.0011573 0)
(4.31932e-09 -0.0011573 0)
(8.06119e-09 -0.00115725 0)
(8.57344e-10 -0.00115722 0)
(-6.97312e-09 -0.00115725 0)
(-3.98135e-09 -0.0011573 0)
(3.24594e-09 -0.0011573 0)
(6.18664e-09 -0.00115725 0)
(7.543e-10 -0.00115722 0)
(-5.11305e-09 -0.00115725 0)
(-2.83221e-09 -0.0011573 0)
(2.24165e-09 -0.0011573 0)
(4.42912e-09 -0.00115725 0)
(6.57242e-10 -0.00115722 0)
(-3.37175e-09 -0.00115725 0)
(-1.75947e-09 -0.0011573 0)
(1.30435e-09 -0.0011573 0)
(2.78536e-09 -0.00115725 0)
(5.65981e-10 -0.00115722 0)
(-1.74583e-09 -0.00115725 0)
(-7.60695e-10 -0.0011573 0)
(4.31949e-10 -0.0011573 0)
(1.25207e-09 -0.00115725 0)
(4.80329e-10 -0.00115722 0)
(-2.31842e-10 -0.00115725 0)
(1.6654e-10 -0.0011573 0)
(-3.77643e-10 -0.0011573 0)
(-1.74093e-10 -0.00115725 0)
(4.00099e-10 -0.00115722 0)
(1.17366e-09 -0.00115725 0)
(1.02466e-09 -0.0011573 0)
(-1.12653e-09 -0.0011573 0)
(-1.49648e-09 -0.00115725 0)
(3.25108e-10 -0.00115722 0)
(2.47416e-09 -0.00115725 0)
(1.8161e-09 -0.0011573 0)
(-1.81683e-09 -0.0011573 0)
(-2.71847e-09 -0.00115725 0)
(2.55174e-10 -0.00115722 0)
(3.67318e-09 -0.00115725 0)
(2.54327e-09 -0.0011573 0)
(-2.45065e-09 -0.0011573 0)
(-3.84348e-09 -0.00115725 0)
(1.90116e-10 -0.00115722 0)
(4.77425e-09 -0.00115725 0)
(3.20861e-09 -0.0011573 0)
(-3.0301e-09 -0.0011573 0)
(-4.87496e-09 -0.00115725 0)
(1.29756e-10 -0.00115722 0)
(5.78093e-09 -0.00115725 0)
(3.81453e-09 -0.0011573 0)
(-3.55732e-09 -0.0011573 0)
(-5.81636e-09 -0.00115725 0)
(7.39197e-11 -0.00115722 0)
(6.69681e-09 -0.00115725 0)
(4.36345e-09 -0.0011573 0)
(-4.03442e-09 -0.0011573 0)
(-6.67118e-09 -0.00115725 0)
(2.24321e-11 -0.00115722 0)
(7.52548e-09 -0.00115725 0)
(4.85779e-09 -0.0011573 0)
(-4.46354e-09 -0.00115729 0)
(-7.44292e-09 -0.00115725 0)
(-2.48785e-11 -0.00115722 0)
(8.27058e-09 -0.00115725 0)
(5.29996e-09 -0.0011573 0)
(-4.84681e-09 -0.00115729 0)
(-8.13513e-09 -0.00115725 0)
(-6.8182e-11 -0.00115722 0)
(8.93576e-09 -0.00115725 0)
(5.69237e-09 -0.0011573 0)
(-5.18637e-09 -0.00115729 0)
(-8.75136e-09 -0.00115725 0)
(-1.07647e-10 -0.00115722 0)
(9.52468e-09 -0.00115725 0)
(6.03743e-09 -0.00115729 0)
(-5.48436e-09 -0.00115729 0)
(-9.29519e-09 -0.00115725 0)
(-1.43439e-10 -0.00115722 0)
(1.0041e-08 -0.00115725 0)
(6.33755e-09 -0.00115729 0)
(-5.74292e-09 -0.00115729 0)
(-9.77022e-09 -0.00115725 0)
(-1.75724e-10 -0.00115722 0)
(1.04885e-08 -0.00115725 0)
(6.59514e-09 -0.00115729 0)
(-5.96421e-09 -0.00115729 0)
(-1.01801e-08 -0.00115725 0)
(-2.04665e-10 -0.00115723 0)
(1.08709e-08 -0.00115725 0)
(6.8126e-09 -0.00115729 0)
(-6.15039e-09 -0.00115729 0)
(-1.05284e-08 -0.00115725 0)
(-2.30424e-10 -0.00115723 0)
(1.11918e-08 -0.00115725 0)
(6.99233e-09 -0.00115729 0)
(-6.30362e-09 -0.00115729 0)
(-1.08189e-08 -0.00115725 0)
(-2.53164e-10 -0.00115723 0)
(1.14552e-08 -0.00115725 0)
(7.13676e-09 -0.00115729 0)
(-6.42607e-09 -0.00115729 0)
(-1.10553e-08 -0.00115725 0)
(-2.73045e-10 -0.00115723 0)
(1.16647e-08 -0.00115725 0)
(7.24829e-09 -0.00115729 0)
(-6.51993e-09 -0.00115729 0)
(-1.12412e-08 -0.00115725 0)
(-2.90228e-10 -0.00115723 0)
(1.18243e-08 -0.00115725 0)
(7.32935e-09 -0.00115729 0)
(-6.58738e-09 -0.00115729 0)
(-1.13805e-08 -0.00115725 0)
(-3.04873e-10 -0.00115723 0)
(1.19377e-08 -0.00115725 0)
(7.38237e-09 -0.00115729 0)
(-6.63065e-09 -0.00115729 0)
(-1.14768e-08 -0.00115725 0)
(-3.17141e-10 -0.00115723 0)
(1.20089e-08 -0.00115725 0)
(7.40979e-09 -0.00115729 0)
(-6.65194e-09 -0.00115729 0)
(-1.15342e-08 -0.00115725 0)
(-3.27194e-10 -0.00115723 0)
(1.20417e-08 -0.00115725 0)
(7.41407e-09 -0.00115729 0)
(-6.65351e-09 -0.00115729 0)
(-1.15563e-08 -0.00115725 0)
(-3.35194e-10 -0.00115723 0)
(1.20401e-08 -0.00115725 0)
(7.39769e-09 -0.00115729 0)
(-6.63761e-09 -0.00115729 0)
(-1.15471e-08 -0.00115725 0)
(-3.41308e-10 -0.00115723 0)
(1.20081e-08 -0.00115725 0)
(7.36313e-09 -0.00115729 0)
(-6.60654e-09 -0.00115729 0)
(-1.15106e-08 -0.00115725 0)
(-3.45701e-10 -0.00115723 0)
(1.19498e-08 -0.00115725 0)
(7.31293e-09 -0.00115729 0)
(-6.5626e-09 -0.00115729 0)
(-1.14507e-08 -0.00115725 0)
(-3.48546e-10 -0.00115723 0)
(1.18691e-08 -0.00115725 0)
(7.24964e-09 -0.00115729 0)
(-6.50816e-09 -0.00115729 0)
(-1.13716e-08 -0.00115725 0)
(-3.50016e-10 -0.00115723 0)
(1.17704e-08 -0.00115725 0)
(7.17586e-09 -0.00115729 0)
(-6.44561e-09 -0.00115729 0)
(-1.12773e-08 -0.00115725 0)
(-3.5029e-10 -0.00115723 0)
(1.16577e-08 -0.00115725 0)
(7.09422e-09 -0.00115729 0)
(-6.37737e-09 -0.00115729 0)
(-1.1172e-08 -0.00115725 0)
(-3.49555e-10 -0.00115723 0)
(1.15355e-08 -0.00115725 0)
(7.00743e-09 -0.00115729 0)
(-6.30594e-09 -0.00115729 0)
(-1.106e-08 -0.00115725 0)
(-3.48001e-10 -0.00115723 0)
(1.1408e-08 -0.00115725 0)
(6.91823e-09 -0.00115729 0)
(-6.23386e-09 -0.00115729 0)
(-1.09458e-08 -0.00115725 0)
(-3.45829e-10 -0.00115723 0)
(1.12797e-08 -0.00115725 0)
(6.82946e-09 -0.00115729 0)
(-6.16375e-09 -0.00115729 0)
(-1.08337e-08 -0.00115725 0)
(-3.43249e-10 -0.00115723 0)
(1.11553e-08 -0.00115725 0)
(6.74402e-09 -0.00115729 0)
(-6.09828e-09 -0.00115729 0)
(-1.07284e-08 -0.00115725 0)
(-3.40478e-10 -0.00115723 0)
(1.10393e-08 -0.00115725 0)
(6.66489e-09 -0.00115729 0)
(-6.04023e-09 -0.00115729 0)
(-1.06345e-08 -0.00115725 0)
(-3.37751e-10 -0.00115723 0)
(1.09368e-08 -0.00115725 0)
(6.59518e-09 -0.00115729 0)
(-5.99263e-09 -0.00115729 0)
(-1.05573e-08 -0.00115726 0)
(-3.35321e-10 -0.00115723 0)
(1.08528e-08 -0.00115725 0)
(6.53827e-09 -0.00115729 0)
(-5.95897e-09 -0.00115729 0)
(-1.05026e-08 -0.00115726 0)
(-3.3348e-10 -0.00115723 0)
(1.07936e-08 -0.00115725 0)
(6.49812e-09 -0.00115729 0)
(-5.94261e-09 -0.00115729 0)
(-1.04761e-08 -0.00115726 0)
(-3.32524e-10 -0.00115723 0)
(1.07648e-08 -0.00115725 0)
(6.47848e-09 -0.00115729 0)
)
;

boundaryField
{
    BotWall
    {
        type            fixedValue;
        value           uniform (0 0 0);
    }
    FreeStream
    {
        type            zeroGradient;
    }
    FrontNBack
    {
        type            empty;
    }
    LeftSide
    {
        type            symmetryPlane;
    }
    RightSide
    {
        type            symmetryPlane;
    }
}


// ************************************************************************* //
