/*--------------------------------*- C++ -*----------------------------------*\
| =========                 |                                                 |
| \\      /  F ield         | OpenFOAM: The Open Source CFD Toolbox           |
|  \\    /   O peration     | Version:  2.4.0                                 |
|   \\  /    A nd           | Web:      www.OpenFOAM.org                      |
|    \\/     M anipulation  |                                                 |
\*---------------------------------------------------------------------------*/
FoamFile
{
    version     2.0;
    format      ascii;
    class       volScalarField;
    location    "3.5";
    object      alpha1;
}
// * * * * * * * * * * * * * * * * * * * * * * * * * * * * * * * * * * * * * //

dimensions      [0 0 0 0 0 0 0];

internalField   nonuniform List<scalar> 
8000
(
1
1
1
0.999999
0.999998
0.999999
1.00001
1.00001
1.00001
1.00001
1
1
0.999999
0.999997
0.999997
0.999996
0.999996
0.999998
0.999996
0.999995
0.999995
0.999996
0.999996
0.999996
0.999996
0.999997
0.999997
0.999997
0.999997
0.999997
0.999998
0.999998
0.999962
0.999799
0.962809
0.854269
0.687587
0.405789
0.132408
0.0333854
0.00941912
0.00268731
0.000704681
0.000198981
7.43612e-05
3.7507e-05
2.19072e-05
1.30709e-05
7.32779e-06
2.72007e-06
1
1
1
0.999999
0.999997
0.999998
1.00001
1
1.00001
1
1
0.999998
0.999997
0.999997
0.999996
0.999996
0.999996
0.999995
0.999995
0.999995
0.999995
0.999995
0.999995
0.999996
0.999996
0.999996
0.999997
0.999997
0.999997
0.999995
0.999843
0.983834
0.855285
0.652707
0.365243
0.124137
0.0359627
0.0119037
0.0039123
0.00117988
0.000361705
0.000109754
3.29876e-05
1.25516e-05
5.58501e-06
5.14291e-06
4.08991e-06
3.13235e-06
2.46208e-06
2.50575e-06
1
1
1
0.999998
0.999996
0.999997
1
1
1
1
0.999998
0.999997
0.999996
0.999996
0.999995
0.999995
0.999995
0.999995
0.999995
0.999995
0.999995
0.999995
0.999995
0.999996
0.999996
0.999996
0.999997
0.999997
0.999713
0.951236
0.708602
0.364406
0.124025
0.0388667
0.0132028
0.00388568
0.00104772
0.000314349
9.82999e-05
2.44086e-05
6.95189e-06
3.72313e-06
2.54494e-06
2.21299e-06
2.80534e-06
2.68142e-06
2.35768e-06
1.98715e-06
1.6619e-06
1.44227e-06
1
1
1
0.999998
0.999996
0.999996
0.999997
0.999999
0.999999
0.999998
0.999997
0.999996
0.999996
0.999995
0.999995
0.999995
0.999995
0.999995
0.999995
0.999995
0.999995
0.999995
0.999995
0.999995
0.999996
0.999996
0.999794
0.962926
0.594016
0.240563
0.0591645
0.0109566
0.00334285
0.000979192
0.000225906
5.07626e-05
1.11328e-05
4.42306e-06
3.33529e-06
2.46452e-06
2.16888e-06
1.88974e-06
1.63599e-06
1.45249e-06
1.27176e-06
1.10665e-06
9.63626e-07
8.27923e-07
7.18312e-07
6.30491e-07
1
1
0.999999
0.999998
0.999996
0.999996
0.999996
0.999997
0.999998
0.999998
0.999996
0.999996
0.999995
0.999995
0.999994
0.999995
0.999995
0.999995
0.999995
0.999995
0.999995
0.999995
0.999995
0.999995
0.999947
0.998906
0.650713
0.174734
0.0229002
0.00366726
0.000987795
0.000182828
3.1081e-05
8.64258e-06
4.02244e-06
2.34625e-06
1.90339e-06
1.69068e-06
1.40468e-06
1.20262e-06
1.02571e-06
8.68142e-07
7.45778e-07
6.47382e-07
5.61039e-07
4.88026e-07
4.2771e-07
3.75887e-07
3.31638e-07
2.93956e-07
1
1
0.999999
0.999998
0.999997
0.999997
0.999996
0.999996
0.999997
0.999997
0.999996
0.999995
0.999995
0.999994
0.999994
0.999995
0.999995
0.999995
0.999995
0.999995
0.999996
0.999995
0.999995
0.999589
0.823371
0.233289
0.0185849
0.00183196
0.000316796
4.90068e-05
8.5268e-06
3.67541e-06
2.14987e-06
1.67542e-06
1.42645e-06
1.19497e-06
1.02066e-06
8.52745e-07
7.03401e-07
5.86472e-07
4.92139e-07
4.1433e-07
3.51965e-07
3.03662e-07
2.63909e-07
2.30586e-07
2.02318e-07
1.78126e-07
1.5728e-07
1.39217e-07
1
1
0.999999
0.999998
0.999997
0.999997
0.999996
0.999996
0.999996
0.999997
0.999996
0.999995
0.999995
0.999994
0.999994
0.999995
0.999995
0.999995
0.999995
0.999995
0.999996
0.999994
0.99854
0.498971
0.0394803
0.00200411
0.000197057
2.27313e-05
4.13448e-06
2.369e-06
1.66365e-06
1.39059e-06
1.09886e-06
8.82039e-07
7.16231e-07
5.84319e-07
4.81288e-07
3.94876e-07
3.21378e-07
2.65738e-07
2.23834e-07
1.89899e-07
1.62048e-07
1.39031e-07
1.19846e-07
1.03715e-07
9.00484e-08
7.83996e-08
6.84223e-08
5.98432e-08
1
1
0.999999
0.999998
0.999998
0.999998
0.999996
0.999996
0.999996
0.999996
0.999996
0.999995
0.999995
0.999995
0.999995
0.999995
0.999995
0.999995
0.999995
0.999995
0.999967
0.934329
0.2349
0.00666948
0.000285841
1.98063e-05
3.47232e-06
1.95174e-06
1.51705e-06
1.13784e-06
8.60389e-07
6.59501e-07
5.11348e-07
4.0314e-07
3.17613e-07
2.52247e-07
1.99398e-07
1.62184e-07
1.33618e-07
1.1099e-07
9.28292e-08
7.80743e-08
6.59597e-08
5.59323e-08
4.75815e-08
4.05937e-08
3.47232e-08
2.97746e-08
2.55905e-08
2.20434e-08
1
1
0.999999
0.999997
0.999997
0.999997
0.999997
0.999996
0.999996
0.999996
0.999996
0.999995
0.999995
0.999995
0.999995
0.999995
0.999995
0.999995
0.999995
0.999943
0.854603
0.108531
0.00155793
4.72729e-05
3.97605e-06
1.93777e-06
1.32019e-06
9.40784e-07
6.80012e-07
4.98656e-07
3.68908e-07
2.75046e-07
2.07257e-07
1.59194e-07
1.20182e-07
9.4614e-08
7.57178e-08
6.11787e-08
4.97918e-08
4.07639e-08
3.35387e-08
2.77129e-08
2.2987e-08
1.91337e-08
1.59784e-08
1.33846e-08
1.12454e-08
9.47601e-09
8.00883e-09
6.7898e-09
1
1
0.999999
0.999997
0.999996
0.999996
0.999997
0.999996
0.999996
0.999996
0.999996
0.999996
0.999995
0.999995
0.999995
0.999995
0.999995
0.999995
0.999966
0.846662
0.0739691
0.000600888
1.26805e-05
2.45502e-06
1.40715e-06
8.70266e-07
5.73168e-07
3.90446e-07
2.73686e-07
1.9475e-07
1.38512e-07
9.84644e-08
7.02089e-08
5.31568e-08
4.1048e-08
3.20528e-08
2.52324e-08
1.9994e-08
1.59326e-08
1.27602e-08
1.02668e-08
8.29649e-09
6.7323e-09
5.48555e-09
4.4885e-09
3.68909e-09
3.04705e-09
2.53117e-09
2.11712e-09
1.78598e-09
1
1
0.999999
0.999996
0.999996
0.999996
0.999998
0.999996
0.999996
0.999996
0.999996
0.999996
0.999996
0.999996
0.999996
0.999996
0.999996
0.999996
0.937183
0.0983873
0.000410677
6.14583e-06
2.06886e-06
1.01407e-06
5.92112e-07
3.62145e-07
2.28769e-07
1.46783e-07
9.71601e-08
6.52312e-08
4.35228e-08
3.06427e-08
2.22104e-08
1.64282e-08
1.23282e-08
9.35057e-09
7.15174e-09
5.50853e-09
4.26958e-09
3.32899e-09
2.6111e-09
2.06106e-09
1.63867e-09
1.31427e-09
1.06586e-09
8.77089e-10
7.35812e-10
6.33077e-10
5.62369e-10
5.19081e-10
1
1
0.999998
0.999996
0.999995
0.999996
0.999998
0.999997
0.999996
0.999997
0.999997
0.999997
0.999996
0.999996
0.999996
0.999996
0.999996
0.998893
0.25004
0.000854519
5.93178e-06
1.89316e-06
8.14264e-07
4.20247e-07
2.39195e-07
1.40004e-07
8.25478e-08
4.73685e-08
2.88596e-08
1.89248e-08
1.2788e-08
8.83192e-09
6.20526e-09
4.42146e-09
3.18837e-09
2.32374e-09
1.7105e-09
1.27172e-09
9.55897e-10
7.28049e-10
5.64156e-10
4.47597e-10
3.66848e-10
3.13951e-10
2.83503e-10
2.71969e-10
2.77223e-10
2.98244e-10
3.3492e-10
3.87934e-10
1
1
0.999998
0.999995
0.999994
0.999996
0.999999
0.999997
0.999997
0.999997
0.999997
0.999997
0.999997
0.999996
0.999996
0.999995
0.999912
0.629308
0.0042159
7.1631e-06
1.66064e-06
6.55491e-07
2.97413e-07
1.52606e-07
8.23206e-08
4.38225e-08
2.29839e-08
1.27204e-08
7.56714e-09
4.72687e-09
3.04876e-09
2.01166e-09
1.35132e-09
9.22039e-10
6.38904e-10
4.5058e-10
3.2521e-10
2.42679e-10
1.90156e-10
1.59452e-10
1.45409e-10
1.44907e-10
1.56242e-10
1.78738e-10
2.12514e-10
2.58349e-10
3.17619e-10
3.92282e-10
4.84918e-10
5.98796e-10
1
1
0.999998
0.999995
0.999993
0.999996
1
0.999998
0.999997
0.999998
0.999998
0.999997
0.999997
0.999997
0.999996
0.999996
0.998549
0.114588
3.40453e-05
2.00127e-06
5.85484e-07
2.34333e-07
1.04954e-07
4.94845e-08
2.41163e-08
1.07259e-08
5.35319e-09
2.92385e-09
1.66028e-09
9.73751e-10
5.87548e-10
3.64211e-10
2.32607e-10
1.54642e-10
1.09335e-10
8.49169e-11
7.4749e-11
7.51699e-11
8.43125e-11
1.01451e-10
1.26635e-10
1.60493e-10
2.04134e-10
2.59115e-10
3.27453e-10
4.11671e-10
5.14884e-10
6.40897e-10
7.94368e-10
9.80992e-10
1
1
0.999998
0.999994
0.999993
0.999996
1
0.999998
0.999998
0.999998
0.999998
0.999998
0.999997
0.999996
0.999993
0.999976
0.716636
0.0013245
1.57194e-06
6.31921e-07
2.04083e-07
8.96611e-08
3.96946e-08
1.44029e-08
5.76322e-09
2.14167e-09
9.39404e-10
4.57036e-10
2.38317e-10
1.30943e-10
7.64246e-11
4.92388e-11
3.73822e-11
3.5065e-11
3.95752e-11
4.98213e-11
6.56275e-11
8.73869e-11
1.15895e-10
1.52281e-10
1.97992e-10
2.54818e-10
3.2494e-10
4.11001e-10
5.16206e-10
6.44453e-10
8.00492e-10
9.90088e-10
1.22033e-09
1.49994e-09
1
1
0.999997
0.999993
0.999993
0.999997
1
0.999999
0.999998
0.999998
0.999998
0.999998
0.999997
0.999996
0.999985
0.999948
0.390292
1.08229e-05
7.49988e-07
2.66601e-07
1.20033e-07
7.01887e-08
3.06097e-08
7.01131e-09
2.12678e-09
5.67785e-10
1.53282e-10
5.32501e-11
2.50522e-11
1.63634e-11
1.55537e-11
1.94537e-11
2.72188e-11
3.89015e-11
5.49895e-11
7.62423e-11
1.03639e-10
1.38374e-10
1.81877e-10
2.35853e-10
3.02342e-10
3.83787e-10
4.83132e-10
6.0397e-10
7.50637e-10
9.28444e-10
1.14388e-09
1.40477e-09
1.72092e-09
2.10442e-09
1
1
0.999997
0.999994
0.999994
0.999997
0.999999
0.999999
0.999999
0.999999
0.999998
0.999998
0.999998
0.999996
0.999987
1
0.309427
1.38975e-06
4.71419e-07
2.26777e-07
1.50452e-07
9.98014e-08
4.18992e-08
7.9634e-09
2.09398e-09
4.63496e-10
8.07952e-11
1.61618e-11
9.13842e-12
1.24014e-11
1.93348e-11
2.95197e-11
4.35052e-11
6.20723e-11
8.61391e-11
1.16768e-10
1.55198e-10
2.02885e-10
2.6155e-10
3.33235e-10
4.2038e-10
5.25917e-10
6.53383e-10
8.07058e-10
9.92143e-10
1.21498e-09
1.48334e-09
1.80677e-09
2.19706e-09
2.66883e-09
1
1
0.999997
0.999994
0.999995
0.999998
0.999999
0.999999
0.999999
0.999999
0.999999
0.999998
0.999998
0.999997
0.999994
1
0.40975
6.84754e-06
9.16326e-07
4.5779e-07
2.85735e-07
1.80141e-07
7.61531e-08
1.48115e-08
3.63006e-09
8.07619e-10
1.45517e-10
2.82222e-11
1.44696e-11
1.9324e-11
2.95967e-11
4.40106e-11
6.30927e-11
8.76799e-11
1.18742e-10
1.57391e-10
2.04925e-10
2.62871e-10
3.3303e-10
4.17536e-10
5.18936e-10
6.40283e-10
7.85248e-10
9.58256e-10
1.16467e-09
1.41099e-09
1.70516e-09
2.05689e-09
2.47812e-09
2.98359e-09
1
0.999999
0.999997
0.999995
0.999997
0.999999
0.999999
0.999999
0.999999
0.999999
0.999999
0.999999
0.999998
0.999998
0.999996
1
0.776018
0.0103171
9.73068e-06
1.61873e-06
6.91345e-07
3.9953e-07
1.78625e-07
3.7805e-08
8.45308e-09
1.90876e-09
3.58733e-10
6.56304e-11
2.35093e-11
2.62474e-11
3.88022e-11
5.65447e-11
7.95322e-11
1.08501e-10
1.44351e-10
1.88119e-10
2.4102e-10
3.04487e-10
3.80202e-10
4.70144e-10
5.76659e-10
7.02539e-10
8.51115e-10
1.02637e-09
1.23308e-09
1.47699e-09
1.76504e-09
2.1056e-09
2.50886e-09
2.98725e-09
1
0.999999
0.999997
0.999997
0.999998
0.999999
0.999999
0.999999
0.999999
0.999999
0.999999
0.999999
0.999999
0.999998
0.999997
0.999999
0.999958
0.454526
0.0115065
7.63488e-05
1.93135e-06
1.08636e-06
5.26902e-07
1.24501e-07
2.42132e-08
5.40806e-09
1.03755e-09
1.78835e-10
4.15189e-11
3.19576e-11
4.48498e-11
6.47728e-11
9.02813e-11
1.21826e-10
1.6015e-10
2.06127e-10
2.60788e-10
3.25371e-10
4.01306e-10
4.90247e-10
5.94138e-10
7.15266e-10
8.56316e-10
1.02046e-09
1.21144e-09
1.4337e-09
1.69248e-09
1.99401e-09
2.34571e-09
2.75642e-09
3.1464e-06
3.31565e-06
3.33e-06
3.28512e-06
3.64404e-06
3.45829e-06
3.018e-06
2.61172e-06
2.17785e-06
1.74565e-06
1.36745e-06
1.06949e-06
8.49822e-07
6.92929e-07
5.81259e-07
5.00362e-07
4.3994e-07
3.93171e-07
3.55691e-07
3.24718e-07
2.98462e-07
2.75743e-07
2.55759e-07
2.37951e-07
2.21917e-07
2.0736e-07
1.94056e-07
1.81832e-07
1.70551e-07
1.60104e-07
1.50402e-07
1.41372e-07
1.3295e-07
1.25085e-07
1.1773e-07
1.10846e-07
1.04397e-07
9.83524e-08
9.26832e-08
8.73642e-08
8.23721e-08
7.76856e-08
7.32851e-08
6.91527e-08
6.52714e-08
6.16259e-08
5.82016e-08
5.49851e-08
5.19638e-08
4.91258e-08
2.74098e-06
2.76853e-06
2.60887e-06
2.34221e-06
1.96253e-06
1.66674e-06
1.3987e-06
1.15741e-06
9.5475e-07
7.93269e-07
6.6821e-07
5.72093e-07
4.97628e-07
4.38921e-07
3.91632e-07
3.52704e-07
3.20012e-07
2.92075e-07
2.67846e-07
2.46571e-07
2.27698e-07
2.10813e-07
1.956e-07
1.81811e-07
1.69254e-07
1.5777e-07
1.47233e-07
1.37536e-07
1.2859e-07
1.2032e-07
1.12663e-07
1.05561e-07
9.89673e-08
9.28378e-08
8.71348e-08
8.18245e-08
7.68766e-08
7.22637e-08
6.79611e-08
6.39461e-08
6.01983e-08
5.6699e-08
5.3431e-08
5.03784e-08
4.75267e-08
4.48626e-08
4.23737e-08
4.00485e-08
3.78764e-08
3.58478e-08
1.25685e-06
1.1202e-06
1.00943e-06
9.06537e-07
8.04085e-07
7.08193e-07
6.22157e-07
5.46603e-07
4.81302e-07
4.2554e-07
3.78217e-07
3.38062e-07
3.03837e-07
2.74461e-07
2.49038e-07
2.26853e-07
2.0734e-07
1.90057e-07
1.74651e-07
1.60843e-07
1.48409e-07
1.37164e-07
1.2696e-07
1.17672e-07
1.09194e-07
1.01438e-07
9.43281e-08
8.77996e-08
8.17957e-08
7.62667e-08
7.11692e-08
6.64649e-08
6.21195e-08
5.81026e-08
5.4387e-08
5.09482e-08
4.77642e-08
4.4815e-08
4.20827e-08
3.95509e-08
3.72048e-08
3.50309e-08
3.30168e-08
3.11514e-08
2.94244e-08
2.78263e-08
2.63485e-08
2.49833e-08
2.37232e-08
2.25616e-08
5.56574e-07
4.94712e-07
4.42169e-07
3.97361e-07
3.58303e-07
3.23613e-07
2.92555e-07
2.64705e-07
2.39744e-07
2.17387e-07
1.97371e-07
1.79452e-07
1.634e-07
1.49009e-07
1.3609e-07
1.24475e-07
1.14015e-07
1.04576e-07
9.60455e-08
8.8321e-08
8.13149e-08
7.49503e-08
6.91602e-08
6.38856e-08
5.90747e-08
5.46821e-08
5.06674e-08
4.69949e-08
4.36332e-08
4.05539e-08
3.77321e-08
3.51452e-08
3.27734e-08
3.05985e-08
2.86046e-08
2.67771e-08
2.51033e-08
2.35713e-08
2.21707e-08
2.08921e-08
1.9727e-08
1.86678e-08
1.77075e-08
1.684e-08
1.60594e-08
1.53607e-08
1.47392e-08
1.41905e-08
1.37107e-08
1.3296e-08
2.61588e-07
2.33569e-07
2.09162e-07
1.87791e-07
1.68996e-07
1.52402e-07
1.37694e-07
1.24609e-07
1.12931e-07
1.02479e-07
9.31019e-08
8.4674e-08
7.70873e-08
7.02491e-08
6.40787e-08
5.85058e-08
5.34684e-08
4.89116e-08
4.47868e-08
4.1051e-08
3.76656e-08
3.45964e-08
3.1813e-08
2.92881e-08
2.69974e-08
2.49194e-08
2.30347e-08
2.13263e-08
1.9779e-08
1.83791e-08
1.71148e-08
1.59752e-08
1.49512e-08
1.40343e-08
1.32173e-08
1.24938e-08
1.1858e-08
1.13051e-08
1.08307e-08
1.04311e-08
1.0103e-08
9.84332e-09
9.64966e-09
9.51968e-09
9.45131e-09
9.44263e-09
9.49186e-09
9.59723e-09
9.75702e-09
9.96943e-09
1.23498e-07
1.09769e-07
9.77396e-08
8.7171e-08
7.78635e-08
6.96493e-08
6.23863e-08
5.59534e-08
5.02472e-08
4.51786e-08
4.0671e-08
3.66577e-08
3.3081e-08
2.98905e-08
2.70425e-08
2.44985e-08
2.22251e-08
2.01928e-08
1.83758e-08
1.67518e-08
1.53011e-08
1.40063e-08
1.28525e-08
1.18267e-08
1.09176e-08
1.01156e-08
9.41217e-09
8.8004e-09
8.27433e-09
7.82903e-09
7.46043e-09
7.16526e-09
6.94092e-09
6.78541e-09
6.69723e-09
6.67533e-09
6.71902e-09
6.82791e-09
7.00186e-09
7.24093e-09
7.54529e-09
7.91518e-09
8.35087e-09
8.85253e-09
9.42023e-09
1.00538e-08
1.07528e-08
1.15165e-08
1.23437e-08
1.32329e-08
5.24425e-08
4.6041e-08
4.04907e-08
3.56687e-08
3.14716e-08
2.78125e-08
2.46178e-08
2.18249e-08
1.93806e-08
1.72393e-08
1.53621e-08
1.37156e-08
1.22712e-08
1.10043e-08
9.89406e-09
8.92236e-09
8.07389e-09
7.33563e-09
6.69659e-09
6.14761e-09
5.68112e-09
5.291e-09
4.97247e-09
4.72193e-09
4.53687e-09
4.41574e-09
4.35791e-09
4.3635e-09
4.4333e-09
4.56868e-09
4.77146e-09
5.0438e-09
5.38815e-09
5.80711e-09
6.30343e-09
6.87992e-09
7.53943e-09
8.28476e-09
9.11855e-09
1.00434e-08
1.10617e-08
1.21757e-08
1.33875e-08
1.46985e-08
1.61093e-08
1.76199e-08
1.9229e-08
2.09344e-08
2.27327e-08
2.462e-08
1.90291e-08
1.64621e-08
1.4272e-08
1.24004e-08
1.07989e-08
9.42725e-09
8.25173e-09
7.24427e-09
6.38142e-09
5.64358e-09
5.01441e-09
4.48037e-09
4.0303e-09
3.65509e-09
3.34746e-09
3.10172e-09
2.91364e-09
2.78032e-09
2.7001e-09
2.67249e-09
2.69816e-09
2.77881e-09
2.91721e-09
3.1171e-09
3.3831e-09
3.72063e-09
4.13574e-09
4.63497e-09
5.22516e-09
5.91323e-09
6.70606e-09
7.61031e-09
8.63239e-09
9.77838e-09
1.10541e-08
1.2465e-08
1.40164e-08
1.57128e-08
1.75583e-08
1.95573e-08
2.17147e-08
2.40355e-08
2.65231e-08
2.91794e-08
3.20032e-08
3.49903e-08
3.81327e-08
4.14201e-08
4.48413e-08
4.83843e-08
5.77546e-09
4.93073e-09
4.22723e-09
3.64202e-09
3.1565e-09
2.75566e-09
2.42742e-09
2.16216e-09
1.95232e-09
1.79211e-09
1.67728e-09
1.60496e-09
1.57353e-09
1.58259e-09
1.63289e-09
1.72634e-09
1.86607e-09
2.05644e-09
2.30312e-09
2.61314e-09
2.99493e-09
3.45831e-09
4.01441e-09
4.67555e-09
5.45494e-09
6.36641e-09
7.4239e-09
8.64111e-09
1.0031e-08
1.16054e-08
1.33751e-08
1.53495e-08
1.75371e-08
1.99453e-08
2.25815e-08
2.54524e-08
2.85642e-08
3.19209e-08
3.55277e-08
3.93974e-08
4.35499e-08
4.80003e-08
5.27534e-08
5.78046e-08
6.31379e-08
6.87264e-08
7.45298e-08
8.05098e-08
8.66391e-08
9.2894e-08
1.523e-09
1.31675e-09
1.15845e-09
1.04145e-09
9.60887e-10
9.1337e-10
8.96806e-10
9.10253e-10
9.53853e-10
1.02879e-09
1.13733e-09
1.28283e-09
1.46989e-09
1.70449e-09
1.9941e-09
2.34796e-09
2.77725e-09
3.29533e-09
3.9179e-09
4.66311e-09
5.55155e-09
6.60601e-09
7.85104e-09
9.31226e-09
1.10154e-08
1.29851e-08
1.5244e-08
1.78115e-08
2.07034e-08
2.39319e-08
2.7506e-08
3.14328e-08
3.57183e-08
4.03691e-08
4.53928e-08
5.07981e-08
5.65915e-08
6.27731e-08
6.93717e-08
7.64881e-08
8.42176e-08
9.25827e-08
1.01533e-07
1.10994e-07
1.20864e-07
1.31019e-07
1.41292e-07
1.51597e-07
1.61945e-07
1.72337e-07
5.00124e-10
5.03663e-10
5.28934e-10
5.76125e-10
6.46328e-10
7.41531e-10
8.64655e-10
1.01964e-09
1.2116e-09
1.44695e-09
1.73371e-09
2.08178e-09
2.50327e-09
3.01298e-09
3.62883e-09
4.37235e-09
5.2692e-09
6.34943e-09
7.64772e-09
9.20315e-09
1.10586e-08
1.32593e-08
1.5851e-08
1.88776e-08
2.23781e-08
2.63837e-08
3.09166e-08
3.59891e-08
4.16051e-08
4.77628e-08
5.44584e-08
6.169e-08
6.94607e-08
7.77814e-08
8.66703e-08
9.61517e-08
1.06239e-07
1.16953e-07
1.28594e-07
1.41896e-07
1.56962e-07
1.73383e-07
1.90609e-07
2.0827e-07
2.25988e-07
2.43446e-07
2.601e-07
2.76182e-07
2.92241e-07
3.08214e-07
4.58712e-10
5.49419e-10
6.63005e-10
8.03287e-10
9.75093e-10
1.18443e-09
1.43875e-09
1.74723e-09
2.12119e-09
2.57458e-09
3.12455e-09
3.79221e-09
4.60347e-09
5.58996e-09
6.78998e-09
8.24942e-09
1.00225e-08
1.21717e-08
1.47672e-08
1.78852e-08
2.16044e-08
2.60012e-08
3.11434e-08
3.70836e-08
4.38537e-08
5.1462e-08
5.98946e-08
6.91221e-08
7.91091e-08
8.98253e-08
1.01254e-07
1.134e-07
1.26292e-07
1.39986e-07
1.54559e-07
1.70127e-07
1.8677e-07
2.04937e-07
2.27031e-07
2.56826e-07
2.904e-07
3.23622e-07
3.55003e-07
3.84483e-07
4.11705e-07
4.3667e-07
4.57885e-07
4.7943e-07
5.02852e-07
5.24347e-07
7.37984e-10
9.07516e-10
1.11357e-09
1.36375e-09
1.66743e-09
2.03617e-09
2.48425e-09
3.02942e-09
3.69374e-09
4.50456e-09
5.49589e-09
6.70998e-09
8.19898e-09
1.00267e-08
1.227e-08
1.50205e-08
1.83839e-08
2.24786e-08
2.74309e-08
3.33681e-08
4.04067e-08
4.86391e-08
5.81193e-08
6.88521e-08
8.07909e-08
9.38468e-08
1.0791e-07
1.22878e-07
1.3868e-07
1.55294e-07
1.72753e-07
1.91146e-07
2.10626e-07
2.31415e-07
2.5382e-07
2.78508e-07
3.06114e-07
3.41039e-07
3.983e-07
4.83175e-07
5.57961e-07
6.05391e-07
6.40466e-07
6.7058e-07
6.96263e-07
7.1938e-07
7.36788e-07
7.74932e-07
8.0733e-07
8.4581e-07
1.20776e-09
1.48329e-09
1.81817e-09
2.22548e-09
2.7216e-09
3.32684e-09
4.06664e-09
4.97304e-09
6.08629e-09
7.4567e-09
9.14752e-09
1.12378e-08
1.3825e-08
1.70279e-08
2.0988e-08
2.58693e-08
3.18549e-08
3.91364e-08
4.79007e-08
5.83067e-08
7.04586e-08
8.43794e-08
9.99941e-08
1.17132e-07
1.35555e-07
1.55016e-07
1.7532e-07
1.9637e-07
2.18184e-07
2.40878e-07
2.64657e-07
2.89858e-07
3.1698e-07
3.4673e-07
3.80386e-07
4.21808e-07
4.75718e-07
5.69841e-07
7.79975e-07
9.4816e-07
1.06101e-06
1.01494e-06
9.89335e-07
9.90489e-07
9.98962e-07
1.02174e-06
1.07702e-06
1.23605e-06
1.16101e-06
2.13952e-06
1.8397e-09
2.25311e-09
2.75672e-09
3.37124e-09
4.12305e-09
5.04505e-09
6.17903e-09
7.57812e-09
9.30971e-09
1.14585e-08
1.41316e-08
1.74627e-08
2.16151e-08
2.67848e-08
3.31987e-08
4.11087e-08
5.07753e-08
6.24407e-08
7.62939e-08
9.24244e-08
1.1078e-07
1.31147e-07
1.53164e-07
1.76393e-07
2.00427e-07
2.25003e-07
2.50074e-07
2.75725e-07
3.02171e-07
3.29736e-07
3.58956e-07
3.90776e-07
4.26575e-07
4.68548e-07
5.22457e-07
6.05099e-07
7.48197e-07
1.06697e-06
1.79752e-06
2.00889e-06
1.50977e-06
1.1906e-06
1.12662e-06
1.17401e-06
1.18828e-06
1.39566e-06
1.83324e-06
2.23448e-06
2.4884e-06
2.13678e-06
2.57037e-09
3.13778e-09
3.83008e-09
4.67697e-09
5.71658e-09
6.99691e-09
8.57951e-09
1.05431e-08
1.29878e-08
1.60401e-08
1.98594e-08
2.46418e-08
3.06227e-08
3.80753e-08
4.73001e-08
5.86032e-08
7.22593e-08
8.84593e-08
1.07252e-07
1.2849e-07
1.51817e-07
1.76703e-07
2.02568e-07
2.28931e-07
2.55539e-07
2.8238e-07
3.09576e-07
3.37275e-07
3.65733e-07
3.95666e-07
4.28598e-07
4.66817e-07
5.13467e-07
5.75301e-07
6.69717e-07
8.44142e-07
1.30721e-06
3.31163e-06
3.41253e-06
1.66764e-06
1.10207e-06
1.01154e-06
1.16376e-06
1.48085e-06
2.42263e-06
3.71581e-06
3.80083e-06
3.79467e-06
1.7804e-06
1.19789e-06
3.24034e-09
3.93446e-09
4.78005e-09
5.81368e-09
7.08189e-09
8.64416e-09
1.05765e-08
1.29761e-08
1.59665e-08
1.97031e-08
2.43785e-08
3.02255e-08
3.75163e-08
4.65529e-08
5.76462e-08
7.10796e-08
8.70567e-08
1.0564e-07
1.26696e-07
1.49878e-07
1.74667e-07
2.00481e-07
2.26825e-07
2.53389e-07
2.80027e-07
3.06623e-07
3.33007e-07
3.59164e-07
3.85758e-07
4.14602e-07
4.4852e-07
4.9064e-07
5.4387e-07
6.0884e-07
6.82975e-07
8.50542e-07
3.25743e-06
4.5006e-06
2.22698e-06
8.01861e-07
7.81444e-07
8.38853e-07
2.7832e-06
5.00466e-06
4.98945e-06
3.33285e-06
8.31578e-07
7.26929e-07
7.37115e-07
7.67385e-07
3.59164e-09
4.32516e-09
5.21289e-09
6.29117e-09
7.60605e-09
9.21612e-09
1.1196e-08
1.36406e-08
1.66696e-08
2.04326e-08
2.5113e-08
3.093e-08
3.81351e-08
4.70015e-08
5.7802e-08
7.07735e-08
8.60707e-08
1.03717e-07
1.23572e-07
1.45325e-07
1.68552e-07
1.92791e-07
2.17622e-07
2.42675e-07
2.67566e-07
2.91849e-07
3.15152e-07
3.37586e-07
3.60245e-07
3.85454e-07
4.16403e-07
4.55837e-07
5.03441e-07
5.55095e-07
6.25094e-07
8.30563e-07
3.0711e-06
4.50929e-06
1.10253e-06
6.04344e-07
6.11714e-07
2.21627e-06
4.92917e-06
4.88413e-06
1.73395e-06
6.46798e-07
6.48997e-07
6.5251e-07
1.01179e-06
1.72682e-06
3.55604e-09
4.23405e-09
5.04461e-09
6.01685e-09
7.18723e-09
8.60166e-09
1.03179e-08
1.24089e-08
1.49658e-08
1.81021e-08
2.19568e-08
2.66963e-08
3.25137e-08
3.96228e-08
4.82458e-08
5.85918e-08
7.08282e-08
8.50474e-08
1.0124e-07
1.19281e-07
1.38941e-07
1.59916e-07
1.8185e-07
2.04348e-07
2.26968e-07
2.49258e-07
2.70894e-07
2.9192e-07
3.1294e-07
3.35018e-07
3.59311e-07
3.87222e-07
4.21879e-07
4.66144e-07
5.07394e-07
5.26924e-07
1.77873e-06
2.98919e-06
6.05621e-07
6.03043e-07
6.03773e-07
7.20851e-07
2.76437e-06
4.69335e-06
7.18379e-07
6.34495e-07
6.36672e-07
9.15527e-07
2.38564e-06
1.59739e-06
3.23673e-09
3.79938e-09
4.45977e-09
5.2366e-09
6.15269e-09
7.23601e-09
8.52098e-09
1.00501e-08
1.18756e-08
1.40621e-08
1.66882e-08
1.98495e-08
2.36591e-08
2.82488e-08
3.37666e-08
4.03711e-08
4.8222e-08
5.74658e-08
6.8218e-08
8.05454e-08
9.44522e-08
1.09875e-07
1.26691e-07
1.44733e-07
1.63815e-07
1.83771e-07
2.04511e-07
2.26121e-07
2.49e-07
2.73992e-07
3.02482e-07
3.36513e-07
3.79039e-07
4.33837e-07
5.02685e-07
5.74993e-07
6.20117e-07
7.14384e-07
1.00382e-06
6.09424e-07
6.0054e-07
6.54806e-07
7.36679e-07
1.49287e-06
1.42912e-06
6.35912e-07
6.42345e-07
1.14794e-06
2.40036e-06
2.011e-06
4.76646e-08
4.62444e-08
4.48644e-08
4.35238e-08
4.22217e-08
4.09574e-08
3.973e-08
3.85388e-08
3.7383e-08
3.62618e-08
3.51744e-08
3.41202e-08
3.30983e-08
3.21081e-08
3.11489e-08
3.02199e-08
2.93205e-08
2.845e-08
2.76078e-08
2.67932e-08
2.60055e-08
2.52442e-08
2.45085e-08
2.3798e-08
2.31119e-08
2.24497e-08
2.18107e-08
2.11944e-08
2.06002e-08
2.00275e-08
1.94758e-08
1.89443e-08
1.84327e-08
1.79402e-08
1.74665e-08
1.70108e-08
1.65728e-08
1.61517e-08
1.57472e-08
1.53585e-08
1.49853e-08
1.4627e-08
1.42831e-08
1.39529e-08
1.36361e-08
1.33321e-08
1.30404e-08
1.27604e-08
1.24917e-08
1.22338e-08
1.19861e-08
1.17482e-08
1.15196e-08
1.12998e-08
1.10884e-08
1.08849e-08
1.06889e-08
1.04999e-08
1.03176e-08
1.01415e-08
9.97123e-09
9.80648e-09
9.64691e-09
9.49221e-09
9.34209e-09
9.19631e-09
9.05465e-09
8.91695e-09
8.78308e-09
8.65296e-09
8.52657e-09
8.40399e-09
8.28534e-09
8.17088e-09
8.06097e-09
7.95616e-09
7.85717e-09
7.76498e-09
7.68092e-09
7.60675e-09
7.54477e-09
7.49808e-09
7.47078e-09
7.46839e-09
7.49838e-09
7.57097e-09
7.70025e-09
7.90568e-09
8.21419e-09
8.66263e-09
9.301e-09
1.01963e-08
1.14378e-08
1.31426e-08
1.54621e-08
1.85825e-08
2.26929e-08
2.78123e-08
3.42093e-08
4.26027e-08
5.42482e-08
6.89969e-08
9.47398e-08
1.33534e-07
1.83475e-07
2.53217e-07
3.39945e-07
4.4019e-07
5.48609e-07
5.75688e-07
9.7841e-07
9.62441e-07
7.44483e-07
6.76354e-07
5.81214e-07
5.07731e-07
4.46186e-07
3.82773e-07
3.18884e-07
2.52458e-07
1.90104e-07
1.36491e-07
9.37417e-08
6.17814e-08
3.91829e-08
2.39705e-08
1.4173e-08
8.11301e-09
4.50274e-09
2.42618e-09
1.27085e-09
6.4803e-10
3.22189e-10
1.56464e-10
7.43662e-11
3.46678e-11
1.58866e-11
7.17185e-12
3.19614e-12
1.40876e-12
6.15202e-13
2.66597e-13
1.14808e-13
4.91952e-14
2.09995e-14
8.93895e-15
3.79845e-15
1.6131e-15
6.85507e-16
2.91944e-16
1.24802e-16
5.36412e-17
2.32176e-17
1.01338e-17
4.46542e-18
1.98827e-18
8.95281e-19
4.07969e-19
1.88272e-19
8.80475e-20
4.17476e-20
2.00757e-20
9.79422e-21
4.84818e-21
2.43493e-21
1.24086e-21
6.41575e-22
3.36612e-22
1.79138e-22
9.66697e-23
5.28708e-23
2.9305e-23
1.64515e-23
9.35428e-24
5.38601e-24
3.14359e-24
1.85497e-24
1.10553e-24
6.65519e-25
4.04708e-25
2.48629e-25
1.54323e-25
9.67871e-26
6.13413e-26
3.92892e-26
2.54339e-26
1.6642e-26
1.10073e-26
7.35986e-27
4.97501e-27
3.39999e-27
2.34931e-27
1.64133e-27
1.15946e-27
8.28181e-28
5.98133e-28
4.36786e-28
3.22499e-28
2.4075e-28
1.81709e-28
1.3866e-28
1.06977e-28
8.34443e-29
6.58071e-29
5.24723e-29
4.23043e-29
3.44874e-29
2.84311e-29
2.37043e-29
1.99896e-29
1.70516e-29
1.47143e-29
1.28451e-29
1.13439e-29
1.01343e-29
9.15836e-30
8.3714e-30
7.73922e-30
7.23533e-30
6.83927e-30
6.5353e-30
6.31157e-30
6.15964e-30
6.07412e-30
6.05244e-30
6.09476e-30
6.20388e-30
6.38518e-30
6.64661e-30
6.99862e-30
7.45411e-30
8.02863e-30
8.74108e-30
9.61498e-30
1.06805e-29
1.19768e-29
1.35551e-29
1.54822e-29
1.78439e-29
2.0751e-29
2.43445e-29
2.88046e-29
3.43595e-29
4.13081e-29
5.00097e-29
6.09212e-29
7.46512e-29
9.20413e-29
1.14247e-28
1.42337e-28
1.77642e-28
2.21993e-28
2.77667e-28
3.47471e-28
4.34774e-28
5.43608e-28
6.78802e-28
8.46018e-28
1.05178e-27
1.30341e-27
1.60895e-27
1.9769e-27
2.41581e-27
2.93369e-27
3.53715e-27
4.23026e-27
5.01292e-27
5.88005e-27
6.81989e-27
7.81282e-27
8.83091e-27
9.83827e-27
1.07922e-26
1.16458e-26
1.23512e-26
1.28643e-26
1.31485e-26
1.31794e-26
1.29478e-26
1.2461e-26
1.17426e-26
1.08306e-26
9.77363e-27
8.6262e-27
7.44381e-27
6.27822e-27
5.17358e-27
4.16384e-27
3.27161e-27
2.50827e-27
1.87522e-27
1.36581e-27
9.67671e-28
6.65053e-28
4.40938e-28
2.78855e-28
1.64344e-28
8.60332e-29
3.60581e-29
9.17189e-30
3.48071e-08
3.37988e-08
3.2822e-08
3.1876e-08
3.09602e-08
3.00738e-08
2.92163e-08
2.8387e-08
2.75853e-08
2.68104e-08
2.60619e-08
2.5339e-08
2.46412e-08
2.39679e-08
2.33185e-08
2.26924e-08
2.20891e-08
2.1508e-08
2.09485e-08
2.04103e-08
1.98926e-08
1.9395e-08
1.8917e-08
1.84581e-08
1.80177e-08
1.75954e-08
1.71907e-08
1.68031e-08
1.64321e-08
1.60771e-08
1.57378e-08
1.54136e-08
1.5104e-08
1.48086e-08
1.45269e-08
1.42583e-08
1.40025e-08
1.37588e-08
1.3527e-08
1.33064e-08
1.30966e-08
1.28971e-08
1.27075e-08
1.25272e-08
1.23559e-08
1.2193e-08
1.2038e-08
1.18905e-08
1.17501e-08
1.16162e-08
1.14884e-08
1.13662e-08
1.12493e-08
1.1137e-08
1.10291e-08
1.0925e-08
1.08244e-08
1.07268e-08
1.06319e-08
1.05392e-08
1.04485e-08
1.03592e-08
1.02712e-08
1.01841e-08
1.00975e-08
1.00113e-08
9.92517e-09
9.83887e-09
9.75223e-09
9.66508e-09
9.57728e-09
9.48874e-09
9.39937e-09
9.30915e-09
9.21808e-09
9.12619e-09
9.03358e-09
8.94037e-09
8.84674e-09
8.75292e-09
8.65921e-09
8.56598e-09
8.47368e-09
8.38287e-09
8.29424e-09
8.20868e-09
8.12725e-09
8.05134e-09
7.98272e-09
7.92371e-09
7.87737e-09
7.84784e-09
7.84076e-09
7.86403e-09
7.92877e-09
8.05096e-09
8.25377e-09
8.57116e-09
9.05328e-09
9.77453e-09
1.08453e-08
1.24295e-08
1.47717e-08
1.82436e-08
2.34214e-08
3.12014e-08
4.28571e-08
6.01017e-08
8.5142e-08
1.2058e-07
1.69926e-07
2.33554e-07
3.09506e-07
3.93958e-07
4.37436e-07
5.9198e-07
5.27886e-07
9.03833e-07
7.11708e-07
7.03405e-07
6.4496e-07
5.50885e-07
4.71537e-07
3.89335e-07
3.08106e-07
2.35687e-07
1.73641e-07
1.23359e-07
8.46241e-08
5.60991e-08
3.59562e-08
2.22898e-08
1.3368e-08
7.75773e-09
4.35706e-09
2.36907e-09
1.24774e-09
6.3713e-10
3.15849e-10
1.52297e-10
7.15964e-11
3.29076e-11
1.48338e-11
6.57892e-12
2.87985e-12
1.2478e-12
5.36474e-13
2.29325e-13
9.76158e-14
4.14245e-14
1.75412e-14
7.41792e-15
3.13545e-15
1.326e-15
5.61725e-16
2.38685e-16
1.01881e-16
4.37535e-17
1.89347e-17
8.26941e-18
3.64952e-18
1.62944e-18
7.36733e-19
3.37632e-19
1.56956e-19
7.40629e-20
3.54924e-20
1.72805e-20
8.55008e-21
4.29979e-21
2.19779e-21
1.14155e-21
6.02287e-22
3.22671e-22
1.7543e-22
9.6752e-23
5.41064e-23
3.06738e-23
1.76279e-23
1.02643e-23
6.05367e-24
3.61636e-24
2.18736e-24
1.33966e-24
8.3075e-25
5.22111e-25
3.31944e-25
2.13286e-25
1.38514e-25
9.09267e-26
6.03378e-26
4.0478e-26
2.74541e-26
1.8827e-26
1.30545e-26
9.15329e-27
6.49011e-27
4.65385e-27
3.37508e-27
2.47565e-27
1.83673e-27
1.37835e-27
1.04626e-27
8.0331e-28
6.23864e-28
4.90077e-28
3.89418e-28
3.13011e-28
2.54512e-28
2.09354e-28
1.74215e-28
1.46667e-28
1.24919e-28
1.0764e-28
9.38397e-29
8.27718e-29
7.38741e-29
6.67203e-29
6.09858e-29
5.64226e-29
5.28417e-29
5.00992e-29
4.80878e-29
4.67293e-29
4.59709e-29
4.57812e-29
4.61482e-29
4.70774e-29
4.85916e-29
5.07326e-29
5.35647e-29
5.71812e-29
6.17142e-29
6.73465e-29
7.43248e-29
8.29743e-29
9.37134e-29
1.07069e-28
1.23694e-28
1.444e-28
1.70205e-28
2.0241e-28
2.42714e-28
2.93369e-28
3.5739e-28
4.38827e-28
5.43107e-28
6.77417e-28
8.51121e-28
1.07679e-27
1.37063e-27
1.75398e-27
2.257e-27
2.92296e-27
3.79996e-27
4.93959e-27
6.41708e-27
8.32725e-27
1.0787e-26
1.39359e-26
1.79417e-26
2.29999e-26
2.9331e-26
3.71739e-26
4.67746e-26
5.83662e-26
7.21427e-26
8.82242e-26
1.06615e-25
1.27149e-25
1.49459e-25
1.72955e-25
1.96808e-25
2.19986e-25
2.41313e-25
2.59557e-25
2.73549e-25
2.82306e-25
2.85142e-25
2.81753e-25
2.72262e-25
2.57209e-25
2.37492e-25
2.14276e-25
1.88872e-25
1.62604e-25
1.36698e-25
1.1219e-25
8.98608e-26
7.02191e-26
5.35065e-26
3.97321e-26
2.87222e-26
2.01756e-26
1.3719e-26
8.95555e-27
5.50864e-27
3.06193e-27
1.39541e-27
3.9753e-28
2.19701e-08