/*--------------------------------*- C++ -*----------------------------------*\
| =========                 |                                                 |
| \\      /  F ield         | OpenFOAM: The Open Source CFD Toolbox           |
|  \\    /   O peration     | Version:  2.4.0                                 |
|   \\  /    A nd           | Web:      www.OpenFOAM.org                      |
|    \\/     M anipulation  |                                                 |
\*---------------------------------------------------------------------------*/
FoamFile
{
    version     2.0;
    format      ascii;
    class       volScalarField;
    location    "3.5";
    object      p;
}
// * * * * * * * * * * * * * * * * * * * * * * * * * * * * * * * * * * * * * //

dimensions      [1 -1 -2 0 0 0 0];

internalField   nonuniform List<scalar> 
8000
(
0.114039
0.132199
0.151691
0.170351
0.189298
0.206976
0.225365
0.241929
0.261086
0.279765
0.298485
0.317498
0.336741
0.35624
0.376062
0.39646
0.417316
0.439376
0.460025
0.482444
0.505336
0.529132
0.553895
0.5796
0.606459
0.634401
0.663931
0.695609
0.730588
0.767017
0.798615
0.789482
0.582557
0.0312431
-2.12739
-3.16399
-4.42612
-5.11476
-3.61044
-1.35199
-0.33322
-0.335313
-0.442354
-0.46012
-0.460194
-0.459914
-0.459859
-0.459917
-0.459973
-0.459807
-0.403485
-0.384705
-0.362939
-0.342217
-0.321943
-0.304046
-0.286265
-0.270621
-0.25366
-0.238175
-0.223396
-0.209343
-0.195971
-0.183321
-0.171315
-0.16002
-0.149327
-0.139299
-0.129942
-0.121199
-0.112945
-0.105396
-0.0983062
-0.0922081
-0.0868062
-0.0813554
-0.0699128
-0.0463857
-0.033092
-0.192518
-0.871529
-3.04185
-4.29688
-5.10382
-5.2562
-3.73248
-1.48247
-0.419596
-0.367389
-0.469349
-0.483675
-0.482409
-0.482488
-0.482659
-0.482499
-0.48247
-0.482493
-0.48253
-0.482463
-0.482466
-1.83978
-1.81625
-1.79281
-1.77283
-1.75474
-1.74012
-1.72724
-1.71558
-1.70705
-1.70107
-1.69667
-1.69448
-1.69439
-1.69658
-1.7009
-1.7076
-1.71648
-1.72787
-1.74147
-1.75773
-1.77639
-1.79843
-1.82372
-1.85048
-1.86777
-1.86693
-1.90438
-2.23177
-3.24629
-5.14473
-5.63349
-5.20169
-3.4961
-1.43431
-0.566195
-0.506129
-0.530309
-0.513289
-0.50585
-0.505099
-0.505063
-0.505028
-0.504947
-0.504849
-0.504891
-0.504928
-0.504995
-0.504993
-0.504984
-0.504972
-1.67598
-1.66434
-1.65055
-1.63753
-1.62558
-1.61441
-1.60433
-1.59455
-1.58561
-1.57784
-1.57022
-1.56321
-1.55683
-1.551
-1.54575
-1.54094
-1.53667
-1.53271
-1.5293
-1.5265
-1.52474
-1.52131
-1.50815
-1.47871
-1.48545
-1.73455
-2.61509
-4.59673
-4.70315
-3.82488
-2.13362
-0.933864
-0.607678
-0.548399
-0.535541
-0.52815
-0.526945
-0.527126
-0.527188
-0.527215
-0.527235
-0.527254
-0.527261
-0.527265
-0.527266
-0.52727
-0.527277
-0.527283
-0.527289
-0.527294
-2.44638
-2.43561
-2.42512
-2.41656
-2.40972
-2.40412
-2.39985
-2.3973
-2.39544
-2.39515
-2.39638
-2.39864
-2.40234
-2.40711
-2.41324
-2.42045
-2.42906
-2.43884
-2.45157
-2.46647
-2.47575
-2.45133
-2.39068
-2.51102
-3.48842
-5.68574
-4.65211
-3.37686
-1.68119
-0.69068
-0.546302
-0.555305
-0.551333
-0.549576
-0.549695
-0.549794
-0.549803
-0.549817
-0.54983
-0.549836
-0.549842
-0.549846
-0.549849
-0.549853
-0.549856
-0.54986
-0.549863
-0.549866
-0.549868
-0.54987
-2.44934
-2.44468
-2.4409
-2.43954
-2.44062
-2.444
-2.44915
-2.45724
-2.46724
-2.47953
-2.49468
-2.51178
-2.53122
-2.55316
-2.57749
-2.60477
-2.63514
-2.66926
-2.70302
-2.72381
-2.72569
-2.80554
-3.29366
-4.42123
-4.38604
-2.77046
-1.30109
-0.635725
-0.57665
-0.575094
-0.572398
-0.571859
-0.572014
-0.572071
-0.572094
-0.57212
-0.572141
-0.572158
-0.572174
-0.572189
-0.572203
-0.572217
-0.57223
-0.572242
-0.572253
-0.572265
-0.572275
-0.572286
-0.572296
-0.572305
-2.18848
-2.19705
-2.20699
-2.2171
-2.2274
-2.23811
-2.24925
-2.26082
-2.27309
-2.28548
-2.29895
-2.31249
-2.32637
-2.34066
-2.35583
-2.37316
-2.39242
-2.40328
-2.37375
-2.30413
-2.46736
-3.66829
-6.13496
-3.1402
-1.35965
-0.656342
-0.599908
-0.596307
-0.595246
-0.595168
-0.595196
-0.595187
-0.59518
-0.595173
-0.595166
-0.595159
-0.595152
-0.595146
-0.59514
-0.595135
-0.595129
-0.595125
-0.59512
-0.595116
-0.595112
-0.595109
-0.595106
-0.595104
-0.595102
-0.595101
-1.79905
-1.81523
-1.83283
-1.84955
-1.86552
-1.88121
-1.89665
-1.91169
-1.92682
-1.94152
-1.95653
-1.97101
-1.98524
-1.99957
-2.01468
-2.02987
-2.03792
-2.02337
-2.00203
-2.15521
-2.87429
-3.79386
-1.51918
-0.733937
-0.625321
-0.618646
-0.617906
-0.617906
-0.61792
-0.617905
-0.617881
-0.617862
-0.617844
-0.617829
-0.617814
-0.6178
-0.617787
-0.617776
-0.617765
-0.617755
-0.617746
-0.617738
-0.617732
-0.617726
-0.61772
-0.617716
-0.617713
-0.617711
-0.617709
-0.617709
-1.69217
-1.70811
-1.72634
-1.74418
-1.76178
-1.77936
-1.79721
-1.81512
-1.83327
-1.85153
-1.87034
-1.88901
-1.90836
-1.92855
-1.94914
-1.96271
-1.95798
-1.95882
-2.13904
-2.79154
-3.24945
-1.04369
-0.657696
-0.641825
-0.640631
-0.640639
-0.640664
-0.640651
-0.640627
-0.640606
-0.640587
-0.640569
-0.640553
-0.640537
-0.640521
-0.640507
-0.640494
-0.640481
-0.640469
-0.640459
-0.640449
-0.640441
-0.640433
-0.640426
-0.640421
-0.640416
-0.640413
-0.640411
-0.640409
-0.640409
-1.38476
-1.40167
-1.42028
-1.43801
-1.45481
-1.47128
-1.48705
-1.50344
-1.51878
-1.53395
-1.5489
-1.56371
-1.57894
-1.59397
-1.60189
-1.58957
-1.57659
-1.73408
-2.3899
-3.02005
-0.874092
-0.667041
-0.663249
-0.663042
-0.663092
-0.663107
-0.663096
-0.663082
-0.66307
-0.663059
-0.663049
-0.663039
-0.66303
-0.663021
-0.663013
-0.663005
-0.662998
-0.662991
-0.662986
-0.662981
-0.662978
-0.662975
-0.662973
-0.662972
-0.662972
-0.662974
-0.662976
-0.66298
-0.662984
-0.66299
-1.15852
-1.17514
-1.19311
-1.2097
-1.22493
-1.23988
-1.2532
-1.26704
-1.27933
-1.29123
-1.30268
-1.31441
-1.32599
-1.32909
-1.30415
-1.26404
-1.41704
-2.26337
-3.47434
-0.97103
-0.687606
-0.685537
-0.685499
-0.685549
-0.685561
-0.685553
-0.685543
-0.685534
-0.685527
-0.685521
-0.685515
-0.685509
-0.685504
-0.685499
-0.685495
-0.685492
-0.68549
-0.685489
-0.685488
-0.685489
-0.68549
-0.685493
-0.685496
-0.685501
-0.685507
-0.685514
-0.685522
-0.685532
-0.685543
-0.685555
-1.20571
-1.21823
-1.23226
-1.24568
-1.25804
-1.27113
-1.28221
-1.29475
-1.30596
-1.31769
-1.32999
-1.34315
-1.34927
-1.32639
-1.27673
-1.39886
-2.2557
-3.74279
-1.50835
-0.711741
-0.708147
-0.707992
-0.708056
-0.708076
-0.708066
-0.708052
-0.708041
-0.708031
-0.708021
-0.708013
-0.708005
-0.707999
-0.707993
-0.707988
-0.707984
-0.707981
-0.70798
-0.707979
-0.70798
-0.707983
-0.707986
-0.707991
-0.707997
-0.708005
-0.708014
-0.708025
-0.708037
-0.708051
-0.708066
-0.708082
-1.09781
-1.10818
-1.11943
-1.13016
-1.13984
-1.15105
-1.15964
-1.17027
-1.17972
-1.18993
-1.20048
-1.21055
-1.21275
-1.19714
-1.19471
-1.38453
-2.01559
-2.38042
-0.745386
-0.73054
-0.730035
-0.730161
-0.730211
-0.730212
-0.730206
-0.730203
-0.730203
-0.730203
-0.730204
-0.730205
-0.730207
-0.73021
-0.730214
-0.730219
-0.730225
-0.730232
-0.73024
-0.730249
-0.730259
-0.73027
-0.730283
-0.730297
-0.730312
-0.730328
-0.730346
-0.730366
-0.730386
-0.730408
-0.730431
-0.730455
-1.20616
-1.21381
-1.22242
-1.23053
-1.23742
-1.24611
-1.2513
-1.25854
-1.26473
-1.27232
-1.28053
-1.28017
-1.24522
-1.18192
-1.33197
-2.35505
-4.04148
-1.2106
-0.753497
-0.752421
-0.752598
-0.752669
-0.752667
-0.752652
-0.752641
-0.752634
-0.752628
-0.752622
-0.752618
-0.752615
-0.752613
-0.752612
-0.752612
-0.752613
-0.752616
-0.75262
-0.752626
-0.752633
-0.752641
-0.752651
-0.752663
-0.752676
-0.752691
-0.752707
-0.752725
-0.752744
-0.752764
-0.752786
-0.75281
-0.752835
-1.11058
-1.11797
-1.12546
-1.13201
-1.13724
-1.14431
-1.14738
-1.15231
-1.15621
-1.16047
-1.16443
-1.16097
-1.13501
-1.10356
-1.24739
-1.94098
-2.72586
-0.780557
-0.774833
-0.774576
-0.774679
-0.774716
-0.774715
-0.77471
-0.774708
-0.774708
-0.774708
-0.774709
-0.774711
-0.774714
-0.774718
-0.774722
-0.774728
-0.774735
-0.774743
-0.774752
-0.774763
-0.774775
-0.774788
-0.774802
-0.774818
-0.774834
-0.774853
-0.774872
-0.774892
-0.774914
-0.774937
-0.774961
-0.774986
-0.775012
-1.42066
-1.42122
-1.42222
-1.42358
-1.42498
-1.42895
-1.43125
-1.43438
-1.43791
-1.44205
-1.44626
-1.44528
-1.43112
-1.42547
-1.56328
-2.03559
-2.02094
-0.797702
-0.796559
-0.796789
-0.796858
-0.79686
-0.796855
-0.796854
-0.796856
-0.796859
-0.796863
-0.796867
-0.796871
-0.796877
-0.796883
-0.79689
-0.796898
-0.796907
-0.796917
-0.796928
-0.79694
-0.796953
-0.796967
-0.796982
-0.796998
-0.797015
-0.797033
-0.797051
-0.797071
-0.797091
-0.797111
-0.797133
-0.797155
-0.797178
-1.48568
-1.48018
-1.47444
-1.46812
-1.46445
-1.46169
-1.45958
-1.45846
-1.45837
-1.45939
-1.46124
-1.45979
-1.44694
-1.43515
-1.53218
-1.93147
-1.89154
-0.819784
-0.818697
-0.818941
-0.819008
-0.819009
-0.819003
-0.819003
-0.819005
-0.819008
-0.819011
-0.819015
-0.81902
-0.819026
-0.819032
-0.819039
-0.819047
-0.819056
-0.819065
-0.819075
-0.819086
-0.819098
-0.81911
-0.819123
-0.819137
-0.819152
-0.819167
-0.819182
-0.819198
-0.819214
-0.819231
-0.819248
-0.819265
-0.819283
-1.4506
-1.44292
-1.43444
-1.42543
-1.41856
-1.41175
-1.40523
-1.39912
-1.39365
-1.38917
-1.3852
-1.37603
-1.34885
-1.31678
-1.42833
-1.99147
-2.37496
-0.841963
-0.840915
-0.841134
-0.841203
-0.841206
-0.841202
-0.841202
-0.841205
-0.841209
-0.841214
-0.841219
-0.841225
-0.841232
-0.841239
-0.841247
-0.841256
-0.841265
-0.841275
-0.841286
-0.841297
-0.841309
-0.841321
-0.841334
-0.841347
-0.84136
-0.841374
-0.841388
-0.841402
-0.841417
-0.841431
-0.841446
-0.841461
-0.841476
-1.32931
-1.31824
-1.30532
-1.29201
-1.27985
-1.26707
-1.25402
-1.24087
-1.22796
-1.21642
-1.20584
-1.18683
-1.13403
-1.05784
-1.20746
-2.22156
-3.73797
-0.907445
-0.864022
-0.86331
-0.86346
-0.863515
-0.863514
-0.863507
-0.863503
-0.863502
-0.863503
-0.863504
-0.863506
-0.863508
-0.863511
-0.863515
-0.86352
-0.863526
-0.863532
-0.863539
-0.863546
-0.863553
-0.863561
-0.86357
-0.863578
-0.863587
-0.863596
-0.863604
-0.863613
-0.863622
-0.863631
-0.863639
-0.863647
-0.863656
-1.36467
-1.34829
-1.33098
-1.31533
-1.30183
-1.28881
-1.27668
-1.26515
-1.25427
-1.24357
-1.23389
-1.22413
-1.20952
-1.17462
-1.12038
-1.19484
-1.77685
-2.26975
-0.946908
-0.887412
-0.885594
-0.885671
-0.885676
-0.885645
-0.885622
-0.885609
-0.885603
-0.885604
-0.885608
-0.885616
-0.885627
-0.88564
-0.885655
-0.885672
-0.885689
-0.885707
-0.885726
-0.885744
-0.885763
-0.885782
-0.8858
-0.885818
-0.885835
-0.885852
-0.885868
-0.885883
-0.885898
-0.885912
-0.885925
-0.885938
-0.459934
-0.459973
-0.459972
-0.459962
-0.459833
-0.459917
-0.459928
-0.459929
-0.45993
-0.459929
-0.459929
-0.459928
-0.459927
-0.459926
-0.459924
-0.459923
-0.459921
-0.459919
-0.459917
-0.459915
-0.459913
-0.459911
-0.459908
-0.459906
-0.459903
-0.4599
-0.459897
-0.459894
-0.459891
-0.459888
-0.459884
-0.45988
-0.459876
-0.459872
-0.459868
-0.459863
-0.459858
-0.459853
-0.459848
-0.459842
-0.459836
-0.45983
-0.459823
-0.459817
-0.45981
-0.459802
-0.459795
-0.459787
-0.459778
-0.45977
-0.4825
-0.482475
-0.482515
-0.482512
-0.482502
-0.482492
-0.482484
-0.482478
-0.482472
-0.482466
-0.482461
-0.482456
-0.48245
-0.482445
-0.48244
-0.482436
-0.482431
-0.482427
-0.482423
-0.482419
-0.482415
-0.482411
-0.482408
-0.482404
-0.482401
-0.482397
-0.482394
-0.482391
-0.482388
-0.482384
-0.482381
-0.482378
-0.482374
-0.482371
-0.482367
-0.482363
-0.48236
-0.482356
-0.482352
-0.482348
-0.482343
-0.482339
-0.482334
-0.482329
-0.482324
-0.482319
-0.482314
-0.482308
-0.482303
-0.482297
-0.50496
-0.50495
-0.504942
-0.504937
-0.504934
-0.50493
-0.504925
-0.504921
-0.504916
-0.504911
-0.504907
-0.504902
-0.504898
-0.504894
-0.50489
-0.504887
-0.504884
-0.50488
-0.504877
-0.504874
-0.504872
-0.504869
-0.504867
-0.504865
-0.504863
-0.50486
-0.504859
-0.504857
-0.504855
-0.504853
-0.504852
-0.50485
-0.504848
-0.504847
-0.504845
-0.504843
-0.504842
-0.50484
-0.504838
-0.504836
-0.504835
-0.504833
-0.504831
-0.504829
-0.504826
-0.504824
-0.504822
-0.504819
-0.504816
-0.504814
-0.527299
-0.527303
-0.527307
-0.527311
-0.527314
-0.527317
-0.52732
-0.527323
-0.527326
-0.527328
-0.527331
-0.527333
-0.527335
-0.527337
-0.527339
-0.527342
-0.527344
-0.527346
-0.527348
-0.52735
-0.527352
-0.527354
-0.527357
-0.527359
-0.527361
-0.527364
-0.527366
-0.527369
-0.527371
-0.527374
-0.527376
-0.527379
-0.527381
-0.527384
-0.527387
-0.527389
-0.527392
-0.527395
-0.527397
-0.5274
-0.527402
-0.527405
-0.527407
-0.52741
-0.527412
-0.527414
-0.527417
-0.527419
-0.527421
-0.527423
-0.549872
-0.549874
-0.549876
-0.549878
-0.54988
-0.549882
-0.549884
-0.549886
-0.549888
-0.54989
-0.549892
-0.549894
-0.549897
-0.549899
-0.549902
-0.549905
-0.549908
-0.549911
-0.549914
-0.549918
-0.549921
-0.549925
-0.549929
-0.549934
-0.549938
-0.549943
-0.549948
-0.549953
-0.549958
-0.549964
-0.549969
-0.549975
-0.549981
-0.549987
-0.549993
-0.549999
-0.550005
-0.550012
-0.550018
-0.550025
-0.550031
-0.550038
-0.550044
-0.550051
-0.550058
-0.550064
-0.550071
-0.550078
-0.550084
-0.550091
-0.572315
-0.572324
-0.572332
-0.572341
-0.57235
-0.572358
-0.572366
-0.572375
-0.572383
-0.572391
-0.5724
-0.572408
-0.572417
-0.572425
-0.572434
-0.572443
-0.572452
-0.572461
-0.572471
-0.57248
-0.57249
-0.5725
-0.57251
-0.572521
-0.572531
-0.572542
-0.572553
-0.572564
-0.572576
-0.572587
-0.572599
-0.57261
-0.572622
-0.572634
-0.572647
-0.572659
-0.572671
-0.572684
-0.572696
-0.572708
-0.572721
-0.572734
-0.572746
-0.572759
-0.572771
-0.572784
-0.572796
-0.572808
-0.572821
-0.572833
-0.5951
-0.5951
-0.5951
-0.595101
-0.595103
-0.595105
-0.595107
-0.59511
-0.595114
-0.595119
-0.595124
-0.595129
-0.595135
-0.595142
-0.595149
-0.595157
-0.595166
-0.595175
-0.595185
-0.595195
-0.595205
-0.595217
-0.595228
-0.59524
-0.595253
-0.595266
-0.595279
-0.595293
-0.595307
-0.595322
-0.595337
-0.595352
-0.595367
-0.595383
-0.595399
-0.595415
-0.595431
-0.595447
-0.595464
-0.59548
-0.595497
-0.595514
-0.595531
-0.595547
-0.595564
-0.595581
-0.595598
-0.595615
-0.595631
-0.595648
-0.617709
-0.61771
-0.617712
-0.617715
-0.617719
-0.617724
-0.61773
-0.617736
-0.617744
-0.617752
-0.617761
-0.617771
-0.617781
-0.617793
-0.617805
-0.617818
-0.617831
-0.617846
-0.617861
-0.617876
-0.617892
-0.617909
-0.617926
-0.617944
-0.617963
-0.617981
-0.618
-0.61802
-0.61804
-0.61806
-0.618081
-0.618102
-0.618123
-0.618144
-0.618166
-0.618187
-0.618209
-0.618231
-0.618253
-0.618275
-0.618297
-0.618319
-0.618341
-0.618363
-0.618385
-0.618407
-0.618428
-0.61845
-0.618471
-0.618492
-0.64041
-0.640412
-0.640416
-0.64042
-0.640425
-0.640432
-0.64044
-0.640448
-0.640458
-0.640469
-0.640481
-0.640493
-0.640507
-0.640522
-0.640537
-0.640554
-0.640571
-0.640589
-0.640608
-0.640627
-0.640647
-0.640668
-0.64069
-0.640712
-0.640734
-0.640757
-0.640781
-0.640805
-0.640829
-0.640854
-0.640879
-0.640904
-0.64093
-0.640955
-0.640981
-0.641007
-0.641033
-0.64106
-0.641086
-0.641112
-0.641138
-0.641164
-0.641191
-0.641217
-0.641243
-0.641268
-0.641294
-0.641319
-0.641344
-0.641369
-0.662997
-0.663005
-0.663015
-0.663025
-0.663037
-0.66305
-0.663064
-0.663079
-0.663095
-0.663113
-0.663131
-0.66315
-0.66317
-0.663192
-0.663214
-0.663237
-0.66326
-0.663285
-0.66331
-0.663336
-0.663363
-0.66339
-0.663418
-0.663446
-0.663475
-0.663504
-0.663534
-0.663564
-0.663594
-0.663624
-0.663655
-0.663686
-0.663717
-0.663749
-0.66378
-0.663812
-0.663843
-0.663875
-0.663906
-0.663938
-0.663969
-0.664
-0.664031
-0.664062
-0.664093
-0.664123
-0.664153
-0.664183
-0.664212
-0.664241
-0.685568
-0.685583
-0.685598
-0.685615
-0.685634
-0.685653
-0.685673
-0.685695
-0.685718
-0.685742
-0.685766
-0.685792
-0.685819
-0.685847
-0.685875
-0.685905
-0.685935
-0.685966
-0.685997
-0.68603
-0.686063
-0.686096
-0.68613
-0.686165
-0.6862
-0.686236
-0.686271
-0.686308
-0.686344
-0.686381
-0.686418
-0.686455
-0.686493
-0.68653
-0.686568
-0.686605
-0.686643
-0.686681
-0.686719
-0.686756
-0.686794
-0.686831
-0.686868
-0.686905
-0.686942
-0.686978
-0.687014
-0.68705
-0.687085
-0.68712
-0.7081
-0.708119
-0.70814
-0.708162
-0.708186
-0.70821
-0.708236
-0.708263
-0.708291
-0.708321
-0.708351
-0.708383
-0.708415
-0.708449
-0.708483
-0.708519
-0.708555
-0.708592
-0.70863
-0.708668
-0.708708
-0.708747
-0.708788
-0.708829
-0.70887
-0.708912
-0.708955
-0.708998
-0.709041
-0.709085
-0.709129
-0.709173
-0.709218
-0.709263
-0.709308
-0.709353
-0.709399
-0.709444
-0.70949
-0.709535
-0.70958
-0.709625
-0.709669
-0.709714
-0.709758
-0.709802
-0.709845
-0.709889
-0.709932
-0.709975
-0.730481
-0.730508
-0.730536
-0.730565
-0.730596
-0.730628
-0.73066
-0.730694
-0.730729
-0.730765
-0.730802
-0.73084
-0.730878
-0.730918
-0.730959
-0.731
-0.731042
-0.731085
-0.731129
-0.731174
-0.731219
-0.731265
-0.731312
-0.731359
-0.731407
-0.731456
-0.731505
-0.731556
-0.731606
-0.731658
-0.73171
-0.731762
-0.731816
-0.731869
-0.731924
-0.731979
-0.732034
-0.73209
-0.732146
-0.732202
-0.732257
-0.732312
-0.732368
-0.732424
-0.73248
-0.732536
-0.732593
-0.73265
-0.732704
-0.732758
-0.752861
-0.752889
-0.752917
-0.752947
-0.752979
-0.753011
-0.753044
-0.753079
-0.753115
-0.753151
-0.753189
-0.753228
-0.753267
-0.753308
-0.753349
-0.753392
-0.753435
-0.753479
-0.753525
-0.753571
-0.753618
-0.753666
-0.753715
-0.753764
-0.753815
-0.753867
-0.75392
-0.753974
-0.754029
-0.754085
-0.754142
-0.7542
-0.75426
-0.75432
-0.754382
-0.754445
-0.75451
-0.754575
-0.75464
-0.754705
-0.754745
-0.754831
-0.7549
-0.75497
-0.755041
-0.755112
-0.755183
-0.755255
-0.755325
-0.754909
-0.775039
-0.775067
-0.775096
-0.775126
-0.775157
-0.775189
-0.775221
-0.775254
-0.775288
-0.775323
-0.775359
-0.775395
-0.775432
-0.77547
-0.775508
-0.775548
-0.775588
-0.775629
-0.77567
-0.775713
-0.775757
-0.775801
-0.775847
-0.775893
-0.775941
-0.775989
-0.77604
-0.776091
-0.776144
-0.776198
-0.776253
-0.77631
-0.776369
-0.77643
-0.776492
-0.776556
-0.776621
-0.776688
-0.776749
-0.776712
-0.777031
-0.777108
-0.777162
-0.777262
-0.777345
-0.777433
-0.777522
-0.777598
-0.777561
-0.777824
-0.797201
-0.797224
-0.797248
-0.797273
-0.797297
-0.797322
-0.797347
-0.797372
-0.797398
-0.797423
-0.797449
-0.797474
-0.7975
-0.797525
-0.797551
-0.797576
-0.797602
-0.797627
-0.797652
-0.797677
-0.797702
-0.797726
-0.797751
-0.797775
-0.797799
-0.797822
-0.797846
-0.797869
-0.797892
-0.797914
-0.797937
-0.797958
-0.797979
-0.798
-0.79802
-0.798039
-0.798057
-0.797994
-0.797956
-0.798763
-0.798774
-0.79874
-0.798822
-0.798831
-0.79885
-0.798856
-0.79881
-0.79882
-0.798831
-0.798815
-0.8193
-0.819318
-0.819336
-0.819354
-0.819372
-0.81939
-0.819408
-0.819426
-0.819444
-0.819461
-0.819479
-0.819496
-0.819513
-0.81953
-0.819547
-0.819563
-0.819579
-0.819595
-0.819611
-0.819626
-0.81964
-0.819654
-0.819668
-0.819681
-0.819693
-0.819705
-0.819715
-0.819725
-0.819734
-0.819741
-0.819747
-0.819752
-0.819754
-0.819754
-0.819752
-0.819748
-0.819736
-0.819103
-0.820218
-0.820194
-0.820158
-0.820157
-0.82012
-0.820035
-0.819992
-0.82075
-0.820702
-0.820635
-0.820599
-0.820567
-0.84149
-0.841505
-0.84152
-0.841535
-0.841549
-0.841564
-0.841578
-0.841593
-0.841607
-0.841621
-0.841636
-0.84165
-0.841664
-0.841679
-0.841693
-0.841708
-0.841723
-0.841739
-0.841754
-0.841771
-0.841788
-0.841806
-0.841826
-0.841846
-0.841868
-0.841891
-0.841917
-0.841945
-0.841975
-0.842008
-0.842045
-0.842085
-0.842129
-0.842178
-0.842233
-0.842296
-0.842357
-0.841715
-0.84347
-0.843316
-0.843427
-0.843551
-0.84235
-0.842518
-0.84269
-0.842827
-0.842971
-0.843117
-0.843263
-0.84306
-0.863663
-0.863671
-0.863678
-0.863685
-0.863691
-0.863697
-0.863703
-0.863708
-0.863713
-0.863717
-0.863721
-0.863724
-0.863727
-0.863729
-0.863731
-0.863732
-0.863733
-0.863733
-0.863732
-0.863731
-0.863729
-0.863727
-0.863724
-0.86372
-0.863715
-0.863709
-0.863702
-0.863694
-0.863685
-0.863674
-0.863662
-0.863649
-0.863633
-0.863614
-0.863594
-0.863572
-0.863528
-0.862893
-0.864002
-0.863954
-0.863908
-0.863862
-0.863784
-0.862752
-0.864613
-0.864502
-0.864442
-0.864387
-0.863629
-0.863568
-0.88595
-0.885961
-0.885971
-0.88598
-0.885989
-0.885997
-0.886005
-0.886012
-0.886018
-0.886024
-0.886029
-0.886033
-0.886037
-0.886041
-0.886044
-0.886047
-0.886049
-0.886051
-0.886053
-0.886054
-0.886055
-0.886057
-0.886058
-0.886058
-0.886059
-0.88606
-0.886061
-0.886062
-0.886064
-0.886066
-0.886068
-0.88607
-0.886073
-0.886077
-0.886081
-0.886083
-0.886087
-0.88609
-0.885959
-0.88614
-0.886138
-0.886168
-0.886175
-0.885912
-0.885941
-0.886039
-0.886035
-0.886275
-0.88565
-0.885836
-0.459763
-0.459758
-0.459754
-0.459749
-0.459745
-0.45974
-0.459735
-0.45973
-0.459725
-0.459719
-0.459714
-0.459709
-0.459703
-0.459697
-0.459691
-0.459685
-0.459679
-0.459673
-0.459667
-0.45966
-0.459654
-0.459647
-0.459641
-0.459634
-0.459627
-0.45962
-0.459613
-0.459606
-0.459599
-0.459591
-0.459584
-0.459576
-0.459569
-0.459561
-0.459554
-0.459546
-0.459538
-0.45953
-0.459522
-0.459514
-0.459507
-0.459499
-0.459491
-0.459483
-0.459475
-0.459467
-0.459459
-0.45945
-0.459442
-0.459434
-0.459426
-0.459419
-0.459411
-0.459403
-0.459395
-0.459387
-0.459379
-0.459372
-0.459364
-0.459356
-0.459349
-0.459342
-0.459334
-0.459327
-0.45932
-0.459313
-0.459306
-0.459299
-0.459293
-0.459286
-0.45928
-0.459273
-0.459267
-0.459261
-0.459255
-0.459249
-0.459244
-0.459238
-0.459233
-0.459227
-0.459222
-0.459217
-0.459213
-0.459208
-0.459203
-0.459199
-0.459195
-0.45919
-0.459186
-0.459182
-0.459179
-0.459175
-0.459171
-0.459168
-0.459164
-0.459161
-0.459158
-0.459155
-0.459152
-0.45915
-0.459148
-0.459145
-0.459143
-0.459143
-0.45914
-0.459139
-0.459139
-0.459137
-0.459135
-0.459133
-0.459122
-0.459127
-0.459239
-0.45924
-0.459242
-0.459243
-0.459243
-0.459243
-0.459245
-0.459247
-0.45925
-0.459253
-0.459256
-0.45926
-0.459265
-0.45927
-0.459276
-0.459282
-0.459289
-0.459296
-0.459304
-0.459312
-0.45932
-0.459329
-0.459338
-0.459347
-0.459357
-0.459367
-0.459377
-0.459387
-0.459398
-0.459409
-0.45942
-0.459431
-0.459443
-0.459454
-0.459466
-0.459478
-0.459491
-0.459503
-0.459516
-0.459529
-0.459542
-0.459555
-0.459568
-0.459582
-0.459595
-0.459609
-0.459623
-0.459637
-0.459651
-0.459665
-0.45968
-0.459695
-0.459709
-0.459724
-0.459739
-0.459755
-0.45977
-0.459785
-0.459801
-0.459817
-0.459833
-0.459849
-0.459865
-0.459881
-0.459898
-0.459914
-0.459931
-0.459948
-0.459964
-0.459981
-0.459999
-0.460016
-0.460033
-0.460051
-0.460068
-0.460086
-0.460104
-0.460122
-0.46014
-0.460158
-0.460177
-0.460195
-0.460213
-0.460232
-0.460251
-0.46027
-0.460288
-0.460307
-0.460327
-0.460346
-0.460365
-0.460384
-0.460404
-0.460423
-0.460443
-0.460463
-0.460482
-0.460502
-0.460522
-0.460542
-0.460562
-0.460582
-0.460602
-0.460623
-0.460643
-0.460663
-0.460684
-0.460704
-0.460725
-0.460745
-0.460766
-0.460786
-0.460807
-0.460828
-0.460848
-0.460869
-0.46089
-0.460911
-0.460932
-0.460953
-0.460974
-0.460994
-0.461015
-0.461036
-0.461057
-0.461078
-0.461099
-0.46112
-0.461141
-0.461162
-0.461183
-0.461204
-0.461225
-0.461246
-0.461267
-0.461288
-0.461309
-0.46133
-0.461351
-0.461372
-0.461393
-0.461414
-0.461435
-0.461456
-0.461477
-0.461498
-0.461518
-0.461539
-0.46156
-0.461581
-0.461602
-0.461623
-0.461643
-0.461664
-0.461685
-0.461706
-0.461726
-0.461747
-0.461768
-0.461789
-0.461809
-0.46183
-0.461851
-0.461872
-0.461892
-0.461913
-0.461934
-0.461955
-0.461976
-0.461997
-0.462018
-0.462039
-0.46206
-0.462082
-0.462103
-0.462125
-0.462146
-0.462168
-0.46219
-0.462212
-0.462234
-0.462256
-0.462279
-0.462302
-0.462325
-0.462348
-0.462372
-0.462395
-0.482293
-0.48229
-0.482287
-0.482284
-0.482281
-0.482278
-0.482275
-0.482272
-0.482268
-0.482265
-0.482261
-0.482258
-0.482254
-0.48225
-0.482247
-0.482243
-0.482239
-0.482235
-0.48223
-0.482226
-0.482222
-0.482217
-0.482213
-0.482208
-0.482204
-0.482199
-0.482194
-0.482189
-0.482184
-0.482179
-0.482174
-0.482169
-0.482164
-0.482159
-0.482153
-0.482148
-0.482143
-0.482137
-0.482132
-0.482126
-0.482121
-0.482115
-0.48211
-0.482104
-0.482098
-0.482093
-0.482087
-0.482081
-0.482076
-0.48207
-0.482065
-0.482059
-0.482053
-0.482048
-0.482042
-0.482037
-0.482031
-0.482026
-0.48202
-0.482015
-0.48201
-0.482004
-0.481999
-0.481994
-0.481989
-0.481984
-0.481979
-0.481974
-0.481969
-0.481965
-0.48196
-0.481956
-0.481951
-0.481947
-0.481943
-0.481939
-0.481935
-0.481931
-0.481927
-0.481924
-0.48192
-0.481917
-0.481914
-0.481911
-0.481908
-0.481905
-0.481902
-0.481899
-0.481897
-0.481894
-0.481892
-0.48189
-0.481888
-0.481886
-0.481884
-0.481882
-0.48188
-0.481879
-0.481877
-0.481876
-0.481874
-0.481873
-0.481872
-0.481871
-0.481871
-0.481872
-0.481873
-0.481875
-0.481878
-0.481881
-0.481885
-0.481891
-0.481897
-0.481903
-0.481909
-0.481915
-0.481921
-0.481764
-0.48187
-0.481878
-0.481885
-0.481891
-0.481898
-0.481906
-0.481913
-0.48192
-0.481927
-0.481935
-0.481943
-0.481951
-0.481959
-0.481967
-0.481976
-0.481985
-0.481994
-0.482003
-0.482013
-0.482023
-0.482033
-0.482044
-0.482055
-0.482066
-0.482077
-0.482088
-0.4821
-0.482111
-0.482123
-0.482135
-0.482147
-0.48216
-0.482172
-0.482185
-0.482197
-0.48221
-0.482223
-0.482236
-0.482249
-0.482263
-0.482276
-0.48229
-0.482303
-0.482317
-0.482331
-0.482345
-0.482359
-0.482373
-0.482387
-0.482402
-0.482416
-0.482431
-0.482446
-0.482461
-0.482476
-0.482491
-0.482506
-0.482522
-0.482537
-0.482553
-0.482568
-0.482584
-0.4826
-0.482616
-0.482632
-0.482649
-0.482665
-0.482681
-0.482698
-0.482715
-0.482732
-0.482748
-0.482766
-0.482783
-0.4828
-0.482817
-0.482835
-0.482852
-0.48287
-0.482888
-0.482906
-0.482924
-0.482942
-0.48296
-0.482978
-0.482997
-0.483015
-0.483034
-0.483052
-0.483071
-0.48309
-0.483109
-0.483127
-0.483146
-0.483166
-0.483185
-0.483204
-0.483223
-0.483243
-0.483262
-0.483281
-0.483301
-0.483321
-0.48334
-0.48336
-0.48338
-0.483399
-0.483419
-0.483439
-0.483459
-0.483479
-0.483499
-0.483519
-0.483539
-0.483559
-0.483579
-0.483599
-0.483619
-0.48364
-0.48366
-0.48368
-0.4837
-0.48372
-0.48374
-0.483761
-0.483781
-0.483801
-0.483821
-0.483841
-0.483861
-0.483882
-0.483902
-0.483922
-0.483942
-0.483962
-0.483982
-0.484002
-0.484022
-0.484042
-0.484062
-0.484082
-0.484102
-0.484122
-0.484142
-0.484162
-0.484182
-0.484202
-0.484222
-0.484242
-0.484261
-0.484281
-0.484301
-0.484321
-0.484341
-0.48436
-0.48438
-0.4844
-0.48442
-0.48444
-0.484459
-0.484479
-0.484499
-0.484519
-0.484539
-0.484559
-0.484579
-0.484599
-0.484619
-0.48464
-0.48466
-0.48468
-0.484701
-0.484722
-0.484742
-0.484764
-0.484785
-0.484806
-0.484828
-0.484849
-0.484872
-0.484894
-0.484916
-0.504812
-0.504811
-0.50481
-0.504809
-0.504808
-0.504807
-0.504806
-0.504805
-0.504803
-0.504802
-0.504801
-0.504799
-0.504798
-0.504796
-0.504795
-0.504793
-0.504791
-0.50479
-0.504788
-0.504786
-0.504784
-0.504782
-0.50478
-0.504778
-0.504776
-0.504773
-0.504771
-0.504769
-0.504766
-0.504764
-0.504761
-0.504759
-0.504756
-0.504754
-0.504751
-0.504748
-0.504745
-0.504743
-0.50474
-0.504737
-0.504734
-0.504731
-0.504728
-0.504725
-0.504722
-0.504719
-0.504715
-0.504712
-0.504709
-0.504706
-0.504703
-0.5047
-0.504696
-0.504693
-0.50469
-0.504687
-0.504683
-0.50468
-0.504677
-0.504674
-0.504671
-0.504668
-0.504664
-0.504661
-0.504658
-0.504655
-0.504652
-0.504649
-0.504647
-0.504644
-0.504641
-0.504638
-0.504636
-0.504633
-0.504631
-0.504628
-0.504626
-0.504624
-0.504622
-0.50462
-0.504618
-0.504616
-0.504614
-0.504612
-0.504611
-0.50461
-0.504608
-0.504607
-0.504606
-0.504605
-0.504605
-0.504604
-0.504604
-0.504604
-0.504604
-0.504604
-0.504605
-0.504606
-0.504607
-0.504608
-0.504609
-0.504611
-0.504613
-0.504615
-0.504618
-0.504621
-0.504624
-0.504628
-0.504632
-0.504637
-0.504642
-0.504647
-0.504652
-0.504658
-0.504665
-0.504671
-0.504678
-0.504685
-0.504679
-0.504688
-0.504662
-0.504282
-0.504552
-0.504564
-0.504571
-0.50463
-0.50464
-0.50465
-0.504659
-0.50467
-0.504679
-0.504687
-0.504696
-0.504705
-0.504714
-0.504723
-0.504732
-0.504742
-0.504751
-0.504761
-0.504771
-0.504781
-0.504791
-0.504801
-0.504811
-0.504821
-0.504831
-0.504842
-0.504852
-0.504863
-0.504873
-0.504884
-0.504895
-0.504906
-0.504917
-0.504928
-0.504939
-0.504951
-0.504962
-0.504974
-0.504985
-0.504997
-0.505009
-0.505021
-0.505034
-0.505046
-0.505058
-0.505071
-0.505084
-0.505096
-0.505109
-0.505123
-0.505136
-0.505149
-0.505163
-0.505176
-0.50519
-0.505204
-0.505218
-0.505232
-0.505247
-0.505261
-0.505276
-0.50529
-0.505305
-0.50532
-0.505335
-0.505351
-0.505366
-0.505382
-0.505397
-0.505413
-0.505429
-0.505445
-0.505461
-0.505477
-0.505494
-0.50551
-0.505527
-0.505543
-0.50556
-0.505577
-0.505594
-0.505611
-0.505629
-0.505646
-0.505663
-0.505681
-0.505699
-0.505716
-0.505734
-0.505752
-0.50577
-0.505788
-0.505806
-0.505825
-0.505843
-0.505861
-0.50588
-0.505898
-0.505917
-0.505936
-0.505954
-0.505973
-0.505992
-0.506011
-0.50603
-0.506049
-0.506068
-0.506087
-0.506106
-0.506125
-0.506144
-0.506163
-0.506182
-0.506202
-0.506221
-0.50624
-0.50626
-0.506279
-0.506298
-0.506317
-0.506337
-0.506356
-0.506375
-0.506395
-0.506414
-0.506433
-0.506453
-0.506472
-0.506491
-0.506511
-0.50653
-0.506549
-0.506568
-0.506587
-0.506607
-0.506626
-0.506645
-0.506664
-0.506683
-0.506702
-0.506721
-0.50674
-0.506759
-0.506778
-0.506797
-0.506816
-0.506834
-0.506853
-0.506872
-0.506891
-0.50691
-0.506928
-0.506947
-0.506966
-0.506985
-0.507003
-0.507022
-0.507041
-0.50706
-0.507079
-0.507097
-0.507116
-0.507135
-0.507154
-0.507173
-0.507192
-0.507212
-0.507231
-0.50725
-0.50727
-0.50729
-0.50731
-0.50733
-0.50735
-0.50737
-0.507391
-0.507412
-0.507433
-0.527425
-0.527426
-0.527428
-0.52743
-0.527432
-0.527434
-0.527435
-0.527437
-0.527439
-0.52744
-0.527442
-0.527443
-0.527445
-0.527446
-0.527447
-0.527449
-0.52745
-0.527451
-0.527452
-0.527453
-0.527455
-0.527456
-0.527457
-0.527457
-0.527458
-0.527459
-0.52746
-0.527461
-0.527461
-0.527462
-0.527462
-0.527463
-0.527463
-0.527464
-0.527464
-0.527464
-0.527465
-0.527465
-0.527465
-0.527465
-0.527465
-0.527465
-0.527465
-0.527465
-0.527465
-0.527465
-0.527464
-0.527464
-0.527464
-0.527463
-0.527463
-0.527462
-0.527462
-0.527461
-0.527461
-0.52746
-0.52746
-0.527459
-0.527458
-0.527457
-0.527457
-0.527456
-0.527455
-0.527454
-0.527453
-0.527452
-0.527452
-0.527451
-0.52745
-0.527449
-0.527448
-0.527447
-0.527446
-0.527445
-0.527444
-0.527443
-0.527442
-0.527441
-0.52744
-0.52744
-0.527439
-0.527438
-0.527437
-0.527436
-0.527435
-0.527435
-0.527434
-0.527433
-0.527433
-0.527432