/*--------------------------------*- C++ -*----------------------------------*\
| =========                 |                                                 |
| \\      /  F ield         | OpenFOAM: The Open Source CFD Toolbox           |
|  \\    /   O peration     | Version:  2.4.0                                 |
|   \\  /    A nd           | Web:      www.OpenFOAM.org                      |
|    \\/     M anipulation  |                                                 |
\*---------------------------------------------------------------------------*/
FoamFile
{
    version     2.0;
    format      ascii;
    class       volScalarField;
    location    "0.2";
    object      alpha1;
}
// * * * * * * * * * * * * * * * * * * * * * * * * * * * * * * * * * * * * * //

dimensions      [0 0 0 0 0 0 0];

internalField   nonuniform List<scalar> 
8000
(
1
1
1
1
1
1
1
1
1
1
1
1
1
1
1
1
1
1
1
1
1
1
1
1
1
1
1
1
1
1
1
1
1
1
1
1
1
1
0.999999
0.999999
0.999983
0.997778
0.941807
0.606619
0.134134
0.0132666
0.00123921
9.64037e-05
5.76754e-06
1.06617e-06
1
1
1
1
1
1
1
1
1
1
1
1
1
1
1
1
1
1
1
1
1
1
1
1
1
1
1
1
1
1
1
1
1
1
1
1
1
0.999999
0.999999
0.999966
0.996658
0.928911
0.576871
0.123871
0.0128428
0.00130447
0.000115852
8.48369e-06
1.80269e-06
4.1209e-07
1
1
1
1
1
1
1
1
1
1
1
1
1
1
1
1
1
1
1
1
1
1
1
1
1
1
1
1
1
1
1
1
1
1
1
0.999999
0.999999
0.999999
0.999928
0.99452
0.90588
0.51969
0.1003
0.0105669
0.00113102
0.000108326
9.00874e-06
2.15375e-06
7.46335e-07
1.44744e-07
1
1
1
1
1
1
1
1
1
1
1
1
1
1
1
1
1
1
1
1
1
1
1
1
1
1
1
1
1
1
1
1
1
1
0.999999
0.999999
0.999999
0.999849
0.990783
0.871094
0.442182
0.0728259
0.00767817
0.000842945
8.36618e-05
7.62096e-06
2.19357e-06
9.25265e-07
2.76388e-07
4.63384e-08
1
1
1
1
1
1
1
1
1
1
1
1
1
1
1
1
1
1
1
1
1
1
1
1
1
1
1
1
1
1
1
1
1
0.999999
0.999999
0.999998
0.999698
0.984812
0.823729
0.353392
0.0483491
0.00505847
0.000554395
5.5279e-05
5.47496e-06
2.03802e-06
9.55742e-07
3.52522e-07
9.15482e-08
1.3563e-08
1
1
1
1
1
1
1
1
1
1
1
1
1
1
1
1
1
1
1
1
1
1
1
1
1
1
1
1
1
1
1
1
0.999999
0.999999
0.999997
0.999459
0.976402
0.765566
0.264904
0.0302166
0.00311275
0.000331918
3.25703e-05
3.59547e-06
1.80481e-06
8.92844e-07
3.69842e-07
1.19758e-07
2.73816e-08
3.68327e-09
1
1
1
1
1
1
1
1
1
1
1
1
1
1
1
1
1
1
1
1
1
1
1
1
1
1
1
1
1
1
1
0.999999
0.999999
0.999997
0.999183
0.966684
0.7023
0.188673
0.0182658
0.00181418
0.000182984
1.7094e-05
2.77962e-06
1.54533e-06
7.84793e-07
3.47194e-07
1.27632e-07
3.67318e-08
7.6331e-09
1.0458e-09
1
1
1
1
1
1
1
1
1
1
1
1
1
1
1
1
1
1
1
1
1
1
1
1
1
1
1
1
1
1
0.999999
0.999999
0.999996
0.999026
0.959297
0.646737
0.135691
0.011313
0.00105271
9.78639e-05
8.85432e-06
2.37012e-06
1.31928e-06
6.77927e-07
3.12202e-07
1.24813e-07
4.19363e-08
1.1592e-08
2.77411e-09
7.73404e-10
1
1
1
1
1
1
1
1
1
1
1
1
1
1
1
1
1
1
1
1
1
1
1
1
1
1
1
1
1
0.999999
0.999999
0.999997
0.999149
0.960013
0.625145
0.1078
0.00752592
0.000623351
5.17569e-05
4.81757e-06
2.07458e-06
1.1597e-06
6.07721e-07
2.93249e-07
1.2887e-07
5.17048e-08
1.97979e-08
8.11472e-09
4.03727e-09
2.40374e-09
1
1
1
1
1
1
1
1
1
1
1
1
1
1
1
1
1
1
1
1
1
1
1
1
1
1
1
1
1
0.999999
0.999998
0.999552
0.971509
0.675364
0.116976
0.00667378
0.000464684
3.30048e-05
3.55263e-06
2.02032e-06
1.17127e-06
6.60504e-07
3.58787e-07
1.88884e-07
1.00618e-07
5.56665e-08
3.31409e-08
2.1335e-08
1.44681e-08
1.00035e-08
1
1
1
1
1
1
1
1
1
1
1
1
1
1
1
1
1
1
1
1
1
1
1
1
1
1
1
1
0.999999
0.999999
0.999964
0.989638
0.806615
0.212547
0.0102674
0.00055395
3.23962e-05
3.37259e-06
2.21549e-06
1.4297e-06
9.43481e-07
6.35068e-07
4.25779e-07
2.80069e-07
1.975e-07
1.40562e-07
1.01545e-07
7.41557e-08
5.45217e-08
4.00211e-08
1
1
1
1
1
1
1
1
1
1
1
1
1
1
1
1
1
1
1
1
1
1
1
1
1
1
1
1
0.999999
0.999998
0.999332
0.954357
0.556155
0.0529336
0.00196594
9.51538e-05
5.76052e-06
2.93414e-06
2.066e-06
1.58009e-06
1.26025e-06
1.04499e-06
8.38736e-07
5.80965e-07
4.66812e-07
3.65626e-07
2.86129e-07
2.22911e-07
1.73414e-07
1.34076e-07
1
1
1
1
1
1
1
1
1
1
1
1
1
1
1
1
1
1
1
1
1
1
1
1
1
1
1
1
0.999999
0.999996
0.998347
0.923052
0.432424
0.0264768
0.000865776
3.52752e-05
3.91917e-06
2.73067e-06
2.34223e-06
2.22485e-06
1.8124e-06
1.67558e-06
1.5904e-06
9.23053e-07
7.87885e-07
6.45717e-07
5.33545e-07
4.40405e-07
3.632e-07
2.9793e-07
1
1
1
1
1
1
1
1
1
1
1
1
1
1
1
1
1
1
1
1
1
1
1
1
1
1
1
1
0.999999
0.999999
0.999799
0.973619
0.668145
0.0969804
0.00354826
0.000140493
4.18829e-06
2.37297e-06
2.34997e-06
2.94517e-06
1.9381e-06
1.63135e-06
1.98602e-06
8.86557e-07
7.50444e-07
6.24763e-07
5.22929e-07
4.45201e-07
3.84631e-07
3.34477e-07
1
1
1
1
1
1
1
1
1
1
1
1
1
1
1
1
1
1
1
1
1
1
1
1
1
1
1
1
1
0.999999
0.999995
0.998682
0.946396
0.571262
0.100208
0.0134196
0.000388603
7.39038e-05
1.33569e-05
5.05204e-06
1.32333e-06
6.81395e-07
3.99144e-07
4.20263e-07
3.52181e-07
2.48275e-07
1.79192e-07
1.41076e-07
1.18844e-07
1.04083e-07
1
1
1
1
1
1
1
1
1
1
1
1
1
1
1
1
1
1
1
1
1
1
1
1
1
1
1
1
1
1
1
0.999999
1
0.995459
0.879146
0.358146
0.0532486
0.00939358
0.00128233
0.000750798
2.52678e-05
1.47349e-05
3.03839e-07
2.90278e-07
1.48671e-07
7.36035e-08
2.00849e-08
1.34634e-08
9.41389e-09
6.4393e-09
1
1
1
1
1
1
1
1
1
1
1
1
1
1
1
1
1
1
1
1
1
1
1
1
1
1
1
1
1
1
1
1
1
0.999999
0.999999
0.996704
0.884069
0.338065
0.0616812
0.0493167
0.00335399
0.00328665
0.000168085
0.00014196
3.42565e-07
3.04321e-07
3.52613e-08
5.27458e-08
2.23901e-08
9.76801e-09
1
1
1
1
1
1
1
1
1
1
1
1
1
1
1
1
1
1
1
1
1
1
1
1
1
1
1
1
1
1
1
1
1
1
0.999999
0.999998
0.99999
0.998593
0.972909
0.849233
0.338598
0.157356
0.039688
0.0239396
0.000644164
0.000510291
1.24099e-05
1.23281e-06
1.69458e-07
3.50785e-08
1
1
1
1
1
1
1
1
1
1
1
1
1
1
1
1
1
1
1
1
1
1
1
1
1
1
1
1
1
1
1
1
1
1
1
1
1
0.999999
0.999997
0.999985
0.998136
0.963055
0.974134
0.815786
0.267273
0.0745507
0.033946
0.0114228
0.000506741
1.34059e-07
1
1
1
1
1
1
1
1
1
1
1
1
1
1
1
1
1
1
1
1
1
1
1
1
1
1
1
1
1
1
1
1
1
1
1
1
1
1
1
0.999999
0.999995
0.999978
0.99888
0.99045
0.976808
0.968711
0.911471
0.889059
0.370581
3.6081e-09
3.032e-08
1.48236e-10
1.16924e-11
7.67415e-14
7.98529e-16
9.41894e-17
2.59312e-17
7.02315e-18
1.79766e-18
4.311e-19
9.61433e-20
1.98002e-20
3.7388e-21
6.42302e-22
9.94948e-23
1.37507e-23
1.67466e-24
1.77195e-25
1.60296e-26
1.21778e-27
7.61622e-29
3.81639e-30
1.47786e-31
4.19257e-33
7.92907e-35
8.11253e-37
2.02902e-39
9.81632e-61
6.00811e-63
3.6596e-65
2.47505e-67
1.78562e-69
1.21231e-71
7.3904e-74
4.1778e-76
2.34825e-78
1.21385e-80
5.97714e-83
2.79294e-85
1.3049e-87
5.90086e-90
2.53748e-92
1.05792e-94
4.29585e-97
1.6846e-99
6.64509e-102
2.48878e-104
8.89013e-107
3.15871e-109
1.53375e-111
1.30467e-08
8.0115e-11
6.42819e-12
5.02506e-14
1.77376e-15
4.76325e-16
1.48754e-16
4.44306e-17
1.2537e-17
3.31694e-18
8.1703e-19
1.86066e-19
3.88913e-20
7.40045e-21
1.26998e-21
1.94402e-22
2.62109e-23
3.06889e-24
3.07127e-25
2.58201e-26
1.78969e-27
9.95146e-29
4.27597e-30
1.343e-31
2.79366e-33
3.09972e-35
8.03932e-38
1.8946e-59
1.21173e-61
7.94124e-64
5.83792e-66
4.58588e-68
3.36958e-70
2.21061e-72
1.34036e-74
8.0686e-77
4.45493e-79
2.33821e-81
1.16222e-83
5.76839e-86
2.76585e-88
1.25839e-90
5.54181e-93
2.37389e-95
9.79958e-98
4.05907e-100
1.59234e-102
5.94567e-105
2.20416e-107
1.13152e-109
5.08142e-09
4.10406e-11
3.25911e-12
4.48006e-14
7.40301e-15
2.59415e-15
8.9476e-16
2.94003e-16
9.13077e-17
2.66137e-17
7.23011e-18
1.81787e-18
4.19821e-19
8.82937e-20
1.67449e-20
2.83137e-21
4.2141e-22
5.44299e-23
6.00596e-24
5.56668e-25
4.25947e-26
2.61717e-27
1.24168e-28
4.29245e-30
9.75057e-32
1.16304e-33
3.09132e-36
2.33009e-57
2.43374e-60
1.70328e-62
1.34954e-64
1.14414e-66
9.02391e-69
6.32309e-71
4.08259e-73
2.61349e-75
1.53077e-77
8.50612e-80
4.46769e-82
2.34018e-84
1.18214e-86
5.65517e-89
2.61488e-91
1.17482e-93
5.07735e-96
2.19696e-98
8.98375e-101
3.49119e-103
1.34501e-105
7.27637e-108
1.7988e-09
2.00005e-11
1.68072e-12
1.05094e-13
3.77799e-14
1.48729e-14
5.63268e-15
2.0321e-15
6.93495e-16
2.2235e-16
6.65163e-17
1.84316e-17
4.69346e-18
1.08846e-18
2.27545e-19
4.23834e-20
6.94307e-21
9.86139e-22
1.19551e-22
1.21665e-23
1.0231e-24
6.91311e-26
3.60132e-27
1.36121e-28
3.34842e-30
4.25087e-32
1.14376e-34
7.61182e-54
4.82185e-59
3.57437e-61
3.02452e-63
2.74177e-65
2.30111e-67
1.70826e-69
1.16543e-71
7.87371e-74
4.85638e-76
2.83651e-78
1.5632e-80
8.5817e-83
4.53656e-85
2.26714e-87
1.09385e-89
5.12422e-92
2.3057e-94
1.03679e-96
4.39801e-99
1.77122e-101
7.06503e-104
4.0167e-106
5.83894e-10
1.07052e-11
1.611e-12
4.67617e-13
2.06464e-13
8.91916e-14
3.69902e-14
1.46247e-14
5.47532e-15
1.92795e-15
6.34e-16
1.93246e-16
5.41416e-17
1.38124e-17
3.1747e-18
6.49608e-19
1.16783e-19
1.81814e-20
2.41284e-21
2.68437e-22
2.46827e-23
1.824e-24
1.03671e-25
4.25211e-27
1.12165e-28
1.4986e-30
4.03097e-33
2.54422e-50
9.33155e-58
7.26286e-60
6.50048e-62
6.24023e-64
5.52304e-66
4.30732e-68
3.07987e-70
2.17872e-72
1.4043e-74
8.55759e-77
4.91269e-79
2.80689e-81
1.54234e-83
8.00027e-86
4.00301e-88
1.94403e-90
9.05817e-93
4.2116e-95
1.84475e-97
7.66986e-100
3.15859e-102
1.88262e-104
1.89941e-10
1.28811e-11
5.05183e-12
2.41907e-12
1.17876e-12
5.55949e-13
2.51899e-13
1.08932e-13
4.46607e-14
1.72403e-14
6.22065e-15
2.08144e-15
6.40206e-16
1.79242e-16
4.5181e-17
1.01289e-17
1.99263e-18
3.38985e-19
4.90681e-20
5.9412e-21
5.94036e-22
4.77087e-23
2.93714e-24
1.29599e-25
3.6242e-27
5.03248e-29
1.3366e-31
7.34674e-47
1.74421e-56
1.41245e-58
1.32408e-60
1.33292e-62
1.23281e-64
1.00144e-66
7.44356e-69
5.4699e-71
3.65638e-73
2.30763e-75
1.37022e-77
8.09244e-80
4.59203e-82
2.45708e-84
1.26758e-86
6.34711e-89
3.0471e-91
1.45812e-93
6.5671e-96
2.81094e-98
1.19524e-100
7.46232e-103
1.24346e-10
4.46751e-11
2.41771e-11
1.31166e-11
6.95389e-12
3.56929e-12
1.76249e-12
8.31865e-13
3.72756e-13
1.5745e-13
6.22129e-14
2.28043e-14
7.68336e-15
2.35532e-15
6.49527e-16
1.59136e-16
3.41674e-17
6.33301e-18
9.96527e-19
1.30761e-19
1.41351e-20
1.22519e-21
8.10314e-23
3.80842e-24
1.1137e-25
1.58467e-27
4.10653e-30
1.80854e-43
3.10701e-55
2.59374e-57
2.5216e-59
2.63624e-61
2.52505e-63
2.11846e-65
1.62365e-67
1.22984e-69
8.46267e-72
5.49241e-74
3.35034e-76
2.0321e-78
1.18353e-80
6.49497e-83
3.43608e-85
1.76515e-87
8.69103e-90
4.26245e-92
1.96652e-94
8.66763e-97
3.84144e-99
2.51618e-101
3.52981e-10
2.07197e-10
1.23943e-10
7.28904e-11
4.18346e-11
2.32883e-11
1.24963e-11
6.42125e-12
3.13774e-12
1.44717e-12
6.24895e-13
2.50411e-13
9.22268e-14
3.08894e-14
9.29932e-15
2.48449e-15
5.80873e-16
1.17027e-16
1.99646e-17
2.8293e-18
3.28919e-19
3.05491e-20
2.15135e-21
1.06493e-22
3.20316e-24
4.59281e-26
1.14807e-28
3.73805e-40
5.19445e-54
4.43011e-56
4.42398e-58
4.75872e-60
4.6797e-62
4.02241e-64
3.15453e-66
2.4449e-68
1.71985e-70
1.14031e-72
7.10118e-75
4.39723e-77
2.614e-79
1.46364e-81
7.90242e-84
4.1465e-86
2.08548e-88
1.04448e-90
4.9207e-93
2.25643e-95
1.08453e-97
7.50545e-100
1.54329e-09
1.00138e-09
6.43505e-10
4.06725e-10
2.51437e-10
1.51154e-10
8.78184e-11
4.89772e-11
2.60292e-11
1.30777e-11
6.15818e-12
2.69254e-12
1.08204e-12
3.95275e-13
1.29697e-13
3.77281e-14
9.59153e-15
2.09754e-15
3.87448e-16
5.92045e-17
7.37682e-18
7.29801e-19
5.42689e-20
2.79601e-21
8.48094e-23
1.19862e-24
2.85443e-27
6.37118e-37
7.97314e-53
6.8878e-55
7.00194e-57
7.68216e-59
7.69415e-61
6.72493e-63
5.35829e-65
4.22086e-67
3.01606e-69
2.03071e-71
1.28378e-73
8.07295e-76
4.87429e-78
2.77197e-80
1.52102e-82
8.12119e-85
4.15816e-87
2.12025e-89
1.01762e-91
5.07884e-94
2.9822e-96
2.20169e-98
6.93818e-09
4.79142e-09
3.2777e-09
2.21063e-09
1.46273e-09
9.44396e-10
5.91313e-10
3.56567e-10
2.05477e-10
1.12197e-10
5.75123e-11
2.74005e-11
1.20035e-11
4.77981e-12
1.70888e-12
5.41284e-13
1.49698e-13
3.55659e-14
7.1231e-15
1.17588e-15
1.57174e-16
1.6538e-17
1.29334e-18
6.87801e-20
2.06421e-21
2.78769e-23
6.21411e-26
8.80548e-34
1.09774e-51
9.53449e-54
9.78986e-56
1.08731e-57
1.10146e-59
9.72655e-62
7.8261e-64
6.2299e-66
4.49779e-68
3.05987e-70
1.9545e-72
1.24269e-74
7.58985e-77
4.3676e-79
2.42747e-81
1.31495e-83
6.83616e-86
3.54081e-88
1.72991e-90
1.09249e-92
9.62654e-95
7.53881e-97
2.92777e-08
2.13219e-08
1.54044e-08
1.10001e-08
7.73358e-09
5.32784e-09
3.57612e-09
2.32243e-09
1.44748e-09
8.57901e-10
4.78673e-10
2.48726e-10
1.18989e-10
5.17796e-11
2.0237e-11
7.00757e-12
2.11835e-12
5.49892e-13
1.20235e-13
2.16259e-14
3.12998e-15
3.53306e-16
2.93004e-17
1.62001e-18
4.82607e-20
6.07459e-22
1.26366e-24
9.81952e-31
1.30078e-50
1.12905e-52
1.16347e-54
1.30007e-56
1.32447e-58
1.1754e-60
9.50246e-63
7.60808e-65
5.52516e-67
3.78223e-69
2.4316e-71
1.55758e-73
9.59148e-76
5.5685e-78
3.1267e-80
1.7147e-82
9.03535e-85
4.74702e-87
2.36852e-89
2.70612e-91
3.84061e-93
3.11207e-95
1.03049e-07
7.88122e-08
5.98308e-08
4.49781e-08
3.34032e-08
2.44282e-08
1.75108e-08
1.22251e-08
8.24494e-09
5.31938e-09
3.2471e-09
1.85329e-09
9.76834e-10
4.69416e-10
2.02954e-10
7.7857e-11
2.61061e-11
7.52511e-12
1.82902e-12
3.65983e-13
5.87523e-14
7.31055e-15
6.64623e-16
3.99778e-17
1.28369e-18
1.67295e-20
4.31437e-23
9.12907e-28
1.28098e-49
1.1073e-51
1.14093e-53
1.27796e-55
1.3049e-57
1.16013e-59
9.39587e-62
7.54516e-64
5.49751e-66
3.7777e-68
2.43909e-70
1.57089e-72
9.73565e-75
5.69353e-77
3.2259e-79
1.78985e-81
9.55657e-84
5.09297e-86
2.64292e-88
8.627e-90
1.64716e-91
1.37069e-93
2.42607e-07
1.96084e-07
1.57104e-07
1.24638e-07
9.7843e-08
7.59305e-08
5.81239e-08
4.37007e-08
3.20535e-08
2.27235e-08
1.53936e-08
9.83827e-09
5.85231e-09
3.19521e-09
1.57843e-09
6.95154e-10
2.68695e-10
8.96034e-11
2.5283e-11
5.89711e-12
1.10546e-12
1.60688e-13
1.71768e-14
1.2381e-15
5.09644e-17
9.34228e-19
4.8279e-21
8.03859e-25
9.40483e-49
8.08265e-51
8.31166e-53
9.31297e-55
9.50948e-57
8.44993e-59
6.8399e-61
5.49631e-63
4.00903e-65
2.75965e-67
1.78604e-69
1.15467e-71
7.19239e-74
4.23282e-76
2.41972e-78
1.36005e-80
7.3738e-83
3.99757e-85
2.37662e-87
3.10796e-88
6.82785e-90
5.90739e-92
2.90447e-07
2.50309e-07
2.13283e-07
1.79424e-07
1.49067e-07
1.22444e-07
9.94776e-08
7.98072e-08
6.29402e-08
4.84146e-08
3.5927e-08
2.53881e-08
1.68475e-08
1.03479e-08
5.79606e-09
2.91534e-09
1.29554e-09
4.9975e-10
1.64053e-10
4.47771e-11
9.87365e-12
1.6925e-12
2.13467e-13
1.81398e-14
8.75235e-16
1.78901e-17
7.56438e-20
5.77542e-46
4.88476e-48
4.24452e-50
4.42844e-52
5.03904e-54
5.21459e-56
4.6856e-58
3.82948e-60
3.10555e-62
2.28326e-64
1.58262e-66
1.03049e-68
6.70247e-71
4.20014e-73
2.48729e-75
1.43544e-77
8.20044e-80
4.53286e-82
2.51531e-84
2.77026e-86
1.28974e-86
3.03975e-88
2.75624e-90
9.29385e-08
8.29978e-08
7.33465e-08
6.40403e-08
5.54475e-08
4.77625e-08
4.07073e-08
3.38105e-08
2.67579e-08
1.98033e-08
1.3393e-08
8.0712e-09
4.25274e-09
1.9252e-09
7.34791e-10
2.31595e-10
5.89138e-11
1.18566e-11
1.85148e-12
2.16682e-13
1.80845e-14
1.87438e-15
3.86023e-16
4.79987e-17
2.65433e-18
4.85188e-20
1.31224e-22
3.71937e-46
3.55225e-48
3.5107e-50
4.22636e-52
5.49472e-54
6.39073e-56
6.36918e-58
5.73367e-60
5.08368e-62
4.05591e-64
3.02803e-66
2.11248e-68
1.46539e-70
9.55816e-73
6.01743e-75
3.67582e-77
2.21478e-79
1.28914e-81
1.15413e-83
4.87589e-84
2.88659e-84
5.90854e-86
4.55927e-88
4.99594e-09
3.69819e-09
2.60256e-09
1.74073e-09
1.1104e-09
6.78511e-10
3.99409e-10
2.27331e-10
1.25275e-10
6.64311e-11
3.41078e-11
1.66341e-11
7.69874e-12
3.63503e-12
2.58931e-12
1.5472e-12
6.07847e-13
1.6683e-13
3.27023e-14
4.6313e-15
4.70541e-16
3.73333e-17
3.87946e-18
4.11065e-19
2.31217e-20
5.61243e-22
1.2555e-23
4.20351e-25
1.24061e-26
3.20252e-28
7.41216e-30
1.57496e-31
3.02982e-33
5.10459e-35
7.20224e-37
7.71065e-39
5.3928e-41
1.87944e-43
1.76959e-46
1.22447e-51
1.368e-63
6.93905e-66
3.43125e-68
1.6721e-70
7.73037e-73
3.35403e-75
1.36462e-77
5.20502e-80
1.8662e-82
6.24921e-85
8.56467e-09
7.53045e-09
6.54993e-09
5.57815e-09
4.66457e-09
3.80156e-09
3.0193e-09
2.30101e-09
1.67958e-09
1.13076e-09
7.55223e-10
4.68087e-10
2.71762e-10
1.4628e-10
7.2359e-11
3.25915e-11
1.32399e-11
4.80428e-12
1.54207e-12
4.3359e-13
1.05824e-13
2.2221e-14
3.97948e-15
6.02584e-16
7.64763e-17
8.06045e-18
6.98494e-19
4.92024e-20
2.77936e-21
1.23802e-22
4.25434e-24
1.09713e-25
2.07426e-27
2.78467e-29
2.53514e-31
1.46447e-33
4.76158e-36
7.01972e-39
2.66012e-42
6.8411e-48
8.26709e-61
3.25709e-63
1.25207e-65
4.72668e-68
1.75021e-70
6.29888e-73
2.1804e-75
7.21547e-78
2.27978e-80
6.82225e-83
3.35429e-08
3.32188e-08
3.34801e-08
3.21019e-08
3.09967e-08
2.87239e-08
2.7269e-08
2.3956e-08
2.14008e-08
1.46368e-08
1.20558e-08
8.52816e-09
5.71465e-09
3.54466e-09
2.01579e-09
1.04021e-09
4.82028e-10
1.98519e-10
7.19292e-11
2.27044e-11
6.18451e-12
1.44052e-12
2.84365e-13
4.7154e-14
6.50854e-15
7.40546e-16
6.87112e-17
5.13388e-18
3.04186e-19
1.40143e-20
4.88853e-22
1.25218e-23
2.33371e-25
3.0725e-27
2.72874e-29
1.53024e-31
4.79375e-34
6.74881e-37
2.3984e-40
5.57741e-46
4.08864e-59
1.58184e-61
5.9667e-64
2.20895e-66
8.01671e-69
2.82624e-71
9.57841e-74
3.10178e-76
9.58538e-79
2.81227e-81
9.88363e-08
7.23829e-08
1.30433e-07
8.63318e-08
1.41639e-07
8.79144e-08
1.65524e-07
1.14911e-07
2.15587e-07
7.16821e-08
1.12519e-07
8.5772e-08
6.66376e-08
4.75231e-08
3.08982e-08
1.81099e-08
9.46345e-09
4.36276e-09
1.75671e-09
6.11967e-10
1.82758e-10
4.63769e-11
9.91313e-12
1.76908e-12
2.61124e-13
3.1553e-14
3.08444e-15
2.40447e-16
1.46764e-17
6.84305e-19
2.35037e-20
5.77922e-22
1.04565e-23
1.34253e-25
1.16361e-27
6.36611e-30
1.93845e-32
2.63884e-35
8.94643e-39
1.93039e-44
9.75085e-58
3.74434e-60
1.40125e-62
5.14483e-65
1.8511e-67
6.46749e-70
2.17143e-72
6.96322e-75
2.12996e-77
6.19527e-80
3.15297e-09
1.3638e-08
2.94315e-08
4.00554e-08
4.57054e-08
4.98448e-08
4.97949e-08
5.40433e-08
5.49508e-08
2.12674e-07
7.08825e-07
4.06171e-07
4.06568e-07
3.53248e-07
2.72835e-07
1.86843e-07
1.12416e-07
5.88979e-08
2.6645e-08
1.03229e-08
3.39729e-09
9.42038e-10
2.18259e-10
4.18778e-11
6.58916e-12
8.40551e-13
8.57343e-14
6.86784e-15
4.2153e-16
1.91003e-17
5.9772e-19
1.31391e-20
2.26188e-22
2.80329e-24
2.35692e-26
1.25377e-28
3.70652e-31
4.8846e-34
1.58742e-37
3.21807e-43
1.25196e-56
4.75559e-59
1.76017e-61
6.39085e-64
2.27361e-66
7.85366e-69
2.60659e-71
8.26148e-74
2.4973e-76
7.19648e-79
3.15409e-116
3.07423e-118
2.375e-120
1.65072e-122
1.08338e-124
6.8563e-127
4.22217e-129
2.54598e-131
1.50833e-133
8.7815e-136
5.00977e-138
2.78631e-140
1.50215e-142
7.81089e-145
3.90526e-147
1.87668e-149
8.69375e-152
3.90915e-154
1.7249e-156
7.57424e-159
3.35785e-161
1.51881e-163
7.03137e-166
3.31691e-168
1.58003e-170
7.52645e-173
3.55619e-175
1.65706e-177
7.586e-180
3.40387e-182
1.49469e-184
6.41607e-187
2.68991e-189
1.10047e-191
4.3893e-194
1.7051e-196
6.44426e-199
2.36679e-201
8.43727e-204
2.9161e-206
9.76117e-209
3.16154e-211
9.90071e-214
2.99618e-216
8.75935e-219
2.47377e-221
6.75047e-224
1.78086e-226
4.54578e-229
1.12398e-231
2.69576e-234
6.28136e-237
1.42426e-239
3.14765e-242
6.78969e-245
1.431e-247
2.94861e-250
5.94062e-253
1.16985e-255
2.25008e-258
4.22295e-261
7.72533e-264
1.37643e-266
2.38651e-269
4.02207e-272
6.58446e-275
1.04652e-277
1.61416e-280
2.41535e-283
3.50532e-286
4.93272e-289
6.72917e-292
8.89736e-295
1.13998e-297
1.41507e-300
1.70146e-303
1.98127e-306
2.23394e-309
2.43879e-312
0
0
0
0
0
0
0
0
0
0
0
0
0
0
0
0
0
0
0
0
0
0
0
0
0
0
0
0
0
0
0
0
0
0
0
0
0
0
0
0
0
0
0
0
0
0
0
0
0
0
0
0
0
0
0
0
0
0
0
0
0
0
0
0
0
0
0
0
0
0
0
0
0
0
0
0
0
0
0
0
0
0
0
0
0
0
0
0
0
0
0
0
0
0
0
0
0
0
0
0
0
0
0
0
0
0
0
0
0
0
0
0
0
0
0
0
0
0
0
0
0
0
0
0
0
0
0
0
0
0
0
0
0
0
0
0
0
0
0
0
0
0
0
0
0
0
0
0
0
0
0
0
0
0
0
0
0
0
0
0
0
0
0
0
0
0
0
0
0
0
0
0
0
0
0
0
0
0
0
0
0
0
0
0
0
0
0
0
0
0
0
0
0
0
0
0
0
0
0
0
0
0
0
0
0
0
0
0
0
0
0
0
0
0
0
0
0
0
0
0
0
2.45055e-114
2.46731e-116
1.94994e-118
1.38159e-120
9.2254e-123
5.93238e-125
3.70603e-127
2.26367e-129
1.35662e-131
7.98005e-134
4.59463e-136
2.57642e-138
1.39904e-140
7.32052e-143
3.67969e-145
1.7761e-147
8.25648e-150
3.72196e-152
1.64491e-154
7.22786e-157
3.20379e-159
1.44793e-161
6.69449e-164
3.15281e-166
1.49901e-168
7.12526e-171
3.35862e-173
1.56089e-175
7.12522e-178
3.18721e-180
1.39492e-182
5.96688e-185
2.49245e-187
1.01582e-189
4.03587e-192
1.56155e-194
5.87776e-197
2.14985e-199
7.63205e-202
2.62676e-204
8.75567e-207
2.8239e-209
8.80594e-212
2.65358e-214
7.72483e-217
2.17234e-219
5.90269e-222
1.55056e-224
3.94104e-227
9.70286e-230
2.31716e-232
5.37599e-235
1.21374e-237
2.67086e-240
5.73652e-243
1.20387e-245
2.47009e-248
4.9556e-251
9.71813e-254
1.86148e-256
3.47937e-259
6.33936e-262
1.12498e-264
1.94283e-267
3.26148e-270
5.3185e-273
8.42031e-276
1.29375e-278
1.92845e-281
2.78797e-284
3.90826e-287
5.31126e-290
6.99581e-293
8.92927e-296
1.10418e-298
1.3226e-301
1.53425e-304
1.72331e-307
1.87398e-310
1.99404e-313
0
0
0
0
0
0
0
0
0
0
0
0
0
0
0
0
0
0
0
0
0
0
0
0
0
0
0
0
0
0
0
0
0
0
0
0
0
0
0
0
0
0
0
0
0
0
0
0
0
0
0
0
0
0
0
0
0
0
0
0
0
0
0
0
0
0
0
0
0
0
0
0
0
0
0
0
0
0
0
0
0
0
0
0
0
0
0
0
0
0
0
0
0
0
0
0
0
0
0
0
0
0
0
0
0
0
0
0
0
0
0
0
0
0
0
0
0
0
0
0
0
0
0
0
0
0
0
0
0
0
0
0
0
0
0
0
0
0
0
0
0
0
0
0
0
0
0
0
0
0
0
0
0
0
0
0
0
0
0
0
0
0
0
0
0
0
0
0
0
0
0
0
0
0
0
0
0
0
0
0
0
0
0
0
0
0
0
0
0
0
0
0
0
0
0
0
0
0
0
0
0
0
0
0
0
0
0
0
0
0
0
0
0
0
0
0
0
0
0
0
1.69087e-112
1.75407e-114
1.41521e-116
1.02039e-118
6.92218e-121
4.51804e-123
2.86047e-125
1.76822e-127
1.0711e-129
6.36116e-132
3.69402e-134
2.08727e-136
1.1411e-138
6.00614e-141
3.03433e-143
1.4708e-145
6.8604e-148
3.10043e-150
1.37251e-152
6.03586e-155
2.67561e-157
1.20858e-159
5.58246e-162
2.62583e-164
1.24664e-166
5.91589e-169
2.78341e-171
1.2909e-173
5.87938e-176
2.62344e-178
1.14513e-180
4.88464e-183
2.03436e-185
8.26578e-188
3.2736e-190
1.2625e-192
4.73641e-195
1.72658e-197
6.10866e-200
2.09527e-202
6.96011e-205
2.23706e-207
6.95183e-210
2.08761e-212
6.05612e-215
1.69714e-217
4.5954e-220
1.20293e-222
3.04673e-225
7.47462e-228
1.77871e-230
4.1121e-233
9.25082e-236
2.02841e-238
4.34114e-241
9.078e-244
1.85603e-246
3.71061e-249
7.2514e-252
1.38421e-254
2.57848e-257
4.68215e-260
8.28122e-263
1.42544e-265
2.38508e-268
3.87667e-271
6.11765e-274
9.36907e-277
1.39204e-279
2.00598e-282
2.80296e-285
3.79689e-288
4.985e-291
6.34216e-294
7.81726e-297
9.33322e-300
1.07915e-302
1.20818e-305
1.30951e-308
1.37393e-311
1.07232e-314
0
0
0
0
0
0
0
0
0
0
0
0
0
0
0
0
0
0
0
0
0
0
0
0
0
0
0
0
0
0
0
0
0
0
0
0
0
0
0
0
0
0
0
0
0
0
0
0
0
0
0
0
0
0
0
0
0
0
0
0
0
0
0
0
0
0
0
0
0
0
0
0
0
0
0
0
0
0
0
0
0
0
0
0
0
0
0
0
0
0
0
0
0
0
0
0
0
0
0
0
0
0
0
0
0
0
0
0
0
0
0
0
0
0
0
0
0
0
0
0
0
0
0
0
0
0
0
0
0
0
0
0
0
0
0
0
0
0
0
0
0
0
0
0
0
0
0
0
0
0
0
0
0
0
0
0
0
0
0
0
0
0
0
0
0
0
0
0
0
0
0
0
0
0
0
0
0
0
0
0
0
0
0
0
0
0
0
0
0
0
0
0
0
0
0
0
0
0
0
0
0
0
0
0
0
0
0
0
0
0
0
0
0
0
0
0
0
0
0
1.02263e-110
1.0902e-112
8.96223e-115
6.56548e-117
4.51939e-119
2.99163e-121
1.91823e-123
1.19928e-125
7.3387e-128
4.39819e-130
2.575e-132
1.46564e-134
8.0649e-137
4.26938e-139
2.1677e-141
1.05519e-143
4.93894e-146
2.23809e-148
9.92654e-151
4.37035e-153
1.93818e-155
8.75395e-158
4.04158e-160
1.8997e-162
9.01119e-165
4.27186e-167
2.0075e-169
9.29777e-172
4.22812e-174
1.88339e-176
8.20559e-179
3.49308e-181
1.45168e-183
5.88507e-186
2.3253e-188
8.94628e-191
3.34804e-193
1.21742e-195
4.29635e-198
1.46988e-200
4.87011e-203
1.56125e-205
4.83909e-208
1.44936e-210
4.19353e-213
1.17208e-215
3.16523e-218
8.26346e-221
2.0873e-223
5.10696e-226
1.21197e-228
2.79418e-231
6.26856e-234
1.37068e-236
2.92531e-239
6.10025e-242
1.24376e-244
2.4797e-247
4.83266e-250
9.20003e-253
1.70917e-255
3.09536e-258
5.46029e-261
9.37426e-264
1.56445e-266
2.53625e-269
3.99203e-272
6.09793e-275
9.03675e-278
1.29886e-280
1.81019e-283
2.4457e-286
3.2026e-289
4.06381e-292
4.99579e-295
5.94877e-298
6.85991e-301
7.65948e-304
8.27936e-307
8.66256e-310
8.7822e-313
0
0
0
0
0
0
0
0
0
0
0
0
0
0
0
0
0
0
0
0
0
0
0
0
0
0
0
0
0
0
0
0
0
0
0
0
0
0
0
0
0
0
0
0
0
0
0
0
0
0
0
0
0
0
0
0
0
0
0
0
0
0
0
0
0
0
0
0
0
0
0
0
0
0
0
0
0
0
0
0
0
0
0
0
0
0
0
0
0
0
0
0
0
0
0
0
0
0
0
0
0
0
0
0
0
0
0
0
0
0
0
0
0
0
0
0
0
0
0
0
0
0
0
0
0
0
0
0
0
0
0
0
0
0
0
0
0
0
0
0
0
0
0
0
0
0
0
0
0
0
0
0
0
0
0
0
0
0
0
0
0
0
0
0
0
0
0
0
0
0
0
0
0
0
0
0
0
0
0
0
0
0
0
0
0
0
0
0
0
0
0
0
0
0
0
0
0
0
0
0
0
0
0
0
0
0
0
0
0
0
0
0
0
0
0
0
0
0
0
5.36233e-109
5.85668e-111
4.8964e-113
3.63923e-115
2.53939e-117
1.70402e-119
1.1061e-121
6.9916e-124
4.32056e-126
2.61232e-128
1.54164e-130
8.83784e-133
4.89459e-135
2.60604e-137
1.3299e-139
6.50218e-142
3.05472e-144
1.3884e-146
6.1719e-149
2.72154e-151
1.20807e-153
5.4587e-156
2.52047e-158
1.18462e-160
5.61802e-163
2.66242e-165
1.2506e-167
5.78866e-170
2.63038e-172
1.17063e-174
5.09489e-177
2.16633e-179
8.99151e-182
3.64012e-184
1.43619e-186
5.51721e-189
2.06152e-191
7.48416e-194
2.63689e-196
9.00646e-199
2.97907e-201
9.53407e-204
2.95001e-206
8.82033e-209
2.54759e-211
7.10783e-214
1.91607e-216
4.99321e-219
1.25894e-221
3.0745e-224
7.28252e-227
1.67575e-229
3.75213e-232
8.18823e-235
1.74408e-237
3.62976e-240
7.3859e-243
1.46962e-245
2.8585e-248
5.43116e-251
1.00704e-253
1.82028e-256
3.20491e-259
5.49181e-262
9.14785e-265
1.48023e-267
2.32545e-270
3.54544e-273
5.24407e-276
7.52282e-279
1.04641e-281
1.411e-284
1.84404e-287
2.33525e-290
2.86503e-293
3.4046e-296
3.91797e-299
4.3655e-302
4.70882e-305
4.9162e-308
4.96736e-311
4.75024e-314
0
0
0
0
0
0
0
0
0
0
0
0
0
0
0
0
0
0
0
0
0
0
0
0
0
0
0
0
0
0
0
0
0
0
0
0
0
0
0
0
0
0
0
0
0
0
0
0
0
0
0
0
0
0
0
0
0
0
0
0
0
0
0
0
0
0
0
0
0
0
0
0
0
0
0
0
0
0
0
0
0
0
0
0
0
0
0
0
0
0
0
0
0
0
0
0
0
0
0
0
0
0
0
0
0
0
0
0
0
0
0
0
0
0
0
0
0
0
0
0
0
0
0
0
0
0
0
0
0
0
0
0
0
0
0
0
0
0
0
0
0
0
0
0
0
0
0
0
0
0
0
0
0
0
0
0
0
0
0
0
0
0
0
0
0
0
0
0
0
0
0
0
0
0
0
0
0
0
0
0
0
0
0
0
0
0
0
0
0
0
0
0
0
0
0
0
0
0
0
0
0
0
0
0
0
0
0
0
0
0
0
0
0
0
0
0
0
0
2.43304e-107
2.71097e-109
2.30069e-111
1.73287e-113
1.22497e-115
8.33278e-118
5.47576e-120
3.49946e-122
2.18395e-124
1.33226e-126
7.92572e-129
4.57697e-131
2.55172e-133
1.36681e-135
7.01268e-138
3.44499e-140
1.62513e-142
7.41194e-145
3.30403e-147
1.46001e-149
6.49074e-152
2.93596e-154
1.35669e-156
6.38041e-159
3.0275e-161
1.4354e-163
6.74471e-166
3.12263e-168
1.41906e-170
6.31512e-173
2.74805e-175
1.16813e-177
4.84654e-180
1.96115e-182
7.7334e-185
2.96902e-187
1.10866e-189
4.02206e-192
1.41605e-194
4.83295e-197
1.59734e-199
5.10791e-202
1.57916e-204
4.71753e-207
1.36137e-209
3.7948e-212
1.02201e-214
2.66073e-217
6.70175e-220
1.63494e-222
3.86846e-225
8.89157e-228
1.98858e-230
4.33449e-233
9.22115e-236
1.91673e-238
3.89534e-241
7.74112e-244
1.50382e-246
2.85371e-249
5.2848e-252
9.54073e-255
1.67774e-257
2.87138e-260
4.77703e-263
7.72016e-266
1.21131e-268
1.84443e-271
2.72456e-274
3.90332e-277
5.42211e-280
7.30129e-283
9.52869e-286
1.20497e-288
1.47617e-291
1.75156e-294
2.0126e-297
2.239e-300
2.41124e-303
2.51333e-306
2.53526e-309
2.47348e-312
0
0
0
0
0
0
0
0
0
0
0
0
0
0
0
0
0
0
0
0
0
0
0
0
0
0
0
0
0
0
0
0
0
0
0
0
0
0
0
0
0
0
0
0
0
0
0
0
0
0
0
0
0
0
0
0
0
0
0
0
0
0
0
0
0
0
0
0
0
0
0
0
0
0
0
0
0
0
0
0
0
0
0
0
0
0
0
0
0
0
0
0
0
0
0
0
0
0
0
0
0
0
0
0
0
0
0
0
0
0
0
0
0
0
0
0
0
0
0
0
0
0
0
0
0
0
0
0
0
0
0
0
0
0
0
0
0
0
0
0
0
0
0
0
0
0
0
0
0
0
0
0
0
0
0
0
0
0
0
0
0
0
0
0
0
0
0
0
0
0
0
0
0
0
0
0
0
0
0
0
0
0
0
0
0
0
0
0
0
0
0
0
0
0
0
0
0
0
0
0
0
0
0
0
0
0
0
0
0
0
0
0
0
0
0
0
0
0
9.57559e-106
1.07908e-107
9.27017e-110
7.06594e-112
5.0574e-114
3.48821e-116
2.32107e-118
1.50004e-120
9.45609e-123
5.82112e-125
3.49187e-127
2.03187e-129
1.14072e-131
6.14924e-134
3.17335e-136
1.56707e-138
7.42663e-141
3.40071e-143
1.52102e-145
6.73945e-148
3.00259e-150
1.36051e-152
6.29608e-155
2.96501e-157
1.40872e-159
6.68733e-162
3.14593e-164
1.45803e-166
6.63217e-169
2.9539e-171
1.28631e-173
5.47109e-176
2.27109e-178
9.1938e-181
3.62666e-183
1.39276e-185
5.2019e-188
1.88754e-190
6.64654e-193
2.26872e-195
7.49901e-198
2.39814e-200
7.41427e-203
2.21489e-205
6.39139e-208
1.78145e-210
4.79717e-213
1.24871e-215
3.14454e-218
7.66937e-221
1.81411e-223
4.1682e-226
9.31832e-229
2.0302e-231
4.31694e-234
8.96867e-237
1.82171e-239
3.61826e-242
7.02502e-245
1.33234e-247
2.46595e-250
4.44922e-253
7.81933e-256
1.33745e-258
2.2237e-261
3.59143e-264
5.63131e-267
8.56869e-270
1.26484e-272
1.81069e-275
2.51324e-278
3.38148e-281
4.40926e-284
5.5708e-287
6.81819e-290
8.08226e-293
9.2773e-296
1.03099e-298
1.10907e-301
1.15469e-304
1.16337e-307
1.13415e-310
1.08803e-313
0
0
0
0
0
0
0
0
0
0
0
0
0
0
0
0
0
0
0
0
0
0
0
0
0
0
0
0
0
0
0
0
0
0
0
0
0
0
0
0
0
0
0
0
0
0
0
0
0
0
0
0
0
0
0
0
0
0
0
0
0
0
0
0
0
0
0
0
0
0
0
0
0
0
0
0
0
0
0
0
0
0
0
0
0
0
0
0
0
0
0
0
0
0
0
0
0
0
0
0
0
0
0
0
0
0
0
0
0
0
0
0
0
0
0
0
0
0
0
0
0
0
0
0
0
0
0
0
0
0
0
0
0
0
0
0
0
0
0
0
0
0
0
0
0
0
0
0
0
0
0
0
0
0
0
0
0
0
0
0
0
0
0
0
0
0
0
0
0
0
0
0
0
0
0
0
0
0
0
0
0
0
0
0
0
0
0
0
0
0
0
0
0
0
0
0
0
0
0
0
0
0
0
0
0
0
0
0
0
0
0
0
0
0
0
0
0
3.36891e-104
3.76258e-106
3.25226e-108
2.50179e-110
1.81086e-112
1.26615e-114
8.53089e-117
5.57571e-119
3.55089e-121
2.20636e-123
1.3349e-125
7.82957e-128
4.42817e-130
2.40348e-132
1.24818e-134
6.19942e-137
2.95334e-139
1.3586e-141
6.10078e-144
2.71231e-146
1.21182e-148
5.50426e-151
2.55286e-153
1.20477e-155
5.73605e-158
2.72858e-160
1.28618e-162
5.97244e-165
2.72162e-167
1.21423e-169
5.29589e-172
2.25583e-174
9.37703e-177
3.80091e-179
1.50116e-181
5.77154e-184
2.15799e-186
7.83853e-189
2.76287e-191
9.43959e-194
3.12295e-196
9.99552e-199
3.09279e-201
9.24621e-204
2.67002e-206
7.44694e-209
2.00656e-211
5.22594e-214
1.31666e-216
3.2126e-219
7.60179e-222
1.74715e-224
3.90679e-227
8.51327e-230
1.81045e-232
3.7616e-235
7.64086e-238
1.51763e-240
2.94651e-243
5.58805e-246
1.0342e-248
1.86581e-251
3.27875e-254
5.60741e-257
9.32168e-260
1.50523e-262
2.35963e-265
3.58948e-268
5.29681e-271
7.57997e-274
1.05168e-276
1.41436e-279
1.84332e-282
2.32763e-285
2.84713e-288
3.37278e-291
3.86877e-294
4.29615e-297
4.61778e-300
4.8036e-303
4.83528e-306
4.70922e-309
4.43452e-312
0
0
0
0
0
0
0
0
0
0
0
0
0
0
0
0
0
0
0
0
0
0
0
0
0
0
0
0
0
0
0
0
0
0
0
0
0
0
0
0
0
0
0
0
0
0
0
0
0
0
0
0
0
0
0
0
0
0
0
0
0
0
0
0
0
0
0
0
0
0
0
0
0
0
0
0
0
0
0
0
0
0
0
0
0
0
0
0
0
0
0
0
0
0
0
0
0
0
0
0
0
0
0
0
0
0
0
0
0
0
0
0
0
0
0
0
0
0
0
0
0
0
0
0
0
0
0
0
0
0
0
0
0
0
0
0
0
0
0
0
0
0
0
0
0
0
0
0
0
0
0
0
0
0
0
0
0
0
0
0
0
0
0
0
0
0
0
0
0
0
0
0
0
0
0
0
0
0
0
0
0
0
0
0
0
0
0
0
0
0
0
0
0
0
0
0
0
0
0
0
0
0
0
0
0
0
0
0
0
0
0
0
0
0
0
0
0
1.12851e-102
1.19406e-104
1.0223e-106
7.87386e-109
5.73677e-111
4.05376e-113
2.75968e-115
1.82135e-117
1.17055e-119
7.33583e-122
4.47445e-124
2.64463e-126
1.50667e-128
8.2343e-131
4.30401e-133
2.15061e-135
1.0302e-137
4.76274e-140
2.14813e-142
9.58681e-145
4.29747e-147
1.95776e-149
9.10532e-152