/*--------------------------------*- C++ -*----------------------------------*\
| =========                 |                                                 |
| \\      /  F ield         | OpenFOAM: The Open Source CFD Toolbox           |
|  \\    /   O peration     | Version:  2.4.0                                 |
|   \\  /    A nd           | Web:      www.OpenFOAM.org                      |
|    \\/     M anipulation  |                                                 |
\*---------------------------------------------------------------------------*/
FoamFile
{
    version     2.0;
    format      ascii;
    class       volScalarField;
    location    "0.2";
    object      p;
}
// * * * * * * * * * * * * * * * * * * * * * * * * * * * * * * * * * * * * * //

dimensions      [1 -1 -2 0 0 0 0];

internalField   nonuniform List<scalar> 
8000
(
-1.52439
-1.53091
-1.53821
-1.54528
-1.55214
-1.55894
-1.56572
-1.57247
-1.57918
-1.58587
-1.59252
-1.59913
-1.60572
-1.61226
-1.61878
-1.62526
-1.6317
-1.63811
-1.64449
-1.65083
-1.65714
-1.6634
-1.66964
-1.67584
-1.68201
-1.68813
-1.69423
-1.70028
-1.70631
-1.71229
-1.71824
-1.72415
-1.73004
-1.73588
-1.74171
-1.74746
-1.75305
-1.75837
-1.76424
-1.77363
-1.78858
-1.78978
-1.71228
-1.53734
-1.40127
-1.35657
-1.3525
-1.35218
-1.3521
-1.3521
-1.5998
-1.60708
-1.61523
-1.62312
-1.6308
-1.63841
-1.646
-1.65358
-1.66112
-1.66864
-1.67613
-1.68359
-1.69102
-1.69842
-1.7058
-1.71314
-1.72045
-1.72773
-1.73499
-1.74221
-1.7494
-1.75656
-1.7637
-1.7708
-1.77787
-1.78492
-1.79193
-1.79891
-1.80587
-1.8128
-1.81969
-1.82656
-1.8334
-1.84024
-1.847
-1.85359
-1.85991
-1.86698
-1.87809
-1.89472
-1.89344
-1.80173
-1.5993
-1.43235
-1.37974
-1.37481
-1.37445
-1.37438
-1.37438
-1.37439
-1.6814
-1.6895
-1.69859
-1.70738
-1.71594
-1.72443
-1.7329
-1.74135
-1.74977
-1.75816
-1.76652
-1.77485
-1.78314
-1.79141
-1.79964
-1.80784
-1.81601
-1.82415
-1.83225
-1.84032
-1.84837
-1.85637
-1.86435
-1.8723
-1.88021
-1.88809
-1.89595
-1.90377
-1.91157
-1.91932
-1.92707
-1.93478
-1.94248
-1.9501
-1.95751
-1.96469
-1.97293
-1.98597
-2.00397
-1.9963
-1.88105
-1.64888
-1.45713
-1.40224
-1.39711
-1.39672
-1.39665
-1.39665
-1.39666
-1.39667
-1.76392
-1.77294
-1.78305
-1.79283
-1.80236
-1.8118
-1.82122
-1.83063
-1.83999
-1.84933
-1.85862
-1.86789
-1.87712
-1.88631
-1.89546
-1.90458
-1.91367
-1.92271
-1.93172
-1.9407
-1.94964
-1.95854
-1.9674
-1.97624
-1.98503
-1.99379
-2.00251
-2.01121
-2.01986
-2.02848
-2.03708
-2.04566
-2.05413
-2.06235
-2.07039
-2.07999
-2.09535
-2.11419
-2.09494
-1.94576
-1.67953
-1.47424
-1.424
-1.41937
-1.41897
-1.41891
-1.41891
-1.41892
-1.41893
-1.41893
-1.85523
-1.86532
-1.87663
-1.88758
-1.89821
-1.90874
-1.91923
-1.92967
-1.94007
-1.95041
-1.9607
-1.97094
-1.98112
-1.99124
-2.00131
-2.01132
-2.02128
-2.03118
-2.04103
-2.05083
-2.06057
-2.07025
-2.07989
-2.08947
-2.09899
-2.10847
-2.11789
-2.12726
-2.13659
-2.14587
-2.15511
-2.16421
-2.17299
-2.1817
-2.19262
-2.21034
-2.22862
-2.19099
-1.99673
-1.69168
-1.4863
-1.44534
-1.44159
-1.44122
-1.44117
-1.44118
-1.44119
-1.44119
-1.44119
-1.44119
-1.94608
-1.95739
-1.97003
-1.98224
-1.99408
-2.0058
-2.01747
-2.02907
-2.0406
-2.05207
-2.06345
-2.07477
-2.08601
-2.09718
-2.10828
-2.11931
-2.13026
-2.14114
-2.15195
-2.16269
-2.17336
-2.18396
-2.19449
-2.20495
-2.21535
-2.22567
-2.23593
-2.24613
-2.25628
-2.26635
-2.27625
-2.28576
-2.29536
-2.30801
-2.32844
-2.3448
-2.28149
-2.03202
-1.6867
-1.49663
-1.4666
-1.46377
-1.46345
-1.46341
-1.46342
-1.46343
-1.46344
-1.46344
-1.46344
-1.46344
-2.05971
-2.07245
-2.08671
-2.10044
-2.11371
-2.12679
-2.13976
-2.15261
-2.16534
-2.17794
-2.19042
-2.20276
-2.21499
-2.22708
-2.23906
-2.25091
-2.26264
-2.27425
-2.28575
-2.29713
-2.30839
-2.31955
-2.33059
-2.34153
-2.35236
-2.36309
-2.37372
-2.38427
-2.3947
-2.40488
-2.41461
-2.42463
-2.43859
-2.4612
-2.47368
-2.37742
-2.06401
-1.67513
-1.50921
-1.48802
-1.48594
-1.48568
-1.48567
-1.48568
-1.48569
-1.48569
-1.48569
-1.48569
-1.4857
-1.4857
-2.17018
-2.18448
-2.20038
-2.21564
-2.23035
-2.24482
-2.25913
-2.27328
-2.28726
-2.30107
-2.3147
-2.32816
-2.34145
-2.35457
-2.36752
-2.3803
-2.39292
-2.40539
-2.4177
-2.42985
-2.44187
-2.45374
-2.46549
-2.47711
-2.48862
-2.50001
-2.51134
-2.52252
-2.53345
-2.54388
-2.55483
-2.57057
-2.59571
-2.60515
-2.47652
-2.08731
-1.6596
-1.52501
-1.50971
-1.50808
-1.50788
-1.50788
-1.5079
-1.5079
-1.5079
-1.50791
-1.50791
-1.50791
-1.50791
-1.50792
-2.3436
-2.35981
-2.37794
-2.3953
-2.41197
-2.42828
-2.44435
-2.46017
-2.47571
-2.49098
-2.50596
-2.52066
-2.53507
-2.54917
-2.56297
-2.57646
-2.58962
-2.60246
-2.61495
-2.62711
-2.6389
-2.65036
-2.66144
-2.67219
-2.68258
-2.6927
-2.70247
-2.71182
-2.72052
-2.72977
-2.74437
-2.76932
-2.77676
-2.62865
-2.16282
-1.66554
-1.54391
-1.53157
-1.53025
-1.5301
-1.53012
-1.53014
-1.53014
-1.53014
-1.53015
-1.53015
-1.53015
-1.53016
-1.53016
-1.53016
-2.47771
-2.49545
-2.51502
-2.53369
-2.55164
-2.56926
-2.58666
-2.60385
-2.62083
-2.63759
-2.65416
-2.67053
-2.68674
-2.70277
-2.71865
-2.73439
-2.74999
-2.76544
-2.78077
-2.79594
-2.81096
-2.82577
-2.84036
-2.85465
-2.86859
-2.882
-2.89458
-2.90581
-2.91646
-2.93095
-2.95535
-2.96763
-2.83329
-2.32072
-1.71453
-1.56635
-1.55364
-1.55234
-1.55221
-1.55224
-1.55226
-1.55227
-1.55227
-1.55228
-1.55229
-1.5523
-1.55231
-1.55231
-1.55232
-1.55233
-2.79634
-2.81545
-2.8367
-2.85677
-2.87568
-2.89384
-2.91138
-2.92828
-2.94454
-2.96013
-2.97505
-2.9893
-3.00287
-3.01576
-3.02796
-3.03947
-3.0503
-3.06046
-3.06996
-3.07885
-3.08715
-3.09494
-3.10229
-3.10935
-3.11629
-3.12344
-3.1281
-3.13064
-3.14544
-3.18287
-3.22051
-3.15701
-2.75456
-1.91878
-1.59718
-1.57603
-1.5744
-1.57428
-1.57433
-1.57438
-1.57441
-1.57443
-1.57446
-1.57448
-1.5745
-1.57452
-1.57454
-1.57456
-1.57457
-1.57459
-2.98401
-3.00347
-3.02464
-3.04475
-3.06409
-3.08309
-3.10189
-3.1205
-3.1389
-3.15712
-3.17517
-3.19307
-3.21083
-3.22848
-3.24601
-3.26345
-3.28081
-3.29809
-3.31528
-3.3324
-3.3494
-3.36628
-3.38298
-3.39947
-3.41558
-3.43102
-3.44537
-3.45975
-3.47947
-3.50954
-3.51679
-3.34834
-2.63862
-1.71288
-1.60215
-1.59723
-1.5968
-1.59679
-1.59681
-1.59682
-1.59682
-1.59682
-1.59682
-1.59683
-1.59683
-1.59684
-1.59684
-1.59685
-1.59686
-1.59687
-3.62444
-3.64516
-3.66867
-3.6909
-3.71174
-3.73163
-3.75077
-3.76917
-3.78682
-3.80373
-3.8199
-3.83533
-3.85001
-3.86393
-3.87709
-3.88946
-3.90101
-3.91174
-3.9216
-3.93056
-3.9386
-3.94568
-3.95177
-3.95685
-3.9608
-3.96334
-3.96434
-3.96585
-3.97453
-3.99251
-3.96757
-3.71321
-2.75726
-1.71964
-1.62662
-1.61982
-1.61934
-1.61931
-1.61928
-1.61926
-1.61925
-1.61924
-1.61924
-1.61924
-1.61924
-1.61924
-1.61925
-1.61925
-1.61926
-1.61927
-3.6924
-3.70726
-3.72243
-3.73665
-3.75051
-3.76441
-3.77841
-3.79251
-3.80672
-3.82104
-3.83548
-3.85006
-3.86478
-3.87963
-3.89463
-3.90977
-3.92504
-3.94044
-3.95596
-3.97159
-3.98731
-4.00311
-4.01897
-4.03489
-4.05078
-4.06641
-4.08138
-4.09666
-4.11781
-4.15286
-4.1765
-4.03165
-3.28741
-2.00774
-1.68841
-1.64247
-1.64115
-1.64105
-1.64101
-1.64084
-1.64105
-1.64105
-1.6411
-1.64117
-1.64123
-1.64128
-1.64134
-1.64139
-1.64144
-1.64148
-5.06948
-5.06884
-5.07122
-5.07557
-5.08118
-5.08792
-5.09581
-5.10488
-5.11512
-5.12652
-5.1391
-5.15283
-5.16774
-5.18381
-5.20106
-5.21951
-5.23915
-5.26001
-5.28209
-5.30543
-5.33002
-5.35592
-5.38312
-5.4117
-5.44166
-5.473
-5.50542
-5.53863
-5.5744
-5.62083
-5.68637
-5.72508
-5.46866
-4.2154
-2.43726
-1.81133
-1.69607
-1.66313
-1.66119
-1.66294
-1.66359
-1.66356
-1.66349
-1.66364
-1.6638
-1.66396
-1.66409
-1.6642
-1.6643
-1.66437
-4.35543
-4.34631
-4.33482
-4.32526
-4.31852
-4.31436
-4.31258
-4.31308
-4.31586
-4.32087
-4.32813
-4.33761
-4.34934
-4.36333
-4.37961
-4.39822
-4.41923
-4.44269
-4.46871
-4.49735
-4.52878
-4.56306
-4.6004
-4.6409
-4.68483
-4.7323
-4.78366
-4.83887
-4.89797
-4.96117
-5.03242
-5.12158
-5.22778
-5.49387
-5.88574
-5.07321
-3.07904
-2.1775
-1.74806
-1.67116
-1.68412
-1.68489
-1.68608
-1.6867
-1.68663
-1.68677
-1.68689
-1.687
-1.68709
-1.68715
-5.82848
-5.81739
-5.81068
-5.80756
-5.80657
-5.80729
-5.80971
-5.81389
-5.81984
-5.82754
-5.83697
-5.84814
-5.86103
-5.87566
-5.89201
-5.91012
-5.92999
-5.95166
-5.97514
-6.00048
-6.02772
-6.05693
-6.08814
-6.12145
-6.15691
-6.19465
-6.23472
-6.27727
-6.32228
-6.36987
-6.4205
-6.47603
-6.53794
-6.59844
-6.63504
-7.13963
-9.37558
-9.44369
-3.92119
-3.18923
-2.02561
-1.92188
-1.74467
-1.70849
-1.70938
-1.70988
-1.71043
-1.7105
-1.71038
-1.7103
-3.20045
-3.21595
-3.22761
-3.23743
-3.24704
-3.25638
-3.26494
-3.27223
-3.27788
-3.28157
-3.28299
-3.28186
-3.27791
-3.2709
-3.26056
-3.24669
-3.22903
-3.2074
-3.18155
-3.15129
-3.11639
-3.07667
-3.03186
-2.98181
-2.92623
-2.86498
-2.79772
-2.72437
-2.64452
-2.55809
-2.4643
-2.36279
-2.25403
-2.14499
-2.0448
-1.92606
-1.70498
-1.53255
-4.77427
-10.8902
-12.0849
-10.2504
-3.4157
-2.27219
-1.87058
-1.80975
-1.74897
-1.73855
-1.73281
-1.73296
-5.67125
-5.63876
-5.61561
-5.60359
-5.59877
-5.59869
-5.60217
-5.60838
-5.61659
-5.6261
-5.63633
-5.64676
-5.65694
-5.6665
-5.6751
-5.68245
-5.68832
-5.69248
-5.69476
-5.695
-5.69309
-5.68891
-5.68241
-5.67351
-5.66219
-5.64843
-5.63226
-5.6137
-5.59284
-5.56975
-5.54462
-5.51761
-5.48897
-5.45846
-5.42532
-5.39075
-5.36828
-5.38691
-5.44252
-5.53913
-5.67733
-6.56946
-5.1753
-14.4319
-14.4587
-10.0485
-5.06772
-2.21925
-1.70792
-1.75519
-0.669624
-1.10833
-1.54781
-1.9251
-2.2527
-2.54583
-2.8108
-3.05023
-3.26616
-3.46057
-3.63522
-3.7916
-3.93095
-4.05433
-4.16261
-4.25653
-4.33672
-4.4037
-4.45789
-4.49963
-4.5292
-4.54677
-4.55251
-4.54643
-4.52855
-4.49871
-4.45679
-4.40241
-4.33524
-4.2546
-4.1599
-4.05004
-3.92402
-3.78013
-3.61677
-3.43149
-3.22225
-2.98529
-2.715
-2.39918
-2.02193
-1.62726
-1.39628
-0.185695
1.62467
2.0125
-4.31061
-5.98733
-8.89439
-1.77517
-1.35211
-1.35211
-1.35211
-1.35211
-1.35211
-1.35211
-1.35211
-1.3521
-1.3521
-1.3521
-1.3521
-1.3521
-1.3521
-1.3521
-1.3521
-1.3521
-1.3521
-1.3521
-1.3521
-1.35209
-1.35209
-1.35209
-1.35209
-1.35209
-1.35209
-1.35209
-1.35209
-1.35209
-1.35208
-1.35208
-1.35208
-1.35208
-1.35208
-1.35208
-1.35208
-1.35208
-1.35208
-1.35208
-1.35207
-1.35207
-1.35207
-1.35207
-1.35207
-1.35207
-1.35207
-1.35207
-1.35207
-1.35207
-1.35207
-1.35206
-1.37439
-1.37439
-1.37439
-1.37439
-1.37438
-1.37438
-1.37438
-1.37438
-1.37438
-1.37438
-1.37438
-1.37438
-1.37438
-1.37438
-1.37438
-1.37438
-1.37438
-1.37438
-1.37438
-1.37438
-1.37438
-1.37438
-1.37438
-1.37438
-1.37438
-1.37438
-1.37438
-1.37438
-1.37438
-1.37437
-1.37437
-1.37437
-1.37437
-1.37437
-1.37437
-1.37437
-1.37437
-1.37437
-1.37437
-1.37437
-1.37437
-1.37437
-1.37437
-1.37437
-1.37437
-1.37437
-1.37437
-1.37437
-1.37437
-1.37437
-1.39666
-1.39666
-1.39666
-1.39666
-1.39666
-1.39666
-1.39666
-1.39666
-1.39667
-1.39667
-1.39667
-1.39667
-1.39667
-1.39667
-1.39667
-1.39667
-1.39667
-1.39667
-1.39667
-1.39667
-1.39667
-1.39667
-1.39667
-1.39667
-1.39667
-1.39667
-1.39667
-1.39667
-1.39667
-1.39667
-1.39667
-1.39667
-1.39667
-1.39667
-1.39667
-1.39667
-1.39667
-1.39667
-1.39667
-1.39667
-1.39667
-1.39667
-1.39667
-1.39667
-1.39667
-1.39667
-1.39667
-1.39667
-1.39667
-1.39667
-1.41893
-1.41893
-1.41893
-1.41893
-1.41893
-1.41893
-1.41893
-1.41893
-1.41893
-1.41893
-1.41893
-1.41893
-1.41893
-1.41893
-1.41894
-1.41894
-1.41894
-1.41894
-1.41894
-1.41894
-1.41894
-1.41894
-1.41894
-1.41894
-1.41894
-1.41894
-1.41894
-1.41895
-1.41895
-1.41895
-1.41895
-1.41895
-1.41895
-1.41895
-1.41895
-1.41895
-1.41895
-1.41895
-1.41895
-1.41895
-1.41896
-1.41896
-1.41896
-1.41896
-1.41896
-1.41896
-1.41896
-1.41896
-1.41896
-1.41896
-1.44119
-1.44119
-1.4412
-1.4412
-1.4412
-1.4412
-1.4412
-1.4412
-1.4412
-1.4412
-1.44121
-1.44121
-1.44121
-1.44121
-1.44121
-1.44121
-1.44121
-1.44122
-1.44122
-1.44122
-1.44122
-1.44122
-1.44122
-1.44123
-1.44123
-1.44123
-1.44123
-1.44123
-1.44123
-1.44123
-1.44124
-1.44124
-1.44124
-1.44124
-1.44124
-1.44124
-1.44125
-1.44125
-1.44125
-1.44125
-1.44125
-1.44125
-1.44125
-1.44126
-1.44126
-1.44126
-1.44126
-1.44126
-1.44126
-1.44127
-1.46344
-1.46344
-1.46344
-1.46344
-1.46345
-1.46345
-1.46345
-1.46345
-1.46345
-1.46346
-1.46346
-1.46346
-1.46346
-1.46347
-1.46347
-1.46347
-1.46347
-1.46347
-1.46348
-1.46348
-1.46348
-1.46348
-1.46349
-1.46349
-1.46349
-1.46349
-1.4635
-1.4635
-1.4635
-1.4635
-1.46351
-1.46351
-1.46351
-1.46351
-1.46352
-1.46352
-1.46352
-1.46352
-1.46353
-1.46353
-1.46353
-1.46353
-1.46354
-1.46354
-1.46354
-1.46354
-1.46355
-1.46355
-1.46355
-1.46355
-1.4857
-1.4857
-1.4857
-1.48571
-1.48571
-1.48571
-1.48572
-1.48572
-1.48572
-1.48572
-1.48573
-1.48573
-1.48573
-1.48574
-1.48574
-1.48574
-1.48575
-1.48575
-1.48575
-1.48576
-1.48576
-1.48576
-1.48577
-1.48577
-1.48577
-1.48578
-1.48578
-1.48578
-1.48579
-1.48579
-1.48579
-1.4858
-1.4858
-1.4858
-1.48581
-1.48581
-1.48581
-1.48582
-1.48582
-1.48583
-1.48583
-1.48583
-1.48584
-1.48584
-1.48584
-1.48585
-1.48585
-1.48585
-1.48586
-1.48586
-1.50792
-1.50792
-1.50793
-1.50793
-1.50794
-1.50794
-1.50794
-1.50795
-1.50795
-1.50796
-1.50796
-1.50797
-1.50797
-1.50797
-1.50798
-1.50798
-1.50799
-1.50799
-1.508
-1.508
-1.50801
-1.50801
-1.50802
-1.50802
-1.50803
-1.50803
-1.50804
-1.50804
-1.50805
-1.50805
-1.50806
-1.50806
-1.50807
-1.50807
-1.50808
-1.50808
-1.50809
-1.50809
-1.5081
-1.5081
-1.50811
-1.50811
-1.50811
-1.50812
-1.50812
-1.50813
-1.50813
-1.50814
-1.50814
-1.50815
-1.53017
-1.53017
-1.53018
-1.53019
-1.53019
-1.5302
-1.5302
-1.53021
-1.53021
-1.53022
-1.53023
-1.53023
-1.53024
-1.53024
-1.53025
-1.53026
-1.53026
-1.53027
-1.53028
-1.53028
-1.53029
-1.5303
-1.5303
-1.53031
-1.53032
-1.53032
-1.53033
-1.53033
-1.53034
-1.53035
-1.53035
-1.53036
-1.53037
-1.53037
-1.53038
-1.53039
-1.53039
-1.5304
-1.5304
-1.53041
-1.53042
-1.53042
-1.53043
-1.53043
-1.53044
-1.53045
-1.53045
-1.53046
-1.53046
-1.53047
-1.55234
-1.55235
-1.55236
-1.55237
-1.55238
-1.55239
-1.5524
-1.55241
-1.55242
-1.55243
-1.55244
-1.55245
-1.55246
-1.55247
-1.55247
-1.55248
-1.55249
-1.5525
-1.55251
-1.55252
-1.55253
-1.55254
-1.55255
-1.55256
-1.55257
-1.55258
-1.55258
-1.55259
-1.5526
-1.55261
-1.55262
-1.55263
-1.55264
-1.55264
-1.55265
-1.55266
-1.55267
-1.55268
-1.55268
-1.55269
-1.5527
-1.55271
-1.55272
-1.55272
-1.55273
-1.55274
-1.55274
-1.55275
-1.55276
-1.55276
-1.5746
-1.57462
-1.57463
-1.57465
-1.57466
-1.57467
-1.57468
-1.5747
-1.57471
-1.57472
-1.57473
-1.57474
-1.57476
-1.57477
-1.57478
-1.57479
-1.5748
-1.57481
-1.57483
-1.57484
-1.57485
-1.57486
-1.57487
-1.57488
-1.57489
-1.5749
-1.57491
-1.57492
-1.57493
-1.57495
-1.57496
-1.57497
-1.57498
-1.57499
-1.57499
-1.575
-1.57501
-1.57502
-1.57503
-1.57504
-1.57505
-1.57506
-1.57507
-1.57507
-1.57508
-1.57509
-1.5751
-1.57511
-1.57511
-1.57512
-1.59688
-1.59689
-1.5969
-1.59691
-1.59692
-1.59693
-1.59695
-1.59696
-1.59697
-1.59698
-1.597
-1.59701
-1.59702
-1.59704
-1.59705
-1.59706
-1.59708
-1.59709
-1.5971
-1.59712
-1.59713
-1.59715
-1.59716
-1.59717
-1.59718
-1.5972
-1.59721
-1.59722
-1.59724
-1.59725
-1.59726
-1.59727
-1.59728
-1.59729
-1.59731
-1.59732
-1.59733
-1.59734
-1.59735
-1.59736
-1.59737
-1.59738
-1.59739
-1.5974
-1.59741
-1.59742
-1.59742
-1.59743
-1.59744
-1.59745
-1.61928
-1.61929
-1.61931
-1.61932
-1.61933
-1.61935
-1.61936
-1.61938
-1.61939
-1.61941
-1.61942
-1.61944
-1.61945
-1.61947
-1.61948
-1.6195
-1.61951
-1.61953
-1.61954
-1.61956
-1.61957
-1.61959
-1.6196
-1.61961
-1.61963
-1.61964
-1.61965
-1.61966
-1.61968
-1.61969
-1.6197
-1.61971
-1.61972
-1.61973
-1.61974
-1.61975
-1.61976
-1.61977
-1.61978
-1.61979
-1.6198
-1.61981
-1.61982
-1.61983
-1.61983
-1.61984
-1.61985
-1.61986
-1.61987
-1.61987
-1.64153
-1.64157
-1.64161
-1.64164
-1.64168
-1.64171
-1.64174
-1.64177
-1.64179
-1.64182
-1.64184
-1.64186
-1.64188
-1.6419
-1.64192
-1.64194
-1.64195
-1.64197
-1.64198
-1.64199
-1.64201
-1.64202
-1.64203
-1.64204
-1.64206
-1.64207
-1.64208
-1.64209
-1.6421
-1.64211
-1.64212
-1.64212
-1.64213
-1.64214
-1.64215
-1.64216
-1.64217
-1.64218
-1.64218
-1.64219
-1.6422
-1.64221
-1.64221
-1.64222
-1.64223
-1.64223
-1.64224
-1.64225
-1.64225
-1.64226
-1.66444
-1.66449
-1.66454
-1.66458
-1.66461
-1.66464
-1.66466
-1.66468
-1.6647
-1.66471
-1.66472
-1.66473
-1.66474
-1.66474
-1.66475
-1.66475
-1.66475
-1.66475
-1.66475
-1.66475
-1.66475
-1.66475
-1.66475
-1.66475
-1.66475
-1.66475
-1.66474
-1.66474
-1.66474
-1.66474
-1.66474
-1.66474
-1.66474
-1.66474
-1.66474
-1.66474
-1.66474
-1.66474
-1.66474
-1.66474
-1.66474
-1.66475
-1.66475
-1.66475
-1.66475
-1.66475
-1.66475
-1.66475
-1.66476
-1.66476
-1.6872
-1.68723
-1.68726
-1.68729
-1.6873
-1.68732
-1.68733
-1.68733
-1.68734
-1.68734
-1.68734
-1.68734
-1.68733
-1.68733
-1.68733
-1.68732
-1.68731
-1.68731
-1.6873
-1.68729
-1.68728
-1.68728
-1.68727
-1.68726
-1.68725
-1.68725
-1.68724
-1.68724
-1.68723
-1.68722
-1.68722
-1.68721
-1.68721
-1.68721
-1.6872
-1.6872
-1.6872
-1.68719
-1.68719
-1.68719
-1.68719
-1.68718
-1.68718
-1.68718
-1.68718
-1.68718
-1.68718
-1.68718
-1.68718
-1.68718
-1.71027
-1.71025
-1.71023
-1.71021
-1.71019
-1.71017
-1.71014
-1.71012
-1.7101
-1.71008
-1.71006
-1.71004
-1.71002
-1.71
-1.70998
-1.70996
-1.70995
-1.70993
-1.70991
-1.7099
-1.70988
-1.70987
-1.70985
-1.70984
-1.70983
-1.70981
-1.7098
-1.70979
-1.70978
-1.70977
-1.70976
-1.70975
-1.70974
-1.70974
-1.70973
-1.70972
-1.70972
-1.70971
-1.7097
-1.7097
-1.70969
-1.70969
-1.70968
-1.70968
-1.70967
-1.70967
-1.70967
-1.70966
-1.70966
-1.70966
-1.73322
-1.73324
-1.73316
-1.73308
-1.73301
-1.73295
-1.7329
-1.73284
-1.73279
-1.73275
-1.7327
-1.73266
-1.73262
-1.73258
-1.73255
-1.73251
-1.73248
-1.73245
-1.73242
-1.7324
-1.73237
-1.73235
-1.73233
-1.73231
-1.73229
-1.73227
-1.73225
-1.73224
-1.73222
-1.73221
-1.7322
-1.73218
-1.73217
-1.73216
-1.73215
-1.73214
-1.73213
-1.73212
-1.73212
-1.73211
-1.7321
-1.7321
-1.73209
-1.73208
-1.73208
-1.73207
-1.73207
-1.73206
-1.73206
-1.73205
-1.75467
-1.75524
-1.75543
-1.7554
-1.75534
-1.75529
-1.75526
-1.75523
-1.75514
-1.75515
-1.75511
-1.75508
-1.75504
-1.75501
-1.75498
-1.75495
-1.75492
-1.75489
-1.75486
-1.75484
-1.75481
-1.75479
-1.75477
-1.75475
-1.75473
-1.75471
-1.75469
-1.75468
-1.75466
-1.75465
-1.75464
-1.75462
-1.75461
-1.7546
-1.75459
-1.75458
-1.75457
-1.75456
-1.75455
-1.75454
-1.75453
-1.75453
-1.75452
-1.75451
-1.75451
-1.7545
-1.75449
-1.75449
-1.75448
-1.75448
-1.77604
-1.776
-1.77604
-1.77614
-1.77624
-1.77633
-1.77641
-1.77648
-1.77654
-1.77659
-1.77642
-1.77661
-1.77664
-1.77667
-1.7767
-1.77672
-1.77674
-1.77676
-1.77677
-1.77678
-1.77679
-1.7768
-1.77681
-1.77681
-1.77682
-1.77682
-1.77683
-1.77683
-1.77683
-1.77683
-1.77683
-1.77683
-1.77683
-1.77683
-1.77683
-1.77683
-1.77683
-1.77683
-1.77683
-1.77683
-1.77682
-1.77682
-1.77682
-1.77682
-1.77682
-1.77681
-1.77681
-1.77681
-1.77681
-1.77681
-1.35206
-1.35206
-1.35206
-1.35206
-1.35206
-1.35206
-1.35206
-1.35206
-1.35206
-1.35206
-1.35206
-1.35206
-1.35206
-1.35206
-1.35206
-1.35206
-1.35206
-1.35206
-1.35205
-1.35205
-1.35205
-1.35205
-1.35205
-1.35205
-1.35205
-1.35205
-1.35205
-1.35205
-1.35205
-1.35205
-1.35205
-1.35205
-1.35205
-1.35205
-1.35205
-1.35205
-1.35205
-1.35205
-1.35205
-1.35205
-1.35205
-1.35205
-1.35205
-1.35205
-1.35205
-1.35205
-1.35205
-1.35205
-1.35205
-1.35205
-1.35205
-1.35205
-1.35204
-1.35204
-1.35204
-1.35204
-1.35204
-1.35204
-1.35204
-1.35204
-1.35204
-1.35204
-1.35204
-1.35204
-1.35204
-1.35204
-1.35204
-1.35204
-1.35204
-1.35204
-1.35204
-1.35204
-1.35204
-1.35204
-1.35204
-1.35204
-1.35204
-1.35204
-1.35204
-1.35204
-1.35204
-1.35204
-1.35204
-1.35204
-1.35204
-1.35204
-1.35204
-1.35204
-1.35204
-1.35204
-1.35204
-1.35204
-1.35204
-1.35204
-1.35204
-1.35204
-1.35204
-1.35204
-1.35204
-1.35204
-1.35204
-1.35205
-1.35205
-1.35205
-1.35205
-1.35205
-1.35205
-1.35205
-1.35205
-1.35205
-1.35205
-1.35205
-1.35205
-1.35205
-1.35205
-1.35205
-1.35205
-1.35205
-1.35205
-1.35205
-1.35205
-1.35205
-1.35205
-1.35205
-1.35205
-1.35205
-1.35205
-1.35205
-1.35205
-1.35205
-1.35205
-1.35205
-1.35205
-1.35205
-1.35205
-1.35205
-1.35205
-1.35205
-1.35205
-1.35205
-1.35205
-1.35205
-1.35205
-1.35205
-1.35206
-1.35206
-1.35206
-1.35206
-1.35206
-1.35206
-1.35206
-1.35206
-1.35206
-1.35206
-1.35206
-1.35206
-1.35206
-1.35206
-1.35206
-1.35206
-1.35206
-1.35206
-1.35206
-1.35206
-1.35206
-1.35206
-1.35206
-1.35206
-1.35206
-1.35206
-1.35206
-1.35206
-1.35206
-1.35206
-1.35206
-1.35206
-1.35207
-1.35207
-1.35207
-1.35207
-1.35207
-1.35207
-1.35207
-1.35207
-1.35207
-1.35207
-1.35207
-1.35207
-1.35207
-1.35207
-1.35207
-1.35207
-1.35207
-1.35207
-1.35207
-1.35207
-1.35207
-1.35207
-1.35207
-1.35207
-1.35207
-1.35207
-1.35207
-1.35207
-1.35207
-1.35207
-1.35207
-1.35207
-1.35207
-1.35207
-1.35207
-1.35207
-1.35207
-1.35207
-1.35207
-1.35207
-1.35207
-1.35207
-1.35208
-1.35208
-1.35208
-1.35208
-1.35208
-1.35208
-1.35208
-1.35208
-1.35208
-1.35208
-1.35208
-1.35208
-1.35208
-1.35208
-1.35208
-1.35208
-1.35208
-1.35208
-1.35208
-1.35208
-1.35208
-1.35208
-1.35208
-1.35208
-1.35208
-1.35208
-1.35208
-1.35208
-1.35208
-1.35208
-1.35208
-1.35207
-1.35207
-1.35207
-1.35207
-1.35207
-1.35207
-1.35207
-1.35207
-1.35207
-1.35207
-1.35207
-1.35207
-1.35207
-1.35207
-1.35207
-1.35207
-1.35207
-1.35207
-1.35207
-1.35207
-1.35207
-1.35207
-1.35207
-1.35207
-1.35207
-1.35207
-1.35207
-1.35206
-1.35206
-1.35206
-1.35206
-1.35206
-1.35206
-1.35206
-1.35206
-1.35206
-1.35206
-1.35206
-1.35206
-1.35206
-1.35205
-1.35205
-1.35205
-1.35205
-1.35205
-1.35205
-1.35205
-1.35205
-1.35205
-1.35205
-1.35204
-1.37437
-1.37437
-1.37437
-1.37436
-1.37436
-1.37436
-1.37436
-1.37436
-1.37436
-1.37436
-1.37436
-1.37436
-1.37436
-1.37436
-1.37436
-1.37436
-1.37436
-1.37436
-1.37436
-1.37436
-1.37436
-1.37436
-1.37436
-1.37436
-1.37436
-1.37436
-1.37436
-1.37436
-1.37436
-1.37436
-1.37436
-1.37436
-1.37436
-1.37436
-1.37436
-1.37436
-1.37436
-1.37436
-1.37436
-1.37436
-1.37436
-1.37436
-1.37436
-1.37436
-1.37436
-1.37436
-1.37436
-1.37436
-1.37436
-1.37436
-1.37436
-1.37436
-1.37436
-1.37436
-1.37436
-1.37436
-1.37436
-1.37436
-1.37436
-1.37436
-1.37436
-1.37436
-1.37436
-1.37436
-1.37436
-1.37436
-1.37436
-1.37437
-1.37437
-1.37437
-1.37437
-1.37437
-1.37437
-1.37437
-1.37437
-1.37437
-1.37437
-1.37437
-1.37437
-1.37437
-1.37437
-1.37437
-1.37437
-1.37437
-1.37437
-1.37437
-1.37437
-1.37437
-1.37437
-1.37437
-1.37437
-1.37437
-1.37437
-1.37437
-1.37437
-1.37437
-1.37437
-1.37437
-1.37437
-1.37438
-1.37438
-1.37438
-1.37438
-1.37438
-1.37438
-1.37438
-1.37438
-1.37438
-1.37438
-1.37438
-1.37438
-1.37438
-1.37438
-1.37438
-1.37438
-1.37438
-1.37438
-1.37438
-1.37438
-1.37438
-1.37438
-1.37438
-1.37439
-1.37439
-1.37439
-1.37439
-1.37439
-1.37439
-1.37439
-1.37439
-1.37439
-1.37439
-1.37439
-1.37439
-1.37439
-1.37439
-1.37439
-1.37439
-1.37439
-1.37439
-1.37439
-1.37439
-1.37439
-1.3744
-1.3744
-1.3744
-1.3744
-1.3744
-1.3744
-1.3744
-1.3744
-1.3744
-1.3744
-1.3744
-1.3744
-1.3744
-1.3744
-1.3744
-1.3744
-1.3744
-1.3744
-1.3744
-1.3744
-1.3744
-1.37441
-1.37441
-1.37441
-1.37441
-1.37441
-1.37441
-1.37441
-1.37441
-1.37441
-1.37441
-1.37441
-1.37441
-1.37441
-1.37441
-1.37441
-1.37441
-1.37441
-1.37441
-1.37441
-1.37441
-1.37441
-1.37441
-1.37442
-1.37442
-1.37442
-1.37442
-1.37442
-1.37442
-1.37442
-1.37442
-1.37442
-1.37442
-1.37442
-1.37442
-1.37442
-1.37442
-1.37442
-1.37442
-1.37442
-1.37442
-1.37442
-1.37442
-1.37442
-1.37442
-1.37442
-1.37442
-1.37442
-1.37442
-1.37442
-1.37442
-1.37442
-1.37442
-1.37443
-1.37443
-1.37443
-1.37443
-1.37443
-1.37443
-1.37443
-1.37443
-1.37443
-1.37443
-1.37443
-1.37443
-1.37443
-1.37443
-1.37443
-1.37443
-1.37443
-1.37443
-1.37443
-1.37443
-1.37443
-1.37443
-1.37443
-1.37443
-1.37443
-1.37443
-1.37443
-1.37443
-1.37443
-1.37443
-1.37443
-1.37443
-1.37443
-1.37443
-1.37443
-1.37443
-1.37443
-1.37443
-1.37443
-1.37443
-1.37443
-1.37443
-1.37443
-1.37443
-1.37443
-1.37442
-1.37442
-1.37442
-1.37442
-1.37442
-1.37442
-1.37442
-1.37442
-1.37442
-1.37442
-1.37442
-1.37442
-1.37442
-1.37442
-1.37442
-1.37442
-1.37442
-1.37442
-1.37442
-1.37442
-1.37441
-1.37441
-1.37441
-1.37441
-1.37441
-1.37441
-1.37441
-1.37441
-1.37441
-1.37441
-1.37441
-1.37441
-1.3744
-1.3744
-1.3744
-1.3744
-1.3744
-1.3744
-1.3744
-1.39667
-1.39667
-1.39667
-1.39667
-1.39667
-1.39667
-1.39667
-1.39667
-1.39667
-1.39667
-1.39667
-1.39667
-1.39667
-1.39667
-1.39667
-1.39667
-1.39667
-1.39667
-1.39667
-1.39667
-1.39667
-1.39667
-1.39667
-1.39668
-1.39668
-1.39668
-1.39668
-1.39668
-1.39668
-1.39668
-1.39668
-1.39668
-1.39668
-1.39668
-1.39668
-1.39668
-1.39668
-1.39668
-1.39668
-1.39668
-1.39668
-1.39668
-1.39668
-1.39668
-1.39668
-1.39668
-1.39668
-1.39668
-1.39668
-1.39668
-1.39668
-1.39668
-1.39668
-1.39669
-1.39669
-1.39669
-1.39669
-1.39669
-1.39669
-1.39669
-1.39669
-1.39669
-1.39669
-1.39669
-1.39669
-1.39669
-1.39669
-1.39669
-1.39669
-1.39669
-1.39669
-1.39669
-1.39669
-1.39669
-1.3967
-1.3967
-1.3967
-1.3967
-1.3967
-1.3967
-1.3967
-1.3967
-1.3967
-1.3967
-1.3967
-1.3967
-1.3967
-1.3967
-1.3967
-1.3967
-1.3967
-1.3967
-1.39671
-1.39671
-1.39671
-1.39671
-1.39671
-1.39671
-1.39671
-1.39671
-1.39671
-1.39671
-1.39671
-1.39671
-1.39671
-1.39671
-1.39671
-1.39671
-1.39672
-1.39672
-1.39672
-1.39672
-1.39672
-1.39672
-1.39672
-1.39672
-1.39672
-1.39672
-1.39672
-1.39672
-1.39672
-1.39672
-1.39672
-1.39672
-1.39673
-1.39673
-1.39673
-1.39673
-1.39673
-1.39673
-1.39673
-1.39673
-1.39673
-1.39673
-1.39673
-1.39673
-1.39673
-1.39673
-1.39673
-1.39674
-1.39674
-1.39674
-1.39674
-1.39674
-1.39674
-1.39674
-1.39674
-1.39674
-1.39674
-1.39674
-1.39674
-1.39674
-1.39674
-1.39674
-1.39674
-1.39675
-1.39675
-1.39675
-1.39675
-1.39675
-1.39675
-1.39675
-1.39675
-1.39675
-1.39675
-1.39675
-1.39675
-1.39675
-1.39675
-1.39675
-1.39675
-1.39676
-1.39676
-1.39676
-1.39676
-1.39676
-1.39676
-1.39676
-1.39676
-1.39676
-1.39676
-1.39676
-1.39676
-1.39676
-1.39676
-1.39676
-1.39676
-1.39676
-1.39676
-1.39676
-1.39677
-1.39677
-1.39677
-1.39677
-1.39677
-1.39677
-1.39677
-1.39677
-1.39677
-1.39677
-1.39677
-1.39677
-1.39677
-1.39677
-1.39677
-1.39677
-1.39677
-1.39677
-1.39677
-1.39677
-1.39677
-1.39677
-1.39677
-1.39678
-1.39678
-1.39678
-1.39678
-1.39678
-1.39678
-1.39678
-1.39678
-1.39678
-1.39678
-1.39678
-1.39678
-1.39678
-1.39678
-1.39678
-1.39678
-1.39678
-1.39678
-1.39678
-1.39678
-1.39678
-1.39678
-1.39678
-1.39678
-1.39678
-1.39678
-1.39678
-1.39678
-1.39678
-1.39678
-1.39678
-1.39678
-1.39678
-1.39678
-1.39678
-1.39678
-1.39678
-1.39678
-1.39678
-1.39678
-1.39678
-1.39678
-1.39678
-1.39678
-1.39678
-1.39678
-1.39678
-1.39678
-1.39678
-1.39678
-1.39678
-1.39678
-1.39678
-1.39678
-1.39678
-1.39678
-1.39678
-1.39678
-1.39677
-1.39677
-1.39677
-1.39677
-1.39677
-1.39677
-1.39677
-1.39677
-1.39677
-1.39677
-1.39677
-1.39677
-1.39677
-1.39677
-1.39677
-1.39677
-1.39676
-1.39676
-1.39676
-1.39676
-1.39676
-1.39676
-1.39676
-1.39676
-1.39676
-1.39676
-1.39676
-1.39675
-1.39675
-1.41896
-1.41897
-1.41897
-1.41897
-1.41897
-1.41897
-1.41897
-1.41897
-1.41897
-1.41897
-1.41897
-1.41897
-1.41897
-1.41897
-1.41897
-1.41897
-1.41897
-1.41897
-1.41897
-1.41898
-1.41898
-1.41898
-1.41898
-1.41898
-1.41898
-1.41898
-1.41898
-1.41898
-1.41898
-1.41898
-1.41898
-1.41898
-1.41898
-1.41898
-1.41898
-1.41899
-1.41899
-1.41899
-1.41899
-1.41899
-1.41899
-1.41899
-1.41899
-1.41899
-1.41899
-1.41899
-1.41899
-1.41899
-1.419
-1.419
-1.419
-1.419
-1.419
-1.419
-1.419
-1.419
-1.419
-1.419
-1.419
-1.419
-1.419
-1.41901
-1.41901
-1.41901
-1.41901
-1.41901
-1.41901
-1.41901
-1.41901
-1.41901
-1.41901
-1.41901
-1.41901
-1.41902
-1.41902
-1.41902
-1.41902
-1.41902
-1.41902
-1.41902
-1.41902
-1.41902
-1.41902
-1.41902
-1.41903
-1.41903
-1.41903
-1.41903
-1.41903
-1.41903
-1.41903
-1.41903
-1.41903
-1.41903
-1.41903
-1.41904
-1.41904
-1.41904
-1.41904
-1.41904
-1.41904
-1.41904
-1.41904
-1.41904
-1.41904
-1.41904
-1.41905
-1.41905
-1.41905
-1.41905
-1.41905
-1.41905
-1.41905
-1.41905
-1.41905
-1.41905
-1.41905
-1.41906
-1.41906
-1.41906
-1.41906
-1.41906
-1.41906
-1.41906
-1.41906
-1.41906
-1.41906
-1.41906
-1.41907
-1.41907
-1.41907
-1.41907
-1.41907
-1.41907
-1.41907
-1.41907
-1.41907
-1.41907
-1.41907
-1.41908
-1.41908
-1.41908
-1.41908
-1.41908
-1.41908
-1.41908
-1.41908
-1.41908
-1.41908
-1.41908
-1.41908
-1.41909
-1.41909
-1.41909
-1.41909
-1.41909
-1.41909
-1.41909
-1.41909
-1.41909
-1.41909
-1.41909
-1.41909
-1.4191
-1.4191
-1.4191
-1.4191
-1.4191
-1.4191
-1.4191
-1.4191
-1.4191
-1.4191
-1.4191
-1.4191
-1.4191
-1.4191
-1.41911
-1.41911
-1.41911
-1.41911
-1.41911
-1.41911
-1.41911
-1.41911
-1.41911
-1.41911
-1.41911
-1.41911
-1.41911
-1.41911
-1.41911
-1.41912
-1.41912
-1.41912
-1.41912
-1.41912
-1.41912
-1.41912
-1.41912
-1.41912
-1.41912
-1.41912
-1.41912
-1.41912
-1.41912
-1.41912
-1.41912
-1.41912
-1.41912
-1.41912
-1.41913
-1.41913
-1.41913
-1.41913
-1.41913
-1.41913
-1.41913
-1.41913
-1.41913
-1.41913
-1.41913
-1.41913
-1.41913
-1.41913
-1.41913
-1.41913
-1.41913
-1.41913
-1.41913
-1.41913
-1.41913
-1.41913
-1.41913
-1.41913
-1.41913
-1.41913
-1.41913
-1.41913
-1.41913
-1.41913
-1.41913
-1.41913
-1.41913
-1.41913
-1.41913
-1.41913
-1.41913
-1.41913
-1.41913
-1.41913
-1.41913
-1.41913
-1.41913
-1.41913
-1.41913
-1.41913
-1.41913
-1.41913
-1.41913
-1.41913
-1.41913
-1.41913
-1.41913
-1.41913
-1.41913
-1.41913
-1.41913
-1.41913
-1.41913
-1.41913
-1.41913
-1.41913
-1.41913
-1.41913
-1.41913
-1.41913
-1.41913
-1.41913
-1.41913
-1.41912
-1.41912
-1.41912
-1.41912
-1.41912
-1.41912
-1.41912
-1.41912
-1.41912
-1.41912
-1.41912
-1.41912
-1.41912
-1.41911
-1.41911
-1.41911
-1.41911
-1.41911
-1.41911
-1.41911
-1.44127
-1.44127
-1.44127
-1.44127
-1.44127
-1.44127
-1.44127
-1.44127
-1.44128
-1.44128
-1.44128
-1.44128
-1.44128
-1.44128
-1.44128
-1.44128
-1.44128
-1.44128
-1.44129
-1.44129
-1.44129
-1.44129
-1.44129
-1.44129
-1.44129
-1.44129
-1.44129
-1.44129
-1.4413
-1.4413
-1.4413
-1.4413
-1.4413
-1.4413
-1.4413
-1.4413
-1.4413
-1.44131
-1.44131
-1.44131
-1.44131
-1.44131
-1.44131
-1.44131
-1.44131
-1.44131
-1.44132
-1.44132
-1.44132
-1.44132
-1.44132
-1.44132
-1.44132
-1.44132
-1.44132
-1.44133
-1.44133
-1.44133
-1.44133
-1.44133
-1.44133
-1.44133
-1.44133
-1.44133
-1.44134
-1.44134
-1.44134
-1.44134
-1.44134
-1.44134
-1.44134
-1.44134