/*--------------------------------*- C++ -*----------------------------------*\
| =========                 |                                                 |
| \\      /  F ield         | OpenFOAM: The Open Source CFD Toolbox           |
|  \\    /   O peration     | Version:  2.4.0                                 |
|   \\  /    A nd           | Web:      www.OpenFOAM.org                      |
|    \\/     M anipulation  |                                                 |
\*---------------------------------------------------------------------------*/
FoamFile
{
    version     2.0;
    format      ascii;
    class       volScalarField;
    location    "0.015";
    object      H;
}
// * * * * * * * * * * * * * * * * * * * * * * * * * * * * * * * * * * * * * //

dimensions      [0 2 -2 0 0 0 0];

internalField   nonuniform List<scalar> 
125
(
-11004.3
-8546.52
-6074.3
-3583.93
-123.274
-93.1288
-94.1037
-94.9229
-95.5876
-96.0996
-96.461
-96.6742
-96.7421
-96.6677
-96.4545
-96.1063
-95.6273
-95.0217
-94.2943
-93.4498
-92.4933
-91.4302
-90.2658
-89.0059
-87.656
-86.2222
-84.7104
-83.1265
-81.4765
-79.7666
-78.0027
-76.1909
-74.3372
-72.4473
-70.5272
-68.5824
-66.6186
-64.641
-62.655
-60.6656
-58.6776
-56.6956
-54.7242
-52.7675
-50.8294
-48.9136
-47.0237
-45.1629
-43.3341
-41.54
-39.7832
-38.0657
-36.3895
-34.7564
-33.1678
-31.625
-30.1289
-28.6803
-27.2798
-25.9278
-24.6244
-23.3697
-22.1634
-21.0053
-19.8948
-18.8313
-17.8142
-16.8425
-15.9154
-15.0316
-14.1903
-13.3901
-12.6298
-11.9082
-11.2238
-3.00633e-07
-2.52644e-07
-2.12047e-07
-1.7775e-07
-1.48799e-07
-1.2442e-07
-1.03871e-07
-8.66225e-08
-7.21248e-08
-5.9984e-08
-4.98176e-08
-4.13101e-08
-3.42145e-08
-2.82997e-08
-2.33717e-08
-1.92769e-08
-1.58736e-08
-1.30545e-08
-1.07198e-08
-8.79159e-09
-7.19895e-09
-5.87655e-09
-4.80985e-09
-3.913e-09
-3.18146e-09
-2.57252e-09
-2.10571e-09
-1.70385e-09
-1.40014e-09
-1.08814e-09
-8.81333e-10
-7.6136e-10
-5.68194e-10
-4.68668e-10
-3.62999e-10
-3.11009e-10
-2.58722e-10
-1.73326e-10
-1.59675e-10
-1.52139e-10
-7.74515e-11
-5.18829e-11
-4.91624e-11
-5.49544e-11
-4.86834e-11
-5.4244e-11
-5.15823e-11
-5.07636e-11
-2.51188e-11
2.43509e-12
)
;

boundaryField
{
    BotWall
    {
        type            zeroGradient;
    }
    FreeStream
    {
        type            zeroGradient;
    }
    FrontNBack
    {
        type            empty;
    }
    LeftSide
    {
        type            symmetryPlane;
    }
    RightSide
    {
        type            symmetryPlane;
    }
    procBoundary9to6
    {
        type            processor;
        value           nonuniform List<scalar> 
50
(
-84.8286
-83.3693
-81.8395
-80.245
-78.5916
-76.885
-75.131
-73.3353
-71.5035
-69.6412
-67.7538
-65.8467
-63.925
-61.9938
-60.058
-58.1222
-56.191
-54.2686
-52.3591
-50.4664
-48.5941
-46.7456
-44.924
-43.1324
-41.3733
-39.6493
-37.9624
-36.3148
-34.708
-33.1436
-31.623
-30.147
-28.7166
-27.3324
-25.9948
-24.7041
-23.4604
-22.2636
-21.1134
-20.0095
-18.9514
-17.9383
-16.9695
-16.0442
-15.1615
-14.3202
-13.5194
-12.7578
-12.0342
-11.3474
)
;
    }
    procBoundary9to7
    {
        type            processor;
        value           nonuniform List<scalar> 
75
(
-11002.5
-8541.26
-6065.58
-3571.84
-120.83
-91.2484
-92.2023
-93.0062
-93.6613
-94.1691
-94.5318
-94.7515
-94.831
-94.7732
-94.5813
-94.2591
-93.8104
-93.2392
-92.55
-91.7474
-90.8362
-89.8214
-88.7082
-87.502
-86.2081
-2.97382e-07
-2.4991e-07
-2.09745e-07
-1.75794e-07
-1.47159e-07
-1.23033e-07
-1.02717e-07
-8.5639e-08
-7.13059e-08
-5.93002e-08
-4.92431e-08
-4.0837e-08
-3.38152e-08
-2.79698e-08
-2.31006e-08
-1.90435e-08
-1.56881e-08
-1.28978e-08
-1.05981e-08
-8.6798e-09
-7.10444e-09
-5.82312e-09
-4.72775e-09
-3.87866e-09
-3.15608e-09
-2.53695e-09
-2.05771e-09
-1.70022e-09
-1.36116e-09
-1.08968e-09
-8.74125e-10
-7.3875e-10
-5.6766e-10
-4.66118e-10
-3.62125e-10
-2.99597e-10
-2.61534e-10
-1.67195e-10
-1.54133e-10
-1.58215e-10
-6.92001e-11
-5.18038e-11
-5.28852e-11
-5.04609e-11
-5.39e-11
-5.00785e-11
-5.06967e-11
-5.20699e-11
-2.28465e-11
2.71072e-12
)
;
    }
    procBoundary9to8
    {
        type            processor;
        value           uniform -10.5757;
    }
    procBoundary9to10
    {
        type            processor;
        value           uniform -3.57278e-07;
    }
    procBoundary9to11
    {
        type            processor;
        value           nonuniform List<scalar> 
75
(
-11003.5
-8544.15
-6070.38
-3578.49
-122.165
-92.2742
-93.2373
-94.0473
-94.7054
-95.2134
-95.5732
-95.7873
-95.8583
-95.7894
-95.584
-95.2457
-94.7785
-94.1867
-93.4747
-92.6475
-91.7098
-90.6669
-89.5241
-88.287
-86.961
-85.552
-84.0657
-82.508
-80.8848
-79.2021
-77.4658
-75.6817
-73.8557
-71.9936
-70.101
-68.1836
-66.2467
-64.2956
-62.3356
-60.3715
-58.4082
-56.4502
-54.5019
-52.5675
-50.6508
-48.7555
-46.8851
-45.0428
-43.2315
-41.4539
-39.7125
-38.0094
-36.3467
-34.7261
-33.1489
-31.6165
-30.13
-28.69
-27.2973
-25.9522
-24.6549
-23.4055
-22.2039
-21.0497
-19.9425
-18.8817
-17.8667
-16.8966
-15.9706
-15.0876
-14.2465
-13.4463
-12.6857
-11.9634
-11.2782
)
;
    }
}


// ************************************************************************* //
