/*--------------------------------*- C++ -*----------------------------------*\
| =========                 |                                                 |
| \\      /  F ield         | OpenFOAM: The Open Source CFD Toolbox           |
|  \\    /   O peration     | Version:  2.4.0                                 |
|   \\  /    A nd           | Web:      www.OpenFOAM.org                      |
|    \\/     M anipulation  |                                                 |
\*---------------------------------------------------------------------------*/
FoamFile
{
    version     2.0;
    format      ascii;
    class       volScalarField;
    location    "1.8";
    object      H;
}
// * * * * * * * * * * * * * * * * * * * * * * * * * * * * * * * * * * * * * //

dimensions      [0 2 -2 0 0 0 0];

internalField   nonuniform List<scalar> 
500
(
-11878.2
-11878.2
-11878.2
-11878.2
-11878.2
-11170.7
-11170.7
-11170.7
-11170.7
-11170.7
-10455.2
-10455.2
-10455.2
-10455.2
-10455.2
-9731.42
-9731.41
-9731.4
-9731.41
-9731.42
-8999.25
-8999.24
-8999.24
-8999.24
-8999.25
-8258.49
-8258.47
-8258.47
-8258.47
-8258.49
-7508.91
-7508.9
-7508.89
-7508.9
-7508.91
-6750.31
-6750.29
-6750.28
-6750.29
-6750.31
-5982.48
-5982.45
-5982.44
-5982.45
-5982.48
-5205.17
-5205.15
-5205.14
-5205.15
-5205.18
-4418.18
-4418.15
-4418.14
-4418.15
-4418.18
-3621.26
-3621.23
-3621.21
-3621.23
-3621.26
-2814.16
-2814.13
-2814.11
-2814.13
-2814.16
-1996.65
-1996.62
-1996.6
-1996.62
-1996.65
-1168.48
-1168.44
-1168.42
-1168.44
-1168.48
-37.7851
-37.7785
-37.7753
-37.7785
-37.7852
-28.4997
-28.4947
-28.4923
-28.4947
-28.4998
-28.837
-28.8321
-28.8296
-28.8321
-28.8371
-29.1613
-29.1564
-29.154
-29.1564
-29.1614
-29.4721
-29.4673
-29.4649
-29.4673
-29.4723
-29.769
-29.7642
-29.7618
-29.7642
-29.7691
-30.0513
-30.0466
-30.0442
-30.0466
-30.0514
-30.3185
-30.3138
-30.3115
-30.3138
-30.3186
-30.5701
-30.5655
-30.5632
-30.5655
-30.5702
-30.8056
-30.8011
-30.7988
-30.8011
-30.8057
-31.0245
-31.0201
-31.0178
-31.0201
-31.0246
-31.2263
-31.2219
-31.2197
-31.2219
-31.2264
-31.4105
-31.4062
-31.404
-31.4062
-31.4106
-31.5766
-31.5723
-31.5701
-31.5723
-31.5767
-31.7241
-31.7199
-31.7178
-31.7199
-31.7242
-31.8526
-31.8485
-31.8464
-31.8485
-31.8527
-31.9617
-31.9576
-31.9555
-31.9576
-31.9618
-32.0508
-32.0468
-32.0447
-32.0468
-32.0509
-32.1197
-32.1158
-32.1137
-32.1158
-32.1198
-32.1679
-32.164
-32.162
-32.164
-32.168
-32.195
-32.1912
-32.1893
-32.1912
-32.1951
-32.2008
-32.1971
-32.1952
-32.1971
-32.2009
-32.1849
-32.1813
-32.1794
-32.1813
-32.185
-32.147
-32.1435
-32.1416
-32.1435
-32.1471
-32.0869
-32.0834
-32.0816
-32.0834
-32.087
-32.0043
-32.0009
-31.9992
-32.001
-32.0044
-31.8991
-31.8958
-31.8941
-31.8958
-31.8992
-31.7711
-31.7679
-31.7662
-31.7679
-31.7712
-31.6202
-31.6171
-31.6154
-31.6171
-31.6203
-31.4463
-31.4432
-31.4416
-31.4432
-31.4464
-31.2494
-31.2464
-31.2448
-31.2464
-31.2494
-31.0294
-31.0264
-31.0249
-31.0265
-31.0294
-30.7863
-30.7835
-30.782
-30.7835
-30.7864
-30.5204
-30.5177
-30.5162
-30.5177
-30.5205
-30.2317
-30.2291
-30.2277
-30.2291
-30.2318
-29.9204
-29.9178
-29.9165
-29.9178
-29.9204
-29.5867
-29.5842
-29.5829
-29.5842
-29.5867
-29.2308
-29.2284
-29.2271
-29.2284
-29.2309
-28.8531
-28.8508
-28.8496
-28.8508
-28.8532
-28.454
-28.4518
-28.4506
-28.4518
-28.4541
-28.0338
-28.0317
-28.0306
-28.0317
-28.0339
-27.5931
-27.5911
-27.59
-27.5911
-27.5931
-27.1323
-27.1303
-27.1293
-27.1303
-27.1323
-26.6519
-26.6501
-26.6491
-26.6501
-26.652
-26.1527
-26.1509
-26.1499
-26.1509
-26.1527
-25.6351
-25.6334
-25.6325
-25.6334
-25.6352
-25.1
-25.0983
-25.0975
-25.0983
-25.1
-24.5479
-24.5464
-24.5456
-24.5464
-24.548
-23.9798
-23.9784
-23.9776
-23.9784
-23.9799
-23.3964
-23.395
-23.3943
-23.395
-23.3964
-22.7985
-22.7972
-22.7966
-22.7972
-22.7986
-22.1871
-22.1859
-22.1852
-22.1859
-22.1871
-21.563
-21.5618
-21.5612
-21.5618
-21.563
-20.9271
-20.926
-20.9254
-20.926
-20.9271
-20.2804
-20.2794
-20.2789
-20.2794
-20.2804
-19.6239
-19.623
-19.6225
-19.623
-19.6239
-18.9585
-18.9577
-18.9572
-18.9577
-18.9586
-18.2853
-18.2845
-18.2841
-18.2845
-18.2853
-17.6053
-17.6045
-17.6041
-17.6045
-17.6053
-16.9194
-16.9187
-16.9183
-16.9187
-16.9194
-16.2286
-16.228
-16.2276
-16.228
-16.2286
-15.534
-15.5334
-15.5331
-15.5334
-15.534
-14.8364
-14.8359
-14.8356
-14.8359
-14.8364
-14.137
-14.1365
-14.1363
-14.1365
-14.137
-13.4366
-13.4361
-13.4359
-13.4361
-13.4366
-12.736
-12.7357
-12.7355
-12.7356
-12.736
-12.0363
-12.036
-12.0358
-12.036
-12.0363
-11.3382
-11.3379
-11.3378
-11.3379
-11.3382
-10.6426
-10.6423
-10.6422
-10.6423
-10.6426
-9.9501
-9.94986
-9.94974
-9.94986
-9.9501
-9.26154
-9.26132
-9.26122
-9.26132
-9.26153
-8.57752
-8.57733
-8.57724
-8.57733
-8.57752
-7.89866
-7.8985
-7.89842
-7.89849
-7.89865
-7.2255
-7.22536
-7.22529
-7.22535
-7.22549
-6.55853
-6.55841
-6.55835
-6.55841
-6.55852
-5.89818
-5.89808
-5.89803
-5.89808
-5.89818
-5.24483
-5.24474
-5.2447
-5.24474
-5.24482
-4.59878
-4.59871
-4.59868
-4.59871
-4.59878
-3.96031
-3.96025
-3.96023
-3.96025
-3.96031
-3.32961
-3.32957
-3.32955
-3.32957
-3.32961
-2.70685
-2.70682
-2.7068
-2.70681
-2.70685
-2.09213
-2.0921
-2.09209
-2.0921
-2.09213
-1.48552
-1.48551
-1.4855
-1.4855
-1.48552
-0.887067
-0.887057
-0.887052
-0.887056
-0.887066
-0.296771
-0.296767
-0.296766
-0.296767
-0.296771
)
;

boundaryField
{
    BotWall
    {
        type            zeroGradient;
    }
    FreeStream
    {
        type            zeroGradient;
    }
    FrontNBack
    {
        type            empty;
    }
    LeftSide
    {
        type            symmetryPlane;
    }
    RightSide
    {
        type            symmetryPlane;
    }
}


// ************************************************************************* //
