/*--------------------------------*- C++ -*----------------------------------*\
| =========                 |                                                 |
| \\      /  F ield         | OpenFOAM: The Open Source CFD Toolbox           |
|  \\    /   O peration     | Version:  2.4.0                                 |
|   \\  /    A nd           | Web:      www.OpenFOAM.org                      |
|    \\/     M anipulation  |                                                 |
\*---------------------------------------------------------------------------*/
FoamFile
{
    version     2.0;
    format      ascii;
    class       volScalarField;
    location    "1.8";
    object      p;
}
// * * * * * * * * * * * * * * * * * * * * * * * * * * * * * * * * * * * * * //

dimensions      [1 -1 -2 0 0 0 0];

internalField   nonuniform List<scalar> 
500
(
0.470579
0.470594
0.47057
0.470593
0.470579
0.440836
0.440854
0.440832
0.440854
0.440836
0.410658
0.410674
0.410651
0.410674
0.410657
0.380209
0.380227
0.380204
0.380226
0.380209
0.349415
0.349433
0.34941
0.349433
0.349415
0.31858
0.318599
0.318576
0.318598
0.318579
0.287331
0.28735
0.287327
0.287349
0.287331
0.253953
0.25397
0.253948
0.25397
0.253952
0.214522
0.214537
0.214514
0.214536
0.214522
0.174526
0.174544
0.174521
0.174544
0.174525
0.181576
0.181625
0.181603
0.181624
0.181576
0.32956
0.329665
0.329656
0.329664
0.329559
0.482644
0.482713
0.482731
0.482713
0.482642
-0.586084
-0.586393
-0.586416
-0.586393
-0.586084
-5.13584
-5.13683
-5.13712
-5.13683
-5.13582
-10.2174
-10.2186
-10.2194
-10.2186
-10.2173
-0.0157252
-0.0157249
-0.0157248
-0.0157249
-0.0157252
-0.00728717
-0.00728745
-0.00728748
-0.00728745
-0.00728717
-0.00929842
-0.00929838
-0.00929839
-0.00929838
-0.00929842
-0.0106246
-0.0106245
-0.0106245
-0.0106245
-0.0106246
-0.0113316
-0.0113316
-0.0113316
-0.0113316
-0.0113316
-0.0118971
-0.0118972
-0.0118972
-0.0118972
-0.0118971
-0.0124929
-0.0124929
-0.0124929
-0.0124929
-0.0124929
-0.0131196
-0.0131196
-0.0131196
-0.0131196
-0.0131196
-0.0137589
-0.0137589
-0.0137589
-0.0137589
-0.0137589
-0.0144043
-0.0144043
-0.0144043
-0.0144043
-0.0144043
-0.015056
-0.015056
-0.015056
-0.015056
-0.015056
-0.0157147
-0.0157147
-0.0157147
-0.0157147
-0.0157147
-0.0163808
-0.0163808
-0.0163808
-0.0163808
-0.0163808
-0.0170544
-0.0170544
-0.0170544
-0.0170544
-0.0170544
-0.0177355
-0.0177355
-0.0177355
-0.0177355
-0.0177355
-0.0184242
-0.0184242
-0.0184242
-0.0184242
-0.0184242
-0.0191206
-0.0191206
-0.0191206
-0.0191206
-0.0191206
-0.0198247
-0.0198247
-0.0198247
-0.0198247
-0.0198247
-0.0205367
-0.0205367
-0.0205367
-0.0205367
-0.0205367
-0.0212567
-0.0212567
-0.0212567
-0.0212567
-0.0212567
-0.0219847
-0.0219847
-0.0219847
-0.0219847
-0.0219847
-0.0227208
-0.0227208
-0.0227208
-0.0227208
-0.0227208
-0.0234652
-0.0234652
-0.0234652
-0.0234652
-0.0234652
-0.0242178
-0.0242178
-0.0242178
-0.0242178
-0.0242178
-0.0249788
-0.0249788
-0.0249788
-0.0249788
-0.0249788
-0.0257484
-0.0257484
-0.0257484
-0.0257484
-0.0257484
-0.0265265
-0.0265265
-0.0265265
-0.0265265
-0.0265265
-0.0273133
-0.0273133
-0.0273133
-0.0273133
-0.0273133
-0.0281089
-0.0281089
-0.0281089
-0.0281089
-0.0281089
-0.0289133
-0.0289133
-0.0289133
-0.0289133
-0.0289133
-0.0297268
-0.0297268
-0.0297268
-0.0297268
-0.0297268
-0.0305493
-0.0305493
-0.0305493
-0.0305493
-0.0305493
-0.031381
-0.031381
-0.031381
-0.031381
-0.031381
-0.0322219
-0.0322219
-0.0322219
-0.0322219
-0.0322219
-0.0330723
-0.0330723
-0.0330723
-0.0330723
-0.0330723
-0.0339321
-0.0339321
-0.0339321
-0.0339321
-0.0339321
-0.0348016
-0.0348016
-0.0348016
-0.0348016
-0.0348016
-0.0356807
-0.0356807
-0.0356807
-0.0356807
-0.0356807
-0.0365697
-0.0365697
-0.0365697
-0.0365697
-0.0365697
-0.0374686
-0.0374686
-0.0374686
-0.0374686
-0.0374686
-0.0383775
-0.0383775
-0.0383775
-0.0383775
-0.0383775
-0.0392965
-0.0392965
-0.0392965
-0.0392965
-0.0392965
-0.0402258
-0.0402258
-0.0402258
-0.0402258
-0.0402258
-0.0411655
-0.0411655
-0.0411655
-0.0411655
-0.0411655
-0.0421156
-0.0421156
-0.0421156
-0.0421156
-0.0421156
-0.0430764
-0.0430764
-0.0430764
-0.0430764
-0.0430764
-0.0440479
-0.0440479
-0.0440479
-0.0440479
-0.0440479
-0.0450302
-0.0450302
-0.0450302
-0.0450302
-0.0450302
-0.0460235
-0.0460235
-0.0460235
-0.0460235
-0.0460235
-0.0470278
-0.0470278
-0.0470278
-0.0470278
-0.0470278
-0.0480434
-0.0480434
-0.0480434
-0.0480434
-0.0480434
-0.0490703
-0.0490703
-0.0490703
-0.0490703
-0.0490703
-0.0501087
-0.0501087
-0.0501087
-0.0501087
-0.0501087
-0.0511586
-0.0511586
-0.0511586
-0.0511586
-0.0511586
-0.0522203
-0.0522203
-0.0522203
-0.0522203
-0.0522203
-0.0532938
-0.0532938
-0.0532938
-0.0532938
-0.0532938
-0.0543793
-0.0543793
-0.0543793
-0.0543793
-0.0543793
-0.0554769
-0.0554769
-0.0554769
-0.0554769
-0.0554769
-0.0565868
-0.0565868
-0.0565868
-0.0565868
-0.0565868
-0.057709
-0.057709
-0.057709
-0.057709
-0.057709
-0.0588438
-0.0588438
-0.0588438
-0.0588438
-0.0588438
-0.0599912
-0.0599912
-0.0599912
-0.0599912
-0.0599912
-0.0611514
-0.0611514
-0.0611514
-0.0611514
-0.0611514
-0.0623246
-0.0623246
-0.0623246
-0.0623246
-0.0623246
-0.0635109
-0.0635109
-0.0635109
-0.0635109
-0.0635109
-0.0647104
-0.0647104
-0.0647104
-0.0647104
-0.0647104
-0.0659233
-0.0659233
-0.0659233
-0.0659233
-0.0659233
-0.0671497
-0.0671497
-0.0671497
-0.0671497
-0.0671497
-0.0683898
-0.0683898
-0.0683898
-0.0683898
-0.0683898
-0.0696438
-0.0696438
-0.0696438
-0.0696438
-0.0696438
-0.0709117
-0.0709117
-0.0709117
-0.0709117
-0.0709117
-0.0721938
-0.0721938
-0.0721938
-0.0721938
-0.0721938
-0.0734902
-0.0734902
-0.0734902
-0.0734902
-0.0734902
-0.0748011
-0.0748011
-0.0748011
-0.0748011
-0.0748011
-0.0761266
-0.0761266
-0.0761266
-0.0761266
-0.0761266
-0.0774669
-0.0774669
-0.0774669
-0.0774669
-0.0774669
-0.0788221
-0.0788221
-0.0788221
-0.0788221
-0.0788221
-0.0801925
-0.0801925
-0.0801925
-0.0801925
-0.0801925
-0.0815781
-0.0815781
-0.0815781
-0.0815781
-0.0815781
-0.0829792
-0.0829792
-0.0829792
-0.0829792
-0.0829792
-0.084396
-0.084396
-0.084396
-0.084396
-0.084396
-0.0858285
-0.0858285
-0.0858285
-0.0858285
-0.0858285
-0.0872771
-0.0872771
-0.0872771
-0.0872771
-0.0872771
-0.0887418
-0.0887418
-0.0887418
-0.0887418
-0.0887418
)
;

boundaryField
{
    BotWall
    {
        type            calculated;
        value           nonuniform List<scalar> 5(0.485399 0.485414 0.485391 0.485414 0.485399);
    }
    FreeStream
    {
        type            calculated;
        value           nonuniform List<scalar> 5(-0.0894782 -0.0894782 -0.0894782 -0.0894782 -0.0894782);
    }
    FrontNBack
    {
        type            empty;
    }
    LeftSide
    {
        type            symmetryPlane;
    }
    RightSide
    {
        type            symmetryPlane;
    }
}


// ************************************************************************* //
