/*--------------------------------*- C++ -*----------------------------------*\
| =========                 |                                                 |
| \\      /  F ield         | OpenFOAM: The Open Source CFD Toolbox           |
|  \\    /   O peration     | Version:  2.4.0                                 |
|   \\  /    A nd           | Web:      www.OpenFOAM.org                      |
|    \\/     M anipulation  |                                                 |
\*---------------------------------------------------------------------------*/
FoamFile
{
    version     2.0;
    format      ascii;
    class       volScalarField;
    location    "1.8";
    object      p_rgh;
}
// * * * * * * * * * * * * * * * * * * * * * * * * * * * * * * * * * * * * * //

dimensions      [1 -1 -2 0 0 0 0];

internalField   nonuniform List<scalar> 
500
(
0.485399
0.485414
0.485391
0.485414
0.485399
0.485462
0.48548
0.485458
0.48548
0.485462
0.485422
0.485439
0.485416
0.485439
0.485422
0.485449
0.485467
0.485443
0.485466
0.485449
0.48547
0.485488
0.485465
0.485487
0.48547
0.485793
0.485812
0.48579
0.485812
0.485793
0.486051
0.48607
0.486047
0.486069
0.486051
0.484531
0.484549
0.484526
0.484548
0.48453
0.477314
0.477329
0.477306
0.477328
0.477313
0.469891
0.469909
0.469886
0.469909
0.46989
0.509878
0.509926
0.509905
0.509926
0.509877
0.691166
0.691271
0.691261
0.69127
0.691165
0.877926
0.877994
0.878013
0.877994
0.877923
-0.156751
-0.15706
-0.157084
-0.157061
-0.156751
-4.67207
-4.67306
-4.67335
-4.67306
-4.67206
-10.0323
-10.0335
-10.0343
-10.0335
-10.0323
-0.0068837
-0.00688341
-0.00688336
-0.00688341
-0.0068837
0.00214392
0.00214364
0.00214361
0.00214364
0.00214392
0.000728867
0.000728909
0.000728905
0.00072891
0.000728867
5.58845e-06
5.63994e-06
5.64138e-06
5.64012e-06
5.58825e-06
-9.19053e-05
-9.19029e-05
-9.19024e-05
-9.19027e-05
-9.19054e-05
-4.10379e-05
-4.10483e-05
-4.10488e-05
-4.10481e-05
-4.1038e-05
-1.35147e-05
-1.35193e-05
-1.352e-05
-1.35191e-05
-1.35148e-05
-1.00267e-05
-1.0027e-05
-1.00276e-05
-1.00268e-05
-1.00268e-05
-1.20338e-05
-1.20335e-05
-1.20341e-05
-1.20333e-05
-1.20339e-05
-1.31041e-05
-1.31044e-05
-1.3105e-05
-1.31042e-05
-1.31042e-05
-1.32199e-05
-1.32204e-05
-1.3221e-05
-1.32202e-05
-1.32199e-05
-1.31203e-05
-1.31209e-05
-1.31215e-05
-1.31207e-05
-1.31204e-05
-1.30587e-05
-1.30592e-05
-1.30599e-05
-1.3059e-05
-1.30587e-05
-1.30347e-05
-1.30353e-05
-1.30359e-05
-1.30351e-05
-1.30348e-05
-1.3019e-05
-1.30196e-05
-1.30202e-05
-1.30194e-05
-1.30191e-05
-1.30016e-05
-1.30021e-05
-1.30028e-05
-1.30019e-05
-1.30016e-05
-1.29824e-05
-1.29829e-05
-1.29836e-05
-1.29827e-05
-1.29824e-05
-1.29626e-05
-1.29632e-05
-1.29639e-05
-1.2963e-05
-1.29626e-05
-1.29427e-05
-1.29433e-05
-1.2944e-05
-1.29431e-05
-1.29427e-05
-1.29226e-05
-1.29232e-05
-1.29239e-05
-1.2923e-05
-1.29227e-05
-1.29023e-05
-1.29029e-05
-1.29036e-05
-1.29027e-05
-1.29024e-05
-1.28818e-05
-1.28824e-05
-1.28831e-05
-1.28822e-05
-1.28818e-05
-1.28611e-05
-1.28617e-05
-1.28623e-05
-1.28615e-05
-1.28611e-05
-1.28401e-05
-1.28407e-05
-1.28414e-05
-1.28405e-05
-1.28401e-05
-1.28189e-05
-1.28195e-05
-1.28201e-05
-1.28193e-05
-1.28189e-05
-1.27974e-05
-1.2798e-05
-1.27987e-05
-1.27978e-05
-1.27974e-05
-1.27757e-05
-1.27763e-05
-1.2777e-05
-1.27761e-05
-1.27757e-05
-1.27538e-05
-1.27543e-05
-1.2755e-05
-1.27542e-05
-1.27538e-05
-1.27316e-05
-1.27321e-05
-1.27328e-05
-1.2732e-05
-1.27316e-05
-1.27091e-05
-1.27097e-05
-1.27103e-05
-1.27095e-05
-1.27091e-05
-1.26864e-05
-1.2687e-05
-1.26876e-05
-1.26868e-05
-1.26864e-05
-1.26635e-05
-1.2664e-05
-1.26647e-05
-1.26639e-05
-1.26635e-05
-1.26403e-05
-1.26408e-05
-1.26414e-05
-1.26407e-05
-1.26402e-05
-1.26168e-05
-1.26173e-05
-1.2618e-05
-1.26172e-05
-1.26168e-05
-1.25931e-05
-1.25936e-05
-1.25942e-05
-1.25934e-05
-1.2593e-05
-1.25691e-05
-1.25696e-05
-1.25702e-05
-1.25694e-05
-1.2569e-05
-1.25448e-05
-1.25453e-05
-1.25459e-05
-1.25452e-05
-1.25448e-05
-1.25203e-05
-1.25208e-05
-1.25214e-05
-1.25206e-05
-1.25202e-05
-1.24954e-05
-1.2496e-05
-1.24965e-05
-1.24958e-05
-1.24954e-05
-1.24704e-05
-1.24709e-05
-1.24714e-05
-1.24707e-05
-1.24703e-05
-1.2445e-05
-1.24455e-05
-1.2446e-05
-1.24453e-05
-1.24449e-05
-1.24193e-05
-1.24198e-05
-1.24203e-05
-1.24197e-05
-1.24193e-05
-1.23934e-05
-1.23938e-05
-1.23944e-05
-1.23937e-05
-1.23933e-05
-1.23672e-05
-1.23676e-05
-1.23681e-05
-1.23675e-05
-1.23671e-05
-1.23406e-05
-1.23411e-05
-1.23416e-05
-1.23409e-05
-1.23406e-05
-1.23138e-05
-1.23142e-05
-1.23147e-05
-1.23141e-05
-1.23138e-05
-1.22867e-05
-1.22871e-05
-1.22876e-05
-1.2287e-05
-1.22866e-05
-1.22593e-05
-1.22597e-05
-1.22601e-05
-1.22595e-05
-1.22592e-05
-1.22315e-05
-1.22319e-05
-1.22324e-05
-1.22318e-05
-1.22315e-05
-1.22035e-05
-1.22039e-05
-1.22043e-05
-1.22038e-05
-1.22035e-05
-1.21752e-05
-1.21755e-05
-1.21759e-05
-1.21754e-05
-1.21751e-05
-1.21465e-05
-1.21468e-05
-1.21472e-05
-1.21467e-05
-1.21464e-05
-1.21175e-05
-1.21179e-05
-1.21182e-05
-1.21177e-05
-1.21175e-05
-1.20882e-05
-1.20885e-05
-1.20889e-05
-1.20884e-05
-1.20882e-05
-1.20586e-05
-1.20589e-05
-1.20592e-05
-1.20588e-05
-1.20585e-05
-1.20286e-05
-1.20289e-05
-1.20293e-05
-1.20288e-05
-1.20286e-05
-1.19983e-05
-1.19986e-05
-1.19989e-05
-1.19985e-05
-1.19983e-05
-1.19677e-05
-1.1968e-05
-1.19683e-05
-1.19679e-05
-1.19676e-05
-1.19367e-05
-1.1937e-05
-1.19373e-05
-1.19369e-05
-1.19367e-05
-1.19054e-05
-1.19057e-05
-1.19059e-05
-1.19056e-05
-1.19054e-05
-1.18737e-05
-1.1874e-05
-1.18742e-05
-1.18739e-05
-1.18737e-05
-1.18417e-05
-1.1842e-05
-1.18422e-05
-1.18419e-05
-1.18417e-05
-1.18094e-05
-1.18096e-05
-1.18098e-05
-1.18095e-05
-1.18093e-05
-1.17766e-05
-1.17768e-05
-1.17771e-05
-1.17768e-05
-1.17766e-05
-1.17435e-05
-1.17437e-05
-1.17439e-05
-1.17437e-05
-1.17435e-05
-1.17101e-05
-1.17103e-05
-1.17105e-05
-1.17102e-05
-1.17101e-05
-1.16763e-05
-1.16764e-05
-1.16766e-05
-1.16764e-05
-1.16762e-05
-1.16421e-05
-1.16422e-05
-1.16424e-05
-1.16421e-05
-1.1642e-05
-1.16075e-05
-1.16076e-05
-1.16078e-05
-1.16076e-05
-1.16074e-05
-1.15725e-05
-1.15726e-05
-1.15728e-05
-1.15726e-05
-1.15725e-05
-1.15371e-05
-1.15373e-05
-1.15374e-05
-1.15372e-05
-1.15371e-05
-1.15014e-05
-1.15015e-05
-1.15016e-05
-1.15015e-05
-1.15014e-05
-1.14653e-05
-1.14654e-05
-1.14655e-05
-1.14653e-05
-1.14652e-05
-1.14287e-05
-1.14288e-05
-1.14289e-05
-1.14288e-05
-1.14287e-05
-1.13918e-05
-1.13918e-05
-1.13919e-05
-1.13918e-05
-1.13917e-05
-1.13544e-05
-1.13545e-05
-1.13546e-05
-1.13544e-05
-1.13544e-05
-1.13166e-05
-1.13167e-05
-1.13168e-05
-1.13167e-05
-1.13166e-05
-1.12784e-05
-1.12785e-05
-1.12785e-05
-1.12785e-05
-1.12784e-05
-1.12398e-05
-1.12399e-05
-1.12399e-05
-1.12398e-05
-1.12398e-05
-1.12008e-05
-1.12008e-05
-1.12008e-05
-1.12008e-05
-1.12008e-05
-1.11613e-05
-1.11613e-05
-1.11614e-05
-1.11613e-05
-1.11613e-05
-1.11214e-05
-1.11214e-05
-1.11214e-05
-1.11214e-05
-1.11214e-05
-1.1081e-05
-1.1081e-05
-1.1081e-05
-1.1081e-05
-1.1081e-05
-1.10402e-05
-1.10402e-05
-1.10402e-05
-1.10402e-05
-1.10402e-05
)
;

boundaryField
{
    BotWall
    {
        type            fixedFluxPressure;
        gradient        uniform 0;
        value           nonuniform List<scalar> 5(0.485399 0.485414 0.485391 0.485414 0.485399);
    }
    FreeStream
    {
        type            totalPressure;
        rho             rho;
        psi             none;
        gamma           1;
        p0              uniform 0;
        value           nonuniform List<scalar> 5(-1.10197e-05 -1.10197e-05 -1.10197e-05 -1.10197e-05 -1.10197e-05);
    }
    FrontNBack
    {
        type            empty;
    }
    LeftSide
    {
        type            symmetryPlane;
    }
    RightSide
    {
        type            symmetryPlane;
    }
}


// ************************************************************************* //
