/*--------------------------------*- C++ -*----------------------------------*\
| =========                 |                                                 |
| \\      /  F ield         | OpenFOAM: The Open Source CFD Toolbox           |
|  \\    /   O peration     | Version:  2.4.0                                 |
|   \\  /    A nd           | Web:      www.OpenFOAM.org                      |
|    \\/     M anipulation  |                                                 |
\*---------------------------------------------------------------------------*/
FoamFile
{
    version     2.0;
    format      ascii;
    class       surfaceScalarField;
    location    "1.8";
    object      phi;
}
// * * * * * * * * * * * * * * * * * * * * * * * * * * * * * * * * * * * * * //

dimensions      [0 3 -1 0 0 0 0];

internalField   nonuniform List<scalar> 
895
(
1.25855e-18
-1.25818e-18
7.88078e-19
4.71023e-19
-7.95005e-19
1.58397e-18
-1.28054e-18
4.86299e-19
-1.27982e-18
3.83801e-18
-5.08875e-18
2.38109e-18
1.94053e-18
-2.40261e-18
6.38522e-18
-3.90429e-18
2.00182e-18
-5.174e-18
6.52155e-18
-1.16015e-17
4.02282e-18
4.45328e-18
-4.06093e-18
1.4488e-17
-6.63404e-18
4.58955e-18
-1.17978e-17
9.28861e-18
-2.08805e-17
5.71223e-18
8.04455e-18
-5.76821e-18
2.59882e-17
-9.45055e-18
8.28689e-18
-2.12382e-17
1.21689e-17
-3.30392e-17
7.46331e-18
1.27654e-17
-7.53853e-18
4.10101e-17
-1.23816e-17
1.31449e-17
-3.36098e-17
1.51353e-17
-4.81643e-17
9.26332e-18
1.86527e-17
-9.35891e-18
5.96522e-17
-1.54002e-17
1.92008e-17
-4.90005e-17
1.82307e-17
-6.63848e-17
1.11329e-17
2.57653e-17
-1.125e-17
8.20542e-17
-1.85497e-17
2.65144e-17
-6.75412e-17
2.14173e-17
-8.77923e-17
1.30536e-17
3.41431e-17
-1.31936e-17
1.08319e-16
-2.17923e-17
3.51261e-17
-8.93253e-17
2.47456e-17
-1.12529e-16
1.50499e-17
4.38518e-17
-1.5214e-17
1.386e-16
-2.51788e-17
4.51026e-17
-1.14497e-16
2.81664e-17
-1.40687e-16
1.71014e-17
5.49286e-17
-1.7291e-17
1.73007e-16
-2.86603e-17
5.64822e-17
-1.43151e-16
3.17258e-17
-1.72405e-16
1.92385e-17
6.74262e-17
-1.94552e-17
2.11713e-16
-3.22824e-17
6.93182e-17
-1.75428e-16
3.53976e-17
-2.07796e-16
2.14424e-17
8.13896e-17
-2.16877e-17
2.54854e-16
-3.6019e-17
8.36563e-17
-2.11443e-16
3.93383e-17
-2.4713e-16
2.37609e-17
9.69728e-17
-2.40368e-17
3.02658e-16
-4.00273e-17
9.96513e-17
-2.51468e-16
4.36273e-17
-2.90755e-16
2.60202e-17
1.14583e-16
-2.63288e-17
3.55011e-16
-4.43893e-17
1.17714e-16
-2.95857e-16
4.81624e-17
-9.1342e-16
2.85509e-17
1.34194e-16
-2.88897e-17
4.12451e-16
-4.90116e-17
1.37836e-16
-9.29464e-16
5.29775e-17
-3.10908e-10
3.18899e-17
-3.10909e-10
-3.22473e-17
-3.1091e-10
-5.39628e-17
-3.10909e-10
-3.10908e-10
5.38268e-17
-3.10908e-10
3.231e-17
-3.10909e-10
-3.27081e-17
-3.1091e-10
-5.47883e-17
-3.10909e-10
-3.10908e-10
5.81576e-17
-3.10908e-10
3.17801e-17
-3.10909e-10
-3.20602e-17
-3.1091e-10
-5.91099e-17
-3.10909e-10
-3.10908e-10
4.96256e-17
-3.10909e-10
3.04909e-17
-3.10909e-10
-3.06514e-17
-3.1091e-10
-5.05049e-17
-3.10909e-10
-3.10908e-10
4.60932e-17
-3.10909e-10
2.84679e-17
-3.10909e-10
-2.85053e-17
-3.1091e-10
-4.69106e-17
-3.10909e-10
-3.10909e-10
4.40949e-17
-3.10909e-10
2.664e-17
-3.10909e-10
-2.65552e-17
-3.1091e-10
-4.4856e-17
-3.10909e-10
-3.10909e-10
4.16843e-17
-3.10909e-10
2.50571e-17
-3.10909e-10
-2.48532e-17
-3.10909e-10
-4.23892e-17
-3.10909e-10
-3.10909e-10
3.88925e-17
-3.10909e-10
2.35146e-17
-3.10909e-10
-2.31946e-17
-3.10909e-10
-3.95399e-17
-3.10909e-10
-3.10909e-10
3.61024e-17
-3.10909e-10
2.19538e-17
-3.10909e-10
-2.15207e-17
-3.10909e-10
-3.66913e-17
-3.10909e-10
-3.10909e-10
3.34248e-17
-3.10909e-10
2.04003e-17
-3.10909e-10
-1.9857e-17
-3.10909e-10
-3.39546e-17
-3.10909e-10
-3.10909e-10
3.08304e-17
-3.10909e-10
1.88767e-17
-3.10909e-10
-1.82263e-17
-3.10909e-10
-3.13006e-17
-3.10909e-10
-3.10909e-10
2.82914e-17
-3.10909e-10
1.7388e-17
-3.10909e-10
-1.66338e-17
-3.10909e-10
-2.87016e-17
-3.10909e-10
-3.10909e-10
2.58046e-17
-3.10909e-10
1.59331e-17
-3.10909e-10
-1.50785e-17
-3.10909e-10
-2.61546e-17
-3.10909e-10
-3.10909e-10
2.33749e-17
-3.10909e-10
1.45119e-17
-3.10909e-10
-1.35603e-17
-3.10909e-10
-2.36645e-17
-3.10909e-10
-3.10909e-10
2.10063e-17
-3.10909e-10
1.31254e-17
-3.10909e-10
-1.20804e-17
-3.10909e-10
-2.12355e-17
-3.10909e-10
-3.10909e-10
1.87013e-17
-3.10909e-10
1.1775e-17
-3.10909e-10
-1.06402e-17
-3.10909e-10
-1.88699e-17
-3.10909e-10
-3.10909e-10
1.64615e-17
-3.10909e-10
1.0462e-17
-3.10909e-10
-9.24115e-18
-3.10909e-10
-1.65698e-17
-3.10909e-10
-3.10909e-10
1.42887e-17
-3.10909e-10
9.18755e-18
-3.10909e-10
-7.88453e-18
-3.10909e-10
-1.4337e-17
-3.10909e-10
-3.10909e-10
1.21847e-17
-3.10909e-10
7.95285e-18
-3.10909e-10
-6.57152e-18
-3.10909e-10
-1.21735e-17
-3.10909e-10
-3.10909e-10
1.01514e-17
-3.10909e-10
6.75895e-18
-3.10909e-10
-5.30328e-18
-3.10909e-10
-1.0081e-17
-3.10909e-10
-3.10909e-10
8.19034e-18
-3.10909e-10
5.60687e-18
-3.10909e-10
-4.08089e-18
-3.10909e-10
-8.06153e-18
-3.10909e-10
-3.10909e-10
6.30317e-18
-3.10909e-10
4.49761e-18
-3.10909e-10
-2.9054e-18
-3.10909e-10
-6.11664e-18
-3.10909e-10
-3.10909e-10
4.49135e-18
-3.10909e-10
3.43209e-18
-3.10909e-10
-1.77779e-18
-3.10909e-10
-4.24798e-18
-3.10909e-10
-3.10909e-10
2.75628e-18
-3.10909e-10
2.41118e-18
-3.10909e-10
-6.98949e-19
-3.10909e-10
-2.45704e-18
-3.10909e-10
-3.10909e-10
1.09921e-18
-3.10909e-10
1.43567e-18
-3.10909e-10
3.30279e-19
-3.10909e-10
-7.45209e-19
-3.10909e-10
-3.10909e-10
-4.78684e-19
-3.10909e-10
5.06308e-19
-3.10909e-10
1.30914e-18
-3.10909e-10
8.86229e-19
-3.10909e-10
-3.10909e-10
-1.97637e-18
-3.10909e-10
-3.76252e-19
-3.10909e-10
2.23696e-18
-3.10909e-10
2.43612e-18
-3.10909e-10
-3.10909e-10
-3.39292e-18
-3.10909e-10
-1.21142e-18
-3.10909e-10
3.11314e-18
-3.10909e-10
3.90345e-18
-3.10909e-10
-3.10909e-10
-4.72756e-18
-3.10909e-10
-1.99869e-18
-3.10909e-10
3.93719e-18
-3.10909e-10
5.28732e-18
-3.10909e-10
-3.10909e-10
-5.97964e-18
-3.10909e-10
-2.73763e-18
-3.10909e-10
4.70868e-18
-3.10909e-10
6.58697e-18
-3.10909e-10
-3.10909e-10
-7.14866e-18
-3.10909e-10
-3.4279e-18
-3.10909e-10
5.42729e-18
-3.10909e-10
7.8018e-18
-3.10909e-10
-3.10909e-10
-8.23425e-18
-3.10909e-10
-4.06924e-18
-3.10909e-10
6.09281e-18
-3.10909e-10
8.93136e-18
-3.10909e-10
-3.10909e-10
-9.2362e-18
-3.10909e-10
-4.6615e-18
-3.10909e-10
6.7051e-18
-3.10909e-10
9.97533e-18
-3.10909e-10
-3.10909e-10
-1.01545e-17
-3.10909e-10
-5.2046e-18
-3.10909e-10
7.26416e-18
-3.10909e-10
1.09336e-17
-3.10909e-10
-3.10909e-10
-1.09891e-17
-3.10909e-10
-5.69857e-18
-3.10909e-10
7.77006e-18
-3.10909e-10
1.18061e-17
-3.10909e-10
-3.10909e-10
-1.17405e-17
-3.10909e-10
-6.14353e-18
-3.10909e-10
8.22299e-18
-3.10909e-10
1.25932e-17
-3.10909e-10
-3.10909e-10
-1.24089e-17
-3.10909e-10
-6.5397e-18
-3.10909e-10
8.62327e-18
-3.10909e-10
1.32951e-17
-3.10909e-10
-3.10909e-10
-1.29951e-17
-3.10909e-10
-6.88742e-18
-3.10909e-10
8.97129e-18
-3.10909e-10
1.39124e-17
-3.10909e-10
-3.10909e-10
-1.34997e-17
-3.10909e-10
-7.18712e-18
-3.10909e-10
9.2676e-18
-3.10909e-10
1.44458e-17
-3.10909e-10
-3.10909e-10
-1.39238e-17
-3.10909e-10
-7.43932e-18
-3.10909e-10
9.51281e-18
-3.10909e-10
1.48962e-17
-3.10909e-10
-3.10909e-10
-1.42683e-17
-3.10909e-10
-7.64466e-18
-3.10909e-10
9.70768e-18
-3.10909e-10
1.52646e-17
-3.10909e-10
-3.10909e-10
-1.45347e-17
-3.10909e-10
-7.80389e-18
-3.10909e-10
9.85308e-18
-3.10909e-10
1.55524e-17
-3.10909e-10
-3.10909e-10
-1.47244e-17
-3.10909e-10
-7.91786e-18
-3.10909e-10
9.94998e-18
-3.10909e-10
1.57609e-17
-3.10909e-10
-3.10909e-10
-1.48389e-17
-3.10909e-10
-7.98751e-18
-3.10909e-10
9.99946e-18
-3.10909e-10
1.58918e-17
-3.10909e-10
-3.10909e-10
-1.48801e-17
-3.10909e-10
-8.0139e-18
-3.10909e-10
1.00027e-17
-3.10909e-10
1.59468e-17
-3.10909e-10
-3.10909e-10
-1.485e-17
-3.10909e-10
-7.99819e-18
-3.10909e-10
9.96107e-18
-3.10909e-10
1.59279e-17
-3.10909e-10
-3.10909e-10
-1.47507e-17
-3.10909e-10
-7.94163e-18
-3.10909e-10
9.87592e-18
-3.10909e-10
1.58373e-17
-3.10909e-10
-3.10909e-10
-1.45844e-17
-3.10909e-10
-7.84558e-18
-3.10909e-10
9.74879e-18
-3.10909e-10
1.56773e-17
-3.10909e-10
-3.10909e-10
-1.43536e-17
-3.10909e-10
-7.71149e-18
-3.10909e-10
9.58129e-18
-3.10909e-10
1.54503e-17
-3.10909e-10
-3.10909e-10
-1.4061e-17
-3.10909e-10
-7.5409e-18
-3.10909e-10
9.37513e-18
-3.10909e-10
1.5159e-17
-3.10909e-10
-3.10909e-10
-1.37092e-17
-3.10909e-10
-7.33543e-18
-3.10909e-10
9.13213e-18
-3.10909e-10
1.48062e-17
-3.10909e-10
-3.10909e-10
-1.33012e-17
-3.10909e-10
-7.09681e-18
-3.10909e-10
8.85419e-18
-3.10909e-10
1.43947e-17
-3.10909e-10
-3.10909e-10
-1.284e-17
-3.10909e-10
-6.82682e-18
-3.10909e-10
8.54328e-18
-3.10909e-10
1.39278e-17
-3.10909e-10
-3.10909e-10
-1.23286e-17
-3.10909e-10
-6.52734e-18
-3.10909e-10
8.20146e-18
-3.10909e-10
1.34086e-17
-3.10909e-10
-3.10909e-10
-1.17705e-17
-3.10909e-10
-6.20031e-18
-3.10909e-10
7.83087e-18
-3.10909e-10
1.28405e-17
-3.10909e-10
-3.10909e-10
-1.11689e-17
-3.10909e-10
-5.84772e-18
-3.10909e-10
7.43371e-18
-3.10909e-10
1.22268e-17
-3.10909e-10
-3.10909e-10
-1.05273e-17
-3.10909e-10
-5.47165e-18
-3.10909e-10
7.01224e-18
-3.1091e-10
1.15713e-17
-3.10909e-10
-3.10909e-10
-9.84929e-18
-3.10909e-10
-5.0742e-18
-3.10909e-10
6.56879e-18
-3.1091e-10
1.08776e-17
-3.10909e-10
-3.10909e-10
-9.13854e-18
-3.10909e-10
-4.65756e-18
-3.10909e-10
6.10573e-18
-3.1091e-10
1.01494e-17
-3.10909e-10
-3.10909e-10
-8.39875e-18
-3.10909e-10
-4.22392e-18
-3.10909e-10
5.62546e-18
-3.1091e-10
9.39058e-18
-3.10909e-10
-3.10909e-10
-7.63372e-18
-3.10909e-10
-3.77553e-18
-3.10909e-10
5.13043e-18
-3.1091e-10
8.60509e-18
-3.10909e-10
-3.10909e-10
-6.84729e-18
-3.10909e-10
-3.31466e-18
-3.10909e-10
4.62314e-18
-3.1091e-10
7.79689e-18
-3.10909e-10
-3.10909e-10
-6.04334e-18
-3.10909e-10
-2.84362e-18
-3.10909e-10
4.10607e-18
-3.1091e-10
6.97001e-18
-3.10909e-10
-3.10909e-10
-5.22581e-18
-3.10909e-10
-2.36471e-18
-3.10909e-10
3.58175e-18
-3.1091e-10
6.12855e-18
-3.10909e-10
-3.10909e-10
-4.39866e-18
-3.10909e-10
-1.88026e-18
-3.10909e-10
3.05272e-18
-3.1091e-10
5.27662e-18
-3.10909e-10
-3.10909e-10
-3.56586e-18
-3.10909e-10
-1.39262e-18
-3.10909e-10
2.52151e-18
-3.1091e-10
4.41836e-18
-3.10909e-10
-3.10909e-10
-2.73142e-18
-3.10909e-10
-9.04136e-19
-3.10909e-10
1.99066e-18
-3.1091e-10
3.55794e-18
-3.10909e-10
-3.10909e-10
-1.89934e-18
-3.10909e-10
-4.17143e-19
-3.10909e-10
1.46272e-18
-3.1091e-10
2.69956e-18
-3.10909e-10
-3.10909e-10
-1.07364e-18
-3.10909e-10
6.60138e-20
-3.10909e-10
9.4021e-19
-3.1091e-10
1.84741e-18
-3.10909e-10
-3.10909e-10
-2.58341e-19
-3.10909e-10
5.42996e-19
-3.10909e-10
4.25661e-19
-3.1091e-10
1.0057e-18
-3.10909e-10
-3.10909e-10
5.42546e-19
-3.10909e-10
1.01147e-18
-3.10909e-10
-7.84181e-20
-3.1091e-10
1.78635e-19
-3.10909e-10
-3.10909e-10
1.325e-18
-3.10909e-10
1.46912e-18
-3.10909e-10
-5.6953e-19
-3.1091e-10
-6.29553e-19
-3.10909e-10
-3.10909e-10
2.085e-18
-3.10909e-10
1.91361e-18
-3.10909e-10
-1.04519e-18
-3.1091e-10
-1.41464e-18
-3.10909e-10
-3.10909e-10
2.81852e-18
-3.10909e-10
2.34264e-18
-3.10909e-10
-1.50292e-18
-3.1091e-10
-2.17239e-18
-3.10909e-10
-3.10909e-10
3.52153e-18
-3.10909e-10
2.75389e-18
-3.10909e-10
-1.94027e-18
-3.1091e-10
-2.89855e-18
-3.10909e-10
-3.10909e-10
4.18999e-18
-3.10909e-10
3.14504e-18
-3.10909e-10
-2.35479e-18
-3.1091e-10
-3.58885e-18
-3.10909e-10
-3.10909e-10
4.81982e-18
-3.10909e-10
3.51378e-18
-3.10909e-10
-2.74402e-18
-3.1091e-10
-4.23899e-18
-3.10909e-10
-3.10909e-10
5.40693e-18
-3.10909e-10
3.85778e-18
-3.10909e-10
-3.10553e-18
-3.1091e-10
-4.84462e-18
-3.10909e-10
-3.10909e-10
5.94718e-18
-3.10909e-10
4.17468e-18
-3.10909e-10
-3.43686e-18
-3.1091e-10
-5.40136e-18
-3.10909e-10
-3.10909e-10
6.43637e-18
-3.10909e-10
4.46211e-18
-3.10909e-10
-3.73555e-18
-3.1091e-10
-5.90475e-18
-3.10909e-10
-3.10909e-10
6.87018e-18
-3.10909e-10
4.71762e-18
-3.10909e-10
-3.9991e-18
-3.1091e-10
-6.35021e-18
-3.10909e-10
-3.10909e-10
7.24417e-18
-3.10909e-10
4.93869e-18
-3.10909e-10
-4.2249e-18
-3.1091e-10
-6.73304e-18
-3.10909e-10
-3.10909e-10
7.55404e-18
-3.10909e-10
5.12288e-18
-3.10909e-10
-4.41051e-18
-3.1091e-10
-7.04865e-18
-3.10909e-10
-3.10909e-10
7.79646e-18
-3.10909e-10
5.26856e-18
-3.10909e-10
-4.55428e-18
-3.1091e-10
-7.29337e-18
-3.10909e-10
-3.10909e-10
7.97299e-18
5.37451e-18
-4.65554e-18
-7.46793e-18
)
;

boundaryField
{
    BotWall
    {
        type            calculated;
        value           nonuniform List<scalar> 5(-2.90807e-22 -4.03787e-22 -6.72547e-22 -5.42097e-22 -5.14325e-22);
    }
    FreeStream
    {
        type            calculated;
        value           nonuniform List<scalar> 5(-3.10909e-10 -3.10909e-10 -3.10909e-10 -3.10909e-10 -3.10909e-10);
    }
    FrontNBack
    {
        type            empty;
        value           nonuniform 0();
    }
    LeftSide
    {
        type            symmetryPlane;
        value           uniform 0;
    }
    RightSide
    {
        type            symmetryPlane;
        value           uniform 0;
    }
}


// ************************************************************************* //
