/*--------------------------------*- C++ -*----------------------------------*\
| =========                 |                                                 |
| \\      /  F ield         | OpenFOAM: The Open Source CFD Toolbox           |
|  \\    /   O peration     | Version:  2.4.0                                 |
|   \\  /    A nd           | Web:      www.OpenFOAM.org                      |
|    \\/     M anipulation  |                                                 |
\*---------------------------------------------------------------------------*/
FoamFile
{
    version     2.0;
    format      ascii;
    class       volVectorField;
    location    "1.8";
    object      U;
}
// * * * * * * * * * * * * * * * * * * * * * * * * * * * * * * * * * * * * * //

dimensions      [0 1 -1 0 0 0 0];

internalField   nonuniform List<vector> 
500
(
(3.55506e-10 -8.10499e-10 0)
(5.6627e-10 -8.21045e-10 0)
(1.15724e-12 -8.19842e-10 0)
(-5.73715e-10 -8.21036e-10 0)
(-3.63966e-10 -8.10531e-10 0)
(1.07285e-09 2.15948e-09 0)
(1.70165e-09 2.20868e-09 0)
(3.38279e-12 2.21995e-09 0)
(-1.72403e-09 2.20884e-09 0)
(-1.09819e-09 2.15928e-09 0)
(1.80587e-09 -3.82426e-09 0)
(2.85113e-09 -3.82453e-09 0)
(5.35061e-12 -3.79066e-09 0)
(-2.88898e-09 -3.82409e-09 0)
(-1.84836e-09 -3.82493e-09 0)
(2.54831e-09 4.42978e-09 0)
(4.0085e-09 4.60964e-09 0)
(7.16395e-12 4.67603e-09 0)
(-4.06242e-09 4.61056e-09 0)
(-2.6084e-09 4.42848e-09 0)
(3.30987e-09 -7.59209e-09 0)
(5.18331e-09 -7.50333e-09 0)
(8.83833e-12 -7.39001e-09 0)
(-5.25358e-09 -7.50183e-09 0)
(-3.3877e-09 -7.59437e-09 0)
(4.08015e-09 1.08828e-08 0)
(6.36532e-09 1.12775e-08 0)
(1.03989e-11 1.14468e-08 0)
(-6.45215e-09 1.12798e-08 0)
(-4.17583e-09 1.08794e-08 0)
(4.87298e-09 4.95669e-09 0)
(7.56826e-09 5.22526e-09 0)
(1.18406e-11 5.4676e-09 0)
(-7.67194e-09 5.22845e-09 0)
(-4.9867e-09 4.9517e-09 0)
(5.67467e-09 3.21695e-08 0)
(8.77845e-09 3.28492e-08 0)
(1.31721e-11 3.3173e-08 0)
(-8.89931e-09 3.28535e-08 0)
(-5.80665e-09 3.21627e-08 0)
(6.50119e-09 -8.79357e-08 0)
(1.00117e-08 -8.75029e-08 0)
(1.44146e-11 -8.70849e-08 0)
(-1.01501e-08 -8.74974e-08 0)
(-6.6517e-09 -8.79443e-08 0)
(7.33664e-09 -3.84867e-07 0)
(1.1252e-08 -3.84006e-07 0)
(1.55536e-11 -3.83504e-07 0)
(-1.14083e-08 -3.84e-07 0)
(-7.50598e-09 -3.84877e-07 0)
(8.19843e-09 -5.49041e-07 0)
(1.25165e-08 -5.48129e-07 0)
(1.65777e-11 -5.47527e-07 0)
(-1.26911e-08 -5.48121e-07 0)
(-8.38688e-09 -5.49052e-07 0)
(9.07658e-09 1.94766e-06 0)
(1.37953e-08 1.95066e-06 0)
(1.74984e-11 1.95152e-06 0)
(-1.39885e-08 1.95067e-06 0)
(-9.28444e-09 1.94764e-06 0)
(1.00017e-08 1.06133e-05 0)
(1.51211e-08 1.06182e-05 0)
(1.83208e-11 1.06198e-05 0)
(-1.53335e-08 1.06183e-05 0)
(-1.02294e-08 1.06133e-05 0)
(1.09553e-08 1.25495e-05 0)
(1.64693e-08 1.25526e-05 0)
(1.899e-11 1.25551e-05 0)
(-1.67019e-08 1.25526e-05 0)
(-1.12038e-08 1.25494e-05 0)
(1.18891e-08 -4.29489e-05 0)
(1.78235e-08 -4.29635e-05 0)
(1.96575e-11 -4.29643e-05 0)
(-1.80773e-08 -4.29635e-05 0)
(-1.21594e-08 -4.29488e-05 0)
(1.27991e-08 -0.000338182 0)
(1.92268e-08 -0.000338225 0)
(2.06235e-11 -0.000338239 0)
(-1.95056e-08 -0.000338225 0)
(-1.30953e-08 -0.000338181 0)
(1.31546e-08 -0.00118201 0)
(1.96988e-08 -0.00118198 0)
(2.07951e-11 -0.00118198 0)
(-1.99834e-08 -0.00118198 0)
(-1.34569e-08 -0.00118201 0)
(1.34654e-08 -0.00272564 0)
(1.97856e-08 -0.0027256 0)
(4.45603e-11 -0.0027256 0)
(-2.00482e-08 -0.0027256 0)
(-1.37685e-08 -0.00272564 0)
(1.20235e-08 -0.0016004 0)
(1.79257e-08 -0.00160045 0)
(6.81296e-11 -0.00160045 0)
(-1.81569e-08 -0.00160045 0)
(-1.23181e-08 -0.0016004 0)
(1.10434e-08 -0.00149017 0)
(1.65413e-08 -0.00149018 0)
(9.02968e-11 -0.00149018 0)
(-1.67419e-08 -0.00149018 0)
(-1.13288e-08 -0.00149017 0)
(1.03221e-08 -0.00152041 0)
(1.5438e-08 -0.00152041 0)
(1.11301e-10 -0.00152041 0)
(-1.56092e-08 -0.00152041 0)
(-1.05983e-08 -0.00152041 0)
(9.6196e-09 -0.00155167 0)
(1.43704e-08 -0.00155166 0)
(1.31114e-10 -0.00155167 0)
(-1.45131e-08 -0.00155166 0)
(-9.88659e-09 -0.00155167 0)
(8.88872e-09 -0.00155744 0)
(1.32865e-08 -0.00155745 0)
(1.49746e-10 -0.00155745 0)
(-1.34015e-08 -0.00155745 0)
(-9.14604e-09 -0.00155744 0)
(8.1662e-09 -0.0015559 0)
(1.22225e-08 -0.0015559 0)
(1.6721e-10 -0.00155591 0)
(-1.23106e-08 -0.0015559 0)
(-8.41347e-09 -0.0015559 0)
(7.47298e-09 -0.00155466 0)
(1.11997e-08 -0.00155466 0)
(1.83522e-10 -0.00155466 0)
(-1.12615e-08 -0.00155466 0)
(-7.70985e-09 -0.00155466 0)
(6.81006e-09 -0.00155442 0)
(1.02192e-08 -0.00155442 0)
(1.98699e-10 -0.00155443 0)
(-1.02556e-08 -0.00155442 0)
(-7.03625e-09 -0.00155442 0)
(6.17414e-09 -0.00155449 0)
(9.27792e-09 -0.00155449 0)
(2.12759e-10 -0.00155449 0)
(-9.28966e-09 -0.00155449 0)
(-6.38938e-09 -0.00155449 0)
(5.56367e-09 -0.00155454 0)
(8.37413e-09 -0.00155454 0)
(2.2572e-10 -0.00155454 0)
(-8.36206e-09 -0.00155454 0)
(-5.76774e-09 -0.00155454 0)
(4.97844e-09 -0.00155455 0)
(7.50765e-09 -0.00155455 0)
(2.37602e-10 -0.00155455 0)
(-7.4726e-09 -0.00155455 0)
(-5.17116e-09 -0.00155455 0)
(4.41846e-09 -0.00155455 0)
(6.67845e-09 -0.00155455 0)
(2.48427e-10 -0.00155455 0)
(-6.62128e-09 -0.00155455 0)
(-4.59967e-09 -0.00155455 0)
(3.88356e-09 -0.00155454 0)
(5.88633e-09 -0.00155455 0)
(2.58217e-10 -0.00155455 0)
(-5.8079e-09 -0.00155455 0)
(-4.05314e-09 -0.00155454 0)
(3.37352e-09 -0.00155454 0)
(5.13099e-09 -0.00155455 0)
(2.66995e-10 -0.00155455 0)
(-5.03217e-09 -0.00155455 0)
(-3.53138e-09 -0.00155454 0)
(2.88804e-09 -0.00155454 0)
(4.41208e-09 -0.00155455 0)
(2.74787e-10 -0.00155455 0)
(-4.29378e-09 -0.00155455 0)
(-3.03413e-09 -0.00155454 0)
(2.42684e-09 -0.00155454 0)
(3.72924e-09 -0.00155455 0)
(2.81618e-10 -0.00155455 0)
(-3.59234e-09 -0.00155455 0)
(-2.56115e-09 -0.00155454 0)
(1.98963e-09 -0.00155454 0)
(3.08207e-09 -0.00155455 0)
(2.87514e-10 -0.00155455 0)
(-2.92749e-09 -0.00155455 0)
(-2.11216e-09 -0.00155454 0)
(1.57608e-09 -0.00155454 0)
(2.47015e-09 -0.00155455 0)
(2.92504e-10 -0.00155455 0)
(-2.2988e-09 -0.00155455 0)
(-1.68689e-09 -0.00155454 0)
(1.18588e-09 -0.00155454 0)
(1.89302e-09 -0.00155455 0)
(2.96615e-10 -0.00155455 0)
(-1.70583e-09 -0.00155455 0)
(-1.28504e-09 -0.00155454 0)
(8.18651e-10 -0.00155454 0)
(1.3502e-09 -0.00155455 0)
(2.99877e-10 -0.00155455 0)
(-1.14808e-09 -0.00155455 0)
(-9.06279e-10 -0.00155454 0)
(4.74038e-10 -0.00155454 0)
(8.41173e-10 -0.00155455 0)
(3.0232e-10 -0.00155455 0)
(-6.25056e-10 -0.00155455 0)
(-5.50269e-10 -0.00155454 0)
(1.51651e-10 -0.00155454 0)
(3.65384e-10 -0.00155455 0)
(3.03975e-10 -0.00155455 0)
(-1.36193e-10 -0.00155455 0)
(-2.16654e-10 -0.00155454 0)
(-1.48916e-10 -0.00155454 0)
(-7.77434e-11 -0.00155455 0)
(3.04873e-10 -0.00155455 0)
(3.19083e-10 -0.00155455 0)
(9.49448e-11 -0.00155454 0)
(-4.28085e-10 -0.00155454 0)
(-4.8882e-10 -0.00155455 0)
(3.05048e-10 -0.00155455 0)
(7.41386e-10 -0.00155455 0)
(3.84922e-10 -0.00155454 0)
(-6.86296e-10 -0.00155454 0)
(-8.68484e-10 -0.00155455 0)
(3.0453e-10 -0.00155455 0)
(1.13136e-09 -0.00155455 0)
(6.53692e-10 -0.00155454 0)
(-9.24006e-10 -0.00155454 0)
(-1.21741e-09 -0.00155455 0)
(3.03354e-10 -0.00155455 0)
(1.48968e-09 -0.00155455 0)
(9.01687e-10 -0.00155454 0)
(-1.14169e-09 -0.00155454 0)
(-1.53629e-09 -0.00155455 0)
(3.01554e-10 -0.00155455 0)
(1.81706e-09 -0.00155455 0)
(1.12936e-09 -0.00155454 0)
(-1.33983e-09 -0.00155454 0)
(-1.82585e-09 -0.00155455 0)
(2.99162e-10 -0.00155455 0)
(2.11422e-09 -0.00155455 0)
(1.33717e-09 -0.00155454 0)
(-1.51894e-09 -0.00155454 0)
(-2.08686e-09 -0.00155455 0)
(2.96213e-10 -0.00155455 0)
(2.38194e-09 -0.00155455 0)
(1.52561e-09 -0.00155454 0)
(-1.67954e-09 -0.00155454 0)
(-2.32008e-09 -0.00155455 0)
(2.92741e-10 -0.00155455 0)
(2.62101e-09 -0.00155455 0)
(1.69518e-09 -0.00155454 0)
(-1.82216e-09 -0.00155454 0)
(-2.52633e-09 -0.00155455 0)
(2.88781e-10 -0.00155455 0)
(2.83226e-09 -0.00155455 0)
(1.8464e-09 -0.00155454 0)
(-1.94736e-09 -0.00155454 0)
(-2.70645e-09 -0.00155455 0)
(2.84367e-10 -0.00155455 0)
(3.01653e-09 -0.00155455 0)
(1.97981e-09 -0.00155454 0)
(-2.05569e-09 -0.00155454 0)
(-2.86128e-09 -0.00155455 0)
(2.79532e-10 -0.00155455 0)
(3.1747e-09 -0.00155455 0)
(2.09595e-09 -0.00155454 0)
(-2.14774e-09 -0.00155454 0)
(-2.99171e-09 -0.00155455 0)
(2.74311e-10 -0.00155455 0)
(3.30766e-09 -0.00155455 0)
(2.19538e-09 -0.00155454 0)
(-2.2241e-09 -0.00155454 0)
(-3.09864e-09 -0.00155455 0)
(2.68738e-10 -0.00155455 0)
(3.41634e-09 -0.00155455 0)
(2.27869e-09 -0.00155454 0)
(-2.28536e-09 -0.00155454 0)
(-3.18298e-09 -0.00155455 0)
(2.62846e-10 -0.00155455 0)
(3.50167e-09 -0.00155455 0)
(2.34647e-09 -0.00155454 0)
(-2.33213e-09 -0.00155454 0)
(-3.24568e-09 -0.00155455 0)
(2.56667e-10 -0.00155455 0)
(3.56463e-09 -0.00155455 0)
(2.39933e-09 -0.00155454 0)
(-2.36504e-09 -0.00155454 0)
(-3.28769e-09 -0.00155455 0)
(2.50235e-10 -0.00155455 0)
(3.6062e-09 -0.00155455 0)
(2.43787e-09 -0.00155454 0)
(-2.38471e-09 -0.00155454 0)
(-3.30998e-09 -0.00155455 0)
(2.4358e-10 -0.00155455 0)
(3.62735e-09 -0.00155455 0)
(2.46272e-09 -0.00155454 0)
(-2.39179e-09 -0.00155454 0)
(-3.31354e-09 -0.00155455 0)
(2.36735e-10 -0.00155455 0)
(3.62912e-09 -0.00155455 0)
(2.47452e-09 -0.00155454 0)
(-2.38691e-09 -0.00155454 0)
(-3.29935e-09 -0.00155455 0)
(2.2973e-10 -0.00155455 0)
(3.61252e-09 -0.00155455 0)
(2.47392e-09 -0.00155454 0)
(-2.37073e-09 -0.00155454 0)
(-3.26842e-09 -0.00155455 0)
(2.22595e-10 -0.00155455 0)
(3.57858e-09 -0.00155455 0)
(2.46155e-09 -0.00155454 0)
(-2.3439e-09 -0.00155454 0)
(-3.22176e-09 -0.00155455 0)
(2.15359e-10 -0.00155455 0)
(3.52835e-09 -0.00155455 0)
(2.43809e-09 -0.00155454 0)
(-2.30707e-09 -0.00155454 0)
(-3.16039e-09 -0.00155455 0)
(2.08049e-10 -0.00155455 0)
(3.46287e-09 -0.00155455 0)
(2.40418e-09 -0.00155454 0)
(-2.2609e-09 -0.00155454 0)
(-3.08532e-09 -0.00155455 0)
(2.00694e-10 -0.00155455 0)
(3.3832e-09 -0.00155455 0)
(2.36051e-09 -0.00155454 0)
(-2.20606e-09 -0.00155454 0)
(-2.99757e-09 -0.00155455 0)
(1.93319e-10 -0.00155455 0)
(3.29038e-09 -0.00155455 0)
(2.30772e-09 -0.00155454 0)
(-2.1432e-09 -0.00155454 0)
(-2.89816e-09 -0.00155455 0)
(1.85951e-10 -0.00155455 0)
(3.18546e-09 -0.00155455 0)
(2.24649e-09 -0.00155454 0)
(-2.07297e-09 -0.00155454 0)
(-2.7881e-09 -0.00155455 0)
(1.78612e-10 -0.00155455 0)
(3.0695e-09 -0.00155455 0)
(2.1775e-09 -0.00155454 0)
(-1.99604e-09 -0.00155454 0)
(-2.6684e-09 -0.00155455 0)
(1.71327e-10 -0.00155455 0)
(2.94354e-09 -0.00155455 0)
(2.10139e-09 -0.00155454 0)
(-1.91304e-09 -0.00155454 0)
(-2.54005e-09 -0.00155455 0)
(1.64117e-10 -0.00155455 0)
(2.80861e-09 -0.00155455 0)
(2.01884e-09 -0.00155454 0)
(-1.82462e-09 -0.00155454 0)
(-2.40406e-09 -0.00155455 0)
(1.57004e-10 -0.00155455 0)
(2.66573e-09 -0.00155455 0)
(1.93049e-09 -0.00155454 0)
(-1.73142e-09 -0.00155454 0)
(-2.26138e-09 -0.00155455 0)
(1.50008e-10 -0.00155455 0)
(2.51591e-09 -0.00155455 0)
(1.83702e-09 -0.00155454 0)
(-1.63406e-09 -0.00155454 0)
(-2.11297e-09 -0.00155455 0)
(1.43148e-10 -0.00155455 0)
(2.36015e-09 -0.00155455 0)
(1.73904e-09 -0.00155454 0)
(-1.53316e-09 -0.00155454 0)
(-1.95979e-09 -0.00155455 0)
(1.36442e-10 -0.00155455 0)
(2.19943e-09 -0.00155455 0)
(1.63721e-09 -0.00155454 0)
(-1.42933e-09 -0.00155454 0)
(-1.80275e-09 -0.00155455 0)
(1.29905e-10 -0.00155455 0)
(2.03471e-09 -0.00155455 0)
(1.53215e-09 -0.00155454 0)
(-1.32315e-09 -0.00155454 0)
(-1.64276e-09 -0.00155455 0)
(1.23554e-10 -0.00155455 0)
(1.86691e-09 -0.00155455 0)
(1.42446e-09 -0.00155454 0)
(-1.21523e-09 -0.00155454 0)
(-1.48069e-09 -0.00155455 0)
(1.17404e-10 -0.00155455 0)
(1.69697e-09 -0.00155455 0)
(1.31476e-09 -0.00155454 0)
(-1.10611e-09 -0.00155454 0)
(-1.31739e-09 -0.00155455 0)
(1.11467e-10 -0.00155455 0)
(1.52575e-09 -0.00155455 0)
(1.20363e-09 -0.00155454 0)
(-9.96353e-10 -0.00155454 0)
(-1.1537e-09 -0.00155455 0)
(1.05755e-10 -0.00155455 0)
(1.35414e-09 -0.00155455 0)
(1.09165e-09 -0.00155454 0)
(-8.865e-10 -0.00155454 0)
(-9.90414e-10 -0.00155455 0)
(1.00279e-10 -0.00155455 0)
(1.18295e-09 -0.00155455 0)
(9.79367e-10 -0.00155454 0)
(-7.7707e-10 -0.00155454 0)
(-8.28298e-10 -0.00155455 0)
(9.50496e-11 -0.00155455 0)
(1.01299e-09 -0.00155455 0)
(8.67339e-10 -0.00155454 0)
(-6.68568e-10 -0.00155454 0)
(-6.68095e-10 -0.00155455 0)
(9.00746e-11 -0.00155455 0)
(8.45042e-10 -0.00155455 0)
(7.56089e-10 -0.00155454 0)
(-5.61481e-10 -0.00155454 0)
(-5.10516e-10 -0.00155455 0)
(8.53614e-11 -0.00155455 0)
(6.79838e-10 -0.00155455 0)
(6.46127e-10 -0.00155454 0)
(-4.5628e-10 -0.00155454 0)
(-3.56237e-10 -0.00155455 0)
(8.09163e-11 -0.00155455 0)
(5.18089e-10 -0.00155455 0)
(5.37947e-10 -0.00155454 0)
(-3.53418e-10 -0.00155454 0)
(-2.05907e-10 -0.00155455 0)
(7.67442e-11 -0.00155455 0)
(3.60474e-10 -0.00155455 0)
(4.32027e-10 -0.00155454 0)
(-2.5333e-10 -0.00155454 0)
(-6.01397e-11 -0.00155455 0)
(7.28487e-11 -0.00155455 0)
(2.07635e-10 -0.00155455 0)
(3.28825e-10 -0.00155454 0)
(-1.56433e-10 -0.00155454 0)
(8.04808e-11 -0.00155455 0)
(6.92322e-11 -0.00155455 0)
(6.0185e-11 -0.00155455 0)
(2.28785e-10 -0.00155454 0)
(-6.31298e-11 -0.00155454 0)
(2.15402e-10 -0.00155455 0)
(6.58959e-11 -0.00155455 0)
(-8.12968e-11 -0.00155455 0)
(1.32333e-10 -0.00155454 0)
(2.61958e-11 -0.00155454 0)
(3.44102e-10 -0.00155455 0)
(6.28395e-11 -0.00155455 0)
(-2.16262e-10 -0.00155455 0)
(3.98771e-11 -0.00155454 0)
(1.11175e-10 -0.00155454 0)
(4.66087e-10 -0.00155455 0)
(6.00615e-11 -0.00155455 0)
(-3.44192e-10 -0.00155455 0)
(-4.81873e-11 -0.00155454 0)
(1.91453e-10 -0.00155454 0)
(5.80893e-10 -0.00155455 0)
(5.75589e-11 -0.00155455 0)
(-4.64598e-10 -0.00155455 0)
(-1.31481e-10 -0.00155454 0)
(2.66691e-10 -0.00155454 0)
(6.88081e-10 -0.00155455 0)
(5.53273e-11 -0.00155455 0)
(-5.7702e-10 -0.00155455 0)
(-2.09638e-10 -0.00155454 0)
(3.36562e-10 -0.00155454 0)
(7.8724e-10 -0.00155455 0)
(5.33608e-11 -0.00155455 0)
(-6.81023e-10 -0.00155455 0)
(-2.82306e-10 -0.00155454 0)
(4.00752e-10 -0.00155454 0)
(8.77979e-10 -0.00155455 0)
(5.16521e-11 -0.00155455 0)
(-7.76196e-10 -0.00155455 0)
(-3.49142e-10 -0.00155454 0)
(4.58954e-10 -0.00155454 0)
(9.5993e-10 -0.00155455 0)
(5.01923e-11 -0.00155455 0)
(-8.6215e-10 -0.00155455 0)
(-4.09814e-10 -0.00155454 0)
(5.10875e-10 -0.00155454 0)
(1.03274e-09 -0.00155455 0)
(4.89709e-11 -0.00155455 0)
(-9.38519e-10 -0.00155455 0)
(-4.64e-10 -0.00155454 0)
(5.56224e-10 -0.00155454 0)
(1.09609e-09 -0.00155455 0)
(4.79757e-11 -0.00155455 0)
(-1.00495e-09 -0.00155455 0)
(-5.11382e-10 -0.00155454 0)
(5.94718e-10 -0.00155454 0)
(1.14963e-09 -0.00155455 0)
(4.71929e-11 -0.00155455 0)
(-1.0611e-09 -0.00155455 0)
(-5.51645e-10 -0.00155454 0)
(6.26077e-10 -0.00155454 0)
(1.19308e-09 -0.00155455 0)
(4.66072e-11 -0.00155455 0)
(-1.10665e-09 -0.00155455 0)
(-5.84481e-10 -0.00155454 0)
(6.50047e-10 -0.00155454 0)
(1.22616e-09 -0.00155455 0)
(4.62008e-11 -0.00155455 0)
(-1.14133e-09 -0.00155455 0)
(-6.09604e-10 -0.00155454 0)
(6.66415e-10 -0.00155454 0)
(1.2487e-09 -0.00155455 0)
(4.59554e-11 -0.00155455 0)
(-1.16493e-09 -0.00155455 0)
(-6.26769e-10 -0.00155454 0)
(6.74956e-10 -0.00155454 0)
(1.26049e-09 -0.00155455 0)
(4.58484e-11 -0.00155455 0)
(-1.17725e-09 -0.00155455 0)
(-6.35717e-10 -0.00155454 0)
)
;

boundaryField
{
    BotWall
    {
        type            fixedValue;
        value           uniform (0 0 0);
    }
    FreeStream
    {
        type            zeroGradient;
    }
    FrontNBack
    {
        type            empty;
    }
    LeftSide
    {
        type            symmetryPlane;
    }
    RightSide
    {
        type            symmetryPlane;
    }
}


// ************************************************************************* //
