/*--------------------------------*- C++ -*----------------------------------*\
| =========                 |                                                 |
| \\      /  F ield         | OpenFOAM: The Open Source CFD Toolbox           |
|  \\    /   O peration     | Version:  2.4.0                                 |
|   \\  /    A nd           | Web:      www.OpenFOAM.org                      |
|    \\/     M anipulation  |                                                 |
\*---------------------------------------------------------------------------*/
FoamFile
{
    version     2.0;
    format      ascii;
    class       volScalarField;
    location    "1.1";
    object      H;
}
// * * * * * * * * * * * * * * * * * * * * * * * * * * * * * * * * * * * * * //

dimensions      [0 2 -2 0 0 0 0];

internalField   nonuniform List<scalar> 
125
(
-78.3807
-78.3751
-78.3724
-78.373
-78.3816
-78.1029
-78.0975
-78.0949
-78.0955
-78.1038
-77.7268
-77.7215
-77.719
-77.7195
-77.7276
-77.253
-77.2479
-77.2455
-77.246
-77.2538
-76.6828
-76.6779
-76.6756
-76.676
-76.6836
-76.0176
-76.0129
-76.0107
-76.0111
-76.0184
-75.2593
-75.2548
-75.2527
-75.2531
-75.26
-74.4099
-74.4056
-74.4036
-74.404
-74.4106
-73.472
-73.4678
-73.466
-73.4663
-73.4726
-72.4482
-72.4443
-72.4425
-72.4428
-72.4488
-71.3416
-71.3379
-71.3363
-71.3366
-71.3422
-70.1557
-70.1522
-70.1507
-70.1509
-70.1562
-68.8941
-68.8908
-68.8894
-68.8896
-68.8946
-67.5607
-67.5576
-67.5563
-67.5565
-67.5611
-66.1598
-66.157
-66.1558
-66.1559
-66.1602
-64.6959
-64.6932
-64.6921
-64.6923
-64.6962
-63.1736
-63.1712
-63.1702
-63.1703
-63.1739
-61.5979
-61.5957
-61.5949
-61.5949
-61.5982
-59.974
-59.972
-59.9712
-59.9712
-59.9742
-58.307
-58.3052
-58.3045
-58.3045
-58.3072
-56.6024
-56.6008
-56.6003
-56.6002
-56.6026
-54.8657
-54.8643
-54.8639
-54.8638
-54.8659
-53.1026
-53.1013
-53.101
-53.1009
-53.1027
-51.3185
-51.3175
-51.3172
-51.3171
-51.3186
-49.5193
-49.5184
-49.5183
-49.5181
-49.5194
)
;

boundaryField
{
    BotWall
    {
        type            zeroGradient;
    }
    FreeStream
    {
        type            zeroGradient;
    }
    FrontNBack
    {
        type            empty;
    }
    LeftSide
    {
        type            symmetryPlane;
    }
    RightSide
    {
        type            symmetryPlane;
    }
    procBoundary1to0
    {
        type            processor;
        value           nonuniform List<scalar> 5(-78.5398 -78.5341 -78.5313 -78.5319 -78.5408);
    }
    procBoundary1to2
    {
        type            processor;
        value           nonuniform List<scalar> 5(-47.7087 -47.708 -47.7079 -47.7077 -47.7087);
    }
}


// ************************************************************************* //
