/*--------------------------------*- C++ -*----------------------------------*\
| =========                 |                                                 |
| \\      /  F ield         | OpenFOAM: The Open Source CFD Toolbox           |
|  \\    /   O peration     | Version:  2.4.0                                 |
|   \\  /    A nd           | Web:      www.OpenFOAM.org                      |
|    \\/     M anipulation  |                                                 |
\*---------------------------------------------------------------------------*/
FoamFile
{
    version     2.0;
    format      ascii;
    class       surfaceScalarField;
    location    "1.7";
    object      phi;
}
// * * * * * * * * * * * * * * * * * * * * * * * * * * * * * * * * * * * * * //

dimensions      [0 3 -1 0 0 0 0];

internalField   nonuniform List<scalar> 
220
(
4.61431e-18
-3.41165e-10
3.6623e-18
-3.41165e-10
-3.52101e-18
-3.41164e-10
-7.05969e-18
-3.41165e-10
-3.41165e-10
3.90338e-18
-3.41165e-10
3.1214e-18
-3.41165e-10
-3.13265e-18
-3.41164e-10
-6.25623e-18
-3.41165e-10
-3.41165e-10
3.21501e-18
-3.41165e-10
2.5978e-18
-3.41165e-10
-2.75648e-18
-3.41164e-10
-5.47952e-18
-3.41165e-10
-3.41165e-10
2.5495e-18
-3.41165e-10
2.0917e-18
-3.41165e-10
-2.39267e-18
-3.41164e-10
-4.72971e-18
-3.41165e-10
-3.41165e-10
1.90714e-18
-3.41165e-10
1.60327e-18
-3.41165e-10
-2.04132e-18
-3.41164e-10
-4.0069e-18
-3.41165e-10
-3.41165e-10
1.28818e-18
-3.41165e-10
1.13264e-18
-3.41165e-10
-1.70256e-18
-3.41164e-10
-3.3112e-18
-3.41165e-10
-3.41165e-10
6.92835e-19
-3.41165e-10
6.79957e-19
-3.41165e-10
-1.37647e-18
-3.41164e-10
-2.64265e-18
-3.41165e-10
-3.41165e-10
1.21308e-19
-3.41165e-10
2.45317e-19
-3.41165e-10
-1.06314e-18
-3.41164e-10
-2.00131e-18
-3.41165e-10
-3.41165e-10
-4.26243e-19
-3.41165e-10
-1.71198e-19
-3.41165e-10
-7.62625e-19
-3.41164e-10
-1.38716e-18
-3.41165e-10
-3.41165e-10
-9.49689e-19
-3.41165e-10
-5.6953e-19
-3.41165e-10
-4.74972e-19
-3.41164e-10
-8.00185e-19
-3.41165e-10
-3.41165e-10
-1.44894e-18
-3.41165e-10
-9.49646e-19
-3.41165e-10
-2.00206e-19
-3.41164e-10
-2.40317e-19
-3.41165e-10
-3.41165e-10
-1.92393e-18
-3.41165e-10
-1.31154e-18
-3.41165e-10
6.16636e-20
-3.41164e-10
2.92534e-19
-3.41165e-10
-3.41165e-10
-2.37464e-18
-3.41165e-10
-1.65523e-18
-3.41165e-10
3.10645e-19
-3.41164e-10
7.98498e-19
-3.41165e-10
-3.41165e-10
-2.80109e-18
-3.41165e-10
-1.98076e-18
-3.41165e-10
5.46769e-19
-3.41164e-10
1.27774e-18
-3.41165e-10
-3.41165e-10
-3.20334e-18
-3.41165e-10
-2.2882e-18
-3.41165e-10
7.70081e-19
-3.41164e-10
1.73045e-18
-3.41165e-10
-3.41165e-10
-3.58149e-18
-3.41165e-10
-2.57767e-18
-3.41165e-10
9.80651e-19
-3.41164e-10
2.15687e-18
-3.41165e-10
-3.41165e-10
-3.93567e-18
-3.41165e-10
-2.84929e-18
-3.41165e-10
1.17857e-18
-3.41164e-10
2.55727e-18
-3.41165e-10
-3.41165e-10
-4.26608e-18
-3.41165e-10
-3.10323e-18
-3.41165e-10
1.36394e-18
-3.41164e-10
2.93196e-18
-3.41165e-10
-3.41165e-10
-4.57295e-18
-3.41165e-10
-3.33969e-18
-3.41165e-10
1.53691e-18
-3.41164e-10
3.2813e-18
-3.41165e-10
-3.41165e-10
-4.85655e-18
-3.41165e-10
-3.5589e-18
-3.41165e-10
1.69762e-18
-3.41165e-10
3.60568e-18
-3.41165e-10
-3.41165e-10
-5.11723e-18
-3.41165e-10
-3.76113e-18
-3.41165e-10
1.84627e-18
-3.41165e-10
3.90553e-18
-3.41165e-10
-3.41165e-10
-5.35536e-18
-3.41165e-10
-3.94667e-18
-3.41165e-10
1.98305e-18
-3.41165e-10
4.18139e-18
-3.41165e-10
-3.41165e-10
-5.57138e-18
-3.41165e-10
-4.11587e-18
-3.41165e-10
2.10817e-18
-3.41165e-10
4.43374e-18
-3.41165e-10
-3.41165e-10
-5.76578e-18
-3.41165e-10
-4.26912e-18
-3.41165e-10
2.22191e-18
-3.41165e-10
4.66361e-18
-3.41165e-10
-3.41165e-10
-5.93913e-18
-4.40683e-18
2.32451e-18
4.87109e-18
)
;

boundaryField
{
    BotWall
    {
        type            calculated;
        value           nonuniform 0();
    }
    FreeStream
    {
        type            calculated;
        value           nonuniform 0();
    }
    FrontNBack
    {
        type            empty;
        value           nonuniform 0();
    }
    LeftSide
    {
        type            symmetryPlane;
        value           uniform 0;
    }
    RightSide
    {
        type            symmetryPlane;
        value           uniform 0;
    }
    procBoundary2to1
    {
        type            processor;
        value           nonuniform List<scalar> 5(3.41165e-10 3.41165e-10 3.41165e-10 3.41165e-10 3.41165e-10);
    }
    procBoundary2to3
    {
        type            processor;
        value           nonuniform List<scalar> 5(-3.41165e-10 -3.41165e-10 -3.41165e-10 -3.41165e-10 -3.41165e-10);
    }
}


// ************************************************************************* //
