/*--------------------------------*- C++ -*----------------------------------*\
| =========                 |                                                 |
| \\      /  F ield         | OpenFOAM: The Open Source CFD Toolbox           |
|  \\    /   O peration     | Version:  2.4.0                                 |
|   \\  /    A nd           | Web:      www.OpenFOAM.org                      |
|    \\/     M anipulation  |                                                 |
\*---------------------------------------------------------------------------*/
FoamFile
{
    version     2.0;
    format      ascii;
    class       volScalarField;
    location    "0.004";
    object      H;
}
// * * * * * * * * * * * * * * * * * * * * * * * * * * * * * * * * * * * * * //

dimensions      [0 2 -2 0 0 0 0];

internalField   nonuniform List<scalar> 
125
(
-1.27997e-05
-1.02687e-05
-8.21966e-06
-6.56463e-06
-5.23092e-06
-4.15862e-06
-3.29845e-06
-2.61014e-06
-2.06061e-06
-1.62294e-06
-1.27516e-06
-9.99518e-07
-7.81569e-07
-6.09659e-07
-4.74385e-07
-3.68237e-07
-2.85095e-07
-2.20189e-07
-1.69628e-07
-1.30346e-07
-9.99057e-08
-7.63668e-08
-5.82299e-08
-4.42946e-08
-3.35917e-08
-2.54067e-08
-1.91678e-08
-1.44363e-08
-1.08098e-08
-8.10089e-09
-6.04286e-09
-4.49653e-09
-3.33416e-09
-2.4682e-09
-1.82185e-09
-1.32651e-09
-9.87747e-10
-6.92528e-10
-5.52646e-10
-3.65963e-10
-2.59643e-10
-2.05263e-10
-1.53926e-10
-1.0763e-10
-6.09037e-11
-4.60015e-11
-5.74054e-11
-4.87969e-11
-4.20047e-11
-2.43827e-11
-2.87769e-13
-4.26643e-14
-6.19027e-14
-4.13216e-15
2.62387e-16
-1.25982e-16
-3.07851e-17
-7.7943e-19
2.5026e-20
-6.73166e-20
-1.06895e-20
-3.6362e-22
-6.70214e-23
-2.91377e-23
-3.87758e-24
-3.20565e-25
-5.91106e-26
-1.19914e-26
-1.61632e-27
-2.18506e-28
-3.6869e-29
-5.66768e-30
-7.73126e-31
-1.15952e-31
-1.87444e-32
-2.78799e-33
-3.86201e-34
-5.57208e-35
-8.49786e-36
-1.26256e-36
-1.7731e-37
-2.47147e-38
-3.56415e-39
-5.16072e-40
-7.21206e-41
-9.86541e-42
-1.36631e-42
-1.90617e-43
-2.6103e-44
-3.509e-45
-4.71591e-46
-6.35121e-47
-8.46873e-48
-1.11486e-48
-1.45988e-49
-1.90688e-50
-2.47387e-51
-3.18088e-52
-4.06326e-53
-5.16515e-54
-6.52669e-55
-8.18929e-56
-1.0209e-56
-1.26543e-57
-1.55937e-58
-1.90966e-59
-2.32425e-60
-2.81227e-61
-3.38311e-62
-4.04589e-63
-4.81005e-64
-5.6855e-65
-6.68194e-66
-7.80821e-67
-9.07217e-68
-1.04809e-68
-1.20402e-69
-1.37535e-70
-1.56222e-71
-1.76448e-72
-1.98173e-73
-2.21319e-74
-2.45769e-75
-2.71238e-76
-2.90324e-77
)
;

boundaryField
{
    BotWall
    {
        type            zeroGradient;
    }
    FreeStream
    {
        type            zeroGradient;
    }
    FrontNBack
    {
        type            empty;
    }
    LeftSide
    {
        type            symmetryPlane;
    }
    RightSide
    {
        type            symmetryPlane;
    }
    procBoundary5to2
    {
        type            processor;
        value           nonuniform List<scalar> 
50
(
-2.50401e-39
-3.80239e-40
-2.40592e-41
-4.29947e-42
-1.29798e-42
-1.95358e-43
-2.0553e-44
-3.6648e-45
-6.80384e-46
-5.82534e-47
-7.34184e-48
-3.59692e-48
-4.84928e-49
5.39e-50
3.88412e-51
-4.67448e-51
-4.61887e-52
1.23753e-52
8.20572e-54
-5.00827e-54
-3.73026e-55
1.22841e-55
6.10954e-57
-3.74919e-57
-2.18912e-58
7.5971e-59
2.53444e-60
-1.97849e-60
-9.74867e-62
3.14393e-62
5.05692e-64
-7.71079e-64
-3.66132e-65
8.70294e-66
-8.69671e-68
-2.36588e-67
-1.28979e-68
1.38605e-69
-1.21772e-70
-6.22771e-71
-4.43279e-72
-4.27337e-74
-6.15821e-74
-1.54663e-74
-1.43784e-75
-1.12724e-76
-2.23679e-77
-3.81633e-78
-4.20021e-79
-4.52452e-80
)
;
    }
    procBoundary5to3
    {
        type            processor;
        value           nonuniform List<scalar> 
75
(
-1.27752e-05
-1.02485e-05
-8.20305e-06
-6.55105e-06
-5.21979e-06
-4.14954e-06
-3.29111e-06
-2.60417e-06
-2.0558e-06
-1.61905e-06
-1.27206e-06
-9.97028e-07
-7.79586e-07
-6.08081e-07
-4.73131e-07
-3.67223e-07
-2.84321e-07
-2.19575e-07
-1.69136e-07
-1.2998e-07
-9.9623e-08
-7.61356e-08
-5.80559e-08
-4.41535e-08
-3.34746e-08
-2.53466e-08
-1.90987e-08
-1.43789e-08
-1.07882e-08
-8.07495e-09
-6.01166e-09
-4.47804e-09
-3.32856e-09
-2.45307e-09
-1.82375e-09
-1.32115e-09
-9.78987e-10
-6.9388e-10
-5.42761e-10
-3.7223e-10
-2.62567e-10
-2.01763e-10
-1.54432e-10
-1.03602e-10
-6.55064e-11
-4.0584e-11
-5.70785e-11
-5.16533e-11
-4.66539e-11
-1.89027e-11
9.39394e-15
-1.51811e-14
-5.20488e-14
-5.50466e-15
-1.06734e-16
-1.08485e-16
-2.84613e-17
-2.47155e-18
-2.65275e-19
-8.07532e-20
-1.33273e-20
-1.39943e-21
-2.28144e-22
-4.59294e-23
-6.60606e-24
-8.55648e-25
-1.38723e-25
-2.28208e-26
-3.30054e-27
-4.75687e-28
-7.2162e-29
-1.07563e-29
-1.57319e-30
-2.31341e-31
-3.22683e-32
)
;
    }
    procBoundary5to4
    {
        type            processor;
        value           uniform -1.99077e-86;
    }
    procBoundary5to6
    {
        type            processor;
        value           uniform -1.59192e-05;
    }
    procBoundary5to7
    {
        type            processor;
        value           nonuniform List<scalar> 
75
(
7.49471e-23
4.04458e-23
-9.3153e-24
-1.68226e-23
-3.50819e-24
1.88156e-24
6.43843e-25
-2.06135e-25
-9.56252e-26
1.255e-26
8.63174e-27
-8.00248e-28
-6.99853e-28
2.75562e-29
4.34284e-29
-1.07484e-30
-2.49818e-30
-3.5568e-33
1.17676e-31
9.28494e-34
-5.26268e-33
-1.31165e-34
1.97347e-34
5.42744e-36
-7.20839e-36
-2.9792e-37
2.20672e-37
9.12517e-39
-6.82041e-39
-3.74945e-40
1.72059e-40
9.01573e-42
-4.65817e-42
-3.17668e-43
9.58711e-44
5.92041e-45
-2.38726e-45
-1.97238e-46
3.81757e-47
2.63788e-48
-9.60986e-49
-9.55984e-50
1.02021e-50
7.23052e-52
-3.25826e-52
-3.86621e-53
1.15085e-54
3.28963e-56
-1.03305e-55
-1.40513e-56
-5.28173e-58
-8.72338e-59
-3.37539e-59
-4.86916e-60
-4.25085e-61
-5.83016e-62
-1.14348e-62
-1.62901e-63
-1.86546e-64
-2.47137e-65
-3.74475e-66
-5.11257e-67
-6.36082e-68
-8.23231e-69
-1.11361e-69
-1.45303e-70
-1.82163e-71
-2.29502e-72
-2.92018e-73
-3.65711e-74
-4.49178e-75
-5.48852e-76
-6.6902e-77
-8.07157e-78
-9.6214e-79
)
;
    }
    procBoundary5to8
    {
        type            processor;
        value           nonuniform List<scalar> 
50
(
-1.24342e-05
-9.97477e-06
-7.9839e-06
-6.37597e-06
-5.08028e-06
-4.03862e-06
-3.20312e-06
-2.53456e-06
-2.00084e-06
-1.57579e-06
-1.23808e-06
-9.70406e-07
-7.58776e-07
-5.91853e-07
-4.60514e-07
-3.57434e-07
-2.76757e-07
-2.13736e-07
-1.6465e-07
-1.26516e-07
-9.69684e-08
-7.41291e-08
-5.6517e-08
-4.29822e-08
-3.26048e-08
-2.46636e-08
-1.86061e-08
-1.39963e-08
-1.05027e-08
-7.85461e-09
-5.87065e-09
-4.35848e-09
-3.24381e-09
-2.38501e-09
-1.7679e-09
-1.29605e-09
-9.58999e-10
-6.74893e-10
-5.21036e-10
-3.63272e-10
-2.65842e-10
-1.91122e-10
-1.48181e-10
-1.02429e-10
-4.83294e-11
-6.51319e-11
-3.39218e-11
-6.32729e-11
-4.6952e-11
-1.46694e-11
)
;
    }
}


// ************************************************************************* //
