/*--------------------------------*- C++ -*----------------------------------*\
| =========                 |                                                 |
| \\      /  F ield         | OpenFOAM: The Open Source CFD Toolbox           |
|  \\    /   O peration     | Version:  2.4.0                                 |
|   \\  /    A nd           | Web:      www.OpenFOAM.org                      |
|    \\/     M anipulation  |                                                 |
\*---------------------------------------------------------------------------*/
FoamFile
{
    version     2.0;
    format      ascii;
    class       volScalarField;
    location    "0.004";
    object      p_rgh;
}
// * * * * * * * * * * * * * * * * * * * * * * * * * * * * * * * * * * * * * //

dimensions      [1 -1 -2 0 0 0 0];

internalField   nonuniform List<scalar> 
125
(
-0.0185461
-0.0184681
-0.0183898
-0.0183113
-0.0182325
-0.0181534
-0.0180739
-0.0179942
-0.0179142
-0.017834
-0.0177534
-0.0176725
-0.0175913
-0.0175098
-0.017428
-0.0173459
-0.0172635
-0.0171808
-0.0170978
-0.0170145
-0.0169309
-0.016847
-0.0167627
-0.0166782
-0.0165933
-0.0165081
-0.0164226
-0.0163368
-0.0162507
-0.0161642
-0.0160775
-0.0159904
-0.015903
-0.0158153
-0.0157272
-0.0156388
-0.0155501
-0.0154611
-0.0153717
-0.015282
-0.015192
-0.0151016
-0.015011
-0.0149199
-0.0148286
-0.0147369
-0.0146448
-0.0145524
-0.0144597
-0.0143667
-0.0142732
-0.0141795
-0.0140854
-0.0139909
-0.0138962
-0.013801
-0.0137055
-0.0136097
-0.0135135
-0.0134169
-0.01332
-0.0132227
-0.0131251
-0.0130271
-0.0129287
-0.01283
-0.0127309
-0.0126315
-0.0125316
-0.0124315
-0.0123309
-0.01223
-0.0121287
-0.012027
-0.0119249
-0.0118225
-0.0117197
-0.0116165
-0.011513
-0.011409
-0.0113047
-0.0112
-0.0110949
-0.0109894
-0.0108835
-0.0107772
-0.0106706
-0.0105635
-0.0104561
-0.0103482
-0.01024
-0.0101313
-0.0100223
-0.00991283
-0.00980298
-0.00969272
-0.00958205
-0.00947098
-0.0093595
-0.00924761
-0.0091353
-0.00902258
-0.00890944
-0.00879589
-0.00868192
-0.00856753
-0.00845271
-0.00833748
-0.00822182
-0.00810573
-0.00798921
-0.00787227
-0.00775489
-0.00763708
-0.00751884
-0.00740016
-0.00728104
-0.00716149
-0.00704149
-0.00692105
-0.00680017
-0.00667884
-0.00655707
-0.00643484
-0.00631216
)
;

boundaryField
{
    BotWall
    {
        type            fixedFluxPressure;
        gradient        nonuniform 0();
        value           nonuniform 0();
    }
    FreeStream
    {
        type            totalPressure;
        rho             rho;
        psi             none;
        gamma           1;
        p0              nonuniform 0();
        value           nonuniform 0();
    }
    FrontNBack
    {
        type            empty;
    }
    LeftSide
    {
        type            symmetryPlane;
    }
    RightSide
    {
        type            symmetryPlane;
    }
    procBoundary5to2
    {
        type            processor;
        value           nonuniform List<scalar> 
50
(
-0.0118414
-0.0117384
-0.011635
-0.0115312
-0.011427
-0.0113224
-0.0112175
-0.0111122
-0.0110064
-0.0109003
-0.0107938
-0.0106869
-0.0105796
-0.0104719
-0.0103638
-0.0102554
-0.0101465
-0.0100372
-0.00992749
-0.0098174
-0.00970689
-0.00959598
-0.00948466
-0.00937293
-0.00926079
-0.00914823
-0.00903526
-0.00892187
-0.00880806
-0.00869384
-0.00857919
-0.00846412
-0.00834862
-0.0082327
-0.00811635
-0.00799957
-0.00788236
-0.00776472
-0.00764665
-0.00752814
-0.00740919
-0.00728981
-0.00716998
-0.00704972
-0.00692901
-0.00680785
-0.00668625
-0.0065642
-0.00644171
-0.00631876
)
;
    }
    procBoundary5to3
    {
        type            processor;
        value           nonuniform List<scalar> 
75
(
-0.0185814
-0.0185032
-0.0184248
-0.0183461
-0.0182671
-0.0181878
-0.0181082
-0.0180283
-0.0179481
-0.0178676
-0.0177868
-0.0177057
-0.0176244
-0.0175427
-0.0174607
-0.0173784
-0.0172958
-0.0172129
-0.0171297
-0.0170462
-0.0169624
-0.0168783
-0.0167938
-0.0167091
-0.016624
-0.0165386
-0.0164529
-0.0163669
-0.0162806
-0.0161939
-0.0161069
-0.0160196
-0.015932
-0.0158441
-0.0157558
-0.0156672
-0.0155783
-0.015489
-0.0153994
-0.0153095
-0.0152193
-0.0151287
-0.0150378
-0.0149465
-0.014855
-0.014763
-0.0146708
-0.0145782
-0.0144852
-0.0143919
-0.0142983
-0.0142043
-0.01411
-0.0140153
-0.0139202
-0.0138249
-0.0137291
-0.013633
-0.0135366
-0.0134398
-0.0133426
-0.0132451
-0.0131472
-0.013049
-0.0129504
-0.0128514
-0.0127521
-0.0126524
-0.0125523
-0.0124519
-0.0123511
-0.0122499
-0.0121484
-0.0120464
-0.0119441
)
;
    }
    procBoundary5to4
    {
        type            processor;
        value           uniform -0.00618902;
    }
    procBoundary5to6
    {
        type            processor;
        value           uniform -0.0186237;
    }
    procBoundary5to7
    {
        type            processor;
        value           nonuniform List<scalar> 
75
(
-0.0143387
-0.0142443
-0.0141494
-0.0140543
-0.0139588
-0.013863
-0.0137668
-0.0136702
-0.0135733
-0.0134761
-0.0133785
-0.0132805
-0.0131822
-0.0130835
-0.0129844
-0.012885
-0.0127852
-0.0126851
-0.0125846
-0.0124837
-0.0123825
-0.0122809
-0.0121789
-0.0120765
-0.0119738
-0.0118707
-0.0117672
-0.0116633
-0.011559
-0.0114544
-0.0113494
-0.011244
-0.0111382
-0.011032
-0.0109255
-0.0108185
-0.0107112
-0.0106034
-0.0104953
-0.0103868
-0.0102778
-0.0101685
-0.0100588
-0.00994865
-0.00983811
-0.00972717
-0.00961582
-0.00950406
-0.0093919
-0.00927932
-0.00916633
-0.00905292
-0.0089391
-0.00882486
-0.0087102
-0.00859512
-0.00847962
-0.0083637
-0.00824734
-0.00813057
-0.00801336
-0.00789572
-0.00777765
-0.00765915
-0.00754021
-0.00742084
-0.00730103
-0.00718078
-0.00706008
-0.00693895
-0.00681736
-0.00669534
-0.00657286
-0.00644993
-0.00632655
)
;
    }
    procBoundary5to8
    {
        type            processor;
        value           nonuniform List<scalar> 
50
(
-0.0186479
-0.0185692
-0.0184902
-0.0184109
-0.0183313
-0.0182515
-0.0181713
-0.0180909
-0.0180102
-0.0179291
-0.0178478
-0.0177662
-0.0176842
-0.017602
-0.0175195
-0.0174367
-0.0173535
-0.0172701
-0.0171864
-0.0171023
-0.017018
-0.0169333
-0.0168483
-0.016763
-0.0166775
-0.0165916
-0.0165053
-0.0164188
-0.0163319
-0.0162448
-0.0161573
-0.0160695
-0.0159814
-0.0158929
-0.0158041
-0.015715
-0.0156256
-0.0155359
-0.0154458
-0.0153554
-0.0152646
-0.0151735
-0.0150821
-0.0149904
-0.0148983
-0.0148059
-0.0147132
-0.0146201
-0.0145266
-0.0144328
)
;
    }
}


// ************************************************************************* //
