/*--------------------------------*- C++ -*----------------------------------*\
| =========                 |                                                 |
| \\      /  F ield         | OpenFOAM: The Open Source CFD Toolbox           |
|  \\    /   O peration     | Version:  2.4.0                                 |
|   \\  /    A nd           | Web:      www.OpenFOAM.org                      |
|    \\/     M anipulation  |                                                 |
\*---------------------------------------------------------------------------*/
FoamFile
{
    version     2.0;
    format      ascii;
    class       volScalarField;
    location    "2.7";
    object      H;
}
// * * * * * * * * * * * * * * * * * * * * * * * * * * * * * * * * * * * * * //

dimensions      [0 2 -2 0 0 0 0];

internalField   nonuniform List<scalar> 
500
(
-11936.4
-11936.4
-11936.4
-11936.4
-11936.4
-11345.8
-11345.8
-11345.8
-11345.8
-11345.8
-10748.6
-10748.5
-10748.5
-10748.5
-10748.6
-10144.6
-10144.6
-10144.5
-10144.6
-10144.6
-9533.7
-9533.67
-9533.65
-9533.67
-9533.7
-8915.81
-8915.78
-8915.75
-8915.78
-8915.81
-8290.79
-8290.75
-8290.72
-8290.75
-8290.79
-7658.5
-7658.45
-7658.42
-7658.45
-7658.5
-7018.81
-7018.75
-7018.71
-7018.75
-7018.81
-6371.58
-6371.52
-6371.47
-6371.52
-6371.58
-5716.67
-5716.6
-5716.55
-5716.6
-5716.67
-5053.94
-5053.86
-5053.81
-5053.86
-5053.94
-4383.24
-4383.15
-4383.09
-4383.15
-4383.24
-3704.41
-3704.32
-3704.25
-3704.32
-3704.41
-3017.31
-3017.21
-3017.13
-3017.21
-3017.31
-2321.77
-2321.66
-2321.58
-2321.66
-2321.78
-1617.64
-1617.52
-1617.43
-1617.52
-1617.65
-904.756
-904.618
-904.517
-904.617
-904.757
-21.7447
-21.7324
-21.7234
-21.7322
-21.7449
-16.282
-16.2727
-16.2661
-16.2726
-16.2821
-16.4011
-16.3919
-16.3854
-16.3918
-16.4011
-16.516
-16.507
-16.5006
-16.5069
-16.5161
-16.6267
-16.6178
-16.6115
-16.6177
-16.6268
-16.7328
-16.7241
-16.7179
-16.724
-16.7329
-16.8343
-16.8257
-16.8196
-16.8256
-16.8344
-16.9309
-16.9224
-16.9164
-16.9223
-16.9309
-17.0223
-17.014
-17.0081
-17.0139
-17.0224
-17.1084
-17.1002
-17.0944
-17.1001
-17.1085
-17.1889
-17.1809
-17.1752
-17.1808
-17.189
-17.2637
-17.2558
-17.2502
-17.2557
-17.2638
-17.3325
-17.3247
-17.3193
-17.3247
-17.3326
-17.3951
-17.3874
-17.3821
-17.3874
-17.3952
-17.4512
-17.4437
-17.4385
-17.4437
-17.4513
-17.5007
-17.4934
-17.4882
-17.4933
-17.5008
-17.5433
-17.5361
-17.531
-17.536
-17.5434
-17.5789
-17.5717
-17.5668
-17.5717
-17.5789
-17.607
-17.6001
-17.5952
-17.6
-17.6071
-17.6277
-17.6208
-17.6161
-17.6208
-17.6277
-17.6405
-17.6338
-17.6292
-17.6338
-17.6406
-17.6454
-17.6388
-17.6342
-17.6388
-17.6455
-17.6421
-17.6356
-17.6311
-17.6355
-17.6421
-17.6303
-17.6239
-17.6196
-17.6239
-17.6303
-17.6099
-17.6036
-17.5994
-17.6036
-17.6099
-17.5806
-17.5745
-17.5703
-17.5745
-17.5806
-17.5422
-17.5363
-17.5322
-17.5362
-17.5423
-17.4946
-17.4888
-17.4848
-17.4888
-17.4947
-17.4375
-17.4318
-17.4279
-17.4318
-17.4376
-17.3708
-17.3652
-17.3614
-17.3652
-17.3709
-17.2942
-17.2888
-17.2851
-17.2888
-17.2943
-17.2076
-17.2023
-17.1987
-17.2023
-17.2077
-17.1108
-17.1056
-17.1021
-17.1056
-17.1109
-17.0037
-16.9986
-16.9952
-16.9986
-17.0037
-16.886
-16.8811
-16.8777
-16.881
-16.8861
-16.7577
-16.7529
-16.7496
-16.7528
-16.7577
-16.6186
-16.6139
-16.6107
-16.6138
-16.6186
-16.4685
-16.4639
-16.4608
-16.4639
-16.4686
-16.3074
-16.303
-16.3
-16.3029
-16.3075
-16.1352
-16.1309
-16.1279
-16.1308
-16.1352
-15.9518
-15.9475
-15.9447
-15.9475
-15.9518
-15.757
-15.7529
-15.7502
-15.7529
-15.7571
-15.5509
-15.5469
-15.5443
-15.5469
-15.551
-15.3334
-15.3296
-15.327
-15.3295
-15.3334
-15.1045
-15.1007
-15.0982
-15.1007
-15.1045
-14.8641
-14.8605
-14.858
-14.8604
-14.8641
-14.6123
-14.6087
-14.6064
-14.6087
-14.6123
-14.349
-14.3456
-14.3433
-14.3456
-14.349
-14.0744
-14.0711
-14.0689
-14.0711
-14.0744
-13.7885
-13.7853
-13.7832
-13.7853
-13.7885
-13.4913
-13.4882
-13.4862
-13.4882
-13.4913
-13.183
-13.1801
-13.1781
-13.18
-13.183
-12.8637
-12.8609
-12.859
-12.8608
-12.8637
-12.5335
-12.5308
-12.529
-12.5308
-12.5336
-12.1927
-12.1901
-12.1883
-12.19
-12.1927
-11.8413
-11.8388
-11.8371
-11.8388
-11.8413
-11.4797
-11.4773
-11.4757
-11.4772
-11.4797
-11.1079
-11.1057
-11.1041
-11.1056
-11.108
-10.7265
-10.7243
-10.7228
-10.7243
-10.7265
-10.3355
-10.3334
-10.332
-10.3334
-10.3355
-9.93528
-9.93331
-9.932
-9.9333
-9.9353
-9.52626
-9.52438
-9.52314
-9.52437
-9.52627
-9.10874
-9.10697
-9.1058
-9.10696
-9.10876
-8.68314
-8.68147
-8.68036
-8.68146
-8.68315
-8.24985
-8.24828
-8.24724
-8.24827
-8.24986
-7.80933
-7.80786
-7.80689
-7.80785
-7.80934
-7.36204
-7.36067
-7.35976
-7.36066
-7.36205
-6.90848
-6.9072
-6.90636
-6.9072
-6.90849
-6.44917
-6.44799
-6.44721
-6.44798
-6.44918
-5.98466
-5.98357
-5.98285
-5.98356
-5.98467
-5.51552
-5.51452
-5.51386
-5.51451
-5.51552
-5.04234
-5.04144
-5.04085
-5.04144
-5.04235
-4.56577
-4.56496
-4.56442
-4.56495
-4.56578
-4.08645
-4.08572
-4.08525
-4.08572
-4.08645
-3.60504
-3.60441
-3.60399
-3.60441
-3.60505
-3.12227
-3.12172
-3.12136
-3.12172
-3.12227
-2.63884
-2.63838
-2.63808
-2.63838
-2.63885
-2.15552
-2.15514
-2.1549
-2.15514
-2.15552
-1.67307
-1.67278
-1.67258
-1.67277
-1.67307
-1.19228
-1.19207
-1.19194
-1.19207
-1.19228
-0.713977
-0.713854
-0.713773
-0.713854
-0.713978
-0.238997
-0.238956
-0.238929
-0.238956
-0.238997
)
;

boundaryField
{
    BotWall
    {
        type            zeroGradient;
    }
    FreeStream
    {
        type            zeroGradient;
    }
    FrontNBack
    {
        type            empty;
    }
    LeftSide
    {
        type            symmetryPlane;
    }
    RightSide
    {
        type            symmetryPlane;
    }
}


// ************************************************************************* //
