/*--------------------------------*- C++ -*----------------------------------*\
| =========                 |                                                 |
| \\      /  F ield         | OpenFOAM: The Open Source CFD Toolbox           |
|  \\    /   O peration     | Version:  2.4.0                                 |
|   \\  /    A nd           | Web:      www.OpenFOAM.org                      |
|    \\/     M anipulation  |                                                 |
\*---------------------------------------------------------------------------*/
FoamFile
{
    version     2.0;
    format      ascii;
    class       volScalarField;
    location    "2.7";
    object      p;
}
// * * * * * * * * * * * * * * * * * * * * * * * * * * * * * * * * * * * * * //

dimensions      [1 -1 -2 0 0 0 0];

internalField   nonuniform List<scalar> 
500
(
0.582092
0.582201
0.582131
0.582202
0.582091
0.552257
0.552369
0.552302
0.55237
0.552256
0.522129
0.522241
0.522173
0.522242
0.522128
0.491639
0.491752
0.491685
0.491753
0.491637
0.460836
0.460951
0.460885
0.460952
0.460834
0.429648
0.429765
0.4297
0.429766
0.429647
0.398142
0.39826
0.398196
0.398261
0.39814
0.366323
0.366442
0.36638
0.366443
0.366321
0.334424
0.334546
0.334485
0.334547
0.334423
0.302213
0.302336
0.302276
0.302337
0.302211
0.267832
0.267955
0.267897
0.267957
0.267831
0.226941
0.227059
0.226999
0.22706
0.226939
0.183777
0.183895
0.183832
0.183896
0.183775
0.18718
0.187339
0.187282
0.18734
0.187179
0.344231
0.344509
0.344511
0.344511
0.344228
0.547218
0.547586
0.547743
0.54759
0.547214
-0.454859
-0.455041
-0.455026
-0.455039
-0.454862
-5.29729
-5.29958
-5.30088
-5.2996
-5.29727
-11.4041
-11.4091
-11.4131
-11.4092
-11.4041
-0.0159492
-0.0159488
-0.0159486
-0.0159488
-0.0159492
-0.00964302
-0.00964337
-0.00964348
-0.00964337
-0.00964301
-0.0112882
-0.0112882
-0.0112882
-0.0112882
-0.0112882
-0.0124655
-0.0124655
-0.0124654
-0.0124655
-0.0124655
-0.013177
-0.013177
-0.013177
-0.013177
-0.013177
-0.0137772
-0.0137772
-0.0137772
-0.0137772
-0.0137772
-0.0144004
-0.0144004
-0.0144004
-0.0144004
-0.0144004
-0.015049
-0.015049
-0.015049
-0.015049
-0.015049
-0.0157093
-0.0157093
-0.0157093
-0.0157093
-0.0157093
-0.0163763
-0.0163763
-0.0163763
-0.0163763
-0.0163763
-0.01705
-0.01705
-0.01705
-0.01705
-0.01705
-0.017731
-0.017731
-0.017731
-0.017731
-0.017731
-0.0184197
-0.0184197
-0.0184197
-0.0184197
-0.0184197
-0.0191161
-0.0191161
-0.0191161
-0.0191161
-0.0191161
-0.0198203
-0.0198203
-0.0198203
-0.0198203
-0.0198203
-0.0205323
-0.0205323
-0.0205323
-0.0205323
-0.0205323
-0.0212523
-0.0212523
-0.0212523
-0.0212523
-0.0212523
-0.0219803
-0.0219803
-0.0219803
-0.0219803
-0.0219803
-0.0227164
-0.0227164
-0.0227164
-0.0227164
-0.0227164
-0.0234608
-0.0234608
-0.0234608
-0.0234608
-0.0234608
-0.0242134
-0.0242134
-0.0242134
-0.0242134
-0.0242134
-0.0249745
-0.0249745
-0.0249745
-0.0249745
-0.0249745
-0.025744
-0.025744
-0.025744
-0.025744
-0.025744
-0.0265221
-0.0265221
-0.0265221
-0.0265221
-0.0265221
-0.027309
-0.027309
-0.027309
-0.027309
-0.027309
-0.0281046
-0.0281045
-0.0281045
-0.0281045
-0.0281046
-0.028909
-0.028909
-0.028909
-0.028909
-0.028909
-0.0297225
-0.0297225
-0.0297225
-0.0297225
-0.0297225
-0.030545
-0.030545
-0.030545
-0.030545
-0.030545
-0.0313767
-0.0313767
-0.0313767
-0.0313767
-0.0313767
-0.0322177
-0.0322177
-0.0322177
-0.0322177
-0.0322177
-0.0330681
-0.0330681
-0.0330681
-0.0330681
-0.0330681
-0.0339279
-0.0339279
-0.0339279
-0.0339279
-0.0339279
-0.0347974
-0.0347974
-0.0347974
-0.0347974
-0.0347974
-0.0356765
-0.0356765
-0.0356765
-0.0356765
-0.0356765
-0.0365655
-0.0365655
-0.0365655
-0.0365655
-0.0365655
-0.0374644
-0.0374644
-0.0374644
-0.0374644
-0.0374644
-0.0383733
-0.0383733
-0.0383733
-0.0383733
-0.0383733
-0.0392924
-0.0392923
-0.0392923
-0.0392923
-0.0392924
-0.0402217
-0.0402217
-0.0402217
-0.0402217
-0.0402217
-0.0411614
-0.0411613
-0.0411613
-0.0411613
-0.0411613
-0.0421115
-0.0421115
-0.0421115
-0.0421115
-0.0421115
-0.0430723
-0.0430723
-0.0430723
-0.0430723
-0.0430723
-0.0440438
-0.0440438
-0.0440438
-0.0440438
-0.0440438
-0.0450261
-0.0450261
-0.0450261
-0.0450261
-0.0450261
-0.0460194
-0.0460194
-0.0460194
-0.0460194
-0.0460194
-0.0470238
-0.0470238
-0.0470238
-0.0470238
-0.0470238
-0.0480394
-0.0480394
-0.0480394
-0.0480394
-0.0480394
-0.0490663
-0.0490663
-0.0490663
-0.0490663
-0.0490663
-0.0501047
-0.0501047
-0.0501047
-0.0501047
-0.0501047
-0.0511547
-0.0511547
-0.0511547
-0.0511547
-0.0511547
-0.0522164
-0.0522164
-0.0522164
-0.0522164
-0.0522164
-0.0532899
-0.0532899
-0.0532899
-0.0532899
-0.0532899
-0.0543754
-0.0543754
-0.0543754
-0.0543754
-0.0543754
-0.055473
-0.055473
-0.055473
-0.055473
-0.055473
-0.0565829
-0.0565829
-0.0565829
-0.0565829
-0.0565829
-0.0577052
-0.0577052
-0.0577052
-0.0577052
-0.0577052
-0.0588399
-0.0588399
-0.0588399
-0.0588399
-0.0588399
-0.0599874
-0.0599874
-0.0599874
-0.0599874
-0.0599874
-0.0611476
-0.0611476
-0.0611476
-0.0611476
-0.0611476
-0.0623208
-0.0623208
-0.0623208
-0.0623208
-0.0623208
-0.0635071
-0.0635071
-0.0635071
-0.0635071
-0.0635071
-0.0647066
-0.0647066
-0.0647066
-0.0647066
-0.0647066
-0.0659195
-0.0659195
-0.0659195
-0.0659195
-0.0659195
-0.067146
-0.067146
-0.067146
-0.067146
-0.067146
-0.0683861
-0.0683861
-0.0683861
-0.0683861
-0.0683861
-0.0696401
-0.0696401
-0.0696401
-0.0696401
-0.0696401
-0.0709081
-0.0709081
-0.0709081
-0.0709081
-0.0709081
-0.0721902
-0.0721902
-0.0721902
-0.0721902
-0.0721902
-0.0734866
-0.0734866
-0.0734866
-0.0734866
-0.0734866
-0.0747975
-0.0747975
-0.0747975
-0.0747975
-0.0747975
-0.076123
-0.076123
-0.076123
-0.076123
-0.076123
-0.0774633
-0.0774633
-0.0774633
-0.0774633
-0.0774633
-0.0788185
-0.0788185
-0.0788185
-0.0788185
-0.0788185
-0.0801889
-0.0801889
-0.0801889
-0.0801889
-0.0801889
-0.0815746
-0.0815746
-0.0815746
-0.0815746
-0.0815746
-0.0829757
-0.0829757
-0.0829757
-0.0829757
-0.0829757
-0.0843925
-0.0843925
-0.0843925
-0.0843925
-0.0843925
-0.0858251
-0.0858251
-0.0858251
-0.0858251
-0.0858251
-0.0872737
-0.0872737
-0.0872737
-0.0872737
-0.0872737
-0.0887384
-0.0887384
-0.0887384
-0.0887384
-0.0887384
)
;

boundaryField
{
    BotWall
    {
        type            calculated;
        value           nonuniform List<scalar> 5(0.596912 0.597021 0.596952 0.597023 0.596911);
    }
    FreeStream
    {
        type            calculated;
        value           nonuniform List<scalar> 5(-0.0894748 -0.0894748 -0.0894748 -0.0894748 -0.0894748);
    }
    FrontNBack
    {
        type            empty;
    }
    LeftSide
    {
        type            symmetryPlane;
    }
    RightSide
    {
        type            symmetryPlane;
    }
}


// ************************************************************************* //
