/*--------------------------------*- C++ -*----------------------------------*\
| =========                 |                                                 |
| \\      /  F ield         | OpenFOAM: The Open Source CFD Toolbox           |
|  \\    /   O peration     | Version:  2.4.0                                 |
|   \\  /    A nd           | Web:      www.OpenFOAM.org                      |
|    \\/     M anipulation  |                                                 |
\*---------------------------------------------------------------------------*/
FoamFile
{
    version     2.0;
    format      ascii;
    class       volScalarField;
    location    "2.7";
    object      p_rgh;
}
// * * * * * * * * * * * * * * * * * * * * * * * * * * * * * * * * * * * * * //

dimensions      [1 -1 -2 0 0 0 0];

internalField   nonuniform List<scalar> 
500
(
0.596912
0.597021
0.596952
0.597023
0.596911
0.596883
0.596995
0.596928
0.596997
0.596882
0.596894
0.597006
0.596938
0.597007
0.596893
0.596879
0.596992
0.596925
0.596993
0.596877
0.59689
0.597005
0.59694
0.597006
0.596889
0.596862
0.596978
0.596914
0.596979
0.59686
0.596862
0.59698
0.596917
0.596981
0.59686
0.596901
0.597021
0.596958
0.597022
0.5969
0.597216
0.597338
0.597277
0.597339
0.597215
0.597577
0.597701
0.597641
0.597702
0.597576
0.596134
0.596257
0.596198
0.596258
0.596133
0.588546
0.588665
0.588605
0.588666
0.588545
0.579058
0.579177
0.579114
0.579178
0.579056
0.616513
0.616671
0.616615
0.616673
0.616512
0.807995
0.808274
0.808276
0.808276
0.807993
1.0458
1.04617
1.04632
1.04617
1.04579
0.0789248
0.0787436
0.078758
0.0787452
0.0789225
-4.72791
-4.7302
-4.7315
-4.73021
-4.72789
-11.0683
-11.0731
-11.077
-11.0732
-11.0683
-0.00531904
-0.00531863
-0.00531847
-0.00531863
-0.00531904
0.00159671
0.00159635
0.00159624
0.00159635
0.00159671
0.000567886
0.000567903
0.000567888
0.000567903
0.000567886
1.38561e-05
1.39096e-05
1.39176e-05
1.39099e-05
1.3856e-05
-6.74463e-05
-6.7437e-05
-6.74321e-05
-6.74368e-05
-6.74463e-05
-3.03938e-05
-3.03997e-05
-3.03982e-05
-3.03995e-05
-3.03938e-05
-9.17323e-06
-9.1755e-06
-9.17485e-06
-9.17534e-06
-9.17322e-06
-6.23441e-06
-6.23291e-06
-6.23216e-06
-6.23275e-06
-6.2344e-06
-7.70357e-06
-7.70144e-06
-7.70058e-06
-7.70128e-06
-7.70356e-06
-8.53618e-06
-8.53447e-06
-8.5336e-06
-8.5343e-06
-8.53617e-06
-8.64125e-06
-8.63982e-06
-8.63898e-06
-8.63965e-06
-8.64124e-06
-8.57323e-06
-8.57186e-06
-8.57105e-06
-8.5717e-06
-8.57321e-06
-8.53109e-06
-8.52974e-06
-8.52895e-06
-8.52958e-06
-8.53107e-06
-8.51782e-06
-8.51648e-06
-8.51571e-06
-8.51633e-06
-8.5178e-06
-8.51125e-06
-8.50995e-06
-8.5092e-06
-8.50979e-06
-8.51123e-06
-8.50352e-06
-8.50225e-06
-8.50152e-06
-8.50209e-06
-8.50349e-06
-8.49453e-06
-8.4933e-06
-8.49258e-06
-8.49314e-06
-8.4945e-06
-8.48517e-06
-8.48397e-06
-8.48327e-06
-8.48381e-06
-8.48514e-06
-8.47575e-06
-8.47458e-06
-8.4739e-06
-8.47443e-06
-8.47572e-06
-8.46627e-06
-8.46513e-06
-8.46446e-06
-8.46498e-06
-8.46624e-06
-8.4567e-06
-8.45558e-06
-8.45493e-06
-8.45543e-06
-8.45666e-06
-8.44701e-06
-8.44592e-06
-8.44528e-06
-8.44577e-06
-8.44697e-06
-8.43721e-06
-8.43615e-06
-8.43553e-06
-8.436e-06
-8.43718e-06
-8.42731e-06
-8.42627e-06
-8.42566e-06
-8.42613e-06
-8.42727e-06
-8.41729e-06
-8.41627e-06
-8.41568e-06
-8.41613e-06
-8.41725e-06
-8.40716e-06
-8.40617e-06
-8.40559e-06
-8.40603e-06
-8.40712e-06
-8.39692e-06
-8.39595e-06
-8.39538e-06
-8.39581e-06
-8.39688e-06
-8.38656e-06
-8.38561e-06
-8.38506e-06
-8.38548e-06
-8.38652e-06
-8.37608e-06
-8.37516e-06
-8.37462e-06
-8.37503e-06
-8.37604e-06
-8.36549e-06
-8.36459e-06
-8.36406e-06
-8.36447e-06
-8.36545e-06
-8.35479e-06
-8.35391e-06
-8.35339e-06
-8.35378e-06
-8.35474e-06
-8.34396e-06
-8.3431e-06
-8.34259e-06
-8.34298e-06
-8.34392e-06
-8.33301e-06
-8.33217e-06
-8.33168e-06
-8.33205e-06
-8.33297e-06
-8.32194e-06
-8.32112e-06
-8.32064e-06
-8.32101e-06
-8.3219e-06
-8.31075e-06
-8.30995e-06
-8.30947e-06
-8.30984e-06
-8.31071e-06
-8.29943e-06
-8.29865e-06
-8.29819e-06
-8.29854e-06
-8.29939e-06
-8.28799e-06
-8.28723e-06
-8.28677e-06
-8.28712e-06
-8.28795e-06
-8.27642e-06
-8.27568e-06
-8.27523e-06
-8.27557e-06
-8.27638e-06
-8.26473e-06
-8.264e-06
-8.26357e-06
-8.2639e-06
-8.26468e-06
-8.2529e-06
-8.25219e-06
-8.25177e-06
-8.25209e-06
-8.25286e-06
-8.24094e-06
-8.24025e-06
-8.23984e-06
-8.24016e-06
-8.2409e-06
-8.22885e-06
-8.22818e-06
-8.22778e-06
-8.22809e-06
-8.22881e-06
-8.21663e-06
-8.21598e-06
-8.21558e-06
-8.21589e-06
-8.21659e-06
-8.20427e-06
-8.20364e-06
-8.20325e-06
-8.20355e-06
-8.20424e-06
-8.19178e-06
-8.19116e-06
-8.19078e-06
-8.19107e-06
-8.19174e-06
-8.17915e-06
-8.17854e-06
-8.17818e-06
-8.17846e-06
-8.17911e-06
-8.16638e-06
-8.16579e-06
-8.16543e-06
-8.16571e-06
-8.16634e-06
-8.15347e-06
-8.15289e-06
-8.15254e-06
-8.15282e-06
-8.15343e-06
-8.14041e-06
-8.13986e-06
-8.13952e-06
-8.13978e-06
-8.14038e-06
-8.12721e-06
-8.12667e-06
-8.12634e-06
-8.1266e-06
-8.12718e-06
-8.11387e-06
-8.11335e-06
-8.11303e-06
-8.11328e-06
-8.11384e-06
-8.10038e-06
-8.09987e-06
-8.09956e-06
-8.09981e-06
-8.10035e-06
-8.08674e-06
-8.08625e-06
-8.08595e-06
-8.08619e-06
-8.08671e-06
-8.07295e-06
-8.07248e-06
-8.07218e-06
-8.07242e-06
-8.07292e-06
-8.05901e-06
-8.05855e-06
-8.05827e-06
-8.05849e-06
-8.05898e-06
-8.04491e-06
-8.04447e-06
-8.0442e-06
-8.04442e-06
-8.04488e-06
-8.03066e-06
-8.03024e-06
-8.02998e-06
-8.03019e-06
-8.03063e-06
-8.01625e-06
-8.01585e-06
-8.0156e-06
-8.0158e-06
-8.01623e-06
-8.00169e-06
-8.0013e-06
-8.00106e-06
-8.00125e-06
-8.00166e-06
-7.98696e-06
-7.98659e-06
-7.98636e-06
-7.98655e-06
-7.98694e-06
-7.97207e-06
-7.97172e-06
-7.9715e-06
-7.97168e-06
-7.97205e-06
-7.95702e-06
-7.95668e-06
-7.95647e-06
-7.95664e-06
-7.957e-06
-7.9418e-06
-7.94148e-06
-7.94128e-06
-7.94144e-06
-7.94178e-06
-7.92642e-06
-7.92611e-06
-7.92592e-06
-7.92608e-06
-7.9264e-06
-7.91086e-06
-7.91057e-06
-7.91039e-06
-7.91054e-06
-7.91084e-06
-7.89513e-06
-7.89486e-06
-7.89469e-06
-7.89483e-06
-7.89512e-06
-7.87923e-06
-7.87898e-06
-7.87882e-06
-7.87895e-06
-7.87922e-06
-7.86316e-06
-7.86292e-06
-7.86278e-06
-7.8629e-06
-7.86314e-06
-7.84691e-06
-7.84669e-06
-7.84655e-06
-7.84667e-06
-7.84689e-06
-7.83047e-06
-7.83028e-06
-7.83015e-06
-7.83025e-06
-7.83046e-06
-7.81386e-06
-7.81368e-06
-7.81357e-06
-7.81366e-06
-7.81385e-06
-7.79707e-06
-7.7969e-06
-7.7968e-06
-7.79689e-06
-7.79705e-06
-7.78008e-06
-7.77994e-06
-7.77985e-06
-7.77992e-06
-7.78007e-06
-7.76291e-06
-7.76279e-06
-7.76271e-06
-7.76278e-06
-7.7629e-06
-7.74556e-06
-7.74545e-06
-7.74538e-06
-7.74544e-06
-7.74555e-06
-7.72801e-06
-7.72792e-06
-7.72786e-06
-7.72791e-06
-7.728e-06
-7.71026e-06
-7.7102e-06
-7.71015e-06
-7.71019e-06
-7.71025e-06
-7.69232e-06
-7.69228e-06
-7.69225e-06
-7.69227e-06
-7.69231e-06
-7.67417e-06
-7.67416e-06
-7.67415e-06
-7.67415e-06
-7.67417e-06
-7.65584e-06
-7.65584e-06
-7.65584e-06
-7.65584e-06
-7.65583e-06
-7.63735e-06
-7.63731e-06
-7.63728e-06
-7.63731e-06
-7.63734e-06
)
;

boundaryField
{
    BotWall
    {
        type            fixedFluxPressure;
        gradient        uniform 0;
        value           nonuniform List<scalar> 5(0.596912 0.597021 0.596952 0.597023 0.596911);
    }
    FreeStream
    {
        type            totalPressure;
        rho             rho;
        psi             none;
        gamma           1;
        p0              uniform 0;
        value           nonuniform List<scalar> 5(-7.62808e-06 -7.62798e-06 -7.62791e-06 -7.62798e-06 -7.62808e-06);
    }
    FrontNBack
    {
        type            empty;
    }
    LeftSide
    {
        type            symmetryPlane;
    }
    RightSide
    {
        type            symmetryPlane;
    }
}


// ************************************************************************* //
