/*--------------------------------*- C++ -*----------------------------------*\
| =========                 |                                                 |
| \\      /  F ield         | OpenFOAM: The Open Source CFD Toolbox           |
|  \\    /   O peration     | Version:  2.4.0                                 |
|   \\  /    A nd           | Web:      www.OpenFOAM.org                      |
|    \\/     M anipulation  |                                                 |
\*---------------------------------------------------------------------------*/
FoamFile
{
    version     2.0;
    format      ascii;
    class       surfaceScalarField;
    location    "2.7";
    object      phi;
}
// * * * * * * * * * * * * * * * * * * * * * * * * * * * * * * * * * * * * * //

dimensions      [0 3 -1 0 0 0 0];

internalField   nonuniform List<scalar> 
895
(
3.83463e-18
-3.8353e-18
2.64001e-18
1.19374e-18
-2.62869e-18
5.2673e-18
-3.86745e-18
1.23776e-18
-3.86866e-18
1.17796e-17
-1.56246e-17
8.0005e-18
4.95649e-18
-7.96468e-18
2.12094e-17
-1.18811e-17
5.13582e-18
-1.57632e-17
2.0064e-17
-3.57002e-17
1.35372e-17
1.14649e-17
-1.34767e-17
4.81979e-17
-2.02385e-17
1.1878e-17
-3.60154e-17
2.8697e-17
-6.441e-17
1.92834e-17
2.08588e-17
-1.91972e-17
8.66518e-17
-2.895e-17
2.16102e-17
-6.49794e-17
3.76767e-17
-1.021e-16
2.52403e-17
3.32746e-17
-2.51273e-17
1.36992e-16
-3.80119e-17
3.44738e-17
-1.03005e-16
4.70418e-17
-1.49156e-16
3.14273e-17
4.88681e-17
-3.12862e-17
1.99677e-16
-4.7463e-17
5.06295e-17
-1.50482e-16
5.67857e-17
-2.05956e-16
3.78433e-17
6.77894e-17
-3.76726e-17
2.75165e-16
-5.72975e-17
7.02336e-17
-2.07793e-16
6.69536e-17
-2.72924e-16
4.45119e-17
9.02103e-17
-4.431e-17
3.6396e-16
-6.75607e-17
9.34639e-17
-2.75367e-16
7.7536e-17
-3.50474e-16
5.143e-17
1.16296e-16
-5.11952e-17
4.66558e-16
-7.82437e-17
1.20493e-16
-3.53624e-16
8.85857e-17
-4.39074e-16
5.86247e-17
1.46237e-16
-5.83553e-17
5.83513e-16
-8.93995e-17
1.51518e-16
-4.43035e-16
1.00092e-16
-5.39179e-16
6.60929e-17
1.80218e-16
-6.57871e-17
7.15369e-16
-1.01018e-16
1.86732e-16
-5.44064e-16
1.12113e-16
-6.51304e-16
7.38648e-17
2.18449e-16
-7.35206e-17
8.62732e-16
-1.13157e-16
2.26352e-16
-6.57231e-16
1.2463e-16
-7.75946e-16
8.19372e-17
2.61127e-16
-8.15525e-17
1.0262e-15
-1.25799e-16
2.70584e-16
-7.83038e-16
1.37684e-16
-9.1364e-16
9.03386e-17
3.08459e-16
-8.99115e-17
1.20643e-15
-1.38984e-16
3.19644e-16
-9.22029e-16
1.51274e-16
-1.06492e-15
9.90563e-17
3.60665e-16
-9.8585e-17
1.40406e-15
-1.52711e-16
3.73761e-16
-1.07475e-15
1.65609e-16
-1.23054e-15
1.08247e-16
4.18019e-16
-1.07728e-16
1.62003e-15
-1.67192e-16
4.33218e-16
-1.24194e-15
1.81123e-16
-1.41167e-15
1.17468e-16
4.81669e-16
-1.16908e-16
1.8544e-15
-1.82866e-16
4.99173e-16
-1.42481e-15
1.98194e-16
-2.90246e-15
1.28548e-16
5.51316e-16
-1.27905e-16
2.11085e-15
-2.00143e-16
5.7141e-16
-2.92968e-15
2.17668e-16
-2.58673e-10
1.43065e-16
-2.58675e-10
-1.42275e-16
-2.58677e-10
-2.19941e-16
-2.58675e-10
-2.58673e-10
2.19767e-16
-2.58673e-10
1.42519e-16
-2.58675e-10
-1.41809e-16
-2.58677e-10
-2.2193e-16
-2.58675e-10
-2.58673e-10
2.23344e-16
-2.58673e-10
1.41842e-16
-2.58675e-10
-1.41034e-16
-2.58676e-10
-2.25503e-16
-2.58675e-10
-2.58673e-10
2.09556e-16
-2.58673e-10
1.36516e-16
-2.58675e-10
-1.3568e-16
-2.58676e-10
-2.11571e-16
-2.58675e-10
-2.58673e-10
2.00865e-16
-2.58673e-10
1.31067e-16
-2.58675e-10
-1.30188e-16
-2.58676e-10
-2.02768e-16
-2.58675e-10
-2.58673e-10
1.94142e-16
-2.58674e-10
1.26145e-16
-2.58675e-10
-1.25215e-16
-2.58676e-10
-1.95948e-16
-2.58675e-10
-2.58674e-10
1.87205e-16
-2.58674e-10
1.21543e-16
-2.58675e-10
-1.20562e-16
-2.58675e-10
-1.88918e-16
-2.58675e-10
-2.58674e-10
1.7993e-16
-2.58674e-10
1.16987e-16
-2.58675e-10
-1.15958e-16
-2.58675e-10
-1.81548e-16
-2.58675e-10
-2.58674e-10
1.72666e-16
-2.58674e-10
1.12426e-16
-2.58675e-10
-1.11351e-16
-2.58675e-10
-1.74191e-16
-2.58675e-10
-2.58674e-10
1.65539e-16
-2.58674e-10
1.07894e-16
-2.58674e-10
-1.06775e-16
-2.58675e-10
-1.66972e-16
-2.58674e-10
-2.58674e-10
1.58531e-16
-2.58675e-10
1.03417e-16
-2.58674e-10
-1.02256e-16
-2.58675e-10
-1.59872e-16
-2.58674e-10
-2.58675e-10
1.51617e-16
-2.58675e-10
9.90008e-17
-2.58674e-10
-9.77997e-17
-2.58674e-10
-1.52868e-16
-2.58674e-10
-2.58675e-10
1.44796e-16
-2.58675e-10
9.46452e-17
-2.58674e-10
-9.34055e-17
-2.58674e-10
-1.45958e-16
-2.58674e-10
-2.58675e-10
1.38072e-16
-2.58675e-10
9.03508e-17
-2.58674e-10
-8.90745e-17
-2.58674e-10
-1.39147e-16
-2.58674e-10
-2.58675e-10
1.31452e-16
-2.58675e-10
8.61196e-17
-2.58674e-10
-8.48088e-17
-2.58674e-10
-1.32441e-16
-2.58674e-10
-2.58675e-10
1.24939e-16
-2.58675e-10
8.19541e-17
-2.58674e-10
-8.06107e-17
-2.58674e-10
-1.25844e-16
-2.58674e-10
-2.58675e-10
1.18536e-16
-2.58675e-10
7.78565e-17
-2.58674e-10
-7.64827e-17
-2.58673e-10
-1.19358e-16
-2.58674e-10
-2.58675e-10
1.12247e-16
-2.58675e-10
7.38289e-17
-2.58674e-10
-7.24267e-17
-2.58673e-10
-1.12986e-16
-2.58674e-10
-2.58675e-10
1.06073e-16
-2.58676e-10
6.98733e-17
-2.58674e-10
-6.8445e-17
-2.58673e-10
-1.06733e-16
-2.58674e-10
-2.58676e-10
1.00019e-16
-2.58676e-10
6.59918e-17
-2.58674e-10
-6.45394e-17
-2.58673e-10
-1.00601e-16
-2.58674e-10
-2.58676e-10
9.40866e-17
-2.58676e-10
6.21863e-17
-2.58674e-10
-6.0712e-17
-2.58673e-10
-9.45927e-17
-2.58674e-10
-2.58676e-10
8.82795e-17
-2.58676e-10
5.84585e-17
-2.58674e-10
-5.69647e-17
-2.58673e-10
-8.87112e-17
-2.58674e-10
-2.58676e-10
8.26001e-17
-2.58676e-10
5.48104e-17
-2.58674e-10
-5.32991e-17
-2.58673e-10
-8.29594e-17
-2.58674e-10
-2.58676e-10
7.70509e-17
-2.58676e-10
5.12436e-17
-2.58674e-10
-4.97172e-17
-2.58673e-10
-7.73398e-17
-2.58674e-10
-2.58676e-10
7.16346e-17
-2.58676e-10
4.77599e-17
-2.58674e-10
-4.62205e-17
-2.58673e-10
-7.18549e-17
-2.58674e-10
-2.58676e-10
6.63533e-17
-2.58676e-10
4.43607e-17
-2.58674e-10
-4.28106e-17
-2.58672e-10
-6.65072e-17
-2.58674e-10
-2.58676e-10
6.12093e-17
-2.58676e-10
4.10476e-17
-2.58674e-10
-3.9489e-17
-2.58672e-10
-6.12988e-17
-2.58674e-10
-2.58676e-10
5.62048e-17
-2.58676e-10
3.7822e-17
-2.58674e-10
-3.62571e-17
-2.58672e-10
-5.6232e-17
-2.58674e-10
-2.58676e-10
5.13416e-17
-2.58676e-10
3.46852e-17
-2.58674e-10
-3.31162e-17
-2.58672e-10
-5.13087e-17
-2.58674e-10
-2.58676e-10
4.66216e-17
-2.58676e-10
3.16385e-17
-2.58674e-10
-3.00676e-17
-2.58672e-10
-4.65308e-17
-2.58674e-10
-2.58676e-10
4.20464e-17
-2.58676e-10
2.8683e-17
-2.58674e-10
-2.71123e-17
-2.58672e-10
-4.18999e-17
-2.58674e-10
-2.58676e-10
3.76175e-17
-2.58676e-10
2.58199e-17
-2.58674e-10
-2.42514e-17
-2.58672e-10
-3.74176e-17
-2.58674e-10
-2.58676e-10
3.33364e-17
-2.58676e-10
2.30499e-17
-2.58674e-10
-2.14858e-17
-2.58672e-10
-3.30853e-17
-2.58674e-10
-2.58676e-10
2.92042e-17
-2.58676e-10
2.03741e-17
-2.58674e-10
-1.88164e-17
-2.58672e-10
-2.89043e-17
-2.58674e-10
-2.58676e-10
2.52219e-17
-2.58677e-10
1.77932e-17
-2.58674e-10
-1.62437e-17
-2.58672e-10
-2.48754e-17
-2.58674e-10
-2.58677e-10
2.13905e-17
-2.58677e-10
1.53077e-17
-2.58674e-10
-1.37685e-17
-2.58672e-10
-2.09998e-17
-2.58674e-10
-2.58677e-10
1.77106e-17
-2.58677e-10
1.29183e-17
-2.58674e-10
-1.13912e-17
-2.58672e-10
-1.72779e-17
-2.58674e-10
-2.58677e-10
1.41827e-17
-2.58677e-10
1.06254e-17
-2.58674e-10
-9.11216e-18
-2.58672e-10
-1.37105e-17
-2.58674e-10
-2.58677e-10
1.08073e-17
-2.58677e-10
8.42932e-18
-2.58674e-10
-6.93162e-18
-2.58672e-10
-1.02978e-17
-2.58674e-10
-2.58677e-10
7.5844e-18
-2.58677e-10
6.33019e-18
-2.58674e-10
-4.84968e-18
-2.58672e-10
-7.03998e-18
-2.58674e-10
-2.58677e-10
4.51402e-18
-2.58677e-10
4.32809e-18
-2.58674e-10
-2.86635e-18
-2.58672e-10
-3.93696e-18
-2.58674e-10
-2.58677e-10
1.5959e-18
-2.58677e-10
2.42298e-18
-2.58674e-10
-9.81466e-19
-2.58672e-10
-9.88522e-19
-2.58674e-10
-2.58677e-10
-1.17037e-18
-2.58677e-10
6.14661e-19
-2.58674e-10
8.05247e-19
-2.58672e-10
1.80581e-18
-2.58674e-10
-2.58677e-10
-3.78547e-18
-2.58677e-10
-1.0972e-18
-2.58674e-10
2.49421e-18
-2.58672e-10
4.4467e-18
-2.58674e-10
-2.58677e-10
-6.25024e-18
-2.58677e-10
-2.71305e-18
-2.58674e-10
4.08599e-18
-2.58672e-10
6.93504e-18
-2.58674e-10
-2.58677e-10
-8.56576e-18
-2.58677e-10
-4.23351e-18
-2.58674e-10
5.58128e-18
-2.58672e-10
9.27194e-18
-2.58674e-10
-2.58677e-10
-1.07333e-17
-2.58677e-10
-5.65932e-18
-2.58674e-10
6.98094e-18
-2.58672e-10
1.14587e-17
-2.58674e-10
-2.58677e-10
-1.27545e-17
-2.58677e-10
-6.99138e-18
-2.58674e-10
8.28598e-18
-2.58672e-10
1.3497e-17
-2.58674e-10
-2.58677e-10
-1.46311e-17
-2.58677e-10
-8.23075e-18
-2.58674e-10
9.49756e-18
-2.58672e-10
1.53886e-17
-2.58674e-10
-2.58677e-10
-1.6365e-17
-2.58677e-10
-9.37863e-18
-2.58674e-10
1.0617e-17
-2.58672e-10
1.71356e-17
-2.58674e-10
-2.58677e-10
-1.79585e-17
-2.58676e-10
-1.04364e-17
-2.58674e-10
1.16458e-17
-2.58672e-10
1.87402e-17
-2.58674e-10
-2.58676e-10
-1.94142e-17
-2.58676e-10
-1.14056e-17
-2.58674e-10
1.25856e-17
-2.58672e-10
2.0205e-17
-2.58674e-10
-2.58676e-10
-2.07348e-17
-2.58676e-10
-1.22879e-17
-2.58674e-10
1.34382e-17
-2.58672e-10
2.1533e-17
-2.58674e-10
-2.58676e-10
-2.19234e-17
-2.58676e-10
-1.30851e-17
-2.58674e-10
1.42056e-17
-2.58672e-10
2.27272e-17
-2.58674e-10
-2.58676e-10
-2.29833e-17
-2.58676e-10
-1.37995e-17
-2.58674e-10
1.48901e-17
-2.58672e-10
2.37909e-17
-2.58674e-10
-2.58676e-10
-2.3918e-17
-2.58676e-10
-1.44331e-17
-2.58674e-10
1.54938e-17
-2.58672e-10
2.4728e-17
-2.58674e-10
-2.58676e-10
-2.47316e-17
-2.58676e-10
-1.49885e-17
-2.58674e-10
1.60195e-17
-2.58672e-10
2.55423e-17
-2.58674e-10
-2.58676e-10
-2.54281e-17
-2.58676e-10
-1.54681e-17
-2.58674e-10
1.64699e-17
-2.58672e-10
2.62381e-17
-2.58674e-10
-2.58676e-10
-2.6012e-17
-2.58676e-10
-1.5875e-17
-2.58674e-10
1.68478e-17
-2.58672e-10
2.68201e-17
-2.58674e-10
-2.58676e-10
-2.64882e-17
-2.58676e-10
-1.6212e-17
-2.58674e-10
1.71564e-17
-2.58672e-10
2.72931e-17
-2.58674e-10
-2.58676e-10
-2.68618e-17
-2.58676e-10
-1.64824e-17
-2.58674e-10
1.73992e-17
-2.58672e-10
2.76623e-17
-2.58674e-10
-2.58676e-10
-2.71383e-17
-2.58676e-10
-1.66897e-17
-2.58674e-10
1.75795e-17
-2.58672e-10
2.79334e-17
-2.58674e-10
-2.58676e-10
-2.73235e-17
-2.58676e-10
-1.68375e-17
-2.58674e-10
1.77014e-17
-2.58672e-10
2.81123e-17
-2.58674e-10
-2.58676e-10
-2.74235e-17
-2.58676e-10
-1.69298e-17
-2.58674e-10
1.77686e-17
-2.58672e-10
2.82052e-17
-2.58674e-10
-2.58676e-10
-2.7445e-17
-2.58676e-10
-1.69707e-17
-2.58674e-10
1.77856e-17
-2.58672e-10
2.82189e-17
-2.58674e-10
-2.58676e-10
-2.73948e-17
-2.58676e-10
-1.69645e-17
-2.58674e-10
1.77567e-17
-2.58672e-10
2.81604e-17
-2.58674e-10
-2.58676e-10
-2.72803e-17
-2.58676e-10
-1.6916e-17
-2.58674e-10
1.76868e-17
-2.58672e-10
2.80371e-17
-2.58674e-10
-2.58676e-10
-2.71092e-17
-2.58676e-10
-1.683e-17
-2.58674e-10
1.75809e-17
-2.58672e-10
2.78569e-17
-2.58674e-10
-2.58676e-10
-2.68896e-17
-2.58676e-10
-1.67117e-17
-2.58674e-10
1.74441e-17
-2.58672e-10
2.76283e-17
-2.58674e-10
-2.58676e-10
-2.66304e-17
-2.58676e-10
-1.65667e-17
-2.58674e-10
1.72822e-17
-2.58673e-10
2.73598e-17
-2.58674e-10
-2.58676e-10
-2.63405e-17
-2.58676e-10
-1.64007e-17
-2.58674e-10
1.7101e-17
-2.58673e-10
2.70609e-17
-2.58674e-10
-2.58676e-10
-2.60296e-17
-2.58676e-10
-1.62198e-17
-2.58674e-10
1.69066e-17
-2.58673e-10
2.67413e-17
-2.58674e-10
-2.58676e-10
-2.57079e-17
-2.58676e-10
-1.60304e-17
-2.58674e-10
1.67055e-17
-2.58673e-10
2.64114e-17
-2.58674e-10
-2.58676e-10
-2.5386e-17
-2.58676e-10
-1.58395e-17
-2.58674e-10
1.65047e-17
-2.58673e-10
2.6082e-17
-2.58674e-10
-2.58676e-10
-2.50754e-17
-2.58676e-10
-1.56541e-17
-2.58674e-10
1.63113e-17
-2.58673e-10
2.57646e-17
-2.58674e-10
-2.58676e-10
-2.4788e-17
-2.58676e-10
-1.54818e-17
-2.58674e-10
1.6133e-17
-2.58673e-10
2.54715e-17
-2.58674e-10
-2.58676e-10
-2.45365e-17
-2.58676e-10
-1.53307e-17
-2.58674e-10
1.59778e-17
-2.58673e-10
2.52155e-17
-2.58674e-10
-2.58676e-10
-2.43341e-17
-2.58676e-10
-1.52093e-17
-2.58674e-10
1.58542e-17
-2.58673e-10
2.50101e-17
-2.58674e-10
-2.58676e-10
-2.4195e-17
-2.58676e-10
-1.51262e-17
-2.58674e-10
1.5771e-17
-2.58673e-10
2.48694e-17
-2.58674e-10
-2.58676e-10
-2.41344e-17
-2.58676e-10
-1.50912e-17
-2.58674e-10
1.57378e-17
-2.58673e-10
2.48093e-17
-2.58674e-10
-2.58676e-10
-2.4172e-17
-2.58676e-10
-1.51167e-17
-2.58674e-10
1.57671e-17
-2.58673e-10
2.48494e-17
-2.58674e-10
-2.58676e-10
-2.4335e-17
-1.52223e-17
1.5878e-17
2.5018e-17
)
;

boundaryField
{
    BotWall
    {
        type            calculated;
        value           nonuniform List<scalar> 5(4.18509e-22 6.97856e-22 1.13643e-21 9.13105e-22 7.78702e-22);
    }
    FreeStream
    {
        type            calculated;
        value           nonuniform List<scalar> 5(-2.58676e-10 -2.58674e-10 -2.58673e-10 -2.58674e-10 -2.58676e-10);
    }
    FrontNBack
    {
        type            empty;
        value           nonuniform 0();
    }
    LeftSide
    {
        type            symmetryPlane;
        value           uniform 0;
    }
    RightSide
    {
        type            symmetryPlane;
        value           uniform 0;
    }
}


// ************************************************************************* //
