/*--------------------------------*- C++ -*----------------------------------*\
| =========                 |                                                 |
| \\      /  F ield         | OpenFOAM: The Open Source CFD Toolbox           |
|  \\    /   O peration     | Version:  2.4.0                                 |
|   \\  /    A nd           | Web:      www.OpenFOAM.org                      |
|    \\/     M anipulation  |                                                 |
\*---------------------------------------------------------------------------*/
FoamFile
{
    version     2.0;
    format      ascii;
    class       volVectorField;
    location    "2.7";
    object      U;
}
// * * * * * * * * * * * * * * * * * * * * * * * * * * * * * * * * * * * * * //

dimensions      [0 1 -1 0 0 0 0];

internalField   nonuniform List<vector> 
500
(
(9.29731e-10 3.12553e-10 0)
(1.88939e-09 3.23269e-10 0)
(8.3824e-12 3.27255e-10 0)
(-1.89763e-09 3.23314e-10 0)
(-9.45827e-10 3.12535e-10 0)
(2.82817e-09 -8.59391e-10 0)
(5.70084e-09 -8.22887e-10 0)
(2.55867e-11 -7.80609e-10 0)
(-5.72581e-09 -8.22439e-10 0)
(-2.87712e-09 -8.59761e-10 0)
(4.77598e-09 1.29342e-09 0)
(9.56639e-09 1.4766e-09 0)
(4.30942e-11 1.59858e-09 0)
(-9.60888e-09 1.47797e-09 0)
(-4.85888e-09 1.2924e-09 0)
(6.77918e-09 -2.16195e-09 0)
(1.34928e-08 -1.88269e-09 0)
(6.1039e-11 -1.63663e-09 0)
(-1.35537e-08 -1.87992e-09 0)
(-6.89735e-09 -2.16408e-09 0)
(8.83422e-09 2.17765e-09 0)
(1.74771e-08 2.76294e-09 0)
(7.95047e-11 3.17543e-09 0)
(-1.75569e-08 2.76769e-09 0)
(-8.98875e-09 2.17409e-09 0)
(1.09506e-08 -3.8846e-09 0)
(2.15297e-08 -3.12572e-09 0)
(9.85232e-11 -2.49983e-09 0)
(-2.1629e-08 -3.11846e-09 0)
(-1.11426e-08 -3.89009e-09 0)
(1.31229e-08 2.31899e-09 0)
(2.56457e-08 3.55223e-09 0)
(1.18124e-10 4.43545e-09 0)
(-2.5765e-08 3.56261e-09 0)
(-1.33534e-08 2.31122e-09 0)
(1.53625e-08 -6.71639e-09 0)
(2.98375e-08 -5.22174e-09 0)
(1.38347e-10 -4.03005e-09 0)
(-2.99775e-08 -5.20766e-09 0)
(-1.56329e-08 -6.72698e-09 0)
(1.76627e-08 6.34469e-09 0)
(3.40989e-08 8.49959e-09 0)
(1.59246e-10 1.00473e-08 0)
(-3.42602e-08 8.51807e-09 0)
(-1.79743e-08 6.33085e-09 0)
(2.00366e-08 8.44391e-09 0)
(3.84441e-08 1.09708e-08 0)
(1.80843e-10 1.29333e-08 0)
(-3.86275e-08 1.09944e-08 0)
(-2.0391e-08 8.42618e-09 0)
(2.24768e-08 3.04064e-08 0)
(4.28663e-08 3.37723e-08 0)
(2.03169e-10 3.62011e-08 0)
(-4.30726e-08 3.38018e-08 0)
(-2.28754e-08 3.03843e-08 0)
(2.49972e-08 -7.99465e-08 0)
(4.73806e-08 -7.6218e-08 0)
(2.26269e-10 -7.32888e-08 0)
(-4.76105e-08 -7.61822e-08 0)
(-2.54416e-08 -7.99734e-08 0)
(2.7589e-08 -4.2713e-07 0)
(5.19787e-08 -4.2261e-07 0)
(2.50183e-10 -4.19224e-07 0)
(-5.2233e-08 -4.22569e-07 0)
(-2.80811e-08 -4.27161e-07 0)
(3.0266e-08 -6.81303e-07 0)
(5.6674e-08 -6.76101e-07 0)
(2.74936e-10 -6.72251e-07 0)
(-5.69537e-08 -6.76053e-07 0)
(-3.08074e-08 -6.81337e-07 0)
(3.30273e-08 1.82765e-06 0)
(6.14671e-08 1.83623e-06 0)
(3.00584e-10 1.84129e-06 0)
(-6.17731e-08 1.83629e-06 0)
(-3.36201e-08 1.8276e-06 0)
(3.59145e-08 1.1412e-05 0)
(6.64115e-08 1.14267e-05 0)
(3.27324e-10 1.14355e-05 0)
(-6.67448e-08 1.14268e-05 0)
(-3.65609e-08 1.14119e-05 0)
(3.89438e-08 1.6553e-05 0)
(7.15077e-08 1.65715e-05 0)
(3.54211e-10 1.6586e-05 0)
(-7.18716e-08 1.65717e-05 0)
(-3.96473e-08 1.65528e-05 0)
(4.20804e-08 -4.34033e-05 0)
(7.68785e-08 -4.34214e-05 0)
(3.85444e-10 -4.34232e-05 0)
(-7.72724e-08 -4.34214e-05 0)
(-4.28448e-08 -4.34033e-05 0)
(4.52894e-08 -0.000336228 0)
(8.25244e-08 -0.000336316 0)
(4.19708e-10 -0.000336369 0)
(-8.29513e-08 -0.000336317 0)
(-4.61211e-08 -0.000336228 0)
(4.60305e-08 -0.000960557 0)
(8.37099e-08 -0.000960512 0)
(4.26048e-10 -0.000960495 0)
(-8.41427e-08 -0.000960511 0)
(-4.68743e-08 -0.000960558 0)
(4.57029e-08 -0.00221987 0)
(8.24632e-08 -0.0022198 0)
(4.32151e-10 -0.00221977 0)
(-8.28722e-08 -0.0022198 0)
(-4.65271e-08 -0.00221987 0)
(4.30344e-08 -0.00133829 0)
(7.81525e-08 -0.00133835 0)
(4.28237e-10 -0.00133836 0)
(-7.85282e-08 -0.00133835 0)
(-4.38197e-08 -0.00133829 0)
(4.07874e-08 -0.00124458 0)
(7.43004e-08 -0.0012446 0)
(4.23901e-10 -0.00124461 0)
(-7.46437e-08 -0.0012446 0)
(-4.15345e-08 -0.00124458 0)
(3.88526e-08 -0.00126604 0)
(7.08377e-08 -0.00126604 0)
(4.19892e-10 -0.00126605 0)
(-7.11501e-08 -0.00126604 0)
(-3.95635e-08 -0.00126604 0)
(3.69914e-08 -0.00129073 0)
(6.75055e-08 -0.00129073 0)
(4.15901e-10 -0.00129073 0)
(-6.77882e-08 -0.00129073 0)
(-3.76674e-08 -0.00129073 0)
(3.51377e-08 -0.00129558 0)
(6.42197e-08 -0.00129558 0)
(4.11682e-10 -0.00129559 0)
(-6.44737e-08 -0.00129558 0)
(-3.57797e-08 -0.00129558 0)
(3.33193e-08 -0.00129446 0)
(6.10053e-08 -0.00129446 0)
(4.07197e-10 -0.00129447 0)
(-6.12315e-08 -0.00129446 0)
(-3.39282e-08 -0.00129446 0)
(3.1556e-08 -0.00129348 0)
(5.7883e-08 -0.00129348 0)
(4.02467e-10 -0.00129348 0)
(-5.80824e-08 -0.00129348 0)
(-3.21326e-08 -0.00129348 0)
(2.98495e-08 -0.00129328 0)
(5.4855e-08 -0.00129328 0)
(3.97505e-10 -0.00129328 0)
(-5.50285e-08 -0.00129328 0)
(-3.03946e-08 -0.00129328 0)
(2.81967e-08 -0.00129333 0)
(5.19182e-08 -0.00129333 0)
(3.92319e-10 -0.00129333 0)
(-5.20668e-08 -0.00129333 0)
(-2.87113e-08 -0.00129333 0)
(2.65958e-08 -0.00129337 0)
(4.90706e-08 -0.00129337 0)
(3.86913e-10 -0.00129337 0)
(-4.91952e-08 -0.00129337 0)
(-2.70807e-08 -0.00129337 0)
(2.50463e-08 -0.00129338 0)
(4.63111e-08 -0.00129338 0)
(3.81293e-10 -0.00129337 0)
(-4.64128e-08 -0.00129338 0)
(-2.55023e-08 -0.00129338 0)
(2.35477e-08 -0.00129338 0)
(4.36393e-08 -0.00129337 0)
(3.75464e-10 -0.00129337 0)
(-4.37189e-08 -0.00129337 0)
(-2.39757e-08 -0.00129338 0)
(2.20996e-08 -0.00129338 0)
(4.10544e-08 -0.00129337 0)
(3.69435e-10 -0.00129337 0)
(-4.11128e-08 -0.00129337 0)
(-2.25003e-08 -0.00129338 0)
(2.07013e-08 -0.00129338 0)
(3.85554e-08 -0.00129337 0)
(3.63213e-10 -0.00129337 0)
(-3.85937e-08 -0.00129337 0)
(-2.10757e-08 -0.00129338 0)
(1.93522e-08 -0.00129338 0)
(3.61415e-08 -0.00129337 0)
(3.56805e-10 -0.00129337 0)
(-3.61605e-08 -0.00129337 0)
(-1.97012e-08 -0.00129338 0)
(1.80518e-08 -0.00129338 0)
(3.38116e-08 -0.00129337 0)
(3.50221e-10 -0.00129337 0)
(-3.38123e-08 -0.00129337 0)
(-1.83761e-08 -0.00129338 0)
(1.67993e-08 -0.00129338 0)
(3.15648e-08 -0.00129337 0)
(3.43469e-10 -0.00129337 0)
(-3.15481e-08 -0.00129337 0)
(-1.70997e-08 -0.00129338 0)
(1.55941e-08 -0.00129338 0)
(2.94001e-08 -0.00129337 0)
(3.36559e-10 -0.00129336 0)
(-2.93668e-08 -0.00129337 0)
(-1.58715e-08 -0.00129338 0)
(1.44355e-08 -0.00129338 0)
(2.73164e-08 -0.00129337 0)
(3.29501e-10 -0.00129336 0)
(-2.72675e-08 -0.00129337 0)
(-1.46907e-08 -0.00129338 0)
(1.33227e-08 -0.00129338 0)
(2.53125e-08 -0.00129337 0)
(3.22305e-10 -0.00129336 0)
(-2.52489e-08 -0.00129337 0)
(-1.35565e-08 -0.00129338 0)
(1.22552e-08 -0.00129338 0)
(2.33875e-08 -0.00129337 0)
(3.14981e-10 -0.00129336 0)
(-2.331e-08 -0.00129337 0)
(-1.24684e-08 -0.00129338 0)
(1.12321e-08 -0.00129338 0)
(2.154e-08 -0.00129337 0)
(3.07541e-10 -0.00129336 0)
(-2.14496e-08 -0.00129337 0)
(-1.14255e-08 -0.00129338 0)
(1.02528e-08 -0.00129338 0)
(1.9769e-08 -0.00129337 0)
(2.99996e-10 -0.00129336 0)
(-1.96664e-08 -0.00129337 0)
(-1.04272e-08 -0.00129338 0)
(9.31633e-09 -0.00129338 0)
(1.80732e-08 -0.00129337 0)
(2.92358e-10 -0.00129336 0)
(-1.79592e-08 -0.00129337 0)
(-9.47249e-09 -0.00129338 0)
(8.42206e-09 -0.00129338 0)
(1.64513e-08 -0.00129337 0)
(2.84638e-10 -0.00129336 0)
(-1.63268e-08 -0.00129337 0)
(-8.56076e-09 -0.00129338 0)
(7.56917e-09 -0.00129338 0)
(1.49021e-08 -0.00129337 0)
(2.76849e-10 -0.00129336 0)
(-1.47678e-08 -0.00129337 0)
(-7.69116e-09 -0.00129338 0)
(6.75685e-09 -0.00129338 0)
(1.34242e-08 -0.00129337 0)
(2.69002e-10 -0.00129336 0)
(-1.3281e-08 -0.00129337 0)
(-6.86289e-09 -0.00129338 0)
(5.9843e-09 -0.00129338 0)
(1.20164e-08 -0.00129337 0)
(2.61112e-10 -0.00129336 0)
(-1.1865e-08 -0.00129337 0)
(-6.07512e-09 -0.00129338 0)
(5.25067e-09 -0.00129338 0)
(1.06773e-08 -0.00129337 0)
(2.5319e-10 -0.00129336 0)
(-1.05184e-08 -0.00129337 0)
(-5.32701e-09 -0.00129338 0)
(4.55514e-09 -0.00129338 0)
(9.40539e-09 -0.00129337 0)
(2.45248e-10 -0.00129336 0)
(-9.2398e-09 -0.00129337 0)
(-4.61772e-09 -0.00129338 0)
(3.89685e-09 -0.00129338 0)
(8.19939e-09 -0.00129337 0)
(2.37301e-10 -0.00129336 0)
(-8.02778e-09 -0.00129337 0)
(-3.94638e-09 -0.00129338 0)
(3.27495e-09 -0.00129338 0)
(7.05783e-09 -0.00129337 0)
(2.2936e-10 -0.00129336 0)
(-6.88087e-09 -0.00129337 0)
(-3.31212e-09 -0.00129338 0)
(2.68856e-09 -0.00129338 0)
(5.97927e-09 -0.00129337 0)
(2.2144e-10 -0.00129336 0)
(-5.79762e-09 -0.00129337 0)
(-2.71405e-09 -0.00129338 0)
(2.13681e-09 -0.00129338 0)
(4.96222e-09 -0.00129337 0)
(2.13551e-10 -0.00129336 0)
(-4.77652e-09 -0.00129337 0)
(-2.1513e-09 -0.00129338 0)
(1.61882e-09 -0.00129338 0)
(4.00519e-09 -0.00129337 0)
(2.05709e-10 -0.00129336 0)
(-3.81605e-09 -0.00129337 0)
(-1.62295e-09 -0.00129338 0)
(1.13368e-09 -0.00129338 0)
(3.10667e-09 -0.00129337 0)
(1.97924e-10 -0.00129336 0)
(-2.91468e-09 -0.00129337 0)
(-1.12811e-09 -0.00129338 0)
(6.80484e-10 -0.00129338 0)
(2.26512e-09 -0.00129337 0)
(1.9021e-10 -0.00129336 0)
(-2.07086e-09 -0.00129337 0)
(-6.65839e-10 -0.00129338 0)
(2.58334e-10 -0.00129338 0)
(1.479e-09 -0.00129337 0)
(1.8258e-10 -0.00129336 0)
(-1.283e-09 -0.00129337 0)
(-2.35228e-10 -0.00129338 0)
(-1.33694e-10 -0.00129338 0)
(7.46728e-10 -0.00129337 0)
(1.75044e-10 -0.00129336 0)
(-5.49514e-10 -0.00129337 0)
(1.64662e-10 -0.00129338 0)
(-4.96524e-10 -0.00129338 0)
(6.67311e-11 -0.00129337 0)
(1.67616e-10 -0.00129336 0)
(1.31203e-10 -0.00129337 0)
(5.34769e-10 -0.00129338 0)
(-8.31085e-10 -0.00129338 0)
(-5.62593e-10 -0.00129337 0)
(1.60307e-10 -0.00129336 0)
(7.60778e-10 -0.00129337 0)
(8.7604e-10 -0.00129338 0)
(-1.13832e-09 -0.00129338 0)
(-1.14286e-09 -0.00129337 0)
(1.53127e-10 -0.00129336 0)
(1.34085e-09 -0.00129337 0)
(1.18943e-09 -0.00129338 0)
(-1.41915e-09 -0.00129338 0)
(-1.67569e-09 -0.00129337 0)
(1.46089e-10 -0.00129336 0)
(1.87307e-09 -0.00129337 0)
(1.47589e-09 -0.00129338 0)
(-1.67455e-09 -0.00129338 0)
(-2.16272e-09 -0.00129337 0)
(1.39202e-10 -0.00129336 0)
(2.3591e-09 -0.00129337 0)
(1.73638e-09 -0.00129338 0)
(-1.90545e-09 -0.00129338 0)
(-2.60562e-09 -0.00129337 0)
(1.32477e-10 -0.00129336 0)
(2.80062e-09 -0.00129337 0)
(1.97189e-09 -0.00129338 0)
(-2.11281e-09 -0.00129338 0)
(-3.00603e-09 -0.00129337 0)
(1.25923e-10 -0.00129336 0)
(3.19932e-09 -0.00129337 0)
(2.18337e-09 -0.00129338 0)
(-2.2976e-09 -0.00129338 0)
(-3.36564e-09 -0.00129337 0)
(1.1955e-10 -0.00129336 0)
(3.55689e-09 -0.00129337 0)
(2.3718e-09 -0.00129338 0)
(-2.46076e-09 -0.00129338 0)
(-3.68612e-09 -0.00129337 0)
(1.13366e-10 -0.00129336 0)
(3.87506e-09 -0.00129337 0)
(2.53817e-09 -0.00129338 0)
(-2.60328e-09 -0.00129338 0)
(-3.96917e-09 -0.00129337 0)
(1.07378e-10 -0.00129336 0)
(4.15552e-09 -0.00129337 0)
(2.68346e-09 -0.00129338 0)
(-2.72611e-09 -0.00129338 0)
(-4.2165e-09 -0.00129337 0)
(1.01595e-10 -0.00129336 0)
(4.40002e-09 -0.00129337 0)
(2.80866e-09 -0.00129338 0)
(-2.83022e-09 -0.00129338 0)
(-4.4298e-09 -0.00129337 0)
(9.60237e-11 -0.00129336 0)
(4.61029e-09 -0.00129337 0)
(2.91475e-09 -0.00129338 0)
(-2.91661e-09 -0.00129338 0)
(-4.61079e-09 -0.00129337 0)
(9.06694e-11 -0.00129336 0)
(4.78806e-09 -0.00129337 0)
(3.00274e-09 -0.00129338 0)
(-2.98623e-09 -0.00129338 0)
(-4.76121e-09 -0.00129337 0)
(8.5538e-11 -0.00129336 0)
(4.93508e-09 -0.00129337 0)
(3.07361e-09 -0.00129338 0)
(-3.04006e-09 -0.00129338 0)
(-4.88277e-09 -0.00129337 0)
(8.06343e-11 -0.00129336 0)
(5.05312e-09 -0.00129337 0)
(3.12836e-09 -0.00129338 0)
(-3.0791e-09 -0.00129338 0)
(-4.97722e-09 -0.00129337 0)
(7.59624e-11 -0.00129336 0)
(5.14392e-09 -0.00129337 0)
(3.16801e-09 -0.00129338 0)
(-3.10431e-09 -0.00129338 0)
(-5.04629e-09 -0.00129337 0)
(7.15256e-11 -0.00129336 0)
(5.20926e-09 -0.00129337 0)
(3.19354e-09 -0.00129338 0)
(-3.1167e-09 -0.00129338 0)
(-5.09173e-09 -0.00129337 0)
(6.73265e-11 -0.00129336 0)
(5.2509e-09 -0.00129337 0)
(3.20596e-09 -0.00129338 0)
(-3.11723e-09 -0.00129338 0)
(-5.11529e-09 -0.00129337 0)
(6.33668e-11 -0.00129336 0)
(5.27062e-09 -0.00129337 0)
(3.20629e-09 -0.00129338 0)
(-3.10691e-09 -0.00129338 0)
(-5.11873e-09 -0.00129337 0)
(5.96476e-11 -0.00129336 0)
(5.2702e-09 -0.00129337 0)
(3.19553e-09 -0.00129338 0)
(-3.08672e-09 -0.00129338 0)
(-5.1038e-09 -0.00129337 0)
(5.6169e-11 -0.00129336 0)
(5.25141e-09 -0.00129337 0)
(3.1747e-09 -0.00129338 0)
(-3.05766e-09 -0.00129338 0)
(-5.07228e-09 -0.00129337 0)
(5.29305e-11 -0.00129336 0)
(5.21605e-09 -0.00129337 0)
(3.1448e-09 -0.00129338 0)
(-3.02072e-09 -0.00129338 0)
(-5.02594e-09 -0.00129337 0)
(4.99306e-11 -0.00129336 0)
(5.16591e-09 -0.00129337 0)
(3.10687e-09 -0.00129338 0)
(-2.97691e-09 -0.00129338 0)
(-4.96654e-09 -0.00129337 0)
(4.71669e-11 -0.00129336 0)
(5.10278e-09 -0.00129337 0)
(3.06191e-09 -0.00129338 0)
(-2.92723e-09 -0.00129338 0)
(-4.89587e-09 -0.00129337 0)
(4.46363e-11 -0.00129336 0)
(5.02847e-09 -0.00129337 0)
(3.01096e-09 -0.00129338 0)
(-2.87269e-09 -0.00129338 0)
(-4.81571e-09 -0.00129337 0)
(4.23347e-11 -0.00129336 0)
(4.94478e-09 -0.00129337 0)
(2.95505e-09 -0.00129338 0)
(-2.8143e-09 -0.00129338 0)
(-4.72787e-09 -0.00129337 0)
(4.02572e-11 -0.00129336 0)
(4.85351e-09 -0.00129337 0)
(2.8952e-09 -0.00129338 0)
(-2.75307e-09 -0.00129338 0)
(-4.63413e-09 -0.00129337 0)
(3.83979e-11 -0.00129336 0)
(4.75651e-09 -0.00129337 0)
(2.83247e-09 -0.00129338 0)
(-2.69005e-09 -0.00129338 0)
(-4.53632e-09 -0.00129337 0)
(3.67501e-11 -0.00129336 0)
(4.65558e-09 -0.00129337 0)
(2.76791e-09 -0.00129338 0)
(-2.62626e-09 -0.00129338 0)
(-4.43625e-09 -0.00129337 0)
(3.53061e-11 -0.00129336 0)
(4.55257e-09 -0.00129337 0)
(2.70256e-09 -0.00129338 0)
(-2.56274e-09 -0.00129338 0)
(-4.33576e-09 -0.00129337 0)
(3.40573e-11 -0.00129336 0)
(4.44933e-09 -0.00129337 0)
(2.63751e-09 -0.00129338 0)
(-2.50057e-09 -0.00129338 0)
(-4.23669e-09 -0.00129337 0)
(3.2994e-11 -0.00129336 0)
(4.34773e-09 -0.00129337 0)
(2.57383e-09 -0.00129338 0)
(-2.4408e-09 -0.00129338 0)
(-4.14092e-09 -0.00129337 0)
(3.21059e-11 -0.00129336 0)
(4.24965e-09 -0.00129337 0)
(2.51261e-09 -0.00129338 0)
(-2.38452e-09 -0.00129338 0)
(-4.05033e-09 -0.00129337 0)
(3.13812e-11 -0.00129336 0)
(4.15699e-09 -0.00129337 0)
(2.45498e-09 -0.00129338 0)
(-2.33285e-09 -0.00129338 0)
(-3.96683e-09 -0.00129337 0)
(3.08073e-11 -0.00129336 0)
(4.07168e-09 -0.00129337 0)
(2.40205e-09 -0.00129338 0)
(-2.2869e-09 -0.00129338 0)
(-3.89235e-09 -0.00129337 0)
(3.03707e-11 -0.00129336 0)
(3.99566e-09 -0.00129337 0)
(2.35499e-09 -0.00129338 0)
(-2.24782e-09 -0.00129338 0)
(-3.82885e-09 -0.00129337 0)
(3.00564e-11 -0.00129336 0)
(3.93091e-09 -0.00129337 0)
(2.31497e-09 -0.00129338 0)
(-2.21686e-09 -0.00129338 0)
(-3.77845e-09 -0.00129337 0)
(2.98483e-11 -0.00129336 0)
(3.87955e-09 -0.00129337 0)
(2.28326e-09 -0.00129338 0)
(-2.19542e-09 -0.00129338 0)
(-3.74351e-09 -0.00129337 0)
(2.97286e-11 -0.00129336 0)
(3.84396e-09 -0.00129337 0)
(2.26129e-09 -0.00129338 0)
(-2.18483e-09 -0.00129338 0)
(-3.72626e-09 -0.00129337 0)
(2.9678e-11 -0.00129336 0)
(3.8264e-09 -0.00129337 0)
(2.25045e-09 -0.00129338 0)
)
;

boundaryField
{
    BotWall
    {
        type            fixedValue;
        value           uniform (0 0 0);
    }
    FreeStream
    {
        type            zeroGradient;
    }
    FrontNBack
    {
        type            empty;
    }
    LeftSide
    {
        type            symmetryPlane;
    }
    RightSide
    {
        type            symmetryPlane;
    }
}


// ************************************************************************* //
