/*--------------------------------*- C++ -*----------------------------------*\
| =========                 |                                                 |
| \\      /  F ield         | OpenFOAM: The Open Source CFD Toolbox           |
|  \\    /   O peration     | Version:  2.4.0                                 |
|   \\  /    A nd           | Web:      www.OpenFOAM.org                      |
|    \\/     M anipulation  |                                                 |
\*---------------------------------------------------------------------------*/
FoamFile
{
    version     2.0;
    format      ascii;
    class       volScalarField;
    location    "0.012";
    object      p;
}
// * * * * * * * * * * * * * * * * * * * * * * * * * * * * * * * * * * * * * //

dimensions      [1 -1 -2 0 0 0 0];

internalField   nonuniform List<scalar> 
125
(
-0.0321268
-0.032371
-0.0326161
-0.0328621
-0.033109
-0.0333568
-0.0336055
-0.0338551
-0.0341056
-0.0343571
-0.0346095
-0.0348628
-0.035117
-0.0353722
-0.0356283
-0.0358854
-0.0361434
-0.0364024
-0.0366623
-0.0369232
-0.037185
-0.0374478
-0.0377116
-0.0379763
-0.038242
-0.0385087
-0.0387764
-0.0390451
-0.0393147
-0.0395854
-0.039857
-0.0401296
-0.0404033
-0.0406779
-0.0409536
-0.0412303
-0.041508
-0.0417867
-0.0420664
-0.0423472
-0.042629
-0.0429118
-0.0431957
-0.0434806
-0.0437666
-0.0440537
-0.0443417
-0.0446309
-0.0449211
-0.0452124
-0.0455047
-0.0457982
-0.0460927
-0.0463883
-0.046685
-0.0469827
-0.0472816
-0.0475816
-0.0478826
-0.0481848
-0.0484881
-0.0487925
-0.0490981
-0.0494047
-0.0497125
-0.0500214
-0.0503315
-0.0506427
-0.0509551
-0.0512685
-0.0515832
-0.051899
-0.052216
-0.0525341
-0.0528534
-0.0531739
-0.0534956
-0.0538184
-0.0541425
-0.0544677
-0.0547941
-0.0551217
-0.0554506
-0.0557806
-0.0561119
-0.0564444
-0.0567781
-0.057113
-0.0574492
-0.0577866
-0.0581252
-0.0584651
-0.0588063
-0.0591487
-0.0594923
-0.0598372
-0.0601834
-0.0605309
-0.0608797
-0.0612297
-0.061581
-0.0619336
-0.0622875
-0.0626428
-0.0629993
-0.0633571
-0.0637163
-0.0640767
-0.0644386
-0.0648017
-0.0651662
-0.065532
-0.0658991
-0.0662676
-0.0666375
-0.0670087
-0.0673813
-0.0677553
-0.0681306
-0.0685074
-0.0688855
-0.069265
-0.0696459
-0.0700282
-0.0704119
)
;

boundaryField
{
    BotWall
    {
        type            calculated;
        value           nonuniform 0();
    }
    FreeStream
    {
        type            calculated;
        value           nonuniform 0();
    }
    FrontNBack
    {
        type            empty;
    }
    LeftSide
    {
        type            symmetryPlane;
    }
    RightSide
    {
        type            symmetryPlane;
    }
    procBoundary10to7
    {
        type            processor;
        value           nonuniform List<scalar> 
50
(
-0.0531727
-0.0534944
-0.0538172
-0.0541413
-0.0544665
-0.054793
-0.0551206
-0.0554494
-0.0557795
-0.0561108
-0.0564432
-0.0567769
-0.0571119
-0.0574481
-0.0577855
-0.0581241
-0.058464
-0.0588052
-0.0591476
-0.0594912
-0.0598362
-0.0601824
-0.0605298
-0.0608786
-0.0612286
-0.06158
-0.0619326
-0.0622865
-0.0626417
-0.0629983
-0.0633561
-0.0637153
-0.0640757
-0.0644375
-0.0648007
-0.0651652
-0.065531
-0.0658981
-0.0662667
-0.0666365
-0.0670078
-0.0673804
-0.0677543
-0.0681297
-0.0685064
-0.0688845
-0.069264
-0.0696449
-0.0700273
-0.070411
)
;
    }
    procBoundary10to8
    {
        type            processor;
        value           nonuniform List<scalar> 
75
(
-0.032125
-0.0323692
-0.0326143
-0.0328603
-0.0331072
-0.033355
-0.0336037
-0.0338533
-0.0341039
-0.0343554
-0.0346078
-0.0348611
-0.0351153
-0.0353705
-0.0356267
-0.0358838
-0.0361418
-0.0364008
-0.0366607
-0.0369216
-0.0371834
-0.0374462
-0.03771
-0.0379747
-0.0382405
-0.0385072
-0.0387749
-0.0390435
-0.0393132
-0.0395838
-0.0398555
-0.0401281
-0.0404018
-0.0406764
-0.0409521
-0.0412288
-0.0415065
-0.0417852
-0.042065
-0.0423457
-0.0426276
-0.0429104
-0.0431943
-0.0434792
-0.0437652
-0.0440523
-0.0443404
-0.0446295
-0.0449197
-0.045211
-0.0455034
-0.0457968
-0.0460913
-0.0463869
-0.0466836
-0.0469814
-0.0472803
-0.0475803
-0.0478814
-0.0481835
-0.0484869
-0.0487913
-0.0490968
-0.0494035
-0.0497113
-0.0500202
-0.0503303
-0.0506415
-0.0509538
-0.0512673
-0.051582
-0.0518978
-0.0522148
-0.0525329
-0.0528522
)
;
    }
    procBoundary10to9
    {
        type            processor;
        value           uniform -0.070797;
    }
    procBoundary10to11
    {
        type            processor;
        value           uniform -0.0318836;
    }
}


// ************************************************************************* //
