/*--------------------------------*- C++ -*----------------------------------*\
| =========                 |                                                 |
| \\      /  F ield         | OpenFOAM: The Open Source CFD Toolbox           |
|  \\    /   O peration     | Version:  2.4.0                                 |
|   \\  /    A nd           | Web:      www.OpenFOAM.org                      |
|    \\/     M anipulation  |                                                 |
\*---------------------------------------------------------------------------*/
FoamFile
{
    version     2.0;
    format      ascii;
    class       volVectorField;
    location    "0.012";
    object      U;
}
// * * * * * * * * * * * * * * * * * * * * * * * * * * * * * * * * * * * * * //

dimensions      [0 1 -1 0 0 0 0];

internalField   nonuniform List<vector> 
125
(
(9.62534e-06 -0.0223374 0)
(9.49188e-06 -0.0223373 0)
(9.35921e-06 -0.0223373 0)
(9.22731e-06 -0.0223373 0)
(9.0962e-06 -0.0223373 0)
(8.96586e-06 -0.0223373 0)
(8.8363e-06 -0.0223373 0)
(8.70752e-06 -0.0223373 0)
(8.57951e-06 -0.0223373 0)
(8.45228e-06 -0.0223373 0)
(8.32582e-06 -0.0223373 0)
(8.20014e-06 -0.0223373 0)
(8.07523e-06 -0.0223373 0)
(7.9511e-06 -0.0223373 0)
(7.82773e-06 -0.0223373 0)
(7.70515e-06 -0.0223373 0)
(7.58333e-06 -0.0223373 0)
(7.46228e-06 -0.0223373 0)
(7.34201e-06 -0.0223372 0)
(7.2225e-06 -0.0223372 0)
(7.10376e-06 -0.0223372 0)
(6.98579e-06 -0.0223372 0)
(6.86859e-06 -0.0223372 0)
(6.75215e-06 -0.0223372 0)
(6.63647e-06 -0.0223372 0)
(6.52155e-06 -0.0223372 0)
(6.4074e-06 -0.0223372 0)
(6.294e-06 -0.0223372 0)
(6.18136e-06 -0.0223372 0)
(6.06947e-06 -0.0223372 0)
(5.95833e-06 -0.0223372 0)
(5.84793e-06 -0.0223372 0)
(5.73828e-06 -0.0223372 0)
(5.62937e-06 -0.0223372 0)
(5.5212e-06 -0.0223372 0)
(5.41375e-06 -0.0223372 0)
(5.30704e-06 -0.0223372 0)
(5.20105e-06 -0.0223372 0)
(5.09578e-06 -0.0223372 0)
(4.99122e-06 -0.0223372 0)
(4.88738e-06 -0.0223372 0)
(4.78423e-06 -0.0223372 0)
(4.68179e-06 -0.0223372 0)
(4.58003e-06 -0.0223372 0)
(4.47896e-06 -0.0223372 0)
(4.37857e-06 -0.0223372 0)
(4.27885e-06 -0.0223372 0)
(4.1798e-06 -0.0223372 0)
(4.0814e-06 -0.0223372 0)
(3.98365e-06 -0.0223372 0)
(3.88654e-06 -0.0223372 0)
(3.79006e-06 -0.0223372 0)
(3.6942e-06 -0.0223372 0)
(3.59896e-06 -0.0223372 0)
(3.50432e-06 -0.0223372 0)
(3.41028e-06 -0.0223372 0)
(3.31682e-06 -0.0223372 0)
(3.22393e-06 -0.0223372 0)
(3.13161e-06 -0.0223372 0)
(3.03983e-06 -0.0223372 0)
(2.9486e-06 -0.0223372 0)
(2.85789e-06 -0.0223372 0)
(2.7677e-06 -0.0223372 0)
(2.67801e-06 -0.0223372 0)
(2.58881e-06 -0.0223372 0)
(2.50009e-06 -0.0223372 0)
(2.41183e-06 -0.0223372 0)
(2.32401e-06 -0.0223372 0)
(2.23663e-06 -0.0223372 0)
(2.14967e-06 -0.0223372 0)
(2.06311e-06 -0.0223373 0)
(1.97693e-06 -0.0223373 0)
(1.89113e-06 -0.0223373 0)
(1.80569e-06 -0.0223373 0)
(1.72058e-06 -0.0223373 0)
(1.6358e-06 -0.0223373 0)
(1.55132e-06 -0.0223373 0)
(1.46713e-06 -0.0223373 0)
(1.38322e-06 -0.0223373 0)
(1.29955e-06 -0.0223373 0)
(1.21613e-06 -0.0223373 0)
(1.13292e-06 -0.0223373 0)
(1.0499e-06 -0.0223373 0)
(9.67075e-07 -0.0223373 0)
(8.8441e-07 -0.0223374 0)
(8.0189e-07 -0.0223374 0)
(7.19498e-07 -0.0223374 0)
(6.37216e-07 -0.0223374 0)
(5.55025e-07 -0.0223374 0)
(4.72909e-07 -0.0223374 0)
(3.9085e-07 -0.0223374 0)
(3.08831e-07 -0.0223374 0)
(2.26834e-07 -0.0223374 0)
(1.44843e-07 -0.0223374 0)
(6.2842e-08 -0.0223375 0)
(-1.91863e-08 -0.0223375 0)
(-1.01257e-07 -0.0223375 0)
(-1.83386e-07 -0.0223375 0)
(-2.65588e-07 -0.0223375 0)
(-3.47878e-07 -0.0223375 0)
(-4.3027e-07 -0.0223375 0)
(-5.12778e-07 -0.0223375 0)
(-5.95416e-07 -0.0223376 0)
(-6.78196e-07 -0.0223376 0)
(-7.61132e-07 -0.0223376 0)
(-8.44235e-07 -0.0223376 0)
(-9.27517e-07 -0.0223376 0)
(-1.01099e-06 -0.0223376 0)
(-1.09466e-06 -0.0223376 0)
(-1.17855e-06 -0.0223376 0)
(-1.26265e-06 -0.0223377 0)
(-1.34698e-06 -0.0223377 0)
(-1.43155e-06 -0.0223377 0)
(-1.51636e-06 -0.0223377 0)
(-1.60142e-06 -0.0223377 0)
(-1.68673e-06 -0.0223377 0)
(-1.77229e-06 -0.0223377 0)
(-1.85812e-06 -0.0223378 0)
(-1.94419e-06 -0.0223378 0)
(-2.03052e-06 -0.0223378 0)
(-2.1171e-06 -0.0223378 0)
(-2.20392e-06 -0.0223378 0)
(-2.29096e-06 -0.0223378 0)
(-2.37821e-06 -0.0223379 0)
(-2.46565e-06 -0.0223379 0)
)
;

boundaryField
{
    BotWall
    {
        type            fixedValue;
        value           nonuniform 0();
    }
    FreeStream
    {
        type            zeroGradient;
    }
    FrontNBack
    {
        type            empty;
    }
    LeftSide
    {
        type            symmetryPlane;
    }
    RightSide
    {
        type            symmetryPlane;
    }
    procBoundary10to7
    {
        type            processor;
        value           nonuniform List<vector> 
50
(
(-3.10461e-06 -0.0223378 0)
(-3.06387e-06 -0.0223378 0)
(-3.02295e-06 -0.0223378 0)
(-2.98183e-06 -0.0223378 0)
(-2.94045e-06 -0.0223378 0)
(-2.89878e-06 -0.0223378 0)
(-2.85676e-06 -0.0223378 0)
(-2.81436e-06 -0.0223379 0)
(-2.77153e-06 -0.0223379 0)
(-2.72822e-06 -0.0223379 0)
(-2.68439e-06 -0.0223379 0)
(-2.64e-06 -0.0223379 0)
(-2.59499e-06 -0.0223379 0)
(-2.54932e-06 -0.0223379 0)
(-2.50296e-06 -0.0223379 0)
(-2.45584e-06 -0.0223379 0)
(-2.40793e-06 -0.0223379 0)
(-2.35919e-06 -0.0223379 0)
(-2.30956e-06 -0.0223379 0)
(-2.25902e-06 -0.0223379 0)
(-2.20751e-06 -0.0223379 0)
(-2.155e-06 -0.0223379 0)
(-2.10144e-06 -0.0223379 0)
(-2.04681e-06 -0.0223379 0)
(-1.99105e-06 -0.0223379 0)
(-1.93415e-06 -0.0223379 0)
(-1.87606e-06 -0.0223379 0)
(-1.81675e-06 -0.0223379 0)
(-1.7562e-06 -0.0223379 0)
(-1.69437e-06 -0.0223379 0)
(-1.63125e-06 -0.0223379 0)
(-1.5668e-06 -0.0223379 0)
(-1.50102e-06 -0.0223379 0)
(-1.43387e-06 -0.0223379 0)
(-1.36534e-06 -0.0223379 0)
(-1.29543e-06 -0.0223379 0)
(-1.22411e-06 -0.0223379 0)
(-1.15139e-06 -0.0223379 0)
(-1.07726e-06 -0.0223378 0)
(-1.00171e-06 -0.0223378 0)
(-9.24759e-07 -0.0223378 0)
(-8.46401e-07 -0.0223378 0)
(-7.6665e-07 -0.0223378 0)
(-6.85521e-07 -0.0223378 0)
(-6.03034e-07 -0.0223377 0)
(-5.19211e-07 -0.0223377 0)
(-4.34085e-07 -0.0223377 0)
(-3.47687e-07 -0.0223377 0)
(-2.60061e-07 -0.0223377 0)
(-1.71253e-07 -0.0223376 0)
)
;
    }
    procBoundary10to8
    {
        type            processor;
        value           nonuniform List<vector> 
75
(
(-7.65255e-06 -0.0223351 0)
(-7.55611e-06 -0.0223352 0)
(-7.46097e-06 -0.0223352 0)
(-7.36714e-06 -0.0223353 0)
(-7.27459e-06 -0.0223354 0)
(-7.18331e-06 -0.0223354 0)
(-7.0933e-06 -0.0223355 0)
(-7.00452e-06 -0.0223355 0)
(-6.91698e-06 -0.0223356 0)
(-6.83066e-06 -0.0223356 0)
(-6.74553e-06 -0.0223357 0)
(-6.6616e-06 -0.0223357 0)
(-6.57885e-06 -0.0223358 0)
(-6.49726e-06 -0.0223358 0)
(-6.41682e-06 -0.0223359 0)
(-6.33752e-06 -0.0223359 0)
(-6.25934e-06 -0.022336 0)
(-6.18227e-06 -0.022336 0)
(-6.10629e-06 -0.0223361 0)
(-6.0314e-06 -0.0223361 0)
(-5.95758e-06 -0.0223362 0)
(-5.88482e-06 -0.0223362 0)
(-5.8131e-06 -0.0223362 0)
(-5.74241e-06 -0.0223363 0)
(-5.67274e-06 -0.0223363 0)
(-5.60407e-06 -0.0223364 0)
(-5.53639e-06 -0.0223364 0)
(-5.46969e-06 -0.0223365 0)
(-5.40396e-06 -0.0223365 0)
(-5.33917e-06 -0.0223365 0)
(-5.27532e-06 -0.0223366 0)
(-5.21239e-06 -0.0223366 0)
(-5.15037e-06 -0.0223366 0)
(-5.08925e-06 -0.0223367 0)
(-5.02901e-06 -0.0223367 0)
(-4.96964e-06 -0.0223368 0)
(-4.91112e-06 -0.0223368 0)
(-4.85345e-06 -0.0223368 0)
(-4.7966e-06 -0.0223369 0)
(-4.74055e-06 -0.0223369 0)
(-4.68531e-06 -0.0223369 0)
(-4.63085e-06 -0.022337 0)
(-4.57715e-06 -0.022337 0)
(-4.5242e-06 -0.022337 0)
(-4.47198e-06 -0.0223371 0)
(-4.42049e-06 -0.0223371 0)
(-4.36969e-06 -0.0223371 0)
(-4.31958e-06 -0.0223372 0)
(-4.27013e-06 -0.0223372 0)
(-4.22133e-06 -0.0223372 0)
(-4.17315e-06 -0.0223372 0)
(-4.12559e-06 -0.0223373 0)
(-4.07862e-06 -0.0223373 0)
(-4.03222e-06 -0.0223373 0)
(-3.98636e-06 -0.0223373 0)
(-3.94104e-06 -0.0223374 0)
(-3.89621e-06 -0.0223374 0)
(-3.85187e-06 -0.0223374 0)
(-3.80799e-06 -0.0223374 0)
(-3.76454e-06 -0.0223375 0)
(-3.72149e-06 -0.0223375 0)
(-3.67883e-06 -0.0223375 0)
(-3.63652e-06 -0.0223375 0)
(-3.59454e-06 -0.0223376 0)
(-3.55286e-06 -0.0223376 0)
(-3.51144e-06 -0.0223376 0)
(-3.47025e-06 -0.0223376 0)
(-3.42927e-06 -0.0223376 0)
(-3.38846e-06 -0.0223377 0)
(-3.34779e-06 -0.0223377 0)
(-3.30722e-06 -0.0223377 0)
(-3.26672e-06 -0.0223377 0)
(-3.22624e-06 -0.0223377 0)
(-3.18576e-06 -0.0223377 0)
(-3.14523e-06 -0.0223378 0)
)
;
    }
    procBoundary10to9
    {
        type            processor;
        value           uniform (-2.55326e-06 -0.0223379 0);
    }
    procBoundary10to11
    {
        type            processor;
        value           uniform (9.75958e-06 -0.0223374 0);
    }
}


// ************************************************************************* //
