/*--------------------------------*- C++ -*----------------------------------*\
| =========                 |                                                 |
| \\      /  F ield         | OpenFOAM: The Open Source CFD Toolbox           |
|  \\    /   O peration     | Version:  2.4.0                                 |
|   \\  /    A nd           | Web:      www.OpenFOAM.org                      |
|    \\/     M anipulation  |                                                 |
\*---------------------------------------------------------------------------*/
FoamFile
{
    version     2.0;
    format      ascii;
    class       surfaceScalarField;
    location    "1.5";
    object      phi;
}
// * * * * * * * * * * * * * * * * * * * * * * * * * * * * * * * * * * * * * //

dimensions      [0 3 -1 0 0 0 0];

internalField   nonuniform List<scalar> 
15580
(
-6.16704e-15
-1.87665e-12
-2.75674e-14
-5.48909e-12
-6.58353e-14
-8.96138e-12
-1.21925e-13
-1.2294e-11
-1.96662e-13
-1.5487e-11
-2.90762e-13
-1.85402e-11
-4.04852e-13
-2.14536e-11
-5.39487e-13
-2.4227e-11
-6.95173e-13
-2.68603e-11
-8.72372e-13
-2.93536e-11
-1.07153e-12
-3.17066e-11
-1.2931e-12
-3.39193e-11
-1.53752e-12
-3.59917e-11
-1.80527e-12
-3.79237e-11
-2.09688e-12
-3.97152e-11
-2.41291e-12
-4.13662e-11
-2.75404e-12
-4.28767e-11
-3.12101e-12
-4.42467e-11
-3.51468e-12
-4.5476e-11
-3.93604e-12
-4.65647e-11
-4.38627e-12
-4.75128e-11
-4.86668e-12
-4.83202e-11
-5.37888e-12
-4.89868e-11
-5.9247e-12
-4.95126e-11
-6.50619e-12
-4.98983e-11
-8.22488e-12
-5.01456e-11
-3.69634e-11
-5.02811e-11
-3.76272e-11
-5.02906e-11
-3.75614e-11
-5.21282e-11
-3.83216e-11
-5.21493e-11
-3.91416e-11
-5.18269e-11
-3.99626e-11
-5.15699e-11
-4.0797e-11
-5.13259e-11
-4.16439e-11
-5.10748e-11
-4.25005e-11
-5.08181e-11
-4.33643e-11
-5.05577e-11
-4.42332e-11
-5.02955e-11
-4.51054e-11
-5.00329e-11
-4.59793e-11
-4.97712e-11
-4.68539e-11
-4.95116e-11
-4.77283e-11
-4.92548e-11
-4.86018e-11
-4.90012e-11
-4.9474e-11
-4.8751e-11
-5.03443e-11
-4.85039e-11
-5.12126e-11
-4.82598e-11
-5.20786e-11
-4.80181e-11
-5.29421e-11
-4.77785e-11
-5.38029e-11
-4.75406e-11
-5.46609e-11
-4.73039e-11
-4.7068e-11
-5.55159e-11
-6.39159e-15
-1.87026e-12
-2.53571e-14
-5.47012e-12
-5.76007e-14
-8.92913e-12
-1.04253e-13
-1.22473e-11
-1.66416e-13
-1.54248e-11
-2.45169e-13
-1.84614e-11
-3.41564e-13
-2.13572e-11
-4.56639e-13
-2.41119e-11
-5.91405e-13
-2.67256e-11
-7.46867e-13
-2.91981e-11
-9.24009e-13
-3.15294e-11
-1.12381e-12
-3.37195e-11
-1.34725e-12
-3.57682e-11
-1.59528e-12
-3.76756e-11
-1.86888e-12
-3.94416e-11
-2.16899e-12
-4.10661e-11
-2.49656e-12
-4.25492e-11
-2.85255e-12
-4.38907e-11
-3.23786e-12
-4.50907e-11
-3.65341e-12
-4.61492e-11
-4.10003e-12
-4.70662e-11
-4.57856e-12
-4.78417e-11
-5.08977e-12
-4.84756e-11
-5.63449e-12
-4.89679e-11
-6.21329e-12
-4.93195e-11
-9.2034e-12
-4.95334e-11
-3.63009e-11
-4.96469e-11
-3.69422e-11
-4.96493e-11
-3.74614e-11
-5.1609e-11
-3.82089e-11
-5.14018e-11
-3.89559e-11
-5.10798e-11
-3.97129e-11
-5.08129e-11
-4.04882e-11
-5.05506e-11
-4.12794e-11
-5.02837e-11
-4.20844e-11
-5.00131e-11
-4.29016e-11
-4.97406e-11
-4.37292e-11
-4.94678e-11
-4.45657e-11
-4.91964e-11
-4.54096e-11
-4.89273e-11
-4.62596e-11
-4.86616e-11
-4.71145e-11
-4.83999e-11
-4.79735e-11
-4.81423e-11
-4.88357e-11
-4.78888e-11
-4.97004e-11
-4.76392e-11
-5.05671e-11
-4.73931e-11
-5.14352e-11
-4.715e-11
-5.23042e-11
-4.69096e-11
-5.31735e-11
-4.66712e-11
-5.40428e-11
-4.64346e-11
-4.61992e-11
-5.49117e-11
-1.84902e-15
-1.86841e-12
-1.00336e-14
-5.46194e-12
-2.67276e-14
-8.91244e-12
-5.38129e-14
-1.22203e-11
-9.30824e-14
-1.53855e-11
-1.46249e-13
-1.84083e-11
-2.14979e-13
-2.12884e-11
-3.00895e-13
-2.4026e-11
-4.05614e-13
-2.66209e-11
-5.30739e-13
-2.9073e-11
-6.77916e-13
-3.13823e-11
-8.48805e-13
-3.35486e-11
-1.04516e-12
-3.55719e-11
-1.26879e-12
-3.7452e-11
-1.52164e-12
-3.91888e-11
-1.80574e-12
-4.0782e-11
-2.12337e-12
-4.22315e-11
-2.47688e-12
-4.35372e-11
-2.86901e-12
-4.46986e-11
-3.30254e-12
-4.57157e-11
-3.78085e-12
-4.65879e-11
-4.30749e-12
-4.7315e-11
-4.88707e-12
-4.7896e-11
-5.52364e-12
-4.83313e-11
-6.21856e-12
-4.86246e-11
-1.21118e-11
-4.87883e-11
-3.66909e-11
-4.88459e-11
-3.7523e-11
-4.88172e-11
-3.83522e-11
-5.07798e-11
-3.91965e-11
-5.05575e-11
-4.00333e-11
-5.0243e-11
-4.08733e-11
-4.99729e-11
-4.17192e-11
-4.97047e-11
-4.25696e-11
-4.94333e-11
-4.34231e-11
-4.91595e-11
-4.42789e-11
-4.88848e-11
-4.51362e-11
-4.86105e-11
-4.59948e-11
-4.83378e-11
-4.6854e-11
-4.8068e-11
-4.77138e-11
-4.78019e-11
-4.85738e-11
-4.75399e-11
-4.94339e-11
-4.72821e-11
-5.02941e-11
-4.70286e-11
-5.11541e-11
-4.67791e-11
-5.20139e-11
-4.65333e-11
-5.28734e-11
-4.62906e-11
-5.37323e-11
-4.60506e-11
-5.45906e-11
-4.5813e-11
-5.54479e-11
-4.55772e-11
-4.53429e-11
-5.63042e-11
-1.47324e-15
-1.86694e-12
-8.83394e-15
-5.45457e-12
-2.42306e-14
-8.89704e-12
-4.93426e-14
-1.21951e-11
-8.56859e-14
-1.53492e-11
-1.34645e-13
-1.83593e-11
-1.97491e-13
-2.12256e-11
-2.75411e-13
-2.39481e-11
-3.69519e-13
-2.65267e-11
-4.80886e-13
-2.89616e-11
-6.10551e-13
-3.12526e-11
-7.5955e-13
-3.33996e-11
-9.28924e-13
-3.54025e-11
-1.11976e-12
-3.72612e-11
-1.33317e-12
-3.89753e-11
-1.57039e-12
-4.05448e-11
-1.83272e-12
-4.19692e-11
-2.12162e-12
-4.32483e-11
-2.43873e-12
-4.43815e-11
-2.78589e-12
-4.53685e-11
-3.16499e-12
-4.62088e-11
-3.5778e-12
-4.69022e-11
-4.02658e-12
-4.74472e-11
-4.51867e-12
-4.78392e-11
-5.0734e-12
-4.80699e-11
-1.52203e-11
-4.81451e-11
-3.52465e-11
-4.82174e-11
-3.58834e-11
-4.81803e-11
-3.66453e-11
-5.0018e-11
-3.74517e-11
-4.9751e-11
-3.82843e-11
-4.94104e-11
-3.91325e-11
-4.91248e-11
-3.99924e-11
-4.88448e-11
-4.08621e-11
-4.85636e-11
-4.17401e-11
-4.82815e-11
-4.2625e-11
-4.79999e-11
-4.35156e-11
-4.77198e-11
-4.4411e-11
-4.74425e-11
-4.53103e-11
-4.71687e-11
-4.62129e-11
-4.68993e-11
-4.71181e-11
-4.66346e-11
-4.80254e-11
-4.63748e-11
-4.89343e-11
-4.61197e-11
-4.98444e-11
-4.58691e-11
-5.07551e-11
-4.56226e-11
-5.1666e-11
-4.53796e-11
-5.25769e-11
-4.51398e-11
-5.34872e-11
-4.49027e-11
-5.43966e-11
-4.46678e-11
-4.44347e-11
-5.53048e-11
-1.69964e-14
-1.84994e-12
-6.59102e-14
-5.40566e-12
-1.44809e-13
-8.81814e-12
-2.51926e-13
-1.2088e-11
-3.85613e-13
-1.52155e-11
-5.44341e-13
-1.82006e-11
-7.26614e-13
-2.10433e-11
-9.31004e-13
-2.37437e-11
-1.15603e-12
-2.63017e-11
-1.40024e-12
-2.87174e-11
-1.66204e-12
-3.09908e-11
-1.93981e-12
-3.31218e-11
-2.23169e-12
-3.51106e-11
-2.53578e-12
-3.69571e-11
-2.84978e-12
-3.86613e-11
-3.17132e-12
-4.02233e-11
-3.49745e-12
-4.16431e-11
-3.82515e-12
-4.29206e-11
-4.15053e-12
-4.40561e-11
-4.46966e-12
-4.50494e-11
-4.77762e-12
-4.59008e-11
-5.07009e-12
-4.66097e-11
-5.34049e-12
-4.71768e-11
-5.57615e-12
-4.76036e-11
-5.74741e-12
-4.78986e-11
-4.7275e-11
-4.80765e-11
-5.30143e-11
-4.80688e-11
-5.301e-11
-4.81846e-11
-5.30458e-11
-4.99822e-11
-5.30775e-11
-4.97194e-11
-5.31163e-11
-4.93716e-11
-5.31834e-11
-4.90578e-11
-5.32873e-11
-4.87408e-11
-5.3431e-11
-4.84199e-11
-5.36154e-11
-4.80971e-11
-5.38407e-11
-4.77746e-11
-5.41065e-11
-4.74541e-11
-5.44115e-11
-4.71375e-11
-5.47542e-11
-4.6826e-11
-5.5133e-11
-4.65206e-11
-5.55457e-11
-4.62219e-11
-5.59904e-11
-4.59301e-11
-5.64651e-11
-4.56451e-11
-5.69676e-11
-4.53666e-11
-5.74961e-11
-4.50941e-11
-5.80485e-11
-4.48272e-11
-5.86231e-11
-4.45652e-11
-5.92182e-11
-4.43076e-11
-5.9832e-11
-4.4054e-11
-4.38037e-11
-6.04631e-11
-2.74213e-14
-1.82252e-12
-1.03484e-13
-5.3296e-12
-2.23912e-13
-8.69772e-12
-3.85492e-13
-1.19264e-11
-5.85276e-13
-1.50157e-11
-8.2052e-13
-1.79653e-11
-1.08867e-12
-2.07752e-11
-1.3873e-12
-2.3445e-11
-1.71412e-12
-2.59749e-11
-2.06686e-12
-2.83647e-11
-2.44335e-12
-3.06143e-11
-2.84139e-12
-3.27238e-11
-3.25879e-12
-3.46932e-11
-3.69327e-12
-3.65226e-11
-4.14253e-12
-3.82121e-11
-4.60407e-12
-3.97617e-11
-5.07535e-12
-4.11718e-11
-5.55352e-12
-4.24424e-11
-6.03567e-12
-4.35739e-11
-6.51852e-12
-4.45665e-11
-6.9986e-12
-4.54207e-11
-7.47168e-12
-4.61367e-11
-7.93301e-12
-4.67155e-11
-8.37849e-12
-4.71581e-11
-9.28575e-12
-4.74662e-11
-4.37569e-11
-4.76464e-11
-4.41532e-11
-4.76725e-11
-4.39282e-11
-4.84096e-11
-4.4365e-11
-4.95454e-11
-4.48807e-11
-4.92036e-11
-4.54128e-11
-4.88395e-11
-4.5961e-11
-4.85096e-11
-4.65263e-11
-4.81755e-11
-4.71093e-11
-4.78368e-11
-4.77102e-11
-4.74963e-11
-4.83287e-11
-4.71561e-11
-4.89643e-11
-4.68185e-11
-4.96167e-11
-4.64852e-11
-5.0285e-11
-4.61576e-11
-5.09686e-11
-4.58369e-11
-5.16668e-11
-4.55237e-11
-5.23787e-11
-4.52182e-11
-5.31036e-11
-4.49202e-11
-5.38406e-11
-4.46296e-11
-5.45889e-11
-4.43458e-11
-5.53478e-11
-4.40684e-11
-5.61163e-11
-4.37967e-11
-5.68937e-11
-4.35302e-11
-5.76793e-11
-4.32684e-11
-4.30107e-11
-5.84723e-11
-1.26726e-14
-1.80985e-12
-5.21837e-14
-5.29009e-12
-1.18797e-13
-8.6311e-12
-2.12139e-13
-1.18331e-11
-3.31792e-13
-1.48961e-11
-4.77286e-13
-1.78198e-11
-6.48148e-13
-2.06043e-11
-8.43876e-13
-2.32493e-11
-1.064e-12
-2.57548e-11
-1.30804e-12
-2.81206e-11
-1.5756e-12
-3.03467e-11
-1.86626e-12
-3.24331e-11
-2.17974e-12
-3.43797e-11
-2.51578e-12
-3.61866e-11
-2.87429e-12
-3.78536e-11
-3.25521e-12
-3.93808e-11
-3.65875e-12
-4.07683e-11
-4.08515e-12
-4.2016e-11
-4.53507e-12
-4.3124e-11
-5.00915e-12
-4.40924e-11
-5.50865e-12
-4.49212e-11
-6.03479e-12
-4.56105e-11
-6.58988e-12
-4.61604e-11
-7.17643e-12
-4.65715e-11
-8.30981e-12
-4.68445e-11
-4.04864e-11
-4.6999e-11
-4.11431e-11
-4.70157e-11
-4.09118e-11
-4.8641e-11
-4.16304e-11
-4.88268e-11
-4.24083e-11
-4.84257e-11
-4.31781e-11
-4.80697e-11
-4.39575e-11
-4.77302e-11
-4.47476e-11
-4.73854e-11
-4.55467e-11
-4.70377e-11
-4.63532e-11
-4.66897e-11
-4.71659e-11
-4.63434e-11
-4.79838e-11
-4.60006e-11
-4.88062e-11
-4.56628e-11
-4.96326e-11
-4.53312e-11
-5.04626e-11
-4.5007e-11
-5.12958e-11
-4.46905e-11
-5.21321e-11
-4.43818e-11
-5.29714e-11
-4.4081e-11
-5.38133e-11
-4.37876e-11
-5.46579e-11
-4.35012e-11
-5.5505e-11
-4.32213e-11
-5.63543e-11
-4.29473e-11
-5.72059e-11
-4.26786e-11
-5.80595e-11
-4.24148e-11
-4.21553e-11
-5.89148e-11
-6.14328e-15
-1.80371e-12
-2.60737e-14
-5.27016e-12
-6.10222e-14
-8.59615e-12
-1.12049e-13
-1.17821e-11
-1.8012e-13
-1.4828e-11
-2.66128e-13
-1.77338e-11
-3.70892e-13
-2.04995e-11
-4.95187e-13
-2.3125e-11
-6.39729e-13
-2.56102e-11
-8.05223e-13
-2.79551e-11
-9.92335e-13
-3.01596e-11
-1.20175e-12
-3.22237e-11
-1.43412e-12
-3.41474e-11
-1.69016e-12
-3.59305e-11
-1.97055e-12
-3.75732e-11
-2.27607e-12
-3.90753e-11
-2.60747e-12
-4.04369e-11
-2.9656e-12
-4.16579e-11
-3.35133e-12
-4.27383e-11
-3.7656e-12
-4.36782e-11
-4.20937e-12
-4.44775e-11
-4.68377e-12
-4.51361e-11
-5.18995e-12
-4.56542e-11
-5.72911e-12
-4.60324e-11
-7.43762e-12
-4.62723e-11
-3.81848e-11
-4.64028e-11
-3.87927e-11
-4.64079e-11
-3.90772e-11
-4.83565e-11
-3.98174e-11
-4.80866e-11
-4.05846e-11
-4.76585e-11
-4.13658e-11
-4.72884e-11
-4.21704e-11
-4.69257e-11
-4.29953e-11
-4.65605e-11
-4.38378e-11
-4.61951e-11
-4.46959e-11
-4.58317e-11
-4.55672e-11
-4.54721e-11
-4.645e-11
-4.51179e-11
-4.73423e-11
-4.47704e-11
-4.82427e-11
-4.44309e-11
-4.91498e-11
-4.40998e-11
-5.00627e-11
-4.37776e-11
-5.09805e-11
-4.34641e-11
-5.19023e-11
-4.31592e-11
-5.28275e-11
-4.28623e-11
-5.37557e-11
-4.25731e-11
-5.46862e-11
-4.22908e-11
-5.56187e-11
-4.20148e-11
-5.65527e-11
-4.17447e-11
-5.74877e-11
-4.14797e-11
-4.12195e-11
-5.84235e-11
-6.99013e-15
-1.79672e-12
-2.76985e-14
-5.24945e-12
-6.27087e-14
-8.56114e-12
-1.13023e-13
-1.17318e-11
-1.7969e-13
-1.47613e-11
-2.63782e-13
-1.76497e-11
-3.66402e-13
-2.03969e-11
-4.88658e-13
-2.30028e-11
-6.31679e-13
-2.54672e-11
-7.96584e-13
-2.77902e-11
-9.84507e-13
-2.99717e-11
-1.19655e-12
-3.20117e-11
-1.43385e-12
-3.39101e-11
-1.69745e-12
-3.56669e-11
-1.98845e-12
-3.72822e-11
-2.30783e-12
-3.87559e-11
-2.65658e-12
-4.00881e-11
-3.03555e-12
-4.12789e-11
-3.44552e-12
-4.23283e-11
-3.88712e-12
-4.32366e-11
-4.3608e-12
-4.40038e-11
-4.86691e-12
-4.463e-11
-5.40554e-12
-4.51156e-11
-5.9762e-12
-4.54617e-11
-9.1349e-12
-4.56718e-11
-3.81101e-11
-4.57829e-11
-3.87333e-11
-4.57847e-11
-3.94099e-11
-4.76799e-11
-4.01312e-11
-4.73653e-11
-4.085e-11
-4.69397e-11
-4.15854e-11
-4.65531e-11
-4.23432e-11
-4.61679e-11
-4.31221e-11
-4.57816e-11
-4.39209e-11
-4.53964e-11
-4.4738e-11
-4.50146e-11
-4.55721e-11
-4.46379e-11
-4.64219e-11
-4.42681e-11
-4.72857e-11
-4.39066e-11
-4.81625e-11
-4.35541e-11
-4.90508e-11
-4.32114e-11
-4.99498e-11
-4.28786e-11
-5.08583e-11
-4.25556e-11
-5.17756e-11
-4.2242e-11
-5.27006e-11
-4.19373e-11
-5.36328e-11
-4.16409e-11
-5.45712e-11
-4.13523e-11
-5.55152e-11
-4.10708e-11
-5.64641e-11
-4.07958e-11
-5.74172e-11
-4.05266e-11
-4.02629e-11
-5.83739e-11
1.99615e-15
-1.79871e-12
4.19107e-15
-5.25164e-12
3.30104e-15
-8.56025e-12
-3.62663e-15
-1.17248e-11
-1.93681e-14
-1.47456e-11
-4.65759e-14
-1.76225e-11
-8.77749e-14
-2.03557e-11
-1.45438e-13
-2.29451e-11
-2.21967e-13
-2.53907e-11
-3.19802e-13
-2.76924e-11
-4.4138e-13
-2.98501e-11
-5.89271e-13
-3.18638e-11
-7.66119e-13
-3.37332e-11
-9.74779e-13
-3.54583e-11
-1.21825e-12
-3.70387e-11
-1.49976e-12
-3.84744e-11
-1.82275e-12
-3.97651e-11
-2.19073e-12
-4.09109e-11
-2.60759e-12
-4.19115e-11
-3.07688e-12
-4.27673e-11
-3.60307e-12
-4.34776e-11
-4.18989e-12
-4.40432e-11
-4.84206e-12
-4.44634e-11
-5.55914e-12
-4.47446e-11
-1.15527e-11
-4.48978e-11
-3.78809e-11
-4.49502e-11
-3.87501e-11
-4.49155e-11
-3.96315e-11
-4.67984e-11
-4.04951e-11
-4.65016e-11
-4.13604e-11
-4.60744e-11
-4.22419e-11
-4.56716e-11
-4.31425e-11
-4.52673e-11
-4.40597e-11
-4.48643e-11
-4.49904e-11
-4.44657e-11
-4.59318e-11
-4.40732e-11
-4.68818e-11
-4.36879e-11
-4.78388e-11
-4.33111e-11
-4.88014e-11
-4.29439e-11
-4.97686e-11
-4.25869e-11
-5.07395e-11
-4.22405e-11
-5.17135e-11
-4.19046e-11
-5.26901e-11
-4.1579e-11
-5.36687e-11
-4.12633e-11
-5.46491e-11
-4.09569e-11
-5.56309e-11
-4.06591e-11
-5.66138e-11
-4.03694e-11
-5.75975e-11
-4.00871e-11
-5.85818e-11
-3.98115e-11
-5.95663e-11
-3.95421e-11
-3.92784e-11
-6.05507e-11
-1.8552e-15
-1.79686e-12
-1.16936e-14
-5.24181e-12
-3.1987e-14
-8.53996e-12
-6.42397e-14
-1.16926e-11
-1.09766e-13
-1.47001e-11
-1.69728e-13
-1.75626e-11
-2.45159e-13
-2.02803e-11
-3.36999e-13
-2.28533e-11
-4.46117e-13
-2.52816e-11
-5.73336e-13
-2.75652e-11
-7.19461e-13
-2.9704e-11
-8.85297e-13
-3.1698e-11
-1.07168e-12
-3.35469e-11
-1.2795e-12
-3.52504e-11
-1.50973e-12
-3.68085e-11
-1.76345e-12
-3.82207e-11
-2.04193e-12
-3.94866e-11
-2.34662e-12
-4.06062e-11
-2.67927e-12
-4.15788e-11
-3.0417e-12
-4.24049e-11
-3.43569e-12
-4.30836e-11
-3.8636e-12
-4.36153e-11
-4.33317e-12
-4.39938e-11
-4.86459e-12
-4.42132e-11
-1.59887e-11
-4.42775e-11
-3.67075e-11
-4.43486e-11
-3.7314e-11
-4.4309e-11
-3.78951e-11
-4.62173e-11
-3.85691e-11
-4.58277e-11
-3.93085e-11
-4.53349e-11
-4.00929e-11
-4.48872e-11
-4.09126e-11
-4.44477e-11
-4.17627e-11
-4.40142e-11
-4.264e-11
-4.35884e-11
-4.3542e-11
-4.31712e-11
-4.44662e-11
-4.27636e-11
-4.54107e-11
-4.23667e-11
-4.63736e-11
-4.19811e-11
-4.73531e-11
-4.16074e-11
-4.83478e-11
-4.12459e-11
-4.9356e-11
-4.08964e-11
-5.03764e-11
-4.05586e-11
-5.14076e-11
-4.02321e-11
-5.24484e-11
-3.99161e-11
-5.34975e-11
-3.961e-11
-5.45539e-11
-3.93131e-11
-5.56164e-11
-3.90246e-11
-5.66841e-11
-3.87439e-11
-5.77559e-11
-3.84703e-11
-3.82034e-11
-5.88309e-11
-2.85125e-14
-1.76834e-12
-1.0724e-13
-5.16308e-12
-2.31086e-13
-8.41611e-12
-3.95886e-13
-1.15278e-11
-5.97733e-13
-1.44982e-11
-8.32883e-13
-1.73274e-11
-1.0978e-12
-2.00154e-11
-1.38898e-12
-2.25621e-11
-1.70305e-12
-2.49675e-11
-2.03651e-12
-2.72317e-11
-2.38584e-12
-2.93547e-11
-2.74724e-12
-3.13366e-11
-3.11678e-12
-3.31773e-11
-3.49004e-12
-3.48772e-11
-3.86242e-12
-3.64361e-11
-4.22884e-12
-3.78543e-11
-4.58384e-12
-3.91316e-11
-4.92187e-12
-4.02682e-11
-5.23672e-12
-4.1264e-11
-5.52327e-12
-4.21183e-11
-5.77559e-12
-4.28313e-11
-5.98929e-12
-4.34016e-11
-6.15026e-12
-4.38329e-11
-6.23192e-12
-4.41316e-11
-5.09692e-11
-4.43174e-11
-5.12871e-11
-4.4296e-11
-5.10811e-11
-4.45151e-11
-5.15051e-11
-4.57932e-11
-5.20515e-11
-4.52814e-11
-5.26213e-11
-4.47651e-11
-5.31888e-11
-4.43197e-11
-5.37519e-11
-4.38845e-11
-5.43158e-11
-4.34504e-11
-5.48863e-11
-4.30178e-11
-5.54687e-11
-4.25888e-11
-5.60666e-11
-4.21657e-11
-5.66826e-11
-4.17507e-11
-5.7318e-11
-4.13456e-11
-5.79737e-11
-4.09517e-11
-5.86499e-11
-4.05697e-11
-5.93464e-11
-4.01999e-11
-6.00627e-11
-3.98423e-11
-6.07983e-11
-3.94965e-11
-6.15521e-11
-3.91622e-11
-6.23235e-11
-3.88387e-11
-6.31113e-11
-3.85252e-11
-6.39146e-11
-3.82213e-11
-6.47324e-11
-3.79261e-11
-6.55637e-11
-3.76391e-11
-3.73595e-11
-6.64075e-11
-3.06222e-14
-1.73772e-12
-1.16317e-13
-5.07738e-12
-2.52478e-13
-8.27995e-12
-4.35415e-13
-1.13448e-11
-6.61694e-13
-1.42719e-11
-9.28123e-13
-1.7061e-11
-1.23167e-12
-1.97118e-11
-1.56949e-12
-2.22243e-11
-1.93881e-12
-2.45982e-11
-2.33697e-12
-2.68335e-11
-2.76133e-12
-2.89303e-11
-3.20931e-12
-3.08886e-11
-3.67824e-12
-3.27084e-11
-4.16547e-12
-3.43899e-11
-4.66823e-12
-3.59333e-11
-5.18368e-12
-3.73388e-11
-5.70877e-12
-3.86065e-11
-6.24041e-12
-3.97365e-11
-6.7752e-12
-4.07292e-11
-7.3096e-12
-4.15839e-11
-7.83936e-12
-4.23015e-11
-8.3598e-12
-4.28812e-11
-8.86756e-12
-4.33251e-11
-9.86532e-12
-4.3632e-11
-4.5633e-11
-4.38162e-11
-4.60853e-11
-4.38436e-11
-4.56669e-11
-4.49335e-11
-4.60735e-11
-4.53867e-11
-4.65979e-11
-4.47569e-11
-4.71522e-11
-4.42109e-11
-4.77397e-11
-4.37322e-11
-4.83603e-11
-4.32639e-11
-4.90133e-11
-4.27975e-11
-4.96976e-11
-4.23335e-11
-5.04123e-11
-4.18742e-11
-5.11561e-11
-4.14219e-11
-5.19278e-11
-4.0979e-11
-5.27262e-11
-4.05472e-11
-5.35499e-11
-4.0128e-11
-5.43975e-11
-3.9722e-11
-5.52677e-11
-3.93297e-11
-5.61591e-11
-3.89509e-11
-5.70704e-11
-3.85853e-11
-5.80001e-11
-3.82325e-11
-5.89469e-11
-3.78918e-11
-5.99096e-11
-3.75626e-11
-6.08868e-11
-3.72441e-11
-6.18772e-11
-3.69356e-11
-6.28798e-11
-3.66365e-11
-3.63461e-11
-6.38932e-11
-8.37832e-15
-1.72934e-12
-3.76274e-14
-5.04813e-12
-8.97869e-14
-8.22779e-12
-1.65849e-13
-1.12688e-11
-2.66668e-13
-1.41711e-11
-3.93025e-13
-1.69346e-11
-5.45589e-13
-1.95593e-11
-7.25022e-13
-2.20448e-11
-9.31913e-13
-2.43913e-11
-1.16693e-12
-2.65985e-11
-1.4307e-12
-2.86665e-11
-1.72404e-12
-3.05952e-11
-2.04778e-12
-3.23847e-11
-2.40297e-12
-3.40347e-11
-2.79075e-12
-3.55456e-11
-3.21244e-12
-3.69171e-11
-3.66953e-12
-3.81495e-11
-4.16349e-12
-3.92426e-11
-4.69607e-12
-4.01966e-11
-5.26856e-12
-4.10114e-11
-5.88294e-12
-4.16871e-11
-6.54018e-12
-4.22239e-11
-7.24264e-12
-4.26226e-11
-8.90933e-12
-4.28849e-11
-4.23269e-11
-4.30359e-11
-4.31218e-11
-4.30487e-11
-4.32358e-11
-4.48195e-11
-4.42044e-11
-4.44181e-11
-4.51837e-11
-4.37776e-11
-4.61441e-11
-4.32505e-11
-4.71188e-11
-4.27575e-11
-4.81133e-11
-4.22694e-11
-4.91255e-11
-4.17852e-11
-5.01524e-11
-4.13066e-11
-5.11912e-11
-4.08355e-11
-5.22393e-11
-4.03737e-11
-5.3295e-11
-3.99232e-11
-5.4357e-11
-3.94853e-11
-5.5424e-11
-3.90609e-11
-5.64955e-11
-3.86506e-11
-5.75707e-11
-3.82545e-11
-5.86493e-11
-3.78723e-11
-5.97309e-11
-3.75037e-11
-6.08152e-11
-3.71481e-11
-6.19021e-11
-3.68049e-11
-6.29913e-11
-3.64734e-11
-6.40826e-11
-3.61528e-11
-6.51758e-11
-3.58425e-11
-6.62705e-11
-3.55418e-11
-3.525e-11
-6.73666e-11
-4.92397e-15
-1.72442e-12
-2.07558e-14
-5.0323e-12
-4.93339e-14
-8.19922e-12
-9.27818e-14
-1.12253e-11
-1.53113e-13
-1.41108e-11
-2.32225e-13
-1.68555e-11
-3.31957e-13
-1.94595e-11
-4.54063e-13
-2.19227e-11
-6.00292e-13
-2.42451e-11
-7.72333e-13
-2.64265e-11
-9.71928e-13
-2.84669e-11
-1.20078e-12
-3.03664e-11
-1.4607e-12
-3.21247e-11
-1.75348e-12
-3.3742e-11
-2.08109e-12
-3.5218e-11
-2.4455e-12
-3.65527e-11
-2.84889e-12
-3.77461e-11
-3.29343e-12
-3.8798e-11
-3.78161e-12
-3.97084e-11
-4.31594e-12
-4.04771e-11
-4.89947e-12
-4.11036e-11
-5.53512e-12
-4.15883e-11
-6.22463e-12
-4.19331e-11
-9.11763e-12
-4.21447e-11
-4.05472e-11
-4.22557e-11
-4.13505e-11
-4.22454e-11
-4.22124e-11
-4.39576e-11
-4.32175e-11
-4.3413e-11
-4.41911e-11
-4.2804e-11
-4.5166e-11
-4.22756e-11
-4.61581e-11
-4.17654e-11
-4.71677e-11
-4.12599e-11
-4.81942e-11
-4.07587e-11
-4.92371e-11
-4.02637e-11
-5.02954e-11
-3.97772e-11
-5.13678e-11
-3.93013e-11
-5.24532e-11
-3.88378e-11
-5.35505e-11
-3.8388e-11
-5.46587e-11
-3.79527e-11
-5.5777e-11
-3.75323e-11
-5.69046e-11
-3.71269e-11
-5.80408e-11
-3.67361e-11
-5.91849e-11
-3.63596e-11
-6.03363e-11
-3.59967e-11
-6.14944e-11
-3.56468e-11
-6.26586e-11
-3.53092e-11
-6.38283e-11
-3.49831e-11
-6.50029e-11
-3.46679e-11
-6.61819e-11
-3.43628e-11
-3.40673e-11
-6.73645e-11
-1.52946e-15
-1.72289e-12
-9.33757e-15
-5.02449e-12
-2.63955e-14
-8.18216e-12
-5.54512e-14
-1.11963e-11
-9.90598e-14
-1.40672e-11
-1.59634e-13
-1.6795e-11
-2.39458e-13
-1.93797e-11
-3.4074e-13
-2.18214e-11
-4.65616e-13
-2.41202e-11
-6.16217e-13
-2.62759e-11
-7.94654e-13
-2.82885e-11
-1.00311e-12
-3.01579e-11
-1.24379e-12
-3.1884e-11
-1.51907e-12
-3.34667e-11
-1.83139e-12
-3.49056e-11
-2.18343e-12
-3.62007e-11
-2.57801e-12
-3.73515e-11
-3.01829e-12
-3.83578e-11
-3.50753e-12
-3.92192e-11
-4.04938e-12
-3.99352e-11
-4.64794e-12
-4.0505e-11
-5.30944e-12
-4.09268e-11
-6.043e-12
-4.11996e-11
-1.22067e-11
-4.13329e-11
-3.98975e-11
-4.14082e-11
-4.07761e-11
-4.13669e-11
-4.17784e-11
-4.29553e-11
-4.28197e-11
-4.23717e-11
-4.38823e-11
-4.17414e-11
-4.49723e-11
-4.11856e-11
-4.60907e-11
-4.0647e-11
-4.72346e-11
-4.0116e-11
-4.84007e-11
-3.95926e-11
-4.95862e-11
-3.90782e-11
-5.07886e-11
-3.85748e-11
-5.20056e-11
-3.80843e-11
-5.32354e-11
-3.76081e-11
-5.44761e-11
-3.71473e-11
-5.57264e-11
-3.67024e-11
-5.69849e-11
-3.62738e-11
-5.82506e-11
-3.58612e-11
-5.95225e-11
-3.54643e-11
-6.07995e-11
-3.50825e-11
-6.2081e-11
-3.47153e-11
-6.33661e-11
-3.43617e-11
-6.46542e-11
-3.40211e-11
-6.59445e-11
-3.36928e-11
-6.72365e-11
-3.33759e-11
-6.85296e-11
-3.30697e-11
-3.27737e-11
-6.98232e-11
-1.10692e-14
-1.71182e-12
-4.77754e-14
-4.98779e-12
-1.11239e-13
-8.11869e-12
-2.01432e-13
-1.11061e-11
-3.18264e-13
-1.39503e-11
-4.61623e-13
-1.66516e-11
-6.31326e-13
-1.921e-11
-8.27184e-13
-2.16256e-11
-1.04892e-12
-2.38984e-11
-1.29627e-12
-2.60285e-11
-1.56884e-12
-2.80159e-11
-1.8663e-12
-2.98605e-11
-2.18814e-12
-3.15622e-11
-2.53391e-12
-3.31209e-11
-2.90295e-12
-3.45366e-11
-3.29471e-12
-3.58089e-11
-3.70831e-12
-3.69379e-11
-4.14306e-12
-3.7923e-11
-4.59781e-12
-3.87644e-11
-5.07166e-12
-3.94614e-11
-5.56307e-12
-4.00136e-11
-6.07114e-12
-4.04187e-11
-6.59452e-12
-4.06762e-11
-2.85501e-11
-4.07981e-11
-4.54814e-11
-4.08414e-11
-4.59734e-11
-4.08749e-11
-4.65896e-11
-4.23391e-11
-4.72644e-11
-4.1697e-11
-4.79905e-11
-4.10152e-11
-4.87698e-11
-4.04063e-11
-4.96021e-11
-3.98147e-11
-5.04853e-11
-3.92329e-11
-5.14162e-11
-3.86616e-11
-5.23917e-11
-3.81027e-11
-5.34083e-11
-3.75582e-11
-5.44628e-11
-3.70298e-11
-5.55518e-11
-3.65191e-11
-5.66723e-11
-3.60268e-11
-5.78213e-11
-3.55534e-11
-5.89961e-11
-3.5099e-11
-6.01942e-11
-3.46631e-11
-6.14132e-11
-3.42453e-11
-6.2651e-11
-3.38448e-11
-6.39056e-11
-3.34607e-11
-6.51752e-11
-3.30921e-11
-6.6458e-11
-3.27382e-11
-6.77527e-11
-3.23981e-11
-6.90577e-11
-3.20709e-11
-7.03717e-11
-3.17557e-11
-3.14519e-11
-7.16935e-11
-4.04762e-14
-1.67134e-12
-1.50651e-13
-4.87761e-12
-3.2322e-13
-7.94613e-12
-5.53023e-13
-1.08763e-11
-8.35361e-13
-1.3668e-11
-1.16589e-12
-1.63211e-11
-1.54058e-12
-1.88353e-11
-1.95561e-12
-2.12106e-11
-2.40736e-12
-2.34467e-11
-2.89228e-12
-2.55436e-11
-3.4069e-12
-2.75013e-11
-3.94767e-12
-2.93197e-11
-4.51104e-12
-3.09988e-11
-5.09323e-12
-3.25387e-11
-5.69033e-12
-3.39395e-11
-6.29806e-12
-3.52012e-11
-6.9119e-12
-3.6324e-11
-7.52678e-12
-3.73081e-11
-8.13743e-12
-3.81538e-11
-8.73803e-12
-3.88608e-11
-9.32171e-12
-3.943e-11
-9.87716e-12
-3.98632e-11
-1.08573e-11
-4.01666e-11
-5.08206e-11
-4.03621e-11
-5.12976e-11
-4.03644e-11
-5.10324e-11
-4.11401e-11
-5.15564e-11
-4.18151e-11
-5.21874e-11
-4.10659e-11
-5.28604e-11
-4.03422e-11
-5.35835e-11
-3.96832e-11
-5.43582e-11
-3.904e-11
-5.5183e-11
-3.84081e-11
-5.60556e-11
-3.7789e-11
-5.69737e-11
-3.71847e-11
-5.79346e-11
-3.65972e-11
-5.89359e-11
-3.60285e-11
-5.9975e-11
-3.54799e-11
-6.10495e-11
-3.49523e-11
-6.2157e-11
-3.44459e-11
-6.32951e-11
-3.39608e-11
-6.44617e-11
-3.34965e-11
-6.56547e-11
-3.30523e-11
-6.68721e-11
-3.26274e-11
-6.81119e-11
-3.22209e-11
-6.93724e-11
-3.18316e-11
-7.06518e-11
-3.14588e-11
-7.19486e-11
-3.11013e-11
-7.32612e-11
-3.07583e-11
-7.4588e-11
-3.04289e-11
-3.01122e-11
-7.59278e-11
-2.42463e-14
-1.6471e-12
-9.53279e-14
-4.80653e-12
-2.11047e-13
-7.83041e-12
-3.69035e-13
-1.07183e-11
-5.6712e-13
-1.34699e-11
-8.03277e-13
-1.60849e-11
-1.07564e-12
-1.85629e-11
-1.38243e-12
-2.09038e-11
-1.72199e-12
-2.31071e-11
-2.09271e-12
-2.51729e-11
-2.49308e-12
-2.71009e-11
-2.92155e-12
-2.88912e-11
-3.37665e-12
-3.05437e-11
-3.85684e-12
-3.20585e-11
-4.36063e-12
-3.34357e-11
-4.88636e-12
-3.46755e-11
-5.43249e-12
-3.57779e-11
-5.99715e-12
-3.67435e-11
-6.5786e-12
-3.75723e-11
-7.1745e-12
-3.82649e-11
-7.78255e-12
-3.88219e-11
-8.401e-12
-3.92448e-11
-1.00111e-11
-3.95343e-11
-4.54105e-11
-3.97171e-11
-4.60187e-11
-3.97562e-11
-4.57924e-11
-4.13663e-11
-4.66751e-11
-4.09325e-11
-4.76518e-11
-4.00891e-11
-4.86433e-11
-3.93507e-11
-4.96728e-11
-3.86537e-11
-5.07444e-11
-3.79685e-11
-5.18568e-11
-3.72956e-11
-5.3008e-11
-3.66378e-11
-5.41958e-11
-3.59969e-11
-5.54179e-11
-3.53751e-11
-5.66723e-11
-3.47741e-11
-5.79572e-11
-3.41951e-11
-5.92706e-11
-3.36388e-11
-6.0611e-11
-3.31056e-11
-6.19765e-11
-3.25953e-11
-6.33657e-11
-3.21074e-11
-6.47768e-11
-3.16411e-11
-6.62085e-11
-3.11957e-11
-6.76592e-11
-3.07701e-11
-6.91275e-11
-3.03634e-11
-7.06119e-11
-2.99744e-11
-7.2111e-11
-2.96022e-11
-7.36234e-11
-2.92459e-11
-7.51479e-11
-2.89045e-11
-2.85771e-11
-7.66829e-11
3.73225e-15
1.00365e-14
1.49807e-14
1.52448e-14
7.78925e-15
-1.02167e-14
-4.14283e-14
-8.83943e-14
-1.53577e-13
-2.39426e-13
-3.48388e-13
-4.8299e-13
-6.45834e-13
-8.39703e-13
-1.06753e-12
-1.33253e-12
-1.63814e-12
-1.98824e-12
-2.38711e-12
-2.83976e-12
-3.35115e-12
-3.92418e-12
-6.29997e-12
-3.95748e-11
-4.02967e-11
-4.10525e-11
-4.21899e-11
-4.33691e-11
-4.45978e-11
-4.58854e-11
-4.72262e-11
-4.86154e-11
-5.00489e-11
-5.15227e-11
-5.30332e-11
-5.45769e-11
-5.61508e-11
-5.77523e-11
-5.93789e-11
-6.10285e-11
-6.2699e-11
-6.43886e-11
-6.60955e-11
-6.78181e-11
-6.95547e-11
-7.13037e-11
-7.30637e-11
-7.48332e-11
-7.66107e-11
-7.8395e-11
-5.63677e-11
-4.68326e-11
-5.72164e-11
-4.65974e-11
-5.80616e-11
-4.63622e-11
-5.89032e-11
-4.61266e-11
-5.97412e-11
-4.58906e-11
-6.05753e-11
-4.56539e-11
-6.14054e-11
-4.54164e-11
-6.22315e-11
-4.5178e-11
-6.30533e-11
-4.49386e-11
-6.38707e-11
-4.46981e-11
-6.46835e-11
-4.44564e-11
-6.54917e-11
-4.42135e-11
-6.62951e-11
-4.39694e-11
-6.70936e-11
-4.3724e-11
-6.78869e-11
-4.34773e-11
-6.86751e-11
-4.32292e-11
-6.94579e-11
-4.29799e-11
-7.02352e-11
-4.27292e-11
-7.10069e-11
-4.24773e-11
-7.17728e-11
-4.22241e-11
-7.25328e-11
-4.19697e-11
-7.32869e-11
-4.17142e-11
-7.40348e-11
-4.14575e-11
-7.47764e-11
-4.11998e-11
-7.55117e-11
-4.09411e-11
-7.62405e-11
-4.06814e-11
-7.69626e-11
-4.0421e-11
-7.76781e-11
-4.01598e-11
-7.83867e-11
-3.9898e-11
-7.90883e-11
-3.96356e-11
-7.9783e-11
-3.93728e-11
-8.04705e-11
-3.91096e-11
-8.11508e-11
-3.88462e-11
-8.18238e-11
-3.85828e-11
-8.24894e-11
-3.83193e-11
-8.31476e-11
-3.8056e-11
-8.37982e-11
-3.77929e-11
-8.44411e-11
-3.75302e-11
-8.50764e-11
-3.72678e-11
-8.57039e-11
-3.70059e-11
-8.63237e-11
-3.67443e-11
-8.69355e-11
-3.64832e-11
-8.75395e-11
-3.62225e-11
-8.81354e-11
-3.59621e-11
-8.87234e-11
-3.57019e-11
-8.93033e-11
-3.5442e-11
-8.98751e-11
-3.51824e-11
-9.04388e-11
-3.4925e-11
-9.09943e-11
-3.46689e-11
-3.43497e-11
-9.1542e-11
-5.57796e-11
-4.59647e-11
-5.66462e-11
-4.57308e-11
-5.75111e-11
-4.54973e-11
-5.8374e-11
-4.52638e-11
-5.92344e-11
-4.50301e-11
-6.00922e-11
-4.47961e-11
-6.09469e-11
-4.45617e-11
-6.17982e-11
-4.43266e-11
-6.26459e-11
-4.40908e-11
-6.34898e-11
-4.38542e-11
-6.43295e-11
-4.36167e-11
-6.51648e-11
-4.33782e-11
-6.59956e-11
-4.31387e-11
-6.68215e-11
-4.28981e-11
-6.76424e-11
-4.26564e-11
-6.84581e-11
-4.24135e-11
-6.92684e-11
-4.21696e-11
-7.00732e-11
-4.19245e-11
-7.08722e-11
-4.16783e-11
-7.16653e-11
-4.1431e-11
-7.24524e-11
-4.11827e-11
-7.32332e-11
-4.09333e-11
-7.40077e-11
-4.0683e-11
-7.47758e-11
-4.04317e-11
-7.55372e-11
-4.01796e-11
-7.62919e-11
-3.99268e-11
-7.70397e-11
-3.96732e-11
-7.77806e-11
-3.94189e-11
-7.85144e-11
-3.91642e-11
-7.9241e-11
-3.8909e-11
-7.99603e-11
-3.86534e-11
-8.06723e-11
-3.83976e-11
-8.13768e-11
-3.81417e-11
-8.20738e-11
-3.78858e-11
-8.27631e-11
-3.763e-11
-8.34447e-11
-3.73744e-11
-8.41186e-11
-3.71191e-11
-8.47846e-11
-3.68642e-11
-8.54427e-11
-3.66097e-11
-8.60929e-11
-3.63557e-11
-8.67351e-11
-3.61022e-11
-8.73692e-11
-3.58491e-11
-8.79951e-11
-3.55965e-11
-8.8613e-11
-3.53442e-11
-8.92226e-11
-3.50922e-11
-8.98241e-11
-3.48405e-11
-9.04173e-11
-3.45892e-11
-9.10023e-11
-3.434e-11
-9.15789e-11
-3.40922e-11
-3.37817e-11
-9.2147e-11
-5.71592e-11
-4.51098e-11
-5.80126e-11
-4.48774e-11
-5.88642e-11
-4.46457e-11
-5.97137e-11
-4.44142e-11
-6.0561e-11
-4.41828e-11
-6.14057e-11
-4.39514e-11
-6.22477e-11
-4.37197e-11
-6.30866e-11
-4.34877e-11
-6.39223e-11
-4.32552e-11
-6.47545e-11
-4.3022e-11
-6.5583e-11
-4.27882e-11
-6.64076e-11
-4.25536e-11
-6.7228e-11
-4.23182e-11
-6.80442e-11
-4.20819e-11
-6.88558e-11
-4.18448e-11
-6.96626e-11
-4.16066e-11
-7.04646e-11
-4.13676e-11
-7.12615e-11
-4.11276e-11
-7.20532e-11
-4.08866e-11
-7.28394e-11
-4.06448e-11
-7.362e-11
-4.0402e-11
-7.4395e-11
-4.01584e-11
-7.5164e-11
-3.99139e-11
-7.5927e-11
-3.96687e-11
-7.66839e-11
-3.94228e-11
-7.74344e-11
-3.91762e-11
-7.81786e-11
-3.8929e-11
-7.89161e-11
-3.86813e-11
-7.96471e-11
-3.84332e-11
-8.03712e-11
-3.81848e-11
-8.10884e-11
-3.79362e-11
-8.17987e-11
-3.76874e-11
-8.25019e-11
-3.74386e-11
-8.31978e-11
-3.71898e-11
-8.38865e-11
-3.69413e-11
-8.45679e-11
-3.6693e-11
-8.52418e-11
-3.64452e-11
-8.59082e-11
-3.61978e-11
-8.6567e-11
-3.59509e-11
-8.72182e-11
-3.57045e-11
-8.78616e-11
-3.54587e-11
-8.84973e-11
-3.52135e-11
-8.91252e-11
-3.49686e-11
-8.97452e-11
-3.47242e-11
-9.03574e-11
-3.44801e-11
-9.09616e-11
-3.42363e-11
-9.15579e-11
-3.39929e-11
-9.21463e-11
-3.37517e-11
-9.27266e-11
-3.35119e-11
-3.32087e-11
-9.32996e-11
-5.62114e-11
-4.42032e-11
-5.71161e-11
-4.39727e-11
-5.80186e-11
-4.37432e-11
-5.89185e-11