/*--------------------------------*- C++ -*----------------------------------*\
| =========                 |                                                 |
| \\      /  F ield         | OpenFOAM: The Open Source CFD Toolbox           |
|  \\    /   O peration     | Version:  2.4.0                                 |
|   \\  /    A nd           | Web:      www.OpenFOAM.org                      |
|    \\/     M anipulation  |                                                 |
\*---------------------------------------------------------------------------*/
FoamFile
{
    version     2.0;
    format      ascii;
    class       volVectorField;
    location    "3.9";
    object      U;
}
// * * * * * * * * * * * * * * * * * * * * * * * * * * * * * * * * * * * * * //

dimensions      [0 1 -1 0 0 0 0];

internalField   nonuniform List<vector> 
125
(
(2.1307e-09 -1.04585e-10 0)
(4.39872e-09 -9.79913e-11 0)
(8.31623e-10 -8.93751e-11 0)
(-4.71159e-09 -9.51973e-11 0)
(-3.20111e-09 -1.06034e-10 0)
(6.65873e-09 1.57964e-10 0)
(1.37412e-08 2.76801e-10 0)
(2.61398e-09 3.85427e-10 0)
(-1.46797e-08 3.13319e-10 0)
(-9.98817e-09 1.39814e-10 0)
(1.14964e-08 -7.13234e-10 0)
(2.37102e-08 -3.85238e-10 0)
(4.53305e-09 -5.25165e-11 0)
(-2.52575e-08 -2.70642e-10 0)
(-1.72036e-08 -7.69841e-10 0)
(1.66333e-08 1.3298e-11 0)
(3.43074e-08 7.28383e-10 0)
(6.59405e-09 1.41723e-09 0)
(-3.64818e-08 9.66866e-10 0)
(-2.48775e-08 -1.03678e-10 0)
(2.20661e-08 -1.78421e-09 0)
(4.55407e-08 -5.99381e-10 0)
(8.80148e-09 5.89578e-10 0)
(-4.83938e-08 -1.85208e-10 0)
(-3.30446e-08 -1.98586e-09 0)
(2.77987e-08 -5.77841e-10 0)
(5.74277e-08 1.30681e-09 0)
(1.11619e-08 3.14757e-09 0)
(-6.10246e-08 1.95107e-09 0)
(-4.17296e-08 -8.90358e-10 0)
(3.38441e-08 -3.37935e-09 0)
(6.99945e-08 -7.25633e-10 0)
(1.36812e-08 1.9348e-09 0)
(-7.4412e-08 2.09946e-10 0)
(-5.0963e-08 -3.83319e-09 0)
(4.02113e-08 -1.63437e-09 0)
(8.32645e-08 2.07895e-09 0)
(1.63658e-08 5.73576e-09 0)
(-8.85802e-08 3.3708e-09 0)
(-6.07619e-08 -2.2589e-09 0)
(4.6919e-08 -5.77174e-09 0)
(9.72712e-08 -9.42565e-10 0)
(1.92226e-08 3.90605e-09 0)
(-1.03564e-07 7.78271e-10 0)
(-7.11536e-08 -6.60687e-09 0)
(5.39755e-08 -4.12407e-09 0)
(1.12038e-07 2.17496e-09 0)
(2.22587e-08 8.41933e-09 0)
(-1.19389e-07 4.40078e-09 0)
(-8.21569e-08 -5.20473e-09 0)
(6.14004e-08 -1.01214e-08 0)
(1.27602e-07 -2.3041e-09 0)
(2.54818e-08 5.56563e-09 0)
(-1.36095e-07 5.12487e-10 0)
(-9.38027e-08 -1.14849e-08 0)
(6.92021e-08 -3.30177e-09 0)
(1.43986e-07 6.45049e-09 0)
(2.88996e-08 1.6195e-08 0)
(-1.53711e-07 9.94964e-09 0)
(-1.06113e-07 -5.01371e-09 0)
(7.74015e-08 6.92469e-09 0)
(1.61232e-07 1.87067e-08 0)
(3.25209e-08 3.05973e-08 0)
(-1.72282e-07 2.29985e-08 0)
(-1.19123e-07 4.85206e-09 0)
(8.6009e-08 2.78304e-08 0)
(1.79367e-07 4.20966e-08 0)
(3.63546e-08 5.64044e-08 0)
(-1.9184e-07 4.72945e-08 0)
(-1.32857e-07 2.52622e-08 0)
(9.50454e-08 -8.16338e-08 0)
(1.98432e-07 -6.50279e-08 0)
(4.04099e-08 -4.81183e-08 0)
(-2.12435e-07 -5.88653e-08 0)
(-1.47355e-07 -8.46609e-08 0)
(1.04519e-07 -5.25035e-07 0)
(2.18455e-07 -5.06088e-07 0)
(4.46958e-08 -4.86844e-07 0)
(-2.34097e-07 -4.99092e-07 0)
(-1.6264e-07 -5.28386e-07 0)
(1.14451e-07 -9.73865e-07 0)
(2.3947e-07 -9.52594e-07 0)
(4.92199e-08 -9.31251e-07 0)
(-2.56853e-07 -9.44868e-07 0)
(-1.78733e-07 -9.77886e-07 0)
(1.24861e-07 1.69718e-06 0)
(2.61517e-07 1.72639e-06 0)
(5.39928e-08 1.75395e-06 0)
(-2.80759e-07 1.73658e-06 0)
(-1.95682e-07 1.69196e-06 0)
(1.35861e-07 1.33826e-05 0)
(2.84795e-07 1.34321e-05 0)
(5.90494e-08 1.34811e-05 0)
(-3.05949e-07 1.34512e-05 0)
(-2.13573e-07 1.33721e-05 0)
(1.47587e-07 2.47849e-05 0)
(3.09468e-07 2.48666e-05 0)
(6.43052e-08 2.49577e-05 0)
(-3.32907e-07 2.49033e-05 0)
(-2.32777e-07 2.47697e-05 0)
(1.60137e-07 -4.70946e-05 0)
(3.36368e-07 -4.71149e-05 0)
(7.03679e-08 -4.7123e-05 0)
(-3.62073e-07 -4.71203e-05 0)
(-2.53613e-07 -4.70763e-05 0)
(1.71374e-07 -0.000343227 0)
(3.60707e-07 -0.000343393 0)
(7.59126e-08 -0.000343581 0)
(-3.88449e-07 -0.000343475 0)
(-2.72433e-07 -0.000343163 0)
(1.73014e-07 -0.000800832 0)
(3.63976e-07 -0.000800741 0)
(7.66177e-08 -0.000800689 0)
(-3.91905e-07 -0.00080072 0)
(-2.74965e-07 -0.000800802 0)
(1.62827e-07 -0.00184744 0)
(3.45648e-07 -0.00184729 0)
(6.87264e-08 -0.00184717 0)
(-3.91759e-07 -0.00184724 0)
(-2.74877e-07 -0.00184741 0)
(1.54912e-07 -0.00114995 0)
(3.29378e-07 -0.00115 0)
(6.45363e-08 -0.00115004 0)
(-3.75978e-07 -0.00115002 0)
(-2.63095e-07 -0.00114991 0)
)
;

boundaryField
{
    BotWall
    {
        type            fixedValue;
        value           uniform (0 0 0);
    }
    FreeStream
    {
        type            zeroGradient;
    }
    FrontNBack
    {
        type            empty;
    }
    LeftSide
    {
        type            symmetryPlane;
    }
    RightSide
    {
        type            symmetryPlane;
    }
    procBoundary0to1
    {
        type            processor;
        value           nonuniform List<vector> 5((1.48108e-07 -0.00106841 0) (3.14816e-07 -0.00106842 0) (6.13046e-08 -0.00106845 0) (-3.59169e-07 -0.00106844 0) (-2.50668e-07 -0.00106837 0));
    }
}


// ************************************************************************* //
