/*--------------------------------*- C++ -*----------------------------------*\
| =========                 |                                                 |
| \\      /  F ield         | OpenFOAM: The Open Source CFD Toolbox           |
|  \\    /   O peration     | Version:  2.4.0                                 |
|   \\  /    A nd           | Web:      www.OpenFOAM.org                      |
|    \\/     M anipulation  |                                                 |
\*---------------------------------------------------------------------------*/
FoamFile
{
    version     2.0;
    format      ascii;
    class       volScalarField;
    location    "4.7";
    object      p_rgh;
}
// * * * * * * * * * * * * * * * * * * * * * * * * * * * * * * * * * * * * * //

dimensions      [1 -1 -2 0 0 0 0];

internalField   nonuniform List<scalar> 
125
(
-4.68992e-06
-4.68296e-06
-4.66614e-06
-4.67254e-06
-4.69431e-06
-4.68461e-06
-4.67794e-06
-4.66181e-06
-4.66794e-06
-4.68878e-06
-4.67925e-06
-4.67287e-06
-4.65743e-06
-4.66329e-06
-4.68321e-06
-4.67385e-06
-4.66775e-06
-4.65299e-06
-4.65859e-06
-4.67759e-06
-4.6684e-06
-4.66257e-06
-4.64849e-06
-4.65383e-06
-4.67193e-06
-4.6629e-06
-4.65734e-06
-4.64394e-06
-4.64902e-06
-4.66622e-06
-4.65734e-06
-4.65206e-06
-4.63932e-06
-4.64414e-06
-4.66045e-06
-4.65173e-06
-4.64672e-06
-4.63464e-06
-4.63921e-06
-4.65464e-06
-4.64607e-06
-4.64133e-06
-4.62991e-06
-4.63421e-06
-4.64877e-06
-4.64035e-06
-4.63587e-06
-4.62511e-06
-4.62916e-06
-4.64285e-06
-4.63458e-06
-4.63036e-06
-4.62025e-06
-4.62405e-06
-4.63688e-06
-4.62875e-06
-4.62479e-06
-4.61532e-06
-4.61887e-06
-4.63085e-06
-4.62286e-06
-4.61916e-06
-4.61034e-06
-4.61363e-06
-4.62476e-06
-4.61691e-06
-4.61347e-06
-4.60529e-06
-4.60834e-06
-4.61862e-06
-4.6109e-06
-4.60772e-06
-4.60018e-06
-4.60298e-06
-4.61241e-06
-4.60484e-06
-4.6019e-06
-4.595e-06
-4.59755e-06
-4.60615e-06
-4.59871e-06
-4.59603e-06
-4.58977e-06
-4.59207e-06
-4.59982e-06
-4.59252e-06
-4.59009e-06
-4.58447e-06
-4.58652e-06
-4.59344e-06
-4.58626e-06
-4.58408e-06
-4.5791e-06
-4.5809e-06
-4.58699e-06
-4.57995e-06
-4.57801e-06
-4.57367e-06
-4.57522e-06
-4.58047e-06
-4.57356e-06
-4.57188e-06
-4.56818e-06
-4.56948e-06
-4.57389e-06
-4.56708e-06
-4.56568e-06
-4.56266e-06
-4.5637e-06
-4.56719e-06
-4.56048e-06
-4.55942e-06
-4.55716e-06
-4.55789e-06
-4.56036e-06
-4.55392e-06
-4.55308e-06
-4.55143e-06
-4.55193e-06
-4.55361e-06
-4.54799e-06
-4.54662e-06
-4.54452e-06
-4.54535e-06
-4.54788e-06
)
;

boundaryField
{
    BotWall
    {
        type            fixedFluxPressure;
        gradient        nonuniform 0();
        value           nonuniform 0();
    }
    FreeStream
    {
        type            totalPressure;
        rho             rho;
        psi             none;
        gamma           1;
        p0              uniform 0;
        value           nonuniform List<scalar> 5(-4.54549e-06 -4.54334e-06 -4.54026e-06 -4.54166e-06 -4.54575e-06);
    }
    FrontNBack
    {
        type            empty;
    }
    LeftSide
    {
        type            symmetryPlane;
    }
    RightSide
    {
        type            symmetryPlane;
    }
    procBoundary3to2
    {
        type            processor;
        value           nonuniform List<scalar> 5(-4.69519e-06 -4.68793e-06 -4.67041e-06 -4.67709e-06 -4.6998e-06);
    }
}


// ************************************************************************* //
