/*--------------------------------*- C++ -*----------------------------------*\
| =========                 |                                                 |
| \\      /  F ield         | OpenFOAM: The Open Source CFD Toolbox           |
|  \\    /   O peration     | Version:  2.4.0                                 |
|   \\  /    A nd           | Web:      www.OpenFOAM.org                      |
|    \\/     M anipulation  |                                                 |
\*---------------------------------------------------------------------------*/
FoamFile
{
    version     2.0;
    format      ascii;
    class       volScalarField;
    location    "0.002";
    object      alpha1;
}
// * * * * * * * * * * * * * * * * * * * * * * * * * * * * * * * * * * * * * //

dimensions      [0 0 0 0 0 0 0];

internalField   nonuniform List<scalar> 
125
(
0.999987
0.455982
5.89738e-52
3.75451e-58
1.68955e-64
6.67818e-71
2.60065e-77
1.00491e-83
3.59517e-90
1.10926e-96
2.93484e-103
6.8329e-110
1.31604e-116
2.07641e-123
2.64638e-130
2.66958e-137
2.07421e-144
1.21171e-151
5.57449e-159
2.79858e-166
2.07396e-173
1.43679e-180
5.82728e-188
7.491e-196
0
0
0
0
0
0
0
0
0
0
0
0
0
0
0
0
0
0
0
0
0
0
0
0
0
0
0
0
0
0
0
0
0
0
0
0
0
0
0
0
0
0
0
0
0
0
0
0
0
0
0
0
0
0
0
0
0
0
0
0
0
0
0
0
0
0
0
0
0
0
0
0
0
0
0
0
0
0
0
0
0
0
0
0
0
0
0
0
0
0
0
0
0
0
0
0
0
0
0
0
0
)
;

boundaryField
{
    BotWall
    {
        type            fixedValue;
        value           uniform 1;
    }
    FreeStream
    {
        type            inletOutlet;
        inletValue      uniform 0;
        value           uniform 0;
    }
    FrontNBack
    {
        type            empty;
    }
    LeftSide
    {
        type            symmetryPlane;
    }
    RightSide
    {
        type            symmetryPlane;
    }
    procBoundary9to6
    {
        type            processor;
        value           uniform 0;
    }
    procBoundary9to7
    {
        type            processor;
        value           nonuniform List<scalar> 
75
(
1.00001
0.4721
1.55006e-54
9.48097e-61
6.03007e-67
4.84014e-73
4.42595e-79
3.94239e-85
3.17633e-91
2.26704e-97
1.41656e-103
7.76332e-110
3.71286e-116
1.54422e-122
5.56757e-129
1.72664e-135
4.55688e-142
1.00732e-148
1.81958e-155
2.59264e-162
2.762e-169
2.00434e-176
8.19616e-184
1.06214e-191
0
0
0
0
0
0
0
0
0
0
0
0
0
0
0
0
0
0
0
0
0
0
0
0
0
0
0
0
0
0
0
0
0
0
0
0
0
0
0
0
0
0
0
0
0
0
0
0
0
0
0
)
;
    }
    procBoundary9to8
    {
        type            processor;
        value           uniform 0;
    }
    procBoundary9to10
    {
        type            processor;
        value           uniform 0;
    }
    procBoundary9to11
    {
        type            processor;
        value           nonuniform List<scalar> 
75
(
1
0.466003
1.50455e-54
2.76457e-61
1.02649e-67
3.58508e-74
1.29956e-80
4.77927e-87
1.6459e-93
4.91577e-100
1.26399e-106
2.86515e-113
5.38156e-120
8.30478e-127
1.04036e-133
1.04057e-140
8.15334e-148
4.97468e-155
2.50691e-162
1.2567e-169
6.94388e-177
3.29167e-184
9.54414e-192
1.02762e-199
0
0
0
0
0
0
0
0
0
0
0
0
0
0
0
0
0
0
0
0
0
0
0
0
0
0
0
0
0
0
0
0
0
0
0
0
0
0
0
0
0
0
0
0
0
0
0
0
0
0
0
)
;
    }
}


// ************************************************************************* //
