/*--------------------------------*- C++ -*----------------------------------*\
| =========                 |                                                 |
| \\      /  F ield         | OpenFOAM: The Open Source CFD Toolbox           |
|  \\    /   O peration     | Version:  2.4.0                                 |
|   \\  /    A nd           | Web:      www.OpenFOAM.org                      |
|    \\/     M anipulation  |                                                 |
\*---------------------------------------------------------------------------*/
FoamFile
{
    version     2.0;
    format      ascii;
    class       surfaceScalarField;
    location    "0.002";
    object      phi;
}
// * * * * * * * * * * * * * * * * * * * * * * * * * * * * * * * * * * * * * //

dimensions      [0 3 -1 0 0 0 0];

internalField   nonuniform List<scalar> 
123
(
1.16456e-11
-8.76703e-09
-8.76782e-09
-8.76859e-09
-8.76925e-09
-8.76983e-09
-8.77034e-09
-8.7708e-09
-8.77119e-09
-8.77153e-09
-8.77185e-09
-8.77214e-09
-8.77242e-09
-8.77268e-09
-8.77292e-09
-8.77316e-09
-8.77339e-09
-8.77361e-09
-8.77383e-09
-8.77404e-09
-8.77424e-09
-8.77444e-09
-8.77464e-09
-8.77484e-09
-8.77503e-09
-8.77521e-09
-8.7754e-09
-8.77558e-09
-8.77577e-09
-8.77595e-09
-8.77612e-09
-8.7763e-09
-8.77648e-09
-8.77666e-09
-8.77683e-09
-8.77701e-09
-8.77718e-09
-8.77735e-09
-8.77753e-09
-8.7777e-09
-8.77787e-09
-8.77804e-09
-8.77821e-09
-8.77838e-09
-8.77855e-09
-8.77872e-09
-8.77889e-09
-8.77906e-09
-8.77922e-09
-8.77939e-09
-8.77956e-09
-8.77972e-09
-8.77989e-09
-8.78005e-09
-8.78022e-09
-8.78038e-09
-8.78055e-09
-8.78071e-09
-8.78087e-09
-8.78104e-09
-8.7812e-09
-8.78136e-09
-8.78152e-09
-8.78168e-09
-8.78184e-09
-8.782e-09
-8.78216e-09
-8.78232e-09
-8.78248e-09
-8.78264e-09
-8.7828e-09
-8.78295e-09
-8.78311e-09
-8.78326e-09
-8.80774e-09
-8.80771e-09
-8.80769e-09
-8.80766e-09
-8.80763e-09
-8.80761e-09
-8.80759e-09
-8.80756e-09
-8.80754e-09
-8.80752e-09
-8.8075e-09
-8.80748e-09
-8.80746e-09
-8.80744e-09
-8.80742e-09
-8.8074e-09
-8.80738e-09
-8.80736e-09
-8.80735e-09
-8.80733e-09
-8.80732e-09
-8.8073e-09
-8.80729e-09
-8.80727e-09
-8.80726e-09
-8.80725e-09
-8.80724e-09
-8.80723e-09
-8.80722e-09
-8.80721e-09
-8.8072e-09
-8.80719e-09
-8.80718e-09
-8.80718e-09
-8.80717e-09
-8.80716e-09
-8.80716e-09
-8.80716e-09
-8.80715e-09
-8.80715e-09
-8.80715e-09
-8.80715e-09
-8.80714e-09
-8.80715e-09
-8.80715e-09
-8.80715e-09
-8.80715e-09
-8.80715e-09
-8.80716e-09
)
;

boundaryField
{
    BotWall
    {
        type            calculated;
        value           uniform 1.61331e-16;
    }
    FreeStream
    {
        type            calculated;
        value           uniform -8.80716e-09;
    }
    FrontNBack
    {
        type            empty;
        value           nonuniform 0();
    }
    LeftSide
    {
        type            symmetryPlane;
        value           nonuniform 0();
    }
    RightSide
    {
        type            symmetryPlane;
        value           uniform 0;
    }
    procBoundary9to6
    {
        type            processor;
        value           nonuniform List<scalar> 
50
(
9.28891e-14
9.11576e-14
8.98058e-14
8.87697e-14
8.79898e-14
8.74126e-14
8.69917e-14
8.66878e-14
8.64681e-14
8.6306e-14
8.61804e-14
8.60747e-14
8.59762e-14
8.58755e-14
8.57657e-14
8.56421e-14
8.55015e-14
8.53423e-14
8.51634e-14
8.49647e-14
8.47465e-14
8.45094e-14
8.42544e-14
8.39824e-14
8.36944e-14
8.33915e-14
8.30747e-14
8.27449e-14
8.2403e-14
8.20497e-14
8.16859e-14
8.1312e-14
8.09287e-14
8.05365e-14
8.01358e-14
7.97269e-14
7.93102e-14
7.88859e-14
7.84543e-14
7.80155e-14
7.75698e-14
7.71172e-14
7.66578e-14
7.61918e-14
7.57192e-14
7.52401e-14
7.47542e-14
7.42617e-14
7.37618e-14
7.32546e-14
)
;
    }
    procBoundary9to7
    {
        type            processor;
        value           nonuniform List<scalar> 
75
(
-8.56621e-12
6.71023e-13
7.90965e-13
1.07464e-12
1.06438e-12
9.32247e-13
7.55968e-13
5.84315e-13
4.41698e-13
3.35214e-13
2.61633e-13
2.13376e-13
1.82286e-13
1.61863e-13
1.48415e-13
1.39217e-13
1.3226e-13
1.25867e-13
1.1975e-13
1.14204e-13
1.09213e-13
1.048e-13
1.0098e-13
9.77453e-14
9.50648e-14
-2.72218e-14
-2.66736e-14
-2.61217e-14
-2.55656e-14
-2.50052e-14
-2.44404e-14
-2.3871e-14
-2.3297e-14
-2.27183e-14
-2.21348e-14
-2.15465e-14
-2.09534e-14
-2.03557e-14
-1.97534e-14
-1.91469e-14
-1.85364e-14
-1.79158e-14
-1.72868e-14
-1.66527e-14
-1.60136e-14
-1.53695e-14
-1.47203e-14
-1.40667e-14
-1.34072e-14
-1.27434e-14
-1.20727e-14
-1.13956e-14
-1.07098e-14
-1.00128e-14
-9.29963e-15
-8.56119e-15
-7.78089e-15
-7.23583e-15
-6.7449e-15
-6.21519e-15
-5.62659e-15
-5.00005e-15
-4.34611e-15
-3.67012e-15
-2.91602e-15
-2.06735e-15
-1.23856e-15
-3.98666e-16
3.07983e-16
9.66093e-16
1.61615e-15
2.25602e-15
2.86521e-15
3.40486e-15
3.84222e-15
)
;
    }
    procBoundary9to8
    {
        type            processor;
        value           uniform -8.78342e-09;
    }
    procBoundary9to10
    {
        type            processor;
        value           uniform 8.80777e-09;
    }
    procBoundary9to11
    {
        type            processor;
        value           nonuniform List<scalar> 
75
(
-8.33491e-12
-1.51802e-13
-2.86844e-15
-3.08837e-13
-4.00901e-13
-3.53258e-13
-2.42021e-13
-1.28411e-13
-5.56334e-14
7.87193e-15
5.47617e-14
8.15689e-14
9.30458e-14
9.71848e-14
9.80284e-14
9.76696e-14
9.70961e-14
9.66798e-14
9.64803e-14
9.64275e-14
9.64216e-14
9.63778e-14
9.62418e-14
9.59876e-14
9.56126e-14
9.51271e-14
9.45502e-14
9.39038e-14
9.32094e-14
9.24871e-14
9.17545e-14
9.10261e-14
9.03138e-14
8.96265e-14
8.89708e-14
8.83514e-14
8.77712e-14
8.72316e-14
8.6733e-14
8.62747e-14
8.58555e-14
8.54736e-14
8.51269e-14
8.48129e-14
8.45293e-14
8.42736e-14
8.40434e-14
8.38363e-14
8.36502e-14
8.3483e-14
8.33328e-14
8.31979e-14
8.30767e-14
8.29679e-14
8.287e-14
8.27821e-14
8.2703e-14
8.26318e-14
8.25678e-14
8.25101e-14
8.24582e-14
8.24115e-14
8.23695e-14
8.23316e-14
8.22976e-14
8.22669e-14
8.22392e-14
8.22143e-14
8.21918e-14
8.21715e-14
8.2153e-14
8.2136e-14
8.21203e-14
8.21051e-14
8.20904e-14
)
;
    }
}


// ************************************************************************* //
