/*--------------------------------*- C++ -*----------------------------------*\
| =========                 |                                                 |
| \\      /  F ield         | OpenFOAM: The Open Source CFD Toolbox           |
|  \\    /   O peration     | Version:  2.0.x                                 |
|   \\  /    A nd           | Web:      www.OpenFOAM.org                      |
|    \\/     M anipulation  |                                                 |
\*---------------------------------------------------------------------------*/
FoamFile
{
    version     2.0;
    format      ascii;
    class       volScalarField;
    location    "0";
    object      H;
}
// * * * * * * * * * * * * * * * * * * * * * * * * * * * * * * * * * * * * * //

//H is actually calculated automatically during operation, no need to do anything here, I guess...

dimensions      [0 2 -2 0 0 0 0];

internalField   uniform 0;

boundaryField
{
    backWall
    {
        type            zeroGradient;
    }

	FrontNBack_pos
	{
		type            wedge;
	}

	FrontNBack_neg
	{
		type            wedge;
	}

	Axis
	{
		type            symmetryPlane;
	}

	freeStream
	{
		type            inletOutlet;
		value           uniform 0;
		inletValue      uniform 0;
	}

}


// ************************************************************************* //
