/*--------------------------------*- C++ -*----------------------------------*\
| =========                 |                                                 |
| \\      /  F ield         | OpenFOAM: The Open Source CFD Toolbox           |
|  \\    /   O peration     | Version:  2.0.x                                 |
|   \\  /    A nd           | Web:      www.OpenFOAM.org                      |
|    \\/     M anipulation  |                                                 |
\*---------------------------------------------------------------------------*/
FoamFile
{
    version     2.0;
    format      ascii;
    class       volScalarField;
    location    "0";
    object      p_rgh;
}
// * * * * * * * * * * * * * * * * * * * * * * * * * * * * * * * * * * * * * //

dimensions      [1 -1 -2 0 0 0 0];

internalField   uniform 0;

boundaryField
{
    backWall
    {
		type            fixedFluxPressure;
		value           uniform 0;
    }

	FrontNBack_pos
	{
		type            wedge;
	}

	FrontNBack_neg
	{
		type            wedge;
	}

	Axis
	{
		type            symmetryPlane;
	}

	freeStream
	{
		type            totalPressure;
		rho             rho;
		psi             none;
		gamma           1;
		p0              uniform 0;
		value           uniform 0;
	}
}


// ************************************************************************* //
