/*--------------------------------*- C++ -*----------------------------------*\
| =========                 |                                                 |
| \\      /  F ield         | OpenFOAM: The Open Source CFD Toolbox           |
|  \\    /   O peration     | Version:  2.0.x                                 |
|   \\  /    A nd           | Web:      www.OpenFOAM.org                      |
|    \\/     M anipulation  |                                                 |
\*---------------------------------------------------------------------------*/
FoamFile
{
    version     2.0;
    format      ascii;
    class       volScalarField;
    location    "0";
    object      T;
}
// * * * * * * * * * * * * * * * * * * * * * * * * * * * * * * * * * * * * * //

dimensions      [0 0 0 1 0 0 0];

internalField   uniform 373; //Initialize to the saturation temperature, but the wall is subcooled

boundaryField
{
    backWall
    {
        type            fixedValue;
		value           uniform 363;
    }

	FrontNBack_pos
	{
		type            wedge;
	}

	FrontNBack_neg
	{
		type            wedge;
	}

	Axis
	{
		type            symmetryPlane;
	}

	freeStream
	{
		type            zeroGradient;
	}
}


// ************************************************************************* //
