/*--------------------------------*- C++ -*----------------------------------*\
| =========                 |                                                 |
| \\      /  F ield         | OpenFOAM: The Open Source CFD Toolbox           |
|  \\    /   O peration     | Version:  2.4.0                                 |
|   \\  /    A nd           | Web:      www.OpenFOAM.org                      |
|    \\/     M anipulation  |                                                 |
\*---------------------------------------------------------------------------*/
FoamFile
{
    version     2.0;
    format      ascii;
    class       volScalarField;
    location    "4.6";
    object      H;
}
// * * * * * * * * * * * * * * * * * * * * * * * * * * * * * * * * * * * * * //

dimensions      [0 2 -2 0 0 0 0];

internalField   nonuniform List<scalar> 
500
(
-12004.3
-12004.3
-12004.3
-12004.3
-12004.3
-11550.4
-11550.3
-11550.3
-11550.3
-11550.4
-11091.4
-11091.3
-11091.2
-11091.3
-11091.4
-10627.2
-10627.1
-10626.9
-10627.1
-10627.2
-10157.8
-10157.6
-10157.4
-10157.6
-10157.8
-9683.1
-9682.83
-9682.55
-9682.86
-9683.09
-9202.97
-9202.65
-9202.31
-9202.68
-9202.96
-8717.36
-8716.98
-8716.59
-8717.03
-8717.35
-8226.18
-8225.75
-8225.3
-8225.8
-8226.17
-7729.35
-7728.86
-7728.35
-7728.91
-7729.33
-7226.78
-7226.22
-7225.65
-7226.29
-7226.76
-6718.38
-6717.76
-6717.12
-6717.83
-6718.36
-6204.05
-6203.36
-6202.67
-6203.44
-6204.03
-5683.71
-5682.95
-5682.19
-5683.04
-5683.68
-5157.26
-5156.42
-5155.58
-5156.52
-5157.23
-4624.6
-4623.68
-4622.76
-4623.78
-4624.56
-4085.63
-4084.62
-4083.63
-4084.74
-4085.59
-3540.25
-3539.15
-3538.06
-3539.27
-3540.21
-2988.36
-2987.15
-2985.98
-2987.29
-2988.31
-2429.84
-2428.53
-2427.25
-2428.67
-2429.79
-1864.61
-1863.17
-1861.79
-1863.33
-1864.55
-1292.54
-1290.97
-1289.47
-1291.14
-1292.48
-713.523
-711.805
-710.178
-711.988
-713.456
-16.0465
-15.9135
-15.791
-15.9274
-16.0411
-11.9706
-11.8715
-11.7804
-11.8818
-11.9666
-11.9804
-11.8832
-11.7943
-11.8932
-11.9766
-11.9879
-11.8926
-11.8059
-11.9024
-11.9842
-11.993
-11.8996
-11.815
-11.9091
-11.9895
-11.9956
-11.904
-11.8216
-11.9133
-11.9922
-11.9956
-11.9059
-11.8256
-11.9149
-11.9924
-11.9929
-11.9051
-11.8268
-11.9138
-11.9898
-11.9874
-11.9014
-11.8251
-11.9099
-11.9844
-11.9789
-11.8947
-11.8205
-11.903
-11.9761
-11.9674
-11.8851
-11.8128
-11.8931
-11.9648
-11.9528
-11.8722
-11.8018
-11.88
-11.9503
-11.9349
-11.8561
-11.7876
-11.8637
-11.9325
-11.9136
-11.8365
-11.7699
-11.8439
-11.9113
-11.8888
-11.8135
-11.7487
-11.8206
-11.8866
-11.8604
-11.7868
-11.7238
-11.7937
-11.8583
-11.8282
-11.7563
-11.6951
-11.7631
-11.8263
-11.7922
-11.722
-11.6625
-11.7285
-11.7903
-11.7521
-11.6836
-11.6259
-11.69
-11.7504
-11.708
-11.6412
-11.5851
-11.6473
-11.7064
-11.6596
-11.5944
-11.54
-11.6004
-11.6581
-11.6069
-11.5433
-11.4905
-11.5491
-11.6055
-11.5497
-11.4878
-11.4365
-11.4934
-11.5484
-11.4879
-11.4276
-11.3778
-11.433
-11.4867
-11.4214
-11.3626
-11.3144
-11.3678
-11.4202
-11.35
-11.2928
-11.2461
-11.2979
-11.3489
-11.2737
-11.218
-11.1728
-11.2229
-11.2727
-11.1923
-11.1381
-11.0943
-11.1428
-11.1913
-11.1056
-11.053
-11.0106
-11.0576
-11.1048
-11.0137
-10.9625
-10.9215
-10.967
-11.0129
-10.9163
-10.8666
-10.827
-10.8709
-10.9156
-10.8134
-10.7652
-10.7268
-10.7693
-10.8128
-10.7049
-10.658
-10.621
-10.662
-10.7043
-10.5905
-10.5452
-10.5094
-10.549
-10.59
-10.4704
-10.4264
-10.3919
-10.4301
-10.4699
-10.3443
-10.3017
-10.2684
-10.3053
-10.3439
-10.2122
-10.1709
-10.1389
-10.1744
-10.2118
-10.0739
-10.0341
-10.0031
-10.0374
-10.0736
-9.92952
-9.89096
-9.86119
-9.89416
-9.92923
-9.77883
-9.74157
-9.71292
-9.74465
-9.77858
-9.6218
-9.58584
-9.55829
-9.5888
-9.6216
-9.45839
-9.42371
-9.39723
-9.42655
-9.45823
-9.28855
-9.25511
-9.22969
-9.25784
-9.28841
-9.11223
-9.08003
-9.05563
-9.08265
-9.11212
-8.92939
-8.89841
-8.87502
-8.90092
-8.92932
-8.74003
-8.71025
-8.68784
-8.71266
-8.73999
-8.54413
-8.51553
-8.49408
-8.51783
-8.54411
-8.34168
-8.31425
-8.29374
-8.31645
-8.34168
-8.1327
-8.10642
-8.08683
-8.10852
-8.13273
-7.91722
-7.89206
-7.87337
-7.89406
-7.91726
-7.69526
-7.67121
-7.6534
-7.67312
-7.69531
-7.46687
-7.44392
-7.42697
-7.44574
-7.46695
-7.23213
-7.21026
-7.19415
-7.21199
-7.23222
-6.99111
-6.9703
-6.95501
-6.97194
-6.99121
-6.74391
-6.72413
-6.70966
-6.72569
-6.74401
-6.49063
-6.47188
-6.45819
-6.47335
-6.49074
-6.23139
-6.21366
-6.20074
-6.21505
-6.23151
-5.96636
-5.94961
-5.93745
-5.95092
-5.96648
-5.69568
-5.67991
-5.66848
-5.68114
-5.6958
-5.41953
-5.40473
-5.39402
-5.40589
-5.41966
-5.13813
-5.12427
-5.11427
-5.12535
-5.13826
-4.85168
-4.83875
-4.82944
-4.83976
-4.8518
-4.56042
-4.54841
-4.53978
-4.54934
-4.56054
-4.26461
-4.25351
-4.24554
-4.25437
-4.26473
-3.96454
-3.95432
-3.94701
-3.95512
-3.96465
-3.66049
-3.65116
-3.64449
-3.65188
-3.66061
-3.35281
-3.34434
-3.33829
-3.34499
-3.35291
-3.04182
-3.0342
-3.02877
-3.03479
-3.04192
-2.72789
-2.72112
-2.71629
-2.72164
-2.72798
-2.41142
-2.40548
-2.40125
-2.40594
-2.4115
-2.09281
-2.08768
-2.08404
-2.08808
-2.09288
-1.77249
-1.76817
-1.76511
-1.76851
-1.77255
-1.45091
-1.4474
-1.4449
-1.44767
-1.45096
-1.12855
-1.12583
-1.1239
-1.12604
-1.12859
-0.805907
-0.80397
-0.802598
-0.80412
-0.805936
-0.48349
-0.482331
-0.48151
-0.482421
-0.483508
-0.161838
-0.16145
-0.161176
-0.16148
-0.161844
)
;

boundaryField
{
    BotWall
    {
        type            zeroGradient;
    }
    FreeStream
    {
        type            zeroGradient;
    }
    FrontNBack
    {
        type            empty;
    }
    LeftSide
    {
        type            symmetryPlane;
    }
    RightSide
    {
        type            symmetryPlane;
    }
}


// ************************************************************************* //
