/*--------------------------------*- C++ -*----------------------------------*\
| =========                 |                                                 |
| \\      /  F ield         | OpenFOAM: The Open Source CFD Toolbox           |
|  \\    /   O peration     | Version:  2.4.0                                 |
|   \\  /    A nd           | Web:      www.OpenFOAM.org                      |
|    \\/     M anipulation  |                                                 |
\*---------------------------------------------------------------------------*/
FoamFile
{
    version     2.0;
    format      ascii;
    class       volScalarField;
    location    "4.6";
    object      p;
}
// * * * * * * * * * * * * * * * * * * * * * * * * * * * * * * * * * * * * * //

dimensions      [1 -1 -2 0 0 0 0];

internalField   nonuniform List<scalar> 
500
(
0.765379
0.76813
0.769136
0.76795
0.7655
0.735572
0.738332
0.739344
0.73815
0.735691
0.705421
0.708191
0.70921
0.708008
0.705541
0.674943
0.677724
0.678752
0.67754
0.675063
0.644114
0.646907
0.647944
0.646721
0.644235
0.612952
0.615756
0.616803
0.61557
0.613073
0.58143
0.584247
0.585304
0.584059
0.581552
0.549568
0.552398
0.553466
0.552209
0.54969
0.517338
0.520182
0.521261
0.519992
0.517461
0.484759
0.487617
0.488707
0.487426
0.484882
0.451795
0.454668
0.45577
0.454476
0.451919
0.418473
0.421363
0.422477
0.42117
0.418598
0.38482
0.387727
0.388853
0.387532
0.384946
0.350996
0.353921
0.355062
0.353724
0.351122
0.316847
0.319794
0.320951
0.319596
0.316975
0.28093
0.283894
0.285059
0.283695
0.281058
0.239852
0.242797
0.243947
0.242599
0.23998
0.19658
0.199475
0.20057
0.19932
0.196706
0.188619
0.191698
0.192824
0.191476
0.18875
0.300338
0.304356
0.306317
0.304158
0.300511
0.455329
0.461391
0.465144
0.460795
0.455601
-0.305463
-0.301639
-0.299758
-0.302024
-0.305275
-4.06946
-4.08853
-4.10677
-4.08651
-4.07019
-8.95362
-9.01639
-9.07557
-9.00975
-8.95617
-0.0175718
-0.0175693
-0.0175671
-0.0175695
-0.0175717
-0.0132508
-0.0132526
-0.013254
-0.0132524
-0.0132509
-0.014632
-0.0146322
-0.0146324
-0.0146322
-0.0146321
-0.015689
-0.0156888
-0.0156887
-0.0156888
-0.015689
-0.0164147
-0.0164146
-0.0164145
-0.0164146
-0.0164147
-0.017062
-0.017062
-0.0170619
-0.017062
-0.017062
-0.0177278
-0.0177278
-0.0177278
-0.0177278
-0.0177278
-0.0184144
-0.0184144
-0.0184143
-0.0184144
-0.0184144
-0.0191118
-0.0191118
-0.0191118
-0.0191118
-0.0191118
-0.0198166
-0.0198166
-0.0198166
-0.0198166
-0.0198166
-0.0205287
-0.0205287
-0.0205287
-0.0205287
-0.0205287
-0.0212487
-0.0212487
-0.0212486
-0.0212487
-0.0212487
-0.0219767
-0.0219766
-0.0219766
-0.0219766
-0.0219767
-0.0227128
-0.0227128
-0.0227128
-0.0227128
-0.0227128
-0.0234572
-0.0234571
-0.0234571
-0.0234571
-0.0234572
-0.0242098
-0.0242098
-0.0242098
-0.0242098
-0.0242098
-0.0249709
-0.0249708
-0.0249708
-0.0249708
-0.0249709
-0.0257404
-0.0257404
-0.0257404
-0.0257404
-0.0257404
-0.0265186
-0.0265185
-0.0265185
-0.0265185
-0.0265186
-0.0273054
-0.0273053
-0.0273053
-0.0273054
-0.0273054
-0.028101
-0.0281009
-0.0281009
-0.028101
-0.028101
-0.0289055
-0.0289054
-0.0289054
-0.0289054
-0.0289055
-0.0297189
-0.0297189
-0.0297189
-0.0297189
-0.0297189
-0.0305414
-0.0305414
-0.0305414
-0.0305414
-0.0305414
-0.0313731
-0.0313731
-0.0313731
-0.0313731
-0.0313731
-0.0322141
-0.0322141
-0.0322141
-0.0322141
-0.0322141
-0.0330645
-0.0330645
-0.0330645
-0.0330645
-0.0330645
-0.0339244
-0.0339244
-0.0339243
-0.0339244
-0.0339244
-0.0347938
-0.0347938
-0.0347938
-0.0347938
-0.0347938
-0.035673
-0.035673
-0.035673
-0.035673
-0.035673
-0.036562
-0.036562
-0.0365619
-0.036562
-0.036562
-0.0374609
-0.0374608
-0.0374608
-0.0374608
-0.0374609
-0.0383698
-0.0383698
-0.0383698
-0.0383698
-0.0383698
-0.0392889
-0.0392888
-0.0392888
-0.0392888
-0.0392889
-0.0402182
-0.0402182
-0.0402181
-0.0402182
-0.0402182
-0.0411579
-0.0411579
-0.0411578
-0.0411579
-0.0411579
-0.042108
-0.042108
-0.042108
-0.042108
-0.042108
-0.0430688
-0.0430688
-0.0430688
-0.0430688
-0.0430688
-0.0440403
-0.0440403
-0.0440403
-0.0440403
-0.0440403
-0.0450227
-0.0450227
-0.0450226
-0.0450227
-0.0450227
-0.046016
-0.046016
-0.046016
-0.046016
-0.046016
-0.0470204
-0.0470204
-0.0470203
-0.0470204
-0.0470204
-0.048036
-0.0480359
-0.0480359
-0.0480359
-0.048036
-0.0490629
-0.0490629
-0.0490629
-0.0490629
-0.0490629
-0.0501013
-0.0501013
-0.0501013
-0.0501013
-0.0501013
-0.0511513
-0.0511512
-0.0511512
-0.0511512
-0.0511513
-0.052213
-0.0522129
-0.0522129
-0.0522129
-0.052213
-0.0532865
-0.0532865
-0.0532865
-0.0532865
-0.0532865
-0.054372
-0.054372
-0.054372
-0.054372
-0.054372
-0.0554696
-0.0554696
-0.0554696
-0.0554696
-0.0554696
-0.0565795
-0.0565795
-0.0565795
-0.0565795
-0.0565795
-0.0577018
-0.0577018
-0.0577018
-0.0577018
-0.0577018
-0.0588366
-0.0588366
-0.0588366
-0.0588366
-0.0588366
-0.059984
-0.059984
-0.059984
-0.059984
-0.059984
-0.0611443
-0.0611443
-0.0611443
-0.0611443
-0.0611443
-0.0623175
-0.0623175
-0.0623175
-0.0623175
-0.0623175
-0.0635038
-0.0635038
-0.0635038
-0.0635038
-0.0635038
-0.0647033
-0.0647033
-0.0647033
-0.0647033
-0.0647033
-0.0659162
-0.0659162
-0.0659162
-0.0659162
-0.0659162
-0.0671427
-0.0671427
-0.0671427
-0.0671427
-0.0671427
-0.0683828
-0.0683828
-0.0683828
-0.0683828
-0.0683828
-0.0696368
-0.0696368
-0.0696368
-0.0696368
-0.0696368
-0.0709048
-0.0709048
-0.0709048
-0.0709048
-0.0709048
-0.0721869
-0.0721869
-0.0721869
-0.0721869
-0.0721869
-0.0734833
-0.0734833
-0.0734833
-0.0734833
-0.0734833
-0.0747942
-0.0747942
-0.0747942
-0.0747942
-0.0747942
-0.0761198
-0.0761197
-0.0761197
-0.0761197
-0.0761198
-0.0774601
-0.0774601
-0.0774601
-0.0774601
-0.0774601
-0.0788153
-0.0788153
-0.0788153
-0.0788153
-0.0788153
-0.0801857
-0.0801857
-0.0801857
-0.0801857
-0.0801857
-0.0815714
-0.0815714
-0.0815714
-0.0815714
-0.0815714
-0.0829726
-0.0829726
-0.0829726
-0.0829726
-0.0829726
-0.0843893
-0.0843893
-0.0843893
-0.0843893
-0.0843893
-0.0858219
-0.0858219
-0.0858219
-0.0858219
-0.0858219
-0.0872705
-0.0872705
-0.0872705
-0.0872705
-0.0872705
-0.0887353
-0.0887353
-0.0887353
-0.0887353
-0.0887353
)
;

boundaryField
{
    BotWall
    {
        type            calculated;
        value           nonuniform List<scalar> 5(0.780199 0.782951 0.783956 0.782771 0.78032);
    }
    FreeStream
    {
        type            calculated;
        value           nonuniform List<scalar> 5(-0.0894717 -0.0894717 -0.0894717 -0.0894717 -0.0894717);
    }
    FrontNBack
    {
        type            empty;
    }
    LeftSide
    {
        type            symmetryPlane;
    }
    RightSide
    {
        type            symmetryPlane;
    }
}


// ************************************************************************* //
