/*--------------------------------*- C++ -*----------------------------------*\
| =========                 |                                                 |
| \\      /  F ield         | OpenFOAM: The Open Source CFD Toolbox           |
|  \\    /   O peration     | Version:  2.4.0                                 |
|   \\  /    A nd           | Web:      www.OpenFOAM.org                      |
|    \\/     M anipulation  |                                                 |
\*---------------------------------------------------------------------------*/
FoamFile
{
    version     2.0;
    format      ascii;
    class       volScalarField;
    location    "4.6";
    object      p_rgh;
}
// * * * * * * * * * * * * * * * * * * * * * * * * * * * * * * * * * * * * * //

dimensions      [1 -1 -2 0 0 0 0];

internalField   nonuniform List<scalar> 
500
(
0.780199
0.782951
0.783956
0.782771
0.78032
0.780198
0.782958
0.78397
0.782777
0.780318
0.780186
0.782956
0.783975
0.782773
0.780306
0.780183
0.782964
0.783992
0.78278
0.780303
0.780169
0.782961
0.783999
0.782776
0.78029
0.780165
0.78297
0.784017
0.782783
0.780286
0.78015
0.782967
0.784024
0.782779
0.780272
0.780146
0.782976
0.784044
0.782788
0.780268
0.78013
0.782974
0.784053
0.782784
0.780253
0.780124
0.782982
0.784072
0.782791
0.780247
0.780096
0.78297
0.784071
0.782778
0.78022
0.780079
0.782969
0.784082
0.782775
0.780204
0.780102
0.783009
0.784135
0.782813
0.780227
0.780328
0.783254
0.784395
0.783057
0.780455
0.780612
0.783558
0.784715
0.78336
0.780739
0.77951
0.782474
0.783639
0.782275
0.779638
0.773637
0.776581
0.777731
0.776383
0.773764
0.765962
0.768856
0.769951
0.768701
0.766087
0.793995
0.797073
0.798199
0.796851
0.794125
0.94211
0.946127
0.948088
0.94593
0.942283
1.1339
1.13996
1.14372
1.13937
1.13417
0.410323
0.414147
0.416028
0.413762
0.410511
-3.31605
-3.33511
-3.35336
-3.33309
-3.31678
-8.47057
-8.52916
-8.58443
-8.52296
-8.47296
-0.00382496
-0.00382246
-0.00382023
-0.00382271
-0.00382487
0.00114035
0.00113863
0.00113716
0.0011388
0.00114029
0.000410694
0.000410517
0.000410317
0.00041054
0.000410686
1.2603e-05
1.27715e-05
1.28894e-05
1.27578e-05
1.26087e-05
-4.69706e-05
-4.68738e-05
-4.67933e-05
-4.68832e-05
-4.69665e-05
-2.06634e-05
-2.0625e-05
-2.0591e-05
-2.06292e-05
-2.06613e-05
-5.37567e-06
-5.34584e-06
-5.32314e-06
-5.3487e-06
-5.37403e-06
-3.21427e-06
-3.18048e-06
-3.1566e-06
-3.18347e-06
-3.21259e-06
-4.26069e-06
-4.22528e-06
-4.20005e-06
-4.22841e-06
-4.25898e-06
-4.86374e-06
-4.82893e-06
-4.80375e-06
-4.83204e-06
-4.86205e-06
-4.94356e-06
-4.90972e-06
-4.88508e-06
-4.91276e-06
-4.94191e-06
-4.89715e-06
-4.86411e-06
-4.84001e-06
-4.86708e-06
-4.89553e-06
-4.86882e-06
-4.83648e-06
-4.81286e-06
-4.83939e-06
-4.86724e-06
-4.86133e-06
-4.82967e-06
-4.8065e-06
-4.83251e-06
-4.85978e-06
-4.85877e-06
-4.82779e-06
-4.80509e-06
-4.83058e-06
-4.85725e-06
-4.85543e-06
-4.82513e-06
-4.80288e-06
-4.82786e-06
-4.85395e-06
-4.85122e-06
-4.8216e-06
-4.7998e-06
-4.82426e-06
-4.84977e-06
-4.84678e-06
-4.81782e-06
-4.79648e-06
-4.82043e-06
-4.84536e-06
-4.84232e-06
-4.81403e-06
-4.79313e-06
-4.81658e-06
-4.84094e-06
-4.83786e-06
-4.81022e-06
-4.78977e-06
-4.81271e-06
-4.83651e-06
-4.83337e-06
-4.80637e-06
-4.78637e-06
-4.80881e-06
-4.83205e-06
-4.82883e-06
-4.80248e-06
-4.78291e-06
-4.80485e-06
-4.82754e-06
-4.82425e-06
-4.79853e-06
-4.7794e-06
-4.80085e-06
-4.82299e-06
-4.81963e-06
-4.79454e-06
-4.77583e-06
-4.7968e-06
-4.8184e-06
-4.81497e-06
-4.79049e-06
-4.77222e-06
-4.7927e-06
-4.81377e-06
-4.81026e-06
-4.7864e-06
-4.76855e-06
-4.78855e-06
-4.80909e-06
-4.80551e-06
-4.78225e-06
-4.76483e-06
-4.78435e-06
-4.80437e-06
-4.80071e-06
-4.77806e-06
-4.76105e-06
-4.78011e-06
-4.7996e-06
-4.79587e-06
-4.77381e-06
-4.75722e-06
-4.77581e-06
-4.79479e-06
-4.79099e-06
-4.76951e-06
-4.75333e-06
-4.77145e-06
-4.78993e-06
-4.78605e-06
-4.76516e-06
-4.74938e-06
-4.76705e-06
-4.78503e-06
-4.78108e-06
-4.76075e-06
-4.74538e-06
-4.76259e-06
-4.78008e-06
-4.77605e-06
-4.75629e-06
-4.74133e-06
-4.75809e-06
-4.77508e-06
-4.77098e-06
-4.75178e-06
-4.73721e-06
-4.75352e-06
-4.77003e-06
-4.76586e-06
-4.74721e-06
-4.73304e-06
-4.74891e-06
-4.76494e-06
-4.76069e-06
-4.74259e-06
-4.72881e-06
-4.74424e-06
-4.7598e-06
-4.75547e-06
-4.73791e-06
-4.72451e-06
-4.73951e-06
-4.75461e-06
-4.75021e-06
-4.73317e-06
-4.72016e-06
-4.73473e-06
-4.74937e-06
-4.74489e-06
-4.72838e-06
-4.71575e-06
-4.72989e-06
-4.74407e-06
-4.73952e-06
-4.72353e-06
-4.71128e-06
-4.72499e-06
-4.73873e-06
-4.7341e-06
-4.71862e-06
-4.70674e-06
-4.72004e-06
-4.73333e-06
-4.72863e-06
-4.71366e-06
-4.70215e-06
-4.71503e-06
-4.72788e-06
-4.7231e-06
-4.70863e-06
-4.69749e-06
-4.70996e-06
-4.72238e-06
-4.71752e-06
-4.70355e-06
-4.69277e-06
-4.70483e-06
-4.71683e-06
-4.71189e-06
-4.6984e-06
-4.68798e-06
-4.69964e-06
-4.71122e-06
-4.7062e-06
-4.6932e-06
-4.68313e-06
-4.69439e-06
-4.70555e-06
-4.70045e-06
-4.68793e-06
-4.67822e-06
-4.68908e-06
-4.69983e-06
-4.69465e-06
-4.6826e-06
-4.67324e-06
-4.68371e-06
-4.69405e-06
-4.6888e-06
-4.67721e-06
-4.66819e-06
-4.67828e-06
-4.68822e-06
-4.68288e-06
-4.67175e-06
-4.66308e-06
-4.67278e-06
-4.68232e-06
-4.6769e-06
-4.66623e-06
-4.65791e-06
-4.66722e-06
-4.67637e-06
-4.67087e-06
-4.66065e-06
-4.65266e-06
-4.66159e-06
-4.67036e-06
-4.66478e-06
-4.655e-06
-4.64735e-06
-4.65591e-06
-4.66429e-06
-4.65862e-06
-4.64929e-06
-4.64197e-06
-4.65015e-06
-4.65815e-06
-4.6524e-06
-4.6435e-06
-4.63652e-06
-4.64433e-06
-4.65196e-06
-4.64612e-06
-4.63766e-06
-4.631e-06
-4.63845e-06
-4.6457e-06
-4.63978e-06
-4.63174e-06
-4.62541e-06
-4.63249e-06
-4.63938e-06
-4.63337e-06
-4.62576e-06
-4.61975e-06
-4.62647e-06
-4.63299e-06
-4.6269e-06
-4.61971e-06
-4.61402e-06
-4.62038e-06
-4.62654e-06
-4.62036e-06
-4.61358e-06
-4.60822e-06
-4.61422e-06
-4.62002e-06
-4.61375e-06
-4.60739e-06
-4.60235e-06
-4.60799e-06
-4.61343e-06
-4.60707e-06
-4.60113e-06
-4.5964e-06
-4.60169e-06
-4.60678e-06
-4.60033e-06
-4.5948e-06
-4.59038e-06
-4.59532e-06
-4.60005e-06
-4.59352e-06
-4.58839e-06
-4.58429e-06
-4.58888e-06
-4.59326e-06
-4.58663e-06
-4.58191e-06
-4.57813e-06
-4.58236e-06
-4.5864e-06
-4.57967e-06
-4.57536e-06
-4.57189e-06
-4.57577e-06
-4.57946e-06
-4.57264e-06
-4.56873e-06
-4.56558e-06
-4.56911e-06
-4.57245e-06
-4.56553e-06
-4.56203e-06
-4.55919e-06
-4.56237e-06
-4.56536e-06
-4.55835e-06
-4.55525e-06
-4.55272e-06
-4.55556e-06
-4.5582e-06
-4.5511e-06
-4.5484e-06
-4.54618e-06
-4.54867e-06
-4.55097e-06
-4.54376e-06
-4.54147e-06
-4.53956e-06
-4.5417e-06
-4.54366e-06
-4.53635e-06
-4.53446e-06
-4.53287e-06
-4.53466e-06
-4.53626e-06
-4.52883e-06
-4.52739e-06
-4.52614e-06
-4.52754e-06
-4.52876e-06
-4.52118e-06
-4.52025e-06
-4.51938e-06
-4.52036e-06
-4.52114e-06
-4.51355e-06
-4.51299e-06
-4.51242e-06
-4.51307e-06
-4.51353e-06
-4.50651e-06
-4.5054e-06
-4.50454e-06
-4.50549e-06
-4.50647e-06
)
;

boundaryField
{
    BotWall
    {
        type            fixedFluxPressure;
        gradient        uniform 0;
        value           nonuniform List<scalar> 5(0.780199 0.782951 0.783956 0.782771 0.78032);
    }
    FreeStream
    {
        type            totalPressure;
        rho             rho;
        psi             none;
        gamma           1;
        p0              uniform 0;
        value           nonuniform List<scalar> 5(-4.50344e-06 -4.5014e-06 -4.49999e-06 -4.50154e-06 -4.50337e-06);
    }
    FrontNBack
    {
        type            empty;
    }
    LeftSide
    {
        type            symmetryPlane;
    }
    RightSide
    {
        type            symmetryPlane;
    }
}


// ************************************************************************* //
