/*--------------------------------*- C++ -*----------------------------------*\
| =========                 |                                                 |
| \\      /  F ield         | OpenFOAM: The Open Source CFD Toolbox           |
|  \\    /   O peration     | Version:  2.4.0                                 |
|   \\  /    A nd           | Web:      www.OpenFOAM.org                      |
|    \\/     M anipulation  |                                                 |
\*---------------------------------------------------------------------------*/
FoamFile
{
    version     2.0;
    format      ascii;
    class       surfaceScalarField;
    location    "4.6";
    object      phi;
}
// * * * * * * * * * * * * * * * * * * * * * * * * * * * * * * * * * * * * * //

dimensions      [0 3 -1 0 0 0 0];

internalField   nonuniform List<scalar> 
895
(
2.52562e-17
-2.52559e-17
1.80482e-17
7.20878e-18
-1.958e-17
3.76293e-17
-2.3876e-17
4.29676e-18
-2.38753e-17
7.99373e-17
-1.05187e-16
5.62775e-17
3.08787e-17
-6.1107e-17
1.55028e-16
-7.54541e-17
1.86551e-17
-9.93212e-17
1.39088e-16
-2.44268e-16
9.71252e-17
7.28526e-17
-1.05481e-16
3.57649e-16
-1.31197e-16
4.43839e-17
-2.3051e-16
2.0268e-16
-4.4694e-16
1.40698e-16
1.34847e-16
-1.52794e-16
6.51159e-16
-1.91107e-16
8.27088e-17
-4.21608e-16
2.70974e-16
-7.17906e-16
1.87161e-16
2.18673e-16
-2.03221e-16
1.04156e-15
-2.55423e-16
1.34924e-16
-6.77022e-16
3.44218e-16
-1.06212e-15
2.3666e-16
3.26244e-16
-2.56922e-16
1.53516e-15
-3.24377e-16
2.02392e-16
-1.00139e-15
4.22709e-16
-1.48482e-15
2.89375e-16
4.59592e-16
-3.14087e-16
2.13864e-15
-3.98244e-16
2.86563e-16
-1.39962e-15
5.06718e-16
-1.99152e-15
3.45472e-16
6.20852e-16
-3.74897e-16
2.85902e-15
-4.77275e-16
3.88954e-16
-1.87689e-15
5.9658e-16
-2.5881e-15
4.0515e-16
8.12296e-16
-4.39567e-16
3.70376e-15
-5.61783e-16
5.11184e-16
-2.43867e-15
6.92596e-16
-3.28068e-15
4.68594e-16
1.03631e-15
-5.08296e-16
4.68067e-15
-6.52045e-16
6.54947e-16
-3.0907e-15
7.95143e-16
-4.07582e-15
5.36028e-16
1.29544e-15
-5.81325e-16
5.79804e-15
-7.48411e-16
8.22045e-16
-3.8391e-15
9.04555e-16
-4.98036e-15
6.07657e-16
1.59235e-15
-6.58877e-16
7.06459e-15
-8.51188e-16
1.01437e-15
-4.69028e-15
1.02126e-15
-6.00161e-15
6.83734e-16
1.92988e-15
-7.41222e-16
8.48956e-15
-9.60771e-16
1.23393e-15
-5.65105e-15
1.14562e-15
-7.14722e-15
7.64486e-16
2.31103e-15
-8.28607e-16
1.00827e-14
-1.0775e-15
1.48284e-15
-6.72854e-15
1.27812e-15
-8.42533e-15
8.50197e-16
2.73896e-15
-9.2134e-16
1.18542e-14
-1.20182e-15
1.76333e-15
-7.93036e-15
1.41918e-15
-9.8445e-15
9.41132e-16
3.21702e-15
-1.01971e-15
1.38151e-14
-1.33412e-15
2.07775e-15
-9.26447e-15
1.56935e-15
-1.14138e-14
1.03761e-15
3.74877e-15
-1.12405e-15
1.59767e-14
-1.4749e-15
2.42861e-15
-1.07394e-14
1.72906e-15
-1.31429e-14
1.14e-15
4.33784e-15
-1.23483e-15
1.83516e-14
-1.6245e-15
2.81829e-15
-1.23639e-14
1.89864e-15
-1.50415e-14
1.24857e-15
4.98792e-15
-1.35142e-15
2.09516e-14
-1.78336e-15
3.25023e-15
-1.41472e-14
2.07836e-15
-1.71199e-14
1.3616e-15
5.70468e-15
-1.47521e-15
2.37884e-14
-1.95173e-15
3.72676e-15
-1.60989e-14
2.26986e-15
-1.93897e-14
1.48476e-15
6.48978e-15
-1.60706e-15
2.68802e-14
-2.13113e-15
4.25084e-15
-1.82301e-14
2.47891e-15
-2.18686e-14
1.61547e-15
7.35323e-15
-1.74899e-15
3.02447e-14
-2.32725e-15
4.8291e-15
-2.05573e-14
2.71401e-15
-2.90631e-14
1.77272e-15
8.29451e-15
-1.92162e-15
3.3939e-14
-2.54474e-15
5.45221e-15
-2.73072e-14
2.99402e-15
-1.98707e-10
1.99055e-15
-1.98727e-10
-2.16209e-15
-1.98748e-10
-2.79587e-15
-1.98725e-10
-1.98708e-10
3.019e-15
-1.9871e-10
1.95457e-15
-1.98726e-10
-2.11961e-15
-1.98744e-10
-2.83312e-15
-1.98724e-10
-1.98711e-10
2.99769e-15
-1.98713e-10
1.95173e-15
-1.98725e-10
-2.11785e-15
-1.9874e-10
-2.8113e-15
-1.98723e-10
-1.98713e-10
2.88038e-15
-1.98716e-10
1.86799e-15
-1.98724e-10
-2.02605e-15
-1.98736e-10
-2.70604e-15
-1.98723e-10
-1.98716e-10
2.7751e-15
-1.98719e-10
1.79774e-15
-1.98723e-10
-1.9496e-15
-1.98733e-10
-2.60975e-15
-1.98722e-10
-1.98719e-10
2.67841e-15
-1.98721e-10
1.73584e-15
-1.98722e-10
-1.8825e-15
-1.98729e-10
-2.5205e-15
-1.98721e-10
-1.98721e-10
2.58399e-15
-1.98724e-10
1.67591e-15
-1.98721e-10
-1.81757e-15
-1.98725e-10
-2.43324e-15
-1.98721e-10
-1.98724e-10
2.48992e-15
-1.98726e-10
1.61606e-15
-1.9872e-10
-1.75271e-15
-1.98722e-10
-2.34629e-15
-1.9872e-10
-1.98726e-10
2.39651e-15
-1.98729e-10
1.55648e-15
-1.98719e-10
-1.68814e-15
-1.98719e-10
-2.2599e-15
-1.98719e-10
-1.98728e-10
2.30411e-15
-1.98731e-10
1.49748e-15
-1.98719e-10
-1.62423e-15
-1.98716e-10
-2.17438e-15
-1.98719e-10
-1.98731e-10
2.21284e-15
-1.98733e-10
1.43918e-15
-1.98718e-10
-1.5611e-15
-1.98713e-10
-2.08983e-15
-1.98718e-10
-1.98733e-10
2.12271e-15
-1.98735e-10
1.38161e-15
-1.98717e-10
-1.49877e-15
-1.9871e-10
-2.00625e-15
-1.98718e-10
-1.98735e-10
2.03375e-15
-1.98737e-10
1.32478e-15
-1.98716e-10
-1.43726e-15
-1.98707e-10
-1.92369e-15
-1.98717e-10
-1.98737e-10
1.946e-15
-1.98739e-10
1.26872e-15
-1.98716e-10
-1.37659e-15
-1.98704e-10
-1.84219e-15
-1.98717e-10
-1.98738e-10
1.85952e-15
-1.98741e-10
1.21345e-15
-1.98715e-10
-1.3168e-15
-1.98702e-10
-1.76178e-15
-1.98716e-10
-1.9874e-10
1.77434e-15
-1.98743e-10
1.159e-15
-1.98714e-10
-1.2579e-15
-1.98699e-10
-1.68252e-15
-1.98716e-10
-1.98742e-10
1.6905e-15
-1.98745e-10
1.10539e-15
-1.98714e-10
-1.19993e-15
-1.98697e-10
-1.60443e-15
-1.98716e-10
-1.98743e-10
1.60805e-15
-1.98746e-10
1.05266e-15
-1.98713e-10
-1.14292e-15
-1.98695e-10
-1.52757e-15
-1.98715e-10
-1.98745e-10
1.52702e-15
-1.98748e-10
1.00082e-15
-1.98713e-10
-1.08689e-15
-1.98693e-10
-1.45196e-15
-1.98715e-10
-1.98746e-10
1.44744e-15
-1.98749e-10
9.49901e-16
-1.98712e-10
-1.03186e-15
-1.98691e-10
-1.37765e-15
-1.98715e-10
-1.98748e-10
1.36936e-15
-1.98751e-10
8.99927e-16
-1.98712e-10
-9.77869e-16
-1.98689e-10
-1.30466e-15
-1.98714e-10
-1.98749e-10
1.29282e-15
-1.98752e-10
8.50919e-16
-1.98711e-10
-9.24928e-16
-1.98687e-10
-1.23305e-15
-1.98714e-10
-1.9875e-10
1.21783e-15
-1.98753e-10
8.02898e-16
-1.98711e-10
-8.73063e-16
-1.98686e-10
-1.16283e-15
-1.98714e-10
-1.98752e-10
1.14444e-15
-1.98754e-10
7.55885e-16
-1.98711e-10
-8.22296e-16
-1.98684e-10
-1.09405e-15
-1.98713e-10
-1.98753e-10
1.07268e-15
-1.98755e-10
7.099e-16
-1.9871e-10
-7.72648e-16
-1.98682e-10
-1.02673e-15
-1.98713e-10
-1.98754e-10
1.00258e-15
-1.98756e-10
6.64962e-16
-1.9871e-10
-7.24137e-16
-1.98681e-10
-9.60909e-16
-1.98713e-10
-1.98755e-10
9.34161e-16
-1.98757e-10
6.21088e-16
-1.9871e-10
-6.76783e-16
-1.9868e-10
-8.96607e-16
-1.98713e-10
-1.98755e-10
8.67452e-16
-1.98758e-10
5.78295e-16
-1.98709e-10
-6.30604e-16
-1.98679e-10
-8.33856e-16
-1.98712e-10
-1.98756e-10
8.02478e-16
-1.98759e-10
5.36599e-16
-1.98709e-10
-5.85614e-16
-1.98677e-10
-7.72679e-16
-1.98712e-10
-1.98757e-10
7.39262e-16
-1.9876e-10
4.96015e-16
-1.98709e-10
-5.4183e-16
-1.98676e-10
-7.13102e-16
-1.98712e-10
-1.98758e-10
6.77826e-16
-1.9876e-10
4.56556e-16
-1.98708e-10
-4.99265e-16
-1.98675e-10
-6.55147e-16
-1.98712e-10
-1.98758e-10
6.18187e-16
-1.98761e-10
4.18235e-16
-1.98708e-10
-4.57932e-16
-1.98675e-10
-5.98835e-16
-1.98712e-10
-1.98759e-10
5.60364e-16
-1.98762e-10
3.81063e-16
-1.98708e-10
-4.17843e-16
-1.98674e-10
-5.44185e-16
-1.98712e-10
-1.9876e-10
5.04372e-16
-1.98762e-10
3.45049e-16
-1.98708e-10
-3.79008e-16
-1.98673e-10
-4.91214e-16
-1.98712e-10
-1.9876e-10
4.50225e-16
-1.98763e-10
3.10204e-16
-1.98708e-10
-3.41435e-16
-1.98672e-10
-4.39937e-16
-1.98711e-10
-1.98761e-10
3.97934e-16
-1.98763e-10
2.76534e-16
-1.98708e-10
-3.05133e-16
-1.98672e-10
-3.9037e-16
-1.98711e-10
-1.98761e-10
3.4751e-16
-1.98763e-10
2.44046e-16
-1.98708e-10
-2.70108e-16
-1.98671e-10
-3.42522e-16
-1.98711e-10
-1.98761e-10
2.98958e-16
-1.98764e-10
2.12745e-16
-1.98707e-10
-2.36364e-16
-1.98671e-10
-2.96404e-16
-1.98711e-10
-1.98762e-10
2.52285e-16
-1.98764e-10
1.82633e-16
-1.98707e-10
-2.03905e-16
-1.9867e-10
-2.52024e-16
-1.98711e-10
-1.98762e-10
2.07493e-16
-1.98764e-10
1.53715e-16
-1.98707e-10
-1.72733e-16
-1.9867e-10
-2.09387e-16
-1.98711e-10
-1.98762e-10
1.64583e-16
-1.98764e-10
1.25989e-16
-1.98707e-10
-1.42848e-16
-1.9867e-10
-1.68497e-16
-1.98711e-10
-1.98762e-10
1.23555e-16
-1.98764e-10
9.94556e-17
-1.98707e-10
-1.14249e-16
-1.9867e-10
-1.29354e-16
-1.98711e-10
-1.98762e-10
8.44027e-17
-1.98764e-10
7.41125e-17
-1.98707e-10
-8.69327e-17
-1.9867e-10
-9.19586e-17
-1.98711e-10
-1.98762e-10
4.71212e-17
-1.98764e-10
4.99559e-17
-1.98707e-10
-6.08954e-17
-1.98669e-10
-5.63063e-17
-1.98711e-10
-1.98762e-10
1.17011e-17
-1.98765e-10
2.69803e-17
-1.98707e-10
-3.61309e-17
-1.98669e-10
-2.23916e-17
-1.98711e-10
-1.98763e-10
-2.18691e-17
-1.98764e-10
5.17876e-18
-1.98707e-10
-1.26313e-17
-1.98669e-10
9.79373e-18
-1.98711e-10
-1.98762e-10
-5.36034e-17
-1.98764e-10
-1.54574e-17
-1.98707e-10
9.61284e-18
-1.98669e-10
4.02606e-17
-1.98711e-10
-1.98762e-10
-8.35187e-17
-1.98764e-10
-3.49385e-17
-1.98707e-10
3.0613e-17
-1.98669e-10
6.90226e-17
-1.98711e-10
-1.98762e-10
-1.11635e-16
-1.98764e-10
-5.32766e-17
-1.98707e-10
5.03822e-17
-1.9867e-10
9.60957e-17
-1.98711e-10
-1.98762e-10
-1.37974e-16
-1.98764e-10
-7.04858e-17
-1.98708e-10
6.89356e-17
-1.9867e-10
1.21499e-16
-1.98711e-10
-1.98762e-10
-1.62562e-16
-1.98764e-10
-8.65818e-17
-1.98708e-10
8.62905e-17
-1.9867e-10
1.45255e-16
-1.98711e-10
-1.98762e-10
-1.85429e-16
-1.98764e-10
-1.01583e-16
-1.98708e-10
1.02466e-16
-1.9867e-10
1.67388e-16
-1.98711e-10
-1.98762e-10
-2.06604e-16
-1.98764e-10
-1.15508e-16
-1.98708e-10
1.17483e-16
-1.9867e-10
1.87926e-16
-1.98712e-10
-1.98762e-10
-2.26126e-16
-1.98763e-10
-1.2838e-16
-1.98708e-10
1.31366e-16
-1.98671e-10
2.06902e-16
-1.98712e-10
-1.98761e-10
-2.44031e-16
-1.98763e-10
-1.40222e-16
-1.98708e-10
1.4414e-16
-1.98671e-10
2.24349e-16
-1.98712e-10
-1.98761e-10
-2.60363e-16
-1.98763e-10
-1.51062e-16
-1.98708e-10
1.55834e-16
-1.98671e-10
2.40306e-16
-1.98712e-10
-1.98761e-10
-2.75169e-16
-1.98763e-10
-1.60928e-16
-1.98708e-10
1.66479e-16
-1.98671e-10
2.54816e-16
-1.98712e-10
-1.98761e-10
-2.885e-16
-1.98762e-10
-1.69851e-16
-1.98708e-10
1.76108e-16
-1.98672e-10
2.67925e-16
-1.98712e-10
-1.9876e-10
-3.00409e-16
-1.98762e-10
-1.77866e-16
-1.98708e-10
1.84758e-16
-1.98672e-10
2.79682e-16
-1.98712e-10
-1.9876e-10
-3.10958e-16
-1.98762e-10
-1.85009e-16
-1.98709e-10
1.92468e-16
-1.98673e-10
2.90144e-16
-1.98712e-10
-1.9876e-10
-3.2021e-16
-1.98761e-10
-1.9132e-16
-1.98709e-10
1.9928e-16
-1.98673e-10
2.99369e-16
-1.98712e-10
-1.9876e-10
-3.28236e-16
-1.98761e-10
-1.96843e-16
-1.98709e-10
2.05242e-16
-1.98673e-10
3.07422e-16
-1.98712e-10
-1.98759e-10
-3.35109e-16
-1.98761e-10
-2.01623e-16
-1.98709e-10
2.10401e-16
-1.98674e-10
3.14372e-16
-1.98712e-10
-1.98759e-10
-3.40913e-16
-1.9876e-10
-2.05712e-16
-1.98709e-10
2.14813e-16
-1.98674e-10
3.20295e-16
-1.98713e-10
-1.98759e-10
-3.45734e-16
-1.9876e-10
-2.09162e-16
-1.98709e-10
2.18533e-16
-1.98675e-10
3.25272e-16
-1.98713e-10
-1.98758e-10
-3.49668e-16
-1.9876e-10
-2.12032e-16
-1.98709e-10
2.21626e-16
-1.98675e-10
3.29393e-16
-1.98713e-10
-1.98758e-10
-3.52815e-16
-1.98759e-10
-2.14384e-16
-1.9871e-10
2.24156e-16
-1.98675e-10
3.3275e-16
-1.98713e-10
-1.98758e-10
-3.55287e-16
-1.98759e-10
-2.16286e-16
-1.9871e-10
2.26197e-16
-1.98676e-10
3.35448e-16
-1.98713e-10
-1.98757e-10
-3.57202e-16
-1.98759e-10
-2.17811e-16
-1.9871e-10
2.27826e-16
-1.98676e-10
3.37597e-16
-1.98713e-10
-1.98757e-10
-3.58688e-16
-1.98758e-10
-2.19037e-16
-1.9871e-10
2.29127e-16
-1.98677e-10
3.39317e-16
-1.98713e-10
-1.98757e-10
-3.59886e-16
-1.98758e-10
-2.20049e-16
-1.9871e-10
2.30191e-16
-1.98677e-10
3.40737e-16
-1.98713e-10
-1.98756e-10
-3.60946e-16
-1.98757e-10
-2.20938e-16
-1.9871e-10
2.31115e-16
-1.98678e-10
3.42e-16
-1.98713e-10
-1.98756e-10
-3.62029e-16
-1.98757e-10
-2.21803e-16
-1.9871e-10
2.32006e-16
-1.98678e-10
3.43253e-16
-1.98714e-10
-1.98756e-10
-3.63308e-16
-1.98757e-10
-2.22748e-16
-1.98711e-10
2.32974e-16
-1.98679e-10
3.4466e-16
-1.98714e-10
-1.98755e-10
-3.64981e-16
-1.98756e-10
-2.23891e-16
-1.98711e-10
2.34147e-16
-1.98679e-10
3.46405e-16
-1.98714e-10
-1.98755e-10
-3.67312e-16
-1.98756e-10
-2.25394e-16
-1.98711e-10
2.35698e-16
-1.9868e-10
3.4873e-16
-1.98714e-10
-1.98755e-10
-3.70754e-16
-2.27598e-16
2.38008e-16
3.52025e-16
)
;

boundaryField
{
    BotWall
    {
        type            calculated;
        value           nonuniform List<scalar> 5(-3.29133e-22 -6.15055e-22 -9.39676e-22 -7.60278e-22 -5.79087e-22);
    }
    FreeStream
    {
        type            calculated;
        value           nonuniform List<scalar> 5(-1.98756e-10 -1.98711e-10 -1.9868e-10 -1.98714e-10 -1.98754e-10);
    }
    FrontNBack
    {
        type            empty;
        value           nonuniform 0();
    }
    LeftSide
    {
        type            symmetryPlane;
        value           uniform 0;
    }
    RightSide
    {
        type            symmetryPlane;
        value           uniform 0;
    }
}


// ************************************************************************* //
