/*--------------------------------*- C++ -*----------------------------------*\
| =========                 |                                                 |
| \\      /  F ield         | OpenFOAM: The Open Source CFD Toolbox           |
|  \\    /   O peration     | Version:  2.4.0                                 |
|   \\  /    A nd           | Web:      www.OpenFOAM.org                      |
|    \\/     M anipulation  |                                                 |
\*---------------------------------------------------------------------------*/
FoamFile
{
    version     2.0;
    format      ascii;
    class       volVectorField;
    location    "4.6";
    object      U;
}
// * * * * * * * * * * * * * * * * * * * * * * * * * * * * * * * * * * * * * //

dimensions      [0 1 -1 0 0 0 0];

internalField   nonuniform List<vector> 
500
(
(4.90258e-09 -1.32206e-10 0)
(1.38818e-08 -1.08702e-10 0)
(-6.89007e-10 -8.06507e-11 0)
(-1.36603e-08 -1.11061e-10 0)
(-4.05289e-09 -1.31167e-10 0)
(1.54526e-08 2.08914e-11 0)
(4.2747e-08 3.70692e-10 0)
(-2.12017e-09 6.87421e-10 0)
(-4.20498e-08 3.40034e-10 0)
(-1.2818e-08 3.55383e-11 0)
(2.68306e-08 -1.29078e-09 0)
(7.29174e-08 -2.703e-10 0)
(-3.61495e-09 6.68679e-10 0)
(-7.17078e-08 -3.6335e-10 0)
(-2.23121e-08 -1.24609e-09 0)
(3.90629e-08 -9.6849e-10 0)
(1.04441e-07 1.19349e-09 0)
(-5.17653e-09 3.10723e-09 0)
(-1.02681e-07 1.00132e-09 0)
(-3.25568e-08 -8.75321e-10 0)
(5.21841e-08 -3.71379e-09 0)
(1.37378e-07 -5.72103e-11 0)
(-6.80745e-09 3.19801e-09 0)
(-1.35028e-07 -3.87013e-10 0)
(-4.35816e-08 -3.55338e-09 0)
(6.62211e-08 -3.25806e-09 0)
(1.71779e-07 2.46783e-09 0)
(-8.51087e-09 7.45052e-09 0)
(-1.68797e-07 1.95919e-09 0)
(-5.54083e-08 -3.00915e-09 0)
(8.12136e-08 -7.60325e-09 0)
(2.07711e-07 5.61981e-10 0)
(-1.029e-08 7.68019e-09 0)
(-2.04054e-07 -1.69118e-10 0)
(-6.8071e-08 -7.24434e-09 0)
(9.71896e-08 -7.01396e-09 0)
(2.45229e-07 4.28815e-09 0)
(-1.21481e-08 1.39747e-08 0)
(-2.40852e-07 3.28745e-09 0)
(-8.1592e-08 -6.52018e-09 0)
(1.14194e-07 -1.31519e-08 0)
(2.84409e-07 1.68324e-09 0)
(-1.40888e-08 1.43953e-08 0)
(-2.79262e-07 3.63192e-10 0)
(-9.601e-08 -1.24985e-08 0)
(1.32257e-07 -1.24171e-08 0)
(3.25308e-07 6.78209e-09 0)
(-1.61159e-08 2.30045e-08 0)
(-3.19342e-07 5.08893e-09 0)
(-1.11349e-07 -1.15751e-08 0)
(1.51428e-07 -2.07557e-08 0)
(3.68011e-07 3.23569e-09 0)
(-1.82333e-08 2.34786e-08 0)
(-3.61173e-07 1.11301e-09 0)
(-1.27651e-07 -1.96967e-08 0)
(1.7174e-07 -2.02987e-08 0)
(4.12581e-07 9.45846e-09 0)
(-2.04452e-08 3.42618e-08 0)
(-4.04817e-07 6.84519e-09 0)
(-1.44942e-07 -1.89892e-08 0)
(1.93249e-07 -3.12441e-08 0)
(4.59112e-07 4.74506e-09 0)
(-2.2756e-08 3.4681e-08 0)
(-4.50363e-07 1.5761e-09 0)
(-1.6327e-07 -2.96517e-08 0)
(2.15991e-07 -2.71943e-08 0)
(5.07673e-07 1.61682e-08 0)
(-2.51705e-08 5.18705e-08 0)
(-4.97879e-07 1.23697e-08 0)
(-1.82663e-07 -2.52799e-08 0)
(2.40026e-07 -2.91648e-08 0)
(5.58366e-07 2.21424e-08 0)
(-2.76936e-08 6.4319e-08 0)
(-5.47464e-07 1.76386e-08 0)
(-2.03172e-07 -2.6889e-08 0)
(2.65396e-07 -1.93352e-08 0)
(6.11272e-07 4.129e-08 0)
(-3.03305e-08 9.06056e-08 0)
(-5.99194e-07 3.60096e-08 0)
(-2.24831e-07 -1.66496e-08 0)
(2.9217e-07 -1.12017e-07 0)
(6.66502e-07 -4.1964e-08 0)
(-3.30869e-08 1.48112e-08 0)
(-6.53178e-07 -4.80701e-08 0)
(-2.47696e-07 -1.08895e-07 0)
(3.20383e-07 -4.08562e-07 0)
(7.24129e-07 -3.29261e-07 0)
(-3.59677e-08 -2.65708e-07 0)
(-7.09486e-07 -3.36127e-07 0)
(-2.71796e-07 -4.05019e-07 0)
(3.50089e-07 -6.39816e-07 0)
(7.84236e-07 -5.51389e-07 0)
(-3.88834e-08 -4.81316e-07 0)
(-7.68089e-07 -5.58984e-07 0)
(-2.97159e-07 -6.35852e-07 0)
(3.81311e-07 1.35778e-06 0)
(8.46715e-07 1.46909e-06 0)
(-4.22268e-08 1.55692e-06 0)
(-8.29321e-07 1.45949e-06 0)
(-3.23858e-07 1.36266e-06 0)
(4.14454e-07 9.20957e-06 0)
(9.1266e-07 9.38504e-06 0)
(-4.53958e-08 9.52914e-06 0)
(-8.9356e-07 9.36911e-06 0)
(-3.52181e-07 9.21708e-06 0)
(4.50091e-07 1.40283e-05 0)
(9.82348e-07 1.43044e-05 0)
(-4.89908e-08 1.4542e-05 0)
(-9.61734e-07 1.42779e-05 0)
(-3.82752e-07 1.40401e-05 0)
(4.88453e-07 -3.49329e-05 0)
(1.05682e-06 -3.49321e-05 0)
(-5.30325e-08 -3.49462e-05 0)
(-1.03471e-06 -3.49302e-05 0)
(-4.15599e-07 -3.49314e-05 0)
(5.29556e-07 -0.000267987 0)
(1.13639e-06 -0.000268755 0)
(-5.73499e-08 -0.000269483 0)
(-1.11266e-06 -0.000268673 0)
(-4.50729e-07 -0.000268016 0)
(5.36384e-07 -0.000734186 0)
(1.14969e-06 -0.000733867 0)
(-5.80826e-08 -0.000733611 0)
(-1.1257e-06 -0.000733896 0)
(-4.56561e-07 -0.000734174 0)
(5.24713e-07 -0.00169675 0)
(1.12274e-06 -0.00169621 0)
(-5.66092e-08 -0.00169574 0)
(-1.09966e-06 -0.00169627 0)
(-4.47422e-07 -0.00169673 0)
(5.00334e-07 -0.00102932 0)
(1.07235e-06 -0.00102949 0)
(-5.39254e-08 -0.00102965 0)
(-1.05062e-06 -0.00102947 0)
(-4.27191e-07 -0.00102932 0)
(4.7675e-07 -0.000956922 0)
(1.02332e-06 -0.00095702 0)
(-5.13078e-08 -0.000957135 0)
(-1.00289e-06 -0.000957008 0)
(-4.07632e-07 -0.000956926 0)
(4.54539e-07 -0.000972776 0)
(9.76877e-07 -0.000972796 0)
(-4.88302e-08 -0.000972851 0)
(-9.57672e-07 -0.00097279 0)
(-3.8922e-07 -0.000972777 0)
(4.33204e-07 -0.000991535 0)
(9.32225e-07 -0.000991523 0)
(-4.64594e-08 -0.000991547 0)
(-9.14197e-07 -0.00099152 0)
(-3.71506e-07 -0.000991534 0)
(4.12416e-07 -0.000995291 0)
(8.88768e-07 -0.000995265 0)
(-4.4164e-08 -0.000995278 0)
(-8.71874e-07 -0.000995264 0)
(-3.54206e-07 -0.00099529 0)
(3.92156e-07 -0.000994471 0)
(8.46437e-07 -0.000994431 0)
(-4.19382e-08 -0.000994434 0)
(-8.30636e-07 -0.000994431 0)
(-3.37308e-07 -0.000994469 0)
(3.72452e-07 -0.000993735 0)
(8.05271e-07 -0.000993681 0)
(-3.97827e-08 -0.000993672 0)
(-7.90522e-07 -0.000993682 0)
(-3.20841e-07 -0.000993733 0)
(3.53313e-07 -0.000993592 0)
(7.65284e-07 -0.000993521 0)
(-3.76978e-08 -0.000993501 0)
(-7.51547e-07 -0.000993524 0)
(-3.04816e-07 -0.000993589 0)
(3.34735e-07 -0.000993638 0)
(7.26468e-07 -0.000993553 0)
(-3.56826e-08 -0.000993522 0)
(-7.13703e-07 -0.000993557 0)
(-2.8923e-07 -0.000993634 0)
(3.16711e-07 -0.000993679 0)
(6.8881e-07 -0.00099358 0)
(-3.3736e-08 -0.000993538 0)
(-6.76977e-07 -0.000993585 0)
(-2.74078e-07 -0.000993675 0)
(2.99236e-07 -0.000993695 0)
(6.52298e-07 -0.000993583 0)
(-3.18569e-08 -0.000993531 0)
(-6.41359e-07 -0.000993589 0)
(-2.59359e-07 -0.00099369 0)
(2.82304e-07 -0.000993703 0)
(6.1692e-07 -0.000993578 0)
(-3.00441e-08 -0.000993517 0)
(-6.06837e-07 -0.000993585 0)
(-2.4507e-07 -0.000993698 0)
(2.65911e-07 -0.000993711 0)
(5.82664e-07 -0.000993574 0)
(-2.82965e-08 -0.000993503 0)
(-5.734e-07 -0.000993581 0)
(-2.31208e-07 -0.000993705 0)
(2.50051e-07 -0.000993719 0)
(5.49519e-07 -0.00099357 0)
(-2.66131e-08 -0.000993491 0)
(-5.41037e-07 -0.000993579 0)
(-2.17771e-07 -0.000993713 0)
(2.34719e-07 -0.000993728 0)
(5.17471e-07 -0.000993568 0)
(-2.49926e-08 -0.00099348 0)
(-5.09736e-07 -0.000993577 0)
(-2.04755e-07 -0.000993721 0)
(2.19909e-07 -0.000993736 0)
(4.86508e-07 -0.000993565 0)
(-2.3434e-08 -0.000993469 0)
(-4.79484e-07 -0.000993575 0)
(-1.92157e-07 -0.000993729 0)
(2.05614e-07 -0.000993743 0)
(4.56614e-07 -0.000993562 0)
(-2.1936e-08 -0.000993459 0)
(-4.50269e-07 -0.000993574 0)
(-1.79973e-07 -0.000993736 0)
(1.91828e-07 -0.00099375 0)
(4.27778e-07 -0.00099356 0)
(-2.04974e-08 -0.00099345 0)
(-4.22077e-07 -0.000993572 0)
(-1.68201e-07 -0.000993742 0)
(1.78545e-07 -0.000993757 0)
(3.99983e-07 -0.000993558 0)
(-1.91171e-08 -0.00099344 0)
(-3.94894e-07 -0.00099357 0)
(-1.56835e-07 -0.000993749 0)
(1.65758e-07 -0.000993763 0)
(3.73215e-07 -0.000993556 0)
(-1.77939e-08 -0.000993432 0)
(-3.68707e-07 -0.000993569 0)
(-1.45872e-07 -0.000993755 0)
(1.53459e-07 -0.000993769 0)
(3.4746e-07 -0.000993554 0)
(-1.65266e-08 -0.000993424 0)
(-3.43502e-07 -0.000993567 0)
(-1.35307e-07 -0.00099376 0)
(1.41643e-07 -0.000993774 0)
(3.22701e-07 -0.000993552 0)
(-1.53139e-08 -0.000993416 0)
(-3.19262e-07 -0.000993566 0)
(-1.25136e-07 -0.000993766 0)
(1.303e-07 -0.00099378 0)
(2.98923e-07 -0.00099355 0)
(-1.41546e-08 -0.000993409 0)
(-2.95974e-07 -0.000993565 0)
(-1.15354e-07 -0.000993771 0)
(1.19425e-07 -0.000993785 0)
(2.76109e-07 -0.000993548 0)
(-1.30475e-08 -0.000993402 0)
(-2.73622e-07 -0.000993564 0)
(-1.05957e-07 -0.000993775 0)
(1.09009e-07 -0.000993789 0)
(2.54243e-07 -0.000993547 0)
(-1.19914e-08 -0.000993396 0)
(-2.52191e-07 -0.000993563 0)
(-9.69378e-08 -0.00099378 0)
(9.90448e-08 -0.000993793 0)
(2.33307e-07 -0.000993545 0)
(-1.0985e-08 -0.00099339 0)
(-2.31663e-07 -0.000993562 0)
(-8.82926e-08 -0.000993784 0)
(8.95237e-08 -0.000993797 0)
(2.13286e-07 -0.000993544 0)
(-1.00271e-08 -0.000993385 0)
(-2.12024e-07 -0.000993561 0)
(-8.00154e-08 -0.000993787 0)
(8.04379e-08 -0.000993801 0)
(1.94161e-07 -0.000993543 0)
(-9.1164e-09 -0.00099338 0)
(-1.93256e-07 -0.00099356 0)
(-7.21006e-08 -0.000993791 0)
(7.1779e-08 -0.000993804 0)
(1.75915e-07 -0.000993542 0)
(-8.25175e-09 -0.000993375 0)
(-1.75342e-07 -0.000993559 0)
(-6.45424e-08 -0.000993794 0)
(6.35386e-08 -0.000993807 0)
(1.58529e-07 -0.000993541 0)
(-7.43189e-09 -0.000993371 0)
(-1.58266e-07 -0.000993559 0)
(-5.73346e-08 -0.000993797 0)
(5.5708e-08 -0.000993809 0)
(1.41986e-07 -0.00099354 0)
(-6.65558e-09 -0.000993367 0)
(-1.42009e-07 -0.000993558 0)
(-5.04712e-08 -0.000993799 0)
(4.82786e-08 -0.000993812 0)
(1.26267e-07 -0.000993539 0)
(-5.92158e-09 -0.000993364 0)
(-1.26555e-07 -0.000993558 0)
(-4.39456e-08 -0.000993802 0)
(4.12414e-08 -0.000993814 0)
(1.11353e-07 -0.000993539 0)
(-5.22868e-09 -0.000993361 0)
(-1.11886e-07 -0.000993557 0)
(-3.77514e-08 -0.000993804 0)
(3.45874e-08 -0.000993816 0)
(9.72262e-08 -0.000993538 0)
(-4.57564e-09 -0.000993358 0)
(-9.79828e-08 -0.000993557 0)
(-3.18818e-08 -0.000993806 0)
(2.83075e-08 -0.000993817 0)
(8.38665e-08 -0.000993538 0)
(-3.96126e-09 -0.000993355 0)
(-8.48279e-08 -0.000993556 0)
(-2.63301e-08 -0.000993807 0)
(2.23926e-08 -0.000993819 0)
(7.12551e-08 -0.000993537 0)
(-3.38431e-09 -0.000993353 0)
(-7.24028e-08 -0.000993556 0)
(-2.10893e-08 -0.000993809 0)
(1.68332e-08 -0.00099382 0)
(5.93725e-08 -0.000993537 0)
(-2.8436e-09 -0.000993352 0)
(-6.06888e-08 -0.000993556 0)
(-1.61522e-08 -0.00099381 0)
(1.162e-08 -0.000993821 0)
(4.81991e-08 -0.000993537 0)
(-2.33794e-09 -0.00099335 0)
(-4.96672e-08 -0.000993556 0)
(-1.15116e-08 -0.000993811 0)
(6.74336e-09 -0.000993822 0)
(3.77152e-08 -0.000993537 0)
(-1.86612e-09 -0.000993349 0)
(-3.9319e-08 -0.000993556 0)
(-7.1601e-09 -0.000993811 0)
(2.19372e-09 -0.000993822 0)
(2.7901e-08 -0.000993537 0)
(-1.42698e-09 -0.000993348 0)
(-2.96251e-08 -0.000993556 0)
(-3.09011e-09 -0.000993812 0)
(-2.03866e-09 -0.000993822 0)
(1.87364e-08 -0.000993537 0)
(-1.01933e-09 -0.000993347 0)
(-2.05662e-08 -0.000993556 0)
(7.05973e-10 -0.000993812 0)
(-5.96358e-09 -0.000993823 0)
(1.02014e-08 -0.000993537 0)
(-6.4202e-10 -0.000993347 0)
(-1.21231e-08 -0.000993556 0)
(4.23594e-09 -0.000993812 0)
(-9.5909e-09 -0.000993823 0)
(2.27569e-09 -0.000993537 0)
(-2.93893e-10 -0.000993347 0)
(-4.27625e-09 -0.000993556 0)
(7.50769e-09 -0.000993813 0)
(-1.29306e-08 -0.000993822 0)
(-5.06106e-09 -0.000993537 0)
(2.61944e-11 -0.000993347 0)
(2.99403e-09 -0.000993556 0)
(1.05292e-08 -0.000993812 0)
(-1.59927e-08 -0.000993822 0)
(-1.18293e-08 -0.000993537 0)
(3.19376e-10 -0.000993347 0)
(9.70741e-09 -0.000993556 0)
(1.33087e-08 -0.000993812 0)
(-1.87874e-08 -0.000993821 0)
(-1.80495e-08 -0.000993537 0)
(5.86775e-10 -0.000993347 0)
(1.58837e-08 -0.000993556 0)
(1.58543e-08 -0.000993812 0)
(-2.13247e-08 -0.000993821 0)
(-2.37423e-08 -0.000993538 0)
(8.29508e-10 -0.000993348 0)
(2.15429e-08 -0.000993556 0)
(1.81744e-08 -0.000993811 0)
(-2.3615e-08 -0.00099382 0)
(-2.89284e-08 -0.000993538 0)
(1.04868e-09 -0.000993349 0)
(2.6705e-08 -0.000993557 0)
(2.02776e-08 -0.00099381 0)
(-2.56687e-08 -0.000993819 0)
(-3.36287e-08 -0.000993538 0)
(1.24538e-09 -0.00099335 0)
(3.13902e-08 -0.000993557 0)
(2.21722e-08 -0.00099381 0)
(-2.7496e-08 -0.000993818 0)
(-3.7864e-08 -0.000993539 0)
(1.4207e-09 -0.000993351 0)
(3.56186e-08 -0.000993557 0)
(2.38672e-08 -0.000993809 0)
(-2.91075e-08 -0.000993817 0)
(-4.16553e-08 -0.000993539 0)
(1.57573e-09 -0.000993352 0)
(3.94107e-08 -0.000993558 0)
(2.53711e-08 -0.000993808 0)
(-3.05139e-08 -0.000993816 0)
(-4.50237e-08 -0.00099354 0)
(1.71152e-09 -0.000993353 0)
(4.27868e-08 -0.000993558 0)
(2.6693e-08 -0.000993807 0)
(-3.17257e-08 -0.000993815 0)
(-4.79904e-08 -0.00099354 0)
(1.82915e-09 -0.000993355 0)
(4.57676e-08 -0.000993559 0)
(2.78419e-08 -0.000993806 0)
(-3.27536e-08 -0.000993813 0)
(-5.05766e-08 -0.000993541 0)
(1.92967e-09 -0.000993356 0)
(4.83737e-08 -0.000993559 0)
(2.88269e-08 -0.000993804 0)
(-3.36087e-08 -0.000993812 0)
(-5.28039e-08 -0.000993541 0)
(2.01414e-09 -0.000993358 0)
(5.06259e-08 -0.000993559 0)
(2.96573e-08 -0.000993803 0)
(-3.43017e-08 -0.000993811 0)
(-5.46937e-08 -0.000993542 0)
(2.08361e-09 -0.00099336 0)
(5.25453e-08 -0.00099356 0)
(3.03425e-08 -0.000993802 0)
(-3.48439e-08 -0.000993809 0)
(-5.62678e-08 -0.000993543 0)
(2.13913e-09 -0.000993362 0)
(5.4153e-08 -0.00099356 0)
(3.08921e-08 -0.0009938 0)
(-3.52464e-08 -0.000993807 0)
(-5.75481e-08 -0.000993543 0)
(2.18175e-09 -0.000993364 0)
(5.54702e-08 -0.000993561 0)
(3.13157e-08 -0.000993799 0)
(-3.55207e-08 -0.000993806 0)
(-5.85567e-08 -0.000993544 0)
(2.21252e-09 -0.000993366 0)
(5.65186e-08 -0.000993561 0)
(3.16233e-08 -0.000993797 0)
(-3.56782e-08 -0.000993804 0)
(-5.93159e-08 -0.000993545 0)
(2.2325e-09 -0.000993368 0)
(5.73198e-08 -0.000993562 0)
(3.18247e-08 -0.000993796 0)
(-3.57308e-08 -0.000993802 0)
(-5.98484e-08 -0.000993545 0)
(2.24275e-09 -0.00099337 0)
(5.7896e-08 -0.000993562 0)
(3.19304e-08 -0.000993794 0)
(-3.56904e-08 -0.000993801 0)
(-6.0177e-08 -0.000993546 0)
(2.24436e-09 -0.000993372 0)
(5.82694e-08 -0.000993563 0)
(3.19507e-08 -0.000993792 0)
(-3.55692e-08 -0.000993799 0)
(-6.0325e-08 -0.000993547 0)
(2.2384e-09 -0.000993374 0)
(5.84628e-08 -0.000993564 0)
(3.18963e-08 -0.000993791 0)
(-3.53798e-08 -0.000993797 0)
(-6.03161e-08 -0.000993547 0)
(2.226e-09 -0.000993376 0)
(5.84992e-08 -0.000993564 0)
(3.17781e-08 -0.000993789 0)
(-3.51348e-08 -0.000993795 0)
(-6.01744e-08 -0.000993548 0)
(2.20827e-09 -0.000993378 0)
(5.84021e-08 -0.000993565 0)
(3.16073e-08 -0.000993788 0)
(-3.48475e-08 -0.000993794 0)
(-5.99245e-08 -0.000993549 0)
(2.18638e-09 -0.000993381 0)
(5.81956e-08 -0.000993565 0)
(3.13954e-08 -0.000993786 0)
(-3.45314e-08 -0.000993792 0)
(-5.95917e-08 -0.000993549 0)
(2.16152e-09 -0.000993383 0)
(5.79043e-08 -0.000993566 0)
(3.11543e-08 -0.000993784 0)
(-3.42006e-08 -0.00099379 0)
(-5.9202e-08 -0.00099355 0)
(2.13491e-09 -0.000993385 0)
(5.75535e-08 -0.000993566 0)
(3.08963e-08 -0.000993782 0)
(-3.38696e-08 -0.000993788 0)
(-5.87819e-08 -0.000993551 0)
(2.10784e-09 -0.000993387 0)
(5.71691e-08 -0.000993567 0)
(3.06339e-08 -0.000993781 0)
(-3.35533e-08 -0.000993786 0)
(-5.8359e-08 -0.000993552 0)
(2.08162e-09 -0.00099339 0)
(5.67779e-08 -0.000993567 0)
(3.03803e-08 -0.000993779 0)
(-3.32674e-08 -0.000993785 0)
(-5.79616e-08 -0.000993552 0)
(2.05765e-09 -0.000993392 0)
(5.64075e-08 -0.000993568 0)
(3.01492e-08 -0.000993777 0)
(-3.30292e-08 -0.000993783 0)
(-5.76208e-08 -0.000993553 0)
(2.03743e-09 -0.000993394 0)
(5.60883e-08 -0.000993568 0)
(2.99554e-08 -0.000993776 0)
(-3.2859e-08 -0.000993781 0)
(-5.73723e-08 -0.000993554 0)
(2.02268e-09 -0.000993397 0)
(5.58547e-08 -0.000993569 0)
(2.98167e-08 -0.000993774 0)
(-3.27762e-08 -0.000993779 0)
(-5.72504e-08 -0.000993554 0)
(2.01511e-09 -0.000993399 0)
(5.57404e-08 -0.00099357 0)
(2.97499e-08 -0.000993772 0)
)
;

boundaryField
{
    BotWall
    {
        type            fixedValue;
        value           uniform (0 0 0);
    }
    FreeStream
    {
        type            zeroGradient;
    }
    FrontNBack
    {
        type            empty;
    }
    LeftSide
    {
        type            symmetryPlane;
    }
    RightSide
    {
        type            symmetryPlane;
    }
}


// ************************************************************************* //
