/*--------------------------------*- C++ -*----------------------------------*\
| =========                 |                                                 |
| \\      /  F ield         | OpenFOAM: The Open Source CFD Toolbox           |
|  \\    /   O peration     | Version:  2.4.0                                 |
|   \\  /    A nd           | Web:      www.OpenFOAM.org                      |
|    \\/     M anipulation  |                                                 |
\*---------------------------------------------------------------------------*/
FoamFile
{
    version     2.0;
    format      ascii;
    class       volScalarField;
    location    "1.7";
    object      H;
}
// * * * * * * * * * * * * * * * * * * * * * * * * * * * * * * * * * * * * * //

dimensions      [0 2 -2 0 0 0 0];

internalField   nonuniform List<scalar> 
125
(
-11841
-11841
-11841
-11841
-11841
-11058.6
-11058.5
-11058.5
-11058.5
-11058.6
-10267.3
-10267.3
-10267.3
-10267.3
-10267.3
-9467.11
-9467.1
-9467.1
-9467.1
-9467.11
-8657.76
-8657.76
-8657.75
-8657.75
-8657.76
-7839.12
-7839.11
-7839.1
-7839.11
-7839.12
-7011
-7010.99
-7010.98
-7010.98
-7011
-6173.22
-6173.21
-6173.2
-6173.21
-6173.23
-5325.62
-5325.6
-5325.59
-5325.6
-5325.62
-4467.99
-4467.97
-4467.96
-4467.97
-4467.99
-3600.15
-3600.13
-3600.12
-3600.12
-3600.15
-2721.9
-2721.88
-2721.86
-2721.87
-2721.9
-1833.03
-1833.01
-1832.99
-1833
-1833.04
-933.349
-933.324
-933.304
-933.315
-933.353
-15.5115
-15.5105
-15.5097
-15.5101
-15.5117
-11.5492
-11.5484
-11.5478
-11.5482
-11.5493
-11.59
-11.5893
-11.5887
-11.589
-11.5902
-11.6287
-11.6279
-11.6273
-11.6277
-11.6288
-11.665
-11.6643
-11.6637
-11.664
-11.6652
-11.699
-11.6983
-11.6977
-11.6981
-11.6991
-11.7305
-11.7298
-11.7293
-11.7296
-11.7306
-11.7595
-11.7588
-11.7582
-11.7585
-11.7596
-11.7857
-11.785
-11.7845
-11.7848
-11.7858
-11.8092
-11.8085
-11.808
-11.8083
-11.8093
-11.8297
-11.829
-11.8285
-11.8288
-11.8298
)
;

boundaryField
{
    BotWall
    {
        type            zeroGradient;
    }
    FreeStream
    {
        type            zeroGradient;
    }
    FrontNBack
    {
        type            empty;
    }
    LeftSide
    {
        type            symmetryPlane;
    }
    RightSide
    {
        type            symmetryPlane;
    }
    procBoundary0to1
    {
        type            processor;
        value           nonuniform List<scalar> 5(-11.8466 -11.846 -11.8455 -11.8458 -11.8467);
    }
}


// ************************************************************************* //
