/*--------------------------------*- C++ -*----------------------------------*\
| =========                 |                                                 |
| \\      /  F ield         | OpenFOAM: The Open Source CFD Toolbox           |
|  \\    /   O peration     | Version:  2.4.0                                 |
|   \\  /    A nd           | Web:      www.OpenFOAM.org                      |
|    \\/     M anipulation  |                                                 |
\*---------------------------------------------------------------------------*/
FoamFile
{
    version     2.0;
    format      ascii;
    class       volScalarField;
    location    "1.7";
    object      T;
}
// * * * * * * * * * * * * * * * * * * * * * * * * * * * * * * * * * * * * * //

dimensions      [0 0 0 1 0 0 0];

internalField   nonuniform List<scalar> 
125
(
293.159
293.159
293.159
293.159
293.159
293.479
293.479
293.479
293.479
293.479
293.802
293.802
293.802
293.802
293.802
294.13
294.13
294.13
294.13
294.13
294.46
294.46
294.46
294.46
294.46
294.795
294.795
294.795
294.795
294.795
295.134
295.134
295.134
295.134
295.134
295.476
295.476
295.476
295.476
295.476
295.823
295.823
295.823
295.823
295.823
296.173
296.173
296.173
296.173
296.173
296.528
296.528
296.528
296.528
296.528
296.887
296.887
296.887
296.887
296.887
297.251
297.251
297.251
297.251
297.251
297.618
297.618
297.618
297.618
297.618
297.994
297.994
297.994
297.994
297.994
297.994
297.994
297.994
297.994
297.994
297.994
297.994
297.994
297.994
297.994
297.994
297.994
297.994
297.994
297.994
297.994
297.994
297.994
297.994
297.994
297.994
297.994
297.994
297.994
297.994
297.994
297.994
297.994
297.994
297.994
297.994
297.994
297.994
297.994
297.994
297.994
297.994
297.994
297.994
297.994
297.994
297.994
297.994
297.994
297.994
297.993
297.993
297.993
297.993
297.993
)
;

boundaryField
{
    BotWall
    {
        type            fixedValue;
        value           uniform 293;
    }
    FreeStream
    {
        type            fixedValue;
        value           nonuniform 0();
    }
    FrontNBack
    {
        type            empty;
    }
    LeftSide
    {
        type            symmetryPlane;
    }
    RightSide
    {
        type            symmetryPlane;
    }
    procBoundary0to1
    {
        type            processor;
        value           nonuniform List<scalar> 5(297.993 297.993 297.993 297.993 297.993);
    }
}


// ************************************************************************* //
