/*--------------------------------*- C++ -*----------------------------------*\
| =========                 |                                                 |
| \\      /  F ield         | OpenFOAM: The Open Source CFD Toolbox           |
|  \\    /   O peration     | Version:  2.4.0                                 |
|   \\  /    A nd           | Web:      www.OpenFOAM.org                      |
|    \\/     M anipulation  |                                                 |
\*---------------------------------------------------------------------------*/
FoamFile
{
    version     2.0;
    format      ascii;
    class       volVectorField;
    location    "1.7";
    object      U;
}
// * * * * * * * * * * * * * * * * * * * * * * * * * * * * * * * * * * * * * //

dimensions      [0 1 -1 0 0 0 0];

internalField   nonuniform List<vector> 
125
(
(2.31476e-10 4.34543e-10 0)
(4.62724e-10 4.40992e-10 0)
(1.00142e-10 4.42062e-10 0)
(-4.96578e-10 4.41421e-10 0)
(-3.62692e-10 4.34344e-10 0)
(7.04533e-10 -1.15068e-09 0)
(1.39978e-09 -1.15355e-09 0)
(3.00787e-10 -1.14145e-09 0)
(-1.50325e-09 -1.14882e-09 0)
(-1.10044e-09 -1.15306e-09 0)
(1.18889e-09 5.49263e-10 0)
(2.35225e-09 6.06919e-10 0)
(5.0269e-10 6.41687e-10 0)
(-2.52776e-09 6.20754e-10 0)
(-1.85317e-09 5.42335e-10 0)
(1.68799e-09 -4.75134e-09 0)
(3.32363e-09 -4.71384e-09 0)
(7.05807e-10 -4.64294e-09 0)
(-3.57387e-09 -4.68587e-09 0)
(-2.6246e-09 -4.76543e-09 0)
(2.19835e-09 6.79612e-09 0)
(4.31054e-09 6.96578e-09 0)
(9.10073e-10 7.08468e-09 0)
(-4.63799e-09 7.01296e-09 0)
(-3.41099e-09 6.77234e-09 0)
(2.72556e-09 2.6841e-08 0)
(5.31931e-09 2.69927e-08 0)
(1.1162e-09 2.71753e-08 0)
(-5.72663e-09 2.70647e-08 0)
(-4.21894e-09 2.68045e-08 0)
(3.26456e-09 6.33152e-08 0)
(6.34529e-09 6.36315e-08 0)
(1.32449e-09 6.38905e-08 0)
(-6.83552e-09 6.3734e-08 0)
(-5.04405e-09 6.32632e-08 0)
(3.82164e-09 -1.05265e-07 0)
(7.39499e-09 -1.05147e-07 0)
(1.53507e-09 -1.048e-07 0)
(-7.97131e-09 -1.0501e-07 0)
(-5.89297e-09 -1.05334e-07 0)
(4.38935e-09 -8.05103e-07 0)
(8.46124e-09 -8.04975e-07 0)
(1.74809e-09 -8.04555e-07 0)
(-9.12694e-09 -8.0481e-07 0)
(-6.75858e-09 -8.05188e-07 0)
(4.97541e-09 -1.53312e-06 0)
(9.55167e-09 -1.53256e-06 0)
(1.96356e-09 -1.53207e-06 0)
(-1.031e-08 -1.53237e-06 0)
(-7.64863e-09 -1.53322e-06 0)
(5.58441e-09 2.6688e-06 0)
(1.0671e-08 2.67247e-06 0)
(2.18154e-09 2.6732e-06 0)
(-1.15256e-08 2.67276e-06 0)
(-8.56824e-09 2.66865e-06 0)
(6.24924e-09 2.12138e-05 0)
(1.18549e-08 2.12211e-05 0)
(2.4032e-09 2.12227e-05 0)
(-1.28103e-08 2.12218e-05 0)
(-9.55243e-09 2.12135e-05 0)
(6.95162e-09 3.99623e-05 0)
(1.30847e-08 3.99628e-05 0)
(2.62892e-09 3.99661e-05 0)
(-1.41473e-08 3.99642e-05 0)
(-1.05854e-08 3.99616e-05 0)
(7.54327e-09 -7.40501e-05 0)
(1.42438e-08 -7.40858e-05 0)
(2.87074e-09 -7.40866e-05 0)
(-1.5422e-08 -7.40861e-05 0)
(-1.15327e-08 -7.40499e-05 0)
(7.71046e-09 -0.00053597 0)
(1.49162e-08 -0.000536007 0)
(3.08646e-09 -0.000536015 0)
(-1.6198e-08 -0.00053601 0)
(-1.20182e-08 -0.000535968 0)
(8.00952e-09 -0.00123395 0)
(1.52797e-08 -0.00123392 0)
(3.11433e-09 -0.00123392 0)
(-1.65748e-08 -0.00123392 0)
(-1.23584e-08 -0.00123395 0)
(8.94924e-09 -0.00284553 0)
(1.60157e-08 -0.00284549 0)
(3.0158e-09 -0.00284548 0)
(-1.72793e-08 -0.00284548 0)
(-1.31567e-08 -0.00284553 0)
(8.03092e-09 -0.00177505 0)
(1.48031e-08 -0.0017751 0)
(2.87977e-09 -0.00177511 0)
(-1.60194e-08 -0.0017751 0)
(-1.20446e-08 -0.00177505 0)
(7.50704e-09 -0.00164954 0)
(1.39912e-08 -0.00164955 0)
(2.74734e-09 -0.00164955 0)
(-1.51614e-08 -0.00164955 0)
(-1.13325e-08 -0.00164954 0)
(7.23746e-09 -0.00167184 0)
(1.34449e-08 -0.00167184 0)
(2.62063e-09 -0.00167184 0)
(-1.45714e-08 -0.00167184 0)
(-1.08839e-08 -0.00167184 0)
(6.98235e-09 -0.001702 0)
(1.29218e-08 -0.001702 0)
(2.4985e-09 -0.001702 0)
(-1.40067e-08 -0.001702 0)
(-1.04571e-08 -0.001702 0)
(6.68326e-09 -0.00170839 0)
(1.23609e-08 -0.00170839 0)
(2.37993e-09 -0.00170839 0)
(-1.34058e-08 -0.00170839 0)
(-9.99236e-09 -0.00170839 0)
(6.37199e-09 -0.00170718 0)
(1.17939e-08 -0.00170718 0)
(2.26474e-09 -0.00170718 0)
(-1.28001e-08 -0.00170718 0)
(-9.52096e-09 -0.00170718 0)
(6.06979e-09 -0.00170598 0)
(1.12419e-08 -0.00170598 0)
(2.15293e-09 -0.00170598 0)
(-1.22116e-08 -0.00170598 0)
(-9.06475e-09 -0.00170598 0)
(5.77864e-09 -0.00170572 0)
(1.07072e-08 -0.00170572 0)
(2.04451e-09 -0.00170572 0)
(-1.16415e-08 -0.00170572 0)
(-8.6249e-09 -0.00170572 0)
)
;

boundaryField
{
    BotWall
    {
        type            fixedValue;
        value           uniform (0 0 0);
    }
    FreeStream
    {
        type            zeroGradient;
    }
    FrontNBack
    {
        type            empty;
    }
    LeftSide
    {
        type            symmetryPlane;
    }
    RightSide
    {
        type            symmetryPlane;
    }
    procBoundary0to1
    {
        type            processor;
        value           nonuniform List<vector> 5((5.49586e-09 -0.00170577 0) (1.0187e-08 -0.00170577 0) (1.93942e-09 -0.00170577 0) (-1.10879e-08 -0.00170577 0) (-8.19932e-09 -0.00170577 0));
    }
}


// ************************************************************************* //
