/*--------------------------------*- C++ -*----------------------------------*\
| =========                 |                                                 |
| \\      /  F ield         | OpenFOAM: The Open Source CFD Toolbox           |
|  \\    /   O peration     | Version:  2.4.0                                 |
|   \\  /    A nd           | Web:      www.OpenFOAM.org                      |
|    \\/     M anipulation  |                                                 |
\*---------------------------------------------------------------------------*/
FoamFile
{
    version     2.0;
    format      ascii;
    class       volScalarField;
    location    "0.4";
    object      p_rgh;
}
// * * * * * * * * * * * * * * * * * * * * * * * * * * * * * * * * * * * * * //

dimensions      [1 -1 -2 0 0 0 0];

internalField   nonuniform List<scalar> 
8000
(
53.6112
53.6072
53.6027
53.5984
53.5942
53.5899
53.5857
53.5814
53.5772
53.5729
53.5686
53.5643
53.5601
53.5558
53.5515
53.5472
53.5429
53.5386
53.5343
53.53
53.5257
53.5214
53.517
53.5127
53.5084
53.504
53.4997
53.4953
53.491
53.4866
53.4823
53.4779
53.4736
53.4692
53.4648
53.4604
53.4561
53.4521
53.448
53.4413
53.4276
53.4153
52.1419
36.3034
7.22317
0.555871
0.0442303
0.00289518
6.56896e-05
-0.000107926
54.9214
54.9172
54.9124
54.9078
54.9032
54.8987
54.8942
54.8896
54.885
54.8804
54.8758
54.8712
54.8666
54.862
54.8574
54.8527
54.8481
54.8434
54.8387
54.834
54.8293
54.8246
54.8199
54.8151
54.8104
54.8056
54.8009
54.7961
54.7913
54.7865
54.7817
54.7769
54.772
54.7672
54.7623
54.7574
54.7528
54.7482
54.7422
54.7315
54.7171
54.3241
45.0553
14.6764
1.31123
0.107372
0.00840022
0.000435966
-1.4099e-05
-0.000110661
56.2324
56.2279
56.2228
56.2179
56.213
56.2082
56.2034
56.1985
56.1936
56.1888
56.1839
56.179
56.174
56.1691
56.1642
56.1592
56.1543
56.1493
56.1443
56.1393
56.1343
56.1292
56.1242
56.1191
56.1141
56.109
56.1039
56.0988
56.0936
56.0885
56.0833
56.0781
56.0729
56.0677
56.0625
56.0574
56.0525
56.0469
56.0371
56.021
55.9249
51.0475
24.3012
2.8789
0.234175
0.0201788
0.00141541
8.63764e-05
-4.24268e-05
-0.000101205
57.546
57.5412
57.5358
57.5306
57.5255
57.5204
57.5152
57.5101
57.5049
57.4997
57.4945
57.4893
57.4841
57.4789
57.4737
57.4684
57.4632
57.4579
57.4526
57.4473
57.442
57.4367
57.4313
57.426
57.4206
57.4152
57.4099
57.4045
57.399
57.3936
57.3882
57.3827
57.3772
57.3717
57.3663
57.3613
57.356
57.3472
57.3295
57.3111
55.0125
34.4341
5.85199
0.477048
0.042968
0.0034921
0.000245262
3.66449e-05
-5.11012e-05
-8.37391e-05
58.8605
58.8555
58.8498
58.8443
58.8389
58.8335
58.8281
58.8226
58.8172
58.8118
58.8063
58.8008
58.7953
58.7898
58.7843
58.7787
58.7732
58.7676
58.762
58.7565
58.7508
58.7452
58.7396
58.7339
58.7283
58.7226
58.7169
58.7112
58.7055
58.6998
58.694
58.6882
58.6824
58.6767
58.6713
58.666
58.6582
58.6424
58.6242
57.6767
43.4899
10.9204
0.934541
0.0844275
0.0074692
0.000570074
0.000118543
8.22122e-06
-4.58895e-05
-6.2829e-05
60.1775
60.1722
60.1662
60.1604
60.1548
60.1491
60.1434
60.1377
60.132
60.1263
60.1205
60.1148
60.109
60.1032
60.0974
60.0916
60.0857
60.0799
60.074
60.0681
60.0622
60.0563
60.0504
60.0444
60.0384
60.0324
60.0264
60.0204
60.0143
60.0082
60.0021
59.996
59.9899
59.984
59.9782
59.9713
59.9587
59.9401
59.6153
50.6012
18.3423
1.79032
0.157335
0.0146596
0.00122224
0.000202971
7.53962e-05
1.31933e-06
-3.0206e-05
-3.86665e-05
61.4967
61.4912
61.485
61.4789
61.473
61.4671
61.4611
61.4552
61.4492
61.4432
61.4372
61.4312
61.4251
61.4191
61.413
61.4069
61.4008
61.3947
61.3886
61.3824
61.3763
61.3701
61.3639
61.3576
61.3514
61.3451
61.3389
61.3326
61.3262
61.3199
61.3135
61.3071
61.3008
61.295
61.2885
61.2769
61.2552
61.1818
56.0153
27.3724
3.36918
0.284467
0.0271504
0.00243679
0.000298812
0.000146184
5.46003e-05
8.17308e-06
-9.52298e-06
-1.36019e-05
62.8179
62.8121
62.8056
62.7993
62.7932
62.787
62.7808
62.7746
62.7684
62.7622
62.756
62.7497
62.7434
62.7372
62.7309
62.7245
62.7182
62.7119
62.7055
62.6991
62.6927
62.6863
62.6799
62.6734
62.667
62.6605
62.654
62.6475
62.641
62.6344
62.6278
62.6214
62.6155
62.6098
62.5993
62.573
62.5422
59.9671
37.1604
6.2024
0.509377
0.0485337
0.00450819
0.000478384
0.000215375
0.000108663
4.82004e-05
2.03579e-05
1.08089e-05
9.09054e-06
64.1418
64.1359
64.1292
64.1226
64.1162
64.1099
64.1035
64.0971
64.0906
64.0842
64.0778
64.0713
64.0648
64.0583
64.0518
64.0453
64.0387
64.0322
64.0256
64.019
64.0124
64.0058
63.9992
63.9925
63.9858
63.9792
63.9725
63.9658
63.959
63.9522
63.9455
63.9391
63.9329
63.9242
63.9068
63.8847
62.806
46.4966
11.0415
0.919336
0.0851603
0.00811295
0.000807168
0.000289822
0.00016905
9.47579e-05
5.61357e-05
3.9673e-05
3.45351e-05
3.37916e-05
65.4668
65.4607
65.4538
65.447
65.4405
65.4339
65.4273
65.4207
65.4141
65.4074
65.4008
65.3941
65.3874
65.3807
65.374
65.3673
65.3606
65.3539
65.3471
65.3403
65.3335
65.3267
65.3199
65.3131
65.3062
65.2994
65.2925
65.2856
65.2786
65.2717
65.265
65.2587
65.2513
65.237
65.2122
64.8887
54.302
18.5245
1.69306
0.148736
0.0143327
0.00138028
0.000362112
0.000228248
0.000140746
9.14758e-05
6.75767e-05
5.81972e-05
5.56678e-05
5.54522e-05
66.7949
66.7886
66.7814
66.7745
66.7677
66.761
66.7542
66.7474
66.7406
66.7337
66.7269
66.7201
66.7132
66.7063
66.6994
66.6925
66.6856
66.6787
66.6717
66.6648
66.6578
66.6508
66.6438
66.6368
66.6297
66.6227
66.6156
66.6084
66.6013
66.5944
66.5882
66.5817
66.5684
66.5367
66.497
60.5037
28.2431
3.18715
0.262104
0.0251497
0.00242731
0.000440527
0.000293698
0.000192756
0.00013252
0.000100529
8.59141e-05
8.05718e-05
7.92326e-05
7.89339e-05
68.1234
68.1169
68.1096
68.1025
68.0956
68.0887
68.0818
68.0748
68.0679
68.0609
68.0539
68.0469
68.0399
68.0329
68.0259
68.0189
68.0118
68.0048
67.9977
67.9906
67.9836
67.9765
67.9693
67.9622
67.9551
67.9479
67.9407
67.9335
67.9265
67.9199
67.9136
67.9031
67.8782
67.8474
65.0989
39.4131
6.07916
0.47344
0.0443638
0.00423207
0.000588298
0.000355016
0.000240504
0.000169362
0.000129212
0.000109092
0.000100585
9.78326e-05
9.72842e-05
9.70394e-05
69.4544
69.4478
69.4403
69.4331
69.426
69.419
69.4119
69.4048
69.3977
69.3907
69.3836
69.3765
69.3693
69.3622
69.3551
69.348
69.3408
69.3337
69.3266
69.3194
69.3122
69.3051
69.2979
69.2907
69.2835
69.2763
69.269
69.2619
69.2551
69.2488
69.2405
69.2215
69.189
68.2744
50.4274
11.4565
0.886979
0.0792036
0.00748967
0.000868369
0.00042258
0.000293344
0.000210278
0.000161394
0.000135108
0.000122669
0.000117764
0.000116283
0.000115869
0.000115417
70.7857
70.779
70.7714
70.764
70.7568
70.7497
70.7425
70.7353
70.7281
70.721
70.7138
70.7066
70.6994
70.6922
70.6849
70.6777
70.6705
70.6633
70.656
70.6488
70.6415
70.6343
70.627
70.6197
70.6124
70.6051
70.5977
70.5907
70.5846
70.5782
70.5626
70.5225
70.3977
59.6045
20.4257
1.74326
0.14434
0.0134898
0.00138216
0.000494838
0.000349162
0.000253252
0.000195178
0.000162439
0.000145721
0.00013831
0.000135602
0.000134801
0.000134376
0.000133826
72.1165
72.1097
72.1021
72.0946
72.0873
72.0801
72.0728
72.0655
72.0582
72.0509
72.0436
72.0363
72.029
72.0217
72.0143
72.007
71.9997
71.9923
71.985
71.9776
71.9702
71.9628
71.9554
71.948
71.9406
71.9331
71.9259
71.9195
71.9135
71.9014
71.8671
71.8202
66.6912
32.5418
3.59549
0.272152
0.0248446
0.00237889
0.000567475
0.000403334
0.000293134
0.000225162
0.000185664
0.000164413
0.000154217
0.00015004
0.000148655
0.000148204
0.000147771
0.000147241
73.4503
73.4433
73.4355
73.4279
73.4205
73.4132
73.4059
73.3985
73.3912
73.3839
73.3765
73.3692
73.3619
73.3546
73.3473
73.34
73.3327
73.3255
73.3182
73.3109
73.3037
73.2964
73.2892
73.2819
73.2746
73.2674
73.2607
73.2547
73.2465
73.2255
73.1866
71.5219
46.328
7.55748
0.535746
0.0468118
0.00432596
0.000692029
0.00046584
0.000338605
0.000259442
0.000212464
0.000186189
0.00017274
0.000166655
0.000164302
0.000163498
0.000163039
0.000162493
0.0001619
74.7817
74.7747
74.7668
74.7592
74.7518
74.7444
74.737
74.7296
74.7222
74.7149
74.7075
74.7002
74.6928
74.6855
74.6782
74.6708
74.6635
74.6562
74.6489
74.6416
74.6343
74.627
74.6197
74.6124
74.605
74.5981
74.5927
74.5874
74.5697
74.5144
74.3454
59.0697
15.5836
1.12215
0.0908009
0.00810751
0.000976129
0.000534641
0.000387396
0.000295168
0.000239963
0.000208357
0.00019144
0.000183228
0.000179704
0.000178364
0.000177771
0.000177213
0.000176577
0.000175922
76.1094
76.1023
76.0945
76.0868
76.0794
76.0719
76.0645
76.0571
76.0497
76.0423
76.0349
76.0275
76.0201
76.0127
76.0053
75.998
75.9906
75.9832
75.9759
75.9685
75.9611
75.9538
75.9464
75.9389
75.9318
75.9256
75.9201
75.9083
75.8711
75.814
68.9382
28.8009
2.55051
0.184409
0.0159311
0.00156978
0.000603705
0.000432354
0.000324328
0.000259838
0.000222621
0.000202235
0.000191953
0.000187332
0.00018555
0.000184943
0.000184595
0.000184182
0.000183723
0.000183252
77.4409
77.4339
77.4259
77.4183
77.4108
77.4034
77.396
77.3886
77.3812
77.3738
77.3665
77.3592
77.3519
77.3446
77.3374
77.3301
77.3229
77.3157
77.3085
77.3013
77.2942
77.287
77.2798
77.2726
77.2661
77.261
77.2542
77.2312
77.1745
75.4524
45.5123
6.09512
0.394643
0.0324558
0.00288343
0.000697725
0.000498478
0.000370275
0.00029389
0.000249682
0.000224954
0.000211894
0.000205516
0.000202662
0.000201434
0.000200756
0.000200118
0.000199433
0.000198733
0.000198036
78.7636
78.7566
78.7487
78.741
78.7336
78.7262
78.7188
78.7114
78.7041
78.6967
78.6894
78.6822
78.6749
78.6677
78.6605
78.6533
78.6461
78.639
78.6319
78.6248
78.6178
78.6106
78.6034
78.5969
78.5931
78.5916
78.5723
78.4828
78.3334
62.1155
14.8192
0.930554
0.0695952
0.00581299
0.000841311
0.000553037
0.000401423
0.000311246
0.000259572
0.000230764
0.000215452
0.000207906
0.000204564
0.000203279
0.000202817
0.000202536
0.000202221
0.000201867
0.000201493
0.000201109
-0.000158195
-0.000159186
-0.000158268
-0.000157425
-0.000156785
-0.000156226
-0.000155677
-0.000155124
-0.00015457
-0.000154018
-0.000153464
-0.000152908
-0.000152348
-0.000151784
-0.000151213
-0.000150636
-0.000150052
-0.000149459
-0.000148858
-0.000148248
-0.000147628
-0.000146998
-0.000146359
-0.000145709
-0.000145049
-0.000144378
-0.000143698
-0.000143007
-0.000142307
-0.000141596
-0.000140876
-0.000140147
-0.000139408
-0.000138661
-0.000137905
-0.000137142
-0.00013637
-0.000135591
-0.000134805
-0.000134013
-0.000133214
-0.00013241
-0.0001316
-0.000130785
-0.000129966
-0.000129142
-0.000128315
-0.000127486
-0.000126659
-0.000125821
-0.000136679
-0.000135994
-0.000135173
-0.000134605
-0.000134159
-0.000133735
-0.000133309
-0.00013288
-0.000132452
-0.000132025
-0.000131596
-0.000131164
-0.000130729
-0.000130289
-0.000129843
-0.000129391
-0.000128931
-0.000128464
-0.000127989
-0.000127504
-0.000127011
-0.000126508
-0.000125995
-0.000125472
-0.00012494
-0.000124397
-0.000123844
-0.000123281
-0.000122708
-0.000122126
-0.000121534
-0.000120932
-0.000120321
-0.000119701
-0.000119073
-0.000118437
-0.000117792
-0.00011714
-0.00011648
-0.000115814
-0.00011514
-0.000114461
-0.000113776
-0.000113085
-0.00011239
-0.000111689
-0.000110984
-0.000110277
-0.00010957
-0.000108853
-0.000113243
-0.000112305
-0.00011177
-0.000111419
-0.000111112
-0.000110804
-0.000110491
-0.000110177
-0.000109862
-0.000109547
-0.000109229
-0.000108907
-0.000108581
-0.000108251
-0.000107914
-0.000107571
-0.000107222
-0.000106865
-0.0001065
-0.000106127
-0.000105745
-0.000105355
-0.000104956
-0.000104547
-0.00010413
-0.000103703
-0.000103267
-0.000102822
-0.000102367
-0.000101904
-0.000101431
-0.00010095
-0.000100461
-9.99626e-05
-9.94565e-05
-9.89425e-05
-9.84209e-05
-9.78921e-05
-9.73562e-05
-9.68136e-05
-9.62647e-05
-9.57096e-05
-9.51488e-05
-9.45825e-05
-9.40111e-05
-9.34347e-05
-9.2854e-05
-9.22704e-05
-9.1686e-05
-9.10932e-05
-8.8545e-05
-8.78717e-05
-8.7567e-05
-8.73467e-05
-8.71331e-05
-8.69169e-05
-8.67021e-05
-8.649e-05
-8.62798e-05
-8.60699e-05
-8.58594e-05
-8.56471e-05
-8.54321e-05
-8.52135e-05
-8.49907e-05
-8.47628e-05
-8.45294e-05
-8.42897e-05
-8.40433e-05
-8.37898e-05
-8.35288e-05
-8.32599e-05
-8.29831e-05
-8.26979e-05
-8.24044e-05
-8.21024e-05
-8.17917e-05
-8.14725e-05
-8.11447e-05
-8.08084e-05
-8.04637e-05
-8.01106e-05
-7.97494e-05
-7.93801e-05
-7.9003e-05
-7.86183e-05
-7.82261e-05
-7.78268e-05
-7.74205e-05
-7.70075e-05
-7.65882e-05
-7.61626e-05
-7.57312e-05
-7.52942e-05
-7.48518e-05
-7.44042e-05
-7.3952e-05
-7.34963e-05
-7.30386e-05
-7.25734e-05
-6.43211e-05
-6.39277e-05
-6.37346e-05
-6.35662e-05
-6.33997e-05
-6.32384e-05
-6.30848e-05
-6.29382e-05
-6.27971e-05
-6.266e-05
-6.25257e-05
-6.23931e-05
-6.2261e-05
-6.21286e-05
-6.19948e-05
-6.1859e-05
-6.17203e-05
-6.15781e-05
-6.14316e-05
-6.12805e-05
-6.11241e-05
-6.09621e-05
-6.0794e-05
-6.06196e-05
-6.04386e-05
-6.02508e-05
-6.00559e-05
-5.98539e-05
-5.96447e-05
-5.94283e-05
-5.92045e-05
-5.89735e-05
-5.87352e-05
-5.84898e-05
-5.82373e-05
-5.79779e-05
-5.77117e-05
-5.74388e-05
-5.71595e-05
-5.68738e-05
-5.6582e-05
-5.62843e-05
-5.59808e-05
-5.56719e-05
-5.53577e-05
-5.50384e-05
-5.47143e-05
-5.43861e-05
-5.4055e-05
-5.37178e-05
-3.89221e-05
-3.88234e-05
-3.87975e-05
-3.87705e-05
-3.87434e-05
-3.87205e-05
-3.87023e-05
-3.86878e-05
-3.86757e-05
-3.86652e-05
-3.86553e-05
-3.86453e-05
-3.86345e-05
-3.86221e-05
-3.86075e-05
-3.85901e-05
-3.85693e-05
-3.85446e-05
-3.85156e-05
-3.84818e-05
-3.84429e-05
-3.83985e-05
-3.83483e-05
-3.82921e-05
-3.82297e-05
-3.81609e-05
-3.80856e-05
-3.80036e-05
-3.79149e-05
-3.78194e-05
-3.77171e-05
-3.76081e-05
-3.74923e-05
-3.73698e-05
-3.72407e-05
-3.7105e-05
-3.69629e-05
-3.68144e-05
-3.66598e-05
-3.64991e-05
-3.63326e-05
-3.61603e-05
-3.59824e-05
-3.57991e-05
-3.56105e-05
-3.54169e-05
-3.52185e-05
-3.50155e-05
-3.48088e-05
-3.45971e-05
-1.35037e-05
-1.36055e-05
-1.37238e-05
-1.38384e-05
-1.39545e-05
-1.40739e-05
-1.4196e-05
-1.43197e-05
-1.44442e-05
-1.45688e-05
-1.46928e-05
-1.48156e-05
-1.49366e-05
-1.50551e-05
-1.51707e-05
-1.52828e-05
-1.5391e-05
-1.54949e-05
-1.55941e-05
-1.56881e-05
-1.57768e-05
-1.58598e-05
-1.59369e-05
-1.60078e-05
-1.60724e-05
-1.61305e-05
-1.6182e-05
-1.62269e-05
-1.6265e-05
-1.62963e-05
-1.63209e-05
-1.63386e-05
-1.63496e-05
-1.63538e-05
-1.63514e-05
-1.63424e-05
-1.63269e-05
-1.6305e-05
-1.62768e-05
-1.62424e-05
-1.62021e-05
-1.61558e-05
-1.61038e-05
-1.60462e-05
-1.59832e-05
-1.59149e-05
-1.58414e-05
-1.57628e-05
-1.56793e-05
-1.55922e-05
9.2959e-06
9.19233e-06
9.07919e-06
8.95896e-06
8.82909e-06
8.69007e-06
8.54317e-06
8.38955e-06
8.2302e-06
8.06603e-06
7.89792e-06
7.72672e-06
7.55322e-06
7.37818e-06
7.20231e-06
7.02627e-06
6.85069e-06
6.67615e-06
6.50319e-06
6.33231e-06
6.16396e-06
5.99857e-06
5.83652e-06
5.67814e-06
5.52374e-06
5.37361e-06
5.22797e-06
5.08703e-06
4.95098e-06
4.81997e-06
4.69411e-06
4.57352e-06
4.45826e-06
4.34839e-06
4.24394e-06
4.14494e-06
4.05137e-06
3.96323e-06
3.88049e-06
3.8031e-06
3.73101e-06
3.66416e-06
3.60247e-06
3.54586e-06
3.49422e-06
3.44745e-06
3.40556e-06
3.36894e-06
3.33767e-06
3.30891e-06
3.37271e-05
3.34365e-05
3.31429e-05
3.28457e-05
3.25444e-05
3.22398e-05
3.19328e-05
3.16241e-05
3.13142e-05
3.10039e-05
3.06935e-05
3.03837e-05
3.00749e-05
2.97676e-05
2.94622e-05
2.91591e-05
2.88588e-05
2.85615e-05
2.82675e-05
2.79773e-05
2.76909e-05
2.74088e-05
2.71311e-05
2.6858e-05
2.65897e-05
2.63264e-05
2.60681e-05
2.5815e-05
2.55672e-05
2.53248e-05
2.50878e-05
2.48562e-05
2.46301e-05
2.44095e-05
2.41945e-05
2.39849e-05
2.37807e-05
2.3582e-05
2.33887e-05
2.32007e-05
2.3018e-05
2.28405e-05
2.26682e-05
2.25009e-05
2.23385e-05
2.2181e-05
2.20285e-05
2.18817e-05
2.17408e-05
2.16009e-05
5.52914e-05
5.5002e-05
5.47055e-05
5.44013e-05
5.40897e-05
5.37712e-05
5.34465e-05
5.31158e-05
5.27798e-05
5.24391e-05
5.2094e-05
5.17453e-05
5.13935e-05
5.10392e-05
5.06828e-05
5.0325e-05
4.99663e-05
4.96071e-05
4.9248e-05
4.88894e-05
4.85317e-05
4.81755e-05
4.78209e-05
4.74685e-05
4.71184e-05
4.67712e-05
4.64269e-05
4.60859e-05
4.57484e-05
4.54146e-05
4.50847e-05
4.47588e-05
4.44371e-05
4.41197e-05
4.38067e-05
4.34982e-05
4.31943e-05
4.2895e-05
4.26003e-05
4.23103e-05
4.2025e-05
4.17444e-05
4.14685e-05
4.11973e-05
4.09306e-05
4.06686e-05
4.04112e-05
4.01597e-05
3.99147e-05
3.96701e-05
7.8478e-05
7.79635e-05
7.74454e-05
7.69247e-05
7.64025e-05
7.58798e-05
7.53574e-05
7.48358e-05
7.43156e-05
7.37973e-05
7.32814e-05
7.27683e-05
7.22582e-05
7.17515e-05
7.12485e-05
7.07493e-05
7.02542e-05
6.97634e-05
6.92769e-05
6.8795e-05
6.83177e-05
6.78452e-05
6.73775e-05
6.69147e-05
6.64568e-05
6.6004e-05
6.55562e-05
6.51134e-05
6.46757e-05
6.42431e-05
6.38156e-05
6.33932e-05
6.29758e-05
6.25634e-05
6.21561e-05
6.17538e-05
6.13564e-05
6.0964e-05
6.05764e-05
6.01937e-05
5.98158e-05
5.94426e-05
5.90742e-05
5.87104e-05
5.83511e-05
5.79963e-05
5.76462e-05
5.73021e-05
5.6965e-05
5.66263e-05
9.66367e-05
9.62069e-05
9.57695e-05
9.53249e-05
9.48732e-05
9.44148e-05
9.39499e-05
9.34789e-05
9.30021e-05
9.252e-05
9.20332e-05
9.15419e-05
9.10468e-05
9.05484e-05
9.00471e-05
8.95434e-05
8.90377e-05
8.85307e-05
8.80226e-05
8.75139e-05
8.70051e-05
8.64964e-05
8.59884e-05
8.54813e-05
8.49755e-05
8.44712e-05
8.39687e-05
8.34683e-05
8.29703e-05
8.24748e-05
8.19821e-05
8.14923e-05
8.10056e-05
8.05221e-05
8.0042e-05
7.95653e-05
7.90923e-05
7.86229e-05
7.81573e-05
7.76954e-05
7.72375e-05
7.67834e-05
7.63334e-05
7.58873e-05
7.54451e-05
7.50068e-05
7.45728e-05
7.41445e-05
7.37235e-05
7.33007e-05
0.000114872
0.00011432
0.000113765
0.000113208
0.00011265
0.000112091
0.00011153
0.000110969
0.000110407
0.000109845
0.000109282
0.00010872
0.000108157
0.000107595
0.000107034
0.000106472
0.000105912
0.000105352
0.000104793
0.000104235
0.000103679
0.000103124
0.00010257
0.000102017
0.000101466
0.000100917
0.00010037
9.9824e-05
9.92803e-05
9.87387e-05
9.81991e-05
9.76617e-05
9.71266e-05
9.65937e-05
9.60632e-05
9.55351e-05
9.50095e-05
9.44864e-05
9.39659e-05
9.3448e-05
9.29328e-05
9.24203e-05
9.19106e-05
9.14036e-05
9.08994e-05
9.03979e-05
8.98996e-05
8.94063e-05
8.89194e-05
8.84276e-05
0.000133233
0.000132636
0.000132034
0.000131429
0.000130821
0.000130209
0.000129594
0.000128977
0.000128357
0.000127736
0.000127112
0.000126488
0.000125861
0.000125234
0.000124607
0.000123978
0.00012335
0.000122722
0.000122094
0.000121466
0.000120839
0.000120214
0.000119589
0.000118965
0.000118343
0.000117722
0.000117103
0.000116486
0.000115871
0.000115258
0.000114647
0.000114038
0.000113431
0.000112827
0.000112225
0.000111626
0.000111029
0.000110435
0.000109844
0.000109255
0.000108669
0.000108086
0.000107506
0.000106929
0.000106354
0.000105782
0.000105214
0.000104651
0.000104094
0.000103534
0.000146692
0.000146136
0.000145574
0.000145007
0.000144434
0.000143857
0.000143275
0.000142688
0.000142098
0.000141504
0.000140906
0.000140305
0.000139701
0.000139095
0.000138485
0.000137874
0.00013726
0.000136645
0.000136028
0.000135409
0.000134789
0.000134168
0.000133545
0.000132922
0.000132298
0.000131673
0.000131048
0.000130422
0.000129796
0.00012917
0.000128543
0.000127917
0.000127291
0.000126665
0.00012604
0.000125415
0.00012479
0.000124167
0.000123543
0.000122921
0.0001223
0.000121679
0.00012106
0.000120441
0.000119824
0.000119208
0.000118594
0.000117984
0.000117379
0.000116767
0.000161302
0.000160703
0.000160102
0.000159499
0.000158893
0.000158285
0.000157675
0.000157063
0.000156448
0.000155832
0.000155213
0.000154592
0.000153969
0.000153344
0.000152718
0.000152089
0.000151458
0.000150826
0.000150192
0.000149556
0.000148919
0.000148281
0.00014764
0.000146999
0.000146356
0.000145712
0.000145067
0.00014442
0.000143773
0.000143124
0.000142475
0.000141825
0.000141174
0.000140522
0.00013987
0.000139217
0.000138563
0.000137909
0.000137255
0.000136601
0.000135946
0.000135291
0.000134637
0.000133982
0.000133328
0.000132673
0.00013202
0.000131369
0.000130723
0.00013007
0.000175265
0.000174606
0.000173945
0.000173282
0.000172618
0.000171951
0.000171284
0.000170615
0.000169944
0.000169273
0.0001686
0.000167926
0.000167251
0.000166575
0.000165898
0.00016522
0.000164541
0.000163861
0.00016318
0.000162498
0.000161815
0.000161131
0.000160446
0.00015976
0.000159074
0.000158386
0.000157697
0.000157007
0.000156316
0.000155625
0.000154932
0.000154238
0.000153543
0.000152848
0.000152151
0.000151453
0.000150755
0.000150056
0.000149356
0.000148655
0.000147954
0.000147252
0.000146549
0.000145846
0.000145143
0.000144439
0.000143735
0.000143034
0.000142338
0.000141631
0.000182776
0.000182294
0.000181807
0.000181315
0.000180818
0.000180315
0.000179808
0.000179295
0.000178777
0.000178253
0.000177725
0.000177191
0.000176652
0.000176107
0.000175558
0.000175003
0.000174443
0.000173878
0.000173307
0.000172732
0.000172151
0.000171564
0.000170973
0.000170376
0.000169774
0.000169166
0.000168554
0.000167936
0.000167313
0.000166684
0.000166051
0.000165412
0.000164769
0.000164121
0.000163467
0.00016281
0.000162147
0.00016148
0.000160808
0.000160132
0.000159452
0.000158768
0.00015808
0.000157388
0.000156693
0.000155993
0.000155291
0.000154589
0.000153889
0.000153177
0.000197343
0.000196655
0.000195972
0.000195293
0.000194617
0.000193945
0.000193276
0.000192609
0.000191944
0.00019128
0.000190618
0.000189957
0.000189297
0.000188637
0.000187976
0.000187316
0.000186654
0.000185992
0.000185328
0.000184663
0.000183996
0.000183327
0.000182655
0.000181981
0.000181303
0.000180623
0.000179939
0.000179252
0.000178562
0.000177867
0.000177169
0.000176466
0.00017576
0.000175049
0.000174334
0.000173615
0.000172892
0.000172164
0.000171432
0.000170696
0.000169956
0.000169211
0.000168463
0.000167711
0.000166955
0.000166195
0.000165432
0.000164668
0.000163908
0.000163131
0.000200721
0.000200327
0.000199929
0.000199526
0.000199119
0.000198706
0.00019829
0.000197868
0.000197442
0.00019701
0.000196573
0.000196131
0.000195683
0.00019523
0.00019477
0.000194304
0.000193832
0.000193353
0.000192867
0.000192373
0.000191872
0.000191364
0.000190847
0.000190322
0.000189789
0.000189247
0.000188696
0.000188136
0.000187567
0.000186989
0.000186401
0.000185805
0.000185198
0.000184582
0.000183957
0.000183322
0.000182678
0.000182024
0.000181361
0.000180689
0.000180007
0.000179317
0.000178618
0.000177911
0.000177195
0.000176471
0.000175739
0.000175002
0.000174265
0.000173511
-0.00012514
-0.000124629
-0.000124101
-0.000123572
-0.000123044
-0.000122513
-0.000121981
-0.000121446
-0.000120909
-0.00012037
-0.000119829
-0.000119287
-0.000118742
-0.000118196
-0.000117648
-0.000117098
-0.000116546
-0.000115993
-0.000115438
-0.000114882
-0.000114324
-0.000113765
-0.000113204
-0.000112642
-0.000112079
-0.000111514
-0.000110948
-0.000110381
-0.000109813
-0.000109243
-0.000108673
-0.000108101
-0.000107529
-0.000106956
-0.000106381
-0.000105806
-0.00010523
-0.000104654
-0.000104076
-0.000103498
-0.000102919
-0.00010234
-0.00010176
-0.000101179
-0.000100598
-0.000100017
-9.94352e-05
-9.88529e-05
-9.82703e-05
-9.76874e-05
-9.71041e-05
-9.65207e-05
-9.5937e-05
-9.53531e-05
-9.4769e-05
-9.41848e-05
-9.36006e-05
-9.30162e-05
-9.24318e-05
-9.18474e-05
-9.1263e-05
-9.06786e-05
-9.00944e-05
-8.95102e-05
-8.89261e-05
-8.83421e-05
-8.77584e-05
-8.71748e-05
-8.65914e-05
-8.60082e-05
-8.54254e-05
-8.48427e-05
-8.42604e-05
-8.36784e-05
-8.30968e-05
-8.25155e-05
-8.19345e-05
-8.1354e-05
-8.07739e-05
-8.01942e-05
-7.96149e-05
-7.90361e-05
-7.84578e-05
-7.788e-05
-7.73027e-05
-7.67259e-05
-7.61496e-05
-7.55739e-05
-7.49988e-05
-7.44242e-05
-7.38502e-05
-7.32769e-05
-7.27041e-05
-7.2132e-05
-7.15605e-05
-7.09897e-05
-7.04195e-05
-6.98501e-05
-6.92813e-05
-6.87132e-05
-6.81458e-05
-6.75791e-05
-6.70132e-05
-6.64479e-05
-6.58835e-05
-6.53198e-05
-6.47568e-05
-6.41947e-05
-6.36333e-05
-6.30727e-05
-6.25129e-05
-6.1954e-05
-6.13958e-05
-6.08385e-05
-6.0282e-05
-5.97263e-05
-5.91715e-05
-5.86176e-05
-5.80645e-05
-5.75123e-05
-5.6961e-05
-5.64106e-05
-5.5861e-05
-5.53124e-05
-5.47647e-05
-5.42178e-05
-5.36719e-05
-5.3127e-05
-5.25829e-05
-5.20399e-05
-5.14977e-05
-5.09565e-05
-5.04163e-05
-4.9877e-05
-4.93387e-05
-4.88014e-05
-4.8265e-05
-4.77297e-05
-4.71953e-05
-4.66619e-05
-4.61296e-05
-4.55982e-05
-4.50678e-05
-4.45385e-05
-4.40102e-05
-4.34829e-05
-4.29566e-05
-4.24314e-05
-4.19072e-05
-4.1384e-05
-4.08619e-05
-4.03408e-05
-3.98208e-05
-3.93018e-05
-3.87839e-05
-3.8267e-05
-3.77512e-05
-3.72365e-05
-3.67228e-05
-3.62102e-05
-3.56987e-05
-3.51882e-05
-3.46789e-05
-3.41706e-05
-3.36633e-05
-3.31572e-05
-3.26521e-05
-3.21481e-05
-3.16452e-05
-3.11434e-05
-3.06426e-05
-3.0143e-05
-2.96444e-05
-2.91469e-05
-2.86505e-05
-2.81551e-05
-2.76609e-05
-2.71677e-05
-2.66756e-05
-2.61845e-05
-2.56946e-05
-2.52057e-05
-2.47179e-05
-2.42311e-05
-2.37455e-05
-2.32608e-05
-2.27773e-05
-2.22948e-05
-2.18133e-05
-2.13329e-05
-2.08536e-05
-2.03752e-05
-1.9898e-05
-1.94217e-05
-1.89465e-05
-1.84723e-05
-1.79991e-05
-1.75269e-05
-1.70557e-05
-1.65856e-05
-1.61164e-05
-1.56482e-05
-1.5181e-05
-1.47147e-05
-1.42494e-05
-1.37851e-05
-1.33217e-05
-1.28592e-05
-1.23977e-05
-1.19371e-05
-1.14774e-05
-1.10186e-05
-1.05607e-05
-1.01036e-05
-9.64744e-06
-9.19212e-06
-8.73765e-06
-8.28401e-06
-7.83118e-06
-7.37916e-06
-6.92794e-06
-6.47749e-06
-6.02781e-06
-5.57888e-06
-5.13069e-06
-4.68321e-06
-4.23645e-06
-3.79037e-06
-3.34496e-06
-2.9002e-06
-2.45609e-06
-2.01259e-06
-1.5697e-06
-1.12738e-06
-6.8563e-07
-2.44421e-07
1.96265e-07
6.36451e-07
1.07616e-06
1.51541e-06
1.95422e-06
2.39263e-06
2.83065e-06
3.2683e-06
3.70562e-06
4.14263e-06
4.57935e-06
5.01581e-06
5.45205e-06
5.88809e-06
6.32395e-06
6.75967e-06
7.19529e-06
7.63082e-06
8.06631e-06
8.50179e-06
8.93729e-06
9.37285e-06
9.80851e-06
1.02443e-05
1.06803e-05
1.11164e-05
1.15529e-05
1.19896e-05
1.24266e-05
1.28641e-05
1.3302e-05
1.37403e-05
1.41792e-05
1.46187e-05
1.50588e-05
1.54996e-05
1.59411e-05
1.63834e-05
1.68267e-05
1.72708e-05
1.77159e-05
1.81622e-05
1.86095e-05
1.90581e-05
1.95079e-05
1.99592e-05
2.04119e-05
2.08661e-05
2.1322e-05
2.17796e-05
2.2239e-05
2.27004e-05
2.31638e-05
2.36293e-05
2.40971e-05
2.45673e-05
2.50399e-05
2.55152e-05
2.59931e-05
2.64739e-05
2.69582e-05
2.74465e-05
2.79368e-05
2.84182e-05
-0.000108271
-0.000107837
-0.000107388
-0.000106937
-0.000106487
-0.000106034
-0.00010558
-0.000105123
-0.000104665
-0.000104204
-0.000103741
-0.000103277
-0.00010281
-0.000102342
-0.000101872
-0.000101401
-0.000100927
-0.000100452
-9.99752e-05
-9.94969e-05
-9.9017e-05
-9.85356e-05
-9.80528e-05
-9.75686e-05
-9.70829e-05
-9.65959e-05
-9.61077e-05
-9.56182e-05
-9.51274e-05
-9.46355e-05
-9.41424e-05
-9.36483e-05
-9.31531e-05
-9.26568e-05
-9.21596e-05
-9.16614e-05
-9.11624e-05
-9.06624e-05
-9.01617e-05
-8.96601e-05
-8.91578e-05
-8.86547e-05
-8.8151e-05
-8.76466e-05
-8.71416e-05
-8.6636e-05
-8.61298e-05
-8.56231e-05
-8.5116e-05
-8.46083e-05
-8.41003e-05
-8.35918e-05
-8.3083e-05
-8.25738e-05
-8.20643e-05
-8.15546e-05
-8.10445e-05
-8.05343e-05
-8.00238e-05
-7.95132e-05
-7.90024e-05
-7.84915e-05
-7.79805e-05
-7.74695e-05
-7.69583e-05
-7.64471e-05
-7.5936e-05
-7.54248e-05
-7.49137e-05
-7.44026e-05
-7.38916e-05
-7.33806e-05
-7.28698e-05
-7.23591e-05
-7.18486e-05
-7.13382e-05
-7.0828e-05
-7.03181e-05
-6.98083e-05
-6.92988e-05
-6.87895e-05
-6.82804e-05
-6.77717e-05
-6.72632e-05
-6.67551e-05
-6.62473e-05
-6.57398e-05
-6.52326e-05
-6.47259e-05
-6.42195e-05
-6.37134e-05
-6.32078e-05
-6.27026e-05
-6.21978e-05
-6.16934e-05
-6.11895e-05
-6.0686e-05
-6.0183e-05
-5.96805e-05
-5.91784e-05
-5.86769e-05
-5.81758e-05
-5.76753e-05
-5.71753e-05
-5.66758e-05
-5.61769e-05
-5.56785e-05
-5.51806e-05
-5.46833e-05
-5.41867e-05
-5.36905e-05
-5.3195e-05
-5.27001e-05
-5.22058e-05
-5.17121e-05
-5.1219e-05
-5.07265e-05
-5.02347e-05
-4.97435e-05
-4.9253e-05
-4.87631e-05
-4.82739e-05
-4.77854e-05
-4.72975e-05
-4.68103e-05
-4.63238e-05
-4.5838e-05
-4.53529e-05
-4.48685e-05
-4.43849e-05
-4.39019e-05
-4.34197e-05
-4.29382e-05
-4.24574e-05
-4.19774e-05
-4.14981e-05
-4.10196e-05
-4.05418e-05
-4.00648e-05
-3.95886e-05
-3.91131e-05
-3.86384e-05
-3.81645e-05
-3.76914e-05
-3.72191e-05
-3.67475e-05
-3.62768e-05
-3.58068e-05
-3.53377e-05
-3.48694e-05
-3.44019e-05
-3.39352e-05
-3.34693e-05
-3.30042e-05
-3.254e-05
-3.20766e-05
-3.1614e-05
-3.11523e-05
-3.06914e-05
-3.02314e-05
-2.97721e-05
-2.93138e-05
-2.88562e-05
-2.83996e-05
-2.79437e-05
-2.74887e-05
-2.70346e-05
-2.65813e-05
-2.61289e-05
-2.56773e-05
-2.52266e-05
-2.47768e-05
-2.43278e-05
-2.38796e-05
-2.34323e-05
-2.29859e-05
-2.25403e-05
-2.20956e-05
-2.16517e-05
-2.12087e-05
-2.07665e-05
-2.03252e-05
-1.98847e-05
-1.94451e-05
-1.90063e-05
-1.85683e-05
-1.81312e-05
-1.7695e-05
-1.72595e-05
-1.68249e-05
-1.63912e-05
-1.59582e-05
-1.55261e-05
-1.50948e-05
-1.46643e-05
-1.42346e-05
-1.38057e-05
-1.33776e-05
-1.29503e-05
-1.25238e-05
-1.20981e-05
-1.16731e-05
-1.12489e-05
-1.08255e-05
-1.04028e-05
-9.98092e-06
-9.55974e-06
-9.1393e-06
-8.71959e-06
-8.30059e-06
-7.8823e-06
-7.46472e-06
-7.04782e-06
-6.63161e-06
-6.21607e-06
-5.80119e-06
-5.38697e-06
-4.97339e-06
-4.56044e-06
-4.1481e-06
-3.73638e-06
-3.32525e-06
-2.9147e-06
-2.50473e-06
-2.09531e-06
-1.68644e-06
-1.2781e-06
-8.70267e-07
-4.62941e-07
-5.61006e-08
3.50269e-07
7.56184e-07
1.16166e-06
1.56672e-06
1.97137e-06
2.37563e-06
2.77953e-06
3.18307e-06
3.58629e-06
3.98919e-06
4.39181e-06
4.79415e-06
5.19624e-06
5.59811e-06
5.99977e-06
6.40126e-06
6.80258e-06
7.20377e-06
7.60485e-06
8.00584e-06
8.40678e-06
8.80769e-06
9.20859e-06
9.60952e-06
1.00105e-05
1.04116e-05
1.08128e-05
1.12141e-05
1.16156e-05
1.20173e-05
1.24193e-05
1.28216e-05
1.32241e-05
1.36271e-05
1.40304e-05
1.44342e-05
1.48384e-05
1.52432e-05
1.56485e-05
1.60545e-05
1.64611e-05
1.68684e-05
1.72765e-05
1.76854e-05
1.80952e-05
1.85059e-05
1.89176e-05
1.93304e-05
1.97443e-05
2.01594e-05
2.05757e-05
2.09934e-05
2.14125e-05
2.18331e-05
2.22552e-05
2.2679e-05
2.31046e-05
2.3532e-05
2.39613e-05
2.43927e-05
2.48262e-05
2.5262e-05
2.57001e-05
2.61407e-05
2.65838e-05
2.70296e-05
2.74786e-05
2.79315e-05
2.83862e-05
2.88327e-05
-9.06131e-05
-9.02563e-05
-8.98874e-05
-8.95174e-05
-8.91469e-05
-8.87747e-05
-8.84004e-05
-8.80241e-05
-8.76458e-05
-8.72656e-05
-8.68835e-05
-8.64995e-05
-8.61137e-05
-8.57261e-05
-8.53367e-05
-8.49457e-05
-8.45529e-05
-8.41585e-05
-8.37625e-05
-8.33649e-05
-8.29658e-05
-8.25652e-05
-8.21631e-05
-8.17596e-05
-8.13546e-05
-8.09484e-05
-8.05408e-05
-8.01319e-05
-7.97218e-05
-7.93104e-05
-7.88979e-05
-7.84842e-05
-7.80694e-05
-7.76536e-05
-7.72367e-05
-7.68187e-05
-7.63999e-05
-7.598e-05
-7.55593e-05
-7.51376e-05
-7.47151e-05