/*--------------------------------*- C++ -*----------------------------------*\
| =========                 |                                                 |
| \\      /  F ield         | OpenFOAM: The Open Source CFD Toolbox           |
|  \\    /   O peration     | Version:  2.4.0                                 |
|   \\  /    A nd           | Web:      www.OpenFOAM.org                      |
|    \\/     M anipulation  |                                                 |
\*---------------------------------------------------------------------------*/
FoamFile
{
    version     2.0;
    format      ascii;
    class       volScalarField;
    location    "0.4";
    object      alpha1;
}
// * * * * * * * * * * * * * * * * * * * * * * * * * * * * * * * * * * * * * //

dimensions      [0 0 0 0 0 0 0];

internalField   nonuniform List<scalar> 
1000
(
0.0145279
0.973387
0.0161254
0.986535
0.0161255
0.973387
0.0145283
0.0430629
0.998693
0.0430628
1.01981e-07
9.61132e-07
0.00238786
0.179152
0.00238786
9.6115e-07
1.02016e-07
0.00389793
0.825876
0.00389793
1.7974e-09
6.17783e-11
2.21362e-12
1.92072e-12
2.32922e-12
6.47852e-11
1.85916e-09
1.79818e-08
3.04138e-08
1.75557e-08
1.65375e-09
6.53633e-11
2.1361e-12
1.28691e-13
2.25027e-12
6.85562e-11
1.71242e-09
3.29036e-08
5.47365e-08
3.21202e-08
1.48014e-09
6.87692e-11
2.08779e-12
9.71757e-14
2.19999e-12
7.21407e-11
1.53453e-09
3.18742e-08
5.82321e-08
3.11079e-08
1.34848e-09
7.1924e-11
2.03252e-12
7.93204e-14
2.14232e-12
7.54634e-11
1.3992e-09
3.08228e-08
1.1699e-07
3.00738e-08
1.25264e-09
7.47388e-11
1.97135e-12
6.31951e-14
2.0784e-12
7.84307e-11
1.3001e-09
2.96647e-08
3.64249e-08
2.89357e-08
1.15903e-09
7.71161e-11
1.90537e-12
4.93691e-14
2.00936e-12
8.09403e-11
1.20406e-09
2.86706e-08
7.34286e-08
2.79564e-08
1.06216e-09
7.89566e-11
1.83548e-12
3.79173e-14
1.93617e-12
8.28882e-11
1.10455e-09
2.76931e-08
1.49389e-07
2.69949e-08
9.63712e-10
8.01647e-11
1.76246e-12
2.86757e-14
1.85964e-12
8.41738e-11
1.00328e-09
2.67497e-08
4.30409e-08
2.60734e-08
8.65367e-10
8.06537e-11
1.68696e-12
2.13752e-14
1.78045e-12
8.47062e-11
9.01983e-10
2.58544e-08
8.17769e-08
2.51905e-08
7.68741e-10
8.0352e-11
1.60956e-12
1.57146e-14
1.69922e-12
8.441e-11
8.0231e-10
2.49846e-08
1.53161e-07
2.43316e-08
6.75321e-10
7.92075e-11
1.53079e-12
1.13988e-14
1.6165e-12
8.32301e-11
7.05793e-10
2.41513e-08
3.18538e-08
2.35102e-08
5.86416e-10
7.71912e-11
1.45114e-12
8.15951e-15
1.53282e-12
8.11357e-11
6.13787e-10
2.32902e-08
6.43614e-08
2.26576e-08
5.03125e-10
7.43015e-11
1.37107e-12
5.7642e-15
1.44866e-12
7.81243e-11
5.27435e-10
2.24057e-08
7.20902e-08
2.17807e-08
4.26309e-10
7.0568e-11
1.29106e-12
4.0184e-15
1.36452e-12
7.42262e-11
4.47644e-10
2.14561e-08
8.38475e-08
2.08367e-08
3.56577e-10
6.60549e-11
1.21161e-12
2.76392e-15
1.28094e-12
6.9508e-11
3.75064e-10
2.04389e-08
9.00997e-08
1.98249e-08
2.94283e-10
6.08638e-11
1.13332e-12
1.87516e-15
1.19855e-12
6.40756e-11
3.1009e-10
1.93399e-08
9.54148e-08
1.87327e-08
2.39537e-10
5.51328e-11
1.05683e-12
1.25442e-15
1.11802e-12
5.80728e-11
2.52863e-10
1.81487e-08
1.90316e-07
1.75512e-08
1.9222e-10
4.90316e-11
9.82712e-13
8.27093e-16
1.03996e-12
5.16768e-11
2.0329e-10
1.68953e-08
5.36624e-08
1.63136e-08
1.52013e-10
4.27645e-11
9.04569e-13
5.3724e-16
9.57531e-13
4.51011e-11
1.61071e-10
1.54946e-08
1.05785e-07
1.4933e-08
1.1852e-10
3.64938e-11
7.98889e-13
3.43598e-16
8.46018e-13
3.85127e-11
1.25824e-10
1.4001e-08
1.03751e-07
1.3467e-08
9.11101e-11
3.04179e-11
6.8125e-13
2.16243e-16
7.2181e-13
3.21233e-11
9.69129e-11
1.24321e-08
1.89422e-07
1.1934e-08
6.90332e-11
2.47701e-11
5.62549e-13
1.33832e-16
5.96392e-13
2.61787e-11
7.3575e-11
1.08417e-08
3.9823e-08
1.03887e-08
5.15401e-11
1.97115e-11
4.50638e-13
8.13953e-17
4.78054e-13
2.08492e-11
5.50418e-11
9.21835e-09
7.29131e-08
8.81655e-09
3.79088e-11
1.53284e-11
3.50577e-13
4.86101e-17
3.72157e-13
1.62265e-11
4.05688e-11
7.6407e-09
1.01969e-07
7.29526e-09
2.74658e-11
1.16448e-11
2.65016e-13
2.84835e-17
2.81528e-13
1.23374e-11
2.94566e-11
6.16902e-09
8.43184e-09
5.88281e-09
1.96008e-11
8.63769e-12
1.94698e-13
1.63619e-17
2.06978e-13
9.15921e-12
2.10692e-11
4.82183e-09
1.01617e-08
4.59296e-09
1.37778e-11
6.25144e-12
1.38986e-13
9.20597e-18
1.47859e-13
6.63453e-12
1.4845e-11
3.64942e-09
3.80529e-09
3.47375e-09
9.53895e-12
4.41044e-12
9.63579e-14
5.06884e-18
1.02583e-13
4.68469e-12
1.03032e-11
2.6679e-09
3.07517e-09
2.53827e-09
6.50458e-12
3.02989e-12
6.48296e-14
2.72867e-18
6.90662e-14
3.221e-12
7.04361e-12
1.88264e-09
2.15984e-09
1.79072e-09
4.36795e-12
2.02421e-12
4.22834e-14
1.43478e-18
4.50765e-14
2.15366e-12
4.7422e-12
1.28238e-09
1.42184e-09
1.2197e-09
2.88777e-12
1.31314e-12
2.66985e-14
7.36188e-19
2.84792e-14
1.3982e-12
3.14334e-12
8.43255e-10
9.24459e-10
8.02097e-10
1.87883e-12
8.25691e-13
1.62924e-14
3.68239e-19
1.73879e-14
8.79797e-13
2.05032e-12
5.35295e-10
5.86054e-10
5.09224e-10
1.20225e-12
5.02167e-13
9.5885e-15
1.79376e-19
1.02372e-14
5.35391e-13
1.3152e-12
3.27871e-10
3.55199e-10
3.11917e-10
7.561e-13
2.94636e-13
5.42837e-15
8.50035e-20
5.79691e-15
3.14263e-13
8.29043e-13
1.93492e-10
2.05504e-10
1.84065e-10
4.67016e-13
1.66251e-13
2.94699e-15
3.9146e-20
3.14713e-15
1.77359e-13
5.13176e-13
1.09733e-10
1.12617e-10
1.04368e-10
2.83101e-13
8.9863e-14
1.52837e-15
1.75005e-20
1.63183e-15
9.58549e-14
3.11712e-13
5.95769e-11
5.82894e-11
5.66495e-11
1.68234e-13
4.62984e-14
7.53797e-16
7.58699e-21
8.04474e-16
4.9358e-14
1.85567e-13
3.08184e-11
2.8317e-11
2.92942e-11
9.65955e-14
2.25865e-14
3.51709e-16
3.18637e-21
3.75139e-16
2.40513e-14
1.05125e-13
1.51092e-11
1.28446e-11
1.43546e-11
4.96748e-14
1.03496e-14
1.54412e-16
1.29509e-21
1.64628e-16
1.10117e-14
5.3712e-14
6.98269e-12
5.41033e-12
6.63014e-12
2.32692e-14
4.43661e-15
6.35155e-17
5.08958e-22
6.76926e-17
4.71713e-15
2.50533e-14
3.02333e-12
2.10521e-12
2.86887e-12
9.95537e-15
1.77034e-15
2.43587e-17
1.93229e-22
2.59523e-17
1.88112e-15
1.06866e-14
1.21856e-12
7.52657e-13
1.1555e-12
3.88561e-15
6.54005e-16
8.66495e-18
7.08188e-23
9.22915e-18
6.94553e-16
4.16195e-15
4.54165e-13
2.45964e-13
4.30337e-13
1.37949e-15
2.22449e-16
2.84453e-18
2.50402e-23
3.02891e-18
2.36122e-16
1.47523e-15
1.55458e-13
7.30881e-14
1.47183e-13
4.44e-16
6.93178e-17
8.57972e-19
8.53744e-24
9.13323e-19
7.35424e-17
4.74233e-16
4.85536e-14
1.96585e-14
4.5931e-14
1.29252e-16
1.97206e-17
2.37093e-19
2.80596e-24
2.52306e-19
2.09117e-17
1.37917e-16
1.37684e-14
4.77577e-15
1.30144e-14
3.40391e-17
5.11861e-18
6.0015e-20
8.88881e-25
6.38418e-20
5.42467e-18
3.629e-17
3.53866e-15
1.04962e-15
3.34255e-15
8.14228e-18
1.21586e-18
1.39616e-20
2.71424e-25
1.48456e-20
1.28774e-18
8.67365e-18
8.26643e-16
2.0996e-16
7.8041e-16
1.78308e-18
2.66187e-19
3.00577e-21
7.99141e-26
3.19485e-21
2.81746e-19
1.89795e-18
1.7683e-16
3.85789e-17
1.66876e-16
3.61417e-19
5.4265e-20
6.04613e-22
2.26979e-26
6.42537e-22
5.74089e-20
3.84435e-19
3.50305e-17
6.58332e-18
3.30485e-17
6.86045e-20
1.04147e-20
1.1474e-22
6.22336e-27
1.21981e-22
1.10175e-20
7.29458e-20
6.51257e-18
1.05397e-18
6.14147e-18
1.22843e-20
1.89506e-21
2.06642e-23
1.64845e-27
2.19987e-23
2.00639e-21
1.30652e-20
1.14697e-18
1.58901e-19
1.08065e-18
2.0724e-21
3.27082e-22
3.53477e-24
4.22178e-28
3.7748e-24
3.47114e-22
2.20723e-21
1.91251e-19
2.24196e-20
1.79861e-19
3.27753e-22
5.35371e-23
5.75534e-25
1.04625e-28
6.18306e-25
5.70962e-23
3.50245e-22
2.9994e-20
2.92467e-21
2.81101e-20
4.87617e-23
8.40293e-24
9.04803e-26
2.51104e-29
9.82254e-26
9.04317e-24
5.24592e-23
4.42988e-21
3.4936e-22
4.12504e-21
6.97415e-24
1.30315e-24
1.41818e-26
5.84228e-30
1.56471e-26
1.42339e-24
7.59625e-24
6.2894e-22
3.80693e-23
5.78912e-22
9.99581e-25
2.08548e-25
2.31112e-27
1.32003e-30
2.60373e-27
2.32469e-25
1.11064e-24
8.94627e-23
3.78212e-24
8.07887e-23
1.51379e-25
3.57513e-26
4.03737e-28
2.90785e-31
4.64557e-28
4.07317e-26
1.72615e-25
1.34569e-23
3.43229e-25
1.1839e-23
2.5107e-26
6.60734e-27
7.55019e-29
6.30209e-32
8.83192e-29
7.66346e-27
2.9361e-26
2.22321e-24
2.86392e-26
1.90385e-24
4.51956e-27
1.28214e-27
1.46871e-29
1.36896e-32
1.73616e-29
1.50445e-27
5.38275e-27
4.00196e-25
2.22505e-27
3.35737e-25
8.47877e-28
2.52057e-28
2.87509e-30
3.06985e-33
3.41913e-30
2.97716e-28
1.02059e-27
7.52947e-26
1.63595e-28
6.23894e-26
1.59398e-28
4.88835e-29
5.53329e-31
7.31058e-34
6.60289e-31
5.79484e-29
1.9294e-28
1.42171e-26
1.1521e-29
1.17014e-26
2.93165e-29
9.214e-30
1.0336e-31
1.8502e-34
1.23597e-31
1.09455e-29
3.55892e-29
2.62778e-27
7.77483e-31
2.15486e-27
5.2122e-30
1.67553e-30
1.86207e-32
4.79765e-35
2.22975e-32
1.99301e-30
6.33771e-30
4.69615e-28
4.98112e-32
3.84257e-28
8.90768e-31
2.92885e-31
3.22499e-33
1.21307e-35
3.86575e-33
3.48696e-31
1.08418e-30
8.06786e-29
2.99945e-33
6.59191e-29
1.4593e-31
4.91195e-32
5.36051e-34
2.88597e-36
6.4308e-34
5.85187e-32
1.77731e-31
1.32863e-29
1.69238e-34
1.08442e-29
2.28836e-32
7.89487e-33
8.54266e-35
6.3566e-37
1.02554e-34
9.41068e-33
2.78832e-32
2.09418e-30
8.96122e-36
1.70784e-30
3.43199e-33
1.2153e-33
1.30443e-35
1.2924e-37
1.56691e-35
1.4493e-33
4.18327e-33
3.15648e-31
4.46022e-37
2.57238e-31
4.92035e-34
1.79097e-34
1.90775e-36
2.43738e-38
2.29288e-36
2.13667e-34
5.99906e-34
4.54711e-32
2.09038e-38
3.70348e-32
6.74123e-35
2.5261e-35
2.67168e-37
4.29071e-39
3.21265e-37
3.01479e-35
8.22098e-35
6.25833e-33
9.24261e-40
5.09456e-33
8.82468e-36
3.40966e-36
3.58221e-38
7.08302e-40
4.30969e-38
4.07075e-36
1.07639e-35
8.22781e-34
3.86325e-41
6.69459e-34
1.10367e-36
4.40407e-37
4.59839e-39
1.09894e-40
5.53498e-39
5.25993e-37
1.34648e-36
1.03317e-34
1.52988e-42
8.40253e-35
1.31874e-37
5.44382e-38
5.65151e-40
1.60512e-41
6.806e-40
6.50428e-38
1.60921e-37
1.23912e-35
5.75358e-44
1.00728e-35
1.5055e-38
6.44031e-39
6.65073e-41
2.20901e-42
8.01329e-41
7.69792e-39
1.83748e-38
1.41943e-36
2.06009e-45
1.15336e-36
1.64228e-39
7.29345e-40
7.49518e-42
2.86796e-43
9.03502e-42
8.72089e-40
2.00475e-39
1.5531e-37
7.04119e-47
1.26148e-37
1.71201e-40
7.90798e-41
8.09068e-43
3.51663e-44
9.75728e-43
9.45897e-41
2.09015e-40
1.62335e-38
2.30358e-48
1.3181e-38
1.70582e-41
8.21126e-42
8.36717e-44
4.07974e-45
1.00955e-43
9.82507e-42
2.08283e-41
1.62119e-39
7.23356e-50
1.31594e-39
1.62491e-42
8.16778e-43
8.29289e-45
4.48949e-46
1.00107e-44
9.77639e-43
1.98425e-42
1.54727e-40
2.18609e-51
1.25559e-40
1.48025e-43
7.78619e-44
7.88032e-46
4.69713e-47
9.51701e-46
9.32271e-44
1.80774e-43
1.41171e-41
6.37471e-53
1.1453e-41
1.29012e-44
7.11683e-45
7.18291e-47
4.68097e-48
8.67834e-47
8.52369e-45
1.57559e-44
1.23178e-42
1.79769e-54
9.99151e-43
1.07628e-45
6.2407e-46
6.28369e-48
4.44983e-49
7.59458e-48
7.47603e-46
1.31437e-45
1.02834e-43
4.91179e-56
8.34058e-44
8.59878e-47
5.25317e-47
5.27878e-49
4.04037e-50
6.38211e-49
6.29421e-47
1.05001e-46
8.21855e-45
1.30203e-57
6.66562e-45
6.58211e-48
4.24697e-48
4.26071e-50
3.50819e-51
5.1533e-50
5.08993e-48
8.03734e-48
6.29147e-46
3.35108e-59
5.10229e-46
4.8293e-49
3.29921e-49
3.30569e-51
2.9158e-52
4.00032e-51
3.95563e-49
5.8976e-49
4.61546e-47
8.37529e-61
3.74233e-47
3.39782e-50
2.46401e-50
2.46665e-52
2.32184e-53
2.98669e-52
2.95559e-50
4.15006e-50
3.24603e-48
2.0319e-62
2.63134e-48
2.29381e-51
1.77026e-51
1.77125e-53
1.77293e-54
2.1459e-53
2.12439e-51
2.80199e-51
2.18966e-49
4.78128e-64
1.77464e-49
1.48668e-52
1.22422e-52
1.22477e-54
1.29932e-55
1.48467e-54
1.46978e-52
1.81624e-52
1.41756e-50
1.09006e-65
1.14867e-50
9.25671e-54
8.15444e-54
8.16054e-56
9.147e-57
9.89771e-56
9.79431e-54
1.13096e-53
8.81288e-52
2.40482e-67
7.14015e-52
5.54083e-55
5.23506e-55
5.24291e-57
6.19057e-58
6.36245e-57
6.29051e-55
6.77007e-55
5.26492e-53
5.12742e-69
4.26512e-53
3.19074e-56
3.24144e-56
3.25033e-58
4.03102e-59
3.94646e-58
3.89656e-56
3.89872e-56
3.0246e-54
1.05533e-70
2.45003e-54
1.76906e-57
1.93706e-57
1.94582e-59
2.52733e-60
2.36376e-59
2.32948e-57
2.16158e-57
1.67211e-55
2.0946e-72
1.35442e-55
9.45103e-59
1.11799e-58
1.1257e-60
1.52682e-61
1.36816e-60
1.34499e-58
1.15476e-58
8.90259e-57
4.00564e-74
7.21116e-57
4.86896e-60
6.2359e-60
6.29784e-62
8.89346e-63
7.6579e-62
7.50479e-60
5.94862e-60
4.5682e-58
7.37619e-76
3.70043e-58
2.41991e-61
3.36262e-61
3.40838e-63
4.99658e-64
4.14632e-63
4.04828e-61
2.9562e-61
2.26025e-59
1.30746e-77
1.83104e-59
1.15869e-62
1.75095e-62
1.78182e-64
2.705e-65
2.16852e-64
2.10868e-62
1.41529e-62
1.07721e-60
2.23028e-79
8.72754e-61
5.29793e-64
8.73678e-64
8.91906e-66
1.40125e-66
1.08589e-65
1.05248e-63
6.47012e-64
4.90727e-62
3.65727e-81
3.97645e-62
2.2365e-65
4.05041e-65
4.13464e-67
6.74551e-68
5.03533e-67
4.88034e-65
2.73082e-65
2.07111e-63
5.71616e-83
1.67856e-63
7.86999e-67
1.58096e-66
1.60405e-68
2.73985e-69
1.9537e-68
1.90497e-66
9.60745e-67
7.33185e-65
8.15388e-85
5.94344e-65
1.72045e-68
3.85313e-68
3.8884e-70
6.95628e-71
4.73535e-70
4.64201e-68
2.09985e-68
1.61356e-66
8.32252e-87
1.30832e-66
)
;

boundaryField
{
    BotWall
    {
        type            constantAlphaContactAngle;
        gradient        nonuniform List<scalar> 10(4026.81 6.91143 56.906 0.000954765 56.905 6.91171 4026.81 4259.86 187.253 4259.86);
        limit           gradient;
        theta0          30;
        value           nonuniform List<scalar> 10(0.0284782 0.973411 0.0163225 0.986535 0.0163226 0.973411 0.0284786 0.0578205 0.999342 0.0578204);
    }
    FreeStream
    {
        type            inletOutlet;
        inletValue      uniform 0;
        value           uniform 0;
    }
    FrontNBack
    {
        type            empty;
    }
    LeftSide
    {
        type            cyclic;
    }
    RightSide
    {
        type            cyclic;
    }
}


// ************************************************************************* //
