/*--------------------------------*- C++ -*----------------------------------*\
| =========                 |                                                 |
| \\      /  F ield         | OpenFOAM: The Open Source CFD Toolbox           |
|  \\    /   O peration     | Version:  2.4.0                                 |
|   \\  /    A nd           | Web:      www.OpenFOAM.org                      |
|    \\/     M anipulation  |                                                 |
\*---------------------------------------------------------------------------*/
FoamFile
{
    version     2.0;
    format      ascii;
    class       volScalarField;
    location    "0.4";
    object      H;
}
// * * * * * * * * * * * * * * * * * * * * * * * * * * * * * * * * * * * * * //

dimensions      [0 2 -2 0 0 0 0];

internalField   nonuniform List<scalar> 
1000
(
-2256.33
-7596.35
-2076.51
-9807.96
-2076.51
-7596.4
-2256.38
-1407.75
-8236.33
-1407.74
-1872.33
-5468.28
-2168.46
-9466.8
-2168.5
-5468.33
-1872.44
-1088.71
-148.447
-1088.62
-1793.94
-4969.07
-1990.84
-6856.33
-1990.9
-4969.19
-1794.15
-967.849
-123.653
-967.697
-1711.02
-4525.5
-1893.2
-6437.16
-1893.29
-4525.68
-1711.32
-917.574
-155.356
-917.35
-1625.58
-4128.83
-1789.75
-6033.88
-1789.88
-4129.07
-1625.96
-870.715
-182.729
-870.421
-1539.18
-3772.22
-1683.76
-5647.26
-1683.91
-3772.51
-1539.64
-826.925
-206.183
-826.566
-1453.02
-3450.18
-1577.69
-5277.78
-1577.86
-3450.52
-1453.56
-785.908
-226.1
-785.484
-1368.06
-3158.25
-1473.34
-4925.68
-1473.53
-3158.63
-1368.66
-747.36
-242.828
-746.872
-1285.03
-2892.76
-1372.02
-4591
-1372.22
-2893.18
-1285.7
-711.01
-256.687
-710.459
-1204.48
-2650.66
-1274.64
-4273.62
-1274.85
-2651.13
-1205.22
-676.636
-267.967
-676.022
-1126.82
-2429.41
-1181.79
-3973.29
-1182.01
-2429.91
-1127.61
-644.06
-276.92
-643.387
-1052.33
-2226.82
-1093.84
-3689.67
-1094.06
-2227.35
-1053.16
-613.139
-283.768
-612.411
-981.181
-2041.04
-1010.94
-3422.31
-1011.17
-2041.6
-982.062
-583.752
-288.72
-582.973
-913.496
-1870.47
-933.163
-3170.72
-933.391
-1871.06
-914.417
-555.795
-291.974
-554.969
-849.326
-1713.71
-860.434
-2934.36
-860.663
-1714.32
-850.281
-529.179
-293.71
-528.309
-788.675
-1569.53
-792.63
-2712.66
-792.858
-1570.15
-789.661
-503.824
-294.099
-502.915
-731.513
-1436.84
-729.574
-2505.01
-729.8
-1437.47
-732.525
-479.663
-293.293
-478.718
-677.78
-1314.67
-671.055
-2310.81
-671.279
-1315.32
-678.812
-456.633
-291.434
-455.656
-627.391
-1202.17
-616.845
-2129.43
-617.066
-1202.83
-628.439
-434.678
-288.65
-433.673
-580.247
-1098.55
-566.705
-1960.26
-566.923
-1099.21
-581.307
-413.744
-285.057
-412.715
-536.236
-1003.12
-520.382
-1802.68
-520.596
-1003.78
-537.305
-393.785
-280.76
-392.736
-495.208
-915.299
-477.592
-1656.08
-477.802
-915.963
-496.279
-374.753
-275.854
-373.688
-457.004
-834.562
-438.076
-1519.86
-438.281
-835.224
-458.075
-356.606
-270.424
-355.528
-421.474
-760.404
-401.597
-1393.44
-401.798
-761.062
-422.54
-339.302
-264.544
-338.215
-388.47
-692.349
-367.935
-1276.26
-368.131
-693.001
-389.526
-322.801
-258.285
-321.708
-357.847
-629.951
-336.889
-1167.77
-337.079
-630.595
-358.892
-307.065
-251.706
-305.97
-329.468
-572.79
-308.269
-1067.45
-308.454
-573.426
-330.498
-292.056
-244.862
-290.962
-303.198
-520.473
-281.901
-974.774
-282.081
-521.098
-304.209
-277.739
-237.802
-276.649
-278.907
-472.63
-257.623
-889.273
-257.798
-473.244
-279.897
-264.08
-230.571
-262.997
-256.469
-428.916
-235.283
-810.476
-235.452
-429.517
-257.437
-251.044
-223.207
-249.972
-235.763
-389.009
-214.741
-737.94
-214.904
-389.596
-236.706
-238.601
-215.745
-237.542
-216.673
-352.606
-195.863
-671.242
-196.021
-353.179
-217.591
-226.72
-208.217
-225.675
-199.09
-319.429
-178.529
-609.983
-178.681
-319.986
-199.98
-215.37
-200.653
-214.343
-182.906
-289.214
-162.623
-553.781
-162.769
-289.756
-183.768
-204.525
-193.077
-203.518
-168.021
-261.72
-148.037
-502.276
-148.178
-262.245
-168.854
-194.157
-185.514
-193.172
-154.339
-236.721
-134.673
-455.129
-134.809
-237.229
-155.142
-184.242
-177.984
-183.28
-141.771
-214.008
-122.438
-412.019
-122.568
-214.498
-142.544
-174.755
-170.507
-173.818
-130.231
-193.386
-111.244
-372.643
-111.368
-193.858
-130.973
-165.676
-163.101
-164.765
-119.638
-174.677
-101.01
-336.719
-101.129
-175.132
-120.35
-156.982
-155.784
-156.099
-109.919
-157.716
-91.6621
-303.979
-91.7758
-158.152
-110.6
-148.656
-148.57
-147.801
-101
-142.348
-83.1289
-274.174
-83.2374
-142.766
-101.651
-140.68
-141.474
-139.854
-92.8169
-128.434
-75.3454
-247.071
-75.4489
-128.834
-93.4371
-133.039
-134.509
-132.242
-85.3065
-115.842
-68.251
-222.451
-68.3496
-116.225
-85.8966
-125.718
-127.687
-124.951
-78.4122
-104.455
-61.7894
-200.111
-61.8833
-104.82
-78.9727
-118.704
-121.019
-117.968
-72.0813
-94.1625
-55.9085
-179.862
-55.9976
-94.5096
-72.6127
-111.986
-114.515
-111.28
-66.2654
-84.8635
-50.5596
-161.526
-50.6443
-85.1934
-66.7683
-105.552
-108.185
-104.876
-60.9201
-76.4661
-45.6982
-144.942
-45.7784
-76.7792
-61.3953
-99.392
-102.036
-98.746
-56.0049
-68.8862
-41.2826
-129.956
-41.3585
-69.1827
-56.4531
-93.4966
-96.0749
-92.8803
-51.4827
-62.0466
-37.2746
-116.428
-37.3464
-62.327
-51.9046
-87.857
-90.3089
-87.2703
-47.3197
-55.877
-33.6389
-104.229
-33.7067
-56.1419
-47.7163
-82.4654
-84.7429
-81.9077
-43.4853
-50.3135
-30.343
-93.2395
-30.4068
-50.5632
-43.8573
-77.3142
-79.381
-76.7851
-39.9514
-45.2976
-27.3567
-83.3483
-27.4169
-45.5326
-40.2999
-72.3964
-74.2267
-71.8952
-36.693
-40.7764
-24.6526
-74.4543
-24.7092
-40.9972
-37.0189
-67.7053
-69.2825
-67.2315
-33.687
-36.7017
-22.2053
-66.4642
-22.2584
-36.9089
-33.9912
-63.2347
-64.5498
-62.7875
-30.9128
-33.0298
-19.9916
-59.2926
-20.0414
-33.2239
-31.1963
-58.9785
-60.0294
-58.5573
-28.3516
-29.7212
-17.9902
-52.8612
-18.0368
-29.9026
-28.6153
-54.931
-55.7212
-54.5349
-25.9863
-26.7401
-16.1815
-47.0983
-16.2251
-26.9094
-26.2312
-51.0864
-51.624
-50.7146
-23.8016
-24.054
-14.5479
-41.9386
-14.5886
-24.2118
-24.0287
-47.4393
-47.7363
-47.0909
-21.7835
-21.6337
-13.0729
-37.3226
-13.1108
-21.7806
-21.9937
-43.984
-44.0553
-43.6582
-19.9194
-19.4529
-11.7417
-33.1959
-11.777
-19.5893
-20.1135
-40.7152
-40.5781
-40.4111
-18.1975
-17.4877
-10.5407
-29.5095
-10.5735
-17.6142
-18.3765
-37.6273
-37.3005
-37.344
-16.6076
-15.7167
-9.45769
-26.2184
-9.48812
-15.8338
-16.7724
-34.7149
-34.2183
-34.4515
-15.1399
-14.1206
-8.48136
-23.2822
-8.50955
-14.2288
-15.2913
-31.9724
-31.3263
-31.728
-13.7857
-12.682
-7.60152
-20.6642
-7.6276
-12.7819
-13.9245
-29.3943
-28.619
-29.1679
-12.5368
-11.3853
-6.80891
-18.3312
-6.83299
-11.4773
-12.6639
-26.9749
-26.0906
-26.7655
-11.3859
-10.2164
-6.09511
-16.2534
-6.11731
-10.301
-11.502
-24.7084
-23.7346
-24.5153
-10.326
-9.16275
-5.45249
-14.4037
-5.47293
-9.24032
-10.4319
-22.5891
-21.5444
-22.4113
-9.35088
-8.2129
-4.87416
-12.7579
-4.89294
-8.28395
-9.44724
-20.6112
-19.5132
-20.4479
-8.45456
-7.35668
-4.35385
-11.2941
-4.37108
-7.42163
-8.54208
-18.7688
-17.6338
-18.6191
-7.63156
-6.58489
-3.88589
-9.99273
-3.90167
-6.64415
-7.71088
-17.056
-15.8991
-16.919
-6.87675
-5.8893
-3.46516
-8.83624
-3.4796
-5.94326
-6.94848
-15.4668
-14.3016
-15.3418
-6.18534
-5.26246
-3.08703
-7.80882
-3.10022
-5.3115
-6.25007
-13.9954
-12.834
-13.8816
-5.55283
-4.69769
-2.74732
-6.89636
-2.75934
-4.74217
-5.61112
-12.6359
-11.4891
-12.5325
-4.97503
-4.18899
-2.44224
-6.08625
-2.45318
-4.22923
-5.02739
-11.3824
-10.2595
-11.2887
-4.44796
-3.73092
-2.16837
-5.36719
-2.17832
-3.76726
-4.49489
-10.2291
-9.138
-10.1444
-3.96792
-3.31859
-1.92263
-4.72911
-1.93167
-3.35133
-4.00987
-9.17031
-8.11766
-9.09395
-3.53141
-2.9476
-1.70223
-4.16302
-1.71042
-2.97703
-3.56881
-8.20039
-7.19158
-8.13172
-3.13514
-2.61397
-1.50466
-3.66092
-1.51206
-2.64035
-3.1684
-7.31384
-6.3531
-7.25225
-2.77602
-2.3141
-1.32764
-3.21568
-1.3343
-2.33769
-2.80551
-6.5053
-5.5958
-6.45022
-2.45115
-2.04473
-1.16912
-2.82095
-1.17508
-2.06577
-2.47721
-5.76955
-4.91351
-5.72044
-2.1578
-1.80292
-1.02724
-2.47106
-1.03256
-1.82163
-2.18076
-5.10154
-4.30031
-5.05789
-1.89341
-1.58601
-0.900337
-2.16098
-0.905066
-1.60259
-1.91357
-4.4964
-3.75059
-4.45773
-1.65559
-1.39158
-0.786913
-1.88623
-0.791097
-1.40623
-1.67323
-3.94945
-3.259
-3.91532
-1.4421
-1.21745
-0.685612
-1.64281
-0.689298
-1.23034
-1.45747
-3.45622
-2.82051
-3.42621
-1.25085
-1.06163
-0.595216
-1.42719
-0.598447
-1.07293
-1.26417
-3.01242
-2.43039
-2.98614
-1.07987
-0.922318
-0.514628
-1.23619
-0.517445
-0.932181
-1.09138
-2.614
-2.08419
-2.5911
-0.927374
-0.797882
-0.442857
-1.06702
-0.445299
-0.806447
-0.937248
-2.25712
-1.77778
-2.23726
-0.791662
-0.686838
-0.379014
-0.917183
-0.381117
-0.694236
-0.800085
-1.93816
-1.50731
-1.92103
-0.67118
-0.58784
-0.322297
-0.784458
-0.324095
-0.594189
-0.678315
-1.6537
-1.26922
-1.63903
-0.564489
-0.499667
-0.271984
-0.666871
-0.273508
-0.505074
-0.570482
-1.40056
-1.06022
-1.38809
-0.470261
-0.421208
-0.227427
-0.56267
-0.228706
-0.425773
-0.475247
-1.17576
-0.877309
-1.16526
-0.387279
-0.351458
-0.188042
-0.470292
-0.189102
-0.355271
-0.391379
-0.976548
-0.717716
-0.967798
-0.314425
-0.289503
-0.153307
-0.388351
-0.154172
-0.292644
-0.317747
-0.800352
-0.578925
-0.793159
-0.250679
-0.234515
-0.12275
-0.315609
-0.123444
-0.237059
-0.253322
-0.644811
-0.458649
-0.639001
-0.19511
-0.185742
-0.0959526
-0.250968
-0.0964955
-0.187755
-0.197163
-0.507751
-0.354817
-0.503165
-0.146874
-0.142504
-0.0725374
-0.193448
-0.0729479
-0.144046
-0.148415
-0.387179
-0.265559
-0.383675
-0.105206
-0.104183
-0.0521688
-0.142175
-0.0524639
-0.105308
-0.106307
-0.281274
-0.189197
-0.278724
-0.069415
-0.0702201
-0.0345477
-0.0963708
-0.0347429
-0.0709768
-0.0701393
-0.188378
-0.124227
-0.186668
-0.0388794
-0.0401088
-0.0194083
-0.055338
-0.0195179
-0.04054
-0.039284
-0.106985
-0.0693052
-0.106014
-0.013042
-0.0133894
-0.00651551
-0.0184542
-0.00655231
-0.0135335
-0.0131778
-0.0357347
-0.0232382
-0.0354101
)
;

boundaryField
{
    BotWall
    {
        type            zeroGradient;
    }
    FreeStream
    {
        type            zeroGradient;
    }
    FrontNBack
    {
        type            empty;
    }
    LeftSide
    {
        type            cyclic;
    }
    RightSide
    {
        type            cyclic;
    }
}


// ************************************************************************* //
