/*--------------------------------*- C++ -*----------------------------------*\
| =========                 |                                                 |
| \\      /  F ield         | OpenFOAM: The Open Source CFD Toolbox           |
|  \\    /   O peration     | Version:  2.4.0                                 |
|   \\  /    A nd           | Web:      www.OpenFOAM.org                      |
|    \\/     M anipulation  |                                                 |
\*---------------------------------------------------------------------------*/
FoamFile
{
    version     2.0;
    format      ascii;
    class       volScalarField;
    location    "0.4";
    object      p;
}
// * * * * * * * * * * * * * * * * * * * * * * * * * * * * * * * * * * * * * //

dimensions      [1 -1 -2 0 0 0 0];

internalField   nonuniform List<scalar> 
1000
(
1.17092
93.6288
0.796792
28.0041
0.796543
93.6282
1.16926
0.285269
2.69061
0.286843
-0.000175318
-0.0253567
0.0296387
0.0510241
0.0293766
-0.0259552
-0.0017415
0.387302
0.874672
0.388878
-0.000155464
0.00990855
-0.00475723
-0.000168709
-0.00501827
0.00930933
-0.00168366
0.000342557
-0.0341129
0.00185976
-0.00285419
0.00441219
-0.00710318
0.00148566
-0.00736388
0.00381323
-0.00434451
-0.00141171
0.00425011
5.61986e-05
-0.00421123
0.000428697
-0.00866027
0.000733368
-0.00892053
-0.000169449
-0.00566265
-0.00274453
-0.00155038
-0.00132422
-0.00487839
-0.000915495
-0.00934212
-0.000125633
-0.00960182
-0.00151232
-0.00629213
-0.00347031
-0.00566553
-0.00209661
-0.00547306
-0.00149207
-0.00983831
-0.000826448
-0.0100973
-0.00208708
-0.00684985
-0.00404409
-0.00695009
-0.00271564
-0.00612413
-0.00211376
-0.0103748
-0.00147101
-0.010633
-0.00270648
-0.00746467
-0.00464012
-0.00744612
-0.00335558
-0.00680593
-0.00282816
-0.0109496
-0.00212556
-0.0112068
-0.00341813
-0.00811099
-0.00526463
-0.00785429
-0.00402277
-0.00749565
-0.00356544
-0.0115376
-0.00279872
-0.0117938
-0.00415222
-0.00876595
-0.00590126
-0.00847673
-0.00470078
-0.00818844
-0.00429787
-0.0121306
-0.00348488
-0.0123857
-0.00488104
-0.00942473
-0.00654367
-0.00917586
-0.00538313
-0.00888512
-0.00502478
-0.0127284
-0.00418036
-0.0129822
-0.00560394
-0.0100881
-0.00719094
-0.00973732
-0.00606915
-0.00958636
-0.00574963
-0.0133315
-0.00488393
-0.013584
-0.00632442
-0.0107568
-0.00784368
-0.0105429
-0.00675955
-0.0102922
-0.00647418
-0.0139402
-0.00559504
-0.0141912
-0.00704424
-0.0114307
-0.00850205
-0.0112399
-0.00745452
-0.0110025
-0.00719913
-0.0145543
-0.00631326
-0.0148036
-0.00776412
-0.0121099
-0.00916611
-0.0119105
-0.00815414
-0.0117173
-0.00792493
-0.0151738
-0.00703815
-0.0154214
-0.00848455
-0.0127941
-0.0098359
-0.0125763
-0.00885845
-0.0124363
-0.00865196
-0.0157987
-0.00776935
-0.0160445
-0.0092059
-0.0134833
-0.0105114
-0.0132477
-0.00956749
-0.0131599
-0.00938029
-0.0164295
-0.00850658
-0.0166734
-0.00992826
-0.0141777
-0.0111926
-0.0139241
-0.0102813
-0.0138882
-0.0101099
-0.0170665
-0.00924962
-0.0173083
-0.0106516
-0.0148774
-0.0118796
-0.0144888
-0.0109999
-0.014621
-0.0108424
-0.0177085
-0.0099983
-0.0179483
-0.0113776
-0.0155825
-0.0125725
-0.0153377
-0.0117235
-0.0153564
-0.0115828
-0.018353
-0.0107525
-0.0185907
-0.0121113
-0.0162905
-0.0132711
-0.0160921
-0.0124519
-0.0160952
-0.012328
-0.0190022
-0.0115121
-0.0192377
-0.0128494
-0.0170028
-0.0139755
-0.0167868
-0.0131852
-0.0168383
-0.0130774
-0.0196567
-0.012277
-0.0198899
-0.0135914
-0.0177199
-0.0146857
-0.0173862
-0.0139236
-0.0175854
-0.0138313
-0.0203163
-0.0130473
-0.0205472
-0.0143378
-0.0184417
-0.0154019
-0.0182613
-0.0146671
-0.0183366
-0.0145902
-0.0209812
-0.0138229
-0.0212096
-0.015089
-0.0191681
-0.0161238
-0.0189894
-0.0154154
-0.0190918
-0.0153542
-0.0216514
-0.0146036
-0.0218773
-0.0158452
-0.0198992
-0.0168514
-0.0197077
-0.0161688
-0.0198511
-0.0161234
-0.0223271
-0.0153897
-0.0225504
-0.0166064
-0.0206349
-0.017585
-0.0204735
-0.0169274
-0.0206145
-0.0168978
-0.0230084
-0.016181
-0.0232291
-0.0173728
-0.0213752
-0.0183243
-0.0212038
-0.017691
-0.021382
-0.0176775
-0.0236955
-0.0169775
-0.0239134
-0.0181443
-0.0221203
-0.0190694
-0.0219386
-0.0184598
-0.0221538
-0.0184627
-0.0243884
-0.0177792
-0.0246035
-0.0189212
-0.0228701
-0.0198204
-0.0226799
-0.0192337
-0.0229298
-0.0192532
-0.0250873
-0.0185862
-0.0252995
-0.0197034
-0.0236247
-0.020577
-0.0234273
-0.0200127
-0.0237102
-0.0200493
-0.0257922
-0.0193985
-0.0260014
-0.0204911
-0.0243841
-0.0213393
-0.024181
-0.0207968
-0.0244949
-0.0208509
-0.0265032
-0.0202161
-0.0267094
-0.0212842
-0.0251485
-0.0221079
-0.0249399
-0.0215862
-0.0252841
-0.021658
-0.0272203
-0.021039
-0.0274235
-0.0220828
-0.0259178
-0.0228848
-0.0257014
-0.0223819
-0.0260778
-0.0224708
-0.0279437
-0.0218672
-0.0281438
-0.0228871
-0.026692
-0.0236678
-0.0264686
-0.0231829
-0.026876
-0.0232892
-0.0286734
-0.0227008
-0.0288703
-0.0236969
-0.0274714
-0.0244566
-0.0272417
-0.0239891
-0.0276791
-0.0241133
-0.0294094
-0.0235398
-0.0296031
-0.0245125
-0.0282561
-0.0252513
-0.0280206
-0.0248005
-0.0284871
-0.0249431
-0.0301518
-0.0243842
-0.0303422
-0.0253337
-0.029046
-0.0260519
-0.0288053
-0.0256173
-0.0292994
-0.0257787
-0.0309006
-0.025234
-0.0310877
-0.0261607
-0.0298407
-0.0268591
-0.0295958
-0.0264399
-0.0301152
-0.0266201
-0.0316559
-0.0260894
-0.0318396
-0.0269936
-0.0306394
-0.0276736
-0.030392
-0.0272696
-0.0309357
-0.0274673
-0.0324176
-0.0269502
-0.032598
-0.0278323
-0.0314434
-0.0284942
-0.031194
-0.0281049
-0.0317613
-0.0283204
-0.0331859
-0.0278166
-0.0333629
-0.0286768
-0.0322527
-0.029321
-0.0320017
-0.0289458
-0.0325917
-0.0291793
-0.0339608
-0.0286886
-0.0341343
-0.0295274
-0.0330673
-0.0301541
-0.0328153
-0.0297926
-0.033427
-0.0300442
-0.0347423
-0.0295662
-0.0349123
-0.0303839
-0.0338871
-0.0309936
-0.0336347
-0.0306453
-0.0342672
-0.0309151
-0.0355303
-0.0304495
-0.0356968
-0.0312464
-0.0347123
-0.0318395
-0.03446
-0.031504
-0.0351124
-0.031792
-0.0363251
-0.0313384
-0.036488
-0.0321149
-0.0355429
-0.0326919
-0.0352912
-0.0323687
-0.0359626
-0.0326749
-0.0371264
-0.0322332
-0.0372859
-0.0329896
-0.0363788
-0.0335507
-0.0361283
-0.0332396
-0.036818
-0.0335639
-0.0379345
-0.0331336
-0.0380904
-0.0338704
-0.0372203
-0.0344161
-0.0369714
-0.0341166
-0.0376785
-0.0344591
-0.0387493
-0.03404
-0.0389016
-0.0347574
-0.0380673
-0.0352881
-0.0378205
-0.0349998
-0.0385443
-0.0353603
-0.0395709
-0.0349521
-0.0397196
-0.0356506
-0.0389198
-0.0361667
-0.0386756
-0.0358892
-0.0394154
-0.0362678
-0.0403992
-0.0358702
-0.0405443
-0.03655
-0.0397781
-0.037052
-0.0395367
-0.036785
-0.0402918
-0.0371814
-0.0412344
-0.0367942
-0.0413758
-0.0374558
-0.040642
-0.0379439
-0.040404
-0.0376871
-0.0411737
-0.0381014
-0.0420763
-0.0377243
-0.0422141
-0.0383679
-0.0415117
-0.0388425
-0.0412773
-0.0385956
-0.0420611
-0.0390276
-0.0429251
-0.0386603
-0.0430592
-0.0392864
-0.0423872
-0.0397479
-0.0421569
-0.0395105
-0.042954
-0.0399602
-0.0437808
-0.0396025
-0.0439112
-0.0402113
-0.0432686
-0.0406601
-0.0430426
-0.0404319
-0.0438526
-0.0408992
-0.0446433
-0.0405507
-0.0447701
-0.0411427
-0.0441559
-0.0415791
-0.0439346
-0.0413598
-0.0447569
-0.0418446
-0.0455128
-0.0415052
-0.0456359
-0.0420806
-0.0450493
-0.042505
-0.0448328
-0.0422943
-0.045667
-0.0427964
-0.0463893
-0.0424658
-0.0465087
-0.043025
-0.0459486
-0.0434378
-0.0457374
-0.0432354
-0.0465828
-0.0437548
-0.0472727
-0.0434327
-0.0473884
-0.0439761
-0.0468542
-0.0443775
-0.0466483
-0.0441832
-0.0475046
-0.0447197
-0.0481631
-0.044406
-0.0482752
-0.0449338
-0.0477658
-0.0453241
-0.0475655
-0.0451377
-0.0484324
-0.0456912
-0.0490606
-0.0453856
-0.0491689
-0.0458982
-0.0486838
-0.0462778
-0.0484893
-0.046099
-0.0493662
-0.0466694
-0.0499651
-0.0463716
-0.0500697
-0.0468693
-0.049608
-0.0472386
-0.0494195
-0.047067
-0.0503061
-0.0476542
-0.0508767
-0.047364
-0.0509776
-0.0478472
-0.0505385
-0.0482064
-0.0503562
-0.048042
-0.0512522
-0.0486457
-0.0517954
-0.048363
-0.0518926
-0.0488319
-0.0514755
-0.0491813
-0.0512994
-0.0490238
-0.0522045
-0.0496441
-0.0527213
-0.0493685
-0.0528148
-0.0498235
-0.0524189
-0.0501635
-0.0522493
-0.0500126
-0.0531631
-0.0506492
-0.0536544
-0.0503807
-0.0537441
-0.0508221
-0.0533689
-0.0511528
-0.0532058
-0.0510084
-0.054128
-0.0516613
-0.0545947
-0.0513994
-0.0546806
-0.0518276
-0.0543254
-0.0521494
-0.054169
-0.0520113
-0.0550994
-0.0526802
-0.0555423
-0.0524249
-0.0556243
-0.0528401
-0.0552886
-0.0531533
-0.0551389
-0.0530213
-0.0560772
-0.0537061
-0.0564971
-0.0534572
-0.0565753
-0.0538596
-0.0562585
-0.0541646
-0.0561156
-0.0540384
-0.0570616
-0.054739
-0.0574593
-0.0544962
-0.0575335
-0.0548863
-0.0572351
-0.0551832
-0.0570992
-0.0550627
-0.0580526
-0.055779
-0.0584288
-0.0555421
-0.0584991
-0.0559202
-0.0582186
-0.0562093
-0.0580896
-0.0560943
-0.0590503
-0.0568261
-0.0594057
-0.0565949
-0.059472
-0.0569613
-0.0592089
-0.0572428
-0.059087
-0.0571332
-0.0600547
-0.0578804
-0.0603901
-0.0576546
-0.0604524
-0.0580096
-0.0602061
-0.0582838
-0.0600914
-0.0581794
-0.0610659
-0.0589419
-0.0613821
-0.0587212
-0.0614401
-0.0590653
-0.0612103
-0.0593325
-0.0611028
-0.0592331
-0.062084
-0.0600106
-0.0623816
-0.0597952
-0.0624351
-0.0601283
-0.0622215
-0.0603887
-0.0621213
-0.0602942
-0.063109
-0.0610867
-0.0633886
-0.0608763
-0.0634374
-0.0611987
-0.0632399
-0.0614526
-0.0631469
-0.0613628
-0.0641409
-0.0621701
-0.0644031
-0.0619648
-0.0644471
-0.0622766
-0.0642653
-0.0625241
-0.0641798
-0.062439
-0.06518
-0.063261
-0.0654251
-0.0630608
-0.0654642
-0.0633621
-0.065298
-0.0636035
-0.0652199
-0.0635229
-0.0662261
-0.0643593
-0.0664547
-0.0641641
-0.0664889
-0.0644551
-0.066338
-0.0646906
-0.0662673
-0.0646144
-0.0672794
-0.0654651
-0.0674918
-0.0652726
-0.0675233
-0.0655558
-0.0673852
-0.0657856
-0.0673221
-0.0657136
-0.06834
-0.0665785
-0.068535
-0.0663902
-0.0685653
-0.0666642
-0.0684398
-0.0668885
-0.0683843
-0.0668206
-0.0694078
-0.0676996
-0.0695857
-0.0675157
-0.0696148
-0.0677803
-0.0695019
-0.0679993
-0.069454
-0.0679355
-0.070483
-0.0688283
-0.0706441
-0.0686488
-0.070672
-0.0689042
-0.0705715
-0.0691182
-0.0705313
-0.0690583
-0.0715657
-0.0699648
-0.0717102
-0.0697895
-0.0717369
-0.070036
-0.0716486
-0.0702451
-0.0716162
-0.0701891
-0.0726558
-0.071109
-0.0727841
-0.070938
-0.0728095
-0.0711756
-0.0727332
-0.0713801
-0.0727087
-0.0713278
-0.0737535
-0.0722611
-0.0738658
-0.0720942
-0.0738899
-0.0723232
-0.0738256
-0.0725232
-0.073809
-0.0724747
-0.0748588
-0.0734212
-0.0749555
-0.0732582
-0.0749782
-0.0734787
-0.0749257
-0.0736746
-0.0749171
-0.0736296
-0.0759718
-0.0745892
-0.076053
-0.0744301
-0.0760743
-0.0746423
-0.0760335
-0.0748343
-0.0760331
-0.0747928
-0.0770926
-0.0757652
-0.0771585
-0.07561
-0.0771783
-0.075814
-0.0771492
-0.0760022
-0.077157
-0.0759643
-0.0782211
-0.0769493
-0.078272
-0.0767978
-0.0782903
-0.0769939
-0.0782728
-0.0771786
-0.0782889
-0.077144
-0.0793576
-0.0781416
-0.0793935
-0.0779937
-0.0794103
-0.0781819
-0.0794043
-0.0783633
-0.0794289
-0.0783322
-0.080502
-0.0793421
-0.0805231
-0.0791977
-0.0805382
-0.0793782
-0.0805438
-0.0795566
-0.0805771
-0.0795287
-0.0816544
-0.0805509
-0.0816608
-0.0804098
-0.0816743
-0.0805829
-0.0816914
-0.0807584
-0.0817334
-0.0807338
-0.0828149
-0.081768
-0.0828067
-0.0816302
-0.0828185
-0.0817959
-0.0828471
-0.0819688
-0.0828981
-0.0819475
-0.0839835
-0.0829936
-0.0839608
-0.0828588
-0.0839709
-0.0830173
-0.084011
-0.0831878
-0.084071
-0.0831697
-0.0851603
-0.0842276
-0.0851232
-0.0840958
-0.0851316
-0.0842472
-0.0851831
-0.0844156
-0.0852524
-0.0844007
-0.0863458
-0.0854699
-0.0862929
-0.085341
-0.0862996
-0.0854854
-0.0863638
-0.0856526
-0.0864431
-0.0856409
-0.0875402
-0.0867203
-0.0874689
-0.0865941
-0.0874739
-0.0867317
-0.0875536
-0.0868997
-0.0876444
-0.0868911
-0.0887423
-0.0879801
-0.0886547
-0.0878564
-0.0886579
-0.0879874
-0.088751
-0.0881546
-0.088853
-0.0881492
-0.0899461
-0.089255
-0.0898698
-0.0891329
-0.089871
-0.089258
-0.0899498
-0.0894054
-0.0900501
-0.0894035
)
;

boundaryField
{
    BotWall
    {
        type            calculated;
        value           nonuniform List<scalar> 10(1.17149 93.647 0.797399 28.0225 0.79715 93.6464 1.16984 0.286371 2.7093 0.287945);
    }
    FreeStream
    {
        type            calculated;
        value           nonuniform List<scalar> 10(-0.0905449 -0.0898991 -0.0904972 -0.0897775 -0.0904974 -0.0898998 -0.0905458 -0.0900222 -0.0906342 -0.0900223);
    }
    FrontNBack
    {
        type            empty;
    }
    LeftSide
    {
        type            cyclic;
    }
    RightSide
    {
        type            cyclic;
    }
}


// ************************************************************************* //
