/*--------------------------------*- C++ -*----------------------------------*\
| =========                 |                                                 |
| \\      /  F ield         | OpenFOAM: The Open Source CFD Toolbox           |
|  \\    /   O peration     | Version:  2.4.0                                 |
|   \\  /    A nd           | Web:      www.OpenFOAM.org                      |
|    \\/     M anipulation  |                                                 |
\*---------------------------------------------------------------------------*/
FoamFile
{
    version     2.0;
    format      ascii;
    class       volScalarField;
    location    "0.4";
    object      p_rgh;
}
// * * * * * * * * * * * * * * * * * * * * * * * * * * * * * * * * * * * * * //

dimensions      [1 -1 -2 0 0 0 0];

internalField   nonuniform List<scalar> 
1000
(
1.17149
93.647
0.797399
28.0225
0.79715
93.6464
1.16984
0.286371
2.7093
0.287945
0.000756702
-0.0244246
0.0307029
0.0618697
0.0304408
-0.0250231
-0.000809484
0.38845
0.921305
0.390026
0.00140299
0.011467
-0.00319878
0.00138974
-0.00345982
0.0108678
-0.000125204
0.00190101
-0.0325545
0.00341822
-0.000664893
0.00660148
-0.00491388
0.00367495
-0.00517459
0.00600253
-0.00215522
0.000777591
0.00643941
0.0022455
-0.00138666
0.00325326
-0.0058357
0.00355793
-0.00609597
0.00265512
-0.00283809
8.00394e-05
0.00127419
0.00150035
-0.00141409
0.00254881
-0.00587782
0.00333867
-0.00613752
0.00195198
-0.00282783
-5.99954e-06
-0.0022012
0.0013677
-0.00136453
0.00261647
-0.00572977
0.00328209
-0.00598878
0.00202145
-0.00274132
6.44482e-05
-0.00284154
0.0013929
-0.00136683
0.00264354
-0.00561746
0.00328628
-0.00587567
0.00205081
-0.00270738
0.000117179
-0.00268881
0.00140172
-0.00139532
0.00258245
-0.00553896
0.00328505
-0.00579624
0.00199248
-0.00270038
0.000145986
-0.00244363
0.00138785
-0.00142713
0.00250307
-0.00546907
0.0032698
-0.0057253
0.00191629
-0.00269744
0.000167265
-0.0024082
0.00136774
-0.0014574
0.00243317
-0.00539955
0.00324616
-0.00565463
0.00185
-0.00269369
0.000187377
-0.00244479
0.00134792
-0.00148689
0.00237344
-0.00533015
0.00321786
-0.00558396
0.00179428
-0.00268989
0.000207294
-0.00233903
0.00132909
-0.00151626
0.00232046
-0.00526145
0.00318617
-0.00551388
0.00174567
-0.00268668
0.000226428
-0.00247283
0.00131056
-0.00154552
0.0022725
-0.00519353
0.00315164
-0.00544447
0.00170245
-0.00268405
0.000244648
-0.00249319
0.00129218
-0.0015745
0.0022289
-0.00512627
0.00311477
-0.00537561
0.00166391
-0.00268184
0.000261931
-0.00248245
0.00127391
-0.00160309
0.00218923
-0.0050596
0.00307602
-0.00530723
0.00162962
-0.00267991
0.000278281
-0.00246211
0.00125573
-0.00163121
0.00215316
-0.00499359
0.00303577
-0.00523941
0.00159922
-0.00267818
0.000293732
-0.00244254
0.00123764
-0.00165895
0.00212064
-0.00492857
0.00299434
-0.00517248
0.00157266
-0.00267674
0.000308327
-0.00242311
0.00121967
-0.00168654
0.00209174
-0.00486484
0.002952
-0.00510673
0.00155001
-0.00267582
0.000321986
-0.00228707
0.00120171
-0.00171381
0.00206486
-0.00480129
0.00290894
-0.00504104
0.00152961
-0.00267524
0.000334726
-0.00243042
0.00118375
-0.00173857
0.00203501
-0.00473517
0.00286533
-0.00497284
0.00150654
-0.00267269
0.000346689
-0.00247419
0.00116589
-0.00176185
0.00200536
-0.00466884
0.0028213
-0.00490434
0.00148398
-0.00266939
0.000357907
-0.00245331
0.00114816
-0.00178426
0.0019766
-0.00460271
0.00277694
-0.00483594
0.00146256
-0.00266587
0.00036825
-0.00233207
0.00113038
-0.00180575
0.00194833
-0.00453669
0.00273234
-0.00476757
0.00144181
-0.00266203
0.000377741
-0.0024816
0.00111258
-0.00182617
0.00192021
-0.00447078
0.00268755
-0.00469923
0.00142138
-0.00265772
0.000386662
-0.00247893
0.00109499
-0.00184549
0.00189212
-0.0044051
0.00264265
-0.00463102
0.00140112
-0.00265288
0.000394927
-0.00246128
0.0010775
-0.00186372
0.00186401
-0.00433973
0.00259768
-0.00456307
0.00138097
-0.00264751
0.000402405
-0.00248613
0.00105997
-0.00188084
0.00183585
-0.00427479
0.00255268
-0.00449546
0.00136088
-0.00264159
0.000409331
-0.00247011
0.0010426
-0.00189689
0.00180761
-0.00421035
0.00250768
-0.00442827
0.00134082
-0.00263514
0.000415722
-0.00245341
0.00102538
-0.00191186
0.00177927
-0.00414648
0.00246272
-0.00436158
0.00132075
-0.00262815
0.000421595
-0.00243798
0.00100827
-0.00192578
0.00175081
-0.00408323
0.00241781
-0.00429545
0.00130064
-0.00262064
0.000427088
-0.00242324
0.000991353
-0.00193866
0.00172222
-0.00402065
0.00237299
-0.00422992
0.00128046
-0.00261262
0.000432239
-0.00240943
0.000974741
-0.00195053
0.0016935
-0.00395878
0.00232827
-0.00416504
0.0012602
-0.00260409
0.0004365
-0.00239556
0.000958153
-0.00196141
0.00166464
-0.00389765
0.00228367
-0.00410084
0.00123983
-0.00259508
0.00043784
-0.00237876
0.000940805
-0.00197133
0.00163564
-0.00383728
0.0022392
-0.00403735
0.00121936
-0.00258561
0.00043862
-0.00236216
0.000923565
-0.00198035
0.0016065
-0.00377769
0.00219487
-0.00397459
0.00119877
-0.00257574
0.000439053
-0.002346
0.000906594
-0.0019886
0.00157721
-0.00371889
0.00215071
-0.00391257
0.00117804
-0.00256559
0.000439192
-0.00233013
0.000889953
-0.00199617
0.00154778
-0.00366089
0.0021067
-0.0038513
0.00115717
-0.00255515
0.000438978
-0.00231444
0.000873604
-0.00200251
0.00151822
-0.00360369
0.00206287
-0.00379079
0.00113616
-0.00254378
0.000437785
-0.00229888
0.000856966
-0.00200661
0.00148852
-0.00354728
0.00201922
-0.00373104
0.00111501
-0.00253084
0.000435013
-0.00228339
0.000839028
-0.00200977
0.00145869
-0.00349167
0.00197576
-0.00367204
0.00109371
-0.0025174
0.000431736
-0.00226798
0.000821082
-0.00201216
0.00142874
-0.00343685
0.00193249
-0.00361379
0.00107225
-0.00250356
0.000428067
-0.00225261
0.000803266
-0.00201367
0.00139868
-0.0033828
0.00188941
-0.00355629
0.00105065
-0.00248924
0.000423897
-0.00223728
0.000785427
-0.00201424
0.0013685
-0.00332952
0.00184654
-0.00349953
0.00102889
-0.00247438
0.000419165
-0.00222197
0.000767474
-0.00201386
0.00133822
-0.003277
0.00180386
-0.0034435
0.00100698
-0.00245896
0.000413862
-0.00220666
0.000749379
-0.00201256
0.00130784
-0.00322521
0.0017614
-0.00338818
0.000984917
-0.00244301
0.000407995
-0.00219135
0.000731134
-0.00201035
0.00127736
-0.00317415
0.00171914
-0.00333357
0.000962707
-0.00242653
0.00040157
-0.00217602
0.000712732
-0.00200727
0.0012468
-0.00312379
0.00167709
-0.00327964
0.000940347
-0.00240954
0.000394595
-0.00216066
0.000694166
-0.00200332
0.00121616
-0.00307413
0.00163525
-0.00322639
0.000917841
-0.00239206
0.000387077
-0.00214526
0.000675432
-0.00199854
0.00118544
-0.00302514
0.00159362
-0.0031738
0.000895189
-0.00237408
0.000379023
-0.00212981
0.000656523
-0.00199295
0.00115465
-0.00297681
0.00155221
-0.00312185
0.000872393
-0.00235564
0.00037044
-0.0021143
0.000637435
-0.00198657
0.0011238
-0.00292911
0.001511
-0.00307052
0.000849456
-0.00233675
0.000361337
-0.00209873
0.000618166
-0.00197942
0.00109288
-0.00288203
0.00147
-0.0030198
0.000826378
-0.00231741
0.000351721
-0.00208308
0.000598712
-0.00197153
0.00106191
-0.00283556
0.00142922
-0.00296968
0.000803161
-0.00229765
0.0003416
-0.00206734
0.000579069
-0.00196291
0.00103089
-0.00278966
0.00138864
-0.00292013
0.000779807
-0.00227748
0.000330982
-0.00205151
0.000559235
-0.0019536
0.000999823
-0.00274433
0.00134827
-0.00287113
0.000756318
-0.00225692
0.000319874
-0.00203558
0.000539208
-0.00194362
0.000968708
-0.00269955
0.00130811
-0.00282268
0.000732696
-0.00223598
0.000308285
-0.00201954
0.000518985
-0.00193298
0.000937553
-0.00265529
0.00126815
-0.00277474
0.00070894
-0.00221467
0.000296221
-0.00200339
0.000498564
-0.00192171
0.000906358
-0.00261155
0.0012284
-0.0027273
0.000685053
-0.00219301
0.000283689
-0.00198712
0.000477944
-0.00190982
0.000875127
-0.00256829
0.00118884
-0.00268035
0.000661036
-0.00217101
0.000270698
-0.00197073
0.000457122
-0.00189735
0.000843861
-0.00252551
0.00114949
-0.00263386
0.00063689
-0.00214869
0.000257254
-0.0019542
0.000436097
-0.0018843
0.000812563
-0.00248318
0.00111033
-0.00258782
0.000612615
-0.00212605
0.000243364
-0.00193754
0.000414866
-0.0018707
0.000781234
-0.00244129
0.00107137
-0.00254221
0.000588212
-0.00210312
0.000229034
-0.00192074
0.000393429
-0.00185656
0.000749874
-0.00239983
0.0010326
-0.00249701
0.000563682
-0.00207989
0.000214272
-0.00190379
0.000371784
-0.00184191
0.000718485
-0.00235878
0.000994028
-0.0024522
0.000539024
-0.00205638
0.000199084
-0.00188671
0.00034993
-0.00182675
0.000687068
-0.00231811
0.000955639
-0.00240776
0.00051424
-0.0020326
0.000183475
-0.00186947
0.000327864
-0.00181111
0.000655622
-0.00227783
0.000917438
-0.00236367
0.000489328
-0.00200856
0.000167453
-0.00185209
0.000305585
-0.001795
0.000624149
-0.00223791
0.000879422
-0.00231992
0.00046429
-0.00198427
0.000151022
-0.00183455
0.000283092
-0.00177843
0.000592647
-0.00219834
0.00084159
-0.00227649
0.000439124
-0.00195973
0.000134188
-0.00181687
0.000260383
-0.00176143
0.000561117
-0.00215911
0.000803941
-0.00223335
0.00041383
-0.00193496
0.000116956
-0.00179903
0.000237457
-0.001744
0.00052956
-0.0021202
0.000766479
-0.00219049
0.000388408
-0.00190997
9.9332e-05
-0.00178104
0.00021431
-0.00172615
0.000497973
-0.00208162
0.000729219
-0.00214791
0.000362856
-0.00188475
8.13203e-05
-0.0017629
0.000190943
-0.00170791
0.000466358
-0.00204337
0.00069219
-0.00210562
0.000337172
-0.00185932
6.29254e-05
-0.00174462
0.000167351
-0.00168928
0.000434713
-0.00200546
0.000655363
-0.00206353
0.000311356
-0.00183369
4.41519e-05
-0.00172619
0.000143535
-0.00167028
0.000403039
-0.00196789
0.00061851
-0.0020214
0.000285406
-0.00180785
2.50039e-05
-0.00170761
0.00011949
-0.00165091
0.000371335
-0.00193055
0.000581713
-0.00197934
0.000259318
-0.00178182
5.48513e-06
-0.0016889
9.52153e-05
-0.0016312
0.000339602
-0.00189331
0.000544889
-0.00193738
0.000233091
-0.0017556
-1.44006e-05
-0.00167005
7.07079e-05
-0.00161114
0.000307841
-0.00185623
0.000508042
-0.00189541
0.000206722
-0.00172919
-3.46498e-05
-0.00165106
4.59653e-05
-0.00159075
0.000276052
-0.0018193
0.000471276
-0.00185352
0.000180208
-0.0017026
-5.52593e-05
-0.00163195
2.09846e-05
-0.00157004
0.000244236
-0.00178246
0.000436817
-0.00181394
0.000153544
-0.00167584
-7.62261e-05
-0.00161272
-4.23714e-06
-0.00154902
0.000212398
-0.0017441
0.000400722
-0.00177431
0.000126737
-0.0016489
-9.75474e-05
-0.00159338
-2.9703e-05
-0.00152771
0.000180532
-0.00170559
0.000364426
-0.00173469
9.979e-05
-0.0016218
-0.000119221
-0.00157392
-5.54165e-05
-0.0015061
0.000148636
-0.00166713
0.000328167
-0.00169507
7.27073e-05
-0.00159453
-0.000141244
-0.00155436
-8.13809e-05
-0.00148422
0.000116705
-0.00162872
0.00029195
-0.00165544
4.54926e-05
-0.00156709
-0.000163614
-0.00153471
-0.0001076
-0.00146206
8.47356e-05
-0.00159034
0.000255781
-0.00161579
1.81495e-05
-0.0015395
-0.000186331
-0.00151498
-0.000134078
-0.00143965
5.27242e-05
-0.00155199
0.000219661
-0.0015761
-9.31836e-06
-0.00151176
-0.000209391
-0.00149517
-0.000160819
-0.00141699
2.06667e-05
-0.00151365
0.000183592
-0.00153637
-3.69078e-05
-0.00148386
-0.000232795
-0.0014753
-0.000187828
-0.00139409
-1.14405e-05
-0.0014753
0.000147573
-0.00149658
-6.46155e-05
-0.00145581
-0.000256539
-0.00145537
-0.000215108
-0.00137096
-4.36014e-05
-0.00143693
0.000111604
-0.00145673
-9.24386e-05
-0.00142761
-0.000280625
-0.0014354
-0.000242666
-0.00134761
-7.582e-05
-0.00139851
7.56847e-05
-0.00141678
-0.000120374
-0.00139926
-0.00030505
-0.0014154
-0.000270507
-0.00132405
-0.0001081
-0.00136002
3.98148e-05
-0.00137673
-0.000148419
-0.00137077
-0.000329816
-0.00139539
-0.000298636
-0.00130029
-0.000140445
-0.00132145
3.99437e-06
-0.00133656
-0.00017657
-0.00134214
-0.000354924
-0.00137538
-0.000327063
-0.00127635
-0.00017286
-0.00128277
-3.17785e-05
-0.00129626
-0.000204826
-0.00131337
-0.000380373
-0.00135539
-0.00035579
-0.00125221
-0.00020536
-0.001244
-6.7513e-05
-0.00125582
-0.000233195
-0.00128445
-0.000406142
-0.00133541
-0.000384807
-0.00122787
-0.000237964
-0.00120518
-0.000103223
-0.00121532
-0.000261687
-0.00125536
-0.000432197
-0.00131539
-0.000414083
-0.00120338
-0.000270633
-0.00116619
-0.000138871
-0.00117462
-0.000290259
-0.00122615
-0.000458611
-0.00129543
-0.000443699
-0.00117902
-0.00030314
-0.0011262
-0.000174246
-0.0011329
-0.000318681
-0.00119708
-0.000485881
-0.00127636
-0.000474148
-0.00115515
-0.000335235
-0.00108391
-0.000209099
-0.00108887
-0.000346706
-0.00116855
-0.000514709
-0.00125942
-0.000506124
-0.00113049
-0.000368211
-0.00104284
-0.000244516
-0.00104604
-0.000375588
-0.00113919
-0.000542775
-0.00124114
-0.000537368
-0.00109878
-0.000407676
-0.00102245
-0.000285545
-0.00102373
-0.000410727
-0.00110244
-0.000558049
-0.00120281
-0.000556152
)
;

boundaryField
{
    BotWall
    {
        type            fixedFluxPressure;
        gradient        uniform 0;
        value           nonuniform List<scalar> 10(1.17149 93.647 0.797399 28.0225 0.79715 93.6464 1.16984 0.286371 2.7093 0.287945);
    }
    FreeStream
    {
        type            totalPressure;
        rho             rho;
        psi             none;
        gamma           1;
        p0              uniform 0;
        value           nonuniform List<scalar> 10(-0.00107767 -0.000431923 -0.00102997 -0.00031029 -0.00103018 -0.000432647 -0.00107855 -0.000554979 -0.00116698 -0.000555085);
    }
    FrontNBack
    {
        type            empty;
    }
    LeftSide
    {
        type            cyclic;
    }
    RightSide
    {
        type            cyclic;
    }
}


// ************************************************************************* //
