/*--------------------------------*- C++ -*----------------------------------*\
| =========                 |                                                 |
| \\      /  F ield         | OpenFOAM: The Open Source CFD Toolbox           |
|  \\    /   O peration     | Version:  2.4.0                                 |
|   \\  /    A nd           | Web:      www.OpenFOAM.org                      |
|    \\/     M anipulation  |                                                 |
\*---------------------------------------------------------------------------*/
FoamFile
{
    version     2.0;
    format      ascii;
    class       surfaceScalarField;
    location    "0.4";
    object      phi;
}
// * * * * * * * * * * * * * * * * * * * * * * * * * * * * * * * * * * * * * //

dimensions      [0 3 -1 0 0 0 0];

internalField   nonuniform List<scalar> 
1890
(
-2.93605e-11
-1.49476e-09
-3.50668e-10
-1.19937e-09
3.97134e-10
-1.87369e-09
-3.97135e-10
2.61436e-11
3.50669e-10
-1.87369e-09
2.93553e-11
-1.19935e-09
2.50147e-11
-1.49557e-09
4.07904e-11
-1.11764e-09
-4.07929e-11
2.3115e-12
-1.11759e-09
-4.66228e-11
-1.44267e-09
-7.63554e-11
-1.16964e-09
-7.15462e-11
-1.8785e-09
7.15472e-11
-1.1695e-10
7.63587e-11
-1.8785e-09
4.66279e-11
-1.16962e-09
-5.89975e-12
-1.44304e-09
-1.51355e-11
-1.1084e-09
1.51267e-11
-1.32344e-09
-1.10793e-09
-4.30455e-11
-1.39188e-09
-8.17635e-11
-1.13092e-09
-3.77837e-11
-1.92248e-09
3.77873e-11
-1.92521e-10
8.17695e-11
-1.92248e-09
4.30519e-11
-1.1309e-09
-7.75351e-12
-1.39223e-09
-4.40847e-12
-1.11175e-09
4.38471e-12
-1.33223e-09
-1.11128e-09
-3.88721e-11
-1.34825e-09
-7.05411e-11
-1.09925e-09
-3.25619e-11
-1.96046e-09
3.25674e-11
-2.5765e-10
7.05485e-11
-1.96046e-09
3.88772e-11
-1.09923e-09
-4.78654e-12
-1.34857e-09
-4.3339e-12
-1.1122e-09
4.28556e-12
-1.34085e-09
-1.11176e-09
-3.48528e-11
-1.31092e-09
-6.07693e-11
-1.07334e-09
-2.80231e-11
-1.99321e-09
2.803e-11
-3.13703e-10
6.07777e-11
-1.99321e-09
3.48565e-11
-1.07331e-09
-2.50631e-12
-1.31121e-09
-3.25422e-12
-1.11145e-09
3.18615e-12
-1.34729e-09
-1.11105e-09
-3.11178e-11
-1.2793e-09
-5.21576e-11
-1.0523e-09
-2.41872e-11
-2.02118e-09
2.41952e-11
-3.62086e-10
5.21667e-11
-2.02118e-09
3.11202e-11
-1.05226e-09
-5.40078e-13
-1.27955e-09
-2.27215e-12
-1.10972e-09
2.187e-12
-1.35175e-09
-1.10936e-09
-2.76397e-11
-1.25277e-09
-4.45792e-11
-1.03536e-09
-2.09584e-11
-2.0448e-09
2.09674e-11
-4.04011e-10
4.45888e-11
-2.0448e-09
2.76407e-11
-1.03531e-09
1.06904e-12
-1.25297e-09
-1.49825e-12
-1.10715e-09
1.39853e-12
-1.35465e-09
-1.10685e-09
-2.43904e-11
-1.23083e-09
-3.79246e-11
-1.02182e-09
-1.82422e-11
-2.06448e-09
1.8252e-11
-4.40506e-10
3.79344e-11
-2.06449e-09
2.439e-11
-1.02177e-09
2.39981e-12
-1.23098e-09
-8.47556e-13
-1.10391e-09
7.36071e-13
-1.35623e-09
-1.10366e-09
-2.13623e-11
-1.21303e-09
-3.20787e-11
-1.01111e-09
-1.59541e-11
-2.0806e-09
1.59644e-11
-4.72424e-10
3.20886e-11
-2.08061e-09
2.13605e-11
-1.01104e-09
3.50245e-12
-1.21313e-09
-3.01124e-13
-1.1001e-09
1.84596e-13
-1.35672e-09
-1.09992e-09
-1.85513e-11
-1.19894e-09
-2.69366e-11
-1.00272e-09
-1.40231e-11
-2.09352e-09
1.40338e-11
-5.00481e-10
2.69464e-11
-2.09352e-09
1.8548e-11
-1.00264e-09
4.4028e-12
-1.19898e-09
1.87077e-13
-1.09589e-09
-3.40874e-13
-1.35619e-09
-1.0958e-09
-1.59506e-11
-1.18819e-09
-2.24079e-11
-9.96264e-10
-1.23899e-11
-2.10354e-09
1.24009e-11
-5.25272e-10
2.24174e-11
-2.10354e-09
1.5946e-11
-9.96173e-10
5.12694e-12
-1.18816e-09
6.60408e-13
-1.09142e-09
-8.12307e-13
-1.35472e-09
-1.09142e-09
-1.35514e-11
-1.1804e-09
-1.84159e-11
-9.914e-10
-1.10051e-11
-2.11095e-09
1.10162e-11
-5.47293e-10
1.8425e-11
-2.11095e-09
1.35454e-11
-9.91293e-10
5.69873e-12
-1.18031e-09
1.0434e-12
-1.08677e-09
-1.20063e-12
-1.35247e-09
-1.08685e-09
-1.13436e-11
-1.17527e-09
-1.48948e-11
-9.87849e-10
-9.82717e-12
-2.11601e-09
9.83831e-12
-5.66959e-10
1.49033e-11
-2.11601e-09
1.13361e-11
-9.87726e-10
6.13636e-12
-1.17512e-09
1.35281e-12
-1.08198e-09
-1.51514e-12
-1.3496e-09
-1.08215e-09
-9.31634e-12
-1.17249e-09
-1.17884e-11
-9.85377e-10
-8.82172e-12
-2.11898e-09
8.8327e-12
-5.84613e-10
1.17962e-11
-2.11898e-09
9.30753e-12
-9.85237e-10
6.45581e-12
-1.17226e-09
1.60045e-12
-1.07713e-09
-1.7671e-12
-1.34624e-09
-1.07739e-09
-7.45884e-12
-1.17178e-09
-9.04868e-12
-9.83787e-10
-7.95997e-12
-2.12007e-09
7.97068e-12
-6.00544e-10
9.05568e-12
-2.12006e-09
7.44864e-12
-9.8363e-10
6.6715e-12
-1.17149e-09
1.79533e-12
-1.07225e-09
-1.96553e-12
-1.34248e-09
-1.0726e-09
-5.75991e-12
-1.1729e-09
-6.63488e-12
-9.82912e-10
-7.21808e-12
-2.11949e-09
7.2284e-12
-6.1499e-10
6.64097e-12
-2.11947e-09
5.7483e-12
-9.82738e-10
6.796e-12
-1.17253e-09
1.93628e-12
-1.06739e-09
-2.10903e-12
-1.33843e-09
-1.06783e-09
-4.20784e-12
-1.17561e-09
-4.51355e-12
-9.82606e-10
-6.57629e-12
-2.11742e-09
6.58611e-12
-6.28152e-10
4.51863e-12
-2.11741e-09
4.19481e-12
-9.82414e-10
6.83984e-12
-1.17518e-09
2.03041e-12
-1.06258e-09
-2.2048e-12
-1.3342e-09
-1.06311e-09
-2.78966e-12
-1.17972e-09
-2.65999e-12
-9.82736e-10
-6.01821e-12
-2.11406e-09
6.02744e-12
-6.40198e-10
2.664e-12
-2.11404e-09
2.77515e-12
-9.82525e-10
6.813e-12
-1.17922e-09
2.0829e-12
-1.05785e-09
-2.25807e-12
-1.32985e-09
-1.05848e-09
-1.48728e-12
-1.18504e-09
-1.06853e-12
-9.83155e-10
-5.53032e-12
-2.1096e-09
5.53884e-12
-6.51267e-10
1.07153e-12
-2.10958e-09
1.47103e-12
-9.82924e-10
6.7229e-12
-1.18447e-09
2.10203e-12
-1.05323e-09
-2.27728e-12
-1.32548e-09
-1.05395e-09
-2.36602e-13
-1.19147e-09
2.89753e-13
-9.83681e-10
-5.10132e-12
-2.10421e-09
5.10906e-12
-6.61478e-10
-2.8982e-13
-2.10418e-09
2.13891e-13
-9.83428e-10
6.57763e-12
-1.19083e-09
2.07889e-12
-1.04873e-09
-2.25329e-12
-1.32114e-09
-1.04954e-09
7.42633e-13
-1.19868e-09
1.70463e-12
-9.84643e-10
-4.72197e-12
-2.09779e-09
4.72884e-12
-6.70928e-10
-1.70452e-12
-2.09774e-09
-7.58584e-13
-9.84374e-10
6.38414e-12
-1.19798e-09
2.02608e-12
-1.04437e-09
-2.19898e-12
-1.31692e-09
-1.04526e-09
1.63207e-12
-1.20655e-09
2.86107e-12
-9.85872e-10
-4.38567e-12
-2.09054e-09
4.39161e-12
-6.79706e-10
-2.8622e-12
-2.09049e-09
-1.65059e-12
-9.85586e-10
6.14921e-12
-1.20578e-09
1.95507e-12
-1.04018e-09
-2.12608e-12
-1.31284e-09
-1.04116e-09
2.45048e-12
-1.21496e-09
3.85467e-12
-9.87276e-10
-4.08672e-12
-2.0826e-09
4.09164e-12
-6.87884e-10
-3.85715e-12
-2.08254e-09
-2.47063e-12
-9.86972e-10
5.87783e-12
-1.21412e-09
1.85926e-12
-1.03616e-09
-2.02785e-12
-1.30895e-09
-1.03722e-09
3.19114e-12
-1.22381e-09
4.71167e-12
-9.88797e-10
-3.82024e-12
-2.07407e-09
3.82409e-12
-6.95528e-10
-4.71557e-12
-2.074e-09
-3.21268e-12
-9.88475e-10
5.57452e-12
-1.22291e-09
1.73288e-12
-1.03232e-09
-1.8984e-12
-1.30532e-09
-1.03346e-09
3.85723e-12
-1.233e-09
5.44957e-12
-9.90389e-10
-3.58211e-12
-2.06503e-09
3.58481e-12
-7.02695e-10
-5.45492e-12
-2.06496e-09
-3.88005e-12
-9.9005e-10
5.24439e-12
-1.23204e-09
1.58754e-12
-1.02866e-09
-1.74961e-12
-1.30198e-09
-1.02988e-09
4.45395e-12
-1.24242e-09
6.08243e-12
-9.92018e-10
-3.36879e-12
-2.05558e-09
3.37029e-12
-7.09434e-10
-6.08927e-12
-2.0555e-09
-4.47796e-12
-9.91661e-10
4.89151e-12
-1.2414e-09
1.43112e-12
-1.0252e-09
-1.58967e-12
-1.29896e-09
-1.0265e-09
4.98686e-12
-1.25201e-09
6.62229e-12
-9.93653e-10
-3.17725e-12
-2.04578e-09
3.17751e-12
-7.15789e-10
-6.63064e-12
-2.04569e-09
-5.012e-12
-9.9328e-10
4.51945e-12
-1.25094e-09
1.25156e-12
-1.02193e-09
-1.40617e-12
-1.2963e-09
-1.0233e-09
5.46141e-12
-1.26168e-09
7.07968e-12
-9.95271e-10
-3.00485e-12
-2.0357e-09
3.00382e-12
-7.21798e-10
-7.08955e-12
-2.0356e-09
-5.4876e-12
-9.94882e-10
4.13071e-12
-1.26055e-09
1.05571e-12
-1.01886e-09
-1.20632e-12
-1.29404e-09
-1.0203e-09
5.88269e-12
-1.27137e-09
7.46394e-12
-9.96853e-10
-2.84931e-12
-2.02539e-09
2.84694e-12
-7.27494e-10
-7.47534e-12
-2.02528e-09
-5.90988e-12
-9.96447e-10
3.72984e-12
-1.27019e-09
8.45522e-13
-1.01598e-09
-9.923e-13
-1.2922e-09
-1.01748e-09
6.25548e-12
-1.28102e-09
7.7834e-12
-9.98381e-10
-2.70861e-12
-2.01489e-09
2.70488e-12
-7.32908e-10
-7.79633e-12
-2.01478e-09
-6.2836e-12
-9.9796e-10
3.32106e-12
-1.2798e-09
6.22222e-13
-1.01328e-09
-7.65818e-13
-1.29082e-09
-1.01485e-09
6.58416e-12
-1.29059e-09
8.04549e-12
-9.99842e-10
-2.581e-12
-2.00427e-09
2.57587e-12
-7.38065e-10
-8.05995e-12
-2.00414e-09
-6.61313e-12
-9.99407e-10
2.90826e-12
-1.28932e-09
3.84634e-13
-1.01075e-09
-5.27126e-13
-1.2899e-09
-1.0124e-09
6.87275e-12
-1.30003e-09
8.25688e-12
-1.00123e-09
-2.46491e-12
-1.99354e-09
2.45837e-12
-7.42988e-10
-8.27285e-12
-1.99341e-09
-6.9025e-12
-1.00078e-09
2.49511e-12
-1.29872e-09
1.18171e-13
-1.00838e-09
-2.71378e-13
-1.28951e-09
-1.0101e-09
7.12494e-12
-1.30931e-09
8.42353e-12
-1.00252e-09
-2.35897e-12
-1.98276e-09
2.35098e-12
-7.47698e-10
-8.441e-12
-1.98262e-09
-7.15538e-12
-1.00206e-09
2.08503e-12
-1.30796e-09
-1.22672e-13
-1.00617e-09
5.56277e-15
-1.28964e-09
-1.00794e-09
7.34407e-12
-1.3184e-09
8.55079e-12
-1.00373e-09
-2.26195e-12
-1.97195e-09
2.2525e-12
-7.52212e-10
-8.56974e-12
-1.9718e-09
-7.37514e-12
-1.00326e-09
1.68135e-12
-1.31701e-09
-2.88301e-13
-1.0042e-09
1.91634e-13
-1.29012e-09
-1.00601e-09
7.53322e-12
-1.32728e-09
8.64345e-12
-1.00484e-09
-2.17276e-12
-1.96113e-09
2.16184e-12
-7.56547e-10
-8.66387e-12
-1.96097e-09
-7.56485e-12
-1.00436e-09
1.28738e-12
-1.32587e-09
-4.79701e-13
-1.00243e-09
3.85003e-13
-1.29099e-09
-1.00427e-09
7.6952e-12
-1.33594e-09
8.70582e-12
-1.00585e-09
-2.09042e-12
-1.95034e-09
2.07804e-12
-7.60715e-10
-8.72767e-12
-1.95016e-09
-7.72731e-12
-1.00536e-09
9.06987e-13
-1.3345e-09
-6.74426e-13
-1.00085e-09
5.83426e-13
-1.29224e-09
-1.00272e-09
7.83255e-12
-1.34437e-09
8.74173e-12
-1.00676e-09
-2.01409e-12
-1.93958e-09
2.00022e-12
-7.6473e-10
-8.76499e-12
-1.9394e-09
-7.86508e-12
-1.00626e-09
5.45637e-13
-1.34291e-09
-8.67974e-13
-9.99437e-10
7.817e-13
-1.29389e-09
-1.00134e-09
7.94759e-12
-1.35258e-09
8.75465e-12
-1.00757e-09
-1.94297e-12
-1.92888e-09
1.92762e-12
-7.686e-10
-8.77929e-12
-1.92869e-09
-7.98049e-12
-1.00706e-09
2.1462e-13
-1.35111e-09
-1.05768e-12
-9.98164e-10
9.76692e-13
-1.29593e-09
-1.0001e-09
8.04249e-12
-1.36057e-09
8.74766e-12
-1.00827e-09
-1.87639e-12
-1.91826e-09
1.85957e-12
-7.72336e-10
-8.77364e-12
-1.91806e-09
-8.0757e-12
-1.00775e-09
-1.27266e-13
-1.35906e-09
-1.24172e-12
-9.9705e-10
1.16632e-12
-1.29834e-09
-9.98991e-10
8.11924e-12
-1.3682e-09
8.7235e-12
-1.00888e-09
-1.81373e-12
-1.90772e-09
1.79543e-12
-7.75945e-10
-8.75077e-12
-1.90751e-09
-8.15264e-12
-1.00835e-09
-5.4988e-13
-1.36666e-09
-1.41876e-12
-9.96181e-10
1.34914e-12
-1.3011e-09
-9.98136e-10
8.17933e-12
-1.37551e-09
8.6846e-12
-1.00938e-09
-1.75444e-12
-1.89728e-09
1.73468e-12
-7.79434e-10
-8.71313e-12
-1.89707e-09
-8.21283e-12
-1.00885e-09
-9.17042e-13
-1.37395e-09
-1.58781e-12
-9.9551e-10
1.52408e-12
-1.30422e-09
-9.97479e-10
8.22423e-12
-1.38252e-09
8.63312e-12
-1.00979e-09
-1.69804e-12
-1.88695e-09
1.67683e-12
-7.82809e-10
-8.66286e-12
-1.88673e-09
-8.25775e-12
-1.00926e-09
-1.25815e-12
-1.38095e-09
-1.74817e-12
-9.9502e-10
1.69034e-12
-1.30765e-09
-9.97e-10
8.2553e-12
-1.38924e-09
8.57096e-12
-1.01011e-09
-1.6441e-12
-1.87674e-09
1.62144e-12
-7.86075e-10
-8.60187e-12
-1.8765e-09
-8.28878e-12
-1.00957e-09
-1.57808e-12
-1.38766e-09
-1.89927e-12
-9.94699e-10
1.84736e-12
-1.3114e-09
-9.96689e-10
8.27383e-12
-1.39567e-09
8.49982e-12
-1.01033e-09
-1.59223e-12
-1.86665e-09
1.56814e-12
-7.89235e-10
-8.53185e-12
-1.8664e-09
-8.30719e-12
-1.00979e-09
-1.87856e-12
-1.39409e-09
-2.04074e-12
-9.94537e-10
1.99469e-12
-1.31544e-09
-9.96534e-10
8.28099e-12
-1.40183e-09
8.42119e-12
-1.01047e-09
-1.54209e-12
-1.85668e-09
1.51659e-12
-7.92294e-10
-8.4543e-12
-1.85643e-09
-8.31417e-12
-1.00993e-09
-2.16045e-12
-1.40025e-09
-2.17227e-12
-9.94525e-10
2.13205e-12
-1.31974e-09
-9.96527e-10
8.27787e-12
-1.40772e-09
8.33642e-12
-1.01053e-09
-1.49338e-12
-1.84685e-09
1.46648e-12
-7.95254e-10
-8.37056e-12
-1.84659e-09
-8.31081e-12
-1.00999e-09
-2.42428e-12
-1.40613e-09
-2.29372e-12
-9.94656e-10
2.25925e-12
-1.32429e-09
-9.9666e-10
8.26548e-12
-1.41334e-09
8.24666e-12
-1.01051e-09
-1.44585e-12
-1.83716e-09
1.41756e-12
-7.98117e-10
-8.28178e-12
-1.83689e-09
-8.29814e-12
-1.00998e-09
-2.6705e-12
-1.41176e-09
-2.40502e-12
-9.94921e-10
2.3762e-12
-1.32908e-09
-9.96925e-10
8.24478e-12
-1.41871e-09
8.15294e-12
-1.01042e-09
-1.39925e-12
-1.82761e-09
1.3696e-12
-8.00886e-10
-8.189e-12
-1.82734e-09
-8.27711e-12
-1.00989e-09
-2.89956e-12
-1.41714e-09
-2.50618e-12
-9.95314e-10
2.48293e-12
-1.33406e-09
-9.97316e-10
8.21666e-12
-1.42384e-09
8.05618e-12
-1.01026e-09
-1.35338e-12
-1.8182e-09
1.32238e-12
-8.03562e-10
-8.09313e-12
-1.81792e-09
-8.24861e-12
-1.00973e-09
-3.11193e-12
-1.42228e-09
-2.59732e-12
-9.95829e-10
2.57952e-12
-1.33924e-09
-9.97827e-10
8.18195e-12
-1.42873e-09
7.95717e-12
-1.01004e-09
-1.30807e-12
-1.80893e-09
1.27573e-12
-8.06146e-10
-7.99496e-12
-1.80865e-09
-8.21348e-12
-1.00952e-09
-3.30815e-12
-1.42718e-09
-2.67861e-12
-9.96459e-10
2.66614e-12
-1.34459e-09
-9.98449e-10
8.14142e-12
-1.4334e-09
7.85659e-12
-1.00975e-09
-1.26316e-12
-1.79981e-09
1.2295e-12
-8.08638e-10
-7.8952e-12
-1.79953e-09
-8.1725e-12
-1.00924e-09
-3.48877e-12
-1.43186e-09
-2.75028e-12
-9.97197e-10
2.74302e-12
-1.35008e-09
-9.99179e-10
8.09581e-12
-1.43785e-09
7.75507e-12
-1.00941e-09
-1.21851e-12
-1.79084e-09
1.18354e-12
-8.1104e-10
-7.79444e-12
-1.79055e-09
-8.12641e-12
-1.00891e-09
-3.65442e-12
-1.43634e-09
-2.81263e-12
-9.98039e-10
2.81045e-12
-1.3557e-09
-1.00001e-09
8.04579e-12
-1.4421e-09
7.65313e-12
-1.00902e-09
-1.17401e-12
-1.78201e-09
1.13775e-12
-8.13352e-10
-7.69322e-12
-1.78172e-09
-8.0759e-12
-1.00852e-09
-3.80576e-12
-1.44061e-09
-2.86599e-12
-9.98979e-10
2.86875e-12
-1.36144e-09
-1.00094e-09
7.99202e-12
-1.44616e-09
7.55123e-12
-1.00858e-09
-1.12956e-12
-1.77333e-09
1.09201e-12
-8.15574e-10
-7.592e-12
-1.77303e-09
-8.0216e-12
-1.00809e-09
-3.94349e-12
-1.44468e-09
-2.91074e-12
-1.00001e-09
2.9183e-12
-1.36727e-09
-1.00195e-09
7.93508e-12
-1.45003e-09
7.44977e-12
-1.00809e-09
-1.08507e-12
-1.7648e-09
1.04625e-12
-8.17705e-10
-7.49118e-12
-1.76449e-09
-7.96413e-12
-1.00762e-09
-4.06833e-12
-1.44858e-09
-2.94728e-12
-1.00113e-09
2.9595e-12
-1.37317e-09
-1.00306e-09
7.87553e-12
-1.45373e-09
7.3491e-12
-1.00757e-09
-1.04047e-12
-1.75641e-09
1.00038e-12
-8.19746e-10
-7.39111e-12
-1.7561e-09
-7.90403e-12
-1.00711e-09
-4.18101e-12
-1.4523e-09
-2.97605e-12
-1.00234e-09
2.99278e-12
-1.37914e-09
-1.00425e-09
7.81389e-12
-1.45726e-09
7.24951e-12
-1.007e-09
-9.95698e-13
-1.74816e-09
9.54339e-13
-8.21696e-10
-7.29208e-12
-1.74786e-09
-7.84183e-12
-1.00656e-09
-4.28229e-12
-1.45586e-09
-2.99749e-12
-1.00362e-09
3.01859e-12
-1.38516e-09
-1.00551e-09
7.75063e-12
-1.46063e-09
7.15124e-12
-1.0064e-09
-9.50703e-13
-1.74006e-09
9.08075e-13
-8.23555e-10
-7.19435e-12
-1.73975e-09
-7.77801e-12
-1.00598e-09
-4.37292e-12
-1.45927e-09
-3.01207e-12
-1.00498e-09
3.03739e-12
-1.39121e-09
-1.00685e-09
7.6862e-12
-1.46386e-09
7.05452e-12
-1.00577e-09
-9.05442e-13
-1.7321e-09
8.6154e-13
-8.25322e-10
-7.09813e-12
-1.73179e-09
-7.71301e-12
-1.00536e-09
-4.45365e-12
-1.46253e-09
-3.02025e-12
-1.00642e-09
3.04964e-12
-1.39728e-09
-1.00826e-09
7.62099e-12
-1.46695e-09
6.95952e-12
-1.00511e-09
-8.59879e-13
-1.72428e-09
8.14693e-13
-8.26996e-10
-7.0036e-12
-1.72398e-09
-7.64724e-12
-1.00472e-09
-4.52521e-12
-1.46565e-09
-3.02251e-12
-1.00792e-09
3.05582e-12
-1.40336e-09
-1.00974e-09
7.55537e-12
-1.4699e-09
6.86638e-12
-1.00442e-09
-8.13985e-13
-1.7166e-09
7.67496e-13
-8.28578e-10
-6.9109e-12
-1.7163e-09
-7.58105e-12
-1.00405e-09
-4.58832e-12
-1.46864e-09
-3.01932e-12
-1.00949e-09
3.0564e-12
-1.40943e-09
-1.01128e-09
7.48967e-12
-1.47274e-09
6.77522e-12
-1.00371e-09
-7.67736e-13
-1.70906e-09
7.1992e-13
-8.30065e-10
-6.82015e-12
-1.70876e-09
-7.51479e-12
-1.00335e-09
-4.64367e-12
-1.47151e-09
-3.01113e-12
-1.01112e-09
3.05184e-12
-1.41549e-09
-1.01288e-09
7.42418e-12
-1.47545e-09
6.68614e-12
-1.00297e-09
-7.21111e-13
-1.70165e-09
6.71931e-13
-8.31458e-10
-6.73145e-12
-1.70135e-09
-7.44874e-12
-1.00263e-09
-4.69192e-12
-1.47427e-09
-2.99841e-12
-1.01281e-09
3.04259e-12
-1.42154e-09
-1.01455e-09
7.35916e-12
-1.47806e-09
6.5992e-12
-1.00221e-09
-6.74091e-13
-1.69438e-09
6.23499e-13
-8.32756e-10
-6.64486e-12
-1.69409e-09
-7.38317e-12
-1.0019e-09
-4.7337e-12
-1.47692e-09
-2.98157e-12
-1.01457e-09
3.02909e-12
-1.42755e-09
-1.01627e-09
7.29483e-12
-1.48057e-09
6.51446e-12
-1.00143e-09
-6.26657e-13
-1.68724e-09
5.74589e-13
-8.33957e-10
-6.56044e-12
-1.68695e-09
-7.3183e-12
-1.00114e-09
-4.76961e-12
-1.47947e-09
-2.96105e-12
-1.01637e-09
3.01176e-12
-1.43352e-09
-1.01805e-09
7.23139e-12
-1.48298e-09
6.43193e-12
-1.00063e-09
-5.78786e-13
-1.68022e-09
5.25157e-13
-8.35061e-10
-6.47821e-12
-1.67995e-09
-7.25433e-12
-1.00036e-09
-4.8002e-12
-1.48192e-09
-2.93725e-12
-1.01824e-09
2.99101e-12
-1.43945e-09
-1.01988e-09
7.169e-12
-1.4853e-09
6.35163e-12
-9.9981e-10
-5.30452e-13
-1.67334e-09
4.75145e-13
-8.36067e-10
-6.39819e-12
-1.67307e-09
-7.19142e-12
-9.99569e-10
-4.82599e-12
-1.48429e-09
-2.91054e-12
-1.02015e-09
2.96723e-12
-1.44533e-09
-1.02176e-09
7.1078e-12
-1.48753e-09
6.27357e-12
-9.98976e-10
-4.81615e-13
-1.66659e-09
4.24473e-13
-8.36973e-10
-6.32037e-12
-1.66633e-09
-7.12969e-12
-9.9876e-10
-4.84746e-12
-1.48657e-09
-2.8813e-12
-1.02212e-09
2.94077e-12
-1.45115e-09
-1.02369e-09
7.04788e-12
-1.48969e-09
6.19772e-12
-9.98126e-10
-4.32219e-13
-1.65996e-09
3.7302e-13
-8.37778e-10
-6.24474e-12
-1.65971e-09
-7.06926e-12
-9.97935e-10
-4.86505e-12
-1.48877e-09
-2.84985e-12
-1.02413e-09
2.91198e-12
-1.45691e-09
-1.02567e-09
6.98932e-12
-1.49177e-09
6.12406e-12
-9.97261e-10
-3.82176e-13
-1.65345e-09
3.20592e-13
-8.38481e-10
-6.17126e-12
-1.65322e-09
-7.01019e-12
-9.97097e-10
-4.87913e-12
-1.49091e-09
-2.81651e-12
-1.0262e-09
2.88117e-12
-1.46261e-09
-1.02769e-09
6.93219e-12
-1.49379e-09
6.05254e-12
-9.96381e-10
-3.31345e-13
-1.64707e-09
2.66867e-13
-8.39079e-10
-6.09991e-12
-1.64685e-09
-6.95256e-12
-9.96244e-10
-4.89007e-12
-1.49297e-09
-2.78158e-12
-1.02831e-09
2.84865e-12
-1.46824e-09
-1.02976e-09
6.87652e-12
-1.49574e-09
5.98314e-12
-9.95488e-10
-2.79492e-13
-1.6408e-09
2.11236e-13
-8.3957e-10
-6.03064e-12
-1.64061e-09
-6.89637e-12
-9.95378e-10
-4.89819e-12
-1.49497e-09
-2.74532e-12
-1.03046e-09
2.81469e-12
-1.4738e-09
-1.03188e-09
6.82232e-12
-1.49762e-09
5.91579e-12
-9.94581e-10
-2.26189e-13
-1.63466e-09
1.52336e-13
-8.39948e-10
-5.96339e-12
-1.6345e-09
-6.84166e-12
-9.945e-10
-4.90375e-12
-1.4969e-09
-2.70799e-12
-1.03265e-09
2.77954e-12
-1.47928e-09
-1.03403e-09
6.76959e-12
-1.49945e-09
5.85045e-12
-9.93662e-10
-1.70547e-13
-1.62864e-09
8.55917e-14
-8.40205e-10
-5.89811e-12
-1.62851e-09
-6.7884e-12
-9.9361e-10
-4.90702e-12
-1.49879e-09
-2.66981e-12
-1.03489e-09
2.74343e-12
-1.4847e-09
-1.03623e-09
6.71831e-12
-1.50123e-09
5.78707e-12
-9.92731e-10
-1.10162e-13
-1.62274e-09
4.40863e-14
-8.40359e-10
-5.83471e-12
-1.62263e-09
-6.73659e-12
-9.92708e-10
-4.9082e-12
-1.50061e-09
-2.63099e-12
-1.03717e-09
2.70658e-12
-1.49004e-09
-1.03846e-09
6.66848e-12
-1.50296e-09
5.72555e-12
-9.91788e-10
-5.80468e-14
-1.61696e-09
2.81263e-15
-8.4042e-10
-5.77313e-12
-1.61686e-09
-6.6862e-12
-9.91795e-10
-4.90749e-12
-1.50239e-09
-2.59173e-12
-1.03948e-09
2.66919e-12
-1.4953e-09
-1.04074e-09
6.62005e-12
-1.50464e-09
5.66582e-12
-9.90834e-10
-1.82353e-14
-1.61128e-09
-3.82353e-14
-8.404e-10
-5.71331e-12
-1.61118e-09
-6.63722e-12
-9.90871e-10
-4.90506e-12
-1.50412e-09
-2.55221e-12
-1.04184e-09
2.63144e-12
-1.50048e-09
-1.04305e-09
6.57303e-12
-1.50627e-09
5.60782e-12
-9.89868e-10
2.12624e-14
-1.60569e-09
-7.69934e-14
-8.40301e-10
-5.65519e-12
-1.6056e-09
-6.58965e-12
-9.89936e-10
-4.90105e-12
-1.50581e-09
-2.51258e-12
-1.04423e-09
2.5935e-12
-1.50559e-09
-1.04539e-09
6.5274e-12
-1.50787e-09
5.55148e-12
-9.88893e-10
6.03835e-14
-1.6002e-09
-9.5028e-14
-8.40146e-10
-5.5987e-12
-1.6001e-09
-6.54348e-12
-9.88992e-10
-4.89561e-12
-1.50746e-09
-2.47302e-12
-1.04665e-09
2.55553e-12
-1.51061e-09
-1.04777e-09
6.48318e-12
-1.50943e-09
5.49673e-12
-9.87906e-10
9.89931e-14
-1.5948e-09
-1.35312e-13
-8.39912e-10
-5.54384e-12
-1.59469e-09
-6.49874e-12
-9.88037e-10
-4.88886e-12
-1.50907e-09
-2.43367e-12
-1.0491e-09
2.51769e-12
-1.51557e-09
-1.05017e-09
6.44041e-12
-1.51095e-09
5.4435e-12
-9.86909e-10
1.20021e-13
-1.58948e-09
-1.65019e-13
-8.39627e-10
-5.49053e-12
-1.58937e-09
-6.45547e-12
-9.87072e-10
-4.88094e-12
-1.51065e-09
-2.39468e-12
-1.05159e-09
2.48013e-12
-1.52044e-09
-1.05261e-09
6.39913e-12
-1.51244e-09
5.39179e-12
-9.85902e-10
1.46763e-13
-1.58423e-09
-1.95284e-13
-8.39285e-10
-5.43876e-12
-1.58412e-09
-6.41373e-12
-9.86097e-10
-4.87196e-12
-1.51219e-09
-2.35619e-12
-1.05411e-09
2.44301e-12
-1.52524e-09
-1.05508e-09
6.35945e-12
-1.51389e-09
5.34161e-12
-9.84884e-10
1.75072e-13
-1.57907e-09
-2.25785e-13
-8.38884e-10
-5.38852e-12
-1.57896e-09
-6.37361e-12
-9.85112e-10
-4.86207e-12
-1.5137e-09
-2.31836e-12
-1.05665e-09
2.40647e-12
-1.52996e-09
-1.05757e-09
6.32148e-12
-1.51532e-09
5.29299e-12
-9.83855e-10
2.03694e-13
-1.57398e-09
-2.5633e-13
-8.38424e-10
-5.33985e-12
-1.57388e-09
-6.33522e-12
-9.84116e-10
-4.85141e-12
-1.51518e-09
-2.28133e-12
-1.05922e-09
2.37068e-12
-1.53462e-09
-1.06009e-09
6.28537e-12
-1.51673e-09
5.24596e-12
-9.82816e-10
2.32368e-13
-1.56896e-09
-2.86758e-13
-8.37905e-10
-5.29278e-12
-1.56887e-09
-6.29872e-12
-9.8311e-10
-4.84013e-12
-1.51664e-09
-2.24529e-12
-1.06181e-09
2.3358e-12
-1.5392e-09
-1.06264e-09
6.2513e-12
-1.51811e-09
5.20062e-12
-9.81765e-10
2.60911e-13
-1.56402e-09
-3.16925e-13
-8.37327e-10
-5.24741e-12
-1.56394e-09
-6.26431e-12
-9.82093e-10
-4.82842e-12
-1.51808e-09
-2.21039e-12
-1.06443e-09
2.30201e-12
-1.54371e-09
-1.06521e-09
6.21953e-12
-1.51948e-09
5.15707e-12
-9.80703e-10
2.89171e-13
-1.55916e-09
-3.46701e-13
-8.36691e-10
-5.20385e-12
-1.55908e-09
-6.2322e-12
-9.81065e-10
-4.81648e-12
-1.51949e-09
-2.17684e-12
-1.06707e-09
2.26953e-12
-1.54816e-09
-1.06779e-09
6.19032e-12
-1.52082e-09
5.11546e-12
-9.79628e-10
3.1701e-13
-1.55436e-09
-3.75963e-13
-8.35998e-10
-5.16224e-12
-1.5543e-09
-6.20269e-12
-9.80025e-10
-4.80454e-12
-1.52089e-09
-2.14486e-12
-1.06973e-09
2.23856e-12
-1.55254e-09
-1.0704e-09
6.16401e-12
-1.52215e-09
5.07598e-12
-9.7854e-10
3.443e-13
-1.54963e-09
-4.04597e-13
-8.35249e-10
-5.12277e-12
-1.54958e-09
-6.17611e-12
-9.78971e-10
-4.79284e-12
-1.52227e-09
-2.11467e-12
-1.07241e-09
2.20934e-12
-1.55686e-09
-1.07302e-09
6.141e-12
-1.52347e-09
5.03885e-12
-9.77438e-10
3.70921e-13
-1.54496e-09
-4.32489e-13
-8.34446e-10
-5.08567e-12
-1.54493e-09
-6.15284e-12
-9.77904e-10
-4.78169e-12
-1.52365e-09
-2.08653e-12
-1.07511e-09
2.18215e-12
-1.56113e-09
-1.07566e-09
6.12174e-12
-1.52478e-09
5.00437e-12
-9.76321e-10
3.96752e-13
-1.54035e-09
-4.59529e-13
-8.33589e-10
-5.05123e-12
-1.54033e-09
-6.13336e-12
-9.76822e-10
-4.77139e-12
-1.52501e-09
-2.06075e-12
-1.07782e-09
2.15728e-12
-1.56535e-09
-1.07832e-09
6.10674e-12
-1.52608e-09
4.97284e-12
-9.75187e-10
4.21677e-13
-1.5358e-09
-4.85608e-13
-8.32682e-10
-5.01976e-12
-1.5358e-09
-6.11816e-12
-9.75724e-10
-4.76231e-12
-1.52636e-09
-2.03765e-12
-1.08054e-09
2.13506e-12
-1.56952e-09
-1.08099e-09
6.0966e-12
-1.52738e-09
4.94466e-12
-9.74035e-10
4.45576e-13
-1.5313e-09
-5.10612e-13
-8.31726e-10
-4.99167e-12
-1.53132e-09
-6.10785e-12
-9.74607e-10
-4.75483e-12
-1.52772e-09
-2.01758e-12
-1.08328e-09
2.11586e-12
-1.57366e-09
-1.08367e-09
6.09199e-12
-1.52868e-09
4.92027e-12
-9.72863e-10
4.68325e-13
-1.52685e-09
-5.34423e-13
-8.30723e-10
-4.96738e-12
-1.52689e-09
-6.1031e-12
-9.73472e-10
-4.74939e-12
-1.52907e-09
-2.00095e-12
-1.08603e-09
2.10008e-12
-1.57776e-09
-1.08636e-09
6.09365e-12
-1.52999e-09
4.90017e-12
-9.7167e-10
4.89793e-13
-1.52244e-09
-5.56917e-13
-8.29676e-10
-4.94742e-12
-1.5225e-09
-6.10464e-12
-9.72314e-10
-4.74643e-12
-1.53043e-09
-1.98821e-12
-1.08878e-09
2.08819e-12
-1.58183e-09
-1.08906e-09
6.10237e-12
-1.5313e-09
4.88492e-12
-9.70452e-10
5.09847e-13
-1.51806e-09
-5.77968e-13
-8.28589e-10
-4.93233e-12
-1.51814e-09
-6.11328e-12
-9.71134e-10
-4.74643e-12
-1.53179e-09
-1.97983e-12
-1.09155e-09
2.08067e-12
-1.58589e-09
-1.09177e-09
6.11903e-12
-1.53263e-09
4.87506e-12
-9.69208e-10
5.28386e-13
-1.51372e-09
-5.97483e-13
-8.27463e-10
-4.92266e-12
-1.51382e-09
-6.12988e-12
-9.69926e-10
-4.74989e-12
-1.53317e-09
-1.97631e-12
-1.09432e-09
2.07802e-12
-1.58995e-09
-1.09448e-09
6.14482e-12
-1.53397e-09
4.87125e-12
-9.67935e-10
5.45337e-13
-1.50939e-09
-6.15404e-13
-8.26302e-10
-4.91908e-12
-1.50951e-09
-6.15565e-12
-9.6869e-10
-4.75753e-12
-1.53457e-09
-1.97824e-12
-1.0971e-09
2.08083e-12
-1.59401e-09
-1.0972e-09
6.18177e-12
-1.53534e-09
4.87501e-12
-9.66628e-10
5.60349e-13
-1.50508e-09
-6.31382e-13
-8.2511e-10
-4.92311e-12
-1.50522e-09
-6.19261e-12
-9.6742e-10
-4.77033e-12
-1.536e-09
-1.98658e-12
-1.09989e-09
2.0901e-12
-1.59808e-09
-1.09993e-09
6.177e-12
4.93978e-12
5.62962e-13
-6.33839e-13
-4.9885e-12
-6.18786e-12
-4.83542e-12
-1.97815e-12
2.08171e-12
)
;

boundaryField
{
    BotWall
    {
        type            calculated;
        value           nonuniform List<scalar> 10(7.71195e-10 2.52679e-12 4.21903e-10 1.21595e-16 4.21896e-10 2.5269e-12 7.72017e-10 2.34639e-10 4.72624e-12 2.34585e-10);
    }
    FreeStream
    {
        type            calculated;
        value           nonuniform List<scalar> 10(-1.53664e-09 -9.65391e-10 -1.5007e-09 -8.23913e-10 -1.50087e-09 -9.66221e-10 -1.53735e-09 -1.10274e-09 -1.60214e-09 -1.10272e-09);
    }
    FrontNBack
    {
        type            empty;
        value           nonuniform 0();
    }
    LeftSide
    {
        type            cyclic;
        value           nonuniform List<scalar> 
100
(
2.50158e-11
-5.46792e-12
-7.74013e-12
-4.76407e-12
-2.47554e-12
-4.99654e-13
1.11295e-12
2.45076e-12
3.55922e-12
4.46473e-12
5.19339e-12
5.76913e-12
6.21018e-12
6.53257e-12
6.75073e-12
6.87728e-12
6.92275e-12
6.89716e-12
6.80792e-12
6.66318e-12
6.46992e-12
6.2349e-12
5.96313e-12
5.65916e-12
5.32811e-12
4.97405e-12
4.60059e-12
4.21022e-12
3.80751e-12
3.39668e-12
2.98164e-12
2.56601e-12
2.15323e-12
1.7466e-12
1.34941e-12
9.65391e-13
5.99631e-13
2.62161e-13
-5.44488e-14
-4.94093e-13
-8.66839e-13
-1.21211e-12
-1.53576e-12
-1.83977e-12
-2.12506e-12
-2.39223e-12
-2.64173e-12
-2.87402e-12
-3.08957e-12
-3.28891e-12
-3.4726e-12
-3.64127e-12
-3.79557e-12
-3.93618e-12
-4.06383e-12
-4.17926e-12
-4.28321e-12
-4.37642e-12
-4.45965e-12
-4.53362e-12
-4.59904e-12
-4.65661e-12
-4.707e-12
-4.75081e-12
-4.78866e-12
-4.8211e-12
-4.84865e-12
-4.87177e-12
-4.89091e-12
-4.90646e-12
-4.91878e-12
-4.92817e-12
-4.93494e-12
-4.93931e-12
-4.94153e-12
-4.94177e-12
-4.9402e-12
-4.937e-12
-4.93228e-12
-4.9262e-12
-4.91888e-12
-4.91044e-12
-4.90104e-12
-4.89081e-12
-4.87992e-12
-4.86856e-12
-4.85692e-12
-4.84524e-12
-4.83379e-12
-4.82285e-12
-4.81275e-12
-4.80384e-12
-4.79654e-12
-4.79125e-12
-4.78846e-12
-4.78863e-12
-4.79228e-12
-4.80012e-12
-4.81314e-12
-4.87871e-12
)
;
    }
    RightSide
    {
        type            cyclic;
        value           nonuniform List<scalar> 
100
(
-2.50158e-11
5.46792e-12
7.74013e-12
4.76407e-12
2.47554e-12
4.99654e-13
-1.11295e-12
-2.45076e-12
-3.55922e-12
-4.46473e-12
-5.19339e-12
-5.76913e-12
-6.21018e-12
-6.53257e-12
-6.75073e-12
-6.87728e-12
-6.92275e-12
-6.89716e-12
-6.80792e-12
-6.66318e-12
-6.46992e-12
-6.2349e-12
-5.96313e-12
-5.65916e-12
-5.32811e-12
-4.97405e-12
-4.60059e-12
-4.21022e-12
-3.80751e-12
-3.39668e-12
-2.98164e-12
-2.56601e-12
-2.15323e-12
-1.7466e-12
-1.34941e-12
-9.65391e-13
-5.99631e-13
-2.62161e-13
5.44488e-14
4.94093e-13
8.66839e-13
1.21211e-12
1.53576e-12
1.83977e-12
2.12506e-12
2.39223e-12
2.64173e-12
2.87402e-12
3.08957e-12
3.28891e-12
3.4726e-12
3.64127e-12
3.79557e-12
3.93618e-12
4.06383e-12
4.17926e-12
4.28321e-12
4.37642e-12
4.45965e-12
4.53362e-12
4.59904e-12
4.65661e-12
4.707e-12
4.75081e-12
4.78866e-12
4.8211e-12
4.84865e-12
4.87177e-12
4.89091e-12
4.90646e-12
4.91878e-12
4.92817e-12
4.93494e-12
4.93931e-12
4.94153e-12
4.94177e-12
4.9402e-12
4.937e-12
4.93228e-12
4.9262e-12
4.91888e-12
4.91044e-12
4.90104e-12
4.89081e-12
4.87992e-12
4.86856e-12
4.85692e-12
4.84524e-12
4.83379e-12
4.82285e-12
4.81275e-12
4.80384e-12
4.79654e-12
4.79125e-12
4.78846e-12
4.78863e-12
4.79228e-12
4.80012e-12
4.81314e-12
4.87871e-12
)
;
    }
}


// ************************************************************************* //
