/*--------------------------------*- C++ -*----------------------------------*\
| =========                 |                                                 |
| \\      /  F ield         | OpenFOAM: The Open Source CFD Toolbox           |
|  \\    /   O peration     | Version:  2.4.0                                 |
|   \\  /    A nd           | Web:      www.OpenFOAM.org                      |
|    \\/     M anipulation  |                                                 |
\*---------------------------------------------------------------------------*/
FoamFile
{
    version     2.0;
    format      ascii;
    class       volScalarField;
    location    "0.4";
    object      T;
}
// * * * * * * * * * * * * * * * * * * * * * * * * * * * * * * * * * * * * * //

dimensions      [0 0 0 1 0 0 0];

internalField   nonuniform List<scalar> 
1000
(
296.933
294.894
297.025
293.99
297.025
294.894
296.933
297.382
294.633
297.382
296.971
294.994
296.858
294.058
296.858
294.994
296.971
297.438
297.939
297.439
297.014
295.268
296.906
294.231
296.905
295.268
297.014
297.468
297.932
297.468
297.059
295.512
296.959
294.461
296.959
295.512
297.059
297.496
297.915
297.496
297.106
295.73
297.016
294.683
297.016
295.73
297.106
297.521
297.9
297.521
297.154
295.926
297.074
294.895
297.074
295.926
297.154
297.545
297.887
297.546
297.201
296.103
297.133
295.099
297.133
296.103
297.201
297.568
297.876
297.568
297.248
296.264
297.19
295.292
297.19
296.264
297.248
297.589
297.867
297.589
297.294
296.41
297.246
295.476
297.246
296.409
297.293
297.609
297.859
297.609
297.338
296.543
297.299
295.651
297.299
296.543
297.337
297.628
297.853
297.628
297.381
296.664
297.35
295.816
297.35
296.664
297.38
297.646
297.848
297.646
297.421
296.776
297.399
295.972
297.399
296.776
297.421
297.663
297.844
297.663
297.461
296.878
297.444
296.119
297.444
296.878
297.46
297.679
297.841
297.68
297.498
296.972
297.487
296.257
297.487
296.971
297.497
297.694
297.839
297.695
297.533
297.058
297.527
296.387
297.527
297.058
297.533
297.709
297.839
297.71
297.566
297.137
297.564
296.509
297.564
297.137
297.566
297.723
297.838
297.724
297.598
297.21
297.599
296.623
297.599
297.21
297.597
297.736
297.839
297.737
297.627
297.277
297.631
296.73
297.631
297.277
297.627
297.749
297.84
297.75
297.655
297.339
297.661
296.829
297.661
297.339
297.655
297.761
297.841
297.762
297.681
297.396
297.688
296.922
297.688
297.396
297.68
297.773
297.843
297.773
297.705
297.449
297.714
297.009
297.714
297.448
297.705
297.784
297.846
297.784
297.728
297.497
297.737
297.09
297.737
297.496
297.727
297.794
297.848
297.795
297.749
297.541
297.759
297.164
297.759
297.541
297.748
297.804
297.851
297.805
297.768
297.582
297.779
297.234
297.779
297.582
297.768
297.813
297.855
297.814
297.786
297.619
297.798
297.298
297.798
297.619
297.786
297.823
297.858
297.823
297.803
297.654
297.815
297.358
297.815
297.653
297.803
297.831
297.862
297.832
297.819
297.685
297.831
297.413
297.83
297.685
297.818
297.839
297.865
297.84
297.833
297.714
297.845
297.464
297.845
297.714
297.833
297.847
297.869
297.848
297.847
297.74
297.858
297.511
297.858
297.74
297.846
297.855
297.873
297.855
297.859
297.764
297.871
297.554
297.871
297.764
297.858
297.862
297.877
297.863
297.87
297.786
297.882
297.594
297.882
297.786
297.87
297.869
297.881
297.869
297.881
297.806
297.892
297.631
297.892
297.806
297.88
297.875
297.886
297.876
297.891
297.824
297.902
297.665
297.902
297.824
297.89
297.882
297.89
297.882
297.899
297.841
297.911
297.696
297.911
297.841
297.899
297.888
297.894
297.888
297.908
297.856
297.919
297.724
297.919
297.856
297.907
297.893
297.898
297.894
297.915
297.87
297.926
297.75
297.926
297.87
297.915
297.899
297.902
297.899
297.922
297.882
297.933
297.773
297.933
297.882
297.922
297.904
297.906
297.904
297.928
297.894
297.939
297.795
297.939
297.893
297.928
297.909
297.91
297.909
297.934
297.904
297.944
297.815
297.944
297.904
297.934
297.914
297.914
297.914
297.94
297.913
297.95
297.833
297.95
297.913
297.939
297.918
297.918
297.919
297.944
297.922
297.954
297.849
297.954
297.922
297.944
297.923
297.922
297.923
297.949
297.929
297.959
297.864
297.959
297.929
297.949
297.927
297.926
297.927
297.953
297.936
297.962
297.878
297.962
297.936
297.953
297.931
297.93
297.931
297.957
297.943
297.966
297.89
297.966
297.942
297.957
297.935
297.933
297.935
297.96
297.948
297.969
297.901
297.969
297.948
297.96
297.938
297.937
297.939
297.964
297.953
297.972
297.911
297.972
297.953
297.963
297.942
297.941
297.942
297.967
297.958
297.975
297.92
297.975
297.958
297.966
297.945
297.944
297.946
297.969
297.962
297.977
297.929
297.977
297.962
297.969
297.949
297.947
297.949
297.972
297.966
297.98
297.936
297.979
297.966
297.971
297.952
297.95
297.952
297.974
297.969
297.982
297.943
297.981
297.969
297.974
297.955
297.953
297.955
297.976
297.972
297.983
297.949
297.983
297.972
297.976
297.957
297.956
297.958
297.978
297.975
297.985
297.954
297.985
297.975
297.978
297.96
297.959
297.96
297.98
297.978
297.986
297.959
297.986
297.977
297.98
297.963
297.962
297.963
297.981
297.98
297.988
297.963
297.988
297.98
297.981
297.965
297.965
297.965
297.983
297.982
297.989
297.967
297.989
297.982
297.983
297.968
297.967
297.968
297.984
297.984
297.99
297.971
297.99
297.984
297.984
297.97
297.969
297.97
297.986
297.985
297.991
297.974
297.991
297.985
297.986
297.972
297.972
297.972
297.987
297.987
297.992
297.977
297.992
297.987
297.987
297.974
297.974
297.974
297.988
297.988
297.993
297.979
297.993
297.988
297.988
297.976
297.976
297.976
297.989
297.989
297.994
297.982
297.994
297.989
297.989
297.978
297.978
297.978
297.99
297.99
297.994
297.984
297.994
297.99
297.99
297.979
297.979
297.979
297.991
297.991
297.995
297.986
297.995
297.991
297.991
297.981
297.981
297.981
297.992
297.992
297.995
297.987
297.995
297.992
297.992
297.982
297.983
297.983
297.992
297.993
297.996
297.989
297.996
297.993
297.992
297.984
297.984
297.984
297.993
297.994
297.996
297.99
297.996
297.994
297.993
297.985
297.986
297.985
297.994
297.994
297.997
297.991
297.997
297.994
297.994
297.986
297.987
297.987
297.994
297.995
297.997
297.992
297.997
297.995
297.994
297.988
297.988
297.988
297.995
297.995
297.997
297.993
297.997
297.995
297.995
297.989
297.989
297.989
297.995
297.996
297.998
297.994
297.998
297.996
297.995
297.99
297.99
297.99
297.996
297.996
297.998
297.995
297.998
297.996
297.996
297.991
297.991
297.991
297.996
297.997
297.998
297.995
297.998
297.997
297.996
297.991
297.992
297.992
297.997
297.997
297.998
297.996
297.998
297.997
297.997
297.992
297.993
297.992
297.997
297.997
297.998
297.996
297.998
297.997
297.997
297.993
297.994
297.993
297.997
297.998
297.999
297.997
297.999
297.998
297.997
297.994
297.994
297.994
297.998
297.998
297.999
297.997
297.999
297.998
297.998
297.994
297.995
297.994
297.998
297.998
297.999
297.997
297.999
297.998
297.998
297.995
297.996
297.995
297.998
297.998
297.999
297.998
297.999
297.998
297.998
297.995
297.996
297.996
297.998
297.999
297.999
297.998
297.999
297.999
297.998
297.996
297.997
297.996
297.998
297.999
297.999
297.998
297.999
297.999
297.998
297.996
297.997
297.996
297.999
297.999
297.999
297.998
297.999
297.999
297.999
297.997
297.997
297.997
297.999
297.999
297.999
297.999
297.999
297.999
297.999
297.997
297.998
297.997
297.999
297.999
298
297.999
298
297.999
297.999
297.998
297.998
297.998
297.999
297.999
298
297.999
298
297.999
297.999
297.998
297.998
297.998
297.999
297.999
298
297.999
298
297.999
297.999
297.998
297.998
297.998
297.999
297.999
298
297.999
298
297.999
297.999
297.998
297.999
297.998
297.999
297.999
298
297.999
298
297.999
297.999
297.999
297.999
297.999
297.999
298
298
297.999
298
298
297.999
297.999
297.999
297.999
298
298
298
297.999
298
298
298
297.999
297.999
297.999
298
298
298
298
298
298
298
297.999
297.999
297.999
298
298
298
298
298
298
298
297.999
297.999
297.999
298
298
298
298
298
298
298
297.999
298
297.999
298
298
298
298
298
298
298
297.999
298
297.999
298
298
298
298
298
298
298
298
298
298
298
298
298
298
298
298
298
298
298
298
298
298
298
298
298
298
298
298
298
298
298
298
298
298
298
298
298
298
298
298
298
298
298
298
298
298
298
298
298
298
298
298
298
298
298
298
298
298
298
298
298
298
298
298
298
298
298
298
298
298
298
298
298
298
298
298
298
298
298
298
)
;

boundaryField
{
    BotWall
    {
        type            fixedValue;
        value           uniform 293;
    }
    FreeStream
    {
        type            fixedValue;
        value           uniform 298;
    }
    FrontNBack
    {
        type            empty;
    }
    LeftSide
    {
        type            cyclic;
    }
    RightSide
    {
        type            cyclic;
    }
}


// ************************************************************************* //
