/*--------------------------------*- C++ -*----------------------------------*\
| =========                 |                                                 |
| \\      /  F ield         | OpenFOAM: The Open Source CFD Toolbox           |
|  \\    /   O peration     | Version:  2.4.0                                 |
|   \\  /    A nd           | Web:      www.OpenFOAM.org                      |
|    \\/     M anipulation  |                                                 |
\*---------------------------------------------------------------------------*/
FoamFile
{
    version     2.0;
    format      ascii;
    class       volVectorField;
    location    "0.4";
    object      U;
}
// * * * * * * * * * * * * * * * * * * * * * * * * * * * * * * * * * * * * * //

dimensions      [0 1 -1 0 0 0 0];

internalField   nonuniform List<vector> 
1000
(
(0.00266043 -0.0160981 0)
(-0.0296282 -0.00367475 0)
(0.0216097 -0.0129769 0)
(-1.10243e-07 8.7751e-05 0)
(-0.0216092 -0.0129768 0)
(0.0296283 -0.0036747 0)
(-0.00266139 -0.0161035 0)
(0.0161234 -0.00784624 0)
(-3.59856e-08 0.000726828 0)
(-0.0161241 -0.00784588 0)
(0.00268384 -0.0173752 0)
(-0.0293926 -0.0113457 0)
(-0.0252608 -0.0213046 0)
(-7.88256e-08 9.75371e-05 0)
(0.0252618 -0.0213046 0)
(0.0293938 -0.0113455 0)
(-0.00268398 -0.0173823 0)
(-0.00367116 -0.0126007 0)
(-1.10129e-07 -0.00213003 0)
(0.00366838 -0.0125982 0)
(0.00129124 -0.0150094 0)
(-0.0255207 -0.0167762 0)
(-0.0213485 -0.0203182 0)
(3.42805e-07 -0.00155916 0)
(0.02135 -0.0203182 0)
(0.0255234 -0.0167759 0)
(-0.00129233 -0.0150132 0)
(-0.00280169 -0.0120585 0)
(-1.90657e-06 -0.0131774 0)
(0.00279442 -0.0120536 0)
(0.000284156 -0.0136442 0)
(-0.0220371 -0.0116085 0)
(-0.0181306 -0.0195456 0)
(7.10924e-07 -0.00264162 0)
(0.0181324 -0.0195456 0)
(0.0220402 -0.0116083 0)
(-0.000286334 -0.0136475 0)
(-0.00235673 -0.0112314 0)
(-7.02599e-06 -0.0192243 0)
(0.00234551 -0.0112268 0)
(-0.000494181 -0.0131757 0)
(-0.0189046 -0.010606 0)
(-0.0154528 -0.0196792 0)
(9.80644e-07 -0.00294803 0)
(0.0154548 -0.0196793 0)
(0.0189079 -0.0106057 0)
(0.000491048 -0.0131788 0)
(-0.00182637 -0.0110545 0)
(-1.07496e-05 -0.0139855 0)
(0.00181157 -0.0110503 0)
(-0.00110149 -0.012907 0)
(-0.0160928 -0.0104594 0)
(-0.0132121 -0.0200388 0)
(1.22251e-06 -0.00338635 0)
(0.0132142 -0.0200389 0)
(0.0160963 -0.0104591 0)
(0.00109746 -0.0129097 0)
(-0.00133227 -0.0110735 0)
(-1.3917e-05 -0.0132283 0)
(0.00131429 -0.0110697 0)
(-0.00157504 -0.0126497 0)
(-0.0135719 -0.0104081 0)
(-0.0113347 -0.0203373 0)
(1.43823e-06 -0.00383336 0)
(0.0113369 -0.0203374 0)
(0.0135755 -0.0104078 0)
(0.00157019 -0.0126519 0)
(-0.000897512 -0.0110824 0)
(-1.66548e-05 -0.0133621 0)
(0.000876725 -0.011079 0)
(-0.00193901 -0.0124108 0)
(-0.0113137 -0.0102882 0)
(-0.00976285 -0.0205599 0)
(1.6267e-06 -0.004233 0)
(0.00976506 -0.02056 0)
(0.0113173 -0.0102877 0)
(0.00193341 -0.0124125 0)
(-0.000521464 -0.0110594 0)
(-1.90114e-05 -0.0135352 0)
(0.000498189 -0.0110566 0)
(-0.00221358 -0.0122104 0)
(-0.0092928 -0.0101638 0)
(-0.00844604 -0.0207358 0)
(1.78828e-06 -0.00457637 0)
(0.00844821 -0.0207359 0)
(0.00929648 -0.0101632 0)
(0.00220729 -0.0122116 0)
(-0.000198106 -0.0110224 0)
(-2.10017e-05 -0.0135788 0)
(0.000172661 -0.0110203 0)
(-0.00241552 -0.0120508 0)
(-0.00748645 -0.0100643 0)
(-0.0073411 -0.0208786 0)
(1.92359e-06 -0.00487451 0)
(0.00734318 -0.0208787 0)
(0.00749008 -0.0100636 0)
(0.0024086 -0.0120515 0)
(7.6771e-05 -0.0109809 0)
(-2.26415e-05 -0.0135732 0)
(-0.000104075 -0.0109795 0)
(-0.00255852 -0.0119275 0)
(-0.00587416 -0.00998994 0)
(-0.00641181 -0.0209922 0)
(2.03345e-06 -0.00513692 0)
(0.00641377 -0.0209922 0)
(0.00587768 -0.0099891 0)
(0.00255103 -0.0119275 0)
(0.000310081 -0.010937 0)
(-2.39974e-05 -0.0135573 0)
(-0.000338972 -0.0109365 0)
(-0.00265364 -0.0118358 0)
(-0.00443753 -0.00993432 0)
(-0.00562811 -0.0210787 0)
(2.11879e-06 -0.00536965 0)
(0.00562992 -0.0210787 0)
(0.0044409 -0.00993333 0)
(0.00264564 -0.0118352 0)
(0.00050418 -0.0108912 0)
(-2.50792e-05 -0.0135372 0)
(-0.000534387 -0.0108916 0)
(-0.0027097 -0.0117721 0)
(-0.00316003 -0.00989311 0)
(-0.00496507 -0.0211404 0)
(2.18064e-06 -0.00557708 0)
(0.0049667 -0.0211404 0)
(0.00316322 -0.00989196 0)
(0.00270123 -0.0117709 0)
(0.000661034 -0.0108439 0)
(-2.58968e-05 -0.0135115 0)
(-0.000692293 -0.0108451 0)
(-0.00273382 -0.0117332 0)
(-0.00202678 -0.00986359 0)
(-0.00440208 -0.02118 0)
(2.22011e-06 -0.00576286 0)
(0.0044035 -0.02118 0)
(0.00202974 -0.00986228 0)
(0.00272493 -0.0117314 0)
(0.000784339 -0.0107956 0)
(-2.6488e-05 -0.0134802 0)
(-0.000816417 -0.0107977 0)
(-0.00273183 -0.0117165 0)
(-0.00102434 -0.00984375 0)
(-0.00392207 -0.0211997 0)
(2.23833e-06 -0.0059301 0)
(0.00392327 -0.0211996 0)
(0.00102705 -0.00984227 0)
(0.00272256 -0.0117139 0)
(0.000877626 -0.0107468 0)
(-2.68869e-05 -0.0134443 0)
(-0.000910319 -0.0107499 0)
(-0.00270839 -0.0117191 0)
(-0.000140602 -0.00983185 0)
(-0.00351098 -0.0212017 0)
(2.23646e-06 -0.0060814 0)
(0.00351194 -0.0212016 0)
(0.000143024 -0.00983019 0)
(0.00269878 -0.0117159 0)
(0.00094297 -0.010698 0)
(-2.70978e-05 -0.0134051 0)
(-0.000976078 -0.010702 0)
(-0.00266729 -0.0117388 0)
(0.000635412 -0.00982635 0)
(-0.0031572 -0.0211879 0)
(2.2157e-06 -0.00621896 0)
(0.0031579 -0.0211878 0)
(-0.000633299 -0.00982451 0)
(0.00265739 -0.0117349 0)
(0.000983473 -0.0106496 0)
(-2.71392e-05 -0.0133634 0)
(-0.00101681 -0.0106545 0)
(-0.00261162 -0.0117735 0)
(0.00131364 -0.00982578 0)
(-0.00285118 -0.0211604 0)
(2.17722e-06 -0.00634459 0)
(0.00285161 -0.0211602 0)
(-0.00131186 -0.00982376 0)
(0.00260144 -0.0117688 0)
(0.00100212 -0.0106019 0)
(-2.70288e-05 -0.0133203 0)
(-0.00103551 -0.0106076 0)
(-0.00254387 -0.0118211 0)
(0.00190312 -0.00982855 0)
(-0.00258505 -0.021121 0)
(2.12218e-06 -0.00645983 0)
(0.00258519 -0.0211208 0)
(-0.00190169 -0.00982634 0)
(0.00253347 -0.0118158 0)
(0.00100169 -0.010555 0)
(-2.6782e-05 -0.0132765 0)
(-0.00103497 -0.0105617 0)
(-0.00246605 -0.0118804 0)
(0.00241207 -0.00983337 0)
(-0.00235233 -0.0210715 0)
(2.05178e-06 -0.00656593 0)
(0.00235219 -0.0210712 0)
(-0.002411 -0.00983095 0)
(0.00245544 -0.0118743 0)
(0.000982922 -0.0105094 0)
(-2.6402e-05 -0.0132328 0)
(-0.00101595 -0.010517 0)
(-0.00237977 -0.011949 0)
(0.00284811 -0.00984104 0)
(-0.00214781 -0.021012 0)
(1.96749e-06 -0.00666399 0)
(0.00214739 -0.0210116 0)
(-0.00284741 -0.00983843 0)
(0.00236897 -0.0119423 0)
(0.000949501 -0.0104651 0)
(-2.59153e-05 -0.0131899 0)
(-0.000982144 -0.0104735 0)
(-0.0022868 -0.0120247 0)
(0.00321886 -0.00985203 0)
(-0.00196756 -0.0209434 0)
(1.87028e-06 -0.00675492 0)
(0.00196684 -0.0209429 0)
(-0.00321854 -0.00984925 0)
(0.00227585 -0.0120174 0)
(0.000904675 -0.0104223 0)
(-2.53481e-05 -0.0131483 0)
(-0.000936825 -0.0104316 0)
(-0.00218872 -0.0121065 0)
(0.00353132 -0.00986535 0)
(-0.00180823 -0.0208671 0)
(1.76125e-06 -0.00683951 0)
(0.00180721 -0.0208666 0)
(-0.0035314 -0.0098624 0)
(0.00217767 -0.0120984 0)
(0.000848476 -0.0103812 0)
(-2.46972e-05 -0.0131083 0)
(-0.000880026 -0.0103914 0)
(-0.00208688 -0.0121931 0)
(0.00379187 -0.00988014 0)
(-0.00166701 -0.0207845 0)
(1.64153e-06 -0.00691846 0)
(0.00166569 -0.0207839 0)
(-0.00379236 -0.00987701 0)
(0.00207575 -0.0121844 0)
(0.000781014 -0.0103419 0)
(-2.39664e-05 -0.0130706 0)
(-0.000811861 -0.0103529 0)
(-0.00198245 -0.0122835 0)
(0.00400632 -0.00989582 0)
(-0.00154152 -0.0206965 0)
(1.51225e-06 -0.00699238 0)
(0.0015399 -0.0206958 0)
(-0.00400722 -0.00989251 0)
(0.00197126 -0.0122742 0)
(0.000705223 -0.0103044 0)
(-2.3174e-05 -0.0130357 0)
(-0.000735282 -0.0103162 0)
(-0.00187645 -0.0123768 0)
(0.0041799 -0.00991201 0)
(-0.00142972 -0.0206039 0)
(1.37448e-06 -0.00706178 0)
(0.0014278 -0.0206031 0)
(-0.00418122 -0.00990853 0)
(0.00186525 -0.0123669 0)
(0.000623215 -0.0102688 0)
(-2.23368e-05 -0.0130038 0)
(-0.000652416 -0.0102814 0)
(-0.00176975 -0.012472 0)
(0.00431736 -0.00992839 0)
(-0.00132987 -0.0205074 0)
(1.22927e-06 -0.00712714 0)
(0.00132765 -0.0205066 0)
(-0.0043191 -0.00992474 0)
(0.00175855 -0.0124616 0)
(0.000533914 -0.0102351 0)
(-2.14507e-05 -0.0129753 0)
(-0.000562184 -0.0102485 0)
(-0.00166309 -0.0125685 0)
(0.00442296 -0.00994472 0)
(-0.00124048 -0.0204079 0)
(1.07763e-06 -0.00718887 0)
(0.00123796 -0.0204069 0)
(-0.00442511 -0.0099409 0)
(0.00165193 -0.0125575 0)
(0.000438908 -0.0102034 0)
(-2.05289e-05 -0.0129507 0)
(-0.000466188 -0.0102175 0)
(-0.00155712 -0.0126655 0)
(0.00450055 -0.00996076 0)
(-0.00116023 -0.0203057 0)
(9.20539e-07 -0.00724731 0)
(0.00115742 -0.0203047 0)
(-0.00450311 -0.00995678 0)
(0.00154603 -0.0126539 0)
(0.000339745 -0.0101737 0)
(-1.95803e-05 -0.0129301 0)
(-0.000365984 -0.0101884 0)
(-0.0014524 -0.0127623 0)
(0.00455358 -0.00997634 0)
(-0.001088 -0.0202016 0)
(7.58916e-07 -0.00730278 0)
(0.0010849 -0.0202005 0)
(-0.00455655 -0.00997221 0)
(0.00144141 -0.0127503 0)
(0.000237873 -0.0101458 0)
(-1.86123e-05 -0.0129139 0)
(-0.000263028 -0.0101612 0)
(-0.0013494 -0.0128585 0)
(0.00458515 -0.00999132 0)
(-0.0010228 -0.0200959 0)
(5.93649e-07 -0.00735556 0)
(0.00101942 -0.0200947 0)
(-0.0045885 -0.00998704 0)
(0.00133854 -0.012846 0)
(0.000134603 -0.0101197 0)
(-1.76326e-05 -0.0129024 0)
(-0.000158637 -0.0101358 0)
(-0.00124852 -0.0129536 0)
(0.004598 -0.0100056 0)
(-0.000963776 -0.0199891 0)
(4.25574e-07 -0.00740591 0)
(0.00096012 -0.0199878 0)
(-0.00460175 -0.0100011 0)
(0.0012378 -0.0129407 0)
(3.10952e-05 -0.0100951 0)
(-1.66489e-05 -0.0128959 0)
(-5.39779e-05 -0.010112 0)
(-0.00115009 -0.0130473 0)
(0.00459463 -0.010019 0)
(-0.000910163 -0.0198815 0)
(2.55484e-07 -0.00745402 0)
(0.000906239 -0.0198801 0)
(-0.00459876 -0.0100144 0)
(0.00113956 -0.013034 0)
(-7.16386e-05 -0.0100722 0)
(-1.5669e-05 -0.0128947 0)
(4.99321e-05 -0.0100897 0)
(-0.0010544 -0.0131392 0)
(0.00457724 -0.0100315 0)
(-0.000861299 -0.0197734 0)
(8.41222e-08 -0.0075001 0)
(0.000857112 -0.0197719 0)
(-0.00458172 -0.0100269 0)
(0.00104407 -0.0131255 0)
(-0.000172716 -0.0100513 0)
(-1.46888e-05 -0.0128978 0)
(0.000152201 -0.0100693 0)
(-0.000961643 -0.0132291 0)
(0.00454778 -0.0100431 0)
(-0.000816597 -0.0196652 0)
(-8.78162e-08 -0.0075443 0)
(0.000812157 -0.0196636 0)
(-0.00455262 -0.0100383 0)
(0.000951537 -0.0132151 0)
(-0.000271348 -0.0100326 0)
(-1.37088e-05 -0.0129046 0)
(0.000252036 -0.0100509 0)
(-0.000871997 -0.0133168 0)
(0.004508 -0.0100537 0)
(-0.000775544 -0.0195571 0)
(-2.59682e-07 -0.00758678 0)
(0.000770857 -0.0195554 0)
(-0.00451318 -0.0100488 0)
(0.000862133 -0.0133025 0)
(-0.000366854 -0.0100159 0)
(-1.2734e-05 -0.0129152 0)
(0.00034875 -0.0100345 0)
(-0.000785584 -0.0134023 0)
(0.00445946 -0.0100633 0)
(-0.000737683 -0.0194493 0)
(-4.30874e-07 -0.00762767 0)
(0.000732759 -0.0194475 0)
(-0.00446496 -0.0100583 0)
(0.000775979 -0.0133878 0)
(-0.000458653 -0.010001 0)
(-1.17694e-05 -0.0129298 0)
(0.000441762 -0.0100199 0)
(-0.000702497 -0.0134856 0)
(0.00440354 -0.0100719 0)
(-0.000702616 -0.019342 0)
(-6.00837e-07 -0.00766706 0)
(0.000697462 -0.0193401 0)
(-0.00440935 -0.0100668 0)
(0.00069317 -0.0134709 0)
(-0.000546257 -0.00998752 0)
(-1.08191e-05 -0.0129482 0)
(0.000530577 -0.0100067 0)
(-0.000622803 -0.0135666 0)
(0.00434145 -0.0100795 0)
(-0.000669991 -0.0192353 0)
(-7.69059e-07 -0.00770507 0)
(0.000664615 -0.0192334 0)
(-0.00434755 -0.0100743 0)
(0.00061377 -0.0135517 0)
(-0.000629258 -0.00997558 0)
(-9.88575e-06 -0.0129705 0)
(0.000614785 -0.00999499 0)
(-0.000546549 -0.0136447 0)
(0.00427428 -0.010086 0)
(-0.000639496 -0.0191295 0)
(-9.35076e-07 -0.00774178 0)
(0.000633907 -0.0191274 0)
(-0.00428066 -0.0100808 0)
(0.000537831 -0.0136294 0)
(-0.000707353 -0.00996567 0)
(-8.96723e-06 -0.0129964 0)
(0.000694067 -0.00998516 0)
(-0.000473792 -0.0137194 0)
(0.00420296 -0.0100916 0)
(-0.00061086 -0.0190246 0)
(-1.09847e-06 -0.00777725 0)
(0.000605067 -0.0190225 0)
(-0.0042096 -0.0100863 0)
(0.000465407 -0.013704 0)
(-0.000780366 -0.00995796 0)
(-8.06727e-06 -0.0130258 0)
(0.000768244 -0.00997757 0)
(-0.000404548 -0.013791 0)
(0.0041283 -0.0100961 0)
(-0.000583843 -0.0189207 0)
(-1.25886e-06 -0.00781156 0)
(0.000577854 -0.0189185 0)
(-0.00413518 -0.0100908 0)
(0.000396512 -0.0137754 0)
(-0.000848172 -0.00995219 0)
(-7.18872e-06 -0.0130586 0)
(0.000837194 -0.00997194 0)
(-0.000338806 -0.0138597 0)
(0.00405102 -0.0100997 0)
(-0.000558236 -0.018818 0)
(-1.41592e-06 -0.00784475 0)
(0.00055206 -0.0188157 0)
(-0.00405812 -0.0100944 0)
(0.00033113 -0.0138439 0)
(-0.000910698 -0.00994818 0)
(-6.3334e-06 -0.0130946 0)
(0.000900842 -0.00996803 0)
(-0.000276527 -0.0139254 0)
(0.00397176 -0.0101024 0)
(-0.000533856 -0.0187164 0)
(-1.56936e-06 -0.00787686 0)
(0.000527501 -0.018714 0)
(-0.00397907 -0.010097 0)
(0.000269221 -0.0139096 0)
(-0.000967918 -0.00994579 0)
(-5.50261e-06 -0.0131336 0)
(0.000959159 -0.00996573 0)
(-0.000217647 -0.0139883 0)
(0.00389106 -0.0101043 0)
(-0.000510543 -0.0186161 0)
(-1.71893e-06 -0.00790795 0)
(0.000504017 -0.0186137 0)
(-0.00389855 -0.0100989 0)
(0.000210718 -0.0139725 0)
(-0.00101985 -0.00994494 0)
(-4.69737e-06 -0.0131753 0)
(0.00101216 -0.00996494 0)
(-0.000162081 -0.0140485 0)
(0.0038094 -0.0101052 0)
(-0.000488157 -0.0185172 0)
(-1.86443e-06 -0.00793803 0)
(0.000481468 -0.0185146 0)
(-0.00381706 -0.0100998 0)
(0.000155532 -0.0140327 0)
(-0.00106655 -0.00994556 0)
(-3.91851e-06 -0.0132197 0)
(0.00105991 -0.0099656 0)
(-0.000109725 -0.014106 0)
(0.00372719 -0.0101054 0)
(-0.000466578 -0.0184195 0)
(-2.00569e-06 -0.00796714 0)
(0.000459733 -0.0184169 0)
(-0.00373499 -0.0101001 0)
(0.000103558 -0.0140902 0)
(-0.00110811 -0.00994756 0)
(-3.16667e-06 -0.0132664 0)
(0.00110249 -0.00996761 0)
(-6.04612e-05 -0.014161 0)
(0.00364479 -0.0101049 0)
(-0.000445701 -0.0183233 0)
(-2.14258e-06 -0.0079953 0)
(0.000438708 -0.0183206 0)
(-0.00365273 -0.0100995 0)
(5.4676e-05 -0.0141452 0)
(-0.00114466 -0.00995087 0)
(-2.44228e-06 -0.0133153 0)
(0.00114003 -0.00997091 0)
(-1.41609e-05 -0.0142134 0)
(0.00356251 -0.0101036 0)
(-0.000425435 -0.0182285 0)
(-2.27501e-06 -0.00802252 0)
(0.000418301 -0.0182258 0)
(-0.00357056 -0.0100983 0)
(8.7551e-06 -0.0141977 0)
(-0.00117634 -0.00995543 0)
(-1.74564e-06 -0.0133662 0)
(0.00117268 -0.00997544 0)
(2.93146e-05 -0.0142635 0)
(0.00348061 -0.0101016 0)
(-0.000405703 -0.0181351 0)
(-2.40291e-06 -0.00804881 0)
(0.000398434 -0.0181323 0)
(-0.00348876 -0.0100964 0)
(-3.43454e-05 -0.0142479 0)
(-0.00120335 -0.00996117 0)
(-1.07685e-06 -0.0134188 0)
(0.00120062 -0.00998112 0)
(7.01105e-05 -0.0143113 0)
(0.00339932 -0.0100991 0)
(-0.000386439 -0.0180432 0)
(-2.52627e-06 -0.00807419 0)
(0.000379042 -0.0180404 0)
(-0.00340756 -0.0100939 0)
(-7.4772e-05 -0.0142958 0)
(-0.00122586 -0.00996803 0)
(-4.35916e-07 -0.0134731 0)
(0.00122405 -0.00998789 0)
(0.000108376 -0.0143569 0)
(0.00331883 -0.0100959 0)
(-0.000367585 -0.0179527 0)
(-2.64509e-06 -0.00809866 0)
(0.000360066 -0.0179498 0)
(-0.00332714 -0.0100909 0)
(-0.000112675 -0.0143416 0)
(-0.0012441 -0.00997594 0)
(1.7732e-07 -0.0135287 0)
(0.00124316 -0.00999571 0)
(0.000144261 -0.0144004 0)
(0.00323931 -0.0100923 0)
(-0.000349095 -0.0178637 0)
(-2.75941e-06 -0.00812223 0)
(0.000341459 -0.0178608 0)
(-0.00324768 -0.0100873 0)
(-0.000148208 -0.0143853 0)
(-0.00125829 -0.00998487 0)
(7.63113e-07 -0.0135855 0)
(0.0012582 -0.0100045 0)
(0.000177919 -0.0144419 0)
(0.0031609 -0.0100881 0)
(-0.000330927 -0.0177762 0)
(-2.86932e-06 -0.00814489 0)
(0.000323181 -0.0177732 0)
(-0.00316931 -0.0100832 0)
(-0.000181521 -0.014427 0)
(-0.00126867 -0.00999474 0)
(1.32183e-06 -0.0136434 0)
(0.00126939 -0.0100143 0)
(0.000209496 -0.0144815 0)
(0.00308371 -0.0100834 0)
(-0.000313049 -0.0176901 0)
(-2.9749e-06 -0.00816666 0)
(0.000305198 -0.0176871 0)
(-0.00309214 -0.0100787 0)
(-0.000212767 -0.0144668 0)
(-0.00127547 -0.0100055 0)
(1.85392e-06 -0.0137021 0)
(0.00127698 -0.0100249 0)
(0.000239141 -0.0145193 0)
(0.00300783 -0.0100784 0)
(-0.000295434 -0.0176055 0)
(-3.0763e-06 -0.00818752 0)
(0.000287482 -0.0176025 0)
(-0.00301628 -0.0100737 0)
(-0.00024209 -0.0145049 0)
(-0.00127895 -0.0100172 0)
(2.35994e-06 -0.0137615 0)
(0.00128121 -0.0100363 0)
(0.000266994 -0.0145554 0)
(0.00293335 -0.0100729 0)
(-0.000278059 -0.0175223 0)
(-3.17368e-06 -0.00820747 0)
(0.000270011 -0.0175193 0)
(-0.0029418 -0.0100684 0)
(-0.000269635 -0.0145413 0)
(-0.00127935 -0.0100296 0)
(2.84049e-06 -0.0138215 0)
(0.00128233 -0.0100486 0)
(0.000293191 -0.0145899 0)
(0.00286033 -0.0100671 0)
(-0.000260907 -0.0174406 0)
(-3.26722e-06 -0.00822651 0)
(0.000252767 -0.0174376 0)
(-0.00286877 -0.0100627 0)
(-0.000295536 -0.0145761 0)
(-0.00127691 -0.0100429 0)
(3.29624e-06 -0.0138819 0)
(0.00128058 -0.0100616 0)
(0.00031786 -0.0146229 0)
(0.00278881 -0.0100609 0)
(-0.000243965 -0.0173603 0)
(-3.35716e-06 -0.00824464 0)
(0.000235738 -0.0173573 0)
(-0.00279724 -0.0100567 0)
(-0.000319924 -0.0146094 0)
(-0.00127187 -0.0100568 0)
(3.72794e-06 -0.0139425 0)
(0.0012762 -0.0100754 0)
(0.000341125 -0.0146544 0)
(0.00271884 -0.0100545 0)
(-0.000227224 -0.0172814 0)
(-3.44373e-06 -0.00826185 0)
(0.000218912 -0.0172784 0)
(-0.00272724 -0.0100504 0)
(-0.000342921 -0.0146413 0)
(-0.00126448 -0.0100715 0)
(4.13636e-06 -0.0140033 0)
(0.00126943 -0.0100898 0)
(0.000363097 -0.0146846 0)
(0.00265044 -0.0100477 0)
(-0.000210676 -0.0172039 0)
(-3.52723e-06 -0.00827813 0)
(0.000202284 -0.0172009 0)
(-0.0026588 -0.0100439 0)
(-0.00036464 -0.0146718 0)
(-0.00125496 -0.0100869 0)
(4.5223e-06 -0.0140641 0)
(0.0012605 -0.0101049 0)
(0.000383883 -0.0147135 0)
(0.00258363 -0.0100407 0)
(-0.000194318 -0.0171278 0)
(-3.60796e-06 -0.00829348 0)
(0.000185849 -0.0171248 0)
(-0.00259194 -0.010037 0)
(-0.000385187 -0.0147011 0)
(-0.00124353 -0.0101029 0)
(4.8866e-06 -0.0141248 0)
(0.00124963 -0.0101207 0)
(0.000403579 -0.0147413 0)
(0.00251842 -0.0100334 0)
(-0.000178149 -0.0170531 0)
(-3.68627e-06 -0.00830788 0)
(0.000169606 -0.0170501 0)
(-0.00252668 -0.01003 0)
(-0.000404658 -0.0147292 0)
(-0.0012304 -0.0101196 0)
(5.23012e-06 -0.0141853 0)
(0.00123704 -0.010137 0)
(0.000422271 -0.0147679 0)
(0.00245482 -0.0100259 0)
(-0.00016217 -0.0169797 0)
(-3.76255e-06 -0.00832133 0)
(0.000153556 -0.0169767 0)
(-0.00246301 -0.0100227 0)
(-0.00042314 -0.0147563 0)
(-0.00121578 -0.0101368 0)
(5.55373e-06 -0.0142456 0)
(0.00122291 -0.010154 0)
(0.000440038 -0.0147934 0)
(0.00239282 -0.0100182 0)
(-0.000146382 -0.0169076 0)
(-3.83723e-06 -0.00833383 0)
(0.0001377 -0.0169047 0)
(-0.00240094 -0.0100152 0)
(-0.000440711 -0.0147822 0)
(-0.00119986 -0.0101546 0)
(5.85831e-06 -0.0143055 0)
(0.00120745 -0.0101715 0)
(0.000456951 -0.014818 0)
(0.00233241 -0.0100103 0)
(-0.000130791 -0.0168369 0)
(-3.91077e-06 -0.00834536 0)
(0.000122043 -0.0168341 0)
(-0.00234045 -0.0100075 0)
(-0.000457441 -0.0148072 0)
(-0.0011828 -0.010173 0)
(6.14471e-06 -0.0143651 0)
(0.00119084 -0.0101895 0)
(0.000473069 -0.0148416 0)
(0.00227358 -0.0100022 0)
(-0.000115402 -0.0167674 0)
(-3.9837e-06 -0.0083559 0)
(0.000106589 -0.0167647 0)
(-0.00228154 -0.00999969 0)
(-0.000473392 -0.0148313 0)
(-0.00116479 -0.0101919 0)
(6.41382e-06 -0.0144241 0)
(0.00117323 -0.0102081 0)
(0.000488448 -0.0148644 0)
(0.00221632 -0.00999396 0)
(-0.00010022 -0.0166992 0)
(-4.05664e-06 -0.00836546 0)
(9.13463e-05 -0.0166966 0)
(-0.00222418 -0.00999167 0)
(-0.000488615 -0.0148545 0)
(-0.00114597 -0.0102113 0)
(6.66646e-06 -0.0144826 0)
(0.00115479 -0.0102272 0)
(0.000503131 -0.0148864 0)
(0.0021606 -0.00998553 0)
(-8.52538e-05 -0.0166323 0)
(-4.13025e-06 -0.00837402 0)
(7.63207e-05 -0.0166298 0)
(-0.00216836 -0.0099835 0)
(-0.000503155 -0.0148769 0)
(-0.00112648 -0.0102312 0)
(6.90349e-06 -0.0145405 0)
(0.00113565 -0.0102467 0)
(0.000517157 -0.0149075 0)
(0.0021064 -0.00997695 0)
(-7.05106e-05 -0.0165666 0)
(-4.20532e-06 -0.00838157 0)
(6.15202e-05 -0.0165642 0)
(-0.00211405 -0.00997518 0)
(-0.000517051 -0.0148986 0)
(-0.00110646 -0.0102516 0)
(7.12569e-06 -0.0145978 0)
(0.00111595 -0.0102667 0)
(0.000530557 -0.014928 0)
(0.00205369 -0.00996823 0)
(-5.59986e-05 -0.0165022 0)
(-4.28275e-06 -0.00838808 0)
(4.69528e-05 -0.0164999 0)
(-0.00206123 -0.00996672 0)
(-0.000530334 -0.0149196 0)
(-0.00108602 -0.0102724 0)
(7.33386e-06 -0.0146545 0)
(0.00109581 -0.0102872 0)
(0.000543358 -0.0149478 0)
(0.00200245 -0.00995936 0)
(-4.1726e-05 -0.016439 0)
(-4.36366e-06 -0.00839353 0)
(3.26267e-05 -0.0164369 0)
(-0.00200986 -0.00995813 0)
(-0.000543028 -0.0149399 0)
(-0.00106528 -0.0102938 0)
(7.52875e-06 -0.0147104 0)
(0.00107533 -0.0103081 0)
(0.000555579 -0.014967 0)
(0.00195265 -0.00995036 0)
(-2.77004e-05 -0.0163769 0)
(-4.4498e-06 -0.00839787 0)
(1.85494e-05 -0.0163751 0)
(-0.00195992 -0.00994941 0)
(-0.000555154 -0.0149595 0)
(-0.00104432 -0.0103155 0)
(7.71107e-06 -0.0147657 0)
(0.00105462 -0.0103295 0)
(0.000567237 -0.0149856 0)
(0.00190426 -0.00994123 0)
(-1.39277e-05 -0.0163161 0)
(-4.54414e-06 -0.00840103 0)
(4.72676e-06 -0.0163147 0)
(-0.00191138 -0.00994056 0)
(-0.000566726 -0.0149786 0)
(-0.00102325 -0.0103377 0)
(7.8815e-06 -0.0148202 0)
(0.00103376 -0.0103512 0)
(0.000578343 -0.0150036 0)
(0.00185723 -0.00993198 0)
(-4.12442e-07 -0.0162566 0)
(-4.6498e-06 -0.00840306 0)
(-8.83655e-06 -0.0162554 0)
(-0.00186419 -0.0099316 0)
(-0.000577755 -0.0149972 0)
(-0.00100213 -0.0103602 0)
(8.04071e-06 -0.0148739 0)
(0.00101284 -0.0103734 0)
(0.000588906 -0.0150211 0)
(0.00181156 -0.00992261 0)
(1.28361e-05 -0.0161982 0)
(-4.76258e-06 -0.00840411 0)
(-2.21313e-05 -0.0161971 0)
(-0.00181834 -0.00992252 0)
(-0.000588252 -0.0150152 0)
(-0.000981035 -0.0103832 0)
(8.18928e-06 -0.0149269 0)
(0.000991924 -0.0103959 0)
(0.000598933 -0.0150381 0)
(0.00176719 -0.00991312 0)
(2.5806e-05 -0.0161408 0)
(-4.87864e-06 -0.00840429 0)
(-3.51456e-05 -0.0161399 0)
(-0.0017738 -0.00991334 0)
(-0.00059822 -0.0150327 0)
(-0.000960035 -0.0104066 0)
(8.32781e-06 -0.0149792 0)
(0.000971077 -0.0104189 0)
(0.000608428 -0.0150547 0)
(0.00172411 -0.00990352 0)
(3.84826e-05 -0.0160845 0)
(-4.99896e-06 -0.00840368 0)
(-4.78627e-05 -0.0160836 0)
(-0.00173054 -0.00990404 0)
(-0.000607664 -0.0150498 0)
(-0.000939184 -0.0104303 0)
(8.45683e-06 -0.0150306 0)
(0.000950361 -0.0104421 0)
(0.000617396 -0.0150708 0)
(0.00168231 -0.00989381 0)
(5.08481e-05 -0.0160291 0)
(-5.12155e-06 -0.0084024 0)
(-6.02651e-05 -0.0160282 0)
(-0.00168855 -0.00989465 0)
(-0.000616589 -0.0150665 0)
(-0.000918538 -0.0104543 0)
(8.57684e-06 -0.0150813 0)
(0.00092983 -0.0104657 0)
(0.00062584 -0.0150866 0)
(0.00164176 -0.009884 0)
(6.28788e-05 -0.0159747 0)
(-5.23773e-06 -0.00840044 0)
(-7.23299e-05 -0.0159737 0)
(-0.00164783 -0.00988515 0)
(-0.000624996 -0.0150828 0)
(-0.000898144 -0.0104787 0)
(8.68831e-06 -0.0151312 0)
(0.000909534 -0.0104897 0)
(0.000633764 -0.015102 0)
(0.00160247 -0.00987408 0)
(7.45584e-05 -0.0159211 0)
(-5.34561e-06 -0.00839783 0)
(-8.40413e-05 -0.01592 0)
(-0.00160836 -0.00987555 0)
(-0.000632889 -0.0150987 0)
(-0.000878051 -0.0105034 0)
(8.79168e-06 -0.0151803 0)
(0.000889522 -0.0105139 0)
(0.000641172 -0.015117 0)
(0.00156442 -0.00986406 0)
(8.58633e-05 -0.0158683 0)
(-5.44633e-06 -0.00839469 0)
(-9.53759e-05 -0.0158672 0)
(-0.00157015 -0.00986585 0)
(-0.000640272 -0.0151143 0)
(-0.000858303 -0.0105285 0)
(8.88735e-06 -0.0152287 0)
(0.00086984 -0.0105384 0)
(0.000648071 -0.0151317 0)
(0.00152764 -0.00985394 0)
(9.67724e-05 -0.0158162 0)
(-5.54001e-06 -0.00839098 0)
(-0.000106312 -0.0158151 0)
(-0.00153321 -0.00985605 0)
(-0.000647151 -0.0151295 0)
(-0.000838946 -0.0105538 0)
(8.9757e-06 -0.0152763 0)
(0.000850534 -0.0105633 0)
(0.000654468 -0.0151462 0)
(0.00149213 -0.00984371 0)
(0.000107266 -0.0157649 0)
(-5.6265e-06 -0.00838668 0)
(-0.000116831 -0.0157639 0)
(-0.00149755 -0.00984615 0)
(-0.000653532 -0.0151445 0)
(-0.000820025 -0.0105793 0)
(9.05708e-06 -0.0153232 0)
(0.000831652 -0.0105883 0)
(0.000660372 -0.0151604 0)
(0.00145792 -0.00983337 0)
(0.000117324 -0.0157144 0)
(-5.70573e-06 -0.00838178 0)
(-0.000126913 -0.0157135 0)
(-0.0014632 -0.00983614 0)
(-0.000659425 -0.0151592 0)
(-0.000801588 -0.0106052 0)
(9.13182e-06 -0.0153693 0)
(0.00081324 -0.0106137 0)
(0.000665795 -0.0151743 0)
(0.00142505 -0.00982292 0)
(0.000126929 -0.0156647 0)
(-5.77774e-06 -0.00837629 0)
(-0.00013654 -0.0156638 0)
(-0.00143019 -0.00982603 0)
(-0.00066484 -0.0151737 0)
(-0.000783684 -0.0106312 0)
(9.20024e-06 -0.0154148 0)
(0.000795351 -0.0106392 0)
(0.00067075 -0.015188 0)
(0.00139355 -0.00981235 0)
(0.000136061 -0.0156156 0)
(-5.84266e-06 -0.00837022 0)
(-0.000145692 -0.0156149 0)
(-0.00139856 -0.0098158 0)
(-0.00066979 -0.0151879 0)
(-0.000766366 -0.0106575 0)
(9.26264e-06 -0.0154596 0)
(0.000778039 -0.010665 0)
(0.000675253 -0.0152015 0)
(0.00136348 -0.00980167 0)
(0.000144702 -0.0155673 0)
(-5.9007e-06 -0.00836357 0)
(-0.00015435 -0.0155666 0)
(-0.00136837 -0.00980546 0)
(-0.000674291 -0.015202 0)
(-0.000749693 -0.010684 0)
(9.31929e-06 -0.0155037 0)
(0.000761363 -0.010691 0)
(0.000679323 -0.0152149 0)
(0.00133491 -0.00979086 0)
(0.000152833 -0.0155197 0)
(-5.9521e-06 -0.00835636 0)
(-0.000162497 -0.0155191 0)
(-0.00133968 -0.00979499 0)
(-0.00067836 -0.0152159 0)
(-0.000733728 -0.0107107 0)
(9.37049e-06 -0.0155472 0)
(0.000745388 -0.0107171 0)
(0.000682977 -0.0152281 0)
(0.00130791 -0.00977991 0)
(0.000160434 -0.0154727 0)
(-5.99719e-06 -0.00834859 0)
(-0.000170113 -0.0154723 0)
(-0.00131257 -0.00978439 0)
(-0.000682017 -0.0152296 0)
(-0.000718539 -0.0107376 0)
(9.4165e-06 -0.0155902 0)
(0.000730183 -0.0107435 0)
(0.000686238 -0.0152413 0)
(0.00128257 -0.00976881 0)
(0.000167485 -0.0154263 0)
(-6.03631e-06 -0.00834029 0)
(-0.000177177 -0.0154261 0)
(-0.00128713 -0.00977365 0)
(-0.00068528 -0.0152433 0)
(-0.000704203 -0.0107646 0)
(9.45759e-06 -0.0156326 0)
(0.000715826 -0.0107699 0)
(0.000689126 -0.0152543 0)
(0.001259 -0.00975756 0)
(0.000173965 -0.0153805 0)
(-6.06983e-06 -0.00833146 0)
(-0.000183669 -0.0153805 0)
(-0.00126348 -0.00976275 0)
(-0.000688172 -0.0152569 0)
(-0.000690802 -0.0107918 0)
(9.49405e-06 -0.0156745 0)
(0.000702401 -0.0107966 0)
(0.000691665 -0.0152673 0)
(0.00123732 -0.00974613 0)
(0.000179852 -0.0153353 0)
(-6.09817e-06 -0.00832214 0)
(-0.000189566 -0.0153354 0)
(-0.00124172 -0.00975168 0)
(-0.000690715 -0.0152704 0)
(-0.000678429 -0.0108191 0)
(9.52616e-06 -0.0157161 0)
(0.000690001 -0.0108233 0)
(0.000693875 -0.0152803 0)
(0.00121769 -0.00973452 0)
(0.00018512 -0.0152905 0)
(-6.12175e-06 -0.00831234 0)
(-0.000194844 -0.0152908 0)
(-0.00122201 -0.00974042 0)
(-0.000692929 -0.0152839 0)
(-0.000667183 -0.0108465 0)
(9.55419e-06 -0.0157572 0)
(0.000678726 -0.0108502 0)
(0.000695776 -0.0152933 0)
(0.00120024 -0.00972272 0)
(0.000189743 -0.0152463 0)
(-6.14102e-06 -0.0083021 0)
(-0.000199476 -0.0152468 0)
(-0.0012045 -0.00972899 0)
(-0.000694835 -0.0152975 0)
(-0.000657171 -0.010874 0)
(9.57844e-06 -0.015798 0)
(0.000668688 -0.0108771 0)
(0.000697383 -0.0153063 0)
(0.00118517 -0.00971072 0)
(0.000193693 -0.0152026 0)
(-6.15646e-06 -0.00829147 0)
(-0.000203434 -0.0152033 0)
(-0.00118937 -0.00971735 0)
(-0.000696446 -0.015311 0)
(-0.000648509 -0.0109015 0)
(9.59915e-06 -0.0158385 0)
(0.00066 -0.010904 0)
(0.000698708 -0.0153196 0)
(0.00117265 -0.00969837 0)
(0.000196936 -0.015159 0)
(-6.16853e-06 -0.00828036 0)
(-0.000206685 -0.0151599 0)
(-0.00117681 -0.00970537 0)
(-0.000697775 -0.0153248 0)
(-0.000641319 -0.0109293 0)
(9.61659e-06 -0.0158791 0)
(0.000652789 -0.0109312 0)
(0.000699784 -0.0153335 0)
(0.00116295 -0.00968522 0)
(0.000199434 -0.0151138 0)
(-6.17791e-06 -0.0082684 0)
(-0.000209191 -0.0151149 0)
(-0.00116708 -0.0096926 0)
(-0.000698854 -0.0153393 0)
(-0.00063575 -0.0109582 0)
(9.63146e-06 -0.0159214 0)
(0.000647203 -0.0109595 0)
(0.000700701 -0.0153484 0)
(0.00115647 -0.00967116 0)
(0.000201144 -0.0150663 0)
(-6.18571e-06 -0.00825551 0)
(-0.00021091 -0.0150676 0)
(-0.00116058 -0.00967895 0)
(-0.000699773 -0.0153548 0)
(-0.000632015 -0.0109888 0)
(9.64541e-06 -0.0159662 0)
(0.00064346 -0.0109894 0)
(0.000701516 -0.0153602 0)
(0.00115361 -0.00965988 0)
(0.00020203 -0.0150279 0)
(-6.19297e-06 -0.00824498 0)
(-0.000211807 -0.0150294 0)
(-0.00115772 -0.009668 0)
(-0.000700591 -0.0153671 0)
(-0.000630349 -0.0110136 0)
(9.65962e-06 -0.0160022 0)
(0.000641798 -0.0110137 0)
)
;

boundaryField
{
    BotWall
    {
        type            fixedValue;
        value           uniform (0 0 0);
    }
    FreeStream
    {
        type            zeroGradient;
    }
    FrontNBack
    {
        type            empty;
    }
    LeftSide
    {
        type            cyclic;
    }
    RightSide
    {
        type            cyclic;
    }
}


// ************************************************************************* //
