/*--------------------------------*- C++ -*----------------------------------*\
| =========                 |                                                 |
| \\      /  F ield         | OpenFOAM: The Open Source CFD Toolbox           |
|  \\    /   O peration     | Version:  2.4.0                                 |
|   \\  /    A nd           | Web:      www.OpenFOAM.org                      |
|    \\/     M anipulation  |                                                 |
\*---------------------------------------------------------------------------*/
FoamFile
{
    version     2.0;
    format      ascii;
    class       volScalarField;
    location    "0.006";
    object      H;
}
// * * * * * * * * * * * * * * * * * * * * * * * * * * * * * * * * * * * * * //

dimensions      [0 2 -2 0 0 0 0];

internalField   nonuniform List<scalar> 
125
(
-9959.18
-5402.4
-110.873
-82.1893
-81.1098
-79.9905
-78.8319
-77.6347
-76.3997
-75.1283
-73.8216
-72.4812
-71.1089
-69.7064
-68.2758
-66.8193
-65.339
-63.8374
-62.3167
-60.7795
-59.2284
-57.6659
-56.0945
-54.5169
-52.9356
-51.3533
-49.7724
-48.1956
-46.6251
-45.0635
-43.513
-41.976
-40.4545
-38.9507
-37.4665
-36.0038
-34.5644
-33.15
-31.762
-30.402
-29.0711
-27.7707
-26.5017
-25.2652
-24.0619
-22.8925
-21.7576
-20.6577
-19.5932
-18.5643
-17.5711
-16.6136
-15.6919
-14.8057
-13.9548
-13.1389
-12.3575
-11.6102
-10.8965
-10.2157
-9.56712
-8.95009
-8.36382
-7.80751
-7.2803
-6.78134
-6.3097
-5.86449
-5.44476
-5.04956
-4.67794
-4.32894
-4.00162
-3.69501
-3.40818
-3.14019
-2.89013
-2.65709
-2.4402
-2.23859
-2.05142
-1.87787
-1.71717
-1.56853
-1.43124
-1.30458
-1.18788
-1.08048
-0.98176
-0.891136
-0.808043
-0.731947
-0.662343
-0.598752
-0.540724
-0.487834
-0.439684
-0.395899
-0.356129
-0.320047
-0.287348
-0.257747
-0.23098
-0.206802
-0.184986
-0.165323
-0.147617
-0.131692
-0.117382
-0.104536
-0.0930157
-0.082695
-0.0734574
-0.0651972
-0.0578178
-0.0512314
-0.0453581
-0.0401254
-0.0354675
-0.0313249
-0.0276437
-0.0243754
-0.0214761
-0.0189062
-0.0166304
)
;

boundaryField
{
    BotWall
    {
        type            zeroGradient;
    }
    FreeStream
    {
        type            zeroGradient;
    }
    FrontNBack
    {
        type            empty;
    }
    LeftSide
    {
        type            symmetryPlane;
    }
    RightSide
    {
        type            symmetryPlane;
    }
    procBoundary11to8
    {
        type            processor;
        value           nonuniform List<scalar> 
50
(
-3.13624
-2.88554
-2.65199
-2.43471
-2.23281
-2.04544
-1.87178
-1.71103
-1.56242
-1.42519
-1.29865
-1.18209
-1.07487
-0.976356
-0.885955
-0.803098
-0.727248
-0.657894
-0.594557
-0.536783
-0.484144
-0.43624
-0.392696
-0.353158
-0.3173
-0.284814
-0.255417
-0.228843
-0.204847
-0.183202
-0.163699
-0.146143
-0.130356
-0.116174
-0.103447
-0.0920359
-0.0818152
-0.0726693
-0.0644926
-0.0571892
-0.0506717
-0.0448608
-0.0396844
-0.0350771
-0.03098
-0.0273397
-0.0241078
-0.0212411
-0.0187002
-0.01645
)
;
    }
    procBoundary11to9
    {
        type            processor;
        value           nonuniform List<scalar> 
75
(
-9962.18
-5411.38
-111.712
-82.8204
-81.7488
-80.6355
-79.4812
-78.2864
-77.0523
-75.78
-74.4709
-73.1266
-71.7489
-70.3398
-68.9013
-67.4356
-65.9451
-64.4322
-62.8994
-61.3492
-59.7842
-58.2072
-56.6206
-55.0273
-53.4299
-51.8311
-50.2334
-48.6394
-47.0517
-45.4727
-43.9048
-42.3503
-40.8115
-39.2905
-37.7893
-36.3098
-34.8539
-33.4233
-32.0195
-30.644
-29.2981
-27.9831
-26.7
-25.4498
-24.2333
-23.0513
-21.9043
-20.7929
-19.7173
-18.6779
-17.6747
-16.7079
-15.7773
-14.8827
-14.024
-13.2007
-12.4125
-11.6589
-10.9393
-10.253
-9.59944
-8.9778
-8.38732
-7.82717
-7.29649
-6.79438
-6.31992
-5.87218
-5.4502
-5.05302
-4.67966
-4.32914
-4.00051
-3.69278
-3.40501
)
;
    }
    procBoundary11to10
    {
        type            processor;
        value           uniform -0.0146165;
    }
}


// ************************************************************************* //
