/*--------------------------------*- C++ -*----------------------------------*\
| =========                 |                                                 |
| \\      /  F ield         | OpenFOAM: The Open Source CFD Toolbox           |
|  \\    /   O peration     | Version:  2.4.0                                 |
|   \\  /    A nd           | Web:      www.OpenFOAM.org                      |
|    \\/     M anipulation  |                                                 |
\*---------------------------------------------------------------------------*/
FoamFile
{
    version     2.0;
    format      ascii;
    class       volScalarField;
    location    "0.006";
    object      p_rgh;
}
// * * * * * * * * * * * * * * * * * * * * * * * * * * * * * * * * * * * * * //

dimensions      [1 -1 -2 0 0 0 0];

internalField   nonuniform List<scalar> 
125
(
-0.0985621
0.367128
-1.96855
-0.246545
0.0522141
0.0123685
-0.016656
-0.0222122
-0.0207312
-0.0196198
-0.0193932
-0.0194198
-0.0194305
-0.0194075
-0.019375
-0.019343
-0.0193123
-0.0192817
-0.0192511
-0.0192202
-0.0191893
-0.0191582
-0.019127
-0.0190957
-0.0190643
-0.0190328
-0.0190011
-0.0189694
-0.0189375
-0.0189055
-0.0188734
-0.0188412
-0.0188088
-0.0187763
-0.0187438
-0.0187111
-0.0186782
-0.0186453
-0.0186122
-0.018579
-0.0185457
-0.0185123
-0.0184787
-0.018445
-0.0184112
-0.0183773
-0.0183432
-0.018309
-0.0182747
-0.0182403
-0.0182057
-0.018171
-0.0181362
-0.0181013
-0.0180662
-0.018031
-0.0179956
-0.0179602
-0.0179246
-0.0178889
-0.017853
-0.017817
-0.0177809
-0.0177446
-0.0177082
-0.0176717
-0.0176351
-0.0175983
-0.0175614
-0.0175243
-0.0174871
-0.0174498
-0.0174123
-0.0173747
-0.0173369
-0.017299
-0.017261
-0.0172228
-0.0171845
-0.0171461
-0.0171075
-0.0170687
-0.0170299
-0.0169908
-0.0169517
-0.0169124
-0.0168729
-0.0168333
-0.0167936
-0.0167537
-0.0167136
-0.0166735
-0.0166331
-0.0165926
-0.016552
-0.0165112
-0.0164703
-0.0164292
-0.016388
-0.0163466
-0.0163051
-0.0162634
-0.0162216
-0.0161796
-0.0161374
-0.0160951
-0.0160526
-0.01601
-0.0159672
-0.0159243
-0.0158812
-0.015838
-0.0157946
-0.015751
-0.0157073
-0.0156634
-0.0156193
-0.0155751
-0.0155307
-0.0154862
-0.0154415
-0.0153966
-0.0153516
-0.0153064
-0.015261
)
;

boundaryField
{
    BotWall
    {
        type            fixedFluxPressure;
        gradient        uniform 0;
        value           uniform -0.0985621;
    }
    FreeStream
    {
        type            totalPressure;
        rho             rho;
        psi             none;
        gamma           1;
        p0              nonuniform 0();
        value           nonuniform 0();
    }
    FrontNBack
    {
        type            empty;
    }
    LeftSide
    {
        type            symmetryPlane;
    }
    RightSide
    {
        type            symmetryPlane;
    }
    procBoundary11to8
    {
        type            processor;
        value           nonuniform List<scalar> 
50
(
-0.0172954
-0.0172574
-0.0172192
-0.0171808
-0.0171424
-0.0171037
-0.017065
-0.017026
-0.016987
-0.0169478
-0.0169085
-0.016869
-0.0168293
-0.0167896
-0.0167496
-0.0167096
-0.0166694
-0.016629
-0.0165885
-0.0165478
-0.016507
-0.016466
-0.0164249
-0.0163837
-0.0163423
-0.0163007
-0.016259
-0.0162171
-0.0161751
-0.0161329
-0.0160906
-0.0160481
-0.0160054
-0.0159626
-0.0159197
-0.0158765
-0.0158333
-0.0157898
-0.0157462
-0.0157025
-0.0156586
-0.0156145
-0.0155702
-0.0155258
-0.0154813
-0.0154365
-0.0153916
-0.0153466
-0.0153014
-0.015256
)
;
    }
    procBoundary11to9
    {
        type            processor;
        value           nonuniform List<scalar> 
75
(
-0.0985232
0.364005
-1.95397
-0.245202
0.0518719
0.0122456
-0.0166577
-0.0221948
-0.0207213
-0.0196142
-0.0193883
-0.0194146
-0.0194252
-0.0194022
-0.0193698
-0.0193379
-0.0193071
-0.0192766
-0.019246
-0.0192152
-0.0191843
-0.0191532
-0.0191221
-0.0190908
-0.0190594
-0.0190279
-0.0189963
-0.0189646
-0.0189327
-0.0189008
-0.0188687
-0.0188365
-0.0188042
-0.0187717
-0.0187392
-0.0187065
-0.0186737
-0.0186408
-0.0186077
-0.0185745
-0.0185413
-0.0185078
-0.0184743
-0.0184407
-0.0184069
-0.018373
-0.0183389
-0.0183048
-0.0182705
-0.0182361
-0.0182016
-0.0181669
-0.0181321
-0.0180972
-0.0180621
-0.018027
-0.0179916
-0.0179562
-0.0179206
-0.0178849
-0.0178491
-0.0178132
-0.0177771
-0.0177408
-0.0177045
-0.017668
-0.0176313
-0.0175946
-0.0175577
-0.0175206
-0.0174835
-0.0174462
-0.0174087
-0.0173711
-0.0173333
)
;
    }
    procBoundary11to10
    {
        type            processor;
        value           uniform -0.0152154;
    }
}


// ************************************************************************* //
