/*--------------------------------*- C++ -*----------------------------------*\
| =========                 |                                                 |
| \\      /  F ield         | OpenFOAM: The Open Source CFD Toolbox           |
|  \\    /   O peration     | Version:  2.4.0                                 |
|   \\  /    A nd           | Web:      www.OpenFOAM.org                      |
|    \\/     M anipulation  |                                                 |
\*---------------------------------------------------------------------------*/
FoamFile
{
    version     2.0;
    format      ascii;
    class       surfaceScalarField;
    location    "0.006";
    object      phi;
}
// * * * * * * * * * * * * * * * * * * * * * * * * * * * * * * * * * * * * * //

dimensions      [0 3 -1 0 0 0 0];

internalField   nonuniform List<scalar> 
124
(
-2.37972e-17
-2.35967e-16
-5.9611e-09
-5.9611e-09
-5.96111e-09
-5.96111e-09
-5.96111e-09
-5.96111e-09
-5.96111e-09
-5.96111e-09
-5.96111e-09
-5.96111e-09
-5.96111e-09
-5.96111e-09
-5.96111e-09
-5.96111e-09
-5.96111e-09
-5.96112e-09
-5.96112e-09
-5.96112e-09
-5.96112e-09
-5.96112e-09
-5.96112e-09
-5.96112e-09
-5.96112e-09
-5.96113e-09
-5.96113e-09
-5.96113e-09
-5.96113e-09
-5.96113e-09
-5.96113e-09
-5.96113e-09
-5.96113e-09
-5.96113e-09
-5.96113e-09
-5.96113e-09
-5.96114e-09
-5.96114e-09
-5.96114e-09
-5.96114e-09
-5.96114e-09
-5.96114e-09
-5.96114e-09
-5.96114e-09
-5.96114e-09
-5.96114e-09
-5.96114e-09
-5.96114e-09
-5.96114e-09
-5.96114e-09
-5.96114e-09
-5.96114e-09
-5.96114e-09
-5.96114e-09
-5.96113e-09
-5.96113e-09
-5.96113e-09
-5.96113e-09
-5.96113e-09
-5.96113e-09
-5.96113e-09
-5.96113e-09
-5.96113e-09
-5.96113e-09
-5.96112e-09
-5.96112e-09
-5.96112e-09
-5.96112e-09
-5.96112e-09
-5.96112e-09
-5.96111e-09
-5.96111e-09
-5.96111e-09
-5.96111e-09
-5.96111e-09
-5.96111e-09
-5.9611e-09
-5.9611e-09
-5.9611e-09
-5.9611e-09
-5.9611e-09
-5.96109e-09
-5.96109e-09
-5.96109e-09
-5.96109e-09
-5.96108e-09
-5.96108e-09
-5.96108e-09
-5.96108e-09
-5.96107e-09
-5.96107e-09
-5.96107e-09
-5.96107e-09
-5.96106e-09
-5.96106e-09
-5.96106e-09
-5.96106e-09
-5.96105e-09
-5.96105e-09
-5.96105e-09
-5.96105e-09
-5.96104e-09
-5.96104e-09
-5.96104e-09
-5.96103e-09
-5.96103e-09
-5.96103e-09
-5.96103e-09
-5.96102e-09
-5.96102e-09
-5.96102e-09
-5.96101e-09
-5.96101e-09
-5.96101e-09
-5.961e-09
-5.961e-09
-5.961e-09
-5.961e-09
-5.96099e-09
-5.96099e-09
-5.96099e-09
-5.96098e-09
-5.96098e-09
-5.96098e-09
)
;

boundaryField
{
    BotWall
    {
        type            calculated;
        value           uniform 1.29121e-20;
    }
    FreeStream
    {
        type            calculated;
        value           nonuniform 0();
    }
    FrontNBack
    {
        type            empty;
        value           nonuniform 0();
    }
    LeftSide
    {
        type            symmetryPlane;
        value           nonuniform 0();
    }
    RightSide
    {
        type            symmetryPlane;
        value           uniform 0;
    }
    procBoundary11to8
    {
        type            processor;
        value           nonuniform List<scalar> 
50
(
-1.94379e-15
-1.99051e-15
-2.03599e-15
-2.08024e-15
-2.12326e-15
-2.16508e-15
-2.20571e-15
-2.24516e-15
-2.28345e-15
-2.32058e-15
-2.35656e-15
-2.39141e-15
-2.42513e-15
-2.45774e-15
-2.48923e-15
-2.51962e-15
-2.5489e-15
-2.57708e-15
-2.60416e-15
-2.63014e-15
-2.65503e-15
-2.67882e-15
-2.7015e-15
-2.72309e-15
-2.74357e-15
-2.76294e-15
-2.78119e-15
-2.79833e-15
-2.81435e-15
-2.82924e-15
-2.843e-15
-2.85563e-15
-2.86711e-15
-2.87745e-15
-2.88663e-15
-2.89466e-15
-2.90153e-15
-2.90724e-15
-2.91179e-15
-2.91516e-15
-2.91736e-15
-2.91838e-15
-2.91824e-15
-2.91691e-15
-2.91441e-15
-2.91073e-15
-2.90587e-15
-2.89983e-15
-2.8926e-15
-2.8842e-15
)
;
    }
    procBoundary11to9
    {
        type            processor;
        value           nonuniform List<scalar> 
75
(
2.37806e-17
1.3653e-16
-9.40895e-17
1.19022e-17
4.00979e-16
4.1651e-16
4.56623e-16
5.40218e-16
6.31824e-16
7.15743e-16
7.91428e-16
8.60262e-16
9.22673e-16
9.78576e-16
1.02786e-15
1.07047e-15
1.10643e-15
1.13579e-15
1.15861e-15
1.17499e-15
1.18506e-15
1.18894e-15
1.18682e-15
1.17887e-15
1.1653e-15
1.1463e-15
1.12211e-15
1.09296e-15
1.05909e-15
1.02075e-15
9.78192e-16
9.31685e-16
8.81488e-16
8.27864e-16
7.71079e-16
7.11393e-16
6.49068e-16
5.84358e-16
5.17515e-16
4.48784e-16
3.78405e-16
3.06608e-16
2.33618e-16
1.59649e-16
8.49069e-17
9.58816e-18
-6.613e-17
-1.42064e-16
-2.18048e-16
-2.93924e-16
-3.6955e-16
-4.4479e-16
-5.1952e-16
-5.93627e-16
-6.67007e-16
-7.39566e-16
-8.11219e-16
-8.81891e-16
-9.51515e-16
-1.02003e-15
-1.0874e-15
-1.15356e-15
-1.21849e-15
-1.28215e-15
-1.34453e-15
-1.4056e-15
-1.46536e-15
-1.52379e-15
-1.58089e-15
-1.63666e-15
-1.6911e-15
-1.74423e-15
-1.79604e-15
-1.84657e-15
-1.89581e-15
)
;
    }
    procBoundary11to10
    {
        type            processor;
        value           uniform -5.96098e-09;
    }
}


// ************************************************************************* //
