/*--------------------------------*- C++ -*----------------------------------*\
| =========                 |                                                 |
| \\      /  F ield         | OpenFOAM: The Open Source CFD Toolbox           |
|  \\    /   O peration     | Version:  2.4.0                                 |
|   \\  /    A nd           | Web:      www.OpenFOAM.org                      |
|    \\/     M anipulation  |                                                 |
\*---------------------------------------------------------------------------*/
FoamFile
{
    version     2.0;
    format      ascii;
    class       volScalarField;
    location    "2.3";
    object      p;
}
// * * * * * * * * * * * * * * * * * * * * * * * * * * * * * * * * * * * * * //

dimensions      [1 -1 -2 0 0 0 0];

internalField   nonuniform List<scalar> 
8000
(
-0.214124
-0.20994
-0.205391
-0.201034
-0.196779
-0.192546
-0.188317
-0.184114
-0.179954
-0.175864
-0.171864
-0.167986
-0.164265
-0.160732
-0.157444
-0.154436
-0.151761
-0.149512
-0.147646
-0.146435
-0.145892
-0.145879
-0.146727
-0.146602
-0.155351
-0.173077
-0.151087
0.0370768
0.352729
-0.469355
-0.44624
-0.446361
-0.446402
-0.446489
-0.446569
-0.446641
-0.446708
-0.446772
-0.446832
-0.446889
-0.446943
-0.446994
-0.447043
-0.447089
-0.447134
-0.447176
-0.447218
-0.447257
-0.447296
-0.447334
-0.138976
-0.136537
-0.133848
-0.131311
-0.12892
-0.126618
-0.12439
-0.122224
-0.120123
-0.11807
-0.116066
-0.114087
-0.112134
-0.110175
-0.108211
-0.106199
-0.10414
-0.101974
-0.0997036
-0.0972206
-0.094551
-0.0917004
-0.0889514
-0.0854464
-0.0789484
-0.0609648
-0.0375971
-0.0917055
-0.413668
-0.967246
-0.473803
-0.470484
-0.4704
-0.470456
-0.47045
-0.47045
-0.470451
-0.470453
-0.470457
-0.47046
-0.470465
-0.47047
-0.470476
-0.470483
-0.470489
-0.470497
-0.470505
-0.470513
-0.470522
-0.470531
-0.0644186
-0.0644123
-0.063949
-0.0629693
-0.0615179
-0.0596094
-0.0572573
-0.0544638
-0.0512346
-0.0475702
-0.0434762
-0.0389504
-0.0339996
-0.0286198
-0.0228212
-0.0165994
-0.00997182
-0.00293535
0.00448908
0.012316
0.0204966
0.0288405
0.0368113
0.0449538
0.0566014
0.0839945
0.122922
0.0603429
-0.403104
-1.19518
-0.50037
-0.493838
-0.493651
-0.493711
-0.493722
-0.493712
-0.493699
-0.493686
-0.493673
-0.49366
-0.493646
-0.493632
-0.493619
-0.493605
-0.493592
-0.49358
-0.493568
-0.493557
-0.493547
-0.493538
-0.163703
-0.161263
-0.158827
-0.156753
-0.155005
-0.153521
-0.15229
-0.151316
-0.150604
-0.150156
-0.149971
-0.150051
-0.15039
-0.150988
-0.151831
-0.152913
-0.154215
-0.155708
-0.157368
-0.159166
-0.161
-0.162907
-0.164414
-0.165537
-0.167694
-0.171025
-0.172657
-0.156593
-0.143035
-0.218885
-0.567768
-0.518155
-0.517724
-0.517597
-0.517477
-0.517356
-0.517244
-0.517142
-0.517051
-0.516967
-0.516891
-0.516821
-0.516758
-0.516699
-0.516646
-0.516597
-0.516553
-0.516512
-0.516474
-0.51644
-0.126531
-0.122838
-0.118769
-0.114988
-0.111485
-0.108173
-0.105017
-0.102018
-0.0991722
-0.096483
-0.0939459
-0.0915668
-0.089344
-0.0872893
-0.0854047
-0.0837108
-0.0822153
-0.0809515
-0.0799352
-0.0792189
-0.0788226
-0.0788395
-0.0793447
-0.0804262
-0.0824334
-0.0841623
-0.0826874
-0.0809742
-0.115559
-0.255579
-0.705135
-0.539579
-0.539127
-0.539233
-0.539216
-0.539194
-0.539171
-0.539149
-0.539127
-0.539103
-0.53908
-0.539056
-0.539033
-0.53901
-0.538988
-0.538966
-0.538945
-0.538924
-0.538904
-0.538885
-0.102936
-0.0995501
-0.095895
-0.0925213
-0.089392
-0.0864291
-0.0836082
-0.0809318
-0.0784007
-0.0760185
-0.0737829
-0.0716981
-0.0697615
-0.067979
-0.0663469
-0.0648726
-0.0635507
-0.0623897
-0.0613804
-0.0605295
-0.0598184
-0.0592615
-0.0588859
-0.0587341
-0.0587263
-0.0575985
-0.0525212
-0.0477796
-0.0768963
-0.200964
-0.729827
-0.561572
-0.561156
-0.561272
-0.561277
-0.56127
-0.561263
-0.561258
-0.561252
-0.561246
-0.561239
-0.561232
-0.561224
-0.561217
-0.561209
-0.561201
-0.561193
-0.561185
-0.561177
-0.56117
-0.0157304
-0.0126807
-0.00929519
-0.00615013
-0.00324994
-0.000523605
0.00205198
0.00448193
0.00676308
0.00889899
0.0108885
0.0127363
0.0144408
0.0160069
0.0174324
0.018723
0.0198756
0.0208973
0.0217864
0.0225566
0.0232045
0.0237027
0.0239252
0.0239137
0.0246524
0.0290611
0.0370448
0.0219291
-0.0905362
-0.284582
-0.642349
-0.583746
-0.583403
-0.583492
-0.583508
-0.583504
-0.5835
-0.583497
-0.583495
-0.583493
-0.58349
-0.583487
-0.583484
-0.583482
-0.583479
-0.583476
-0.583473
-0.58347
-0.583467
-0.583464
0.0376964
0.0398816
0.0421883
0.0443215
0.0463287
0.048257
0.0501176
0.0519071
0.0536228
0.0552653
0.0568332
0.058331
0.0597557
0.0611168
0.0624083
0.0636456
0.0648189
0.0659518
0.0670356
0.0681138
0.0691592
0.0700937
0.0706214
0.0710197
0.0742734
0.0871249
0.10425
0.0511836
-0.237023
-0.94611
-0.606459
-0.60571
-0.605736
-0.60576
-0.605763
-0.605761
-0.605759
-0.605758
-0.605756
-0.605755
-0.605754
-0.605752
-0.605751
-0.60575
-0.605748
-0.605747
-0.605745
-0.605744
-0.605742
-0.605741
0.193281
0.193471
0.193928
0.194612
0.195468
0.196495
0.197671
0.199001
0.200459
0.202052
0.203746
0.205555
0.207435
0.209407
0.211414
0.213486
0.215551
0.217659
0.219738
0.221843
0.22364
0.22466
0.224896
0.229621
0.252478
0.289932
0.214096
-0.319602
-1.31443
-0.729555
-0.628181
-0.627906
-0.627933
-0.627951
-0.627955
-0.627956
-0.627957
-0.627959
-0.62796
-0.627962
-0.627964
-0.627966
-0.627967
-0.627969
-0.627971
-0.627972
-0.627974
-0.627975
-0.627977
-0.627979
0.215631
0.218211
0.220951
0.223356
0.225447
0.227254
0.228799
0.230044
0.230989
0.231585
0.231837
0.23168
0.231125
0.230086
0.228581
0.226501
0.223883
0.220608
0.21669
0.211707
0.205223
0.197615
0.194959
0.209408
0.226869
0.100725
-0.478452
-1.35532
-0.66287
-0.646804
-0.650259
-0.650282
-0.650296
-0.650305
-0.650309
-0.650313
-0.650316
-0.650319
-0.650321
-0.650323
-0.650325
-0.650325
-0.650326
-0.650326
-0.650326
-0.650325
-0.650324
-0.650322
-0.65032
-0.650318
0.276239
0.27899
0.282272
0.286166
0.290818
0.296251
0.302474
0.30947
0.317275
0.325881
0.335361
0.345704
0.357023
0.369295
0.382697
0.397202
0.413054
0.430009
0.447962
0.466713
0.490448
0.530003
0.587669
0.575173
0.222612
-0.794186
-1.08559
-0.678783
-0.65678
-0.67162
-0.67216
-0.672184
-0.672206
-0.672229
-0.672251
-0.672271
-0.672288
-0.672303
-0.672317
-0.672329
-0.672342
-0.672353
-0.672363
-0.672372
-0.672381
-0.672389
-0.672396
-0.672403
-0.67241
-0.672416
0.539591
0.544968
0.552773
0.561782
0.571763
0.58273
0.5948
0.607948
0.622291
0.637783
0.654604
0.672687
0.692295
0.713334
0.736211
0.760723
0.787056
0.814039
0.842845
0.881495
0.953629
1.0533
0.972536
0.0514418
-1.99022
-1.21276
-0.765623
-0.762306
-0.701749
-0.695854
-0.695541
-0.695723
-0.695753
-0.695699
-0.695636
-0.695582
-0.695534
-0.695488
-0.695444
-0.695402
-0.69536
-0.695321
-0.695283
-0.695247
-0.695213
-0.69518
-0.695149
-0.695119
-0.695091
-0.695063
-0.204018
-0.179868
-0.156017
-0.137015
-0.122473
-0.11182
-0.104807
-0.101581
-0.102097
-0.106579
-0.114929
-0.12748
-0.144066
-0.165163
-0.190803
-0.22232
-0.259684
-0.298384
-0.319594
-0.314313
-0.404638
-1.04693
-2.69184
-2.9134
-1.7241
-1.06705
-0.755994
-0.71673
-0.716436
-0.716727
-0.716768
-0.716748
-0.716735
-0.716732
-0.716732
-0.716732
-0.716733
-0.716735
-0.716738
-0.716741
-0.716744
-0.716747
-0.71675
-0.716754
-0.716757
-0.716761
-0.716764
-0.716767
-0.716771
-0.716774
0.209445
0.234216
0.258533
0.277275
0.290894
0.299854
0.304572
0.304713
0.300499
0.29146
0.277903
0.259155
0.235423
0.205272
0.169372
0.131043
0.10414
0.0921337
0.00917919
-0.456662
-1.88269
-3.92449
-3.04495
-1.43615
-0.772525
-0.7279
-0.737976
-0.738862
-0.738743
-0.738781
-0.738844
-0.738894
-0.738935
-0.73897
-0.739
-0.739026
-0.739047
-0.739065
-0.73908
-0.739091
-0.7391
-0.739106
-0.739109
-0.739111
-0.739111
-0.739109
-0.739106
-0.739102
-0.739097
-0.739091
1.70918
1.7204
1.73538
1.75335
1.77463
1.79922
1.82744
1.85909
1.89452
1.93347
1.97622
2.02197
2.07103
2.12732
2.20638
2.32598
2.42499
2.0818
0.163395
-4.6898
-6.42795
-2.54015
-0.806356
-0.716241
-0.762373
-0.760482
-0.760804
-0.760938
-0.760881
-0.760801
-0.760743
-0.760702
-0.76067
-0.760646
-0.760626
-0.760612
-0.760602
-0.760595
-0.760591
-0.760589
-0.760589
-0.760591
-0.760595
-0.7606
-0.760606
-0.760613
-0.760621
-0.76063
-0.760639
-0.760649
2.75696
2.74703
2.74241
2.74658
2.75865
2.7787
2.80596
2.84098
2.8828
2.93229
2.98944
3.06172
3.16229
3.29964
3.35143
2.57369
-0.218162
-5.36526
-7.06273
-2.14233
-1.03617
-0.810794
-0.786834
-0.788097
-0.78946
-0.78919
-0.788654
-0.788218
-0.787858
-0.787533
-0.78723
-0.786948
-0.786686
-0.786442
-0.786215
-0.786002
-0.785803
-0.785616
-0.785441
-0.785276
-0.785121
-0.784976
-0.78484
-0.784711
-0.78459
-0.784477
-0.78437
-0.784269
-0.784175
-0.784086
1.49486
1.47304
1.45238
1.43919
1.43515
1.43822
1.44952
1.46711
1.49732
1.54587
1.62773
1.69559
1.56086
-0.15855
-4.31633
-10.0593
-6.22859
-0.933925
-0.537212
-0.802602
-0.795953
-0.800933
-0.801924
-0.801981
-0.802057
-0.802199
-0.802356
-0.802491
-0.802606
-0.802706
-0.802796
-0.802877
-0.802953
-0.803023
-0.803088
-0.803151
-0.803211
-0.803269
-0.803326
-0.803383
-0.803438
-0.803492
-0.803544
-0.803594
-0.803644
-0.803693
-0.80374
-0.803786
-0.803832
-0.803876
0.672933
0.675403
0.687765
0.708736
0.739101
0.77657
0.83149
0.923145
1.06089
1.07482
-0.140722
-4.28044
-5.96766
-10.5353
-4.59024
-2.01315
-0.846952
-0.79846
-0.804703
-0.825098
-0.824593
-0.823934
-0.823932
-0.824152
-0.824372
-0.824551
-0.824702
-0.824836
-0.824956
-0.825065
-0.825165
-0.825255
-0.825338
-0.825414
-0.825484
-0.825549
-0.825608
-0.825664
-0.825715
-0.82576
-0.825801
-0.825841
-0.825878
-0.825913
-0.825947
-0.825978
-0.826008
-0.826037
-0.826065
-0.826091
-3.83279
-3.85254
-3.88401
-3.92323
-3.96086
-3.95237
-3.90084
-4.12354
-5.69401
-9.19707
-15.7229
-9.63461
-3.2395
-0.802738
-0.853933
-0.841645
-0.843749
-0.845574
-0.846028
-0.845754
-0.845506
-0.84548
-0.845562
-0.84566
-0.845758
-0.845859
-0.845961
-0.846063
-0.846164
-0.846262
-0.846357
-0.846448
-0.846536
-0.846621
-0.846702
-0.84678
-0.846855
-0.846927
-0.846997
-0.847064
-0.847128
-0.847191
-0.847252
-0.84731
-0.847367
-0.847422
-0.847475
-0.847526
-0.847576
-0.847624
-6.57366
-6.66429
-6.77524
-6.86309
-6.91841
-7.17461
-8.44044
-11.2106
-10.0935
-1.77013
-1.13754
-0.892062
-0.872497
-0.866697
-0.867008
-0.866829
-0.866685
-0.866743
-0.866802
-0.866895
-0.867012
-0.867121
-0.867225
-0.867328
-0.867431
-0.867533
-0.867634
-0.867732
-0.867828
-0.867921
-0.868011
-0.868098
-0.868182
-0.868263
-0.868341
-0.868416
-0.868489
-0.86856
-0.868628
-0.868694
-0.868758
-0.86882
-0.868879
-0.868937
-0.868993
-0.869047
-0.8691
-0.869152
-0.869202
-0.869251
-0.44737
-0.447406
-0.447441
-0.447475
-0.447509
-0.447543
-0.447576
-0.447608
-0.447641
-0.447673
-0.447705
-0.447736
-0.447768
-0.447799
-0.447831
-0.447862
-0.447893
-0.447924
-0.447955
-0.447986
-0.448017
-0.448048
-0.448079
-0.44811
-0.448141
-0.448172
-0.448203
-0.448233
-0.448264
-0.448295
-0.448326
-0.448356
-0.448387
-0.448417
-0.448448
-0.448478
-0.448508
-0.448539
-0.448569
-0.448599
-0.448629
-0.448659
-0.448689
-0.448719
-0.448749
-0.448779
-0.448809
-0.448838
-0.448868
-0.448897
-0.470541
-0.470551
-0.470562
-0.470573
-0.470584
-0.470596
-0.470608
-0.470621
-0.470634
-0.470647
-0.470661
-0.470675
-0.47069
-0.470704
-0.470719
-0.470735
-0.470751
-0.470767
-0.470783
-0.4708
-0.470817
-0.470834
-0.470852
-0.47087
-0.470888
-0.470906
-0.470925
-0.470944
-0.470963
-0.470983
-0.471002
-0.471022
-0.471042
-0.471063
-0.471083
-0.471104
-0.471125
-0.471146
-0.471167
-0.471188
-0.47121
-0.471231
-0.471253
-0.471275
-0.471297
-0.471319
-0.471341
-0.471364
-0.471386
-0.471408
-0.493529
-0.493521
-0.493514
-0.493508
-0.493503
-0.493499
-0.493496
-0.493493
-0.493491
-0.493491
-0.49349
-0.493491
-0.493493
-0.493495
-0.493498
-0.493501
-0.493505
-0.49351
-0.493516
-0.493522
-0.493529
-0.493536
-0.493544
-0.493552
-0.493561
-0.49357
-0.49358
-0.493591
-0.493601
-0.493613
-0.493624
-0.493636
-0.493649
-0.493661
-0.493674
-0.493688
-0.493701
-0.493716
-0.49373
-0.493745
-0.493759
-0.493775
-0.49379
-0.493806
-0.493822
-0.493838
-0.493854
-0.493871
-0.493887
-0.493904
-0.516409
-0.51638
-0.516353
-0.516329
-0.516308
-0.516288
-0.51627
-0.516253
-0.516239
-0.516225
-0.516214
-0.516203
-0.516194
-0.516186
-0.516179
-0.516173
-0.516168
-0.516165
-0.516162
-0.51616
-0.516158
-0.516158
-0.516158
-0.516159
-0.516161
-0.516164
-0.516167
-0.51617
-0.516174
-0.516179
-0.516185
-0.516191
-0.516197
-0.516204
-0.516211
-0.516219
-0.516227
-0.516236
-0.516245
-0.516254
-0.516264
-0.516274
-0.516284
-0.516295
-0.516306
-0.516318
-0.51633
-0.516342
-0.516354
-0.516366
-0.538867
-0.53885
-0.538833
-0.538818
-0.538803
-0.538789
-0.538776
-0.538764
-0.538752
-0.538742
-0.538732
-0.538723
-0.538715
-0.538707
-0.5387
-0.538694
-0.538689
-0.538684
-0.53868
-0.538677
-0.538674
-0.538672
-0.53867
-0.538669
-0.538669
-0.538669
-0.538669
-0.53867
-0.538672
-0.538674
-0.538677
-0.53868
-0.538683
-0.538687
-0.538692
-0.538696
-0.538702
-0.538707
-0.538713
-0.53872
-0.538726
-0.538733
-0.538741
-0.538748
-0.538756
-0.538765
-0.538773
-0.538782
-0.538792
-0.538801
-0.561162
-0.561154
-0.561147
-0.56114
-0.561133
-0.561126
-0.56112
-0.561114
-0.561108
-0.561102
-0.561097
-0.561092
-0.561088
-0.561084
-0.56108
-0.561077
-0.561074
-0.561071
-0.561069
-0.561067
-0.561066
-0.561065
-0.561064
-0.561064
-0.561064
-0.561064
-0.561065
-0.561066
-0.561068
-0.56107
-0.561072
-0.561075
-0.561078
-0.561081
-0.561085
-0.561088
-0.561093
-0.561097
-0.561102
-0.561107
-0.561113
-0.561119
-0.561125
-0.561131
-0.561138
-0.561145
-0.561152
-0.56116
-0.561167
-0.561175
-0.583461
-0.583458
-0.583455
-0.583452
-0.583449
-0.583447
-0.583444
-0.583442
-0.58344
-0.583438
-0.583436
-0.583434
-0.583433
-0.583431
-0.58343
-0.583429
-0.583428
-0.583428
-0.583427
-0.583427
-0.583427
-0.583427
-0.583428
-0.583429
-0.58343
-0.583431
-0.583432
-0.583434
-0.583436
-0.583438
-0.583441
-0.583444
-0.583446
-0.58345
-0.583453
-0.583457
-0.583461
-0.583465
-0.583469
-0.583474
-0.583479
-0.583484
-0.583489
-0.583495
-0.583501
-0.583507
-0.583513
-0.58352
-0.583527
-0.583534
-0.605739
-0.605738
-0.605736
-0.605735
-0.605734
-0.605732
-0.605731
-0.60573
-0.605729
-0.605728
-0.605727
-0.605726
-0.605726
-0.605725
-0.605725
-0.605725
-0.605725
-0.605725
-0.605725
-0.605726
-0.605726
-0.605727
-0.605728
-0.605729
-0.605731
-0.605732
-0.605734
-0.605736
-0.605738
-0.605741
-0.605743
-0.605746
-0.605749
-0.605752
-0.605756
-0.605759
-0.605763
-0.605767
-0.605772
-0.605776
-0.605781
-0.605786
-0.605791
-0.605797
-0.605802
-0.605808
-0.605814
-0.60582
-0.605827
-0.605833
-0.62798
-0.627981
-0.627983
-0.627984
-0.627986
-0.627987
-0.627988
-0.62799
-0.627991
-0.627993
-0.627994
-0.627996
-0.627997
-0.627999
-0.628001
-0.628002
-0.628004
-0.628006
-0.628008
-0.62801
-0.628012
-0.628014
-0.628017
-0.628019
-0.628022
-0.628024
-0.628027
-0.62803
-0.628033
-0.628036
-0.62804
-0.628043
-0.628047
-0.628051
-0.628055
-0.628059
-0.628063
-0.628068
-0.628072
-0.628077
-0.628082
-0.628087
-0.628093
-0.628098
-0.628104
-0.62811
-0.628116
-0.628122
-0.628128
-0.628135
-0.650316
-0.650314
-0.650312
-0.650309
-0.650307
-0.650304
-0.650302
-0.650299
-0.650297
-0.650295
-0.650293
-0.650291
-0.650289
-0.650287
-0.650285
-0.650284
-0.650283
-0.650282
-0.650281
-0.65028
-0.65028
-0.65028
-0.65028
-0.65028
-0.65028
-0.650281
-0.650282
-0.650283
-0.650285
-0.650286
-0.650288
-0.65029
-0.650293
-0.650296
-0.650298
-0.650302
-0.650305
-0.650309
-0.650312
-0.650317
-0.650321
-0.650325
-0.65033
-0.650335
-0.650341
-0.650346
-0.650352
-0.650358
-0.650364
-0.65037
-0.672421
-0.672426
-0.672431
-0.672436
-0.672441
-0.672445
-0.672449
-0.672453
-0.672456
-0.67246
-0.672463
-0.672467
-0.67247
-0.672473
-0.672476
-0.672479
-0.672482
-0.672485
-0.672488
-0.672491
-0.672494
-0.672497
-0.672501
-0.672504
-0.672507
-0.672511
-0.672514
-0.672518
-0.672521
-0.672525
-0.672529
-0.672533
-0.672537
-0.672541
-0.672546
-0.67255
-0.672555
-0.67256
-0.672565
-0.67257
-0.672575
-0.67258
-0.672586
-0.672592
-0.672598
-0.672604
-0.67261
-0.672616
-0.672623
-0.67263
-0.695038
-0.695013
-0.69499
-0.694968
-0.694947
-0.694927
-0.694909
-0.694891
-0.694875
-0.694859
-0.694845
-0.694831
-0.694819
-0.694807
-0.694796
-0.694786
-0.694777
-0.694768
-0.694761
-0.694754
-0.694747
-0.694742
-0.694737
-0.694732
-0.694728
-0.694725
-0.694723
-0.694721
-0.694719
-0.694718
-0.694718
-0.694718
-0.694718
-0.694719
-0.694721
-0.694723
-0.694725
-0.694728
-0.694731
-0.694735
-0.694738
-0.694743
-0.694747
-0.694752
-0.694758
-0.694764
-0.69477
-0.694776
-0.694783
-0.694789
-0.716778
-0.716781
-0.716784
-0.716787
-0.71679
-0.716793
-0.716796
-0.7168
-0.716803
-0.716806
-0.716809
-0.716812
-0.716815
-0.716818
-0.716821
-0.716824
-0.716828
-0.716831
-0.716834
-0.716838
-0.716841
-0.716845
-0.716849
-0.716853
-0.716857
-0.716861
-0.716865
-0.716869
-0.716874
-0.716879
-0.716883
-0.716888
-0.716894
-0.716899
-0.716904
-0.71691
-0.716916
-0.716922
-0.716928
-0.716934
-0.716941
-0.716947
-0.716954
-0.716961
-0.716969
-0.716976
-0.716984
-0.716991
-0.716999
-0.717007
-0.739084
-0.739077
-0.739069
-0.739061
-0.739053
-0.739045
-0.739036
-0.739028
-0.73902
-0.739012
-0.739004
-0.738997
-0.73899
-0.738983
-0.738977
-0.738971
-0.738966
-0.738961
-0.738956
-0.738952
-0.738949
-0.738946
-0.738944
-0.738942
-0.738941
-0.73894
-0.73894
-0.738941
-0.738941
-0.738943
-0.738945
-0.738947
-0.73895
-0.738953
-0.738957
-0.738962
-0.738966
-0.738972
-0.738977
-0.738984
-0.73899
-0.738997
-0.739005
-0.739012
-0.73902
-0.739029
-0.739038
-0.739047
-0.739057
-0.739067
-0.760659
-0.76067
-0.760681
-0.760692
-0.760703
-0.760715
-0.760727
-0.760738
-0.76075
-0.760762
-0.760774
-0.760785
-0.760797
-0.760809
-0.76082
-0.760832
-0.760843
-0.760855
-0.760866
-0.760878
-0.760889
-0.7609
-0.760912
-0.760923
-0.760934
-0.760945
-0.760956
-0.760968
-0.760979
-0.76099
-0.761001
-0.761012
-0.761023
-0.761035
-0.761046
-0.761057
-0.761069
-0.76108
-0.761092
-0.761104
-0.761115
-0.761127
-0.761139
-0.761151
-0.761163
-0.761176
-0.761188
-0.7612
-0.761213
-0.761226
-0.784003
-0.783925
-0.783852
-0.783783
-0.783719
-0.783659
-0.783602
-0.78355
-0.783501
-0.783456
-0.783414
-0.783375
-0.783339
-0.783306
-0.783275
-0.783247
-0.783222
-0.783199
-0.783178
-0.783159
-0.783142
-0.783128
-0.783115
-0.783103
-0.783094
-0.783086
-0.783079
-0.783074
-0.783071
-0.783068
-0.783067
-0.783067
-0.783069
-0.783071
-0.783074
-0.783079
-0.783084
-0.78309
-0.783097
-0.783104
-0.783113
-0.783122
-0.783132
-0.783142
-0.783154
-0.783165
-0.783178
-0.783191
-0.783204
-0.783218
-0.803919
-0.803961
-0.804002
-0.804043
-0.804083
-0.804123
-0.804162
-0.804199
-0.804236
-0.804273
-0.804308
-0.804342
-0.804376
-0.804409
-0.804441
-0.804473
-0.804503
-0.804534
-0.804563
-0.804592
-0.80462
-0.804647
-0.804674
-0.804701
-0.804727
-0.804752
-0.804777
-0.804802
-0.804826
-0.80485
-0.804874
-0.804897
-0.80492
-0.804943
-0.804966
-0.804988
-0.80501
-0.805032
-0.805054
-0.805075
-0.805097
-0.805118
-0.805139
-0.805161
-0.805182
-0.805203
-0.805224
-0.805245
-0.805265
-0.805286
-0.826117
-0.826142
-0.826165
-0.826188
-0.826209
-0.82623
-0.826251
-0.826271
-0.826291
-0.826311
-0.82633
-0.826349
-0.826368
-0.826387
-0.826406
-0.826425
-0.826444
-0.826463
-0.826483
-0.826502
-0.826521
-0.826541
-0.826561
-0.826581
-0.826601
-0.826621
-0.826642
-0.826663
-0.826684
-0.826705
-0.826727
-0.826749
-0.826771
-0.826793
-0.826815
-0.826838
-0.826861
-0.826884
-0.826907
-0.82693
-0.826954
-0.826978
-0.827002
-0.827026
-0.82705
-0.827075
-0.8271
-0.827124
-0.827149
-0.827174
-0.847671
-0.847716
-0.847761
-0.847804
-0.847846
-0.847887
-0.847928
-0.847967
-0.848006
-0.848044
-0.848081
-0.848117
-0.848153
-0.848189
-0.848223
-0.848258
-0.848292
-0.848325
-0.848359
-0.848391
-0.848424
-0.848456
-0.848488
-0.84852
-0.848551
-0.848582
-0.848613
-0.848643
-0.848673
-0.848703
-0.848733
-0.848763
-0.848792
-0.848822
-0.848851
-0.84888
-0.848909
-0.848938
-0.848967
-0.848996
-0.849025
-0.849053
-0.849082
-0.849111
-0.849139
-0.849168
-0.849196
-0.849225
-0.849253
-0.849282
-0.869299
-0.869346
-0.869391
-0.869436
-0.86948
-0.869524
-0.869566
-0.869608
-0.869649
-0.869689
-0.869729
-0.869768
-0.869807
-0.869846
-0.869884
-0.869921
-0.869958
-0.869995
-0.870032
-0.870068
-0.870104
-0.87014
-0.870175
-0.87021
-0.870246
-0.870281
-0.870316
-0.870351
-0.870385
-0.87042
-0.870454
-0.870489
-0.870523
-0.870558
-0.870592
-0.870627
-0.870661
-0.870695
-0.87073
-0.870764
-0.870799
-0.870833
-0.870868
-0.870902
-0.870937
-0.870972
-0.871006
-0.871041
-0.871076
-0.87111
-0.448919
-0.448935
-0.448951
-0.448967
-0.448983
-0.448999
-0.449015
-0.449031
-0.449047
-0.449064
-0.44908
-0.449096
-0.449113
-0.449129
-0.449146
-0.449162
-0.449179
-0.449196
-0.449213
-0.449229
-0.449246
-0.449263
-0.44928
-0.449297
-0.449314
-0.449332
-0.449349
-0.449366
-0.449383
-0.449401
-0.449418
-0.449436
-0.449453
-0.449471
-0.449488
-0.449506
-0.449524
-0.449541
-0.449559
-0.449577
-0.449595
-0.449613
-0.449631
-0.449649
-0.449667
-0.449685
-0.449703
-0.449722
-0.44974
-0.449758
-0.449777
-0.449795
-0.449813
-0.449832
-0.44985
-0.449869
-0.449888
-0.449906
-0.449925
-0.449944
-0.449963
-0.449981
-0.45
-0.450019
-0.450038
-0.450057
-0.450076
-0.450095
-0.450114
-0.450133
-0.450152
-0.450171
-0.450191
-0.45021
-0.450229
-0.450248
-0.450268
-0.450287
-0.450307
-0.450326
-0.450345
-0.450365
-0.450384
-0.450404
-0.450424
-0.450443
-0.450463
-0.450482
-0.450502
-0.450522
-0.450542
-0.450561
-0.450581
-0.450601
-0.450621
-0.450641
-0.450661
-0.45068
-0.4507
-0.45072
-0.45074
-0.45076
-0.45078
-0.4508
-0.45082
-0.45084
-0.45086
-0.450881
-0.450901
-0.450921
-0.450941
-0.450961
-0.450981
-0.451001
-0.451022
-0.451042
-0.451062
-0.451082
-0.451102
-0.451123
-0.451143
-0.451163
-0.451183
-0.451204
-0.451224
-0.451244
-0.451265
-0.451285
-0.451305
-0.451326
-0.451346
-0.451366
-0.451386
-0.451407
-0.451427
-0.451447
-0.451468
-0.451488
-0.451508
-0.451529
-0.451549
-0.451569
-0.451589
-0.45161
-0.45163
-0.45165
-0.45167
-0.451691
-0.451711
-0.451731
-0.451751
-0.451771
-0.451792
-0.451812
-0.451832
-0.451852
-0.451872
-0.451892
-0.451912
-0.451932
-0.451952
-0.451972
-0.451992
-0.452012
-0.452032
-0.452052
-0.452072
-0.452091
-0.452111
-0.452131
-0.452151
-0.45217
-0.45219
-0.45221
-0.452229
-0.452249
-0.452268
-0.452288
-0.452307
-0.452326
-0.452346
-0.452365
-0.452384
-0.452403
-0.452423
-0.452442
-0.452461
-0.45248
-0.452499
-0.452518
-0.452536
-0.452555
-0.452574
-0.452592
-0.452611
-0.45263
-0.452648
-0.452666
-0.452685
-0.452703
-0.452721
-0.452739
-0.452757
-0.452775
-0.452793
-0.452811
-0.452829
-0.452846
-0.452864
-0.452881
-0.452899
-0.452916
-0.452933
-0.45295
-0.452967
-0.452984
-0.453001
-0.453018
-0.453035
-0.453051
-0.453068
-0.453084
-0.4531
-0.453116
-0.453132
-0.453148
-0.453164
-0.45318
-0.453196
-0.453211
-0.453226
-0.453242
-0.453257
-0.453272
-0.453287
-0.453301
-0.453316
-0.45333
-0.453345
-0.453359
-0.453373
-0.453387
-0.453401
-0.453414
-0.453428
-0.453441
-0.453455
-0.453468
-0.453481
-0.453493
-0.453506
-0.453518
-0.453531
-0.453543
-0.453555
-0.453567
-0.453578
-0.45359
-0.453601
-0.453612
-0.453623
-0.453634
-0.453644
-0.453655
-0.453665
-0.453675
-0.453685
-0.453694
-0.453704
-0.453713
-0.453722
-0.453731
-0.45374
-0.453748
-0.453756
-0.453764
-0.453772
-0.45378
-0.453787
-0.453794
-0.453801
-0.453808
-0.453814
-0.45382
-0.453826
-0.453832
-0.453837
-0.453842
-0.453847
-0.453852
-0.453856
-0.453861
-0.453864
-0.453868
-0.453871
-0.453874
-0.453877
-0.453879
-0.453882
-0.453883
-0.471426
-0.471438
-0.47145
-0.471462
-0.471474
-0.471487
-0.471499
-0.471512
-0.471524
-0.471537
-0.47155
-0.471562
-0.471575
-0.471588
-0.471602
-0.471615
-0.471628
-0.471641
-0.471655
-0.471668
-0.471682
-0.471696
-0.471709
-0.471723
-0.471737
-0.471751
-0.471765
-0.471779
-0.471794
-0.471808
-0.471822
-0.471837
-0.471851
-0.471866
-0.471881
-0.471896
-0.47191
-0.471925
-0.47194
-0.471955
-0.471971
-0.471986
-0.472001
-0.472017
-0.472032
-0.472047
-0.472063
-0.472079
-0.472094
-0.47211
-0.472126
-0.472142
-0.472158
-0.472174
-0.47219
-0.472207
-0.472223
-0.472239
-0.472256
-0.472272
-0.472289
-0.472305
-0.472322
-0.472339
-0.472355
-0.472372
-0.472389
-0.472406
-0.472423
-0.47244
-0.472457
-0.472474
-0.472492
-0.472509
-0.472526
-0.472544
-0.472561
-0.472579
-0.472596
-0.472614
-0.472632
-0.47265
-0.472667
-0.472685
-0.472703
-0.472721
-0.472739
-0.472757
-0.472775
-0.472793
-0.472812
-0.47283
-0.472848
-0.472866
-0.472885
-0.472903
-0.472922
-0.47294
-0.472959
-0.472977
-0.472996
-0.473014
-0.473033
-0.473052
-0.473071
-0.473089
-0.473108
-0.473127
-0.473146
-0.473165
-0.473184
-0.473203
-0.473222
-0.473241
-0.47326
-0.473279
-0.473299
-0.473318
-0.473337
-0.473356
-0.473376
-0.473395
-0.473414
-0.473434
-0.473453
-0.473472
-0.473492
-0.473511
-0.473531
-0.47355
-0.47357
-0.473589
-0.473609
-0.473628
-0.473648
-0.473667
-0.473687
-0.473706
-0.473726
-0.473746
-0.473765
-0.473785
-0.473805
-0.473824
-0.473844
-0.473863
-0.473883
-0.473903
-0.473922
-0.473942
-0.473962
-0.473981
-0.474001
-0.474021
-0.47404
-0.47406
-0.47408
-0.474099
-0.474119
-0.474139
-0.474158
-0.474178
-0.474197
-0.474217
-0.474236
-0.474256
-0.474275
-0.474295
-0.474314
-0.474334
-0.474353
-0.474373
-0.474392
-0.474411
-0.474431
-0.47445
-0.474469
-0.474489
-0.474508
-0.474527
-0.474546
-0.474565
-0.474584
-0.474603
-0.474622
-0.474641
-0.47466
-0.474679
-0.474698
-0.474716
-0.474735
-0.474754
-0.474772
-0.474791
-0.474809
-0.474828
-0.474846
-0.474865
-0.474883
-0.474901
-0.474919
-0.474937
-0.474955
-0.474973
-0.474991
-0.475009
-0.475027
-0.475044
-0.475062
-0.475079
-0.475097
-0.475114
-0.475131
-0.475148
-0.475165
-0.475182
-0.475199
-0.475216
-0.475233
-0.475249
-0.475266
-0.475282
-0.475299
-0.475315
-0.475331
-0.475347
-0.475363
-0.475378
-0.475394
-0.47541
-0.475425
-0.47544
-0.475456
-0.475471
-0.475486
-0.4755
-0.475515
-0.47553
-0.475544
-0.475558
-0.475572
-0.475586
-0.4756
-0.475614
-0.475628
-0.475641
-0.475654
-0.475668
-0.475681
-0.475693
-0.475706
-0.475719
-0.475731
-0.475743
-0.475755
-0.475767
-0.475779
-0.47579
-0.475802
-0.475813
-0.475824
-0.475835
-0.475845
-0.475856
-0.475866
-0.475876
-0.475886
-0.475896
-0.475905
-0.475914
-0.475923
-0.475932
-0.475941
-0.475949
-0.475958
-0.475966
-0.475973
-0.475981
-0.475988
-0.475995
-0.476002
-0.476009
-0.476015
-0.476022
-0.476027
-0.476033
-0.476039
-0.476044
-0.476049
-0.476053
-0.476058
-0.476062
-0.476066
-0.476069
-0.476073
-0.476076
-0.476078
-0.476081
-0.476083
-0.476084
-0.493917
-0.493926
-0.493935
-0.493944
-0.493954
-0.493963
-0.493973
-0.493982
-0.493992
-0.494002
-0.494011
-0.494021
-0.494032
-0.494042
-0.494052
-0.494062
-0.494073
-0.494083
-0.494094
-0.494105
-0.494116
-0.494127
-0.494138
-0.494149
-0.49416
-0.494172
-0.494183
-0.494195
-0.494206
-0.494218
-0.49423
-0.494242
-0.494254
-0.494266
-0.494278
-0.49429
-0.494303
-0.494315
-0.494328
-0.494341
-0.494353
-0.494366
-0.494379
-0.494392
-0.494405
-0.494418
-0.494432
-0.494445
-0.494459
-0.494472
-0.494486
-0.494499
-0.494513
-0.494527
-0.494541
-0.494555
-0.494569
-0.494584
-0.494598
-0.494612
-0.494627
-0.494641
-0.494656
-0.494671
-0.494685
-0.4947
-0.494715
-0.49473
-0.494745
-0.49476
-0.494776
-0.494791
-0.494806
-0.494822
-0.494838
-0.494853
-0.494869
-0.494885
-0.4949
-0.494916
-0.494932
-0.494948
-0.494965
-0.494981
-0.494997
-0.495013
-0.49503
-0.495046
-0.495063
-0.495079
-0.495096
-0.495113
-0.495129
-0.495146
-0.495163
-0.49518
-0.495197
-0.495214
-0.495231
-0.495249
-0.495266
-0.495283
-0.495301
-0.495318
-0.495335
-0.495353
-0.495371
-0.495388
-0.495406
-0.495424
-0.495442
-0.495459
-0.495477
-0.495495
-0.495513
-0.495531
-0.495549
-0.495567
-0.495586
-0.495604
-0.495622
-0.49564
-0.495659
-0.495677
-0.495696
-0.495714
-0.495733
-0.495751
-0.49577
-0.495788
-0.495807
-0.495826
-0.495844
-0.495863
-0.495882
-0.495901
-0.495919
-0.495938
-0.495957
-0.495976
-0.495995
-0.496014
-0.496033
-0.496052
-0.496071
-0.49609
-0.496109
-0.496128
-0.496147
-0.496166
-0.496185
-0.496204
-0.496223
-0.496243
-0.496262
-0.496281
-0.4963
-0.496319
-0.496338
-0.496358
-0.496377
-0.496396
-0.496415
-0.496434
-0.496453
-0.496472
-0.496492
-0.496511
-0.49653
-0.496549
-0.496568
-0.496587
-0.496606
-0.496625
-0.496644
-0.496663
-0.496682
-0.496701
-0.49672
-0.496739
-0.496758
-0.496777
-0.496796
-0.496815
-0.496833
-0.496852
-0.496871
-0.49689
-0.496908
-0.496927
-0.496945
-0.496964
-0.496982
-0.497001
-0.497019
-0.497037
-0.497056
-0.497074
-0.497092
-0.49711
-0.497128
-0.497146
-0.497164
-0.497182
-0.4972
-0.497217
-0.497235
-0.497253
-0.49727
-0.497288
-0.497305
-0.497322
-0.49734
-0.497357
-0.497374
-0.497391
-0.497408
-0.497424
-0.497441
-0.497458
-0.497474
-0.497491
-0.497507
-0.497523
-0.497539
-0.497555
-0.497571
-0.497587
-0.497602
-0.497618
-0.497633
-0.497649
-0.497664
-0.497679
-0.497694
-0.497709
-0.497724
-0.497738
-0.497753
-0.497767
-0.497781
-0.497795
-0.497809
-0.497823
-0.497836
-0.49785
-0.497863
-0.497876
-0.497889
-0.497902
-0.497915
-0.497928
-0.49794
-0.497952
-0.497964
-0.497976
-0.497988
-0.497999
-0.498011
-0.498022
-0.498033
-0.498044
-0.498054
-0.498065
-0.498075
-0.498085
-0.498095
-0.498105
-0.498114
-0.498123
-0.498133
-0.498141
-0.49815
-0.498159
-0.498167
-0.498175
-0.498183
-0.49819
-0.498197
-0.498205
-0.498211
-0.498218
-0.498224
-0.498231
-0.498236
-0.498242
-0.498247
-0.498253
-0.498257
-0.498262
-0.498266
-0.498271
-0.498274
-0.498278
-0.498281
-0.498284
-0.498287
-0.498289
-0.498291
-0.498293
-0.516376
-0.516382
-0.516389
-0.516396
-0.516403
-0.51641
-0.516417
-0.516424
-0.516432
-0.516439
-0.516447
-0.516454
-0.516462
-0.51647
-0.516478
-0.516486
-0.516494
-0.516503
-0.516511
-0.51652
-0.516528
-0.516537
-0.516546
-0.516555
-0.516564
-0.516573
-0.516583
-0.516592
-0.516602
-0.516611
-0.516621
-0.516631
-0.516641
-0.516651
-0.516661
-0.516671
-0.516681
-0.516692
-0.516702
-0.516713
-0.516724
-0.516735
-0.516746
-0.516757
-0.516768
-0.516779
-0.516791
-0.516802
-0.516814
-0.516825
-0.516837
-0.516849
-0.516861
-0.516873
-0.516885
-0.516897
-0.51691
-0.516922
-0.516935
-0.516947
-0.51696
-0.516973
-0.516986
-0.516999