/*--------------------------------*- C++ -*----------------------------------*\
| =========                 |                                                 |
| \\      /  F ield         | OpenFOAM: The Open Source CFD Toolbox           |
|  \\    /   O peration     | Version:  2.4.0                                 |
|   \\  /    A nd           | Web:      www.OpenFOAM.org                      |
|    \\/     M anipulation  |                                                 |
\*---------------------------------------------------------------------------*/
FoamFile
{
    version     2.0;
    format      ascii;
    class       volScalarField;
    location    "0.9";
    object      H;
}
// * * * * * * * * * * * * * * * * * * * * * * * * * * * * * * * * * * * * * //

dimensions      [0 2 -2 0 0 0 0];

internalField   nonuniform List<scalar> 
500
(
-11735.9
-11736
-11736
-11736
-11735.9
-10744.4
-10744.5
-10744.5
-10744.5
-10744.4
-9748.22
-9748.29
-9748.3
-9748.29
-9748.21
-8751.33
-8751.42
-8751.43
-8751.42
-8751.32
-7757.2
-7757.31
-7757.31
-7757.3
-7757.19
-6768.39
-6768.51
-6768.51
-6768.5
-6768.38
-5786.21
-5786.32
-5786.33
-5786.32
-5786.2
-4810.38
-4810.47
-4810.48
-4810.47
-4810.37
-3838.79
-3838.86
-3838.86
-3838.86
-3838.78
-2867.42
-2867.45
-2867.45
-2867.45
-2867.42
-1890.41
-1890.41
-1890.4
-1890.41
-1890.41
-264.503
-264.444
-264.441
-264.445
-264.509
-209.655
-209.605
-209.603
-209.607
-209.659
-208.369
-208.322
-208.32
-208.323
-208.373
-206.522
-206.477
-206.475
-206.479
-206.526
-204.131
-204.088
-204.087
-204.09
-204.134
-201.214
-201.175
-201.174
-201.176
-201.218
-197.797
-197.761
-197.76
-197.762
-197.8
-193.905
-193.872
-193.871
-193.873
-193.908
-189.568
-189.538
-189.537
-189.539
-189.571
-184.818
-184.791
-184.791
-184.792
-184.821
-179.69
-179.666
-179.666
-179.667
-179.692
-174.221
-174.2
-174.2
-174.201
-174.223
-168.449
-168.432
-168.432
-168.432
-168.451
-162.415
-162.401
-162.401
-162.401
-162.417
-156.161
-156.149
-156.149
-156.149
-156.162
-149.727
-149.718
-149.719
-149.718
-149.728
-143.157
-143.151
-143.152
-143.151
-143.158
-136.493
-136.489
-136.49
-136.489
-136.493
-129.777
-129.775
-129.776
-129.775
-129.777
-123.048
-123.049
-123.051
-123.049
-123.048
-116.348
-116.351
-116.352
-116.351
-116.348
-109.713
-109.717
-109.719
-109.717
-109.712
-103.178
-103.184
-103.186
-103.184
-103.177
-96.7771
-96.7848
-96.7865
-96.7846
-96.7764
-90.5404
-90.5493
-90.5511
-90.549
-90.5395
-84.4951
-84.505
-84.5068
-84.5047
-84.4941
-78.6654
-78.6761
-78.678
-78.6758
-78.6644
-73.0722
-73.0835
-73.0854
-73.0832
-73.0711
-67.7329
-67.7447
-67.7465
-67.7443
-67.7318
-62.6615
-62.6735
-62.6753
-62.6731
-62.6604
-57.8685
-57.8806
-57.8824
-57.8802
-57.8673
-53.361
-53.373
-53.3747
-53.3726
-53.3598
-49.1428
-49.1547
-49.1563
-49.1543
-49.1417
-45.2147
-45.2262
-45.2278
-45.2259
-45.2136
-41.5744
-41.5855
-41.5871
-41.5852
-41.5733
-38.2169
-38.2276
-38.229
-38.2273
-38.2159
-35.135
-35.1451
-35.1464
-35.1448
-35.134
-32.319
-32.3285
-32.3297
-32.3282
-32.3181
-29.7575
-29.7664
-29.7676
-29.7661
-29.7567
-27.4377
-27.4459
-27.447
-27.4457
-27.437
-25.3454
-25.3529
-25.3539
-25.3527
-25.3447
-23.4655
-23.4724
-23.4733
-23.4722
-23.4649
-21.7824
-21.7886
-21.7894
-21.7884
-21.7819
-20.2801
-20.2857
-20.2864
-20.2855
-20.2796
-18.9426
-18.9475
-18.9481
-18.9473
-18.9421
-17.7539
-17.7582
-17.7588
-17.7581
-17.7535
-16.6986
-16.7024
-16.7029
-16.7023
-16.6983
-15.7619
-15.7652
-15.7656
-15.7651
-15.7616
-14.9296
-14.9324
-14.9328
-14.9323
-14.9293
-14.1883
-14.1907
-14.191
-14.1907
-14.1881
-13.5258
-13.5278
-13.5281
-13.5278
-13.5256
-12.9306
-12.9324
-12.9326
-12.9323
-12.9305
-12.3925
-12.3939
-12.3941
-12.3939
-12.3924
-11.9021
-11.9033
-11.9034
-11.9033
-11.902
-11.4512
-11.4522
-11.4523
-11.4521
-11.4511
-11.0325
-11.0332
-11.0333
-11.0332
-11.0324
-10.6396
-10.6402
-10.6403
-10.6402
-10.6396
-10.2672
-10.2677
-10.2677
-10.2676
-10.2671
-9.91052
-9.91089
-9.91091
-9.91088
-9.9105
-9.56576
-9.56604
-9.56605
-9.56604
-9.56575
-9.22969
-9.22989
-9.2299
-9.22989
-9.22968
-8.89968
-8.89982
-8.89982
-8.89983
-8.89967
-8.57363
-8.57373
-8.57372
-8.57374
-8.57363
-8.2499
-8.24997
-8.24995
-8.24997
-8.24991
-7.92723
-7.92727
-7.92725
-7.92728
-7.92724
-7.60468
-7.6047
-7.60468
-7.6047
-7.60469
-7.28159
-7.28159
-7.28157
-7.2816
-7.2816
-6.95752
-6.95752
-6.95749
-6.95752
-6.95753
-6.63223
-6.63221
-6.63219
-6.63222
-6.63224
-6.3056
-6.30558
-6.30556
-6.30559
-6.30561
-5.97765
-5.97763
-5.97761
-5.97763
-5.97766
-5.64848
-5.64846
-5.64844
-5.64847
-5.64849
-5.31827
-5.31825
-5.31823
-5.31826
-5.31828
-4.98725
-4.98723
-4.98721
-4.98724
-4.98726
-4.65569
-4.65567
-4.65565
-4.65567
-4.6557
-4.32388
-4.32386
-4.32384
-4.32386
-4.32389
-3.99215
-3.99213
-3.99212
-3.99214
-3.99216
-3.66083
-3.66082
-3.6608
-3.66082
-3.66084
-3.33028
-3.33027
-3.33026
-3.33027
-3.33029
-3.00085
-3.00084
-3.00083
-3.00084
-3.00086
-2.67292
-2.67291
-2.6729
-2.67291
-2.67292
-2.34685
-2.34684
-2.34683
-2.34684
-2.34685
-2.02304
-2.02303
-2.02302
-2.02303
-2.02304
-1.70189
-1.70188
-1.70188
-1.70188
-1.70189
-1.38382
-1.38382
-1.38381
-1.38382
-1.38382
-1.06927
-1.06927
-1.06926
-1.06927
-1.06927
-0.758708
-0.758705
-0.758702
-0.758706
-0.75871
-0.452619
-0.452617
-0.452616
-0.452618
-0.45262
-0.151528
-0.151528
-0.151527
-0.151528
-0.151529
)
;

boundaryField
{
    BotWall
    {
        type            zeroGradient;
    }
    FreeStream
    {
        type            zeroGradient;
    }
    FrontNBack
    {
        type            empty;
    }
    LeftSide
    {
        type            symmetryPlane;
    }
    RightSide
    {
        type            symmetryPlane;
    }
}


// ************************************************************************* //
