/*--------------------------------*- C++ -*----------------------------------*\
| =========                 |                                                 |
| \\      /  F ield         | OpenFOAM: The Open Source CFD Toolbox           |
|  \\    /   O peration     | Version:  2.4.0                                 |
|   \\  /    A nd           | Web:      www.OpenFOAM.org                      |
|    \\/     M anipulation  |                                                 |
\*---------------------------------------------------------------------------*/
FoamFile
{
    version     2.0;
    format      ascii;
    class       volScalarField;
    location    "0.9";
    object      p_rgh;
}
// * * * * * * * * * * * * * * * * * * * * * * * * * * * * * * * * * * * * * //

dimensions      [1 -1 -2 0 0 0 0];

internalField   nonuniform List<scalar> 
500
(
0.33993
0.339928
0.339921
0.339928
0.33993
0.340324
0.340325
0.340318
0.340325
0.340324
0.340234
0.340234
0.340227
0.340234
0.340234
0.339882
0.339883
0.339876
0.339883
0.339881
0.337825
0.337824
0.337817
0.337824
0.337824
0.337103
0.337104
0.337097
0.337104
0.337102
0.350437
0.350447
0.35044
0.350447
0.350437
0.397879
0.397909
0.397903
0.397908
0.397877
0.420248
0.420277
0.420274
0.420276
0.420245
0.0698061
0.069711
0.0697015
0.0697133
0.069811
-1.08656
-1.08699
-1.08702
-1.08698
-1.08652
-2.30626
-2.30716
-2.3072
-2.30713
-2.30618
-0.010239
-0.0102392
-0.0102392
-0.0102392
-0.010239
0.00331074
0.00331071
0.0033107
0.0033107
0.00331072
0.00082002
0.000820217
0.000820204
0.000820213
0.000820009
-0.00026543
-0.000265312
-0.000265327
-0.000265315
-0.000265437
-0.000368274
-0.000368222
-0.000368237
-0.000368225
-0.000368281
-0.000278317
-0.000278271
-0.000278286
-0.000278274
-0.000278323
-0.000236232
-0.000236176
-0.000236191
-0.000236179
-0.000236239
-0.000231038
-0.000230978
-0.000230993
-0.00023098
-0.000231045
-0.000232846
-0.000232786
-0.000232801
-0.000232788
-0.000232852
-0.000232723
-0.000232665
-0.00023268
-0.000232668
-0.00023273
-0.000231122
-0.000231066
-0.000231081
-0.000231068
-0.000231129
-0.000229229
-0.000229174
-0.000229189
-0.000229176
-0.000229236
-0.000227394
-0.000227339
-0.000227354
-0.000227342
-0.0002274
-0.000225596
-0.000225543
-0.000225558
-0.000225545
-0.000225602
-0.00022379
-0.000223737
-0.000223752
-0.000223739
-0.000223796
-0.000221959
-0.000221908
-0.000221923
-0.00022191
-0.000221965
-0.000220106
-0.000220056
-0.000220071
-0.000220058
-0.000220112
-0.000218232
-0.000218182
-0.000218198
-0.000218185
-0.000218238
-0.000216338
-0.000216289
-0.000216304
-0.000216291
-0.000216343
-0.000214422
-0.000214374
-0.000214389
-0.000214376
-0.000214427
-0.000212485
-0.000212437
-0.000212453
-0.00021244
-0.00021249
-0.000210526
-0.000210479
-0.000210495
-0.000210482
-0.000210531
-0.000208545
-0.0002085
-0.000208515
-0.000208502
-0.00020855
-0.000206542
-0.000206498
-0.000206513
-0.0002065
-0.000206547
-0.000204517
-0.000204473
-0.000204488
-0.000204476
-0.000204522
-0.000202469
-0.000202427
-0.000202441
-0.000202429
-0.000202474
-0.000200399
-0.000200357
-0.000200372
-0.000200359
-0.000200404
-0.000198305
-0.000198264
-0.000198279
-0.000198266
-0.00019831
-0.000196188
-0.000196148
-0.000196162
-0.00019615
-0.000196193
-0.000194047
-0.000194008
-0.000194022
-0.00019401
-0.000194052
-0.000191883
-0.000191844
-0.000191859
-0.000191846
-0.000191887
-0.000189694
-0.000189656
-0.000189671
-0.000189658
-0.000189698
-0.000187481
-0.000187444
-0.000187458
-0.000187446
-0.000187485
-0.000185243
-0.000185207
-0.000185221
-0.000185209
-0.000185247
-0.00018298
-0.000182945
-0.000182959
-0.000182947
-0.000182984
-0.000180692
-0.000180657
-0.000180671
-0.000180659
-0.000180696
-0.000178378
-0.000178345
-0.000178358
-0.000178346
-0.000178382
-0.000176039
-0.000176006
-0.00017602
-0.000176008
-0.000176043
-0.000173673
-0.000173641
-0.000173655
-0.000173643
-0.000173677
-0.000171281
-0.00017125
-0.000171263
-0.000171252
-0.000171285
-0.000168863
-0.000168832
-0.000168845
-0.000168834
-0.000168866
-0.000166417
-0.000166387
-0.0001664
-0.000166389
-0.000166421
-0.000163944
-0.000163915
-0.000163928
-0.000163917
-0.000163948
-0.000161444
-0.000161415
-0.000161428
-0.000161417
-0.000161447
-0.000158915
-0.000158888
-0.0001589
-0.000158889
-0.000158919
-0.000156359
-0.000156332
-0.000156344
-0.000156333
-0.000156362
-0.000153774
-0.000153747
-0.00015376
-0.000153749
-0.000153777
-0.00015116
-0.000151134
-0.000151146
-0.000151136
-0.000151163
-0.000148516
-0.000148492
-0.000148503
-0.000148493
-0.000148519
-0.000145844
-0.00014582
-0.000145831
-0.000145821
-0.000145847
-0.000143141
-0.000143118
-0.000143129
-0.000143119
-0.000143144
-0.000140409
-0.000140386
-0.000140397
-0.000140388
-0.000140412
-0.000137646
-0.000137624
-0.000137635
-0.000137625
-0.000137648
-0.000134852
-0.000134831
-0.000134841
-0.000134832
-0.000134854
-0.000132027
-0.000132006
-0.000132017
-0.000132007
-0.000132029
-0.00012917
-0.00012915
-0.00012916
-0.000129152
-0.000129173
-0.000126282
-0.000126263
-0.000126272
-0.000126264
-0.000126284
-0.000123361
-0.000123343
-0.000123352
-0.000123344
-0.000123363
-0.000120408
-0.00012039
-0.000120399
-0.000120391
-0.00012041
-0.000117422
-0.000117404
-0.000117413
-0.000117405
-0.000117424
-0.000114402
-0.000114386
-0.000114394
-0.000114387
-0.000114404
-0.000111349
-0.000111333
-0.000111342
-0.000111334
-0.000111351
-0.000108262
-0.000108246
-0.000108255
-0.000108247
-0.000108264
-0.00010514
-0.000105125
-0.000105133
-0.000105126
-0.000105142
-0.000101984
-0.00010197
-0.000101977
-0.00010197
-0.000101985
-9.8792e-05
-9.87784e-05
-9.87858e-05
-9.87792e-05
-9.87936e-05
-9.55647e-05
-9.55517e-05
-9.55588e-05
-9.55525e-05
-9.55662e-05
-9.23014e-05
-9.2289e-05
-9.22958e-05
-9.22897e-05
-9.23028e-05
-8.90017e-05
-8.89899e-05
-8.89964e-05
-8.89906e-05
-8.9003e-05
-8.56652e-05
-8.5654e-05
-8.56601e-05
-8.56546e-05
-8.56664e-05
-8.22914e-05
-8.22809e-05
-8.22867e-05
-8.22815e-05
-8.22926e-05
-7.88801e-05
-7.88701e-05
-7.88756e-05
-7.88707e-05
-7.88812e-05
-7.54306e-05
-7.54213e-05
-7.54264e-05
-7.54218e-05
-7.54317e-05
-7.19428e-05
-7.1934e-05
-7.19388e-05
-7.19345e-05
-7.19437e-05
-6.84159e-05
-6.84078e-05
-6.84123e-05
-6.84082e-05
-6.84168e-05
-6.48498e-05
-6.48422e-05
-6.48464e-05
-6.48426e-05
-6.48506e-05
-6.12439e-05
-6.12369e-05
-6.12407e-05
-6.12373e-05
-6.12446e-05
-5.75977e-05
-5.75913e-05
-5.75948e-05
-5.75917e-05
-5.75984e-05
-5.39109e-05
-5.39051e-05
-5.39083e-05
-5.39054e-05
-5.39115e-05
-5.0183e-05
-5.01778e-05
-5.01806e-05
-5.01781e-05
-5.01835e-05
-4.64135e-05
-4.64089e-05
-4.64113e-05
-4.64091e-05
-4.64139e-05
-4.26019e-05
-4.25979e-05
-4.26e-05
-4.25981e-05
-4.26023e-05
-3.87478e-05
-3.87444e-05
-3.87462e-05
-3.87446e-05
-3.87481e-05
-3.48508e-05
-3.4848e-05
-3.48494e-05
-3.48481e-05
-3.4851e-05
-3.09103e-05
-3.09082e-05
-3.09092e-05
-3.09083e-05
-3.09105e-05
-2.69259e-05
-2.69243e-05
-2.6925e-05
-2.69244e-05
-2.69259e-05
-2.28963e-05
-2.28954e-05
-2.28957e-05
-2.28955e-05
-2.28964e-05
-1.88172e-05
-1.88171e-05
-1.8817e-05
-1.8817e-05
-1.88171e-05
)
;

boundaryField
{
    BotWall
    {
        type            fixedFluxPressure;
        gradient        uniform 0;
        value           nonuniform List<scalar> 5(0.33993 0.339928 0.339921 0.339928 0.33993);
    }
    FreeStream
    {
        type            totalPressure;
        rho             rho;
        psi             none;
        gamma           1;
        p0              uniform 0;
        value           nonuniform List<scalar> 5(-1.67647e-05 -1.67651e-05 -1.67648e-05 -1.6765e-05 -1.67647e-05);
    }
    FrontNBack
    {
        type            empty;
    }
    LeftSide
    {
        type            symmetryPlane;
    }
    RightSide
    {
        type            symmetryPlane;
    }
}


// ************************************************************************* //
