/*--------------------------------*- C++ -*----------------------------------*\
| =========                 |                                                 |
| \\      /  F ield         | OpenFOAM: The Open Source CFD Toolbox           |
|  \\    /   O peration     | Version:  2.4.0                                 |
|   \\  /    A nd           | Web:      www.OpenFOAM.org                      |
|    \\/     M anipulation  |                                                 |
\*---------------------------------------------------------------------------*/
FoamFile
{
    version     2.0;
    format      ascii;
    class       surfaceScalarField;
    location    "0.9";
    object      phi;
}
// * * * * * * * * * * * * * * * * * * * * * * * * * * * * * * * * * * * * * //

dimensions      [0 3 -1 0 0 0 0];

internalField   nonuniform List<scalar> 
895
(
6.30551e-19
-6.29415e-19
3.23191e-19
3.0897e-19
-3.67307e-19
6.9192e-19
-6.73532e-19
3.07767e-19
-6.72047e-19
1.90683e-18
-2.53625e-18
9.73681e-19
1.24212e-18
-1.10829e-18
2.77389e-18
-2.03764e-18
1.23712e-18
-2.70968e-18
3.24273e-18
-5.77897e-18
1.65044e-18
2.83441e-18
-1.87887e-18
6.3032e-18
-3.46467e-18
2.82292e-18
-6.17435e-18
4.5987e-18
-1.03777e-17
2.3363e-18
5.09681e-18
-2.66201e-18
1.13015e-17
-4.91623e-18
5.07714e-18
-1.10906e-17
6.03138e-18
-1.6409e-17
3.05749e-18
8.0707e-18
-3.48422e-18
1.78432e-17
-6.44751e-18
8.04043e-18
-1.75381e-17
7.47538e-18
-2.38844e-17
3.78456e-18
1.17615e-17
-4.3157e-18
2.59435e-17
-7.99354e-18
1.17183e-17
-2.55316e-17
9.00632e-18
-3.28907e-17
4.5557e-18
1.62121e-17
-5.19491e-18
3.56941e-17
-9.63011e-18
1.61535e-17
-3.51617e-17
1.05472e-17
-4.3438e-17
5.33521e-18
2.14242e-17
-6.08633e-18
4.71156e-17
-1.12801e-17
2.13472e-17
-4.64418e-17
1.22101e-17
-5.56481e-17
6.17064e-18
2.74637e-17
-7.03811e-18
6.03244e-17
-1.30569e-17
2.73661e-17
-5.94988e-17
1.39646e-17
-6.96127e-17
6.97284e-18
3.44554e-17
-7.9628e-18
7.526e-17
-1.49335e-17
3.43367e-17
-7.44323e-17
1.59532e-17
-1.38179e-15
7.76104e-18
4.25801e-17
-8.87297e-18
9.18711e-17
-1.70561e-17
4.24493e-17
-1.47758e-15
1.95021e-17
-3.83525e-10
8.30449e-18
-3.83543e-10
-9.54924e-18
-3.83544e-10
-2.08292e-17
-3.83543e-10
-3.83524e-10
1.89591e-17
-3.83525e-10
9.49584e-18
-3.83543e-10
-1.08403e-17
-3.83544e-10
-2.02837e-17
-3.83543e-10
-3.83524e-10
9.60029e-18
-3.83525e-10
4.4854e-18
-3.83543e-10
-4.92628e-18
-3.83544e-10
-1.00852e-17
-3.83543e-10
-3.83524e-10
-2.28951e-18
-3.83525e-10
7.41362e-19
-3.83543e-10
-5.53701e-19
-3.83544e-10
2.22052e-18
-3.83543e-10
-3.83524e-10
-7.18269e-18
-3.83525e-10
-2.75578e-18
-3.83543e-10
3.4042e-18
-3.83544e-10
7.39863e-18
-3.83543e-10
-3.83524e-10
-9.87774e-18
-3.83525e-10
-5.14753e-18
-3.83543e-10
6.11032e-18
-3.83544e-10
1.02737e-17
-3.83543e-10
-3.83524e-10
-1.17971e-17
-3.83525e-10
-6.56366e-18
-3.83543e-10
7.70385e-18
-3.83544e-10
1.22625e-17
-3.83543e-10
-3.83524e-10
-1.25301e-17
-3.83525e-10
-7.22929e-18
-3.83543e-10
8.40979e-18
-3.83544e-10
1.2947e-17
-3.83543e-10
-3.83524e-10
-1.1644e-17
-3.83525e-10
-7.1936e-18
-3.83543e-10
8.27913e-18
-3.83544e-10
1.18958e-17
-3.83543e-10
-3.83524e-10
-9.11124e-18
-3.83525e-10
-6.43835e-18
-3.83543e-10
7.29823e-18
-3.83544e-10
9.08611e-18
-3.83543e-10
-3.83524e-10
-5.05646e-18
-3.83525e-10
-4.96883e-18
-3.83543e-10
5.47912e-18
-3.83544e-10
4.64887e-18
-3.83543e-10
-3.83524e-10
4.00512e-19
-3.83525e-10
-2.82015e-18
-3.83543e-10
2.86534e-18
-3.83544e-10
-1.28868e-18
-3.83543e-10
-3.83524e-10
7.15475e-18
-3.83525e-10
-4.08393e-20
-3.83543e-10
-4.84705e-19
-3.83544e-10
-8.61301e-18
-3.83543e-10
-3.83524e-10
1.50939e-17
-3.83525e-10
3.31501e-18
-3.83543e-10
-4.50562e-18
-3.83544e-10
-1.7202e-17
-3.83543e-10
-3.83524e-10
2.40898e-17
-3.83525e-10
7.18831e-18
-3.83543e-10
-9.1258e-18
-3.83544e-10
-2.69165e-17
-3.83543e-10
-3.83524e-10
3.40002e-17
-3.83525e-10
1.15146e-17
-3.83543e-10
-1.42673e-17
-3.83544e-10
-3.76026e-17
-3.83543e-10
-3.83524e-10
4.46729e-17
-3.83525e-10
1.62245e-17
-3.83543e-10
-1.98463e-17
-3.83544e-10
-4.90958e-17
-3.83543e-10
-3.83524e-10
5.59489e-17
-3.83526e-10
2.1245e-17
-3.83543e-10
-2.57751e-17
-3.83544e-10
-6.12241e-17
-3.83543e-10
-3.83524e-10
6.76644e-17
-3.83526e-10
2.65006e-17
-3.83543e-10
-3.19629e-17
-3.83544e-10
-7.38108e-17
-3.83543e-10
-3.83524e-10
7.96542e-17
-3.83526e-10
3.19144e-17
-3.83543e-10
-3.83179e-17
-3.83544e-10
-8.66774e-17
-3.83543e-10
-3.83524e-10
9.17537e-17
-3.83526e-10
3.74098e-17
-3.83543e-10
-4.47485e-17
-3.83544e-10
-9.96468e-17
-3.83543e-10
-3.83524e-10
1.03802e-16
-3.83526e-10
4.29115e-17
-3.83543e-10
-5.11653e-17
-3.83544e-10
-1.12546e-16
-3.83542e-10
-3.83524e-10
1.15646e-16
-3.83526e-10
4.83467e-17
-3.83543e-10
-5.7482e-17
-3.83544e-10
-1.25209e-16
-3.83542e-10
-3.83524e-10
1.27139e-16
-3.83526e-10
5.36468e-17
-3.83543e-10
-6.36177e-17
-3.83543e-10
-1.3748e-16
-3.83542e-10
-3.83525e-10
1.38148e-16
-3.83526e-10
5.87477e-17
-3.83543e-10
-6.94972e-17
-3.83543e-10
-1.49215e-16
-3.83542e-10
-3.83525e-10
1.48553e-16
-3.83526e-10
6.35914e-17
-3.83543e-10
-7.50532e-17
-3.83543e-10
-1.60286e-16
-3.83542e-10
-3.83525e-10
1.58248e-16
-3.83527e-10
6.8127e-17
-3.83543e-10
-8.02266e-17
-3.83543e-10
-1.70581e-16
-3.83542e-10
-3.83525e-10
1.67146e-16
-3.83527e-10
7.23107e-17
-3.83542e-10
-8.49676e-17
-3.83543e-10
-1.80006e-16
-3.83542e-10
-3.83525e-10
1.75175e-16
-3.83527e-10
7.61069e-17
-3.83542e-10
-8.92362e-17
-3.83543e-10
-1.88486e-16
-3.83542e-10
-3.83525e-10
1.82282e-16
-3.83527e-10
7.94885e-17
-3.83542e-10
-9.30027e-17
-3.83542e-10
-1.95966e-16
-3.83542e-10
-3.83526e-10
1.88434e-16
-3.83527e-10
8.24366e-17
-3.83542e-10
-9.62476e-17
-3.83542e-10
-2.02411e-16
-3.83542e-10
-3.83526e-10
1.93614e-16
-3.83527e-10
8.49407e-17
-3.83542e-10
-9.89614e-17
-3.83542e-10
-2.07805e-16
-3.83542e-10
-3.83526e-10
1.97823e-16
-3.83528e-10
8.69987e-17
-3.83542e-10
-1.01144e-16
-3.83542e-10
-2.12152e-16
-3.83541e-10
-3.83526e-10
2.01078e-16
-3.83528e-10
8.86159e-17
-3.83542e-10
-1.02806e-16
-3.83542e-10
-2.1547e-16
-3.83541e-10
-3.83526e-10
2.0341e-16
-3.83528e-10
8.98044e-17
-3.83542e-10
-1.03963e-16
-3.83542e-10
-2.17797e-16
-3.83541e-10
-3.83527e-10
2.04865e-16
-3.83528e-10
9.0583e-17
-3.83542e-10
-1.04642e-16
-3.83541e-10
-2.19183e-16
-3.83541e-10
-3.83527e-10
2.05497e-16
-3.83528e-10
9.09755e-17
-3.83541e-10
-1.04873e-16
-3.83541e-10
-2.19688e-16
-3.83541e-10
-3.83527e-10
2.05371e-16
-3.83529e-10
9.10101e-17
-3.83541e-10
-1.04692e-16
-3.83541e-10
-2.19383e-16
-3.83541e-10
-3.83527e-10
2.04558e-16
-3.83529e-10
9.07187e-17
-3.83541e-10
-1.04139e-16
-3.83541e-10
-2.18346e-16
-3.83541e-10
-3.83528e-10
2.03132e-16
-3.83529e-10
9.0135e-17
-3.83541e-10
-1.03256e-16
-3.83541e-10
-2.16658e-16
-3.83541e-10
-3.83528e-10
2.0117e-16
-3.83529e-10
8.92945e-17
-3.83541e-10
-1.02087e-16
-3.8354e-10
-2.14404e-16
-3.83541e-10
-3.83528e-10
1.98749e-16
-3.83529e-10
8.82327e-17
-3.83541e-10
-1.00674e-16
-3.8354e-10
-2.11668e-16
-3.8354e-10
-3.83528e-10
1.95945e-16
-3.8353e-10
8.69848e-17
-3.83541e-10
-9.90607e-17
-3.8354e-10
-2.0853e-16
-3.8354e-10
-3.83528e-10
1.92828e-16
-3.8353e-10
8.55845e-17
-3.83541e-10
-9.72871e-17
-3.8354e-10
-2.05068e-16
-3.8354e-10
-3.83529e-10
1.89465e-16
-3.8353e-10
8.40634e-17
-3.83541e-10
-9.53909e-17
-3.8354e-10
-2.01353e-16
-3.8354e-10
-3.83529e-10
1.85917e-16
-3.8353e-10
8.24508e-17
-3.83541e-10
-9.34062e-17
-3.83539e-10
-1.97452e-16
-3.8354e-10
-3.83529e-10
1.82238e-16
-3.8353e-10
8.07728e-17
-3.8354e-10
-9.13634e-17
-3.83539e-10
-1.93422e-16
-3.8354e-10
-3.83529e-10
1.78474e-16
-3.83531e-10
7.90522e-17
-3.8354e-10
-8.92887e-17
-3.83539e-10
-1.89311e-16
-3.8354e-10
-3.83529e-10
1.74664e-16
-3.83531e-10
7.73084e-17
-3.8354e-10
-8.72039e-17
-3.83539e-10
-1.85162e-16
-3.8354e-10
-3.8353e-10
1.70839e-16
-3.83531e-10
7.55575e-17
-3.8354e-10
-8.51267e-17
-3.83539e-10
-1.81008e-16
-3.8354e-10
-3.8353e-10
1.67023e-16
-3.83531e-10
7.38119e-17
-3.8354e-10
-8.30703e-17
-3.83539e-10
-1.76873e-16
-3.83539e-10
-3.8353e-10
1.63233e-16
-3.83531e-10
7.20812e-17
-3.8354e-10
-8.10444e-17
-3.83538e-10
-1.72775e-16
-3.83539e-10
-3.8353e-10
1.59481e-16
-3.83531e-10
7.03715e-17
-3.8354e-10
-7.90546e-17
-3.83538e-10
-1.68724e-16
-3.83539e-10
-3.8353e-10
1.5577e-16
-3.83532e-10
6.86865e-17
-3.8354e-10
-7.71035e-17
-3.83538e-10
-1.64726e-16
-3.83539e-10
-3.8353e-10
1.52102e-16
-3.83532e-10
6.70275e-17
-3.8354e-10
-7.51908e-17
-3.83538e-10
-1.6078e-16
-3.83539e-10
-3.83531e-10
1.48472e-16
-3.83532e-10
6.53937e-17
-3.8354e-10
-7.33136e-17
-3.83538e-10
-1.56879e-16
-3.83539e-10
-3.83531e-10
1.44873e-16
-3.83532e-10
6.37825e-17
-3.8354e-10
-7.14673e-17
-3.83538e-10
-1.53015e-16
-3.83539e-10
-3.83531e-10
1.41293e-16
-3.83532e-10
6.21899e-17
-3.83539e-10
-6.96451e-17
-3.83538e-10
-1.49176e-16
-3.83539e-10
-3.83531e-10
1.37721e-16
-3.83532e-10
6.06107e-17
-3.83539e-10
-6.78393e-17
-3.83538e-10
-1.45345e-16
-3.83539e-10
-3.83531e-10
1.3414e-16
-3.83532e-10
5.90389e-17
-3.83539e-10
-6.60408e-17
-3.83537e-10
-1.41508e-16
-3.83539e-10
-3.83531e-10
1.30536e-16
-3.83533e-10
5.74679e-17
-3.83539e-10
-6.424e-17
-3.83537e-10
-1.37645e-16
-3.83539e-10
-3.83531e-10
1.26892e-16
-3.83533e-10
5.58906e-17
-3.83539e-10
-6.24267e-17
-3.83537e-10
-1.33738e-16
-3.83539e-10
-3.83532e-10
1.2319e-16
-3.83533e-10
5.42995e-17
-3.83539e-10
-6.05904e-17
-3.83537e-10
-1.29768e-16
-3.83539e-10
-3.83532e-10
1.19414e-16
-3.83533e-10
5.26873e-17
-3.83539e-10
-5.87205e-17
-3.83537e-10
-1.25714e-16
-3.83538e-10
-3.83532e-10
1.15546e-16
-3.83533e-10
5.10467e-17
-3.83539e-10
-5.68066e-17
-3.83537e-10
-1.21558e-16
-3.83538e-10
-3.83532e-10
1.11571e-16
-3.83533e-10
4.93709e-17
-3.83539e-10
-5.48386e-17
-3.83537e-10
-1.17282e-16
-3.83538e-10
-3.83532e-10
1.07476e-16
-3.83533e-10
4.76534e-17
-3.83539e-10
-5.28074e-17
-3.83537e-10
-1.1287e-16
-3.83538e-10
-3.83532e-10
1.03247e-16
-3.83533e-10
4.58888e-17
-3.83539e-10
-5.07049e-17
-3.83537e-10
-1.08308e-16
-3.83538e-10
-3.83532e-10
9.8877e-17
-3.83533e-10
4.40728e-17
-3.83539e-10
-4.85245e-17
-3.83536e-10
-1.03586e-16
-3.83538e-10
-3.83532e-10
9.43613e-17
-3.83534e-10
4.22027e-17
-3.83539e-10
-4.62619e-17
-3.83536e-10
-9.8699e-17
-3.83538e-10
-3.83533e-10
8.97013e-17
-3.83534e-10
4.02779e-17
-3.83539e-10
-4.39156e-17
-3.83536e-10
-9.36476e-17
-3.83538e-10
-3.83533e-10
8.4905e-17
-3.83534e-10
3.83003e-17
-3.83539e-10
-4.14875e-17
-3.83536e-10
-8.844e-17
-3.83538e-10
-3.83533e-10
7.99888e-17
-3.83534e-10
3.62748e-17
-3.83538e-10
-3.89838e-17
-3.83536e-10
-8.30938e-17
-3.83538e-10
-3.83533e-10
7.49785e-17
-3.83534e-10
3.42097e-17
-3.83538e-10
-3.64156e-17
-3.83536e-10
-7.76371e-17
-3.83538e-10
-3.83533e-10
6.99108e-17
-3.83534e-10
3.21176e-17
-3.83538e-10
-3.37996e-17
-3.83536e-10
-7.211e-17
-3.83538e-10
-3.83533e-10
6.48335e-17
-3.83534e-10
3.00149e-17
-3.83538e-10
-3.11584e-17
-3.83536e-10
-6.65653e-17
-3.83538e-10
-3.83533e-10
5.98063e-17
-3.83534e-10
2.79227e-17
-3.83538e-10
-2.85208e-17
-3.83536e-10
-6.10686e-17
-3.83538e-10
-3.83533e-10
5.48997e-17
-3.83534e-10
2.58661e-17
-3.83538e-10
-2.59215e-17
-3.83536e-10
-5.56981e-17
-3.83538e-10
-3.83533e-10
5.01936e-17
-3.83534e-10
2.3874e-17
-3.83538e-10
-2.34002e-17
-3.83536e-10
-5.05421e-17
-3.83538e-10
-3.83533e-10
4.57743e-17
-3.83534e-10
2.19779e-17
-3.83538e-10
-2.10006e-17
-3.83536e-10
-4.56965e-17
-3.83538e-10
-3.83533e-10
4.17305e-17
-3.83534e-10
2.02109e-17
-3.83538e-10
-1.87676e-17
-3.83536e-10
-4.12593e-17
-3.83538e-10
-3.83533e-10
3.81481e-17
-3.83534e-10
1.86052e-17
-3.83538e-10
-1.67455e-17
-3.83536e-10
-3.73256e-17
-3.83538e-10
-3.83533e-10
3.51027e-17
-3.83534e-10
1.71908e-17
-3.83538e-10
-1.49741e-17
-3.83536e-10
-3.39789e-17
-3.83538e-10
-3.83533e-10
3.26528e-17
-3.83534e-10
1.59919e-17
-3.83538e-10
-1.34849e-17
-3.83536e-10
-3.12836e-17
-3.83538e-10
-3.83533e-10
3.08316e-17
-3.83534e-10
1.50246e-17
-3.83538e-10
-1.2297e-17
-3.83536e-10
-2.92751e-17
-3.83538e-10
-3.83533e-10
2.96386e-17
-3.83534e-10
1.42944e-17
-3.83538e-10
-1.14138e-17
-3.83536e-10
-2.79517e-17
-3.83538e-10
-3.83533e-10
2.90351e-17
-3.83534e-10
1.3794e-17
-3.83538e-10
-1.08197e-17
-3.83535e-10
-2.72683e-17
-3.83538e-10
-3.83533e-10
2.89432e-17
-3.83535e-10
1.3502e-17
-3.83538e-10
-1.04777e-17
-3.83535e-10
-2.71358e-17
-3.83538e-10
-3.83534e-10
2.92345e-17
1.33757e-17
-1.03237e-17
-2.74103e-17
)
;

boundaryField
{
    BotWall
    {
        type            calculated;
        value           nonuniform List<scalar> 5(5.86209e-23 -4.27159e-23 -2.8397e-23 -2.43489e-23 3.30877e-23);
    }
    FreeStream
    {
        type            calculated;
        value           nonuniform List<scalar> 5(-3.83535e-10 -3.83538e-10 -3.83535e-10 -3.83538e-10 -3.83534e-10);
    }
    FrontNBack
    {
        type            empty;
        value           nonuniform 0();
    }
    LeftSide
    {
        type            symmetryPlane;
        value           uniform 0;
    }
    RightSide
    {
        type            symmetryPlane;
        value           uniform 0;
    }
}


// ************************************************************************* //
