/*--------------------------------*- C++ -*----------------------------------*\
| =========                 |                                                 |
| \\      /  F ield         | OpenFOAM: The Open Source CFD Toolbox           |
|  \\    /   O peration     | Version:  2.4.0                                 |
|   \\  /    A nd           | Web:      www.OpenFOAM.org                      |
|    \\/     M anipulation  |                                                 |
\*---------------------------------------------------------------------------*/
FoamFile
{
    version     2.0;
    format      ascii;
    class       volVectorField;
    location    "0.9";
    object      U;
}
// * * * * * * * * * * * * * * * * * * * * * * * * * * * * * * * * * * * * * //

dimensions      [0 1 -1 0 0 0 0];

internalField   nonuniform List<vector> 
500
(
(2.1937e-10 -3.72706e-09 0)
(2.40514e-10 -3.75854e-09 0)
(-6.58676e-12 -3.75803e-09 0)
(-2.59507e-10 -3.75854e-09 0)
(-2.31701e-10 -3.72708e-09 0)
(6.57059e-10 1.06091e-08 0)
(7.18838e-10 1.07032e-08 0)
(-1.9873e-11 1.07069e-08 0)
(-7.76083e-10 1.07032e-08 0)
(-6.94207e-10 1.06086e-08 0)
(1.10607e-09 -1.28506e-08 0)
(1.20695e-09 -1.2961e-08 0)
(-3.33345e-11 -1.29488e-08 0)
(-1.30303e-09 -1.2961e-08 0)
(-1.16845e-09 -1.28519e-08 0)
(1.55276e-09 2.63015e-08 0)
(1.69095e-09 2.65498e-08 0)
(-4.69929e-11 2.65723e-08 0)
(-1.82664e-09 2.65496e-08 0)
(-1.64093e-09 2.62986e-08 0)
(2.01648e-09 -5.54165e-08 0)
(2.18997e-09 -5.55859e-08 0)
(-6.08608e-11 -5.55464e-08 0)
(-2.3658e-09 -5.55858e-08 0)
(-2.1308e-09 -5.54203e-08 0)
(2.47478e-09 -6.47881e-08 0)
(2.68158e-09 -6.44063e-08 0)
(-7.48879e-11 -6.43504e-08 0)
(-2.89807e-09 -6.44055e-08 0)
(-2.6156e-09 -6.47921e-08 0)
(2.95384e-09 -1.25665e-07 0)
(3.19185e-09 -1.25794e-07 0)
(-8.90936e-11 -1.25711e-07 0)
(-3.44957e-09 -1.25793e-07 0)
(-3.12157e-09 -1.25671e-07 0)
(3.4281e-09 7.04808e-07 0)
(3.695e-09 7.05878e-07 0)
(-1.03469e-10 7.05999e-07 0)
(-3.99452e-09 7.05871e-07 0)
(-3.62316e-09 7.0478e-07 0)
(3.93032e-09 2.69607e-06 0)
(4.22379e-09 2.69725e-06 0)
(-1.18088e-10 2.69745e-06 0)
(-4.56605e-09 2.69722e-06 0)
(-4.15341e-09 2.69597e-06 0)
(4.43432e-09 1.52772e-06 0)
(4.74913e-09 1.52921e-06 0)
(-1.33237e-10 1.52943e-06 0)
(-5.13568e-09 1.52919e-06 0)
(-4.68649e-09 1.52762e-06 0)
(4.9472e-09 -1.31617e-05 0)
(5.28517e-09 -1.31655e-05 0)
(-1.4824e-10 -1.31655e-05 0)
(-5.71609e-09 -1.31654e-05 0)
(-5.22871e-09 -1.31615e-05 0)
(5.5974e-09 -0.000102003 0)
(5.96306e-09 -0.000102036 0)
(-1.66321e-10 -0.000102038 0)
(-6.45065e-09 -0.000102035 0)
(-5.91749e-09 -0.000102 0)
(5.8579e-09 -0.00162336 0)
(6.2339e-09 -0.00162341 0)
(-1.74041e-10 -0.00162341 0)
(-6.74384e-09 -0.00162341 0)
(-6.19263e-09 -0.00162336 0)
(3.00601e-09 -0.00360808 0)
(2.88236e-09 -0.00360824 0)
(-3.25561e-11 -0.00360824 0)
(-3.07875e-09 -0.00360823 0)
(-3.16794e-09 -0.00360807 0)
(2.76007e-10 -0.00193317 0)
(-3.68049e-10 -0.00193331 0)
(6.59879e-11 -0.00193331 0)
(3.62408e-10 -0.0019333 0)
(-3.45025e-10 -0.00193316 0)
(-1.20947e-09 -0.00181251 0)
(-2.37861e-09 -0.00181259 0)
(1.39911e-10 -0.0018126 0)
(2.50382e-09 -0.00181259 0)
(1.19809e-09 -0.0018125 0)
(-1.95553e-09 -0.00187034 0)
(-3.66178e-09 -0.00187042 0)
(1.92662e-10 -0.00187042 0)
(3.8682e-09 -0.00187042 0)
(1.97333e-09 -0.00187033 0)
(-2.24656e-09 -0.00191559 0)
(-4.4989e-09 -0.00191567 0)
(2.25489e-10 -0.00191567 0)
(4.74054e-09 -0.00191567 0)
(2.26746e-09 -0.00191558 0)
(-2.10769e-09 -0.0019223 0)
(-4.91126e-09 -0.00192239 0)
(2.38816e-10 -0.00192239 0)
(5.14288e-09 -0.00192238 0)
(2.106e-09 -0.00192229 0)
(-1.50655e-09 -0.0019195 0)
(-4.8626e-09 -0.00191959 0)
(2.33509e-10 -0.00191959 0)
(5.041e-09 -0.00191959 0)
(1.45771e-09 -0.00191949 0)
(-4.51902e-10 -0.00191771 0)
(-4.35792e-09 -0.0019178 0)
(2.10797e-10 -0.0019178 0)
(4.4429e-09 -0.0019178 0)
(3.33133e-10 -0.0019177 0)
(1.01844e-09 -0.00191743 0)
(-3.43129e-09 -0.00191752 0)
(1.72133e-10 -0.00191753 0)
(3.38618e-09 -0.00191752 0)
(-1.22784e-09 -0.00191743 0)
(2.85983e-09 -0.00191755 0)
(-2.12358e-09 -0.00191764 0)
(1.19125e-10 -0.00191764 0)
(1.91563e-09 -0.00191764 0)
(-3.17826e-09 -0.00191754 0)
(5.0274e-09 -0.00191762 0)
(-4.75909e-10 -0.00191771 0)
(5.3521e-11 -0.00191772 0)
(7.65593e-11 -0.00191771 0)
(-5.47084e-09 -0.00191762 0)
(7.47527e-09 -0.00191763 0)
(1.46945e-09 -0.00191772 0)
(-2.28229e-11 -0.00191773 0)
(-2.08428e-09 -0.00191772 0)
(-8.05708e-09 -0.00191763 0)
(1.01557e-08 -0.00191763 0)
(3.66818e-09 -0.00191772 0)
(-1.07965e-10 -0.00191772 0)
(-4.51794e-09 -0.00191772 0)
(-1.08865e-08 -0.00191762 0)
(1.30194e-08 -0.00191763 0)
(6.07427e-09 -0.00191772 0)
(-1.99913e-10 -0.00191772 0)
(-7.17362e-09 -0.00191771 0)
(-1.39072e-08 -0.00191762 0)
(1.60166e-08 -0.00191763 0)
(8.64076e-09 -0.00191772 0)
(-2.96659e-10 -0.00191772 0)
(-9.99957e-09 -0.00191771 0)
(-1.70665e-08 -0.00191762 0)
(1.90976e-08 -0.00191763 0)
(1.13206e-08 -0.00191772 0)
(-3.96211e-10 -0.00191772 0)
(-1.2944e-08 -0.00191771 0)
(-2.03119e-08 -0.00191762 0)
(2.22138e-08 -0.00191763 0)
(1.40674e-08 -0.00191772 0)
(-4.96631e-10 -0.00191772 0)
(-1.59558e-08 -0.00191771 0)
(-2.35923e-08 -0.00191762 0)
(2.53184e-08 -0.00191763 0)
(1.68361e-08 -0.00191772 0)
(-5.96066e-10 -0.00191772 0)
(-1.89856e-08 -0.00191771 0)
(-2.68582e-08 -0.00191762 0)
(2.83669e-08 -0.00191763 0)
(1.95835e-08 -0.00191772 0)
(-6.92777e-10 -0.00191772 0)
(-2.19859e-08 -0.00191771 0)
(-3.00628e-08 -0.00191762 0)
(3.13181e-08 -0.00191763 0)
(2.22692e-08 -0.00191771 0)
(-7.85171e-10 -0.00191772 0)
(-2.49127e-08 -0.00191771 0)
(-3.31626e-08 -0.00191762 0)
(3.41344e-08 -0.00191763 0)
(2.4856e-08 -0.00191771 0)
(-8.71822e-10 -0.00191772 0)
(-2.77252e-08 -0.00191771 0)
(-3.61179e-08 -0.00191762 0)
(3.67823e-08 -0.00191763 0)
(2.73103e-08 -0.00191771 0)
(-9.51498e-10 -0.00191772 0)
(-3.03869e-08 -0.00191771 0)
(-3.88938e-08 -0.00191762 0)
(3.92329e-08 -0.00191763 0)
(2.96027e-08 -0.00191771 0)
(-1.02317e-09 -0.00191772 0)
(-3.28659e-08 -0.00191771 0)
(-4.14598e-08 -0.00191762 0)
(4.14625e-08 -0.00191763 0)
(3.17084e-08 -0.00191771 0)
(-1.08602e-09 -0.00191772 0)
(-3.51354e-08 -0.00191771 0)
(-4.37909e-08 -0.00191762 0)
(4.3452e-08 -0.00191763 0)
(3.36069e-08 -0.00191771 0)
(-1.13947e-09 -0.00191772 0)
(-3.71736e-08 -0.00191771 0)
(-4.58673e-08 -0.00191762 0)
(4.51878e-08 -0.00191763 0)
(3.5283e-08 -0.00191771 0)
(-1.18314e-09 -0.00191771 0)
(-3.89643e-08 -0.00191771 0)
(-4.76749e-08 -0.00191763 0)
(4.66614e-08 -0.00191763 0)
(3.67259e-08 -0.00191771 0)
(-1.2169e-09 -0.00191771 0)
(-4.04963e-08 -0.00191771 0)
(-4.92049e-08 -0.00191763 0)
(4.7869e-08 -0.00191763 0)
(3.79296e-08 -0.00191771 0)
(-1.2408e-09 -0.00191771 0)
(-4.17638e-08 -0.00191771 0)
(-5.04534e-08 -0.00191763 0)
(4.88117e-08 -0.00191764 0)
(3.8893e-08 -0.00191771 0)
(-1.25509e-09 -0.00191771 0)
(-4.27661e-08 -0.00191771 0)
(-5.14221e-08 -0.00191763 0)
(4.94949e-08 -0.00191764 0)
(3.96186e-08 -0.00191771 0)
(-1.26021e-09 -0.00191771 0)
(-4.3507e-08 -0.00191771 0)
(-5.21168e-08 -0.00191763 0)
(4.99281e-08 -0.00191764 0)
(4.01134e-08 -0.00191771 0)
(-1.25674e-09 -0.00191771 0)
(-4.39945e-08 -0.00191771 0)
(-5.25477e-08 -0.00191763 0)
(5.01239e-08 -0.00191764 0)
(4.03874e-08 -0.00191771 0)
(-1.24538e-09 -0.00191771 0)
(-4.42405e-08 -0.00191771 0)
(-5.27284e-08 -0.00191763 0)
(5.00979e-08 -0.00191764 0)
(4.04537e-08 -0.00191771 0)
(-1.22695e-09 -0.00191771 0)
(-4.426e-08 -0.00191771 0)
(-5.26757e-08 -0.00191763 0)
(4.98681e-08 -0.00191764 0)
(4.03278e-08 -0.00191771 0)
(-1.20233e-09 -0.00191771 0)
(-4.40706e-08 -0.00191771 0)
(-5.24086e-08 -0.00191763 0)
(4.9454e-08 -0.00191764 0)
(4.00271e-08 -0.00191771 0)
(-1.17245e-09 -0.00191771 0)
(-4.36919e-08 -0.00191771 0)
(-5.19482e-08 -0.00191764 0)
(4.88763e-08 -0.00191764 0)
(3.95702e-08 -0.00191771 0)
(-1.13825e-09 -0.00191771 0)
(-4.31448e-08 -0.0019177 0)
(-5.13162e-08 -0.00191764 0)
(4.81563e-08 -0.00191764 0)
(3.89766e-08 -0.00191771 0)
(-1.10067e-09 -0.0019177 0)
(-4.24511e-08 -0.0019177 0)
(-5.05353e-08 -0.00191764 0)
(4.7315e-08 -0.00191764 0)
(3.82659e-08 -0.00191771 0)
(-1.06061e-09 -0.0019177 0)
(-4.16326e-08 -0.0019177 0)
(-4.96279e-08 -0.00191764 0)
(4.63731e-08 -0.00191765 0)
(3.74575e-08 -0.00191771 0)
(-1.01894e-09 -0.0019177 0)
(-4.07109e-08 -0.0019177 0)
(-4.86159e-08 -0.00191764 0)
(4.53503e-08 -0.00191765 0)
(3.65702e-08 -0.0019177 0)
(-9.76437e-10 -0.0019177 0)
(-3.97066e-08 -0.0019177 0)
(-4.75202e-08 -0.00191764 0)
(4.42651e-08 -0.00191765 0)
(3.56218e-08 -0.0019177 0)
(-9.3381e-10 -0.0019177 0)
(-3.86394e-08 -0.0019177 0)
(-4.63604e-08 -0.00191764 0)
(4.31344e-08 -0.00191765 0)
(3.46286e-08 -0.0019177 0)
(-8.91673e-10 -0.0019177 0)
(-3.75273e-08 -0.0019177 0)
(-4.51541e-08 -0.00191764 0)
(4.19732e-08 -0.00191765 0)
(3.36056e-08 -0.0019177 0)
(-8.50542e-10 -0.0019177 0)
(-3.63863e-08 -0.0019177 0)
(-4.39174e-08 -0.00191764 0)
(4.07947e-08 -0.00191765 0)
(3.25659e-08 -0.0019177 0)
(-8.10834e-10 -0.0019177 0)
(-3.52309e-08 -0.0019177 0)
(-4.26642e-08 -0.00191764 0)
(3.96102e-08 -0.00191765 0)
(3.15208e-08 -0.0019177 0)
(-7.72871e-10 -0.0019177 0)
(-3.40733e-08 -0.0019177 0)
(-4.14062e-08 -0.00191765 0)
(3.8429e-08 -0.00191765 0)
(3.048e-08 -0.0019177 0)
(-7.36874e-10 -0.0019177 0)
(-3.29237e-08 -0.0019177 0)
(-4.01531e-08 -0.00191765 0)
(3.72584e-08 -0.00191765 0)
(2.94512e-08 -0.0019177 0)
(-7.02981e-10 -0.0019177 0)
(-3.17903e-08 -0.0019177 0)
(-3.89128e-08 -0.00191765 0)
(3.61041e-08 -0.00191765 0)
(2.84405e-08 -0.0019177 0)
(-6.71246e-10 -0.00191769 0)
(-3.06796e-08 -0.0019177 0)
(-3.76911e-08 -0.00191765 0)
(3.49701e-08 -0.00191766 0)
(2.74523e-08 -0.0019177 0)
(-6.41652e-10 -0.00191769 0)
(-2.9596e-08 -0.0019177 0)
(-3.6492e-08 -0.00191765 0)
(3.38588e-08 -0.00191766 0)
(2.64896e-08 -0.0019177 0)
(-6.14121e-10 -0.00191769 0)
(-2.85425e-08 -0.0019177 0)
(-3.5318e-08 -0.00191765 0)
(3.27715e-08 -0.00191766 0)
(2.55543e-08 -0.0019177 0)
(-5.88523e-10 -0.00191769 0)
(-2.75207e-08 -0.0019177 0)
(-3.41705e-08 -0.00191765 0)
(3.17083e-08 -0.00191766 0)
(2.46468e-08 -0.0019177 0)
(-5.64688e-10 -0.00191769 0)
(-2.65309e-08 -0.0019177 0)
(-3.30493e-08 -0.00191765 0)
(3.06686e-08 -0.00191766 0)
(2.3767e-08 -0.0019177 0)
(-5.42411e-10 -0.00191769 0)
(-2.55725e-08 -0.0019177 0)
(-3.19538e-08 -0.00191765 0)
(2.96507e-08 -0.00191766 0)
(2.29137e-08 -0.0019177 0)
(-5.21465e-10 -0.00191769 0)
(-2.4644e-08 -0.0019177 0)
(-3.08821e-08 -0.00191765 0)
(2.86528e-08 -0.00191766 0)
(2.20853e-08 -0.0019177 0)
(-5.01607e-10 -0.00191769 0)
(-2.37433e-08 -0.0019177 0)
(-2.9832e-08 -0.00191765 0)
(2.76723e-08 -0.00191766 0)
(2.12797e-08 -0.0019177 0)
(-4.82581e-10 -0.00191769 0)
(-2.28678e-08 -0.00191769 0)
(-2.88009e-08 -0.00191766 0)
(2.67066e-08 -0.00191766 0)
(2.04945e-08 -0.0019177 0)
(-4.64129e-10 -0.00191769 0)
(-2.20146e-08 -0.00191769 0)
(-2.77859e-08 -0.00191766 0)
(2.57528e-08 -0.00191766 0)
(1.97271e-08 -0.0019177 0)
(-4.4599e-10 -0.00191769 0)
(-2.11804e-08 -0.00191769 0)
(-2.67837e-08 -0.00191766 0)
(2.48078e-08 -0.00191766 0)
(1.89746e-08 -0.0019177 0)
(-4.27904e-10 -0.00191769 0)
(-2.03621e-08 -0.00191769 0)
(-2.57913e-08 -0.00191766 0)
(2.38689e-08 -0.00191766 0)
(1.82343e-08 -0.0019177 0)
(-4.09616e-10 -0.00191769 0)
(-1.95564e-08 -0.00191769 0)
(-2.48053e-08 -0.00191766 0)
(2.2933e-08 -0.00191766 0)
(1.75035e-08 -0.0019177 0)
(-3.90878e-10 -0.00191769 0)
(-1.87599e-08 -0.00191769 0)
(-2.38227e-08 -0.00191766 0)
(2.19974e-08 -0.00191766 0)
(1.67794e-08 -0.0019177 0)
(-3.71453e-10 -0.00191768 0)
(-1.79697e-08 -0.00191769 0)
(-2.28404e-08 -0.00191766 0)
(2.10596e-08 -0.00191767 0)
(1.60596e-08 -0.00191769 0)
(-3.51115e-10 -0.00191768 0)
(-1.71826e-08 -0.00191769 0)
(-2.18559e-08 -0.00191766 0)
(2.01174e-08 -0.00191767 0)
(1.53419e-08 -0.00191769 0)
(-3.29655e-10 -0.00191768 0)
(-1.63962e-08 -0.00191769 0)
(-2.08665e-08 -0.00191766 0)
(1.9169e-08 -0.00191767 0)
(1.46243e-08 -0.00191769 0)
(-3.06888e-10 -0.00191768 0)
(-1.56079e-08 -0.00191769 0)
(-1.98704e-08 -0.00191766 0)
(1.8213e-08 -0.00191767 0)
(1.39051e-08 -0.00191769 0)
(-2.82655e-10 -0.00191768 0)
(-1.4816e-08 -0.00191769 0)
(-1.8866e-08 -0.00191766 0)
(1.72487e-08 -0.00191767 0)
(1.31833e-08 -0.00191769 0)
(-2.56838e-10 -0.00191768 0)
(-1.40191e-08 -0.00191769 0)
(-1.78527e-08 -0.00191766 0)
(1.62764e-08 -0.00191767 0)
(1.24583e-08 -0.00191769 0)
(-2.29365e-10 -0.00191768 0)
(-1.32164e-08 -0.00191769 0)
(-1.68304e-08 -0.00191766 0)
(1.52971e-08 -0.00191767 0)
(1.17303e-08 -0.00191769 0)
(-2.00226e-10 -0.00191768 0)
(-1.24083e-08 -0.00191769 0)
(-1.58003e-08 -0.00191766 0)
(1.43131e-08 -0.00191767 0)
(1.10002e-08 -0.00191769 0)
(-1.69479e-10 -0.00191768 0)
(-1.15957e-08 -0.00191769 0)
(-1.47647e-08 -0.00191766 0)
(1.3328e-08 -0.00191767 0)
(1.02699e-08 -0.00191769 0)
(-1.37271e-10 -0.00191768 0)
(-1.07808e-08 -0.00191769 0)
(-1.37275e-08 -0.00191766 0)
(1.23468e-08 -0.00191767 0)
(9.54246e-09 -0.00191769 0)
(-1.03839e-10 -0.00191768 0)
(-9.96722e-09 -0.00191769 0)
(-1.26939e-08 -0.00191766 0)
(1.13761e-08 -0.00191767 0)
(8.8218e-09 -0.00191769 0)
(-6.95256e-11 -0.00191768 0)
(-9.15958e-09 -0.00191769 0)
(-1.16709e-08 -0.00191766 0)
(1.04242e-08 -0.00191767 0)
(8.11313e-09 -0.00191769 0)
(-3.47794e-11 -0.00191768 0)
(-8.36405e-09 -0.00191769 0)
(-1.06672e-08 -0.00191767 0)
(9.50076e-09 -0.00191767 0)
(7.42276e-09 -0.00191769 0)
(-1.50813e-13 -0.00191768 0)
(-7.58807e-09 -0.00191769 0)
(-9.69321e-09 -0.00191767 0)
(8.61683e-09 -0.00191767 0)
(6.75796e-09 -0.00191769 0)
(3.37193e-11 -0.00191768 0)
(-6.84025e-09 -0.00191769 0)
(-8.76054e-09 -0.00191767 0)
(7.78434e-09 -0.00191767 0)
(6.12678e-09 -0.00191769 0)
(6.61227e-11 -0.00191768 0)
(-6.13011e-09 -0.00191769 0)
(-7.88191e-09 -0.00191767 0)
(7.01561e-09 -0.00191767 0)
(5.53771e-09 -0.00191769 0)
(9.6318e-11 -0.00191768 0)
(-5.46768e-09 -0.00191769 0)
(-7.07045e-09 -0.00191767 0)
(6.32261e-09 -0.00191767 0)
(4.99924e-09 -0.00191769 0)
(1.23577e-10 -0.00191768 0)
(-4.86296e-09 -0.00191769 0)
(-6.33889e-09 -0.00191767 0)
(5.71607e-09 -0.00191767 0)
(4.5193e-09 -0.00191769 0)
(1.47242e-10 -0.00191768 0)
(-4.32525e-09 -0.00191769 0)
(-5.69866e-09 -0.00191767 0)
(5.20444e-09 -0.00191767 0)
(4.10462e-09 -0.00191769 0)
(1.66791e-10 -0.00191768 0)
(-3.86236e-09 -0.00191769 0)
(-5.15877e-09 -0.00191767 0)
(4.79283e-09 -0.00191767 0)
(3.76004e-09 -0.00191769 0)
(1.81909e-10 -0.00191768 0)
(-3.47982e-09 -0.00191769 0)
(-4.72466e-09 -0.00191767 0)
(4.48189e-09 -0.00191767 0)
(3.48785e-09 -0.00191769 0)
(1.92551e-10 -0.00191768 0)
(-3.17999e-09 -0.00191769 0)
(-4.39703e-09 -0.00191767 0)
(4.26695e-09 -0.00191767 0)
(3.28712e-09 -0.00191769 0)
(1.99006e-10 -0.00191768 0)
(-2.96137e-09 -0.00191769 0)
(-4.17092e-09 -0.00191767 0)
(4.13739e-09 -0.00191767 0)
(3.15339e-09 -0.00191769 0)
(2.01936e-10 -0.00191768 0)
(-2.81817e-09 -0.00191769 0)
(-4.035e-09 -0.00191767 0)
(4.07646e-09 -0.00191767 0)
(3.07851e-09 -0.00191769 0)
(2.02393e-10 -0.00191768 0)
(-2.74007e-09 -0.00191769 0)
(-3.97144e-09 -0.00191767 0)
(4.0613e-09 -0.00191767 0)
(3.0504e-09 -0.00191769 0)
(2.01791e-10 -0.00191767 0)
(-2.71207e-09 -0.00191768 0)
(-3.95586e-09 -0.00191766 0)
)
;

boundaryField
{
    BotWall
    {
        type            fixedValue;
        value           uniform (0 0 0);
    }
    FreeStream
    {
        type            zeroGradient;
    }
    FrontNBack
    {
        type            empty;
    }
    LeftSide
    {
        type            symmetryPlane;
    }
    RightSide
    {
        type            symmetryPlane;
    }
}


// ************************************************************************* //
