/*--------------------------------*- C++ -*----------------------------------*\
| =========                 |                                                 |
| \\      /  F ield         | OpenFOAM: The Open Source CFD Toolbox           |
|  \\    /   O peration     | Version:  2.4.0                                 |
|   \\  /    A nd           | Web:      www.OpenFOAM.org                      |
|    \\/     M anipulation  |                                                 |
\*---------------------------------------------------------------------------*/
FoamFile
{
    version     2.0;
    format      ascii;
    class       volScalarField;
    location    "0.011";
    object      p_rgh;
}
// * * * * * * * * * * * * * * * * * * * * * * * * * * * * * * * * * * * * * //

dimensions      [1 -1 -2 0 0 0 0];

internalField   nonuniform List<scalar> 
125
(
-0.00542539
-0.0054046
-0.00538372
-0.00536278
-0.00534175
-0.00532065
-0.00529948
-0.00527822
-0.00525689
-0.00523548
-0.00521398
-0.00519242
-0.00517077
-0.00514904
-0.00512723
-0.00510534
-0.00508337
-0.00506133
-0.0050392
-0.00501698
-0.00499469
-0.00497232
-0.00494986
-0.00492732
-0.0049047
-0.00488199
-0.0048592
-0.00483633
-0.00481338
-0.00479034
-0.00476721
-0.004744
-0.0047207
-0.00469732
-0.00467386
-0.0046503
-0.00462666
-0.00460294
-0.00457912
-0.00455522
-0.00453123
-0.00450715
-0.00448299
-0.00445873
-0.00443439
-0.00440996
-0.00438543
-0.00436082
-0.00433612
-0.00431132
-0.00428644
-0.00426146
-0.00423639
-0.00421123
-0.00418598
-0.00416063
-0.00413519
-0.00410966
-0.00408403
-0.00405831
-0.00403249
-0.00400658
-0.00398058
-0.00395448
-0.00392828
-0.00390199
-0.0038756
-0.00384911
-0.00382252
-0.00379584
-0.00376906
-0.00374218
-0.0037152
-0.00368813
-0.00366095
-0.00363367
-0.00360629
-0.00357882
-0.00355124
-0.00352356
-0.00349578
-0.00346789
-0.0034399
-0.00341182
-0.00338362
-0.00335533
-0.00332692
-0.00329842
-0.00326981
-0.00324109
-0.00321227
-0.00318334
-0.00315431
-0.00312517
-0.00309592
-0.00306657
-0.0030371
-0.00300753
-0.00297785
-0.00294806
-0.00291816
-0.00288815
-0.00285803
-0.0028278
-0.00279746
-0.002767
-0.00273644
-0.00270576
-0.00267497
-0.00264406
-0.00261305
-0.00258191
-0.00255066
-0.0025193
-0.00248782
-0.00245623
-0.00242452
-0.00239269
-0.00236075
-0.00232869
-0.00229651
-0.00226421
-0.0022318
-0.00219925
-0.00216651
)
;

boundaryField
{
    BotWall
    {
        type            fixedFluxPressure;
        gradient        nonuniform 0();
        value           nonuniform 0();
    }
    FreeStream
    {
        type            totalPressure;
        rho             rho;
        psi             none;
        gamma           1;
        p0              uniform 0;
        value           uniform -0.00215011;
    }
    FrontNBack
    {
        type            empty;
    }
    LeftSide
    {
        type            symmetryPlane;
    }
    RightSide
    {
        type            symmetryPlane;
    }
    procBoundary0to1
    {
        type            processor;
        value           uniform -0.00544611;
    }
    procBoundary0to2
    {
        type            processor;
        value           nonuniform List<scalar> 
75
(
-0.00428654
-0.00426158
-0.00423652
-0.00421138
-0.00418615
-0.00416082
-0.0041354
-0.00410989
-0.00408428
-0.00405858
-0.00403278
-0.00400689
-0.00398091
-0.00395483
-0.00392865
-0.00390238
-0.00387601
-0.00384954
-0.00382298
-0.00379632
-0.00376956
-0.0037427
-0.00371574
-0.00368869
-0.00366153
-0.00363428
-0.00360692
-0.00357947
-0.00355191
-0.00352425
-0.00349649
-0.00346863
-0.00344067
-0.0034126
-0.00338443
-0.00335616
-0.00332778
-0.0032993
-0.00327071
-0.00324202
-0.00321322
-0.00318432
-0.00315531
-0.00312619
-0.00309697
-0.00306764
-0.0030382
-0.00300865
-0.002979
-0.00294924
-0.00291936
-0.00288938
-0.00285929
-0.00282908
-0.00279877
-0.00276834
-0.0027378
-0.00270715
-0.00267639
-0.00264551
-0.00261452
-0.00258342
-0.0025522
-0.00252087
-0.00248942
-0.00245786
-0.00242618
-0.00239439
-0.00236247
-0.00233044
-0.0022983
-0.00226604
-0.00223367
-0.00220116
-0.00216836
)
;
    }
    procBoundary0to3
    {
        type            processor;
        value           nonuniform List<scalar> 
50
(
-0.00542485
-0.00540407
-0.00538322
-0.00536228
-0.00534127
-0.00532018
-0.00529902
-0.00527778
-0.00525646
-0.00523506
-0.00521358
-0.00519202
-0.00517039
-0.00514867
-0.00512688
-0.005105
-0.00508304
-0.00506101
-0.00503889
-0.00501669
-0.00499441
-0.00497205
-0.00494961
-0.00492708
-0.00490447
-0.00488178
-0.004859
-0.00483614
-0.0048132
-0.00479017
-0.00476706
-0.00474386
-0.00472058
-0.00469721
-0.00467375
-0.00465021
-0.00462658
-0.00460287
-0.00457907
-0.00455518
-0.0045312
-0.00450714
-0.00448299
-0.00445875
-0.00443441
-0.00440999
-0.00438548
-0.00436088
-0.00433619
-0.00431141
)
;
    }
}


// ************************************************************************* //
