/*--------------------------------*- C++ -*----------------------------------*\
| =========                 |                                                 |
| \\      /  F ield         | OpenFOAM: The Open Source CFD Toolbox           |
|  \\    /   O peration     | Version:  2.4.0                                 |
|   \\  /    A nd           | Web:      www.OpenFOAM.org                      |
|    \\/     M anipulation  |                                                 |
\*---------------------------------------------------------------------------*/
FoamFile
{
    version     2.0;
    format      ascii;
    class       volVectorField;
    location    "0.011";
    object      U;
}
// * * * * * * * * * * * * * * * * * * * * * * * * * * * * * * * * * * * * * //

dimensions      [0 1 -1 0 0 0 0];

internalField   nonuniform List<vector> 
125
(
(5.47431e-06 -0.0217123 0)
(5.46511e-06 -0.0217124 0)
(5.45619e-06 -0.0217124 0)
(5.44753e-06 -0.0217125 0)
(5.43913e-06 -0.0217125 0)
(5.431e-06 -0.0217126 0)
(5.4231e-06 -0.0217126 0)
(5.41545e-06 -0.0217127 0)
(5.40803e-06 -0.0217127 0)
(5.40084e-06 -0.0217128 0)
(5.39386e-06 -0.0217128 0)
(5.38708e-06 -0.0217129 0)
(5.38049e-06 -0.0217129 0)
(5.37408e-06 -0.021713 0)
(5.36784e-06 -0.021713 0)
(5.36175e-06 -0.0217131 0)
(5.35579e-06 -0.0217131 0)
(5.34995e-06 -0.0217132 0)
(5.34422e-06 -0.0217132 0)
(5.33856e-06 -0.0217133 0)
(5.33295e-06 -0.0217133 0)
(5.32738e-06 -0.0217133 0)
(5.32182e-06 -0.0217134 0)
(5.31624e-06 -0.0217134 0)
(5.31061e-06 -0.0217135 0)
(5.3049e-06 -0.0217135 0)
(5.29907e-06 -0.0217136 0)
(5.2931e-06 -0.0217136 0)
(5.28695e-06 -0.0217137 0)
(5.28057e-06 -0.0217137 0)
(5.27392e-06 -0.0217138 0)
(5.26696e-06 -0.0217138 0)
(5.25964e-06 -0.0217139 0)
(5.25192e-06 -0.0217139 0)
(5.24375e-06 -0.0217139 0)
(5.23506e-06 -0.021714 0)
(5.22582e-06 -0.021714 0)
(5.21595e-06 -0.0217141 0)
(5.20541e-06 -0.0217141 0)
(5.19413e-06 -0.0217142 0)
(5.18206e-06 -0.0217142 0)
(5.16912e-06 -0.0217143 0)
(5.15526e-06 -0.0217143 0)
(5.14042e-06 -0.0217144 0)
(5.12452e-06 -0.0217144 0)
(5.1075e-06 -0.0217144 0)
(5.08929e-06 -0.0217145 0)
(5.06983e-06 -0.0217145 0)
(5.04905e-06 -0.0217146 0)
(5.02689e-06 -0.0217146 0)
(5.00328e-06 -0.0217146 0)
(4.97815e-06 -0.0217147 0)
(4.95145e-06 -0.0217147 0)
(4.92311e-06 -0.0217148 0)
(4.89307e-06 -0.0217148 0)
(4.86127e-06 -0.0217149 0)
(4.82765e-06 -0.0217149 0)
(4.79217e-06 -0.0217149 0)
(4.75476e-06 -0.021715 0)
(4.71537e-06 -0.021715 0)
(4.67396e-06 -0.021715 0)
(4.63048e-06 -0.0217151 0)
(4.58488e-06 -0.0217151 0)
(4.53712e-06 -0.0217152 0)
(4.48717e-06 -0.0217152 0)
(4.43497e-06 -0.0217152 0)
(4.3805e-06 -0.0217153 0)
(4.32372e-06 -0.0217153 0)
(4.26459e-06 -0.0217153 0)
(4.20309e-06 -0.0217153 0)
(4.13919e-06 -0.0217154 0)
(4.07287e-06 -0.0217154 0)
(4.00409e-06 -0.0217154 0)
(3.93283e-06 -0.0217155 0)
(3.85909e-06 -0.0217155 0)
(3.78283e-06 -0.0217155 0)
(3.70407e-06 -0.0217155 0)
(3.62278e-06 -0.0217156 0)
(3.53897e-06 -0.0217156 0)
(3.45265e-06 -0.0217156 0)
(3.36384e-06 -0.0217156 0)
(3.27256e-06 -0.0217156 0)
(3.17886e-06 -0.0217157 0)
(3.08279e-06 -0.0217157 0)
(2.98441e-06 -0.0217157 0)
(2.88382e-06 -0.0217157 0)
(2.78112e-06 -0.0217157 0)
(2.67642e-06 -0.0217157 0)
(2.56989e-06 -0.0217157 0)
(2.46168e-06 -0.0217157 0)
(2.352e-06 -0.0217157 0)
(2.24107e-06 -0.0217157 0)
(2.12913e-06 -0.0217157 0)
(2.01646e-06 -0.0217157 0)
(1.90335e-06 -0.0217157 0)
(1.79014e-06 -0.0217157 0)
(1.67716e-06 -0.0217157 0)
(1.56479e-06 -0.0217157 0)
(1.45342e-06 -0.0217157 0)
(1.34343e-06 -0.0217157 0)
(1.23526e-06 -0.0217157 0)
(1.1293e-06 -0.0217157 0)
(1.02597e-06 -0.0217156 0)
(9.25697e-07 -0.0217156 0)
(8.28872e-07 -0.0217156 0)
(7.35879e-07 -0.0217156 0)
(6.47079e-07 -0.0217156 0)
(5.62805e-07 -0.0217155 0)
(4.83351e-07 -0.0217155 0)
(4.08974e-07 -0.0217155 0)
(3.39885e-07 -0.0217155 0)
(2.76244e-07 -0.0217154 0)
(2.18161e-07 -0.0217154 0)
(1.65688e-07 -0.0217154 0)
(1.18822e-07 -0.0217153 0)
(7.75019e-08 -0.0217153 0)
(4.16103e-08 -0.0217153 0)
(1.0975e-08 -0.0217152 0)
(-1.46284e-08 -0.0217152 0)
(-3.5472e-08 -0.0217152 0)
(-5.18708e-08 -0.0217151 0)
(-6.41782e-08 -0.0217151 0)
(-7.27901e-08 -0.021715 0)
(-7.81541e-08 -0.021715 0)
(-8.07278e-08 -0.021715 0)
)
;

boundaryField
{
    BotWall
    {
        type            fixedValue;
        value           nonuniform 0();
    }
    FreeStream
    {
        type            zeroGradient;
    }
    FrontNBack
    {
        type            empty;
    }
    LeftSide
    {
        type            symmetryPlane;
    }
    RightSide
    {
        type            symmetryPlane;
    }
    procBoundary0to1
    {
        type            processor;
        value           uniform (5.48379e-06 -0.0217123 0);
    }
    procBoundary0to2
    {
        type            processor;
        value           nonuniform List<vector> 
75
(
(2.94134e-06 -0.0217233 0)
(2.86707e-06 -0.0217233 0)
(2.79111e-06 -0.0217233 0)
(2.71338e-06 -0.0217233 0)
(2.63381e-06 -0.0217232 0)
(2.55234e-06 -0.0217232 0)
(2.4689e-06 -0.0217232 0)
(2.38344e-06 -0.0217232 0)
(2.2959e-06 -0.0217231 0)
(2.20621e-06 -0.0217231 0)
(2.11433e-06 -0.0217231 0)
(2.0202e-06 -0.0217231 0)
(1.92377e-06 -0.021723 0)
(1.825e-06 -0.021723 0)
(1.72385e-06 -0.021723 0)
(1.62025e-06 -0.021723 0)
(1.51419e-06 -0.021723 0)
(1.40561e-06 -0.0217229 0)
(1.29448e-06 -0.0217229 0)
(1.18076e-06 -0.0217229 0)
(1.06441e-06 -0.0217229 0)
(9.45417e-07 -0.0217229 0)
(8.23734e-07 -0.0217229 0)
(6.99337e-07 -0.0217228 0)
(5.72204e-07 -0.0217228 0)
(4.42313e-07 -0.0217228 0)
(3.0965e-07 -0.0217228 0)
(1.74206e-07 -0.0217228 0)
(3.59805e-08 -0.0217228 0)
(-1.05018e-07 -0.0217228 0)
(-2.4877e-07 -0.0217228 0)
(-3.95243e-07 -0.0217228 0)
(-5.44388e-07 -0.0217228 0)
(-6.96138e-07 -0.0217228 0)
(-8.50408e-07 -0.0217228 0)
(-1.00709e-06 -0.0217228 0)
(-1.16604e-06 -0.0217228 0)
(-1.3271e-06 -0.0217228 0)
(-1.49009e-06 -0.0217228 0)
(-1.65476e-06 -0.0217228 0)
(-1.82088e-06 -0.0217228 0)
(-1.98813e-06 -0.0217228 0)
(-2.1562e-06 -0.0217228 0)
(-2.32471e-06 -0.0217228 0)
(-2.49327e-06 -0.0217228 0)
(-2.66145e-06 -0.0217228 0)
(-2.82877e-06 -0.0217228 0)
(-2.99475e-06 -0.0217229 0)
(-3.15886e-06 -0.0217229 0)
(-3.32058e-06 -0.0217229 0)
(-3.47934e-06 -0.0217229 0)
(-3.63459e-06 -0.0217229 0)
(-3.78577e-06 -0.021723 0)
(-3.93232e-06 -0.021723 0)
(-4.0737e-06 -0.021723 0)
(-4.2094e-06 -0.0217231 0)
(-4.33894e-06 -0.0217231 0)
(-4.46186e-06 -0.0217231 0)
(-4.57777e-06 -0.0217231 0)
(-4.68633e-06 -0.0217232 0)
(-4.78725e-06 -0.0217232 0)
(-4.88031e-06 -0.0217232 0)
(-4.96538e-06 -0.0217233 0)
(-5.04238e-06 -0.0217233 0)
(-5.11131e-06 -0.0217234 0)
(-5.17225e-06 -0.0217234 0)
(-5.22537e-06 -0.0217234 0)
(-5.2709e-06 -0.0217235 0)
(-5.30913e-06 -0.0217235 0)
(-5.34042e-06 -0.0217236 0)
(-5.36521e-06 -0.0217236 0)
(-5.38395e-06 -0.0217236 0)
(-5.39718e-06 -0.0217237 0)
(-5.40549e-06 -0.0217238 0)
(-5.40948e-06 -0.0217238 0)
)
;
    }
    procBoundary0to3
    {
        type            processor;
        value           nonuniform List<vector> 
50
(
(5.88824e-06 -0.021725 0)
(5.82702e-06 -0.0217249 0)
(5.7662e-06 -0.0217249 0)
(5.70579e-06 -0.0217248 0)
(5.64576e-06 -0.0217248 0)
(5.58613e-06 -0.0217248 0)
(5.52688e-06 -0.0217247 0)
(5.468e-06 -0.0217247 0)
(5.40949e-06 -0.0217247 0)
(5.35133e-06 -0.0217246 0)
(5.29353e-06 -0.0217246 0)
(5.23606e-06 -0.0217246 0)
(5.17891e-06 -0.0217245 0)
(5.12208e-06 -0.0217245 0)
(5.06555e-06 -0.0217245 0)
(5.00929e-06 -0.0217244 0)
(4.9533e-06 -0.0217244 0)
(4.89756e-06 -0.0217244 0)
(4.84203e-06 -0.0217243 0)
(4.78671e-06 -0.0217243 0)
(4.73156e-06 -0.0217243 0)
(4.67656e-06 -0.0217242 0)
(4.62168e-06 -0.0217242 0)
(4.56688e-06 -0.0217242 0)
(4.51214e-06 -0.0217241 0)
(4.45742e-06 -0.0217241 0)
(4.40267e-06 -0.0217241 0)
(4.34787e-06 -0.021724 0)
(4.29296e-06 -0.021724 0)
(4.23789e-06 -0.021724 0)
(4.18263e-06 -0.0217239 0)
(4.12712e-06 -0.0217239 0)
(4.07131e-06 -0.0217239 0)
(4.01514e-06 -0.0217239 0)
(3.95854e-06 -0.0217238 0)
(3.90148e-06 -0.0217238 0)
(3.84386e-06 -0.0217238 0)
(3.78565e-06 -0.0217237 0)
(3.72676e-06 -0.0217237 0)
(3.66712e-06 -0.0217237 0)
(3.60668e-06 -0.0217236 0)
(3.54535e-06 -0.0217236 0)
(3.48306e-06 -0.0217236 0)
(3.41975e-06 -0.0217235 0)
(3.35532e-06 -0.0217235 0)
(3.28972e-06 -0.0217235 0)
(3.22286e-06 -0.0217235 0)
(3.15466e-06 -0.0217234 0)
(3.08506e-06 -0.0217234 0)
(3.01398e-06 -0.0217234 0)
)
;
    }
}


// ************************************************************************* //
