/*--------------------------------*- C++ -*----------------------------------*\
| =========                 |                                                 |
| \\      /  F ield         | OpenFOAM: The Open Source CFD Toolbox           |
|  \\    /   O peration     | Version:  2.4.0                                 |
|   \\  /    A nd           | Web:      www.OpenFOAM.org                      |
|    \\/     M anipulation  |                                                 |
\*---------------------------------------------------------------------------*/
FoamFile
{
    version     2.0;
    format      ascii;
    class       volScalarField;
    location    "4.5";
    object      p;
}
// * * * * * * * * * * * * * * * * * * * * * * * * * * * * * * * * * * * * * //

dimensions      [1 -1 -2 0 0 0 0];

internalField   nonuniform List<scalar> 
8000
(
-1.65027
-1.7366
-1.82834
-1.91023
-1.96672
-1.96081
-1.92202
-2.26897
-3.97733
-6.30072
-1.09395
-0.468136
-0.462746
-0.463316
-0.463786
-0.463749
-0.463811
-0.464091
-0.464562
-0.465175
-0.465931
-0.466809
-0.467812
-0.46893
-0.47008
-0.467365
-0.477642
-0.478758
-0.479982
-0.481256
-0.482569
-0.483903
-0.485257
-0.485306
-0.487238
-0.488626
-0.490015
-0.491393
-0.492826
-0.494219
-0.495552
-0.497238
-0.498725
-0.500227
-0.501745
-0.503279
-0.504826
-0.506388
-0.507966
-0.509567
-3.4415
-3.54921
-3.66324
-3.74599
-3.76622
-3.76847
-4.14857
-5.71155
-7.22951
-0.721447
-0.480512
-0.477666
-0.477962
-0.47816
-0.478271
-0.478537
-0.479044
-0.479822
-0.480885
-0.48224
-0.483876
-0.485767
-0.487895
-0.490232
-0.492735
-0.487495
-0.490266
-0.49341
-0.495953
-0.49835
-0.500819
-0.503327
-0.505819
-0.508297
-0.510613
-0.512897
-0.515604
-0.517873
-0.520124
-0.522358
-0.524574
-0.526767
-0.528945
-0.531108
-0.53326
-0.535399
-0.537527
-0.539647
-0.541758
-0.543863
-5.37298
-5.46893
-5.54477
-5.51933
-5.42956
-6.00766
-9.1204
-13.7287
-3.46848
-0.568118
-0.559787
-0.486822
-0.502728
-0.501448
-0.500922
-0.501098
-0.501384
-0.502194
-0.503346
-0.50468
-0.506166
-0.507828
-0.509676
-0.511715
-0.513931
-0.516283
-0.518785
-0.521336
-0.523865
-0.527404
-0.530188
-0.532797
-0.535348
-0.537945
-0.540575
-0.543205
-0.545782
-0.548395
-0.550928
-0.553423
-0.556216
-0.55881
-0.561401
-0.563995
-0.566588
-0.56918
-0.571767
-0.574353
-0.576937
-0.579515
-12.7934
-12.6649
-12.5541
-12.4814
-12.4236
-12.3549
-12.3869
-13.0347
-14.9235
-14.5251
-6.15472
-3.29572
-0.645099
-0.566145
-0.531906
-0.520336
-0.511211
-0.507852
-0.50714
-0.507756
-0.509028
-0.51072
-0.512533
-0.515353
-0.518855
-0.522836
-0.527088
-0.531586
-0.536249
-0.540923
-0.545847
-0.548119
-0.552843
-0.557263
-0.561556
-0.56586
-0.569995
-0.57429
-0.578502
-0.581491
-0.586504
-0.590223
-0.593904
-0.597515
-0.60105
-0.604499
-0.607881
-0.611224
-0.614537
-0.617769
-7.70574
-7.52379
-7.32831
-7.15245
-6.99343
-6.83895
-6.65991
-6.47429
-6.48168
-7.16151
-8.71992
-9.87274
-16.2855
-13.3023
-2.9691
-1.95892
-0.723274
-0.672864
-0.681554
-0.639127
-0.60443
-0.593386
-0.586995
-0.576461
-0.567433
-0.563727
-0.565022
-0.568509
-0.571437
-0.574049
-0.577293
-0.581422
-0.586252
-0.585857
-0.593289
-0.599212
-0.604323
-0.608962
-0.614162
-0.619421
-0.618911
-0.626679
-0.63136
-0.635085
-0.639894
-0.644465
-0.648727
-0.653446
-0.657488
-0.661523
-0.522951
-0.504003
-0.463859
-0.405012
-0.329293
-0.236803
-0.125174
0.00992874
0.167662
0.310673
0.359178
0.417365
0.277769
0.190596
0.324598
0.544852
-8.60916
-8.8278
-8.1452
-7.87564
-4.40213
-1.31135
-0.686889
-0.623959
-0.637071
-0.64281
-0.661389
-0.684756
-0.692878
-0.684507
-0.679372
-0.685178
-0.691668
-0.69351
-0.691145
-0.694094
-0.701465
-0.70504
-0.706426
-0.708694
-0.712104
-0.710908
-0.718481
-0.721317
-0.723887
-0.726418
-0.729037
-0.731707
-0.730808
-0.735025
-1.9668
-1.94254
-1.91957
-1.89697
-1.87274
-1.84658
-1.81859
-1.78918
-1.75819
-1.72611
-1.6924
-1.65374
-1.59835
-1.53325
-1.4814
-1.41787
-1.40829
-1.37178
-1.27992
-1.10952
-1.0778
-1.19835
-9.99844
-7.86261
-7.47372
-8.35229
-5.55248
-1.46052
-0.510013
-0.42687
-0.464246
-0.539997
-0.777266
-0.7938
-0.803758
-0.822117
-0.835876
-0.839446
-0.838571
-0.837204
-0.839004
-0.840875
-0.841565
-0.841253
-0.840619
-0.840145
-0.839986
-0.834677
-0.836534
-0.836878
1.28678
1.30229
1.32283
1.34384
1.36454
1.385
1.40545
1.42564
1.44561
1.46495
1.48384
1.50177
1.51942
1.53597
1.55163
1.56621
1.58655
1.61575
1.66911
1.74983
1.84624
1.98268
2.11372
2.25027
2.27975
2.10247
1.74599
-1.2212
-8.77008
-9.62386
-8.21463
0.471301
0.50126
0.669402
-0.27179
-0.785284
-0.923441
-0.889353
-0.878684
-0.893568
-0.909388
-0.916903
-0.918713
-0.918208
-0.916892
-0.915512
-0.914595
-0.914282
-0.913996
-0.913473
1.99376
1.98155
1.96896
1.9599
1.95479
1.95321
1.95503
1.96012
1.96857
1.98022
1.99524
2.01337
2.0349
2.05945
2.08742
2.11828
2.15269
2.19004
2.23122
2.27503
2.32224
2.37224
2.4328
2.50649
2.60397
2.71396
2.83114
2.98496
3.07043
2.90777
2.36397
-1.68868
-6.96605
-7.81177
-7.80758
-2.60055
-0.142539
0.746943
-0.109219
-0.823145
-0.948041
-0.916688
-0.916568
-0.932127
-0.944379
-0.950418
-0.95354
-0.955093
-0.955588
-0.955457
3.31019
3.29582
3.28222
3.27177
3.26409
3.25875
3.25563
3.25471
3.25598
3.25944
3.26509
3.2729
3.2829
3.29507
3.30947
3.32606
3.34495
3.36604
3.3895
3.41514
3.4431
3.47301
3.50515
3.53904
3.5751
3.61253
3.65264
3.6972
3.74924
3.78944
3.8178
3.86865
3.92746
3.79959
3.21764
-1.36102
-1.97917
-6.29191
-6.97643
-3.58722
-0.5508
0.414461
-0.441541
-0.920338
-0.960058
-0.961179
-0.968219
-0.973014
-0.975608
-0.977111
3.49871
3.48515
3.47076
3.45874
3.44921
3.44187
3.43658
3.43335
3.43219
3.43312
3.43611
3.44117
3.44828
3.45746
3.46866
3.48191
3.49715
3.5144
3.5336
3.55478
3.57782
3.60281
3.62957
3.6582
3.68845
3.72043
3.75371
3.78842
3.82409
3.86127
3.90057
3.94402
3.9881
4.01706
4.04579
4.07499
4.14767
4.14359
3.86787
-0.197176
-2.41359
-6.47488
-5.50782
-1.80825
-0.42202
-0.672044
-0.937045
-0.967013
-0.977109
-0.980589
3.86096
3.8442
3.82683
3.81185
3.7991
3.78815
3.77889
3.77131
3.76544
3.76127
3.75879
3.75797
3.75884
3.76134
3.7655
3.77127
3.77867
3.78764
3.7982
3.81029
3.82394
3.83906
3.85571
3.87377
3.89332
3.91421
3.93656
3.96019
3.98524
4.01152
4.03923
4.06802
4.09818
4.12977
4.16406
4.20167
4.23977
4.26673
4.29223
4.31369
4.36745
4.2864
2.32414
-0.798434
-5.45251
-3.51515
-1.58297
-0.977594
-0.944297
-0.941652
3.72482
3.70225
3.67834
3.65747
3.63953
3.62398
3.61063
3.59944
3.59044
3.58361
3.57893
3.57639
3.57599
3.57771
3.58154
3.58748
3.59552
3.60566
3.61791
3.63225
3.6487
3.66726
3.68793
3.71073
3.73566
3.76273
3.79197
3.82338
3.857
3.89284
3.93093
3.97127
4.0139
4.05884
4.10617
4.15585
4.20802
4.26279
4.32079
4.38189
4.44347
4.50315
4.56018
4.68492
4.76739
2.59977
-1.67499
-2.62695
-1.61077
-1.00279
3.35434
3.33285
3.31032
3.29059
3.27346
3.25836
3.24514
3.23376
3.22424
3.21656
3.21071
3.20666
3.20443
3.20398
3.20534
3.20848
3.21341
3.22013
3.22866
3.23899
3.25114
3.26513
3.28096
3.29866
3.31824
3.33975
3.36319
3.38862
3.41605
3.44552
3.47708
3.51077
3.54665
3.58477
3.62518
3.66797
3.71317
3.7609
3.81116
3.86422
3.9202
3.98002
4.04279
4.10253
4.15125
4.21841
4.24275
3.31119
0.881276
-0.393803
2.47094
2.45661
2.44125
2.4277
2.41597
2.40571
2.39679
2.38921
2.38296
2.37804
2.37444
2.37215
2.37116
2.37147
2.37308
2.37596
2.38013
2.38557
2.39229
2.40027
2.40952
2.42003
2.43181
2.44484
2.45913
2.47468
2.49148
2.50953
2.52883
2.54939
2.5712
2.59426
2.61856
2.64412
2.67092
2.69897
2.72824
2.75878
2.79053
2.82353
2.85773
2.89317
2.92985
2.96809
3.00796
3.04741
3.0796
3.10525
3.06756
2.33449
1.5773
1.57246
1.56763
1.56339
1.55959
1.55609
1.55286
1.54991
1.54724
1.54485
1.54276
1.54096
1.53946
1.53827
1.5374
1.53685
1.53663
1.53675
1.53721
1.53802
1.53917
1.54067
1.54253
1.54473
1.54728
1.55016
1.55338
1.55693
1.56078
1.56493
1.56935
1.57404
1.57896
1.58408
1.58939
1.59483
1.60038
1.606
1.61163
1.61724
1.62275
1.62812
1.63327
1.63817
1.64261
1.64642
1.64989
1.68752
1.68267
1.71199
0.306414
0.309457
0.312273
0.314894
0.317528
0.320229
0.322981
0.325766
0.32858
0.331425
0.33431
0.337246
0.340245
0.343322
0.346492
0.349774
0.353185
0.356741
0.36046
0.36436
0.368456
0.372765
0.377301
0.382079
0.38711
0.392408
0.397982
0.403842
0.409995
0.416449
0.423207
0.430276
0.437655
0.445349
0.453354
0.46167
0.470291
0.479218
0.48844
0.497955
0.507749
0.517822
0.528153
0.538727
0.549473
0.56041
0.571938
0.700113
0.677437
0.771717
-0.399538
-0.375344
-0.349546
-0.328969
-0.313706
-0.302602
-0.294905
-0.290183
-0.288094
-0.288325
-0.29058
-0.294594
-0.300127
-0.306966
-0.314914
-0.323797
-0.333458
-0.343751
-0.35455
-0.365736
-0.377205
-0.388863
-0.400624
-0.412413
-0.424162
-0.435809
-0.447302
-0.458592
-0.469639
-0.480408
-0.490866
-0.500988
-0.510754
-0.520146
-0.529151
-0.537761
-0.54597
-0.553778
-0.561186
-0.568199
-0.574823
-0.581072
-0.586983
-0.592667
-0.598121
-0.602728
-0.604616
-0.59529
-0.609314
-0.672463
-2.0595
-1.99724
-1.93939
-1.895
-1.86094
-1.83424
-1.81348
-1.79786
-1.78669
-1.77935
-1.77527
-1.77395
-1.77499
-1.778
-1.78267
-1.78873
-1.79592
-1.80404
-1.81291
-1.82236
-1.83226
-1.84248
-1.85291
-1.86347
-1.87408
-1.88466
-1.89516
-1.90554
-1.91574
-1.92573
-1.9355
-1.94501
-1.95425
-1.96321
-1.97188
-1.98026
-1.98836
-1.99617
-2.00372
-2.01101
-2.01806
-2.02491
-2.03158
-2.03808
-2.04429
-2.05008
-2.05627
-1.9561
-1.97555
-1.93438
1.69191
1.30794
0.922716
0.591054
0.301647
0.0407716
-0.197448
-0.415631
-0.615858
-0.800118
-0.970196
-1.12762
-1.27369
-1.40951
-1.53604
-1.65409
-1.7644
-1.86758
-1.96416
-2.05464
-2.13943
-2.21889
-2.29336
-2.36313
-2.42846
-2.48958
-2.5467
-2.60001
-2.64968
-2.69586
-2.73867
-2.77825
-2.8147
-2.84811
-2.87855
-2.90611
-2.93083
-2.95276
-2.97193
-2.98834
-3.00201
-3.01294
-3.02112
-3.02638
-3.02812
-3.02582
-3.02238
-3.03073
-3.06222
-3.03005
-0.5112
-0.511605
-0.513446
-0.515082
-0.516723
-0.518384
-0.520063
-0.521753
-0.52336
-0.525065
-0.526987
-0.528727
-0.530343
-0.532721
-0.534425
-0.536315
-0.538165
-0.538944
-0.541671
-0.543512
-0.545383
-0.547294
-0.549223
-0.550999
-0.553265
-0.555214
-0.557209
-0.559227
-0.561268
-0.562602
-0.565633
-0.567693
-0.569781
-0.571907
-0.574065
-0.576035
-0.577696
-0.581192
-0.583381
-0.585602
-0.58784
-0.590096
-0.59237
-0.594668
-0.59699
-0.599326
-0.601691
-0.604125
-0.603753
-0.606154
-0.545974
-0.548093
-0.549296
-0.551955
-0.554034
-0.556013
-0.55815
-0.560295
-0.562324
-0.564463
-0.566689
-0.568892
-0.570778
-0.573465
-0.575456
-0.57783
-0.580122
-0.581494
-0.58429
-0.586549
-0.588778
-0.591093
-0.593433
-0.595555
-0.598196
-0.6005
-0.602865
-0.605254
-0.607671
-0.60862
-0.612598
-0.614972
-0.617371
-0.619798
-0.622258
-0.624687
-0.625863
-0.631316
-0.633712
-0.63614
-0.638569
-0.640996
-0.643417
-0.64583
-0.648233
-0.650649
-0.653122
-0.65547
-0.657811
-0.662521
-0.582091
-0.584675
-0.587267
-0.589067
-0.592015
-0.594561
-0.596902
-0.599556
-0.60195
-0.604649
-0.607206
-0.609812
-0.612511
-0.615108
-0.61771
-0.620421
-0.623093
-0.625775
-0.628374
-0.631946
-0.634603
-0.63726
-0.640013
-0.642727
-0.645496
-0.648143
-0.65095
-0.653796
-0.656678
-0.658729
-0.661953
-0.664769
-0.667465
-0.670436
-0.673409
-0.676381
-0.678607
-0.684437
-0.687344
-0.690324
-0.693343
-0.696388
-0.699459
-0.702583
-0.705788
-0.709
-0.710636
-0.713739
-0.717711
-0.715694
-0.620968
-0.624149
-0.627294
-0.630422
-0.633519
-0.636573
-0.639633
-0.642683
-0.645484
-0.64852
-0.651678
-0.65471
-0.657741
-0.660772
-0.663844
-0.666909
-0.669992
-0.673098
-0.676225
-0.679285
-0.682773
-0.685875
-0.688988
-0.692132
-0.695308
-0.6985
-0.701701
-0.704962
-0.708251
-0.711575
-0.714302
-0.717728
-0.721003
-0.723602
-0.727367
-0.730812
-0.732763
-0.736262
-0.739554
-0.742815
-0.746118
-0.749425
-0.752711
-0.756012
-0.759351
-0.762522
-0.765477
-0.771506
-0.773173
-0.777115
-0.665496
-0.669427
-0.67322
-0.676956
-0.680643
-0.684286
-0.687214
-0.690965
-0.694006
-0.697897
-0.701105
-0.704688
-0.708073
-0.711458
-0.714851
-0.718244
-0.721642
-0.725048
-0.728469
-0.731912
-0.735351
-0.738699
-0.742149
-0.745595
-0.749009
-0.752467
-0.755936
-0.759381
-0.762958
-0.766523
-0.77012
-0.773702
-0.777213
-0.781317
-0.783972
-0.787881
-0.791603
-0.795333
-0.799016
-0.803163
-0.806821
-0.810484
-0.814151
-0.817935
-0.821817
-0.825742
-0.829697
-0.833587
-0.838456
-0.839712
-0.737612
-0.740187
-0.742735
-0.745559
-0.748149
-0.750985
-0.754083
-0.756936
-0.75977
-0.762753
-0.765725
-0.76847
-0.771467
-0.774464
-0.777459
-0.780524
-0.783631
-0.786769
-0.78994
-0.793158
-0.796422
-0.799198
-0.802907
-0.806281
-0.81005
-0.813415
-0.816869
-0.820335
-0.823407
-0.827097
-0.830751
-0.834427
-0.838138
-0.841504
-0.845479
-0.84873
-0.852683
-0.856585
-0.860521
-0.864442
-0.868339
-0.87306
-0.876919
-0.880852
-0.884377
-0.888458
-0.892925
-0.897017
-0.899792
-0.905111
-0.83706
-0.837056
-0.837473
-0.83818
-0.834534
-0.837016
-0.838328
-0.839373
-0.840674
-0.842158
-0.843804
-0.845534
-0.847392
-0.849372
-0.851128
-0.853279
-0.855489
-0.857762
-0.860184
-0.862723
-0.86478
-0.867688
-0.870457
-0.87329
-0.876336
-0.879387
-0.881858
-0.885018
-0.88823
-0.890983
-0.89474
-0.898174
-0.901661
-0.905707
-0.909169
-0.912851
-0.916655
-0.920488
-0.924373
-0.928291
-0.932299
-0.936375
-0.940478
-0.943896
-0.948076
-0.952304
-0.956429
-0.960651
-0.965155
-0.969532
-0.912268
-0.911475
-0.910696
-0.910102
-0.909869
-0.910636
-0.910717
-0.910862
-0.911171
-0.911668
-0.912343
-0.913189
-0.914209
-0.915397
-0.916748
-0.918265
-0.919925
-0.921569
-0.923561
-0.925508
-0.927538
-0.929816
-0.932402
-0.934843
-0.937419
-0.94032
-0.942017
-0.945149
-0.948248
-0.950954
-0.954166
-0.957503
-0.960455
-0.963961
-0.967534
-0.971014
-0.97478
-0.978662
-0.981914
-0.986412
-0.99015
-0.994312
-0.998675
-1.003
-1.00742
-1.01184
-1.01631
-1.02085
-1.02543
-1.03004
-0.955067
-0.954682
-0.954459
-0.954421
-0.954511
-0.954667
-0.954869
-0.955113
-0.955473
-0.95599
-0.956669
-0.957509
-0.958514
-0.959681
-0.961006
-0.962491
-0.964122
-0.965902
-0.967839
-0.969918
-0.970079
-0.974724
-0.977004
-0.979456
-0.982047
-0.984754
-0.987566
-0.990097
-0.993199
-0.996259
-0.999407
-1.00269
-1.00613
-1.00964
-1.0131
-1.01675
-1.02089
-1.024
-1.02808
-1.03219
-1.03542
-1.04079
-1.04505
-1.04943
-1.05405
-1.05863
-1.06329
-1.06801
-1.07282
-1.07763
-0.977902
-0.978183
-0.978128
-0.977896
-0.977619
-0.977377
-0.977214
-0.977205
-0.977378
-0.977759
-0.978359
-0.979182
-0.980233
-0.981508
-0.983
-0.9847
-0.986597
-0.988679
-0.990943
-0.993364
-0.995933
-0.994136
-0.999928
-1.0029
-1.00593
-1.00907
-1.01232
-1.01568
-1.01912
-1.02225
-1.0261
-1.02973
-1.03314
-1.03694
-1.04091
-1.04423
-1.04904
-1.05267
-1.05679
-1.061
-1.06524
-1.06954
-1.07476
-1.07922
-1.08374
-1.08839
-1.09312
-1.09793
-1.10285
-1.10785
-0.981831
-0.982795
-0.983566
-0.983988
-0.984089
-0.983959
-0.983695
-0.983396
-0.983143
-0.983004
-0.983069
-0.983363
-0.983914
-0.984735
-0.985829
-0.987191
-0.988816
-0.990695
-0.992796
-0.994943
-0.997057
-0.999339
-1.0023
-1.00707
-1.01062
-1.01412
-1.0176
-1.02122
-1.02495
-1.02878
-1.03262
-1.0335
-1.04313
-1.0472
-1.05137
-1.05561
-1.05991
-1.06426
-1.06869
-1.07317
-1.07771
-1.08233
-1.08701
-1.09167
-1.09632
-1.10184
-1.10672
-1.11154
-1.11652
-1.12156
-0.966964
-0.985542
-0.990931
-0.991827
-0.992101
-0.992168
-0.99208
-0.991866
-0.991549
-0.991175
-0.990807
-0.990496
-0.990264
-0.990168
-0.990271
-0.990589
-0.991144
-0.991886
-0.992477
-0.993114
-0.993918
-0.996064
-0.999027
-1.00193
-1.00474
-1.00764
-1.01073
-1.01404
-1.01753
-1.021
-1.02434
-1.0277
-1.03181
-1.03988
-1.04465
-1.04924
-1.05379
-1.05842
-1.06316
-1.06796
-1.07283
-1.07777
-1.08277
-1.08781
-1.0929
-1.09805
-1.10324
-1.10842
-1.11263
-1.11794
-0.904651
-0.953528
-0.987035
-0.999852
-1.00331
-1.00401
-1.00411
-1.00407
-1.00398
-1.00388
-1.00381
-1.00376
-1.00372
-1.00367
-1.00363
-1.00363
-1.00369
-1.0038
-1.00398
-1.00434
-1.00446
-1.00499
-1.00468
-1.00609
-1.00703
-1.00815
-1.00955
-1.01101
-1.01241
-1.01343
-1.01461
-1.01771
-1.02394
-1.02825
-1.03214
-1.0358
-1.0396
-1.04363
-1.04784
-1.0522
-1.05672
-1.06137
-1.06616
-1.07107
-1.07608
-1.0812
-1.08642
-1.09174
-1.09711
-1.10233
-0.576062
-0.714753
-0.925926
-1.00731
-1.02003
-1.02107
-1.02126
-1.02141
-1.02151
-1.02153
-1.02161
-1.02164
-1.02165
-1.02162
-1.02158
-1.02149
-1.02137
-1.02109
-1.02085
-1.02055
-1.02014
-1.01975
-1.01908
-1.01802
-1.01653
-1.01501
-1.01441
-1.01427
-1.01506
-1.01638
-1.01772
-1.01892
-1.02013
-1.02153
-1.02311
-1.02496
-1.02709
-1.0295
-1.0322
-1.03518
-1.03844
-1.04198
-1.04578
-1.04982
-1.05408
-1.05857
-1.06326
-1.06783
-1.07207
-1.07636
1.45121
0.358037
-0.687398
-1.00861
-1.03699
-1.03781
-1.0378
-1.03694
-1.03657
-1.03284
-1.03609
-1.03604
-1.03583
-1.03557
-1.03534
-1.03501
-1.03475
-1.03426
-1.03354
-1.03279
-1.03246
-1.03431
-1.03331
-1.0322
-1.03135
-1.0307
-1.0303
-1.03051
-1.03103
-1.03137
-1.03145
-1.03153
-1.03175
-1.03212
-1.03263
-1.03331
-1.03416
-1.0352
-1.03644
-1.03789
-1.0396
-1.04147
-1.0435
-1.04542
-1.04732
-1.0498
-1.05297
-1.05661
-1.06035
-1.06487
1.65763
1.05668
-0.525842
-1.03448
-1.06505
-1.06595
-1.06594
-1.06581
-1.0652
-1.06581
-1.06565
-1.06534
-1.06505
-1.06475
-1.06443
-1.06424
-1.06394
-1.06326
-1.06271
-1.06205
-1.06154
-1.06092
-1.06029
-1.05964
-1.05905
-1.05863
-1.05788
-1.05718
-1.05685
-1.05692
-1.05744
-1.05813
-1.05882
-1.05958
-1.06055
-1.06177
-1.06321
-1.06472
-1.06298
-1.06605
-1.06877
-1.07126
-1.0737
-1.07649
-1.07751
-1.0811
-1.08469
-1.08771
-1.09072
-1.0938
0.751943
0.390061
-0.767588
-1.08832
-1.10262
-1.10275
-1.10256
-1.10237
-1.10217
-1.10205
-1.10199
-1.10188
-1.10168
-1.10172
-1.10194
-1.10228
-1.10294
-1.10358
-1.10417
-1.10483
-1.10557
-1.10582
-1.10736
-1.10824
-1.10934
-1.11039
-1.10435
-1.10793
-1.11054
-1.11194
-1.11341
-1.11528
-1.1165
-1.1186
-1.12014
-1.12169
-1.12327
-1.12483
-1.12623
-1.12694
-1.12871
-1.13068
-1.13262
-1.13447
-1.13637
-1.13839
-1.14042
-1.14246
-1.1445
-1.14654
-0.782229
-0.80082
-1.05696
-1.13356
-1.13674
-1.13681
-1.13679
-1.13668
-1.1367
-1.13687
-1.13709
-1.13605
-1.13756
-1.13808
-1.13778
-1.13984
-1.14009
-1.14225
-1.14344
-1.14583
-1.14737
-1.14916
-1.15112
-1.15257
-1.1554
-1.15777
-1.1577
-1.16262
-1.16399
-1.16706
-1.17011
-1.16902
-1.1746
-1.17755
-1.17978
-1.1838
-1.18654
-1.1874
-1.19098
-1.19363
-1.19617
-1.19856
-1.2007
-1.20293
-1.20502
-1.20681
-1.20825
-1.20947
-1.21072
-1.21199
-1.56897
-1.16715
-1.1544
-1.15345
-1.15318
-1.15328
-1.15309
-1.15315
-1.15341
-1.1526
-1.15289
-1.15318
-1.1528
-1.15517
-1.15562
-1.15744
-1.15813
-1.1589
-1.16006
-1.16101
-1.16209
-1.16328
-1.16584
-1.16681
-1.17026
-1.17198
-1.17334
-1.17565
-1.1771
-1.18043
-1.1809
-1.18376
-1.18641
-1.18727
-1.19156
-1.19457
-1.19649
-1.20036
-1.20333
-1.20564
-1.20855
-1.21147
-1.21406
-1.21561
-1.21851
-1.22089
-1.22182
-1.22379
-1.2257
-1.22698
-1.41734
-1.18978
-1.18378
-1.18358
-1.18361
-1.18369
-1.18372
-1.18385
-1.18398
-1.18383
-1.18437
-1.1835
-1.18417
-1.18441
-1.18507
-1.18579
-1.18626
-1.18689
-1.18663
-1.1875
-1.18817
-1.18877
-1.18944
-1.18995
-1.19102
-1.19193
-1.19299
-1.19425
-1.19439
-1.19538
-1.1983
-1.19899
-1.19954
-1.20078
-1.20218
-1.20281
-1.20193
-1.20713
-1.20835
-1.21415
-1.21342
-1.21467
-1.2156
-1.21619
-1.21699
-1.21805
-1.21909
-1.21967
-1.22026
-1.22328
-0.608105
-0.609423
-0.610802
-0.612204
-0.613612
-0.615026
-0.616445
-0.617871
-0.619305
-0.620745
-0.622194
-0.623651
-0.625117
-0.626591
-0.62807
-0.629565
-0.631284
-0.633087
-0.634668
-0.636478
-0.640159
-0.641643
-0.642811
-0.644354
-0.646391
-0.648088
-0.647149
-0.64888
-0.65047
-0.652015
-0.65358
-0.655186
-0.656801
-0.658421
-0.660048
-0.66168
-0.66332
-0.664968
-0.666626
-0.668294
-0.669974
-0.671666
-0.673361
-0.675082
-0.676863
-0.674856
-0.676254
-0.678054
-0.679737
-0.681445
-0.683156
-0.684966
-0.686853
-0.688677
-0.690469
-0.695106
-0.696747
-0.698404
-0.700096
-0.701794
-0.703498
-0.705208
-0.706918
-0.70863
-0.71034
-0.712052
-0.713827
-0.715687
-0.707763
-0.719683
-0.721349
-0.723053
-0.724815
-0.726588
-0.728363
-0.730141
-0.731922
-0.733708
-0.735497
-0.737289
-0.739086
-0.740885
-0.742689
-0.744498
-0.746311
-0.748128
-0.74995
-0.751776
-0.753607
-0.755443
-0.757284
-0.759131
-0.760977
-0.762832
-0.76474
-0.766084
-0.767269
-0.772344
-0.774153
-0.776025
-0.777905
-0.779789
-0.781676
-0.783568
-0.785461
-0.787357
-0.789256
-0.791156
-0.793059
-0.794959
-0.796874
-0.798829
-0.799573
-0.801072
-0.803752
-0.805625
-0.807541
-0.809462
-0.811389
-0.813321
-0.815258
-0.817202
-0.819165
-0.820723
-0.822681
-0.824692
-0.826629
-0.828577
-0.830522
-0.832465
-0.834407
-0.836349
-0.838288
-0.840222
-0.84215
-0.844075
-0.845996
-0.847913
-0.849825
-0.851735
-0.85364
-0.85554
-0.857444
-0.859328
-0.861201
-0.863125
-0.865005
-0.866884
-0.868761
-0.870635
-0.872507
-0.874377
-0.876243
-0.878108
-0.879969
-0.881829
-0.883687
-0.885542
-0.887396
-0.889248
-0.891099
-0.892948
-0.894796
-0.896643
-0.898489
-0.900335
-0.90218
-0.904025
-0.90587
-0.907715
-0.90956
-0.911405
-0.913251
-0.915097
-0.916943
-0.918791
-0.920639
-0.922487
-0.924336
-0.926186
-0.928037
-0.929888
-0.931739
-0.93359
-0.935442
-0.937293
-0.939144
-0.940994
-0.942843
-0.94469
-0.946535
-0.948378
-0.950218
-0.952054
-0.953886
-0.955713
-0.957535
-0.959351
-0.961159
-0.96296
-0.964752
-0.966535
-0.968308
-0.970069
-0.971818
-0.973554
-0.975276
-0.976983
-0.978674
-0.980348
-0.982003
-0.983639
-0.985255
-0.986849
-0.988421
-0.989969
-0.991492
-0.99299
-0.99446
-0.995903
-0.997316
-0.998699
-1.00005
-1.00137
-1.00266
-1.00391
-1.00513
-1.00631
-1.00745
-1.00856
-1.00963
-1.01066
-1.01165
-1.0126
-1.0135
-1.01437
-1.01519
-1.01598
-1.01671
-1.01741
-1.01805
-1.01866
-1.01922
-1.01973
-1.0202
-1.02063
-1.02101
-1.02134
-1.02163
-1.02187
-1.02207
-1.02223
-1.02234
-1.02241
-1.02243
-1.02241
-1.02235
-1.02225
-1.0221
-1.02192
-1.02169
-1.02143
-1.02112
-1.02078
-1.0204
-1.01999
-1.01954
-1.01906
-1.01854
-1.018
-1.01742
-1.01682
-1.01619
-1.01553
-1.01485
-1.01415
-1.01342
-1.01267
-1.01191
-1.01112
-1.01033
-1.00952
-1.00869
-1.00786
-1.00702
-1.00618
-1.00533
-1.00449
-1.00364
-1.00281
-1.00199
-1.00119
-1.00042
-0.999633
-0.998849
-0.998168
-0.997719
-0.997298
-0.996199
-0.994072
-0.664149
-0.665401
-0.666714
-0.668036
-0.669354
-0.670675
-0.672
-0.673328
-0.674658
-0.67599
-0.677322
-0.678649
-0.679963
-0.6813
-0.682743
-0.684134
-0.679292
-0.695835
-0.696917
-0.697706
-0.698927
-0.700671
-0.702179
-0.703657
-0.70508
-0.707567
-0.708977
-0.71037
-0.711819
-0.713301
-0.714805
-0.716321
-0.71785
-0.719397
-0.720956
-0.722529
-0.724117
-0.72572
-0.727338
-0.72897
-0.730612
-0.732284
-0.734213
-0.736144
-0.737337
-0.738943
-0.743453
-0.745024
-0.746492
-0.750427
-0.752385
-0.749636
-0.751461
-0.753565
-0.755365
-0.757188
-0.759065
-0.760943
-0.762818
-0.764688
-0.76656
-0.768445
-0.77034
-0.772182
-0.774218
-0.776474
-0.778649
-0.778372
-0.780629
-0.782594
-0.784434
-0.786323
-0.788239
-0.790151
-0.792061
-0.793969
-0.795872
-0.797772
-0.799677
-0.801595
-0.803235
-0.805439
-0.807333
-0.809234
-0.811138
-0.813045
-0.814954
-0.816863
-0.818773
-0.820685
-0.822594
-0.824503
-0.82644
-0.828438
-0.830384
-0.832146
-0.836676
-0.838489
-0.840346
-0.842293
-0.844239
-0.846186
-0.848138
-0.850094
-0.852055
-0.854021
-0.855992
-0.857973
-0.85996
-0.86194
-0.863949
-0.866058
-0.864568
-0.866452
-0.868576
-0.870518
-0.872499
-0.874465
-0.876414
-0.878346
-0.880263
-0.882177
-0.884081
-0.885497
-0.888372
-0.890201
-0.892038
-0.893878
-0.89571
-0.897535
-0.899359
-0.901135
-0.902819
-0.904819
-0.90659
-0.908337
-0.910068
-0.911783
-0.913483
-0.915168
-0.916837
-0.918488
-0.920129
-0.92176
-0.923179
-0.924799
-0.926379
-0.927929
-0.92947
-0.930989
-0.932486
-0.933962
-0.935418
-0.936854
-0.93827
-0.939667
-0.941045
-0.942404
-0.943743
-0.945064
-0.946367
-0.947651
-0.948917
-0.950165
-0.951396
-0.952609
-0.953806
-0.954986
-0.95615
-0.957299
-0.958433
-0.959551
-0.960656
-0.961747
-0.962824
-0.963889
-0.964942
-0.965982
-0.967011
-0.96803
-0.969038
-0.970037
-0.971027
-0.972008
-0.972981
-0.973947
-0.974906
-0.975859
-0.976806
-0.977748
-0.978686
-0.979619
-0.98055
-0.981477
-0.982402
-0.983325
-0.984247
-0.985167
-0.986087
-0.987007
-0.987928
-0.988848
-0.98977
-0.990694
-0.991619
-0.992546
-0.993475
-0.994406
-0.99534
-0.996277
-0.997217
-0.99816
-0.999105
-1.00005
-1.00101
-1.00196
-1.00292
-1.00388
-1.00484
-1.0058
-1.00677
-1.00774
-1.0087
-1.00967
-1.01065
-1.01162
-1.01259
-1.01356
-1.01453
-1.01549
-1.01646
-1.01742
-1.01838
-1.01934
-1.02029
-1.02123
-1.02217
-1.0231
-1.02403
-1.02494
-1.02585
-1.02675
-1.02763
-1.02851
-1.02937
-1.03022
-1.03106
-1.03188
-1.03269
-1.03348
-1.03425
-1.03501
-1.03575
-1.03647
-1.03717
-1.03785
-1.03852
-1.03916
-1.03978
-1.04038
-1.04096
-1.04152
-1.04205
-1.04256
-1.04305
-1.04352
-1.04397
-1.04439
-1.0448
-1.04518
-1.04554
-1.04588
-1.0462
-1.0465
-1.04678
-1.04705
-1.04729
-1.04752
-1.04773
-1.04793
-1.04812
-1.04829
-1.04846
-1.04861
-1.04876
-1.04891
-1.04905
-1.04919
-1.04934
-1.04948
-1.04964
-1.04982
-1.05001
-1.05021
-1.05042
-1.05067
-1.05102
-1.05144
-1.05171
-1.05159
-0.718399
-0.720235
-0.721918
-0.723635
-0.725504
-0.727387
-0.729274
-0.731167
-0.733069
-0.734979
-0.736888
-0.738793
-0.74075
-0.742857
-0.745053
-0.744268
-0.746336
-0.748294
-0.750023
-0.751861
-0.753792
-0.755717
-0.757615
-0.759576
-0.761541
-0.763501
-0.757033
-0.767717
-0.769401
-0.7711
-0.772833
-0.774762
-0.776547
-0.777072
-0.778686
-0.780547
-0.782232
-0.78391
-0.785582
-0.787293
-0.789099
-0.790312
-0.792305
-0.799728
-0.801213
-0.80249
-0.804136
-0.805923
-0.807772
-0.80957
-0.810864
-0.81806
-0.819538
-0.82109
-0.822743
-0.824435
-0.82615
-0.827879
-0.829617
-0.831407
-0.83331
-0.835168
-0.835611
-0.837614
-0.840126
-0.842223
-0.843763
-0.845585
-0.847432
-0.849586
-0.851485
-0.853379
-0.855282
-0.857191
-0.859106
-0.861033
-0.863046
-0.865056
-0.866476
-0.868437
-0.87038
-0.872297
-0.874224
-0.876165
-0.878139
-0.880088
-0.882029
-0.88413
-0.886039
-0.887956
-0.889887
-0.891822
-0.893762
-0.895702
-0.897933
-0.900075
-0.901839
-0.903672
-0.908685
-0.910543
-0.912404
-0.914303
-0.916211
-0.918121
-0.920031
-0.921942
-0.923857
-0.925778
-0.927723
-0.929956
-0.932111
-0.930413
-0.932589
-0.934495
-0.936316
-0.938155
-0.940009
-0.941851
-0.943678
-0.945497
-0.947311
-0.949111
-0.950731
-0.952521
-0.954292
-0.95602
-0.957741
-0.959449
-0.961142
-0.962819
-0.964484
-0.966159
-0.967335
-0.96778
-0.972072
-0.973565
-0.975068
-0.976546
-0.978
-0.979429
-0.980835
-0.982219
-0.983584
-0.984923
-0.98622
-0.987513
-0.98878
-0.989926
-0.991154
-0.992358
-0.993568
-0.994711
-0.995786
-0.99683
-0.997845
-0.998829
-0.999783
-1.00071
-1.0016
-1.00246
-1.0033
-1.0041
-1.00487
-1.00562
-1.00633
-1.00701
-1.00766
-1.00828
-1.00887
-1.00944
-1.00997
-1.01048
-1.01096
-1.01142
-1.01185
-1.01225
-1.01263
-1.01299
-1.01332
-1.01363
-1.01392
-1.01419
-1.01445
-1.01468
-1.01489
-1.01509
-1.01528
-1.01545
-1.01561
-1.01575
-1.01589
-1.01602
-1.01614
-1.01625
-1.01636
-1.01647
-1.01657
-1.01668
-1.01679
-1.01689
-1.01701
-1.01712
-1.01725
-1.01738
-1.01752
-1.01767
-1.01784
-1.01802
-1.01821
-1.01842
-1.01865
-1.01889
-1.01916
-1.01944
-1.01975
-1.02008
-1.02044
-1.02082
-1.02123
-1.02166
-1.02212
-1.02261
-1.02313
-1.02368
-1.02425
-1.02486
-1.0255
-1.02616
-1.02686
-1.02759
-1.02835
-1.02914
-1.02996
-1.03081
-1.03169
-1.03259
-1.03353
-1.03449
-1.03549
-1.0365
-1.03755
-1.03861
-1.0397
-1.04081
-1.04194
-1.04309
-1.04426
-1.04545
-1.04666
-1.04787
-1.0491
-1.05035
-1.0516
-1.05287
-1.05414
-1.05541
-1.0567
-1.05798
-1.05927
-1.06056
-1.06185
-1.06314
-1.06442
-1.0657
-1.06697
-1.06824
-1.06951
-1.07076
-1.07201
-1.07324
-1.07447
-1.07569
-1.0769
-1.07809
-1.07928
-1.08045
-1.08162
-1.08277
-1.08392
-1.08505
-1.08617
-1.08729
-1.0884
-1.0895
-1.0906
-1.09169
-1.09278
-1.09387
-1.09496
-1.09605
-1.09715
-1.09825
-1.09936
-1.10051
-1.10168
-1.10281
-1.10386
-1.10503
-1.10669
-1.10881
-0.779685
-0.781479
-0.783273
-0.787759
-0.78926
-0.790806
-0.792459
-0.79418
-0.79592
-0.797674
-0.79943
-0.801183
-0.802931
-0.804702
-0.806597
-0.808644
-0.81034
-0.812219
-0.818808
-0.820328
-0.821812
-0.823599
-0.825506
-0.827554
-0.829631
-0.830273
-0.833157
-0.835058
-0.836722
-0.838598
-0.840581
-0.84259
-0.844633
-0.846702
-0.848283
-0.850504
-0.850565
-0.852375
-0.854634
-0.856973
-0.856771
-0.859011
-0.861147
-0.863101
-0.864604
-0.870437
-0.872831
-0.871196
-0.873489
-0.875866
-0.877809
-0.879865
-0.882039
-0.884229
-0.886427
-0.88863
-0.890811
-0.89297
-0.895181
-0.897494
-0.899876
-0.902029
-0.904249
-0.906464
-0.908664
-0.910762
-0.912607
-0.914453
-0.916591
-0.918732
-0.920861
-0.922978
-0.925093
-0.927222
-0.929384
-0.930299
-0.932355
-0.936565
-0.938629
-0.940683
-0.942788
-0.944938
-0.94708
-0.947217
-0.949237
-0.951839
-0.953901
-0.955974
-0.958051
-0.96013
-0.962268
-0.96432
-0.966301
-0.968429
-0.97054
-0.972823
-0.974569
-0.97648
-0.97846
-0.980467
-0.982435
-0.984374
-0.98629
-0.988177
-0.990039
-0.991896
-0.993744
-0.995429
-0.997237
-0.999034
-1.00081
-1.00268
-1.00429
-1.00593
-1.00756
-1.00917
-1.01077
-1.01234
-1.0139
-1.01543
-1.01694
-1.01844
-1.01992
-1.02129
-1.0227
-1.02459
-1.02595
-1.02727
-1.02859
-1.02993
-1.03136
-1.03262
-1.03066
-1.0376
-1.0387
-1.0398
-1.04091
-1.04201
-1.04308
-1.04413
-1.04516
-1.04616
-1.04714
-1.04809
-1.04902
-1.04991
-1.05078
-1.05162
-1.05242
-1.05022
-1.0547
-1.05537
-1.05602
-1.05665
-1.05724
-1.05779
-1.05831
-1.0588
-1.05924
-1.05966
-1.06004
-1.06039
-1.06054
-1.06103
-1.06125
-1.06145
-1.06162
-1.06174
-1.06184
-1.0619
-1.06191
-1.06191
-1.06187
-1.06179
-1.06167
-1.06152
-1.06133
-1.06112
-1.06087
-1.06059
-1.06028
-1.05994
-1.05958
-1.05918
-1.05877
-1.05833
-1.05786
-1.05738
-1.05688
-1.05636
-1.05583
-1.05528
-1.05472
-1.05415
-1.05357
-1.05299
-1.0524
-1.05182
-1.05123
-1.05065
-1.05007
-1.04949
-1.04893
-1.04838
-1.04784
-1.04732
-1.04682
-1.04634
-1.04588
-1.04545
-1.04504
-1.04467
-1.04432
-1.04401
-1.04374
-1.04351
-1.04331
-1.04316
-1.04305
-1.04299
-1.04298
-1.04301
-1.0431
-1.04323
-1.04342
-1.04367
-1.04397
-1.04432
-1.04473
-1.0452
-1.04573
-1.04632
-1.04696
-1.04767
-1.04843
-1.04925
-1.05013
-1.05107
-1.05207
-1.05312
-1.05423