/*--------------------------------*- C++ -*----------------------------------*\
| =========                 |                                                 |
| \\      /  F ield         | OpenFOAM: The Open Source CFD Toolbox           |
|  \\    /   O peration     | Version:  2.4.0                                 |
|   \\  /    A nd           | Web:      www.OpenFOAM.org                      |
|    \\/     M anipulation  |                                                 |
\*---------------------------------------------------------------------------*/
FoamFile
{
    version     2.0;
    format      ascii;
    class       volScalarField;
    location    "4.5";
    object      p_rgh;
}
// * * * * * * * * * * * * * * * * * * * * * * * * * * * * * * * * * * * * * //

dimensions      [1 -1 -2 0 0 0 0];

internalField   nonuniform List<scalar> 
8000
(
80.0457
79.9594
79.8676
79.7857
79.7292
79.7351
79.7739
79.4269
77.7184
71.1877
3.94471
0.888168
0.890957
0.889965
0.88946
0.889486
0.889422
0.889142
0.888671
0.888059
0.887303
0.886424
0.885468
0.884997
0.885533
0.888864
0.877114
0.87452
0.87325
0.871973
0.87066
0.869334
0.868138
0.868303
0.866279
0.86469
0.86321
0.861827
0.860394
0.859023
0.857711
0.855965
0.854478
0.852975
0.851457
0.849924
0.848376
0.846815
0.845239
0.843649
79.6048
79.4971
79.3831
79.3003
79.2801
79.2778
78.8976
77.3336
65.3143
1.96372
0.896478
0.89841
0.89779
0.897468
0.897332
0.897063
0.896556
0.895779
0.894715
0.893361
0.891742
0.889896
0.88776
0.885699
0.884552
0.891148
0.888378
0.883476
0.879863
0.87729
0.874779
0.872269
0.869782
0.867347
0.865117
0.862842
0.860054
0.857727
0.855474
0.853239
0.85102
0.848811
0.846628
0.844462
0.84231
0.84017
0.838042
0.835922
0.833812
0.83171
79.0237
78.9277
78.8519
78.8773
78.9671
78.3889
75.2761
70.3945
6.49282
0.882956
0.89058
0.918781
0.895849
0.896728
0.897186
0.896929
0.89659
0.895773
0.894622
0.893288
0.891802
0.890152
0.888327
0.886323
0.884355
0.882786
0.881098
0.879112
0.87659
0.872918
0.869224
0.865848
0.862814
0.860077
0.857431
0.854802
0.852217
0.849603
0.8471
0.844625
0.841767
0.839148
0.836545
0.833957
0.831353
0.828759
0.82617
0.823583
0.820999
0.818421
72.9536
73.0821
73.1929
73.2656
73.3234
73.392
73.3601
72.6975
70.7945
18.9223
-0.723121
0.814309
0.829123
0.877728
0.890744
0.902211
0.910512
0.913065
0.9134
0.912592
0.911307
0.909615
0.907827
0.904985
0.901482
0.897538
0.893405
0.889165
0.884716
0.880172
0.875812
0.873973
0.869247
0.864044
0.859147
0.854538
0.850372
0.846081
0.842145
0.839339
0.834134
0.83016
0.826415
0.822797
0.819262
0.81581
0.812442
0.809097
0.805774
0.802536
79.3916
79.5736
79.769
79.9449
80.1039
80.2584
80.4374
80.623
80.6153
79.9253
78.293
77.2259
34.0786
-0.295991
0.424404
0.932566
1.20906
0.876535
0.774886
0.804301
0.838281
0.849319
0.855711
0.866244
0.875272
0.878979
0.877707
0.874281
0.871458
0.868888
0.865769
0.861716
0.856975
0.858662
0.85079
0.844105
0.838504
0.833779
0.828589
0.823419
0.824942
0.816681
0.811473
0.807595
0.802816
0.798438
0.794198
0.789396
0.785216
0.781175
87.9247
87.9437
87.9838
88.0427
88.1184
88.2109
88.3225
88.4576
88.6152
88.7582
88.8068
88.865
88.7255
88.6384
88.7438
88.993
70.7008
58.9215
32.0315
6.39531
0.355469
1.19233
1.33361
1.16789
1.01095
0.91863
0.85475
0.811111
0.792234
0.794052
0.79471
0.785903
0.77676
0.774739
0.778708
0.775032
0.765424
0.760406
0.758695
0.75643
0.754172
0.756062
0.747676
0.74391
0.741197
0.738666
0.736053
0.733485
0.735037
0.730541
87.8312
87.8555
87.8785
87.9011
87.9253
87.9515
87.9795
88.0089
88.0399
88.0719
88.1056
88.1443
88.1996
88.2647
88.3166
88.3802
88.3898
88.4263
88.5181
88.6885
88.6869
88.5624
72.5344
52.219
30.3408
8.91837
1.10943
1.77754
1.92698
1.67042
1.51041
1.37221
0.973653
0.826578
0.744833
0.693504
0.665189
0.655329
0.654727
0.655495
0.652231
0.648527
0.646537
0.64626
0.646833
0.647307
0.647572
0.653896
0.651706
0.650885
92.4352
92.4507
92.4712
92.4922
92.5129
92.5334
92.5538
92.574
92.594
92.6133
92.6322
92.6502
92.6678
92.6844
92.7
92.7146
92.7349
92.7641
92.8175
92.8982
92.9946
93.1311
93.2621
93.3984
93.4242
93.2341
92.8386
88.5516
72.9613
37.0178
5.73346
4.58162
4.42703
3.79251
2.17787
1.28165
0.881931
0.767808
0.703164
0.653359
0.620545
0.60408
0.597428
0.5954
0.595555
0.596445
0.596955
0.596705
0.596362
0.596444
94.4925
94.4803
94.4677
94.4586
94.4535
94.4519
94.4538
94.4589
94.4673
94.479
94.494
94.5121
94.5336
94.5582
94.5862
94.617
94.6514
94.6888
94.7299
94.7738
94.821
94.8709
94.9315
95.0052
95.1026
95.2125
95.3298
95.4836
95.569
95.4014
94.8345
88.6975
78.8736
47.2663
14.6278
4.51851
4.82492
4.3914
2.54927
1.22819
0.812795
0.726812
0.675524
0.634296
0.607115
0.592444
0.584496
0.580276
0.578345
0.577719
97.1593
97.1449
97.1313
97.1208
97.1132
97.1078
97.1047
97.1038
97.1051
97.1085
97.1142
97.122
97.132
97.1442
97.1586
97.1751
97.194
97.2151
97.2386
97.2642
97.2922
97.3221
97.3542
97.3881
97.4241
97.4615
97.5015
97.546
97.5978
97.6381
97.6667
97.7177
97.7765
97.6452
97.0521
88.432
87.151
62.7967
24.2348
5.72802
4.8407
3.90946
1.98194
0.971253
0.731767
0.656696
0.617995
0.598024
0.587656
0.58205
98.6981
98.6846
98.6702
98.6582
98.6486
98.6413
98.636
98.6328
98.6316
98.6325
98.6355
98.6406
98.6477
98.6569
98.6681
98.6813
98.6966
98.7138
98.733
98.7542
98.7772
98.8022
98.829
98.8576
98.8878
98.9198
98.953
98.9876
99.0232
99.0603
99.0996
99.143
99.1872
99.2162
99.245
99.2744
99.3471
99.3419
99.0597
90.9148
86.6327
54.7202
13.0358
4.22745
2.95055
1.60417
0.892086
0.709351
0.645909
0.620057
100.411
100.394
100.377
100.362
100.349
100.338
100.329
100.321
100.315
100.311
100.309
100.308
100.309
100.311
100.315
100.321
100.328
100.337
100.348
100.36
100.374
100.389
100.405
100.424
100.443
100.464
100.486
100.51
100.535
100.561
100.589
100.618
100.648
100.679
100.714
100.751
100.789
100.816
100.842
100.863
100.917
100.836
96.9345
90.8373
54.8253
11.9685
4.83567
2.13062
1.12375
0.826627
101.625
101.602
101.578
101.558
101.54
101.524
101.511
101.5
101.491
101.484
101.479
101.477
101.476
101.478
101.482
101.488
101.496
101.506
101.518
101.532
101.549
101.567
101.588
101.611
101.636
101.663
101.692
101.723
101.757
101.793
101.831
101.871
101.914
101.959
102.006
102.056
102.108
102.163
102.221
102.282
102.344
102.403
102.46
102.585
102.667
99.3122
78.334
33.0044
12.3399
4.95457
102.605
102.583
102.561
102.541
102.524
102.509
102.496
102.484
102.475
102.467
102.461
102.457
102.455
102.454
102.456
102.459
102.464
102.471
102.479
102.489
102.502
102.516
102.531
102.549
102.569
102.59
102.614
102.639
102.666
102.696
102.727
102.761
102.797
102.835
102.876
102.918
102.964
103.011
103.062
103.115
103.171
103.23
103.293
103.353
103.402
103.469
103.493
102.155
86.2365
52.556
103.072
103.057
103.042
103.029
103.017
103.007
102.998
102.99
102.984
102.979
102.975
102.973
102.972
102.972
102.974
102.977
102.981
102.986
102.993
103.001
103.01
103.021
103.033
103.046
103.06
103.075
103.092
103.11
103.13
103.15
103.172
103.195
103.219
103.245
103.272
103.3
103.329
103.36
103.391
103.424
103.458
103.494
103.531
103.569
103.608
103.648
103.679
103.706
103.668
101.483
103.528
103.524
103.519
103.515
103.511
103.507
103.504
103.501
103.498
103.496
103.494
103.492
103.491
103.489
103.489
103.488
103.488
103.488
103.488
103.489
103.49
103.492
103.494
103.496
103.498
103.501
103.505
103.508
103.512
103.516
103.521
103.525
103.53
103.535
103.541
103.546
103.552
103.557
103.563
103.568
103.574
103.579
103.584
103.589
103.593
103.596
103.597
103.628
103.629
103.663
103.608
103.611
103.614
103.616
103.619
103.622
103.624
103.627
103.63
103.633
103.636
103.639
103.642
103.645
103.648
103.651
103.655
103.658
103.662
103.666
103.67
103.674
103.679
103.684
103.689
103.694
103.699
103.705
103.711
103.718
103.725
103.732
103.739
103.747
103.755
103.763
103.772
103.781
103.79
103.799
103.809
103.819
103.83
103.84
103.85
103.861
103.868
103.972
103.957
104.07
104.252
104.277
104.302
104.323
104.338
104.349
104.357
104.362
104.364
104.364
104.361
104.357
104.352
104.345
104.337
104.328
104.318
104.308
104.297
104.286
104.275
104.263
104.251
104.239
104.228
104.216
104.205
104.193
104.182
104.171
104.161
104.151
104.141
104.132
104.123
104.114
104.106
104.098
104.091
104.084
104.077
104.071
104.065
104.059
104.053
104.048
104.043
104.027
104.013
103.973
103.943
104.005
104.063
104.107
104.141
104.168
104.189
104.204
104.216
104.223
104.227
104.228
104.227
104.224
104.22
104.213
104.206
104.198
104.189
104.18
104.17
104.16
104.149
104.139
104.128
104.118
104.107
104.097
104.086
104.076
104.067
104.057
104.048
104.039
104.03
104.022
104.014
104.006
103.998
103.991
103.984
103.977
103.971
103.964
103.958
103.952
103.944
104.021
104.016
104.068
109.044
108.66
108.275
107.944
107.654
107.393
107.155
106.937
106.737
106.552
106.382
106.225
106.079
105.943
105.817
105.698
105.588
105.485
105.388
105.298
105.213
105.134
105.059
104.989
104.924
104.863
104.806
104.753
104.703
104.657
104.614
104.574
104.538
104.504
104.474
104.446
104.422
104.4
104.381
104.364
104.351
104.34
104.331
104.326
104.324
104.327
104.33
104.32
104.288
103.793
0.842159
0.841962
0.840087
0.838208
0.836484
0.834822
0.833143
0.831464
0.829874
0.82814
0.82625
0.824578
0.822985
0.820504
0.818787
0.81691
0.815225
0.814622
0.81175
0.809693
0.807821
0.80591
0.804003
0.802254
0.799937
0.797985
0.79599
0.793981
0.792025
0.790807
0.787616
0.78551
0.783421
0.781296
0.779199
0.777373
0.775796
0.772011
0.769817
0.767596
0.765358
0.763102
0.760828
0.758533
0.756241
0.753932
0.751588
0.749329
0.750191
0.747796
0.829617
0.827686
0.826633
0.82388
0.821564
0.819563
0.817429
0.815317
0.813308
0.811109
0.808891
0.806752
0.804917
0.802152
0.800124
0.797769
0.795665
0.794447
0.791564
0.789033
0.786794
0.784478
0.782154
0.780067
0.777378
0.775065
0.772701
0.770329
0.768051
0.767343
0.763102
0.760598
0.758198
0.755772
0.753396
0.751218
0.750251
0.744271
0.741854
0.739425
0.736995
0.734569
0.732149
0.72974
0.727373
0.725039
0.722914
0.721132
0.718782
0.713662
0.815848
0.813283
0.810835
0.809167
0.806153
0.803446
0.801066
0.798427
0.796067
0.793347
0.790756
0.788153
0.785476
0.782881
0.780261
0.777563
0.774986
0.772528
0.769942
0.766219
0.763349
0.760681
0.757931
0.755229
0.75246
0.74979
0.746983
0.744181
0.741533
0.739621
0.736334
0.733194
0.730472
0.727513
0.724716
0.722099
0.71999
0.71366
0.710588
0.707608
0.704589
0.701544
0.698473
0.695381
0.69238
0.689551
0.688178
0.684492
0.68063
0.683583
0.799336
0.796158
0.793017
0.789946
0.786924
0.783873
0.780813
0.777729
0.774885
0.771893
0.768713
0.765634
0.762596
0.759563
0.756494
0.753448
0.750402
0.747393
0.744396
0.741345
0.73779
0.734589
0.731361
0.728189
0.72501
0.721808
0.718605
0.715348
0.712154
0.709073
0.706447
0.703
0.699436
0.696718
0.693021
0.689907
0.688213
0.684694
0.680952
0.677491
0.674183
0.670875
0.667589
0.664322
0.66129
0.658641
0.655724
0.649168
0.647275
0.643469
0.777206
0.773252
0.769455
0.765719
0.762034
0.758406
0.755602
0.751809
0.74869
0.744874
0.741708
0.738094
0.734629
0.731243
0.727851
0.724457
0.721065
0.717677
0.714301
0.710931
0.70761
0.704278
0.700828
0.697293
0.693733
0.69026
0.686757
0.683303
0.679735
0.676218
0.672767
0.669311
0.665813
0.661615
0.658797
0.654933
0.651445
0.648021
0.644341
0.640113
0.636045
0.632208
0.628527
0.624743
0.620919
0.617293
0.613751
0.609858
0.604804
0.603102
0.72765
0.724882
0.722307
0.719489
0.717029
0.714192
0.711021
0.708117
0.705274
0.702299
0.699436
0.696733
0.693735
0.690652
0.68761
0.684545
0.681438
0.6783
0.67513
0.671912
0.668773
0.666088
0.662224
0.658856
0.655231
0.651878
0.648424
0.64481
0.641654
0.637984
0.634383
0.630752
0.62711
0.623809
0.619795
0.616446
0.612518
0.608735
0.604991
0.601319
0.597425
0.592561
0.588351
0.584433
0.580739
0.576674
0.572336
0.568459
0.565907
0.560347
0.650411
0.650367
0.649948
0.649443
0.654034
0.651271
0.649418
0.648068
0.646736
0.645252
0.643614
0.641903
0.640067
0.638222
0.636521
0.63437
0.632011
0.629675
0.627253
0.624714
0.622771
0.619823
0.616982
0.614146
0.611116
0.608201
0.605845
0.602683
0.599298
0.596452
0.592764
0.589431
0.585944
0.581806
0.578317
0.574633
0.570893
0.567132
0.563287
0.559443
0.555456
0.551431
0.547619
0.544327
0.540145
0.535551
0.531156
0.526933
0.52246
0.518377
0.597561
0.598366
0.599661
0.60085
0.601083
0.600172
0.599376
0.598929
0.598606
0.598109
0.597435
0.596588
0.595569
0.594398
0.593079
0.591604
0.590199
0.588579
0.586566
0.584359
0.582306
0.580086
0.577443
0.574961
0.572384
0.569521
0.568062
0.564888
0.561623
0.558848
0.555636
0.552414
0.549551
0.546043
0.54234
0.538824
0.535059
0.531242
0.528116
0.523525
0.519712
0.51555
0.511274
0.507047
0.502914
0.498566
0.494105
0.489563
0.484783
0.479963
0.577785
0.578052
0.578207
0.578155
0.57795
0.577639
0.577298
0.577032
0.576671
0.576154
0.575476
0.574635
0.573631
0.572464
0.571138
0.569656
0.568066
0.566335
0.564488
0.562724
0.562923
0.557832
0.55523
0.552715
0.550123
0.547416
0.544775
0.542314
0.539191
0.535953
0.532762
0.52948
0.526046
0.522661
0.519298
0.515647
0.511423
0.508173
0.50411
0.500155
0.497089
0.491504
0.487123
0.482744
0.478146
0.47364
0.469053
0.4644
0.459857
0.455106
0.579069
0.57761
0.577035
0.576933
0.577026
0.577172
0.577298
0.577307
0.577133
0.576752
0.576153
0.575329
0.574279
0.573004
0.571511
0.569812
0.567915
0.565833
0.563582
0.561238
0.559354
0.561993
0.555656
0.551862
0.548611
0.545464
0.542215
0.538887
0.535743
0.532687
0.528783
0.524875
0.521397
0.517596
0.513745
0.510534
0.505569
0.501856
0.497738
0.493633
0.489726
0.485426
0.480063
0.475353
0.470802
0.466153
0.461421
0.456606
0.451722
0.446856
0.607851
0.601113
0.597179
0.59498
0.59388
0.593457
0.593428
0.593582
0.593761
0.593875
0.59381
0.593516
0.592965
0.592143
0.59105
0.589687
0.588063
0.586184
0.584082
0.581956
0.580536
0.579181
0.576215
0.571195
0.566673
0.56279
0.559304
0.55569
0.551962
0.548221
0.545435
0.545152
0.534445
0.529769
0.525554
0.521297
0.516989
0.512631
0.50821
0.503727
0.499216
0.494642
0.490099
0.485872
0.481233
0.475592
0.470322
0.465368
0.460382
0.455345
0.706373
0.64846
0.624767
0.615696
0.611696
0.609736
0.608745
0.608308
0.608232
0.60838
0.608613
0.608832
0.609003
0.609079
0.608975
0.608657
0.608102
0.607392
0.607028
0.60743
0.60675
0.604655
0.600961
0.597584
0.594549
0.591632
0.588539
0.585231
0.581743
0.57828
0.575685
0.574168
0.57006
0.56134
0.55514
0.550041
0.545475
0.54084
0.536107
0.531302
0.526431
0.521495
0.516503
0.511524
0.506491
0.501371
0.496218
0.491675
0.487664
0.482363
1.92035
0.971579
0.727078
0.659655
0.637404
0.628626
0.624356
0.622126
0.620882
0.620124
0.619577
0.619169
0.618906
0.618753
0.61864
0.618512
0.618348
0.618155
0.617932
0.61755
0.617308
0.616768
0.617324
0.615789
0.614679
0.613486
0.612094
0.61063
0.609414
0.610167
0.609656
0.606562
0.599825
0.594053
0.589536
0.585832
0.582028
0.577997
0.573791
0.569429
0.564914
0.560257
0.55547
0.550566
0.545548
0.540429
0.535213
0.52995
0.52466
0.519597
22.953
7.36656
2.03523
0.875676
0.671818
0.636588
0.629479
0.626989
0.62577
0.625324
0.624327
0.623555
0.623074
0.622798
0.622798
0.622812
0.622844
0.623038
0.623277
0.623581
0.623998
0.624477
0.625334
0.626735
0.629347
0.631533
0.632131
0.632281
0.631284
0.628862
0.626868
0.625382
0.623958
0.622471
0.620883
0.619037
0.616911
0.614502
0.611801
0.608818
0.605554
0.602018
0.59822
0.59418
0.589917
0.585432
0.580741
0.576184
0.572601
0.571124
87.4247
51.0038
14.9367
2.53596
0.748433
0.632083
0.629565
0.630211
0.630483
0.635152
0.631222
0.630865
0.630843
0.631063
0.631294
0.631609
0.631923
0.632902
0.634653
0.63541
0.634942
0.633642
0.635053
0.636751
0.637596
0.638246
0.63865
0.637856
0.635997
0.635073
0.634918
0.634833
0.634616
0.634247
0.633731
0.633057
0.632206
0.631162
0.629921
0.628483
0.626829
0.62506
0.623172
0.6215
0.620407
0.618696
0.615648
0.611982
0.608275
0.603351
103.609
96.6417
43.2203
5.88717
0.835012
0.624812
0.623533
0.623386
0.623903
0.623453
0.624262
0.624785
0.625074
0.62537
0.625692
0.625504
0.625055
0.625637
0.626183
0.626932
0.627404
0.627969
0.628597
0.629226
0.629816
0.630457
0.632818
0.633923
0.634258
0.634185
0.632715
0.630879
0.629908
0.629149
0.628185
0.626963
0.625533
0.62421
0.6267
0.623427
0.620144
0.617533
0.615098
0.612383
0.611937
0.608181
0.60433
0.601212
0.598139
0.594973
104.053
96.8345
36.3214
3.98322
0.693097
0.608974
0.608913
0.609005
0.609191
0.609311
0.609389
0.609888
0.610811
0.610791
0.610567
0.61023
0.609118
0.607844
0.607097
0.606434
0.605695
0.605577
0.603894
0.602988
0.601893
0.600932
0.608766
0.604737
0.601054
0.599245
0.597776
0.596031
0.594871
0.592615
0.590963
0.589405
0.587832
0.586374
0.585802
0.585261
0.583498
0.580923
0.578517
0.576644
0.574741
0.572727
0.570698
0.568663
0.566616
0.564577
103.864
55.7797
9.0026
1.01467
0.603
0.596956
0.59697
0.597059
0.597025
0.596915
0.596946
0.598285
0.59656
0.595689
0.595773
0.59396
0.593881
0.59149
0.59027
0.588105
0.586574
0.584793
0.582605
0.581019
0.578315
0.576187
0.576794
0.571389
0.569692
0.566683
0.563914
0.565813
0.559675
0.556221
0.553841
0.550077
0.548049
0.547562
0.543807
0.540435
0.537558
0.535005
0.532803
0.53058
0.528544
0.526905
0.526435
0.525979
0.52472
0.523438
66.9962
8.0335
0.795951
0.603766
0.602961
0.602833
0.602943
0.603032
0.602751
0.603332
0.603054
0.603053
0.60358
0.600731
0.600281
0.598714
0.598308
0.597538
0.596316
0.595036
0.593957
0.593004
0.590184
0.5891
0.586017
0.584772
0.583532
0.580637
0.579012
0.576775
0.576755
0.573844
0.569853
0.568596
0.564586
0.562581
0.560893
0.556825
0.552702
0.55026
0.547348
0.544792
0.543206
0.54187
0.538886
0.535263
0.534053
0.532081
0.530588
0.530606
7.12531
0.682333
0.595788
0.594887
0.594761
0.594677
0.594608
0.594487
0.594371
0.594425
0.593956
0.595099
0.594351
0.593838
0.593245
0.592627
0.592055
0.59168
0.592137
0.591199
0.590242
0.589569
0.588795
0.588236
0.587218
0.586448
0.585599
0.58498
0.585666
0.584686
0.581143
0.579253
0.578629
0.577409
0.576296
0.576396
0.57771
0.571192
0.56999
0.565199
0.566364
0.565071
0.562953
0.561985
0.561174
0.560145
0.559612
0.560149
0.559576
0.555976
0.745304
0.74379
0.742397
0.740995
0.739587
0.738172
0.736752
0.735326
0.733892
0.732451
0.731003
0.729546
0.72808
0.726606
0.725127
0.723632
0.721978
0.720721
0.719962
0.71813
0.714241
0.711714
0.710462
0.70892
0.706947
0.705697
0.706898
0.705156
0.703126
0.701227
0.699634
0.698013
0.696397
0.694776
0.693149
0.691516
0.689876
0.688228
0.68657
0.684903
0.683222
0.68153
0.679836
0.67814
0.67665
0.679091
0.677734
0.675254
0.673461
0.671752
0.670041
0.668319
0.666947
0.665573
0.663769
0.658785
0.656483
0.654792
0.6531
0.651401
0.649697
0.647987
0.646278
0.644566
0.642856
0.641145
0.639489
0.638396
0.647545
0.634354
0.631915
0.630143
0.628381
0.626608
0.624833
0.623055
0.621273
0.619488
0.617699
0.615906
0.61411
0.61231
0.610506
0.608698
0.606885
0.605067
0.603246
0.601419
0.599588
0.597753
0.595911
0.594065
0.592219
0.590368
0.588595
0.587694
0.586614
0.580927
0.579043
0.577171
0.57529
0.573407
0.571519
0.569628
0.567734
0.565838
0.56394
0.56204
0.560137
0.558237
0.556337
0.554524
0.554049
0.552615
0.549449
0.547569
0.545653
0.543732
0.541806
0.539873
0.537937
0.535994
0.534067
0.532591
0.530633
0.528505
0.526565
0.524617
0.522672
0.520729
0.518788
0.516846
0.514906
0.512973
0.511044
0.509119
0.507199
0.505282
0.503369
0.50146
0.499554
0.497653
0.495751
0.493875
0.492005
0.490069
0.488188
0.486308
0.484431
0.482557
0.480685
0.478815
0.476949
0.475084
0.473222
0.471363
0.469505
0.46765
0.465796
0.463944
0.462093
0.460244
0.458396
0.456549
0.454702
0.452856
0.451011
0.449166
0.447321
0.445477
0.443632
0.441786
0.439941
0.438095
0.436248
0.434401
0.432553
0.430704
0.428855
0.427005
0.425155
0.423304
0.421453
0.419601
0.41775
0.415898
0.414048
0.412198
0.410349
0.408502
0.406656
0.404814
0.402974
0.401138
0.399305
0.397478
0.395656
0.393841
0.392032
0.390232
0.388439
0.386656
0.384884
0.383122
0.381373
0.379637
0.377915
0.376208
0.374517
0.372844
0.371188
0.369552
0.367936
0.366342
0.36477
0.363222
0.361699
0.360202
0.358731
0.357289
0.355875
0.354492
0.35314
0.35182
0.350534
0.349281
0.348064
0.346882
0.345737
0.344631
0.343562
0.342533
0.341544
0.340595
0.339687
0.338821
0.337997
0.337216
0.336479
0.335786
0.335137
0.334533
0.333973
0.333459
0.33299
0.332565
0.332186
0.331852
0.331563
0.331319
0.331119
0.330964
0.330853
0.330785
0.330761
0.330779
0.33084
0.330943
0.331088
0.331274
0.3315
0.331766
0.33207
0.332412
0.332791
0.333205
0.333654
0.334136
0.334649
0.335194
0.335768
0.336371
0.337001
0.337658
0.33834
0.339046
0.339773
0.34052
0.341286
0.342067
0.342864
0.343675
0.344497
0.345329
0.346169
0.347014
0.347861
0.348706
0.349548
0.350382
0.351201
0.351997
0.352775
0.353559
0.354343
0.355024
0.355472
0.355893
0.356992
0.359119
0.711422
0.710166
0.708852
0.70753
0.706211
0.704889
0.703564
0.702235
0.700906
0.699574
0.698242
0.696915
0.695601
0.694309
0.693397
0.693393
0.698835
0.680822
0.678789
0.677943
0.676709
0.675164
0.674322
0.673088
0.671667
0.669075
0.666784
0.665235
0.663755
0.662264
0.660761
0.659244
0.657714
0.656167
0.654608
0.653035
0.651447
0.649844
0.648225
0.646594
0.644952
0.643281
0.641447
0.640021
0.639215
0.637623
0.632731
0.630579
0.629082
0.625392
0.624325
0.627626
0.625814
0.622724
0.620252
0.618389
0.6165
0.614621
0.612746
0.610875
0.609003
0.607118
0.605223
0.603381
0.601389
0.599723
0.598964
0.599521
0.597223
0.593508
0.591142
0.58924
0.587324
0.585412
0.583502
0.581594
0.579691
0.577791
0.575887
0.573993
0.572389
0.570143
0.56823
0.566329
0.564425
0.562519
0.560609
0.5587
0.55679
0.554878
0.552968
0.551061
0.549172
0.547607
0.546158
0.54442
0.539499
0.537097
0.535218
0.53327
0.531325
0.529376
0.527425
0.525469
0.523508
0.521542
0.519571
0.51759
0.515603
0.513624
0.511644
0.509909
0.512006
0.510146
0.507047
0.505044
0.503063
0.501096
0.499147
0.497215
0.495299
0.49343
0.491673
0.490336
0.487288
0.485364
0.483523
0.481684
0.479852
0.478027
0.476211
0.47447
0.472813
0.470754
0.468972
0.467224
0.465493
0.463778
0.462078
0.460393
0.458724
0.457073
0.455434
0.453831
0.452453
0.450827
0.449182
0.447632
0.446091
0.444571
0.443074
0.441597
0.440141
0.438706
0.437289
0.435892
0.434514
0.433156
0.431816
0.430495
0.429192
0.427908
0.426642
0.425394
0.424163
0.42295
0.421753
0.420573
0.419408
0.41826
0.417126
0.416007
0.414902
0.413812
0.412734
0.411669
0.410617
0.409576
0.408547
0.407528
0.40652
0.405521
0.404532
0.40355
0.402577
0.401611
0.400652
0.399699
0.398752
0.39781
0.396872
0.395939
0.395009
0.394081
0.393156
0.392233
0.391312
0.390391
0.389471
0.388551
0.387631
0.38671
0.385788
0.384864
0.383939
0.383013
0.382083
0.381152
0.380218
0.379281
0.378341
0.377398
0.376453
0.375504
0.374553
0.373599
0.372642
0.371682
0.37072
0.369756
0.36879
0.367823
0.366854
0.365884
0.364913
0.363942
0.362971
0.362001
0.361031
0.360064
0.359098
0.358136
0.357176
0.356221
0.35527
0.354325
0.353386
0.352454
0.351529
0.350613
0.349707
0.34881
0.347923
0.347049
0.346186
0.345337
0.344501
0.343679
0.342873
0.342082
0.341307
0.34055
0.33981
0.339089
0.338387
0.337704
0.337041
0.336398
0.335777
0.335177
0.334598
0.334041
0.333506
0.332994
0.332503
0.332035
0.331588
0.331164
0.330761
0.330379
0.330018
0.329678
0.329357
0.329057
0.328775
0.328512
0.328266
0.328037
0.327823
0.327624
0.327438
0.327264
0.3271
0.326945
0.326796
0.326652
0.32651
0.326367
0.326223
0.326073
0.325914
0.325741
0.325551
0.325351
0.32514
0.324886
0.324535
0.324114
0.323844
0.323964
0.680867
0.678509
0.676037
0.674298
0.672428
0.670545
0.668657
0.666764
0.664862
0.662952
0.661043
0.659139
0.657245
0.655874
0.655194
0.656267
0.654197
0.651224
0.64802
0.646142
0.644211
0.642286
0.640388
0.638471
0.636675
0.635301
0.642644
0.631042
0.628677
0.626836
0.6251
0.623187
0.621522
0.621141
0.619541
0.617457
0.615699
0.614021
0.61235
0.610773
0.60977
0.609615
0.607586
0.599472
0.59689
0.595574
0.593932
0.592209
0.591278
0.590162
0.588906
0.581043
0.578496
0.576858
0.575188
0.573497
0.571782
0.570052
0.568314
0.56661
0.565606
0.565514
0.56529
0.563288
0.560123
0.556047
0.554327
0.552486
0.550649
0.548377
0.546445
0.544551
0.542648
0.540739
0.538824
0.536897
0.534918
0.533025
0.53168
0.529717
0.527636
0.525634
0.523706
0.521766
0.519823
0.517928
0.515985
0.513858
0.511893
0.509975
0.508045
0.506112
0.504173
0.502235
0.500177
0.498898
0.497717
0.495894
0.490403
0.487464
0.485527
0.483626
0.481719
0.479809
0.4779
0.475989
0.474074
0.472153
0.470209
0.468154
0.466825
0.469145
0.466932
0.464233
0.461635
0.459774
0.45792
0.456078
0.45425
0.452435
0.450694
0.449064
0.447473
0.44568
0.443706
0.44191
0.440188
0.43848
0.436786
0.435109
0.433455
0.431924
0.431123
0.430903
0.425891
0.424364
0.422861
0.421382
0.419929
0.418499
0.417094
0.415711
0.414378
0.4131
0.411806
0.410514
0.409211
0.408016
0.406789
0.405613
0.404381
0.403217
0.402142
0.401097
0.400082
0.399098
0.398144
0.397221
0.396328
0.395465
0.394633
0.393831
0.393057
0.392311
0.391601
0.39092
0.39027
0.389648
0.389055
0.38849
0.387953
0.387443
0.386961
0.386506
0.386076
0.385672
0.385292
0.384935
0.384602
0.384291
0.384
0.383731
0.38348
0.383247
0.383032
0.382833
0.382648
0.382478
0.38232
0.382173
0.382036
0.381908
0.381787
0.381672
0.381562
0.381455
0.38135
0.381245
0.38114
0.381032
0.38092
0.380802
0.380678
0.380546
0.380405
0.380252
0.380088
0.379909
0.379716
0.379507
0.37928
0.379034
0.378769
0.378482
0.378174
0.377842
0.377486
0.377105
0.376698
0.376264
0.375803
0.375314
0.374796
0.374249
0.373673
0.373067
0.37243
0.371763
0.371065
0.370336
0.369577
0.368788
0.367968
0.367118
0.366239
0.365331
0.364394
0.36343
0.362439
0.361422
0.36038
0.359314
0.358225
0.357114
0.355982
0.35483
0.35366
0.352473
0.35127
0.350052
0.348821
0.347577
0.346323
0.34506
0.343788
0.342511
0.341228
0.339942
0.338654
0.337365
0.336076
0.334789
0.333506
0.332226
0.330951
0.329682
0.32842
0.327165
0.325919
0.324681
0.323454
0.322236
0.321029
0.319832
0.318646
0.317471
0.316307
0.315153
0.31401
0.312876
0.31175
0.310634
0.309525
0.308422
0.307325
0.306232
0.305143
0.304054
0.302964
0.301871
0.300775
0.299675
0.298562
0.297418
0.29625
0.295116
0.29406
0.292899
0.291237
0.289118
0.641952
0.640771
0.638974
0.634222
0.63132
0.629509
0.627842
0.626119
0.624379
0.622624
0.620869
0.619116
0.617369
0.615647
0.614172
0.613537
0.612604
0.610722
0.603616
0.600228
0.598559
0.596772
0.594868
0.593298
0.592338
0.591841
0.588853
0.585538
0.583595
0.581702
0.579719
0.577711
0.575726
0.57384
0.572316
0.570079
0.569795
0.567951
0.566216
0.56506
0.565554
0.563315
0.560529
0.557375
0.555807
0.550384
0.549435
0.551556
0.549262
0.545624
0.54261
0.540464
0.53826
0.53607
0.533872
0.531668
0.529487
0.527329
0.525139
0.523409
0.522888
0.521287
0.519067
0.516852
0.514652
0.511492
0.507823
0.50585
0.503708
0.501567
0.499437
0.49732
0.495205
0.493131
0.491303
0.49085
0.488804
0.484131
0.48169
0.479627
0.477522
0.475377
0.473447
0.473657
0.471651
0.468543
0.466398
0.464324
0.462247
0.460225
0.458731
0.457908
0.455996
0.453868
0.451757
0.448172
0.445792
0.443845
0.441857
0.439835
0.437862
0.435923
0.434007
0.432119
0.430258
0.42847
0.427305
0.426822
0.42502
0.423223
0.421452
0.418532
0.416052
0.414372
0.41274
0.411125
0.409529
0.407952
0.406398
0.404864
0.403352
0.401863
0.400472
0.399234
0.397826
0.395834
0.394347
0.393025
0.391713
0.390406
0.389285
0.389143
0.39168
0.383684
0.38168
0.380495
0.379383
0.378289
0.377216
0.376165
0.375137
0.374134
0.373156
0.372204
0.371278
0.370385
0.369521
0.368767
0.368385
0.371212
0.365957
0.364927
0.364277
0.363648
0.363058
0.362503
0.361983
0.3615
0.361052
0.360639
0.360262
0.359942
0.359828
0.359275
0.359043
0.358843
0.358679
0.35855
0.358457
0.358397
0.358396
0.358395
0.358426
0.358508
0.358625
0.358777
0.358962
0.359178
0.359424
0.359702
0.360011
0.360349
0.360716
0.361108
0.361526
0.361966
0.362429
0.362912
0.363413
0.363932
0.364467
0.365015
0.365574
0.366143
0.36672
0.367302
0.367888
0.368475
0.369062
0.369647
0.370226
0.370798
0.371361
0.371912
0.372449
0.37297
0.373472
0.373953
0.374412
0.374845
0.37525
0.375625
0.375969
0.376278
0.376551
0.376785
0.37698
0.377131
0.377239
0.377301
0.377316
0.377282
0.377197
0.37706
0.37687
0.376626
0.376326
0.375971
0.375558
0.375088
0.37456
0.373973
0.373327
0.372622
0.371859
0.371037
0.370157
0.369219
0.368224
0.367173
0.366066
0.364905
0.36369
0.362424
0.361107
0.35974
0.358327
0.356867
0.355362
0.353816
0.352228
0.350602
0.348939
0.347241
0.34551
0.343749
0.341959
0.340143
0.338303
0.33644
0.334558
0.332658
0.330742
0.328812
0.32687
0.324918
0.322958
0.32099
0.319018
0.317041
0.315062
0.313082
0.311101
0.309122
0.307145
0.30517
0.303198
0.30123
0.299265
0.297305
0.295349
0.293396
0.291448
0.289503
0.287561
0.285622
0.283685
0.281749
0.279812
0.277872
0.275934
0.274002
0.272058
0.270064
0.268031
0.266103
0.264422
0.262613
0.259687
0.25546
0.600067
0.598081
0.596726
0.599352
0.596172
0.592796
0.594103
0.590534
0.589324
0.591491
0.576201
0.57407
0.571868
0.569602
0.567406
0.565332
0.563366
0.561345
0.559655
0.558568
0.556152
0.553084
0.550253
0.5481
0.545633
0.543719
0.542262
0.544239
0.541866
0.538241
0.535432
0.533232
0.530936
0.528529
0.526341
0.524111
0.521872
0.519507
0.517867
0.516436
0.514013
0.510263
0.506663
0.50632
0.50397
0.501734
0.500586
0.502157
0.499738
0.496117
0.492962
0.490993
0.48853
0.486289
0.484378
0.482238
0.477961
0.475186
0.473065
0.470661
0.468223
0.465987
0.464402
0.46344
0.460889
0.458505
0.456095
0.453529
0.449096
0.446767
0.444513
0.442139
0.439775
0.437402
0.43514
0.433195
0.432645
0.430255
0.427539
0.425732
0.423504
0.419383
0.422691
0.421111
0.413904
0.411473
0.409262
0.407032
0.404842
0.40312
0.402156
0.400382
0.398277
0.396197
0.39413
0.391679
0.388342
0.38637
0.384419
0.382493
0.380601
0.37875
0.377054
0.375476
0.373764
0.3718
0.37074
0.370438
0.368827
0.367244
0.36569
0.364156
0.362628
0.359785
0.357842
0.356488
0.355088
0.353761
0.352418
0.351141
0.34989
0.348681
0.347515
0.346384
0.345285
0.344223
0.343186
0.342295
0.342287
0.342582
0.341691
0.34078
0.339551
0.336978
0.335896
0.335089
0.334338
0.333636
0.332976
0.332356
0.331774
0.33123
0.330724
0.330257
0.329828
0.329434
0.329151
0.329397
0.330146
0.330063
0.328857
0.327496
0.327157
0.327046
0.326977
0.326944
0.326947
0.326984
0.327054
0.327157