/*--------------------------------*- C++ -*----------------------------------*\
| =========                 |                                                 |
| \\      /  F ield         | OpenFOAM: The Open Source CFD Toolbox           |
|  \\    /   O peration     | Version:  2.1.1                                 |
|   \\  /    A nd           | Web:      www.OpenFOAM.org                      |
|    \\/     M anipulation  |                                                 |
\*---------------------------------------------------------------------------*/
FoamFile
{
    version     2.0;
    format      ascii;
    class       volScalarField;
    location    "0";
    object      T;
}
// * * * * * * * * * * * * * * * * * * * * * * * * * * * * * * * * * * * * * //

dimensions      [0 0 0 1 0 0 0];

internalField uniform 573.65;

boundaryField
{
    sp1
    {
		type            symmetryPlane;
    }

    sp2
    {
		type            symmetryPlane;
    }

    Base
    {
		type            fixedValue;
        value           uniform 573.65;
    }

    FarStream
    {
        type            inletOutlet;
        inletValue      uniform 573.65;
        value           uniform 573.65;
    }

    Top
    {
        type            inletOutlet;
        inletValue      uniform 573.65;
        value           uniform 573.65;
    }

    Axis
    {
        type            symmetryPlane;
    }

    FrontNBack_pos
    {
        type            wedge;
    }

    FrontNBack_neg
    {
        type            wedge;
    }
}


// ************************************************************************* //
