/*--------------------------------*- C++ -*----------------------------------*\
| =========                 |                                                 |
| \\      /  F ield         | OpenFOAM: The Open Source CFD Toolbox           |
|  \\    /   O peration     | Version:  2.4.0                                 |
|   \\  /    A nd           | Web:      www.OpenFOAM.org                      |
|    \\/     M anipulation  |                                                 |
\*---------------------------------------------------------------------------*/
FoamFile
{
    version     2.0;
    format      ascii;
    class       volScalarField;
    location    "0.7";
    object      alpha1;
}
// * * * * * * * * * * * * * * * * * * * * * * * * * * * * * * * * * * * * * //

dimensions      [0 0 0 0 0 0 0];

internalField   nonuniform List<scalar> 
1000
(
0.0143421
0.973707
0.016526
0.984185
0.0165257
0.973707
0.0143421
0.0510566
0.996411
0.0510566
9.75146e-09
3.60446e-07
0.00219759
0.199456
0.00219776
3.6076e-07
9.84724e-09
0.00577389
0.98183
0.00577389
3.69098e-11
1.2939e-09
2.53872e-08
6.25429e-06
2.53951e-08
1.29589e-09
3.69779e-11
7.04891e-54
7.29486e-53
7.0901e-54
1.29404e-62
3.02818e-61
4.50994e-60
4.34517e-58
4.51731e-60
3.02654e-61
1.29146e-62
4.09417e-79
1.03066e-104
3.17672e-83
2.18401e-70
5.31605e-69
7.8521e-68
7.80635e-66
7.86533e-68
5.31144e-69
2.17926e-70
2.42612e-80
6.71827e-110
1.14069e-83
6.84353e-76
1.76439e-74
2.66066e-73
2.71229e-71
2.665e-73
1.76251e-74
6.82797e-76
5.21894e-84
5.94986e-111
5.62016e-84
3.35579e-79
9.1697e-78
1.41323e-76
1.44778e-74
1.41537e-76
9.15926e-78
3.34814e-79
2.00736e-84
6.95383e-112
1.98983e-84
6.52466e-81
1.89365e-79
2.96608e-78
2.96086e-76
2.97022e-78
1.89165e-79
6.51054e-81
2.41187e-85
1.05905e-112
2.75407e-85
4.11278e-82
1.31786e-80
2.19307e-79
2.17012e-77
2.1959e-79
1.31675e-80
4.10454e-82
6.44348e-86
2.27437e-113
6.75189e-86
3.80877e-83
1.39877e-81
2.57794e-80
2.58297e-78
2.58108e-80
1.39804e-81
3.80185e-83
1.25475e-86
6.01167e-114
1.26487e-86
4.16655e-84
1.8203e-82
3.85314e-81
3.97619e-79
3.85769e-81
1.82008e-82
4.15992e-84
2.09102e-87
1.69192e-114
2.11292e-87
4.88283e-85
2.64812e-83
6.6733e-82
7.18689e-80
6.68122e-82
2.64917e-83
4.87648e-85
3.24539e-88
4.76628e-115
3.31138e-88
5.75228e-86
4.08804e-84
1.27559e-82
1.44816e-80
1.27716e-82
4.09237e-84
5.74704e-86
4.74534e-89
1.31921e-115
4.82994e-89
6.43632e-87
6.46159e-85
2.61408e-83
3.15164e-81
2.61751e-83
6.47412e-85
6.43429e-87
5.93859e-90
3.56825e-116
6.04079e-90
6.41004e-88
1.01785e-85
5.6364e-84
7.25375e-82
5.64445e-84
1.02105e-85
6.41441e-88
5.90154e-91
9.41088e-117
5.99523e-91
5.21501e-89
1.57314e-86
1.26228e-84
1.73971e-82
1.26426e-84
1.58064e-86
5.22692e-89
4.09512e-92
2.41562e-117
4.15674e-92
2.9833e-90
2.39772e-87
2.90899e-85
4.301e-83
2.91407e-85
2.4139e-87
2.99209e-90
1.56994e-93
6.02216e-118
1.59477e-93
3.96384e-92
3.59962e-88
6.85091e-86
1.08709e-83
6.86421e-86
3.63129e-88
3.85622e-92
2.69629e-95
1.45499e-118
2.79723e-95
1.51866e-96
4.62043e-89
1.63993e-86
2.79108e-84
1.64346e-86
4.6762e-89
1.34972e-95
2.06271e-98
3.40063e-119
4.41631e-99
2.75209e-101
3.82203e-90
3.97256e-87
7.24217e-85
3.98203e-87
3.90232e-90
5.13079e-101
1.21622e-102
7.67983e-120
5.67376e-103
3.30274e-111
1.49918e-95
9.70187e-88
1.89125e-85
9.72737e-88
1.10351e-99
4.23503e-111
7.76031e-108
1.69028e-120
6.22124e-108
1.58347e-111
3.27352e-100
2.38146e-88
4.95364e-86
2.3883e-88
3.89584e-100
2.02582e-111
3.55082e-108
3.58669e-121
2.84683e-108
7.50074e-112
1.14951e-100
5.86492e-89
1.29764e-86
5.88322e-89
1.36784e-100
9.57927e-112
1.60627e-108
7.32415e-122
1.28792e-108
3.53058e-112
4.01444e-101
1.44613e-89
3.39151e-87
1.451e-89
4.77615e-101
4.50119e-112
7.18261e-109
1.43646e-122
5.75956e-109
1.6645e-112
1.39423e-101
3.56361e-90
8.82574e-88
3.57649e-90
1.65852e-101
2.11871e-112
3.17433e-109
2.70013e-123
2.54565e-109
7.94012e-113
4.81511e-102
8.76217e-91
2.2828e-88
8.79597e-91
5.72699e-102
1.00872e-112
1.38631e-109
4.85332e-124
1.11186e-109
3.8161e-113
1.65342e-102
2.1466e-91
5.85992e-89
2.15538e-91
1.96625e-102
4.84005e-113
5.98205e-110
8.32107e-125
4.79822e-110
1.83651e-113
5.64407e-103
5.23297e-92
1.49095e-89
5.25557e-92
6.7109e-103
2.3257e-113
2.5501e-110
1.35718e-125
2.04565e-110
8.78658e-114
1.9149e-103
1.26795e-92
3.75575e-90
1.2737e-92
2.27651e-103
1.11062e-113
1.07381e-110
2.09963e-126
8.61483e-111
4.15513e-114
6.45575e-104
3.05044e-93
9.35797e-91
3.06486e-93
7.67371e-104
5.24005e-114
4.46588e-111
3.07121e-127
3.58321e-111
1.93385e-114
2.16216e-104
7.27972e-94
2.30442e-91
7.31543e-94
2.56971e-104
2.4338e-114
1.83418e-111
4.23286e-128
1.47182e-111
8.83789e-115
7.19216e-105
1.72182e-94
5.60451e-92
1.73053e-94
8.54657e-105
1.11046e-114
7.43841e-112
5.47639e-129
5.96955e-112
3.9669e-115
2.37543e-105
4.03314e-95
1.34541e-92
4.0541e-95
2.82236e-105
4.98104e-115
2.97834e-112
6.62481e-130
2.39049e-112
1.75048e-115
7.78777e-106
9.34926e-96
3.18641e-93
9.3989e-96
9.25172e-106
2.19776e-115
1.17726e-112
7.46293e-131
9.45018e-113
7.59048e-116
2.53367e-106
2.14345e-96
7.44224e-94
2.15503e-96
3.00953e-106
9.52236e-116
4.59331e-113
7.79867e-132
3.68766e-113
3.22835e-116
8.17755e-107
4.85747e-97
1.71365e-94
4.88406e-97
9.71211e-107
4.04497e-116
1.76884e-113
7.53707e-133
1.42027e-113
1.34429e-116
2.61762e-107
1.08755e-97
3.88907e-95
1.09356e-97
3.10841e-107
1.68262e-116
6.7222e-114
6.76747e-134
5.39826e-114
5.46296e-117
8.30749e-108
2.40458e-98
8.69745e-96
2.41796e-98
9.86383e-108
6.83285e-117
2.52086e-114
5.61485e-135
2.02466e-114
2.15759e-117
2.61326e-108
5.2483e-99
1.91646e-96
5.27764e-99
3.10244e-108
2.69732e-117
9.32737e-115
4.30439e-136
7.49249e-115
8.27446e-118
8.14547e-109
1.13044e-99
4.16036e-97
1.13677e-99
9.66901e-109
1.03427e-117
3.40482e-115
3.06703e-137
2.73544e-115
3.09099e-118
2.51501e-109
2.40219e-100
8.89745e-98
2.41564e-100
2.98505e-109
3.86289e-118
1.22602e-115
2.04351e-138
9.85141e-116
1.12762e-118
7.68994e-110
5.03505e-101
1.87455e-98
5.0632e-101
9.12608e-110
1.40867e-118
4.35422e-116
1.27299e-139
3.49929e-116
4.02393e-119
2.32776e-110
1.04078e-101
3.89079e-99
1.04658e-101
2.76216e-110
5.02396e-119
1.52499e-116
7.30515e-141
1.22576e-116
1.40619e-119
6.97359e-111
2.12139e-102
7.95624e-100
2.13315e-102
8.27406e-111
1.7547e-119
5.26619e-117
3.74073e-142
4.2336e-117
4.8162e-120
2.06704e-111
4.26323e-103
1.60303e-100
4.28674e-103
2.45225e-111
6.00731e-120
1.7928e-117
1.6322e-143
1.44152e-117
1.61773e-120
6.06027e-112
8.44681e-104
3.18257e-101
8.49307e-104
7.18888e-112
2.01724e-120
6.01584e-118
5.72993e-145
4.83795e-118
5.33213e-121
1.75694e-112
1.64993e-104
6.22686e-102
1.6589e-104
2.08392e-112
6.64771e-121
1.98935e-118
1.50256e-146
1.60013e-118
1.7252e-121
5.0352e-113
3.1773e-105
1.20079e-102
3.19442e-105
5.97172e-113
2.15059e-121
6.4818e-119
2.61076e-148
5.21461e-119
5.48049e-122
1.42609e-113
6.03218e-106
2.28261e-103
6.06441e-106
1.69118e-113
6.83063e-122
2.08048e-119
2.2473e-150
1.67407e-119
1.70966e-122
3.99047e-114
1.1291e-106
4.27786e-104
1.13508e-106
4.73178e-114
2.13026e-122
6.57691e-120
1.2689e-179
5.29321e-120
5.23777e-123
1.10285e-114
2.08378e-107
7.90526e-105
2.09471e-107
1.30761e-114
6.52374e-123
2.04729e-120
2.2816e-180
1.64802e-120
1.57584e-123
3.00956e-115
3.79195e-108
1.44067e-105
3.81164e-108
3.56802e-115
1.96191e-123
6.27381e-121
4.06215e-181
5.05133e-121
4.65567e-124
8.1068e-116
6.80449e-109
2.58965e-106
6.83946e-109
9.61032e-116
5.79384e-124
1.89223e-121
7.16036e-182
1.52384e-121
1.35056e-124
2.1549e-116
1.20416e-109
4.59205e-107
1.21028e-109
2.55435e-116
1.68006e-124
5.61554e-122
1.24948e-182
4.52324e-122
3.84629e-125
5.65067e-117
2.10165e-110
8.0339e-108
2.11223e-110
6.69761e-117
4.78299e-125
1.63932e-122
2.15812e-183
1.32074e-122
1.07522e-125
1.46127e-117
3.61796e-111
1.38694e-108
3.63599e-111
1.73188e-117
1.33665e-125
4.70611e-123
3.68899e-184
3.79238e-123
2.94998e-126
3.72539e-118
6.14362e-112
2.36298e-109
6.17393e-112
4.41497e-118
3.66602e-126
1.32815e-123
6.23936e-185
1.07052e-123
7.94134e-127
9.35998e-119
1.02914e-112
3.97359e-110
1.03417e-112
1.10917e-118
9.86558e-127
3.68357e-124
1.04394e-185
2.96971e-124
2.09694e-127
2.31674e-119
1.70076e-113
6.59588e-111
1.70898e-113
2.74519e-119
2.60425e-127
1.00361e-124
1.72747e-186
8.09306e-125
5.42942e-128
5.64691e-120
2.77302e-114
1.08086e-111
2.78629e-114
6.69077e-120
6.74116e-128
2.68513e-125
2.82627e-187
2.16578e-125
1.37807e-128
1.35485e-120
4.46089e-115
1.74868e-112
4.48202e-115
1.60519e-120
1.71051e-128
7.05146e-126
4.5704e-188
5.68892e-126
3.42739e-129
3.19828e-121
7.08043e-116
2.79327e-113
7.11366e-116
3.78901e-121
4.25288e-129
1.81677e-126
7.30264e-189
1.46607e-126
8.34899e-130
7.42466e-122
1.10884e-116
4.40553e-114
1.114e-116
8.79545e-122
1.03565e-129
4.58996e-127
1.15246e-189
3.70482e-127
1.99099e-130
1.69408e-122
1.71335e-117
6.8607e-115
1.72124e-117
2.00673e-122
2.4689e-130
1.13648e-127
1.79558e-190
9.17534e-128
4.64553e-131
3.79693e-123
2.61194e-118
1.0549e-115
2.62386e-118
4.49739e-123
5.75866e-131
2.75609e-128
2.7607e-191
2.22566e-128
1.05992e-131
8.3539e-124
3.92813e-119
1.60142e-116
3.94591e-119
9.89442e-124
1.31343e-131
6.54211e-129
4.18646e-192
5.28429e-129
2.36322e-132
1.80299e-124
5.82715e-120
2.39993e-117
5.85329e-120
2.13535e-124
2.92742e-132
1.51888e-129
6.25812e-193
1.22714e-129
5.1454e-133
3.8142e-125
8.52492e-121
3.54992e-118
8.56286e-121
4.51702e-125
6.37151e-133
3.44643e-130
9.21591e-194
2.78511e-130
1.09316e-133
7.90215e-126
1.22963e-121
5.18159e-119
1.23506e-121
9.35766e-126
1.35316e-133
7.63633e-131
1.33607e-194
6.17245e-131
2.26426e-134
1.6018e-126
1.74805e-122
7.46084e-120
1.7557e-122
1.89672e-126
2.8018e-134
1.6507e-131
1.90536e-195
1.33456e-131
4.56832e-135
3.1735e-127
2.44809e-123
1.05926e-120
2.45872e-123
3.75757e-127
5.6508e-135
3.4776e-132
2.67058e-196
2.81222e-132
8.96891e-136
6.1383e-128
3.37549e-124
1.48202e-121
3.39003e-124
7.26757e-128
1.109e-135
7.13257e-133
3.67529e-197
5.76914e-133
1.71162e-136
1.1577e-128
4.57882e-125
2.0419e-122
4.59839e-125
1.3706e-128
2.11559e-136
1.4225e-133
4.96086e-198
1.15082e-133
3.17137e-137
2.12617e-129
6.10482e-126
2.76784e-123
6.13072e-126
2.51701e-129
3.91821e-137
2.75508e-134
6.55943e-199
2.22938e-134
5.69775e-138
3.7968e-130
7.99101e-127
3.68715e-124
8.02465e-127
4.49445e-130
7.03633e-138
5.17475e-135
8.48434e-200
4.18819e-135
9.9122e-139
6.58204e-131
1.02552e-127
4.82057e-125
1.02981e-127
7.79098e-131
1.22349e-138
9.41141e-136
1.07186e-200
7.61866e-136
1.66718e-139
1.1058e-131
1.28826e-128
6.17544e-126
1.2936e-128
1.30881e-131
2.05681e-139
1.65468e-136
1.32031e-201
1.33974e-136
2.70653e-140
1.79698e-132
1.58111e-129
7.73724e-127
1.5876e-129
2.12675e-132
3.33739e-140
2.80729e-137
1.58268e-202
2.27339e-137
4.23324e-141
2.81885e-133
1.89183e-130
9.46054e-128
1.89953e-130
3.33592e-133
5.21736e-141
4.58693e-138
1.84229e-203
3.71524e-138
6.36651e-142
4.25885e-134
2.20141e-131
1.12614e-128
2.21029e-131
5.03973e-134
7.84268e-142
7.20258e-139
2.0775e-204
5.83483e-139
9.18662e-143
6.1822e-135
2.48445e-132
1.3014e-129
2.49437e-132
7.31523e-135
1.13112e-142
1.08434e-139
2.26361e-205
8.78575e-140
1.26877e-143
8.59924e-136
2.71106e-133
1.45556e-130
2.72177e-133
1.01745e-135
1.56144e-143
1.56111e-140
2.37619e-206
1.26507e-140
1.67258e-144
1.14278e-136
2.85074e-134
1.57023e-131
2.86187e-134
1.35203e-136
2.05736e-144
2.14314e-141
2.39544e-207
1.737e-141
2.09841e-145
1.4462e-137
2.87779e-135
1.62765e-132
2.88888e-135
1.71089e-137
2.57978e-145
2.79664e-142
2.31086e-208
2.26699e-142
2.49741e-146
1.73652e-138
2.77745e-136
1.61434e-133
2.788e-136
2.05419e-138
3.06859e-146
3.45663e-143
2.12487e-209
2.80238e-143
2.80918e-147
1.97034e-139
2.5511e-137
1.52489e-134
2.56064e-137
2.33062e-139
3.44969e-147
4.03055e-144
1.85417e-210
3.26812e-144
2.97384e-148
2.10284e-140
2.21861e-138
1.36469e-135
2.22677e-138
2.48716e-140
3.64978e-148
4.41372e-145
1.52782e-211
3.57928e-145
2.94832e-149
2.09983e-141
1.81641e-139
1.15035e-136
1.82296e-139
2.48341e-141
3.61632e-149
4.51566e-146
1.18213e-212
3.66241e-146
2.72177e-150
1.94998e-142
1.39089e-140
9.07285e-138
1.39579e-140
2.306e-142
3.33648e-150
4.2905e-147
8.53376e-214
3.48022e-147
2.32376e-151
1.67206e-143
9.88681e-142
6.64416e-139
9.92084e-142
1.97719e-143
2.84691e-151
3.75936e-148
5.70501e-215
3.04975e-148
1.81985e-152
1.31276e-144
6.46688e-143
4.47738e-140
6.48857e-143
1.5522e-144
2.22827e-152
3.0124e-149
3.50109e-216
2.44406e-149
1.2943e-153
9.3413e-146
3.85187e-144
2.74695e-141
3.86443e-144
1.10442e-145
1.5839e-153
2.18535e-150
1.95171e-217
1.77324e-150
8.25596e-155
5.94928e-147
2.06281e-145
1.51446e-142
2.06934e-145
7.03327e-147
1.0098e-154
1.41752e-151
9.7566e-219
1.15033e-151
4.64858e-156
3.33783e-148
9.77544e-147
7.38151e-144
9.80555e-147
3.94567e-148
5.68305e-156
8.09253e-153
4.30352e-220
6.5679e-153
2.26257e-157
1.61584e-149
4.01536e-148
3.11392e-145
4.02742e-148
1.90994e-149
2.76489e-157
3.98318e-154
1.64001e-221
3.23309e-154
9.25078e-159
6.56122e-151
1.39003e-149
1.10475e-146
1.39412e-149
7.75476e-151
1.13005e-158
1.64335e-155
5.2475e-223
1.33402e-155
3.0484e-160
2.14506e-152
3.89389e-151
3.1625e-148
3.90522e-151
2.53505e-152
3.72277e-160
5.4558e-157
1.35279e-224
4.42929e-157
7.58553e-162
5.29274e-154
8.27774e-153
6.84393e-150
8.30182e-153
6.25444e-154
9.26157e-162
1.36646e-158
2.6332e-226
1.10947e-158
1.26648e-163
8.75931e-156
1.18823e-154
9.94414e-152
1.1917e-154
1.035e-155
1.54607e-163
2.29511e-160
3.43877e-228
1.86366e-160
1.08171e-165
7.2882e-158
8.79135e-157
7.26164e-154
8.8172e-157
8.61096e-158
1.3204e-165
1.93866e-162
2.25937e-230
1.57436e-162
)
;

boundaryField
{
    BotWall
    {
        type            constantAlphaContactAngle;
        gradient        nonuniform List<scalar> 10(3993.78 9.21455 43.4227 0.00292897 43.4229 9.21259 3993.77 4250.82 20.2132 4250.82);
        limit           gradient;
        theta0          30;
        value           nonuniform List<scalar> 10(0.0281779 0.973739 0.0166765 0.984185 0.0166761 0.973738 0.0281779 0.0657829 0.996481 0.0657829);
    }
    FreeStream
    {
        type            inletOutlet;
        inletValue      uniform 0;
        value           uniform 0;
    }
    FrontNBack
    {
        type            empty;
    }
    LeftSide
    {
        type            cyclic;
    }
    RightSide
    {
        type            cyclic;
    }
}


// ************************************************************************* //
