/*--------------------------------*- C++ -*----------------------------------*\
| =========                 |                                                 |
| \\      /  F ield         | OpenFOAM: The Open Source CFD Toolbox           |
|  \\    /   O peration     | Version:  2.4.0                                 |
|   \\  /    A nd           | Web:      www.OpenFOAM.org                      |
|    \\/     M anipulation  |                                                 |
\*---------------------------------------------------------------------------*/
FoamFile
{
    version     2.0;
    format      ascii;
    class       volScalarField;
    location    "0.7";
    object      H;
}
// * * * * * * * * * * * * * * * * * * * * * * * * * * * * * * * * * * * * * //

dimensions      [0 2 -2 0 0 0 0];

internalField   nonuniform List<scalar> 
1000
(
-2263.39
-7732.39
-2053.34
-9110.43
-2053.37
-7731.12
-2263.37
-1302.47
-8534.33
-1302.47
-1879.08
-5578.04
-2082.55
-8780.85
-2082.72
-5576.9
-1879.01
-1161.79
-2464.72
-1161.79
-1799.37
-5097.52
-1920.61
-6394.41
-1920.87
-5095.93
-1799.25
-1009.06
-1781.34
-1009.06
-1715.25
-4665.9
-1837.62
-6063.3
-1837.96
-4664
-1715.09
-953.132
-1633.02
-953.128
-1628.73
-4276.51
-1753.02
-5745.54
-1753.41
-4274.43
-1628.55
-899.273
-1496.4
-899.269
-1541.37
-3924.1
-1667.06
-5437.99
-1667.48
-3921.94
-1541.17
-847.516
-1370.56
-847.511
-1454.34
-3604.29
-1580.25
-5139.29
-1580.66
-3602.15
-1454.14
-797.875
-1254.7
-797.868
-1368.55
-3313.36
-1493.22
-4848.8
-1493.62
-3311.3
-1368.35
-750.346
-1148.05
-750.34
-1284.69
-3048.07
-1406.69
-4566.35
-1407.06
-3046.15
-1284.5
-704.918
-1049.93
-704.911
-1203.28
-2805.61
-1321.38
-4292.09
-1321.72
-2803.85
-1203.1
-661.567
-959.698
-661.559
-1124.7
-2583.52
-1237.95
-4026.41
-1238.25
-2581.94
-1124.54
-620.262
-876.778
-620.254
-1049.25
-2379.66
-1156.98
-3769.78
-1157.25
-2378.26
-1049.1
-580.965
-800.626
-580.957
-977.131
-2192.15
-1078.95
-3522.73
-1079.19
-2190.92
-977.001
-543.631
-730.738
-543.622
-908.466
-2019.36
-1004.25
-3285.75
-1004.45
-2018.3
-908.354
-508.209
-666.642
-508.202
-843.334
-1859.87
-933.143
-3059.29
-933.323
-1858.96
-843.24
-474.647
-607.9
-474.64
-781.763
-1712.45
-865.812
-2843.69
-865.971
-1711.67
-781.685
-442.886
-554.099
-442.879
-723.741
-1576
-802.348
-2639.17
-802.489
-1575.33
-723.68
-412.866
-504.853
-412.859
-669.229
-1449.58
-742.768
-2445.83
-742.894
-1449.02
-669.182
-384.523
-459.801
-384.516
-618.141
-1332.39
-687.026
-2263.66
-687.139
-1331.92
-618.107
-357.793
-418.606
-357.786
-570.323
-1223.75
-635.028
-2092.52
-635.13
-1223.35
-570.301
-332.612
-380.956
-332.606
-525.624
-1123.06
-586.644
-1932.19
-586.737
-1122.72
-525.612
-308.918
-346.558
-308.911
-483.896
-1029.78
-541.694
-1782.34
-541.779
-1029.51
-483.892
-286.647
-315.144
-286.64
-444.991
-943.468
-499.962
-1642.6
-500.04
-943.242
-444.994
-265.737
-286.466
-265.73
-408.766
-863.673
-461.24
-1512.52
-461.312
-863.488
-408.775
-246.126
-260.295
-246.12
-375.082
-789.982
-425.326
-1391.64
-425.393
-789.832
-375.096
-227.755
-236.419
-227.749
-343.801
-722
-392.03
-1279.47
-392.091
-721.881
-343.819
-210.565
-214.645
-210.558
-314.791
-659.351
-361.17
-1175.51
-361.228
-659.257
-314.811
-194.495
-194.795
-194.488
-287.92
-601.677
-332.579
-1079.26
-332.632
-601.604
-287.942
-179.49
-176.705
-179.483
-263.066
-548.635
-306.096
-990.239
-306.145
-548.581
-263.089
-165.494
-160.226
-165.487
-240.105
-499.903
-281.575
-907.967
-281.621
-499.864
-240.129
-152.452
-145.22
-152.446
-218.921
-455.172
-258.877
-831.994
-258.92
-455.146
-218.946
-140.313
-131.561
-140.306
-199.402
-414.152
-237.875
-761.884
-237.916
-414.136
-199.427
-129.025
-119.132
-129.018
-181.44
-376.568
-218.451
-697.23
-218.488
-376.561
-181.464
-118.539
-107.827
-118.532
-164.93
-342.163
-200.492
-637.643
-200.527
-342.163
-164.954
-108.809
-97.5483
-108.802
-149.775
-310.693
-183.897
-582.76
-183.929
-310.699
-149.798
-99.7881
-88.2072
-99.7817
-135.881
-281.931
-168.568
-532.241
-168.598
-281.941
-135.903
-91.434
-79.7213
-91.4278
-123.157
-255.665
-154.418
-485.766
-154.445
-255.678
-123.178
-83.705
-72.0157
-83.699
-111.519
-231.695
-141.361
-443.038
-141.387
-231.71
-111.539
-76.5611
-65.0216
-76.5554
-100.887
-209.837
-129.322
-403.778
-129.345
-209.854
-100.906
-69.9648
-58.6761
-69.9593
-91.1852
-189.919
-118.226
-367.73
-118.247
-189.937
-91.2028
-63.8799
-52.9216
-63.8747
-82.3421
-171.782
-108.006
-334.65
-108.026
-171.801
-82.3586
-58.2724
-47.7055
-58.2674
-74.2906
-155.278
-98.5992
-304.316
-98.6174
-155.297
-74.3061
-53.1097
-42.9797
-53.105
-66.9681
-140.27
-89.9462
-276.518
-89.9628
-140.289
-66.9824
-48.3613
-38.7001
-48.3569
-60.3154
-126.632
-81.9918
-251.063
-82.0069
-126.651
-60.3287
-43.9982
-34.8266
-43.994
-54.2778
-114.247
-74.6846
-227.769
-74.6983
-114.265
-54.29
-39.9929
-31.3224
-39.989
-48.804
-103.006
-67.9766
-206.47
-67.9891
-103.024
-48.8152
-36.3198
-28.1539
-36.3161
-43.8463
-92.8122
-61.823
-187.009
-61.8344
-92.8289
-43.8565
-32.9544
-25.2905
-32.951
-39.3604
-83.5728
-56.1821
-169.241
-56.1924
-83.5886
-39.3698
-29.8741
-22.7044
-29.8709
-35.3053
-75.2042
-51.015
-153.033
-51.0243
-75.2191
-35.3139
-27.0573
-20.3698
-27.0544
-31.6431
-67.6293
-46.2854
-138.259
-46.2937
-67.6432
-31.6509
-24.4841
-18.2637
-24.4814
-28.3388
-60.7772
-41.9595
-124.804
-41.967
-60.7902
-28.3459
-22.1356
-16.3647
-22.1331
-25.3601
-54.5829
-38.006
-112.56
-38.0127
-54.595
-25.3665
-19.9943
-14.6535
-19.992
-22.6771
-48.9871
-34.3956
-101.428
-34.4017
-48.9983
-22.6829
-18.0437
-13.1125
-18.0416
-20.2627
-43.9351
-31.1012
-91.3158
-31.1067
-43.9454
-20.2679
-16.2686
-11.7256
-16.2667
-18.0918
-39.3771
-28.0976
-82.1379
-28.1025
-39.3866
-18.0964
-14.6548
-10.4782
-14.653
-16.1413
-35.2675
-25.3613
-73.8155
-25.3657
-35.2761
-16.1455
-13.1889
-9.35694
-13.1873
-14.3903
-31.5645
-22.8707
-66.2758
-22.8746
-31.5725
-14.3941
-11.8588
-8.34974
-11.8573
-12.8197
-28.2303
-20.6056
-59.4512
-20.6091
-28.2375
-12.8231
-10.6529
-7.44559
-10.6516
-11.412
-25.23
-18.5473
-53.2796
-18.5504
-25.2365
-11.415
-9.56074
-6.63446
-9.55951
-10.1512
-22.532
-16.6786
-47.7037
-16.6813
-22.5379
-10.1538
-8.5725
-5.90728
-8.57138
-9.02275
-20.1074
-14.9835
-42.6707
-14.9859
-20.1128
-9.02514
-7.67913
-5.25579
-7.67812
-8.0136
-17.9301
-13.4472
-38.132
-13.4494
-17.935
-8.01573
-6.8723
-4.67251
-6.87139
-7.11176
-15.9761
-12.0561
-34.0428
-12.058
-15.9805
-7.11365
-6.1443
-4.15065
-6.14348
-6.3064
-14.2238
-10.7977
-30.3622
-10.7994
-14.2277
-6.30807
-5.48805
-3.68406
-5.48731
-5.58769
-12.6534
-9.66023
-27.0524
-9.66174
-12.6569
-5.58917
-4.89704
-3.26718
-4.89637
-4.94677
-11.2469
-8.63314
-24.0789
-8.63447
-11.2501
-4.94808
-4.36526
-2.89496
-4.36466
-4.37561
-9.98825
-7.70656
-21.4101
-7.70773
-9.99106
-4.37677
-3.88724
-2.56286
-3.8867
-3.86698
-8.8626
-6.87144
-19.0171
-6.87247
-8.86511
-3.86799
-3.45794
-2.26676
-3.45746
-3.41433
-7.85665
-6.11947
-16.8735
-6.12037
-7.85888
-3.41522
-3.07275
-2.00294
-3.07231
-3.01178
-6.95829
-5.44303
-14.955
-5.44383
-6.96028
-3.01257
-2.72745
-1.76806
-2.72707
-2.65404
-6.15662
-4.83513
-13.2397
-4.83583
-6.15837
-2.65473
-2.41821
-1.55909
-2.41787
-2.33633
-5.44174
-4.28937
-11.7077
-4.28998
-5.44329
-2.33693
-2.14152
-1.3733
-2.14121
-2.05437
-4.80472
-3.79988
-10.3405
-3.80041
-4.80609
-2.0549
-1.89417
-1.20825
-1.8939
-1.80431
-4.2375
-3.36129
-9.12169
-3.36176
-4.23871
-1.80477
-1.67326
-1.06174
-1.67303
-1.5827
-3.73282
-2.96873
-8.03618
-2.96913
-3.73389
-1.5831
-1.47615
-0.931765
-1.47594
-1.38643
-3.28412
-2.61772
-7.07032
-2.61807
-3.28505
-1.38678
-1.30044
-0.816561
-1.30025
-1.21273
-2.88548
-2.30418
-6.21175
-2.30448
-2.8863
-1.21304
-1.14393
-0.714526
-1.14377
-1.05913
-2.53159
-2.02442
-5.44927
-2.02468
-2.5323
-1.05939
-1.00468
-0.624226
-1.00453
-0.923388
-2.21766
-1.77506
-4.77277
-1.77528
-2.21828
-0.923613
-0.880874
-0.544374
-0.880748
-0.803525
-1.9394
-1.55304
-4.1731
-1.55323
-1.93994
-0.80372
-0.770914
-0.473821
-0.770804
-0.697766
-1.69293
-1.35557
-3.64203
-1.35574
-1.6934
-0.697934
-0.673338
-0.411535
-0.673241
-0.604525
-1.47479
-1.18015
-3.17212
-1.1803
-1.4752
-0.604669
-0.586829
-0.356597
-0.586745
-0.522388
-1.28186
-1.02449
-2.7567
-1.02462
-1.28221
-0.522511
-0.510202
-0.308181
-0.510128
-0.450096
-1.11136
-0.886532
-2.38975
-0.886637
-1.11167
-0.450201
-0.442387
-0.265555
-0.442324
-0.386525
-0.960789
-0.764405
-2.06588
-0.764494
-0.96105
-0.386614
-0.382426
-0.228061
-0.382372
-0.330677
-0.827905
-0.656432
-1.78024
-0.656508
-0.828127
-0.330753
-0.329454
-0.195115
-0.329408
-0.281664
-0.710708
-0.561101
-1.52848
-0.561164
-0.710897
-0.281727
-0.282697
-0.166197
-0.282657
-0.238695
-0.607409
-0.477047
-1.30673
-0.477101
-0.607569
-0.238748
-0.241459
-0.140843
-0.241425
-0.201069
-0.516411
-0.403048
-1.11149
-0.403093
-0.516546
-0.201113
-0.205117
-0.118641
-0.205088
-0.168164
-0.436286
-0.338005
-0.939667
-0.338042
-0.436399
-0.168201
-0.173113
-0.0992252
-0.173089
-0.139429
-0.365761
-0.280934
-0.788476
-0.280963
-0.365855
-0.13946
-0.144949
-0.0822709
-0.144929
-0.114375
-0.303702
-0.230952
-0.655442
-0.230976
-0.303778
-0.1144
-0.120178
-0.0674896
-0.120161
-0.0925701
-0.249096
-0.187273
-0.538355
-0.187292
-0.249157
-0.0925896
-0.0984011
-0.0546261
-0.0983877
-0.0736309
-0.201043
-0.149195
-0.435248
-0.14921
-0.201092
-0.0736462
-0.0792642
-0.0434545
-0.0792535
-0.0572202
-0.158743
-0.116091
-0.344369
-0.116102
-0.158781
-0.057232
-0.0624503
-0.0337748
-0.062442
-0.04304
-0.121485
-0.0874041
-0.264165
-0.0874128
-0.121514
-0.0430488
-0.0476779
-0.0254106
-0.0476716
-0.0308276
-0.08864
-0.0626414
-0.193257
-0.0626476
-0.0886603
-0.0308338
-0.0346971
-0.018206
-0.0346927
-0.0203519
-0.0596519
-0.0413653
-0.130431
-0.0413694
-0.0596652
-0.020356
-0.0232872
-0.012024
-0.0232842
-0.0114097
-0.0340335
-0.0231901
-0.074617
-0.0231924
-0.034041
-0.011412
-0.0132535
-0.00674363
-0.0132518
-0.00382316
-0.0113599
-0.00777715
-0.0248883
-0.00777792
-0.0113624
-0.00382392
-0.0044257
-0.00225884
-0.00442515
)
;

boundaryField
{
    BotWall
    {
        type            zeroGradient;
    }
    FreeStream
    {
        type            zeroGradient;
    }
    FrontNBack
    {
        type            empty;
    }
    LeftSide
    {
        type            cyclic;
    }
    RightSide
    {
        type            cyclic;
    }
}


// ************************************************************************* //
