/*--------------------------------*- C++ -*----------------------------------*\
| =========                 |                                                 |
| \\      /  F ield         | OpenFOAM: The Open Source CFD Toolbox           |
|  \\    /   O peration     | Version:  2.4.0                                 |
|   \\  /    A nd           | Web:      www.OpenFOAM.org                      |
|    \\/     M anipulation  |                                                 |
\*---------------------------------------------------------------------------*/
FoamFile
{
    version     2.0;
    format      ascii;
    class       volScalarField;
    location    "0.7";
    object      p;
}
// * * * * * * * * * * * * * * * * * * * * * * * * * * * * * * * * * * * * * //

dimensions      [1 -1 -2 0 0 0 0];

internalField   nonuniform List<scalar> 
1000
(
1.14831
93.629
0.727216
46.1477
0.727175
93.629
1.14831
0.328216
2.00095
0.328212
-0.000427925
-0.0274688
0.0268422
0.0546375
0.02684
-0.0274539
-0.000429518
0.543977
1.35853
0.543973
-0.000238733
0.00946494
-0.00824842
-0.0104397
-0.00825585
0.00948003
-0.000240345
-0.00129119
-0.0288125
-0.00129564
-0.00289374
0.00373455
-0.010381
-0.00885889
-0.0103882
0.00374953
-0.00289536
-0.00310431
0.00488233
-0.00310877
-0.00424284
-0.000481559
-0.0118574
-0.0094383
-0.0118643
-0.000466737
-0.00424447
-0.0045175
-0.000427895
-0.00452198
-0.00489868
-0.00195049
-0.0124759
-0.0100851
-0.0124826
-0.00193581
-0.00490031
-0.00527205
-0.00417425
-0.00527654
-0.00547761
-0.00261246
-0.012898
-0.0105876
-0.0129045
-0.0025979
-0.00547924
-0.00585774
-0.00538201
-0.00586223
-0.00611168
-0.00331973
-0.0133539
-0.0110431
-0.0133601
-0.0033053
-0.00611331
-0.00646531
-0.00587177
-0.0064698
-0.0067764
-0.00412364
-0.0138469
-0.011509
-0.0138529
-0.00410936
-0.00677802
-0.00710305
-0.00641877
-0.00710753
-0.00744915
-0.00495104
-0.0143533
-0.011993
-0.014359
-0.00493689
-0.00745075
-0.00775256
-0.00706412
-0.00775704
-0.00812511
-0.00577216
-0.0148652
-0.0124907
-0.0148707
-0.00575816
-0.00812671
-0.00840678
-0.00773905
-0.00841125
-0.00880512
-0.0065856
-0.0153826
-0.013
-0.015388
-0.00657176
-0.00880671
-0.00906537
-0.0084163
-0.00906982
-0.00948992
-0.00739439
-0.0159064
-0.0135202
-0.0159116
-0.00738072
-0.0094915
-0.00972895
-0.00909464
-0.00973338
-0.0101796
-0.00819993
-0.016437
-0.0140514
-0.016442
-0.00818643
-0.0101811
-0.0103978
-0.00977668
-0.0104022
-0.010874
-0.0090026
-0.0169743
-0.0145933
-0.0169792
-0.00898927
-0.0108755
-0.0110718
-0.0104635
-0.0110762
-0.0115731
-0.00980261
-0.0175184
-0.0151457
-0.0175232
-0.00978947
-0.0115747
-0.011751
-0.011155
-0.0117553
-0.0122767
-0.0106003
-0.0180694
-0.0157082
-0.0180741
-0.0105873
-0.0122783
-0.0124356
-0.0118514
-0.0124399
-0.0129848
-0.0113962
-0.0186274
-0.0162807
-0.0186319
-0.0113835
-0.0129863
-0.0131254
-0.0125525
-0.0131296
-0.0136963
-0.0121917
-0.0191926
-0.0168628
-0.019197
-0.0121791
-0.0136978
-0.0138203
-0.0132583
-0.0138246
-0.014412
-0.0129864
-0.0197649
-0.0174544
-0.0197692
-0.0129741
-0.0144135
-0.0145204
-0.0139691
-0.0145247
-0.0151321
-0.0137823
-0.0203428
-0.0180551
-0.020347
-0.0137701
-0.0151336
-0.0152258
-0.0146846
-0.0152299
-0.0158566
-0.0145796
-0.0209263
-0.0186647
-0.0209304
-0.0145676
-0.0158581
-0.0159362
-0.0154051
-0.0159404
-0.0165855
-0.0153781
-0.0215161
-0.0192831
-0.02152
-0.0153663
-0.016587
-0.0166519
-0.0161306
-0.016656
-0.0173188
-0.0161779
-0.0221123
-0.0199101
-0.0221162
-0.0161663
-0.0173203
-0.0173729
-0.016861
-0.0173769
-0.0180566
-0.0169792
-0.0227152
-0.0205455
-0.022719
-0.0169678
-0.0180581
-0.018099
-0.0175964
-0.018103
-0.0187989
-0.0177823
-0.0233248
-0.0211893
-0.0233285
-0.0177711
-0.0188004
-0.0188304
-0.0183369
-0.0188344
-0.0195459
-0.0185872
-0.0239412
-0.0218412
-0.0239449
-0.0185762
-0.0195474
-0.0195671
-0.0190824
-0.019571
-0.0202975
-0.0193941
-0.0245647
-0.0225012
-0.0245682
-0.0193833
-0.020299
-0.0203091
-0.0198331
-0.020313
-0.0210538
-0.0202032
-0.0251952
-0.0231692
-0.0251987
-0.0201926
-0.0210553
-0.0210563
-0.020589
-0.0210601
-0.0218149
-0.0210145
-0.0258329
-0.023845
-0.0258363
-0.0210041
-0.0218164
-0.0218088
-0.02135
-0.0218126
-0.0225808
-0.0218283
-0.0264779
-0.0245287
-0.0264813
-0.0218181
-0.0225824
-0.0225665
-0.0221163
-0.0225703
-0.0233517
-0.0226445
-0.0271303
-0.02522
-0.0271336
-0.0226345
-0.0233532
-0.0233295
-0.0228878
-0.0233332
-0.0241275
-0.0234634
-0.0277901
-0.025919
-0.0277933
-0.0234536
-0.024129
-0.0240978
-0.0236647
-0.0241015
-0.0249082
-0.0242851
-0.0284574
-0.0266255
-0.0284605
-0.0242755
-0.0249098
-0.0248714
-0.0244469
-0.024875
-0.0256941
-0.0251096
-0.0291322
-0.0273395
-0.0291353
-0.0251002
-0.0256957
-0.0256503
-0.0252344
-0.0256539
-0.026485
-0.0259371
-0.0298146
-0.028061
-0.0298177
-0.0259278
-0.0264866
-0.0264346
-0.0260274
-0.0264381
-0.027281
-0.0267677
-0.0305047
-0.0287899
-0.0305076
-0.0267586
-0.0272827
-0.0272242
-0.0268258
-0.0272277
-0.0280822
-0.0276014
-0.0312024
-0.0295262
-0.0312053
-0.0275926
-0.0280839
-0.0280192
-0.0276297
-0.0280226
-0.0288886
-0.0284385
-0.0319077
-0.0302697
-0.0319106
-0.0284298
-0.0288903
-0.0288195
-0.0284391
-0.028823
-0.0297003
-0.029279
-0.0326208
-0.0310206
-0.0326237
-0.0292705
-0.029702
-0.0296253
-0.029254
-0.0296287
-0.0305173
-0.0301229
-0.0333417
-0.0317786
-0.0333445
-0.0301146
-0.030519
-0.0304366
-0.0300746
-0.0304399
-0.0313396
-0.0309705
-0.0340703
-0.0325439
-0.034073
-0.0309623
-0.0313414
-0.0312533
-0.0309007
-0.0312566
-0.0321673
-0.0318217
-0.0348066
-0.0333164
-0.0348093
-0.0318137
-0.0321691
-0.0320756
-0.0317325
-0.0320788
-0.0330005
-0.0326767
-0.0355508
-0.034096
-0.0355534
-0.032669
-0.0330023
-0.0329033
-0.03257
-0.0329065
-0.0338391
-0.0335357
-0.0363027
-0.0348827
-0.0363053
-0.033528
-0.0338409
-0.0337366
-0.0334132
-0.0337398
-0.0346832
-0.0343986
-0.0370625
-0.0356765
-0.037065
-0.0343911
-0.0346851
-0.0345755
-0.0342622
-0.0345786
-0.035533
-0.0352655
-0.03783
-0.0364775
-0.0378325
-0.0352582
-0.0355348
-0.0354201
-0.035117
-0.0354231
-0.0363883
-0.0361367
-0.0386054
-0.0372854
-0.0386079
-0.0361295
-0.0363902
-0.0362702
-0.0359776
-0.0362732
-0.0372493
-0.037012
-0.0393886
-0.0381005
-0.039391
-0.0370051
-0.0372512
-0.0371261
-0.0368441
-0.0371291
-0.038116
-0.0378918
-0.0401796
-0.0389226
-0.040182
-0.037885
-0.0381179
-0.0379877
-0.0377164
-0.0379906
-0.0389884
-0.038776
-0.0409785
-0.0397517
-0.0409808
-0.0387693
-0.0389904
-0.038855
-0.0385947
-0.0388579
-0.0398667
-0.0396647
-0.0417852
-0.0405879
-0.0417875
-0.0396582
-0.0398686
-0.0397281
-0.039479
-0.0397309
-0.0407508
-0.040558
-0.0425998
-0.041431
-0.042602
-0.0405517
-0.0407527
-0.0406071
-0.0403693
-0.0406098
-0.0416408
-0.0414561
-0.0434222
-0.0422812
-0.0434244
-0.0414499
-0.0416428
-0.0414919
-0.0412657
-0.0414946
-0.0425368
-0.0423589
-0.0442524
-0.0431385
-0.0442546
-0.0423529
-0.0425387
-0.0423826
-0.0421682
-0.0423853
-0.0434387
-0.0432667
-0.0450905
-0.0440027
-0.0450927
-0.0432608
-0.0434407
-0.0432793
-0.0430767
-0.0432819
-0.0443467
-0.0441794
-0.0459365
-0.044874
-0.0459386
-0.0441737
-0.0443487
-0.0441819
-0.0439915
-0.0441845
-0.0452608
-0.0450972
-0.0467903
-0.0457523
-0.0467924
-0.0450916
-0.0452628
-0.0450905
-0.0449125
-0.045093
-0.046181
-0.0460201
-0.0476521
-0.0466376
-0.0476541
-0.0460147
-0.046183
-0.0460052
-0.0458397
-0.0460077
-0.0471075
-0.0469483
-0.0485217
-0.04753
-0.0485236
-0.046943
-0.0471095
-0.046926
-0.0467732
-0.0469285
-0.0480402
-0.0478818
-0.0493991
-0.0484294
-0.0494011
-0.0478767
-0.0480421
-0.047853
-0.0477131
-0.0478554
-0.0489792
-0.0488207
-0.0502845
-0.0493359
-0.0502864
-0.0488157
-0.0489811
-0.0487861
-0.0486593
-0.0487884
-0.0499246
-0.0497651
-0.0511778
-0.0502495
-0.0511796
-0.0497603
-0.0499265
-0.0497255
-0.049612
-0.0497277
-0.0508763
-0.0507151
-0.0520789
-0.0511701
-0.0520807
-0.0507104
-0.0508783
-0.0506711
-0.0505712
-0.0506733
-0.0518345
-0.0516707
-0.052988
-0.0520979
-0.0529898
-0.0516662
-0.0518365
-0.0516231
-0.0515368
-0.0516252
-0.0527993
-0.0526321
-0.053905
-0.0530328
-0.0539067
-0.0526277
-0.0528012
-0.0525814
-0.052509
-0.0525835
-0.0537706
-0.0535993
-0.05483
-0.0539749
-0.0548316
-0.0535951
-0.0537725
-0.0535461
-0.0534879
-0.0535482
-0.0547485
-0.0545725
-0.0557628
-0.0549241
-0.0557645
-0.0545683
-0.0547503
-0.0545173
-0.0544733
-0.0545194
-0.0557331
-0.0555516
-0.0567036
-0.0558804
-0.0567052
-0.0555476
-0.0557349
-0.0554951
-0.0554655
-0.055497
-0.0567243
-0.0565368
-0.0576524
-0.056844
-0.057654
-0.0565329
-0.0567261
-0.0564794
-0.0564645
-0.0564813
-0.0577224
-0.0575281
-0.0586092
-0.0578149
-0.0586107
-0.0575244
-0.0577241
-0.0574703
-0.0574702
-0.0574722
-0.0587272
-0.0585257
-0.0595739
-0.058793
-0.0595753
-0.0585222
-0.0587289
-0.0584679
-0.0584828
-0.0584697
-0.0597389
-0.0595297
-0.0605466
-0.0597783
-0.060548
-0.0595262
-0.0597406
-0.0594723
-0.0595023
-0.059474
-0.0607575
-0.06054
-0.0615273
-0.060771
-0.0615287
-0.0605367
-0.0607592
-0.0604834
-0.0605288
-0.0604851
-0.0617831
-0.0615568
-0.0625161
-0.0617711
-0.0625174
-0.0615536
-0.0617847
-0.0615014
-0.0615622
-0.061503
-0.0628157
-0.0625802
-0.0635128
-0.0627785
-0.0635141
-0.0625771
-0.0628173
-0.0625263
-0.0626027
-0.0625279
-0.0638554
-0.0636102
-0.0645176
-0.0637933
-0.0645189
-0.0636073
-0.0638569
-0.0635582
-0.0636503
-0.0635597
-0.0649022
-0.0646469
-0.0655305
-0.0648155
-0.0655317
-0.0646441
-0.0649036
-0.0645971
-0.0647051
-0.0645985
-0.0659562
-0.0656904
-0.0665515
-0.0658452
-0.0665526
-0.0656877
-0.0659575
-0.0656431
-0.065767
-0.0656445
-0.0670174
-0.0667408
-0.0675805
-0.0668824
-0.0675816
-0.0667383
-0.0670187
-0.0666963
-0.0668362
-0.0666975
-0.0680859
-0.0677981
-0.0686177
-0.0679271
-0.0686187
-0.0677957
-0.0680871
-0.0677566
-0.0679126
-0.0677578
-0.0691617
-0.0688625
-0.069663
-0.0689795
-0.0696639
-0.0688602
-0.0691629
-0.0688242
-0.0689965
-0.0688254
-0.0702449
-0.0699339
-0.0707164
-0.0700394
-0.0707173
-0.0699318
-0.0702461
-0.0698992
-0.0700877
-0.0699003
-0.0713356
-0.0710126
-0.071778
-0.0711069
-0.0717789
-0.0710106
-0.0713368
-0.0709816
-0.0711864
-0.0709826
-0.0724339
-0.0720985
-0.0728478
-0.0721822
-0.0728486
-0.0720966
-0.0724349
-0.0720714
-0.0722926
-0.0720723
-0.0735397
-0.0731917
-0.0739257
-0.0732651
-0.0739265
-0.0731899
-0.0735407
-0.0731687
-0.0734064
-0.0731696
-0.0746531
-0.0742923
-0.0750119
-0.0743559
-0.0750126
-0.0742907
-0.074654
-0.0742736
-0.0745278
-0.0742745
-0.0757743
-0.0754004
-0.0761064
-0.0754544
-0.076107
-0.0753989
-0.0757751
-0.0753862
-0.0756569
-0.075387
-0.0769032
-0.0765161
-0.077209
-0.0765608
-0.0772096
-0.0765147
-0.076904
-0.0765065
-0.0767937
-0.0765072
-0.0780399
-0.0776394
-0.07832
-0.077675
-0.0783205
-0.0776381
-0.0780406
-0.0776346
-0.0779384
-0.0776352
-0.0791845
-0.0787704
-0.0794392
-0.0787971
-0.0794397
-0.0787693
-0.0791852
-0.0787705
-0.0790909
-0.0787711
-0.0803371
-0.0799091
-0.0805668
-0.0799273
-0.0805672
-0.0799081
-0.0803377
-0.0799144
-0.0802514
-0.0799149
-0.0814976
-0.0810558
-0.0817026
-0.0810654
-0.081703
-0.0810549
-0.0814982
-0.0810662
-0.0814199
-0.0810667
-0.0826663
-0.0822103
-0.0828469
-0.0822115
-0.0828472
-0.0822095
-0.0826668
-0.0822261
-0.0825964
-0.0822265
-0.0838431
-0.0833728
-0.0839995
-0.0833657
-0.0839998
-0.0833722
-0.0838435
-0.0833942
-0.0837811
-0.0833945
-0.0850281
-0.0845434
-0.0851605
-0.084528
-0.0851607
-0.0845429
-0.0850284
-0.0845704
-0.084974
-0.0845706
-0.0862214
-0.0857222
-0.0863296
-0.0856988
-0.0863298
-0.0857218
-0.0862217
-0.0857548
-0.0861754
-0.085755
-0.0874233
-0.0869092
-0.0875064
-0.0868785
-0.0875065
-0.086909
-0.0874235
-0.0869475
-0.0873858
-0.0869476
-0.0886334
-0.0881045
-0.0886922
-0.0880655
-0.0886922
-0.0881044
-0.0886335
-0.0881487
-0.088604
-0.0881488
-0.0898504
-0.0893077
-0.089894
-0.0892531
-0.089894
-0.0893077
-0.0898504
-0.0893601
-0.0898243
-0.0893602
)
;

boundaryField
{
    BotWall
    {
        type            calculated;
        value           nonuniform List<scalar> 10(1.14889 93.6472 0.72783 46.1661 0.727789 93.6473 1.14888 0.329465 2.0196 0.329461);
    }
    FreeStream
    {
        type            calculated;
        value           nonuniform List<scalar> 10(-0.0904596 -0.0899111 -0.0905034 -0.0898429 -0.0905034 -0.0899111 -0.0904596 -0.0899693 -0.0904312 -0.0899693);
    }
    FrontNBack
    {
        type            empty;
    }
    LeftSide
    {
        type            cyclic;
    }
    RightSide
    {
        type            cyclic;
    }
}


// ************************************************************************* //
