/*--------------------------------*- C++ -*----------------------------------*\
| =========                 |                                                 |
| \\      /  F ield         | OpenFOAM: The Open Source CFD Toolbox           |
|  \\    /   O peration     | Version:  2.4.0                                 |
|   \\  /    A nd           | Web:      www.OpenFOAM.org                      |
|    \\/     M anipulation  |                                                 |
\*---------------------------------------------------------------------------*/
FoamFile
{
    version     2.0;
    format      ascii;
    class       volScalarField;
    location    "0.7";
    object      p_rgh;
}
// * * * * * * * * * * * * * * * * * * * * * * * * * * * * * * * * * * * * * //

dimensions      [1 -1 -2 0 0 0 0];

internalField   nonuniform List<scalar> 
1000
(
1.14889
93.6472
0.72783
46.1661
0.727789
93.6473
1.14888
0.329465
2.0196
0.329461
0.000504089
-0.0265368
0.0278958
0.0666066
0.0278936
-0.0265218
0.000502497
0.545229
1.41379
0.545224
0.00131972
0.0110234
-0.00668996
-0.00888064
-0.0066974
0.0110385
0.00131811
0.000267259
-0.027254
0.000262815
-0.000704447
0.00592384
-0.00819171
-0.00666959
-0.00819889
0.00593882
-0.00070607
-0.000915013
0.00707162
-0.000919473
-0.00141828
0.00234301
-0.00903285
-0.00661374
-0.00903976
0.00235783
-0.0014199
-0.00169294
0.00239667
-0.00169741
-0.00143437
0.00151381
-0.00901165
-0.0066208
-0.00901831
0.00152849
-0.001436
-0.00180775
-0.000709947
-0.00181223
-0.00136908
0.00149608
-0.00878952
-0.00647906
-0.00879594
0.00151063
-0.0013707
-0.00174921
-0.00127348
-0.0017537
-0.00135439
0.00143756
-0.00859665
-0.00628576
-0.00860284
0.00145199
-0.00135601
-0.00170802
-0.00111448
-0.00171251
-0.0013658
0.00128696
-0.0084363
-0.00609843
-0.00844226
0.00130125
-0.00136742
-0.00169244
-0.00100817
-0.00169693
-0.00138063
0.00111747
-0.00828478
-0.00592445
-0.00829053
0.00113162
-0.00138224
-0.00168405
-0.000995604
-0.00168852
-0.00139407
0.000958882
-0.00813414
-0.00575968
-0.00813969
0.000972876
-0.00139567
-0.00167574
-0.00100801
-0.00168021
-0.0014069
0.000812626
-0.00798437
-0.00560174
-0.00798973
0.000826463
-0.00140849
-0.00166715
-0.00101808
-0.0016716
-0.00141982
0.000675703
-0.00783631
-0.00545012
-0.0078415
0.000689377
-0.0014214
-0.00165886
-0.00102454
-0.00166329
-0.00143288
0.000546754
-0.00769027
-0.0053047
-0.0076953
0.000560258
-0.00143445
-0.00165107
-0.00102999
-0.00165548
-0.00144595
0.000425432
-0.00754626
-0.00516525
-0.00755115
0.00043876
-0.00144751
-0.00164374
-0.00103542
-0.00164812
-0.00145895
0.00031155
-0.00740427
-0.00503149
-0.00740902
0.000324698
-0.00146051
-0.0016368
-0.00104088
-0.00164115
-0.00147163
0.000204846
-0.00726433
-0.00490311
-0.00726895
0.00021781
-0.00147317
-0.00163046
-0.00104626
-0.00163478
-0.00148384
0.00010468
-0.0071265
-0.00477979
-0.007131
0.000117451
-0.00148537
-0.00162443
-0.00105154
-0.00162871
-0.00149463
9.91084e-06
-0.00699099
-0.00466122
-0.00699537
2.24847e-05
-0.00149614
-0.00161869
-0.00105673
-0.00162294
-0.00150475
-7.91836e-05
-0.0068577
-0.00454713
-0.00686198
-6.68089e-05
-0.00150625
-0.00161321
-0.00106182
-0.00161741
-0.00151429
-0.000164454
-0.00672502
-0.00443724
-0.00672919
-0.000152275
-0.00151578
-0.00160794
-0.00106682
-0.0016121
-0.00152321
-0.000246213
-0.00659292
-0.0043313
-0.006597
-0.000234236
-0.00152469
-0.00160286
-0.00107173
-0.00160698
-0.00153149
-0.000324111
-0.00646208
-0.00422909
-0.00646606
-0.000312335
-0.00153297
-0.00159795
-0.00107656
-0.00160203
-0.00153915
-0.000398247
-0.00633268
-0.00413043
-0.00633657
-0.000386671
-0.00154062
-0.00159321
-0.00108131
-0.00159724
-0.0015462
-0.000468817
-0.00620479
-0.00403511
-0.00620859
-0.00045744
-0.00154767
-0.00158861
-0.00108597
-0.0015926
-0.00155264
-0.00053597
-0.00607848
-0.00394297
-0.0060822
-0.000524792
-0.00155411
-0.00158415
-0.00109056
-0.00158809
-0.0015585
-0.000599822
-0.00595387
-0.00385384
-0.00595751
-0.000588842
-0.00155999
-0.00157977
-0.00109506
-0.00158368
-0.00156382
-0.000660474
-0.00583102
-0.00376758
-0.00583459
-0.000649693
-0.00156532
-0.00157545
-0.00109947
-0.00157932
-0.00156862
-0.000718026
-0.00571004
-0.00368403
-0.00571353
-0.000707442
-0.00157013
-0.00157115
-0.00110381
-0.00157498
-0.00157293
-0.00077257
-0.00559097
-0.00360308
-0.00559439
-0.000762183
-0.00157446
-0.00156682
-0.00110806
-0.00157062
-0.00157676
-0.000824196
-0.00547386
-0.0035246
-0.00547721
-0.000814005
-0.00157831
-0.00156244
-0.00111223
-0.0015662
-0.00158014
-0.000872989
-0.00535876
-0.00344846
-0.00536205
-0.000862992
-0.00158171
-0.00155799
-0.00111631
-0.0015617
-0.00158307
-0.000919029
-0.0052457
-0.00337457
-0.00524892
-0.000909225
-0.00158466
-0.00155342
-0.0011203
-0.0015571
-0.00158556
-0.000962394
-0.0051347
-0.00330282
-0.00513786
-0.000952781
-0.00158718
-0.00154873
-0.00112419
-0.00155237
-0.00158763
-0.00100316
-0.00502577
-0.0032331
-0.00502887
-0.000993736
-0.00158926
-0.00154389
-0.001128
-0.00154749
-0.00158927
-0.00104139
-0.00491892
-0.00316533
-0.00492197
-0.00103216
-0.00159092
-0.00153888
-0.0011317
-0.00154243
-0.00159049
-0.00107717
-0.00481415
-0.00309942
-0.00481714
-0.00106812
-0.00159217
-0.00153367
-0.0011353
-0.00153719
-0.0015913
-0.00111055
-0.00471146
-0.00303528
-0.0047144
-0.00110168
-0.001593
-0.00152826
-0.0011388
-0.00153173
-0.0015917
-0.0011416
-0.00461083
-0.00297282
-0.00461372
-0.00113292
-0.00159342
-0.00152263
-0.00114218
-0.00152606
-0.0015917
-0.00117038
-0.00451226
-0.00291198
-0.00451509
-0.00116188
-0.00159344
-0.00151676
-0.00114545
-0.00152014
-0.00159129
-0.00119695
-0.00441571
-0.00285267
-0.0044185
-0.00118863
-0.00159306
-0.00151063
-0.0011486
-0.00151396
-0.00159049
-0.00122137
-0.00432118
-0.00279482
-0.00432392
-0.00121323
-0.00159228
-0.00150423
-0.00115163
-0.00150752
-0.0015893
-0.00124371
-0.00422863
-0.00273836
-0.00423132
-0.00123574
-0.0015911
-0.00149755
-0.00115452
-0.00150079
-0.00158772
-0.001264
-0.00413805
-0.00268323
-0.00414069
-0.00125621
-0.00158954
-0.00149058
-0.00115728
-0.00149377
-0.00158575
-0.00128232
-0.00404939
-0.00262936
-0.00405198
-0.0012747
-0.00158759
-0.00148329
-0.0011599
-0.00148644
-0.00158339
-0.00129871
-0.00396262
-0.00257669
-0.00396518
-0.00129126
-0.00158525
-0.00147569
-0.00116237
-0.00147879
-0.00158066
-0.00131322
-0.00387773
-0.00252516
-0.00388024
-0.00130594
-0.00158253
-0.00146777
-0.00116469
-0.00147082
-0.00157755
-0.00132591
-0.00379466
-0.0024747
-0.00379712
-0.0013188
-0.00157944
-0.0014595
-0.00116685
-0.0014625
-0.00157407
-0.00133683
-0.00371338
-0.00242527
-0.00371581
-0.00132988
-0.00157598
-0.00145089
-0.00116884
-0.00145384
-0.00157023
-0.00134603
-0.00363387
-0.00237682
-0.00363625
-0.00133924
-0.00157214
-0.00144193
-0.00117067
-0.00144483
-0.00156602
-0.00135355
-0.00355607
-0.00232928
-0.00355841
-0.00134692
-0.00156795
-0.0014326
-0.00117232
-0.00143545
-0.00156145
-0.00135944
-0.00347996
-0.00228261
-0.00348225
-0.00135297
-0.00156339
-0.0014229
-0.00117379
-0.0014257
-0.00155653
-0.00136376
-0.00340548
-0.00223677
-0.00340774
-0.00135745
-0.00155848
-0.00141282
-0.00117507
-0.00141558
-0.00155127
-0.00136654
-0.00333261
-0.0021917
-0.00333483
-0.00136038
-0.00155322
-0.00140236
-0.00117616
-0.00140507
-0.00154565
-0.00136783
-0.00326131
-0.00214736
-0.00326348
-0.00136182
-0.00154761
-0.00139151
-0.00117705
-0.00139417
-0.00153971
-0.00136767
-0.00319152
-0.0021037
-0.00319366
-0.00136182
-0.00154167
-0.00138027
-0.00117775
-0.00138287
-0.00153343
-0.00136611
-0.00312323
-0.0020607
-0.00312532
-0.00136042
-0.00153539
-0.00136862
-0.00117823
-0.00137118
-0.00152682
-0.0013632
-0.00305637
-0.0020183
-0.00305842
-0.00135765
-0.00152879
-0.00135657
-0.00117851
-0.00135908
-0.0015199
-0.00135897
-0.00299092
-0.00197646
-0.00299293
-0.00135357
-0.00152187
-0.00134411
-0.00117857
-0.00134656
-0.00151266
-0.00135346
-0.00292683
-0.00193516
-0.00292881
-0.00134821
-0.00151463
-0.00133123
-0.00117841
-0.00133364
-0.00150512
-0.00134671
-0.00286407
-0.00189434
-0.002866
-0.00134161
-0.00150708
-0.00131793
-0.00117804
-0.00132029
-0.00149728
-0.00133877
-0.00280259
-0.00185399
-0.00280448
-0.00133381
-0.00149923
-0.00130421
-0.00117743
-0.00130652
-0.00148914
-0.00132967
-0.00274236
-0.00181406
-0.0027442
-0.00132486
-0.00149108
-0.00129006
-0.0011766
-0.00129233
-0.00148071
-0.00131945
-0.00268333
-0.00177452
-0.00268513
-0.00131478
-0.00148264
-0.0012755
-0.00117554
-0.00127771
-0.00147199
-0.00130815
-0.00262546
-0.00173535
-0.00262722
-0.00130362
-0.0014739
-0.0012605
-0.00117425
-0.00126267
-0.00146298
-0.0012958
-0.00256872
-0.00169651
-0.00257044
-0.00129141
-0.00146488
-0.00124508
-0.00117273
-0.0012472
-0.0014537
-0.00128243
-0.00251307
-0.00165796
-0.00251475
-0.00127818
-0.00145558
-0.00122924
-0.00117097
-0.00123131
-0.00144414
-0.00126809
-0.00245847
-0.0016197
-0.0024601
-0.00126398
-0.00144599
-0.00121298
-0.00116898
-0.00121499
-0.00143429
-0.00125281
-0.00240488
-0.00158168
-0.00240646
-0.00124884
-0.00143612
-0.00119631
-0.00116675
-0.00119826
-0.00142417
-0.00123662
-0.00235225
-0.00154388
-0.00235379
-0.00123278
-0.00142597
-0.00117922
-0.00116429
-0.00118111
-0.00141378
-0.00121955
-0.00230056
-0.00150628
-0.00230206
-0.00121585
-0.00141554
-0.00116172
-0.0011616
-0.00116356
-0.00140311
-0.00120163
-0.00224977
-0.00146886
-0.00225121
-0.00119807
-0.00140483
-0.00114382
-0.00115868
-0.0011456
-0.00139216
-0.0011829
-0.00219983
-0.00143158
-0.00220123
-0.00117947
-0.00139384
-0.00112552
-0.00115553
-0.00112724
-0.00138094
-0.00116338
-0.00215071
-0.00139443
-0.00215207
-0.00116009
-0.00138258
-0.00110682
-0.00115215
-0.00110848
-0.00136945
-0.00114311
-0.00210238
-0.00135738
-0.00210368
-0.00113995
-0.00137104
-0.00108775
-0.00114853
-0.00108934
-0.00135769
-0.00112211
-0.00205479
-0.00132042
-0.00205605
-0.00111908
-0.00135923
-0.00106829
-0.00114467
-0.00106983
-0.00134566
-0.00110041
-0.00200791
-0.00128353
-0.00200912
-0.00109751
-0.00134715
-0.00104847
-0.00114057
-0.00104994
-0.00133336
-0.00107804
-0.0019617
-0.00124668
-0.00196286
-0.00107527
-0.0013348
-0.00102829
-0.00113623
-0.0010297
-0.0013208
-0.00105502
-0.00191613
-0.00120985
-0.00191724
-0.00105239
-0.00132219
-0.00100776
-0.00113163
-0.0010091
-0.00130799
-0.00103139
-0.00187116
-0.00117303
-0.00187222
-0.00102888
-0.00130932
-0.000986878
-0.00112679
-0.000988157
-0.00129491
-0.00100715
-0.00182675
-0.0011362
-0.00182776
-0.00100477
-0.00129619
-0.000965664
-0.0011217
-0.000966879
-0.00128159
-0.000982346
-0.00178287
-0.00109935
-0.00178383
-0.000980095
-0.00128281
-0.000944122
-0.00111636
-0.000945273
-0.00126801
-0.00095699
-0.00173948
-0.00106244
-0.00174039
-0.000954866
-0.00126917
-0.000922262
-0.00111077
-0.000923349
-0.00125419
-0.000931107
-0.00169655
-0.00102548
-0.00169741
-0.00092911
-0.00125529
-0.000900092
-0.00110494
-0.000901115
-0.00124013
-0.000904718
-0.00165403
-0.000988436
-0.00165484
-0.000902846
-0.00124117
-0.000877621
-0.00109886
-0.00087858
-0.00122583
-0.000877843
-0.0016119
-0.000951298
-0.00161266
-0.000876097
-0.00122681
-0.000854858
-0.00109253
-0.000855753
-0.0012113
-0.000850503
-0.00157011
-0.000914049
-0.00157082
-0.000848881
-0.00121222
-0.000831813
-0.00108597
-0.000832643
-0.00119655
-0.000822717
-0.00152864
-0.000876674
-0.00152929
-0.000821219
-0.0011974
-0.000808495
-0.00107917
-0.000809261
-0.00118157
-0.000794503
-0.00148743
-0.000839156
-0.00148804
-0.000793128
-0.00118236
-0.000784913
-0.00107214
-0.000785616
-0.00116639
-0.000765878
-0.00144646
-0.00080148
-0.00144702
-0.000764628
-0.00116711
-0.00076108
-0.00106489
-0.000761719
-0.00115099
-0.000736862
-0.00140569
-0.000763629
-0.00140619
-0.000735734
-0.00115165
-0.000737004
-0.00105742
-0.00073758
-0.0011354
-0.00070747
-0.00136508
-0.000725588
-0.00136553
-0.000706465
-0.00113599
-0.000712697
-0.00104974
-0.00071321
-0.00111961
-0.000677719
-0.00132459
-0.000687338
-0.00132498
-0.000676837
-0.00112013
-0.000688172
-0.00104186
-0.000688621
-0.00110363
-0.000647625
-0.00128419
-0.00064885
-0.00128453
-0.000646866
-0.00110408
-0.000663442
-0.00103377
-0.000663828
-0.00108746
-0.000617202
-0.00124386
-0.000610088
-0.00124415
-0.000616566
-0.00108785
-0.000638525
-0.00102547
-0.000638848
-0.00107113
-0.000586472
-0.00120354
-0.000571081
-0.00120377
-0.00058596
-0.00107144
-0.000613425
-0.001017
-0.000613684
-0.0010547
-0.000555469
-0.00116289
-0.000532091
-0.00116305
-0.000555081
-0.00105494
-0.000588095
-0.00100863
-0.000588292
-0.00103829
-0.000524227
-0.00112141
-0.00049344
-0.00112152
-0.000523963
-0.00103846
-0.00056247
-0.00100074
-0.000562603
-0.00102157
-0.000492671
-0.00108033
-0.000453661
-0.00108038
-0.000492532
-0.00102166
-0.000536869
-0.000992157
-0.000536939
-0.00100305
-0.000460405
-0.00104668
-0.000405762
-0.00104667
-0.000460393
-0.00100307
-0.000512839
-0.000976954
-0.000512847
)
;

boundaryField
{
    BotWall
    {
        type            fixedFluxPressure;
        gradient        uniform 0;
        value           nonuniform List<scalar> 10(1.14889 93.6472 0.72783 46.1661 0.727789 93.6473 1.14888 0.329465 2.0196 0.329461);
    }
    FreeStream
    {
        type            totalPressure;
        rho             rho;
        psi             none;
        gamma           1;
        p0              uniform 0;
        value           nonuniform List<scalar> 10(-0.000992396 -0.000443878 -0.00103623 -0.000375665 -0.00103619 -0.00044393 -0.00099237 -0.000502148 -0.000963959 -0.000502124);
    }
    FrontNBack
    {
        type            empty;
    }
    LeftSide
    {
        type            cyclic;
    }
    RightSide
    {
        type            cyclic;
    }
}


// ************************************************************************* //
