/*--------------------------------*- C++ -*----------------------------------*\
| =========                 |                                                 |
| \\      /  F ield         | OpenFOAM: The Open Source CFD Toolbox           |
|  \\    /   O peration     | Version:  2.4.0                                 |
|   \\  /    A nd           | Web:      www.OpenFOAM.org                      |
|    \\/     M anipulation  |                                                 |
\*---------------------------------------------------------------------------*/
FoamFile
{
    version     2.0;
    format      ascii;
    class       surfaceScalarField;
    location    "0.7";
    object      phi;
}
// * * * * * * * * * * * * * * * * * * * * * * * * * * * * * * * * * * * * * //

dimensions      [0 3 -1 0 0 0 0];

internalField   nonuniform List<scalar> 
1890
(
-2.81302e-11
-1.49762e-09
-2.93702e-10
-1.23682e-09
4.66245e-10
-1.7749e-09
-4.66241e-10
2.12668e-11
2.93698e-10
-1.7749e-09
2.81306e-11
-1.23682e-09
5.06547e-11
-1.49762e-09
1.13685e-10
-1.18967e-09
-1.13685e-10
2.15664e-11
-1.18967e-09
-4.40018e-11
-1.45524e-09
-5.64361e-11
-1.22438e-09
-6.26621e-11
-1.76868e-09
6.26619e-11
-1.04057e-10
5.64294e-11
-1.76866e-09
4.40063e-11
-1.2244e-09
1.62985e-12
-1.45524e-09
-2.01029e-11
-1.16794e-09
2.01029e-11
-1.06253e-09
-1.16794e-09
-3.98482e-11
-1.40726e-09
-6.56228e-11
-1.19861e-09
-2.28847e-11
-1.81141e-09
2.28859e-11
-1.49828e-10
6.5607e-11
-1.81138e-09
3.98521e-11
-1.19864e-09
-8.12352e-12
-1.40726e-09
-3.41302e-12
-1.17265e-09
3.41362e-12
-1.06936e-09
-1.17266e-09
-3.54722e-11
-1.3655e-09
-5.61207e-11
-1.17796e-09
-1.91341e-11
-1.8484e-09
1.91408e-11
-1.88103e-10
5.61003e-11
-1.84834e-09
3.5475e-11
-1.17802e-09
-6.27636e-12
-1.36551e-09
-4.08517e-12
-1.17484e-09
4.08745e-12
-1.07753e-09
-1.17487e-09
-3.13934e-11
-1.32908e-09
-4.90077e-11
-1.16034e-09
-1.69995e-11
-1.88041e-09
1.70101e-11
-2.22112e-10
4.89848e-11
-1.88032e-09
3.13953e-11
-1.16043e-09
-5.00404e-12
-1.32911e-09
-3.77474e-12
-1.17607e-09
3.77838e-12
-1.08508e-09
-1.17611e-09
-2.76896e-11
-1.29742e-09
-4.32241e-11
-1.14481e-09
-1.57171e-11
-1.90791e-09
1.57299e-11
-2.53559e-10
4.32005e-11
-1.90779e-09
2.76907e-11
-1.14492e-09
-3.95942e-12
-1.29746e-09
-3.46024e-12
-1.17657e-09
3.46494e-12
-1.09201e-09
-1.17662e-09
-2.42885e-11
-1.27002e-09
-3.82541e-11
-1.13084e-09
-1.48334e-11
-1.93134e-09
1.48467e-11
-2.83239e-10
3.82313e-11
-1.93117e-09
2.42889e-11
-1.13098e-09
-3.09057e-12
-1.27008e-09
-3.2504e-12
-1.17641e-09
3.25579e-12
-1.09851e-09
-1.17647e-09
-2.11297e-11
-1.2465e-09
-3.38255e-11
-1.11815e-09
-1.41151e-11
-1.95105e-09
1.41275e-11
-3.11482e-10
3.38043e-11
-1.95085e-09
2.11294e-11
-1.1183e-09
-2.38097e-12
-1.24657e-09
-3.09945e-12
-1.17569e-09
3.10515e-12
-1.10472e-09
-1.17576e-09
-1.8186e-11
-1.22649e-09
-2.97771e-11
-1.10656e-09
-1.34459e-11
-1.96738e-09
1.34565e-11
-3.38384e-10
2.97582e-11
-1.96715e-09
1.81851e-11
-1.10673e-09
-1.80632e-12
-1.22658e-09
-2.97131e-12
-1.17452e-09
2.977e-12
-1.11067e-09
-1.1746e-09
-1.54422e-11
-1.2097e-09
-2.60187e-11
-1.09598e-09
-1.27753e-11
-1.98062e-09
1.27835e-11
-3.63943e-10
2.60023e-11
-1.98037e-09
1.54408e-11
-1.09617e-09
-1.34214e-12
-1.2098e-09
-2.85965e-12
-1.17301e-09
2.86506e-12
-1.11639e-09
-1.17309e-09
-1.28872e-11
-1.19583e-09
-2.25039e-11
-1.08636e-09
-1.20873e-11
-1.99104e-09
1.20931e-11
-3.88124e-10
2.24903e-11
-1.99077e-09
1.28853e-11
-1.08656e-09
-9.68351e-13
-1.19595e-09
-2.76472e-12
-1.17121e-09
2.76966e-12
-1.12193e-09
-1.1713e-09
-1.05118e-11
-1.18465e-09
-1.92121e-11
-1.07766e-09
-1.13839e-11
-1.99887e-09
1.13874e-11
-4.10895e-10
1.92011e-11
-1.99858e-09
1.05096e-11
-1.07787e-09
-6.69189e-13
-1.18477e-09
-2.68576e-12
-1.16919e-09
2.6901e-12
-1.1273e-09
-1.16928e-09
-8.30889e-12
-1.1759e-09
-1.61354e-11
-1.06984e-09
-1.06745e-11
-2.00433e-09
1.0676e-11
-4.32245e-10
1.61271e-11
-2.00403e-09
8.30645e-12
-1.07005e-09
-4.32152e-13
-1.17603e-09
-2.6209e-12
-1.167e-09
2.62459e-12
-1.13255e-09
-1.1671e-09
-6.27267e-12
-1.16938e-09
-1.32728e-11
-1.06284e-09
-9.97154e-12
-2.00763e-09
9.97151e-12
-4.52188e-10
1.32667e-11
-2.00733e-09
6.2701e-12
-1.06305e-09
-2.47199e-13
-1.16951e-09
-2.56819e-12
-1.16468e-09
2.57123e-12
-1.13769e-09
-1.16477e-09
-4.39776e-12
-1.16487e-09
-1.06248e-11
-1.05661e-09
-9.28712e-12
-2.00897e-09
9.28598e-12
-4.70762e-10
1.06209e-11
-2.00866e-09
4.39518e-12
-1.05683e-09
-1.06376e-13
-1.16501e-09
-2.5259e-12
-1.16226e-09
2.52832e-12
-1.14274e-09
-1.16235e-09
-2.67825e-12
-1.16219e-09
-8.19243e-12
-1.0511e-09
-8.63156e-12
-2.00853e-09
8.62969e-12
-4.88023e-10
8.19039e-12
-2.00822e-09
2.67573e-12
-1.05131e-09
1.33975e-16
-1.16233e-09
-2.49255e-12
-1.15977e-09
2.49444e-12
-1.14773e-09
-1.15986e-09
-1.10336e-12
-1.16117e-09
-5.97504e-12
-1.04622e-09
-8.01275e-12
-2.00649e-09
8.01048e-12
-5.04046e-10
5.97464e-12
-2.00619e-09
1.10088e-12
-1.04644e-09
7.2407e-14
-1.16131e-09
-2.46691e-12
-1.15723e-09
2.46833e-12
-1.15266e-09
-1.15732e-09
3.402e-13
-1.16163e-09
-3.97103e-12
-1.04191e-09
-7.436e-12
-2.00302e-09
7.43357e-12
-5.18916e-10
3.97206e-12
-2.00273e-09
-3.42439e-13
-1.04213e-09
1.19522e-13
-1.16177e-09
-2.44792e-12
-1.15466e-09
2.44896e-12
-1.15756e-09
-1.15475e-09
1.58179e-12
-1.16335e-09
-2.17967e-12
-1.03815e-09
-6.90418e-12
-1.9983e-09
6.90177e-12
-5.32722e-10
2.18194e-12
-1.99801e-09
-1.58347e-12
-1.03836e-09
1.42831e-13
-1.16349e-09
-2.43467e-12
-1.15209e-09
2.43541e-12
-1.16243e-09
-1.15216e-09
2.71583e-12
-1.16622e-09
-6.1766e-13
-1.03482e-09
-6.41804e-12
-1.9925e-09
6.41576e-12
-5.45555e-10
6.20937e-13
-1.99221e-09
-2.71703e-12
-1.03502e-09
1.4621e-13
-1.16636e-09
-2.42637e-12
-1.14951e-09
2.42689e-12
-1.16728e-09
-1.14959e-09
3.72557e-12
-1.17008e-09
8.12266e-13
-1.0319e-09
-5.97657e-12
-1.98571e-09
5.97449e-12
-5.57506e-10
-8.07665e-13
-1.98543e-09
-3.72633e-12
-1.0321e-09
1.32997e-13
-1.17022e-09
-2.42231e-12
-1.14696e-09
2.42267e-12
-1.17213e-09
-1.14703e-09
4.61609e-12
-1.17481e-09
2.11273e-12
-1.0294e-09
-5.57812e-12
-1.97802e-09
5.57627e-12
-5.68661e-10
-2.10793e-12
-1.97775e-09
-4.61644e-12
-1.02959e-09
1.06089e-13
-1.17494e-09
-2.42185e-12
-1.14443e-09
2.42209e-12
-1.17697e-09
-1.1445e-09
5.39502e-12
-1.18027e-09
3.22117e-12
-1.02723e-09
-5.22084e-12
-1.96958e-09
5.21924e-12
-5.79101e-10
-3.216e-12
-1.96931e-09
-5.39497e-12
-1.02742e-09
6.79767e-14
-1.1804e-09
-2.42437e-12
-1.14194e-09
2.42455e-12
-1.18182e-09
-1.142e-09
6.07041e-12
-1.18637e-09
4.17328e-12
-1.02533e-09
-4.90215e-12
-1.9605e-09
4.90079e-12
-5.88904e-10
-4.16778e-12
-1.96024e-09
-6.07001e-12
-1.02551e-09
2.06124e-14
-1.18649e-09
-2.42933e-12
-1.13949e-09
2.42946e-12
-1.18668e-09
-1.13955e-09
6.65036e-12
-1.19299e-09
4.98627e-12
-1.02367e-09
-4.61904e-12
-1.9509e-09
4.6179e-12
-5.98141e-10
-4.9805e-12
-1.95064e-09
-6.64963e-12
-1.02384e-09
-3.32995e-14
-1.19311e-09
-2.43616e-12
-1.13709e-09
2.43629e-12
-1.19155e-09
-1.13714e-09
7.14269e-12
-1.20005e-09
5.67409e-12
-1.0222e-09
-4.36833e-12
-1.94085e-09
4.36741e-12
-6.06876e-10
-5.66812e-12
-1.94061e-09
-7.14169e-12
-1.02237e-09
-8.88419e-14
-1.20016e-09
-2.44438e-12
-1.13473e-09
2.44451e-12
-1.19644e-09
-1.13478e-09
7.55495e-12
-1.20746e-09
6.24931e-12
-1.02089e-09
-4.14683e-12
-1.93046e-09
4.14611e-12
-6.15169e-10
-6.24319e-12
-1.93022e-09
-7.55369e-12
-1.02106e-09
-1.4838e-13
-1.20757e-09
-2.45351e-12
-1.13243e-09
2.45366e-12
-1.20135e-09
-1.13247e-09
7.89427e-12
-1.21514e-09
6.7235e-12
-1.01972e-09
-3.95147e-12
-1.91978e-09
3.95092e-12
-6.23072e-10
-6.71728e-12
-1.91955e-09
-7.8928e-12
-1.01988e-09
-2.1009e-13
-1.21525e-09
-2.46312e-12
-1.13017e-09
2.4633e-12
-1.20627e-09
-1.13022e-09
8.16739e-12
-1.22304e-09
7.1073e-12
-1.01866e-09
-3.77932e-12
-1.9089e-09
3.77893e-12
-6.3063e-10
-7.10102e-12
-1.90867e-09
-8.16574e-12
-1.01882e-09
-2.72652e-13
-1.22314e-09
-2.47284e-12
-1.12797e-09
2.47305e-12
-1.21122e-09
-1.12801e-09
8.38061e-12
-1.23109e-09
7.41049e-12
-1.01769e-09
-3.62771e-12
-1.89786e-09
3.62747e-12
-6.37885e-10
-7.40419e-12
-1.89764e-09
-8.3788e-12
-1.01785e-09
-3.3501e-13
-1.23119e-09
-2.48229e-12
-1.12582e-09
2.48255e-12
-1.21619e-09
-1.12586e-09
8.53978e-12
-1.23923e-09
7.64202e-12
-1.01679e-09
-3.49418e-12
-1.88672e-09
3.49406e-12
-6.44873e-10
-7.63572e-12
-1.88651e-09
-8.53785e-12
-1.01694e-09
-3.96293e-13
-1.23933e-09
-2.49117e-12
-1.12373e-09
2.49147e-12
-1.22117e-09
-1.12377e-09
8.65035e-12
-1.24743e-09
7.81003e-12
-1.01595e-09
-3.37651e-12
-1.87554e-09
3.37651e-12
-6.51626e-10
-7.80376e-12
-1.87533e-09
-8.64831e-12
-1.0161e-09
-4.55788e-13
-1.24752e-09
-2.49918e-12
-1.12169e-09
2.49953e-12
-1.22617e-09
-1.12172e-09
8.71733e-12
-1.25564e-09
7.92191e-12
-1.01516e-09
-3.2727e-12
-1.86434e-09
3.27281e-12
-6.58172e-10
-7.91569e-12
-1.86414e-09
-8.7152e-12
-1.0153e-09
-5.1291e-13
-1.25572e-09
-2.5061e-12
-1.11969e-09
2.50649e-12
-1.23118e-09
-1.11973e-09
8.74534e-12
-1.26382e-09
7.98436e-12
-1.0144e-09
-3.18098e-12
-1.85318e-09
3.18119e-12
-6.64534e-10
-7.9782e-12
-1.85298e-09
-8.74314e-12
-1.01453e-09
-5.67194e-13
-1.2639e-09
-2.51169e-12
-1.11775e-09
2.51214e-12
-1.2362e-09
-1.11778e-09
8.73863e-12
-1.27194e-09
8.00341e-12
-1.01366e-09
-3.09976e-12
-1.84207e-09
3.10005e-12
-6.70734e-10
-7.99733e-12
-1.84188e-09
-8.73638e-12
-1.0138e-09
-6.18274e-13
-1.27202e-09
-2.51579e-12
-1.11585e-09
2.51629e-12
-1.24124e-09
-1.11588e-09
8.70108e-12
-1.27998e-09
7.98452e-12
-1.01294e-09
-3.02762e-12
-1.83106e-09
3.02798e-12
-6.7679e-10
-7.97852e-12
-1.83088e-09
-8.69878e-12
-1.01308e-09
-6.65873e-13
-1.28005e-09
-2.51825e-12
-1.114e-09
2.51879e-12
-1.24627e-09
-1.11402e-09
8.63625e-12
-1.28791e-09
7.9326e-12
-1.01224e-09
-2.9633e-12
-1.82016e-09
2.96373e-12
-6.82717e-10
-7.92669e-12
-1.81999e-09
-8.63391e-12
-1.01237e-09
-7.09789e-13
-1.28797e-09
-2.51894e-12
-1.11219e-09
2.51952e-12
-1.25131e-09
-1.11221e-09
8.54738e-12
-1.2957e-09
7.85206e-12
-1.01155e-09
-2.90568e-12
-1.80941e-09
2.90618e-12
-6.88528e-10
-7.84626e-12
-1.80923e-09
-8.54502e-12
-1.01167e-09
-7.49888e-13
-1.29577e-09
-2.51776e-12
-1.11042e-09
2.51839e-12
-1.25635e-09
-1.11044e-09
8.43743e-12
-1.30336e-09
7.74687e-12
-1.01086e-09
-2.85378e-12
-1.79881e-09
2.85433e-12
-6.94237e-10
-7.74117e-12
-1.79864e-09
-8.43506e-12
-1.01098e-09
-7.86093e-13
-1.30342e-09
-2.51463e-12
-1.10869e-09
2.51531e-12
-1.26138e-09
-1.10871e-09
8.30911e-12
-1.31085e-09
7.6206e-12
-1.01017e-09
-2.8067e-12
-1.78838e-09
2.80731e-12
-6.99851e-10
-7.61501e-12
-1.78822e-09
-8.30672e-12
-1.01028e-09
-8.18375e-13
-1.31091e-09
-2.50951e-12
-1.107e-09
2.51023e-12
-1.2664e-09
-1.10702e-09
8.16486e-12
-1.31817e-09
7.47644e-12
-1.00948e-09
-2.76369e-12
-1.77814e-09
2.76435e-12
-7.05379e-10
-7.47095e-12
-1.77798e-09
-8.16246e-12
-1.00959e-09
-8.46748e-13
-1.31822e-09
-2.50235e-12
-1.10535e-09
2.50311e-12
-1.2714e-09
-1.10536e-09
8.00692e-12
-1.32531e-09
7.31724e-12
-1.00879e-09
-2.72404e-12
-1.7681e-09
2.72474e-12
-7.10827e-10
-7.31186e-12
-1.76794e-09
-8.0045e-12
-1.0089e-09
-8.71259e-13
-1.32536e-09
-2.49314e-12
-1.10372e-09
2.49394e-12
-1.27639e-09
-1.10374e-09
7.83729e-12
-1.33225e-09
7.14555e-12
-1.0081e-09
-2.68715e-12
-1.75826e-09
2.68789e-12
-7.16202e-10
-7.14028e-12
-1.75812e-09
-7.83487e-12
-1.0082e-09
-8.91988e-13
-1.3323e-09
-2.48187e-12
-1.10213e-09
2.4827e-12
-1.28135e-09
-1.10215e-09
7.65783e-12
-1.339e-09
6.96368e-12
-1.0074e-09
-2.65249e-12
-1.74865e-09
2.65327e-12
-7.21508e-10
-6.95851e-12
-1.7485e-09
-7.6554e-12
-1.00751e-09
-9.09038e-13
-1.33904e-09
-2.46854e-12
-1.10058e-09
2.46941e-12
-1.28629e-09
-1.10058e-09
7.47019e-12
-1.34555e-09
6.77363e-12
-1.00671e-09
-2.61958e-12
-1.73925e-09
2.6204e-12
-7.26748e-10
-6.76857e-12
-1.73912e-09
-7.46776e-12
-1.00681e-09
-9.22534e-13
-1.34559e-09
-2.45318e-12
-1.09904e-09
2.45408e-12
-1.2912e-09
-1.09905e-09
7.27587e-12
-1.35189e-09
6.57724e-12
-1.00601e-09
-2.58802e-12
-1.73009e-09
2.58887e-12
-7.31925e-10
-6.57228e-12
-1.72995e-09
-7.27344e-12
-1.00611e-09
-9.32617e-13
-1.35193e-09
-2.43581e-12
-1.09754e-09
2.43675e-12
-1.29607e-09
-1.09755e-09
7.07624e-12
-1.35803e-09
6.37612e-12
-1.00531e-09
-2.55744e-12
-1.72116e-09
2.55833e-12
-7.37041e-10
-6.37125e-12
-1.72102e-09
-7.07381e-12
-1.0054e-09
-9.39442e-13
-1.35807e-09
-2.41647e-12
-1.09606e-09
2.41744e-12
-1.30091e-09
-1.09607e-09
6.87253e-12
-1.36396e-09
6.17168e-12
-1.00461e-09
-2.52755e-12
-1.71246e-09
2.52847e-12
-7.42097e-10
-6.16691e-12
-1.71233e-09
-6.8701e-12
-1.0047e-09
-9.43172e-13
-1.36399e-09
-2.3952e-12
-1.09461e-09
2.39621e-12
-1.3057e-09
-1.09462e-09
6.66585e-12
-1.36968e-09
5.96519e-12
-1.00391e-09
-2.49807e-12
-1.70399e-09
2.49901e-12
-7.47094e-10
-5.96052e-12
-1.70387e-09
-6.66341e-12
-1.004e-09
-9.43983e-13
-1.36971e-09
-2.37206e-12
-1.09318e-09
2.37311e-12
-1.31044e-09
-1.09319e-09
6.45719e-12
-1.3752e-09
5.75778e-12
-1.00321e-09
-2.46878e-12
-1.69577e-09
2.46975e-12
-7.52032e-10
-5.7532e-12
-1.69565e-09
-6.45475e-12
-1.0033e-09
-9.42051e-13
-1.37522e-09
-2.34711e-12
-1.09178e-09
2.34819e-12
-1.31514e-09
-1.09178e-09
6.24744e-12
-1.38051e-09
5.55042e-12
-1.00251e-09
-2.43947e-12
-1.68778e-09
2.44047e-12
-7.56912e-10
-5.54593e-12
-1.68766e-09
-6.245e-12
-1.0026e-09
-9.3756e-13
-1.38053e-09
-2.3204e-12
-1.0904e-09
2.32151e-12
-1.31978e-09
-1.0904e-09
6.03743e-12
-1.38562e-09
5.34398e-12
-1.00182e-09
-2.40999e-12
-1.68002e-09
2.41102e-12
-7.61733e-10
-5.33957e-12
-1.67991e-09
-6.03498e-12
-1.0019e-09
-9.30694e-13
-1.38564e-09
-2.29201e-12
-1.08903e-09
2.29316e-12
-1.32436e-09
-1.08903e-09
5.82786e-12
-1.39052e-09
5.13921e-12
-1.00113e-09
-2.3802e-12
-1.6725e-09
2.38125e-12
-7.66495e-10
-5.13488e-12
-1.67239e-09
-5.82541e-12
-1.00121e-09
-9.21637e-13
-1.39054e-09
-2.26201e-12
-1.08769e-09
2.26319e-12
-1.32889e-09
-1.08769e-09
5.61939e-12
-1.39523e-09
4.93676e-12
-1.00044e-09
-2.34999e-12
-1.66522e-09
2.35107e-12
-7.71196e-10
-4.93252e-12
-1.66511e-09
-5.61693e-12
-1.00053e-09
-9.10576e-13
-1.39525e-09
-2.23047e-12
-1.08637e-09
2.23169e-12
-1.33335e-09
-1.08637e-09
5.41257e-12
-1.39974e-09
4.73721e-12
-9.99769e-10
-2.31928e-12
-1.65816e-09
2.32038e-12
-7.75836e-10
-4.73305e-12
-1.65806e-09
-5.41012e-12
-9.99851e-10
-8.97692e-13
-1.39976e-09
-2.19747e-12
-1.08507e-09
2.19873e-12
-1.33775e-09
-1.08507e-09
5.20794e-12
-1.40407e-09
4.54105e-12
-9.99103e-10
-2.28799e-12
-1.65133e-09
2.28912e-12
-7.80413e-10
-4.53696e-12
-1.65123e-09
-5.20547e-12
-9.99182e-10
-8.83168e-13
-1.40408e-09
-2.16309e-12
-1.08379e-09
2.16439e-12
-1.34208e-09
-1.08379e-09
5.00592e-12
-1.40821e-09
4.34869e-12
-9.98445e-10
-2.25607e-12
-1.64473e-09
2.25722e-12
-7.84926e-10
-4.34467e-12
-1.64463e-09
-5.00345e-12
-9.98523e-10
-8.6718e-13
-1.40822e-09
-2.12742e-12
-1.08253e-09
2.12876e-12
-1.34633e-09
-1.08253e-09
4.80693e-12
-1.41216e-09
4.16049e-12
-9.97799e-10
-2.22348e-12
-1.63834e-09
2.22466e-12
-7.89374e-10
-4.15654e-12
-1.63825e-09
-4.80446e-12
-9.97876e-10
-8.49905e-13
-1.41217e-09
-2.09054e-12
-1.08129e-09
2.09192e-12
-1.35051e-09
-1.08129e-09
4.61132e-12
-1.41594e-09
3.97675e-12
-9.97164e-10
-2.19021e-12
-1.63218e-09
2.19141e-12
-7.93756e-10
-3.97287e-12
-1.63208e-09
-4.60883e-12
-9.9724e-10
-8.31509e-13
-1.41595e-09
-2.05253e-12
-1.08007e-09
2.05395e-12
-1.35462e-09
-1.08006e-09
4.41937e-12
-1.41955e-09
3.79772e-12
-9.96543e-10
-2.15625e-12
-1.62622e-09
2.15747e-12
-7.98069e-10
-3.7939e-12
-1.62613e-09
-4.41689e-12
-9.96617e-10
-8.12157e-13
-1.41955e-09
-2.01348e-12
-1.07887e-09
2.01494e-12
-1.35865e-09
-1.07886e-09
4.23137e-12
-1.42299e-09
3.62359e-12
-9.95935e-10
-2.12158e-12
-1.62048e-09
2.12283e-12
-8.02314e-10
-3.61983e-12
-1.62039e-09
-4.22888e-12
-9.96008e-10
-7.92004e-13
-1.42299e-09
-1.97348e-12
-1.07769e-09
1.97498e-12
-1.3626e-09
-1.07768e-09
4.04755e-12
-1.42627e-09
3.45454e-12
-9.95342e-10
-2.08623e-12
-1.61494e-09
2.0875e-12
-8.06488e-10
-3.45083e-12
-1.61485e-09
-4.04505e-12
-9.95413e-10
-7.71199e-13
-1.42626e-09
-1.9326e-12
-1.07653e-09
1.93414e-12
-1.36646e-09
-1.07652e-09
3.86808e-12
-1.42938e-09
3.29068e-12
-9.94764e-10
-2.05021e-12
-1.60959e-09
2.0515e-12
-8.10589e-10
-3.28703e-12
-1.60951e-09
-3.86558e-12
-9.94835e-10
-7.49884e-13
-1.42938e-09
-1.89095e-12
-1.07539e-09
1.89253e-12
-1.37025e-09
-1.07537e-09
3.69315e-12
-1.43235e-09
3.13211e-12
-9.94203e-10
-2.01354e-12
-1.60445e-09
2.01485e-12
-8.14618e-10
-3.12851e-12
-1.60437e-09
-3.69064e-12
-9.94273e-10
-7.28189e-13
-1.43234e-09
-1.84859e-12
-1.07427e-09
1.85022e-12
-1.37395e-09
-1.07425e-09
3.52289e-12
-1.43516e-09
2.97889e-12
-9.93659e-10
-1.97627e-12
-1.59949e-09
1.97759e-12
-8.18572e-10
-2.97535e-12
-1.59942e-09
-3.52038e-12
-9.93728e-10
-7.06234e-13
-1.43516e-09
-1.80562e-12
-1.07317e-09
1.8073e-12
-1.37756e-09
-1.07315e-09
3.35742e-12
-1.43784e-09
2.83107e-12
-9.93133e-10
-1.93841e-12
-1.59472e-09
1.93975e-12
-8.2245e-10
-2.82758e-12
-1.59465e-09
-3.3549e-12
-9.932e-10
-6.84131e-13
-1.43783e-09
-1.76211e-12
-1.07209e-09
1.76384e-12
-1.38109e-09
-1.07207e-09
3.19683e-12
-1.44037e-09
2.68866e-12
-9.92625e-10
-1.90002e-12
-1.59014e-09
1.90138e-12
-8.26251e-10
-2.68522e-12
-1.59006e-09
-3.19431e-12
-9.92691e-10
-6.61983e-13
-1.44036e-09
-1.71816e-12
-1.07103e-09
1.71994e-12
-1.38452e-09
-1.07102e-09
3.0412e-12
-1.44277e-09
2.55166e-12
-9.92135e-10
-1.86114e-12
-1.58572e-09
1.86251e-12
-8.29975e-10
-2.54827e-12
-1.58565e-09
-3.03868e-12
-9.92201e-10
-6.39882e-13
-1.44276e-09
-1.67382e-12
-1.07e-09
1.67566e-12
-1.38787e-09
-1.06998e-09
2.89059e-12
-1.44504e-09
2.42006e-12
-9.91665e-10
-1.82181e-12
-1.58148e-09
1.8232e-12
-8.3362e-10
-2.41672e-12
-1.58141e-09
-2.88806e-12
-9.91729e-10
-6.17914e-13
-1.44503e-09
-1.62919e-12
-1.06899e-09
1.63108e-12
-1.39113e-09
-1.06897e-09
2.74505e-12
-1.44719e-09
2.29383e-12
-9.91214e-10
-1.7821e-12
-1.57741e-09
1.78349e-12
-8.37185e-10
-2.29053e-12
-1.57734e-09
-2.74252e-12
-9.91277e-10
-5.96162e-13
-1.44718e-09
-1.58434e-12
-1.068e-09
1.58628e-12
-1.3943e-09
-1.06798e-09
2.6046e-12
-1.44922e-09
2.17293e-12
-9.90782e-10
-1.74204e-12
-1.57349e-09
1.74345e-12
-8.40671e-10
-2.16967e-12
-1.57342e-09
-2.60206e-12
-9.90845e-10
-5.74706e-13
-1.4492e-09
-1.53935e-12
-1.06704e-09
1.54135e-12
-1.39738e-09
-1.06702e-09
2.46926e-12
-1.45113e-09
2.05729e-12
-9.9037e-10
-1.70171e-12
-1.56973e-09
1.70313e-12
-8.44076e-10
-2.05408e-12
-1.56967e-09
-2.46673e-12
-9.90432e-10
-5.53628e-13
-1.45112e-09
-1.49435e-12
-1.0661e-09
1.4964e-12
-1.40038e-09
-1.06607e-09
2.33907e-12
-1.45294e-09
1.94688e-12
-9.89978e-10
-1.66115e-12
-1.56612e-09
1.66258e-12
-8.47399e-10
-1.94371e-12
-1.56606e-09
-2.33654e-12
-9.9004e-10
-5.33004e-13
-1.45292e-09
-1.44947e-12
-1.06518e-09
1.45157e-12
-1.40328e-09
-1.06516e-09
2.214e-12
-1.45463e-09
1.84162e-12
-9.89605e-10
-1.62044e-12
-1.56266e-09
1.62186e-12
-8.50642e-10
-1.83849e-12
-1.5626e-09
-2.21147e-12
-9.89667e-10
-5.12911e-13
-1.45462e-09
-1.40481e-12
-1.06429e-09
1.40696e-12
-1.40609e-09
-1.06427e-09
2.09408e-12
-1.45623e-09
1.74144e-12
-9.89253e-10
-1.57961e-12
-1.55934e-09
1.58104e-12
-8.53802e-10
-1.73836e-12
-1.55928e-09
-2.09155e-12
-9.89313e-10
-4.9342e-13
-1.45622e-09
-1.36052e-12
-1.06342e-09
1.36271e-12
-1.40881e-09
-1.0634e-09
1.97929e-12
-1.45774e-09
1.64629e-12
-9.8892e-10
-1.53875e-12
-1.55616e-09
1.54018e-12
-8.56881e-10
-1.64325e-12
-1.5561e-09
-1.97676e-12
-9.8898e-10
-4.74599e-13
-1.45772e-09
-1.31669e-12
-1.06258e-09
1.31893e-12
-1.41145e-09
-1.06256e-09
1.86962e-12
-1.45915e-09
1.5561e-12
-9.88606e-10
-1.49791e-12
-1.5531e-09
1.49934e-12
-8.59879e-10
-1.5531e-12
-1.55305e-09
-1.86709e-12
-9.88666e-10
-4.56515e-13
-1.45913e-09
-1.27343e-12
-1.06176e-09
1.27573e-12
-1.414e-09
-1.06174e-09
1.76506e-12
-1.46047e-09
1.4708e-12
-9.88312e-10
-1.45716e-12
-1.55017e-09
1.45859e-12
-8.62794e-10
-1.46784e-12
-1.55012e-09
-1.76253e-12
-9.88371e-10
-4.39228e-13
-1.46045e-09
-1.23086e-12
-1.06097e-09
1.23321e-12
-1.41646e-09
-1.06095e-09
1.66559e-12
-1.46171e-09
1.39034e-12
-9.88037e-10
-1.41655e-12
-1.54737e-09
1.41797e-12
-8.65629e-10
-1.38742e-12
-1.54731e-09
-1.66306e-12
-9.88096e-10
-4.22798e-13
-1.46169e-09
-1.18908e-12
-1.0602e-09
1.19148e-12
-1.41884e-09
-1.06018e-09
1.57121e-12
-1.46287e-09
1.31467e-12
-9.8778e-10
-1.37616e-12
-1.54468e-09
1.37757e-12
-8.68383e-10
-1.3118e-12
-1.54462e-09
-1.56868e-12
-9.87839e-10
-4.07282e-13
-1.46285e-09
-1.1482e-12
-1.05946e-09
1.15065e-12
-1.42114e-09
-1.05944e-09
1.4819e-12
-1.46396e-09
1.24376e-12
-9.87542e-10
-1.33604e-12
-1.5421e-09
1.33745e-12
-8.71056e-10
-1.24094e-12
-1.54205e-09
-1.47936e-12
-9.876e-10
-3.92733e-13
-1.46394e-09
-1.10833e-12
-1.05875e-09
1.11084e-12
-1.42336e-09
-1.05872e-09
1.39764e-12
-1.46498e-09
1.17758e-12
-9.87322e-10
-1.29626e-12
-1.53962e-09
1.29766e-12
-8.7365e-10
-1.1748e-12
-1.53957e-09
-1.3951e-12
-9.8738e-10
-3.79201e-13
-1.46496e-09
-1.06957e-12
-1.05806e-09
1.07214e-12
-1.4255e-09
-1.05803e-09
1.31842e-12
-1.46593e-09
1.11612e-12
-9.8712e-10
-1.25688e-12
-1.53725e-09
1.25828e-12
-8.76165e-10
-1.11339e-12
-1.5372e-09
-1.31588e-12
-9.87177e-10
-3.66733e-13
-1.46591e-09
-1.03206e-12
-1.05739e-09
1.03468e-12
-1.42757e-09
-1.05737e-09
1.24424e-12
-1.46681e-09
1.05938e-12
-9.86935e-10
-1.21799e-12
-1.53497e-09
1.21937e-12
-8.78603e-10
-1.05669e-12
-1.53493e-09
-1.24168e-12
-9.86993e-10
-3.55372e-13
-1.46679e-09
-9.95894e-13
-1.05675e-09
9.98577e-13
-1.42956e-09
-1.05673e-09
1.17507e-12
-1.46764e-09
1.00738e-12
-9.86767e-10
-1.17963e-12
-1.53278e-09
1.181e-12
-8.80963e-10
-1.00473e-12
-1.53274e-09
-1.1725e-12
-9.86825e-10
-3.45153e-13
-1.46762e-09
-9.61207e-13
-1.05613e-09
9.6395e-13
-1.43149e-09
-1.05611e-09
1.11091e-12
-1.46841e-09
9.60142e-13
-9.86616e-10
-1.1419e-12
-1.53068e-09
1.14326e-12
-8.83248e-10
-9.57546e-13
-1.53064e-09
-1.10833e-12
-9.86674e-10
-3.36106e-13
-1.46839e-09
-9.28123e-13
-1.05554e-09
9.30925e-13
-1.43335e-09
-1.05552e-09
1.05173e-12
-1.46913e-09
9.17716e-13
-9.86482e-10
-1.10488e-12
-1.52866e-09
1.10623e-12
-8.85459e-10
-9.15167e-13
-1.52862e-09
-1.04914e-12
-9.8654e-10
-3.28247e-13
-1.46911e-09
-8.96772e-13
-1.05497e-09
8.99631e-13
-1.43514e-09
-1.05495e-09
9.97516e-13
-1.46981e-09
8.80141e-13
-9.86365e-10
-1.06867e-12
-1.52671e-09
1.07002e-12
-8.87598e-10
-8.77637e-13
-1.52667e-09
-9.9491e-13
-9.86423e-10
-3.21582e-13
-1.46979e-09
-8.67289e-13
-1.05443e-09
8.70202e-13
-1.43688e-09
-1.0544e-09
9.48224e-13
-1.47044e-09
8.47447e-13
-9.86264e-10
-1.03341e-12
-1.52483e-09
1.03477e-12
-8.89666e-10
-8.44985e-13
-1.52479e-09
-9.45602e-13
-9.86322e-10
-3.16094e-13
-1.47042e-09
-8.39809e-13
-1.0539e-09
8.42771e-13
-1.43856e-09
-1.05388e-09
9.03794e-13
-1.47102e-09
8.19635e-13
-9.8618e-10
-9.99267e-13
-1.52301e-09
1.00063e-12
-8.91666e-10
-8.17208e-13
-1.52297e-09
-9.01154e-13
-9.86238e-10
-3.11743e-13
-1.471e-09
-8.14468e-13
-1.0534e-09
8.17468e-13
-1.44019e-09
-1.05338e-09
8.64128e-13
-1.47158e-09
7.96647e-13
-9.86113e-10
-9.66454e-13
-1.52125e-09
9.67849e-13
-8.936e-10
-7.94245e-13
-1.52121e-09
-8.61471e-13
-9.86171e-10
-3.08454e-13
-1.47156e-09
-7.91393e-13
-1.05292e-09
7.9442e-13
-1.44178e-09
-1.05289e-09
8.29087e-13
-1.4721e-09
7.7834e-13
-9.86062e-10
-9.35265e-13
-1.51953e-09
9.3671e-13
-8.95472e-10
-7.75948e-13
-1.5195e-09
-8.26416e-13
-9.8612e-10
-3.06114e-13
-1.47208e-09
-7.70702e-13
-1.05245e-09
7.73735e-13
-1.44332e-09
-1.05243e-09
7.98481e-13
-1.47259e-09
7.64448e-13
-9.86028e-10
-9.06073e-13
-1.51786e-09
9.07599e-13
-8.97286e-10
-7.62045e-13
-1.51783e-09
-7.95798e-13
-9.86087e-10
-3.04569e-13
-1.47257e-09
-7.52489e-13
-1.05201e-09
7.55504e-13
-1.44483e-09
-1.05198e-09
7.72064e-13
-1.47305e-09
7.54558e-13
-9.8601e-10
-8.79355e-13
-1.51623e-09
8.80995e-13
-8.99046e-10
-7.52118e-13
-1.51619e-09
-7.69376e-13
-9.86069e-10
-3.03618e-13
-1.47303e-09
-7.36818e-13
-1.05157e-09
7.39786e-13
-1.44631e-09
-1.05155e-09
7.4955e-13
-1.4735e-09
7.48097e-13
-9.86009e-10
-8.55685e-13
-1.51463e-09
8.57477e-13
-9.0076e-10
-7.4559e-13
-1.51459e-09
-7.46864e-13
-9.86068e-10
-3.03036e-13
-1.47348e-09
-7.23716e-13
-1.05115e-09
7.26606e-13
-1.44776e-09
-1.05113e-09
7.30646e-13
-1.47392e-09
7.4434e-13
-9.86023e-10
-8.35711e-13
-1.51305e-09
8.37687e-13
-9.02433e-10
-7.41739e-13
-1.51301e-09
-7.27973e-13
-9.86082e-10
-3.02601e-13
-1.4739e-09
-7.13159e-13
-1.05074e-09
7.15944e-13
-1.44919e-09
-1.05072e-09
7.15129e-13
-1.47433e-09
7.4246e-13
-9.8605e-10
-8.20084e-13
-1.51148e-09
8.22259e-13
-9.04075e-10
-7.39742e-13
-1.51145e-09
-7.12478e-13
-9.86109e-10
-3.02163e-13
-1.47431e-09
-7.05067e-13
-1.05034e-09
7.07734e-13
-1.4506e-09
-1.05031e-09
7.03003e-13
-1.47473e-09
7.41705e-13
-9.86089e-10
-8.09451e-13
-1.50993e-09
8.11814e-13
-9.05697e-10
-7.3886e-13
-1.5099e-09
-7.00382e-13
-9.86148e-10
-3.01749e-13
-1.47471e-09
-6.9938e-13
-1.04994e-09
7.01932e-13
-1.452e-09
-1.04992e-09
6.94772e-13
-1.47512e-09
7.41952e-13
-9.86136e-10
-8.04778e-13
-1.50839e-09
8.07288e-13
-9.07309e-10
-7.38991e-13
-1.50835e-09
-6.92181e-13
-9.86194e-10
-3.01639e-13
-1.4751e-09
-6.96375e-13
-1.04955e-09
6.98839e-13
-1.4534e-09
-1.04952e-09
6.81311e-13
7.57331e-13
-8.2152e-13
8.24149e-13
-7.54238e-13
-6.78779e-13
-3.08174e-13
-6.86925e-13
6.89315e-13
)
;

boundaryField
{
    BotWall
    {
        type            calculated;
        value           nonuniform List<scalar> 10(7.49326e-10 3.36807e-12 3.10696e-10 6.36384e-16 3.10696e-10 3.36735e-12 7.4933e-10 2.17328e-10 1.2908e-12 2.17328e-10);
    }
    FreeStream
    {
        type            calculated;
        value           nonuniform List<scalar> 10(-1.47549e-09 -9.86212e-10 -1.50681e-09 -9.08954e-10 -1.50678e-09 -9.8627e-10 -1.47547e-09 -1.04917e-09 -1.45477e-09 -1.04914e-09);
    }
    FrontNBack
    {
        type            empty;
        value           nonuniform 0();
    }
    LeftSide
    {
        type            cyclic;
        value           nonuniform List<scalar> 
100
(
5.06531e-11
1.62358e-12
-8.13381e-12
-6.28965e-12
-5.01928e-12
-3.97548e-12
-3.10643e-12
-2.39582e-12
-1.81952e-12
-1.35329e-12
-9.77248e-13
-6.75819e-13
-4.36643e-13
-2.49781e-13
-1.07358e-13
2.24185e-16
7.3866e-14
1.21825e-13
1.45717e-13
1.49472e-13
1.36477e-13
1.09664e-13
7.15553e-14
2.41382e-14
-3.01565e-14
-8.57087e-14
-1.4533e-13
-2.07157e-13
-2.69854e-13
-3.32355e-13
-3.93786e-13
-4.53429e-13
-5.10698e-13
-5.65127e-13
-6.16349e-13
-6.64086e-13
-7.08137e-13
-7.48367e-13
-7.84698e-13
-8.17102e-13
-8.45592e-13
-8.70217e-13
-8.91056e-13
-9.08212e-13
-9.21811e-13
-9.31993e-13
-9.38914e-13
-9.42738e-13
-9.43638e-13
-9.41795e-13
-9.37388e-13
-9.30605e-13
-9.21628e-13
-9.10644e-13
-8.97835e-13
-8.83383e-13
-8.67465e-13
-8.50256e-13
-8.31927e-13
-8.12639e-13
-7.92552e-13
-7.71814e-13
-7.50569e-13
-7.28947e-13
-7.0707e-13
-6.8505e-13
-6.6299e-13
-6.40982e-13
-6.19111e-13
-5.97458e-13
-5.76102e-13
-5.55121e-13
-5.34592e-13
-5.14592e-13
-4.95191e-13
-4.7646e-13
-4.58462e-13
-4.4126e-13
-4.24913e-13
-4.09477e-13
-3.95007e-13
-3.81553e-13
-3.6916e-13
-3.57872e-13
-3.47724e-13
-3.38745e-13
-3.30951e-13
-3.24345e-13
-3.18911e-13
-3.14605e-13
-3.11349e-13
-3.09028e-13
-3.0748e-13
-3.06504e-13
-3.05872e-13
-3.05367e-13
-3.04852e-13
-3.04368e-13
-3.04215e-13
-3.10785e-13
)
;
    }
    RightSide
    {
        type            cyclic;
        value           nonuniform List<scalar> 
100
(
-5.06531e-11
-1.62358e-12
8.13381e-12
6.28965e-12
5.01928e-12
3.97548e-12
3.10643e-12
2.39582e-12
1.81952e-12
1.35329e-12
9.77248e-13
6.75819e-13
4.36643e-13
2.49781e-13
1.07358e-13
-2.24185e-16
-7.3866e-14
-1.21825e-13
-1.45717e-13
-1.49472e-13
-1.36477e-13
-1.09664e-13
-7.15553e-14
-2.41382e-14
3.01565e-14
8.57087e-14
1.4533e-13
2.07157e-13
2.69854e-13
3.32355e-13
3.93786e-13
4.53429e-13
5.10698e-13
5.65127e-13
6.16349e-13
6.64086e-13
7.08137e-13
7.48367e-13
7.84698e-13
8.17102e-13
8.45592e-13
8.70217e-13
8.91056e-13
9.08212e-13
9.21811e-13
9.31993e-13
9.38914e-13
9.42738e-13
9.43638e-13
9.41795e-13
9.37388e-13
9.30605e-13
9.21628e-13
9.10644e-13
8.97835e-13
8.83383e-13
8.67465e-13
8.50256e-13
8.31927e-13
8.12639e-13
7.92552e-13
7.71814e-13
7.50569e-13
7.28947e-13
7.0707e-13
6.8505e-13
6.6299e-13
6.40982e-13
6.19111e-13
5.97458e-13
5.76102e-13
5.55121e-13
5.34592e-13
5.14592e-13
4.95191e-13
4.7646e-13
4.58462e-13
4.4126e-13
4.24913e-13
4.09477e-13
3.95007e-13
3.81553e-13
3.6916e-13
3.57872e-13
3.47724e-13
3.38745e-13
3.30951e-13
3.24345e-13
3.18911e-13
3.14605e-13
3.11349e-13
3.09028e-13
3.0748e-13
3.06504e-13
3.05872e-13
3.05367e-13
3.04852e-13
3.04368e-13
3.04215e-13
3.10785e-13
)
;
    }
}


// ************************************************************************* //
