/*--------------------------------*- C++ -*----------------------------------*\
| =========                 |                                                 |
| \\      /  F ield         | OpenFOAM: The Open Source CFD Toolbox           |
|  \\    /   O peration     | Version:  2.4.0                                 |
|   \\  /    A nd           | Web:      www.OpenFOAM.org                      |
|    \\/     M anipulation  |                                                 |
\*---------------------------------------------------------------------------*/
FoamFile
{
    version     2.0;
    format      ascii;
    class       volScalarField;
    location    "0.7";
    object      T;
}
// * * * * * * * * * * * * * * * * * * * * * * * * * * * * * * * * * * * * * //

dimensions      [0 0 0 1 0 0 0];

internalField   nonuniform List<scalar> 
1000
(
296.928
294.838
297.038
294.275
297.038
294.839
296.928
297.433
294.511
297.433
296.967
294.933
296.9
294.352
296.9
294.934
296.967
297.414
296.992
297.414
297.011
295.198
296.944
294.485
296.944
295.198
297.011
297.445
297.021
297.445
297.057
295.435
296.99
294.667
296.99
295.436
297.057
297.476
297.102
297.476
297.105
295.649
297.036
294.841
297.036
295.65
297.105
297.506
297.177
297.506
297.153
295.843
297.084
295.01
297.083
295.844
297.153
297.534
297.247
297.534
297.2
296.019
297.131
295.175
297.131
296.02
297.201
297.561
297.31
297.561
297.248
296.178
297.179
295.334
297.179
296.18
297.248
297.587
297.369
297.587
297.294
296.324
297.227
295.49
297.226
296.325
297.294
297.612
297.423
297.612
297.338
296.458
297.274
295.64
297.273
296.459
297.339
297.636
297.472
297.636
297.382
296.58
297.319
295.786
297.319
296.581
297.382
297.659
297.518
297.659
297.423
296.692
297.364
295.928
297.364
296.693
297.423
297.681
297.56
297.681
297.463
296.795
297.407
296.063
297.407
296.796
297.463
297.701
297.598
297.701
297.501
296.89
297.448
296.194
297.448
296.89
297.501
297.721
297.634
297.721
297.536
296.978
297.487
296.318
297.487
296.978
297.536
297.739
297.666
297.739
297.57
297.059
297.524
296.437
297.524
297.059
297.57
297.757
297.695
297.757
297.602
297.134
297.559
296.549
297.559
297.134
297.602
297.773
297.722
297.773
297.632
297.203
297.592
296.655
297.592
297.203
297.632
297.789
297.747
297.789
297.66
297.268
297.622
296.756
297.622
297.268
297.66
297.803
297.77
297.803
297.686
297.327
297.651
296.85
297.651
297.327
297.686
297.817
297.791
297.817
297.711
297.383
297.677
296.938
297.677
297.383
297.711
297.83
297.809
297.83
297.734
297.434
297.702
297.02
297.702
297.434
297.734
297.842
297.827
297.842
297.755
297.481
297.725
297.097
297.725
297.481
297.755
297.854
297.843
297.854
297.775
297.525
297.746
297.168
297.746
297.525
297.775
297.865
297.857
297.865
297.794
297.566
297.766
297.235
297.766
297.566
297.794
297.875
297.87
297.875
297.811
297.603
297.784
297.297
297.784
297.603
297.811
297.884
297.882
297.884
297.827
297.638
297.801
297.354
297.801
297.638
297.827
297.893
297.893
297.893
297.842
297.669
297.817
297.407
297.817
297.669
297.842
297.901
297.903
297.901
297.855
297.698
297.832
297.456
297.832
297.698
297.855
297.909
297.912
297.909
297.868
297.725
297.845
297.501
297.845
297.725
297.868
297.916
297.92
297.916
297.88
297.75
297.858
297.543
297.858
297.75
297.88
297.923
297.928
297.923
297.89
297.772
297.869
297.581
297.869
297.772
297.89
297.929
297.935
297.929
297.9
297.793
297.88
297.617
297.88
297.793
297.9
297.935
297.941
297.935
297.909
297.812
297.89
297.649
297.89
297.812
297.909
297.94
297.946
297.94
297.918
297.829
297.899
297.68
297.899
297.829
297.918
297.945
297.952
297.945
297.925
297.845
297.907
297.707
297.907
297.845
297.925
297.95
297.956
297.95
297.932
297.859
297.915
297.733
297.915
297.859
297.932
297.954
297.96
297.954
297.939
297.873
297.922
297.756
297.922
297.873
297.939
297.958
297.964
297.958
297.945
297.885
297.929
297.778
297.929
297.885
297.945
297.962
297.968
297.962
297.95
297.896
297.935
297.798
297.935
297.896
297.95
297.965
297.971
297.965
297.955
297.906
297.941
297.816
297.941
297.906
297.955
297.968
297.974
297.968
297.959
297.915
297.946
297.833
297.946
297.915
297.959
297.971
297.976
297.971
297.963
297.923
297.951
297.848
297.951
297.923
297.963
297.973
297.979
297.973
297.967
297.93
297.955
297.862
297.955
297.93
297.967
297.976
297.981
297.976
297.97
297.937
297.959
297.875
297.959
297.937
297.97
297.978
297.983
297.978
297.973
297.943
297.963
297.886
297.963
297.943
297.973
297.98
297.985
297.98
297.976
297.949
297.966
297.897
297.966
297.949
297.976
297.982
297.986
297.982
297.978
297.954
297.969
297.907
297.969
297.954
297.978
297.984
297.988
297.984
297.981
297.959
297.972
297.916
297.972
297.959
297.981
297.985
297.989
297.985
297.983
297.963
297.975
297.924
297.975
297.963
297.983
297.987
297.99
297.987
297.984
297.967
297.977
297.931
297.977
297.967
297.984
297.988
297.991
297.988
297.986
297.97
297.979
297.938
297.979
297.97
297.986
297.989
297.992
297.989
297.988
297.973
297.981
297.944
297.981
297.973
297.988
297.99
297.993
297.99
297.989
297.976
297.983
297.95
297.983
297.976
297.989
297.991
297.994
297.991
297.99
297.978
297.985
297.955
297.985
297.978
297.99
297.992
297.994
297.992
297.991
297.981
297.986
297.959
297.986
297.981
297.991
297.993
297.995
297.993
297.992
297.983
297.987
297.964
297.987
297.983
297.992
297.993
297.995
297.993
297.993
297.984
297.989
297.967
297.989
297.984
297.993
297.994
297.996
297.994
297.994
297.986
297.99
297.971
297.99
297.986
297.994
297.995
297.996
297.995
297.994
297.988
297.991
297.974
297.991
297.988
297.994
297.995
297.997
297.995
297.995
297.989
297.992
297.977
297.992
297.989
297.995
297.996
297.997
297.996
297.996
297.99
297.993
297.979
297.993
297.99
297.996
297.996
297.997
297.996
297.996
297.991
297.993
297.981
297.993
297.991
297.996
297.997
297.998
297.997
297.997
297.992
297.994
297.983
297.994
297.992
297.997
297.997
297.998
297.997
297.997
297.993
297.995
297.985
297.995
297.993
297.997
297.997
297.998
297.997
297.997
297.994
297.995
297.987
297.995
297.994
297.997
297.998
297.998
297.998
297.998
297.995
297.996
297.988
297.996
297.995
297.998
297.998
297.999
297.998
297.998
297.995
297.996
297.99
297.996
297.995
297.998
297.998
297.999
297.998
297.998
297.996
297.997
297.991
297.997
297.996
297.998
297.998
297.999
297.998
297.998
297.996
297.997
297.992
297.997
297.996
297.998
297.999
297.999
297.999
297.999
297.997
297.997
297.993
297.997
297.997
297.999
297.999
297.999
297.999
297.999
297.997
297.998
297.994
297.998
297.997
297.999
297.999
297.999
297.999
297.999
297.997
297.998
297.994
297.998
297.997
297.999
297.999
297.999
297.999
297.999
297.998
297.998
297.995
297.998
297.998
297.999
297.999
297.999
297.999
297.999
297.998
297.998
297.996
297.998
297.998
297.999
297.999
297.999
297.999
297.999
297.998
297.999
297.996
297.999
297.998
297.999
297.999
298
297.999
297.999
297.998
297.999
297.997
297.999
297.998
297.999
297.999
298
297.999
297.999
297.999
297.999
297.997
297.999
297.999
297.999
297.999
298
297.999
297.999
297.999
297.999
297.997
297.999
297.999
297.999
298
298
298
298
297.999
297.999
297.998
297.999
297.999
298
298
298
298
298
297.999
297.999
297.998
297.999
297.999
298
298
298
298
298
297.999
297.999
297.998
297.999
297.999
298
298
298
298
298
297.999
297.999
297.998
297.999
297.999
298
298
298
298
298
297.999
298
297.999
298
297.999
298
298
298
298
298
297.999
298
297.999
298
297.999
298
298
298
298
298
298
298
297.999
298
298
298
298
298
298
298
298
298
297.999
298
298
298
298
298
298
298
298
298
297.999
298
298
298
298
298
298
298
298
298
297.999
298
298
298
298
298
298
298
298
298
297.999
298
298
298
298
298
298
298
298
298
298
298
298
298
298
298
298
298
298
298
298
298
298
298
298
298
298
298
298
298
298
298
298
298
298
298
298
298
298
298
298
298
298
298
298
298
298
298
298
298
298
298
298
298
298
298
298
298
298
298
298
298
298
298
298
298
298
298
298
298
298
298
298
298
298
298
298
298
298
298
298
298
298
298
298
298
298
298
298
298
298
298
298
298
298
298
298
298
298
298
298
298
298
298
298
298
298
)
;

boundaryField
{
    BotWall
    {
        type            fixedValue;
        value           uniform 293;
    }
    FreeStream
    {
        type            fixedValue;
        value           uniform 298;
    }
    FrontNBack
    {
        type            empty;
    }
    LeftSide
    {
        type            cyclic;
    }
    RightSide
    {
        type            cyclic;
    }
}


// ************************************************************************* //
