/*--------------------------------*- C++ -*----------------------------------*\
| =========                 |                                                 |
| \\      /  F ield         | OpenFOAM: The Open Source CFD Toolbox           |
|  \\    /   O peration     | Version:  2.4.0                                 |
|   \\  /    A nd           | Web:      www.OpenFOAM.org                      |
|    \\/     M anipulation  |                                                 |
\*---------------------------------------------------------------------------*/
FoamFile
{
    version     2.0;
    format      ascii;
    class       volScalarField;
    location    "3.2";
    object      H;
}
// * * * * * * * * * * * * * * * * * * * * * * * * * * * * * * * * * * * * * //

dimensions      [0 2 -2 0 0 0 0];

internalField   nonuniform List<scalar> 
125
(
-7.10579
-7.13553
-7.16587
-7.14606
-7.10206
-6.4915
-6.51815
-6.54545
-6.52761
-6.48816
-5.93375
-5.95747
-5.98188
-5.96592
-5.93077
-5.4273
-5.44827
-5.46996
-5.45577
-5.42466
-4.9671
-4.98552
-5.00466
-4.99213
-4.96477
-4.54828
-4.56436
-4.58114
-4.57015
-4.54625
-4.16622
-4.18016
-4.19476
-4.18519
-4.16446
-3.81655
-3.82853
-3.84115
-3.83289
-3.81503
-3.49519
-3.50543
-3.51626
-3.50916
-3.49389
-3.19841
-3.20709
-3.21631
-3.21027
-3.19731
-2.92279
-2.93009
-2.93789
-2.93278
-2.92186
-2.66526
-2.67134
-2.67788
-2.6736
-2.66447
-2.42304
-2.42808
-2.43352
-2.42996
-2.42239
-2.19372
-2.19785
-2.20233
-2.1994
-2.19318
-1.97516
-1.97851
-1.98218
-1.97978
-1.97472
-1.76552
-1.76821
-1.77118
-1.76924
-1.76516
-1.56321
-1.56535
-1.56773
-1.56618
-1.56292
-1.3669
-1.36858
-1.37047
-1.36924
-1.36667
-1.17548
-1.17678
-1.17825
-1.1773
-1.1753
-0.988026
-0.989016
-0.990142
-0.98941
-0.987888
-0.803787
-0.804521
-0.805363
-0.804817
-0.803683
-0.622161
-0.622685
-0.62329
-0.622898
-0.622086
-0.442665
-0.443014
-0.443419
-0.443157
-0.442614
-0.264913
-0.265112
-0.265344
-0.265194
-0.264883
-0.0885843
-0.0886494
-0.0887256
-0.0886764
-0.0885747
)
;

boundaryField
{
    BotWall
    {
        type            zeroGradient;
    }
    FreeStream
    {
        type            zeroGradient;
    }
    FrontNBack
    {
        type            empty;
    }
    LeftSide
    {
        type            symmetryPlane;
    }
    RightSide
    {
        type            symmetryPlane;
    }
    procBoundary3to2
    {
        type            processor;
        value           nonuniform List<scalar> 5(-7.78729 -7.82029 -7.85378 -7.83192 -7.78316);
    }
}


// ************************************************************************* //
