/*--------------------------------*- C++ -*----------------------------------*\
| =========                 |                                                 |
| \\      /  F ield         | OpenFOAM: The Open Source CFD Toolbox           |
|  \\    /   O peration     | Version:  2.4.0                                 |
|   \\  /    A nd           | Web:      www.OpenFOAM.org                      |
|    \\/     M anipulation  |                                                 |
\*---------------------------------------------------------------------------*/
FoamFile
{
    version     2.0;
    format      ascii;
    class       volScalarField;
    location    "3.2";
    object      p_rgh;
}
// * * * * * * * * * * * * * * * * * * * * * * * * * * * * * * * * * * * * * //

dimensions      [1 -1 -2 0 0 0 0];

internalField   nonuniform List<scalar> 
125
(
-2.25398e-05
-2.26414e-05
-2.27264e-05
-2.27966e-05
-2.28652e-05
-2.19122e-05
-2.20087e-05
-2.20906e-05
-2.21584e-05
-2.22239e-05
-2.12774e-05
-2.1369e-05
-2.14478e-05
-2.15131e-05
-2.15756e-05
-2.06355e-05
-2.07221e-05
-2.07979e-05
-2.08606e-05
-2.09202e-05
-1.99862e-05
-2.00681e-05
-2.01407e-05
-2.02009e-05
-2.02577e-05
-1.93295e-05
-1.94068e-05
-1.94762e-05
-1.95338e-05
-1.95879e-05
-1.86654e-05
-1.87382e-05
-1.88044e-05
-1.88593e-05
-1.89107e-05
-1.79938e-05
-1.80622e-05
-1.8125e-05
-1.81773e-05
-1.8226e-05
-1.73146e-05
-1.73786e-05
-1.74381e-05
-1.74877e-05
-1.75337e-05
-1.66276e-05
-1.66874e-05
-1.67436e-05
-1.67904e-05
-1.68337e-05
-1.5933e-05
-1.59886e-05
-1.60414e-05
-1.60854e-05
-1.6126e-05
-1.52304e-05
-1.5282e-05
-1.53313e-05
-1.53726e-05
-1.54105e-05
-1.452e-05
-1.45675e-05
-1.46134e-05
-1.46518e-05
-1.4687e-05
-1.38015e-05
-1.3845e-05
-1.38874e-05
-1.3923e-05
-1.39555e-05
-1.3075e-05
-1.31146e-05
-1.31534e-05
-1.31861e-05
-1.32159e-05
-1.23403e-05
-1.23759e-05
-1.24113e-05
-1.2441e-05
-1.2468e-05
-1.15973e-05
-1.16291e-05
-1.16609e-05
-1.16876e-05
-1.17119e-05
-1.08459e-05
-1.08739e-05
-1.09021e-05
-1.09258e-05
-1.09473e-05
-1.00861e-05
-1.01103e-05
-1.01349e-05
-1.01555e-05
-1.01743e-05
-9.31784e-06
-9.33825e-06
-9.35912e-06
-9.37664e-06
-9.39263e-06
-8.54093e-06
-8.55755e-06
-8.57472e-06
-8.58911e-06
-8.60231e-06
-7.75532e-06
-7.76815e-06
-7.78156e-06
-7.79279e-06
-7.80322e-06
-6.9609e-06
-6.96986e-06
-6.97942e-06
-6.98751e-06
-6.99521e-06
-6.1575e-06
-6.1627e-06
-6.16849e-06
-6.17331e-06
-6.1781e-06
-5.34374e-06
-5.34614e-06
-5.34886e-06
-5.34991e-06
-5.35053e-06
)
;

boundaryField
{
    BotWall
    {
        type            fixedFluxPressure;
        gradient        nonuniform 0();
        value           nonuniform 0();
    }
    FreeStream
    {
        type            totalPressure;
        rho             rho;
        psi             none;
        gamma           1;
        p0              uniform 0;
        value           nonuniform List<scalar> 5(-4.93383e-06 -4.93548e-06 -4.93717e-06 -4.93599e-06 -4.93367e-06);
    }
    FrontNBack
    {
        type            empty;
    }
    LeftSide
    {
        type            symmetryPlane;
    }
    RightSide
    {
        type            symmetryPlane;
    }
    procBoundary3to2
    {
        type            processor;
        value           nonuniform List<scalar> 5(-2.31602e-05 -2.32674e-05 -2.33551e-05 -2.34278e-05 -2.34999e-05);
    }
}


// ************************************************************************* //
