/*--------------------------------*- C++ -*----------------------------------*\
| =========                 |                                                 |
| \\      /  F ield         | OpenFOAM: The Open Source CFD Toolbox           |
|  \\    /   O peration     | Version:  2.4.0                                 |
|   \\  /    A nd           | Web:      www.OpenFOAM.org                      |
|    \\/     M anipulation  |                                                 |
\*---------------------------------------------------------------------------*/
FoamFile
{
    version     2.0;
    format      ascii;
    class       volScalarField;
    location    "2.7";
    object      alpha1;
}
// * * * * * * * * * * * * * * * * * * * * * * * * * * * * * * * * * * * * * //

dimensions      [0 0 0 0 0 0 0];

internalField   nonuniform List<scalar> 
8000
(
1
1
0.999996
0.99999
0.999981
0.999975
1
1
0.999972
0.999986
0.999993
0.999989
0.999978
0.999956
0.999947
0.99992
0.999852
0.999857
0.999951
0.999899
0.999814
0.999817
0.999925
0.999845
0.999747
0.999749
0.999761
0.999639
0.999516
0.999412
0.99926
0.99903
0.998715
0.998295
0.997686
0.991773
0.983954
0.973327
0.958095
0.935678
0.902282
0.852691
0.784126
0.694818
0.585863
0.46014
0.327941
0.205788
0.109
0.0457507
1
0.999999
0.999996
0.999993
0.999991
1
1.00002
1.00002
0.999999
0.999998
0.999997
0.999998
0.999999
0.999999
0.999998
0.999998
0.999998
0.999997
0.999997
0.999998
0.999998
0.999998
0.999998
0.999997
0.999997
0.999998
0.999997
0.999999
0.999998
0.999999
0.999999
0.999999
1
1
0.999999
1
0.999998
0.999998
1
0.999996
1
0.997867
0.989273
0.977571
0.957287
0.919635
0.850684
0.737444
0.577527
0.389681
1
0.999999
0.999997
0.999999
1
1
0.999996
1
1
1
1
0.999999
0.999999
0.999998
0.999998
0.999997
0.999997
0.999996
0.999996
0.999996
0.999996
0.999996
0.999996
0.999994
0.999993
0.999993
0.999994
0.999996
0.999997
0.999998
0.999998
0.999999
0.999999
0.999999
0.999999
1
1
1
1
1
1
1
1
1
0.999996
0.99996
0.991499
0.97611
0.938784
0.853796
1
0.999999
0.999997
0.999998
0.999999
0.999998
0.999996
0.999998
0.999999
0.999999
0.999999
0.999999
0.999998
0.999997
0.999997
0.999996
0.999995
0.999994
0.999994
0.999994
0.999994
0.999995
0.999995
0.999992
0.999991
0.99999
0.999991
0.999993
0.999994
0.999996
0.999997
0.999997
0.999998
0.999998
0.999999
0.999999
0.999999
0.999999
0.999999
1
0.999999
0.999999
0.999999
0.999999
0.999999
1
0.999999
1
0.995455
0.965734
1
0.999999
0.999997
0.999998
0.999998
0.999999
0.999999
0.999998
0.999999
0.999999
0.999999
0.999999
0.999998
0.999997
0.999997
0.999996
0.999994
0.999993
0.999992
0.999992
0.999993
0.999994
0.999994
0.999993
0.99999
0.999989
0.999989
0.99999
0.999992
0.999994
0.999995
0.999996
0.999997
0.999998
0.999998
0.999999
0.999999
0.999999
0.999999
0.999999
0.999999
0.999999
0.999999
0.999999
0.999998
0.999999
0.999995
0.999951
0.975525
0.910951
1
0.999999
0.999997
0.999998
0.999998
0.999999
0.999999
1
0.999999
0.999999
0.999999
0.999999
0.999998
0.999998
0.999997
0.999996
0.999994
0.999993
0.999992
0.999992
0.999992
0.999992
0.999993
0.999994
0.999991
0.99999
0.999989
0.999989
0.99999
0.999992
0.999994
0.999995
0.999996
0.999997
0.999997
0.999998
0.999998
0.999999
0.999999
0.999999
0.999999
0.999999
0.999999
0.999999
0.999987
0.999904
0.97724
0.902089
0.761444
0.566888
1
0.999999
0.999997
0.999998
0.999998
1
1
0.999999
0.999999
0.999999
0.999999
0.999999
0.999998
0.999998
0.999997
0.999996
0.999995
0.999994
0.999993
0.999992
0.999992
0.999992
0.999992
0.999994
0.999993
0.999993
0.999991
0.999991
0.999991
0.999992
0.999993
0.999994
0.999995
0.999996
0.999997
0.999997
0.999998
0.999998
0.999999
0.999999
0.999999
0.999994
0.999952
0.999754
0.950633
0.843805
0.686382
0.495331
0.309444
0.168429
1
0.999999
0.999997
0.999998
0.999999
0.999999
1
0.999999
0.999999
0.999999
0.999999
0.999999
0.999998
0.999998
0.999998
0.999997
0.999996
0.999995
0.999994
0.999993
0.999993
0.999993
0.999993
0.999993
0.999995
0.999995
0.999994
0.999994
0.999993
0.999993
0.999994
0.999995
0.999996
0.999996
0.999997
0.999997
0.999998
0.999998
0.999999
0.999992
0.999847
0.991625
0.892011
0.727279
0.520713
0.326105
0.179491
0.0931657
0.0483652
0.0248296
1
0.999999
0.999998
0.999998
0.999999
0.999999
0.999999
0.999999
0.999999
0.999999
0.999999
0.999999
0.999999
0.999998
0.999998
0.999998
0.999997
0.999997
0.999996
0.999995
0.999995
0.999994
0.999995
0.999994
0.999996
0.999996
0.999996
0.999996
0.999996
0.999996
0.999996
0.999996
0.999996
0.999997
0.999997
0.999998
0.999998
0.999964
0.999652
0.958343
0.788379
0.561902
0.339634
0.176667
0.0842165
0.0397197
0.0171955
0.00789954
0.00369248
0.00143575
1
1
0.999998
0.999998
0.999999
0.999999
0.999999
0.999999
0.999999
0.999999
0.999999
0.999999
0.999999
0.999999
0.999998
0.999998
0.999998
0.999998
0.999997
0.999997
0.999996
0.999996
0.999996
0.999996
0.999996
0.999998
0.999998
0.999998
0.999998
0.999998
0.999997
0.999997
0.999997
0.999997
0.999997
0.999909
0.999337
0.901539
0.653599
0.375834
0.194251
0.0751246
0.0279366
0.00783719
0.00213851
0.00106312
0.000440621
0.000138641
4.89104e-05
1.88663e-05
1
1
0.999999
0.999999
0.999999
0.999999
0.999999
0.999999
0.999999
0.999999
0.999999
0.999999
0.999999
0.999999
0.999999
0.999999
0.999999
0.999998
0.999998
0.999998
0.999998
0.999998
0.999998
0.999998
0.999998
0.999998
0.999998
0.999999
0.999999
0.999998
0.999998
0.999998
0.999998
0.999736
0.999099
0.827723
0.498726
0.280512
0.0765491
0.0121379
0.00555621
0.000865583
0.000149876
4.42212e-05
1.18927e-05
4.32748e-06
2.84752e-06
2.7957e-06
3.52762e-06
2.52257e-06
1
1
0.999999
0.999999
0.999999
0.999999
0.999999
0.999999
0.999999
0.999999
0.999999
0.999999
0.999999
0.999999
0.999999
0.999999
0.999999
0.999999
0.999999
0.999999
0.999999
0.999999
0.999999
0.999999
0.999999
0.999999
0.999999
0.999999
0.999999
0.999999
0.999969
0.999513
0.981209
0.68817
0.412598
0.133215
0.0113668
0.00439374
0.00054182
2.23521e-05
9.59022e-06
1.60884e-06
1.19256e-06
1.06365e-06
1.16132e-06
1.30147e-06
1.50801e-06
4.49738e-06
5.76518e-06
2.88882e-06
1
1
0.999999
0.999999
0.999999
1
1
0.999999
0.999999
0.999999
0.999999
0.999999
0.999999
0.999999
0.999999
0.999999
0.999999
0.999999
0.999999
0.999999
0.999999
0.999999
0.999999
1
0.999999
1
0.999999
0.999999
0.999891
0.999206
0.891334
0.564198
0.237573
0.0192347
0.00509761
0.000713399
1.34655e-05
6.84487e-06
2.15211e-06
2.0987e-06
2.31336e-06
1.13669e-06
1.09342e-06
1.05055e-06
1.03743e-06
1.0208e-06
3.78894e-06
5.95151e-06
5.74705e-06
1.46325e-06
1
1
1
0.999999
1
1
1
1
0.999999
0.999999
0.999999
0.999999
0.999999
0.999999
0.999999
0.999999
0.999999
0.999999
1
1
1
1
1
1
1
0.999998
0.99977
0.99869
0.785335
0.422414
0.055625
0.00684539
0.00396647
2.69206e-05
7.86495e-06
2.17636e-06
1.87305e-06
2.01231e-06
3.88773e-06
1.09514e-06
1.09435e-06
1.17441e-06
1.15998e-06
1.01361e-06
9.94481e-07
7.58748e-07
1.48055e-06
3.77458e-06
4.7806e-06
6.81931e-07
1
1
1
1
1
1
1
1
1
1
0.999999
0.999999
0.999999
0.999999
0.999999
0.999999
0.999999
1
1
1
1
1
1
0.999999
0.999632
0.993016
0.686821
0.255058
0.0155942
0.00622838
0.000789803
2.74403e-05
1.78008e-05
1.69868e-06
1.25665e-06
1.26224e-06
1.87749e-06
3.94885e-06
4.26648e-06
1.50941e-06
1.09336e-06
1.09577e-06
1.13966e-06
1.23307e-06
2.36925e-06
7.42432e-07
8.17968e-07
1.48863e-06
2.20084e-06
6.799e-07
1
1
1
1
1
1
1
1
1
1
1
1
1
1
1
1
1
1
1
1
1
0.999999
0.999557
0.974375
0.603158
0.129056
0.00747343
0.00433834
0.000111172
1.31819e-05
4.70126e-06
1.47717e-06
1.26136e-06
1.2557e-06
1.25138e-06
1.25075e-06
1.5907e-06
2.92157e-06
4.26988e-06
1.4139e-06
1.08419e-06
1.05927e-06
1.06557e-06
2.35009e-06
3.31394e-06
7.42143e-07
8.92328e-07
7.78129e-07
1.33086e-06
6.79781e-07
1
1
1
1
1
1
1
1
1
1
1
1
1
1
1
1
1
1
1
0.999998
0.999576
0.979028
0.543811
0.0693763
0.00458943
0.00239737
4.76066e-05
1.57508e-05
2.17079e-06
1.12103e-06
1.13005e-06
1.12397e-06
1.46065e-06
3.77651e-06
2.79977e-06
1.23683e-06
1.24745e-06
3.05838e-06
4.24954e-06
7.70393e-07
1.29417e-06
7.85847e-07
1.12095e-06
3.22185e-06
3.67401e-06
7.41068e-07
7.67137e-07
7.10692e-07
6.79966e-07
8.30447e-07
1
1
1
1
1
1
1
1
1
1
1
1
1
1
1
1.00001
1
0.999999
0.999716
0.997792
0.538891
0.0500538
0.00333982
0.00143049
2.47344e-05
8.79014e-06
1.65418e-06
1.1203e-06
1.12174e-06
1.11531e-06
1.11708e-06
1.12214e-06
2.38113e-06
3.83066e-06
3.16808e-06
1.23136e-06
1.23849e-06
2.3077e-06
3.44132e-06
7.63664e-07
8.27358e-07
7.39231e-07
1.84784e-06
3.91073e-06
3.53447e-06
7.20889e-07
6.48111e-07
6.53829e-07
7.08732e-07
2.6786e-06
1
1
1
1
1
1
1
1
1
1
1
1
1
1
1.00002
1
0.999934
0.99832
0.611772
0.0520088
0.00270198
0.000989594
1.70264e-05
5.48619e-06
1.45833e-06
1.10727e-06
1.11347e-06
1.11423e-06
1.12096e-06
1.11623e-06
1.13395e-06
3.49031e-06
5.57494e-06
1.26817e-06
1.2582e-06
1.22791e-06
1.23034e-06
1.73313e-06
2.77506e-06
7.62224e-07
7.61673e-07
7.38115e-07
1.29255e-06
3.74897e-06
3.24746e-06
6.35475e-07
6.37366e-07
6.43202e-07
1.87748e-06
4.96709e-06
1
1
1
1
1
1
1
1
1
1
1
0.999999
0.999999
1
0.999965
0.999166
0.788833
0.0876402
0.00308412
0.00115182
1.31175e-05
3.4788e-06
1.35246e-06
1.10224e-06
1.10687e-06
1.10245e-06
1.11905e-06
1.12901e-06
1.09726e-06
1.10036e-06
1.75229e-06
4.19917e-06
5.56659e-06
1.22799e-06
1.22791e-06
1.22789e-06
1.2279e-06
1.22906e-06
1.39599e-06
1.53078e-06
7.14032e-07
7.39934e-07
2.72971e-06
4.27226e-06
2.40569e-06
6.37121e-07
6.40434e-07
8.66252e-07
3.60148e-06
4.95723e-06
0.0144651
0.00332249
0.000587406
9.38138e-05
1.89092e-05
4.75707e-06
1.75254e-06
1.57996e-06
1.56983e-06
1.56089e-06
1.56083e-06
1.56773e-06
5.16366e-06
1.14657e-05
2.82093e-06
7.45115e-07
7.35132e-07
3.19695e-06
1.78462e-05
2.78233e-05
2.75701e-05
8.94829e-06
8.15803e-07
7.08552e-07
7.08621e-07
7.14003e-07
1.3763e-06
3.79179e-06
6.67081e-06
9.35732e-06
1.2928e-05
2.54335e-05
2.69949e-05
2.7051e-05
1.39603e-05
2.32206e-06
2.02883e-06
2.54968e-06
8.78517e-06
1.14423e-05
1.11586e-05
3.46473e-06
7.86724e-07
8.0085e-07
2.77936e-06
1.00319e-05
1.11986e-05
3.32771e-06
5.82356e-06
1.96645e-05
0.215113
0.0910783
0.0267008
0.00531509
0.00102254
0.000244511
6.0271e-05
1.06307e-05
1.69705e-06
1.59095e-06
1.56761e-06
1.56829e-06
1.7992e-06
4.93507e-06
4.83016e-06
1.21391e-06
7.41446e-07
4.68026e-06
1.98726e-05
2.78334e-05
1.19182e-05
7.98889e-07
7.08552e-07
7.08552e-07
7.08637e-07
7.08727e-07
7.11814e-07
1.18817e-06
9.64989e-06
2.94307e-05
3.30766e-05
3.15309e-05
7.02529e-06
7.13425e-07
6.64296e-07
7.49404e-07
4.74658e-06
1.20569e-05
1.25563e-05
6.86043e-06
7.23963e-07
7.22755e-07
7.28085e-07
2.33465e-06
1.00737e-05
1.28318e-05
1.09615e-05
1.66493e-06
8.27644e-07
7.15458e-06
0.698948
0.470273
0.203689
0.0485281
0.00934355
0.00236382
0.000700994
0.000163505
2.13105e-05
1.88898e-06
1.66621e-06
1.59486e-06
1.65731e-06
1.66304e-06
3.25682e-06
4.11772e-06
7.45046e-07
1.23331e-06
1.04786e-05
2.7243e-05
9.19115e-06
7.66538e-07
7.08562e-07
7.08562e-07
7.09647e-07
7.56242e-07
1.10548e-06
1.45283e-06
7.86615e-06
2.61754e-05
3.30764e-05
1.88305e-05
1.71306e-06
6.64495e-07
6.6403e-07
6.67775e-07
1.29736e-06
7.38243e-06
1.26605e-05
5.7497e-06
7.94888e-07
7.22924e-07
7.23089e-07
8.00054e-07
4.41007e-06
1.13491e-05
9.22778e-06
8.2168e-07
8.20887e-07
8.61285e-07
0.898252
0.739641
0.386944
0.101129
0.0196689
0.00502545
0.00155555
0.000426702
7.84079e-05
5.10187e-06
2.11448e-06
1.54066e-06
1.61942e-06
2.12675e-06
3.44059e-06
4.09414e-06
9.21751e-07
9.29721e-07
2.54644e-06
1.42127e-05
1.84161e-05
3.80101e-06
7.0865e-07
7.16711e-07
1.46593e-06
3.48783e-06
3.47064e-06
2.23497e-06
1.28612e-06
1.95721e-06
1.3159e-05
2.20514e-05
1.00525e-05
1.59286e-06
6.67565e-07
6.69569e-07
6.76522e-07
1.89603e-06
6.86063e-06
8.2122e-06
3.17627e-06
7.74654e-07
7.26168e-07
1.18503e-06
3.66185e-06
6.08102e-06
1.76756e-06
1.51587e-06
3.64527e-06
7.75765e-07
0.811639
0.665793
0.368121
0.102963
0.0214103
0.0057417
0.00178564
0.000485275
9.19364e-05
7.64189e-06
3.0827e-06
1.71211e-06
1.48986e-06
2.41862e-06
1.8928e-06
3.04793e-06
4.66402e-06
3.59329e-06
1.41013e-06
1.41676e-06
4.37124e-06
1.2729e-05
1.27352e-05
5.20645e-06
1.0123e-06
1.01992e-06
2.16118e-06
5.40577e-06
2.6032e-06
1.162e-06
1.16202e-06
1.16648e-06
1.89708e-06
3.01667e-06
5.42566e-06
7.76371e-06
7.78853e-06
5.26346e-06
9.3825e-07
9.38397e-07
1.31622e-06
4.94579e-06
5.88767e-06
5.48838e-06
1.34765e-06
1.11725e-06
1.1283e-06
3.08925e-06
4.05649e-06
3.00169e-06
0.372544
0.229777
0.121709
0.0467432
0.0151246
0.0050592
0.00154134
0.000356747
5.51214e-05
6.22404e-06
3.29503e-06
1.99984e-06
1.52684e-06
1.57895e-06
1.67467e-06
1.98867e-06
2.52893e-06
3.92801e-06
6.02004e-06
5.06623e-06
2.40668e-06
2.40762e-06
3.06205e-06
4.09869e-06
3.7514e-06
3.89228e-06
8.31124e-06
8.78289e-06
6.21486e-06
1.82858e-06
1.6e-06
2.67852e-06
5.34105e-06
4.22897e-06
1.89287e-06
2.11202e-06
5.33434e-06
3.19766e-06
1.95766e-06
1.24545e-06
1.20432e-06
1.68977e-06
2.99471e-06
5.14043e-06
2.23678e-06
2.0852e-06
2.56512e-06
4.48375e-06
4.05529e-06
1.82198e-06
0.0841726
0.0417274
0.0218992
0.0111727
0.00514286
0.00198745
0.000558733
0.000105614
1.34446e-05
4.38163e-06
2.87516e-06
1.97608e-06
1.56295e-06
1.45534e-06
1.52001e-06
1.73205e-06
1.75142e-06
2.05506e-06
2.16715e-06
2.18417e-06
4.0109e-06
8.88412e-06
8.88736e-06
7.44209e-06
2.38011e-06
2.0447e-06
2.04507e-06
4.99996e-06
9.0282e-06
4.19658e-06
1.02373e-06
9.82366e-07
9.9047e-07
9.56509e-07
9.56389e-07
1.50256e-06
6.44417e-06
7.29793e-06
7.31597e-06
5.93475e-06
1.85242e-06
9.27702e-07
9.24207e-07
1.17611e-06
3.9068e-06
4.03455e-06
2.00869e-06
1.02968e-06
3.6438e-06
6.44829e-06
0.0123581
0.00578866
0.0027699
0.00151572
0.000641879
0.000172624
2.45415e-05
4.23386e-06
2.36656e-06
1.81715e-06
1.46688e-06
1.34115e-06
1.33417e-06
1.44917e-06
1.37367e-06
2.04777e-06
1.97215e-06
2.02533e-06
4.55817e-06
4.68109e-06
3.18857e-06
1.19872e-06
1.19046e-06
1.19036e-06
1.86506e-06
9.32536e-06
1.13958e-05
1.13865e-05
1.13918e-05
5.90273e-06
1.12152e-06
9.8218e-07
1.14823e-06
2.95227e-06
1.62259e-06
6.91794e-07
6.84925e-07
6.84864e-07
1.23296e-06
5.64256e-06
6.2316e-06
6.21498e-06
2.641e-06
8.64464e-07
8.57885e-07
8.57762e-07
8.57723e-07
8.57725e-07
1.38223e-06
6.00789e-06
0.000555951
0.000231012
9.67268e-05
3.69397e-05
1.10746e-05
3.83124e-06
2.4409e-06
2.01962e-06
1.62541e-06
1.69304e-06
1.54375e-06
1.45295e-06
1.39503e-06
1.35011e-06
1.37375e-06
1.44258e-06
1.51503e-06
1.55118e-06
2.59678e-06
4.68557e-06
4.49254e-06
2.14106e-06
1.19206e-06
1.19037e-06
1.19079e-06
5.02715e-06
1.13847e-05
7.49939e-06
1.7207e-06
9.85022e-07
9.8175e-07
9.81748e-07
1.34667e-06
5.5925e-06
7.41378e-06
5.76531e-06
1.54317e-06
6.82802e-07
6.76673e-07
6.76019e-07
3.49107e-06
6.23367e-06
5.89621e-06
3.11564e-06
9.90709e-07
8.6066e-07
8.58101e-07
8.59375e-07
8.61267e-07
8.74325e-07
6.7639e-06
3.45539e-06
2.0393e-06
1.99954e-06
2.03993e-06
2.00136e-06
2.00696e-06
2.19372e-06
1.62851e-06
3.34472e-06
2.0315e-06
1.8382e-06
1.69679e-06
1.66075e-06
1.51438e-06
1.39133e-06
2.7492e-06
1.6667e-06
1.20207e-06
1.19977e-06
1.18851e-06
1.18672e-06
1.18795e-06
1.19096e-06
1.66115e-06
5.83103e-06
5.12001e-06
1.43345e-06
9.84888e-07
9.82684e-07
9.82853e-07
9.81753e-07
9.8181e-07
2.42564e-06
7.38631e-06
7.5e-06
6.1077e-06
2.131e-06
6.82582e-07
6.75538e-07
6.75457e-07
6.7546e-07
2.59838e-06
5.15606e-06
5.09979e-06
3.00529e-06
8.72697e-07
8.59472e-07
8.59543e-07
2.36388e-06
2.26006e-06
1.88299e-06
1.70612e-06
1.68135e-06
1.73186e-06
1.77292e-06
1.99036e-06
2.66165e-06
1.69314e-06
3.3396e-06
2.05737e-06
1.94907e-06
1.82973e-06
1.88561e-06
1.88577e-06
1.39262e-06
2.74824e-06
1.48369e-06
1.34081e-06
1.34195e-06
1.19311e-06
1.18772e-06
2.01573e-06
2.22326e-06
1.66279e-06
1.48576e-06
2.15754e-06
1.06434e-06
9.85246e-07
1.00149e-06
1.01681e-06
9.86478e-07
1.03406e-06
1.33802e-06
2.35512e-06
6.99737e-06
7.1467e-06
6.44364e-06
2.24461e-06
6.82241e-07
6.7575e-07
6.75724e-07
8.15205e-07
2.02846e-06
1.01671e-06
8.72918e-07
8.63786e-07
8.61678e-07
8.62209e-07
1.57735e-06
1.77401e-06
1.54578e-06
1.51697e-06
1.60247e-06
1.60546e-06
1.66171e-06
2.09824e-06
3.36017e-06
1.85119e-06
9.27288e-07
2.09628e-06
1.35876e-06
2.20951e-06
1.29902e-06
2.41592e-06
1.45554e-06
9.85762e-07
1.94064e-06
1.00322e-06
9.22428e-07
1.12535e-06
1.58885e-06
1.12053e-06
1.10754e-06
1.10958e-06
2.15536e-06
1.77025e-06
1.3036e-06
1.01642e-06
1.08608e-06
1.20657e-06
2.74598e-06
2.98527e-06
2.27312e-06
1.03843e-06
8.08458e-07
1.15919e-06
8.94345e-07
8.97429e-07
1.00193e-06
8.34266e-07
7.04197e-07
1.25279e-06
9.59293e-07
9.3962e-07
9.45486e-07
1.01372e-06
1.51003e-06
1.60097e-06
1.14949e-06
1.26691e-06
1.28588e-06
1.25972e-06
1.90248e-06
1.19649e-06
1.24207e-06
2.08494e-06
8.84624e-07
1.13081e-06
9.25169e-07
8.73374e-07
1.13796e-06
2.01029e-06
9.87353e-07
1.13671e-06
1.18221e-06
9.42555e-07
7.73538e-07
8.75705e-07
8.81588e-07
9.98045e-07
1.31891e-06
8.39152e-07
1.23948e-06
1.4423e-06
2.15311e-06
8.75839e-07
9.73837e-07
1.53858e-06
1.03303e-06
8.43871e-07
7.33223e-07
6.98695e-07
6.69123e-07
1.45694e-06
7.75671e-07
7.6698e-07
6.09733e-07
1.07701e-06
7.08817e-07
1.45662e-06
7.12904e-07
1.11505e-06
1.23229e-06
1.2408e-06
1.12145e-06
8.2332e-07
8.08366e-07
8.9043e-07
1.67237e-06
9.69396e-07
1.04488e-06
1.00289e-06
1.89897e-06
6.90291e-07
7.73617e-07
7.30575e-07
8.16912e-07
8.39794e-07
8.60386e-07
9.92535e-07
8.53669e-07
8.18998e-07
1.00765e-06
1.12913e-06
6.93876e-07
6.6174e-07
6.6119e-07
6.3818e-07
5.81916e-07
9.03173e-07
6.37815e-07
5.93974e-07
1.48249e-06
1.82156e-06
4.52176e-07
4.9195e-07
1.3624e-06
2.27199e-06
8.19652e-07
5.55693e-07
5.9123e-07
5.82425e-07
5.37319e-07
8.24411e-07
1.33818e-06
5.90934e-07
4.53952e-07
5.05876e-07
5.17961e-07
8.65244e-07
1.9128e-06
1.92889e-06
1.70771e-06
6.01647e-07
6.02176e-07
6.08045e-07
8.81525e-07
1.90846e-06
2.07819e-06
7.97189e-07
8.20944e-07
7.33486e-07
1.21387e-06
6.69773e-07
6.90077e-07
7.23562e-07
7.4603e-07
7.87477e-07
8.37932e-07
1.28763e-06
1.16966e-06
6.90415e-07
6.04093e-07
5.53828e-07
5.33434e-07
5.18909e-07
5.11462e-07
5.06593e-07
5.05097e-07
5.07221e-07
5.38502e-07
5.37167e-07
1.3428e-06
1.81888e-06
4.52003e-07
5.90904e-07
1.70899e-06
2.27055e-06
4.43286e-07
3.56496e-07
4.08937e-07
4.58227e-07
3.63699e-07
7.26678e-07
1.33222e-06
3.95756e-07
3.95053e-07
3.97166e-07
9.44754e-07
2.21613e-06
2.45864e-06
7.43931e-07
3.31321e-07
3.0918e-07
1.04446e-06
1.66013e-06
1.39792e-06
5.31628e-07
2.07247e-06
7.46999e-07
1.28378e-06
6.60071e-07
6.61165e-07
6.6933e-07
6.85027e-07
7.09972e-07
7.16094e-07
1.36956e-06
1.44525e-06
1.22554e-06
6.2314e-07
5.78714e-07
5.40681e-07
5.11368e-07
4.996e-07
4.97819e-07
4.96184e-07
4.84715e-07
4.67205e-07
4.56913e-07
4.51593e-07
4.54879e-07
1.03674e-06
1.4508e-06
4.48138e-07
4.69078e-07
1.36307e-06
1.97599e-06
3.23073e-07
3.34711e-07
3.38528e-07
3.43704e-07
3.59358e-07
3.76908e-07
4.4084e-07
5.49775e-07
3.89146e-07
3.92263e-07
5.31526e-07
1.60438e-06
2.45174e-06
3.70317e-07
2.88273e-07
2.7035e-07
7.00914e-07
1.66904e-06
1.19061e-06
4.42047e-07
1.90168e-06
2.0803e-06
1.12868e-06
6.59683e-07
6.6384e-07
6.76194e-07
7.22921e-07
1.70119e-06
1.78673e-06
1.58296e-06
6.46884e-07
6.41497e-07
6.838e-07
7.30867e-07
5.50033e-07
5.03562e-07
4.89978e-07
4.92245e-07
5.0073e-07
4.96906e-07
8.15797e-07
4.4528e-07
4.46097e-07
4.48616e-07
6.4737e-07
1.07552e-06
4.47969e-07
4.53052e-07
6.83113e-07
1.24227e-06
3.22799e-07
3.22483e-07
3.17286e-07
3.04638e-07
3.04343e-07
3.13327e-07
3.38575e-07
3.84159e-07
4.57757e-07
4.44749e-07
3.58591e-07
5.12177e-07
1.19255e-06
4.83921e-07
2.7489e-07
2.64968e-07
2.76214e-07
7.80608e-07
1.11649e-06
3.37925e-07
5.66157e-07
3.63963e-06
6.80882e-07
6.59285e-07
6.63222e-07
1.30332e-06
3.76682e-06
2.06113e-06
5.80718e-07
5.73534e-07
5.75518e-07
7.9362e-07
2.32146e-06
1.80268e-06
4.78655e-07
4.79777e-07
4.83037e-07
4.87663e-07
1.01278e-06
2.35637e-06
7.94668e-07
4.47355e-07
4.49827e-07
4.53584e-07
4.55765e-07
6.9991e-07
4.48359e-07
4.6226e-07
4.67449e-07
8.08933e-07
4.4275e-07
3.89e-07
3.79427e-07
2.9969e-07
2.90118e-07
2.86043e-07
2.82232e-07
2.7952e-07
2.78133e-07
2.81784e-07
2.89415e-07
2.88655e-07
2.74515e-07
2.72047e-07
5.03205e-07
1.97687e-07
2.9757e-07
3.28867e-07
3.16175e-07
4.89087e-07
2.34178e-07
2.96197e-06
6.60208e-07
6.59811e-07
7.80115e-07
3.04756e-06
4.709e-06
1.64347e-06
5.73637e-07
5.73755e-07
6.46529e-07
2.64552e-06
4.4131e-06
1.41515e-06
4.7954e-07
4.80168e-07
4.84538e-07
1.05716e-06
3.1973e-06
4.10058e-06
7.19026e-07
4.482e-07
4.48879e-07
4.51568e-07
4.51591e-07
4.53815e-07
6.22526e-07
1.0629e-06
4.63039e-07
4.69385e-07
8.20293e-07
1.84702e-06
5.31379e-07
3.17068e-07
3.20443e-07
3.20892e-07
3.22735e-07
3.27939e-07
2.81645e-07
2.46885e-07
2.38844e-07
2.25459e-07
2.12895e-07
2.02647e-07
1.9595e-07
1.93688e-07
1.90496e-07
3.61939e-07
1.73347e-07
2.06096e-07
2.27256e-07
3.76672e-06
6.63221e-07
6.61755e-07
1.13864e-06
3.82438e-06
4.68332e-06
2.4099e-06
5.75184e-07
5.75364e-07
9.63621e-07
3.43737e-06
4.39152e-06
2.0614e-06
4.92067e-07
4.91402e-07
4.97456e-07
2.08885e-06
4.17421e-06
4.08054e-06
1.16802e-06
4.61618e-07
4.6695e-07
4.96254e-07
4.53619e-07
6.30956e-07
1.9468e-06
2.73491e-06
4.63062e-07
4.66424e-07
6.20932e-07
1.84583e-06
2.61915e-06
3.22636e-07
3.96921e-07
4.31708e-07
5.268e-07
1.21411e-06
3.38149e-07
2.89309e-07
2.93753e-07
2.68495e-07
2.4643e-07
2.23778e-07
2.04564e-07
1.94869e-07
1.83238e-07
1.74109e-07
1.71593e-07
1.68712e-07
1.683e-07
2.15976e-05
1.67608e-05
1.7186e-06
7.17237e-07
7.17002e-07
7.23412e-07
1.51964e-06
7.5735e-06
1.40043e-05
1.9936e-06
7.14774e-07
7.14774e-07
7.14778e-07
7.149e-07
7.18388e-07
9.38685e-07
1.45318e-06
7.62261e-07
7.61052e-07
1.68679e-06
1.19963e-05
2.20821e-05
2.22577e-05
1.59161e-05
1.39944e-06
7.31551e-07
7.31544e-07
7.31701e-07
7.38112e-07
1.07731e-06
1.39431e-06
7.56438e-07
7.66062e-07
3.46325e-06
1.62503e-05
3.49772e-05
3.48805e-05
3.29046e-05
6.88091e-06
1.41962e-06
1.41971e-06
1.99977e-06
1.46983e-05
3.23097e-05
3.19112e-05
2.35275e-05
2.22013e-06
9.60622e-07
9.62563e-07
1.49201e-06
3.21492e-06
3.19833e-06
1.50015e-06
8.0109e-07
8.01722e-07
8.86981e-07
1.20997e-06
1.89957e-06
4.65562e-06
1.58804e-05
2.36725e-05
1.95594e-05
2.47641e-06
1.29026e-06
9.74001e-07
2.61482e-06
2.79446e-06
2.48399e-06
8.16236e-07
9.75281e-07
6.43938e-06
2.33204e-05
2.88607e-05
2.88596e-05
2.28573e-05
3.48576e-06
1.44051e-06
1.47878e-06
4.15342e-06
6.07119e-06
1.25282e-06
1.28513e-06
1.1337e-05
4.38498e-05
5.85586e-05
5.85298e-05
5.85619e-05
5.85343e-05
3.65915e-05
4.94811e-06
1.17918e-06
1.19641e-06
1.22319e-06
2.0789e-06
5.22016e-06
5.17384e-06
1.66324e-06
7.96375e-07
8.01922e-07
2.25932e-06
1.36806e-05
3.12356e-05
1.07585e-05
8.18066e-07
8.17802e-07
8.17807e-07
8.22784e-07
2.07531e-06
1.32851e-05
3.15513e-05
3.19178e-05
3.12567e-05
1.05489e-05
6.09012e-06
6.48559e-06
1.55776e-05
4.62604e-06
4.64359e-06
6.36691e-06
1.44298e-05
1.73388e-05
1.64086e-05
6.83085e-06
6.58269e-06
1.13301e-05
1.40253e-05
1.73327e-05
2.77815e-05
2.77708e-05
2.73866e-05
1.47044e-05
4.15312e-06
8.8415e-07
9.21381e-07
1.7672e-06
1.55187e-05
2.43391e-05
1.20753e-05
5.11018e-06
2.30094e-06
6.78e-07
5.66288e-07
5.82612e-07
9.37575e-07
6.39124e-06
7.88195e-06
7.90486e-06
3.73189e-06
6.23243e-07
5.13227e-07
6.50482e-07
4.70697e-07
4.6191e-07
4.6213e-07
1.04041e-06
8.00242e-07
4.36785e-07
4.20304e-07
3.86244e-07
3.55458e-07
3.22349e-07
2.80199e-07
6.02839e-07
4.89944e-07
4.28074e-07
4.23443e-07
6.10834e-07
1.50145e-06
1.35349e-06
5.58691e-07
4.05873e-07
4.23676e-07
4.32665e-07
4.34875e-07
1.20687e-06
2.5157e-06
2.51085e-06
1.5292e-06
4.78523e-07
4.71955e-07
4.71891e-07
4.71118e-07
4.7146e-07
2.23039e-06
8.10566e-06
8.24022e-06
5.19204e-06
1.06733e-06
7.2946e-07
8.69549e-07
7.3088e-07
8.15994e-07
2.73494e-06
1.10195e-05
1.1803e-05
1.17901e-05
8.19709e-06
2.10489e-06
1.01342e-06
9.8987e-07
8.54828e-07
8.2735e-07
2.79651e-06
1.57642e-05
1.89844e-05
1.89905e-05
1.89857e-05
1.54328e-05
4.03755e-06
7.09648e-07
7.04228e-07
7.04163e-07
7.03919e-07
7.03839e-07
7.03839e-07
2.58033e-06
1.84668e-05
2.43111e-05
2.41853e-05
1.11852e-05
2.92411e-06
2.23411e-06
2.42991e-06
9.16256e-06
1.08327e-05
1.08817e-05
5.08502e-06
6.9449e-07
5.33291e-07
2.00004e-06
1.79677e-05
2.36039e-05
2.29105e-05
8.84315e-06
1.05235e-06
5.25002e-07
5.23103e-07
5.23083e-07
5.23148e-07
1.475e-06
1.5768e-05
2.6005e-05
1.51445e-05
2.78609e-06
6.08252e-07
6.91351e-07
4.35944e-06
2.11931e-06
2.40095e-06
5.36965e-06
1.38998e-05
1.03e-05
2.40478e-06
4.07594e-07
5.20151e-07
4.3342e-06
6.93085e-06
5.50011e-06
1.06729e-06
1.35922e-06
6.54055e-06
4.85649e-06
1.35046e-06
2.18783e-07
2.1221e-07
2.05382e-07
1.95852e-07
1.84735e-07
1.72479e-07
1.59215e-07
1.45081e-07
1.30322e-07
1.15286e-07
1.00387e-07
8.60455e-08
7.2634e-08
6.04412e-08
4.965e-08
4.03366e-08
3.24836e-08
2.60015e-08
2.07524e-08
1.65729e-08
1.32933e-08
1.07502e-08
8.79651e-09
7.30464e-09
6.16844e-09
5.30196e-09
4.63727e-09
4.12171e-09
3.71505e-09
3.38695e-09
3.11468e-09
2.88131e-09
2.67439e-09
2.48479e-09
2.30604e-09
2.13377e-09
1.96549e-09
2.13996e-05
1.4701e-05
1.66257e-06
7.22079e-07
7.16804e-07
7.16457e-07
7.16405e-07
7.16035e-07
7.15331e-07
7.15832e-07
7.15535e-07
7.14788e-07
7.16024e-07
8.0942e-07
1.89345e-06
9.15296e-07
7.56668e-07
7.56669e-07
7.56739e-07
7.57389e-07
8.28198e-07
5.50852e-06
1.55444e-05
1.69141e-05
1.06531e-06
7.32046e-07
7.32215e-07
8.57345e-07
4.56794e-06
8.83496e-06
6.67108e-06
1.27928e-06
6.2343e-06
2.43451e-05
3.28479e-05
3.2721e-05
1.0959e-05
1.42802e-06
1.41845e-06
1.41828e-06
1.41832e-06
1.42212e-06
2.12268e-06
3.52251e-06
8.36157e-07
8.25224e-07
8.33639e-07
2.3748e-06
5.01252e-06
4.97429e-06
4.17214e-06
8.90909e-07
7.8655e-07
1.39653e-06
7.16313e-06
1.09886e-05
1.10813e-05
7.351e-06
2.54715e-06
2.54788e-06
2.86965e-06
6.24395e-06
6.22161e-06
4.123e-06
7.91754e-07
7.92328e-07
7.92352e-07
7.92719e-07
8.53712e-07
6.7734e-06
2.34356e-05
2.886e-05
2.88588e-05
2.88641e-05
1.78961e-05
5.20901e-06
1.40517e-05
2.81073e-05
2.7963e-05
1.34206e-05
1.19722e-06
8.98094e-07
9.03553e-07
1.72187e-06
1.25408e-05
3.31402e-05
2.71291e-05
1.03977e-06
7.93827e-07
7.95117e-07
9.29953e-07
5.78139e-06
1.28348e-05
1.27684e-05
1.11824e-05
1.89291e-06
7.9649e-07
7.96458e-07
7.9948e-07
9.4464e-07
9.15108e-07
8.14544e-07
8.34599e-07
8.68342e-07
8.9924e-07
8.33821e-07
1.41452e-06
1.1143e-05
3.02412e-05
3.19179e-05
3.19431e-05
3.19318e-05
3.00299e-05
7.57772e-06
1.72121e-06
1.27084e-06
1.39596e-06
7.4172e-06
1.68925e-05
1.73387e-05
1.73223e-05
1.65883e-05
6.12063e-06
8.73006e-06
2.36446e-05
2.68983e-05
1.51656e-05
1.03913e-05
9.01584e-06
7.31683e-06
5.3618e-06
5.96698e-06
9.89011e-06
2.70394e-05
4.36831e-05
4.44171e-05
4.4454e-05
2.18032e-05
5.03448e-06
7.09767e-07
6.88562e-07
7.15354e-07
8.16981e-07
4.29172e-06
7.11027e-06
7.07791e-06
2.71659e-06
5.63862e-07
5.15048e-07
5.07873e-07
5.02634e-07
4.93564e-07
4.91925e-07
5.05001e-07
7.06433e-07
2.28406e-06
2.35778e-06
1.8747e-06
4.90653e-07
3.90477e-07
3.77298e-07
3.88907e-07
4.39149e-07
1.72772e-06
2.23388e-06
8.87664e-07
4.64164e-07
4.5977e-07
8.80695e-07
1.79e-06
1.78653e-06
1.05403e-06
4.37291e-07
4.34642e-07
4.35003e-07
4.36366e-07
1.42147e-06
2.61527e-06
2.60899e-06
1.68338e-06
4.87808e-07
4.71179e-07
4.71208e-07
1.35399e-06
8.13737e-06
6.53781e-06
2.44841e-06
7.32314e-07
7.27882e-07
7.27922e-07
7.26885e-07
7.26888e-07
8.07185e-07
8.10537e-07
8.13741e-07
2.298e-06
1.10092e-05
1.20017e-05
1.19985e-05
1.0525e-05
3.215e-06
7.85636e-07
7.81309e-07
7.8128e-07
7.83375e-07
7.03088e-06
1.89928e-05
1.66031e-05
6.50861e-06
1.00695e-06
7.0569e-07
7.03976e-07
7.03937e-07
7.03894e-07
7.03842e-07
7.03841e-07
7.03879e-07
7.04035e-07
1.39841e-06
1.29917e-05
1.85351e-05
1.85788e-05
1.19477e-05
2.35128e-06
4.85547e-07
4.81654e-07
4.82289e-07
4.82628e-07
6.28486e-07
2.8631e-06
1.84174e-05
2.36096e-05
1.77574e-05
5.20789e-06
1.07139e-06
5.273e-07
5.23699e-07
5.23465e-07
5.98757e-07
2.71596e-06
1.64541e-05
1.171e-05
3.20385e-06
8.1633e-07
6.05694e-07
5.0197e-07
6.16928e-07
9.69845e-07
3.78395e-06
7.37807e-06
7.38002e-06
2.82782e-06
4.3639e-07
4.0522e-07
8.15461e-07
4.67195e-06
6.89331e-06
3.98932e-06
6.93261e-07
3.06564e-07
3.04434e-07
3.01971e-07
2.99151e-07
2.89904e-07
2.68348e-07
2.42477e-07
2.18448e-07
1.97442e-07
1.78756e-07
1.61606e-07
1.45505e-07
1.30228e-07
1.1571e-07
1.01988e-07
8.91532e-08
7.73136e-08
6.65596e-08
5.69457e-08
4.84822e-08
4.11381e-08
3.48492e-08
2.95281e-08
2.50731e-08
2.1377e-08
1.83332e-08
1.58407e-08
1.38076e-08
1.21524e-08
1.08051e-08
9.706e-09
8.80558e-09
8.06286e-09
7.44426e-09
6.92227e-09
6.47429e-09
6.08171e-09
5.72914e-09
5.4039e-09
5.09577e-09
4.79707e-09
4.04314e-06
1.01048e-05
1.00263e-05
7.34655e-06
9.90253e-07
7.23094e-07
7.19145e-07
7.17807e-07
7.14623e-07
7.14624e-07
7.14677e-07
7.18201e-07
1.02083e-06
3.14293e-06
4.40116e-06
7.56777e-07
7.56698e-07
7.60474e-07
8.13576e-07
7.59492e-07
7.69181e-07
1.70135e-06
4.50325e-06
6.3185e-06
7.38683e-07
7.32299e-07
8.24235e-07
4.53366e-06
8.83701e-06
8.75792e-06
7.01741e-06
1.09701e-06
7.97363e-07
7.9707e-07
8.80187e-07
4.25245e-06
9.75214e-06
6.09959e-06
1.67745e-06
1.42059e-06
1.41917e-06
1.42899e-06
2.94206e-06
3.57393e-06
1.22759e-06
8.3511e-07
3.1185e-06
4.81531e-06
4.78351e-06
1.65318e-06
7.83247e-07
7.8323e-07
7.84103e-07
7.87506e-07
9.27599e-07
9.99217e-07
8.67123e-07
3.25223e-06
1.06738e-05
1.24877e-05
1.25112e-05
4.37366e-06
7.94418e-07
7.9237e-07
7.92371e-07
7.92394e-07
7.95098e-07
7.94725e-07
8.26957e-07
1.45205e-06
1.25229e-06
7.89743e-07
1.1967e-06
1.26151e-05
4.34893e-05
5.47281e-05
5.49221e-05
2.60797e-05
3.31436e-06
1.41089e-06
9.01284e-07
8.98076e-07
8.98123e-07
9.01579e-07
8.99969e-07
8.64684e-07
8.40038e-07
8.25363e-07
7.93828e-07
7.93833e-07
7.95764e-07
9.58489e-07
1.43905e-06
7.93278e-07
7.93223e-07
7.93269e-07
7.97429e-07
1.28624e-06
3.01916e-06
1.57514e-06
8.21043e-07
8.18238e-07
1.78101e-06
3.51022e-06
8.51821e-07
8.26181e-07
2.36429e-06
1.64092e-05
3.19266e-05
3.19433e-05
3.19404e-05
3.19628e-05
3.19529e-05
2.61089e-05
6.27427e-06
1.27411e-06
9.12475e-07
9.12166e-07
9.12162e-07
9.12175e-07
9.1221e-07
9.12398e-07
9.38403e-07
5.30123e-06
1.72833e-05
2.69408e-05
2.69025e-05
2.69256e-05
1.58147e-05
7.52785e-06
4.77934e-06
5.17762e-06
1.10495e-05
1.56178e-05
9.53101e-06
8.49591e-06
6.36282e-06
4.53411e-06
4.28428e-06
4.00292e-06
3.08014e-06
2.63639e-06
2.25816e-06
2.16511e-06
1.86283e-06
1.18443e-06