/*--------------------------------*- C++ -*----------------------------------*\
| =========                 |                                                 |
| \\      /  F ield         | OpenFOAM: The Open Source CFD Toolbox           |
|  \\    /   O peration     | Version:  2.4.0                                 |
|   \\  /    A nd           | Web:      www.OpenFOAM.org                      |
|    \\/     M anipulation  |                                                 |
\*---------------------------------------------------------------------------*/
FoamFile
{
    version     2.0;
    format      ascii;
    class       surfaceScalarField;
    location    "2.7";
    object      phi;
}
// * * * * * * * * * * * * * * * * * * * * * * * * * * * * * * * * * * * * * //

dimensions      [0 3 -1 0 0 0 0];

internalField   nonuniform List<scalar> 
15580
(
-3.19762e-13
-2.50252e-12
-1.12875e-12
-7.41762e-12
-2.36899e-12
-1.2203e-11
-4.0213e-12
-1.68502e-11
-6.05647e-12
-2.1366e-11
-8.44784e-12
-2.57523e-11
-1.11652e-11
-3.00113e-11
-1.41802e-11
-3.41419e-11
-1.74678e-11
-3.81411e-11
-2.1003e-11
-4.20066e-11
-2.47593e-11
-4.57385e-11
-2.87038e-11
-4.93354e-11
-3.28046e-11
-5.2798e-11
-3.70034e-11
-5.61255e-11
-4.12308e-11
-5.93186e-11
-4.54074e-11
-6.23758e-11
-4.94473e-11
-6.53012e-11
-5.33082e-11
-6.80881e-11
-5.6941e-11
-7.07459e-11
-6.02914e-11
-7.3282e-11
-6.33051e-11
-7.56966e-11
-6.59545e-11
-7.79827e-11
-6.81945e-11
-8.01559e-11
-7.00479e-11
-8.22218e-11
-7.159e-11
-8.41727e-11
-7.29718e-11
-8.60029e-11
-7.42973e-11
-8.77124e-11
-7.55148e-11
-8.92849e-11
-7.64074e-11
-9.07225e-11
-7.67661e-11
-9.20302e-11
-7.65458e-11
-9.32207e-11
-7.58119e-11
-9.43034e-11
-7.45996e-11
-9.52737e-11
-7.26566e-11
-9.61901e-11
-7.02093e-11
-9.71051e-11
-7.11863e-11
-9.80127e-11
-7.11829e-11
-9.88659e-11
-7.05508e-11
-9.95869e-11
-6.93107e-11
-1.00187e-10
-6.77077e-11
-1.00618e-10
-6.61095e-11
-1.00975e-10
-6.41687e-11
-1.01933e-10
-6.22419e-11
-1.03133e-10
-6.07686e-11
-1.04097e-10
-6.00045e-11
-1.0505e-10
-6.01821e-11
-1.0619e-10
-6.17303e-11
-1.07567e-10
-6.5514e-11
-1.09116e-10
-7.27853e-11
-1.10867e-10
-1.13063e-10
-8.48545e-11
-1.72157e-13
-2.33036e-12
-7.13634e-13
-6.87615e-12
-1.60478e-12
-1.13118e-11
-2.80979e-12
-1.56452e-11
-4.29847e-12
-1.98773e-11
-6.04209e-12
-2.40087e-11
-8.01485e-12
-2.80386e-11
-1.0191e-11
-3.19657e-11
-1.25432e-11
-3.57888e-11
-1.50434e-11
-3.95064e-11
-1.76647e-11
-4.31172e-11
-2.03797e-11
-4.66204e-11
-2.31625e-11
-5.00152e-11
-2.59869e-11
-5.33012e-11
-2.88278e-11
-5.64778e-11
-3.16589e-11
-5.95447e-11
-3.44586e-11
-6.25015e-11
-3.71974e-11
-6.53492e-11
-3.98545e-11
-6.80888e-11
-4.24153e-11
-7.07212e-11
-4.48644e-11
-7.32474e-11
-4.71783e-11
-7.56688e-11
-4.93471e-11
-7.79872e-11
-5.13652e-11
-8.02036e-11
-5.32176e-11
-8.23204e-11
-5.48827e-11
-8.43377e-11
-5.63382e-11
-8.6257e-11
-5.75442e-11
-8.80789e-11
-5.84611e-11
-8.98056e-11
-5.90531e-11
-9.14381e-11
-5.92934e-11
-9.29804e-11
-5.91634e-11
-9.44334e-11
-5.8635e-11
-9.58021e-11
-5.77369e-11
-9.70882e-11
-5.65452e-11
-9.82968e-11
-5.51371e-11
-9.94208e-11
-5.35669e-11
-1.00462e-10
-5.18022e-11
-1.01408e-10
-4.97146e-11
-1.0226e-10
-4.73289e-11
-1.03043e-10
-4.41544e-11
-1.03838e-10
-4.50443e-11
-1.04636e-10
-4.42314e-11
-1.05422e-10
-4.31856e-11
-1.06131e-10
-4.2237e-11
-1.06546e-10
-4.11352e-11
-1.07455e-10
-4.02208e-11
-1.08486e-10
-3.9952e-11
-1.09385e-10
-4.06115e-11
-1.10208e-10
-1.1096e-10
-4.27142e-11
-1.29954e-13
-2.2004e-12
-4.71906e-13
-6.53419e-12
-1.00018e-12
-1.07835e-11
-1.70033e-12
-1.4945e-11
-2.557e-12
-1.90206e-11
-3.55586e-12
-2.30098e-11
-4.68195e-12
-2.69125e-11
-5.92051e-12
-3.07272e-11
-7.25653e-12
-3.44528e-11
-8.67467e-12
-3.80882e-11
-1.0159e-11
-4.16328e-11
-1.16935e-11
-4.50859e-11
-1.32616e-11
-4.8447e-11
-1.48471e-11
-5.17158e-11
-1.6433e-11
-5.48918e-11
-1.80028e-11
-5.79749e-11
-1.95392e-11
-6.09651e-11
-2.10262e-11
-6.38623e-11
-2.24482e-11
-6.66668e-11
-2.37904e-11
-6.93789e-11
-2.5039e-11
-7.19989e-11
-2.61806e-11
-7.45271e-11
-2.72037e-11
-7.69641e-11
-2.8097e-11
-7.93104e-11
-2.88507e-11
-8.15667e-11
-2.94547e-11
-8.37337e-11
-2.98992e-11
-8.58124e-11
-3.01748e-11
-8.78033e-11
-3.02731e-11
-8.97074e-11
-3.01855e-11
-9.15257e-11
-2.99066e-11
-9.32593e-11
-2.94306e-11
-9.49094e-11
-2.87557e-11
-9.6477e-11
-2.78801e-11
-9.79637e-11
-2.68066e-11
-9.93704e-11
-2.55289e-11
-1.00698e-10
-2.40422e-11
-1.01948e-10
-2.23286e-11
-1.03122e-10
-2.03702e-11
-1.04219e-10
-1.81702e-11
-1.05243e-10
-1.58151e-11
-1.06193e-10
-1.33832e-11
-1.07068e-10
-1.0947e-11
-1.0786e-10
-8.50579e-12
-1.08566e-10
-5.98914e-12
-1.09258e-10
-4.68293e-12
-1.09904e-10
-3.8606e-12
-1.1049e-10
-2.33025e-12
-1.11184e-10
-7.57318e-13
-1.11786e-10
-1.1228e-10
5.62412e-13
-1.85426e-14
-2.18186e-12
-1.07971e-13
-6.44476e-12
-2.74785e-13
-1.06167e-11
-5.13441e-13
-1.47063e-11
-8.18515e-13
-1.87156e-11
-1.18362e-12
-2.26447e-11
-1.60222e-12
-2.64939e-11
-2.06703e-12
-3.02624e-11
-2.57018e-12
-3.39496e-11
-3.1032e-12
-3.75552e-11
-3.65728e-12
-4.10787e-11
-4.22333e-12
-4.45199e-11
-4.79202e-12
-4.78784e-11
-5.35384e-12
-5.11539e-11
-5.89915e-12
-5.43465e-11
-6.41823e-12
-5.74558e-11
-6.90138e-12
-6.04819e-11
-7.33894e-12
-6.34248e-11
-7.72133e-12
-6.62844e-11
-8.03924e-12
-6.9061e-11
-8.28341e-12
-7.17548e-11
-8.44478e-12
-7.43658e-11
-8.51464e-12
-7.68942e-11
-8.48455e-12
-7.93405e-11
-8.34632e-12
-8.17049e-11
-8.09212e-12
-8.39879e-11
-7.71451e-12
-8.619e-11
-7.20622e-12
-8.83116e-11
-6.56058e-12
-9.0353e-11
-5.77133e-12
-9.23149e-11
-4.83288e-12
-9.41977e-11
-3.74019e-12
-9.60021e-11
-2.4889e-12
-9.77283e-11
-1.07528e-12
-9.93774e-11
5.0376e-13
-1.00949e-10
2.25068e-12
-1.02445e-10
4.16778e-12
-1.03865e-10
6.25674e-12
-1.05211e-10
8.51875e-12
-1.06481e-10
1.09536e-11
-1.07678e-10
1.35609e-11
-1.088e-10
1.63433e-11
-1.0985e-10
1.93104e-11
-1.10827e-10
2.24775e-11
-1.11733e-10
2.57855e-11
-1.12566e-10
2.92136e-11
-1.13332e-10
3.27176e-11
-1.13994e-10
3.62172e-11
-1.14598e-10
3.85429e-11
-1.15129e-10
-1.15617e-10
4.18693e-11
-5.50008e-14
-2.12686e-12
-1.76934e-13
-6.32283e-12
-3.46516e-13
-1.04472e-11
-5.57352e-13
-1.44955e-11
-8.038e-13
-1.84691e-11
-1.08058e-12
-2.23679e-11
-1.38258e-12
-2.61919e-11
-1.70461e-12
-2.99403e-11
-2.04143e-12
-3.36128e-11
-2.38779e-12
-3.72089e-11
-2.73843e-12
-4.07281e-11
-3.08806e-12
-4.41702e-11
-3.43147e-12
-4.75349e-11
-3.76342e-12
-5.0822e-11
-4.07876e-12
-5.40311e-11
-4.37238e-12
-5.71622e-11
-4.63926e-12
-6.02151e-11
-4.87445e-12
-6.31896e-11
-5.07315e-12
-6.60857e-11
-5.23072e-12
-6.89034e-11
-5.34267e-12
-7.16428e-11
-5.40464e-12
-7.43038e-11
-5.41244e-12
-7.68864e-11
-5.36205e-12
-7.93909e-11
-5.24982e-12
-8.18171e-11
-5.07211e-12
-8.41657e-11
-4.82569e-12
-8.64364e-11
-4.50747e-12
-8.86298e-11
-4.11468e-12
-9.07458e-11
-3.64455e-12
-9.27851e-11
-3.09477e-12
-9.47475e-11
-2.46288e-12
-9.66339e-11
-1.74701e-12
-9.84442e-11
-9.44908e-13
-1.00179e-10
-5.50834e-14
-1.01839e-10
9.24736e-13
-1.03425e-10
1.99572e-12
-1.04936e-10
3.16048e-12
-1.06375e-10
4.4198e-12
-1.0774e-10
5.77702e-12
-1.09035e-10
7.23258e-12
-1.10256e-10
8.79205e-12
-1.1141e-10
1.04591e-11
-1.12494e-10
1.225e-11
-1.13524e-10
1.40664e-11
-1.14383e-10
1.58913e-11
-1.15157e-10
1.76059e-11
-1.15908e-10
1.69765e-11
-1.16161e-10
1.80582e-11
-1.16464e-10
-1.1684e-10
1.92814e-11
2.50591e-14
-2.15191e-12
7.1902e-14
-6.36967e-12
1.33042e-13
-1.05083e-11
2.10469e-13
-1.45729e-11
3.05936e-13
-1.85646e-11
4.21379e-13
-2.24834e-11
5.58796e-13
-2.63293e-11
7.20498e-13
-3.0102e-11
9.09028e-13
-3.38013e-11
1.12711e-12
-3.74269e-11
1.37761e-12
-4.09786e-11
1.66353e-12
-4.44562e-11
1.98801e-12
-4.78594e-11
2.35428e-12
-5.11883e-11
2.76565e-12
-5.44425e-11
3.22555e-12
-5.76221e-11
3.73743e-12
-6.07269e-11
4.30487e-12
-6.3757e-11
4.93142e-12
-6.67123e-11
5.62078e-12
-6.95928e-11
6.37652e-12
-7.23985e-11
7.20245e-12
-7.51297e-11
8.10231e-12
-7.77863e-11
9.08003e-12
-8.03686e-11
1.01395e-11
-8.28766e-11
1.12847e-11
-8.53108e-11
1.25194e-11
-8.76711e-11
1.38478e-11
-8.99582e-11
1.52736e-11
-9.21717e-11
1.68015e-11
-9.4313e-11
1.84351e-11
-9.6381e-11
2.01793e-11
-9.83782e-11
2.20376e-11
-1.00302e-10
2.40156e-11
-1.02157e-10
2.6116e-11
-1.0394e-10
2.83456e-11
-1.05655e-10
3.07056e-11
-1.07296e-10
3.32047e-11
-1.08874e-10
3.58423e-11
-1.10378e-10
3.86316e-11
-1.11824e-10
4.15757e-11
-1.132e-10
4.4711e-11
-1.14545e-10
4.77961e-11
-1.15579e-10
5.08269e-11
-1.16554e-10
5.33851e-11
-1.17521e-10
5.17828e-11
-1.17711e-10
5.2432e-11
-1.17647e-10
5.38658e-11
-1.17608e-10
5.48606e-11
-1.17459e-10
-1.17228e-10
5.52481e-11
1.3692e-14
-2.16561e-12
7.49737e-14
-6.43096e-12
1.91277e-13
-1.06246e-11
3.63369e-13
-1.4745e-11
5.91898e-13
-1.87931e-11
8.77653e-13
-2.27691e-11
1.22159e-12
-2.66732e-11
1.62489e-12
-3.05054e-11
2.08903e-12
-3.42655e-11
2.6157e-12
-3.79536e-11
3.20686e-12
-4.15698e-11
3.86471e-12
-4.5114e-11
4.59165e-12
-4.85864e-11
5.39041e-12
-5.1987e-11
6.26387e-12
-5.5316e-11
7.21529e-12
-5.85735e-11
8.24806e-12
-6.17597e-11
9.36602e-12
-6.4875e-11
1.05731e-11
-6.79194e-11
1.18738e-11
-7.08935e-11
1.32727e-11
-7.37974e-11
1.47748e-11
-7.66319e-11
1.63854e-11
-7.93969e-11
1.81105e-11
-8.20937e-11
1.9956e-11
-8.4722e-11
2.19288e-11
-8.72837e-11
2.40357e-11
-8.9778e-11
2.62849e-11
-9.22074e-11
2.86838e-11
-9.45705e-11
3.12414e-11
-9.68706e-11
3.39663e-11
-9.91059e-11
3.68685e-11
-1.0128e-10
3.99575e-11
-1.03392e-10
4.32441e-11
-1.05444e-10
4.6739e-11
-1.07435e-10
5.04527e-11
-1.09368e-10
5.43988e-11
-1.11243e-10
5.85912e-11
-1.13067e-10
6.30591e-11
-1.14846e-10
6.77979e-11
-1.16563e-10
7.25463e-11
-1.17948e-10
7.72502e-11
-1.19249e-10
8.05395e-11
-1.20942e-10
7.40508e-11
-1.20684e-10
7.5909e-11
-1.20245e-10
7.79674e-11
-1.19785e-10
7.9521e-11
-1.19201e-10
8.05949e-11
-1.18682e-10
8.15558e-11
-1.1842e-10
-1.18174e-10
8.25015e-11
4.64681e-14
-2.21208e-12
1.7598e-13
-6.56047e-12
3.85851e-13
-1.08345e-11
6.76458e-13
-1.50356e-11
1.04787e-12
-1.91645e-11
1.50014e-12
-2.32214e-11
2.03329e-12
-2.72064e-11
2.64746e-12
-3.11195e-11
3.34289e-12
-3.49609e-11
4.11994e-12
-3.87307e-11
4.97907e-12
-4.24289e-11
5.9209e-12
-4.60558e-11
6.94614e-12
-4.96116e-11
8.05568e-12
-5.30966e-11
9.2505e-12
-5.65108e-11
1.05318e-11
-5.98548e-11
1.19008e-11
-6.31287e-11
1.3359e-11
-6.63332e-11
1.49079e-11
-6.94683e-11
1.65493e-11
-7.25349e-11
1.82851e-11
-7.55332e-11
2.01172e-11
-7.8464e-11
2.2048e-11
-8.13277e-11
2.40794e-11
-8.4125e-11
2.62143e-11
-8.6857e-11
2.84545e-11
-8.95239e-11
3.08042e-11
-9.21277e-11
3.32644e-11
-9.46676e-11
3.58409e-11
-9.7147e-11
3.85334e-11
-9.95631e-11
4.13502e-11
-1.01923e-10
4.42883e-11
-1.04218e-10
4.73601e-11
-1.06463e-10
5.05578e-11
-1.08642e-10
5.39026e-11
-1.10779e-10
5.73881e-11
-1.12854e-10
6.10665e-11
-1.14921e-10
6.47296e-11
-1.1673e-10
6.82876e-11
-1.18404e-10
7.13411e-11
-1.19934e-10
6.87747e-11
-1.21976e-10
6.05665e-11
-1.21485e-10
6.02384e-11
-1.20764e-10
5.92983e-11
-1.19749e-10
5.74415e-11
-1.18388e-10
5.45339e-11
-1.16877e-10
5.03433e-11
-1.1501e-10
4.41186e-11
-1.12457e-10
3.6379e-11
-1.1068e-10
-1.07722e-10
2.59269e-11
6.53948e-14
-2.27747e-12
2.6057e-13
-6.75564e-12
5.82106e-13
-1.1156e-11
1.02531e-12
-1.54788e-11
1.58571e-12
-1.97249e-11
2.25907e-12
-2.38948e-11
3.04149e-12
-2.79888e-11
3.92928e-12
-3.20073e-11
4.91909e-12
-3.59507e-11
6.00761e-12
-3.98192e-11
7.19192e-12
-4.36132e-11
8.46886e-12
-4.73328e-11
9.83577e-12
-5.09785e-11
1.12895e-11
-5.45502e-11
1.28274e-11
-5.80487e-11
1.44461e-11
-6.14735e-11
1.61431e-11
-6.48257e-11
1.79143e-11
-6.81043e-11
1.97572e-11
-7.13112e-11
2.16666e-11
-7.44444e-11
2.36403e-11
-7.75069e-11
2.56716e-11
-8.04953e-11
2.77584e-11
-8.34145e-11
2.9892e-11
-8.62586e-11
3.20709e-11
-8.90358e-11
3.42835e-11
-9.17366e-11
3.65297e-11
-9.43739e-11
3.87945e-11
-9.69323e-11
4.108e-11
-9.94326e-11
4.33665e-11
-1.0185e-10
4.56605e-11
-1.04217e-10
4.7936e-11
-1.06494e-10
5.02109e-11
-1.08738e-10
5.24648e-11
-1.10896e-10
5.47482e-11
-1.13063e-10
5.66196e-11
-1.14725e-10
5.80417e-11
-1.16343e-10
5.78125e-11
-1.18043e-10
4.29584e-11
-1.18572e-10
3.06658e-11
-1.17871e-10
2.54123e-11
-1.16868e-10
1.88483e-11
-1.14923e-10
9.60444e-12
-1.1152e-10
-6.84419e-12
-1.03301e-10
-4.46434e-11
-8.05891e-11
-8.07081e-11
-8.08124e-11
-8.46513e-11
-1.11067e-10
-9.82621e-11
-9.88462e-11
-1.11101e-10
-9.78411e-11
-1.13081e-10
-1.05742e-10
8.05068e-14
-2.35798e-12
3.12523e-13
-6.98766e-12
6.86549e-13
-1.153e-11
1.19349e-12
-1.59858e-11
1.8253e-12
-2.03567e-11
2.5746e-12
-2.4644e-11
3.43495e-12
-2.88491e-11
4.40026e-12
-3.29726e-11
5.46534e-12
-3.70158e-11
6.62501e-12
-4.09789e-11
7.87497e-12
-4.48632e-11
9.21065e-12
-4.86685e-11
1.06285e-11
-5.23964e-11
1.21243e-11
-5.60461e-11
1.36953e-11
-5.96197e-11
1.53376e-11
-6.31158e-11
1.70493e-11
-6.65374e-11
1.88268e-11
-6.98818e-11
2.06692e-11
-7.31536e-11
2.25734e-11
-7.63486e-11
2.45402e-11
-7.94737e-11
2.65666e-11
-8.25217e-11
2.86558e-11
-8.55037e-11
3.0805e-11
-8.84078e-11
3.30208e-11
-9.12516e-11
3.52997e-11
-9.40155e-11
3.76534e-11
-9.67275e-11
4.00764e-11
-9.93553e-11
4.25875e-11
-1.01944e-10
4.5179e-11
-1.04441e-10
4.78868e-11
-1.06924e-10
5.07128e-11
-1.0932e-10
5.37495e-11
-1.11775e-10
5.62043e-11
-1.13351e-10
5.81467e-11
-1.15005e-10
5.64784e-11
-1.16934e-10
2.70317e-11
-1.15598e-10
1.59069e-11
-1.13937e-10
8.11668e-12
-1.10893e-10
-8.54066e-12
-1.01213e-10
-5.6983e-11
-6.84262e-11
-6.66809e-11
-1.05226e-10
-1.34428e-10
-4.37723e-11
-1.36651e-10
-1.01078e-10
-1.35059e-10
-8.21806e-11
-1.47859e-10
-6.80119e-11
-1.78094e-10
-8.0831e-11
-1.68702e-10
-1.08238e-10
-1.41429e-10
-1.25114e-10
-1.38099e-10
-1.16411e-10
8.69e-14
-2.44488e-12
3.25499e-13
-7.22626e-12
7.02483e-13
-1.1907e-11
1.20918e-12
-1.64925e-11
1.83759e-12
-2.09851e-11
2.5803e-12
-2.53868e-11
3.43058e-12
-2.96994e-11
4.38212e-12
-3.39242e-11
5.42938e-12
-3.80631e-11
6.56707e-12
-4.21166e-11
7.79089e-12
-4.6087e-11
9.09659e-12
-4.99742e-11
1.04813e-11
-5.37811e-11
1.19421e-11
-5.75068e-11
1.34779e-11
-6.11555e-11
1.50871e-11
-6.4725e-11
1.67713e-11
-6.82216e-11
1.85307e-11
-7.16411e-11
2.03699e-11
-7.49929e-11
2.22914e-11
-7.82701e-11
2.43036e-11
-8.14858e-11
2.64118e-11
-8.46299e-11
2.86279e-11
-8.77198e-11
3.09614e-11
-9.07413e-11
3.3426e-11
-9.37162e-11
3.60365e-11
-9.6626e-11
3.88051e-11
-9.94961e-11
4.17562e-11
-1.02306e-10
4.49052e-11
-1.05093e-10
4.8316e-11
-1.07852e-10
5.19164e-11
-1.10525e-10
5.5103e-11
-1.12507e-10
5.76478e-11
-1.14397e-10
5.0947e-11
-1.18013e-10
1.18767e-11
-1.14997e-10
3.80132e-12
-1.11264e-10
-9.52616e-12
-1.02324e-10
-1.20213e-10
-3.24999e-12
-9.09294e-11
-1.40178e-10
-1.07174e-10
-8.49683e-11
-2.04505e-10
2.89048e-11
-2.80022e-10
-2.97085e-11
-2.69103e-10
-5.46899e-11
-3.10354e-10
-5.98274e-11
-3.06002e-10
-8.65329e-11
-2.71459e-10
-1.02555e-10
-2.30067e-10
-1.22222e-10
-1.92007e-10
-1.46298e-10
-1.51325e-10
-1.65795e-10
-1.83383e-10
-1.06041e-10
4.58954e-14
-2.49078e-12
1.99685e-13
-7.38005e-12
4.65521e-13
-1.21728e-11
8.40329e-13
-1.68673e-11
1.31948e-12
-2.14643e-11
1.89675e-12
-2.5964e-11
2.56541e-12
-3.03681e-11
3.31758e-12
-3.46763e-11
4.14556e-12
-3.8891e-11
5.04068e-12
-4.30117e-11
5.99497e-12
-4.70413e-11
6.99944e-12
-5.09786e-11
8.04609e-12
-5.48278e-11
9.12591e-12
-5.85866e-11
1.02308e-11
-6.22605e-11
1.13521e-11
-6.58463e-11
1.24812e-11
-6.93507e-11
1.361e-11
-7.277e-11
1.47283e-11
-7.61112e-11
1.58297e-11
-7.93715e-11
1.68999e-11
-8.2556e-11
1.7936e-11
-8.56661e-11
1.89148e-11
-8.86986e-11
1.984e-11
-9.16665e-11
2.06706e-11
-9.45469e-11
2.14271e-11
-9.73825e-11
2.2054e-11
-1.00123e-10
2.26327e-11
-1.02885e-10
2.2548e-11
-1.05008e-10
2.17642e-11
-1.07068e-10
1.87134e-11
-1.08785e-10
-2.37321e-12
-1.12501e-10
-3.28188e-11
-1.08876e-10
-4.9579e-11
-1.01605e-10
-1.74348e-10
9.75836e-12
-1.70365e-10
-1.15247e-10
-1.24803e-10
-1.47886e-10
-2.33945e-10
1.05892e-10
-4.35005e-10
6.08825e-11
-5.2434e-10
4.36902e-12
-5.32986e-10
3.75509e-11
-5.55485e-10
-7.20929e-12
-5.609e-10
-4.92756e-11
-5.3702e-10
-8.37073e-11
-5.08091e-10
-1.15461e-10
-4.66965e-10
-1.43681e-10
-4.21183e-10
-1.68004e-10
-3.79032e-10
-1.8845e-10
-3.39525e-10
-2.05302e-10
-2.21304e-10
-3.01604e-10
7.20968e-14
-2.56287e-12
2.71417e-13
-7.57937e-12
5.79909e-13
-1.24813e-11
9.81415e-13
-1.72688e-11
1.46021e-12
-2.19431e-11
2.00405e-12
-2.65079e-11
2.59891e-12
-3.09629e-11
3.23542e-12
-3.53128e-11
3.89963e-12
-3.95552e-11
4.58453e-12
-4.36966e-11
5.27452e-12
-4.77313e-11
5.96491e-12
-5.1669e-11
6.63653e-12
-5.54994e-11
7.28758e-12
-5.92377e-11
7.89295e-12
-6.28659e-11
8.45504e-12
-6.64084e-11
8.93989e-12
-6.98355e-11
9.35637e-12
-7.31864e-11
9.65791e-12
-7.64127e-11
9.86365e-12
-7.95773e-11
9.90911e-12
-8.26015e-11
9.82917e-12
-8.55861e-11
9.53524e-12
-8.84047e-11
9.09249e-12
-9.12237e-11
8.3966e-12
-9.3851e-11
7.58348e-12
-9.65694e-11
5.69109e-12
-9.82306e-11
2.81163e-12
-1.00006e-10
-4.67001e-12
-1.02175e-10
-4.50394e-11
-1.01095e-10
-7.49853e-11
-9.69753e-11
-1.32146e-10
-5.56136e-11
-1.76513e-10
-6.45127e-11
-1.30583e-10
-1.47534e-10
-3.49392e-10
2.28568e-10
-6.12419e-10
1.47781e-10
-8.28228e-10
6.79261e-11
-8.50967e-10
1.28631e-10
-8.90419e-10
1.00334e-10
-9.23194e-10
3.71441e-11
-8.73432e-10
-1.22108e-11
-8.23886e-10
-5.67558e-11
-7.77785e-10
-9.53757e-11
-7.3257e-10
-1.28923e-10
-6.90165e-10
-1.57866e-10
-6.50803e-10
-1.83043e-10
-6.1448e-10
-2.04327e-10
-5.80828e-10
-2.22102e-10
-5.50352e-10
-2.35778e-10
-2.46304e-10
-5.25352e-10
1.07668e-13
-2.67054e-12
3.70838e-13
-7.84254e-12
7.54668e-13
-1.28652e-11
1.24001e-12
-1.77541e-11
1.8087e-12
-2.25118e-11
2.44863e-12
-2.71478e-11
3.14659e-12
-3.16609e-11
3.89716e-12
-3.60634e-11
4.69139e-12
-4.03495e-11
5.53062e-12
-4.45358e-11
6.40962e-12
-4.86103e-11
7.33708e-12
-5.25965e-11
8.31121e-12
-5.64735e-11
9.34922e-12
-6.02757e-11
1.04527e-11
-6.39694e-11
1.16491e-11
-6.76048e-11
1.29437e-11
-7.11301e-11
1.43753e-11
-7.4618e-11
1.59536e-11
-7.7991e-11
1.77275e-11
-8.13511e-11
1.9714e-11
-8.4588e-11
2.1973e-11
-8.78451e-11
2.45525e-11
-9.09842e-11
2.75325e-11
-9.42037e-11
3.01163e-11
-9.64348e-11
3.22989e-11
-9.8752e-11
2.69635e-11
-1.02766e-10
-3.00839e-11
-9.97855e-11
-4.70547e-11
-9.30018e-11
-1.62669e-10
1.43677e-11
-1.26483e-10
-1.33162e-10
-1.89565e-10
7.46806e-12
-5.34216e-10
2.80138e-10
-8.82375e-10
2.00628e-10
-9.38841e-10
2.85033e-10
-1.05552e-09
2.64456e-10
-1.16404e-09
1.76451e-10
-1.13986e-09
1.04453e-10
-1.08373e-09
4.42005e-11
-1.03766e-09
-8.93113e-12
-9.95583e-10
-5.42828e-11
-9.596e-10
-9.27394e-11
-9.29751e-10
-1.25225e-10
-9.05964e-10
-1.5271e-10
-8.87466e-10
-1.76364e-10
-8.74889e-10
-1.95621e-10
-8.66471e-10
-2.12745e-10
-8.60945e-10
-2.27628e-10
-8.56117e-10
-2.40605e-10
-2.49537e-10
-8.52884e-10
-6.51336e-14
-2.60541e-12
-2.07058e-13
-7.70061e-12
-3.96187e-13
-1.2676e-11
-6.15966e-13
-1.75344e-11
-8.48928e-13
-2.22788e-11
-1.07918e-12
-2.69175e-11
-1.28759e-12
-3.14525e-11
-1.45732e-12
-3.58937e-11
-1.56508e-12
-4.02417e-11
-1.59208e-12
-4.45088e-11
-1.50849e-12
-4.86939e-11
-1.29387e-12
-5.28111e-11
-9.09753e-13
-5.68576e-11
-3.36766e-13
-6.08487e-11
4.73588e-13
-6.47797e-11
1.5327e-12
-6.86639e-11
2.89961e-12
-7.2497e-11
4.56345e-12
-7.62819e-11
6.5962e-12
-8.00237e-11
8.94653e-12
-8.37015e-11
1.17202e-11
-8.73617e-11
1.47863e-11
-9.09112e-11
1.77568e-11
-9.39548e-11
2.0299e-11
-9.67934e-11
1.05777e-11
-1.02581e-10
-3.53615e-11
-9.96176e-11
-5.12025e-11
-8.75727e-11
-1.52638e-10
1.60935e-12
-1.66903e-10
-7.87378e-11
-4.30807e-10
2.78272e-10
-7.4356e-10
1.79593e-10
-8.76785e-10
1.40693e-10
-8.99893e-10
3.03246e-10
-1.02888e-09
3.29617e-10
-1.00548e-09
2.6163e-10
-9.3298e-10
1.91959e-10
-8.81396e-10
1.24867e-10
-8.42242e-10
6.52997e-11
-8.1269e-10
1.46485e-11
-7.92945e-10
-2.86768e-11
-7.80855e-10
-6.63724e-11
-7.75654e-10
-9.7941e-11
-7.76669e-10
-1.24209e-10
-7.83571e-10
-1.45807e-10
-7.96883e-10
-1.63052e-10
-8.13508e-10
-1.78996e-10
-8.33327e-10
-1.92926e-10
-8.55708e-10
-2.05248e-10
-8.80644e-10
-2.15669e-10
-2.23841e-10
-9.06341e-10
-1.45709e-13
-2.4597e-12
-5.61434e-13
-7.28489e-12
-1.21164e-12
-1.20258e-11
-2.05496e-12
-1.6691e-11
-3.04929e-12
-2.12845e-11
-4.15518e-12
-2.58117e-11
-5.33048e-12
-3.02772e-11
-6.53809e-12
-3.46861e-11
-7.73431e-12
-3.90455e-11
-8.88628e-12
-4.33568e-11
-9.94746e-12
-4.76327e-11
-1.08952e-11
-5.18633e-11
-1.16801e-11
-5.60727e-11
-1.23029e-11
-6.02259e-11
-1.27135e-11
-6.43692e-11
-1.296e-11
-6.84173e-11
-1.29958e-11
-7.24613e-11
-1.29472e-11
-7.63305e-11
-1.27554e-11
-8.02155e-11
-1.26501e-11
-8.38068e-11
-1.32318e-11
-8.678e-11
-1.49116e-11
-8.9268e-11
-3.45114e-11
-9.35733e-11
-8.43159e-11
-9.19001e-11
-1.20141e-10
-6.73435e-11
-1.61495e-10
-5.82692e-11
-1.79755e-10
-6.93132e-11
-4.83624e-10
3.05478e-10
-7.95952e-10
2.33592e-10
-8.18277e-10
3.00597e-10
-9.6253e-10
3.23846e-10
-1.09449e-09
2.72648e-10
-1.03422e-09
2.42977e-10
-9.11968e-10
2.07368e-10
-8.13189e-10
1.62851e-10
-7.39084e-10
1.17854e-10
-6.88774e-10
7.45571e-11
-6.58705e-10
3.52306e-11
-6.44868e-10
8.11704e-13
-6.43411e-10
-3.01337e-11
-6.51879e-10
-5.79046e-11
-6.67921e-10
-8.18997e-11
-6.89615e-10
-1.02515e-10
-7.15839e-10
-1.19584e-10
-7.45227e-10
-1.33663e-10
-7.77705e-10
-1.46518e-10
-8.12759e-10
-1.57872e-10
-8.50497e-10
-1.6751e-10
-8.90639e-10
-1.75527e-10
-1.82462e-10
-9.32018e-10
-1.23611e-13
-2.33609e-12
-4.41743e-13
-6.96676e-12
-9.21611e-13
-1.1546e-11
-1.5394e-12
-1.60733e-11
-2.27428e-12
-2.05496e-11
-3.1031e-12
-2.49828e-11
-4.00499e-12
-2.93753e-11
-4.95393e-12
-3.37371e-11
-5.92563e-12
-3.80738e-11
-6.8889e-12
-4.23936e-11
-7.81345e-12
-4.67081e-11
-8.66263e-12
-5.10142e-11
-9.39872e-12
-5.53367e-11
-9.98233e-12
-5.96423e-11
-1.03675e-11
-6.39841e-11
-1.05118e-11
-6.8273e-11
-1.0345e-11
-7.2628e-11
-9.81624e-12
-7.68593e-11
-9.96241e-12
-8.00693e-11
-1.08764e-11
-8.28928e-11
-2.82863e-11
-8.76644e-11
-8.30469e-11
-8.52319e-11
-1.27804e-10
-4.94309e-11
-1.19082e-10
-1.00623e-10
-1.14553e-10
-7.18726e-11
-3.8834e-10
2.15519e-10
-6.47273e-10
1.8962e-10
-6.83823e-10
3.42029e-10
-8.36324e-10
3.86094e-10
-8.64615e-10
3.28888e-10
-8.23929e-10
2.8316e-10
-7.92097e-10
2.40816e-10
-7.50272e-10
2.01151e-10
-7.08764e-10
1.6586e-10
-6.77994e-10
1.32081e-10
-6.59626e-10
9.94859e-11
-6.52824e-10
6.77552e-11
-6.56287e-10
3.8694e-11
-6.67742e-10
1.22665e-11
-6.86751e-10
-1.11247e-11
-7.12315e-10
-3.23406e-11
-7.42938e-10
-5.12773e-11
-7.77431e-10
-6.80211e-11
-8.14494e-10
-8.25208e-11
-8.5342e-10
-9.47371e-11
-8.93356e-10
-1.06582e-10
-9.34819e-10
-1.16409e-10
-9.77539e-10
-1.24791e-10
-1.02097e-09
-1.32096e-10
-1.38322e-10
-1.06511e-09
6.1026e-14
-2.39712e-12
2.06975e-13
-7.11271e-12
3.98236e-13
-1.17372e-11
5.96868e-13
-1.62719e-11
7.63861e-13
-2.07166e-11
8.67411e-13
-2.50864e-11
8.72894e-13
-2.93808e-11
7.59812e-13
-3.36241e-11
5.00048e-13
-3.7814e-11
9.19736e-14
-4.19855e-11
-4.83992e-13
-4.61321e-11
-1.19806e-12
-5.03001e-11
-2.05792e-12
-5.44768e-11
-2.97647e-12
-5.87237e-11
-3.93485e-12
-6.30257e-11
-4.74788e-12
-6.746e-11
-5.96637e-12
-7.14095e-11
-7.3682e-12
-7.54575e-11
-1.66146e-11
-8.29967e-11
-1.15036e-10
-8.03411e-11
-1.56876e-10
-4.89372e-11
-1.39019e-10
-1.03089e-10
-1.18791e-10
-6.96588e-11
-3.5961e-10
1.40196e-10
-5.61506e-10
1.30023e-10
-6.33193e-10
2.87206e-10
-7.9785e-10
3.54277e-10
-7.98201e-10
3.4238e-10
-7.30841e-10
3.18733e-10
-6.88274e-10
2.86321e-10
-6.58942e-10
2.53828e-10
-6.40699e-10
2.22573e-10
-6.33322e-10
1.93775e-10
-6.33841e-10
1.66379e-10
-6.42516e-10
1.40756e-10
-6.57789e-10
1.14759e-10
-6.79845e-10
8.98114e-11
-7.07291e-10
6.614e-11
-7.39985e-10
4.49601e-11
-7.77358e-10
2.62486e-11
-8.1882e-10
9.12137e-12
-8.63803e-10
-6.29374e-12
-9.11773e-10
-2.00517e-11
-9.62117e-10
-3.21769e-11
-1.01393e-09
-4.29208e-11
-1.06778e-09
-5.27356e-11
-1.12186e-09
-6.23302e-11
-1.17553e-09
-7.11135e-11
-1.22843e-09
-7.92e-11
-8.69143e-11
-1.27984e-09
1.32227e-13
-2.52935e-12
3.9041e-13
-7.37089e-12
6.58333e-13
-1.20052e-11
8.35583e-13
-1.64491e-11
8.28325e-13
-2.07094e-11
5.48612e-13
-2.48067e-11
-9.05155e-14
-2.87416e-11
-1.17253e-12
-3.25421e-11
-2.78681e-12
-3.61998e-11
-5.01817e-12
-3.97541e-11
-7.96711e-12
-4.31832e-11
-1.17189e-11
-4.65483e-11
-1.63863e-11
-4.98094e-11
-2.20388e-11
-5.30712e-11
-2.8899e-11
-5.61654e-11
-3.70859e-11
-5.92731e-11
-4.71878e-11
-6.40536e-11
-1.30744e-10
-6.45086e-11
-1.76549e-10
-5.56992e-11
-1.77669e-10
-7.93497e-11
-1.65131e-10
-6.14757e-11
-3.78903e-10
1.10684e-10
-5.58621e-10
1.10059e-10
-6.58241e-10
2.39816e-10
-8.40643e-10
3.12425e-10
-8.78826e-10
3.25389e-10
-8.47334e-10
3.22785e-10
-8.12433e-10
3.07479e-10
-7.81552e-10
2.87852e-10
-7.61181e-10
2.65951e-10
-7.50945e-10
2.43591e-10
-7.50555e-10
2.22183e-10
-7.59186e-10
2.02406e-10
-7.75688e-10
1.8288e-10
-7.98186e-10
1.63254e-10
-8.28031e-10
1.44605e-10
-8.64913e-10
1.26693e-10
-9.0848e-10
1.09707e-10
-9.56836e-10
9.33155e-11
-1.0091e-09
7.85162e-11
-1.06424e-09
6.42573e-11
-1.12152e-09
5.09876e-11
-1.18012e-09
3.85432e-11
-1.23934e-09
2.7051e-11
-1.29778e-09
1.5517e-11
-1.35408e-09
3.56078e-12
-1.40843e-09
-7.9758e-12
-1.46056e-09
-1.8987e-11
-1.51023e-09
-2.95272e-11
-3.91593e-11
-1.55799e-09
-2.57873e-13
-1.09274e-12
-2.5099e-12
-4.47766e-12
-6.97995e-12
-9.98629e-12
-1.34996e-11
-1.74989e-11
-2.20223e-11
-2.70674e-11
-3.27225e-11
-3.89979e-11
-4.60413e-11
-5.44845e-11
-6.42884e-11
-1.12046e-10
-1.73027e-10
-2.22317e-10
-2.47036e-10
-4.47244e-10
-6.25923e-10
-7.39417e-10
-9.18895e-10
-9.86711e-10
-9.87711e-10
-9.70762e-10
-9.46381e-10
-9.24117e-10
-9.06836e-10
-8.96284e-10
-8.93174e-10
-8.97037e-10
-9.06691e-10
-9.21438e-10
-9.42715e-10
-9.70061e-10
-1.00257e-09
-1.03942e-09
-1.0804e-09
-1.12364e-09
-1.16855e-09
-1.21491e-09
-1.26172e-09
-1.30762e-09
-1.35161e-09
-1.39422e-09
-1.43515e-09
-1.47423e-09
-1.51154e-09
-1.54654e-09
-1.03587e-10
-1.16204e-10
-1.32949e-10
-1.20534e-10
-1.7662e-10
-1.24037e-10
-2.38904e-10
-1.26518e-10
-3.14813e-10
-1.4037e-10
-4.04198e-10
-1.61298e-10
-5.01665e-10
-1.86819e-10
-6.00207e-10
-2.17115e-10
-6.94906e-10
-2.49629e-10
-7.85258e-10
-2.79742e-10
-8.71895e-10
-3.0606e-10
-9.57098e-10
-3.28664e-10
-1.04097e-09
-3.47581e-10
-1.12258e-09
-3.63569e-10
-1.20364e-09
-3.73213e-10
-1.2856e-09
-3.80889e-10
-1.36792e-09
-3.87344e-10
-1.45108e-09
-3.91456e-10
-1.53494e-09
-3.94453e-10
-1.61988e-09
-3.9497e-10
-1.71391e-09
-3.90852e-10
-1.81491e-09
-3.8786e-10
-1.91355e-09
-3.84805e-10
-2.01209e-09
-3.8242e-10
-2.11043e-09
-3.81786e-10
-2.20735e-09
-3.82911e-10
-2.30197e-09
-3.85284e-10
-2.39418e-09
-3.88291e-10
-2.48447e-09
-3.91079e-10
-2.57329e-09
-3.92979e-10
-2.664e-09
-3.9229e-10
-2.74687e-09
-4.00564e-10
-2.82116e-09
-4.07349e-10
-2.90018e-09
-4.0629e-10
-2.98501e-09
-4.0349e-10
-3.06918e-09
-4.08942e-10
-3.14315e-09
-4.13051e-10
-3.22001e-09
-4.15652e-10
-3.29939e-09
-4.17331e-10
-3.38071e-09
-4.19811e-10
-3.46228e-09
-4.21083e-10
-3.54527e-09
-4.2114e-10
-3.62882e-09
-4.22634e-10
-3.70384e-09
-4.25194e-10
-3.77908e-09
-4.27343e-10
-3.85419e-09
-4.28989e-10
-3.92494e-09
-4.31017e-10
-3.99697e-09
-4.34357e-10
-4.06673e-09
-4.40132e-10
-4.4645e-10
-4.13288e-09
-4.7335e-11
-1.11584e-10
-5.58814e-11
-1.11988e-10
-6.77252e-11
-1.12193e-10
-8.16011e-11
-1.12641e-10
-1.08208e-10
-1.13763e-10
-1.53032e-10
-1.16473e-10
-2.17022e-10
-1.22829e-10
-2.98112e-10
-1.36025e-10
-3.93281e-10
-1.5446e-10
-4.99727e-10
-1.73296e-10
-6.15367e-10
-1.9042e-10
-7.38509e-10
-2.05522e-10
-8.67379e-10
-2.1871e-10
-1.00152e-09
-2.29429e-10
-1.13686e-09
-2.3787e-10
-1.27301e-09
-2.44747e-10
-1.40824e-09
-2.52114e-10
-1.54112e-09
-2.58572e-10
-1.67306e-09
-2.62509e-10
-1.8016e-09
-2.66432e-10
-1.92763e-09
-2.64819e-10
-2.05316e-09
-2.62334e-10
-2.17776e-09
-2.60201e-10
-2.30035e-09
-2.59834e-10
-2.42082e-09
-2.61316e-10
-2.53919e-09
-2.6454e-10
-2.65496e-09
-2.69515e-10
-2.76758e-09
-2.75668e-10
-2.87613e-09
-2.82533e-10
-2.98072e-09
-2.88385e-10
-3.07942e-09
-2.93589e-10
-3.18586e-09
-2.94127e-10
-3.29725e-09
-2.95954e-10
-3.40689e-09
-2.96653e-10
-3.51136e-09
-2.99019e-10
-3.61805e-09
-3.02249e-10
-3.72411e-09
-3.06998e-10
-3.82787e-09
-3.11891e-10
-3.92765e-09
-3.17551e-10
-4.02667e-09
-3.20786e-10
-4.12379e-09
-3.2397e-10
-4.21688e-09
-3.28044e-10
-4.3067e-09
-3.3281e-10
-4.39357e-09
-3.38333e-10
-4.47688e-09
-3.44029e-10
-4.55619e-09
-3.49676e-10
-4.63382e-09
-3.53392e-10
-4.71107e-09
-3.57107e-10
-4.78769e-09
-3.63505e-10
-3.72388e-10
-4.86176e-09
1.64578e-12
-1.12667e-10
2.63964e-12
-1.12981e-10
3.7069e-12
-1.13261e-10
4.59075e-12
-1.13525e-10
4.62915e-12
-1.138e-10
2.24511e-12
-1.14089e-10
-6.31801e-12
-1.14266e-10
-2.83273e-11
-1.14016e-10
-7.04599e-11
-1.12328e-10
-1.37774e-10
-1.05982e-10
-2.3177e-10
-9.64242e-11
-3.47372e-10
-8.99199e-11
-4.79725e-10
-8.63574e-11
-6.23646e-10
-8.55076e-11
-7.74552e-10
-8.69639e-11
-9.29119e-10
-9.01799e-11
-1.08669e-09
-9.45426e-11
-1.24487e-09
-1.00391e-10
-1.40114e-09
-1.06244e-10
-1.55771e-09
-1.09858e-10
-1.71003e-09
-1.12505e-10
-1.8607e-09
-1.11656e-10
-2.00718e-09
-1.13719e-10
-2.15039e-09
-1.16628e-10
-2.29078e-09
-1.20924e-10
-2.42884e-09
-1.26486e-10
-2.5654e-09
-1.32952e-10
-2.69887e-09
-1.42201e-10
-2.8298e-09
-1.51603e-10
-2.95415e-09
-1.64033e-10
-3.07166e-09
-1.76075e-10
-3.18449e-09
-1.81302e-10
-3.29865e-09
-1.8179e-10
-3.41045e-09
-1.8486e-10
-3.51984e-09
-1.89625e-10
-3.62663e-09
-1.95455e-10
-3.73069e-09
-2.0294e-10
-3.8314e-09
-2.11181e-10
-3.92943e-09
-2.19524e-10
-4.02264e-09
-2.27573e-10
-4.11238e-09
-2.34232e-10
-4.19812e-09
-2.42307e-10
-4.28024e-09
-2.50689e-10
-4.35941e-09
-2.59163e-10
-4.43542e-09
-2.68014e-10
-4.50756e-09
-2.77533e-10
-4.57796e-09
-2.82997e-10
-4.64412e-09
-2.9095e-10
-4.70827e-09
-2.99347e-10
-3.0768e-10
-4.77298e-09
4.52381e-11
-1.16036e-10
4.85869e-11
-1.1633e-10
5.18165e-11
-1.1649e-10
5.48863e-11
-1.16595e-10
5.77189e-11
-1.16633e-10
6.01198e-11
-1.16489e-10
6.16178e-11
-1.15764e-10
6.10116e-11
-1.1341e-10
5.45041e-11
-1.0582e-10
3.20831e-11
-8.35608e-11
-1.36067e-11
-5.07344e-11
-8.09032e-11
-2.26234e-11
-1.66242e-10
-1.01832e-12
-2.67407e-10
1.56569e-11
-3.80627e-10
2.62563e-11
-5.03583e-10
3.27762e-11
-6.33047e-10
3.49215e-11
-7.6485e-10
3.14123e-11
-8.98707e-10
2.76133e-11
-1.03101e-09
2.24429e-11
-1.15802e-09
1.45022e-11
-1.27943e-09
9.76188e-12
-1.40044e-09
7.28653e-12
-1.51589e-09
-1.17478e-12
-1.63046e-09
-6.35954e-12
-1.74531e-09
-1.16381e-11