/*--------------------------------*- C++ -*----------------------------------*\
| =========                 |                                                 |
| \\      /  F ield         | OpenFOAM: The Open Source CFD Toolbox           |
|  \\    /   O peration     | Version:  2.4.0                                 |
|   \\  /    A nd           | Web:      www.OpenFOAM.org                      |
|    \\/     M anipulation  |                                                 |
\*---------------------------------------------------------------------------*/
FoamFile
{
    version     2.0;
    format      ascii;
    class       volScalarField;
    location    "2.2";
    object      H;
}
// * * * * * * * * * * * * * * * * * * * * * * * * * * * * * * * * * * * * * //

dimensions      [0 2 -2 0 0 0 0];

internalField   nonuniform List<scalar> 
8000
(
-11986.6
-11500.1
-11014.7
-10530.9
-10049.2
-9569.97
-9093.55
-8620.17
-8150.03
-7683.24
-7219.9
-6760.02
-6303.61
-5850.59
-5400.9
-4954.43
-4511.06
-4070.72
-3633.3
-3198.68
-2766.56
-2336.23
-1906.01
-1472.11
-1026.24
-551.578
-6.18295
-5.92688
-4.93405
-5.10042
-5.23727
-5.34297
-5.41998
-5.4712
-5.4997
-5.50857
-5.50078
-5.47911
-5.44603
-5.40371
-5.35396
-5.29831
-5.23795
-5.17382
-5.10665
-5.03696
-4.96514
-4.89149
-4.8162
-4.73944
-11988
-11504.3
-11021.8
-10541.1
-10062.7
-9587.05
-9114.47
-8645.27
-8179.66
-7717.81
-7259.82
-6805.75
-6355.61
-5909.38
-5466.98
-5028.32
-4593.24
-4161.55
-3732.96
-3307.16
-2883.94
-2463.52
-2047.21
-1637.92
-1239.81
-855.546
-481.323
-7.3731
-5.81975
-5.65838
-5.71962
-5.75131
-5.75717
-5.74168
-5.70909
-5.66327
-5.60757
-5.54482
-5.47736
-5.40699
-5.33508
-5.2626
-5.19015
-5.11807
-5.04648
-4.97536
-4.90455
-4.83386
-4.76307
-4.69196
-11989.4
-11508.6
-11029.1
-10551.4
-10076.2
-9603.92
-9135
-8669.74
-8208.4
-7751.17
-7298.17
-6849.49
-6405.16
-5965.18
-5529.5
-5098.03
-4670.7
-4247.38
-3828
-3412.46
-3000.65
-2592.36
-2187
-1783.04
-1376.83
-960.087
-515.82
-5.77762
-5.60196
-4.63449
-4.77337
-4.90172
-5.00128
-5.07462
-5.12463
-5.15433
-5.16666
-5.16443
-5.15017
-5.12614
-5.09426
-5.05612
-5.013
-4.9659
-4.91556
-4.86254
-4.80722
-4.74986
-4.69064
-4.62967
-11990.9
-11513.2
-11036.7
-10562.2
-10090.4
-9621.58
-9156.33
-8694.97
-8237.76
-7784.92
-7336.62
-6892.94
-6453.96
-6019.68
-5590.08
-5165.1
-4744.65
-4328.6
-3916.78
-3508.97
-3104.93
-2704.52
-2308.06
-1916.75
-1533.12
-1160.6
-801.237
-451.274
-6.97703
-5.53225
-5.37395
-5.42914
-5.45709
-5.46177
-5.44726
-5.41747
-5.37599
-5.32594
-5.26995
-5.21016
-5.14818
-5.0852
-5.02199
-4.95904
-4.89656
-4.83458
-4.77299
-4.71161
-4.65022
-4.58859
-11992.3
-11517.4
-11043.7
-10571.9
-10102.9
-9636.92
-9174.62
-8716.31
-8262.31
-7812.86
-7368.13
-6928.26
-6493.31
-6063.32
-5638.28
-5218.15
-4802.87
-4392.35
-3986.53
-3585.32
-3188.68
-2796.52
-2408.58
-2024.27
-1642.32
-1260.19
-872.722
-468.509
-5.39607
-5.01354
-4.48926
-4.66039
-4.79642
-4.89043
-4.95033
-4.98318
-4.99514
-4.99132
-4.97589
-4.95206
-4.92223
-4.88806
-4.85066
-4.81071
-4.76855
-4.72435
-4.67813
-4.62988
-4.57957
-4.52719
-11993.6
-11521.4
-11050.5
-10581.6
-10115.4
-9652.42
-9193.19
-8738.06
-8287.37
-7841.36
-7400.21
-6964.06
-6532.98
-6107.01
-5686.14
-5270.35
-4859.58
-4453.74
-4052.73
-3656.43
-3264.61
-2877.02
-2493.28
-2113.12
-1737.06
-1367.99
-1013.27
-684.635
-390.656
-9.77899
-7.46144
-7.10053
-6.87499
-6.64313
-6.41348
-6.1924
-5.98467
-5.79341
-5.62017
-5.4652
-5.32768
-5.20607
-5.09835
-5.0023
-4.91567
-4.83635
-4.76246
-4.69239
-4.6248
-4.55865
-11995
-11525.5
-11057.3
-10591.3
-10128
-9668.04
-9211.89
-8759.92
-8312.41
-7869.61
-7431.67
-6998.71
-6570.78
-6147.91
-5730.08
-5317.28
-4909.47
-4506.61
-4108.73
-3715.86
-3328.17
-2945.97
-2569.76
-2200.24
-1838.15
-1483.82
-1136.42
-792.824
-446.41
-6.37045
-4.90225
-4.97982
-5.09096
-5.17285
-5.22921
-5.26359
-5.27924
-5.27906
-5.26559
-5.24097
-5.207
-5.16519
-5.11677
-5.06276
-5.00404
-4.94133
-4.87527
-4.8064
-4.73522
-4.66214
-11996.3
-11529.5
-11063.9
-10600.5
-10139.8
-9682.39
-9228.7
-8779.07
-8333.76
-7892.98
-7456.84
-7025.42
-6598.75
-6176.87
-5759.78
-5347.5
-4940.09
-4537.65
-4140.36
-3748.46
-3362.27
-2982.13
-2608.3
-2240.83
-1879.27
-1522.38
-1167.7
-811.178
-446.817
-5.61679
-4.27988
-4.40465
-4.53658
-4.65072
-4.74736
-4.82708
-4.89063
-4.93886
-4.97268
-4.99306
-5.00095
-4.99734
-4.98319
-4.95943
-4.92698
-4.88673
-4.83952
-4.78616
-4.7274
-4.66396
-11997.6
-11533.3
-11070.4
-10609.4
-10151.1
-9695.93
-9244.22
-8796.27
-8352.26
-7912.33
-7476.54
-7044.93
-6617.53
-6194.38
-5775.51
-5361.04
-4951.1
-4545.93
-4145.82
-3751.14
-3362.31
-2979.72
-2603.66
-2234.22
-1871.01
-1513.02
-1158.15
-802.792
-440.948
-5.50614
-4.19438
-4.34098
-4.48169
-4.60221
-4.70386
-4.78788
-4.85545
-4.90767
-4.94558
-4.97017
-4.98239
-4.98315
-4.97331
-4.95371
-4.92515
-4.88839
-4.84419
-4.79327
-4.7363
-4.67395
-11998.8
-11536.9
-11076.2
-10617.3
-10160.7
-9706.75
-9255.74
-8807.82
-8363.09
-7921.6
-7483.37
-7048.41
-6616.78
-6188.54
-5763.81
-5342.81
-4925.8
-4513.13
-4105.27
-3702.74
-3306.15
-2916.17
-2533.47
-2158.68
-1792.27
-1434.34
-1084.55
-742.274
-407.953
-6.25765
-4.74658
-4.79262
-4.86944
-4.93728
-4.99391
-5.03854
-5.0712
-5.09232
-5.10252
-5.10251
-5.09299
-5.07463
-5.04806
-5.01386
-4.97256
-4.92467
-4.8707
-4.8111
-4.74637
-4.67697
-11999.3
-11538.2
-11077.9
-10618.9
-10161.5
-9705.92
-9252.2
-8800.42
-8350.58
-7902.68
-7456.73
-7012.79
-6570.97
-6131.47
-5694.57
-5260.63
-4830.11
-4403.57
-3981.64
-3565.07
-3154.67
-2751.36
-2356.15
-1970.02
-1593.74
-1227.2
-868.282
-510.938
-146.34
-5.42065
-4.39591
-4.5658
-4.71688
-4.82283
-4.89385
-4.93812
-4.962
-4.97029
-4.96654
-4.95327
-4.93219
-4.90447
-4.87083
-4.83173
-4.78747
-4.73825
-4.68423
-4.62557
-4.56248
-4.49516
-11998.2
-11534.8
-11071.4
-10608.2
-10145.2
-9682.46
-9219.92
-8757.53
-8295.27
-7833.19
-7371.36
-6909.98
-6449.35
-5989.88
-5532.1
-5076.67
-4624.32
-4175.9
-3732.31
-3294.5
-2863.44
-2440.09
-2025.35
-1619.84
-1223.37
-833.046
-436.257
-4.16344
-0.100496
-0.535092
-1.11534
-1.64555
-2.08093
-2.43577
-2.72569
-2.96394
-3.16078
-3.32396
-3.45922
-3.57088
-3.66215
-3.73551
-3.79286
-3.83575
-3.86542
-3.88297
-3.88932
-3.88531
-3.87171
-3.84923
-11995.2
-11525.2
-11054.4
-10582.5
-10109
-9633.97
-9157.06
-8678.26
-8197.55
-7715.05
-7230.97
-6745.69
-6259.73
-5773.79
-5288.68
-4805.39
-4325.02
-3848.78
-3377.9
-2913.63
-2457.1
-2009.32
-1571.15
-1143.27
-726.663
-327.648
-3.27228
-0.0730998
-0.305786
-0.571069
-0.861326
-1.13696
-1.3938
-1.63197
-1.85155
-2.05262
-2.23534
-2.39996
-2.54684
-2.67646
-2.78943
-2.88644
-2.96826
-3.03569
-3.08955
-3.13066
-3.15994
-3.17838
-3.18692
-3.1865
-11989.5
-11508.1
-11025.2
-10540
-10052
-9560.58
-9065.54
-8566.6
-8063.73
-7557.03
-7046.81
-6533.61
-6018.16
-5501.43
-4984.58
-4468.95
-3956.05
-3447.46
-2944.78
-2449.55
-1963.36
-1488.35
-1027.45
-583.192
-144.75
-1.79612
-1.86931
-1.62417
-1.44731
-1.45842
-1.49703
-1.55209
-1.62167
-1.70291
-1.7924
-1.88662
-1.98222
-2.07627
-2.16636
-2.25061
-2.32767
-2.39663
-2.45697
-2.50852
-2.55139
-2.5859
-2.61233
-2.631
-2.64228
-2.64658
-11981.9
-11485
-10985.6
-10482.7
-9975.16
-9462.25
-8943.29
-8417.87
-7885.79
-7347.21
-6802.56
-6252.64
-5698.59
-5141.82
-4584.01
-4027.1
-3473.21
-2924.59
-2383.12
-1850.36
-1328.56
-823.447
-340.286
-3.51236
-0.0868863
-0.253987
-0.408035
-0.600188
-0.785453
-0.957039
-1.11523
-1.26052
-1.39342
-1.51445
-1.62413
-1.72294
-1.81138
-1.88994
-1.95914
-2.0195
-2.07153
-2.11577
-2.15275
-2.18289
-2.2066
-2.22423
-2.23612
-2.24258
-2.24393
-2.24046
-11971.6
-11453.5
-10931.7
-10404.2
-9869.3
-9325.65
-8772.23
-8208.41
-7633.95
-7049.49
-6456.16
-5855.43
-5249.29
-4640.11
-4030.5
-3423.24
-2820.95
-2225.81
-1639
-1059.52
-489.084
-4.90049
-0.103289
-0.258644
-0.354554
-0.51125
-0.658995
-0.7986
-0.925537
-1.04115
-1.14673
-1.24346
-1.33231
-1.41398
-1.48888
-1.55726
-1.61919
-1.67474
-1.72392
-1.76682
-1.80354
-1.83425
-1.85917
-1.87854
-1.89263
-1.90173
-1.90615
-1.90617
-1.90209
-1.89421
-11954.7
-11402
-10843.2
-10274.9
-9694.74
-9100.59
-8491.4
-7866.94
-7227.91
-6575.94
-5913.52
-5243.81
-4570.45
-3897.22
-3227.57
-2565.09
-1910.93
-1263.9
-618.923
-7.07563
-0.145894
-0.209856
-0.271304
-0.399294
-0.516934
-0.646486
-0.770584
-0.886927
-0.993502
-1.08972
-1.17574
-1.25214
-1.31963
-1.37893
-1.43072
-1.47557
-1.514
-1.54647
-1.57338
-1.59509
-1.61195
-1.62428
-1.63239
-1.63657
-1.63709
-1.63422
-1.62821
-1.6193
-1.6077
-1.59364
-11925.4
-11312.3
-10689
-10050.4
-9392.87
-8714.35
-8014.48
-7294.53
-6557.51
-5807.91
-5051.41
-4294.45
-3544.34
-2806.7
-2081.29
-1383.13
-667.472
-7.40992
-0.152004
-0.0190295
-0.170874
-0.314393
-0.448221
-0.573208
-0.690626
-0.798989
-0.89775
-0.986466
-1.06472
-1.13266
-1.19082
-1.23999
-1.28099
-1.3147
-1.34192
-1.36337
-1.37972
-1.39153
-1.3993
-1.40344
-1.40433
-1.40229
-1.3976
-1.39052
-1.38125
-1.37
-1.35694
-1.34224
-1.32603
-1.30847
-11876.8
-11163.8
-10433.6
-9678.96
-8895.81
-8082.88
-7241.92
-6377.8
-5498.37
-4614.22
-3736.46
-2875.42
-2054.95
-1282.71
-423.594
-4.1021
-0.124146
-0.0290733
-0.202032
-0.325544
-0.453121
-0.566896
-0.665307
-0.749743
-0.825298
-0.893141
-0.952878
-1.00448
-1.0482
-1.08452
-1.11406
-1.13749
-1.15549
-1.16871
-1.17774
-1.18312
-1.1853
-1.18469
-1.18163
-1.17641
-1.16928
-1.16045
-1.15011
-1.13843
-1.12554
-1.11157
-1.09663
-1.0808
-1.06417
-1.04682
-11801.9
-10936.6
-10047.5
-9124.86
-8163.69
-7163.89
-6130.36
-5073.51
-4009.1
-2961.26
-1949.21
-911.275
-41.6455
-0.509791
-0.119899
-0.24189
-0.308376
-0.364532
-0.433955
-0.51465
-0.593226
-0.665551
-0.730213
-0.786602
-0.834984
-0.875829
-0.909653
-0.937012
-0.958501
-0.974727
-0.986298
-0.993798
-0.997775
-0.998722
-0.997081
-0.993234
-0.987508
-0.980181
-0.971481
-0.961594
-0.950677
-0.938887
-0.926348
-0.913164
-0.89942
-0.88519
-0.870534
-0.855507
-0.840152
-0.82451
-4.66134
-4.58202
-4.50158
-4.42014
-4.33782
-4.25473
-4.17102
-4.08681
-4.00224
-3.91744
-3.83254
-3.74768
-3.66298
-3.57856
-3.49452
-3.41097
-3.32801
-3.24572
-3.16419
-3.0835
-3.0037
-2.92487
-2.84705
-2.77031
-2.69468
-2.6202
-2.54692
-2.47485
-2.40404
-2.3345
-2.26625
-2.19932
-2.1337
-2.06942
-2.00648
-1.94488
-1.88463
-1.82573
-1.76818
-1.71197
-1.6571
-1.60355
-1.55133
-1.50041
-1.4508
-1.40247
-1.35542
-1.30962
-1.26507
-1.22174
-4.62031
-4.54797
-4.47482
-4.40079
-4.32584
-4.24997
-4.17321
-4.09563
-4.01731
-3.93835
-3.85887
-3.77897
-3.69877
-3.61841
-3.538
-3.45765
-3.37747
-3.29757
-3.21804
-3.13899
-3.0605
-2.98265
-2.90551
-2.82916
-2.75366
-2.67908
-2.60547
-2.53287
-2.46134
-2.39091
-2.32163
-2.25353
-2.18663
-2.12096
-2.05654
-1.99339
-1.93153
-1.87097
-1.81171
-1.75377
-1.69715
-1.64184
-1.58786
-1.53519
-1.48383
-1.43377
-1.38501
-1.33753
-1.29133
-1.2464
-4.56704
-4.50281
-4.43704
-4.3698
-4.30114
-4.23115
-4.15993
-4.08757
-4.01419
-3.93988
-3.86478
-3.78901
-3.71268
-3.63591
-3.55882
-3.48152
-3.40412
-3.32674
-3.24946
-3.17239
-3.09562
-3.01924
-2.94333
-2.86797
-2.79324
-2.71921
-2.64595
-2.57351
-2.50195
-2.43134
-2.36171
-2.29312
-2.22561
-2.1592
-2.09395
-2.02987
-1.96699
-1.90534
-1.84493
-1.78579
-1.72792
-1.67134
-1.61605
-1.56205
-1.50936
-1.45797
-1.40787
-1.35906
-1.31155
-1.2653
-4.5265
-4.46376
-4.40022
-4.33574
-4.27025
-4.2037
-4.13608
-4.06741
-3.99772
-3.92707
-3.85553
-3.7832
-3.71016
-3.63652
-3.56237
-3.48782
-3.41297
-3.33792
-3.26277
-3.18763
-3.11258
-3.03772
-2.96313
-2.88891
-2.81513
-2.74187
-2.66921
-2.59721
-2.52595
-2.45549
-2.38587
-2.31717
-2.24943
-2.18269
-2.11701
-2.05241
-1.98894
-1.92662
-1.86549
-1.80556
-1.74686
-1.68941
-1.63322
-1.5783
-1.52467
-1.47232
-1.42125
-1.37148
-1.323
-1.2758
-4.47274
-4.41627
-4.35786
-4.29759
-4.23558
-4.17197
-4.10687
-4.04043
-3.97277
-3.90403
-3.83431
-3.76373
-3.69242
-3.62047
-3.54799
-3.47507
-3.4018
-3.3283
-3.25463
-3.1809
-3.10718
-3.03357
-2.96014
-2.88698
-2.81416
-2.74176
-2.66986
-2.59853
-2.52783
-2.45782
-2.38858
-2.32016
-2.25261
-2.18598
-2.12033
-2.0557
-1.99213
-1.92965
-1.8683
-1.80811
-1.74911
-1.69131
-1.63474
-1.57942
-1.52535
-1.47255
-1.42103
-1.37078
-1.32181
-1.27412
-4.49316
-4.42776
-4.36207
-4.29583
-4.22891
-4.16125
-4.09284
-4.0237
-3.95387
-3.88341
-3.81238
-3.74085
-3.66887
-3.59651
-3.52383
-3.45089
-3.37777
-3.30451
-3.2312
-3.15788
-3.08464
-3.01153
-2.93864
-2.86601
-2.79373
-2.72186
-2.65047
-2.57962
-2.50937
-2.4398
-2.37095
-2.30289
-2.23566
-2.16933
-2.10394
-2.03953
-1.97614
-1.91382
-1.85261
-1.79252
-1.7336
-1.67586
-1.61933
-1.56402
-1.50996
-1.45716
-1.40561
-1.35534
-1.30634
-1.25862
-4.58754
-4.51177
-4.4351
-4.35778
-4.28002
-4.20199
-4.12383
-4.04565
-3.96754
-3.88955
-3.81173
-3.73413
-3.65677
-3.57966
-3.50283
-3.42629
-3.35006
-3.27415
-3.19859
-3.12341
-3.04863
-2.97427
-2.90039
-2.827
-2.75416
-2.68191
-2.61028
-2.53932
-2.46908
-2.3996
-2.33093
-2.26311
-2.19618
-2.13019
-2.06517
-2.00116
-1.93821
-1.87633
-1.81557
-1.75596
-1.6975
-1.64025
-1.5842
-1.52938
-1.4758
-1.42347
-1.37241
-1.32262
-1.2741
-1.22685
-4.59649
-4.5256
-4.45186
-4.37576
-4.29775
-4.21824
-4.13758
-4.05609
-3.97403
-3.89164
-3.80911
-3.72662
-3.64431
-3.56229
-3.48067
-3.39953
-3.31895
-3.23896
-3.15964
-3.08102
-3.00312
-2.926
-2.84967
-2.77416
-2.6995
-2.62571
-2.55282
-2.48086
-2.40986
-2.33983
-2.2708
-2.2028
-2.13586
-2.07
-2.00523
-1.9416
-1.87911
-1.81779
-1.75767
-1.69874
-1.64105
-1.58459
-1.52938
-1.47543
-1.42276
-1.37136
-1.32124
-1.2724
-1.22484
-1.17857
-4.60686
-4.53561
-4.46078
-4.3829
-4.30246
-4.21992
-4.1357
-4.0502
-3.96375
-3.87668
-3.78927
-3.70177
-3.61439
-3.52732
-3.44072
-3.35473
-3.26947
-3.18503
-3.10152
-3.01898
-2.9375
-2.8571
-2.77784
-2.69974
-2.62283
-2.54713
-2.47264
-2.39939
-2.32739
-2.25664
-2.18715
-2.11893
-2.05198
-1.98631
-1.92194
-1.85885
-1.79707
-1.73658
-1.67741
-1.61955
-1.563
-1.50778
-1.45387
-1.40128
-1.35001
-1.30006
-1.25142
-1.20409
-1.15806
-1.11332
-4.60336
-4.52601
-4.44536
-4.36187
-4.27596
-4.18804
-4.09851
-4.00774
-3.91607
-3.82382
-3.73128
-3.63873
-3.54643
-3.4546
-3.36345
-3.27315
-3.18385
-3.09567
-3.00872
-2.92307
-2.83879
-2.75594
-2.67455
-2.59464
-2.51625
-2.43937
-2.36401
-2.29017
-2.21785
-2.14705
-2.07774
-2.00994
-1.94361
-1.87876
-1.81537
-1.75344
-1.69295
-1.6339
-1.57627
-1.52006
-1.46525
-1.41184
-1.35982
-1.30917
-1.25989
-1.21196
-1.16537
-1.12011
-1.07616
-1.03351
-4.42387
-4.3489
-4.27058
-4.18921
-4.10515
-4.01875
-3.93045
-3.84066
-3.74979
-3.65821
-3.56628
-3.47428
-3.38251
-3.2912
-3.20056
-3.1108
-3.02208
-2.93453
-2.84827
-2.76339
-2.67998
-2.5981
-2.51778
-2.43906
-2.36196
-2.2865
-2.21268
-2.14049
-2.06995
-2.00103
-1.93372
-1.86802
-1.80389
-1.74134
-1.68033
-1.62086
-1.5629
-1.50644
-1.45146
-1.39795
-1.34588
-1.29524
-1.24601
-1.19818
-1.15172
-1.10661
-1.06285
-1.0204
-0.979252
-0.939383
-3.81852
-3.78039
-3.73562
-3.68495
-3.62912
-3.56881
-3.50458
-3.43699
-3.36654
-3.29374
-3.21904
-3.14287
-3.06561
-2.98762
-2.90922
-2.83071
-2.75234
-2.67434
-2.59692
-2.52023
-2.44444
-2.36967
-2.29603
-2.2236
-2.15246
-2.08265
-2.01424
-1.94724
-1.88169
-1.81761
-1.75499
-1.69385
-1.63418
-1.57599
-1.51927
-1.46401
-1.41019
-1.35781
-1.30686
-1.25731
-1.20916
-1.16238
-1.11697
-1.07289
-1.03014
-0.988694
-0.948529
-0.909627
-0.871966
-0.835524
-3.17799
-3.1621
-3.13945
-3.11066
-3.07632
-3.03697
-2.99316
-2.94539
-2.89413
-2.83986
-2.78299
-2.72393
-2.66307
-2.60076
-2.53733
-2.47308
-2.40829
-2.3432
-2.27805
-2.21303
-2.14832
-2.08408
-2.02046
-1.95756
-1.89549
-1.83435
-1.7742
-1.71511
-1.65713
-1.6003
-1.54466
-1.49024
-1.43706
-1.38512
-1.33445
-1.28505
-1.23693
-1.19008
-1.1445
-1.10018
-1.05712
-1.01532
-0.974743
-0.935394
-0.897252
-0.860303
-0.824528
-0.789908
-0.756425
-0.724058
-2.64432
-2.63594
-2.62189
-2.60259
-2.57848
-2.54999
-2.51751
-2.48147
-2.44222
-2.40016
-2.35562
-2.30894
-2.26044
-2.21041
-2.15913
-2.10685
-2.05382
-2.00025
-1.94634
-1.89227
-1.83822
-1.78432
-1.73071
-1.67751
-1.62483
-1.57276
-1.52138
-1.47077
-1.42098
-1.37208
-1.32411
-1.2771
-1.23109
-1.18611
-1.14218
-1.09931
-1.05752
-1.01682
-0.977216
-0.938705
-0.901289
-0.864963
-0.829721
-0.795555
-0.762453
-0.730404
-0.699392
-0.669403
-0.640421
-0.612428
-2.23247
-2.22024
-2.20407
-2.18423
-2.16101
-2.1347
-2.10556
-2.07386
-2.03986
-2.00382
-1.96597
-1.92655
-1.88578
-1.84386
-1.80099
-1.75736
-1.71314
-1.6685
-1.62357
-1.5785
-1.53342
-1.48844
-1.44367
-1.3992
-1.35512
-1.31152
-1.26845
-1.22599
-1.18419
-1.1431
-1.10277
-1.06322
-1.02449
-0.986616
-0.949612
-0.913499
-0.878291
-0.843999
-0.810632
-0.778192
-0.746682
-0.716099
-0.686441
-0.6577
-0.629868
-0.602935
-0.576889
-0.551716
-0.527404
-0.503936
-1.88279
-1.86812
-1.85045
-1.83003
-1.80711
-1.78193
-1.75469
-1.72562
-1.69492
-1.66277
-1.62937
-1.59489
-1.55948
-1.52332
-1.48653
-1.44925
-1.41162
-1.37376
-1.33576
-1.29774
-1.25979
-1.222
-1.18445
-1.1472
-1.11034
-1.0739
-1.03796
-1.00256
-0.967738
-0.933538
-0.899992
-0.86713
-0.834976
-0.803553
-0.772877
-0.742963
-0.713822
-0.685462
-0.657888
-0.631103
-0.605107
-0.579897
-0.555469
-0.531816
-0.50893
-0.486802
-0.46542
-0.444773
-0.424849
-0.405633
-1.57731
-1.55891
-1.53862
-1.51662
-1.49307
-1.46813
-1.44194
-1.41466
-1.38641
-1.35733
-1.32754
-1.29715
-1.26627
-1.23501
-1.20346
-1.17171
-1.13986
-1.10797
-1.07613
-1.04439
-1.01284
-0.981518
-0.950488
-0.919796
-0.889488
-0.859606
-0.830186
-0.801261
-0.77286
-0.745011
-0.717735
-0.691053
-0.66498
-0.639531
-0.614717
-0.590547
-0.567027
-0.544162
-0.521952
-0.500399
-0.479501
-0.459253
-0.43965
-0.420685
-0.40235
-0.384637
-0.367534
-0.351031
-0.335116
-0.319779
-1.28966
-1.26974
-1.2488
-1.22696
-1.20431
-1.18095
-1.15696
-1.13244
-1.10745
-1.08208
-1.0564
-1.03048
-1.00439
-0.978184
-0.951926
-0.925673
-0.899475
-0.873382
-0.847442
-0.821695
-0.796183
-0.770943
-0.746008
-0.72141
-0.697177
-0.673336
-0.649909
-0.626918
-0.604381
-0.582314
-0.560732
-0.539646
-0.519066
-0.499002
-0.479458
-0.46044
-0.441951
-0.423992
-0.406563
-0.389663
-0.373288
-0.357434
-0.342097
-0.327269
-0.312943
-0.299112
-0.285766
-0.272898
-0.260497
-0.248554
-1.02883
-1.01027
-0.99119
-0.971666
-0.951749
-0.931494
-0.910955
-0.89018
-0.869218
-0.848115
-0.826916
-0.805661
-0.784393
-0.763148
-0.741964
-0.720874
-0.699912
-0.679109
-0.658493
-0.638091
-0.617929
-0.598029
-0.578414
-0.559103
-0.540114
-0.521464
-0.503166
-0.485236
-0.467683
-0.450518
-0.43375
-0.417386
-0.401432
-0.385892
-0.370771
-0.35607
-0.341791
-0.327933
-0.314495
-0.301476
-0.288872
-0.276679
-0.264893
-0.253507
-0.242517
-0.231914
-0.221693
-0.211846
-0.202365
-0.193243
-0.80861
-0.792484
-0.776157
-0.759657
-0.743008
-0.726237
-0.709368
-0.692428
-0.675442
-0.658439
-0.641447
-0.624494
-0.607605
-0.590802
-0.574109
-0.557546
-0.541134
-0.524891
-0.508835
-0.492984
-0.477352
-0.461955
-0.446806
-0.431917
-0.4173
-0.402964
-0.38892
-0.375175
-0.361736
-0.34861
-0.335802
-0.323316
-0.311157
-0.299326
-0.287825
-0.276657
-0.26582
-0.255314
-0.245139
-0.235291
-0.22577
-0.216571
-0.20769
-0.199124
-0.190867
-0.182915
-0.175263
-0.167905
-0.160835
-0.154047
-1.18925
-1.16686
-1.14469
-1.12275
-1.10104
-1.07956
-1.05832
-1.03731
-1.01654
-0.996005
-0.975711
-0.955658
-0.935847
-0.916279
-0.896954
-0.877875
-0.859041
-0.840454
-0.822113
-0.804019
-0.786174
-0.768576
-0.751227
-0.734126
-0.717273
-0.70067
-0.684314
-0.668207
-0.652348
-0.636737
-0.621372
-0.606255
-0.591383
-0.576757
-0.562376
-0.548238
-0.534344
-0.520691
-0.507279
-0.494107
-0.481174
-0.468478
-0.456018
-0.443792
-0.431799
-0.420037
-0.408505
-0.397201
-0.386123
-0.37527
-0.364639
-0.354228
-0.344036
-0.33406
-0.324298
-0.314749
-0.305409
-0.296276
-0.287349
-0.278625
-0.270101
-0.261775
-0.253644
-0.245706
-0.237959
-0.230399
-0.223025
-0.215833
-0.208821
-0.201986
-0.195326
-0.188837
-0.182518
-0.176364
-0.170375
-0.164546
-0.158875
-0.153359
-0.147996
-0.142783
-0.137716
-0.132794
-0.128013
-0.123371
-0.118864
-0.114491
-0.110248
-0.106133
-0.102143
-0.0982751
-0.094527
-0.090896
-0.0873793
-0.0839745
-0.080679
-0.0774901
-0.0744053
-0.0714222
-0.0685383
-0.0657511
-0.0630582
-0.0604573
-0.0579458
-0.0555217
-0.0531824
-0.0509258
-0.0487496
-0.0466517
-0.0446299
-0.042682
-0.0408059
-0.0389997
-0.0372612
-0.0355885
-0.0339796
-0.0324326
-0.0309456
-0.0295169
-0.0281445
-0.0268267
-0.0255618
-0.0243481
-0.0231839
-0.0220676
-0.0209976
-0.0199723
-0.0189903
-0.01805
-0.01715
-0.0162889
-0.0154653
-0.0146779
-0.0139254
-0.0132065
-0.0125199
-0.0118645
-0.0112391
-0.0106425
-0.0100736
-0.00953143
-0.00901485
-0.00852287
-0.00805451
-0.00760881
-0.00718484
-0.00678173
-0.00639859
-0.00603458
-0.00568891
-0.00536077
-0.00504942
-0.00475413
-0.00447417
-0.00420888
-0.00395759
-0.00371968
-0.00349451
-0.00328152
-0.00308013
-0.00288979
-0.00270998
-0.0025402
-0.00237995
-0.00222878
-0.00208624
-0.0019519
-0.00182534
-0.00170617
-0.00159402
-0.00148852
-0.00138932
-0.0012961
-0.00120854
-0.00112634
-0.0010492
-0.000976847
-0.000909025
-0.00084548
-0.000785973
-0.000730275
-0.000678171
-0.000629452
-0.000583925
-0.000541402
-0.000501705
-0.000464668
-0.000430131
-0.000397942
-0.000367959
-0.000340045
-0.000314072
-0.000289919
-0.000267471
-0.00024662
-0.000227263
-0.000209302
-0.000192648
-0.000177215
-0.00016292
-0.000149688
-0.000137448
-0.000126131
-0.000115674
-0.000106019
-9.71082e-05
-8.88903e-05
-8.13159e-05
-7.4339e-05
-6.79166e-05
-6.20084e-05
-5.65767e-05
-5.15864e-05
-4.70045e-05
-4.28005e-05
-3.89457e-05
-3.54135e-05
-3.21792e-05
-2.92195e-05
-2.65132e-05
-2.40401e-05
-2.17819e-05
-1.97213e-05
-1.78423e-05
-1.61302e-05
-1.45714e-05
-1.31531e-05
-1.18636e-05
-1.06921e-05
-9.6287e-06
-8.66407e-06
-7.78975e-06
-6.99794e-06
-6.28135e-06
-5.63342e-06
-5.04803e-06
-4.51957e-06
-4.0429e-06
-3.61332e-06
-3.22649e-06
-2.87846e-06
-2.56563e-06
-2.28466e-06
-2.03255e-06
-1.80653e-06
-1.60411e-06
-1.42293e-06
-1.261e-06
-1.11635e-06
-9.87295e-07
-8.72242e-07
-7.69791e-07
-6.7865e-07
-5.97648e-07
-5.25734e-07
-4.61947e-07
-4.05452e-07
-3.55459e-07
-3.11254e-07
-2.72221e-07
-2.37805e-07
-2.07473e-07
-1.80795e-07
-1.57335e-07
-1.36745e-07
-1.18701e-07
-1.0289e-07
-8.90715e-08
-7.69856e-08
-6.64583e-08
-5.72949e-08
-4.93066e-08
-4.23829e-08
-3.63469e-08
-3.11758e-08
-2.66237e-08
-2.27892e-08
-1.93892e-08
-1.64895e-08
-1.40122e-08
-1.18886e-08
-1.00818e-08
-8.48082e-09
-7.1681e-09
-6.0389e-09
-5.014e-09
-4.1878e-09
-3.50767e-09
-2.94705e-09
-2.42667e-09
-1.9713e-09
-1.60511e-09
-1.28844e-09
-1.08144e-09
-8.27498e-10
-6.71177e-10
-4.6299e-10
-3.62226e-10
-2.57308e-10
-1.51759e-10
-5.14077e-11
-1.21268
-1.18945
-1.16645
-1.14368
-1.12116
-1.09887
-1.07683
-1.05504
-1.03349
-1.01219
-0.991147
-0.970354
-0.949814
-0.929531
-0.909504
-0.889736
-0.870227
-0.850978
-0.83199
-0.813264
-0.7948
-0.776598
-0.75866
-0.740986
-0.723575
-0.706427
-0.689544
-0.672924
-0.656567
-0.640473
-0.624642
-0.609073
-0.593766
-0.578719
-0.563932
-0.549404
-0.535133
-0.52112
-0.507362
-0.493859
-0.480608
-0.467609
-0.45486
-0.44236
-0.430106
-0.418096
-0.40633
-0.394804
-0.383518
-0.372468
-0.361653
-0.35107
-0.340717
-0.330592
-0.320693
-0.311016
-0.30156
-0.292321
-0.283298
-0.274486
-0.265885
-0.257491
-0.2493
-0.241312
-0.233521
-0.225926
-0.218524
-0.211312
-0.204286
-0.197445
-0.190784
-0.1843
-0.177992
-0.171856
-0.165888
-0.160085
-0.154446
-0.148966
-0.143643
-0.138473
-0.133453
-0.128582
-0.123854
-0.119269
-0.114821
-0.11051
-0.106331
-0.102281
-0.098359
-0.0945605
-0.0908831
-0.087324
-0.0838803
-0.0805494
-0.0773284
-0.0742147
-0.0712056
-0.0682985
-0.0654907
-0.0627796
-0.0601627
-0.0576376
-0.0552017
-0.0528527
-0.050588
-0.0484055
-0.0463027
-0.0442774
-0.0423273
-0.0404503
-0.0386441
-0.0369068
-0.0352361
-0.0336301
-0.0320868
-0.0306041
-0.0291803
-0.0278134
-0.0265016
-0.0252431
-0.0240361
-0.022879
-0.0217701
-0.0207076
-0.0196901
-0.018716
-0.0177837
-0.0168918
-0.0160389
-0.0152234
-0.0144442
-0.0136998
-0.0129889
-0.0123103
-0.0116628
-0.0110452
-0.0104563
-0.00989496
-0.00936016
-0.00885082
-0.00836592
-0.00790446
-0.00746549
-0.00704808
-0.00665133
-0.00627437
-0.00591636
-0.00557648
-0.00525395
-0.00494802
-0.00465794
-0.00438301
-0.00412256
-0.00387592
-0.00364247
-0.00342159
-0.00321269
-0.00301522
-0.00282864
-0.00265241
-0.00248604
-0.00232906
-0.00218099
-0.00204139
-0.00190985
-0.00178595
-0.0016693
-0.00155954
-0.0014563
-0.00135925
-0.00126805
-0.00118239
-0.00110199
-0.00102654
-0.00095579
-0.000889469
-0.000827334
-0.000769151
-0.000714695
-0.000663755
-0.000616126
-0.000571618
-0.000530047
-0.00049124
-0.000455032
-0.000421268
-0.000389798
-0.000360483
-0.000333191
-0.000307795
-0.000284177
-0.000262224
-0.000241831
-0.000222896
-0.000205327
-0.000189033
-0.000173931
-0.000159942
-0.000146991
-0.000135007
-0.000123927
-0.000113686
-0.000104228
-9.54982e-05
-8.74448e-05
-8.00202e-05
-7.31796e-05
-6.68809e-05
-6.10849e-05
-5.57548e-05
-5.08562e-05
-4.63572e-05
-4.22279e-05
-3.84402e-05
-3.49683e-05
-3.1788e-05
-2.88767e-05
-2.62135e-05
-2.37789e-05
-2.15548e-05
-1.95244e-05
-1.76723e-05
-1.59839e-05
-1.44459e-05
-1.30458e-05
-1.17724e-05
-1.06149e-05
-9.56365e-06
-8.60957e-06
-7.74439e-06
-6.9604e-06
-6.25055e-06
-5.60836e-06
-5.02784e-06
-4.50347e-06
-4.03027e-06
-3.60354e-06
-3.2191e-06
-2.873e-06
-2.56175e-06
-2.28205e-06
-2.03093e-06
-1.80568e-06
-1.60383e-06
-1.42312e-06
-1.26145e-06
-1.11701e-06
-9.88055e-07
-8.73042e-07
-7.70582e-07
-6.79397e-07
-5.98319e-07
-5.26309e-07
-4.62438e-07
-4.05803e-07
-3.557e-07
-3.11382e-07
-2.7224e-07
-2.37724e-07
-2.07301e-07
-1.80538e-07
-1.5701e-07
-1.36357e-07
-1.18251e-07
-1.02406e-07
-8.85485e-08
-7.64488e-08
-6.59044e-08
-5.67117e-08
-4.87397e-08
-4.18062e-08
-3.58024e-08
-3.06138e-08
-2.61051e-08
-2.22583e-08
-1.89043e-08
-1.6051e-08
-1.35881e-08
-1.15007e-08
-9.66649e-09
-8.13271e-09
-6.84495e-09
-5.73152e-09
-4.76866e-09
-3.98195e-09
-3.30395e-09
-2.74162e-09
-2.24065e-09
-1.86436e-09
-1.50095e-09
-1.2095e-09
-9.84305e-10
-7.74336e-10
-6.16981e-10
-4.62398e-10
-3.63734e-10
-2.55175e-10
-1.58342e-10
-8.07046e-11
-4.72196e-11
-1.23059
-1.20666
-1.18296
-1.15951
-1.1363
-1.11334
-1.09063
-1.06817
-1.04597
-1.02402
-1.00234
-0.980914
-0.959753
-0.938857
-0.918228
-0.897868
-0.877778
-0.85796
-0.838414
-0.819141
-0.800143
-0.78142
-0.762972
-0.744801
-0.726907
-0.709289
-0.691948
-0.674885
-0.658098
-0.641588
-0.625354
-0.609396
-0.593713
-0.578305
-0.56317
-0.548308
-0.533717
-0.519397
-0.505346
-0.491562
-0.478045
-0.464793
-0.451803
-0.439075
-0.426606
-0.414394
-0.402437
-0.390733
-0.37928
-0.368076
-0.357117
-0.346402
-0.335928
-0.325693
-0.315693
-0.305926
-0.29639
-0.28708
-0.277995
-0.269132
-0.260487
-0.252057
-0.24384
-0.235831
-0.228029
-0.22043
-0.21303
-0.205827
-0.198816
-0.191996
-0.185362
-0.178912
-0.172641
-0.166547
-0.160627
-0.154876
-0.149293
-0.143873
-0.138612
-0.133509
-0.12856
-0.12376
-0.119108
-0.1146
-0.110233
-0.106003
-0.101907
-0.0979424
-0.0941062
-0.090395
-0.0868058
-0.0833357
-0.0799817
-0.0767408
-0.0736102
-0.070587
-0.0676684
-0.0648515
-0.0621337
-0.0595123
-0.0569846
-0.054548
-0.0522
-0.0499379
-0.0477593
-0.0456619
-0.0436431
-0.0417007
-0.0398323
-0.0380357
-0.0363087
-0.0346491
-0.0330547
-0.0315236
-0.0300537
-0.0286429
-0.0272895
-0.0259913
-0.0247467
-0.0235538
-0.0224108
-0.0213161
-0.0202679
-0.0192646
-0.0183046
-0.0173863
-0.0165084
-0.0156692
-0.0148673
-0.0141015
-0.0133702
-0.0126723
-0.0120064
-0.0113713
-0.0107657
-0.0101887
-0.00963887
-0.00911529
-0.00861686
-0.00814256
-0.00769139
-0.00726238
-0.00685461
-0.00646718
-0.00609923
-0.0057499
-0.0054184
-0.00510394
-0.00480576
-0.00452314
-0.00425537
-0.00400179
-0.00376174
-0.00353459
-0.00331974
-0.00311662
-0.00292466
-0.00274332
-0.00257211
-0.00241051
-0.00225807
-0.00211432
-0.00197882
-0.00185117
-0.00173097
-0.00161782
-0.00151137
-0.00141126
-0.00131717
-0.00122876
-0.00114575
-0.00106783
-0.000994725
-0.000926176
-0.000861929
-0.000801742
-0.000745388
-0.000692648
-0.000643315
-0.000597192
-0.000554093
-0.00051384
-0.000476264
-0.000441206
-0.000408513
-0.000378042
-0.000349657
-0.000323229
-0.000298637
-0.000275765
-0.000254505
-0.000234754
-0.000216414
-0.000199395
-0.000183609
-0.000168977
-0.00015542
-0.000142868
-0.000131253
-0.00012051
-0.000110581
-0.000101408
-9.29399e-05
-8.51263e-05
-7.79212e-05
-7.12812e-05
-6.51658e-05
-5.95369e-05
-5.43592e-05
-4.95993e-05
-4.52263e-05
-4.12115e-05
-3.75277e-05
-3.41499e-05
-3.10547e-05
-2.82204e-05
-2.56266e-05
-2.32547e-05
-2.1087e-05
-1.91074e-05
-1.73009e-05
-1.56533e-05
-1.41519e-05
-1.27847e-05
-1.15405e-05
-1.04092e-05
-9.38125e-06
-8.44792e-06
-7.60118e-06
-6.83358e-06
-6.13826e-06
-5.50894e-06
-4.9398e-06
-4.42552e-06
-3.9612e-06
-3.54232e-06
-3.16479e-06
-2.8248e-06
-2.51889e-06
-2.2439e-06
-1.99693e-06
-1.77534e-06
-1.57668e-06
-1.39881e-06
-1.23961e-06
-1.09735e-06
-9.70326e-07
-8.57013e-07
-7.56061e-07
-6.6621e-07
-5.86292e-07
-5.1534e-07
-4.52395e-07
-3.96621e-07
-3.47258e-07
-3.03631e-07
-2.65097e-07
-2.31133e-07
-2.0123e-07
-1.74914e-07
-1.51819e-07
-1.31556e-07
-1.1382e-07
-9.82978e-08
-8.47487e-08
-7.29465e-08
-6.26642e-08
-5.37294e-08
-4.59794e-08
-3.92709e-08
-3.34668e-08
-2.84686e-08
-2.4145e-08
-2.04458e-08
-1.72753e-08
-1.45407e-08
-1.22322e-08
-1.02537e-08
-8.55521e-09
-7.13736e-09
-5.93295e-09
-4.90396e-09
-4.06127e-09
-3.33486e-09
-2.7331e-09
-2.21989e-09
-1.80682e-09
-1.48199e-09
-1.18858e-09
-9.59406e-10
-7.74526e-10
-5.74943e-10
-4.67551e-10
-3.58824e-10
-2.60252e-10
-2.34451e-10
-1.54582e-10
-1.01486e-10
-5.22945e-11
-5.18989e-11
-1.24034
-1.21589
-1.19168
-1.16772
-1.144
-1.12053
-1.09731
-1.07436
-1.05166
-1.02922
-1.00706
-0.985154
-0.963522
-0.942164
-0.921079
-0.900272
-0.879742
-0.859493
-0.839524
-0.819839
-0.800437
-0.781321
-0.76249
-0.743946
-0.725689
-0.70772
-0.690038
-0.672645
-0.65554
-0.638722
-0.622193
-0.60595
-0.589995
-0.574325
-0.558941
-0.543841
-0.529024
-0.514489
-0.500234
-0.486259
-0.472562
-0.45914
-0.445992
-0.433116
-0.420511
-0.408173
-0.396101
-0.384293
-0.372745
-0.361456
-0.350423
-0.339643
-0.329113
-0.318831
-0.308793
-0.298997
-0.289439
-0.280117
-0.271027
-0.262166
-0.253531
-0.245118
-0.236925
-0.228947
-0.221181
-0.213624
-0.206273
-0.199123
-0.192172
-0.185415