/*--------------------------------*- C++ -*----------------------------------*\
| =========                 |                                                 |
| \\      /  F ield         | OpenFOAM: The Open Source CFD Toolbox           |
|  \\    /   O peration     | Version:  2.4.0                                 |
|   \\  /    A nd           | Web:      www.OpenFOAM.org                      |
|    \\/     M anipulation  |                                                 |
\*---------------------------------------------------------------------------*/
FoamFile
{
    version     2.0;
    format      ascii;
    class       volScalarField;
    location    "0.3";
    object      alpha1;
}
// * * * * * * * * * * * * * * * * * * * * * * * * * * * * * * * * * * * * * //

dimensions      [0 0 0 0 0 0 0];

internalField   nonuniform List<scalar> 
125
(
1
1
1
1
1
1
1
1
1
1
1
1
1
1
1
1
1
1
1
1
1
1
1
1
1
1
1
1
1
1
0.403765
0.403779
0.403782
0.403788
0.40376
1.00981e-222
3.24049e-218
6.62638e-214
7.14145e-218
5.13399e-222
1.15445e-227
4.47963e-223
9.97634e-219
1.18449e-222
9.29782e-227
5.73472e-234
2.31283e-229
4.90588e-225
6.30726e-229
5.27898e-233
2.30925e-240
9.58386e-236
1.93853e-231
2.66668e-235
2.33977e-239
1.18394e-246
4.98997e-242
9.65355e-238
1.40655e-241
1.27839e-245
1.89469e-254
8.03133e-250
1.49055e-245
2.28116e-249
2.12856e-253
4.11356e-263
1.75197e-258
3.13549e-254
5.00353e-258
4.76096e-262
0
0
0
0
0
0
0
0
0
0
0
0
0
0
0
0
0
0
0
0
0
0
0
0
0
0
0
0
0
0
0
0
0
0
0
0
0
0
0
0
0
0
0
0
0
0
0
0
0
0
0
0
0
0
0
)
;

boundaryField
{
    BotWall
    {
        type            fixedValue;
        value           uniform 1;
    }
    FreeStream
    {
        type            inletOutlet;
        inletValue      nonuniform 0();
        value           nonuniform 0();
    }
    FrontNBack
    {
        type            empty;
    }
    LeftSide
    {
        type            symmetryPlane;
    }
    RightSide
    {
        type            symmetryPlane;
    }
    procBoundary0to1
    {
        type            processor;
        value           uniform 0;
    }
}


// ************************************************************************* //
