/*--------------------------------*- C++ -*----------------------------------*\
| =========                 |                                                 |
| \\      /  F ield         | OpenFOAM: The Open Source CFD Toolbox           |
|  \\    /   O peration     | Version:  2.4.0                                 |
|   \\  /    A nd           | Web:      www.OpenFOAM.org                      |
|    \\/     M anipulation  |                                                 |
\*---------------------------------------------------------------------------*/
FoamFile
{
    version     2.0;
    format      ascii;
    class       volScalarField;
    location    "0.3";
    object      p;
}
// * * * * * * * * * * * * * * * * * * * * * * * * * * * * * * * * * * * * * //

dimensions      [1 -1 -2 0 0 0 0];

internalField   nonuniform List<scalar> 
125
(
0.0972545
0.0972428
0.0972412
0.0972397
0.0972527
0.21559
0.215661
0.215658
0.215658
0.215587
0.713758
0.713927
0.713929
0.713933
0.71375
1.24992
1.24992
1.24993
1.24994
1.24991
-1.69149
-1.6923
-1.69231
-1.69231
-1.69149
-14.8353
-14.8367
-14.8368
-14.8369
-14.8351
-30.0216
-30.0215
-30.0218
-30.0221
-30.0213
-0.0222756
-0.0222751
-0.0222751
-0.0222751
-0.0222756
0.00120482
0.00120431
0.0012043
0.00120429
0.00120484
-0.00302975
-0.00302965
-0.00302964
-0.00302964
-0.00302975
-0.00548399
-0.00548388
-0.00548388
-0.00548388
-0.00548399
-0.00629811
-0.0062981
-0.0062981
-0.0062981
-0.0062981
-0.00672395
-0.00672397
-0.00672397
-0.00672397
-0.00672395
-0.00721584
-0.00721584
-0.00721584
-0.00721584
-0.00721583
-0.0077767
-0.0077767
-0.0077767
-0.00777669
-0.0077767
-0.00835831
-0.00835831
-0.00835831
-0.00835831
-0.00835831
-0.00894396
-0.00894396
-0.00894396
-0.00894396
-0.00894396
-0.00953366
-0.00953366
-0.00953366
-0.00953365
-0.00953366
-0.0101294
-0.0101294
-0.0101294
-0.0101294
-0.0101294
-0.0107318
-0.0107318
-0.0107318
-0.0107318
-0.0107318
-0.0113411
-0.0113411
-0.0113411
-0.0113411
-0.0113411
-0.0119572
-0.0119572
-0.0119572
-0.0119572
-0.0119572
-0.0125802
-0.0125802
-0.0125802
-0.0125802
-0.0125802
-0.0132101
-0.0132101
-0.0132101
-0.0132101
-0.0132101
-0.0138471
-0.0138471
-0.0138471
-0.0138471
-0.0138471
)
;

boundaryField
{
    BotWall
    {
        type            calculated;
        value           nonuniform List<scalar> 5(0.112075 0.112063 0.112061 0.11206 0.112073);
    }
    FreeStream
    {
        type            calculated;
        value           nonuniform 0();
    }
    FrontNBack
    {
        type            empty;
    }
    LeftSide
    {
        type            symmetryPlane;
    }
    RightSide
    {
        type            symmetryPlane;
    }
    procBoundary0to1
    {
        type            processor;
        value           nonuniform List<scalar> 5(-0.0144912 -0.0144911 -0.0144911 -0.0144911 -0.0144911);
    }
}


// ************************************************************************* //
