/*--------------------------------*- C++ -*----------------------------------*\
| =========                 |                                                 |
| \\      /  F ield         | OpenFOAM: The Open Source CFD Toolbox           |
|  \\    /   O peration     | Version:  2.4.0                                 |
|   \\  /    A nd           | Web:      www.OpenFOAM.org                      |
|    \\/     M anipulation  |                                                 |
\*---------------------------------------------------------------------------*/
FoamFile
{
    version     2.0;
    format      ascii;
    class       volScalarField;
    location    "0.3";
    object      p_rgh;
}
// * * * * * * * * * * * * * * * * * * * * * * * * * * * * * * * * * * * * * //

dimensions      [1 -1 -2 0 0 0 0];

internalField   nonuniform List<scalar> 
125
(
0.112075
0.112063
0.112061
0.11206
0.112073
0.260216
0.260287
0.260285
0.260284
0.260213
0.788523
0.788692
0.788693
0.788698
0.788515
1.35516
1.35516
1.35517
1.35518
1.35515
-1.55544
-1.55625
-1.55625
-1.55626
-1.55544
-14.668
-14.6695
-14.6696
-14.6697
-14.6679
-29.9394
-29.9393
-29.9396
-29.9399
-29.9391
-0.0184564
-0.0184559
-0.0184559
-0.0184558
-0.0184564
0.00555764
0.00555713
0.00555712
0.00555711
0.00555765
0.0018626
0.00186271
0.00186271
0.00186271
0.0018626
-4.60864e-05
-4.59777e-05
-4.59756e-05
-4.59737e-05
-4.60837e-05
-0.000308561
-0.000308555
-0.000308554
-0.000308552
-0.000308558
-0.000176612
-0.000176631
-0.00017663
-0.000176629
-0.000176608
-0.000104476
-0.000104483
-0.000104481
-0.000104481
-0.000104473
-9.50233e-05
-9.50209e-05
-9.50195e-05
-9.50186e-05
-9.50201e-05
-9.99574e-05
-9.99539e-05
-9.99525e-05
-9.99516e-05
-9.99542e-05
-0.000102495
-0.000102493
-0.000102491
-0.00010249
-0.000102492
-0.000102569
-0.000102568
-0.000102566
-0.000102565
-0.000102566
-0.000102087
-0.000102086
-0.000102084
-0.000102084
-0.000102084
-0.000101699
-0.000101698
-0.000101696
-0.000101695
-0.000101696
-0.000101405
-0.000101403
-0.000101402
-0.000101401
-0.000101402
-0.000101128
-0.000101127
-0.000101125
-0.000101125
-0.000101126
-0.000100845
-0.000100843
-0.000100842
-0.000100841
-0.000100842
-0.000100554
-0.000100552
-0.000100551
-0.00010055
-0.000100551
-0.000100259
-0.000100258
-0.000100256
-0.000100256
-0.000100256
)
;

boundaryField
{
    BotWall
    {
        type            fixedFluxPressure;
        gradient        uniform 0;
        value           nonuniform List<scalar> 5(0.112075 0.112063 0.112061 0.11206 0.112073);
    }
    FreeStream
    {
        type            totalPressure;
        rho             rho;
        psi             none;
        gamma           1;
        p0              nonuniform 0();
        value           nonuniform 0();
    }
    FrontNBack
    {
        type            empty;
    }
    LeftSide
    {
        type            symmetryPlane;
    }
    RightSide
    {
        type            symmetryPlane;
    }
    procBoundary0to1
    {
        type            processor;
        value           nonuniform List<scalar> 5(-9.99608e-05 -9.99594e-05 -9.9958e-05 -9.99575e-05 -9.99582e-05);
    }
}


// ************************************************************************* //
