/*--------------------------------*- C++ -*----------------------------------*\
| =========                 |                                                 |
| \\      /  F ield         | OpenFOAM: The Open Source CFD Toolbox           |
|  \\    /   O peration     | Version:  2.4.0                                 |
|   \\  /    A nd           | Web:      www.OpenFOAM.org                      |
|    \\/     M anipulation  |                                                 |
\*---------------------------------------------------------------------------*/
FoamFile
{
    version     2.0;
    format      ascii;
    class       volScalarField;
    location    "0.3";
    object      T;
}
// * * * * * * * * * * * * * * * * * * * * * * * * * * * * * * * * * * * * * //

dimensions      [0 0 0 1 0 0 0];

internalField   nonuniform List<scalar> 
125
(
293.351
293.351
293.351
293.351
293.351
294.058
294.058
294.058
294.058
294.058
294.773
294.773
294.773
294.773
294.773
295.497
295.497
295.497
295.497
295.497
296.231
296.231
296.231
296.231
296.231
296.975
296.975
296.975
296.975
296.975
297.969
297.969
297.969
297.969
297.969
297.969
297.969
297.969
297.969
297.969
297.969
297.969
297.969
297.969
297.969
297.968
297.968
297.968
297.968
297.968
297.968
297.968
297.968
297.968
297.968
297.968
297.968
297.968
297.968
297.968
297.967
297.967
297.967
297.967
297.967
297.967
297.967
297.967
297.967
297.967
297.967
297.967
297.967
297.967
297.967
297.967
297.967
297.967
297.967
297.967
297.966
297.966
297.967
297.967
297.966
297.966
297.966
297.966
297.966
297.966
297.966
297.966
297.966
297.966
297.966
297.966
297.966
297.966
297.966
297.966
297.966
297.966
297.966
297.966
297.966
297.966
297.966
297.966
297.966
297.966
297.966
297.966
297.966
297.966
297.966
297.967
297.967
297.967
297.967
297.967
297.967
297.967
297.967
297.967
297.967
)
;

boundaryField
{
    BotWall
    {
        type            fixedValue;
        value           uniform 293;
    }
    FreeStream
    {
        type            fixedValue;
        value           nonuniform 0();
    }
    FrontNBack
    {
        type            empty;
    }
    LeftSide
    {
        type            symmetryPlane;
    }
    RightSide
    {
        type            symmetryPlane;
    }
    procBoundary0to1
    {
        type            processor;
        value           nonuniform List<scalar> 5(297.967 297.967 297.967 297.967 297.967);
    }
}


// ************************************************************************* //
