/*--------------------------------*- C++ -*----------------------------------*\
| =========                 |                                                 |
| \\      /  F ield         | OpenFOAM: The Open Source CFD Toolbox           |
|  \\    /   O peration     | Version:  2.4.0                                 |
|   \\  /    A nd           | Web:      www.OpenFOAM.org                      |
|    \\/     M anipulation  |                                                 |
\*---------------------------------------------------------------------------*/
FoamFile
{
    version     2.0;
    format      ascii;
    class       volVectorField;
    location    "0.3";
    object      U;
}
// * * * * * * * * * * * * * * * * * * * * * * * * * * * * * * * * * * * * * //

dimensions      [0 1 -1 0 0 0 0];

internalField   nonuniform List<vector> 
125
(
(3.04699e-10 -8.71596e-07 0)
(3.50291e-10 -8.71766e-07 0)
(1.24175e-10 -8.71771e-07 0)
(-4.1626e-10 -8.71782e-07 0)
(-4.94154e-10 -8.71587e-07 0)
(9.15104e-10 -1.65553e-06 0)
(1.05188e-09 -1.65543e-06 0)
(3.73188e-10 -1.65543e-06 0)
(-1.251e-09 -1.65546e-06 0)
(-1.48536e-09 -1.65551e-06 0)
(1.54082e-09 4.85203e-06 0)
(1.76896e-09 4.85513e-06 0)
(6.24303e-10 4.85517e-06 0)
(-2.10348e-09 4.85519e-06 0)
(-2.49632e-09 4.852e-06 0)
(2.20916e-09 2.77317e-05 0)
(2.52894e-09 2.77374e-05 0)
(8.78719e-10 2.77376e-05 0)
(-3.00202e-09 2.77379e-05 0)
(-3.55652e-09 2.77314e-05 0)
(2.89324e-09 3.46996e-05 0)
(3.30468e-09 3.46972e-05 0)
(1.1384e-09 3.46977e-05 0)
(-3.92192e-09 3.46982e-05 0)
(-4.64354e-09 3.4699e-05 0)
(3.45923e-09 -0.000110416 0)
(3.96622e-09 -0.000110448 0)
(1.40697e-09 -0.000110448 0)
(-4.73172e-09 -0.000110449 0)
(-5.62577e-09 -0.000110415 0)
(3.70483e-09 -0.00086693 0)
(4.32036e-09 -0.000866978 0)
(1.71279e-09 -0.000866982 0)
(-5.25541e-09 -0.000866988 0)
(-6.34646e-09 -0.000866925 0)
(4.06368e-09 -0.00285706 0)
(4.70428e-09 -0.00285703 0)
(1.78535e-09 -0.00285703 0)
(-5.6808e-09 -0.00285703 0)
(-6.81932e-09 -0.00285706 0)
(4.7051e-09 -0.00659296 0)
(3.90457e-09 -0.00659292 0)
(-1.36435e-09 -0.00659292 0)
(-1.01628e-08 -0.00659292 0)
(-9.5468e-09 -0.00659297 0)
(2.70173e-09 -0.00389672 0)
(4.53123e-10 -0.00389681 0)
(-4.54271e-09 -0.00389681 0)
(-1.18346e-08 -0.00389681 0)
(-9.4436e-09 -0.00389671 0)
(1.49981e-09 -0.00363093 0)
(-2.17192e-09 -0.00363094 0)
(-7.65178e-09 -0.00363094 0)
(-1.42223e-08 -0.00363095 0)
(-1.01019e-08 -0.00363093 0)
(7.17606e-10 -0.00370144 0)
(-4.3496e-09 -0.00370143 0)
(-1.06871e-08 -0.00370143 0)
(-1.69466e-08 -0.00370143 0)
(-1.11443e-08 -0.00370144 0)
(-5.70143e-11 -0.00377558 0)
(-6.49262e-09 -0.00377558 0)
(-1.36509e-08 -0.00377558 0)
(-1.95907e-08 -0.00377558 0)
(-1.21521e-08 -0.00377558 0)
(-8.96679e-10 -0.00378931 0)
(-8.67351e-09 -0.00378932 0)
(-1.65441e-08 -0.00378932 0)
(-2.20787e-08 -0.00378932 0)
(-1.30485e-08 -0.00378931 0)
(-1.73529e-09 -0.00378571 0)
(-1.08253e-08 -0.00378572 0)
(-1.93656e-08 -0.00378572 0)
(-2.44754e-08 -0.00378572 0)
(-1.38986e-08 -0.00378571 0)
(-2.53694e-09 -0.0037828 0)
(-1.29112e-08 -0.00378281 0)
(-2.21139e-08 -0.00378281 0)
(-2.68158e-08 -0.00378281 0)
(-1.47381e-08 -0.0037828 0)
(-3.30022e-09 -0.00378225 0)
(-1.49288e-08 -0.00378225 0)
(-2.47876e-08 -0.00378225 0)
(-2.91005e-08 -0.00378226 0)
(-1.55677e-08 -0.00378225 0)
(-4.03085e-09 -0.0037824 0)
(-1.68831e-08 -0.0037824 0)
(-2.73855e-08 -0.0037824 0)
(-3.13227e-08 -0.00378241 0)
(-1.63813e-08 -0.0037824 0)
(-4.73134e-09 -0.00378252 0)
(-1.87757e-08 -0.00378252 0)
(-2.99065e-08 -0.00378252 0)
(-3.34792e-08 -0.00378253 0)
(-1.71757e-08 -0.00378252 0)
(-5.40193e-09 -0.00378254 0)
(-2.06061e-08 -0.00378254 0)
(-3.23495e-08 -0.00378254 0)
(-3.55687e-08 -0.00378255 0)
(-1.79503e-08 -0.00378254 0)
(-6.04251e-09 -0.00378253 0)
(-2.23735e-08 -0.00378254 0)
(-3.47134e-08 -0.00378254 0)
(-3.75907e-08 -0.00378254 0)
(-1.87047e-08 -0.00378253 0)
(-6.65323e-09 -0.00378253 0)
(-2.40772e-08 -0.00378253 0)
(-3.69973e-08 -0.00378253 0)
(-3.95444e-08 -0.00378254 0)
(-1.94383e-08 -0.00378253 0)
(-7.23441e-09 -0.00378252 0)
(-2.57171e-08 -0.00378253 0)
(-3.92003e-08 -0.00378253 0)
(-4.14286e-08 -0.00378254 0)
(-2.01503e-08 -0.00378253 0)
(-7.78639e-09 -0.00378252 0)
(-2.72926e-08 -0.00378253 0)
(-4.13215e-08 -0.00378253 0)
(-4.32427e-08 -0.00378254 0)
(-2.08401e-08 -0.00378253 0)
(-8.30961e-09 -0.00378252 0)
(-2.88037e-08 -0.00378253 0)
(-4.33603e-08 -0.00378253 0)
(-4.49855e-08 -0.00378254 0)
(-2.15067e-08 -0.00378253 0)
)
;

boundaryField
{
    BotWall
    {
        type            fixedValue;
        value           uniform (0 0 0);
    }
    FreeStream
    {
        type            zeroGradient;
    }
    FrontNBack
    {
        type            empty;
    }
    LeftSide
    {
        type            symmetryPlane;
    }
    RightSide
    {
        type            symmetryPlane;
    }
    procBoundary0to1
    {
        type            processor;
        value           nonuniform List<vector> 5((-8.80442e-09 -0.00378252 0) (-3.02503e-08 -0.00378253 0) (-4.53159e-08 -0.00378253 0) (-4.66566e-08 -0.00378254 0) (-2.21498e-08 -0.00378253 0));
    }
}


// ************************************************************************* //
