/*--------------------------------*- C++ -*----------------------------------*\
| =========                 |                                                 |
| \\      /  F ield         | OpenFOAM: The Open Source CFD Toolbox           |
|  \\    /   O peration     | Version:  2.4.0                                 |
|   \\  /    A nd           | Web:      www.OpenFOAM.org                      |
|    \\/     M anipulation  |                                                 |
\*---------------------------------------------------------------------------*/
FoamFile
{
    version     2.0;
    format      ascii;
    class       volScalarField;
    location    "4.8";
    object      H;
}
// * * * * * * * * * * * * * * * * * * * * * * * * * * * * * * * * * * * * * //

dimensions      [0 2 -2 0 0 0 0];

internalField   nonuniform List<scalar> 
500
(
-12006.6
-12006.9
-12007.3
-12006.9
-12006.6
-11557.3
-11558.3
-11559.5
-11558.2
-11557.4
-11103.6
-11105.2
-11107.1
-11105
-11103.6
-10645.5
-10647.8
-10650.4
-10647.6
-10645.6
-10183.4
-10186.4
-10189.7
-10186.1
-10183.5
-9717.52
-9721.2
-9725.28
-9720.83
-9717.66
-9248.29
-9252.64
-9257.4
-9252.21
-9248.46
-8775.98
-8780.99
-8786.39
-8780.5
-8776.18
-8300.93
-8306.58
-8312.57
-8306.04
-8301.15
-7823.49
-7829.74
-7836.25
-7829.14
-7823.73
-7343.96
-7350.76
-7357.71
-7350.13
-7344.23
-6862.67
-6869.95
-6877.22
-6869.28
-6862.96
-6379.88
-6387.55
-6395.03
-6386.86
-6380.18
-5895.82
-5903.76
-5911.3
-5903.06
-5896.13
-5410.62
-5418.7
-5426.14
-5418.01
-5410.94
-4924.35
-4932.41
-4939.58
-4931.74
-4924.67
-4436.95
-4444.8
-4451.52
-4444.18
-4437.26
-3948.22
-3955.69
-3961.76
-3955.12
-3948.52
-3457.85
-3464.7
-3469.95
-3464.22
-3458.12
-2965.31
-2971.36
-2975.58
-2970.97
-2965.55
-2469.95
-2474.98
-2478
-2474.7
-2470.14
-1970.92
-1974.73
-1976.42
-1974.57
-1971.06
-1467.22
-1469.65
-1469.89
-1469.62
-1467.3
-957.706
-958.625
-957.325
-958.728
-957.728
-118.302
-116.921
-114.435
-117.127
-118.256
-93.1997
-92.1031
-90.0804
-92.2743
-93.1632
-93.2203
-92.2151
-90.2701
-92.3834
-93.1871
-93.1182
-92.206
-90.3412
-92.3711
-93.0883
-92.8926
-92.0749
-90.2927
-92.2363
-92.8661
-92.5433
-91.8212
-90.1237
-91.9786
-92.5201
-92.0703
-91.4447
-89.8339
-91.5977
-92.0505
-91.4741
-90.9457
-89.4233
-91.0939
-91.4576
-90.7558
-90.3248
-88.8924
-90.4678
-90.7426
-89.9166
-89.583
-88.242
-89.7206
-89.9066
-88.9583
-88.722
-87.4734
-88.8537
-88.9515
-87.8833
-87.7435
-86.5882
-87.8692
-87.8796
-86.6943
-86.6501
-85.5887
-86.7695
-86.6936
-85.3944
-85.4446
-84.4772
-85.5573
-85.3967
-83.9872
-84.1302
-83.257
-84.2362
-83.9924
-82.4769
-82.7107
-81.9314
-82.8097
-82.4849
-80.868
-81.1903
-80.5043
-81.2822
-80.8786
-79.1654
-79.5737
-78.9799
-79.6582
-79.1785
-77.3744
-77.8657
-77.3631
-77.9429
-77.3898
-75.5008
-76.0719
-75.659
-76.1417
-75.5184
-73.5506
-74.1979
-73.8729
-74.2603
-73.5703
-71.5302
-72.25
-72.0107
-72.305
-71.5519
-69.4465
-70.2346
-70.0786
-70.2822
-69.4699
-67.3063
-68.1584
-68.083
-68.1987
-67.3313
-65.1169
-66.0284
-66.0306
-66.0615
-65.1434
-62.8857
-63.8518
-63.9284
-63.8778
-62.9134
-60.6203
-61.6359
-61.7834
-61.6551
-60.6491
-58.3283
-59.3883
-59.603
-59.4009
-58.3579
-56.0173
-57.1166
-57.3945
-57.1228
-56.0477
-53.6952
-54.8283
-55.1654
-54.8284
-53.7262
-51.3696
-52.5311
-52.923
-52.5254
-51.401
-49.0481
-50.2325
-50.6748
-50.2213
-49.0797
-46.7382
-47.94
-48.4282
-47.9236
-46.7698
-44.4469
-45.6608
-46.1902
-45.6397
-44.4785
-42.1815
-43.402
-43.968
-43.3765
-42.2128
-39.9485
-41.1705
-41.7683
-41.141
-39.9794
-37.7544
-38.9727
-39.5976
-38.9396
-37.7848
-35.6051
-36.8149
-37.4622
-36.7786
-35.6348
-33.5062
-34.7028
-35.3679
-34.6637
-33.5352
-31.4629
-32.6417
-33.3202
-32.6003
-31.4911
-29.4799
-30.6367
-31.3241
-30.5934
-29.5071
-27.5612
-28.6922
-29.3842
-28.6473
-27.5874
-25.7106
-26.8121
-27.5047
-26.766
-25.7357
-23.931
-24.9998
-25.6891
-24.9529
-23.955
-22.2251
-23.2581
-23.9406
-23.2108
-22.2479
-20.5948
-21.5896
-22.2617
-21.5422
-20.6164
-19.0415
-19.9958
-20.6546
-19.9487
-19.0619
-17.5662
-18.4782
-19.1206
-18.4316
-17.5853
-16.1691
-17.0373
-17.661
-16.9916
-16.1869
-14.8501
-15.6735
-16.276
-15.6288
-14.8667
-13.6086
-14.3864
-14.9659
-14.343
-13.624
-12.4434
-13.1752
-13.73
-13.1334
-12.4576
-11.3531
-12.0389
-12.5675
-11.9987
-11.366
-10.3355
-10.9756
-11.4771
-10.9372
-10.3474
-9.38858
-9.9835
-10.457
-9.94702
-9.39933
-8.50957
-9.06019
-9.50528
-9.02573
-8.51929
-7.69564
-8.20306
-8.61945
-8.17067
-7.70438
-6.94369
-7.40922
-7.7969
-7.37894
-6.9515
-6.25042
-6.67557
-7.03478
-6.64742
-6.25737
-5.61241
-5.99885
-6.33
-5.97283
-5.61856
-5.02614
-5.37566
-5.67935
-5.35174
-5.03155
-4.48801
-4.80251
-5.07949
-4.78065
-4.49274
-3.99443
-4.27586
-4.52702
-4.25601
-3.99854
-3.5418
-3.79215
-4.01848
-3.77424
-3.54535
-3.12658
-3.34784
-3.55039
-3.3318
-3.12962
-2.74528
-2.93941
-3.11929
-2.92516
-2.74786
-2.3945
-2.56342
-2.72177
-2.55087
-2.39668
-2.07096
-2.2165
-2.35444
-2.20557
-2.07279
-1.77149
-1.89537
-2.014
-1.88597
-1.773
-1.49303
-1.59684
-1.69721
-1.5889
-1.49426
-1.23264
-1.31783
-1.4009
-1.31126
-1.23362
-0.987486
-1.05533
-1.12197
-1.05005
-0.988246
-0.754835
-0.806407
-0.857388
-0.802377
-0.7554
-0.532022
-0.568204
-0.604146
-0.565365
-0.532412
-0.316429
-0.337878
-0.359254
-0.33619
-0.316658
-0.105452
-0.112588
-0.119711
-0.112026
-0.105527
)
;

boundaryField
{
    BotWall
    {
        type            zeroGradient;
    }
    FreeStream
    {
        type            zeroGradient;
    }
    FrontNBack
    {
        type            empty;
    }
    LeftSide
    {
        type            symmetryPlane;
    }
    RightSide
    {
        type            symmetryPlane;
    }
}


// ************************************************************************* //
