/*--------------------------------*- C++ -*----------------------------------*\
| =========                 |                                                 |
| \\      /  F ield         | OpenFOAM: The Open Source CFD Toolbox           |
|  \\    /   O peration     | Version:  2.4.0                                 |
|   \\  /    A nd           | Web:      www.OpenFOAM.org                      |
|    \\/     M anipulation  |                                                 |
\*---------------------------------------------------------------------------*/
FoamFile
{
    version     2.0;
    format      ascii;
    class       volScalarField;
    location    "4.8";
    object      p;
}
// * * * * * * * * * * * * * * * * * * * * * * * * * * * * * * * * * * * * * //

dimensions      [1 -1 -2 0 0 0 0];

internalField   nonuniform List<scalar> 
500
(
0.783822
0.784442
0.784421
0.783511
0.783861
0.753987
0.754612
0.754597
0.753682
0.754025
0.723852
0.724481
0.724474
0.723553
0.723888
0.69336
0.693995
0.693995
0.693068
0.693396
0.662551
0.663193
0.663202
0.662268
0.662587
0.631374
0.632022
0.632039
0.631099
0.631409
0.599874
0.600529
0.600555
0.599607
0.599909
0.567997
0.568658
0.568693
0.567737
0.568032
0.535791
0.536459
0.536503
0.53554
0.535826
0.503197
0.503872
0.503925
0.502954
0.503232
0.470269
0.470952
0.471014
0.470034
0.470304
0.43694
0.43763
0.437701
0.436714
0.436975
0.403275
0.403973
0.404053
0.403057
0.403309
0.369207
0.369913
0.370003
0.368997
0.369242
0.334824
0.335539
0.33564
0.334624
0.334859
0.299996
0.300721
0.300831
0.299805
0.300031
0.264557
0.265292
0.265403
0.264376
0.264592
0.228042
0.228774
0.228866
0.227898
0.228077
0.191643
0.192412
0.19244
0.19148
0.19168
0.161596
0.162388
0.162615
0.161558
0.161646
0.147118
0.148407
0.149383
0.147311
0.147186
0.120482
0.122538
0.12376
0.121548
0.120542
-0.0825889
-0.0808113
-0.084453
-0.0814075
-0.0826962
-0.666697
-0.671834
-0.691719
-0.6702
-0.667267
-1.1063
-1.13003
-1.16574
-1.12715
-1.10708
-0.0182957
-0.018307
-0.0183153
-0.0183063
-0.0182961
-0.013689
-0.0136855
-0.0136836
-0.0136857
-0.0136889
-0.0153093
-0.0153076
-0.0153063
-0.0153078
-0.0153092
-0.0163985
-0.016398
-0.0163974
-0.016398
-0.0163985
-0.0171134
-0.0171131
-0.0171127
-0.0171131
-0.0171134
-0.0177601
-0.0177597
-0.0177593
-0.0177597
-0.0177601
-0.0184328
-0.0184324
-0.018432
-0.0184324
-0.0184328
-0.0191276
-0.0191272
-0.0191268
-0.0191272
-0.0191276
-0.019833
-0.0198325
-0.0198321
-0.0198326
-0.0198329
-0.0205454
-0.020545
-0.0205446
-0.0205451
-0.0205454
-0.0212653
-0.0212649
-0.0212645
-0.0212649
-0.0212653
-0.021993
-0.0219927
-0.0219923
-0.0219927
-0.021993
-0.022729
-0.0227286
-0.0227282
-0.0227286
-0.022729
-0.0234731
-0.0234727
-0.0234724
-0.0234728
-0.0234731
-0.0242256
-0.0242252
-0.0242249
-0.0242252
-0.0242256
-0.0249864
-0.0249861
-0.0249857
-0.0249861
-0.0249864
-0.0257558
-0.0257554
-0.0257551
-0.0257555
-0.0257558
-0.0265337
-0.0265334
-0.026533
-0.0265334
-0.0265337
-0.0273203
-0.02732
-0.0273197
-0.02732
-0.0273203
-0.0281157
-0.0281154
-0.0281151
-0.0281154
-0.0281157
-0.02892
-0.0289197
-0.0289194
-0.0289197
-0.02892
-0.0297332
-0.0297329
-0.0297326
-0.0297329
-0.0297332
-0.0305556
-0.0305552
-0.0305549
-0.0305553
-0.0305555
-0.031387
-0.0313867
-0.0313865
-0.0313868
-0.031387
-0.0322278
-0.0322275
-0.0322272
-0.0322276
-0.0322278
-0.033078
-0.0330777
-0.0330774
-0.0330777
-0.033078
-0.0339376
-0.0339373
-0.0339371
-0.0339374
-0.0339376
-0.0348068
-0.0348066
-0.0348063
-0.0348066
-0.0348068
-0.0356858
-0.0356855
-0.0356853
-0.0356855
-0.0356858
-0.0365745
-0.0365743
-0.036574
-0.0365743
-0.0365745
-0.0374732
-0.0374729
-0.0374727
-0.037473
-0.0374732
-0.0383819
-0.0383816
-0.0383814
-0.0383817
-0.0383819
-0.0393007
-0.0393005
-0.0393002
-0.0393005
-0.0393007
-0.0402298
-0.0402296
-0.0402293
-0.0402296
-0.0402298
-0.0411692
-0.041169
-0.0411688
-0.041169
-0.0411692
-0.0421192
-0.0421189
-0.0421187
-0.042119
-0.0421192
-0.0430797
-0.0430795
-0.0430793
-0.0430795
-0.0430797
-0.0440509
-0.0440507
-0.0440505
-0.0440508
-0.0440509
-0.045033
-0.0450328
-0.0450326
-0.0450329
-0.045033
-0.0460261
-0.0460259
-0.0460257
-0.0460259
-0.0460261
-0.0470302
-0.04703
-0.0470298
-0.04703
-0.0470302
-0.0480455
-0.0480454
-0.0480452
-0.0480454
-0.0480455
-0.0490722
-0.049072
-0.0490719
-0.0490721
-0.0490722
-0.0501103
-0.0501102
-0.05011
-0.0501102
-0.0501103
-0.05116
-0.0511599
-0.0511597
-0.0511599
-0.05116
-0.0522215
-0.0522213
-0.0522211
-0.0522213
-0.0522215
-0.0532947
-0.0532946
-0.0532944
-0.0532946
-0.0532947
-0.05438
-0.0543798
-0.0543797
-0.0543798
-0.05438
-0.0554773
-0.0554772
-0.055477
-0.0554772
-0.0554773
-0.0565869
-0.0565868
-0.0565866
-0.0565868
-0.0565869
-0.0577089
-0.0577088
-0.0577086
-0.0577088
-0.0577089
-0.0588434
-0.0588433
-0.0588431
-0.0588433
-0.0588434
-0.0599905
-0.0599904
-0.0599903
-0.0599904
-0.0599905
-0.0611505
-0.0611504
-0.0611503
-0.0611504
-0.0611505
-0.0623234
-0.0623233
-0.0623232
-0.0623233
-0.0623234
-0.0635094
-0.0635093
-0.0635092
-0.0635093
-0.0635094
-0.0647086
-0.0647085
-0.0647084
-0.0647085
-0.0647086
-0.0659212
-0.0659211
-0.065921
-0.0659211
-0.0659212
-0.0671474
-0.0671473
-0.0671472
-0.0671473
-0.0671474
-0.0683872
-0.0683871
-0.068387
-0.0683871
-0.0683872
-0.0696408
-0.0696408
-0.0696407
-0.0696408
-0.0696408
-0.0709085
-0.0709084
-0.0709083
-0.0709084
-0.0709085
-0.0721903
-0.0721902
-0.0721901
-0.0721902
-0.0721903
-0.0734864
-0.0734863
-0.0734862
-0.0734863
-0.0734864
-0.0747969
-0.0747969
-0.0747968
-0.0747969
-0.0747969
-0.0761221
-0.0761221
-0.076122
-0.0761221
-0.0761221
-0.0774621
-0.077462
-0.077462
-0.077462
-0.0774621
-0.078817
-0.078817
-0.0788169
-0.078817
-0.078817
-0.0801871
-0.080187
-0.080187
-0.080187
-0.0801871
-0.0815724
-0.0815723
-0.0815723
-0.0815724
-0.0815724
-0.0829732
-0.0829731
-0.0829731
-0.0829731
-0.0829732
-0.0843896
-0.0843896
-0.0843895
-0.0843896
-0.0843896
-0.0858218
-0.0858218
-0.0858218
-0.0858218
-0.0858218
-0.08727
-0.08727
-0.08727
-0.08727
-0.08727
-0.0887344
-0.0887344
-0.0887344
-0.0887344
-0.0887344
)
;

boundaryField
{
    BotWall
    {
        type            calculated;
        value           nonuniform List<scalar> 5(0.798642 0.799262 0.799241 0.798331 0.798681);
    }
    FreeStream
    {
        type            calculated;
        value           nonuniform List<scalar> 5(-0.0894706 -0.0894706 -0.0894707 -0.0894706 -0.0894706);
    }
    FrontNBack
    {
        type            empty;
    }
    LeftSide
    {
        type            symmetryPlane;
    }
    RightSide
    {
        type            symmetryPlane;
    }
}


// ************************************************************************* //
