/*--------------------------------*- C++ -*----------------------------------*\
| =========                 |                                                 |
| \\      /  F ield         | OpenFOAM: The Open Source CFD Toolbox           |
|  \\    /   O peration     | Version:  2.4.0                                 |
|   \\  /    A nd           | Web:      www.OpenFOAM.org                      |
|    \\/     M anipulation  |                                                 |
\*---------------------------------------------------------------------------*/
FoamFile
{
    version     2.0;
    format      ascii;
    class       volScalarField;
    location    "4.8";
    object      p_rgh;
}
// * * * * * * * * * * * * * * * * * * * * * * * * * * * * * * * * * * * * * //

dimensions      [1 -1 -2 0 0 0 0];

internalField   nonuniform List<scalar> 
500
(
0.798642
0.799262
0.799241
0.798331
0.798681
0.798614
0.799238
0.799223
0.798309
0.798651
0.798617
0.799246
0.799239
0.798318
0.798653
0.798599
0.799235
0.799235
0.798308
0.798635
0.798606
0.799248
0.799257
0.798323
0.798641
0.798588
0.799235
0.799253
0.798312
0.798623
0.798595
0.799249
0.799275
0.798327
0.79863
0.798575
0.799236
0.799271
0.798316
0.79861
0.798583
0.799251
0.799295
0.798332
0.798618
0.798562
0.799237
0.79929
0.798319
0.798597
0.79857
0.799253
0.799315
0.798336
0.798605
0.798546
0.799236
0.799307
0.798319
0.798581
0.798556
0.799254
0.799334
0.798338
0.798591
0.79854
0.799246
0.799336
0.79833
0.798575
0.798588
0.799304
0.799404
0.798388
0.798623
0.798576
0.799301
0.799411
0.798385
0.798611
0.798341
0.799076
0.799187
0.79816
0.798377
0.797423
0.798156
0.798247
0.797279
0.797458
0.797019
0.797788
0.797815
0.796855
0.797055
0.803368
0.804159
0.804386
0.803329
0.803417
0.825692
0.82698
0.827956
0.825884
0.82576
0.836268
0.838324
0.839545
0.837334
0.836329
0.670826
0.672602
0.668961
0.672006
0.670718
0.124764
0.119629
0.0997432
0.121263
0.124194
-1.04577
-1.06856
-1.10274
-1.06579
-1.04653
-0.00390451
-0.0039158
-0.00392408
-0.00391511
-0.0039049
0.00135373
0.00135722
0.00135915
0.00135706
0.00135386
0.000392253
0.000393927
0.000395277
0.000393806
0.000392313
-3.07743e-05
-3.02251e-05
-2.96397e-05
-3.0278e-05
-3.07567e-05
-7.20959e-05
-7.17579e-05
-7.13854e-05
-7.17912e-05
-7.20859e-05
-3.76491e-05
-3.72535e-05
-3.6864e-05
-3.7288e-05
-3.76369e-05
-2.16201e-05
-2.1186e-05
-2.07729e-05
-2.12226e-05
-2.16066e-05
-2.00148e-05
-1.95806e-05
-1.91672e-05
-1.96173e-05
-2.00013e-05
-2.11914e-05
-2.07687e-05
-2.03636e-05
-2.08046e-05
-2.11783e-05
-2.16288e-05
-2.1217e-05
-2.08203e-05
-2.12521e-05
-2.1616e-05
-2.14903e-05
-2.10877e-05
-2.06985e-05
-2.11221e-05
-2.14779e-05
-2.12407e-05
-2.08465e-05
-2.04646e-05
-2.08803e-05
-2.12285e-05
-2.10188e-05
-2.06331e-05
-2.02583e-05
-2.06662e-05
-2.10069e-05
-2.08177e-05
-2.04405e-05
-2.00728e-05
-2.04729e-05
-2.08061e-05
-2.06188e-05
-2.025e-05
-1.98894e-05
-2.02817e-05
-2.06075e-05
-2.04166e-05
-2.00561e-05
-1.97025e-05
-2.00872e-05
-2.04056e-05
-2.02113e-05
-1.98591e-05
-1.95125e-05
-1.98895e-05
-2.02005e-05
-2.00037e-05
-1.96596e-05
-1.932e-05
-1.96894e-05
-1.99932e-05
-1.97939e-05
-1.94579e-05
-1.91252e-05
-1.9487e-05
-1.97837e-05
-1.9582e-05
-1.92539e-05
-1.89281e-05
-1.92824e-05
-1.9572e-05
-1.93678e-05
-1.90477e-05
-1.87287e-05
-1.90755e-05
-1.9358e-05
-1.91513e-05
-1.8839e-05
-1.85268e-05
-1.88662e-05
-1.91418e-05
-1.89326e-05
-1.8628e-05
-1.83225e-05
-1.86545e-05
-1.89233e-05
-1.87115e-05
-1.84146e-05
-1.81158e-05
-1.84405e-05
-1.87025e-05
-1.8488e-05
-1.81987e-05
-1.79066e-05
-1.8224e-05
-1.84793e-05
-1.82622e-05
-1.79804e-05
-1.76949e-05
-1.80051e-05
-1.82537e-05
-1.8034e-05
-1.77596e-05
-1.74806e-05
-1.77836e-05
-1.80258e-05
-1.78034e-05
-1.75362e-05
-1.72638e-05
-1.75597e-05
-1.77954e-05
-1.75703e-05
-1.73104e-05
-1.70444e-05
-1.73332e-05
-1.75625e-05
-1.73347e-05
-1.70819e-05
-1.68224e-05
-1.71042e-05
-1.73272e-05
-1.70967e-05
-1.68509e-05
-1.65977e-05
-1.68726e-05
-1.70893e-05
-1.6856e-05
-1.66172e-05
-1.63704e-05
-1.66383e-05
-1.68489e-05
-1.66129e-05
-1.63809e-05
-1.61404e-05
-1.64014e-05
-1.6606e-05
-1.63671e-05
-1.61419e-05
-1.59076e-05
-1.61618e-05
-1.63604e-05
-1.61187e-05
-1.59001e-05
-1.56721e-05
-1.59195e-05
-1.61122e-05
-1.58676e-05
-1.56556e-05
-1.54337e-05
-1.56745e-05
-1.58614e-05
-1.56139e-05
-1.54084e-05
-1.51926e-05
-1.54267e-05
-1.56078e-05
-1.53574e-05
-1.51583e-05
-1.49486e-05
-1.51761e-05
-1.53516e-05
-1.50982e-05
-1.49054e-05
-1.47017e-05
-1.49226e-05
-1.50926e-05
-1.48362e-05
-1.46497e-05
-1.44519e-05
-1.46663e-05
-1.48308e-05
-1.45714e-05
-1.4391e-05
-1.41991e-05
-1.44072e-05
-1.45662e-05
-1.43038e-05
-1.41294e-05
-1.39434e-05
-1.4145e-05
-1.42987e-05
-1.40333e-05
-1.38649e-05
-1.36847e-05
-1.388e-05
-1.40284e-05
-1.37598e-05
-1.35973e-05
-1.3423e-05
-1.36119e-05
-1.37552e-05
-1.34835e-05
-1.33267e-05
-1.31581e-05
-1.33408e-05
-1.3479e-05
-1.32041e-05
-1.30531e-05
-1.28902e-05
-1.30667e-05
-1.31998e-05
-1.29218e-05
-1.27764e-05
-1.26192e-05
-1.27894e-05
-1.29176e-05
-1.26364e-05
-1.24965e-05
-1.23449e-05
-1.25091e-05
-1.26324e-05
-1.23479e-05
-1.22135e-05
-1.20675e-05
-1.22256e-05
-1.23441e-05
-1.20563e-05
-1.19273e-05
-1.17869e-05
-1.19389e-05
-1.20527e-05
-1.17616e-05
-1.16378e-05
-1.1503e-05
-1.1649e-05
-1.17581e-05
-1.14637e-05
-1.13451e-05
-1.12157e-05
-1.13558e-05
-1.14603e-05
-1.11625e-05
-1.10491e-05
-1.09252e-05
-1.10593e-05
-1.11593e-05
-1.08581e-05
-1.07497e-05
-1.06313e-05
-1.07595e-05
-1.0855e-05
-1.05503e-05
-1.0447e-05
-1.0334e-05
-1.04563e-05
-1.05474e-05
-1.02393e-05
-1.01409e-05
-1.00332e-05
-1.01497e-05
-1.02365e-05
-9.92481e-06
-9.8313e-06
-9.729e-06
-9.83967e-06
-9.9222e-06
-9.60693e-06
-9.51823e-06
-9.42128e-06
-9.52615e-06
-9.60446e-06
-9.2856e-06
-9.20165e-06
-9.11002e-06
-9.20913e-06
-9.28326e-06
-8.96076e-06
-8.8815e-06
-8.79518e-06
-8.88854e-06
-8.95855e-06
-8.63237e-06
-8.55776e-06
-8.47673e-06
-8.56436e-06
-8.63029e-06
-8.3004e-06
-8.23038e-06
-8.15463e-06
-8.23655e-06
-8.29845e-06
-7.9648e-06
-7.89932e-06
-7.82885e-06
-7.90506e-06
-7.96297e-06
-7.62552e-06
-7.56455e-06
-7.49935e-06
-7.56987e-06
-7.62382e-06
-7.28253e-06
-7.22603e-06
-7.16609e-06
-7.23091e-06
-7.28095e-06
-6.93577e-06
-6.88371e-06
-6.82904e-06
-6.88817e-06
-6.93431e-06
-6.58521e-06
-6.53756e-06
-6.48816e-06
-6.54159e-06
-6.58387e-06
-6.2308e-06
-6.18752e-06
-6.14341e-06
-6.19114e-06
-6.22957e-06
-5.87247e-06
-5.83358e-06
-5.79477e-06
-5.83677e-06
-5.87136e-06
-5.51018e-06
-5.47568e-06
-5.44221e-06
-5.47844e-06
-5.50918e-06
-5.14393e-06
-5.11377e-06
-5.08562e-06
-5.11611e-06
-5.14305e-06
-4.77388e-06
-4.74772e-06
-4.72465e-06
-4.74967e-06
-4.7731e-06
-4.40013e-06
-4.3774e-06
-4.359e-06
-4.379e-06
-4.39942e-06
-4.02128e-06
-4.00329e-06
-3.99062e-06
-4.00443e-06
-4.0207e-06
-3.63147e-06
-3.627e-06
-3.62707e-06
-3.62696e-06
-3.63138e-06
)
;

boundaryField
{
    BotWall
    {
        type            fixedFluxPressure;
        gradient        uniform 0;
        value           nonuniform List<scalar> 5(0.798642 0.799262 0.799241 0.798331 0.798681);
    }
    FreeStream
    {
        type            totalPressure;
        rho             rho;
        psi             none;
        gamma           1;
        p0              uniform 0;
        value           nonuniform List<scalar> 5(-3.43083e-06 -3.43924e-06 -3.45054e-06 -3.4381e-06 -3.43125e-06);
    }
    FrontNBack
    {
        type            empty;
    }
    LeftSide
    {
        type            symmetryPlane;
    }
    RightSide
    {
        type            symmetryPlane;
    }
}


// ************************************************************************* //
