/*--------------------------------*- C++ -*----------------------------------*\
| =========                 |                                                 |
| \\      /  F ield         | OpenFOAM: The Open Source CFD Toolbox           |
|  \\    /   O peration     | Version:  2.4.0                                 |
|   \\  /    A nd           | Web:      www.OpenFOAM.org                      |
|    \\/     M anipulation  |                                                 |
\*---------------------------------------------------------------------------*/
FoamFile
{
    version     2.0;
    format      ascii;
    class       surfaceScalarField;
    location    "4.8";
    object      phi;
}
// * * * * * * * * * * * * * * * * * * * * * * * * * * * * * * * * * * * * * //

dimensions      [0 3 -1 0 0 0 0];

internalField   nonuniform List<scalar> 
895
(
1.88407e-17
-1.88406e-17
1.83258e-17
5.15105e-19
-1.22088e-17
3.05349e-17
-2.10055e-17
8.79699e-18
-2.10055e-17
5.8018e-17
-7.68571e-17
5.57343e-17
2.80146e-18
-3.80674e-17
1.2434e-16
-6.37691e-17
3.45016e-17
-8.47724e-17
9.90306e-17
-1.75886e-16
9.43101e-17
7.52487e-18
-6.54695e-17
2.84124e-16
-1.07965e-16
7.70004e-17
-1.92735e-16
1.41924e-16
-3.17808e-16
1.34101e-16
1.53509e-17
-9.43854e-17
5.12615e-16
-1.53789e-16
1.36407e-16
-3.46522e-16
1.86743e-16
-5.04549e-16
1.75139e-16
2.69591e-17
-1.24876e-16
8.12633e-16
-2.01267e-16
2.12802e-16
-5.47786e-16
2.33644e-16
-7.38191e-16
2.17508e-16
4.30983e-17
-1.57058e-16
1.1872e-15
-2.50538e-16
3.06285e-16
-7.98322e-16
2.82657e-16
-1.02084e-15
2.61226e-16
6.45319e-17
-1.90985e-16
1.63942e-15
-3.01614e-16
4.16918e-16
-1.09993e-15
3.33971e-16
-1.35481e-15
3.06404e-16
9.2102e-17
-2.26801e-16
2.17263e-15
-3.54667e-16
5.44788e-16
-1.4546e-15
3.87607e-16
-1.74242e-15
3.5305e-16
1.26663e-16
-2.64556e-16
2.79024e-15
-4.09696e-16
6.89932e-16
-1.86429e-15
4.4379e-16
-2.18621e-15
4.01296e-16
1.6916e-16
-3.04419e-16
3.49596e-15
-4.66905e-16
8.52422e-16
-2.3312e-15
5.02533e-16
-2.68874e-15
4.51146e-16
2.2055e-16
-3.4644e-16
4.29355e-15
-5.26282e-16
1.03227e-15
-2.85748e-15
5.64093e-16
-3.25283e-15
5.02754e-16
2.81893e-16
-3.90814e-16
5.18712e-15
-5.88063e-16
1.22952e-15
-3.44554e-15
6.28483e-16
-3.88131e-15
5.5612e-16
3.54259e-16
-4.37593e-16
6.18084e-15
-6.5223e-16
1.44416e-15
-4.09776e-15
6.95994e-16
-4.5773e-15
6.1142e-16
4.38837e-16
-4.86998e-16
7.27926e-15
-7.19051e-16
1.67621e-15
-4.81681e-15
7.66635e-16
-5.34393e-15
6.68653e-16
5.36823e-16
-5.39087e-16
8.48701e-15
-7.88501e-16
1.92563e-15
-5.60531e-15
8.40736e-16
-6.18467e-15
7.28019e-16
6.49542e-16
-5.9411e-16
9.80914e-15
-8.60881e-16
2.19241e-15
-6.46619e-15
9.18311e-16
-7.10297e-15
7.89528e-16
7.78328e-16
-6.52142e-16
1.12508e-14
-9.36168e-16
2.47643e-15
-7.40236e-15
9.99731e-16
-8.1027e-15
8.53485e-16
9.24576e-16
-7.13611e-16
1.28179e-14
-1.01464e-15
2.77747e-15
-8.417e-15
1.08491e-15
-9.18761e-15
9.19941e-16
1.08954e-15
-7.77735e-16
1.45156e-14
-1.0963e-15
3.09604e-15
-9.5133e-15
1.17418e-15
-1.03618e-14
9.87297e-16
1.27643e-15
-8.46093e-16
1.6349e-14
-1.18142e-15
3.43137e-15
-1.06947e-14
1.26759e-15
-1.16294e-14
1.06017e-15
1.48384e-15
-9.18412e-16
1.83276e-14
-1.27016e-15
3.78312e-15
-1.19649e-14
1.36576e-15
-1.29951e-14
1.1335e-15
1.7161e-15
-9.94037e-16
2.04551e-14
-1.36291e-15
4.152e-15
-1.33278e-14
1.47121e-15
-1.44663e-14
1.21754e-15
1.96977e-15
-1.08037e-15
2.2753e-14
-1.45883e-15
4.53046e-15
-1.47866e-14
1.58076e-15
-1.27798e-13
1.32054e-15
2.22999e-15
-1.19152e-15
2.52651e-14
-1.55812e-15
4.89706e-15
-1.30092e-13
1.75346e-15
-1.73253e-10
1.51637e-15
-1.7378e-10
-1.402e-15
-1.74289e-10
-1.71151e-15
-1.73733e-10
-1.73275e-10
1.8022e-15
-1.73255e-10
1.44885e-15
-1.7378e-10
-1.32837e-15
-1.74287e-10
-1.76978e-15
-1.73733e-10
-1.73277e-10
1.28682e-15
-1.73256e-10
1.1168e-15
-1.73779e-10
-9.76687e-16
-1.74285e-10
-1.2796e-15
-1.73733e-10
-1.73279e-10
9.91629e-16
-1.73257e-10
8.98634e-16
-1.73779e-10
-7.47576e-16
-1.74283e-10
-9.94937e-16
-1.73732e-10
-1.7328e-10
7.2764e-16
-1.73258e-10
7.1691e-16
-1.73779e-10
-5.56847e-16
-1.74282e-10
-7.38895e-16
-1.73732e-10
-1.7328e-10
4.77032e-16
-1.73258e-10
5.44235e-16
-1.73779e-10
-3.75349e-16
-1.74281e-10
-4.96723e-16
-1.73732e-10
-1.73281e-10
2.42902e-16
-1.73259e-10
3.80155e-16
-1.7378e-10
-2.02954e-16
-1.7428e-10
-2.70843e-16
-1.73732e-10
-1.73281e-10
3.19335e-17
-1.73259e-10
2.30209e-16
-1.7378e-10
-4.57349e-17
-1.7428e-10
-6.70891e-17
-1.73732e-10
-1.73281e-10
-1.53334e-16
-1.73259e-10
9.65792e-17
-1.7378e-10
9.39916e-17
-1.7428e-10
1.12195e-16
-1.73732e-10
-1.73281e-10
-3.12009e-16
-1.73258e-10
-2.00852e-17
-1.7378e-10
2.15489e-16
-1.7428e-10
2.66143e-16
-1.73732e-10
-1.73281e-10
-4.43458e-16
-1.73258e-10
-1.19394e-16
-1.73781e-10
3.18279e-16
-1.74281e-10
3.94129e-16
-1.73732e-10
-1.7328e-10
-5.47008e-16
-1.73257e-10
-2.00864e-16
-1.73781e-10
4.01854e-16
-1.74281e-10
4.95513e-16
-1.73732e-10
-1.7328e-10
-6.22052e-16
-1.73257e-10
-2.64076e-16
-1.73781e-10
4.6574e-16
-1.74282e-10
5.69715e-16
-1.73732e-10
-1.73279e-10
-6.68136e-16
-1.73256e-10
-3.08699e-16
-1.73782e-10
5.09563e-16
-1.74283e-10
6.16303e-16
-1.73733e-10
-1.73279e-10
-6.84984e-16
-1.73255e-10
-3.34516e-16
-1.73782e-10
5.33069e-16
-1.74284e-10
6.35014e-16
-1.73733e-10
-1.73278e-10
-6.72509e-16
-1.73255e-10
-3.41427e-16
-1.73782e-10
5.36135e-16
-1.74284e-10
6.25761e-16
-1.73733e-10
-1.73277e-10
-6.30814e-16
-1.73254e-10
-3.29451e-16
-1.73783e-10
5.18768e-16
-1.74285e-10
5.8864e-16
-1.73733e-10
-1.73277e-10
-5.60203e-16
-1.73253e-10
-2.98735e-16
-1.73783e-10
4.81112e-16
-1.74286e-10
5.23934e-16
-1.73733e-10
-1.73276e-10
-4.61184e-16
-1.73253e-10
-2.49554e-16
-1.73783e-10
4.23454e-16
-1.74287e-10
4.32124e-16
-1.73733e-10
-1.73276e-10
-3.34475e-16
-1.73253e-10
-1.82317e-16
-1.73783e-10
3.46229e-16
-1.74287e-10
3.1389e-16
-1.73733e-10
-1.73276e-10
-1.81011e-16
-1.73252e-10
-9.75712e-17
-1.73783e-10
2.50018e-16
-1.74288e-10
1.70114e-16
-1.73733e-10
-1.73275e-10
-1.93681e-18
-1.73252e-10
3.99967e-18
-1.73783e-10
1.35553e-16
-1.74288e-10
1.88238e-18
-1.73733e-10
-1.73275e-10
2.01356e-16
-1.73253e-10
1.21508e-16
-1.73783e-10
3.71363e-18
-1.74288e-10
-1.89501e-16
-1.73732e-10
-1.73276e-10
4.27326e-16
-1.73253e-10
2.54059e-16
-1.73783e-10
-1.44355e-16
-1.74287e-10
-4.02561e-16
-1.73732e-10
-1.73276e-10
6.74199e-16
-1.73254e-10
4.00567e-16
-1.73783e-10
-3.07577e-16
-1.74287e-10
-6.35616e-16
-1.73732e-10
-1.73277e-10
9.4001e-16
-1.73255e-10
5.5982e-16
-1.73782e-10
-4.84639e-16
-1.74285e-10
-8.86799e-16
-1.73731e-10
-1.73277e-10
1.22261e-15
-1.73256e-10
7.30488e-16
-1.73782e-10
-6.74096e-16
-1.74284e-10
-1.15407e-15
-1.73731e-10
-1.73279e-10
1.51969e-15
-1.73257e-10
9.1113e-16
-1.73781e-10
-8.74381e-16
-1.74282e-10
-1.43524e-15
-1.7373e-10
-1.7328e-10
1.82877e-15
-1.73259e-10
1.10021e-15
-1.73781e-10
-1.08382e-15
-1.7428e-10
-1.72795e-15
-1.7373e-10
-1.73282e-10
2.14727e-15
-1.73261e-10
1.29609e-15
-1.7378e-10
-1.30064e-15
-1.74278e-10
-2.02974e-15
-1.73729e-10
-1.73284e-10
2.47249e-15
-1.73264e-10
1.49708e-15
-1.73779e-10
-1.52298e-15
-1.74274e-10
-2.33805e-15
-1.73728e-10
-1.73286e-10
2.80163e-15
-1.73267e-10
1.70142e-15
-1.73778e-10
-1.74894e-15
-1.74271e-10
-2.65021e-15
-1.73727e-10
-1.73289e-10
3.13185e-15
-1.7327e-10
1.9073e-15
-1.73776e-10
-1.97654e-15
-1.74267e-10
-2.96352e-15
-1.73726e-10
-1.73292e-10
3.46028e-15
-1.73273e-10
2.1129e-15
-1.73775e-10
-2.20379e-15
-1.74263e-10
-3.27525e-15
-1.73725e-10
-1.73295e-10
3.78405e-15
-1.73277e-10
2.31639e-15
-1.73774e-10
-2.42869e-15
-1.74258e-10
-3.58266e-15
-1.73724e-10
-1.73299e-10
4.10031e-15
-1.73281e-10
2.51595e-15
-1.73772e-10
-2.64926e-15
-1.74253e-10
-3.88304e-15
-1.73723e-10
-1.73303e-10
4.4063e-15
-1.73286e-10
2.70981e-15
-1.7377e-10
-2.86355e-15
-1.74247e-10
-4.17374e-15
-1.73722e-10
-1.73307e-10
4.69933e-15
-1.7329e-10
2.89623e-15
-1.73769e-10
-3.06968e-15
-1.74241e-10
-4.45221e-15
-1.7372e-10
-1.73311e-10
4.97684e-15
-1.73295e-10
3.07356e-15
-1.73767e-10
-3.26584e-15
-1.74235e-10
-4.71601e-15
-1.73719e-10
-1.73316e-10
5.23646e-15
-1.73301e-10
3.24026e-15
-1.73765e-10
-3.45034e-15
-1.74228e-10
-4.96285e-15
-1.73717e-10
-1.73321e-10
5.47598e-15
-1.73306e-10
3.39487e-15
-1.73763e-10
-3.6216e-15
-1.74221e-10
-5.19063e-15
-1.73716e-10
-1.73326e-10
5.6934e-15
-1.73312e-10
3.53611e-15
-1.7376e-10
-3.7782e-15
-1.74214e-10
-5.39745e-15
-1.73714e-10
-1.73331e-10
5.88701e-15
-1.73318e-10
3.66282e-15
-1.73758e-10
-3.91887e-15
-1.74206e-10
-5.58165e-15
-1.73712e-10
-1.73337e-10
6.05532e-15
-1.73324e-10
3.77401e-15
-1.73756e-10
-4.04255e-15
-1.74199e-10
-5.74182e-15
-1.73711e-10
-1.73343e-10
6.19717e-15
-1.7333e-10
3.86889e-15
-1.73754e-10
-4.14837e-15
-1.74191e-10
-5.87683e-15
-1.73709e-10
-1.73349e-10
6.31168e-15
-1.73336e-10
3.94685e-15
-1.73751e-10
-4.23565e-15
-1.74182e-10
-5.98583e-15
-1.73707e-10
-1.73355e-10
6.39831e-15
-1.73343e-10
4.0075e-15
-1.73749e-10
-4.30397e-15
-1.74174e-10
-6.0683e-15
-1.73705e-10
-1.73361e-10
6.45684e-15
-1.73349e-10
4.05064e-15
-1.73746e-10
-4.35313e-15
-1.74166e-10
-6.12403e-15
-1.73704e-10
-1.73367e-10
6.48741e-15
-1.73355e-10
4.0763e-15
-1.73744e-10
-4.38314e-15
-1.74157e-10
-6.15313e-15
-1.73702e-10
-1.73373e-10
6.49048e-15
-1.73362e-10
4.08473e-15
-1.73742e-10
-4.3943e-15
-1.74149e-10
-6.15603e-15
-1.737e-10
-1.73379e-10
6.46685e-15
-1.73368e-10
4.07639e-15
-1.73739e-10
-4.3871e-15
-1.7414e-10
-6.1335e-15
-1.73698e-10
-1.73385e-10
6.41766e-15
-1.73375e-10
4.05195e-15
-1.73737e-10
-4.36228e-15
-1.74132e-10
-6.0866e-15
-1.73697e-10
-1.73391e-10
6.34434e-15
-1.73381e-10
4.0123e-15
-1.73735e-10
-4.32082e-15
-1.74124e-10
-6.0167e-15
-1.73695e-10
-1.73397e-10
6.24864e-15
-1.73387e-10
3.95849e-15
-1.73732e-10
-4.26388e-15
-1.74115e-10
-5.92546e-15
-1.73693e-10
-1.73403e-10
6.13257e-15
-1.73394e-10
3.89179e-15
-1.7373e-10
-4.19283e-15
-1.74107e-10
-5.8148e-15
-1.73692e-10
-1.73409e-10
5.99842e-15
-1.734e-10
3.8136e-15
-1.73728e-10
-4.10923e-15
-1.74099e-10
-5.68688e-15
-1.7369e-10
-1.73415e-10
5.84866e-15
-1.73405e-10
3.72549e-15
-1.73726e-10
-4.01479e-15
-1.74092e-10
-5.54407e-15
-1.73689e-10
-1.7342e-10
5.68597e-15
-1.73411e-10
3.62913e-15
-1.73724e-10
-3.91133e-15
-1.74084e-10
-5.38892e-15
-1.73687e-10
-1.73426e-10
5.51317e-15
-1.73417e-10
3.52629e-15
-1.73722e-10
-3.80081e-15
-1.74077e-10
-5.22412e-15
-1.73686e-10
-1.73431e-10
5.33319e-15
-1.73422e-10
3.41884e-15
-1.7372e-10
-3.68525e-15
-1.7407e-10
-5.05247e-15
-1.73684e-10
-1.73436e-10
5.14904e-15
-1.73427e-10
3.30867e-15
-1.73718e-10
-3.56673e-15
-1.74063e-10
-4.87683e-15
-1.73683e-10
-1.73441e-10
4.96373e-15
-1.73432e-10
3.19768e-15
-1.73716e-10
-3.44731e-15
-1.74056e-10
-4.70008e-15
-1.73682e-10
-1.73446e-10
4.78028e-15
-1.73437e-10
3.08779e-15
-1.73714e-10
-3.32909e-15
-1.7405e-10
-4.52508e-15
-1.73681e-10
-1.7345e-10
4.6016e-15
-1.73441e-10
2.98083e-15
-1.73713e-10
-3.21406e-15
-1.74043e-10
-4.35464e-15
-1.73679e-10
-1.73454e-10
4.43053e-15
-1.73446e-10
2.8786e-15
-1.73711e-10
-3.10416e-15
-1.74038e-10
-4.19143e-15
-1.73678e-10
-1.73459e-10
4.26972e-15
-1.7345e-10
2.78277e-15
-1.7371e-10
-3.00122e-15
-1.74032e-10
-4.038e-15
-1.73677e-10
-1.73463e-10
4.12162e-15
-1.73454e-10
2.69487e-15
-1.73708e-10
-2.90688e-15
-1.74026e-10
-3.89667e-15
-1.73676e-10
-1.73467e-10
3.98844e-15
-1.73458e-10
2.61629e-15
-1.73707e-10
-2.82262e-15
-1.74021e-10
-3.76956e-15
-1.73675e-10
-1.7347e-10
3.87208e-15
-1.73462e-10
2.54821e-15
-1.73706e-10
-2.74973e-15
-1.74015e-10
-3.65846e-15
-1.73674e-10
-1.73474e-10
3.77413e-15
-1.73466e-10
2.49159e-15
-1.73704e-10
-2.68922e-15
-1.7401e-10
-3.5649e-15
-1.73674e-10
-1.73478e-10
3.69581e-15
-1.7347e-10
2.44718e-15
-1.73703e-10
-2.64187e-15
-1.74005e-10
-3.49003e-15
-1.73673e-10
-1.73481e-10
3.63793e-15
-1.73473e-10
2.41542e-15
-1.73702e-10
-2.60815e-15
-1.74e-10
-3.43461e-15
-1.73672e-10
-1.73484e-10
3.60086e-15
-1.73477e-10
2.39649e-15
-1.73701e-10
-2.58821e-15
-1.73995e-10
-3.39901e-15
-1.73671e-10
-1.73488e-10
3.58465e-15
-1.7348e-10
2.39031e-15
-1.737e-10
-2.58194e-15
-1.7399e-10
-3.38324e-15
-1.7367e-10
-1.73491e-10
3.58931e-15
-1.73484e-10
2.39692e-15
-1.73698e-10
-2.58937e-15
-1.73985e-10
-3.38729e-15
-1.73669e-10
-1.73495e-10
3.61413e-15
2.41714e-15
-2.6114e-15
-3.41024e-15
)
;

boundaryField
{
    BotWall
    {
        type            calculated;
        value           nonuniform List<scalar> 5(-8.31665e-23 -1.48533e-22 -2.42379e-22 -1.80183e-22 -1.50448e-22);
    }
    FreeStream
    {
        type            calculated;
        value           nonuniform List<scalar> 5(-1.73488e-10 -1.73697e-10 -1.7398e-10 -1.73669e-10 -1.73498e-10);
    }
    FrontNBack
    {
        type            empty;
        value           nonuniform 0();
    }
    LeftSide
    {
        type            symmetryPlane;
        value           uniform 0;
    }
    RightSide
    {
        type            symmetryPlane;
        value           uniform 0;
    }
}


// ************************************************************************* //
