/*--------------------------------*- C++ -*----------------------------------*\
| =========                 |                                                 |
| \\      /  F ield         | OpenFOAM: The Open Source CFD Toolbox           |
|  \\    /   O peration     | Version:  2.4.0                                 |
|   \\  /    A nd           | Web:      www.OpenFOAM.org                      |
|    \\/     M anipulation  |                                                 |
\*---------------------------------------------------------------------------*/
FoamFile
{
    version     2.0;
    format      ascii;
    class       volScalarField;
    location    "4.8";
    object      T;
}
// * * * * * * * * * * * * * * * * * * * * * * * * * * * * * * * * * * * * * //

dimensions      [0 0 0 1 0 0 0];

internalField   nonuniform List<scalar> 
500
(
293.091
293.091
293.091
293.091
293.091
293.275
293.275
293.274
293.275
293.275
293.461
293.46
293.459
293.46
293.46
293.648
293.647
293.646
293.647
293.648
293.837
293.836
293.834
293.836
293.837
294.027
294.026
294.024
294.026
294.027
294.219
294.217
294.215
294.217
294.219
294.412
294.41
294.408
294.41
294.412
294.606
294.604
294.602
294.604
294.606
294.802
294.799
294.796
294.799
294.801
294.998
294.995
294.992
294.995
294.997
295.194
295.191
295.188
295.192
295.194
295.392
295.389
295.386
295.389
295.392
295.59
295.586
295.583
295.587
295.589
295.788
295.785
295.782
295.785
295.788
295.987
295.983
295.981
295.984
295.987
296.186
296.183
296.18
296.183
296.186
296.386
296.383
296.38
296.383
296.386
296.586
296.584
296.581
296.584
296.586
296.788
296.785
296.783
296.785
296.788
296.99
296.988
296.987
296.988
296.99
297.194
297.193
297.192
297.193
297.194
297.4
297.399
297.399
297.399
297.4
297.608
297.608
297.609
297.608
297.608
297.949
297.949
297.951
297.949
297.949
297.949
297.949
297.95
297.949
297.949
297.949
297.949
297.95
297.949
297.949
297.949
297.949
297.95
297.949
297.949
297.949
297.949
297.95
297.949
297.949
297.949
297.95
297.95
297.949
297.949
297.949
297.95
297.951
297.95
297.949
297.95
297.95
297.951
297.95
297.95
297.95
297.95
297.951
297.95
297.95
297.951
297.951
297.951
297.951
297.951
297.951
297.951
297.952
297.951
297.951
297.952
297.952
297.952
297.952
297.952
297.952
297.952
297.953
297.952
297.952
297.953
297.953
297.954
297.953
297.953
297.954
297.954
297.954
297.954
297.954
297.955
297.955
297.955
297.954
297.955
297.956
297.955
297.956
297.955
297.956
297.956
297.956
297.957
297.956
297.956
297.957
297.957
297.957
297.957
297.957
297.958
297.958
297.958
297.958
297.958
297.96
297.959
297.959
297.959
297.96
297.961
297.96
297.96
297.96
297.961
297.962
297.961
297.961
297.961
297.962
297.963
297.963
297.963
297.963
297.963
297.964
297.964
297.964
297.964
297.964
297.965
297.965
297.965
297.965
297.965
297.967
297.966
297.966
297.966
297.967
297.968
297.967
297.967
297.967
297.968
297.969
297.969
297.968
297.969
297.969
297.97
297.97
297.97
297.97
297.97
297.972
297.971
297.971
297.971
297.972
297.973
297.972
297.972
297.972
297.973
297.974
297.974
297.973
297.974
297.974
297.976
297.975
297.975
297.975
297.976
297.977
297.976
297.976
297.976
297.977
297.978
297.977
297.977
297.977
297.978
297.979
297.979
297.978
297.979
297.979
297.98
297.98
297.979
297.98
297.98
297.982
297.981
297.981
297.981
297.982
297.983
297.982
297.982
297.982
297.983
297.984
297.983
297.983
297.983
297.984
297.985
297.984
297.984
297.984
297.985
297.986
297.985
297.985
297.985
297.986
297.987
297.986
297.986
297.986
297.987
297.988
297.987
297.987
297.987
297.988
297.989
297.988
297.988
297.988
297.989
297.99
297.989
297.989
297.989
297.99
297.99
297.99
297.989
297.99
297.99
297.991
297.991
297.99
297.991
297.991
297.992
297.991
297.991
297.991
297.992
297.993
297.992
297.992
297.992
297.993
297.993
297.993
297.992
297.993
297.993
297.994
297.993
297.993
297.993
297.994
297.994
297.994
297.994
297.994
297.994
297.995
297.995
297.994
297.995
297.995
297.995
297.995
297.995
297.995
297.995
297.996
297.995
297.995
297.996
297.996
297.996
297.996
297.996
297.996
297.996
297.997
297.996
297.996
297.996
297.997
297.997
297.997
297.997
297.997
297.997
297.997
297.997
297.997
297.997
297.997
297.998
297.997
297.997
297.997
297.998
297.998
297.998
297.998
297.998
297.998
297.998
297.998
297.998
297.998
297.998
297.998
297.998
297.998
297.998
297.998
297.998
297.998
297.998
297.998
297.998
297.999
297.999
297.999
297.999
297.999
297.999
297.999
297.999
297.999
297.999
297.999
297.999
297.999
297.999
297.999
297.999
297.999
297.999
297.999
297.999
297.999
297.999
297.999
297.999
297.999
297.999
297.999
297.999
297.999
297.999
298
298
298
298
298
298
298
298
298
298
298
298
298
298
298
298
298
298
298
298
)
;

boundaryField
{
    BotWall
    {
        type            fixedValue;
        value           uniform 293;
    }
    FreeStream
    {
        type            fixedValue;
        value           uniform 298;
    }
    FrontNBack
    {
        type            empty;
    }
    LeftSide
    {
        type            symmetryPlane;
    }
    RightSide
    {
        type            symmetryPlane;
    }
}


// ************************************************************************* //
