/*--------------------------------*- C++ -*----------------------------------*\
| =========                 |                                                 |
| \\      /  F ield         | OpenFOAM: The Open Source CFD Toolbox           |
|  \\    /   O peration     | Version:  2.4.0                                 |
|   \\  /    A nd           | Web:      www.OpenFOAM.org                      |
|    \\/     M anipulation  |                                                 |
\*---------------------------------------------------------------------------*/
FoamFile
{
    version     2.0;
    format      ascii;
    class       volVectorField;
    location    "4.8";
    object      U;
}
// * * * * * * * * * * * * * * * * * * * * * * * * * * * * * * * * * * * * * //

dimensions      [0 1 -1 0 0 0 0];

internalField   nonuniform List<vector> 
500
(
(2.45605e-09 2.35888e-10 0)
(1.13823e-08 2.63095e-10 0)
(1.99626e-09 2.93068e-10 0)
(-1.10743e-08 2.72505e-10 0)
(-4.10296e-09 2.33144e-10 0)
(7.55299e-09 -8.49224e-10 0)
(3.44318e-08 -6.72868e-10 0)
(5.77845e-09 -3.65688e-10 0)
(-3.34951e-08 -5.88706e-10 0)
(-1.22704e-08 -8.71026e-10 0)
(1.28624e-08 5.41936e-10 0)
(5.79039e-08 1.19008e-09 0)
(9.3665e-09 2.11683e-09 0)
(-5.63228e-08 1.4271e-09 0)
(-2.04406e-08 4.83747e-10 0)
(1.84005e-08 -2.73249e-09 0)
(8.18324e-08 -1.55997e-09 0)
(1.27549e-08 2.80487e-10 0)
(-7.95922e-08 -1.10159e-09 0)
(-2.86256e-08 -2.84301e-09 0)
(2.41613e-08 2.51199e-11 0)
(1.06223e-07 2.2061e-09 0)
(1.59379e-08 5.3477e-09 0)
(-1.03309e-07 2.95996e-09 0)
(-3.6814e-08 -1.5176e-10 0)
(3.01693e-08 -5.56957e-09 0)
(1.31124e-07 -2.44803e-09 0)
(1.891e-08 2.27154e-09 0)
(-1.27521e-07 -1.34205e-09 0)
(-4.50256e-08 -5.82548e-09 0)
(3.64124e-08 -1.30023e-09 0)
(1.56532e-07 3.41766e-09 0)
(2.16645e-08 1.01543e-08 0)
(-1.52226e-07 4.94639e-09 0)
(-5.32424e-08 -1.64612e-09 0)
(4.2922e-08 -9.46892e-09 0)
(1.82508e-07 -3.34331e-09 0)
(2.41957e-08 5.6774e-09 0)
(-1.77485e-07 -1.34602e-09 0)
(-6.14909e-08 -9.91448e-09 0)
(4.9681e-08 -3.49964e-09 0)
(2.09044e-07 4.87476e-09 0)
(2.64961e-08 1.66792e-08 0)
(-2.0329e-07 7.40785e-09 0)
(-6.97469e-08 -4.05253e-09 0)
(5.67267e-08 -1.45637e-08 0)
(2.3621e-07 -4.2554e-09 0)
(2.85599e-08 1.05881e-08 0)
(-2.29711e-07 -1.15317e-09 0)
(-7.80427e-08 -1.52302e-08 0)
(6.40381e-08 -6.62488e-09 0)
(2.63995e-07 6.65637e-09 0)
(3.03785e-08 2.51061e-08 0)
(-2.56737e-07 1.03908e-08 0)
(-8.6349e-08 -7.40892e-09 0)
(7.16579e-08 -2.10319e-08 0)
(2.92479e-07 -5.22585e-09 0)
(3.19457e-08 1.70697e-08 0)
(-2.84449e-07 -8.40158e-10 0)
(-9.47027e-08 -2.1936e-08 0)
(7.95618e-08 -1.08136e-08 0)
(3.21647e-07 8.7678e-09 0)
(3.32521e-08 3.55518e-08 0)
(-3.12831e-07 1.38632e-08 0)
(-1.03071e-07 -1.18374e-08 0)
(8.77972e-08 -2.90419e-08 0)
(3.51591e-07 -6.27504e-09 0)
(3.42911e-08 2.52217e-08 0)
(-3.41975e-07 -4.67596e-10 0)
(-1.11493e-07 -3.01835e-08 0)
(9.63374e-08 -1.53348e-08 0)
(3.82293e-07 1.21014e-08 0)
(3.50522e-08 4.90627e-08 0)
(-3.71863e-07 1.86728e-08 0)
(-1.19934e-07 -1.65884e-08 0)
(1.05234e-07 -3.65129e-08 0)
(4.13856e-07 -5.11986e-09 0)
(3.55282e-08 3.75356e-08 0)
(-4.02596e-07 2.19465e-09 0)
(-1.28436e-07 -3.78709e-08 0)
(1.14459e-07 -2.0331e-08 0)
(4.4626e-07 1.67821e-08 0)
(3.57075e-08 6.58917e-08 0)
(-4.34156e-07 2.48857e-08 0)
(-1.36961e-07 -2.17859e-08 0)
(1.24068e-07 -6.39882e-08 0)
(4.79617e-07 -2.21618e-08 0)
(3.55824e-08 3.30677e-08 0)
(-4.66653e-07 -1.32672e-08 0)
(-1.45554e-07 -6.55438e-08 0)
(1.34028e-07 -8.52672e-08 0)
(5.13896e-07 -3.73578e-08 0)
(3.52346e-08 2.40695e-08 0)
(-4.99947e-07 -2.75517e-08 0)
(-1.54156e-07 -8.6927e-08 0)
(1.44355e-07 -1.07534e-07 0)
(5.48992e-07 -5.52379e-08 0)
(3.42692e-08 1.40328e-08 0)
(-5.34379e-07 -4.47106e-08 0)
(-1.62834e-07 -1.09211e-07 0)
(1.55139e-07 3.17264e-07 0)
(5.85497e-07 3.79316e-07 0)
(3.32975e-08 4.69412e-07 0)
(-5.69836e-07 3.8965e-07 0)
(-1.71584e-07 3.15944e-07 0)
(1.66513e-07 1.42257e-06 0)
(6.22972e-07 1.50935e-06 0)
(3.17492e-08 1.64511e-06 0)
(-6.06434e-07 1.51743e-06 0)
(-1.80521e-07 1.42217e-06 0)
(1.79007e-07 7.51954e-07 0)
(6.62652e-07 8.76951e-07 0)
(3.00205e-08 1.01015e-06 0)
(-6.44622e-07 8.86836e-07 0)
(-1.89789e-07 7.506e-07 0)
(1.92325e-07 -7.29273e-06 0)
(7.0296e-07 -7.16607e-06 0)
(2.75719e-08 -7.26954e-06 0)
(-6.84207e-07 -7.13603e-06 0)
(-1.99932e-07 -7.30229e-06 0)
(2.12965e-07 -5.52436e-05 0)
(7.57427e-07 -5.58567e-05 0)
(2.46302e-08 -5.74019e-05 0)
(-7.37868e-07 -5.5709e-05 0)
(-2.16814e-07 -5.52892e-05 0)
(2.18451e-07 -0.000727404 0)
(7.7673e-07 -0.000728813 0)
(2.33013e-08 -0.000729957 0)
(-7.56762e-07 -0.000728695 0)
(-2.2056e-07 -0.000727481 0)
(1.32497e-07 -0.00162478 0)
(5.91362e-07 -0.00162943 0)
(2.91301e-08 -0.00163333 0)
(-5.7495e-07 -0.00162907 0)
(-1.41961e-07 -0.00162497 0)
(8.1285e-08 -0.000874636 0)
(4.63047e-07 -0.000877376 0)
(3.31509e-08 -0.000880087 0)
(-4.48978e-07 -0.000877124 0)
(-9.50876e-08 -0.000874753 0)
(3.89116e-08 -0.000819219 0)
(3.52124e-07 -0.000821727 0)
(3.64811e-08 -0.000824202 0)
(-3.40104e-07 -0.000821495 0)
(-5.60774e-08 -0.000819327 0)
(1.56427e-09 -0.0008449 0)
(2.51869e-07 -0.000847439 0)
(3.93849e-08 -0.000849903 0)
(-2.41748e-07 -0.000847208 0)
(-2.15375e-08 -0.000845009 0)
(-3.16548e-08 -0.000865309 0)
(1.60457e-07 -0.000867904 0)
(4.19422e-08 -0.000870399 0)
(-1.52117e-07 -0.000867668 0)
(9.31274e-09 -0.00086542 0)
(-6.01671e-08 -0.000868395 0)
(7.8843e-08 -0.000871004 0)
(4.41158e-08 -0.000873508 0)
(-7.21392e-08 -0.000870766 0)
(3.59463e-08 -0.000868507 0)
(-8.36962e-08 -0.000867146 0)
(7.55949e-09 -0.000869755 0)
(4.58783e-08 -0.000872256 0)
(-2.33798e-09 -0.000869516 0)
(5.81169e-08 -0.000867258 0)
(-1.02215e-07 -0.000866333 0)
(-5.32738e-08 -0.000868941 0)
(4.72171e-08 -0.000871441 0)
(5.71701e-08 -0.000868701 0)
(7.58039e-08 -0.000866445 0)
(-1.15778e-07 -0.000866203 0)
(-1.03689e-07 -0.000868815 0)
(4.81267e-08 -0.000871314 0)
(1.06418e-07 -0.000868573 0)
(8.90597e-08 -0.000866315 0)
(-1.24455e-07 -0.000866253 0)
(-1.43758e-07 -0.000868869 0)
(4.86037e-08 -0.000871369 0)
(1.45476e-07 -0.000868626 0)
(9.79499e-08 -0.000866366 0)
(-1.28333e-07 -0.000866283 0)
(-1.73585e-07 -0.000868904 0)
(4.86471e-08 -0.000871406 0)
(1.74449e-07 -0.00086866 0)
(1.02553e-07 -0.000866396 0)
(-1.27521e-07 -0.000866285 0)
(-1.93326e-07 -0.000868911 0)
(4.82588e-08 -0.000871415 0)
(1.93491e-07 -0.000868666 0)
(1.02966e-07 -0.000866399 0)
(-1.22154e-07 -0.00086628 0)
(-2.0319e-07 -0.000868911 0)
(4.74433e-08 -0.000871417 0)
(2.0281e-07 -0.000868664 0)
(9.93129e-08 -0.000866393 0)
(-1.12396e-07 -0.000866275 0)
(-2.03443e-07 -0.000868911 0)
(4.62084e-08 -0.00087142 0)
(2.02667e-07 -0.000868664 0)
(9.1738e-08 -0.000866389 0)
(-9.84356e-08 -0.000866271 0)
(-1.94405e-07 -0.000868912 0)
(4.45649e-08 -0.000871424 0)
(1.93379e-07 -0.000868664 0)
(8.04102e-08 -0.000866385 0)
(-8.04882e-08 -0.000866269 0)
(-1.76451e-07 -0.000868914 0)
(4.25266e-08 -0.000871428 0)
(1.75316e-07 -0.000868664 0)
(6.55205e-08 -0.000866383 0)
(-5.87938e-08 -0.000866266 0)
(-1.5001e-07 -0.000868915 0)
(4.01102e-08 -0.000871432 0)
(1.489e-07 -0.000868664 0)
(4.72816e-08 -0.00086638 0)
(-3.36158e-08 -0.000866264 0)
(-1.15561e-07 -0.000868916 0)
(3.73355e-08 -0.000871435 0)
(1.14605e-07 -0.000868664 0)
(2.5927e-08 -0.000866378 0)
(-5.24065e-09 -0.000866263 0)
(-7.36324e-08 -0.000868917 0)
(3.4225e-08 -0.000871437 0)
(7.29524e-08 -0.000868664 0)
(1.71003e-09 -0.000866377 0)
(2.60248e-08 -0.000866262 0)
(-2.48012e-08 -0.000868917 0)
(3.08039e-08 -0.000871439 0)
(2.45099e-08 -0.000868663 0)
(-2.50978e-08 -0.000866377 0)
(5.98546e-08 -0.000866263 0)
(3.03138e-08 -0.000868917 0)
(2.70998e-08 -0.000871439 0)
(-3.01117e-08 -0.000868663 0)
(-5.42085e-08 -0.000866377 0)
(9.59061e-08 -0.000866264 0)
(9.10537e-08 -0.000868916 0)
(2.3143e-08 -0.000871437 0)
(-9.02631e-08 -0.000868662 0)
(-8.5319e-08 -0.000866379 0)
(1.33822e-07 -0.000866267 0)
(1.56725e-07 -0.000868915 0)
(1.89654e-08 -0.000871435 0)
(-1.5526e-07 -0.00086866 0)
(-1.18114e-07 -0.000866381 0)
(1.73234e-07 -0.000866271 0)
(2.26604e-07 -0.000868913 0)
(1.46012e-08 -0.00087143 0)
(-2.2439e-07 -0.000868658 0)
(-1.52268e-07 -0.000866385 0)
(2.13765e-07 -0.000866276 0)
(2.99942e-07 -0.000868911 0)
(1.00858e-08 -0.000871424 0)
(-2.96915e-07 -0.000868656 0)
(-1.87446e-07 -0.00086639 0)
(2.55031e-07 -0.000866283 0)
(3.75973e-07 -0.000868909 0)
(5.456e-09 -0.000871416 0)
(-3.72078e-07 -0.000868653 0)
(-2.23311e-07 -0.000866396 0)
(2.96647e-07 -0.000866292 0)
(4.53918e-07 -0.000868905 0)
(7.49578e-10 -0.000871406 0)
(-4.49114e-07 -0.00086865 0)
(-2.59522e-07 -0.000866404 0)
(3.38228e-07 -0.000866301 0)
(5.32992e-07 -0.000868901 0)
(-3.99528e-09 -0.000871394 0)
(-5.27247e-07 -0.000868647 0)
(-2.95738e-07 -0.000866414 0)
(3.79395e-07 -0.000866313 0)
(6.12412e-07 -0.000868897 0)
(-8.74015e-09 -0.00087138 0)
(-6.05706e-07 -0.000868643 0)
(-3.31623e-07 -0.000866425 0)
(4.19774e-07 -0.000866326 0)
(6.91404e-07 -0.000868891 0)
(-1.34468e-08 -0.000871364 0)
(-6.8373e-07 -0.000868639 0)
(-3.66848e-07 -0.000866437 0)
(4.59007e-07 -0.000866341 0)
(7.69211e-07 -0.000868886 0)
(-1.80777e-08 -0.000871346 0)
(-7.60569e-07 -0.000868634 0)
(-4.01092e-07 -0.000866451 0)
(4.96747e-07 -0.000866358 0)
(8.45097e-07 -0.000868879 0)
(-2.25962e-08 -0.000871325 0)
(-8.355e-07 -0.000868629 0)
(-4.34051e-07 -0.000866467 0)
(5.32668e-07 -0.000866376 0)
(9.18358e-07 -0.000868872 0)
(-2.69669e-08 -0.000871303 0)
(-9.07829e-07 -0.000868623 0)
(-4.65434e-07 -0.000866484 0)
(5.66465e-07 -0.000866395 0)
(9.88327e-07 -0.000868865 0)
(-3.11566e-08 -0.000871278 0)
(-9.76898e-07 -0.000868617 0)
(-4.94969e-07 -0.000866503 0)
(5.97857e-07 -0.000866417 0)
(1.05438e-06 -0.000868856 0)
(-3.51338e-08 -0.000871251 0)
(-1.0421e-06 -0.000868611 0)
(-5.22408e-07 -0.000866523 0)
(6.26593e-07 -0.000866439 0)
(1.11595e-06 -0.000868848 0)
(-3.88697e-08 -0.000871222 0)
(-1.10286e-06 -0.000868604 0)
(-5.47526e-07 -0.000866544 0)
(6.52451e-07 -0.000866464 0)
(1.17253e-06 -0.000868838 0)
(-4.23381e-08 -0.000871191 0)
(-1.15868e-06 -0.000868597 0)
(-5.70125e-07 -0.000866567 0)
(6.75242e-07 -0.000866489 0)
(1.22365e-06 -0.000868829 0)
(-4.55163e-08 -0.000871159 0)
(-1.20911e-06 -0.00086859 0)
(-5.90036e-07 -0.000866592 0)
(6.94811e-07 -0.000866516 0)
(1.26893e-06 -0.000868818 0)
(-4.83845e-08 -0.000871125 0)
(-1.25378e-06 -0.000868582 0)
(-6.07119e-07 -0.000866617 0)
(7.1104e-07 -0.000866544 0)
(1.30807e-06 -0.000868808 0)
(-5.09268e-08 -0.000871089 0)
(-1.29238e-06 -0.000868574 0)
(-6.21268e-07 -0.000866643 0)
(7.23849e-07 -0.000866573 0)
(1.34082e-06 -0.000868797 0)
(-5.31309e-08 -0.000871051 0)
(-1.32466e-06 -0.000868566 0)
(-6.32409e-07 -0.000866671 0)
(7.33194e-07 -0.000866603 0)
(1.36701e-06 -0.000868785 0)
(-5.49885e-08 -0.000871013 0)
(-1.35047e-06 -0.000868558 0)
(-6.405e-07 -0.000866699 0)
(7.3907e-07 -0.000866634 0)
(1.38656e-06 -0.000868774 0)
(-5.64951e-08 -0.000870973 0)
(-1.36972e-06 -0.000868549 0)
(-6.45536e-07 -0.000866728 0)
(7.4151e-07 -0.000866665 0)
(1.39947e-06 -0.000868762 0)
(-5.76504e-08 -0.000870933 0)
(-1.38242e-06 -0.00086854 0)
(-6.47541e-07 -0.000866758 0)
(7.40583e-07 -0.000866697 0)
(1.4058e-06 -0.00086875 0)
(-5.8458e-08 -0.000870891 0)
(-1.38862e-06 -0.000868531 0)
(-6.46576e-07 -0.000866788 0)
(7.36396e-07 -0.000866729 0)
(1.40569e-06 -0.000868738 0)
(-5.89252e-08 -0.00087085 0)
(-1.38847e-06 -0.000868523 0)
(-6.42731e-07 -0.000866819 0)
(7.29087e-07 -0.000866761 0)
(1.39937e-06 -0.000868726 0)
(-5.90634e-08 -0.000870807 0)
(-1.38219e-06 -0.000868514 0)
(-6.36128e-07 -0.000866849 0)
(7.18828e-07 -0.000866794 0)
(1.38712e-06 -0.000868714 0)
(-5.88872e-08 -0.000870765 0)
(-1.37006e-06 -0.000868505 0)
(-6.26915e-07 -0.00086688 0)
(7.05819e-07 -0.000866826 0)
(1.3693e-06 -0.000868702 0)
(-5.84149e-08 -0.000870723 0)
(-1.35243e-06 -0.000868496 0)
(-6.15268e-07 -0.000866911 0)
(6.90289e-07 -0.000866858 0)
(1.34631e-06 -0.00086869 0)
(-5.76676e-08 -0.00087068 0)
(-1.32971e-06 -0.000868487 0)
(-6.01387e-07 -0.000866942 0)
(6.72489e-07 -0.00086689 0)
(1.31862e-06 -0.000868679 0)
(-5.66693e-08 -0.000870638 0)
(-1.30236e-06 -0.000868479 0)
(-5.85493e-07 -0.000866972 0)
(6.52688e-07 -0.000866922 0)
(1.28675e-06 -0.000868667 0)
(-5.54461e-08 -0.000870597 0)
(-1.27089e-06 -0.00086847 0)
(-5.67823e-07 -0.000867002 0)
(6.31175e-07 -0.000866953 0)
(1.25124e-06 -0.000868656 0)
(-5.40264e-08 -0.000870556 0)
(-1.23583e-06 -0.000868462 0)
(-5.4863e-07 -0.000867031 0)
(6.08249e-07 -0.000866983 0)
(1.21268e-06 -0.000868645 0)
(-5.24399e-08 -0.000870516 0)
(-1.19777e-06 -0.000868454 0)
(-5.2818e-07 -0.00086706 0)
(5.84219e-07 -0.000867013 0)
(1.17167e-06 -0.000868634 0)
(-5.07176e-08 -0.000870477 0)
(-1.15731e-06 -0.000868446 0)
(-5.06744e-07 -0.000867088 0)
(5.59397e-07 -0.000867042 0)
(1.12882e-06 -0.000868623 0)
(-4.88908e-08 -0.000870439 0)
(-1.11504e-06 -0.000868439 0)
(-4.846e-07 -0.000867115 0)
(5.34097e-07 -0.00086707 0)
(1.08476e-06 -0.000868613 0)
(-4.69913e-08 -0.000870402 0)
(-1.0716e-06 -0.000868432 0)
(-4.62024e-07 -0.000867142 0)
(5.08629e-07 -0.000867097 0)
(1.04012e-06 -0.000868603 0)
(-4.50504e-08 -0.000870365 0)
(-1.02758e-06 -0.000868425 0)
(-4.39292e-07 -0.000867168 0)
(4.83296e-07 -0.000867123 0)
(9.95484e-07 -0.000868594 0)
(-4.30986e-08 -0.000870331 0)
(-9.83593e-07 -0.000868418 0)
(-4.16672e-07 -0.000867192 0)
(4.5839e-07 -0.000867148 0)
(9.51453e-07 -0.000868585 0)
(-4.11651e-08 -0.000870297 0)
(-9.4021e-07 -0.000868412 0)
(-3.94424e-07 -0.000867216 0)
(4.34187e-07 -0.000867173 0)
(9.08578e-07 -0.000868576 0)
(-3.92775e-08 -0.000870264 0)
(-8.97979e-07 -0.000868406 0)
(-3.72794e-07 -0.000867239 0)
(4.10947e-07 -0.000867196 0)
(8.67375e-07 -0.000868568 0)
(-3.74613e-08 -0.000870233 0)
(-8.57409e-07 -0.0008684 0)
(-3.52012e-07 -0.000867262 0)
(3.88906e-07 -0.000867219 0)
(8.28317e-07 -0.00086856 0)
(-3.57394e-08 -0.000870202 0)
(-8.18965e-07 -0.000868394 0)
(-3.32291e-07 -0.000867283 0)
(3.68277e-07 -0.00086724 0)
(7.91822e-07 -0.000868553 0)
(-3.41319e-08 -0.000870173 0)
(-7.83058e-07 -0.000868389 0)
(-3.13821e-07 -0.000867303 0)
(3.49247e-07 -0.000867261 0)
(7.58253e-07 -0.000868545 0)
(-3.26558e-08 -0.000870144 0)
(-7.50043e-07 -0.000868384 0)
(-2.9677e-07 -0.000867323 0)
(3.31973e-07 -0.000867282 0)
(7.27905e-07 -0.000868538 0)
(-3.13248e-08 -0.000870117 0)
(-7.20211e-07 -0.000868379 0)
(-2.81279e-07 -0.000867342 0)
(3.16579e-07 -0.000867301 0)
(7.0101e-07 -0.000868532 0)
(-3.0149e-08 -0.00087009 0)
(-6.93785e-07 -0.000868374 0)
(-2.67462e-07 -0.000867361 0)
(3.03159e-07 -0.00086732 0)
(6.77723e-07 -0.000868525 0)
(-2.91349e-08 -0.000870064 0)
(-6.70918e-07 -0.00086837 0)
(-2.55405e-07 -0.000867379 0)
(2.9177e-07 -0.000867339 0)
(6.5813e-07 -0.000868519 0)
(-2.82855e-08 -0.000870038 0)
(-6.51688e-07 -0.000868366 0)
(-2.45162e-07 -0.000867397 0)
(2.82436e-07 -0.000867357 0)
(6.42236e-07 -0.000868513 0)
(-2.75997e-08 -0.000870013 0)
(-6.36099e-07 -0.000868361 0)
(-2.36756e-07 -0.000867414 0)
(2.75145e-07 -0.000867375 0)
(6.29974e-07 -0.000868507 0)
(-2.70734e-08 -0.000869988 0)
(-6.24081e-07 -0.000868357 0)
(-2.30182e-07 -0.000867431 0)
(2.69858e-07 -0.000867394 0)
(6.21218e-07 -0.0008685 0)
(-2.66997e-08 -0.000869962 0)
(-6.15505e-07 -0.000868353 0)
(-2.25408e-07 -0.000867449 0)
(2.66524e-07 -0.000867413 0)
(6.15802e-07 -0.000868494 0)
(-2.64701e-08 -0.000869935 0)
(-6.10205e-07 -0.000868349 0)
(-2.22391e-07 -0.000867467 0)
(2.65041e-07 -0.000867429 0)
(6.13467e-07 -0.000868489 0)
(-2.63723e-08 -0.000869913 0)
(-6.07922e-07 -0.000868345 0)
(-2.21042e-07 -0.000867481 0)
)
;

boundaryField
{
    BotWall
    {
        type            fixedValue;
        value           uniform (0 0 0);
    }
    FreeStream
    {
        type            zeroGradient;
    }
    FrontNBack
    {
        type            empty;
    }
    LeftSide
    {
        type            symmetryPlane;
    }
    RightSide
    {
        type            symmetryPlane;
    }
}


// ************************************************************************* //
