/*--------------------------------*- C++ -*----------------------------------*\
| =========                 |                                                 |
| \\      /  F ield         | OpenFOAM: The Open Source CFD Toolbox           |
|  \\    /   O peration     | Version:  2.4.0                                 |
|   \\  /    A nd           | Web:      www.OpenFOAM.org                      |
|    \\/     M anipulation  |                                                 |
\*---------------------------------------------------------------------------*/
FoamFile
{
    version     2.0;
    format      ascii;
    class       volScalarField;
    location    "1.6";
    object      p;
}
// * * * * * * * * * * * * * * * * * * * * * * * * * * * * * * * * * * * * * //

dimensions      [1 -1 -2 0 0 0 0];

internalField   nonuniform List<scalar> 
8000
(
-4.46264
-4.39978
-4.3394
-4.28709
-4.24085
-4.1988
-4.16147
-4.12772
-4.09485
-4.05101
-4.00135
-3.96675
-3.80037
-3.82261
-3.77618
-3.69889
-3.66181
-3.28882
-2.02513
-3.83843
-8.63357
-7.08383
-7.75667
-9.78477
-9.28547
-4.49384
-1.98599
-1.66228
-1.62126
-1.63319
-1.6875
-1.74349
-1.76226
-1.73613
-1.71009
-1.70736
-1.71707
-1.72516
-1.7288
-1.73054
-1.7316
-1.73201
-1.73209
-1.73227
-1.73255
-1.73288
-1.73313
-1.73336
-1.7336
-1.73383
-0.569954
-0.533755
-0.491005
-0.451144
-0.415601
-0.383548
-0.355002
-0.329678
-0.308067
-0.289351
-0.27423
-0.262161
-0.253316
-0.241909
-0.230445
-0.200236
-0.125049
-0.00236756
0.114489
0.25405
0.330913
0.424756
0.535367
0.605537
0.486759
0.0195902
0.350917
-6.93019
-5.98003
-7.55731
-8.64906
-3.10362
-0.996
-0.405078
-0.677712
-1.32438
-1.85838
-1.83942
-1.77208
-1.75224
-1.75693
-1.76023
-1.76078
-1.76126
-1.76283
-1.76383
-1.76402
-1.76369
-1.76465
-1.76549
0.131044
0.136144
0.141065
0.147187
0.15549
0.165843
0.178418
0.192888
0.209567
0.228088
0.248881
0.271474
0.2964
0.322963
0.351958
0.382649
0.416007
0.450376
0.485292
0.519017
0.556278
0.601208
0.669391
0.772052
0.90979
1.04749
1.23245
1.39673
1.55086
1.52088
1.03898
-2.53784
-3.60701
-8.17762
-9.61396
-7.17049
-1.46398
-0.33846
-0.441855
-1.37528
-1.86103
-1.82343
-1.76761
-1.76895
-1.78726
-1.79411
-1.79467
-1.7947
-1.79516
-1.79575
2.54159
2.5317
2.52418
2.52042
2.51981
2.52203
2.52694
2.53459
2.54494
2.55805
2.57384
2.59243
2.61374
2.63793
2.66488
2.6948
2.72748
2.76312
2.80138
2.84237
2.88574
2.93186
2.98032
3.03176
3.08539
3.1416
3.20013
3.26844
3.3439
3.42185
3.51024
3.61754
3.77572
3.80267
3.40008
1.7629
-0.0894683
-6.4437
-7.27214
-7.93045
-2.21705
-0.867538
-0.19904
-1.36773
-1.84585
-1.84014
-1.8152
-1.81873
-1.82477
-1.8273
3.15185
3.13401
3.11562
3.10105
3.09045
3.08338
3.07965
3.07928
3.08226
3.08864
3.09838
3.11156
3.12813
3.14818
3.17167
3.19871
3.22921
3.26337
3.30101
3.34241
3.38734
3.43614
3.48843
3.54467
3.60422
3.66761
3.73383
3.80366
3.87576
3.9512
4.02826
4.11015
4.19657
4.291
4.37631
4.44316
4.55044
4.61989
4.65496
4.54674
0.114753
-2.93008
-6.55403
-6.92188
-2.73437
-1.05827
-1.16278
-1.78081
-1.85336
-1.85381
3.8746
3.85096
3.82661
3.80605
3.78908
3.7751
3.76389
3.75544
3.74974
3.74677
3.74649
3.74889
3.7539
3.76155
3.77175
3.78451
3.79976
3.81752
3.83768
3.86033
3.88528
3.91269
3.94234
3.97443
4.00869
4.04545
4.08431
4.12579
4.16935
4.21572
4.26413
4.31568
4.36933
4.42679
4.48701
4.55332
4.62606
4.70834
4.78102
4.85728
4.93679
5.04879
5.04433
3.86765
1.0106
-5.61951
-6.06992
-3.43888
-2.09304
-1.81045
4.0112
3.98255
3.95289
3.9274
3.90579
3.88732
3.87178
3.85916
3.84948
3.84273
3.83892
3.83802
3.84005
3.84501
3.85291
3.86375
3.87756
3.89435
3.91415
3.93697
3.96287
3.99185
4.02397
4.05926
4.09777
4.13953
4.18461
4.23304
4.28488
4.34016
4.39893
4.46127
4.52711
4.59662
4.66956
4.74619
4.82601
4.90944
4.99583
5.08608
5.18094
5.27974
5.37378
5.45382
5.58258
5.79245
5.84194
0.722727
-3.35487
-3.28983
3.33768
3.31439
3.28893
3.26601
3.24569
3.22743
3.21102
3.19643
3.18365
3.17268
3.16349
3.15605
3.15035
3.14635
3.14403
3.14338
3.14435
3.14694
3.15109
3.15681
3.16405
3.17279
3.18297
3.19461
3.20763
3.22204
3.23776
3.25482
3.27307
3.2926
3.31328
3.33516
3.35812
3.38222
3.40732
3.43353
3.46068
3.48896
3.51818
3.54853
3.57982
3.61261
3.64725
3.68503
3.7237
3.75265
3.7708
3.78918
3.68106
1.77886
2.92582
2.90644
2.88655
2.86905
2.85359
2.83967
2.82718
2.81614
2.80654
2.79838
2.79166
2.78637
2.78249
2.78002
2.77894
2.77923
2.7809
2.78391
2.78825
2.79391
2.80087
2.8091
2.8186
2.82933
2.84128
2.85441
2.86871
2.88415
2.90068
2.91827
2.93691
2.95654
2.97714
2.99865
3.02104
3.04423
3.0682
3.09288
3.11814
3.14398
3.17027
3.19694
3.22387
3.25097
3.27799
3.30458
3.33308
3.35641
3.38664
3.41705
1.57116
1.56201
1.55113
1.54073
1.53107
1.52197
1.51335
1.5052
1.49755
1.49038
1.48371
1.47752
1.47182
1.46659
1.46184
1.45755
1.45372
1.45032
1.44736
1.44481
1.44266
1.44089
1.43947
1.4384
1.43765
1.43719
1.43699
1.43703
1.43728
1.4377
1.43824
1.4389
1.43961
1.44034
1.44104
1.44168
1.44218
1.44255
1.44263
1.44243
1.44184
1.44086
1.43932
1.43726
1.43447
1.43103
1.42688
1.46329
1.4128
1.40529
0.925644
0.917063
0.908649
0.901397
0.895012
0.889278
0.88416
0.879671
0.875824
0.87262
0.870061
0.868148
0.86688
0.866257
0.86628
0.866946
0.868254
0.870202
0.872786
0.876006
0.879856
0.884334
0.889435
0.895155
0.901487
0.90843
0.915974
0.924118
0.932851
0.942175
0.952075
0.962548
0.973578
0.985178
0.997325
1.01003
1.02327
1.03709
1.05145
1.0663
1.08167
1.09761
1.11404
1.13104
1.14838
1.16613
1.185
1.23667
1.21164
1.24728
-0.486816
-0.489672
-0.493371
-0.497043
-0.500522
-0.50385
-0.507062
-0.510163
-0.513149
-0.516017
-0.518767
-0.521397
-0.523904
-0.526288
-0.528547
-0.530679
-0.532681
-0.534551
-0.536287
-0.537886
-0.539347
-0.540664
-0.541836
-0.542858
-0.543728
-0.544438
-0.544989
-0.545369
-0.545579
-0.545605
-0.545449
-0.545091
-0.544537
-0.543759
-0.542774
-0.54154
-0.540078
-0.538327
-0.536185
-0.534048
-0.531442
-0.528476
-0.525343
-0.521874
-0.517463
-0.509601
-0.49789
-0.493267
-0.564152
-0.786949
-1.42385
-1.42464
-1.42511
-1.42531
-1.42535
-1.42523
-1.42496
-1.42451
-1.42389
-1.42309
-1.42209
-1.42091
-1.41953
-1.41794
-1.41614
-1.41414
-1.41191
-1.40947
-1.4068
-1.4039
-1.40077
-1.39741
-1.3938
-1.38996
-1.38588
-1.38156
-1.37699
-1.37218
-1.36712
-1.36182
-1.35628
-1.35049
-1.34447
-1.3382
-1.33171
-1.32499
-1.31805
-1.31088
-1.30352
-1.29594
-1.28828
-1.28067
-1.27299
-1.2632
-1.24713
-1.2292
-1.25702
-1.45689
-2.36339
-2.56227
-2.63844
-2.63544
-2.63227
-2.62957
-2.62734
-2.62551
-2.62405
-2.62296
-2.62222
-2.62185
-2.62183
-2.62216
-2.62284
-2.62386
-2.62522
-2.6269
-2.62892
-2.63125
-2.6339
-2.63686
-2.64012
-2.64369
-2.64753
-2.65167
-2.65608
-2.66077
-2.66571
-2.67092
-2.67635
-2.68205
-2.68794
-2.69407
-2.70037
-2.70691
-2.71355
-2.72044
-2.72735
-2.7345
-2.74165
-2.74933
-2.75718
-2.76387
-2.76369
-2.7564
-2.78206
-2.97364
-3.39981
-3.72463
-3.72662
-3.31388
-3.83342
-3.83092
-3.82869
-3.82678
-3.82501
-3.82331
-3.82167
-3.82011
-3.81863
-3.81723
-3.8159
-3.81464
-3.81345
-3.81232
-3.81124
-3.8102
-3.80919
-3.8082
-3.80721
-3.80623
-3.80521
-3.80416
-3.80305
-3.80187
-3.80058
-3.79918
-3.79763
-3.79593
-3.794
-3.79189
-3.78949
-3.78686
-3.78386
-3.78059
-3.77686
-3.77279
-3.76817
-3.76328
-3.75804
-3.75255
-3.74399
-3.72693
-3.70454
-3.73848
-3.97814
-4.8585
-4.59608
-3.75662
-2.78739
-2.36414
-4.53684
-4.53084
-4.52335
-4.51654
-4.51084
-4.50615
-4.50239
-4.49954
-4.49762
-4.49662
-4.49654
-4.49737
-4.49913
-4.5018
-4.50539
-4.50989
-4.51531
-4.52165
-4.52892
-4.53711
-4.54624
-4.55631
-4.56735
-4.57935
-4.59236
-4.60635
-4.62138
-4.63744
-4.6546
-4.67283
-4.69222
-4.71272
-4.73446
-4.75734
-4.78155
-4.80699
-4.83412
-4.86287
-4.8922
-4.9167
-4.93314
-4.97545
-5.17633
-5.63062
-5.08213
-3.39076
-2.67647
-2.3846
-2.3186
-2.31724
-6.24243
-6.23158
-6.22229
-6.215
-6.20897
-6.20391
-6.19982
-6.19675
-6.19471
-6.19372
-6.19376
-6.19483
-6.19693
-6.20005
-6.20419
-6.20933
-6.21545
-6.22257
-6.23066
-6.23971
-6.24972
-6.26067
-6.27256
-6.28537
-6.29909
-6.31372
-6.32923
-6.34562
-6.36284
-6.38091
-6.39977
-6.41941
-6.43976
-6.46082
-6.48253
-6.50502
-6.52809
-6.55059
-6.56945
-6.5863
-6.63073
-6.77557
-6.97372
-6.39384
-3.7081
-2.52413
-2.37894
-2.37596
-2.37685
-2.37688
-5.8487
-5.82837
-5.80447
-5.78462
-5.7696
-5.75838
-5.75014
-5.74443
-5.74087
-5.73915
-5.73898
-5.7401
-5.74227
-5.74532
-5.74906
-5.75335
-5.75807
-5.76313
-5.76844
-5.77396
-5.77965
-5.78549
-5.7915
-5.79771
-5.80415
-5.81092
-5.81807
-5.82575
-5.83406
-5.84319
-5.85328
-5.86457
-5.87723
-5.89155
-5.90772
-5.92612
-5.94706
-5.97089
-5.99691
-6.02319
-6.05051
-6.10153
-6.23581
-6.43734
-5.71075
-3.14828
-2.61258
-2.42077
-2.4119
-2.44418
-8.3402
-8.27486
-8.21683
-8.17434
-8.14339
-8.12068
-8.10472
-8.09463
-8.08967
-8.08913
-8.0924
-8.09893
-8.10829
-8.12006
-8.13392
-8.14957
-8.16679
-8.18535
-8.2051
-8.22591
-8.24769
-8.27035
-8.2939
-8.3183
-8.34364
-8.36995
-8.39741
-8.42614
-8.45644
-8.48853
-8.52289
-8.55988
-8.60021
-8.64442
-8.69357
-8.74848
-8.81066
-8.88134
-8.96251
-9.05586
-9.16482
-9.29495
-9.45469
-9.63221
-9.75756
-9.74319
-8.50861
-3.33894
-2.28237
-2.54636
-3.20436
-3.63844
-4.07221
-4.44346
-4.76503
-5.05238
-5.31201
-5.54674
-5.75879
-5.95026
-6.12302
-6.27865
-6.41844
-6.54347
-6.65463
-6.75264
-6.83806
-6.91135
-6.97284
-7.02274
-7.06117
-7.08815
-7.10359
-7.10732
-7.09904
-7.07838
-7.04478
-6.99762
-6.93605
-6.85914
-6.76564
-6.65422
-6.52309
-6.37036
-6.19348
-5.98985
-5.75582
-5.48774
-5.18074
-4.82926
-4.42661
-3.96246
-3.42853
-2.82695
-2.17935
-1.45296
-0.407272
-2.77488
-8.4623
-2.74965
-1.73406
-1.73425
-1.73444
-1.73465
-1.73485
-1.73505
-1.73525
-1.73544
-1.73563
-1.73581
-1.73599
-1.73611
-1.73612
-1.73643
-1.73659
-1.73675
-1.73691
-1.73707
-1.73722
-1.73737
-1.73751
-1.73766
-1.73779
-1.73793
-1.73806
-1.73804
-1.73831
-1.73844
-1.73856
-1.73861
-1.73878
-1.7389
-1.73902
-1.73913
-1.73924
-1.73935
-1.73945
-1.73956
-1.73964
-1.73964
-1.73983
-1.73993
-1.74004
-1.74014
-1.74024
-1.74031
-1.74029
-1.74045
-1.74048
-1.74059
-1.76261
-1.76303
-1.76355
-1.76394
-1.76427
-1.76458
-1.76488
-1.76516
-1.76543
-1.76569
-1.76591
-1.76596
-1.76636
-1.76656
-1.76676
-1.76679
-1.76714
-1.76735
-1.76753
-1.76776
-1.76793
-1.76809
-1.76824
-1.76839
-1.76853
-1.76867
-1.7688
-1.76893
-1.76905
-1.76916
-1.76927
-1.76938
-1.76948
-1.76958
-1.76967
-1.76976
-1.76984
-1.76992
-1.76999
-1.77006
-1.77013
-1.77019
-1.77025
-1.77031
-1.77036
-1.77041
-1.77045
-1.77049
-1.77051
-1.77054
-1.79611
-1.79624
-1.79635
-1.79645
-1.79653
-1.79662
-1.79699
-1.79715
-1.79731
-1.79746
-1.79755
-1.79748
-1.79781
-1.79795
-1.79806
-1.79818
-1.79839
-1.79854
-1.79869
-1.79883
-1.79897
-1.7991
-1.79923
-1.79936
-1.79949
-1.79961
-1.79973
-1.79985
-1.79996
-1.80007
-1.80017
-1.80028
-1.80037
-1.80047
-1.80055
-1.80064
-1.80072
-1.8008
-1.80087
-1.80094
-1.80101
-1.80107
-1.80113
-1.80118
-1.80124
-1.80129
-1.80135
-1.80139
-1.80143
-1.80147
-1.82789
-1.82797
-1.82808
-1.82825
-1.82831
-1.82851
-1.82872
-1.82891
-1.8291
-1.82929
-1.82946
-1.82963
-1.8298
-1.82996
-1.83012
-1.83027
-1.83041
-1.83056
-1.83069
-1.83082
-1.83095
-1.83107
-1.83118
-1.83129
-1.8314
-1.8315
-1.83159
-1.83168
-1.83177
-1.83184
-1.83191
-1.83198
-1.83203
-1.83209
-1.83214
-1.83218
-1.83221
-1.83225
-1.83227
-1.83228
-1.83229
-1.8323
-1.8323
-1.83229
-1.83226
-1.83219
-1.83215
-1.83342
-1.83343
-1.83338
-1.85652
-1.85787
-1.85909
-1.86014
-1.86087
-1.86137
-1.86169
-1.86193
-1.86212
-1.86231
-1.8625
-1.86268
-1.86285
-1.86301
-1.86317
-1.86332
-1.86347
-1.86361
-1.86374
-1.86387
-1.864
-1.86412
-1.86424
-1.86435
-1.86446
-1.86456
-1.86466
-1.86476
-1.86485
-1.86475
-1.8649
-1.86498
-1.86504
-1.86512
-1.8652
-1.86527
-1.86534
-1.86539
-1.86505
-1.86517
-1.86524
-1.86528
-1.86537
-1.86544
-1.86545
-1.86545
-1.86546
-1.86543
-1.86537
-1.86448
-1.82697
-1.82302
-1.85665
-1.88312
-1.89347
-1.89564
-1.89607
-1.89633
-1.89654
-1.89671
-1.89686
-1.89701
-1.89712
-1.89702
-1.89717
-1.89751
-1.89768
-1.89777
-1.89757
-1.89692
-1.89758
-1.89741
-1.89748
-1.89809
-1.89814
-1.89819
-1.89823
-1.89826
-1.89829
-1.8983
-1.89833
-1.89833
-1.89832
-1.8983
-1.89831
-1.89825
-1.8982
-1.89897
-1.8989
-1.89886
-1.89881
-1.89878
-1.89873
-1.89869
-1.89865
-1.8986
-1.89855
-1.8985
-1.89845
-1.89839
-2.38016
-1.87585
-1.80316
-1.84501
-1.89332
-1.91872
-1.92744
-1.92987
-1.93047
-1.93067
-1.93105
-1.93122
-1.9321
-1.93224
-1.93235
-1.93246
-1.93256
-1.93266
-1.93274
-1.93282
-1.93289
-1.93296
-1.93301
-1.93306
-1.9331
-1.93314
-1.93316
-1.93318
-1.93319
-1.9332
-1.93319
-1.93288
-1.93328
-1.93328
-1.93322
-1.93322
-1.9332
-1.93316
-1.93302
-1.93315
-1.93309
-1.93303
-1.93296
-1.93288
-1.93279
-1.9327
-1.9326
-1.93249
-1.93238
-1.93226
-0.0471885
-0.992511
-1.12933
-1.34613
-1.73948
-1.92509
-1.96244
-1.96723
-1.9679
-1.96805
-1.96864
-1.96872
-1.96884
-1.96893
-1.96899
-1.96905
-1.9691
-1.96914
-1.96917
-1.9692
-1.96922
-1.96924
-1.96924
-1.96923
-1.96922
-1.9692
-1.96918
-1.96915
-1.9691
-1.96905
-1.96899
-1.96893
-1.96886
-1.96879
-1.96871
-1.96862
-1.96852
-1.96842
-1.96831
-1.96819
-1.96808
-1.96795
-1.96782
-1.96769
-1.96755
-1.9674
-1.96725
-1.96709
-1.96693
-1.96677
3.35965
2.45668
1.65082
0.242653
-1.39949
-1.93702
-2.00165
-2.00655
-2.00701
-2.00706
-2.00706
-2.0071
-2.00706
-2.0071
-2.00707
-2.00706
-2.007
-2.00701
-2.00692
-2.00692
-2.00686
-2.0068
-2.00673
-2.00665
-2.00657
-2.00648
-2.00639
-2.00629
-2.00618
-2.00606
-2.00594
-2.00581
-2.00567
-2.00553
-2.00538
-2.00522
-2.00506
-2.00489
-2.00472
-2.00454
-2.00435
-2.00416
-2.00396
-2.00376
-2.00355
-2.00333
-2.00311
-2.00288
-2.00265
-2.00242
1.39802
1.37657
1.23921
0.518409
-1.1642
-1.9459
-2.03959
-2.04591
-2.04628
-2.04628
-2.04623
-2.04616
-2.0461
-2.04602
-2.04598
-2.04589
-2.04579
-2.04569
-2.04557
-2.04545
-2.04533
-2.0452
-2.04506
-2.0449
-2.04475
-2.04458
-2.04441
-2.04422
-2.04404
-2.04384
-2.04364
-2.04343
-2.04321
-2.04299
-2.04276
-2.04252
-2.04228
-2.04203
-2.04178
-2.04152
-2.04125
-2.04098
-2.0407
-2.04041
-2.04012
-2.03983
-2.03953
-2.03922
-2.03891
-2.0386
1.18573
0.909746
0.447922
-0.503323
-1.65813
-2.04696
-2.08587
-2.0873
-2.08727
-2.08716
-2.08703
-2.08689
-2.08675
-2.08657
-2.08641
-2.08625
-2.08608
-2.08589
-2.08569
-2.08549
-2.08527
-2.08504
-2.08481
-2.08457
-2.08432
-2.08406
-2.0838
-2.08352
-2.08324
-2.08295
-2.08266
-2.08235
-2.08204
-2.08172
-2.0814
-2.08107
-2.08073
-2.08038
-2.08003
-2.07968
-2.07931
-2.07894
-2.07857
-2.07819
-2.0778
-2.07741
-2.07701
-2.0766
-2.0762
-2.07579
-1.45271
-1.75405
-1.86498
-1.99366
-2.08893
-2.12948
-2.13087
-2.12995
-2.12976
-2.12957
-2.12934
-2.12909
-2.12882
-2.12855
-2.12826
-2.12797
-2.12767
-2.12736
-2.12704
-2.12672
-2.12638
-2.12604
-2.12569
-2.12533
-2.12497
-2.12459
-2.12421
-2.12382
-2.12343
-2.12302
-2.12261
-2.12219
-2.12177
-2.12133
-2.12089
-2.12045
-2.11999
-2.11953
-2.11907
-2.1186
-2.11812
-2.11763
-2.11714
-2.11665
-2.11615
-2.11564
-2.11513
-2.11461
-2.11409
-2.11356
-2.53916
-2.44576
-2.28845
-2.21887
-2.18374
-2.17458
-2.17444
-2.1743
-2.17401
-2.17363
-2.17325
-2.17286
-2.17247
-2.17207
-2.17166
-2.17124
-2.17082
-2.17038
-2.16994
-2.16949
-2.16903
-2.16856
-2.16808
-2.1676
-2.1671
-2.1666
-2.16609
-2.16556
-2.16504
-2.1645
-2.16395
-2.1634
-2.16284
-2.16227
-2.1617
-2.16112
-2.16053
-2.15993
-2.15933
-2.15872
-2.1581
-2.15748
-2.15685
-2.15622
-2.15558
-2.15493
-2.15428
-2.15362
-2.15297
-2.1523
-2.66064
-2.35184
-2.22906
-2.21882
-2.21987
-2.21973
-2.2193
-2.21888
-2.21846
-2.21803
-2.2176
-2.21716
-2.2167
-2.21622
-2.21573
-2.21523
-2.21471
-2.21418
-2.21363
-2.21307
-2.2125
-2.21192
-2.21132
-2.21071
-2.21009
-2.20946
-2.20881
-2.20816
-2.20749
-2.20682
-2.20613
-2.20543
-2.20473
-2.20401
-2.20328
-2.20255
-2.20181
-2.20106
-2.2003
-2.19953
-2.19876
-2.19798
-2.19719
-2.1964
-2.1956
-2.1948
-2.19398
-2.19317
-2.19235
-2.19153
-2.27482
-2.26857
-2.26913
-2.26883
-2.26834
-2.2679
-2.26744
-2.26696
-2.26646
-2.26593
-2.26537
-2.26479
-2.26419
-2.26358
-2.26294
-2.26229
-2.26161
-2.26092
-2.2602
-2.25947
-2.25873
-2.25796
-2.25718
-2.25638
-2.25557
-2.25474
-2.2539
-2.25304
-2.25217
-2.25129
-2.25039
-2.24949
-2.24857
-2.24764
-2.2467
-2.24575
-2.2448
-2.24383
-2.24286
-2.24187
-2.24089
-2.23989
-2.23889
-2.23788
-2.23686
-2.23585
-2.23482
-2.23379
-2.23277
-2.23174
-2.31876
-2.31889
-2.31847
-2.31812
-2.31776
-2.31735
-2.3169
-2.3164
-2.31586
-2.31529
-2.31468
-2.31402
-2.31333
-2.3126
-2.31184
-2.31104
-2.31021
-2.30935
-2.30846
-2.30754
-2.30659
-2.30562
-2.30463
-2.3036
-2.30256
-2.3015
-2.30041
-2.29931
-2.29818
-2.29705
-2.29589
-2.29472
-2.29354
-2.29234
-2.29114
-2.28992
-2.28869
-2.28745
-2.28621
-2.28495
-2.28369
-2.28243
-2.28116
-2.27988
-2.2786
-2.27732
-2.27603
-2.27474
-2.27346
-2.27217
-2.37693
-2.37671
-2.37641
-2.37603
-2.37555
-2.37498
-2.37429
-2.37375
-2.37295
-2.37211
-2.37122
-2.37026
-2.36924
-2.36817
-2.36705
-2.36588
-2.36466
-2.3634
-2.3621
-2.36077
-2.3594
-2.35799
-2.35656
-2.3551
-2.35361
-2.3521
-2.35056
-2.34901
-2.34744
-2.34586
-2.34426
-2.34264
-2.34102
-2.33939
-2.33775
-2.33611
-2.33446
-2.3328
-2.33115
-2.32949
-2.32783
-2.32617
-2.32451
-2.32285
-2.3212
-2.31955
-2.3179
-2.31626
-2.31463
-2.313
-2.4448
-2.44459
-2.44428
-2.44383
-2.44321
-2.44243
-2.44148
-2.44038
-2.43914
-2.43778
-2.43629
-2.43471
-2.43302
-2.43125
-2.4294
-2.42748
-2.42549
-2.42346
-2.42137
-2.41924
-2.41707
-2.41487
-2.41265
-2.4104
-2.40813
-2.40585
-2.40357
-2.40127
-2.39897
-2.39667
-2.39436
-2.39206
-2.38977
-2.38748
-2.3852
-2.38294
-2.38068
-2.37843
-2.3762
-2.37398
-2.37178
-2.3696
-2.36743
-2.36527
-2.36314
-2.36102
-2.35892
-2.35684
-2.35479
-2.35275
-2.54196
-2.54237
-2.54157
-2.53986
-2.53761
-2.53499
-2.53206
-2.52888
-2.5255
-2.52197
-2.51831
-2.51457
-2.51076
-2.50691
-2.50303
-2.49913
-2.49524
-2.49135
-2.48748
-2.48363
-2.47982
-2.47604
-2.4723
-2.46861
-2.46496
-2.46135
-2.4578
-2.4543
-2.45085
-2.44744
-2.4441
-2.4408
-2.43755
-2.43436
-2.43121
-2.42812
-2.42508
-2.42208
-2.41913
-2.41623
-2.41338
-2.41057
-2.4078
-2.40508
-2.4024
-2.39977
-2.39717
-2.39462
-2.39211
-2.38964
-2.7314
-2.71846
-2.70314
-2.68866
-2.6753
-2.66278
-2.65101
-2.63992
-2.62932
-2.6194
-2.60945
-2.60088
-2.59234
-2.58419
-2.57637
-2.56894
-2.56181
-2.55497
-2.5484
-2.54209
-2.53601
-2.53016
-2.52451
-2.51906
-2.51379
-2.50869
-2.50376
-2.49898
-2.49434
-2.48984
-2.48548
-2.48123
-2.4771
-2.47309
-2.46918
-2.46537
-2.46165
-2.45803
-2.4545
-2.45105
-2.44768
-2.44439
-2.44117
-2.43802
-2.43494
-2.43192
-2.42897
-2.42608
-2.42326
-2.42049
-1.74068
-1.74074
-1.74066
-1.74077
-1.74085
-1.74093
-1.74101
-1.74108
-1.74115
-1.74122
-1.74129
-1.74008
-1.74064
-1.74074
-1.74079
-1.74087
-1.73943
-1.74043
-1.74048
-1.74055
-1.74061
-1.74067
-1.73965
-1.74016
-1.74022
-1.74028
-1.74034
-1.74039
-1.74044
-1.74049
-1.74054
-1.74059
-1.73836
-1.73948
-1.73953
-1.73956
-1.73959
-1.73962
-1.73965
-1.73968
-1.73969
-1.73971
-1.73972
-1.73972
-1.73973
-1.73973
-1.73972
-1.73946
-1.73967
-1.73963
-1.7396
-1.73956
-1.73952
-1.73948
-1.73944
-1.7394
-1.73938
-1.73933
-1.73648
-1.73653
-1.73736
-1.73734
-1.7372
-1.73717
-1.73728
-1.73712
-1.73737
-1.73734
-1.73732
-1.7373
-1.73726
-1.73723
-1.73721
-1.73553
-1.73653
-1.73652
-1.73649
-1.7365
-1.73647
-1.73645
-1.73643
-1.73643
-1.73641
-1.73565
-1.73596
-1.73594
-1.7359
-1.73585
-1.73578
-1.73572
-1.73566
-1.73559
-1.73552
-1.73544
-1.73301
-1.73338
-1.73328
-1.73315
-1.73302
-1.73368
-1.73347
-1.73329
-1.73433
-1.73417
-1.73396
-1.73383
-1.73381
-1.73369
-1.73308
-1.73319
-1.73308
-1.73293
-1.73279
-1.73327
-1.7295
-1.73026
-1.73013
-1.72994
-1.72976
-1.73046
-1.73
-1.7298
-1.73087
-1.73022
-1.73006
-1.72992
-1.72848
-1.72833
-1.72818
-1.7271
-1.72698
-1.72691
-1.72499
-1.72487
-1.72526
-1.72506
-1.7248
-1.72546
-1.72529
-1.725
-1.72602
-1.72581
-1.72544
-1.72744
-1.72604
-1.72634
-1.72602
-1.7253
-1.72504
-1.72523
-1.72491
-1.72409
-1.72432
-1.72417
-1.72396
-1.72374
-1.72353
-1.72332
-1.7231
-1.72288
-1.72266
-1.7223
-1.7221
-1.72188
-1.7216
-1.72135
-1.721
-1.72104
-1.72082
-1.72061
-1.72036
-1.72011
-1.71986
-1.71962
-1.71939
-1.71916
-1.71893
-1.7187
-1.71848
-1.71826
-1.71805
-1.71784
-1.71764
-1.71744
-1.71724
-1.71705
-1.71686
-1.71668
-1.71649
-1.71631
-1.71614
-1.71597
-1.7158
-1.71563
-1.71546
-1.71529
-1.71511
-1.71493
-1.71475
-1.71456
-1.71436
-1.71416
-1.71395
-1.71374
-1.71352
-1.7133
-1.71307
-1.71284
-1.71261
-1.71238
-1.71214
-1.7119
-1.71166
-1.71142
-1.71118
-1.71094
-1.7107
-1.71046
-1.71022
-1.70997
-1.70973
-1.7095
-1.70926
-1.70902
-1.70878
-1.70854
-1.70831
-1.70807
-1.70784
-1.70761
-1.70738
-1.70715
-1.70692
-1.70669
-1.70646
-1.70624
-1.70601
-1.70579
-1.70557
-1.70535
-1.70513
-1.70492
-1.7047
-1.70449
-1.70428
-1.70407
-1.70387
-1.70366
-1.70346
-1.70326
-1.70306
-1.70286
-1.70267
-1.70248
-1.70229
-1.7021
-1.70192
-1.70173
-1.70155
-1.70138
-1.7012
-1.70103
-1.70087
-1.7007
-1.70054
-1.70038
-1.70023
-1.70007
-1.69992
-1.69978
-1.69964
-1.6995
-1.69937
-1.69923
-1.69911
-1.69898
-1.69887
-1.69875
-1.69864
-1.69853
-1.69843
-1.69833
-1.69824
-1.69815
-1.69807
-1.69799
-1.69792
-1.69785
-1.69778
-1.69772
-1.69767
-1.69762
-1.69758
-1.69754
-1.69751
-1.69749
-1.69747
-1.69745
-1.69744
-1.69744
-1.77055
-1.77057
-1.77058
-1.77059
-1.7706
-1.77061
-1.77062
-1.77062
-1.77063
-1.77063
-1.77063
-1.77063
-1.77063
-1.77064
-1.77064
-1.77064
-1.77064
-1.77065
-1.77065
-1.76728
-1.77058
-1.77039
-1.7704
-1.77041
-1.77059
-1.77058
-1.77057
-1.77056
-1.77055
-1.77053
-1.77052
-1.7705
-1.77048
-1.76965
-1.77002
-1.77001
-1.76999
-1.76996
-1.76994
-1.76992
-1.7699
-1.76988
-1.76987
-1.76986
-1.76984
-1.76983
-1.76983
-1.76982
-1.76705
-1.76942
-1.76942
-1.7694
-1.76941
-1.7694
-1.76939
-1.76938
-1.76937
-1.76936
-1.7649
-1.76765
-1.76767
-1.76765
-1.76764
-1.76763
-1.7676
-1.76757
-1.76754
-1.76716
-1.76712
-1.76708
-1.76703
-1.76697
-1.76692
-1.76685
-1.76678
-1.76671
-1.76664
-1.76657
-1.7653
-1.76615
-1.76563
-1.76605
-1.7659
-1.76561
-1.76697
-1.76593
-1.76725
-1.76653
-1.76691
-1.76688
-1.76684
-1.76682
-1.76681
-1.7668
-1.76443
-1.76548
-1.76553
-1.76512
-1.76517
-1.7652
-1.7633
-1.76407
-1.76417
-1.7642
-1.76423
-1.76426
-1.7643
-1.76169
-1.76261
-1.76279
-1.76279
-1.76281
-1.76283
-1.76287
-1.75958
-1.76076
-1.76102
-1.76103
-1.76103
-1.76103
-1.76105
-1.76104
-1.76021
-1.76022
-1.7602
-1.75927
-1.75924
-1.75932
-1.75777
-1.75777
-1.75765
-1.75664
-1.75779
-1.75769
-1.75747
-1.75823
-1.75705
-1.75693
-1.75597
-1.75727
-1.75724
-1.75671
-1.75662
-1.75475
-1.75571
-1.75521
-1.75516
-1.75548
-1.74725
-1.75381
-1.75361
-1.75331
-1.75323
-1.75311
-1.75311
-1.75301
-1.75292
-1.75283
-1.75276
-1.75268
-1.75262
-1.75254
-1.75227
-1.7468
-1.74697
-1.74759
-1.74781
-1.74785
-1.74772
-1.74775
-1.74772
-1.74682
-1.74711
-1.7471
-1.74701
-1.74691
-1.7468
-1.74667
-1.74654
-1.74639
-1.74625
-1.74581
-1.7457
-1.74551
-1.7453
-1.7451
-1.74494
-1.74478
-1.74462
-1.74446
-1.7443
-1.74414
-1.74399
-1.74384
-1.74367
-1.74349
-1.74327
-1.74302
-1.74275
-1.74249
-1.74222
-1.74195
-1.74169
-1.74142
-1.74116
-1.7409
-1.74064
-1.74037
-1.74011
-1.73985
-1.7396
-1.73934
-1.73908
-1.73883
-1.73857
-1.73832
-1.73807
-1.73781
-1.73756
-1.73731
-1.73706
-1.73681
-1.73656
-1.73631
-1.73607
-1.73582
-1.73557
-1.73532
-1.73508
-1.73483
-1.73459
-1.73435
-1.73411
-1.73387
-1.73363
-1.73339
-1.73315
-1.73291
-1.73268
-1.73245
-1.73221
-1.73198
-1.73176
-1.73153
-1.73131
-1.73108
-1.73086
-1.73064
-1.73043
-1.73021
-1.73
-1.72979
-1.72958
-1.72938
-1.72917
-1.72897
-1.72878
-1.72858
-1.72839
-1.7282
-1.72801
-1.72783
-1.72765
-1.72748
-1.7273
-1.72713
-1.72697
-1.7268
-1.72664
-1.72649
-1.72634
-1.72619
-1.72605
-1.72591
-1.72577
-1.72564
-1.72551
-1.72539
-1.72527
-1.72516
-1.72505
-1.72494
-1.72485
-1.72475
-1.72466
-1.72458
-1.7245
-1.72442
-1.72436
-1.72429
-1.72424
-1.72418
-1.72414
-1.7241
-1.72407
-1.72404
-1.72402
-1.724
-1.72399
-1.72399
-1.8015
-1.80153
-1.80155
-1.80157
-1.80158
-1.80159
-1.80161
-1.80163
-1.80162
-1.80168
-1.80166
-1.80168
-1.80167
-1.8017
-1.80172
-1.80173
-1.80173
-1.80174
-1.80174
-1.80171
-1.80155
-1.80153
-1.8016
-1.80169
-1.80176
-1.80179
-1.80182
-1.80185
-1.80188
-1.80191
-1.80193
-1.80197
-1.802
-1.79877
-1.80038
-1.80042
-1.80045
-1.80047
-1.8005
-1.80052
-1.80054
-1.80052
-1.80056
-1.80057
-1.80058
-1.8006
-1.8006
-1.79628
-1.79743
-1.79886
-1.79887
-1.79887
-1.79889
-1.79891
-1.79891
-1.79891
-1.79891
-1.79618
-1.79673
-1.79713
-1.79711
-1.79712
-1.79712
-1.7971
-1.79707
-1.79705
-1.79684
-1.79697
-1.79694
-1.7969
-1.79687
-1.79683
-1.79679
-1.79583
-1.79621
-1.79619
-1.79615
-1.79625
-1.79619
-1.79572
-1.79591
-1.79585
-1.79573
-1.79569
-1.79564
-1.79558
-1.79548
-1.79472
-1.79586
-1.79576
-1.79564
-1.79556
-1.79545
-1.79412
-1.79453
-1.7944
-1.79424
-1.7941
-1.79395
-1.7938
-1.79364
-1.79316
-1.79315
-1.79346
-1.79328
-1.79312
-1.79294
-1.79275
-1.79256
-1.79243
-1.79225
-1.79196
-1.79243
-1.79221
-1.79198
-1.79177
-1.79157
-1.79137
-1.79117
-1.79097
-1.78992
-1.78972
-1.78952
-1.78927
-1.78904
-1.78883
-1.78861
-1.78837
-1.78726
-1.78873
-1.78822
-1.78797
-1.78771
-1.78743
-1.78736
-1.78793
-1.78771
-1.78754
-1.78737
-1.78718
-1.78698
-1.78679
-1.7866
-1.78641
-1.7862
-1.78584
-1.78205
-1.78192
-1.78203
-1.78205
-1.78191
-1.78172
-1.78152
-1.78131
-1.7811
-1.78089
-1.78067
-1.78044
-1.7799
-1.77967
-1.77945
-1.7791
-1.77885
-1.77858
-1.77827
-1.77796
-1.77767
-1.77737
-1.77706
-1.77673
-1.77639
-1.77544
-1.77564
-1.77591
-1.77559
-1.7753
-1.77502
-1.77476
-1.7745
-1.77422
-1.77397
-1.77374
-1.77353
-1.7733
-1.77249
-1.77242
-1.7724
-1.77229
-1.77221
-1.77217
-1.77215
-1.77216
-1.77218
-1.77223
-1.77229
-1.77225
-1.77216
-1.77211
-1.77197
-1.77178
-1.77157
-1.77133
-1.77105
-1.77073
-1.77038
-1.77001
-1.76963
-1.76926
-1.76888
-1.76851
-1.76814
-1.76778
-1.76743
-1.76709
-1.76675
-1.76641
-1.76609
-1.76576
-1.76545
-1.76513
-1.76482
-1.76452
-1.76421
-1.76391
-1.76362
-1.76332
-1.76303
-1.76275
-1.76246
-1.76218
-1.7619
-1.76162
-1.76135
-1.76108
-1.76081
-1.76054
-1.76027
-1.76001
-1.75975
-1.7595
-1.75924
-1.75899
-1.75874
-1.75849
-1.75825
-1.758
-1.75776
-1.75752
-1.75729
-1.75706
-1.75683
-1.7566
-1.75638
-1.75616
-1.75594
-1.75572
-1.75551
-1.7553
-1.7551
-1.75489
-1.75469
-1.7545
-1.75431
-1.75412
-1.75393
-1.75375
-1.75357
-1.7534
-1.75323
-1.75306
-1.7529
-1.75274
-1.75259
-1.75244
-1.75229
-1.75215
-1.75202
-1.75189
-1.75176
-1.75164
-1.75152
-1.75141
-1.75131
-1.75121
-1.75111
-1.75102
-1.75094
-1.75086
-1.75079
-1.75072
-1.75066
-1.7506
-1.75055
-1.75051
-1.75047
-1.75044
-1.75042
-1.75041
-1.7504
-1.75039
-1.83339
-1.83341
-1.83341
-1.8334
-1.83339
-1.83337
-1.83335
-1.83335
-1.83335
-1.83334
-1.83332
-1.83331
-1.8333
-1.83328
-1.83327
-1.83302
-1.83299
-1.8333
-1.83325
-1.83324
-1.83323
-1.83313
-1.83313
-1.83323
-1.83321
-1.83321
-1.83319
-1.83317
-1.83315
-1.83313
-1.8331
-1.83308
-1.82739
-1.82913
-1.8292
-1.82917
-1.82913
-1.82909
-1.82905
-1.829
-1.82895
-1.82889
-1.82883
-1.82876
-1.82869
-1.82861
-1.82846
-1.82823
-1.83095
-1.83088
-1.8308
-1.83073
-1.83064
-1.83056
-1.83047
-1.83037
-1.83027
-1.83017
-1.83007
-1.82997
-1.82987
-1.82976
-1.82966
-1.82955
-1.82945
-1.82934
-1.82924
-1.82913
-1.82903
-1.82893
-1.82882
-1.82872
-1.82861
-1.82784
-1.82774
-1.82766
-1.82755
-1.82744
-1.82732
-1.8272
-1.82708
-1.82697
-1.82685
-1.82673
-1.82661
-1.82648
-1.82636
-1.82623
-1.8261
-1.82596
-1.82582
-1.82568
-1.82553
-1.82538
-1.82523
-1.82507
-1.8249
-1.82474
-1.82458
-1.8244
-1.82423
-1.82406
-1.82389
-1.82371
-1.82352
-1.82331
-1.82321
-1.823
-1.82279
-1.82257
-1.82236
-1.82214
-1.82191
-1.82146
-1.8214
-1.8212
-1.82094
-1.8207
-1.82044
-1.82017
-1.8199
-1.81961
-1.81934
-1.81906
-1.81877
-1.81846
-1.81816
-1.81786
-1.81755
-1.81726
-1.81691
-1.81639
-1.81595
-1.81876
-1.81852
-1.81818
-1.81782
-1.81746
-1.81712
-1.81678
-1.81643
-1.81605
-1.81566
-1.81575
-1.81519
-1.81488
-1.81455
-1.81418
-1.81382
-1.81351
-1.81319
-1.8128
-1.81247
-1.81215
-1.81183
-1.81153
-1.81119
-1.81096
-1.81065
-1.81035
-1.81008
-1.8098
-1.80954
-1.80925
-1.80888
-1.80841
-1.80818
-1.80816
-1.80791
-1.8077
-1.80753
-1.80562
-1.80603
-1.80581
-1.8055
-1.80536
-1.80514
-1.80515
-1.80058
-1.80304
-1.80299
-1.8024
-1.80249
-1.80228
-1.80116
-1.80283
-1.80263
-1.80252
-1.80245
-1.80235
-1.80228
-1.80232
-1.80243
-1.8023
-1.80396
-1.78306
-1.79725
-1.79827
-1.79741
-1.79733
-1.79715
-1.79688
-1.79659
-1.79629
-1.79593
-1.79566
-1.79535
-1.79505
-1.79475
-1.79446
-1.7942
-1.79392
-1.79365
-1.79337
-1.7931
-1.79282
-1.79255
-1.79228
-1.79201
-1.79173
-1.79146
-1.79119
-1.79092
-1.79065
-1.79038
-1.7901
-1.78983
-1.78956
-1.78928
-1.78901
-1.78873
-1.78846
-1.78819
-1.78792
-1.78764
-1.78737
-1.7871
-1.78683
-1.78657
-1.7863
-1.78603
-1.78577
-1.78551
-1.78525
-1.78499
-1.78474
-1.78448
-1.78423
-1.78398
-1.78374
-1.78349
-1.78325
-1.78301
-1.78278
-1.78255
-1.78232
-1.78209
-1.78187
-1.78165
-1.78143
-1.78122
-1.78101
-1.78081
-1.78061
-1.78041
-1.78022
-1.78003
-1.77984
-1.77966
-1.77948
-1.77931
-1.77914
-1.77898
-1.77882
-1.77867
-1.77852
-1.77837
-1.77823
-1.7781
-1.77797
-1.77785
-1.77773
-1.77762
-1.77751
-1.77741
-1.77731
-1.77722
-1.77714
-1.77706
-1.77699
-1.77693
-1.77687
-1.77681
-1.77677
-1.77673
-1.7767
-1.77667
-1.77666
-1.77665
-1.77664
-1.86449
-1.8645
-1.86449
-1.86448
-1.86446
-1.86444
-1.86443
-1.8644
-1.86437
-1.86439
-1.86301
-1.86402
-1.86396
-1.86404
-1.86388
-1.86334
-1.86387
-1.86383
-1.86379
-1.86371
-1.86369
-1.86311
-1.86338
-1.86331
-1.86322
-1.86316
-1.86308
-1.863
-1.86291
-1.86282
-1.86273
-1.86259
-1.8619
-1.86415
-1.86407
-1.86397
-1.86388
-1.86378
-1.86368
-1.86356
-1.86344
-1.86301
-1.86313
-1.86303
-1.86292
-1.86281
-1.8627
-1.8626
-1.86249
-1.86237
-1.86227
-1.86215
-1.86203
-1.86191
-1.86179
-1.86167
-1.86154
-1.86141
-1.86128
-1.86115
-1.86102
-1.86089
-1.86075
-1.86062
-1.86048
-1.86034
-1.8602
-1.86006
-1.85992
-1.85978
-1.85964
-1.85949
-1.85934
-1.85919
-1.85904
-1.85889
-1.85874
-1.85858
-1.85843
-1.85827
-1.85811
-1.85795
-1.85779
-1.85763
-1.85746
-1.85729
-1.85713
-1.85695
-1.85678
-1.85661
-1.85643
-1.85624
-1.85606
-1.85587
-1.85568
-1.85549
-1.8553
-1.8551
-1.8549
-1.8547
-1.85449
-1.85429
-1.85408
-1.85387
-1.85366
-1.85344