/*--------------------------------*- C++ -*----------------------------------*\
| =========                 |                                                 |
| \\      /  F ield         | OpenFOAM: The Open Source CFD Toolbox           |
|  \\    /   O peration     | Version:  2.4.0                                 |
|   \\  /    A nd           | Web:      www.OpenFOAM.org                      |
|    \\/     M anipulation  |                                                 |
\*---------------------------------------------------------------------------*/
FoamFile
{
    version     2.0;
    format      ascii;
    class       volScalarField;
    location    "1.6";
    object      p_rgh;
}
// * * * * * * * * * * * * * * * * * * * * * * * * * * * * * * * * * * * * * //

dimensions      [1 -1 -2 0 0 0 0];

internalField   nonuniform List<scalar> 
8000
(
77.2333
77.2962
77.3566
77.4089
77.4551
77.4972
77.5345
77.5682
77.6011
77.6448
77.6925
77.7099
77.8348
77.8247
77.9116
77.9821
77.9576
77.8105
79.5629
77.0012
59.275
47.8142
33.5038
13.2324
0.0766898
-0.708356
0.324778
0.330211
0.203093
0.0459727
-0.127966
-0.252602
-0.316099
-0.319989
-0.31752
-0.331953
-0.351648
-0.365007
-0.371336
-0.374787
-0.377086
-0.378223
-0.378627
-0.378913
-0.379248
-0.379646
-0.379902
-0.38014
-0.380373
-0.380612
82.4764
82.5126
82.5553
82.5952
82.6307
82.6628
82.6913
82.7166
82.7382
82.757
82.7721
82.7841
82.793
82.8044
82.8159
82.8461
82.9213
83.0439
83.1608
83.3004
83.3772
83.4711
83.5817
83.6515
83.5312
82.981
83.3639
65.4366
49.6312
26.3382
5.31475
1.81977
2.52728
2.51354
1.83207
0.841175
-0.0599938
-0.267851
-0.311243
-0.341062
-0.366009
-0.376998
-0.38013
-0.382058
-0.385225
-0.387486
-0.388297
-0.388091
-0.388941
-0.388514
84.5277
84.5328
84.5377
84.5438
84.5521
84.5625
84.5751
84.5895
84.6062
84.6247
84.6455
84.6681
84.693
84.7196
84.7486
84.7793
84.8126
84.847
84.8819
84.9157
84.9529
84.9978
85.066
85.1687
85.3064
85.4441
85.6291
85.7934
85.9464
85.9089
85.4111
79.8657
78.0321
58.295
21.6577
1.50496
2.70886
3.03862
2.28725
0.696579
-0.177824
-0.290479
-0.291956
-0.32817
-0.368716
-0.386842
-0.391949
-0.393875
-0.395348
-0.396633
88.2886
88.2787
88.2712
88.2674
88.2668
88.269
88.2739
88.2816
88.2919
88.305
88.3208
88.3394
88.3607
88.3849
88.4119
88.4418
88.4745
88.5101
88.5484
88.5894
88.6327
88.6788
88.7273
88.7787
88.8324
88.8886
88.9471
89.0154
89.0909
89.1688
89.2572
89.3645
89.5227
89.5491
89.1382
86.8716
83.9824
68.9761
44.0504
11.7735
3.66738
3.73201
3.04257
0.852673
-0.124647
-0.298739
-0.340128
-0.371906
-0.391468
-0.400758
90.2492
90.2314
90.213
90.1984
90.1878
90.1807
90.177
90.1766
90.1796
90.186
90.1957
90.2089
90.2255
90.2455
90.269
90.296
90.3265
90.3607
90.3983
90.4397
90.4846
90.5334
90.5857
90.642
90.7015
90.7649
90.8311
90.9009
90.973
91.0484
91.1255
91.2074
91.2938
91.3883
91.4736
91.5405
91.6478
91.7171
91.749
91.6359
84.0851
79.0085
52.1925
14.1965
3.84837
3.10833
1.48016
0.131284
-0.230808
-0.336712
92.3223
92.2987
92.2743
92.2537
92.2368
92.2228
92.2116
92.2031
92.1974
92.1945
92.1942
92.1966
92.2016
92.2092
92.2194
92.2322
92.2474
92.2652
92.2853
92.308
92.3329
92.3603
92.3899
92.422
92.4563
92.493
92.5318
92.5733
92.6169
92.6632
92.7116
92.7632
92.8169
92.8744
92.9346
93.0009
93.0737
93.156
93.2287
93.305
93.3845
93.4965
93.4915
91.3218
86.3713
67.7584
21.9961
5.61541
2.71454
0.870995
93.8092
93.7806
93.7509
93.7254
93.7038
93.6854
93.6698
93.6572
93.6475
93.6408
93.637
93.6361
93.6381
93.643
93.6509
93.6618
93.6756
93.6923
93.7121
93.7349
93.7608
93.7898
93.8219
93.8571
93.8956
93.9374
93.9824
94.0309
94.0827
94.138
94.1968
94.2591
94.325
94.3945
94.4675
94.5441
94.624
94.7074
94.7938
94.8841
94.979
95.0778
95.1718
95.2519
95.3806
95.5905
95.6439
86.3175
57.3285
23.6849
94.4861
94.4628
94.4373
94.4144
94.3941
94.3758
94.3594
94.3448
94.332
94.3211
94.3119
94.3044
94.2987
94.2947
94.2924
94.2917
94.2927
94.2953
94.2994
94.3051
94.3123
94.321
94.3312
94.3428
94.3558
94.3702
94.3859
94.403
94.4213
94.4408
94.4615
94.4834
94.5064
94.5305
94.5556
94.5818
94.609
94.6373
94.6665
94.6969
94.7281
94.7609
94.7955
94.8333
94.8719
94.9008
94.919
94.9376
94.8292
89.9875
95.4246
95.4052
95.3853
95.3678
95.3523
95.3384
95.3259
95.3149
95.3053
95.2971
95.2904
95.2851
95.2812
95.2787
95.2777
95.2779
95.2796
95.2826
95.2869
95.2926
95.2995
95.3077
95.3172
95.3279
95.3399
95.353
95.3673
95.3827
95.3992
95.4168
95.4355
95.4551
95.4757
95.4973
95.5197
95.5429
95.5668
95.5915
95.6168
95.6426
95.6689
95.6955
95.7223
95.7492
95.776
95.8021
95.8297
95.8533
95.8844
95.9158
95.4202
95.4111
95.4002
95.3898
95.3801
95.371
95.3624
95.3543
95.3466
95.3395
95.3328
95.3266
95.3209
95.3157
95.3109
95.3066
95.3028
95.2994
95.2964
95.2938
95.2917
95.2899
95.2885
95.2874
95.2866
95.2861
95.2859
95.286
95.2862
95.2866
95.2872
95.2878
95.2886
95.2893
95.29
95.2907
95.2912
95.2915
95.2916
95.2914
95.2908
95.2897
95.288
95.2857
95.2824
95.2778
95.2708
95.2995
95.2571
95.2537
96.1251
96.1165
96.1081
96.1008
96.0944
96.0887
96.0836
96.0791
96.0753
96.072
96.0695
96.0676
96.0663
96.0657
96.0657
96.0664
96.0677
96.0696
96.0722
96.0754
96.0792
96.0837
96.0888
96.0945
96.1008
96.1078
96.1153
96.1234
96.1322
96.1415
96.1514
96.1619
96.1729
96.1845
96.1966
96.2094
96.2226
96.2364
96.2508
96.2656
96.281
96.2968
96.3131
96.3297
96.3463
96.362
96.3725
96.4188
96.4042
96.4455
96.063
96.0601
96.0564
96.0527
96.0493
96.0459
96.0427
96.0396
96.0366
96.0338
96.031
96.0284
96.0259
96.0235
96.0212
96.0191
96.0171
96.0152
96.0135
96.0119
96.0104
96.0091
96.0079
96.0069
96.006
96.0053
96.0047
96.0043
96.0041
96.0041
96.0042
96.0046
96.0051
96.0059
96.0069
96.0081
96.0096
96.0114
96.0135
96.0156
96.0182
96.0211
96.0242
96.0273
96.031
96.0374
96.0436
96.0455
95.9769
95.7562
96.4763
96.4755
96.475
96.4748
96.4748
96.4749
96.4752
96.4756
96.4762
96.477
96.478
96.4792
96.4806
96.4822
96.484
96.486
96.4882
96.4907
96.4933
96.4962
96.4993
96.5027
96.5063
96.5101
96.5142
96.5185
96.5231
96.5279
96.533
96.5383
96.5438
96.5496
96.5556
96.5619
96.5683
96.5751
96.582
96.5892
96.5965
96.6041
96.6118
96.6193
96.6269
96.6364
96.6517
96.6689
96.6396
96.4397
94.9809
71.408
96.612
96.615
96.6182
96.6209
96.6231
96.625
96.6264
96.6275
96.6282
96.6286
96.6286
96.6283
96.6276
96.6266
96.6253
96.6236
96.6216
96.6192
96.6166
96.6136
96.6103
96.6068
96.6029
96.5988
96.5944
96.5897
96.5847
96.5795
96.5741
96.5684
96.5625
96.5564
96.5501
96.5435
96.5369
96.53
96.5231
96.5159
96.5088
96.5011
96.4932
96.4864
96.4864
96.4933
96.4669
96.2753
95.8357
83.373
42.3349
11.8688
96.7674
96.7699
96.7721
96.774
96.7758
96.7775
96.7791
96.7807
96.7822
96.7836
96.7849
96.7862
96.7874
96.7885
96.7896
96.7906
96.7916
96.7926
96.7936
96.7946
96.7956
96.7966
96.7978
96.7989
96.8002
96.8016
96.8032
96.8049
96.8068
96.8089
96.8113
96.8139
96.8169
96.8202
96.8239
96.828
96.8326
96.8375
96.8427
96.8482
96.8566
96.8736
96.8957
96.8613
96.6208
94.2769
56.7416
10.8219
0.394667
-0.431199
97.4143
97.4203
97.4278
97.4346
97.4403
97.445
97.4488
97.4516
97.4535
97.4545
97.4546
97.4538
97.452
97.4494
97.4458
97.4413
97.4358
97.4295
97.4222
97.4141
97.4049
97.3949
97.3838
97.3718
97.3588
97.3448
97.3298
97.3137
97.2966
97.2783
97.2589
97.2384
97.2167
97.1938
97.1696
97.1442
97.117
97.0882
97.0589
97.0343
97.0177
96.9753
96.7738
96.305
83.5387
29.7146
1.91963
-0.507593
-0.624516
-0.624982
97.0591
97.0699
97.0792
97.0865
97.0925
97.0976
97.1017
97.1048
97.1068
97.1078
97.1078
97.1067
97.1046
97.1015
97.0973
97.0922
97.0861
97.0789
97.0709
97.0618
97.0518
97.0408
97.029
97.0161
97.0024
96.9878
96.9723
96.9559
96.9387
96.9206
96.9017
96.8821
96.8617
96.8407
96.819
96.7965
96.7734
96.7508
96.7319
96.7149
96.6704
96.5256
96.32
79.0927
14.0081
-0.409756
-0.661029
-0.663038
-0.664225
-0.664259
98.8032
98.8235
98.8474
98.8672
98.8823
98.8935
98.9017
98.9074
98.911
98.9127
98.9129
98.9118
98.9096
98.9065
98.9028
98.8985
98.8938
98.8887
98.8834
98.8779
98.8722
98.8664
98.8604
98.8541
98.8477
98.8409
98.8338
98.8261
98.8178
98.8087
98.7986
98.7873
98.7746
98.7603
98.7441
98.7257
98.7048
98.6809
98.6549
98.6285
98.6011
98.55
98.4157
98.2095
80.6641
14.4379
-0.368499
-0.613571
-0.628078
-0.710213
97.662
97.7273
97.7854
97.8279
97.8588
97.8815
97.8975
97.9076
97.9125
97.9131
97.9098
97.9033
97.8939
97.8821
97.8683
97.8526
97.8354
97.8169
97.7971
97.7763
97.7545
97.7319
97.7083
97.6839
97.6586
97.6323
97.6048
97.5761
97.5458
97.5137
97.4793
97.4423
97.402
97.3578
97.3086
97.2537
97.1915
97.1208
97.0396
96.9462
96.8373
96.7071
96.5473
96.3698
96.2446
96.259
25.5323
1.70189
1.64016
-0.790547
104.148
103.714
103.28
102.909
102.588
102.3
102.041
101.806
101.594
101.402
101.23
101.074
100.934
100.809
100.698
100.6
100.514
100.441
100.38
100.33
100.291
100.264
100.249
100.245
100.254
100.274
100.308
100.355
100.416
100.493
100.587
100.698
100.829
100.982
101.159
101.363
101.597
101.865
102.172
102.523
102.926
103.39
103.924
104.525
105.173
105.898
105.985
99.1308
57.2375
-0.773101
-0.380842
-0.381025
-0.381222
-0.381427
-0.38163
-0.38183
-0.382026
-0.382218
-0.382407
-0.382592
-0.382768
-0.382901
-0.382881
-0.383213
-0.383379
-0.383539
-0.383699
-0.383853
-0.384005
-0.384152
-0.384296
-0.384438
-0.384577
-0.384712
-0.384845
-0.3848
-0.385086
-0.385218
-0.385336
-0.385379
-0.38556
-0.38568
-0.385797
-0.385907
-0.386016
-0.386124
-0.386221
-0.386326
-0.386413
-0.386398
-0.386593
-0.386698
-0.386804
-0.386901
-0.387007
-0.387084
-0.387034
-0.387195
-0.387246
-0.387356
-0.385092
-0.3855
-0.387046
-0.388251
-0.38868
-0.388987
-0.389285
-0.389568
-0.38984
-0.390101
-0.390321
-0.390338
-0.390769
-0.390977
-0.391174
-0.391177
-0.391553
-0.391759
-0.39193
-0.392171
-0.392338
-0.392499
-0.392654
-0.392802
-0.392945
-0.393081
-0.393213
-0.393338
-0.393459
-0.393575
-0.393686
-0.393792
-0.393893
-0.393989
-0.394081
-0.394168
-0.39425
-0.394329
-0.394403
-0.394473
-0.394539
-0.394602
-0.394661
-0.394716
-0.394768
-0.394816
-0.394858
-0.394892
-0.394919
-0.394942
-0.397548
-0.398018
-0.398348
-0.398476
-0.398572
-0.398612
-0.399025
-0.399183
-0.399341
-0.399497
-0.399597
-0.399483
-0.399847
-0.39999
-0.400107
-0.400199
-0.400425
-0.400577
-0.400721
-0.400864
-0.401003
-0.401139
-0.401273
-0.401403
-0.401529
-0.401652
-0.401772
-0.401889
-0.402001
-0.402109
-0.402214
-0.402314
-0.402411
-0.402504
-0.402594
-0.40268
-0.402762
-0.40284
-0.402914
-0.402983
-0.403048
-0.403108
-0.403166
-0.403221
-0.403275
-0.403329
-0.403386
-0.403431
-0.403473
-0.403511
-0.404641
-0.406262
-0.407107
-0.407655
-0.407941
-0.40814
-0.40834
-0.408527
-0.408722
-0.408914
-0.409097
-0.409272
-0.409444
-0.409609
-0.409768
-0.409921
-0.41007
-0.410212
-0.41035
-0.410482
-0.410609
-0.41073
-0.410846
-0.410957
-0.411063
-0.411163
-0.411257
-0.411346
-0.41143
-0.411508
-0.411577
-0.411641
-0.4117
-0.411753
-0.411801
-0.411843
-0.411879
-0.411911
-0.411937
-0.411947
-0.411954
-0.411959
-0.411957
-0.411945
-0.411553
-0.411048
-0.411016
-0.412493
-0.41298
-0.413046
-0.378532
-0.396441
-0.406091
-0.411958
-0.415424
-0.417372
-0.41846
-0.419135
-0.419355
-0.419555
-0.419746
-0.419931
-0.420111
-0.42028
-0.420439
-0.420593
-0.42074
-0.420881
-0.421018
-0.42115
-0.421275
-0.421396
-0.421514
-0.421626
-0.421733
-0.421835
-0.421934
-0.422026
-0.422041
-0.421916
-0.422074
-0.422252
-0.422323
-0.422402
-0.42248
-0.422545
-0.4226
-0.422295
-0.421891
-0.422017
-0.422397
-0.422575
-0.422654
-0.422715
-0.422715
-0.422707
-0.422719
-0.4227
-0.422652
-0.421609
0.110395
-0.15919
-0.301638
-0.376222
-0.409769
-0.422671
-0.427782
-0.430074
-0.431263
-0.431481
-0.431667
-0.431836
-0.431961
-0.431904
-0.431959
-0.432336
-0.43253
-0.432618
-0.432478
-0.431675
-0.432445
-0.432317
-0.432256
-0.432964
-0.433018
-0.433066
-0.433109
-0.433143
-0.433171
-0.43318
-0.433209
-0.433196
-0.433188
-0.43317
-0.433158
-0.432907
-0.432862
-0.433772
-0.433785
-0.433739
-0.433699
-0.43366
-0.43362
-0.433578
-0.433536
-0.433491
-0.433443
-0.433394
-0.43334
-0.433282
10.4474
4.40922
1.37866
0.157594
-0.260256
-0.3886
-0.426246
-0.437981
-0.441961
-0.443077
-0.443412
-0.443401
-0.444417
-0.444582
-0.444714
-0.444832
-0.44494
-0.445039
-0.445127
-0.445207
-0.445281
-0.445347
-0.445405
-0.445456
-0.4455
-0.445535
-0.445562
-0.445582
-0.445595
-0.445602
-0.445423
-0.445063
-0.445531
-0.445728
-0.445676
-0.445673
-0.445639
-0.445549
-0.445396
-0.445562
-0.44553
-0.445487
-0.445435
-0.445372
-0.445301
-0.44522
-0.445131
-0.445033
-0.444928
-0.444815
73.6059
47.3966
24.5798
10.0212
2.66184
0.267453
-0.31427
-0.434297
-0.45524
-0.457954
-0.458444
-0.458532
-0.458661
-0.458785
-0.458858
-0.458948
-0.458999
-0.459061
-0.459091
-0.459139
-0.459171
-0.459191
-0.459202
-0.459206
-0.459204
-0.459197
-0.459184
-0.459166
-0.459142
-0.459109
-0.459067
-0.45902
-0.45897
-0.458918
-0.458855
-0.45878
-0.458695
-0.458603
-0.458507
-0.458401
-0.45829
-0.458173
-0.458048
-0.457916
-0.457778
-0.457635
-0.457485
-0.45733
-0.457172
-0.457007
95.8583
92.3401
81.0086
55.6327
19.9327
3.18715
-0.0724771
-0.441736
-0.473289
-0.474228
-0.47409
-0.474518
-0.474205
-0.474583
-0.474337
-0.474639
-0.474349
-0.474619
-0.474324
-0.474568
-0.47452
-0.474463
-0.474402
-0.474337
-0.474269
-0.474198
-0.474122
-0.47404
-0.473951
-0.473854
-0.473749
-0.473633
-0.473509
-0.473375
-0.473234
-0.473084
-0.472927
-0.472762
-0.47259
-0.472411
-0.472225
-0.472033
-0.471834
-0.47163
-0.47142
-0.471204
-0.470983
-0.470756
-0.470526
-0.47029
95.2469
95.2256
95.0869
87.3818
44.7661
7.16232
0.0922262
-0.468075
-0.49084
-0.490759
-0.491279
-0.490965
-0.491278
-0.490966
-0.491223
-0.491144
-0.491079
-0.49098
-0.490892
-0.490777
-0.490666
-0.49055
-0.490427
-0.490298
-0.490159
-0.490012
-0.489854
-0.489688
-0.489511
-0.489325
-0.48913
-0.488926
-0.488713
-0.488493
-0.488265
-0.48803
-0.487788
-0.487539
-0.487285
-0.487024
-0.486757
-0.486484
-0.486206
-0.485922
-0.485632
-0.485337
-0.485036
-0.48473
-0.484422
-0.484107
96.3848
96.0989
84.3846
52.0261
15.1336
1.56715
-0.386811
-0.507923
-0.509453
-0.509832
-0.509768
-0.509755
-0.509619
-0.509522
-0.509354
-0.509205
-0.509058
-0.508894
-0.50872
-0.508535
-0.508338
-0.50813
-0.507911
-0.507681
-0.50744
-0.507189
-0.506928
-0.506658
-0.506379
-0.506091
-0.505796
-0.505493
-0.505182
-0.504864
-0.50454
-0.504208
-0.50387
-0.503526
-0.503174
-0.502817
-0.502453
-0.502083
-0.501708
-0.501326
-0.500939
-0.500546
-0.500148
-0.499744
-0.499338
-0.498926
90.6567
64.5359
32.8996
7.96321
0.822169
-0.400073
-0.526653
-0.530372
-0.530254
-0.530118
-0.529928
-0.529705
-0.529468
-0.529221
-0.528959
-0.528685
-0.528401
-0.528104
-0.527796
-0.527478
-0.527148
-0.52681
-0.526461
-0.526105
-0.525739
-0.525366
-0.524984
-0.524595
-0.524199
-0.523795
-0.523383
-0.522965
-0.522539
-0.522106
-0.521667
-0.52122
-0.520767
-0.520308
-0.519842
-0.51937
-0.518892
-0.518407
-0.517917
-0.517421
-0.51692
-0.516413
-0.5159
-0.515383
-0.514864
-0.514338
39.367
12.5689
2.12498
-0.274686
-0.55572
-0.552821
-0.552724
-0.552624
-0.552365
-0.552002
-0.551629
-0.55125
-0.550863
-0.550467
-0.550061
-0.549646
-0.549222
-0.548789
-0.548347
-0.547896
-0.547436
-0.546967
-0.546489
-0.546003
-0.545508
-0.545004
-0.544492
-0.543972
-0.543443
-0.542906
-0.542361
-0.541809
-0.541249
-0.540681
-0.540105
-0.539523
-0.538933
-0.538337
-0.537734
-0.537124
-0.536508
-0.535885
-0.535257
-0.534623
-0.533983
-0.533337
-0.532686
-0.532031
-0.531374
-0.530711
1.51593
-0.409409
-0.576676
-0.573064
-0.575727
-0.575722
-0.57532
-0.574908
-0.574494
-0.574072
-0.573643
-0.573199
-0.572738
-0.572262
-0.571772
-0.571267
-0.570749
-0.570217
-0.569671
-0.569113
-0.568541
-0.567957
-0.56736
-0.566751
-0.566131
-0.565498
-0.564854
-0.564199
-0.563533
-0.562856
-0.562169
-0.561473
-0.560766
-0.56005
-0.559325
-0.558591
-0.557849
-0.557099
-0.55634
-0.555574
-0.554801
-0.554021
-0.553234
-0.552441
-0.551641
-0.550836
-0.550025
-0.549209
-0.548393
-0.54757
-0.603274
-0.601302
-0.602621
-0.6024
-0.601948
-0.601554
-0.601105
-0.60063
-0.600127
-0.599598
-0.59904
-0.598461
-0.597864
-0.597247
-0.596612
-0.595956
-0.595282
-0.594588
-0.593876
-0.593146
-0.592399
-0.591634
-0.590852
-0.590055
-0.589242
-0.588414
-0.587571
-0.586715
-0.585845
-0.584962
-0.584067
-0.583161
-0.582243
-0.581315
-0.580376
-0.579428
-0.57847
-0.577504
-0.57653
-0.575548
-0.574558
-0.573562
-0.57256
-0.571552
-0.570538
-0.569519
-0.568495
-0.567468
-0.566442
-0.565411
-0.629215
-0.629723
-0.629487
-0.629274
-0.628973
-0.628603
-0.628168
-0.627676
-0.627144
-0.626573
-0.625962
-0.625309
-0.624617
-0.623889
-0.623125
-0.622329
-0.621501
-0.620642
-0.619753
-0.618836
-0.617892
-0.616921
-0.615926
-0.614906
-0.613864
-0.6128
-0.611715
-0.610612
-0.60949
-0.608351
-0.607197
-0.606028
-0.604845
-0.60365
-0.602442
-0.601224
-0.599996
-0.598759
-0.597513
-0.59626
-0.595
-0.593734
-0.592463
-0.591187
-0.589906
-0.588623
-0.587337
-0.586048
-0.584766
-0.583477
-0.664519
-0.664641
-0.664666
-0.664548
-0.6643
-0.663701
-0.663119
-0.662543
-0.661722
-0.660882
-0.660063
-0.659106
-0.658093
-0.657028
-0.655911
-0.654746
-0.653536
-0.652283
-0.65099
-0.64966
-0.648295
-0.646897
-0.645469
-0.644013
-0.64253
-0.641023
-0.639494
-0.637945
-0.636377
-0.634793
-0.633195
-0.631584
-0.629962
-0.628332
-0.626693
-0.625048
-0.623398
-0.621744
-0.620087
-0.618428
-0.616768
-0.615109
-0.61345
-0.611794
-0.61014
-0.608489
-0.606842
-0.6052
-0.603571
-0.601944
-0.711241
-0.711059
-0.710756
-0.710316
-0.709693
-0.708919
-0.70796
-0.706868
-0.705628
-0.70427
-0.702788
-0.701207
-0.699528
-0.697761
-0.695916
-0.694002
-0.692024
-0.689992
-0.68791
-0.685785
-0.683623
-0.681428
-0.679207
-0.676963
-0.674701
-0.672424
-0.670136
-0.66784
-0.66554
-0.663238
-0.660936
-0.658637
-0.656343
-0.654056
-0.651777
-0.649508
-0.647251
-0.645006
-0.642774
-0.640557
-0.638355
-0.636168
-0.633998
-0.631845
-0.62971
-0.627592
-0.625492
-0.623411
-0.62136
-0.61932
-0.786087
-0.786505
-0.785718
-0.784013
-0.781769
-0.779146
-0.776219
-0.773044
-0.769669
-0.766137
-0.762486
-0.75875
-0.754946
-0.751097
-0.747219
-0.743327
-0.739432
-0.735547
-0.731678
-0.727835
-0.724022
-0.720245
-0.716507
-0.712812
-0.709162
-0.70556
-0.702007
-0.698503
-0.695051
-0.691651
-0.688302
-0.685005
-0.68176
-0.678565
-0.675421
-0.672327
-0.669282
-0.666286
-0.663338
-0.660436
-0.657581
-0.654772
-0.652007
-0.649286
-0.646607
-0.643971
-0.641377
-0.638823
-0.636316
-0.633845
-0.952905
-0.939932
-0.924778
-0.910395
-0.897063
-0.884533
-0.872809
-0.861692
-0.851125
-0.841196
-0.83113
-0.822654
-0.81411
-0.805962
-0.798133
-0.790751
-0.783606
-0.776792
-0.770213
-0.763917
-0.757834
-0.751989
-0.746339
-0.740892
-0.735622
-0.730528
-0.725595
-0.720815
-0.71618
-0.711683
-0.707315
-0.70307
-0.698943
-0.694927
-0.691016
-0.687207
-0.683493
-0.679871
-0.676337
-0.672887
-0.669518
-0.666225
-0.663006
-0.659857
-0.656777
-0.653762
-0.650811
-0.64792
-0.645102
-0.64233
-0.387424
-0.387301
-0.387213
-0.387324
-0.387566
-0.387697
-0.387774
-0.38785
-0.387919
-0.387987
-0.388059
-0.386726
-0.387336
-0.387508
-0.38756
-0.387635
-0.386054
-0.387139
-0.387247
-0.387313
-0.387375
-0.387442
-0.386311
-0.38686
-0.386989
-0.387046
-0.387102
-0.387157
-0.387209
-0.387259
-0.387308
-0.387361
-0.384881
-0.386122
-0.386292
-0.386331
-0.386363
-0.386394
-0.386422
-0.386447
-0.386465
-0.386481
-0.386488
-0.386492
-0.386501
-0.386497
-0.38649
-0.386192
-0.386435
-0.386397
-0.386369
-0.38633
-0.386291
-0.386252
-0.386213
-0.386173
-0.386147
-0.385626
-0.382356
-0.382412
-0.383712
-0.384083
-0.383981
-0.383954
-0.384034
-0.383849
-0.384144
-0.384115
-0.384091
-0.384075
-0.384041
-0.384007
-0.383969
-0.382069
-0.383192
-0.383296
-0.383264
-0.383272
-0.383243
-0.383226
-0.383202
-0.383193
-0.382921
-0.382065
-0.382415
-0.382593
-0.382613
-0.38259
-0.382552
-0.382494
-0.382433
-0.382364
-0.382292
-0.382055
-0.379282
-0.379709
-0.37991
-0.379924
-0.379795
-0.380336
-0.379771
-0.379584
-0.380803
-0.38091
-0.380718
-0.380591
-0.380522
-0.379917
-0.37923
-0.379379
-0.379683
-0.379696
-0.379555
-0.379941
-0.375581
-0.376486
-0.376718
-0.376697
-0.376515
-0.377071
-0.376334
-0.376133
-0.377465
-0.376888
-0.376731
-0.376278
-0.374615
-0.374455
-0.374667
-0.373744
-0.373625
-0.373109
-0.37081
-0.37069
-0.371523
-0.371764
-0.371523
-0.372034
-0.371279
-0.370975
-0.372228
-0.372508
-0.372167
-0.373743
-0.372123
-0.372506
-0.37262
-0.372061
-0.371804
-0.371819
-0.370517
-0.369588
-0.369903
-0.370553
-0.37071
-0.370505
-0.370292
-0.370079
-0.369858
-0.369641
-0.369416
-0.368991
-0.368805
-0.368584
-0.368322
-0.36801
-0.36762
-0.36776
-0.367581
-0.367364
-0.367121
-0.366865
-0.366616
-0.366379
-0.366154
-0.36593
-0.365708
-0.36549
-0.365276
-0.365062
-0.364852
-0.364648
-0.364443
-0.364244
-0.364049
-0.363858
-0.363669
-0.363483
-0.363299
-0.36312
-0.362948
-0.362777
-0.362606
-0.362437
-0.362267
-0.362095
-0.36192
-0.361741
-0.361555
-0.361365
-0.361168
-0.360966
-0.360759
-0.360546
-0.360329
-0.360107
-0.359881
-0.359651
-0.359419
-0.359184
-0.358947
-0.358709
-0.35847
-0.35823
-0.357989
-0.357748
-0.357506
-0.357265
-0.357024
-0.356783
-0.356543
-0.356304
-0.356065
-0.355826
-0.355589
-0.355352
-0.355117
-0.354882
-0.354648
-0.354416
-0.354184
-0.353954
-0.353725
-0.353497
-0.353271
-0.353046
-0.352822
-0.3526
-0.352379
-0.35216
-0.351942
-0.351727
-0.351512
-0.3513
-0.351089
-0.350881
-0.350674
-0.350469
-0.350266
-0.350065
-0.349867
-0.34967
-0.349476
-0.349285
-0.349095
-0.348908
-0.348724
-0.348542
-0.348363
-0.348187
-0.348013
-0.347842
-0.347674
-0.34751
-0.347348
-0.347189
-0.347034
-0.346882
-0.346733
-0.346588
-0.346446
-0.346308
-0.346174
-0.346043
-0.345916
-0.345793
-0.345674
-0.34556
-0.345449
-0.345343
-0.345241
-0.345143
-0.34505
-0.344962
-0.344878
-0.344799
-0.344725
-0.344656
-0.344592
-0.344534
-0.34448
-0.344432
-0.344389
-0.344352
-0.34432
-0.344294
-0.344275
-0.34426
-0.344252
-0.344251
-0.394958
-0.394971
-0.394984
-0.394993
-0.395003
-0.395013
-0.39502
-0.395026
-0.39503
-0.395033
-0.395035
-0.395035
-0.395036
-0.395037
-0.395038
-0.39504
-0.39504
-0.395039
-0.394859
-0.391158
-0.394783
-0.394777
-0.394785
-0.39477
-0.394984
-0.394976
-0.394968
-0.394959
-0.394947
-0.394933
-0.394918
-0.394899
-0.394878
-0.393954
-0.394367
-0.394418
-0.394392
-0.394368
-0.394346
-0.394325
-0.394305
-0.394287
-0.394272
-0.394258
-0.394243
-0.394235
-0.394231
-0.394094
-0.391012
-0.393652
-0.393821
-0.393819
-0.393822
-0.393815
-0.393803
-0.393791
-0.393773
-0.393396
-0.388396
-0.39148
-0.39198
-0.39207
-0.392059
-0.392043
-0.392015
-0.391983
-0.391932
-0.391511
-0.391467
-0.391482
-0.391442
-0.391385
-0.391331
-0.391261
-0.39119
-0.391119
-0.391048
-0.390949
-0.389518
-0.390496
-0.390035
-0.390384
-0.389967
-0.38965
-0.391212
-0.390307
-0.391436
-0.390625
-0.391055
-0.391235
-0.391249
-0.391231
-0.391218
-0.39104
-0.388328
-0.389531
-0.389874
-0.389527
-0.389571
-0.389426
-0.387219
-0.388106
-0.388488
-0.388594
-0.388623
-0.388652
-0.388593
-0.38553
-0.386595
-0.38711
-0.387189
-0.387206
-0.387223
-0.387178
-0.383283
-0.384645
-0.38527
-0.385415
-0.385417
-0.385422
-0.385432
-0.385144
-0.38417
-0.384183
-0.384414
-0.383652
-0.383622
-0.383406
-0.381579
-0.381598
-0.381856
-0.381
-0.381937
-0.381147
-0.380906
-0.381834
-0.381331
-0.3812
-0.379576
-0.381146
-0.381536
-0.381077
-0.380987
-0.378762
-0.379937
-0.379531
-0.379476
-0.379227
-0.369396
-0.377234
-0.377878
-0.377699
-0.377608
-0.377472
-0.3775
-0.377405
-0.377314
-0.377228
-0.37715
-0.377077
-0.377015
-0.376644
-0.373635
-0.367041
-0.367209
-0.369005
-0.37154
-0.372225
-0.37212
-0.372139
-0.371876
-0.370781
-0.371147
-0.371422
-0.37141
-0.37131
-0.371196
-0.371071
-0.370934
-0.370788
-0.370511
-0.370002
-0.369907
-0.36988
-0.369704
-0.369523
-0.369362
-0.369207
-0.369052
-0.368895
-0.368736
-0.36858
-0.368427
-0.368273
-0.368109
-0.367926
-0.367709
-0.367455
-0.367189
-0.366921
-0.366653
-0.366387
-0.366124
-0.365861
-0.365599
-0.365337
-0.365076
-0.364815
-0.364555
-0.364296
-0.364038
-0.363781
-0.363524
-0.363269
-0.363015
-0.362761
-0.362508
-0.362256
-0.362004
-0.361753
-0.361503
-0.361253
-0.361004
-0.360755
-0.360507
-0.360259
-0.360013
-0.359767
-0.359521
-0.359277
-0.359033
-0.35879
-0.358548
-0.358308
-0.358068
-0.357829
-0.357592
-0.357356
-0.357121
-0.356888
-0.356657
-0.356427
-0.356198
-0.355972
-0.355747
-0.355524
-0.355303
-0.355084
-0.354867
-0.354653
-0.35444
-0.35423
-0.354022
-0.353817
-0.353614
-0.353414
-0.353217
-0.353022
-0.352831
-0.352642
-0.352456
-0.352273
-0.352094
-0.351917
-0.351744
-0.351574
-0.351408
-0.351245
-0.351086
-0.350931
-0.350779
-0.350632
-0.350488
-0.350348
-0.350213
-0.350081
-0.349954
-0.349832
-0.349714
-0.3496
-0.349491
-0.349387
-0.349287
-0.349193
-0.349103
-0.349019
-0.34894
-0.348866
-0.348798
-0.348735
-0.348678
-0.348626
-0.348581
-0.348541
-0.348507
-0.348479
-0.348458
-0.348443
-0.348434
-0.348432
-0.403542
-0.403565
-0.403587
-0.403605
-0.403611
-0.403619
-0.403636
-0.40365
-0.403638
-0.403709
-0.403698
-0.403712
-0.403696
-0.403737
-0.40375
-0.40376
-0.403765
-0.403773
-0.403715
-0.402893
-0.402243
-0.402221
-0.402288
-0.40279
-0.403635
-0.403825
-0.403853
-0.40388
-0.403908
-0.403937
-0.403967
-0.403998
-0.404021
-0.400435
-0.402212
-0.402442
-0.402486
-0.402509
-0.402534
-0.402555
-0.402575
-0.402546
-0.402589
-0.402606
-0.402619
-0.402631
-0.40242
-0.39735
-0.398639
-0.400576
-0.40089
-0.40092
-0.400941
-0.400951
-0.40095
-0.400949
-0.400866
-0.397742
-0.398354
-0.399097
-0.399165
-0.399173
-0.399168
-0.399144
-0.39912
-0.39909
-0.398852
-0.399006
-0.398979
-0.398948
-0.398913
-0.398875
-0.398835
-0.397745
-0.398182
-0.398231
-0.398191
-0.398272
-0.39792
-0.397398
-0.397623
-0.397808
-0.397779
-0.397731
-0.39768
-0.397593
-0.397286
-0.396433
-0.397758
-0.397805
-0.397682
-0.397602
-0.397443
-0.395929
-0.396426
-0.396433
-0.396282
-0.39614
-0.395989
-0.395829
-0.395667
-0.395017
-0.395034
-0.395451
-0.395307
-0.395139
-0.394961
-0.394772
-0.394576
-0.394409
-0.393973
-0.393665
-0.394243
-0.394219
-0.393999
-0.393791
-0.393586
-0.393384
-0.393185
-0.392759
-0.391564
-0.391367
-0.391427
-0.391293
-0.391063
-0.390848
-0.390578
-0.389962
-0.3887
-0.390472
-0.390209
-0.389961
-0.389718
-0.389124
-0.389089
-0.389874
-0.38972
-0.38954
-0.38937
-0.38918
-0.388984
-0.388787
-0.388596
-0.388402
-0.387824
-0.384948
-0.380501
-0.380377
-0.38136
-0.383425
-0.383919
-0.383738
-0.383536
-0.38333
-0.38312
-0.382904
-0.382683
-0.382274
-0.38168
-0.381447
-0.381402
-0.381107
-0.380854
-0.380594
-0.380279
-0.379975
-0.37968
-0.379386
-0.379076
-0.378752
-0.378411
-0.377026
-0.377341
-0.377813
-0.37762
-0.37733
-0.377055
-0.376791
-0.376526
-0.376252
-0.375996
-0.37576
-0.375523
-0.374846
-0.373877
-0.373821
-0.374192
-0.37433
-0.374269
-0.374227
-0.374211
-0.374221
-0.374249
-0.3743
-0.374359
-0.374312
-0.374217
-0.374166
-0.374025
-0.37383
-0.373624
-0.373387
-0.373105
-0.372784
-0.372438
-0.372074
-0.371702
-0.371326
-0.370951
-0.370581
-0.370216
-0.369858
-0.369507
-0.369162
-0.368823
-0.36849
-0.368162
-0.367839
-0.367521
-0.367207
-0.366897
-0.366591
-0.366288
-0.365989
-0.365693
-0.365399
-0.365109
-0.364821
-0.364536
-0.364254
-0.363974
-0.363697
-0.363423
-0.363151
-0.362881
-0.362614
-0.36235
-0.362088
-0.361828
-0.361571
-0.361316
-0.361063
-0.360813
-0.360565
-0.36032
-0.360078
-0.359838
-0.3596
-0.359365
-0.359133
-0.358903
-0.358676
-0.358452
-0.358231
-0.358013
-0.357798
-0.357586
-0.357377
-0.357171
-0.356968
-0.356769
-0.356573
-0.35638
-0.356192
-0.356006
-0.355825
-0.355647
-0.355473
-0.355303
-0.355137
-0.354975
-0.354817
-0.354664
-0.354514
-0.35437
-0.354229
-0.354094
-0.353963
-0.353837
-0.353716
-0.353599
-0.353488
-0.353382
-0.353282
-0.353186
-0.353096
-0.353012
-0.352933
-0.35286
-0.352793
-0.352732
-0.352677
-0.352628
-0.352586
-0.35255
-0.35252
-0.352497
-0.35248
-0.352471
-0.352468
-0.41306
-0.413078
-0.413072
-0.413057
-0.412804
-0.412697
-0.412682
-0.412673
-0.412903
-0.412998
-0.412985
-0.412972
-0.41296
-0.412946
-0.412923
-0.412615
-0.412587
-0.412952
-0.412915
-0.412898
-0.412887
-0.412741
-0.412749
-0.412878
-0.412863
-0.412871
-0.412852
-0.412832
-0.412811
-0.41279
-0.412765
-0.412611
-0.406281
-0.408213
-0.408696
-0.408838
-0.408797
-0.408762
-0.40872
-0.408671
-0.408616
-0.408555
-0.40849
-0.408421
-0.408348
-0.408007
-0.407166
-0.406926
-0.409975
-0.410454
-0.410483
-0.410412
-0.410324
-0.41024
-0.41015
-0.410057
-0.40996
-0.409861
-0.409759
-0.409657
-0.409557
-0.409456
-0.409353
-0.409248
-0.409142
-0.409036
-0.408931
-0.408827
-0.40872
-0.408612
-0.4085
-0.408383
-0.408162
-0.407302
-0.407201
-0.407274
-0.407229
-0.407116
-0.406998
-0.406887
-0.406768
-0.406649
-0.40653
-0.40641
-0.406288
-0.406166
-0.406041
-0.405915
-0.405781
-0.405644
-0.405502
-0.405362
-0.405215
-0.405063
-0.404903
-0.404742
-0.404579
-0.404417
-0.404251
-0.404081
-0.40391
-0.403732
-0.403553
-0.40337
-0.403157
-0.402937
-0.402855
-0.402656
-0.402451
-0.402232
-0.402018
-0.401801
-0.401571
-0.401078
-0.401053
-0.400837
-0.400587
-0.400349
-0.400087
-0.399819
-0.399551
-0.399268
-0.398987
-0.398707
-0.398405
-0.398073
-0.397761
-0.397448
-0.397134
-0.39679
-0.395131
-0.393148
-0.392717
-0.39607
-0.397524
-0.397807
-0.397454
-0.397104
-0.396754
-0.396408
-0.396029
-0.395463
-0.395069
-0.395239
-0.394799
-0.394474
-0.394152
-0.393774
-0.393422
-0.393128
-0.392825
-0.392447
-0.392103
-0.391795
-0.39148
-0.391148
-0.390798
-0.390581
-0.390276
-0.389982
-0.389703
-0.389413
-0.389153
-0.388876
-0.388526
-0.387929
-0.3877
-0.387795
-0.387549
-0.387334
-0.387137
-0.384819
-0.385372
-0.385384
-0.38515
-0.384989
-0.384787
-0.3846
-0.378905
-0.382009
-0.382555
-0.382055
-0.382081
-0.381495
-0.380166
-0.382244
-0.382289
-0.382194
-0.38212
-0.382027
-0.381962
-0.381998
-0.38211
-0.381925
-0.381888
-0.354197
-0.372207
-0.377019
-0.37705
-0.377002
-0.376822
-0.376551
-0.37626
-0.375952
-0.375581
-0.375323
-0.375024
-0.374725
-0.374432
-0.374152
-0.373895
-0.373627
-0.373354
-0.373079
-0.372804
-0.37253
-0.372257
-0.371985
-0.371713
-0.371442
-0.371171
-0.3709
-0.370628
-0.370356
-0.370084
-0.369811
-0.369537
-0.369263
-0.36899
-0.368716
-0.368442
-0.368169
-0.367896
-0.367624
-0.367352
-0.367081
-0.366811
-0.366542
-0.366274
-0.366007
-0.365742
-0.365479