/*--------------------------------*- C++ -*----------------------------------*\
| =========                 |                                                 |
| \\      /  F ield         | OpenFOAM: The Open Source CFD Toolbox           |
|  \\    /   O peration     | Version:  2.4.0                                 |
|   \\  /    A nd           | Web:      www.OpenFOAM.org                      |
|    \\/     M anipulation  |                                                 |
\*---------------------------------------------------------------------------*/
FoamFile
{
    version     2.0;
    format      ascii;
    class       surfaceScalarField;
    location    "2.4";
    object      phi;
}
// * * * * * * * * * * * * * * * * * * * * * * * * * * * * * * * * * * * * * //

dimensions      [0 3 -1 0 0 0 0];

internalField   nonuniform List<scalar> 
220
(
1.2051e-17
-2.74976e-10
1.30209e-17
-2.74975e-10
-5.69089e-18
-2.74974e-10
-1.72285e-17
-2.74975e-10
-2.74976e-10
9.89816e-18
-2.74976e-10
1.13866e-17
-2.74975e-10
-4.38163e-18
-2.74974e-10
-1.46387e-17
-2.74975e-10
-2.74976e-10
7.81993e-18
-2.74976e-10
9.80906e-18
-2.74975e-10
-3.11449e-18
-2.74974e-10
-1.21367e-17
-2.74975e-10
-2.74976e-10
5.81764e-18
-2.74976e-10
8.2892e-18
-2.74975e-10
-1.89042e-18
-2.74974e-10
-9.72369e-18
-2.74975e-10
-2.74976e-10
3.8925e-18
-2.74976e-10
6.82771e-18
-2.74975e-10
-7.1031e-19
-2.74974e-10
-7.4009e-18
-2.74975e-10
-2.74976e-10
2.04561e-18
-2.74976e-10
5.42522e-18
-2.74975e-10
4.25e-19
-2.74974e-10
-5.16938e-18
-2.74975e-10
-2.74976e-10
2.7796e-19
-2.74976e-10
4.0823e-18
-2.74975e-10
1.51475e-18
-2.74974e-10
-3.0301e-18
-2.74975e-10
-2.74976e-10
-1.40957e-18
-2.74976e-10
2.79942e-18
-2.74975e-10
2.55824e-18
-2.74974e-10
-9.83881e-19
-2.74975e-10
-2.74976e-10
-3.01621e-18
-2.74976e-10
1.577e-18
-2.74975e-10
3.55483e-18
-2.74974e-10
9.68583e-19
-2.74974e-10
-2.74976e-10
-4.54131e-18
-2.74976e-10
4.15327e-19
-2.74975e-10
4.50397e-18
-2.74974e-10
2.82674e-18
-2.74974e-10
-2.74976e-10
-5.98438e-18
-2.74976e-10
-6.85378e-19
-2.74975e-10
5.40517e-18
-2.74974e-10
4.5902e-18
-2.74974e-10
-2.74976e-10
-7.34503e-18
-2.74976e-10
-1.725e-18
-2.74975e-10
6.25802e-18
-2.74974e-10
6.25869e-18
-2.74974e-10
-2.74976e-10
-8.62302e-18
-2.74976e-10
-2.70353e-18
-2.74975e-10
7.06222e-18
-2.74974e-10
7.83213e-18
-2.74974e-10
-2.74976e-10
-9.81827e-18
-2.74976e-10
-3.62106e-18
-2.74975e-10
7.81752e-18
-2.74974e-10
9.31055e-18
-2.74974e-10
-2.74976e-10
-1.09309e-17
-2.74976e-10
-4.47779e-18
-2.74975e-10
8.52381e-18
-2.74974e-10
1.06942e-17
-2.74975e-10
-2.74976e-10
-1.1961e-17
-2.74976e-10
-5.27403e-18
-2.74975e-10
9.18104e-18
-2.74974e-10
1.19834e-17
-2.74975e-10
-2.74976e-10
-1.29092e-17
-2.74976e-10
-6.01022e-18
-2.74975e-10
9.7893e-18
-2.74974e-10
1.31788e-17
-2.74975e-10
-2.74976e-10
-1.37759e-17
-2.74976e-10
-6.68691e-18
-2.74975e-10
1.03488e-17
-2.74974e-10
1.42811e-17
-2.74975e-10
-2.74976e-10
-1.45619e-17
-2.74976e-10
-7.30477e-18
-2.74975e-10
1.08597e-17
-2.74974e-10
1.52913e-17
-2.74975e-10
-2.74976e-10
-1.52683e-17
-2.74976e-10
-7.86461e-18
-2.74975e-10
1.13227e-17
-2.74974e-10
1.62105e-17
-2.74975e-10
-2.74976e-10
-1.58961e-17
-2.74976e-10
-8.36736e-18
-2.74975e-10
1.17381e-17
-2.74974e-10
1.704e-17
-2.74975e-10
-2.74976e-10
-1.64468e-17
-2.74976e-10
-8.81408e-18
-2.74975e-10
1.21067e-17
-2.74974e-10
1.77813e-17
-2.74975e-10
-2.74976e-10
-1.6922e-17
-2.74976e-10
-9.20597e-18
-2.74975e-10
1.24294e-17
-2.74974e-10
1.84362e-17
-2.74975e-10
-2.74976e-10
-1.73235e-17
-2.74976e-10
-9.54431e-18
-2.74975e-10
1.27072e-17
-2.74974e-10
1.90045e-17
-2.74975e-10
-2.74976e-10
-1.76534e-17
-9.83065e-18
1.29413e-17
1.94915e-17
)
;

boundaryField
{
    BotWall
    {
        type            calculated;
        value           nonuniform 0();
    }
    FreeStream
    {
        type            calculated;
        value           nonuniform 0();
    }
    FrontNBack
    {
        type            empty;
        value           nonuniform 0();
    }
    LeftSide
    {
        type            symmetryPlane;
        value           uniform 0;
    }
    RightSide
    {
        type            symmetryPlane;
        value           uniform 0;
    }
    procBoundary2to1
    {
        type            processor;
        value           nonuniform List<scalar> 5(2.74976e-10 2.74975e-10 2.74974e-10 2.74975e-10 2.74976e-10);
    }
    procBoundary2to3
    {
        type            processor;
        value           nonuniform List<scalar> 5(-2.74976e-10 -2.74975e-10 -2.74974e-10 -2.74975e-10 -2.74976e-10);
    }
}


// ************************************************************************* //
