/*--------------------------------*- C++ -*----------------------------------*\
| =========                 |                                                 |
| \\      /  F ield         | OpenFOAM: The Open Source CFD Toolbox           |
|  \\    /   O peration     | Version:  2.4.0                                 |
|   \\  /    A nd           | Web:      www.OpenFOAM.org                      |
|    \\/     M anipulation  |                                                 |
\*---------------------------------------------------------------------------*/
FoamFile
{
    version     2.0;
    format      ascii;
    class       volScalarField;
    location    "2.4";
    object      T;
}
// * * * * * * * * * * * * * * * * * * * * * * * * * * * * * * * * * * * * * //

dimensions      [0 0 0 1 0 0 0];

internalField   nonuniform List<scalar> 
125
(
297.99
297.99
297.99
297.99
297.99
297.99
297.99
297.99
297.99
297.99
297.99
297.99
297.99
297.99
297.99
297.991
297.991
297.991
297.991
297.991
297.991
297.991
297.991
297.991
297.991
297.991
297.991
297.991
297.991
297.991
297.991
297.991
297.991
297.991
297.991
297.991
297.991
297.991
297.991
297.991
297.991
297.991
297.991
297.991
297.991
297.991
297.991
297.991
297.991
297.991
297.991
297.991
297.991
297.991
297.991
297.991
297.991
297.991
297.991
297.991
297.992
297.992
297.992
297.992
297.992
297.992
297.992
297.992
297.992
297.992
297.992
297.992
297.992
297.992
297.992
297.992
297.992
297.992
297.992
297.992
297.992
297.992
297.992
297.992
297.992
297.992
297.992
297.992
297.992
297.992
297.992
297.992
297.992
297.992
297.992
297.993
297.993
297.993
297.993
297.993
297.993
297.993
297.993
297.993
297.993
297.993
297.993
297.993
297.993
297.993
297.993
297.993
297.993
297.993
297.993
297.993
297.993
297.993
297.993
297.993
297.994
297.994
297.994
297.994
297.994
)
;

boundaryField
{
    BotWall
    {
        type            fixedValue;
        value           nonuniform 0();
    }
    FreeStream
    {
        type            fixedValue;
        value           nonuniform 0();
    }
    FrontNBack
    {
        type            empty;
    }
    LeftSide
    {
        type            symmetryPlane;
    }
    RightSide
    {
        type            symmetryPlane;
    }
    procBoundary2to1
    {
        type            processor;
        value           nonuniform List<scalar> 5(297.99 297.99 297.99 297.99 297.99);
    }
    procBoundary2to3
    {
        type            processor;
        value           nonuniform List<scalar> 5(297.994 297.994 297.994 297.994 297.994);
    }
}


// ************************************************************************* //
