/*--------------------------------*- C++ -*----------------------------------*\
| =========                 |                                                 |
| \\      /  F ield         | OpenFOAM: The Open Source CFD Toolbox           |
|  \\    /   O peration     | Version:  2.4.0                                 |
|   \\  /    A nd           | Web:      www.OpenFOAM.org                      |
|    \\/     M anipulation  |                                                 |
\*---------------------------------------------------------------------------*/
FoamFile
{
    version     2.0;
    format      ascii;
    class       volVectorField;
    location    "2.4";
    object      U;
}
// * * * * * * * * * * * * * * * * * * * * * * * * * * * * * * * * * * * * * //

dimensions      [0 1 -1 0 0 0 0];

internalField   nonuniform List<vector> 
125
(
(1.33796e-09 -0.00137488 0)
(3.70974e-09 -0.00137487 0)
(1.75057e-09 -0.00137487 0)
(-4.12873e-09 -0.00137487 0)
(-3.11075e-09 -0.00137488 0)
(1.01743e-09 -0.00137488 0)
(3.08356e-09 -0.00137487 0)
(1.64011e-09 -0.00137487 0)
(-3.45036e-09 -0.00137487 0)
(-2.63701e-09 -0.00137488 0)
(7.14547e-10 -0.00137488 0)
(2.49058e-09 -0.00137487 0)
(1.53529e-09 -0.00137487 0)
(-2.80711e-09 -0.00137487 0)
(-2.18867e-09 -0.00137488 0)
(4.2901e-10 -0.00137488 0)
(1.93027e-09 -0.00137487 0)
(1.43594e-09 -0.00137487 0)
(-2.19841e-09 -0.00137487 0)
(-1.7652e-09 -0.00137488 0)
(1.60522e-10 -0.00137488 0)
(1.40208e-09 -0.00137487 0)
(1.34191e-09 -0.00137487 0)
(-1.62368e-09 -0.00137487 0)
(-1.36607e-09 -0.00137488 0)
(-9.1227e-11 -0.00137488 0)
(9.05429e-10 -0.00137487 0)
(1.25302e-09 -0.00137487 0)
(-1.08233e-09 -0.00137487 0)
(-9.90751e-10 -0.00137488 0)
(-3.2656e-10 -0.00137488 0)
(4.3971e-10 -0.00137487 0)
(1.1691e-09 -0.00137487 0)
(-5.73728e-10 -0.00137487 0)
(-6.38685e-10 -0.00137488 0)
(-5.4581e-10 -0.00137488 0)
(4.30213e-12 -0.00137488 0)
(1.08999e-09 -0.00137487 0)
(-9.72254e-11 -0.00137487 0)
(-3.09314e-10 -0.00137488 0)
(-7.49321e-10 -0.00137488 0)
(-4.01438e-10 -0.00137488 0)
(1.01552e-09 -0.00137487 0)
(3.4785e-10 -0.00137487 0)
(-2.06805e-12 -0.00137488 0)
(-9.37448e-10 -0.00137488 0)
(-7.78178e-10 -0.00137488 0)
(9.45521e-10 -0.00137487 0)
(7.62193e-10 -0.00137487 0)
(2.83634e-10 -0.00137488 0)
(-1.11056e-09 -0.00137488 0)
(-1.12661e-09 -0.00137488 0)
(8.79825e-10 -0.00137487 0)
(1.14652e-09 -0.00137487 0)
(5.4838e-10 -0.00137488 0)
(-1.26903e-09 -0.00137488 0)
(-1.44743e-09 -0.00137488 0)
(8.18267e-10 -0.00137487 0)
(1.50157e-09 -0.00137487 0)
(7.9277e-10 -0.00137488 0)
(-1.41325e-09 -0.00137488 0)
(-1.74138e-09 -0.00137488 0)
(7.60685e-10 -0.00137487 0)
(1.82811e-09 -0.00137487 0)
(1.01741e-09 -0.00137488 0)
(-1.54363e-09 -0.00137488 0)
(-2.00921e-09 -0.00137488 0)
(7.06915e-10 -0.00137487 0)
(2.12691e-09 -0.00137487 0)
(1.22291e-09 -0.00137488 0)
(-1.66056e-09 -0.00137488 0)
(-2.2517e-09 -0.00137488 0)
(6.56797e-10 -0.00137487 0)
(2.39879e-09 -0.00137487 0)
(1.4099e-09 -0.00137488 0)
(-1.76449e-09 -0.00137488 0)
(-2.46963e-09 -0.00137488 0)
(6.10173e-10 -0.00137487 0)
(2.64456e-09 -0.00137487 0)
(1.57901e-09 -0.00137488 0)
(-1.85584e-09 -0.00137488 0)
(-2.66383e-09 -0.00137488 0)
(5.66888e-10 -0.00137487 0)
(2.86508e-09 -0.00137487 0)
(1.73087e-09 -0.00137488 0)
(-1.93506e-09 -0.00137488 0)
(-2.83512e-09 -0.00137488 0)
(5.2679e-10 -0.00137487 0)
(3.06121e-09 -0.00137487 0)
(1.86613e-09 -0.00137488 0)
(-2.00262e-09 -0.00137488 0)
(-2.98438e-09 -0.00137488 0)
(4.89729e-10 -0.00137487 0)
(3.23383e-09 -0.00137487 0)
(1.98544e-09 -0.00137488 0)
(-2.05897e-09 -0.00137488 0)
(-3.11247e-09 -0.00137488 0)
(4.5556e-10 -0.00137487 0)
(3.38385e-09 -0.00137487 0)
(2.08945e-09 -0.00137488 0)
(-2.10461e-09 -0.00137488 0)
(-3.22029e-09 -0.00137488 0)
(4.24141e-10 -0.00137487 0)
(3.51219e-09 -0.00137487 0)
(2.17883e-09 -0.00137488 0)
(-2.14002e-09 -0.00137488 0)
(-3.30876e-09 -0.00137488 0)
(3.95336e-10 -0.00137487 0)
(3.61981e-09 -0.00137487 0)
(2.25425e-09 -0.00137488 0)
(-2.16572e-09 -0.00137488 0)
(-3.37881e-09 -0.00137488 0)
(3.69008e-10 -0.00137487 0)
(3.70768e-09 -0.00137487 0)
(2.3164e-09 -0.00137488 0)
(-2.18221e-09 -0.00137488 0)
(-3.43139e-09 -0.00137488 0)
(3.45036e-10 -0.00137487 0)
(3.7766e-09 -0.00137487 0)
(2.36577e-09 -0.00137488 0)
(-2.19003e-09 -0.00137488 0)
(-3.46749e-09 -0.00137488 0)
(3.23293e-10 -0.00137487 0)
(3.82785e-09 -0.00137487 0)
(2.40333e-09 -0.00137488 0)
)
;

boundaryField
{
    BotWall
    {
        type            fixedValue;
        value           nonuniform 0();
    }
    FreeStream
    {
        type            zeroGradient;
    }
    FrontNBack
    {
        type            empty;
    }
    LeftSide
    {
        type            symmetryPlane;
    }
    RightSide
    {
        type            symmetryPlane;
    }
    procBoundary2to1
    {
        type            processor;
        value           nonuniform List<vector> 5((1.6764e-09 -0.00137488 0) (4.36965e-09 -0.00137487 0) (1.86686e-09 -0.00137487 0) (-4.84268e-09 -0.00137487 0) (-3.61032e-09 -0.00137488 0));
    }
    procBoundary2to3
    {
        type            processor;
        value           nonuniform List<vector> 5((-2.18972e-09 -0.00137488 0) (-3.48809e-09 -0.00137488 0) (3.03657e-10 -0.00137487 0) (3.86224e-09 -0.00137487 0) (2.42956e-09 -0.00137488 0));
    }
}


// ************************************************************************* //
