/*--------------------------------*- C++ -*----------------------------------*\
| =========                 |                                                 |
| \\      /  F ield         | OpenFOAM: The Open Source CFD Toolbox           |
|  \\    /   O peration     | Version:  2.4.0                                 |
|   \\  /    A nd           | Web:      www.OpenFOAM.org                      |
|    \\/     M anipulation  |                                                 |
\*---------------------------------------------------------------------------*/
FoamFile
{
    version     2.0;
    format      ascii;
    class       volScalarField;
    location    "2.1";
    object      H;
}
// * * * * * * * * * * * * * * * * * * * * * * * * * * * * * * * * * * * * * //

dimensions      [0 2 -2 0 0 0 0];

internalField   nonuniform List<scalar> 
500
(
-11898.1
-11898.1
-11898.1
-11898.1
-11898.1
-11230.6
-11230.6
-11230.6
-11230.6
-11230.6
-10555.5
-10555.5
-10555.5
-10555.5
-10555.5
-9872.76
-9872.75
-9872.74
-9872.75
-9872.76
-9182.17
-9182.16
-9182.15
-9182.16
-9182.17
-8483.59
-8483.57
-8483.56
-8483.57
-8483.59
-7776.85
-7776.82
-7776.81
-7776.82
-7776.85
-7061.78
-7061.75
-7061.74
-7061.75
-7061.78
-6338.21
-6338.19
-6338.17
-6338.19
-6338.22
-5605.98
-5605.95
-5605.93
-5605.95
-5605.98
-4864.89
-4864.85
-4864.83
-4864.85
-4864.89
-4114.76
-4114.72
-4114.7
-4114.72
-4114.76
-3355.41
-3355.37
-3355.34
-3355.37
-3355.41
-2586.63
-2586.59
-2586.56
-2586.59
-2586.64
-1808.24
-1808.19
-1808.15
-1808.19
-1808.24
-1020.03
-1019.97
-1019.93
-1019.97
-1020.03
-25.7048
-25.6989
-25.6954
-25.6989
-25.7049
-19.2805
-19.2761
-19.2735
-19.2761
-19.2806
-19.4639
-19.4595
-19.4569
-19.4595
-19.4639
-19.6414
-19.6371
-19.6346
-19.6371
-19.6415
-19.8128
-19.8086
-19.8061
-19.8086
-19.8129
-19.9779
-19.9737
-19.9712
-19.9737
-19.9779
-20.1362
-20.1321
-20.1297
-20.1321
-20.1363
-20.2877
-20.2836
-20.2812
-20.2836
-20.2877
-20.4319
-20.4279
-20.4255
-20.4279
-20.432
-20.5686
-20.5647
-20.5624
-20.5647
-20.5687
-20.6976
-20.6937
-20.6914
-20.6937
-20.6977
-20.8185
-20.8147
-20.8124
-20.8147
-20.8186
-20.931
-20.9273
-20.925
-20.9273
-20.9311
-21.035
-21.0313
-21.0291
-21.0313
-21.035
-21.13
-21.1264
-21.1242
-21.1263
-21.13
-21.2158
-21.2122
-21.2101
-21.2122
-21.2159
-21.2921
-21.2886
-21.2865
-21.2886
-21.2922
-21.3587
-21.3553
-21.3532
-21.3553
-21.3588
-21.4153
-21.4119
-21.4098
-21.4119
-21.4153
-21.4615
-21.4582
-21.4562
-21.4582
-21.4616
-21.4972
-21.4939
-21.492
-21.4939
-21.4973
-21.5221
-21.5188
-21.5169
-21.5188
-21.5221
-21.5358
-21.5327
-21.5307
-21.5327
-21.5359
-21.5382
-21.5351
-21.5332
-21.5351
-21.5383
-21.529
-21.526
-21.5242
-21.526
-21.5291
-21.508
-21.505
-21.5032
-21.505
-21.508
-21.4749
-21.472
-21.4702
-21.472
-21.475
-21.4295
-21.4267
-21.425
-21.4267
-21.4296
-21.3717
-21.3689
-21.3672
-21.3689
-21.3717
-21.3011
-21.2984
-21.2967
-21.2984
-21.3012
-21.2177
-21.215
-21.2134
-21.215
-21.2177
-21.1212
-21.1186
-21.117
-21.1186
-21.1212
-21.0115
-21.0089
-21.0074
-21.0089
-21.0115
-20.8884
-20.8859
-20.8844
-20.8859
-20.8884
-20.7517
-20.7493
-20.7478
-20.7493
-20.7518
-20.6015
-20.5991
-20.5977
-20.5991
-20.6015
-20.4375
-20.4352
-20.4338
-20.4352
-20.4376
-20.2597
-20.2575
-20.2561
-20.2575
-20.2598
-20.068
-20.0659
-20.0645
-20.0659
-20.0681
-19.8624
-19.8603
-19.859
-19.8603
-19.8625
-19.6428
-19.6408
-19.6395
-19.6408
-19.6429
-19.4093
-19.4073
-19.406
-19.4073
-19.4093
-19.1617
-19.1598
-19.1586
-19.1598
-19.1618
-18.9003
-18.8984
-18.8972
-18.8984
-18.9003
-18.6249
-18.6231
-18.622
-18.6231
-18.625
-18.3358
-18.334
-18.3329
-18.334
-18.3358
-18.0329
-18.0312
-18.0302
-18.0312
-18.033
-17.7165
-17.7149
-17.7138
-17.7149
-17.7165
-17.3866
-17.3851
-17.3841
-17.3851
-17.3867
-17.0435
-17.042
-17.041
-17.042
-17.0435
-16.6873
-16.6859
-16.685
-16.6859
-16.6874
-16.3183
-16.3169
-16.316
-16.3169
-16.3183
-15.9367
-15.9353
-15.9345
-15.9353
-15.9367
-15.5427
-15.5414
-15.5406
-15.5414
-15.5428
-15.1368
-15.1355
-15.1347
-15.1355
-15.1368
-14.7191
-14.7179
-14.7171
-14.7179
-14.7191
-14.29
-14.2889
-14.2882
-14.2889
-14.29
-13.85
-13.8489
-13.8482
-13.8489
-13.85
-13.3993
-13.3983
-13.3976
-13.3983
-13.3993
-12.9385
-12.9375
-12.9369
-12.9375
-12.9385
-12.4679
-12.467
-12.4664
-12.467
-12.4679
-11.9881
-11.9872
-11.9866
-11.9872
-11.9881
-11.4994
-11.4986
-11.4981
-11.4986
-11.4994
-11.0025
-11.0017
-11.0012
-11.0017
-11.0025
-10.4978
-10.4971
-10.4966
-10.4971
-10.4978
-9.98593
-9.98523
-9.98479
-9.98523
-9.98594
-9.4674
-9.46674
-9.46634
-9.46674
-9.46741
-8.94282
-8.94221
-8.94183
-8.94221
-8.94283
-8.4128
-8.41223
-8.41188
-8.41223
-8.4128
-7.87794
-7.87742
-7.87709
-7.87742
-7.87795
-7.33891
-7.33842
-7.33812
-7.33842
-7.33891
-6.79633
-6.79589
-6.79562
-6.79589
-6.79634
-6.2509
-6.25049
-6.25024
-6.25049
-6.2509
-5.70328
-5.70291
-5.70269
-5.70291
-5.70328
-5.15417
-5.15385
-5.15364
-5.15385
-5.15418
-4.60429
-4.604
-4.60382
-4.604
-4.6043
-4.05435
-4.0541
-4.05394
-4.0541
-4.05436
-3.50509
-3.50487
-3.50474
-3.50487
-3.50509
-2.95725
-2.95707
-2.95695
-2.95707
-2.95725
-2.41159
-2.41144
-2.41135
-2.41144
-2.41159
-1.86887
-1.86875
-1.86868
-1.86875
-1.86887
-1.32987
-1.32979
-1.32974
-1.32979
-1.32988
-0.795395
-0.795346
-0.795317
-0.795346
-0.795396
-0.266231
-0.266215
-0.266205
-0.266215
-0.266231
)
;

boundaryField
{
    BotWall
    {
        type            zeroGradient;
    }
    FreeStream
    {
        type            zeroGradient;
    }
    FrontNBack
    {
        type            empty;
    }
    LeftSide
    {
        type            symmetryPlane;
    }
    RightSide
    {
        type            symmetryPlane;
    }
}


// ************************************************************************* //
