/*--------------------------------*- C++ -*----------------------------------*\
| =========                 |                                                 |
| \\      /  F ield         | OpenFOAM: The Open Source CFD Toolbox           |
|  \\    /   O peration     | Version:  2.4.0                                 |
|   \\  /    A nd           | Web:      www.OpenFOAM.org                      |
|    \\/     M anipulation  |                                                 |
\*---------------------------------------------------------------------------*/
FoamFile
{
    version     2.0;
    format      ascii;
    class       volScalarField;
    location    "2.1";
    object      p;
}
// * * * * * * * * * * * * * * * * * * * * * * * * * * * * * * * * * * * * * //

dimensions      [1 -1 -2 0 0 0 0];

internalField   nonuniform List<scalar> 
500
(
0.510467
0.510502
0.510474
0.510501
0.510467
0.480618
0.480654
0.480628
0.480654
0.480618
0.450494
0.45053
0.450502
0.45053
0.450493
0.419982
0.420018
0.419991
0.420018
0.419981
0.389174
0.389212
0.389185
0.389211
0.389174
0.358055
0.358093
0.358067
0.358092
0.358054
0.326904
0.326944
0.326918
0.326943
0.326904
0.295428
0.295467
0.295442
0.295467
0.295427
0.261589
0.261627
0.261602
0.261627
0.261588
0.220613
0.220648
0.220623
0.220647
0.220613
0.177496
0.177534
0.177508
0.177534
0.177495
0.186542
0.186617
0.186594
0.186617
0.186541
0.364712
0.364866
0.364864
0.364866
0.36471
0.58602
0.586154
0.586206
0.586154
0.586018
-0.542145
-0.542496
-0.5425
-0.542497
-0.542146
-5.88749
-5.88888
-5.88937
-5.88888
-5.88747
-12.4935
-12.4954
-12.4969
-12.4954
-12.4935
-0.0156244
-0.0156241
-0.015624
-0.0156241
-0.0156244
-0.00815881
-0.0081591
-0.00815914
-0.0081591
-0.0081588
-0.00997117
-0.00997114
-0.00997114
-0.00997114
-0.00997117
-0.0112264
-0.0112263
-0.0112263
-0.0112263
-0.0112264
-0.0119362
-0.0119362
-0.0119362
-0.0119362
-0.0119362
-0.0125159
-0.0125159
-0.0125159
-0.0125159
-0.0125159
-0.0131215
-0.0131215
-0.0131215
-0.0131215
-0.0131215
-0.0137553
-0.0137553
-0.0137553
-0.0137553
-0.0137553
-0.0144014
-0.0144014
-0.0144014
-0.0144014
-0.0144014
-0.0150539
-0.0150539
-0.0150539
-0.0150539
-0.0150539
-0.0157129
-0.0157129
-0.0157129
-0.0157129
-0.0157129
-0.016379
-0.016379
-0.016379
-0.016379
-0.016379
-0.0170525
-0.0170525
-0.0170525
-0.0170525
-0.0170525
-0.0177336
-0.0177336
-0.0177336
-0.0177336
-0.0177336
-0.0184223
-0.0184223
-0.0184223
-0.0184223
-0.0184223
-0.0191187
-0.0191187
-0.0191187
-0.0191187
-0.0191187
-0.0198229
-0.0198229
-0.0198229
-0.0198229
-0.0198229
-0.0205349
-0.0205349
-0.0205349
-0.0205349
-0.0205349
-0.0212549
-0.0212549
-0.0212549
-0.0212549
-0.0212549
-0.0219829
-0.0219829
-0.0219829
-0.0219829
-0.0219829
-0.022719
-0.022719
-0.022719
-0.022719
-0.022719
-0.0234633
-0.0234633
-0.0234633
-0.0234633
-0.0234633
-0.024216
-0.024216
-0.024216
-0.024216
-0.024216
-0.024977
-0.024977
-0.024977
-0.024977
-0.024977
-0.0257466
-0.0257466
-0.0257466
-0.0257466
-0.0257466
-0.0265247
-0.0265247
-0.0265247
-0.0265247
-0.0265247
-0.0273115
-0.0273115
-0.0273115
-0.0273115
-0.0273115
-0.0281071
-0.0281071
-0.0281071
-0.0281071
-0.0281071
-0.0289116
-0.0289116
-0.0289116
-0.0289116
-0.0289116
-0.029725
-0.029725
-0.029725
-0.029725
-0.029725
-0.0305475
-0.0305475
-0.0305475
-0.0305475
-0.0305475
-0.0313792
-0.0313792
-0.0313792
-0.0313792
-0.0313792
-0.0322202
-0.0322202
-0.0322202
-0.0322202
-0.0322202
-0.0330706
-0.0330706
-0.0330706
-0.0330706
-0.0330706
-0.0339304
-0.0339304
-0.0339304
-0.0339304
-0.0339304
-0.0347999
-0.0347999
-0.0347999
-0.0347999
-0.0347999
-0.035679
-0.035679
-0.035679
-0.035679
-0.035679
-0.036568
-0.036568
-0.036568
-0.036568
-0.036568
-0.0374669
-0.0374669
-0.0374669
-0.0374669
-0.0374669
-0.0383758
-0.0383758
-0.0383758
-0.0383758
-0.0383758
-0.0392948
-0.0392948
-0.0392948
-0.0392948
-0.0392948
-0.0402241
-0.0402241
-0.0402241
-0.0402241
-0.0402241
-0.0411638
-0.0411638
-0.0411638
-0.0411638
-0.0411638
-0.042114
-0.042114
-0.042114
-0.042114
-0.042114
-0.0430747
-0.0430747
-0.0430747
-0.0430747
-0.0430747
-0.0440462
-0.0440462
-0.0440462
-0.0440462
-0.0440462
-0.0450286
-0.0450286
-0.0450286
-0.0450286
-0.0450286
-0.0460218
-0.0460218
-0.0460218
-0.0460218
-0.0460218
-0.0470262
-0.0470262
-0.0470262
-0.0470262
-0.0470262
-0.0480418
-0.0480418
-0.0480418
-0.0480418
-0.0480418
-0.0490687
-0.0490687
-0.0490687
-0.0490687
-0.0490687
-0.0501071
-0.0501071
-0.0501071
-0.0501071
-0.0501071
-0.0511571
-0.0511571
-0.0511571
-0.0511571
-0.0511571
-0.0522187
-0.0522187
-0.0522187
-0.0522187
-0.0522187
-0.0532923
-0.0532923
-0.0532923
-0.0532923
-0.0532923
-0.0543778
-0.0543778
-0.0543778
-0.0543778
-0.0543778
-0.0554754
-0.0554754
-0.0554754
-0.0554754
-0.0554754
-0.0565852
-0.0565852
-0.0565852
-0.0565852
-0.0565852
-0.0577075
-0.0577075
-0.0577075
-0.0577075
-0.0577075
-0.0588423
-0.0588423
-0.0588423
-0.0588423
-0.0588423
-0.0599897
-0.0599897
-0.0599897
-0.0599897
-0.0599897
-0.0611499
-0.0611499
-0.0611499
-0.0611499
-0.0611499
-0.0623231
-0.0623231
-0.0623231
-0.0623231
-0.0623231
-0.0635094
-0.0635094
-0.0635094
-0.0635094
-0.0635094
-0.0647089
-0.0647089
-0.0647089
-0.0647089
-0.0647089
-0.0659218
-0.0659218
-0.0659218
-0.0659218
-0.0659218
-0.0671483
-0.0671483
-0.0671483
-0.0671483
-0.0671483
-0.0683884
-0.0683884
-0.0683884
-0.0683884
-0.0683884
-0.0696423
-0.0696423
-0.0696423
-0.0696423
-0.0696423
-0.0709103
-0.0709103
-0.0709103
-0.0709103
-0.0709103
-0.0721924
-0.0721924
-0.0721924
-0.0721924
-0.0721924
-0.0734888
-0.0734888
-0.0734888
-0.0734888
-0.0734888
-0.0747997
-0.0747997
-0.0747997
-0.0747997
-0.0747997
-0.0761252
-0.0761252
-0.0761252
-0.0761252
-0.0761252
-0.0774655
-0.0774655
-0.0774655
-0.0774655
-0.0774655
-0.0788207
-0.0788207
-0.0788207
-0.0788207
-0.0788207
-0.0801911
-0.0801911
-0.0801911
-0.0801911
-0.0801911
-0.0815768
-0.0815768
-0.0815768
-0.0815768
-0.0815768
-0.0829779
-0.0829779
-0.0829779
-0.0829779
-0.0829779
-0.0843947
-0.0843947
-0.0843947
-0.0843947
-0.0843947
-0.0858272
-0.0858272
-0.0858272
-0.0858272
-0.0858272
-0.0872758
-0.0872758
-0.0872758
-0.0872758
-0.0872758
-0.0887405
-0.0887405
-0.0887405
-0.0887405
-0.0887405
)
;

boundaryField
{
    BotWall
    {
        type            calculated;
        value           nonuniform List<scalar> 5(0.525287 0.525322 0.525294 0.525322 0.525287);
    }
    FreeStream
    {
        type            calculated;
        value           nonuniform List<scalar> 5(-0.089477 -0.089477 -0.089477 -0.089477 -0.089477);
    }
    FrontNBack
    {
        type            empty;
    }
    LeftSide
    {
        type            symmetryPlane;
    }
    RightSide
    {
        type            symmetryPlane;
    }
}


// ************************************************************************* //
