/*--------------------------------*- C++ -*----------------------------------*\
| =========                 |                                                 |
| \\      /  F ield         | OpenFOAM: The Open Source CFD Toolbox           |
|  \\    /   O peration     | Version:  2.4.0                                 |
|   \\  /    A nd           | Web:      www.OpenFOAM.org                      |
|    \\/     M anipulation  |                                                 |
\*---------------------------------------------------------------------------*/
FoamFile
{
    version     2.0;
    format      ascii;
    class       volScalarField;
    location    "2.1";
    object      p_rgh;
}
// * * * * * * * * * * * * * * * * * * * * * * * * * * * * * * * * * * * * * //

dimensions      [1 -1 -2 0 0 0 0];

internalField   nonuniform List<scalar> 
500
(
0.525287
0.525322
0.525294
0.525322
0.525287
0.525244
0.525281
0.525255
0.525281
0.525244
0.525259
0.525295
0.525267
0.525294
0.525258
0.525221
0.525258
0.525231
0.525257
0.525221
0.525229
0.525266
0.52524
0.525266
0.525228
0.525269
0.525306
0.52528
0.525306
0.525268
0.525625
0.525664
0.525638
0.525663
0.525624
0.526006
0.526046
0.526021
0.526045
0.526006
0.52438
0.524419
0.524394
0.524419
0.52438
0.515978
0.516013
0.515988
0.516012
0.515978
0.505798
0.505836
0.505809
0.505835
0.505797
0.548148
0.548223
0.548199
0.548223
0.548147
0.759993
0.760147
0.760145
0.760147
0.759992
1.01535
1.01549
1.01554
1.01549
1.01535
-0.0783803
-0.0787321
-0.078736
-0.0787322
-0.0783814
-5.38891
-5.3903
-5.39079
-5.3903
-5.38889
-12.2165
-12.2183
-12.2197
-12.2183
-12.2165
-0.00619332
-0.006193
-0.00619294
-0.006193
-0.00619332
0.00186848
0.00186819
0.00186815
0.00186819
0.00186849
0.000658974
0.000659006
0.000659
0.000659007
0.000658975
1.33689e-05
1.34196e-05
1.34218e-05
1.34198e-05
1.33689e-05
-8.00919e-05
-8.00876e-05
-8.00867e-05
-8.00874e-05
-8.00919e-05
-3.656e-05
-3.65693e-05
-3.65698e-05
-3.65691e-05
-3.656e-05
-1.18717e-05
-1.18762e-05
-1.18769e-05
-1.18759e-05
-1.18717e-05
-8.50052e-06
-8.50089e-06
-8.50156e-06
-8.50067e-06
-8.50051e-06
-1.02224e-05
-1.02222e-05
-1.02228e-05
-1.0222e-05
-1.02224e-05
-1.11871e-05
-1.11873e-05
-1.11879e-05
-1.11871e-05
-1.11871e-05
-1.13042e-05
-1.13047e-05
-1.13053e-05
-1.13044e-05
-1.13042e-05
-1.12215e-05
-1.12221e-05
-1.12227e-05
-1.12218e-05
-1.12215e-05
-1.11696e-05
-1.11701e-05
-1.11707e-05
-1.11699e-05
-1.11696e-05
-1.11513e-05
-1.11518e-05
-1.11524e-05
-1.11515e-05
-1.11512e-05
-1.11406e-05
-1.11411e-05
-1.11417e-05
-1.11409e-05
-1.11406e-05
-1.11285e-05
-1.1129e-05
-1.11296e-05
-1.11288e-05
-1.11285e-05
-1.11149e-05
-1.11154e-05
-1.1116e-05
-1.11152e-05
-1.11149e-05
-1.11009e-05
-1.11014e-05
-1.1102e-05
-1.11012e-05
-1.11009e-05
-1.10867e-05
-1.10872e-05
-1.10878e-05
-1.1087e-05
-1.10867e-05
-1.10725e-05
-1.1073e-05
-1.10736e-05
-1.10728e-05
-1.10724e-05
-1.10581e-05
-1.10586e-05
-1.10592e-05
-1.10584e-05
-1.1058e-05
-1.10435e-05
-1.1044e-05
-1.10446e-05
-1.10438e-05
-1.10435e-05
-1.10288e-05
-1.10293e-05
-1.10298e-05
-1.10291e-05
-1.10287e-05
-1.10139e-05
-1.10144e-05
-1.10149e-05
-1.10141e-05
-1.10138e-05
-1.09988e-05
-1.09993e-05
-1.09998e-05
-1.09991e-05
-1.09988e-05
-1.09836e-05
-1.0984e-05
-1.09846e-05
-1.09838e-05
-1.09835e-05
-1.09682e-05
-1.09686e-05
-1.09691e-05
-1.09684e-05
-1.09681e-05
-1.09526e-05
-1.0953e-05
-1.09535e-05
-1.09528e-05
-1.09525e-05
-1.09368e-05
-1.09373e-05
-1.09377e-05
-1.09371e-05
-1.09368e-05
-1.09209e-05
-1.09213e-05
-1.09218e-05
-1.09211e-05
-1.09208e-05
-1.09048e-05
-1.09052e-05
-1.09057e-05
-1.0905e-05
-1.09047e-05
-1.08885e-05
-1.08889e-05
-1.08893e-05
-1.08887e-05
-1.08884e-05
-1.0872e-05
-1.08724e-05
-1.08728e-05
-1.08722e-05
-1.08719e-05
-1.08553e-05
-1.08557e-05
-1.08562e-05
-1.08555e-05
-1.08553e-05
-1.08385e-05
-1.08389e-05
-1.08393e-05
-1.08387e-05
-1.08384e-05
-1.08215e-05
-1.08218e-05
-1.08222e-05
-1.08217e-05
-1.08214e-05
-1.08042e-05
-1.08046e-05
-1.0805e-05
-1.08044e-05
-1.08042e-05
-1.07868e-05
-1.07872e-05
-1.07875e-05
-1.0787e-05
-1.07868e-05
-1.07692e-05
-1.07695e-05
-1.07699e-05
-1.07694e-05
-1.07692e-05
-1.07514e-05
-1.07517e-05
-1.07521e-05
-1.07516e-05
-1.07513e-05
-1.07334e-05
-1.07337e-05
-1.07341e-05
-1.07336e-05
-1.07333e-05
-1.07152e-05
-1.07155e-05
-1.07158e-05
-1.07153e-05
-1.07151e-05
-1.06968e-05
-1.06971e-05
-1.06974e-05
-1.06969e-05
-1.06967e-05
-1.06782e-05
-1.06785e-05
-1.06788e-05
-1.06783e-05
-1.06781e-05
-1.06594e-05
-1.06596e-05
-1.06599e-05
-1.06595e-05
-1.06593e-05
-1.06404e-05
-1.06406e-05
-1.06409e-05
-1.06405e-05
-1.06403e-05
-1.06211e-05
-1.06213e-05
-1.06216e-05
-1.06212e-05
-1.06211e-05
-1.06017e-05
-1.06019e-05
-1.06022e-05
-1.06018e-05
-1.06016e-05
-1.0582e-05
-1.05822e-05
-1.05825e-05
-1.05821e-05
-1.0582e-05
-1.05621e-05
-1.05623e-05
-1.05626e-05
-1.05622e-05
-1.05621e-05
-1.0542e-05
-1.05422e-05
-1.05424e-05
-1.05421e-05
-1.0542e-05
-1.05217e-05
-1.05219e-05
-1.05221e-05
-1.05218e-05
-1.05217e-05
-1.05012e-05
-1.05013e-05
-1.05015e-05
-1.05012e-05
-1.05011e-05
-1.04804e-05
-1.04805e-05
-1.04807e-05
-1.04804e-05
-1.04803e-05
-1.04594e-05
-1.04595e-05
-1.04597e-05
-1.04594e-05
-1.04593e-05
-1.04381e-05
-1.04383e-05
-1.04385e-05
-1.04382e-05
-1.04381e-05
-1.04167e-05
-1.04168e-05
-1.0417e-05
-1.04167e-05
-1.04166e-05
-1.0395e-05
-1.03951e-05
-1.03952e-05
-1.0395e-05
-1.03949e-05
-1.0373e-05
-1.03731e-05
-1.03733e-05
-1.0373e-05
-1.0373e-05
-1.03508e-05
-1.03509e-05
-1.03511e-05
-1.03508e-05
-1.03508e-05
-1.03284e-05
-1.03285e-05
-1.03286e-05
-1.03284e-05
-1.03283e-05
-1.03057e-05
-1.03058e-05
-1.03059e-05
-1.03057e-05
-1.03057e-05
-1.02828e-05
-1.02828e-05
-1.0283e-05
-1.02828e-05
-1.02827e-05
-1.02596e-05
-1.02596e-05
-1.02598e-05
-1.02596e-05
-1.02595e-05
-1.02361e-05
-1.02362e-05
-1.02363e-05
-1.02361e-05
-1.02361e-05
-1.02124e-05
-1.02125e-05
-1.02126e-05
-1.02124e-05
-1.02124e-05
-1.01885e-05
-1.01885e-05
-1.01886e-05
-1.01885e-05
-1.01884e-05
-1.01642e-05
-1.01643e-05
-1.01644e-05
-1.01642e-05
-1.01642e-05
-1.01397e-05
-1.01398e-05
-1.01399e-05
-1.01397e-05
-1.01397e-05
-1.0115e-05
-1.0115e-05
-1.01151e-05
-1.0115e-05
-1.01149e-05
-1.00899e-05
-1.009e-05
-1.009e-05
-1.00899e-05
-1.00899e-05
-1.00646e-05
-1.00646e-05
-1.00647e-05
-1.00646e-05
-1.00646e-05
-1.0039e-05
-1.0039e-05
-1.00391e-05
-1.0039e-05
-1.0039e-05
-1.00131e-05
-1.00131e-05
-1.00132e-05
-1.00131e-05
-1.00131e-05
-9.98695e-06
-9.98698e-06
-9.98702e-06
-9.98695e-06
-9.98693e-06
-9.96049e-06
-9.96052e-06
-9.96056e-06
-9.9605e-06
-9.96047e-06
-9.93374e-06
-9.93377e-06
-9.9338e-06
-9.93375e-06
-9.93373e-06
-9.90669e-06
-9.90672e-06
-9.90675e-06
-9.9067e-06
-9.90668e-06
-9.87935e-06
-9.87938e-06
-9.8794e-06
-9.87936e-06
-9.87934e-06
-9.8517e-06
-9.85173e-06
-9.85175e-06
-9.85172e-06
-9.85169e-06
-9.82375e-06
-9.82377e-06
-9.82379e-06
-9.82376e-06
-9.82374e-06
-9.79548e-06
-9.79551e-06
-9.79552e-06
-9.7955e-06
-9.79548e-06
-9.76692e-06
-9.76694e-06
-9.76694e-06
-9.76693e-06
-9.76692e-06
)
;

boundaryField
{
    BotWall
    {
        type            fixedFluxPressure;
        gradient        uniform 0;
        value           nonuniform List<scalar> 5(0.525287 0.525322 0.525294 0.525322 0.525287);
    }
    FreeStream
    {
        type            totalPressure;
        rho             rho;
        psi             none;
        gamma           1;
        p0              uniform 0;
        value           nonuniform List<scalar> 5(-9.75256e-06 -9.75257e-06 -9.75257e-06 -9.75256e-06 -9.75256e-06);
    }
    FrontNBack
    {
        type            empty;
    }
    LeftSide
    {
        type            symmetryPlane;
    }
    RightSide
    {
        type            symmetryPlane;
    }
}


// ************************************************************************* //
