/*--------------------------------*- C++ -*----------------------------------*\
| =========                 |                                                 |
| \\      /  F ield         | OpenFOAM: The Open Source CFD Toolbox           |
|  \\    /   O peration     | Version:  2.4.0                                 |
|   \\  /    A nd           | Web:      www.OpenFOAM.org                      |
|    \\/     M anipulation  |                                                 |
\*---------------------------------------------------------------------------*/
FoamFile
{
    version     2.0;
    format      ascii;
    class       surfaceScalarField;
    location    "2.1";
    object      phi;
}
// * * * * * * * * * * * * * * * * * * * * * * * * * * * * * * * * * * * * * //

dimensions      [0 3 -1 0 0 0 0];

internalField   nonuniform List<scalar> 
895
(
1.8065e-18
-1.80691e-18
1.17015e-18
6.35636e-19
-1.17305e-18
2.34184e-18
-1.8293e-18
6.55148e-19
-1.83016e-18
5.53422e-18
-7.35112e-18
3.54785e-18
2.60525e-18
-3.55682e-18
9.42283e-18
-5.60341e-18
2.68294e-18
-7.44726e-18
9.40689e-18
-1.67698e-17
5.9991e-18
5.9943e-18
-6.01565e-18
2.14118e-17
-9.52475e-18
6.17203e-18
-1.6986e-17
1.34374e-17
-3.02204e-17
8.54153e-18
1.08702e-17
-8.56639e-18
3.84926e-17
-1.36075e-17
1.11924e-17
-3.06076e-17
1.7612e-17
-4.78463e-17
1.11689e-17
1.72924e-17
-1.12029e-17
6.08366e-17
-1.78359e-17
1.78044e-17
-4.84575e-17
2.19636e-17
-6.98241e-17
1.38975e-17
2.53375e-17
-1.39412e-17
8.86475e-17
-2.22432e-17
2.60856e-17
-7.07143e-17
2.6471e-17
-9.63093e-17
1.67178e-17
3.50698e-17
-1.67718e-17
1.2211e-16
-2.68085e-17
3.61019e-17
-9.75359e-17
3.11739e-17
-1.27497e-16
1.96493e-17
4.65742e-17
-1.97143e-17
1.61447e-16
-3.15717e-17
4.79399e-17
-1.2912e-16
3.60471e-17
-1.63558e-16
2.26796e-17
5.99223e-17
-2.27561e-17
2.06858e-16
-3.65078e-17
6.16733e-17
-1.65639e-16
4.1135e-17
-2.04706e-16
2.58307e-17
7.52085e-17
-2.59194e-17
2.58585e-16
-4.16616e-17
7.73987e-17
-2.07311e-16
4.64009e-17
-2.51118e-16
2.90904e-17
9.25026e-17
-2.91921e-17
3.16846e-16
-4.69961e-17
9.51877e-17
-2.54316e-16
5.18803e-17
-3.03009e-16
3.2485e-17
1.11883e-16
-3.26006e-17
3.81914e-16
-5.2547e-17
1.15121e-16
-3.06871e-16
5.75648e-17
-3.60583e-16
3.60029e-17
1.33433e-16
-3.61333e-17
4.54035e-16
-5.83059e-17
1.37284e-16
-3.65182e-16
6.36333e-17
-4.24224e-16
3.97032e-17
1.57355e-16
-3.98494e-17
5.33577e-16
-6.44523e-17
1.61879e-16
-4.29638e-16
7.02633e-17
-4.94491e-16
4.3359e-17
1.84254e-16
-4.35232e-17
6.20453e-16
-7.11665e-17
1.89519e-16
-5.00807e-16
7.73534e-17
-1.10196e-15
4.75774e-17
2.1403e-16
-4.77513e-17
7.15782e-16
-7.83596e-17
2.20128e-16
-1.11607e-15
8.44227e-17
-2.92487e-10
5.30889e-17
-2.92488e-10
-5.32516e-17
-2.92489e-10
-8.55833e-17
-2.92488e-10
-2.92487e-10
8.57599e-17
-2.92487e-10
5.32117e-17
-2.92488e-10
-5.34163e-17
-2.92489e-10
-8.68842e-17
-2.92488e-10
-2.92487e-10
9.02968e-17
-2.92487e-10
5.27481e-17
-2.92488e-10
-5.28209e-17
-2.92489e-10
-9.14018e-17
-2.92488e-10
-2.92487e-10
8.10857e-17
-2.92487e-10
5.09168e-17
-2.92488e-10
-5.08674e-17
-2.92489e-10
-8.21092e-17
-2.92488e-10
-2.92487e-10
7.67361e-17
-2.92487e-10
4.84271e-17
-2.92488e-10
-4.8252e-17
-2.92488e-10
-7.76906e-17
-2.92488e-10
-2.92487e-10
7.40512e-17
-2.92487e-10
4.616e-17
-2.92488e-10
-4.58598e-17
-2.92488e-10
-7.4943e-17
-2.92488e-10
-2.92487e-10
7.10278e-17
-2.92487e-10
4.41483e-17
-2.92488e-10
-4.37263e-17
-2.92488e-10
-7.18577e-17
-2.92488e-10
-2.92487e-10
6.76354e-17
-2.92487e-10
4.2182e-17
-2.92488e-10
-4.16417e-17
-2.92488e-10
-6.84027e-17
-2.92488e-10
-2.92487e-10
6.42383e-17
-2.92487e-10
4.02007e-17
-2.92488e-10
-3.95456e-17
-2.92488e-10
-6.49428e-17
-2.92488e-10
-2.92487e-10
6.09509e-17
-2.92487e-10
3.82284e-17
-2.92488e-10
-3.74621e-17
-2.92488e-10
-6.15926e-17
-2.92488e-10
-2.92487e-10
5.77484e-17
-2.92487e-10
3.62873e-17
-2.92488e-10
-3.54134e-17
-2.92488e-10
-5.83276e-17
-2.92488e-10
-2.92487e-10
5.46042e-17
-2.92488e-10
3.43824e-17
-2.92488e-10
-3.34046e-17
-2.92488e-10
-5.51211e-17
-2.92488e-10
-2.92488e-10
5.15141e-17
-2.92488e-10
3.25126e-17
-2.92488e-10
-3.14347e-17
-2.92488e-10
-5.1969e-17
-2.92488e-10
-2.92488e-10
4.84825e-17
-2.92488e-10
3.06774e-17
-2.92488e-10
-2.95034e-17
-2.92488e-10
-4.88758e-17
-2.92488e-10
-2.92488e-10
4.55128e-17
-2.92488e-10
2.88776e-17
-2.92488e-10
-2.76116e-17
-2.92488e-10
-4.58451e-17
-2.92488e-10
-2.92488e-10
4.26069e-17
-2.92488e-10
2.71145e-17
-2.92488e-10
-2.57605e-17
-2.92488e-10
-4.28787e-17
-2.92488e-10
-2.92488e-10
3.97663e-17
-2.92488e-10
2.53892e-17
-2.92488e-10
-2.39513e-17
-2.92488e-10
-3.99783e-17
-2.92488e-10
-2.92488e-10
3.69923e-17
-2.92488e-10
2.37025e-17
-2.92488e-10
-2.21851e-17
-2.92488e-10
-3.71452e-17
-2.92488e-10
-2.92488e-10
3.42862e-17
-2.92488e-10
2.20553e-17
-2.92488e-10
-2.04627e-17
-2.92487e-10
-3.43809e-17
-2.92488e-10
-2.92488e-10
3.16496e-17
-2.92488e-10
2.04487e-17
-2.92488e-10
-1.87852e-17
-2.92487e-10
-3.16869e-17
-2.92488e-10
-2.92488e-10
2.90835e-17
-2.92488e-10
1.88833e-17
-2.92488e-10
-1.71534e-17
-2.92487e-10
-2.90646e-17
-2.92488e-10
-2.92488e-10
2.65894e-17
-2.92488e-10
1.736e-17
-2.92488e-10
-1.55681e-17
-2.92487e-10
-2.65152e-17
-2.92488e-10
-2.92488e-10
2.41682e-17
-2.92488e-10
1.58795e-17
-2.92488e-10
-1.40301e-17
-2.92487e-10
-2.40399e-17
-2.92488e-10
-2.92488e-10
2.18211e-17
-2.92488e-10
1.44426e-17
-2.92488e-10
-1.25402e-17
-2.92487e-10
-2.164e-17
-2.92488e-10
-2.92488e-10
1.9549e-17
-2.92488e-10
1.30498e-17
-2.92488e-10
-1.1099e-17
-2.92487e-10
-1.93164e-17
-2.92488e-10
-2.92488e-10
1.73528e-17
-2.92488e-10
1.17018e-17
-2.92488e-10
-9.70713e-18
-2.92487e-10
-1.70701e-17
-2.92488e-10
-2.92488e-10
1.52333e-17
-2.92488e-10
1.03992e-17
-2.92488e-10
-8.36516e-18
-2.92487e-10
-1.4902e-17
-2.92488e-10
-2.92488e-10
1.31913e-17
-2.92488e-10
9.1424e-18
-2.92488e-10
-7.07358e-18
-2.92487e-10
-1.28129e-17
-2.92488e-10
-2.92488e-10
1.12274e-17
-2.92488e-10
7.93195e-18
-2.92488e-10
-5.83285e-18
-2.92487e-10
-1.08035e-17
-2.92488e-10
-2.92488e-10
9.34214e-18
-2.92488e-10
6.76821e-18
-2.92488e-10
-4.64331e-18
-2.92487e-10
-8.87437e-18
-2.92488e-10
-2.92488e-10
7.53594e-18
-2.92488e-10
5.65154e-18
-2.92488e-10
-3.5053e-18
-2.92487e-10
-7.02607e-18
-2.92488e-10
-2.92488e-10
5.80918e-18
-2.92488e-10
4.58222e-18
-2.92488e-10
-2.41905e-18
-2.92487e-10
-5.259e-18
-2.92488e-10
-2.92488e-10
4.16211e-18
-2.92488e-10
3.56049e-18
-2.92488e-10
-1.38473e-18
-2.92487e-10
-3.57345e-18
-2.92488e-10
-2.92488e-10
2.59489e-18
-2.92488e-10
2.58651e-18
-2.92488e-10
-4.02456e-19
-2.92487e-10
-1.96964e-18
-2.92488e-10
-2.92488e-10
1.10757e-18
-2.92488e-10
1.6604e-18
-2.92488e-10
5.27742e-19
-2.92487e-10
-4.47663e-19
-2.92488e-10
-2.92488e-10
-2.999e-19
-2.92488e-10
7.82195e-19
-2.92488e-10
1.4059e-18
-2.92487e-10
9.92484e-19
-2.92488e-10
-2.92488e-10
-1.62767e-18
-2.92488e-10
-4.8111e-20
-2.92488e-10
2.23212e-18
-2.92487e-10
2.35092e-18
-2.92488e-10
-2.92488e-10
-2.876e-18
-2.92488e-10
-8.30603e-19
-2.92488e-10
3.0066e-18
-2.92487e-10
3.62788e-18
-2.92488e-10
-2.92488e-10
-4.04527e-18
-2.92488e-10
-1.56543e-18
-2.92488e-10
3.7296e-18
-2.92487e-10
4.8237e-18
-2.92488e-10
-2.92488e-10
-5.13595e-18
-2.92488e-10
-2.25281e-18
-2.92488e-10
4.40144e-18
-2.92487e-10
5.93886e-18
-2.92488e-10
-2.92488e-10
-6.14864e-18
-2.92488e-10
-2.89302e-18
-2.92488e-10
5.02255e-18
-2.92487e-10
6.97392e-18
-2.92488e-10
-2.92488e-10
-7.08405e-18
-2.92488e-10
-3.48642e-18
-2.92488e-10
5.59341e-18
-2.92487e-10
7.92958e-18
-2.92488e-10
-2.92488e-10
-7.943e-18
-2.92488e-10
-4.03343e-18
-2.92488e-10
6.11461e-18
-2.92487e-10
8.80667e-18
-2.92488e-10
-2.92488e-10
-8.72644e-18
-2.92488e-10
-4.53456e-18
-2.92488e-10
6.58678e-18
-2.92487e-10
9.60612e-18
-2.92488e-10
-2.92488e-10
-9.43541e-18
-2.92488e-10
-4.99037e-18
-2.92488e-10
7.01068e-18
-2.92487e-10
1.0329e-17
-2.92488e-10
-2.92488e-10
-1.00711e-17
-2.92488e-10
-5.40151e-18
-2.92488e-10
7.3871e-18
-2.92487e-10
1.09765e-17
-2.92488e-10
-2.92488e-10
-1.06348e-17
-2.92488e-10
-5.76869e-18
-2.92488e-10
7.71695e-18
-2.92487e-10
1.155e-17
-2.92488e-10
-2.92488e-10
-1.11279e-17
-2.92488e-10
-6.09273e-18
-2.92488e-10
8.00122e-18
-2.92487e-10
1.20508e-17
-2.92488e-10
-2.92488e-10
-1.15521e-17
-2.92488e-10
-6.37448e-18
-2.92488e-10
8.24095e-18
-2.92487e-10
1.24806e-17
-2.92488e-10
-2.92488e-10
-1.19088e-17
-2.92488e-10
-6.6149e-18
-2.92488e-10
8.43731e-18
-2.92487e-10
1.28411e-17
-2.92488e-10
-2.92488e-10
-1.22e-17
-2.92488e-10
-6.81502e-18
-2.92488e-10
8.59152e-18
-2.92487e-10
1.31341e-17
-2.92488e-10
-2.92488e-10
-1.24276e-17
-2.92488e-10
-6.97595e-18
-2.92488e-10
8.70489e-18
-2.92487e-10
1.33616e-17
-2.92488e-10
-2.92488e-10
-1.25935e-17
-2.92488e-10
-7.09887e-18
-2.92488e-10
8.77883e-18
-2.92487e-10
1.35257e-17
-2.92488e-10
-2.92488e-10
-1.27e-17
-2.92488e-10
-7.18506e-18
-2.92488e-10
8.8148e-18
-2.92487e-10
1.36285e-17
-2.92488e-10
-2.92488e-10
-1.27494e-17
-2.92488e-10
-7.23585e-18
-2.92488e-10
8.81439e-18
-2.92487e-10
1.36726e-17
-2.92488e-10
-2.92488e-10
-1.2744e-17
-2.92488e-10
-7.25268e-18
-2.92488e-10
8.77923e-18
-2.92487e-10
1.36603e-17
-2.92488e-10
-2.92488e-10
-1.26864e-17
-2.92488e-10
-7.23706e-18
-2.92488e-10
8.71106e-18
-2.92487e-10
1.35943e-17
-2.92488e-10
-2.92488e-10
-1.25794e-17
-2.92488e-10
-7.19057e-18
-2.92488e-10
8.6117e-18
-2.92487e-10
1.34774e-17
-2.92488e-10
-2.92488e-10
-1.24256e-17
-2.92488e-10
-7.1149e-18
-2.92488e-10
8.48302e-18
-2.92487e-10
1.33124e-17
-2.92488e-10
-2.92488e-10
-1.2228e-17
-2.92488e-10
-7.01179e-18
-2.92488e-10
8.32702e-18
-2.92487e-10
1.31024e-17
-2.92488e-10
-2.92488e-10
-1.19898e-17
-2.92488e-10
-6.88309e-18
-2.92488e-10
8.14575e-18
-2.92488e-10
1.28507e-17
-2.92488e-10
-2.92488e-10
-1.1714e-17
-2.92488e-10
-6.7307e-18
-2.92488e-10
7.94135e-18
-2.92488e-10
1.25603e-17
-2.92488e-10
-2.92488e-10
-1.14039e-17
-2.92488e-10
-6.55663e-18
-2.92488e-10
7.71603e-18
-2.92488e-10
1.22349e-17
-2.92488e-10
-2.92488e-10
-1.10631e-17
-2.92488e-10
-6.36297e-18
-2.92488e-10
7.47209e-18
-2.92488e-10
1.18779e-17
-2.92488e-10
-2.92488e-10
-1.06951e-17
-2.92488e-10
-6.15187e-18
-2.92488e-10
7.21192e-18
-2.92488e-10
1.14931e-17
-2.92488e-10
-2.92488e-10
-1.03036e-17
-2.92488e-10
-5.92558e-18
-2.92488e-10
6.93795e-18
-2.92488e-10
1.10843e-17
-2.92488e-10
-2.92488e-10
-9.89232e-18
-2.92488e-10
-5.68644e-18
-2.92488e-10
6.65271e-18
-2.92488e-10
1.06554e-17
-2.92488e-10
-2.92488e-10
-9.46535e-18
-2.92488e-10
-5.43684e-18
-2.92488e-10
6.35883e-18
-2.92488e-10
1.02106e-17
-2.92488e-10
-2.92488e-10
-9.02672e-18
-2.92488e-10
-5.1793e-18
-2.92488e-10
6.05897e-18
-2.92488e-10
9.75408e-18
-2.92488e-10
-2.92488e-10
-8.58064e-18
-2.92488e-10
-4.91638e-18
-2.92488e-10
5.7559e-18
-2.92488e-10
9.29021e-18
-2.92488e-10
-2.92488e-10
-8.13147e-18
-2.92488e-10
-4.65075e-18
-2.92488e-10
5.45245e-18
-2.92488e-10
8.82352e-18
-2.92488e-10
-2.92488e-10
-7.68369e-18
-2.92488e-10
-4.38515e-18
-2.92488e-10
5.15154e-18
-2.92488e-10
8.35865e-18
-2.92488e-10
-2.92488e-10
-7.24192e-18
-2.92488e-10
-4.12243e-18
-2.92488e-10
4.85615e-18
-2.92488e-10
7.90038e-18
-2.92488e-10
-2.92488e-10
-6.81092e-18
-2.92488e-10
-3.8655e-18
-2.92488e-10
4.56935e-18
-2.92488e-10
7.45367e-18
-2.92488e-10
-2.92488e-10
-6.3956e-18
-2.92488e-10
-3.61738e-18
-2.92488e-10
4.2943e-18
-2.92488e-10
7.0236e-18
-2.92488e-10
-2.92488e-10
-6.00103e-18
-2.92488e-10
-3.38118e-18
-2.92488e-10
4.03421e-18
-2.92488e-10
6.61541e-18
-2.92488e-10
-2.92488e-10
-5.63241e-18
-2.92488e-10
-3.16009e-18
-2.92488e-10
3.7924e-18
-2.92488e-10
6.23451e-18
-2.92488e-10
-2.92488e-10
-5.29514e-18
-2.92488e-10
-2.95742e-18
-2.92488e-10
3.57227e-18
-2.92488e-10
5.8865e-18
-2.92488e-10
-2.92488e-10
-4.99476e-18
-2.92488e-10
-2.77658e-18
-2.92488e-10
3.37732e-18
-2.92488e-10
5.57712e-18
-2.92488e-10
-2.92488e-10
-4.73702e-18
-2.92488e-10
-2.62108e-18
-2.92488e-10
3.21112e-18
-2.92488e-10
5.31232e-18
-2.92488e-10
-2.92488e-10
-4.5278e-18
-2.92488e-10
-2.49454e-18
-2.92488e-10
3.07737e-18
-2.92488e-10
5.09821e-18
-2.92488e-10
-2.92488e-10
-4.37328e-18
-2.92488e-10
-2.40075e-18
-2.92488e-10
2.97988e-18
-2.92488e-10
4.94119e-18
-2.92488e-10
-2.92488e-10
-4.28043e-18
-2.92488e-10
-2.34385e-18
-2.92488e-10
2.9228e-18
-2.92488e-10
4.84851e-18
-2.92488e-10
-2.92488e-10
-4.25472e-18
-2.32769e-18
2.90937e-18
4.82665e-18
)
;

boundaryField
{
    BotWall
    {
        type            calculated;
        value           nonuniform List<scalar> 5(4.02351e-22 5.30176e-22 8.92986e-22 7.49555e-22 7.36781e-22);
    }
    FreeStream
    {
        type            calculated;
        value           nonuniform List<scalar> 5(-2.92488e-10 -2.92488e-10 -2.92488e-10 -2.92488e-10 -2.92488e-10);
    }
    FrontNBack
    {
        type            empty;
        value           nonuniform 0();
    }
    LeftSide
    {
        type            symmetryPlane;
        value           uniform 0;
    }
    RightSide
    {
        type            symmetryPlane;
        value           uniform 0;
    }
}


// ************************************************************************* //
