/*--------------------------------*- C++ -*----------------------------------*\
| =========                 |                                                 |
| \\      /  F ield         | OpenFOAM: The Open Source CFD Toolbox           |
|  \\    /   O peration     | Version:  2.4.0                                 |
|   \\  /    A nd           | Web:      www.OpenFOAM.org                      |
|    \\/     M anipulation  |                                                 |
\*---------------------------------------------------------------------------*/
FoamFile
{
    version     2.0;
    format      ascii;
    class       volVectorField;
    location    "2.1";
    object      U;
}
// * * * * * * * * * * * * * * * * * * * * * * * * * * * * * * * * * * * * * //

dimensions      [0 1 -1 0 0 0 0];

internalField   nonuniform List<vector> 
500
(
(4.84136e-10 5.14864e-10 0)
(8.40699e-10 5.25447e-10 0)
(2.50664e-12 5.27055e-10 0)
(-8.47845e-10 5.25472e-10 0)
(-4.93585e-10 5.14855e-10 0)
(1.46775e-09 -1.30961e-09 0)
(2.53468e-09 -1.3056e-09 0)
(7.52449e-12 -1.28774e-09 0)
(-2.55621e-09 -1.30541e-09 0)
(-1.49619e-09 -1.30987e-09 0)
(2.47056e-09 2.25395e-09 0)
(4.24896e-09 2.36594e-09 0)
(1.23983e-11 2.4169e-09 0)
(-4.28543e-09 2.36655e-09 0)
(-2.5184e-09 2.25326e-09 0)
(3.49812e-09 -3.3612e-09 0)
(5.98925e-09 -3.25883e-09 0)
(1.72437e-11 -3.15523e-09 0)
(-6.0413e-09 -3.25764e-09 0)
(-3.56598e-09 -3.36267e-09 0)
(4.54454e-09 3.2275e-09 0)
(7.74975e-09 3.55006e-09 0)
(2.20867e-11 3.72272e-09 0)
(-7.81768e-09 3.5521e-09 0)
(-4.63272e-09 3.22509e-09 0)
(5.61945e-09 -6.45904e-09 0)
(9.54035e-09 -6.14427e-09 0)
(2.69523e-11 -5.88111e-09 0)
(-9.6244e-09 -6.14119e-09 0)
(-5.72823e-09 -6.46274e-09 0)
(6.71435e-09 8.66893e-09 0)
(1.13528e-08 9.32604e-09 0)
(3.18414e-11 9.69647e-09 0)
(-1.14533e-08 9.33044e-09 0)
(-6.84409e-09 8.66373e-09 0)
(7.8411e-09 1.00175e-08 0)
(1.31989e-08 1.06799e-08 0)
(3.67685e-11 1.11826e-08 0)
(-1.33162e-08 1.06858e-08 0)
(-7.9922e-09 1.00104e-08 0)
(8.98951e-09 3.51877e-08 0)
(1.50688e-08 3.62935e-08 0)
(4.17637e-11 3.69459e-08 0)
(-1.52033e-08 3.63013e-08 0)
(-9.16245e-09 3.51784e-08 0)
(1.01726e-08 -8.7599e-08 0)
(1.69756e-08 -8.65848e-08 0)
(4.68167e-11 -8.5766e-08 0)
(-1.71278e-08 -8.65751e-08 0)
(-1.03679e-08 -8.76106e-08 0)
(1.13784e-08 -4.58743e-07 0)
(1.89074e-08 -4.57318e-07 0)
(5.1924e-11 -4.5635e-07 0)
(-1.90776e-08 -4.57307e-07 0)
(-1.15965e-08 -4.58756e-07 0)
(1.26208e-08 -7.1944e-07 0)
(2.08779e-08 -7.1774e-07 0)
(5.70985e-11 -7.16613e-07 0)
(-2.10665e-08 -7.17726e-07 0)
(-1.28623e-08 -7.19455e-07 0)
(1.38957e-08 2.03644e-06 0)
(2.28831e-08 2.04065e-06 0)
(6.23517e-11 2.04221e-06 0)
(-2.30908e-08 2.04067e-06 0)
(-1.41612e-08 2.03642e-06 0)
(1.52351e-08 1.23853e-05 0)
(2.49594e-08 1.23927e-05 0)
(6.77218e-11 1.23956e-05 0)
(-2.51867e-08 1.23927e-05 0)
(-1.55255e-08 1.23852e-05 0)
(1.66293e-08 1.73805e-05 0)
(2.70898e-08 1.73865e-05 0)
(7.30788e-11 1.73914e-05 0)
(-2.73379e-08 1.73865e-05 0)
(-1.69456e-08 1.73804e-05 0)
(1.80157e-08 -4.75864e-05 0)
(2.92687e-08 -4.76057e-05 0)
(7.91492e-11 -4.76067e-05 0)
(-2.95384e-08 -4.76057e-05 0)
(-1.83596e-08 -4.75863e-05 0)
(1.93055e-08 -0.00037016 0)
(3.14335e-08 -0.000370211 0)
(8.60298e-11 -0.000370232 0)
(-3.17271e-08 -0.000370212 0)
(-1.96801e-08 -0.000370159 0)
(1.97343e-08 -0.00109011 0)
(3.2031e-08 -0.00109008 0)
(8.7325e-11 -0.00109007 0)
(-3.23291e-08 -0.00109008 0)
(-2.01148e-08 -0.00109011 0)
(2.00029e-08 -0.00251881 0)
(3.19539e-08 -0.00251877 0)
(1.11807e-10 -0.00251876 0)
(-3.2226e-08 -0.00251877 0)
(-2.03806e-08 -0.00251881 0)
(1.83998e-08 -0.00151199 0)
(2.97303e-08 -0.00151204 0)
(1.34419e-10 -0.00151204 0)
(-2.99693e-08 -0.00151204 0)
(-1.87658e-08 -0.00151199 0)
(1.72235e-08 -0.00140643 0)
(2.79508e-08 -0.00140644 0)
(1.55565e-10 -0.00140644 0)
(-2.81576e-08 -0.00140644 0)
(-1.75773e-08 -0.00140643 0)
(1.63155e-08 -0.00143136 0)
(2.64703e-08 -0.00143136 0)
(1.7563e-10 -0.00143136 0)
(-2.66463e-08 -0.00143136 0)
(-1.66575e-08 -0.00143136 0)
(1.54406e-08 -0.0014595 0)
(2.50459e-08 -0.0014595 0)
(1.94527e-10 -0.0014595 0)
(-2.51922e-08 -0.0014595 0)
(-1.57709e-08 -0.0014595 0)
(1.45448e-08 -0.00146497 0)
(2.36171e-08 -0.00146497 0)
(2.12226e-10 -0.00146498 0)
(-2.37346e-08 -0.00146497 0)
(-1.48633e-08 -0.00146497 0)
(1.36608e-08 -0.00146368 0)
(2.22151e-08 -0.00146368 0)
(2.28732e-10 -0.00146368 0)
(-2.23049e-08 -0.00146368 0)
(-1.39672e-08 -0.00146367 0)
(1.28086e-08 -0.00146256 0)
(2.08606e-08 -0.00146256 0)
(2.44066e-10 -0.00146256 0)
(-2.09236e-08 -0.00146256 0)
(-1.31027e-08 -0.00146256 0)
(1.19895e-08 -0.00146233 0)
(1.9555e-08 -0.00146233 0)
(2.58247e-10 -0.00146233 0)
(-1.95922e-08 -0.00146233 0)
(-1.22714e-08 -0.00146233 0)
(1.12004e-08 -0.00146239 0)
(1.82951e-08 -0.00146239 0)
(2.71293e-10 -0.00146239 0)
(-1.83076e-08 -0.00146239 0)
(-1.14699e-08 -0.00146239 0)
(1.04395e-08 -0.00146243 0)
(1.70793e-08 -0.00146243 0)
(2.83223e-10 -0.00146243 0)
(-1.7068e-08 -0.00146243 0)
(-1.06967e-08 -0.00146243 0)
(9.70665e-09 -0.00146244 0)
(1.59069e-08 -0.00146244 0)
(2.94058e-10 -0.00146244 0)
(-1.58728e-08 -0.00146244 0)
(-9.9514e-09 -0.00146244 0)
(9.00151e-09 -0.00146244 0)
(1.47777e-08 -0.00146244 0)
(3.0382e-10 -0.00146244 0)
(-1.47218e-08 -0.00146244 0)
(-9.23385e-09 -0.00146244 0)
(8.32383e-09 -0.00146244 0)
(1.36913e-08 -0.00146244 0)
(3.12531e-10 -0.00146244 0)
(-1.36147e-08 -0.00146244 0)
(-8.54378e-09 -0.00146244 0)
(7.67323e-09 -0.00146244 0)
(1.26471e-08 -0.00146244 0)
(3.20215e-10 -0.00146244 0)
(-1.25508e-08 -0.00146244 0)
(-7.88083e-09 -0.00146244 0)
(7.0493e-09 -0.00146244 0)
(1.16447e-08 -0.00146244 0)
(3.26897e-10 -0.00146244 0)
(-1.15296e-08 -0.00146244 0)
(-7.24462e-09 -0.00146244 0)
(6.45162e-09 -0.00146244 0)
(1.06835e-08 -0.00146244 0)
(3.32602e-10 -0.00146244 0)
(-1.05506e-08 -0.00146244 0)
(-6.63475e-09 -0.00146244 0)
(5.87979e-09 -0.00146244 0)
(9.76278e-09 -0.00146244 0)
(3.37357e-10 -0.00146244 0)
(-9.61318e-09 -0.00146244 0)
(-6.05082e-09 -0.00146244 0)
(5.33336e-09 -0.00146244 0)
(8.88209e-09 -0.00146244 0)
(3.41188e-10 -0.00146244 0)
(-8.71673e-09 -0.00146244 0)
(-5.49243e-09 -0.00146244 0)
(4.81191e-09 -0.00146244 0)
(8.04076e-09 -0.00146244 0)
(3.44126e-10 -0.00146244 0)
(-7.86063e-09 -0.00146244 0)
(-4.95916e-09 -0.00146244 0)
(4.31498e-09 -0.00146244 0)
(7.23816e-09 -0.00146244 0)
(3.46198e-10 -0.00146244 0)
(-7.04423e-09 -0.00146244 0)
(-4.45057e-09 -0.00146244 0)
(3.84212e-09 -0.00146244 0)
(6.47363e-09 -0.00146244 0)
(3.47434e-10 -0.00146244 0)
(-6.26688e-09 -0.00146244 0)
(-3.96624e-09 -0.00146244 0)
(3.39285e-09 -0.00146244 0)
(5.74649e-09 -0.00146244 0)
(3.47865e-10 -0.00146244 0)
(-5.52788e-09 -0.00146244 0)
(-3.5057e-09 -0.00146244 0)
(2.96671e-09 -0.00146244 0)
(5.05606e-09 -0.00146244 0)
(3.47522e-10 -0.00146244 0)
(-4.82653e-09 -0.00146244 0)
(-3.0685e-09 -0.00146244 0)
(2.56319e-09 -0.00146244 0)
(4.40162e-09 -0.00146244 0)
(3.46437e-10 -0.00146244 0)
(-4.1621e-09 -0.00146244 0)
(-2.65417e-09 -0.00146244 0)
(2.18182e-09 -0.00146244 0)
(3.78246e-09 -0.00146244 0)
(3.44643e-10 -0.00146244 0)
(-3.53387e-09 -0.00146244 0)
(-2.26223e-09 -0.00146244 0)
(1.8221e-09 -0.00146244 0)
(3.19782e-09 -0.00146244 0)
(3.42172e-10 -0.00146244 0)
(-2.94106e-09 -0.00146244 0)
(-1.8922e-09 -0.00146244 0)
(1.4835e-09 -0.00146244 0)
(2.64695e-09 -0.00146244 0)
(3.39057e-10 -0.00146244 0)
(-2.38292e-09 -0.00146244 0)
(-1.54358e-09 -0.00146244 0)
(1.16553e-09 -0.00146244 0)
(2.12909e-09 -0.00146244 0)
(3.35333e-10 -0.00146244 0)
(-1.85865e-09 -0.00146244 0)
(-1.21587e-09 -0.00146244 0)
(8.6766e-10 -0.00146244 0)
(1.64345e-09 -0.00146244 0)
(3.31033e-10 -0.00146244 0)
(-1.36744e-09 -0.00146244 0)
(-9.08567e-10 -0.00146244 0)
(5.89361e-10 -0.00146244 0)
(1.18923e-09 -0.00146244 0)
(3.26192e-10 -0.00146244 0)
(-9.08487e-10 -0.00146244 0)
(-6.21151e-10 -0.00146244 0)
(3.30105e-10 -0.00146244 0)
(7.6562e-10 -0.00146244 0)
(3.20844e-10 -0.00146244 0)
(-4.80954e-10 -0.00146244 0)
(-3.53102e-10 -0.00146244 0)
(8.93539e-11 -0.00146244 0)
(3.71808e-10 -0.00146244 0)
(3.15024e-10 -0.00146244 0)
(-8.40002e-11 -0.00146244 0)
(-1.03892e-10 -0.00146244 0)
(-1.33433e-10 -0.00146244 0)
(6.95918e-12 -0.00146244 0)
(3.08766e-10 -0.00146244 0)
(2.8323e-10 -0.00146244 0)
(1.2701e-10 -0.00146244 0)
(-3.388e-10 -0.00146244 0)
(-3.29768e-10 -0.00146244 0)
(3.02106e-10 -0.00146244 0)
(6.21603e-10 -0.00146244 0)
(3.40143e-10 -0.00146244 0)
(-5.27297e-10 -0.00146244 0)
(-6.39224e-10 -0.00146244 0)
(2.95078e-10 -0.00146244 0)
(9.31994e-10 -0.00146244 0)
(5.36049e-10 -0.00146244 0)
(-6.99476e-10 -0.00146244 0)
(-9.22268e-10 -0.00146244 0)
(2.87716e-10 -0.00146244 0)
(1.21529e-09 -0.00146244 0)
(7.15275e-10 -0.00146244 0)
(-8.55892e-10 -0.00146244 0)
(-1.17977e-09 -0.00146244 0)
(2.80056e-10 -0.00146244 0)
(1.47238e-09 -0.00146244 0)
(8.78373e-10 -0.00146244 0)
(-9.97103e-10 -0.00146244 0)
(-1.4126e-09 -0.00146244 0)
(2.7213e-10 -0.00146244 0)
(1.70418e-09 -0.00146244 0)
(1.0259e-09 -0.00146244 0)
(-1.12367e-09 -0.00146244 0)
(-1.62164e-09 -0.00146244 0)
(2.63974e-10 -0.00146244 0)
(1.91159e-09 -0.00146244 0)
(1.1584e-09 -0.00146244 0)
(-1.23615e-09 -0.00146244 0)
(-1.80778e-09 -0.00146244 0)
(2.55619e-10 -0.00146244 0)
(2.09553e-09 -0.00146244 0)
(1.27645e-09 -0.00146244 0)
(-1.33511e-09 -0.00146244 0)
(-1.97191e-09 -0.00146244 0)
(2.47099e-10 -0.00146244 0)
(2.25692e-09 -0.00146244 0)
(1.3806e-09 -0.00146244 0)
(-1.42111e-09 -0.00146244 0)
(-2.11493e-09 -0.00146244 0)
(2.38447e-10 -0.00146244 0)
(2.39669e-09 -0.00146244 0)
(1.47143e-09 -0.00146244 0)
(-1.49472e-09 -0.00146244 0)
(-2.23774e-09 -0.00146244 0)
(2.29694e-10 -0.00146244 0)
(2.51577e-09 -0.00146244 0)
(1.54949e-09 -0.00146244 0)
(-1.5565e-09 -0.00146244 0)
(-2.34123e-09 -0.00146244 0)
(2.20871e-10 -0.00146244 0)
(2.61509e-09 -0.00146244 0)
(1.61535e-09 -0.00146244 0)
(-1.60702e-09 -0.00146244 0)
(-2.42633e-09 -0.00146244 0)
(2.12008e-10 -0.00146244 0)
(2.6956e-09 -0.00146244 0)
(1.66959e-09 -0.00146244 0)
(-1.64683e-09 -0.00146244 0)
(-2.49392e-09 -0.00146244 0)
(2.03136e-10 -0.00146244 0)
(2.75822e-09 -0.00146244 0)
(1.71276e-09 -0.00146244 0)
(-1.6765e-09 -0.00146244 0)
(-2.54492e-09 -0.00146244 0)
(1.94281e-10 -0.00146244 0)
(2.80391e-09 -0.00146244 0)
(1.74543e-09 -0.00146244 0)
(-1.69659e-09 -0.00146244 0)
(-2.58024e-09 -0.00146244 0)
(1.85473e-10 -0.00146244 0)
(2.8336e-09 -0.00146244 0)
(1.76819e-09 -0.00146244 0)
(-1.70766e-09 -0.00146244 0)
(-2.60079e-09 -0.00146244 0)
(1.76738e-10 -0.00146244 0)
(2.84823e-09 -0.00146244 0)
(1.78158e-09 -0.00146244 0)
(-1.71026e-09 -0.00146244 0)
(-2.60746e-09 -0.00146244 0)
(1.68101e-10 -0.00146244 0)
(2.84874e-09 -0.00146244 0)
(1.78617e-09 -0.00146244 0)
(-1.70495e-09 -0.00146244 0)
(-2.60116e-09 -0.00146244 0)
(1.59587e-10 -0.00146244 0)
(2.83606e-09 -0.00146244 0)
(1.78254e-09 -0.00146244 0)
(-1.69229e-09 -0.00146244 0)
(-2.58279e-09 -0.00146244 0)
(1.5122e-10 -0.00146244 0)
(2.81113e-09 -0.00146244 0)
(1.77124e-09 -0.00146244 0)
(-1.67281e-09 -0.00146244 0)
(-2.55325e-09 -0.00146244 0)
(1.43022e-10 -0.00146244 0)
(2.77488e-09 -0.00146244 0)
(1.75282e-09 -0.00146244 0)
(-1.64707e-09 -0.00146244 0)
(-2.51343e-09 -0.00146244 0)
(1.35013e-10 -0.00146244 0)
(2.72822e-09 -0.00146244 0)
(1.72786e-09 -0.00146244 0)
(-1.6156e-09 -0.00146244 0)
(-2.46421e-09 -0.00146244 0)
(1.27214e-10 -0.00146244 0)
(2.67208e-09 -0.00146244 0)
(1.69689e-09 -0.00146244 0)
(-1.57894e-09 -0.00146244 0)
(-2.40648e-09 -0.00146244 0)
(1.19643e-10 -0.00146244 0)
(2.60737e-09 -0.00146244 0)
(1.66047e-09 -0.00146244 0)
(-1.53763e-09 -0.00146244 0)
(-2.34111e-09 -0.00146244 0)
(1.12316e-10 -0.00146244 0)
(2.535e-09 -0.00146244 0)
(1.61915e-09 -0.00146244 0)
(-1.49219e-09 -0.00146244 0)
(-2.26897e-09 -0.00146244 0)
(1.0525e-10 -0.00146244 0)
(2.45586e-09 -0.00146244 0)
(1.57347e-09 -0.00146244 0)
(-1.44314e-09 -0.00146244 0)
(-2.19092e-09 -0.00146244 0)
(9.84587e-11 -0.00146244 0)
(2.37084e-09 -0.00146244 0)
(1.52397e-09 -0.00146244 0)
(-1.391e-09 -0.00146244 0)
(-2.10781e-09 -0.00146244 0)
(9.19545e-11 -0.00146244 0)
(2.28082e-09 -0.00146244 0)
(1.47117e-09 -0.00146244 0)
(-1.33628e-09 -0.00146244 0)
(-2.02048e-09 -0.00146244 0)
(8.5749e-11 -0.00146244 0)
(2.18669e-09 -0.00146244 0)
(1.41562e-09 -0.00146244 0)
(-1.2795e-09 -0.00146244 0)
(-1.92977e-09 -0.00146244 0)
(7.98521e-11 -0.00146244 0)
(2.08928e-09 -0.00146244 0)
(1.35782e-09 -0.00146244 0)
(-1.22114e-09 -0.00146244 0)
(-1.83649e-09 -0.00146244 0)
(7.42719e-11 -0.00146244 0)
(1.98947e-09 -0.00146244 0)
(1.29831e-09 -0.00146244 0)
(-1.16172e-09 -0.00146244 0)
(-1.74148e-09 -0.00146244 0)
(6.90153e-11 -0.00146244 0)
(1.88807e-09 -0.00146244 0)
(1.2376e-09 -0.00146244 0)
(-1.1017e-09 -0.00146244 0)
(-1.64552e-09 -0.00146244 0)
(6.40876e-11 -0.00146244 0)
(1.78594e-09 -0.00146244 0)
(1.17618e-09 -0.00146244 0)
(-1.04159e-09 -0.00146244 0)
(-1.54941e-09 -0.00146244 0)
(5.94924e-11 -0.00146244 0)
(1.68387e-09 -0.00146244 0)
(1.11458e-09 -0.00146244 0)
(-9.81845e-10 -0.00146244 0)
(-1.45393e-09 -0.00146244 0)
(5.52322e-11 -0.00146244 0)
(1.58267e-09 -0.00146244 0)
(1.05327e-09 -0.00146244 0)
(-9.22952e-10 -0.00146244 0)
(-1.35985e-09 -0.00146244 0)
(5.13075e-11 -0.00146244 0)
(1.48314e-09 -0.00146244 0)
(9.9276e-10 -0.00146244 0)
(-8.65372e-10 -0.00146244 0)
(-1.26792e-09 -0.00146244 0)
(4.77175e-11 -0.00146244 0)
(1.38606e-09 -0.00146244 0)
(9.3353e-10 -0.00146244 0)
(-8.09567e-10 -0.00146244 0)
(-1.1789e-09 -0.00146244 0)
(4.44599e-11 -0.00146244 0)
(1.29218e-09 -0.00146244 0)
(8.76062e-10 -0.00146244 0)
(-7.55992e-10 -0.00146244 0)
(-1.09352e-09 -0.00146244 0)
(4.15309e-11 -0.00146244 0)
(1.20227e-09 -0.00146244 0)
(8.20834e-10 -0.00146244 0)
(-7.05097e-10 -0.00146244 0)
(-1.0125e-09 -0.00146244 0)
(3.89251e-11 -0.00146244 0)
(1.11706e-09 -0.00146244 0)
(7.68317e-10 -0.00146244 0)
(-6.5733e-10 -0.00146244 0)
(-9.36553e-10 -0.00146244 0)
(3.66357e-11 -0.00146244 0)
(1.03729e-09 -0.00146244 0)
(7.18982e-10 -0.00146244 0)
(-6.13134e-10 -0.00146244 0)
(-8.66383e-10 -0.00146244 0)
(3.46543e-11 -0.00146244 0)
(9.63663e-10 -0.00146244 0)
(6.73293e-10 -0.00146244 0)
(-5.72948e-10 -0.00146244 0)
(-8.0268e-10 -0.00146244 0)
(3.29711e-11 -0.00146244 0)
(8.96899e-10 -0.00146244 0)
(6.31715e-10 -0.00146244 0)
(-5.37212e-10 -0.00146244 0)
(-7.46128e-10 -0.00146244 0)
(3.15749e-11 -0.00146244 0)
(8.37691e-10 -0.00146244 0)
(5.94709e-10 -0.00146244 0)
(-5.0636e-10 -0.00146244 0)
(-6.974e-10 -0.00146244 0)
(3.0453e-11 -0.00146244 0)
(7.86724e-10 -0.00146244 0)
(5.62736e-10 -0.00146244 0)
(-4.80831e-10 -0.00146244 0)
(-6.57161e-10 -0.00146244 0)
(2.95913e-11 -0.00146244 0)
(7.44677e-10 -0.00146244 0)
(5.36257e-10 -0.00146244 0)
(-4.61069e-10 -0.00146244 0)
(-6.26084e-10 -0.00146244 0)
(2.89735e-11 -0.00146244 0)
(7.12234e-10 -0.00146244 0)
(5.15747e-10 -0.00146244 0)
(-4.4755e-10 -0.00146244 0)
(-6.04874e-10 -0.00146244 0)
(2.85821e-11 -0.00146244 0)
(6.90113e-10 -0.00146244 0)
(5.01708e-10 -0.00146244 0)
(-4.40722e-10 -0.00146244 0)
(-5.94184e-10 -0.00146244 0)
(2.83966e-11 -0.00146244 0)
(6.78977e-10 -0.00146244 0)
(4.94619e-10 -0.00146244 0)
)
;

boundaryField
{
    BotWall
    {
        type            fixedValue;
        value           uniform (0 0 0);
    }
    FreeStream
    {
        type            zeroGradient;
    }
    FrontNBack
    {
        type            empty;
    }
    LeftSide
    {
        type            symmetryPlane;
    }
    RightSide
    {
        type            symmetryPlane;
    }
}


// ************************************************************************* //
