/*--------------------------------*- C++ -*----------------------------------*\
| =========                 |                                                 |
| \\      /  F ield         | OpenFOAM: The Open Source CFD Toolbox           |
|  \\    /   O peration     | Version:  2.4.0                                 |
|   \\  /    A nd           | Web:      www.OpenFOAM.org                      |
|    \\/     M anipulation  |                                                 |
\*---------------------------------------------------------------------------*/
FoamFile
{
    version     2.0;
    format      ascii;
    class       surfaceScalarField;
    location    "3.4";
    object      phi;
}
// * * * * * * * * * * * * * * * * * * * * * * * * * * * * * * * * * * * * * //

dimensions      [0 3 -1 0 0 0 0];

internalField   nonuniform List<scalar> 
220
(
4.10693e-16
-2.31451e-10
3.64137e-16
-2.31453e-10
-2.20455e-16
-2.31455e-10
-5.37789e-16
-2.31454e-10
-2.31452e-10
3.97706e-16
-2.31452e-10
3.51982e-16
-2.31453e-10
-2.12892e-16
-2.31454e-10
-5.1883e-16
-2.31454e-10
-2.31452e-10
3.844e-16
-2.31452e-10
3.39879e-16
-2.31453e-10
-2.05391e-16
-2.31454e-10
-4.99588e-16
-2.31453e-10
-2.31453e-10
3.71099e-16
-2.31453e-10
3.27802e-16
-2.31453e-10
-1.97888e-16
-2.31453e-10
-4.80436e-16
-2.31453e-10
-2.31453e-10
3.57938e-16
-2.31453e-10
3.15816e-16
-2.31453e-10
-1.90419e-16
-2.31453e-10
-4.61552e-16
-2.31453e-10
-2.31454e-10
3.44911e-16
-2.31453e-10
3.03958e-16
-2.31453e-10
-1.83015e-16
-2.31452e-10
-4.42938e-16
-2.31453e-10
-2.31454e-10
3.31998e-16
-2.31454e-10
2.92237e-16
-2.31453e-10
-1.75684e-16
-2.31452e-10
-4.24574e-16
-2.31452e-10
-2.31454e-10
3.19201e-16
-2.31454e-10
2.80655e-16
-2.31453e-10
-1.68427e-16
-2.31451e-10
-4.06461e-16
-2.31452e-10
-2.31455e-10
3.0653e-16
-2.31454e-10
2.69215e-16
-2.31453e-10
-1.61246e-16
-2.31451e-10
-3.88608e-16
-2.31452e-10
-2.31455e-10
2.93991e-16
-2.31455e-10
2.57922e-16
-2.31453e-10
-1.54146e-16
-2.31451e-10
-3.71025e-16
-2.31452e-10
-2.31456e-10
2.81594e-16
-2.31455e-10
2.46783e-16
-2.31453e-10
-1.4713e-16
-2.3145e-10
-3.53719e-16
-2.31451e-10
-2.31456e-10
2.69344e-16
-2.31455e-10
2.35802e-16
-2.31453e-10
-1.40203e-16
-2.3145e-10
-3.36698e-16
-2.31451e-10
-2.31456e-10
2.57249e-16
-2.31455e-10
2.24985e-16
-2.31453e-10
-1.33368e-16
-2.31449e-10
-3.1997e-16
-2.31451e-10
-2.31457e-10
2.45315e-16
-2.31456e-10
2.14336e-16
-2.31452e-10
-1.2663e-16
-2.31449e-10
-3.0354e-16
-2.31451e-10
-2.31457e-10
2.33549e-16
-2.31456e-10
2.03862e-16
-2.31452e-10
-1.19993e-16
-2.31449e-10
-2.87417e-16
-2.31451e-10
-2.31457e-10
2.21957e-16
-2.31456e-10
1.93566e-16
-2.31452e-10
-1.13459e-16
-2.31448e-10
-2.71606e-16
-2.31451e-10
-2.31457e-10
2.10546e-16
-2.31456e-10
1.83453e-16
-2.31452e-10
-1.07034e-16
-2.31448e-10
-2.56114e-16
-2.3145e-10
-2.31458e-10
1.99322e-16
-2.31456e-10
1.73529e-16
-2.31452e-10
-1.00719e-16
-2.31448e-10
-2.40946e-16
-2.3145e-10
-2.31458e-10
1.88291e-16
-2.31457e-10
1.63796e-16
-2.31452e-10
-9.45201e-17
-2.31448e-10
-2.2611e-16
-2.3145e-10
-2.31458e-10
1.77459e-16
-2.31457e-10
1.54261e-16
-2.31452e-10
-8.84393e-17
-2.31447e-10
-2.11609e-16
-2.3145e-10
-2.31458e-10
1.66833e-16
-2.31457e-10
1.44926e-16
-2.31452e-10
-8.24802e-17
-2.31447e-10
-1.9745e-16
-2.3145e-10
-2.31459e-10
1.56418e-16
-2.31457e-10
1.35797e-16
-2.31452e-10
-7.66462e-17
-2.31447e-10
-1.83637e-16
-2.3145e-10
-2.31459e-10
1.46219e-16
-2.31457e-10
1.26876e-16
-2.31452e-10
-7.09406e-17
-2.31447e-10
-1.70175e-16
-2.3145e-10
-2.31459e-10
1.36242e-16
-2.31457e-10
1.18168e-16
-2.31452e-10
-6.53666e-17
-2.31447e-10
-1.57068e-16
-2.3145e-10
-2.31459e-10
1.26489e-16
1.09677e-16
-5.99272e-17
-1.44322e-16
)
;

boundaryField
{
    BotWall
    {
        type            calculated;
        value           nonuniform 0();
    }
    FreeStream
    {
        type            calculated;
        value           nonuniform 0();
    }
    FrontNBack
    {
        type            empty;
        value           nonuniform 0();
    }
    LeftSide
    {
        type            symmetryPlane;
        value           uniform 0;
    }
    RightSide
    {
        type            symmetryPlane;
        value           uniform 0;
    }
    procBoundary1to0
    {
        type            processor;
        value           nonuniform List<scalar> 5(2.31451e-10 2.31453e-10 2.31455e-10 2.31454e-10 2.31451e-10);
    }
    procBoundary1to2
    {
        type            processor;
        value           nonuniform List<scalar> 5(-2.31458e-10 -2.31452e-10 -2.31446e-10 -2.31449e-10 -2.31459e-10);
    }
}


// ************************************************************************* //
