/*--------------------------------*- C++ -*----------------------------------*\
| =========                 |                                                 |
| \\      /  F ield         | OpenFOAM: The Open Source CFD Toolbox           |
|  \\    /   O peration     | Version:  2.4.0                                 |
|   \\  /    A nd           | Web:      www.OpenFOAM.org                      |
|    \\/     M anipulation  |                                                 |
\*---------------------------------------------------------------------------*/
FoamFile
{
    version     2.0;
    format      ascii;
    class       volScalarField;
    location    "2.6";
    object      p_rgh;
}
// * * * * * * * * * * * * * * * * * * * * * * * * * * * * * * * * * * * * * //

dimensions      [1 -1 -2 0 0 0 0];

internalField   nonuniform List<scalar> 
125
(
-8.6979e-06
-8.69662e-06
-8.69561e-06
-8.69632e-06
-8.69795e-06
-8.65219e-06
-8.65097e-06
-8.65001e-06
-8.65068e-06
-8.65224e-06
-8.60598e-06
-8.60482e-06
-8.6039e-06
-8.60454e-06
-8.60602e-06
-8.55926e-06
-8.55815e-06
-8.55727e-06
-8.55788e-06
-8.55929e-06
-8.51202e-06
-8.51097e-06
-8.51013e-06
-8.5107e-06
-8.51205e-06
-8.46425e-06
-8.46326e-06
-8.46246e-06
-8.463e-06
-8.46428e-06
-8.41596e-06
-8.41502e-06
-8.41425e-06
-8.41477e-06
-8.41598e-06
-8.36713e-06
-8.36624e-06
-8.36552e-06
-8.36601e-06
-8.36715e-06
-8.31775e-06
-8.31692e-06
-8.31624e-06
-8.31669e-06
-8.31778e-06
-8.26783e-06
-8.26706e-06
-8.26641e-06
-8.26684e-06
-8.26786e-06
-8.21735e-06
-8.21664e-06
-8.21602e-06
-8.21642e-06
-8.21738e-06
-8.16632e-06
-8.16565e-06
-8.16508e-06
-8.16545e-06
-8.16634e-06
-8.11471e-06
-8.1141e-06
-8.11356e-06
-8.11391e-06
-8.11474e-06
-8.06254e-06
-8.06198e-06
-8.06148e-06
-8.06179e-06
-8.06256e-06
-8.00978e-06
-8.00928e-06
-8.00881e-06
-8.0091e-06
-8.00981e-06
-7.95644e-06
-7.95599e-06
-7.95556e-06
-7.95581e-06
-7.95646e-06
-7.9025e-06
-7.90211e-06
-7.90171e-06
-7.90194e-06
-7.90253e-06
-7.84796e-06
-7.84763e-06
-7.84727e-06
-7.84747e-06
-7.84799e-06
-7.79282e-06
-7.79254e-06
-7.79221e-06
-7.79239e-06
-7.79285e-06
-7.73707e-06
-7.73684e-06
-7.73655e-06
-7.73669e-06
-7.7371e-06
-7.68069e-06
-7.68052e-06
-7.68026e-06
-7.68038e-06
-7.68072e-06
-7.62369e-06
-7.62357e-06
-7.62335e-06
-7.62344e-06
-7.62373e-06
-7.56606e-06
-7.56598e-06
-7.56579e-06
-7.56586e-06
-7.5661e-06
-7.50778e-06
-7.50776e-06
-7.5076e-06
-7.50764e-06
-7.50781e-06
-7.44872e-06
-7.44887e-06
-7.44885e-06
-7.44879e-06
-7.44875e-06
)
;

boundaryField
{
    BotWall
    {
        type            fixedFluxPressure;
        gradient        nonuniform 0();
        value           nonuniform 0();
    }
    FreeStream
    {
        type            totalPressure;
        rho             rho;
        psi             none;
        gamma           1;
        p0              uniform 0;
        value           nonuniform List<scalar> 5(-7.41894e-06 -7.41927e-06 -7.41939e-06 -7.41921e-06 -7.41897e-06);
    }
    FrontNBack
    {
        type            empty;
    }
    LeftSide
    {
        type            symmetryPlane;
    }
    RightSide
    {
        type            symmetryPlane;
    }
    procBoundary3to2
    {
        type            processor;
        value           nonuniform List<scalar> 5(-8.7431e-06 -8.74176e-06 -8.74072e-06 -8.74145e-06 -8.74316e-06);
    }
}


// ************************************************************************* //
