/*--------------------------------*- C++ -*----------------------------------*\
| =========                 |                                                 |
| \\      /  F ield         | OpenFOAM: The Open Source CFD Toolbox           |
|  \\    /   O peration     | Version:  2.4.0                                 |
|   \\  /    A nd           | Web:      www.OpenFOAM.org                      |
|    \\/     M anipulation  |                                                 |
\*---------------------------------------------------------------------------*/
FoamFile
{
    version     2.0;
    format      ascii;
    class       volScalarField;
    location    "0.008";
    object      p_rgh;
}
// * * * * * * * * * * * * * * * * * * * * * * * * * * * * * * * * * * * * * //

dimensions      [1 -1 -2 0 0 0 0];

internalField   nonuniform List<scalar> 
125
(
0.0309615
0.000611839
0.0457159
-0.475141
-0.0617775
0.0120702
-0.00137281
-0.0116881
-0.013616
-0.0130726
-0.0126595
-0.0125667
-0.0125662
-0.01256
-0.0125414
-0.0125191
-0.0124971
-0.0124755
-0.0124539
-0.0124322
-0.0124104
-0.0123885
-0.0123666
-0.0123445
-0.0123223
-0.00684127
-0.00679823
-0.00675503
-0.00671167
-0.00666816
-0.00662449
-0.00658066
-0.00653667
-0.00649252
-0.00644821
-0.00640373
-0.00635909
-0.00631429
-0.00626933
-0.0062242
-0.0061789
-0.00613344
-0.00608781
-0.00604202
-0.00599606
-0.00594993
-0.00590363
-0.00585716
-0.00581052
-0.00576371
-0.00571672
-0.00566957
-0.00562224
-0.00557474
-0.00552707
-0.00547922
-0.00543119
-0.00538299
-0.00533461
-0.00528606
-0.00523732
-0.00518841
-0.00513932
-0.00509005
-0.0050406
-0.00499096
-0.00494115
-0.00489115
-0.00484097
-0.00479061
-0.00474006
-0.00468932
-0.0046384
-0.00458729
-0.00453599
-0.00448451
-0.00443284
-0.00438097
-0.00432892
-0.00427668
-0.00422424
-0.00417161
-0.00411879
-0.00406578
-0.00401257
-0.00395916
-0.00390556
-0.00385177
-0.00379777
-0.00374358
-0.00368918
-0.00363459
-0.0035798
-0.0035248
-0.00346961
-0.00341421
-0.00335861
-0.0033028
-0.00324679
-0.00319057
-0.00313415
-0.00307752
-0.00302068
-0.00296363
-0.00290637
-0.0028489
-0.00279122
-0.00273333
-0.00267523
-0.00261691
-0.00255837
-0.00249963
-0.00244066
-0.00238148
-0.00232208
-0.00226247
-0.00220263
-0.00214257
-0.00208229
-0.0020218
-0.00196107
-0.00190013
-0.00183896
-0.00177755
-0.00171584
)
;

boundaryField
{
    BotWall
    {
        type            fixedFluxPressure;
        gradient        uniform 0;
        value           uniform 0.0309615;
    }
    FreeStream
    {
        type            totalPressure;
        rho             rho;
        psi             none;
        gamma           1;
        p0              uniform 0;
        value           uniform -0.00168496;
    }
    FrontNBack
    {
        type            empty;
    }
    LeftSide
    {
        type            symmetryPlane;
    }
    RightSide
    {
        type            symmetryPlane;
    }
    procBoundary7to4
    {
        type            processor;
        value           nonuniform List<scalar> 
50
(
0.0309785
0.000744066
0.045428
-0.474209
-0.0616365
0.0120165
-0.00141123
-0.0117103
-0.0136341
-0.0130912
-0.0126787
-0.012586
-0.0125854
-0.0125791
-0.0125604
-0.0125382
-0.0125161
-0.0124944
-0.0124727
-0.012451
-0.0124292
-0.0124072
-0.0123852
-0.0123632
-0.012341
-0.00312706
-0.00307078
-0.00301429
-0.0029576
-0.00290069
-0.00284358
-0.00278625
-0.00272872
-0.00267097
-0.00261301
-0.00255484
-0.00249645
-0.00243785
-0.00237903
-0.00232
-0.00226075
-0.00220128
-0.0021416
-0.00208169
-0.00202156
-0.00196121
-0.00190065
-0.00183988
-0.00177885
-0.00171731
)
;
    }
    procBoundary7to5
    {
        type            processor;
        value           nonuniform List<scalar> 
75
(
-0.00680854
-0.00676584
-0.00672299
-0.00667999
-0.00663682
-0.00659349
-0.00655001
-0.00650636
-0.00646255
-0.00641858
-0.00637445
-0.00633015
-0.00628569
-0.00624107
-0.00619628
-0.00615132
-0.0061062
-0.00606092
-0.00601546
-0.00596984
-0.00592405
-0.00587809
-0.00583196
-0.00578566
-0.00573919
-0.00569254
-0.00564573
-0.00559874
-0.00555158
-0.00550424
-0.00545673
-0.00540905
-0.00536118
-0.00531314
-0.00526493
-0.00521653
-0.00516796
-0.00511921
-0.00507028
-0.00502116
-0.00497187
-0.00492239
-0.00487273
-0.00482289
-0.00477287
-0.00472265
-0.00467226
-0.00462168
-0.00457091
-0.00451995
-0.00446881
-0.00441748
-0.00436596
-0.00431424
-0.00426234
-0.00421025
-0.00415796
-0.00410548
-0.00405281
-0.00399994
-0.00394688
-0.00389362
-0.00384017
-0.00378652
-0.00373267
-0.00367862
-0.00362438
-0.00356993
-0.00351528
-0.00346044
-0.00340538
-0.00335013
-0.00329467
-0.00323901
-0.00318314
)
;
    }
    procBoundary7to6
    {
        type            processor;
        value           uniform -0.0123001;
    }
    procBoundary7to8
    {
        type            processor;
        value           uniform -0.00688415;
    }
    procBoundary7to9
    {
        type            processor;
        value           nonuniform List<scalar> 
75
(
0.0294102
0.000936307
0.0389563
-0.459667
-0.0591909
0.0113948
-0.00179663
-0.0118391
-0.0136986
-0.0131636
-0.0127605
-0.0126697
-0.0126685
-0.0126615
-0.0126423
-0.0126197
-0.0125973
-0.0125752
-0.0125532
-0.0125311
-0.0125089
-0.0124866
-0.0124642
-0.0124418
-0.0124192
-0.00447571
-0.00442422
-0.00437254
-0.00432067
-0.00426861
-0.00421636
-0.00416392
-0.00411129
-0.00405846
-0.00400544
-0.00395223
-0.00389882
-0.00384521
-0.00379141
-0.0037374
-0.0036832
-0.0036288
-0.0035742
-0.0035194
-0.0034644
-0.0034092
-0.00335379
-0.00329818
-0.00324236
-0.00318634
-0.00313011
-0.00307368
-0.00301704
-0.00296019
-0.00290313
-0.00284586
-0.00278838
-0.00273069
-0.00267279
-0.00261467
-0.00255634
-0.0024978
-0.00243904
-0.00238006
-0.00232087
-0.00226146
-0.00220183
-0.00214198
-0.00208192
-0.00202163
-0.00196112
-0.00190039
-0.00183945
-0.00177825
-0.00171662
)
;
    }
    procBoundary7to10
    {
        type            processor;
        value           nonuniform List<scalar> 
50
(
-0.00682354
-0.00678068
-0.00673766
-0.00669449
-0.00665115
-0.00660766
-0.006564
-0.00652019
-0.00647622
-0.00643208
-0.00638778
-0.00634332
-0.00629869
-0.00625391
-0.00620895
-0.00616383
-0.00611855
-0.0060731
-0.00602748
-0.00598169
-0.00593574
-0.00588962
-0.00584333
-0.00579686
-0.00575023
-0.00570343
-0.00565645
-0.0056093
-0.00556198
-0.00551448
-0.00546681
-0.00541896
-0.00537094
-0.00532274
-0.00527437
-0.00522581
-0.00517708
-0.00512817
-0.00507908
-0.00502981
-0.00498035
-0.00493072
-0.0048809
-0.0048309
-0.00478072
-0.00473035
-0.0046798
-0.00462906
-0.00457813
-0.00452701
)
;
    }
}


// ************************************************************************* //
