/*--------------------------------*- C++ -*----------------------------------*\
| =========                 |                                                 |
| \\      /  F ield         | OpenFOAM: The Open Source CFD Toolbox           |
|  \\    /   O peration     | Version:  2.4.0                                 |
|   \\  /    A nd           | Web:      www.OpenFOAM.org                      |
|    \\/     M anipulation  |                                                 |
\*---------------------------------------------------------------------------*/
FoamFile
{
    version     2.0;
    format      ascii;
    class       volScalarField;
    location    "0.005";
    object      p;
}
// * * * * * * * * * * * * * * * * * * * * * * * * * * * * * * * * * * * * * //

dimensions      [1 -1 -2 0 0 0 0];

internalField   nonuniform List<scalar> 
125
(
-0.0373874
-0.0375768
-0.0377668
-0.0379576
-0.0381491
-0.0383413
-0.0385342
-0.0387279
-0.0389222
-0.0391172
-0.039313
-0.0395095
-0.0397067
-0.0399046
-0.0401033
-0.0403027
-0.0405028
-0.0407037
-0.0409053
-0.0411077
-0.0413108
-0.0415146
-0.0417192
-0.0419246
-0.0421307
-0.0423376
-0.0425452
-0.0427536
-0.0429627
-0.0431727
-0.0433834
-0.0435948
-0.0438071
-0.0440201
-0.044234
-0.0444486
-0.044664
-0.0448802
-0.0450972
-0.045315
-0.0455336
-0.045753
-0.0459732
-0.0461942
-0.046416
-0.0466387
-0.0468621
-0.0470864
-0.0473115
-0.0475375
-0.0477643
-0.0479919
-0.0482203
-0.0484496
-0.0486798
-0.0489108
-0.0491426
-0.0493753
-0.0496088
-0.0498432
-0.0500785
-0.0503146
-0.0505516
-0.0507895
-0.0510283
-0.0512679
-0.0515084
-0.0517498
-0.0519921
-0.0522353
-0.0524794
-0.0527244
-0.0529703
-0.053217
-0.0534647
-0.0537133
-0.0539629
-0.0542133
-0.0544647
-0.054717
-0.0549702
-0.0552243
-0.0554794
-0.0557354
-0.0559924
-0.0562503
-0.0565092
-0.056769
-0.0570298
-0.0572915
-0.0575542
-0.0578179
-0.0580825
-0.0583481
-0.0586147
-0.0588823
-0.0591509
-0.0594204
-0.059691
-0.0599625
-0.060235
-0.0605086
-0.0607831
-0.0610587
-0.0613352
-0.0616128
-0.0618914
-0.0621711
-0.0624518
-0.0627335
-0.0630162
-0.0633
-0.0635848
-0.0638707
-0.0641576
-0.0644456
-0.0647346
-0.0650247
-0.0653159
-0.0656082
-0.0659015
-0.0661959
-0.0664914
-0.066788
-0.0670856
)
;

boundaryField
{
    BotWall
    {
        type            calculated;
        value           nonuniform 0();
    }
    FreeStream
    {
        type            calculated;
        value           nonuniform 0();
    }
    FrontNBack
    {
        type            empty;
    }
    LeftSide
    {
        type            symmetryPlane;
    }
    RightSide
    {
        type            symmetryPlane;
    }
    procBoundary3to0
    {
        type            processor;
        value           nonuniform List<scalar> 
50
(
-0.0537155
-0.053965
-0.0542154
-0.0544667
-0.0547189
-0.0549721
-0.0552262
-0.0554813
-0.0557372
-0.0559942
-0.056252
-0.0565109
-0.0567706
-0.0570314
-0.0572931
-0.0575557
-0.0578194
-0.0580839
-0.0583495
-0.0586161
-0.0588836
-0.0591521
-0.0594216
-0.0596921
-0.0599636
-0.0602361
-0.0605096
-0.0607841
-0.0610596
-0.0613362
-0.0616137
-0.0618923
-0.0621719
-0.0624525
-0.0627342
-0.0630169
-0.0633006
-0.0635854
-0.0638712
-0.0641581
-0.0644461
-0.0647351
-0.0650252
-0.0653163
-0.0656085
-0.0659018
-0.0661962
-0.0664916
-0.0667882
-0.0670858
)
;
    }
    procBoundary3to1
    {
        type            processor;
        value           nonuniform List<scalar> 
75
(
-0.037393
-0.0375823
-0.0377724
-0.0379631
-0.0381546
-0.0383467
-0.0385396
-0.0387331
-0.0389274
-0.0391224
-0.0393181
-0.0395146
-0.0397117
-0.0399096
-0.0401082
-0.0403076
-0.0405076
-0.0407085
-0.04091
-0.0411123
-0.0413154
-0.0415192
-0.0417237
-0.041929
-0.0421351
-0.0423419
-0.0425495
-0.0427578
-0.0429669
-0.0431768
-0.0433875
-0.0435989
-0.0438111
-0.0440241
-0.0442379
-0.0444525
-0.0446678
-0.044884
-0.0451009
-0.0453187
-0.0455372
-0.0457566
-0.0459767
-0.0461977
-0.0464195
-0.0466421
-0.0468655
-0.0470898
-0.0473148
-0.0475407
-0.0477675
-0.047995
-0.0482235
-0.0484527
-0.0486828
-0.0489138
-0.0491455
-0.0493782
-0.0496117
-0.0498461
-0.0500813
-0.0503174
-0.0505544
-0.0507922
-0.0510309
-0.0512705
-0.051511
-0.0517524
-0.0519946
-0.0522378
-0.0524818
-0.0527267
-0.0529726
-0.0532193
-0.053467
)
;
    }
    procBoundary3to2
    {
        type            processor;
        value           uniform -0.0673844;
    }
    procBoundary3to4
    {
        type            processor;
        value           uniform -0.0371986;
    }
    procBoundary3to5
    {
        type            processor;
        value           nonuniform List<scalar> 
75
(
-0.0477605
-0.0479881
-0.0482166
-0.0484459
-0.048676
-0.048907
-0.0491389
-0.0493716
-0.0496052
-0.0498396
-0.0500749
-0.0503111
-0.0505481
-0.050786
-0.0510248
-0.0512644
-0.051505
-0.0517464
-0.0519887
-0.0522319
-0.052476
-0.052721
-0.0529669
-0.0532137
-0.0534614
-0.0537101
-0.0539596
-0.0542101
-0.0544615
-0.0547138
-0.054967
-0.0552212
-0.0554763
-0.0557324
-0.0559894
-0.0562473
-0.0565062
-0.0567661
-0.0570269
-0.0572887
-0.0575514
-0.0578151
-0.0580798
-0.0583454
-0.058612
-0.0588796
-0.0591482
-0.0594178
-0.0596884
-0.0599599
-0.0602325
-0.0605061
-0.0607807
-0.0610563
-0.0613329
-0.0616105
-0.0618891
-0.0621688
-0.0624495
-0.0627313
-0.063014
-0.0632979
-0.0635827
-0.0638686
-0.0641556
-0.0644436
-0.0647327
-0.0650229
-0.0653141
-0.0656064
-0.0658997
-0.0661942
-0.0664897
-0.0667863
-0.067084
)
;
    }
    procBoundary3to6
    {
        type            processor;
        value           nonuniform List<scalar> 
50
(
-0.0373825
-0.0375719
-0.037762
-0.0379528
-0.0381443
-0.0383365
-0.0385294
-0.0387231
-0.0389174
-0.0391125
-0.0393083
-0.0395048
-0.039702
-0.0399
-0.0400986
-0.0402981
-0.0404982
-0.0406991
-0.0409007
-0.0411031
-0.0413062
-0.0415101
-0.0417147
-0.0419201
-0.0421262
-0.0423331
-0.0425408
-0.0427492
-0.0429584
-0.0431683
-0.0433791
-0.0435906
-0.0438028
-0.0440159
-0.0442298
-0.0444444
-0.0446598
-0.0448761
-0.0450931
-0.0453109
-0.0455295
-0.045749
-0.0459692
-0.0461902
-0.0464121
-0.0466348
-0.0468583
-0.0470826
-0.0473077
-0.0475337
)
;
    }
}


// ************************************************************************* //
