/*--------------------------------*- C++ -*----------------------------------*\
| =========                 |                                                 |
| \\      /  F ield         | OpenFOAM: The Open Source CFD Toolbox           |
|  \\    /   O peration     | Version:  2.4.0                                 |
|   \\  /    A nd           | Web:      www.OpenFOAM.org                      |
|    \\/     M anipulation  |                                                 |
\*---------------------------------------------------------------------------*/
FoamFile
{
    version     2.0;
    format      ascii;
    class       volVectorField;
    location    "0.005";
    object      U;
}
// * * * * * * * * * * * * * * * * * * * * * * * * * * * * * * * * * * * * * //

dimensions      [0 1 -1 0 0 0 0];

internalField   nonuniform List<vector> 
125
(
(3.44197e-05 -0.0279944 0)
(3.41232e-05 -0.0279942 0)
(3.38294e-05 -0.027994 0)
(3.35382e-05 -0.0279939 0)
(3.32497e-05 -0.0279937 0)
(3.29638e-05 -0.0279935 0)
(3.26803e-05 -0.0279934 0)
(3.23994e-05 -0.0279932 0)
(3.21209e-05 -0.0279931 0)
(3.18448e-05 -0.0279929 0)
(3.15712e-05 -0.0279927 0)
(3.12999e-05 -0.0279926 0)
(3.1031e-05 -0.0279924 0)
(3.07644e-05 -0.0279923 0)
(3.05001e-05 -0.0279921 0)
(3.02381e-05 -0.027992 0)
(2.99783e-05 -0.0279918 0)
(2.97208e-05 -0.0279917 0)
(2.94656e-05 -0.0279915 0)
(2.92126e-05 -0.0279914 0)
(2.89617e-05 -0.0279912 0)
(2.8713e-05 -0.0279911 0)
(2.84664e-05 -0.027991 0)
(2.8222e-05 -0.0279908 0)
(2.79797e-05 -0.0279907 0)
(2.77394e-05 -0.0279905 0)
(2.75012e-05 -0.0279904 0)
(2.72649e-05 -0.0279902 0)
(2.70307e-05 -0.0279901 0)
(2.67985e-05 -0.02799 0)
(2.65681e-05 -0.0279898 0)
(2.63397e-05 -0.0279897 0)
(2.61132e-05 -0.0279896 0)
(2.58885e-05 -0.0279894 0)
(2.56656e-05 -0.0279893 0)
(2.54445e-05 -0.0279892 0)
(2.52251e-05 -0.027989 0)
(2.50075e-05 -0.0279889 0)
(2.47915e-05 -0.0279888 0)
(2.45772e-05 -0.0279887 0)
(2.43646e-05 -0.0279885 0)
(2.41535e-05 -0.0279884 0)
(2.3944e-05 -0.0279883 0)
(2.3736e-05 -0.0279882 0)
(2.35295e-05 -0.027988 0)
(2.33245e-05 -0.0279879 0)
(2.31209e-05 -0.0279878 0)
(2.29187e-05 -0.0279877 0)
(2.27178e-05 -0.0279875 0)
(2.25183e-05 -0.0279874 0)
(2.23201e-05 -0.0279873 0)
(2.21232e-05 -0.0279872 0)
(2.19275e-05 -0.0279871 0)
(2.17331e-05 -0.027987 0)
(2.15398e-05 -0.0279868 0)
(2.13477e-05 -0.0279867 0)
(2.11567e-05 -0.0279866 0)
(2.09669e-05 -0.0279865 0)
(2.07781e-05 -0.0279864 0)
(2.05904e-05 -0.0279863 0)
(2.04037e-05 -0.0279862 0)
(2.0218e-05 -0.0279861 0)
(2.00333e-05 -0.027986 0)
(1.98495e-05 -0.0279858 0)
(1.96667e-05 -0.0279857 0)
(1.94848e-05 -0.0279856 0)
(1.93038e-05 -0.0279855 0)
(1.91236e-05 -0.0279854 0)
(1.89443e-05 -0.0279853 0)
(1.87658e-05 -0.0279852 0)
(1.85881e-05 -0.0279851 0)
(1.84112e-05 -0.027985 0)
(1.82351e-05 -0.0279849 0)
(1.80597e-05 -0.0279848 0)
(1.78851e-05 -0.0279847 0)
(1.77112e-05 -0.0279846 0)
(1.75379e-05 -0.0279845 0)
(1.73654e-05 -0.0279844 0)
(1.71935e-05 -0.0279843 0)
(1.70222e-05 -0.0279842 0)
(1.68516e-05 -0.0279841 0)
(1.66816e-05 -0.027984 0)
(1.65122e-05 -0.0279839 0)
(1.63433e-05 -0.0279838 0)
(1.61751e-05 -0.0279837 0)
(1.60074e-05 -0.0279837 0)
(1.58403e-05 -0.0279836 0)
(1.56737e-05 -0.0279835 0)
(1.55076e-05 -0.0279834 0)
(1.53421e-05 -0.0279833 0)
(1.5177e-05 -0.0279832 0)
(1.50125e-05 -0.0279831 0)
(1.48485e-05 -0.027983 0)
(1.4685e-05 -0.0279829 0)
(1.4522e-05 -0.0279828 0)
(1.43595e-05 -0.0279828 0)
(1.41974e-05 -0.0279827 0)
(1.40359e-05 -0.0279826 0)
(1.38749e-05 -0.0279825 0)
(1.37143e-05 -0.0279824 0)
(1.35543e-05 -0.0279823 0)
(1.33947e-05 -0.0279822 0)
(1.32356e-05 -0.0279822 0)
(1.30771e-05 -0.0279821 0)
(1.29191e-05 -0.027982 0)
(1.27615e-05 -0.0279819 0)
(1.26045e-05 -0.0279818 0)
(1.24481e-05 -0.0279817 0)
(1.22922e-05 -0.0279817 0)
(1.21368e-05 -0.0279816 0)
(1.1982e-05 -0.0279815 0)
(1.18277e-05 -0.0279814 0)
(1.16741e-05 -0.0279814 0)
(1.1521e-05 -0.0279813 0)
(1.13685e-05 -0.0279812 0)
(1.12165e-05 -0.0279811 0)
(1.10652e-05 -0.0279811 0)
(1.09145e-05 -0.027981 0)
(1.07645e-05 -0.0279809 0)
(1.0615e-05 -0.0279808 0)
(1.04662e-05 -0.0279808 0)
(1.0318e-05 -0.0279807 0)
(1.01705e-05 -0.0279806 0)
(1.00236e-05 -0.0279805 0)
(9.87732e-06 -0.0279805 0)
)
;

boundaryField
{
    BotWall
    {
        type            fixedValue;
        value           nonuniform 0();
    }
    FreeStream
    {
        type            zeroGradient;
    }
    FrontNBack
    {
        type            empty;
    }
    LeftSide
    {
        type            symmetryPlane;
    }
    RightSide
    {
        type            symmetryPlane;
    }
    procBoundary3to0
    {
        type            processor;
        value           nonuniform List<vector> 
50
(
(1.23663e-05 -0.0279485 0)
(1.22944e-05 -0.0279486 0)
(1.22229e-05 -0.0279487 0)
(1.21517e-05 -0.0279489 0)
(1.20808e-05 -0.027949 0)
(1.20102e-05 -0.0279491 0)
(1.19398e-05 -0.0279492 0)
(1.18697e-05 -0.0279494 0)
(1.17998e-05 -0.0279495 0)
(1.17301e-05 -0.0279496 0)
(1.16606e-05 -0.0279497 0)
(1.15912e-05 -0.0279499 0)
(1.1522e-05 -0.02795 0)
(1.14528e-05 -0.0279501 0)
(1.13838e-05 -0.0279502 0)
(1.13148e-05 -0.0279504 0)
(1.12458e-05 -0.0279505 0)
(1.1177e-05 -0.0279506 0)
(1.11081e-05 -0.0279507 0)
(1.10393e-05 -0.0279508 0)
(1.09705e-05 -0.027951 0)
(1.09017e-05 -0.0279511 0)
(1.08328e-05 -0.0279512 0)
(1.0764e-05 -0.0279513 0)
(1.06951e-05 -0.0279514 0)
(1.06263e-05 -0.0279515 0)
(1.05573e-05 -0.0279517 0)
(1.04884e-05 -0.0279518 0)
(1.04194e-05 -0.0279519 0)
(1.03504e-05 -0.027952 0)
(1.02814e-05 -0.0279521 0)
(1.02123e-05 -0.0279522 0)
(1.01432e-05 -0.0279523 0)
(1.00741e-05 -0.0279525 0)
(1.0005e-05 -0.0279526 0)
(9.93582e-06 -0.0279527 0)
(9.86668e-06 -0.0279528 0)
(9.79754e-06 -0.0279529 0)
(9.72843e-06 -0.027953 0)
(9.65934e-06 -0.0279531 0)
(9.59029e-06 -0.0279532 0)
(9.52131e-06 -0.0279533 0)
(9.45239e-06 -0.0279534 0)
(9.38356e-06 -0.0279535 0)
(9.31485e-06 -0.0279536 0)
(9.24625e-06 -0.0279537 0)
(9.17781e-06 -0.0279538 0)
(9.10955e-06 -0.0279539 0)
(9.04147e-06 -0.027954 0)
(8.97363e-06 -0.0279541 0)
)
;
    }
    procBoundary3to1
    {
        type            processor;
        value           nonuniform List<vector> 
75
(
(2.08506e-05 -0.0279369 0)
(2.06788e-05 -0.027937 0)
(2.05089e-05 -0.0279372 0)
(2.0341e-05 -0.0279374 0)
(2.0175e-05 -0.0279376 0)
(2.00108e-05 -0.0279378 0)
(1.98484e-05 -0.0279379 0)
(1.96879e-05 -0.0279381 0)
(1.95292e-05 -0.0279383 0)
(1.93722e-05 -0.0279385 0)
(1.9217e-05 -0.0279386 0)
(1.90636e-05 -0.0279388 0)
(1.89119e-05 -0.027939 0)
(1.8762e-05 -0.0279392 0)
(1.86138e-05 -0.0279393 0)
(1.84673e-05 -0.0279395 0)
(1.83226e-05 -0.0279397 0)
(1.81796e-05 -0.0279398 0)
(1.80384e-05 -0.02794 0)
(1.78988e-05 -0.0279402 0)
(1.7761e-05 -0.0279403 0)
(1.76249e-05 -0.0279405 0)
(1.74906e-05 -0.0279407 0)
(1.73579e-05 -0.0279408 0)
(1.72269e-05 -0.027941 0)
(1.70976e-05 -0.0279412 0)
(1.697e-05 -0.0279413 0)
(1.6844e-05 -0.0279415 0)
(1.67197e-05 -0.0279416 0)
(1.65971e-05 -0.0279418 0)
(1.64761e-05 -0.027942 0)
(1.63567e-05 -0.0279421 0)
(1.62389e-05 -0.0279423 0)
(1.61228e-05 -0.0279424 0)
(1.60082e-05 -0.0279426 0)
(1.58951e-05 -0.0279428 0)
(1.57836e-05 -0.0279429 0)
(1.56736e-05 -0.0279431 0)
(1.55651e-05 -0.0279432 0)
(1.54581e-05 -0.0279434 0)
(1.53526e-05 -0.0279435 0)
(1.52485e-05 -0.0279437 0)
(1.51458e-05 -0.0279438 0)
(1.50445e-05 -0.027944 0)
(1.49446e-05 -0.0279441 0)
(1.4846e-05 -0.0279443 0)
(1.47487e-05 -0.0279444 0)
(1.46528e-05 -0.0279446 0)
(1.4558e-05 -0.0279447 0)
(1.44646e-05 -0.0279449 0)
(1.43723e-05 -0.027945 0)
(1.42812e-05 -0.0279452 0)
(1.41912e-05 -0.0279453 0)
(1.41024e-05 -0.0279454 0)
(1.40146e-05 -0.0279456 0)
(1.39279e-05 -0.0279457 0)
(1.38422e-05 -0.0279459 0)
(1.37575e-05 -0.027946 0)
(1.36738e-05 -0.0279462 0)
(1.3591e-05 -0.0279463 0)
(1.35091e-05 -0.0279464 0)
(1.34281e-05 -0.0279466 0)
(1.33479e-05 -0.0279467 0)
(1.32685e-05 -0.0279469 0)
(1.31898e-05 -0.027947 0)
(1.31119e-05 -0.0279471 0)
(1.30347e-05 -0.0279473 0)
(1.29582e-05 -0.0279474 0)
(1.28823e-05 -0.0279475 0)
(1.2807e-05 -0.0279477 0)
(1.27323e-05 -0.0279478 0)
(1.26581e-05 -0.0279479 0)
(1.25845e-05 -0.0279481 0)
(1.25113e-05 -0.0279482 0)
(1.24386e-05 -0.0279483 0)
)
;
    }
    procBoundary3to2
    {
        type            processor;
        value           uniform (9.73174e-06 -0.0279804 0);
    }
    procBoundary3to4
    {
        type            processor;
        value           uniform (3.47191e-05 -0.0279945 0);
    }
    procBoundary3to5
    {
        type            processor;
        value           nonuniform List<vector> 
75
(
(-1.52194e-05 -0.0279894 0)
(-1.49951e-05 -0.0279893 0)
(-1.47736e-05 -0.0279891 0)
(-1.45549e-05 -0.027989 0)
(-1.43389e-05 -0.0279888 0)
(-1.41258e-05 -0.0279887 0)
(-1.39154e-05 -0.0279886 0)
(-1.37078e-05 -0.0279884 0)
(-1.35029e-05 -0.0279883 0)
(-1.33007e-05 -0.0279882 0)
(-1.31013e-05 -0.027988 0)
(-1.29046e-05 -0.0279879 0)
(-1.27106e-05 -0.0279878 0)
(-1.25192e-05 -0.0279876 0)
(-1.23305e-05 -0.0279875 0)
(-1.21443e-05 -0.0279874 0)
(-1.19608e-05 -0.0279872 0)
(-1.17799e-05 -0.0279871 0)
(-1.16014e-05 -0.027987 0)
(-1.14255e-05 -0.0279869 0)
(-1.1252e-05 -0.0279867 0)
(-1.1081e-05 -0.0279866 0)
(-1.09123e-05 -0.0279865 0)
(-1.0746e-05 -0.0279864 0)
(-1.05821e-05 -0.0279863 0)
(-1.04204e-05 -0.0279861 0)
(-1.0261e-05 -0.027986 0)
(-1.01037e-05 -0.0279859 0)
(-9.94869e-06 -0.0279858 0)
(-9.79576e-06 -0.0279857 0)
(-9.64492e-06 -0.0279855 0)
(-9.49612e-06 -0.0279854 0)
(-9.34933e-06 -0.0279853 0)
(-9.20451e-06 -0.0279852 0)
(-9.06161e-06 -0.0279851 0)
(-8.9206e-06 -0.027985 0)
(-8.78144e-06 -0.0279849 0)
(-8.64409e-06 -0.0279848 0)
(-8.50851e-06 -0.0279847 0)
(-8.37466e-06 -0.0279845 0)
(-8.24251e-06 -0.0279844 0)
(-8.11202e-06 -0.0279843 0)
(-7.98316e-06 -0.0279842 0)
(-7.85588e-06 -0.0279841 0)
(-7.73016e-06 -0.027984 0)
(-7.60596e-06 -0.0279839 0)
(-7.48324e-06 -0.0279838 0)
(-7.36198e-06 -0.0279837 0)
(-7.24215e-06 -0.0279836 0)
(-7.1237e-06 -0.0279835 0)
(-7.00662e-06 -0.0279834 0)
(-6.89087e-06 -0.0279833 0)
(-6.77643e-06 -0.0279832 0)
(-6.66326e-06 -0.0279831 0)
(-6.55134e-06 -0.027983 0)
(-6.44063e-06 -0.0279829 0)
(-6.33112e-06 -0.0279828 0)
(-6.22277e-06 -0.0279827 0)
(-6.11556e-06 -0.0279826 0)
(-6.00947e-06 -0.0279826 0)
(-5.90446e-06 -0.0279825 0)
(-5.80052e-06 -0.0279824 0)
(-5.69762e-06 -0.0279823 0)
(-5.59573e-06 -0.0279822 0)
(-5.49484e-06 -0.0279821 0)
(-5.39491e-06 -0.027982 0)
(-5.29593e-06 -0.0279819 0)
(-5.19788e-06 -0.0279819 0)
(-5.10072e-06 -0.0279818 0)
(-5.00445e-06 -0.0279817 0)
(-4.90903e-06 -0.0279816 0)
(-4.81444e-06 -0.0279815 0)
(-4.72068e-06 -0.0279814 0)
(-4.6277e-06 -0.0279814 0)
(-4.53551e-06 -0.0279813 0)
)
;
    }
    procBoundary3to6
    {
        type            processor;
        value           nonuniform List<vector> 
50
(
(-2.94076e-05 -0.0279978 0)
(-2.90818e-05 -0.0279976 0)
(-2.87573e-05 -0.0279974 0)
(-2.8434e-05 -0.0279973 0)
(-2.8112e-05 -0.0279971 0)
(-2.77912e-05 -0.0279969 0)
(-2.74717e-05 -0.0279967 0)
(-2.71534e-05 -0.0279965 0)
(-2.68365e-05 -0.0279963 0)
(-2.65209e-05 -0.0279961 0)
(-2.62066e-05 -0.0279959 0)
(-2.58937e-05 -0.0279957 0)
(-2.55822e-05 -0.0279956 0)
(-2.52722e-05 -0.0279954 0)
(-2.49636e-05 -0.0279952 0)
(-2.46566e-05 -0.027995 0)
(-2.43512e-05 -0.0279948 0)
(-2.40474e-05 -0.0279947 0)
(-2.37452e-05 -0.0279945 0)
(-2.34448e-05 -0.0279943 0)
(-2.31461e-05 -0.0279941 0)
(-2.28493e-05 -0.027994 0)
(-2.25543e-05 -0.0279938 0)
(-2.22612e-05 -0.0279936 0)
(-2.197e-05 -0.0279934 0)
(-2.16809e-05 -0.0279933 0)
(-2.13938e-05 -0.0279931 0)
(-2.11088e-05 -0.0279929 0)
(-2.08259e-05 -0.0279928 0)
(-2.05452e-05 -0.0279926 0)
(-2.02667e-05 -0.0279925 0)
(-1.99905e-05 -0.0279923 0)
(-1.97166e-05 -0.0279921 0)
(-1.94451e-05 -0.027992 0)
(-1.91759e-05 -0.0279918 0)
(-1.89092e-05 -0.0279917 0)
(-1.86449e-05 -0.0279915 0)
(-1.83831e-05 -0.0279913 0)
(-1.81239e-05 -0.0279912 0)
(-1.78672e-05 -0.027991 0)
(-1.76131e-05 -0.0279909 0)
(-1.73616e-05 -0.0279907 0)
(-1.71127e-05 -0.0279906 0)
(-1.68665e-05 -0.0279904 0)
(-1.6623e-05 -0.0279903 0)
(-1.63822e-05 -0.0279901 0)
(-1.61442e-05 -0.02799 0)
(-1.59088e-05 -0.0279898 0)
(-1.56762e-05 -0.0279897 0)
(-1.54464e-05 -0.0279895 0)
)
;
    }
}


// ************************************************************************* //
