/*--------------------------------*- C++ -*----------------------------------*\
| =========                 |                                                 |
| \\      /  F ield         | OpenFOAM: The Open Source CFD Toolbox           |
|  \\    /   O peration     | Version:  2.4.0                                 |
|   \\  /    A nd           | Web:      www.OpenFOAM.org                      |
|    \\/     M anipulation  |                                                 |
\*---------------------------------------------------------------------------*/
FoamFile
{
    version     2.0;
    format      ascii;
    class       volScalarField;
    location    "0.6";
    object      p;
}
// * * * * * * * * * * * * * * * * * * * * * * * * * * * * * * * * * * * * * //

dimensions      [1 -1 -2 0 0 0 0];

internalField   nonuniform List<scalar> 
8000
(
-1.57686
-1.57809
-1.57955
-1.58106
-1.58262
-1.58424
-1.58594
-1.58771
-1.58955
-1.59146
-1.59344
-1.5955
-1.59763
-1.59985
-1.60214
-1.60452
-1.60699
-1.60964
-1.61261
-1.61559
-1.61646
-1.61197
-1.61065
-1.66595
-1.85843
-1.92283
-1.36264
-1.35322
-1.35296
-1.35298
-1.353
-1.353
-1.353
-1.353
-1.353
-1.353
-1.353
-1.353
-1.353
-1.353
-1.353
-1.353
-1.353
-1.353
-1.353
-1.353
-1.353
-1.353
-1.353
-1.353
-1.60019
-1.60139
-1.60274
-1.60407
-1.60538
-1.6067
-1.60804
-1.60939
-1.61075
-1.61213
-1.61351
-1.61491
-1.61631
-1.61772
-1.61914
-1.62056
-1.62199
-1.62352
-1.62527
-1.62682
-1.62597
-1.61995
-1.61945
-1.68014
-1.86956
-1.85426
-1.3797
-1.37552
-1.37534
-1.37536
-1.37538
-1.37538
-1.37538
-1.37537
-1.37537
-1.37537
-1.37537
-1.37537
-1.37537
-1.37537
-1.37537
-1.37537
-1.37537
-1.37537
-1.37537
-1.37537
-1.37537
-1.37537
-1.37537
-1.37537
-1.63281
-1.63422
-1.63575
-1.63718
-1.63851
-1.63978
-1.64098
-1.64213
-1.64322
-1.64424
-1.6452
-1.6461
-1.64693
-1.64769
-1.64838
-1.64898
-1.64953
-1.65009
-1.65078
-1.65114
-1.64892
-1.6415
-1.64042
-1.70265
-1.89176
-1.84511
-1.40059
-1.39785
-1.39772
-1.39774
-1.39776
-1.39776
-1.39775
-1.39775
-1.39775
-1.39775
-1.39775
-1.39775
-1.39775
-1.39775
-1.39775
-1.39775
-1.39775
-1.39774
-1.39775
-1.39775
-1.39774
-1.39775
-1.39775
-1.39773
-1.67256
-1.67328
-1.67409
-1.67491
-1.67577
-1.67666
-1.6776
-1.67858
-1.6796
-1.68067
-1.68178
-1.68293
-1.68412
-1.68536
-1.68665
-1.68799
-1.68938
-1.69091
-1.6927
-1.69446
-1.69431
-1.68928
-1.68693
-1.73541
-1.90717
-1.90811
-1.42278
-1.4202
-1.42008
-1.42011
-1.42013
-1.42013
-1.42012
-1.42012
-1.42012
-1.42012
-1.42012
-1.42012
-1.42012
-1.42012
-1.42012
-1.42012
-1.42012
-1.42012
-1.42013
-1.42009
-1.42007
-1.42012
-1.42012
-1.42005
-1.72811
-1.72923
-1.73054
-1.73177
-1.73291
-1.73397
-1.73496
-1.73588
-1.73674
-1.73753
-1.73826
-1.73891
-1.7395
-1.74002
-1.74047
-1.74084
-1.74115
-1.74146
-1.74192
-1.7423
-1.74065
-1.73333
-1.72647
-1.76976
-1.95312
-2.04198
-1.44587
-1.44256
-1.44243
-1.44246
-1.44247
-1.44247
-1.44247
-1.44247
-1.44246
-1.44246
-1.44246
-1.44246
-1.44246
-1.44246
-1.44246
-1.44245
-1.44245
-1.44237
-1.44237
-1.44237
-1.44234
-1.44251
-1.4425
-1.4424
-1.71087
-1.71265
-1.71435
-1.71576
-1.71696
-1.71798
-1.71884
-1.71954
-1.72006
-1.72042
-1.7206
-1.72061
-1.72044
-1.72009
-1.71956
-1.71883
-1.7179
-1.71685
-1.71588
-1.71488
-1.7117
-1.70108
-1.68614
-1.72126
-1.93789
-2.24998
-1.48367
-1.46506
-1.46485
-1.46488
-1.46489
-1.46489
-1.46489
-1.46489
-1.46489
-1.46489
-1.46489
-1.46489
-1.46489
-1.46489
-1.46489
-1.46489
-1.46489
-1.46489
-1.46489
-1.46479
-1.46478
-1.46488
-1.46488
-1.46488
-1.8693
-1.87017
-1.87133
-1.87247
-1.87353
-1.87451
-1.87542
-1.87626
-1.87704
-1.87774
-1.87837
-1.87893
-1.87941
-1.87982
-1.88015
-1.88039
-1.88054
-1.88071
-1.88125
-1.8821
-1.88031
-1.86749
-1.84493
-1.88882
-2.21297
-2.77155
-1.66144
-1.48795
-1.48727
-1.48728
-1.48729
-1.48729
-1.48728
-1.48728
-1.48728
-1.48728
-1.48728
-1.48728
-1.48728
-1.48728
-1.48728
-1.48728
-1.48728
-1.48728
-1.48728
-1.48728
-1.48725
-1.48727
-1.48727
-1.48728
-1.84923
-1.85108
-1.85284
-1.85434
-1.85568
-1.85689
-1.85798
-1.85895
-1.8598
-1.8605
-1.86108
-1.86152
-1.86182
-1.86198
-1.862
-1.86188
-1.8616
-1.86119
-1.86071
-1.86028
-1.85958
-1.85671
-1.84884
-1.84392
-1.88936
-2.0542
-2.0762
-1.53244
-1.51011
-1.50962
-1.50964
-1.50964
-1.50965
-1.50965
-1.50964
-1.50964
-1.50964
-1.50964
-1.50964
-1.50964
-1.50964
-1.50964
-1.50963
-1.50963
-1.50963
-1.50963
-1.50963
-1.50963
-1.50963
-1.50963
-2.05195
-2.05466
-2.05784
-2.06078
-2.06341
-2.06579
-2.06792
-2.06982
-2.07148
-2.07289
-2.07406
-2.07499
-2.07566
-2.07609
-2.07626
-2.07619
-2.07583
-2.07522
-2.07443
-2.07378
-2.07315
-2.06986
-2.0567
-2.0361
-2.07761
-2.36346
-2.80827
-1.78452
-1.54469
-1.53292
-1.53204
-1.53206
-1.53207
-1.53206
-1.53206
-1.53206
-1.53206
-1.53205
-1.53205
-1.53205
-1.53205
-1.53204
-1.53204
-1.53204
-1.53204
-1.53204
-1.53204
-1.53204
-1.53203
-1.53203
-2.04248
-2.04679
-2.0511
-2.05492
-2.05842
-2.0617
-2.06478
-2.06765
-2.07033
-2.07279
-2.07505
-2.07709
-2.07892
-2.08053
-2.08193
-2.08308
-2.08401
-2.08467
-2.08509
-2.08533
-2.0856
-2.08556
-2.08273
-2.07229
-2.06172
-2.11407
-2.34923
-2.48594
-1.7451
-1.57833
-1.55682
-1.5545
-1.5544
-1.5544
-1.55439
-1.55438
-1.55438
-1.55437
-1.55437
-1.55437
-1.55437
-1.55437
-1.55437
-1.55436
-1.55436
-1.55436
-1.55436
-1.55436
-1.55436
-1.55435
-2.38868
-2.39477
-2.40179
-2.40826
-2.41405
-2.41929
-2.42405
-2.42833
-2.43214
-2.43547
-2.43831
-2.44067
-2.44253
-2.44388
-2.44472
-2.44502
-2.44478
-2.44396
-2.44254
-2.44053
-2.43801
-2.43512
-2.43108
-2.42257
-2.40617
-2.40047
-2.48868
-2.75258
-2.61088
-1.80395
-1.61994
-1.58473
-1.57842
-1.57678
-1.57678
-1.57682
-1.57682
-1.57681
-1.5768
-1.5768
-1.5768
-1.57679
-1.57679
-1.57679
-1.57678
-1.57678
-1.57678
-1.57677
-1.57677
-1.57677
-2.35824
-2.36232
-2.36614
-2.36979
-2.37359
-2.37766
-2.38201
-2.38662
-2.39149
-2.39664
-2.40207
-2.4078
-2.41381
-2.42014
-2.42678
-2.43375
-2.44105
-2.4487
-2.45671
-2.46508
-2.47386
-2.48316
-2.49311
-2.50319
-2.51076
-2.5129
-2.52369
-2.60996
-2.84552
-2.90489
-2.12853
-1.75942
-1.63799
-1.60328
-1.59973
-1.59904
-1.59903
-1.5991
-1.59909
-1.59908
-1.59907
-1.59906
-1.59905
-1.59905
-1.59904
-1.59904
-1.59903
-1.59903
-1.59902
-1.59902
-3.08859
-3.08924
-3.09182
-3.09541
-3.09957
-3.10425
-3.10951
-3.11538
-3.12186
-3.12896
-3.1367
-3.14508
-3.15411
-3.1638
-3.17417
-3.1852
-3.19693
-3.20935
-3.22247
-3.23629
-3.25082
-3.26607
-3.28215
-3.2992
-3.31692
-3.33306
-3.34378
-3.35714
-3.42985
-3.65801
-3.88878
-2.85227
-1.98641
-1.71501
-1.64469
-1.62489
-1.62165
-1.62138
-1.62142
-1.6215
-1.62148
-1.62147
-1.62146
-1.62146
-1.62145
-1.62145
-1.62144
-1.62144
-1.62143
-1.62143
-2.48368
-2.48601
-2.48691
-2.48753
-2.48853
-2.49003
-2.49199
-2.49439
-2.49722
-2.50051
-2.50423
-2.50841
-2.51302
-2.51808
-2.52357
-2.52949
-2.53583
-2.54259
-2.54974
-2.55728
-2.56517
-2.57343
-2.58199
-2.5909
-2.60018
-2.60999
-2.61958
-2.62621
-2.62655
-2.63592
-2.72445
-3.00937
-3.35413
-2.68708
-2.02551
-1.77671
-1.67046
-1.64751
-1.64338
-1.64326
-1.64325
-1.64345
-1.64343
-1.64343
-1.64343
-1.64343
-1.64344
-1.64344
-1.64344
-1.64345
-3.51768
-3.50528
-3.49506
-3.48804
-3.48342
-3.48079
-3.48009
-3.48132
-3.48449
-3.48962
-3.49669
-3.50572
-3.51672
-3.52973
-3.54474
-3.56183
-3.58099
-3.60232
-3.62583
-3.65162
-3.67971
-3.71023
-3.7432
-3.77879
-3.81703
-3.85817
-3.90215
-3.94872
-3.99696
-4.049
-4.11699
-4.22274
-4.42581
-5.40597
-5.32724
-3.69586
-2.43917
-1.92851
-1.72303
-1.67349
-1.66613
-1.66579
-1.66582
-1.66569
-1.66593
-1.6659
-1.6659
-1.66591
-1.66592
-1.66593
-2.29574
-2.2868
-2.27574
-2.26605
-2.25836
-2.25248
-2.24822
-2.24552
-2.24438
-2.24477
-2.24667
-2.25009
-2.25502
-2.26146
-2.26943
-2.27895
-2.29006
-2.30279
-2.3172
-2.33333
-2.35127
-2.37107
-2.39287
-2.41671
-2.44277
-2.47111
-2.50195
-2.53531
-2.57153
-2.61075
-2.65379
-2.70033
-2.74664
-2.78286
-2.85308
-5.1268
-6.65315
-5.32271
-3.46123
-2.30993
-1.85667
-1.71874
-1.69074
-1.6873
-1.68758
-1.68771
-1.68743
-1.6876
-1.68758
-1.68762
-2.70793
-2.70813
-2.71082
-2.71397
-2.71673
-2.71905
-2.72101
-2.72265
-2.72396
-2.72492
-2.72551
-2.7257
-2.72547
-2.72479
-2.72363
-2.72194
-2.71972
-2.71689
-2.71346
-2.70935
-2.70456
-2.699
-2.69269
-2.68551
-2.67752
-2.66854
-2.65869
-2.64772
-2.63582
-2.62256
-2.60788
-2.5914
-2.57609
-2.56855
-2.56647
-2.5182
-2.44604
-3.31737
-7.12945
-7.68631
-5.61112
-3.52091
-2.32578
-1.89267
-1.73479
-1.70959
-1.70919
-1.71035
-1.71109
-1.71097
-0.85689
-0.868013
-0.877173
-0.885924
-0.895223
-0.904861
-0.914324
-0.923167
-0.931031
-0.937603
-0.9426
-0.945759
-0.946841
-0.945624
-0.941909
-0.935503
-0.926236
-0.91394
-0.898469
-0.879672
-0.857423
-0.831582
-0.802039
-0.768664
-0.731361
-0.690003
-0.644507
-0.594746
-0.540655
-0.482118
-0.419116
-0.351445
-0.278638
-0.19979
-0.11644
-0.0406692
0.00855771
0.0838093
0.168921
-0.0683446
-3.80122
-6.63434
-7.10726
-5.51535
-3.44037
-2.34576
-1.78294
-1.72142
-1.72974
-1.73352
-2.32786
-2.30304
-2.28643
-2.27924
-2.27806
-2.28067
-2.28589
-2.29289
-2.30093
-2.30932
-2.31748
-2.3249
-2.33115
-2.33584
-2.33866
-2.33935
-2.33765
-2.33339
-2.3264
-2.31655
-2.30374
-2.28791
-2.26898
-2.24697
-2.22184
-2.19365
-2.16243
-2.12829
-2.0913
-2.05165
-2.00946
-1.96502
-1.91855
-1.8704
-1.82065
-1.76884
-1.71686
-1.67003
-1.64462
-1.63655
-1.62378
-1.55284
-2.15609
-5.51572
-9.42958
-11.063
-8.96106
-4.23059
-1.32545
-1.76908
2.31418
1.87446
1.43283
1.05312
0.723263
0.428203
0.161761
-0.0785811
-0.294768
-0.48869
-0.662035
-0.816236
-0.952484
-1.07178
-1.17497
-1.26276
-1.33575
-1.39443
-1.4392
-1.47041
-1.48831
-1.49311
-1.48494
-1.46388
-1.42993
-1.38306
-1.32313
-1.24996
-1.16323
-1.06257
-0.947424
-0.817174
-0.670928
-0.507673
-0.325783
-0.124325
0.0984817
0.345805
0.621245
0.928507
1.27064
1.64009
2.02665
2.41305
2.99964
4.15936
5.16179
3.20365
-2.4818
-1.73766
-1.353
-1.353
-1.353
-1.353
-1.353
-1.353
-1.353
-1.353
-1.353
-1.353
-1.353
-1.353
-1.353
-1.353
-1.353
-1.353
-1.353
-1.353
-1.353
-1.353
-1.353
-1.353
-1.353
-1.353
-1.353
-1.353
-1.353
-1.353
-1.35299
-1.35299
-1.35299
-1.35299
-1.35299
-1.35299
-1.35299
-1.35299
-1.35299
-1.35299
-1.35299
-1.35299
-1.35299
-1.35299
-1.35299
-1.35299
-1.35299
-1.35299
-1.35299
-1.35299
-1.35299
-1.35299
-1.37537
-1.37537
-1.37537
-1.37537
-1.37537
-1.37537
-1.37537
-1.37537
-1.37537
-1.37537
-1.37537
-1.37537
-1.37537
-1.37537
-1.37537
-1.37537
-1.37537
-1.37537
-1.37537
-1.37537
-1.37537
-1.37537
-1.37536
-1.37536
-1.37536
-1.37536
-1.37536
-1.37536
-1.37536
-1.37536
-1.37536
-1.37536
-1.37536
-1.37536
-1.37536
-1.37536
-1.37536
-1.37536
-1.37536
-1.37536
-1.37536
-1.37536
-1.37536
-1.37536
-1.37536
-1.37536
-1.37536
-1.37536
-1.37536
-1.37536
-1.39774
-1.39776
-1.39775
-1.39776
-1.39776
-1.39776
-1.39776
-1.39775
-1.39775
-1.39775
-1.39775
-1.39775
-1.39775
-1.39775
-1.39775
-1.39775
-1.39775
-1.39775
-1.39775
-1.39775
-1.39775
-1.39775
-1.39775
-1.39775
-1.39775
-1.39775
-1.39775
-1.39775
-1.39775
-1.39775
-1.39775
-1.39775
-1.39774
-1.39774
-1.39774
-1.39774
-1.39774
-1.39774
-1.39774
-1.39774
-1.39774
-1.39774
-1.39774
-1.39774
-1.39774
-1.39774
-1.39774
-1.39774
-1.39774
-1.39774
-1.42013
-1.42016
-1.42013
-1.42014
-1.42014
-1.42014
-1.42014
-1.42004
-1.42013
-1.42013
-1.42009
-1.42012
-1.42012
-1.42012
-1.42012
-1.42012
-1.42011
-1.42012
-1.42012
-1.42011
-1.42012
-1.42011
-1.42011
-1.42011
-1.42011
-1.42011
-1.42011
-1.42011
-1.42011
-1.42011
-1.42011
-1.42011
-1.42011
-1.42011
-1.42011
-1.42011
-1.42011
-1.42011
-1.42011
-1.42011
-1.42011
-1.42011
-1.42011
-1.42011
-1.42011
-1.42011
-1.42011
-1.42011
-1.4201
-1.4201
-1.44255
-1.44262
-1.44252
-1.44253
-1.44252
-1.44252
-1.44251
-1.44249
-1.44251
-1.44251
-1.44246
-1.44259
-1.44253
-1.44253
-1.44253
-1.44252
-1.44248
-1.44253
-1.44255
-1.44255
-1.44251
-1.44239
-1.44251
-1.44252
-1.44252
-1.44251
-1.44252
-1.44252
-1.44252
-1.44252
-1.44252
-1.44251
-1.44251
-1.44251
-1.44251
-1.44251
-1.44251
-1.44251
-1.44251
-1.44251
-1.44251
-1.4425
-1.4425
-1.4425
-1.4425
-1.4425
-1.4425
-1.4425
-1.4425
-1.4425
-1.46487
-1.46488
-1.46488
-1.46488
-1.46489
-1.46489
-1.46489
-1.46489
-1.46489
-1.46488
-1.46489
-1.46489
-1.46489
-1.46489
-1.4649
-1.4649
-1.4649
-1.46489
-1.46488
-1.46479
-1.46485
-1.46485
-1.46484
-1.46486
-1.46486
-1.46478
-1.46487
-1.46487
-1.46487
-1.46487
-1.46487
-1.46487
-1.46487
-1.4648
-1.46486
-1.46486
-1.46486
-1.46486
-1.46486
-1.46487
-1.46487
-1.46487
-1.46487
-1.46487
-1.46487
-1.46487
-1.46486
-1.46486
-1.46486
-1.46486
-1.48728
-1.48728
-1.48728
-1.48728
-1.48728
-1.48728
-1.48728
-1.48728
-1.48728
-1.48728
-1.48728
-1.48728
-1.48728
-1.48729
-1.48729
-1.48729
-1.48729
-1.48729
-1.48729
-1.48729
-1.48729
-1.48729
-1.48729
-1.48729
-1.48729
-1.48729
-1.48729
-1.48729
-1.48729
-1.48729
-1.48729
-1.48729
-1.48721
-1.48728
-1.48728
-1.48728
-1.48728
-1.48728
-1.48727
-1.48727
-1.48727
-1.48727
-1.48727
-1.48727
-1.48727
-1.48727
-1.48727
-1.48727
-1.48727
-1.48727
-1.50963
-1.50963
-1.50963
-1.50963
-1.50963
-1.50963
-1.50963
-1.50963
-1.50963
-1.50963
-1.50963
-1.50964
-1.50964
-1.50964
-1.50964
-1.50964
-1.50964
-1.50964
-1.50964
-1.50964
-1.50964
-1.50964
-1.50964
-1.50964
-1.50964
-1.50964
-1.50964
-1.50964
-1.50964
-1.50964
-1.50964
-1.50964
-1.50964
-1.50964
-1.50964
-1.50964
-1.50964
-1.50964
-1.50964
-1.50956
-1.50963
-1.50963
-1.50962
-1.50962
-1.50962
-1.50962
-1.50962
-1.50962
-1.50962
-1.50962
-1.53203
-1.53203
-1.53203
-1.53203
-1.53203
-1.53203
-1.53203
-1.53203
-1.53203
-1.53203
-1.53203
-1.53203
-1.53203
-1.53203
-1.53203
-1.53203
-1.53203
-1.53203
-1.53203
-1.53203
-1.53203
-1.53203
-1.53203
-1.53202
-1.53202
-1.53203
-1.532
-1.53203
-1.53204
-1.53204
-1.53204
-1.53204
-1.53199
-1.53203
-1.53204
-1.53203
-1.53198
-1.53204
-1.53204
-1.53203
-1.53203
-1.53203
-1.53203
-1.53203
-1.53203
-1.53203
-1.53203
-1.53202
-1.53202
-1.53202
-1.55435
-1.55435
-1.55435
-1.55435
-1.55435
-1.55435
-1.55435
-1.55435
-1.55435
-1.55434
-1.55434
-1.55434
-1.55434
-1.55434
-1.55434
-1.55434
-1.55434
-1.55434
-1.55434
-1.55434
-1.55434
-1.55434
-1.55434
-1.55434
-1.55434
-1.55434
-1.55434
-1.55434
-1.55434
-1.55434
-1.55434
-1.55434
-1.55434
-1.55434
-1.55434
-1.55434
-1.55434
-1.55434
-1.55434
-1.55434
-1.55434
-1.55434
-1.55434
-1.55434
-1.55434
-1.55434
-1.55434
-1.55434
-1.55433
-1.55433
-1.57676
-1.57676
-1.57676
-1.57676
-1.57675
-1.57675
-1.57675
-1.57675
-1.57675
-1.57675
-1.57674
-1.57674
-1.57674
-1.57674
-1.57674
-1.57674
-1.57674
-1.57674
-1.57674
-1.57673
-1.57673
-1.57673
-1.57673
-1.57673
-1.57673
-1.57673
-1.57673
-1.57673
-1.57673
-1.57673
-1.57673
-1.57673
-1.57673
-1.57673
-1.57673
-1.57673
-1.57673
-1.57673
-1.57673
-1.57673
-1.57673
-1.57673
-1.57673
-1.57673
-1.57672
-1.57672
-1.57672
-1.57672
-1.57672
-1.57672
-1.59901
-1.59901
-1.59901
-1.59901
-1.599
-1.599
-1.599
-1.599
-1.599
-1.59899
-1.59899
-1.59899
-1.59899
-1.59899
-1.59899
-1.59899
-1.59899
-1.59899
-1.59899
-1.59899
-1.59899
-1.59899
-1.59899
-1.59899
-1.59899
-1.59899
-1.59899
-1.59899
-1.59899
-1.59899
-1.59899
-1.59899
-1.59899
-1.599
-1.599
-1.599
-1.599
-1.599
-1.599
-1.599
-1.599
-1.599
-1.599
-1.599
-1.599
-1.599
-1.599
-1.599
-1.599
-1.599
-1.62142
-1.62142
-1.62142
-1.62141
-1.62141
-1.62141
-1.62141
-1.62141
-1.62141
-1.6214
-1.6214
-1.6214
-1.6214
-1.6214
-1.6214
-1.6214
-1.6214
-1.6214
-1.6214
-1.6214
-1.6214
-1.6214
-1.6214
-1.6214
-1.6214
-1.6214
-1.6214
-1.6214
-1.6214
-1.6214
-1.6214
-1.6214
-1.6214
-1.6214
-1.62141
-1.62141
-1.62141
-1.62141
-1.62141
-1.62141
-1.62141
-1.62141
-1.62141
-1.62141
-1.62141
-1.62141
-1.62141
-1.62141
-1.62141
-1.62141
-1.64345
-1.64346
-1.64346
-1.64347
-1.64347
-1.64348
-1.64348
-1.64349
-1.64349
-1.6435
-1.6435
-1.64351
-1.64352
-1.64352
-1.64353
-1.64353
-1.64354
-1.64354
-1.64355
-1.64355
-1.64356
-1.64356
-1.64357
-1.64357
-1.64358
-1.64358
-1.64359
-1.64359
-1.6436
-1.6436
-1.6436
-1.64361
-1.64361
-1.64362
-1.64362
-1.64362
-1.64363
-1.64363
-1.64363
-1.64364
-1.64364
-1.64364
-1.64364
-1.64365
-1.64365
-1.64365
-1.64366
-1.64366
-1.64366
-1.64366
-1.66594
-1.66595
-1.66595
-1.66596
-1.66597
-1.66598
-1.66598
-1.66599
-1.666
-1.666
-1.66601
-1.66602
-1.66602
-1.66603
-1.66603
-1.66604
-1.66604
-1.66605
-1.66605
-1.66606
-1.66606
-1.66607
-1.66607
-1.66607
-1.66608
-1.66608
-1.66608
-1.66609
-1.66609
-1.66609
-1.6661
-1.6661
-1.6661
-1.6661
-1.66611
-1.66611
-1.66611
-1.66611
-1.66611
-1.66611
-1.66612
-1.66612
-1.66612
-1.66612
-1.66612
-1.66612
-1.66612
-1.66612
-1.66612
-1.66613
-1.68767
-1.68772
-1.68776
-1.68779
-1.68783
-1.68786
-1.68789
-1.68792
-1.68794
-1.68797
-1.68799
-1.68801
-1.68803
-1.68805
-1.68807
-1.68808
-1.6881
-1.68812
-1.68813
-1.68814
-1.68816
-1.68817
-1.68818
-1.68819
-1.6882
-1.68821
-1.68822
-1.68823
-1.68824
-1.68825
-1.68825
-1.68826
-1.68827
-1.68828
-1.68828
-1.68829
-1.68829
-1.6883
-1.68831
-1.68831
-1.68832
-1.68832
-1.68833
-1.68833
-1.68834
-1.68834
-1.68834
-1.68835
-1.68835
-1.68835
-1.71098
-1.71096
-1.71096
-1.71096
-1.71097
-1.71097
-1.71097
-1.71097
-1.71097
-1.71097
-1.71097
-1.71097
-1.71097
-1.71097
-1.71096
-1.71096
-1.71096
-1.71096
-1.71096
-1.71095
-1.71095
-1.71095
-1.71094
-1.71094
-1.71094
-1.71094
-1.71093
-1.71093
-1.71093
-1.71092
-1.71092
-1.71092
-1.71092
-1.71091
-1.71091
-1.71091
-1.71091
-1.71091
-1.7109
-1.7109
-1.7109
-1.7109
-1.7109
-1.71089
-1.71089
-1.71089
-1.71089
-1.71089
-1.71089
-1.71089
-1.73309
-1.7331
-1.73307
-1.7331
-1.73309
-1.73308
-1.73308
-1.73307
-1.73307
-1.73307
-1.73307
-1.73306
-1.73306
-1.73306
-1.73306
-1.73306
-1.73306
-1.73306
-1.73306
-1.73306
-1.73306
-1.73307
-1.73307
-1.73307
-1.73307
-1.73307
-1.73307
-1.73307
-1.73308
-1.73308
-1.73308
-1.73308
-1.73308
-1.73309
-1.73309
-1.73309
-1.73309
-1.73309
-1.7331
-1.7331
-1.7331
-1.7331
-1.7331
-1.73311
-1.73311
-1.73311
-1.73311
-1.73312
-1.73312
-1.73312
-1.76312
-1.75542
-1.75562
-1.75633
-1.7563
-1.75625
-1.75622
-1.75619
-1.75616
-1.75613
-1.7561
-1.75607
-1.75604
-1.75601
-1.75599
-1.75596
-1.75594
-1.75592
-1.7559
-1.75588
-1.75586
-1.75584
-1.75583
-1.75581
-1.7558
-1.75578
-1.75577
-1.75576
-1.75575
-1.75574
-1.75573
-1.75572
-1.75571
-1.7557
-1.7557
-1.75569
-1.75568
-1.75568
-1.75567
-1.75567
-1.75566
-1.75566
-1.75565
-1.75565
-1.75564
-1.75564
-1.75564
-1.75563
-1.75563
-1.75563
-1.74286
-1.76564
-1.7756
-1.77709
-1.77733
-1.77739
-1.77745
-1.7775
-1.77756
-1.7776
-1.77764
-1.77767
-1.77769
-1.77772
-1.77774
-1.77775
-1.77777
-1.77778
-1.77779
-1.7778
-1.77781
-1.77782
-1.77783
-1.77784
-1.77784
-1.77785
-1.77785
-1.77786
-1.77786
-1.77786
-1.77787
-1.77787
-1.77787
-1.77788
-1.77788
-1.77788
-1.77788
-1.77788
-1.77789
-1.77789
-1.77789
-1.77789
-1.77789
-1.77789
-1.77789
-1.77789
-1.7779
-1.7779
-1.7779
-1.7779
-1.35299
-1.35299
-1.35299
-1.35299
-1.35299
-1.35299
-1.35299
-1.35299
-1.35299
-1.35299
-1.35299
-1.35299
-1.35299
-1.35299
-1.35299
-1.35299
-1.35299
-1.35299
-1.35299
-1.35299
-1.35299
-1.353
-1.353
-1.353
-1.353
-1.353
-1.353
-1.353
-1.353
-1.353
-1.353
-1.353
-1.353
-1.353
-1.353
-1.353
-1.353
-1.353
-1.353
-1.353
-1.353
-1.353
-1.353
-1.353
-1.353
-1.353
-1.353
-1.353
-1.353
-1.353
-1.353
-1.353
-1.353
-1.353
-1.353
-1.353
-1.353
-1.353
-1.353
-1.353
-1.353
-1.353
-1.353
-1.353
-1.353
-1.353
-1.353
-1.353
-1.353
-1.353
-1.353
-1.353
-1.353
-1.353
-1.353
-1.353
-1.353
-1.353
-1.353
-1.353
-1.353
-1.353
-1.353
-1.353
-1.353
-1.353
-1.353
-1.353
-1.353
-1.353
-1.353
-1.35301
-1.35301
-1.35301
-1.35301
-1.35301
-1.35301
-1.35301
-1.35301
-1.35301
-1.35301
-1.35301
-1.35301
-1.35301
-1.35301
-1.35301
-1.35301
-1.35301
-1.35301
-1.35301
-1.35301
-1.35301
-1.35301
-1.35301
-1.35301
-1.35301
-1.35301
-1.35301
-1.35301
-1.35301
-1.35301
-1.35301
-1.35301
-1.35301
-1.35301
-1.35301
-1.35301
-1.35301
-1.35301
-1.35301
-1.35301
-1.35301
-1.35301
-1.35301
-1.35301
-1.35301
-1.35301
-1.35301
-1.35302
-1.35302
-1.35302
-1.35302
-1.35302
-1.35302
-1.35302
-1.35302
-1.35302
-1.35302
-1.35302
-1.35302
-1.35302
-1.35302
-1.35302
-1.35302
-1.35302
-1.35302
-1.35302
-1.35302
-1.35302
-1.35302
-1.35302
-1.35302
-1.35302
-1.35302
-1.35302
-1.35302
-1.35302
-1.35302
-1.35302
-1.35302
-1.35302
-1.35302
-1.35302
-1.35303
-1.35303
-1.35303
-1.35303
-1.35303
-1.35303
-1.35303
-1.35303
-1.35303
-1.35303
-1.35303
-1.35303
-1.35303
-1.35303
-1.35303
-1.35303
-1.35303
-1.35303
-1.35303
-1.35303
-1.35303
-1.35303
-1.35303
-1.35303
-1.35303
-1.35303
-1.35303
-1.35303
-1.35303
-1.35304
-1.35304
-1.35304
-1.35304
-1.35304
-1.35304
-1.35304
-1.35304
-1.35304
-1.35304
-1.35304
-1.35304
-1.35304
-1.35304
-1.35304
-1.35304
-1.35304
-1.35304
-1.35304
-1.35304
-1.35304
-1.35304
-1.35304
-1.35304
-1.35304
-1.35305
-1.35305
-1.35305
-1.35305
-1.35305
-1.35305
-1.35305
-1.35305
-1.35305
-1.35305
-1.35305
-1.35305
-1.35305
-1.35305
-1.35305
-1.35305
-1.35305
-1.35305
-1.35305
-1.35305
-1.35305
-1.35305
-1.35305
-1.35305
-1.35306
-1.35306
-1.35306
-1.35306
-1.35306
-1.35306
-1.35306
-1.35306
-1.35306
-1.35306
-1.35306
-1.35306
-1.35306
-1.35306
-1.35306
-1.35306
-1.35306
-1.35306
-1.35306
-1.35306
-1.35306
-1.35306
-1.35307
-1.35307
-1.35307
-1.35307
-1.35307
-1.35307
-1.35307
-1.35307
-1.35307
-1.35307
-1.35307
-1.35307
-1.35307
-1.35307
-1.35307
-1.35307
-1.35307
-1.35307
-1.35307
-1.35307
-1.35308
-1.35308
-1.35308
-1.35308
-1.35308
-1.35308
-1.35308
-1.37536
-1.37536
-1.37536
-1.37536
-1.37536
-1.37536
-1.37536
-1.37536
-1.37536
-1.37536
-1.37536
-1.37536
-1.37536
-1.37536
-1.37536
-1.37536
-1.37536
-1.37536
-1.37536
-1.37536
-1.37536
-1.37536
-1.37536
-1.37536
-1.37536
-1.37536
-1.37536
-1.37536
-1.37536
-1.37536
-1.37536
-1.37536
-1.37536
-1.37536
-1.37536
-1.37536
-1.37536
-1.37536
-1.37536
-1.37536
-1.37536
-1.37536
-1.37536
-1.37536
-1.37536
-1.37536
-1.37536
-1.37536
-1.37536
-1.37536
-1.37536
-1.37536
-1.37536
-1.37536
-1.37536
-1.37536
-1.37536
-1.37536
-1.37536
-1.37536
-1.37536
-1.37536
-1.37536
-1.37536
-1.37536
-1.37536
-1.37537
-1.37537
-1.37537
-1.37537
-1.37537
-1.37537
-1.37537
-1.37537
-1.37537
-1.37537
-1.37537
-1.37537
-1.37537
-1.37537
-1.37537
-1.37537
-1.37537
-1.37537
-1.37537
-1.37537
-1.37537
-1.37537
-1.37537
-1.37537
-1.37537
-1.37537
-1.37537
-1.37537
-1.37537
-1.37537
-1.37537
-1.37537
-1.37537
-1.37537
-1.37537
-1.37537
-1.37537
-1.37537
-1.37537
-1.37537
-1.37537
-1.37537
-1.37537
-1.37537
-1.37537
-1.37537
-1.37537
-1.37537
-1.37537
-1.37537
-1.37538
-1.37538
-1.37538
-1.37538
-1.37538
-1.37538
-1.37538
-1.37538
-1.37538
-1.37538
-1.37538
-1.37538
-1.37538
-1.37538
-1.37538
-1.37538
-1.37538
-1.37538
-1.37538
-1.37538
-1.37538
-1.37538
-1.37538
-1.37538
-1.37538
-1.37538
-1.37538
-1.37538
-1.37538
-1.37538
-1.37538
-1.37538
-1.37538
-1.37538
-1.37538
-1.37538
-1.37538
-1.37539
-1.37539
-1.37539
-1.37539
-1.37539
-1.37539
-1.37539
-1.37539
-1.37539
-1.37539
-1.37539
-1.37539
-1.37539
-1.37539
-1.37539
-1.37539
-1.37539
-1.37539
-1.37539
-1.37539
-1.37539
-1.37539
-1.37539
-1.37539
-1.37539
-1.37539
-1.37539
-1.37539
-1.37539
-1.37539
-1.37539
-1.3754
-1.3754
-1.3754
-1.3754
-1.3754
-1.3754
-1.3754
-1.3754
-1.3754
-1.3754
-1.3754
-1.3754
-1.3754
-1.3754
-1.3754
-1.3754
-1.3754
-1.3754
-1.3754
-1.3754
-1.3754
-1.3754
-1.3754
-1.3754
-1.3754
-1.3754
-1.3754
-1.3754
-1.37541
-1.37541
-1.37541
-1.37541
-1.37541
-1.37541
-1.37541
-1.37541
-1.37541
-1.37541
-1.37541
-1.37541
-1.37541
-1.37541
-1.37541
-1.37541
-1.37541
-1.37541
-1.37541
-1.37541
-1.37541
-1.37541
-1.37541
-1.37541
-1.37542
-1.37542
-1.37542
-1.37542
-1.37542
-1.37542
-1.37542
-1.37542
-1.37542
-1.37542
-1.37542
-1.37542
-1.37542
-1.37542
-1.37542
-1.37542
-1.37542
-1.37542
-1.37542
-1.37542
-1.37542
-1.37542
-1.37542
-1.37543
-1.37543
-1.37543
-1.37543
-1.37543
-1.37543
-1.37543
-1.37543
-1.37543
-1.37543
-1.37543
-1.37543
-1.37543
-1.37543
-1.37543
-1.37543
-1.37543
-1.37543
-1.37543
-1.37543
-1.37543
-1.37544
-1.37544
-1.37544
-1.37544
-1.37544
-1.37544
-1.37544
-1.37544
-1.37544
-1.37544
-1.37544
-1.37544
-1.37544
-1.37544
-1.37544
-1.37544
-1.37544
-1.37544
-1.37544
-1.37544
-1.39774
-1.39774
-1.39774
-1.39774
-1.39774
-1.39774
-1.39774
-1.39774
-1.39774
-1.39774
-1.39774
-1.39774
-1.39774
-1.39774
-1.39774
-1.39774
-1.39774
-1.39774
-1.39774
-1.39774
-1.39774
-1.39774
-1.39774
-1.39774
-1.39774
-1.39774
-1.39774
-1.39774
-1.39774
-1.39774
-1.39774
-1.39774
-1.39774
-1.39774
-1.39774
-1.39774
-1.39774
-1.39774
-1.39774
-1.39774
-1.39774
-1.39774
-1.39774
-1.39774
-1.39774
-1.39774
-1.39774
-1.39774
-1.39774
-1.39774
-1.39774
-1.39774
-1.39774
-1.39774
-1.39774
-1.39774
-1.39774
-1.39774
-1.39774
-1.39774
-1.39774
-1.39774
-1.39774
-1.39774
-1.39774
-1.39774
-1.39774
-1.39774
-1.39774
-1.39774
-1.39774
-1.39774
-1.39774
-1.39774
-1.39774
-1.39774
-1.39774
-1.39774
-1.39774
-1.39774
-1.39774
-1.39774
-1.39774
-1.39774
-1.39774
-1.39774
-1.39774
-1.39774
-1.39774
-1.39774
-1.39774
-1.39774
-1.39774
-1.39774
-1.39774
-1.39774
-1.39774
-1.39774
-1.39774
-1.39774
-1.39774
-1.39774
-1.39774
-1.39774
-1.39774
-1.39774
-1.39774
-1.39774
-1.39774
-1.39774
-1.39774
-1.39774
-1.39774
-1.39774
-1.39775
-1.39775
-1.39775
-1.39775
-1.39775
-1.39775
-1.39775
-1.39775
-1.39775
-1.39775
-1.39775
-1.39775
-1.39775
-1.39775
-1.39775
-1.39775
-1.39775
-1.39775
-1.39775
-1.39775
-1.39775
-1.39775
-1.39775
-1.39775
-1.39775
-1.39775
-1.39775
-1.39775
-1.39775
-1.39775
-1.39775
-1.39775
-1.39775
-1.39775
-1.39775
-1.39775
-1.39775
-1.39775
-1.39775
-1.39775
-1.39775
-1.39775
-1.39775
-1.39775
-1.39775
-1.39775
-1.39775
-1.39775
-1.39776
-1.39776
-1.39776
-1.39776
-1.39776
-1.39776
-1.39776
-1.39776
-1.39776
-1.39776
-1.39776
-1.39776
-1.39776
-1.39776
-1.39776
-1.39776
-1.39776
-1.39776
-1.39776
-1.39776
-1.39776
-1.39776
-1.39776
-1.39776
-1.39776
-1.39776
-1.39776
-1.39776
-1.39776
-1.39776
-1.39776
-1.39776
-1.39777
-1.39777
-1.39777
-1.39777
-1.39777
-1.39777
-1.39777
-1.39777
-1.39777
-1.39777
-1.39777
-1.39777
-1.39777
-1.39777
-1.39777
-1.39777
-1.39777
-1.39777
-1.39777
-1.39777
-1.39777
-1.39777
-1.39777
-1.39777
-1.39777
-1.39777
-1.39777
-1.39778
-1.39778
-1.39778
-1.39778
-1.39778
-1.39778
-1.39778
-1.39778
-1.39778
-1.39778
-1.39778
-1.39778
-1.39778
-1.39778
-1.39778
-1.39778
-1.39778
-1.39778
-1.39778
-1.39778
-1.39778
-1.39778
-1.39778
-1.39778
-1.39779
-1.39779
-1.39779
-1.39779
-1.39779
-1.39779
-1.39779
-1.39779
-1.39779
-1.39779
-1.39779
-1.39779
-1.39779
-1.39779
-1.39779
-1.39779
-1.39779
-1.39779
-1.39779
-1.39779
-1.39779
-1.39779
-1.3978
-1.3978
-1.3978
-1.3978
-1.3978
-1.3978
-1.3978
-1.3978
-1.3978
-1.3978
-1.3978
-1.3978
-1.3978
-1.3978
-1.3978
-1.3978
-1.3978
-1.3978
-1.3978
-1.3978
-1.3978
-1.39781
-1.39781
-1.39781
-1.39781
-1.39781
-1.39781
-1.39781
-1.39781
-1.39781
-1.39781
-1.39781
-1.39781
-1.4201
-1.4201
-1.4201
-1.4201
-1.4201
-1.4201
-1.4201
-1.4201
-1.4201
-1.4201
-1.4201
-1.4201
-1.4201
-1.4201
-1.4201
-1.4201
-1.4201
-1.4201
-1.4201
-1.4201
-1.4201
-1.4201
-1.4201
-1.4201
-1.4201
-1.4201
-1.4201
-1.4201
-1.4201
-1.4201
-1.4201
-1.4201
-1.4201
-1.4201
-1.4201
-1.4201
-1.4201
-1.4201
-1.4201
-1.4201
-1.4201
-1.4201
-1.4201
-1.4201
-1.4201
-1.4201
-1.4201
-1.4201
-1.4201
-1.4201
-1.4201
-1.4201
-1.4201
-1.4201
-1.4201
-1.4201
-1.4201
-1.4201
-1.4201
-1.4201
-1.4201
-1.4201
-1.4201
-1.4201
-1.4201
-1.4201
-1.4201
-1.4201
-1.4201
-1.4201
-1.4201
-1.4201
-1.4201
-1.4201
-1.4201
-1.4201
-1.4201
-1.4201
-1.4201
-1.4201
-1.4201
-1.4201
-1.4201
-1.4201
-1.4201
-1.4201
-1.4201
-1.4201
-1.4201
-1.4201
-1.4201
-1.42011
-1.42011
-1.42011
-1.42011
-1.42011
-1.42011
-1.42011
-1.42011
-1.42011
-1.42011
-1.42011
-1.42011
-1.42011
-1.42011
-1.42011
-1.42011
-1.42011
-1.42011
-1.42011
-1.42011
-1.42011
-1.42011
-1.42011
-1.42011
-1.42011
-1.42011
-1.42011
-1.42011
-1.42011
-1.42011
-1.42011
-1.42011
-1.42011
-1.42011
-1.42011
-1.42011
-1.42011
-1.42011
-1.42011
-1.42011
-1.42011
-1.42011
-1.42011
-1.42011
-1.42011
-1.42011
-1.42011
-1.42011
-1.42011
-1.42011
-1.42011
-1.42012
-1.42012
-1.42012
-1.42012
-1.42012
-1.42012
-1.42012
-1.42012
-1.42012
-1.42012
-1.42012
-1.42012
-1.42012
-1.42012
-1.42012
-1.42012
-1.42012
-1.42012
-1.42012
-1.42012
-1.42012
-1.42012
-1.42012
-1.42012
-1.42012
-1.42012
-1.42012
-1.42012
-1.42012
-1.42012
-1.42012
-1.42012
-1.42012
-1.42012
-1.42013
-1.42013
-1.42013
-1.42013
-1.42013
-1.42013
-1.42013
-1.42013
-1.42013
-1.42013
-1.42013
-1.42013
-1.42013
-1.42013
-1.42013
-1.42013
-1.42013
-1.42013
-1.42013
-1.42013
-1.42013
-1.42013
-1.42013
-1.42013
-1.42013
-1.42013
-1.42013
-1.42013
-1.42014
-1.42014
-1.42014
-1.42014
-1.42014
-1.42014
-1.42014
-1.42014
-1.42014
-1.42014
-1.42014
-1.42014
-1.42014
-1.42014
-1.42014
-1.42014
-1.42014
-1.42014
-1.42014
-1.42014
-1.42014
-1.42014
-1.42014
-1.42014
-1.42014
-1.42014
-1.42015
-1.42015
-1.42015
-1.42015
-1.42015
-1.42015
-1.42015
-1.42015
-1.42015
-1.42015
-1.42015
-1.42015
-1.42015
-1.42015
-1.42015
-1.42015
-1.42015
-1.42015
-1.42015
-1.42015
-1.42015
-1.42015
-1.42015
-1.42016
-1.42016
-1.42016
-1.42016
-1.42016
-1.42016
-1.42016
-1.42016
-1.42016
-1.42016
-1.42016
-1.42016
-1.42016
-1.42016
-1.42016
-1.42016
-1.42016
-1.42016
-1.42016
-1.42016
-1.42016
-1.42016
-1.42017
-1.42017
-1.42017
-1.42017
-1.42017
-1.42017
-1.42017
-1.42017
-1.42017
-1.42017
-1.42017
-1.42017
-1.42017
-1.42017
-1.42017
-1.42017
-1.42017
-1.42017
-1.42017
-1.42017
-1.42018
-1.42018
-1.42018
-1.42018
-1.42018
-1.4425
-1.4425
-1.4425
-1.4425
-1.4425
-1.4425
-1.4425
-1.4425
-1.4425
-1.4425
-1.4425
-1.44249
-1.44249
-1.44249
-1.44249
-1.44249
-1.44249
-1.44249
-1.44249
-1.44249
-1.44249
-1.44249
-1.44249
-1.44249
-1.44249
-1.44249
-1.44249
-1.44249
-1.44249
-1.44249
-1.44249
-1.44249
-1.44249
-1.44249
-1.44249
-1.44249
-1.44249
-1.44249
-1.44249
-1.44249
-1.44249
-1.44249
-1.44249
-1.44249
-1.44249
-1.44249
-1.44249
-1.44249
-1.44249
-1.44248
-1.44248
-1.44248
-1.44248
-1.44248
-1.44248
-1.44248
-1.44248
-1.44248
-1.44248
-1.44248
-1.44248
-1.44248
-1.44248
-1.44248
-1.44248
-1.44248
-1.44248
-1.44248
-1.44248
-1.44248
-1.44248
-1.44248
-1.44248
-1.44248
-1.44248
-1.44248
-1.44248
-1.44248
-1.44248
-1.44248
-1.44248
-1.44248
-1.44248
-1.44248
-1.44248
-1.44248
-1.44248
-1.44248
-1.44248
-1.44248
-1.44248
-1.44248
-1.44248
-1.44248
-1.44248
-1.44248
-1.44248
-1.44248
-1.44248