/*--------------------------------*- C++ -*----------------------------------*\
| =========                 |                                                 |
| \\      /  F ield         | OpenFOAM: The Open Source CFD Toolbox           |
|  \\    /   O peration     | Version:  2.4.0                                 |
|   \\  /    A nd           | Web:      www.OpenFOAM.org                      |
|    \\/     M anipulation  |                                                 |
\*---------------------------------------------------------------------------*/
FoamFile
{
    version     2.0;
    format      ascii;
    class       volScalarField;
    location    "0.6";
    object      p_rgh;
}
// * * * * * * * * * * * * * * * * * * * * * * * * * * * * * * * * * * * * * //

dimensions      [1 -1 -2 0 0 0 0];

internalField   nonuniform List<scalar> 
8000
(
80.1191
80.1179
80.1164
80.1149
80.1133
80.1117
80.11
80.1083
80.1064
80.1045
80.1025
80.1005
80.0983
80.0961
80.0938
80.0914
80.089
80.0863
80.0833
80.0804
80.0795
80.0839
80.0851
80.0295
79.8355
51.2934
0.879397
0.016724
0.00141333
0.00075322
0.000498553
0.00037059
0.000302118
0.000265081
0.000245534
0.000235659
0.000230884
0.000228474
0.000226767
0.000225176
0.000223471
0.000222319
0.000221302
0.000220275
0.000219272
0.000217647
0.000216284
0.000214475
0.000213418
0.000212738
81.4461
81.4449
81.4436
81.4422
81.4409
81.4396
81.4383
81.4369
81.4356
81.4342
81.4328
81.4314
81.43
81.4286
81.4272
81.4258
81.4243
81.4228
81.421
81.4195
81.4203
81.4263
81.4266
81.3655
81.1736
44.4411
0.398158
0.0100134
0.00129064
0.000721557
0.000470526
0.000358306
0.000299876
0.00026872
0.00025227
0.000244032
0.000240005
0.00023779
0.000235592
0.000233355
0.000229752
0.000228114
0.000227056
0.000226364
0.000226242
0.000223814
0.000223147
0.000219147
0.000217384
0.000218193
82.7638
82.7624
82.7609
82.7595
82.7581
82.7569
82.7557
82.7545
82.7534
82.7524
82.7515
82.7506
82.7497
82.749
82.7483
82.7477
82.7471
82.7466
82.7459
82.7455
82.7477
82.7551
82.756
82.6933
82.5013
42.0778
0.253693
0.00736721
0.00139018
0.000709648
0.000456333
0.000355557
0.00030485
0.00027823
0.000263611
0.000255906
0.000251449
0.00024872
0.000245144
0.000242854
0.000233981
0.000230599
0.00022817
0.000227486
0.000227603
0.000223049
0.000228252
0.000217287
0.000212894
0.000232096
84.0744
84.0737
84.0729
84.0721
84.0712
84.0703
84.0694
84.0684
84.0674
84.0663
84.0652
84.0641
84.0629
84.0616
84.0603
84.059
84.0576
84.0561
84.0543
84.0525
84.0527
84.0576
84.0599
84.011
83.838
44.1996
0.242374
0.0068707
0.00153425
0.00072862
0.00046792
0.000370969
0.000324504
0.000300243
0.000285262
0.00027629
0.00026932
0.000264872
0.000258508
0.00025961
0.000241166
0.000235934
0.000231949
0.000228656
0.000227083
0.000253293
0.000283665
0.00022901
0.000223314
0.000278485
85.3692
85.3681
85.3668
85.3656
85.3644
85.3634
85.3624
85.3615
85.3606
85.3598
85.3591
85.3584
85.3578
85.3573
85.3569
85.3565
85.3562
85.3559
85.3554
85.355
85.3567
85.3639
85.3707
85.3271
85.143
53.0744
0.278469
0.00661547
0.00159683
0.000772661
0.000517273
0.00042024
0.00037753
0.000354869
0.000338634
0.00032831
0.000318429
0.000311586
0.00030116
0.000312053
0.000280639
0.000276862
0.00027493
0.000338537
0.0003696
0.000333966
0.000395047
0.00020178
0.000201207
0.000288784
86.7368
86.735
86.7334
86.7319
86.7307
86.7297
86.7289
86.7282
86.7276
86.7273
86.7271
86.7271
86.7273
86.7276
86.7281
86.7289
86.7298
86.7308
86.7318
86.7328
86.736
86.7465
86.7614
86.7261
86.5096
70.7046
1.33333
0.00643817
0.00127928
0.000710937
0.000489544
0.00039363
0.000353376
0.000327253
0.000305215
0.000289918
0.000273056
0.000258386
0.000240001
0.000262602
0.000206208
0.000201211
0.000195032
0.000184556
0.000191751
0.000273345
0.00030748
0.000183899
0.00017942
0.000174431
87.9287
87.9279
87.9267
87.9256
87.9245
87.9235
87.9226
87.9218
87.921
87.9203
87.9197
87.9191
87.9186
87.9182
87.9179
87.9177
87.9175
87.9173
87.9168
87.9159
87.9177
87.9305
87.9529
87.9089
87.5851
85.9385
11.5052
0.0445246
0.000825267
0.000600376
0.000470792
0.000393666
0.000357726
0.000322225
0.000292626
0.000271612
0.000248089
0.000225936
0.000202831
0.000190329
0.000176302
0.000169606
0.000162552
0.000152722
0.000141787
0.000140169
0.000152728
0.000144297
0.000140266
0.000129641
89.2992
89.2973
89.2956
89.294
89.2927
89.2915
89.2904
89.2894
89.2886
89.2879
89.2873
89.2869
89.2866
89.2864
89.2864
89.2865
89.2868
89.2872
89.2877
89.2881
89.2888
89.2916
89.2994
89.3041
89.2582
89.0919
47.6283
1.36874
0.0159229
0.000518534
0.000491584
0.000449408
0.000403151
0.000344065
0.000303866
0.000273135
0.000242368
0.000217435
0.000199207
0.000185573
0.000178928
0.000170824
0.000162787
0.000153771
0.000147541
0.000143165
0.000137195
0.000136127
0.000134978
0.000133753
90.4468
90.4441
90.4409
90.438
90.4353
90.4329
90.4308
90.4289
90.4273
90.4258
90.4247
90.4237
90.4231
90.4226
90.4225
90.4226
90.4229
90.4235
90.4243
90.4249
90.4256
90.4288
90.4419
90.4623
90.4206
90.1347
81.4602
17.3347
0.874691
0.0210997
0.000602214
0.000598506
0.000416627
0.000321592
0.000274037
0.000225656
0.000193422
0.000173925
0.000165474
0.000151675
0.000142521
0.000132609
0.000123391
0.000114426
0.000106946
0.000101352
9.72797e-05
9.46567e-05
9.37318e-05
9.39453e-05
91.8066
91.8023
91.798
91.7942
91.7907
91.7874
91.7843
91.7814
91.7788
91.7763
91.774
91.772
91.7702
91.7685
91.7672
91.766
91.7651
91.7644
91.764
91.7637
91.7635
91.7635
91.7663
91.7766
91.787
91.7343
91.4976
70.3714
15.0617
1.32192
0.0593869
0.00151516
0.000529792
0.000419275
0.000384538
0.000297914
0.00027434
0.000252279
0.0002495
0.000221885
0.000209969
0.00019759
0.000184823
0.000172173
0.000161245
0.000152466
0.000146589
0.000142485
0.000140832
0.000141149
92.8107
92.8047
92.7976
92.7912
92.7854
92.7801
92.7754
92.7711
92.7673
92.764
92.7611
92.7588
92.7569
92.7555
92.7547
92.7544
92.7547
92.7555
92.7569
92.7589
92.7614
92.7643
92.7683
92.7768
92.7931
92.7986
92.7105
92.4393
67.1895
18.6191
2.43618
0.172338
0.00467308
0.000521915
0.000469958
0.000293039
0.000302872
0.000247882
0.000242456
0.000196811
0.000185499
0.00017288
0.000155763
0.000139211
0.000124205
0.000111519
0.000104121
9.87716e-05
9.6455e-05
9.70207e-05
94.1915
94.1875
94.1836
94.18
94.1762
94.1721
94.1678
94.1632
94.1583
94.1531
94.1477
94.142
94.136
94.1296
94.123
94.116
94.1087
94.1011
94.0931
94.0847
94.0759
94.0666
94.0566
94.0466
94.039
94.0367
94.0259
93.9396
93.6999
77.2836
27.3399
4.87602
0.464998
0.0388923
0.0013864
0.000489575
0.000624364
0.000406003
0.000380642
0.000323213
0.000317988
0.000306866
0.000284763
0.000264764
0.000245669
0.000230401
0.000222797
0.000217121
0.000214284
0.000214452
94.8115
94.8109
94.8083
94.8047
94.8006
94.7959
94.7906
94.7847
94.7783
94.7712
94.7634
94.755
94.746
94.7363
94.726
94.7149
94.7032
94.6908
94.6777
94.6638
94.6493
94.634
94.618
94.6009
94.5832
94.567
94.5563
94.5429
94.4699
94.2405
86.1512
42.673
10.7415
1.85194
0.161724
0.0108526
0.000529521
0.000571501
0.000477337
0.00030228
0.000311088
0.000297371
0.00026533
0.000238639
0.000211727
0.000194591
0.000186993
0.000180051
0.000175713
0.00017435
96.7668
96.7645
96.7636
96.7629
96.7619
96.7604
96.7585
96.7561
96.7532
96.75
96.7462
96.7421
96.7374
96.7324
96.7269
96.721
96.7146
96.7079
96.7007
96.6932
96.6853
96.677
96.6685
96.6596
96.6503
96.6405
96.6309
96.6243
96.6239
96.6145
96.526
96.2311
73.8111
27.7819
6.0687
0.836049
0.069247
0.00421546
0.000965453
0.000962545
0.00104307
0.000736628
0.000712244
0.000686336
0.000626155
0.000596328
0.000580208
0.000557587
0.000539536
0.000526922
97.0831
97.0955
97.1058
97.1128
97.1174
97.12
97.1207
97.1195
97.1163
97.1112
97.1041
97.0951
97.0841
97.0711
97.0561
97.039
97.0198
96.9985
96.975
96.9492
96.9211
96.8906
96.8576
96.822
96.7838
96.7426
96.6987
96.6521
96.6038
96.5518
96.4838
96.3781
96.1749
92.3435
57.9788
17.9101
4.04062
0.45907
0.0343413
0.0043884
0.00149761
0.000855371
0.000751692
0.000930526
0.000542405
0.0005397
0.000539845
0.000489199
0.000446776
0.000424905
99.6554
99.6644
99.6754
99.6851
99.6928
99.6987
99.7029
99.7056
99.7068
99.7064
99.7045
99.7011
99.6961
99.6897
99.6817
99.6722
99.6611
99.6484
99.634
99.6178
99.5999
99.5801
99.5583
99.5345
99.5084
99.48
99.4492
99.4158
99.3796
99.3404
99.2973
99.2508
99.2045
99.1683
99.0981
94.4904
61.8471
20.4988
4.77039
0.767354
0.127823
0.0287909
0.00662506
0.0023585
0.00134539
0.00118191
0.00156235
0.00129698
0.00119719
0.00114393
100.594
100.593
100.591
100.588
100.585
100.582
100.58
100.579
100.578
100.577
100.576
100.576
100.576
100.577
100.578
100.58
100.582
100.585
100.588
100.592
100.597
100.603
100.609
100.616
100.624
100.633
100.643
100.654
100.666
100.679
100.694
100.71
100.725
100.733
100.735
100.783
100.855
99.7163
78.0649
35.5567
10.7387
3.25666
0.835492
0.223495
0.0226627
0.0132245
0.00250817
0.00126887
7.35763e-05
0.000242485
103.795
103.784
103.775
103.766
103.757
103.747
103.738
103.729
103.721
103.714
103.709
103.706
103.705
103.706
103.71
103.716
103.726
103.738
103.753
103.772
103.794
103.82
103.85
103.883
103.92
103.962
104.007
104.057
104.111
104.17
104.233
104.3
104.373
104.452
104.535
104.611
104.66
104.736
104.821
104.504
94.2746
72.451
34.9586
15.4117
4.86823
1.22739
0.137481
0.120519
0.00912317
0.000412463
103.674
103.699
103.716
103.723
103.724
103.722
103.716
103.709
103.701
103.693
103.685
103.677
103.671
103.666
103.664
103.663
103.665
103.669
103.676
103.686
103.698
103.714
103.733
103.755
103.78
103.809
103.84
103.874
103.911
103.95
103.993
104.037
104.083
104.131
104.181
104.233
104.285
104.332
104.357
104.366
104.378
104.449
103.342
96.4048
79.4791
44.3293
11.0956
3.4472
1.839
0.0201602
109.667
109.227
108.785
108.406
108.076
107.781
107.514
107.274
107.058
106.864
106.691
106.536
106.4
106.281
106.178
106.09
106.017
105.958
105.913
105.882
105.864
105.859
105.868
105.889
105.923
105.969
106.029
106.103
106.189
106.29
106.405
106.535
106.681
106.844
107.026
107.227
107.45
107.698
107.973
108.281
108.623
108.992
109.378
109.752
109.51
108.871
106.206
100.321
85.8067
3.71362
0.000212234
0.00021055
0.000209468
0.0002081
0.000207317
0.000206426
0.000206185
0.000205687
0.00020509
0.000204121
0.000203502
0.000202782
0.00020227
0.000201694
0.00020143
0.000201314
0.000201151
0.000200825
0.000200441
0.000200134
0.000199843
0.000199618
0.000199406
0.00019925
0.000199098
0.000198969
0.000198851
0.00019875
0.000198663
0.000198576
0.000198494
0.000198413
0.000198344
0.000198289
0.000198249
0.000198221
0.000198203
0.000198191
0.000198182
0.000198175
0.00019817
0.000198166
0.000198163
0.000198159
0.000198154
0.000198148
0.000198139
0.000198129
0.000198116
0.000198084
0.000218693
0.000214153
0.000213468
0.000210542
0.000210047
0.000207586
0.000208208
0.000208539
0.000209787
0.000206628
0.000206078
0.000204722
0.000204165
0.000202883
0.000202319
0.000202454
0.000202711
0.000202795
0.000202313
0.000202028
0.000201587
0.000201344
0.000200961
0.000200855
0.000200702
0.000200589
0.000200458
0.000200382
0.000200358
0.000200318
0.000200256
0.000200147
0.00020002
0.000199893
0.00019979
0.000199723
0.000199683
0.000199662
0.000199651
0.000199645
0.000199642
0.000199642
0.000199647
0.000199659
0.000199678
0.000199705
0.000199739
0.000199779
0.000199827
0.000199883
0.000227224
0.000202918
0.000207279
0.000199582
0.000201264
0.000193137
0.000193771
0.000199071
0.000205436
0.000196668
0.000199159
0.000195574
0.000195019
0.000192297
0.000190401
0.000189686
0.000191409
0.000191221
0.000190866
0.000191149
0.000190154
0.000190158
0.000188737
0.000188609
0.000188397
0.000188176
0.000187775
0.000187531
0.000187543
0.000187655
0.000187756
0.000187715
0.000187538
0.000187255
0.000186945
0.000186685
0.000186499
0.000186375
0.000186291
0.000186228
0.000186168
0.000186102
0.000186029
0.000185957
0.000185892
0.000185842
0.000185816
0.00018582
0.000185861
0.000185912
0.000215982
0.000172175
0.000208129
0.000192475
0.000197497
0.000183727
0.00019207
0.000272066
0.000200942
0.0001938
0.000234418
0.000200689
0.000202123
0.000196372
0.000193628
0.000191461
0.000203692
0.000194945
0.0001952
0.000198062
0.000194592
0.000205534
0.000196193
0.000196058
0.000196064
0.000195984
0.000194797
0.000193879
0.000193601
0.000193911
0.000194382
0.000194753
0.000195003
0.000194573
0.000193894
0.000193242
0.000192671
0.00019223
0.000191907
0.000191672
0.000191469
0.000191248
0.000190989
0.000190692
0.000190362
0.000190016
0.000189672
0.000189353
0.0001891
0.000188949
0.000169795
8.48409e-05
0.0001959
0.000161408
0.000179391
0.000158624
0.000165324
0.000185502
0.000172231
0.00016886
0.000257824
9.59905e-05
0.000175338
0.000152241
0.00015409
0.000154664
0.000187866
0.000148654
0.000131319
0.000136493
0.000163458
0.000302205
0.00016238
0.000157018
0.000155515
0.000167658
0.000154065
0.000153442
0.000153843
0.000156274
0.000157214
0.000158188
0.000160557
0.000165234
0.000163715
0.000163163
0.0001628
0.000162742
0.00016276
0.000163152
0.00016356
0.000163913
0.000164159
0.000164283
0.000164255
0.000164105
0.000163843
0.000163511
0.000163169
0.000162847
0.000175592
0.000176288
0.000160991
0.000161437
0.000154074
0.000153459
0.000151907
0.000150079
0.000150749
0.000151257
0.000146971
0.000152946
0.000154423
0.000151118
0.00014347
0.000139852
0.000138418
0.000145174
0.000154944
0.000254679
0.000184413
0.000184642
0.000197093
0.000180656
0.000178721
0.000269195
0.000167177
0.000166673
0.000166846
0.000166327
0.000166023
0.000166345
0.000166436
0.000255803
0.000175951
0.000179115
0.000174947
0.000178034
0.000174892
0.00017207
0.000172378
0.000172374
0.000172071
0.000172019
0.000171691
0.000171331
0.000170724
0.000170013
0.00016922
0.000168466
0.00012538
0.000123975
0.000123
0.000122387
0.000121702
0.000120944
0.000119734
0.000118369
0.00011705
0.000115848
0.000114647
0.000113665
0.000112819
0.000112063
0.000111471
0.000110932
0.000110797
0.000113629
0.000111829
0.000112491
0.000110422
0.000109532
0.00010983
0.000109513
0.000109632
0.00010937
0.00010823
0.000108253
0.000108498
0.00010848
0.000108808
0.000108567
0.000203756
0.000129384
0.000129485
0.000129583
0.000129691
0.000129486
0.0001311
0.000134398
0.000132059
0.000136794
0.000133936
0.000135011
0.000133911
0.00013436
0.000133318
0.000132955
0.000132184
0.000131491
0.000133215
0.000132786
0.000132164
0.000131583
0.000131063
0.000130497
0.000129898
0.000129284
0.000128665
0.000128015
0.000127355
0.000126679
0.00012606
0.000125455
0.000124963
0.000125066
0.000124316
0.00012373
0.000123395
0.000123253
0.000123145
0.000123053
0.000123095
0.000124655
0.000123813
0.00012339
0.000132383
0.000126594
0.000125058
0.00012391
0.000125056
0.000125656
0.000127605
0.000128102
0.000128826
0.000129279
0.000130583
0.000133013
0.000133182
0.000228826
0.000144135
0.000153594
0.00014484
0.000152537
0.000143385
0.000150038
0.000142772
0.000144672
0.000143053
0.000143207
9.45653e-05
9.51943e-05
9.57648e-05
9.62543e-05
9.66379e-05
9.69977e-05
9.73161e-05
9.75928e-05
9.78432e-05
9.8079e-05
9.83051e-05
9.85308e-05
9.87717e-05
9.89973e-05
9.91497e-05
9.93647e-05
9.9626e-05
9.9905e-05
0.000100218
0.000100611
0.000101082
0.000101653
0.000102975
0.000109678
0.000109049
0.000106341
0.000137555
0.000103838
9.50355e-05
9.41916e-05
9.84292e-05
9.80161e-05
0.000150878
0.000101708
9.53674e-05
0.000106378
0.000162013
9.40269e-05
9.33807e-05
9.69567e-05
0.000101483
9.7953e-05
0.00010054
0.000100014
0.000101707
0.000101542
0.00010289
0.000103289
0.000104115
0.000104976
0.000142061
0.000142916
0.000143811
0.000144849
0.000145626
0.000146361
0.000147079
0.000147739
0.000148338
0.000148882
0.000149377
0.000149834
0.000150259
0.000150653
0.000151007
0.000151313
0.000151577
0.000151827
0.000152107
0.000152425
0.000152713
0.000153037
0.000154744
0.00015828
0.000153235
0.000152805
0.000153973
0.000153308
0.00015367
0.000154911
0.000156751
0.000163051
0.000155648
0.000151913
0.00015226
0.000152641
0.000152979
0.000153528
0.00015355
0.000153676
0.000153749
0.000153956
0.000154275
0.000154715
0.000155253
0.000155874
0.000156559
0.000157281
0.000158042
0.000158924
9.87443e-05
0.000100371
0.000102111
0.000104256
0.000106281
0.000108143
0.000109929
0.00011163
0.000113241
0.000114765
0.000116208
0.000117576
0.000118872
0.000120091
0.00012122
0.000122256
0.000123211
0.000124113
0.000125002
0.000125884
0.000126549
0.000126936
0.000127393
0.00012788
0.00012845
0.000128678
0.000128905
0.000129086
0.000129268
0.000129484
0.000129675
0.000129867
0.000130189
0.000130477
0.000130703
0.000130981
0.000131277
0.000131581
0.000131917
0.00013229
0.000132696
0.00013313
0.000133592
0.000134083
0.000134599
0.000135139
0.000135706
0.000136302
0.00013691
0.000137451
0.000215943
0.000217335
0.000219021
0.000221278
0.00022351
0.000225484
0.000227232
0.000228798
0.000230196
0.000231434
0.000232524
0.000233473
0.000234289
0.000234972
0.000235523
0.000235943
0.000236244
0.000236441
0.000236548
0.000236573
0.000236523
0.000236403
0.000236213
0.000235954
0.000235631
0.000235258
0.000234835
0.000234365
0.000233852
0.000233302
0.000232729
0.000232148
0.000231553
0.000230958
0.000230358
0.000229749
0.000229133
0.000228515
0.000227898
0.000227288
0.000226686
0.000226096
0.000225519
0.000224957
0.000224412
0.000223884
0.00022337
0.000222868
0.0002224
0.000222067
0.000174299
0.000174791
0.000176216
0.00017843
0.000180693
0.000182703
0.00018447
0.000186031
0.000187404
0.000188603
0.000189638
0.000190522
0.000191265
0.000191879
0.000192373
0.000192756
0.000193035
0.000193219
0.000193314
0.000193329
0.000193269
0.00019314
0.000192949
0.000192699
0.000192397
0.000192048
0.000191657
0.000191229
0.00019077
0.000190283
0.000189773
0.000189245
0.000188704
0.000188154
0.000187598
0.000187041
0.000186485
0.000185934
0.000185391
0.000184858
0.000184338
0.000183834
0.000183347
0.000182878
0.000182429
0.000182002
0.000181602
0.000181239
0.000180893
0.000180423
0.000515833
0.000506799
0.000499995
0.00049433
0.000488952
0.000483473
0.000477888
0.000472239
0.00046655
0.000460843
0.000455133
0.000449439
0.000443776
0.000438157
0.000432596
0.000427104
0.00042169
0.00041636
0.000411123
0.000405981
0.000400938
0.000395996
0.000391158
0.000386423
0.000381792
0.000377263
0.000372837
0.000368512
0.000364288
0.000360162
0.000356134
0.000352202
0.000348366
0.000344623
0.000340973
0.000337415
0.000333947
0.000330569
0.000327279
0.000324076
0.000320959
0.000317928
0.00031498
0.000312116
0.000309334
0.000306632
0.000304002
0.000301442
0.000298985
0.00029676
0.000401701
0.000384479
0.000373781
0.000364971
0.000357325
0.000349992
0.000342884
0.000336005
0.000329342
0.000322886
0.000316627
0.000310561
0.000304684
0.000298995
0.000293494
0.000288183
0.000283063
0.000278134
0.000273397
0.000268851
0.000264495
0.000260328
0.000256348
0.00025255
0.000248932
0.000245489
0.000242215
0.000239107
0.000236159
0.000233364
0.000230718
0.000228214
0.000225847
0.000223612
0.000221502
0.000219512
0.000217638
0.000215873
0.000214213
0.000212654
0.000211189
0.000209815
0.000208527
0.000207321
0.000206193
0.000205137
0.000204161
0.000203274
0.000202445
0.000201457
0.00105761
0.000989242
0.000943399
0.000902039
0.00086743
0.0008354
0.00080557
0.000777739
0.0007517
0.000727295
0.000704387
0.000682853
0.000662585
0.000643489
0.000625481
0.000608485
0.000592432
0.000577261
0.000562913
0.000549334
0.000536475
0.000524289
0.000512732
0.000501765
0.000491347
0.000481445
0.000472024
0.000463054
0.000454505
0.000446349
0.000438564
0.000431124
0.000424009
0.000417198
0.000410674
0.00040442
0.00039842
0.00039266
0.000387128
0.000381811
0.000376698
0.00037178
0.000367047
0.000362491
0.000358104
0.000353877
0.000349797
0.000345853
0.000342087
0.00033866
0.000134678
0.000128384
0.000119292
9.94933e-05
9.46621e-05
9.17867e-05
9.00175e-05
8.90503e-05
8.86951e-05
8.88643e-05
8.94955e-05
9.05284e-05
9.19062e-05
9.35782e-05
9.54998e-05
9.76319e-05
9.99391e-05
0.00010239
0.000104957
0.000107615
0.000110341
0.000113115
0.00011592
0.00011874
0.00012156
0.000124369
0.000127156
0.000129912
0.000132628
0.000135298
0.000137915
0.000140475
0.000142974
0.000145409
0.000147777
0.000150076
0.000152305
0.000154464
0.000156551
0.000158567
0.000160513
0.000162388
0.000164193
0.00016593
0.000167599
0.000169202
0.00017075
0.000172261
0.000173701
0.000174821
0.000477012
0.000405708
0.000453342
0.000333169
0.000341932
0.000347235
0.000350894
0.000354023
0.000356708
0.000358932
0.000360711
0.000362091
0.000363128
0.000363867
0.000364338
0.000364562
0.000364557
0.000364339
0.000363923
0.00036332
0.000362544
0.000361605
0.000360517
0.000359289
0.000357934
0.000356462
0.000354884
0.00035321
0.000351451
0.000349615
0.000347713
0.000345754
0.000343745
0.000341694
0.00033961
0.000337498
0.000335366
0.00033322
0.000331065
0.000328906
0.000326748
0.000324595
0.000322452
0.000320322
0.000318209
0.000316114
0.000314032
0.000311961
0.000309948
0.000308172
0.0109779
0.000993388
0.000955367
-0.000503841
-0.000485079
-0.000444196
-0.000415557
-0.000388124
-0.000359586
-0.000330411
-0.000301179
-0.000272398
-0.000244488
-0.000217732
-0.000192247
-0.000168051
-0.000145134
-0.000123477
-0.000103046
-8.38006e-05
-6.56929e-05
-4.86711e-05
-3.26813e-05
-1.76689e-05
-3.57902e-06
9.64177e-06
2.20456e-05
3.36824e-05
4.46001e-05
5.48441e-05
6.4457e-05
7.34794e-05
8.1949e-05
8.99015e-05
9.73698e-05
0.000104385
0.000110976
0.000117169
0.00012299
0.000128461
0.000133604
0.000138439
0.000142986
0.00014726
0.000151278
0.000155056
0.000158614
0.000161977
0.000165124
0.000167889
0.505786
0.222283
0.0453573
0.00343805
0.00117132
0.00101152
0.00085557
0.000742771
0.000657693
0.000591625
0.000540515
0.000501185
0.000470531
0.000445901
0.000425366
0.000407676
0.000392163
0.000378511
0.000366477
0.000355841
0.000346415
0.000338039
0.000330578
0.000323915
0.000317949
0.000312596
0.00030778
0.000303438
0.000299513
0.000295956
0.000292724
0.00028978
0.00028709
0.000284625
0.00028236
0.000280271
0.00027834
0.000276546
0.000274876
0.000273315
0.00027185
0.00027047
0.000269165
0.000267926
0.000266746
0.000265616
0.000264529
0.000263475
0.000262462
0.000261547
0.000198012
0.000197946
0.000197875
0.000197806
0.000197736
0.000197666
0.000197594
0.000197521
0.000197447
0.00019737
0.000197293
0.000197214
0.000197133
0.00019705
0.000196966
0.00019688
0.000196793
0.000196703
0.000196612
0.000196519
0.000196425
0.000196329
0.000196231
0.000196131
0.00019603
0.000195927
0.000195822
0.000195715
0.000195607
0.000195498
0.000195386
0.000195273
0.000195159
0.000195043
0.000194925
0.000194806
0.000194685
0.000194563
0.000194439
0.000194314
0.000194187
0.000194059
0.00019393
0.000193799
0.000193667
0.000193534
0.000193399
0.000193263
0.000193126
0.000192988
0.000192848
0.000192708
0.000192566
0.000192423
0.000192279
0.000192133
0.000191987
0.00019184
0.000191691
0.000191541
0.000191391
0.000191239
0.000191087
0.000190933
0.000190778
0.000190623
0.000190466
0.000190309
0.00019015
0.000189991
0.00018983
0.000189669
0.000189507
0.000189343
0.000189179
0.000189014
0.000188848
0.000188681
0.000188513
0.000188344
0.000188174
0.000188003
0.000187831
0.000187658
0.000187484
0.000187309
0.000187133
0.000186956
0.000186777
0.000186598
0.000186418
0.000186237
0.000186054
0.00018587
0.000185686
0.0001855
0.000185313
0.000185125
0.000184935
0.000184744
0.000184552
0.000184359
0.000184165
0.000183969
0.000183772
0.000183574
0.000183374
0.000183173
0.000182971
0.000182767
0.000182562
0.000182355
0.000182147
0.000181937
0.000181726
0.000181514
0.000181299
0.000181084
0.000180867
0.000180648
0.000180427
0.000180206
0.000179982
0.000179757
0.00017953
0.000179301
0.000179071
0.000178839
0.000178606
0.00017837
0.000178133
0.000177894
0.000177654
0.000177411
0.000177167
0.000176921
0.000176673
0.000176424
0.000176172
0.000175919
0.000175664
0.000175407
0.000175148
0.000174887
0.000174625
0.00017436
0.000174094
0.000173826
0.000173555
0.000173283
0.000173009
0.000172733
0.000172456
0.000172176
0.000171894
0.00017161
0.000171325
0.000171037
0.000170748
0.000170456
0.000170163
0.000169868
0.00016957
0.000169271
0.00016897
0.000168667
0.000168362
0.000168055
0.000167746
0.000167435
0.000167122
0.000166808
0.000166491
0.000166173
0.000165852
0.00016553
0.000165206
0.000164879
0.000164551
0.000164221
0.00016389
0.000163556
0.00016322
0.000162883
0.000162544
0.000162203
0.00016186
0.000161515
0.000161169
0.00016082
0.00016047
0.000160118
0.000159764
0.000159409
0.000159052
0.000158693
0.000158332
0.000157969
0.000157605
0.000157239
0.000156871
0.000156502
0.000156131
0.000155758
0.000155384
0.000155008
0.00015463
0.000154251
0.00015387
0.000153487
0.000153103
0.000152718
0.00015233
0.000151941
0.000151551
0.000151159
0.000150765
0.00015037
0.000149974
0.000149576
0.000149176
0.000148775
0.000148372
0.000147968
0.000147563
0.000147156
0.000146747
0.000146337
0.000145926
0.000145513
0.000145099
0.000144684
0.000144267
0.000143848
0.000143429
0.000143007
0.000142585
0.000142161
0.000141736
0.000141309
0.000140881
0.000140452
0.000140021
0.000139589
0.000139156
0.000138721
0.000138285
0.000137848
0.00013741
0.00013697
0.000136528
0.000136086
0.000135642
0.000135197
0.000134751
0.000134303
0.000133854
0.000133403
0.000132952
0.000132499
0.000132045
0.000131589
0.000131132
0.000130674
0.000130215
0.000129754
0.000129292
0.000128829
0.000128364
0.000127899
0.000127431
0.000126963
0.000126493
0.000126022
0.000125549
0.000125075
0.0001246
0.000124124
0.000123646
0.000123167
0.000122686
0.000122204
0.000121721
0.000121236
0.00012075
0.000120262
0.000119773
0.000119283
0.000118791
0.000118297
0.000117802
0.000117306
0.000116808
0.000116308
0.000115807
0.000115304
0.000114799
0.000114291
0.000113783
0.000113286
0.000199918
0.000199902
0.000199865
0.000199827
0.00019979
0.000199753
0.000199714
0.000199672
0.000199629
0.000199584
0.000199537
0.000199487
0.000199435
0.00019938
0.000199323
0.000199263
0.000199201
0.000199135
0.000199068
0.000198997
0.000198924
0.000198848
0.00019877
0.000198689
0.000198605
0.000198519
0.00019843
0.000198339
0.000198245
0.000198149
0.000198051
0.00019795
0.000197847
0.000197741
0.000197633
0.000197523
0.000197411
0.000197297
0.00019718
0.000197061
0.000196941
0.000196818
0.000196693
0.000196566
0.000196437
0.000196307
0.000196174
0.00019604
0.000195904
0.000195766
0.000195626
0.000195485
0.000195342
0.000195197
0.00019505
0.000194902
0.000194752
0.000194601
0.000194448
0.000194294
0.000194138
0.00019398
0.000193821
0.00019366
0.000193498
0.000193335
0.00019317
0.000193004
0.000192836
0.000192666
0.000192496
0.000192324
0.00019215
0.000191975
0.000191799
0.000191621
0.000191442
0.000191262
0.00019108
0.000190897
0.000190712
0.000190526
0.000190338
0.00019015
0.000189959
0.000189768
0.000189575
0.00018938
0.000189184
0.000188987
0.000188788
0.000188588
0.000188386
0.000188183
0.000187979
0.000187773
0.000187565
0.000187356
0.000187146
0.000186934
0.000186721
0.000186506
0.00018629
0.000186072
0.000185853
0.000185632
0.000185409
0.000185185
0.00018496
0.000184733
0.000184505
0.000184274
0.000184043
0.00018381
0.000183575
0.000183339
0.000183101
0.000182861
0.00018262
0.000182378
0.000182134
0.000181888
0.00018164
0.000181392
0.000181141
0.000180889
0.000180635
0.00018038
0.000180123
0.000179864
0.000179604
0.000179342
0.000179079
0.000178814
0.000178547
0.000178279
0.000178009
0.000177738
0.000177465
0.00017719
0.000176914
0.000176636
0.000176357
0.000176076
0.000175793
0.000175508
0.000175223
0.000174935
0.000174646
0.000174355
0.000174063
0.000173769
0.000173473
0.000173176
0.000172877
0.000172577
0.000172275
0.000171971
0.000171666
0.000171359
0.000171051
0.000170741
0.000170429
0.000170116
0.000169801
0.000169485
0.000169167
0.000168847
0.000168526
0.000168203
0.000167879
0.000167553
0.000167226
0.000166897
0.000166566
0.000166234
0.000165901
0.000165565
0.000165229
0.00016489
0.00016455
0.000164209
0.000163866
0.000163521
0.000163175
0.000162828
0.000162478
0.000162128
0.000161775
0.000161422
0.000161066
0.000160709
0.000160351
0.000159991
0.00015963
0.000159267
0.000158902
0.000158536
0.000158169
0.000157799
0.000157429
0.000157057
0.000156683
0.000156308
0.000155932
0.000155554
0.000155174
0.000154793
0.00015441
0.000154026
0.000153641
0.000153254
0.000152866
0.000152476
0.000152084
0.000151691
0.000151297
0.000150901
0.000150504
0.000150105
0.000149705
0.000149303
0.0001489
0.000148496
0.00014809
0.000147682
0.000147274
0.000146863
0.000146452
0.000146038
0.000145624
0.000145208
0.000144791
0.000144372
0.000143951
0.00014353
0.000143107
0.000142682
0.000142257
0.000141829
0.000141401
0.000140971
0.000140539
0.000140106
0.000139672
0.000139237
0.0001388
0.000138361
0.000137921
0.00013748
0.000137038
0.000136594
0.000136149
0.000135702
0.000135254
0.000134805
0.000134354
0.000133902
0.000133448
0.000132994
0.000132537
0.00013208
0.000131621
0.00013116
0.000130698
0.000130235
0.000129771
0.000129305
0.000128838
0.000128369
0.000127899
0.000127427
0.000126954
0.00012648
0.000126004
0.000125527
0.000125049
0.000124569
0.000124087
0.000123604
0.00012312
0.000122634
0.000122147
0.000121658
0.000121167
0.000120676
0.000120182
0.000119687
0.000119191
0.000118693
0.000118193
0.000117692
0.000117189
0.000116684
0.000116178
0.00011567
0.00011516
0.000114647
0.000114133
0.00011363
0.000185915
0.000185895
0.000185898
0.000185918
0.000185943
0.000185971
0.000186
0.000186029
0.000186057
0.000186085
0.000186113
0.000186139
0.000186164
0.000186187
0.00018621
0.00018623
0.000186249
0.000186266
0.000186281
0.000186294
0.000186304
0.000186313
0.00018632
0.000186324
0.000186326
0.000186327
0.000186325
0.000186321
0.000186315
0.000186307
0.000186297
0.000186286
0.000186272
0.000186257
0.00018624
0.00018622
0.0001862
0.000186177
0.000186153
0.000186127
0.000186099
0.00018607
0.000186039
0.000186006
0.000185972
0.000185936
0.000185899
0.00018586
0.00018582
0.000185778
0.000185735
0.000185691
0.000185645
0.000185598
0.000185549
0.000185499
0.000185447
0.000185395
0.000185341
0.000185285
0.000185228
0.00018517
0.000185111
0.00018505
0.000184988
0.000184924
0.000184859
0.000184793
0.000184725
0.000184656
0.000184586
0.000184515
0.000184441
0.000184367
0.000184291
0.000184214
0.000184135
0.000184055
0.000183973
0.00018389
0.000183805
0.000183719
0.000183631
0.000183541
0.00018345