/*--------------------------------*- C++ -*----------------------------------*\
| =========                 |                                                 |
| \\      /  F ield         | OpenFOAM: The Open Source CFD Toolbox           |
|  \\    /   O peration     | Version:  2.4.0                                 |
|   \\  /    A nd           | Web:      www.OpenFOAM.org                      |
|    \\/     M anipulation  |                                                 |
\*---------------------------------------------------------------------------*/
FoamFile
{
    version     2.0;
    format      ascii;
    class       volVectorField;
    location    "0.6";
    object      U;
}
// * * * * * * * * * * * * * * * * * * * * * * * * * * * * * * * * * * * * * //

dimensions      [0 1 -1 0 0 0 0];

internalField   nonuniform List<vector> 
8000
(
(-1.03419e-08 -0.000181799 0)
(-1.58359e-07 -0.000531522 0)
(-4.87998e-07 -0.000867353 0)
(-1.0081e-06 -0.00118927 0)
(-1.72134e-06 -0.00149727 0)
(-2.63177e-06 -0.00179132 0)
(-3.74217e-06 -0.0020714 0)
(-5.05666e-06 -0.00233751 0)
(-6.57615e-06 -0.00258963 0)
(-8.30394e-06 -0.00282774 0)
(-1.02392e-05 -0.00305183 0)
(-1.23854e-05 -0.00326188 0)
(-1.47403e-05 -0.00345789 0)
(-1.73082e-05 -0.00363983 0)
(-2.00855e-05 -0.00380769 0)
(-2.30779e-05 -0.00396147 0)
(-2.62799e-05 -0.00410114 0)
(-2.97039e-05 -0.00422671 0)
(-3.33566e-05 -0.00433815 0)
(-3.72651e-05 -0.00443546 0)
(-4.13453e-05 -0.00451863 0)
(-4.52864e-05 -0.00458765 0)
(-4.87456e-05 -0.0046425 0)
(-5.37629e-05 -0.00468319 0)
(-6.82629e-05 -0.00470978 0)
(-0.000103733 -0.00472456 0)
(-0.000159929 -0.00472736 0)
(-0.000222563 -0.00473006 0)
(-0.000261921 -0.00473364 0)
(-0.000216467 -0.00473687 0)
(-0.000210945 -0.00473994 0)
(-0.000218038 -0.00474314 0)
(-0.000225936 -0.00474666 0)
(-0.000232425 -0.0047506 0)
(-0.00023835 -0.00475495 0)
(-0.000244202 -0.00475953 0)
(-0.00025005 -0.00476403 0)
(-0.000255868 -0.00476797 0)
(-0.000261647 -0.00477105 0)
(-0.000267369 -0.00477351 0)
(-0.000272981 -0.00477573 0)
(-0.000278435 -0.00477755 0)
(-0.00028371 -0.00477871 0)
(-0.000288816 -0.00477911 0)
(-0.000293795 -0.00477865 0)
(-0.000298673 -0.00477803 0)
(-0.000303423 -0.00477731 0)
(-0.000307995 -0.00477647 0)
(-0.000312344 -0.00477517 0)
(-0.000316476 -0.00477253 0)
(-1.67687e-08 -0.000181096 0)
(-1.76017e-07 -0.000529265 0)
(-5.08555e-07 -0.000863414 0)
(-1.01563e-06 -0.00118354 0)
(-1.6952e-06 -0.00148965 0)
(-2.54765e-06 -0.00178175 0)
(-3.57321e-06 -0.00205981 0)
(-4.77338e-06 -0.00232385 0)
(-6.14743e-06 -0.00257385 0)
(-7.69651e-06 -0.0028098 0)
(-9.41875e-06 -0.00303171 0)
(-1.13154e-05 -0.00323955 0)
(-1.33833e-05 -0.00343331 0)
(-1.56243e-05 -0.003613 0)
(-1.80335e-05 -0.00377858 0)
(-2.06128e-05 -0.00393005 0)
(-2.33556e-05 -0.00406738 0)
(-2.62691e-05 -0.00419057 0)
(-2.93578e-05 -0.00429959 0)
(-3.2637e-05 -0.00439441 0)
(-3.60055e-05 -0.00447503 0)
(-3.91364e-05 -0.0045414 0)
(-4.17755e-05 -0.0045935 0)
(-4.62996e-05 -0.0046313 0)
(-6.05554e-05 -0.00465481 0)
(-9.47899e-05 -0.00466654 0)
(-0.00015156 -0.00466754 0)
(-0.000218813 -0.00466916 0)
(-0.000245234 -0.00467186 0)
(-0.000198349 -0.004675 0)
(-0.000193247 -0.00467833 0)
(-0.000197992 -0.00468227 0)
(-0.000202274 -0.004687 0)
(-0.000204682 -0.00469249 0)
(-0.000206204 -0.00469859 0)
(-0.000207318 -0.004705 0)
(-0.000208098 -0.0047112 0)
(-0.000208538 -0.00471667 0)
(-0.000208641 -0.00472127 0)
(-0.000208397 -0.00472581 0)
(-0.000207774 -0.00473086 0)
(-0.000206762 -0.00473581 0)
(-0.000205365 -0.00474014 0)
(-0.000203598 -0.00474349 0)
(-0.000201556 -0.00474468 0)
(-0.000199372 -0.00474554 0)
(-0.000197132 -0.00474658 0)
(-0.000194839 -0.00474841 0)
(-0.000192451 -0.00475009 0)
(-0.000189937 -0.00475037 0)
(-1.99913e-08 -0.000179749 0)
(-2.13903e-07 -0.000525306 0)
(-6.09333e-07 -0.000856916 0)
(-1.20078e-06 -0.00117457 0)
(-1.97783e-06 -0.00147826 0)
(-2.93345e-06 -0.00176798 0)
(-4.06184e-06 -0.00204372 0)
(-5.35871e-06 -0.00230547 0)
(-6.81863e-06 -0.00255323 0)
(-8.43768e-06 -0.00278699 0)
(-1.02101e-05 -0.00300674 0)
(-1.21324e-05 -0.00321247 0)
(-1.41983e-05 -0.00340417 0)
(-1.64044e-05 -0.00358184 0)
(-1.87433e-05 -0.00374547 0)
(-2.12116e-05 -0.00389505 0)
(-2.37998e-05 -0.00403058 0)
(-2.65092e-05 -0.00415204 0)
(-2.93419e-05 -0.00425944 0)
(-3.23041e-05 -0.00435276 0)
(-3.52872e-05 -0.004432 0)
(-3.79495e-05 -0.00449716 0)
(-4.00663e-05 -0.00454824 0)
(-4.41445e-05 -0.00458523 0)
(-5.80921e-05 -0.0046081 0)
(-9.17042e-05 -0.00461918 0)
(-0.000148767 -0.00462066 0)
(-0.000219694 -0.00462341 0)
(-0.000234923 -0.00463336 0)
(-0.000189097 -0.0046468 0)
(-0.000182426 -0.00466083 0)
(-0.000183779 -0.00467539 0)
(-0.000183569 -0.00469034 0)
(-0.000180846 -0.00470552 0)
(-0.000176663 -0.00472064 0)
(-0.000171499 -0.00473536 0)
(-0.00016544 -0.00474921 0)
(-0.000158477 -0.00476197 0)
(-0.000150607 -0.00477362 0)
(-0.000141859 -0.00478522 0)
(-0.000132272 -0.00479721 0)
(-0.000121917 -0.0048086 0)
(-0.000110905 -0.00481888 0)
(-9.9358e-05 -0.00482764 0)
(-8.74376e-05 -0.00483299 0)
(-7.52891e-05 -0.00483679 0)
(-6.33671e-05 -0.00483542 0)
(-5.1846e-05 -0.00483673 0)
(-4.05189e-05 -0.00483706 0)
(-2.9407e-05 -0.00483537 0)
(-1.07971e-08 -0.000178485 0)
(-1.02359e-07 -0.000521629 0)
(-2.94681e-07 -0.000850931 0)
(-5.89299e-07 -0.00116637 0)
(-9.86215e-07 -0.00146795 0)
(-1.48572e-06 -0.00175564 0)
(-2.0873e-06 -0.00202943 0)
(-2.78997e-06 -0.00228932 0)
(-3.5913e-06 -0.0025353 0)
(-4.48876e-06 -0.00276735 0)
(-5.47849e-06 -0.00298547 0)
(-6.557e-06 -0.00318964 0)
(-7.71946e-06 -0.00337987 0)
(-8.96188e-06 -0.00355615 0)
(-1.02787e-05 -0.00371846 0)
(-1.16653e-05 -0.0038668 0)
(-1.31155e-05 -0.00400116 0)
(-1.46283e-05 -0.00412154 0)
(-1.62097e-05 -0.00422792 0)
(-1.7869e-05 -0.00432031 0)
(-1.95331e-05 -0.0043987 0)
(-2.09028e-05 -0.00446308 0)
(-2.16648e-05 -0.00451346 0)
(-2.36552e-05 -0.00454981 0)
(-3.37106e-05 -0.00457207 0)
(-6.44432e-05 -0.00458242 0)
(-0.000121937 -0.00458344 0)
(-0.000193388 -0.00458672 0)
(-0.000204213 -0.0046117 0)
(-0.000158596 -0.00464565 0)
(-0.000151747 -0.00468049 0)
(-0.000152183 -0.00471502 0)
(-0.000150635 -0.00474894 0)
(-0.000146342 -0.00478207 0)
(-0.000140303 -0.00481422 0)
(-0.000132917 -0.0048452 0)
(-0.000124197 -0.00487486 0)
(-0.000114093 -0.00490327 0)
(-0.000102579 -0.00493017 0)
(-8.97057e-05 -0.0049562 0)
(-7.55355e-05 -0.00498134 0)
(-6.01329e-05 -0.00500427 0)
(-4.35135e-05 -0.00502427 0)
(-2.55107e-05 -0.0050404 0)
(-6.2796e-06 -0.00504541 0)
(1.39169e-05 -0.00504425 0)
(3.50825e-05 -0.00503297 0)
(5.74728e-05 -0.00503066 0)
(8.1101e-05 -0.00502675 0)
(0.000105638 -0.00502003 0)
(-6.21691e-09 -0.000178664 0)
(-1.49775e-07 -0.000521895 0)
(-4.61403e-07 -0.000851064 0)
(-9.38196e-07 -0.00116621 0)
(-1.56824e-06 -0.00146735 0)
(-2.33986e-06 -0.00175451 0)
(-3.24365e-06 -0.00202771 0)
(-4.26955e-06 -0.00228697 0)
(-5.40867e-06 -0.00253229 0)
(-6.65056e-06 -0.00276369 0)
(-7.98658e-06 -0.00298117 0)
(-9.40598e-06 -0.00318474 0)
(-1.09007e-05 -0.00337438 0)
(-1.24597e-05 -0.00355012 0)
(-1.40756e-05 -0.00371193 0)
(-1.57366e-05 -0.00385981 0)
(-1.74361e-05 -0.00399375 0)
(-1.9165e-05 -0.00411374 0)
(-2.09316e-05 -0.00421978 0)
(-2.27407e-05 -0.00431183 0)
(-2.45301e-05 -0.00438989 0)
(-2.59714e-05 -0.00445393 0)
(-2.66502e-05 -0.00450393 0)
(-2.81922e-05 -0.00453984 0)
(-3.81099e-05 -0.00456156 0)
(-7.04578e-05 -0.004571 0)
(-0.000127372 -0.00457099 0)
(-0.00019955 -0.00457263 0)
(-0.000215428 -0.00459906 0)
(-0.000167905 -0.00463907 0)
(-0.00016173 -0.00468415 0)
(-0.000163538 -0.00473187 0)
(-0.000163372 -0.00478098 0)
(-0.000160224 -0.00483061 0)
(-0.000155031 -0.00488017 0)
(-0.000148118 -0.00492927 0)
(-0.000139432 -0.00497763 0)
(-0.00012888 -0.00502508 0)
(-0.000116388 -0.00507113 0)
(-0.000102009 -0.00511564 0)
(-8.57445e-05 -0.00515866 0)
(-6.76003e-05 -0.00519969 0)
(-4.77403e-05 -0.00523846 0)
(-2.63896e-05 -0.005275 0)
(-2.63939e-06 -0.00531539 0)
(2.47188e-05 -0.0053501 0)
(5.68963e-05 -0.00539214 0)
(9.32759e-05 -0.00542148 0)
(0.000132047 -0.00544679 0)
(0.000173211 -0.00546833 0)
(-4.71891e-08 -0.000176171 0)
(-3.27813e-07 -0.000514932 0)
(-8.42598e-07 -0.00084009 0)
(-1.56296e-06 -0.00115163 0)
(-2.46249e-06 -0.00144954 0)
(-3.52005e-06 -0.0017338 0)
(-4.71693e-06 -0.00200441 0)
(-6.03426e-06 -0.00226136 0)
(-7.45321e-06 -0.00250463 0)
(-8.95417e-06 -0.00273422 0)
(-1.05179e-05 -0.00295012 0)
(-1.21239e-05 -0.00315231 0)
(-1.37525e-05 -0.00334079 0)
(-1.53814e-05 -0.00351555 0)
(-1.69902e-05 -0.00367657 0)
(-1.85538e-05 -0.00382385 0)
(-2.00499e-05 -0.00395736 0)
(-2.14526e-05 -0.00407708 0)
(-2.27543e-05 -0.00418301 0)
(-2.39497e-05 -0.00427511 0)
(-2.4969e-05 -0.00435337 0)
(-2.5407e-05 -0.00441776 0)
(-2.457e-05 -0.00446822 0)
(-2.36443e-05 -0.00450469 0)
(-3.17988e-05 -0.00452706 0)
(-6.65177e-05 -0.00453657 0)
(-0.000123274 -0.00453738 0)
(-0.000180729 -0.00453742 0)
(-0.000214688 -0.00456856 0)
(-0.000155937 -0.00462296 0)
(-0.000144615 -0.00468578 0)
(-0.000140511 -0.00475382 0)
(-0.000133599 -0.00482524 0)
(-0.000122742 -0.00489886 0)
(-0.000108991 -0.00497401 0)
(-9.27476e-05 -0.00505006 0)
(-7.40166e-05 -0.00512644 0)
(-5.27561e-05 -0.00520262 0)
(-2.88963e-05 -0.00527807 0)
(-2.59637e-06 -0.00535203 0)
(2.61821e-05 -0.00542433 0)
(5.7449e-05 -0.00549486 0)
(9.09905e-05 -0.00556333 0)
(0.000127092 -0.00563025 0)
(0.000164913 -0.00570849 0)
(0.000203823 -0.00578364 0)
(0.00024369 -0.00588269 0)
(0.000285243 -0.00595733 0)
(0.000329444 -0.00602467 0)
(0.000375577 -0.00608067 0)
(1.04627e-08 -0.000175556 0)
(-8.18388e-08 -0.000513094 0)
(-3.16706e-07 -0.000837078 0)
(-6.95629e-07 -0.00114753 0)
(-1.20517e-06 -0.00144446 0)
(-1.82711e-06 -0.00172789 0)
(-2.54662e-06 -0.00199784 0)
(-3.34386e-06 -0.00225433 0)
(-4.20331e-06 -0.00249736 0)
(-5.10163e-06 -0.00272696 0)
(-6.02252e-06 -0.00294313 0)
(-6.93898e-06 -0.00314589 0)
(-7.83465e-06 -0.00333527 0)
(-8.67852e-06 -0.00351126 0)
(-9.45482e-06 -0.00367389 0)
(-1.01269e-05 -0.00382317 0)
(-1.06789e-05 -0.00395912 0)
(-1.10709e-05 -0.00408175 0)
(-1.13125e-05 -0.00419109 0)
(-1.1399e-05 -0.00428715 0)
(-1.12763e-05 -0.00436996 0)
(-1.03595e-05 -0.00443955 0)
(-7.53283e-06 -0.00449596 0)
(-3.95233e-06 -0.00453926 0)
(-1.34236e-05 -0.0045694 0)
(-6.21283e-05 -0.00458595 0)
(-0.000134312 -0.00459009 0)
(-0.000178945 -0.00459186 0)
(-0.000208146 -0.00460874 0)
(-0.000165148 -0.00470726 0)
(-0.000153409 -0.00481025 0)
(-0.000149516 -0.00491679 0)
(-0.000143918 -0.0050255 0)
(-0.000134716 -0.00513599 0)
(-0.000122544 -0.00524778 0)
(-0.000107817 -0.00536 0)
(-9.06284e-05 -0.00547189 0)
(-7.10016e-05 -0.00558272 0)
(-4.8989e-05 -0.00569181 0)
(-2.46954e-05 -0.00579847 0)
(1.73967e-06 -0.00590164 0)
(3.02015e-05 -0.00600038 0)
(6.04708e-05 -0.00609404 0)
(9.23125e-05 -0.00618201 0)
(0.000125417 -0.00626452 0)
(0.000159528 -0.00634072 0)
(0.000193537 -0.0064247 0)
(0.000226777 -0.00650277 0)
(0.00025979 -0.00657384 0)
(0.000292735 -0.00662887 0)
(-5.33619e-08 -0.000174071 0)
(-3.44211e-07 -0.000508872 0)
(-8.74656e-07 -0.000830349 0)
(-1.61769e-06 -0.00113853 0)
(-2.54999e-06 -0.00143343 0)
(-3.65491e-06 -0.00171507 0)
(-4.91428e-06 -0.00198348 0)
(-6.31246e-06 -0.00223868 0)
(-7.82851e-06 -0.00248068 0)
(-9.44609e-06 -0.0027095 0)
(-1.11418e-05 -0.00292516 0)
(-1.28995e-05 -0.00312766 0)
(-1.46935e-05 -0.00331704 0)
(-1.65089e-05 -0.00349329 0)
(-1.83171e-05 -0.00365643 0)
(-2.01057e-05 -0.00380646 0)
(-2.18422e-05 -0.0039434 0)
(-2.3518e-05 -0.00406724 0)
(-2.50998e-05 -0.004178 0)
(-2.65979e-05 -0.00427567 0)
(-2.79814e-05 -0.00436024 0)
(-2.9186e-05 -0.00443172 0)
(-2.98664e-05 -0.00449014 0)
(-2.97693e-05 -0.00453554 0)
(-3.06903e-05 -0.00456777 0)
(-3.95174e-05 -0.00458586 0)
(-6.68413e-05 -0.00458928 0)
(-0.000116347 -0.0045904 0)
(-0.000159837 -0.00459125 0)
(-0.000184677 -0.00463305 0)
(-0.000151472 -0.00476433 0)
(-0.000152183 -0.00489549 0)
(-0.000158283 -0.00502909 0)
(-0.00016259 -0.00516582 0)
(-0.000163915 -0.00530451 0)
(-0.000162936 -0.00544372 0)
(-0.000160018 -0.00558228 0)
(-0.000155253 -0.00571907 0)
(-0.000148724 -0.00585283 0)
(-0.000140545 -0.00598251 0)
(-0.000130863 -0.00610712 0)
(-0.0001198 -0.00622576 0)
(-0.000107471 -0.00633775 0)
(-9.39967e-05 -0.00644239 0)
(-7.95277e-05 -0.0065391 0)
(-6.42705e-05 -0.00662736 0)
(-4.84874e-05 -0.00670681 0)
(-3.26178e-05 -0.00678014 0)
(-1.70909e-05 -0.00684543 0)
(-1.85011e-06 -0.0068984 0)
(-1.12351e-08 -0.000172605 0)
(-3.60912e-07 -0.000504542 0)
(-1.1214e-06 -0.000823258 0)
(-2.28388e-06 -0.0011288 0)
(-3.81033e-06 -0.00142122 0)
(-5.66938e-06 -0.00170056 0)
(-7.82783e-06 -0.00196684 0)
(-1.02613e-05 -0.00222012 0)
(-1.29361e-05 -0.00246042 0)
(-1.58298e-05 -0.00268777 0)
(-1.89062e-05 -0.0029022 0)
(-2.2145e-05 -0.00310373 0)
(-2.55065e-05 -0.00329239 0)
(-2.89734e-05 -0.0034682 0)
(-3.25009e-05 -0.00363118 0)
(-3.60753e-05 -0.00378134 0)
(-3.96441e-05 -0.00391869 0)
(-4.31973e-05 -0.00404326 0)
(-4.6676e-05 -0.00415504 0)
(-5.00972e-05 -0.00425404 0)
(-5.34253e-05 -0.00434026 0)
(-5.6619e-05 -0.00441371 0)
(-5.91164e-05 -0.00447438 0)
(-5.99958e-05 -0.0045223 0)
(-6.04872e-05 -0.00455742 0)
(-7.27109e-05 -0.00457958 0)
(-0.000120505 -0.00458889 0)
(-0.000188924 -0.00458884 0)
(-0.000225193 -0.00458474 0)
(-0.000237121 -0.00458552 0)
(-0.000228614 -0.00464409 0)
(-0.000227652 -0.00478504 0)
(-0.000242778 -0.00493816 0)
(-0.000257796 -0.0050963 0)
(-0.000269806 -0.0052575 0)
(-0.000279084 -0.00541887 0)
(-0.000286361 -0.0055789 0)
(-0.000292021 -0.00573545 0)
(-0.000296366 -0.00588701 0)
(-0.000299595 -0.00603274 0)
(-0.00030188 -0.006172 0)
(-0.000303372 -0.00630386 0)
(-0.00030423 -0.00642762 0)
(-0.000304594 -0.00654264 0)
(-0.000304592 -0.00664833 0)
(-0.000304346 -0.00674415 0)
(-0.000303988 -0.00682962 0)
(-0.000303669 -0.00690439 0)
(-0.000303543 -0.00696827 0)
(-0.000303706 -0.00702095 0)
(-1.03392e-07 -0.000168211 0)
(-7.5182e-07 -0.000492086 0)
(-1.98046e-06 -0.000803414 0)
(-3.74197e-06 -0.0011022 0)
(-5.99862e-06 -0.00138846 0)
(-8.71915e-06 -0.00166219 0)
(-1.18849e-05 -0.00192341 0)
(-1.5469e-05 -0.00217214 0)
(-1.94551e-05 -0.00240839 0)
(-2.3814e-05 -0.00263219 0)
(-2.85316e-05 -0.00284354 0)
(-3.35758e-05 -0.00304248 0)
(-3.89347e-05 -0.00322902 0)
(-4.45719e-05 -0.00340319 0)
(-5.04774e-05 -0.00356501 0)
(-5.66083e-05 -0.00371451 0)
(-6.29571e-05 -0.00385171 0)
(-6.9471e-05 -0.00397664 0)
(-7.61446e-05 -0.00408932 0)
(-8.29169e-05 -0.00418977 0)
(-8.98032e-05 -0.00427802 0)
(-9.67452e-05 -0.00435409 0)
(-0.00010367 -0.00441798 0)
(-0.000110072 -0.00446978 0)
(-0.000115419 -0.00450953 0)
(-0.000121557 -0.00453716 0)
(-0.000138502 -0.00455175 0)
(-0.000181861 -0.00455285 0)
(-0.000242186 -0.00454689 0)
(-0.000276191 -0.00454168 0)
(-0.000288248 -0.00453555 0)
(-0.000293421 -0.00453236 0)
(-0.000314531 -0.00462599 0)
(-0.000330869 -0.00483353 0)
(-0.000344827 -0.00503061 0)
(-0.000354329 -0.00521948 0)
(-0.000361932 -0.00540276 0)
(-0.000368621 -0.00557619 0)
(-0.000374775 -0.00574087 0)
(-0.000380453 -0.00589673 0)
(-0.00038586 -0.00604339 0)
(-0.00039121 -0.00617985 0)
(-0.000396729 -0.00630599 0)
(-0.0004026 -0.00642146 0)
(-0.000408988 -0.00652593 0)
(-0.000416034 -0.00661907 0)
(-0.000423867 -0.00670061 0)
(-0.000432594 -0.00677031 0)
(-0.000442305 -0.00682801 0)
(-0.00045307 -0.00687364 0)
(-3.8228e-08 -0.000165387 0)
(-8.44314e-07 -0.000483527 0)
(-2.57209e-06 -0.00078908 0)
(-5.20599e-06 -0.00108208 0)
(-8.68399e-06 -0.00136254 0)
(-1.29594e-05 -0.00163051 0)
(-1.79972e-05 -0.00188599 0)
(-2.37748e-05 -0.00212903 0)
(-3.02691e-05 -0.00235963 0)
(-3.74671e-05 -0.00257784 0)
(-4.53516e-05 -0.00278369 0)
(-5.39168e-05 -0.0029772 0)
(-6.31485e-05 -0.00315842 0)
(-7.30457e-05 -0.00332739 0)
(-8.3594e-05 -0.00348415 0)
(-9.47948e-05 -0.00362875 0)
(-0.00010663 -0.00376125 0)
(-0.000119101 -0.00388171 0)
(-0.000132181 -0.00399018 0)
(-0.000145868 -0.00408674 0)
(-0.000160133 -0.00417146 0)
(-0.000174985 -0.0042444 0)
(-0.000190382 -0.00430567 0)
(-0.000206158 -0.00435534 0)
(-0.000221746 -0.00439354 0)
(-0.000236925 -0.00442039 0)
(-0.000255342 -0.00443586 0)
(-0.00028927 -0.00443924 0)
(-0.000343741 -0.00443104 0)
(-0.000403842 -0.00441357 0)
(-0.000440614 -0.00438873 0)
(-0.000463734 -0.00434728 0)
(-0.000490188 -0.00429727 0)
(-0.000524298 -0.00489101 0)
(-0.000539549 -0.00502286 0)
(-0.000571049 -0.00522938 0)
(-0.00060343 -0.00541887 0)
(-0.000629198 -0.00559571 0)
(-0.000648379 -0.00576188 0)
(-0.000662358 -0.00591705 0)
(-0.000672463 -0.00606038 0)
(-0.00067952 -0.00619047 0)
(-0.000684332 -0.00630766 0)
(-0.000687611 -0.00641179 0)
(-0.000690017 -0.00650273 0)
(-0.000692149 -0.00658041 0)
(-0.000694534 -0.00664482 0)
(-0.000697622 -0.00669605 0)
(-0.000701789 -0.00673431 0)
(-0.000707335 -0.00675986 0)
(-1.46693e-07 -0.000155184 0)
(-7.8351e-07 -0.000454782 0)
(-1.93516e-06 -0.000743357 0)
(-3.58053e-06 -0.00102067 0)
(-5.74326e-06 -0.00128651 0)
(-8.46191e-06 -0.00154072 0)
(-1.17818e-05 -0.00178313 0)
(-1.57461e-05 -0.00201364 0)
(-2.0402e-05 -0.00223213 0)
(-2.57953e-05 -0.00243855 0)
(-3.19777e-05 -0.00263283 0)
(-3.89992e-05 -0.00281495 0)
(-4.69169e-05 -0.00298487 0)
(-5.57861e-05 -0.00314261 0)
(-6.56701e-05 -0.00328819 0)
(-7.66302e-05 -0.00342165 0)
(-8.87371e-05 -0.00354304 0)
(-0.000102059 -0.00365246 0)
(-0.000116675 -0.00374999 0)
(-0.000132661 -0.00383576 0)
(-0.000150107 -0.00390991 0)
(-0.000169102 -0.00397262 0)
(-0.000189765 -0.00402409 0)
(-0.000212202 -0.00406455 0)
(-0.000236415 -0.00409426 0)
(-0.00026212 -0.00411359 0)
(-0.00028925 -0.00412289 0)
(-0.000320834 -0.00412228 0)
(-0.000366889 -0.00411118 0)
(-0.000434159 -0.00409093 0)
(-0.00050781 -0.00406412 0)
(-0.000561168 -0.00403397 0)
(-0.000602996 -0.0040129 0)
(-0.000644533 -0.00404649 0)
(-0.000738957 -0.00384662 0)
(-0.000853226 -0.00435076 0)
(-0.000898576 -0.00468032 0)
(-0.000967466 -0.00501299 0)
(-0.00103023 -0.00530456 0)
(-0.0010779 -0.00556711 0)
(-0.00111116 -0.00580081 0)
(-0.0011333 -0.00600336 0)
(-0.00114687 -0.00617672 0)
(-0.00115349 -0.00632207 0)
(-0.00115454 -0.00644062 0)
(-0.00115132 -0.00653388 0)
(-0.00114504 -0.00660338 0)
(-0.00113676 -0.00665075 0)
(-0.00112741 -0.00667773 0)
(-0.00111779 -0.00668602 0)
(1.65221e-07 -0.000160684 0)
(3.44435e-07 -0.000468407 0)
(2.72649e-07 -0.000762551 0)
(-1.9598e-07 -0.00104314 0)
(-1.13705e-06 -0.00131018 0)
(-2.61286e-06 -0.00156366 0)
(-4.69002e-06 -0.00180359 0)
(-7.44024e-06 -0.00202995 0)
(-1.09397e-05 -0.00224271 0)
(-1.52674e-05 -0.00244185 0)
(-2.05067e-05 -0.00262736 0)
(-2.67438e-05 -0.00279918 0)
(-3.40708e-05 -0.00295731 0)
(-4.25825e-05 -0.0031017 0)
(-5.23806e-05 -0.00323232 0)
(-6.357e-05 -0.00334913 0)
(-7.62641e-05 -0.00345209 0)
(-9.05794e-05 -0.00354116 0)
(-0.000106643 -0.00361629 0)
(-0.000124585 -0.00367743 0)
(-0.000144548 -0.00372453 0)
(-0.000166678 -0.0037575 0)
(-0.000191142 -0.00377629 0)
(-0.000218119 -0.00378078 0)
(-0.000247814 -0.0037709 0)
(-0.00028034 -0.0037465 0)
(-0.000315558 -0.00370752 0)
(-0.000353275 -0.00365375 0)
(-0.000395675 -0.00358487 0)
(-0.000451808 -0.00349973 0)
(-0.000533859 -0.00339563 0)
(-0.000621615 -0.00337651 0)
(-0.000685628 -0.00334649 0)
(-0.000745181 -0.0032913 0)
(-0.00080044 -0.00318313 0)
(-0.000883078 -0.00303818 0)
(-0.00104217 -0.00308107 0)
(-0.00115175 -0.00389549 0)
(-0.00121314 -0.00447056 0)
(-0.00129376 -0.00499031 0)
(-0.00135223 -0.00541486 0)
(-0.00139301 -0.00578255 0)
(-0.0014204 -0.00609768 0)
(-0.00143851 -0.00636049 0)
(-0.00144909 -0.0065745 0)
(-0.00145328 -0.00674361 0)
(-0.00145217 -0.00687106 0)
(-0.00144681 -0.00696036 0)
(-0.0014382 -0.00701511 0)
(-0.0014272 -0.00703861 0)
(-2.33208e-07 -0.000152017 0)
(-7.65531e-07 -0.000443839 0)
(-1.46882e-06 -0.000723137 0)
(-2.29325e-06 -0.000989606 0)
(-3.29672e-06 -0.00124297 0)
(-4.56669e-06 -0.001483 0)
(-6.19101e-06 -0.00170945 0)
(-8.2596e-06 -0.00192214 0)
(-1.08605e-05 -0.00212088 0)
(-1.40878e-05 -0.0023055 0)
(-1.80332e-05 -0.00247586 0)
(-2.2796e-05 -0.00263182 0)
(-2.8471e-05 -0.00277325 0)
(-3.51623e-05 -0.00290003 0)
(-4.29669e-05 -0.00301206 0)
(-5.19942e-05 -0.00310924 0)
(-6.23424e-05 -0.00319146 0)
(-7.41262e-05 -0.00325866 0)
(-8.74438e-05 -0.00331075 0)
(-0.000102415 -0.00334766 0)
(-0.000119135 -0.00336931 0)
(-0.000137729 -0.00337565 0)
(-0.000158286 -0.0033666 0)
(-0.000180932 -0.00334213 0)
(-0.000205755 -0.00330219 0)
(-0.000232893 -0.00324671 0)
(-0.000262428 -0.00317569 0)
(-0.000294345 -0.00308907 0)
(-0.000328268 -0.00298695 0)
(-0.000364125 -0.00286905 0)
(-0.000404492 -0.00273486 0)
(-0.000463509 -0.00267914 0)
(-0.000534285 -0.00261315 0)
(-0.000598127 -0.00255426 0)
(-0.000660073 -0.00244839 0)
(-0.000726963 -0.00226905 0)
(-0.000787822 -0.00205574 0)
(-0.000949546 -0.00139379 0)
(-0.00115683 -0.00248229 0)
(-0.00117921 -0.00419184 0)
(-0.00123517 -0.00457121 0)
(-0.00126863 -0.00509011 0)
(-0.00126372 -0.00552677 0)
(-0.0012505 -0.00588177 0)
(-0.00123975 -0.00618014 0)
(-0.00123144 -0.00642316 0)
(-0.00122392 -0.00661259 0)
(-0.00121666 -0.0067541 0)
(-0.0012092 -0.00685241 0)
(-0.00120123 -0.0069107 0)
(4.68552e-07 -0.000161511 0)
(2.68693e-06 -0.000469214 0)
(6.42905e-06 -0.000761524 0)
(1.13534e-05 -0.00103836 0)
(1.71969e-05 -0.00129965 0)
(2.3752e-05 -0.00154531 0)
(3.08488e-05 -0.00177528 0)
(3.83158e-05 -0.00198946 0)
(4.6001e-05 -0.00218779 0)
(5.37433e-05 -0.00237019 0)
(6.14041e-05 -0.00253658 0)
(6.88279e-05 -0.00268687 0)
(7.58838e-05 -0.00282101 0)
(8.24142e-05 -0.00293889 0)
(8.82891e-05 -0.00304047 0)
(9.33411e-05 -0.00312562 0)
(9.74349e-05 -0.00319433 0)
(0.000100385 -0.00324645 0)
(0.000102042 -0.003282 0)
(0.000102194 -0.00330079 0)
(0.000100671 -0.00330291 0)
(9.72211e-05 -0.00328812 0)
(9.16441e-05 -0.00325661 0)
(8.36399e-05 -0.00320804 0)
(7.29603e-05 -0.00314278 0)
(5.92407e-05 -0.00306031 0)
(4.21658e-05 -0.00296132 0)
(2.13155e-05 -0.002845 0)
(-3.6276e-06 -0.00271252 0)
(-3.31069e-05 -0.00256262 0)
(-6.79887e-05 -0.0023973 0)
(-0.000111351 -0.00221428 0)
(-0.000169915 -0.00201506 0)
(-0.000251949 -0.00182362 0)
(-0.000343441 -0.00159996 0)
(-0.000425869 -0.00152015 0)
(-0.000514174 -0.0014075 0)
(-0.000615486 -0.00123702 0)
(-0.000714202 -0.00182431 0)
(-0.000828575 -0.00319744 0)
(-0.000889081 -0.00523019 0)
(-0.000844762 -0.00650759 0)
(-0.00105063 -0.00656995 0)
(-0.00117704 -0.00668665 0)
(-0.00121343 -0.00688011 0)
(-0.00118999 -0.00703911 0)
(-0.00114122 -0.00715209 0)
(-0.00108547 -0.0072463 0)
(-0.00102997 -0.00731468 0)
(-0.000983708 -0.00734553 0)
(-6.9098e-08 -0.000173454 0)
(1.05013e-06 -0.000501847 0)
(3.61864e-06 -0.000811876 0)
(7.57543e-06 -0.0011037 0)
(1.27045e-05 -0.00137745 0)
(1.88045e-05 -0.00163322 0)
(2.57037e-05 -0.00187109 0)
(3.32547e-05 -0.00209108 0)
(4.13199e-05 -0.00229321 0)
(4.97778e-05 -0.00247745 0)
(5.85111e-05 -0.00264378 0)
(6.74181e-05 -0.00279207 0)
(7.6396e-05 -0.00292226 0)
(8.53574e-05 -0.00303414 0)
(9.42068e-05 -0.0031276 0)
(0.000102866 -0.00320234 0)
(0.000111238 -0.00325819 0)
(0.000119248 -0.00329473 0)
(0.000126791 -0.00331174 0)
(0.000133788 -0.00330862 0)
(0.000140118 -0.00328515 0)
(0.000145691 -0.00324049 0)
(0.000150357 -0.00317441 0)
(0.000154012 -0.00308577 0)
(0.000156467 -0.00297435 0)
(0.000157591 -0.00283859 0)
(0.000157146 -0.00267838 0)
(0.000154969 -0.00249155 0)
(0.000150761 -0.00227817 0)
(0.000144306 -0.00203527 0)
(0.000135205 -0.00176325 0)
(0.000123122 -0.00145795 0)
(0.000107768 -0.00112014 0)
(8.9343e-05 -0.0007435 0)
(6.81287e-05 -0.000345043 0)
(2.95625e-05 -6.16325e-05 0)
(-2.71901e-05 0.000299329 0)
(-8.69843e-05 0.000331791 0)
(-0.000149354 0.000170732 0)
(-0.00025654 -0.000198182 0)
(-0.000458139 -0.00112906 0)
(-0.000681898 -0.00269976 0)
(-0.000847911 -0.00331903 0)
(-0.000874103 -0.00548298 0)
(-0.00106491 -0.00612969 0)
(-0.00122815 -0.00757171 0)
(-0.00124777 -0.00779524 0)
(-0.00104495 -0.0080131 0)
(-0.000715039 -0.00792553 0)
(-0.000463631 -0.0077158 0)
(2.77641e-07 -0.000185887 0)
(5.56155e-07 -0.000535959 0)
(5.4332e-07 -0.00086482 0)
(1.12678e-07 -0.00117294 0)
(-7.29214e-07 -0.00146072 0)
(-1.9489e-06 -0.00172854 0)
(-3.53106e-06 -0.00197672 0)
(-5.45367e-06 -0.00220554 0)
(-7.7082e-06 -0.00241524 0)
(-1.02639e-05 -0.00260603 0)
(-1.31035e-05 -0.00277805 0)
(-1.61777e-05 -0.00293144 0)
(-1.94553e-05 -0.00306626 0)
(-2.28629e-05 -0.00318257 0)
(-2.63525e-05 -0.00328036 0)
(-2.98222e-05 -0.00335959 0)
(-3.32058e-05 -0.00342017 0)
(-3.63692e-05 -0.00346196 0)
(-3.92272e-05 -0.00348482 0)
(-4.16096e-05 -0.00348849 0)
(-4.3411e-05 -0.00347275 0)
(-4.44208e-05 -0.00343724 0)
(-4.4511e-05 -0.00338165 0)
(-4.34249e-05 -0.00330554 0)
(-4.10075e-05 -0.00320848 0)
(-3.69489e-05 -0.00308993 0)
(-3.10589e-05 -0.0029494 0)
(-2.29672e-05 -0.00278622 0)
(-1.2435e-05 -0.00259984 0)
(9.80023e-07 -0.00238947 0)
(1.76101e-05 -0.00215454 0)
(3.80133e-05 -0.00189411 0)
(6.25758e-05 -0.00160762 0)
(9.1434e-05 -0.00129406 0)
(0.000124351 -0.000952921 0)
(0.000161594 -0.000583115 0)
(0.000208926 -0.000173021 0)
(0.000243727 -3.6538e-05 0)
(0.000250093 8.97898e-05 0)
(0.000234184 0.000125107 0)
(0.000183701 -8.35063e-05 0)
(8.43784e-05 -0.000631575 0)
(-7.9063e-05 -0.00123594 0)
(-0.000297431 -0.00226339 0)
(-0.000512796 -0.00312597 0)
(-0.00065339 -0.0083613 0)
(-0.00131006 -0.0089885 0)
(-0.001275 -0.0184526 0)
(-0.00108669 -0.0148623 0)
(-0.00140126 -0.012528 0)
(-5.31461e-07 -0.000166228 0)
(-2.27001e-06 -0.000482103 0)
(-5.34405e-06 -0.000780991 0)
(-9.73763e-06 -0.00106259 0)
(-1.56241e-05 -0.00132673 0)
(-2.31728e-05 -0.00157334 0)
(-3.2503e-05 -0.00180242 0)
(-4.36744e-05 -0.00201402 0)
(-5.6698e-05 -0.00220824 0)
(-7.15388e-05 -0.00238521 0)
(-8.81229e-05 -0.00254505 0)
(-0.000106335 -0.00268792 0)
(-0.000126028 -0.00281393 0)
(-0.000147015 -0.00292322 0)
(-0.000169083 -0.00301588 0)
(-0.000191984 -0.003092 0)
(-0.000215446 -0.00315164 0)
(-0.000239161 -0.00319481 0)
(-0.000262805 -0.0032215 0)
(-0.000286015 -0.00323169 0)
(-0.000308415 -0.00322525 0)
(-0.000329586 -0.0032021 0)
(-0.000349102 -0.00316204 0)
(-0.000366488 -0.00310491 0)
(-0.000381265 -0.00303039 0)
(-0.000392896 -0.00293828 0)
(-0.000400846 -0.00282814 0)
(-0.000404512 -0.00269972 0)
(-0.000403297 -0.00255245 0)
(-0.000396522 -0.00238605 0)
(-0.000383522 -0.0021998 0)
(-0.000363539 -0.00199343 0)
(-0.000335805 -0.00176603 0)
(-0.000299396 -0.0015174 0)
(-0.000253377 -0.00124633 0)
(-0.000197231 -0.000952706 0)
(-0.000131595 -0.000634945 0)
(-5.86098e-05 -0.000293665 0)
(2.213e-05 7.9227e-05 0)
(0.000103475 0.000362772 0)
(0.000171325 0.00057585 0)
(0.000212305 0.000833627 0)
(0.000216405 0.00118265 0)
(0.000176012 0.00132032 0)
(9.17987e-05 0.00127372 0)
(-5.76034e-05 0.00130856 0)
(-0.000349846 0.00148839 0)
(-0.00116661 -0.00597722 0)
(-0.00100145 -0.00422665 0)
(-0.00198352 -0.00271949 0)
(1.40719e-06 -0.000181163 0)
(6.8389e-06 -0.000509286 0)
(1.38683e-05 -0.000808291 0)
(2.07435e-05 -0.00108033 0)
(2.61692e-05 -0.00132734 0)
(2.92818e-05 -0.0015511 0)
(2.95012e-05 -0.00175323 0)
(2.64468e-05 -0.00193522 0)
(1.99026e-05 -0.00209847 0)
(9.78968e-06 -0.00224423 0)
(-3.85377e-06 -0.00237367 0)
(-2.08959e-05 -0.00248781 0)
(-4.11237e-05 -0.00258763 0)
(-6.4262e-05 -0.00267397 0)
(-8.99781e-05 -0.00274762 0)
(-0.000117899 -0.00280927 0)
(-0.00014761 -0.00285954 0)
(-0.000178672 -0.002899 0)
(-0.000210612 -0.00292814 0)
(-0.000242946 -0.00294741 0)
(-0.00027516 -0.00295721 0)
(-0.000306741 -0.00295789 0)
(-0.000337147 -0.00294976 0)
(-0.000365846 -0.00293312 0)
(-0.000392278 -0.00290823 0)
(-0.000415903 -0.00287536 0)
(-0.000436154 -0.00283471 0)
(-0.000452496 -0.00278656 0)
(-0.000464366 -0.00273111 0)
(-0.000471251 -0.00266868 0)
(-0.000472612 -0.00259948 0)
(-0.00046798 -0.00252395 0)
(-0.000456866 -0.00244231 0)
(-0.000438884 -0.0023552 0)
(-0.00041363 -0.00226289 0)
(-0.000380809 -0.00216636 0)
(-0.000340098 -0.00206589 0)
(-0.000291558 -0.00196279 0)
(-0.000236093 -0.00185713 0)
(-0.000176389 -0.00175094 0)
(-0.000115213 -0.00164238 0)
(-5.10626e-05 -0.00152717 0)
(1.93416e-05 -0.00146888 0)
(8.42441e-05 -0.00159732 0)
(0.000128703 -0.00179232 0)
(0.000154394 -0.0019825 0)
(0.000160679 -0.00207154 0)
(4.69503e-05 -0.00203629 0)
(1.85447e-05 -0.00340194 0)
(-0.000776885 -0.00201279 0)
(6.93535e-05 -0.000221232 0)
(0.000197545 -0.000594856 0)
(0.000296592 -0.000907847 0)
(0.000370999 -0.00117018 0)
(0.00042507 -0.00139006 0)
(0.000461877 -0.00157427 0)
(0.000483607 -0.00172848 0)
(0.000492119 -0.00185741 0)
(0.00048909 -0.00196506 0)
(0.000476014 -0.00205475 0)
(0.000454223 -0.00212928 0)
(0.0004249 -0.00219097 0)
(0.000389105 -0.00224178 0)
(0.000347787 -0.00228332 0)
(0.000301809 -0.00231693 0)
(0.000251951 -0.00234373 0)
(0.000198933 -0.00236463 0)
(0.000143412 -0.00238034 0)
(8.60054e-05 -0.00239146 0)
(2.7283e-05 -0.00239841 0)
(-3.22051e-05 -0.00240152 0)
(-9.19497e-05 -0.002401 0)
(-0.000151442 -0.00239692 0)
(-0.00021021 -0.00238929 0)
(-0.000267762 -0.00237798 0)
(-0.000323641 -0.00236276 0)
(-0.000377354 -0.00234326 0)
(-0.000428439 -0.00231901 0)
(-0.000476378 -0.00228937 0)
(-0.000520684 -0.00225352 0)
(-0.000560788 -0.00221045 0)
(-0.000596153 -0.00215893 0)
(-0.000626129 -0.00209743 0)
(-0.0006501 -0.00202414 0)
(-0.00066729 -0.00193677 0)
(-0.000676958 -0.00183266 0)
(-0.000678156 -0.00170849 0)
(-0.000669963 -0.00156047 0)
(-0.000651148 -0.00138376 0)
(-0.0006204 -0.0011728 0)
(-0.000576003 -0.000920323 0)
(-0.000516612 -0.000618117 0)
(-0.000441998 -0.000256114 0)
(-0.000354581 0.000174302 0)
(-0.000255205 0.000709169 0)
(-0.000139247 0.00140267 0)
(6.01993e-06 0.00232494 0)
(0.000180254 0.00338256 0)
(0.00030847 0.00434108 0)
(0.000395155 0.0062821 0)
(-0.000320529 -0.00476752 0)
(-0.000324553 -0.00476255 0)
(-0.000328418 -0.00475745 0)
(-0.000332035 -0.00475167 0)
(-0.000335353 -0.00474513 0)
(-0.000338333 -0.00473771 0)
(-0.000340956 -0.00472897 0)
(-0.000343338 -0.0047176 0)
(-0.000345587 -0.00470538 0)
(-0.000347626 -0.00469303 0)
(-0.000349347 -0.0046799 0)
(-0.000350703 -0.0046657 0)
(-0.000351684 -0.00465041 0)
(-0.000352292 -0.004634 0)
(-0.000352531 -0.00461634 0)
(-0.000352417 -0.00459712 0)
(-0.000351996 -0.00457626 0)
(-0.000351328 -0.00455403 0)