/*--------------------------------*- C++ -*----------------------------------*\
| =========                 |                                                 |
| \\      /  F ield         | OpenFOAM: The Open Source CFD Toolbox           |
|  \\    /   O peration     | Version:  2.4.0                                 |
|   \\  /    A nd           | Web:      www.OpenFOAM.org                      |
|    \\/     M anipulation  |                                                 |
\*---------------------------------------------------------------------------*/
FoamFile
{
    version     2.0;
    format      ascii;
    class       volVectorField;
    location    "0.006";
    object      U;
}
// * * * * * * * * * * * * * * * * * * * * * * * * * * * * * * * * * * * * * //

dimensions      [0 1 -1 0 0 0 0];

internalField   nonuniform List<vector> 
125
(
(-1.43146e-05 -0.029823 0)
(-1.41142e-05 -0.0298229 0)
(-1.39162e-05 -0.0298228 0)
(-1.37207e-05 -0.0298226 0)
(-1.35275e-05 -0.0298225 0)
(-1.33367e-05 -0.0298224 0)
(-1.31483e-05 -0.0298223 0)
(-1.29623e-05 -0.0298221 0)
(-1.27786e-05 -0.029822 0)
(-1.25972e-05 -0.0298219 0)
(-1.24181e-05 -0.0298217 0)
(-1.22413e-05 -0.0298216 0)
(-1.20668e-05 -0.0298215 0)
(-1.18945e-05 -0.0298214 0)
(-1.17245e-05 -0.0298213 0)
(-1.15566e-05 -0.0298211 0)
(-1.13909e-05 -0.029821 0)
(-1.12273e-05 -0.0298209 0)
(-1.10658e-05 -0.0298208 0)
(-1.09064e-05 -0.0298207 0)
(-1.07491e-05 -0.0298205 0)
(-1.05938e-05 -0.0298204 0)
(-1.04405e-05 -0.0298203 0)
(-1.02891e-05 -0.0298202 0)
(-1.01397e-05 -0.0298201 0)
(-9.99214e-06 -0.02982 0)
(-9.84647e-06 -0.0298199 0)
(-9.70264e-06 -0.0298197 0)
(-9.56061e-06 -0.0298196 0)
(-9.42035e-06 -0.0298195 0)
(-9.28183e-06 -0.0298194 0)
(-9.14502e-06 -0.0298193 0)
(-9.00988e-06 -0.0298192 0)
(-8.87639e-06 -0.0298191 0)
(-8.74451e-06 -0.029819 0)
(-8.61422e-06 -0.0298189 0)
(-8.48547e-06 -0.0298188 0)
(-8.35825e-06 -0.0298187 0)
(-8.23252e-06 -0.0298186 0)
(-8.10825e-06 -0.0298185 0)
(-7.98541e-06 -0.0298184 0)
(-7.86397e-06 -0.0298183 0)
(-7.74391e-06 -0.0298182 0)
(-7.62519e-06 -0.0298181 0)
(-7.50779e-06 -0.029818 0)
(-7.39167e-06 -0.0298179 0)
(-7.27683e-06 -0.0298178 0)
(-7.16321e-06 -0.0298177 0)
(-7.05081e-06 -0.0298176 0)
(-6.93959e-06 -0.0298175 0)
(-6.82954e-06 -0.0298174 0)
(-6.72061e-06 -0.0298173 0)
(-6.6128e-06 -0.0298172 0)
(-6.50608e-06 -0.0298171 0)
(-6.40042e-06 -0.029817 0)
(-6.2958e-06 -0.0298169 0)
(-6.19219e-06 -0.0298168 0)
(-6.08959e-06 -0.0298168 0)
(-5.98795e-06 -0.0298167 0)
(-5.88728e-06 -0.0298166 0)
(-5.78753e-06 -0.0298165 0)
(-5.6887e-06 -0.0298164 0)
(-5.59077e-06 -0.0298163 0)
(-5.49372e-06 -0.0298162 0)
(-5.39753e-06 -0.0298162 0)
(-5.3022e-06 -0.0298161 0)
(-5.20769e-06 -0.029816 0)
(-5.114e-06 -0.0298159 0)
(-5.02112e-06 -0.0298158 0)
(-4.92904e-06 -0.0298158 0)
(-4.83774e-06 -0.0298157 0)
(-4.74722e-06 -0.0298156 0)
(-4.65747e-06 -0.0298155 0)
(-4.56848e-06 -0.0298154 0)
(-4.48025e-06 -0.0298154 0)
(-4.39276e-06 -0.0298153 0)
(-4.30603e-06 -0.0298152 0)
(-4.22005e-06 -0.0298151 0)
(-4.13481e-06 -0.0298151 0)
(-4.05032e-06 -0.029815 0)
(-3.96657e-06 -0.0298149 0)
(-3.88356e-06 -0.0298149 0)
(-3.80129e-06 -0.0298148 0)
(-3.71974e-06 -0.0298147 0)
(-3.63892e-06 -0.0298147 0)
(-3.55879e-06 -0.0298146 0)
(-3.47935e-06 -0.0298145 0)
(-3.40056e-06 -0.0298145 0)
(-3.32238e-06 -0.0298144 0)
(-3.24478e-06 -0.0298143 0)
(-3.16767e-06 -0.0298143 0)
(-3.09099e-06 -0.0298142 0)
(-3.01464e-06 -0.0298141 0)
(-2.9385e-06 -0.0298141 0)
(-2.86242e-06 -0.029814 0)
(-2.78624e-06 -0.029814 0)
(-2.70975e-06 -0.0298139 0)
(-2.63272e-06 -0.0298138 0)
(-2.5549e-06 -0.0298138 0)
(-2.47596e-06 -0.0298137 0)
(-2.39556e-06 -0.0298137 0)
(-2.31333e-06 -0.0298136 0)
(-2.22884e-06 -0.0298136 0)
(-2.14164e-06 -0.0298135 0)
(-2.05121e-06 -0.0298135 0)
(-1.95703e-06 -0.0298134 0)
(-1.85854e-06 -0.0298134 0)
(-1.75517e-06 -0.0298133 0)
(-1.64632e-06 -0.0298133 0)
(-1.53139e-06 -0.0298132 0)
(-1.40981e-06 -0.0298132 0)
(-1.28099e-06 -0.0298131 0)
(-1.14443e-06 -0.0298131 0)
(-9.9964e-07 -0.029813 0)
(-8.46222e-07 -0.029813 0)
(-6.8386e-07 -0.029813 0)
(-5.12343e-07 -0.0298129 0)
(-3.31582e-07 -0.0298129 0)
(-1.41627e-07 -0.0298129 0)
(5.73233e-08 -0.0298128 0)
(2.64905e-07 -0.0298128 0)
(4.80584e-07 -0.0298128 0)
(7.03651e-07 -0.0298128 0)
(9.33221e-07 -0.0298127 0)
(1.16824e-06 -0.0298127 0)
)
;

boundaryField
{
    BotWall
    {
        type            fixedValue;
        value           nonuniform 0();
    }
    FreeStream
    {
        type            zeroGradient;
    }
    FrontNBack
    {
        type            empty;
    }
    LeftSide
    {
        type            symmetryPlane;
    }
    RightSide
    {
        type            symmetryPlane;
    }
    procBoundary5to2
    {
        type            processor;
        value           nonuniform List<vector> 
50
(
(9.22735e-06 -0.0298145 0)
(9.09461e-06 -0.0298144 0)
(8.96282e-06 -0.0298144 0)
(8.83203e-06 -0.0298143 0)
(8.70227e-06 -0.0298142 0)
(8.57358e-06 -0.0298142 0)
(8.446e-06 -0.0298141 0)
(8.31956e-06 -0.029814 0)
(8.19431e-06 -0.029814 0)
(8.07028e-06 -0.0298139 0)
(7.94749e-06 -0.0298138 0)
(7.82597e-06 -0.0298138 0)
(7.70572e-06 -0.0298137 0)
(7.58676e-06 -0.0298136 0)
(7.46905e-06 -0.0298136 0)
(7.35257e-06 -0.0298135 0)
(7.23726e-06 -0.0298135 0)
(7.12305e-06 -0.0298134 0)
(7.00981e-06 -0.0298133 0)
(6.8974e-06 -0.0298133 0)
(6.78563e-06 -0.0298132 0)
(6.67428e-06 -0.0298132 0)
(6.56306e-06 -0.0298131 0)
(6.45165e-06 -0.029813 0)
(6.33965e-06 -0.029813 0)
(6.22661e-06 -0.0298129 0)
(6.11204e-06 -0.0298129 0)
(5.99536e-06 -0.0298128 0)
(5.87594e-06 -0.0298128 0)
(5.75309e-06 -0.0298127 0)
(5.62607e-06 -0.0298126 0)
(5.49408e-06 -0.0298126 0)
(5.3563e-06 -0.0298125 0)
(5.21187e-06 -0.0298125 0)
(5.05991e-06 -0.0298124 0)
(4.89955e-06 -0.0298124 0)
(4.72996e-06 -0.0298123 0)
(4.55033e-06 -0.0298123 0)
(4.35991e-06 -0.0298122 0)
(4.15807e-06 -0.0298122 0)
(3.94428e-06 -0.0298122 0)
(3.71815e-06 -0.0298121 0)
(3.47947e-06 -0.0298121 0)
(3.22819e-06 -0.029812 0)
(2.96452e-06 -0.029812 0)
(2.68886e-06 -0.029812 0)
(2.40187e-06 -0.0298119 0)
(2.10446e-06 -0.0298119 0)
(1.79779e-06 -0.0298119 0)
(1.48327e-06 -0.0298119 0)
)
;
    }
    procBoundary5to3
    {
        type            processor;
        value           nonuniform List<vector> 
75
(
(2.10256e-05 -0.0298212 0)
(2.08426e-05 -0.0298211 0)
(2.06606e-05 -0.029821 0)
(2.04795e-05 -0.0298209 0)
(2.02995e-05 -0.0298208 0)
(2.01204e-05 -0.0298207 0)
(1.99422e-05 -0.0298206 0)
(1.97649e-05 -0.0298205 0)
(1.95885e-05 -0.0298203 0)
(1.94129e-05 -0.0298202 0)
(1.92382e-05 -0.0298201 0)
(1.90643e-05 -0.02982 0)
(1.88913e-05 -0.0298199 0)
(1.8719e-05 -0.0298198 0)
(1.85474e-05 -0.0298197 0)
(1.83767e-05 -0.0298196 0)
(1.82066e-05 -0.0298195 0)
(1.80373e-05 -0.0298194 0)
(1.78687e-05 -0.0298193 0)
(1.77008e-05 -0.0298192 0)
(1.75336e-05 -0.0298191 0)
(1.7367e-05 -0.029819 0)
(1.72011e-05 -0.0298189 0)
(1.70358e-05 -0.0298188 0)
(1.68712e-05 -0.0298187 0)
(1.67072e-05 -0.0298186 0)
(1.65437e-05 -0.0298185 0)
(1.63809e-05 -0.0298184 0)
(1.62187e-05 -0.0298183 0)
(1.6057e-05 -0.0298182 0)
(1.58959e-05 -0.0298181 0)
(1.57354e-05 -0.0298181 0)
(1.55754e-05 -0.029818 0)
(1.5416e-05 -0.0298179 0)
(1.52571e-05 -0.0298178 0)
(1.50988e-05 -0.0298177 0)
(1.4941e-05 -0.0298176 0)
(1.47837e-05 -0.0298175 0)
(1.46269e-05 -0.0298174 0)
(1.44707e-05 -0.0298173 0)
(1.4315e-05 -0.0298172 0)
(1.41599e-05 -0.0298172 0)
(1.40052e-05 -0.0298171 0)
(1.38511e-05 -0.029817 0)
(1.36975e-05 -0.0298169 0)
(1.35444e-05 -0.0298168 0)
(1.33919e-05 -0.0298167 0)
(1.32399e-05 -0.0298166 0)
(1.30884e-05 -0.0298166 0)
(1.29375e-05 -0.0298165 0)
(1.27871e-05 -0.0298164 0)
(1.26372e-05 -0.0298163 0)
(1.24879e-05 -0.0298162 0)
(1.23392e-05 -0.0298161 0)
(1.2191e-05 -0.0298161 0)
(1.20434e-05 -0.029816 0)
(1.18964e-05 -0.0298159 0)
(1.175e-05 -0.0298158 0)
(1.16042e-05 -0.0298157 0)
(1.14589e-05 -0.0298157 0)
(1.13143e-05 -0.0298156 0)
(1.11703e-05 -0.0298155 0)
(1.10269e-05 -0.0298154 0)
(1.08842e-05 -0.0298154 0)
(1.07421e-05 -0.0298153 0)
(1.06007e-05 -0.0298152 0)
(1.046e-05 -0.0298151 0)
(1.032e-05 -0.0298151 0)
(1.01807e-05 -0.029815 0)
(1.00421e-05 -0.0298149 0)
(9.90426e-06 -0.0298148 0)
(9.76722e-06 -0.0298148 0)
(9.63098e-06 -0.0298147 0)
(9.49557e-06 -0.0298146 0)
(9.36101e-06 -0.0298146 0)
)
;
    }
    procBoundary5to4
    {
        type            processor;
        value           uniform (1.40748e-06 -0.0298127 0);
    }
    procBoundary5to6
    {
        type            processor;
        value           uniform (-1.45175e-05 -0.0298232 0);
    }
    procBoundary5to7
    {
        type            processor;
        value           nonuniform List<vector> 
75
(
(-6.75998e-06 -0.0297999 0)
(-6.67527e-06 -0.0297999 0)
(-6.59147e-06 -0.0298 0)
(-6.50856e-06 -0.0298 0)
(-6.42655e-06 -0.0298001 0)
(-6.34541e-06 -0.0298002 0)
(-6.26516e-06 -0.0298002 0)
(-6.18576e-06 -0.0298003 0)
(-6.10723e-06 -0.0298003 0)
(-6.02955e-06 -0.0298004 0)
(-5.95272e-06 -0.0298004 0)
(-5.87672e-06 -0.0298005 0)
(-5.80157e-06 -0.0298006 0)
(-5.72724e-06 -0.0298006 0)
(-5.65373e-06 -0.0298007 0)
(-5.58105e-06 -0.0298007 0)
(-5.50918e-06 -0.0298008 0)
(-5.43812e-06 -0.0298008 0)
(-5.36786e-06 -0.0298008 0)
(-5.29841e-06 -0.0298009 0)
(-5.22975e-06 -0.0298009 0)
(-5.16188e-06 -0.029801 0)
(-5.09481e-06 -0.029801 0)
(-5.02851e-06 -0.0298011 0)
(-4.963e-06 -0.0298011 0)
(-4.89826e-06 -0.0298012 0)
(-4.8343e-06 -0.0298012 0)
(-4.77109e-06 -0.0298012 0)
(-4.70865e-06 -0.0298013 0)
(-4.64696e-06 -0.0298013 0)
(-4.58601e-06 -0.0298013 0)
(-4.52579e-06 -0.0298014 0)
(-4.4663e-06 -0.0298014 0)
(-4.4075e-06 -0.0298014 0)
(-4.3494e-06 -0.0298015 0)
(-4.29195e-06 -0.0298015 0)
(-4.23513e-06 -0.0298015 0)
(-4.1789e-06 -0.0298016 0)
(-4.12322e-06 -0.0298016 0)
(-4.06802e-06 -0.0298016 0)
(-4.01325e-06 -0.0298016 0)
(-3.95881e-06 -0.0298017 0)
(-3.90462e-06 -0.0298017 0)
(-3.85055e-06 -0.0298017 0)
(-3.79647e-06 -0.0298017 0)
(-3.74222e-06 -0.0298018 0)
(-3.68762e-06 -0.0298018 0)
(-3.63247e-06 -0.0298018 0)
(-3.57652e-06 -0.0298018 0)
(-3.51952e-06 -0.0298018 0)
(-3.46116e-06 -0.0298019 0)
(-3.40111e-06 -0.0298019 0)
(-3.33903e-06 -0.0298019 0)
(-3.27452e-06 -0.0298019 0)
(-3.20717e-06 -0.0298019 0)
(-3.13654e-06 -0.0298019 0)
(-3.06217e-06 -0.0298019 0)
(-2.98358e-06 -0.0298019 0)
(-2.90031e-06 -0.029802 0)
(-2.81185e-06 -0.029802 0)
(-2.71776e-06 -0.029802 0)
(-2.61757e-06 -0.029802 0)
(-2.51088e-06 -0.029802 0)
(-2.3973e-06 -0.029802 0)
(-2.27654e-06 -0.029802 0)
(-2.14835e-06 -0.029802 0)
(-2.01258e-06 -0.029802 0)
(-1.86917e-06 -0.029802 0)
(-1.7182e-06 -0.0298019 0)
(-1.55985e-06 -0.0298019 0)
(-1.39442e-06 -0.0298019 0)
(-1.22237e-06 -0.0298019 0)
(-1.04429e-06 -0.0298019 0)
(-8.60921e-07 -0.0298019 0)
(-6.7313e-07 -0.0298018 0)
)
;
    }
    procBoundary5to8
    {
        type            processor;
        value           nonuniform List<vector> 
50
(
(-1.25333e-05 -0.0297954 0)
(-1.23795e-05 -0.0297955 0)
(-1.22276e-05 -0.0297956 0)
(-1.20775e-05 -0.0297957 0)
(-1.19294e-05 -0.0297958 0)
(-1.17831e-05 -0.0297959 0)
(-1.16387e-05 -0.029796 0)
(-1.1496e-05 -0.0297961 0)
(-1.13552e-05 -0.0297963 0)
(-1.12162e-05 -0.0297964 0)
(-1.10789e-05 -0.0297965 0)
(-1.09433e-05 -0.0297966 0)
(-1.08095e-05 -0.0297967 0)
(-1.06773e-05 -0.0297968 0)
(-1.05468e-05 -0.0297969 0)
(-1.04179e-05 -0.029797 0)
(-1.02907e-05 -0.0297971 0)
(-1.0165e-05 -0.0297972 0)
(-1.00409e-05 -0.0297973 0)
(-9.91836e-06 -0.0297974 0)
(-9.79734e-06 -0.0297975 0)
(-9.67781e-06 -0.0297976 0)
(-9.55975e-06 -0.0297977 0)
(-9.44314e-06 -0.0297978 0)
(-9.32796e-06 -0.0297979 0)
(-9.21417e-06 -0.0297979 0)
(-9.10176e-06 -0.029798 0)
(-8.99071e-06 -0.0297981 0)
(-8.88098e-06 -0.0297982 0)
(-8.77255e-06 -0.0297983 0)
(-8.6654e-06 -0.0297984 0)
(-8.55952e-06 -0.0297985 0)
(-8.45487e-06 -0.0297985 0)
(-8.35143e-06 -0.0297986 0)
(-8.24919e-06 -0.0297987 0)
(-8.14811e-06 -0.0297988 0)
(-8.04819e-06 -0.0297989 0)
(-7.9494e-06 -0.0297989 0)
(-7.85172e-06 -0.029799 0)
(-7.75513e-06 -0.0297991 0)
(-7.65961e-06 -0.0297992 0)
(-7.56515e-06 -0.0297992 0)
(-7.47173e-06 -0.0297993 0)
(-7.37933e-06 -0.0297994 0)
(-7.28794e-06 -0.0297995 0)
(-7.19754e-06 -0.0297995 0)
(-7.10813e-06 -0.0297996 0)
(-7.01967e-06 -0.0297997 0)
(-6.93217e-06 -0.0297997 0)
(-6.84561e-06 -0.0297998 0)
)
;
    }
}


// ************************************************************************* //
