/*--------------------------------*- C++ -*----------------------------------*\
| =========                 |                                                 |
| \\      /  F ield         | OpenFOAM: The Open Source CFD Toolbox           |
|  \\    /   O peration     | Version:  2.4.0                                 |
|   \\  /    A nd           | Web:      www.OpenFOAM.org                      |
|    \\/     M anipulation  |                                                 |
\*---------------------------------------------------------------------------*/
FoamFile
{
    version     2.0;
    format      ascii;
    class       volScalarField;
    location    "0.9";
    object      p;
}
// * * * * * * * * * * * * * * * * * * * * * * * * * * * * * * * * * * * * * //

dimensions      [1 -1 -2 0 0 0 0];

internalField   nonuniform List<scalar> 
8000
(
-0.52811
-0.530933
-0.534058
-0.537043
-0.539912
-0.542724
-0.5455
-0.548237
-0.550933
-0.553589
-0.556203
-0.558775
-0.561304
-0.563789
-0.566228
-0.568621
-0.570964
-0.573256
-0.575495
-0.577676
-0.5798
-0.581856
-0.583839
-0.585744
-0.587636
-0.589634
-0.591609
-0.591975
-0.58736
-0.581327
-0.613552
-0.768909
-0.964975
-0.54959
-0.459507
-0.458495
-0.458431
-0.458439
-0.458446
-0.458447
-0.458446
-0.458445
-0.458444
-0.458443
-0.458443
-0.458442
-0.458442
-0.458442
-0.458442
-0.458442
-0.555463
-0.558106
-0.561069
-0.563939
-0.566731
-0.569503
-0.57227
-0.575033
-0.57779
-0.580541
-0.583285
-0.586023
-0.588756
-0.591483
-0.594207
-0.596925
-0.599639
-0.602349
-0.605056
-0.607759
-0.61046
-0.613153
-0.61584
-0.618534
-0.621321
-0.624269
-0.626917
-0.627264
-0.623527
-0.627671
-0.690111
-0.854561
-0.845549
-0.511713
-0.481305
-0.480817
-0.480787
-0.4808
-0.480805
-0.480806
-0.480805
-0.480804
-0.480804
-0.480803
-0.480803
-0.480803
-0.480803
-0.480803
-0.480803
-0.480803
-0.584239
-0.58641
-0.588896
-0.59137
-0.593844
-0.596358
-0.598926
-0.601545
-0.604213
-0.606931
-0.609698
-0.612515
-0.615382
-0.618302
-0.621276
-0.624305
-0.627392
-0.63054
-0.633751
-0.637031
-0.640378
-0.643794
-0.647278
-0.650894
-0.654798
-0.659023
-0.66223
-0.660395
-0.653226
-0.674877
-0.827585
-1.1144
-0.770256
-0.510705
-0.503366
-0.503159
-0.503158
-0.503168
-0.503171
-0.503171
-0.50317
-0.50317
-0.503169
-0.503169
-0.503168
-0.503168
-0.503168
-0.503168
-0.503168
-0.503168
-0.597442
-0.599877
-0.602619
-0.605281
-0.607876
-0.610453
-0.613028
-0.615601
-0.618166
-0.620726
-0.623278
-0.625823
-0.628358
-0.630887
-0.633403
-0.635912
-0.638406
-0.640893
-0.643362
-0.645824
-0.648262
-0.65068
-0.653066
-0.655518
-0.658231
-0.661139
-0.662084
-0.655652
-0.644306
-0.682338
-0.907434
-1.24924
-0.680279
-0.527021
-0.525586
-0.525517
-0.525526
-0.525533
-0.525534
-0.525533
-0.525533
-0.525532
-0.525532
-0.525532
-0.525531
-0.525531
-0.525531
-0.525531
-0.525532
-0.525532
-0.603317
-0.606285
-0.609543
-0.612621
-0.615547
-0.618388
-0.621164
-0.623875
-0.626518
-0.629094
-0.631601
-0.63404
-0.636409
-0.638708
-0.640933
-0.643083
-0.645154
-0.647145
-0.64905
-0.650867
-0.652584
-0.654197
-0.6557
-0.657161
-0.658704
-0.660142
-0.65971
-0.653945
-0.647731
-0.685303
-0.853409
-1.0424
-0.615804
-0.548602
-0.54793
-0.547889
-0.547901
-0.547907
-0.547907
-0.547906
-0.547905
-0.547904
-0.547904
-0.547903
-0.547902
-0.547902
-0.547902
-0.547901
-0.547901
-0.547901
-0.641886
-0.644305
-0.647042
-0.649722
-0.652358
-0.655001
-0.657666
-0.660352
-0.663058
-0.665784
-0.668529
-0.671297
-0.674086
-0.6769
-0.679737
-0.682602
-0.685495
-0.688418
-0.691373
-0.694364
-0.697386
-0.700443
-0.703559
-0.706841
-0.710356
-0.71348
-0.71375
-0.709483
-0.716925
-0.798221
-0.994019
-0.929216
-0.58926
-0.570591
-0.570253
-0.570245
-0.570259
-0.570264
-0.570263
-0.570263
-0.570262
-0.570262
-0.570262
-0.570261
-0.570261
-0.570261
-0.570261
-0.570261
-0.570261
-0.570262
-0.672749
-0.674633
-0.676825
-0.679045
-0.681296
-0.683614
-0.686007
-0.688474
-0.691012
-0.69362
-0.696299
-0.699048
-0.701869
-0.704763
-0.707731
-0.710776
-0.7139
-0.717106
-0.7204
-0.72378
-0.727246
-0.730797
-0.734514
-0.738596
-0.743068
-0.746188
-0.742855
-0.733088
-0.761314
-0.957342
-1.3143
-0.851723
-0.596762
-0.592755
-0.592615
-0.592624
-0.592635
-0.592637
-0.592636
-0.592635
-0.592634
-0.592634
-0.592633
-0.592633
-0.592632
-0.592632
-0.592632
-0.592632
-0.592632
-0.592632
-0.674416
-0.677033
-0.679937
-0.682711
-0.685373
-0.687979
-0.690548
-0.693076
-0.695563
-0.698007
-0.700407
-0.702761
-0.70507
-0.70733
-0.709541
-0.711698
-0.713803
-0.715847
-0.717834
-0.71975
-0.72159
-0.723342
-0.725106
-0.727084
-0.729176
-0.729085
-0.721185
-0.70855
-0.74894
-0.985036
-1.33391
-0.744723
-0.615895
-0.615022
-0.614975
-0.614988
-0.614995
-0.614995
-0.614995
-0.614994
-0.614993
-0.614993
-0.614992
-0.614992
-0.614992
-0.614992
-0.614992
-0.614992
-0.614992
-0.614992
-0.687529
-0.690593
-0.693952
-0.697118
-0.700122
-0.703033
-0.705872
-0.70864
-0.711335
-0.713958
-0.716508
-0.718986
-0.721391
-0.723722
-0.725978
-0.728156
-0.730255
-0.732271
-0.734202
-0.736039
-0.737776
-0.739412
-0.741029
-0.742745
-0.74428
-0.743613
-0.737381
-0.732962
-0.781077
-0.965507
-1.11981
-0.681902
-0.637839
-0.637371
-0.637353
-0.637368
-0.637374
-0.637373
-0.637372
-0.637371
-0.63737
-0.637369
-0.637368
-0.637367
-0.637367
-0.637366
-0.637366
-0.637366
-0.637365
-0.637365
-0.735538
-0.737584
-0.739949
-0.742327
-0.744725
-0.747183
-0.749713
-0.752312
-0.75498
-0.757717
-0.760525
-0.763404
-0.766358
-0.769387
-0.772498
-0.77569
-0.778973
-0.782346
-0.785819
-0.789389
-0.793065
-0.796884
-0.800983
-0.805426
-0.809356
-0.809699
-0.805042
-0.817653
-0.925039
-1.16029
-1.01283
-0.670017
-0.659924
-0.659688
-0.659698
-0.659714
-0.659718
-0.659718
-0.659717
-0.659717
-0.659717
-0.659717
-0.659717
-0.659717
-0.659717
-0.659717
-0.659717
-0.659718
-0.659718
-0.659718
-0.759689
-0.761539
-0.763693
-0.765865
-0.768057
-0.770301
-0.772607
-0.774973
-0.777396
-0.779874
-0.782407
-0.784994
-0.787633
-0.790328
-0.793075
-0.795878
-0.798733
-0.801649
-0.804613
-0.807625
-0.810676
-0.81388
-0.817518
-0.821595
-0.823498
-0.815807
-0.799173
-0.840137
-1.12794
-1.63472
-0.930561
-0.68418
-0.682171
-0.682084
-0.6821
-0.682109
-0.68211
-0.682108
-0.682106
-0.682105
-0.682104
-0.682103
-0.682102
-0.682101
-0.6821
-0.6821
-0.682099
-0.682099
-0.682098
-0.682098
-0.74813
-0.751169
-0.754464
-0.757534
-0.760411
-0.763164
-0.765815
-0.768364
-0.770806
-0.773143
-0.775371
-0.77749
-0.779497
-0.781391
-0.783164
-0.784817
-0.78634
-0.787733
-0.78898
-0.790071
-0.790996
-0.791848
-0.792828
-0.793792
-0.792362
-0.782963
-0.769528
-0.811715
-1.0501
-1.38864
-0.799221
-0.70502
-0.704454
-0.704429
-0.704445
-0.704452
-0.704451
-0.70445
-0.70445
-0.704449
-0.704448
-0.704448
-0.704447
-0.704447
-0.704447
-0.704447
-0.704447
-0.704447
-0.704447
-0.704448
-0.786456
-0.789191
-0.792243
-0.795185
-0.798039
-0.800863
-0.803676
-0.80648
-0.809271
-0.812053
-0.814824
-0.817587
-0.820343
-0.823092
-0.825835
-0.828575
-0.831309
-0.834042
-0.836767
-0.839482
-0.842205
-0.845032
-0.848085
-0.850901
-0.851063
-0.845549
-0.846364
-0.914768
-1.12503
-1.19729
-0.751121
-0.727126
-0.726794
-0.726802
-0.726821
-0.726826
-0.726826
-0.726825
-0.726824
-0.726824
-0.726824
-0.726823
-0.726823
-0.726823
-0.726823
-0.726823
-0.726823
-0.726823
-0.726823
-0.726824
-0.834377
-0.835939
-0.837825
-0.839813
-0.841899
-0.844107
-0.846444
-0.84891
-0.851501
-0.85422
-0.857065
-0.860041
-0.863149
-0.866395
-0.869781
-0.873317
-0.877004
-0.880854
-0.884863
-0.889047
-0.893453
-0.898256
-0.903501
-0.908031
-0.90804
-0.90259
-0.921663
-1.06123
-1.34086
-1.08306
-0.753953
-0.749306
-0.749142
-0.749163
-0.749179
-0.749182
-0.749181
-0.74918
-0.74918
-0.749179
-0.749179
-0.749178
-0.749178
-0.749177
-0.749177
-0.749177
-0.749177
-0.749177
-0.749177
-0.749177
-0.830215
-0.832661
-0.835395
-0.838015
-0.840539
-0.843014
-0.845458
-0.847868
-0.850243
-0.852577
-0.854876
-0.857127
-0.859343
-0.861502
-0.863628
-0.865684
-0.86771
-0.869648
-0.871534
-0.873313
-0.875153
-0.877368
-0.879902
-0.879516
-0.867283
-0.845263
-0.896092
-1.24539
-1.8278
-0.953293
-0.772286
-0.771528
-0.771498
-0.771516
-0.771523
-0.771524
-0.771524
-0.771525
-0.771525
-0.771526
-0.771527
-0.771528
-0.771529
-0.77153
-0.771531
-0.771533
-0.771534
-0.771535
-0.771536
-0.771537
-0.825397
-0.828885
-0.832617
-0.836035
-0.839181
-0.84214
-0.844935
-0.847568
-0.850037
-0.852341
-0.854478
-0.856446
-0.858244
-0.859867
-0.86131
-0.862566
-0.86363
-0.864489
-0.865124
-0.865532
-0.865799
-0.866117
-0.866265
-0.863784
-0.853403
-0.84067
-0.887218
-1.12479
-1.42863
-0.848915
-0.794292
-0.7939
-0.793904
-0.793924
-0.793929
-0.793927
-0.793925
-0.793924
-0.793923
-0.793922
-0.79392
-0.793919
-0.793918
-0.793917
-0.793917
-0.793916
-0.793916
-0.793915
-0.793914
-0.793914
-0.899492
-0.901491
-0.90383
-0.906206
-0.908621
-0.911113
-0.913694
-0.916364
-0.919123
-0.92197
-0.924909
-0.92794
-0.931069
-0.934298
-0.937632
-0.941075
-0.944633
-0.948306
-0.952101
-0.956046
-0.960275
-0.964892
-0.969237
-0.970377
-0.965735
-0.972894
-1.06609
-1.30802
-1.27726
-0.827395
-0.816468
-0.816228
-0.816256
-0.816277
-0.816281
-0.81628
-0.816279
-0.816279
-0.816279
-0.816279
-0.816279
-0.81628
-0.81628
-0.81628
-0.816281
-0.816281
-0.816281
-0.816282
-0.816282
-0.816282
-0.933514
-0.934708
-0.936202
-0.93784
-0.939618
-0.941549
-0.943638
-0.94588
-0.948275
-0.950822
-0.953521
-0.956373
-0.959383
-0.962552
-0.965887
-0.969392
-0.973073
-0.976927
-0.980966
-0.985257
-0.990007
-0.995244
-0.99941
-0.997712
-0.989784
-1.01581
-1.19714
-1.53677
-1.1433
-0.840797
-0.838716
-0.838604
-0.83863
-0.838644
-0.838646
-0.838644
-0.838644
-0.838643
-0.838643
-0.838643
-0.838642
-0.838642
-0.838642
-0.838642
-0.838642
-0.838643
-0.838643
-0.838643
-0.838643
-0.838643
-0.913084
-0.916008
-0.919184
-0.922132
-0.924872
-0.927474
-0.929956
-0.932321
-0.934562
-0.936681
-0.938672
-0.940536
-0.942267
-0.943863
-0.945316
-0.946625
-0.947771
-0.948742
-0.949522
-0.950246
-0.95122
-0.952309
-0.950157
-0.936323
-0.914768
-0.970105
-1.31669
-1.8415
-0.989208
-0.861467
-0.861
-0.860998
-0.861018
-0.861024
-0.861023
-0.861022
-0.861021
-0.861021
-0.86102
-0.86102
-0.861019
-0.861019
-0.861019
-0.861019
-0.861019
-0.861019
-0.861019
-0.861019
-0.861019
-0.861019
-0.92576
-0.929151
-0.932789
-0.936137
-0.939234
-0.942165
-0.944954
-0.947602
-0.950107
-0.952472
-0.954693
-0.956772
-0.958705
-0.960492
-0.962126
-0.963607
-0.964918
-0.966053
-0.967006
-0.967885
-0.968869
-0.969639
-0.967476
-0.957335
-0.947577
-1.00638
-1.25941
-1.51403
-0.912037
-0.883629
-0.883334
-0.883364
-0.883387
-0.883391
-0.883389
-0.883388
-0.883387
-0.883386
-0.883386
-0.883385
-0.883385
-0.883384
-0.883384
-0.883384
-0.883384
-0.883384
-0.883384
-0.883384
-0.883384
-0.883384
-0.458441
-0.458441
-0.458441
-0.458441
-0.458441
-0.458441
-0.458441
-0.458441
-0.458441
-0.458441
-0.458441
-0.458442
-0.458442
-0.458442
-0.458442
-0.458442
-0.458442
-0.458442
-0.458442
-0.458442
-0.458442
-0.458442
-0.458442
-0.458442
-0.458442
-0.458442
-0.458442
-0.458442
-0.458443
-0.458443
-0.458443
-0.458443
-0.458443
-0.458443
-0.458443
-0.458443
-0.458443
-0.458443
-0.458443
-0.458444
-0.458444
-0.458444
-0.458444
-0.458444
-0.458444
-0.458444
-0.458444
-0.458444
-0.458445
-0.458445
-0.480803
-0.480803
-0.480804
-0.480804
-0.480804
-0.480804
-0.480804
-0.480804
-0.480804
-0.480805
-0.480805
-0.480805
-0.480805
-0.480805
-0.480805
-0.480805
-0.480806
-0.480806
-0.480806
-0.480806
-0.480806
-0.480806
-0.480806
-0.480807
-0.480807
-0.480807
-0.480807
-0.480807
-0.480807
-0.480807
-0.480808
-0.480808
-0.480808
-0.480808
-0.480808
-0.480808
-0.480808
-0.480808
-0.480809
-0.480809
-0.480809
-0.480809
-0.480809
-0.480809
-0.480809
-0.480809
-0.480809
-0.48081
-0.48081
-0.48081
-0.503169
-0.503169
-0.503169
-0.503169
-0.503169
-0.503169
-0.503169
-0.503169
-0.503169
-0.503169
-0.503169
-0.503169
-0.50317
-0.50317
-0.50317
-0.50317
-0.50317
-0.50317
-0.50317
-0.50317
-0.50317
-0.50317
-0.50317
-0.50317
-0.503171
-0.503171
-0.503171
-0.503171
-0.503171
-0.503171
-0.503171
-0.503171
-0.503171
-0.503171
-0.503171
-0.503172
-0.503172
-0.503172
-0.503172
-0.503172
-0.503172
-0.503172
-0.503172
-0.503172
-0.503173
-0.503173
-0.503173
-0.503173
-0.503173
-0.503173
-0.525532
-0.525532
-0.525532
-0.525532
-0.525533
-0.525533
-0.525533
-0.525533
-0.525533
-0.525533
-0.525533
-0.525534
-0.525534
-0.525534
-0.525534
-0.525534
-0.525534
-0.525534
-0.525535
-0.525535
-0.525535
-0.525535
-0.525535
-0.525535
-0.525535
-0.525536
-0.525536
-0.525536
-0.525536
-0.525536
-0.525536
-0.525536
-0.525536
-0.525537
-0.525537
-0.525537
-0.525537
-0.525537
-0.525537
-0.525537
-0.525537
-0.525537
-0.525538
-0.525538
-0.525538
-0.525538
-0.525538
-0.525538
-0.525538
-0.525538
-0.547901
-0.547901
-0.547901
-0.547901
-0.547901
-0.547901
-0.547901
-0.547901
-0.547901
-0.5479
-0.5479
-0.5479
-0.5479
-0.5479
-0.5479
-0.5479
-0.5479
-0.5479
-0.5479
-0.5479
-0.5479
-0.547901
-0.547901
-0.547901
-0.547901
-0.547901
-0.547901
-0.547901
-0.547901
-0.547901
-0.547901
-0.547901
-0.547901
-0.547901
-0.547901
-0.547901
-0.547901
-0.547901
-0.547901
-0.547902
-0.547902
-0.547902
-0.547902
-0.547902
-0.547902
-0.547902
-0.547902
-0.547902
-0.547902
-0.547902
-0.570262
-0.570262
-0.570262
-0.570262
-0.570262
-0.570262
-0.570263
-0.570263
-0.570263
-0.570263
-0.570263
-0.570263
-0.570263
-0.570263
-0.570264
-0.570264
-0.570264
-0.570264
-0.570264
-0.570264
-0.570264
-0.570264
-0.570265
-0.570265
-0.570265
-0.570265
-0.570265
-0.570265
-0.570265
-0.570265
-0.570265
-0.570266
-0.570266
-0.570266
-0.570266
-0.570266
-0.570266
-0.570266
-0.570266
-0.570266
-0.570266
-0.570267
-0.570267
-0.570267
-0.570267
-0.570267
-0.570267
-0.570267
-0.570267
-0.570267
-0.592631
-0.592631
-0.592631
-0.592631
-0.592631
-0.592631
-0.592631
-0.592631
-0.592631
-0.592631
-0.592631
-0.592631
-0.592631
-0.592631
-0.592631
-0.592631
-0.592631
-0.592631
-0.592631
-0.592631
-0.592631
-0.592631
-0.592631
-0.592631
-0.592631
-0.592631
-0.592631
-0.592631
-0.592631
-0.592631
-0.592631
-0.592631
-0.592631
-0.592631
-0.592631
-0.592631
-0.592631
-0.592631
-0.592631
-0.592632
-0.592632
-0.592632
-0.592632
-0.592632
-0.592632
-0.592632
-0.592632
-0.592632
-0.592632
-0.592632
-0.614992
-0.614992
-0.614992
-0.614992
-0.614992
-0.614993
-0.614993
-0.614993
-0.614993
-0.614993
-0.614993
-0.614993
-0.614993
-0.614993
-0.614993
-0.614993
-0.614994
-0.614994
-0.614994
-0.614994
-0.614994
-0.614994
-0.614994
-0.614994
-0.614994
-0.614994
-0.614995
-0.614995
-0.614995
-0.614995
-0.614995
-0.614995
-0.614995
-0.614995
-0.614995
-0.614995
-0.614995
-0.614996
-0.614996
-0.614996
-0.614996
-0.614996
-0.614996
-0.614996
-0.614996
-0.614996
-0.614996
-0.614996
-0.614996
-0.614997
-0.637365
-0.637365
-0.637365
-0.637364
-0.637364
-0.637364
-0.637364
-0.637364
-0.637363
-0.637363
-0.637363
-0.637363
-0.637363
-0.637363
-0.637363
-0.637363
-0.637363
-0.637362
-0.637362
-0.637362
-0.637362
-0.637362
-0.637362
-0.637362
-0.637362
-0.637362
-0.637362
-0.637362
-0.637362
-0.637362
-0.637362
-0.637362
-0.637362
-0.637362
-0.637362
-0.637362
-0.637362
-0.637362
-0.637362
-0.637362
-0.637362
-0.637362
-0.637362
-0.637362
-0.637362
-0.637362
-0.637362
-0.637362
-0.637362
-0.637362
-0.659719
-0.659719
-0.659719
-0.659719
-0.65972
-0.65972
-0.65972
-0.65972
-0.65972
-0.659721
-0.659721
-0.659721
-0.659721
-0.659721
-0.659722
-0.659722
-0.659722
-0.659722
-0.659722
-0.659722
-0.659723
-0.659723
-0.659723
-0.659723
-0.659723
-0.659723
-0.659723
-0.659723
-0.659724
-0.659724
-0.659724
-0.659724
-0.659724
-0.659724
-0.659724
-0.659724
-0.659725
-0.659725
-0.659725
-0.659725
-0.659725
-0.659725
-0.659725
-0.659725
-0.659725
-0.659725
-0.659726
-0.659726
-0.659726
-0.659726
-0.682098
-0.682097
-0.682097
-0.682097
-0.682096
-0.682096
-0.682096
-0.682096
-0.682095
-0.682095
-0.682095
-0.682095
-0.682095
-0.682094
-0.682094
-0.682094
-0.682094
-0.682094
-0.682094
-0.682093
-0.682093
-0.682093
-0.682093
-0.682093
-0.682093
-0.682093
-0.682093
-0.682093
-0.682093
-0.682093
-0.682093
-0.682093
-0.682093
-0.682093
-0.682093
-0.682093
-0.682093
-0.682093
-0.682093
-0.682093
-0.682093
-0.682093
-0.682093
-0.682093
-0.682093
-0.682093
-0.682093
-0.682093
-0.682093
-0.682093
-0.704448
-0.704448
-0.704448
-0.704448
-0.704448
-0.704448
-0.704449
-0.704449
-0.704449
-0.704449
-0.704449
-0.704449
-0.70445
-0.70445
-0.70445
-0.70445
-0.70445
-0.704451
-0.704451
-0.704451
-0.704451
-0.704451
-0.704451
-0.704452
-0.704452
-0.704452
-0.704452
-0.704452
-0.704452
-0.704452
-0.704453
-0.704453
-0.704453
-0.704453
-0.704453
-0.704453
-0.704453
-0.704454
-0.704454
-0.704454
-0.704454
-0.704454
-0.704454
-0.704454
-0.704455
-0.704455
-0.704455
-0.704455
-0.704455
-0.704455
-0.726824
-0.726824
-0.726824
-0.726824
-0.726824
-0.726824
-0.726824
-0.726824
-0.726824
-0.726824
-0.726824
-0.726824
-0.726823
-0.726823
-0.726823
-0.726823
-0.726823
-0.726823
-0.726823
-0.726823
-0.726823
-0.726823
-0.726823
-0.726823
-0.726823
-0.726823
-0.726823
-0.726823
-0.726823
-0.726823
-0.726823
-0.726823
-0.726823
-0.726823
-0.726823
-0.726823
-0.726823
-0.726823
-0.726823
-0.726823
-0.726823
-0.726823
-0.726823
-0.726823
-0.726823
-0.726823
-0.726823
-0.726823
-0.726823
-0.726823
-0.749177
-0.749177
-0.749177
-0.749177
-0.749177
-0.749177
-0.749177
-0.749177
-0.749177
-0.749177
-0.749177
-0.749178
-0.749178
-0.749178
-0.749178
-0.749178
-0.749178
-0.749179
-0.749179
-0.749179
-0.749179
-0.749179
-0.74918
-0.74918
-0.74918
-0.74918
-0.74918
-0.749181
-0.749181
-0.749181
-0.749181
-0.749181
-0.749182
-0.749182
-0.749182
-0.749182
-0.749182
-0.749183
-0.749183
-0.749183
-0.749183
-0.749183
-0.749184
-0.749184
-0.749184
-0.749184
-0.749184
-0.749184
-0.749185
-0.749185
-0.771538
-0.771539
-0.77154
-0.771541
-0.771542
-0.771543
-0.771544
-0.771544
-0.771545
-0.771546
-0.771546
-0.771547
-0.771547
-0.771548
-0.771548
-0.771549
-0.771549
-0.771549
-0.77155
-0.77155
-0.77155
-0.77155
-0.771551
-0.771551
-0.771551
-0.771551
-0.771551
-0.771552
-0.771552
-0.771552
-0.771552
-0.771552
-0.771552
-0.771552
-0.771553
-0.771553
-0.771553
-0.771553
-0.771553
-0.771553
-0.771553
-0.771553
-0.771553
-0.771553
-0.771553
-0.771554
-0.771554
-0.771554
-0.771554
-0.771554
-0.793914
-0.793913
-0.793913
-0.793913
-0.793912
-0.793912
-0.793912
-0.793912
-0.793912
-0.793912
-0.793912
-0.793912
-0.793912
-0.793912
-0.793912
-0.793912
-0.793912
-0.793912
-0.793912
-0.793912
-0.793912
-0.793912
-0.793912
-0.793912
-0.793913
-0.793913
-0.793913
-0.793913
-0.793913
-0.793913
-0.793914
-0.793914
-0.793914
-0.793914
-0.793914
-0.793914
-0.793914
-0.793915
-0.793915
-0.793915
-0.793915
-0.793915
-0.793915
-0.793915
-0.793916
-0.793916
-0.793916
-0.793916
-0.793916
-0.793916
-0.816283
-0.816283
-0.816283
-0.816283
-0.816284
-0.816284
-0.816284
-0.816284
-0.816284
-0.816284
-0.816285
-0.816285
-0.816285
-0.816285
-0.816285
-0.816285
-0.816285
-0.816285
-0.816285
-0.816285
-0.816285
-0.816285
-0.816285
-0.816285
-0.816285
-0.816285
-0.816286
-0.816286
-0.816286
-0.816286
-0.816286
-0.816286
-0.816286
-0.816286
-0.816286
-0.816286
-0.816286
-0.816286
-0.816286
-0.816286
-0.816286
-0.816286
-0.816286
-0.816286
-0.816286
-0.816286
-0.816286
-0.816286
-0.816286
-0.816286
-0.838644
-0.838644
-0.838644
-0.838644
-0.838644
-0.838644
-0.838645
-0.838645
-0.838645
-0.838645
-0.838645
-0.838645
-0.838646
-0.838646
-0.838646
-0.838646
-0.838646
-0.838646
-0.838646
-0.838647
-0.838647
-0.838647
-0.838647
-0.838647
-0.838647
-0.838647
-0.838648
-0.838648
-0.838648
-0.838648
-0.838648
-0.838648
-0.838648
-0.838648
-0.838649
-0.838649
-0.838649
-0.838649
-0.838649
-0.838649
-0.838649
-0.838649
-0.838649
-0.838649
-0.838649
-0.83865
-0.83865
-0.83865
-0.83865
-0.83865
-0.861019
-0.861019
-0.861019
-0.861019
-0.861019
-0.861019
-0.861019
-0.861019
-0.861019
-0.861019
-0.861019
-0.861019
-0.861019
-0.861019
-0.861019
-0.861019
-0.861019
-0.861019
-0.861019
-0.861019
-0.861019
-0.861019
-0.861019
-0.861019
-0.861019
-0.861019
-0.861019
-0.861019
-0.861019
-0.861019
-0.861019
-0.861019
-0.861019
-0.861019
-0.861019
-0.861019
-0.861019
-0.861019
-0.861019
-0.861019
-0.861019
-0.861019
-0.861019
-0.861019
-0.861019
-0.861019
-0.861019
-0.861019
-0.861019
-0.861019
-0.883384
-0.883384
-0.883384
-0.883384
-0.883384
-0.883384
-0.883384
-0.883384
-0.883384
-0.883384
-0.883384
-0.883384
-0.883384
-0.883384
-0.883384
-0.883384
-0.883384
-0.883384
-0.883384
-0.883384
-0.883384
-0.883384
-0.883384
-0.883384
-0.883384
-0.883384
-0.883384
-0.883384
-0.883384
-0.883384
-0.883384
-0.883384
-0.883384
-0.883384
-0.883384
-0.883384
-0.883384
-0.883384
-0.883384
-0.883384
-0.883384
-0.883384
-0.883384
-0.883384
-0.883384
-0.883384
-0.883384
-0.883384
-0.883384
-0.883385
-0.458445
-0.458445
-0.458445
-0.458445
-0.458445
-0.458445
-0.458445
-0.458445
-0.458445
-0.458445
-0.458446
-0.458446
-0.458446
-0.458446
-0.458446
-0.458446
-0.458446
-0.458446
-0.458446
-0.458446
-0.458446
-0.458447
-0.458447
-0.458447
-0.458447
-0.458447
-0.458447
-0.458447
-0.458447
-0.458447
-0.458447
-0.458447
-0.458447
-0.458448
-0.458448
-0.458448
-0.458448
-0.458448
-0.458448
-0.458448
-0.458448
-0.458448
-0.458448
-0.458448
-0.458448
-0.458449
-0.458449
-0.458449
-0.458449
-0.458449
-0.458449
-0.458449
-0.458449
-0.458449
-0.458449
-0.458449
-0.45845
-0.45845
-0.45845
-0.45845
-0.45845
-0.45845
-0.45845
-0.45845
-0.45845
-0.45845
-0.45845
-0.45845
-0.458451
-0.458451
-0.458451
-0.458451
-0.458451
-0.458451
-0.458451
-0.458451
-0.458451
-0.458451
-0.458451
-0.458451
-0.458452
-0.458452
-0.458452
-0.458452
-0.458452
-0.458452
-0.458452
-0.458452
-0.458452
-0.458452
-0.458452
-0.458452
-0.458453
-0.458453
-0.458453
-0.458453
-0.458453
-0.458453
-0.458453
-0.458453
-0.458453
-0.458453
-0.458453
-0.458453
-0.458453
-0.458454
-0.458454
-0.458454
-0.458454
-0.458454
-0.458454
-0.458454
-0.458454
-0.458454
-0.458454
-0.458454
-0.458454
-0.458454
-0.458455
-0.458455
-0.458455
-0.458455
-0.458455
-0.458455
-0.458455
-0.458455
-0.458455
-0.458455
-0.458455
-0.458455
-0.458455
-0.458455
-0.458456
-0.458456
-0.458456
-0.458456
-0.458456
-0.458456
-0.458456
-0.458456
-0.458456
-0.458456
-0.458456
-0.458456
-0.458456
-0.458456
-0.458456
-0.458457
-0.458457
-0.458457
-0.458457
-0.458457
-0.458457
-0.458457
-0.458457
-0.458457
-0.458457
-0.458457
-0.458457
-0.458457
-0.458457
-0.458457
-0.458457
-0.458458
-0.458458
-0.458458
-0.458458
-0.458458
-0.458458
-0.458458
-0.458458
-0.458458
-0.458458
-0.458458
-0.458458
-0.458458
-0.458458
-0.458458
-0.458458
-0.458459
-0.458459
-0.458459
-0.458459
-0.458459
-0.458459
-0.458459
-0.458459
-0.458459
-0.458459
-0.458459
-0.458459
-0.458459
-0.458459
-0.458459
-0.458459
-0.458459
-0.45846
-0.45846
-0.45846
-0.45846
-0.45846
-0.45846
-0.45846
-0.45846
-0.45846
-0.45846
-0.45846
-0.45846
-0.45846
-0.45846
-0.45846
-0.45846
-0.458461
-0.458461
-0.458461
-0.458461
-0.458461
-0.458461
-0.458461
-0.458461
-0.458461
-0.458461
-0.458461
-0.458461
-0.458461
-0.458461
-0.458461
-0.458461
-0.458462
-0.458462
-0.458462
-0.458462
-0.458462
-0.458462
-0.458462
-0.458462
-0.458462
-0.458462
-0.458462
-0.458462
-0.458462
-0.458462
-0.458462
-0.458463
-0.458463
-0.458463
-0.458463
-0.458463
-0.458463
-0.458463
-0.458463
-0.458463
-0.458463
-0.458463
-0.458463
-0.458463
-0.458464
-0.458464
-0.458464
-0.458464
-0.458464
-0.458464
-0.458464
-0.458464
-0.458464
-0.458464
-0.458464
-0.458464
-0.458465
-0.458465
-0.458465
-0.458465
-0.458465
-0.458465
-0.458465
-0.458465
-0.458465
-0.458465
-0.458466
-0.458466
-0.458466
-0.458466
-0.458466
-0.458466
-0.458466
-0.458466
-0.458466
-0.458467
-0.458467
-0.458467
-0.458467
-0.458467
-0.458467
-0.458467
-0.458467
-0.458468
-0.458468
-0.458468
-0.458468
-0.458468
-0.48081
-0.48081
-0.48081
-0.48081
-0.48081
-0.48081
-0.48081
-0.480811
-0.480811
-0.480811
-0.480811
-0.480811
-0.480811
-0.480811
-0.480811
-0.480811
-0.480811
-0.480811
-0.480811
-0.480811
-0.480812
-0.480812
-0.480812
-0.480812
-0.480812
-0.480812
-0.480812
-0.480812
-0.480812
-0.480812
-0.480812
-0.480812
-0.480813
-0.480813
-0.480813
-0.480813
-0.480813
-0.480813
-0.480813
-0.480813
-0.480813
-0.480813
-0.480813
-0.480813
-0.480813
-0.480814
-0.480814
-0.480814
-0.480814
-0.480814
-0.480814
-0.480814
-0.480814
-0.480814
-0.480814
-0.480814
-0.480814
-0.480814
-0.480815
-0.480815
-0.480815
-0.480815
-0.480815
-0.480815
-0.480815
-0.480815
-0.480815
-0.480815
-0.480815
-0.480815
-0.480815
-0.480815
-0.480816
-0.480816
-0.480816
-0.480816
-0.480816
-0.480816
-0.480816
-0.480816
-0.480816
-0.480816
-0.480816
-0.480816
-0.480816
-0.480816
-0.480817
-0.480817
-0.480817
-0.480817
-0.480817
-0.480817
-0.480817
-0.480817
-0.480817
-0.480817
-0.480817
-0.480817
-0.480817
-0.480817
-0.480818
-0.480818
-0.480818
-0.480818
-0.480818
-0.480818
-0.480818
-0.480818
-0.480818
-0.480818
-0.480818
-0.480818
-0.480818
-0.480818
-0.480818
-0.480819
-0.480819
-0.480819
-0.480819
-0.480819
-0.480819
-0.480819
-0.480819
-0.480819
-0.480819
-0.480819
-0.480819
-0.480819
-0.480819
-0.480819
-0.48082
-0.48082
-0.48082
-0.48082
-0.48082
-0.48082
-0.48082
-0.48082
-0.48082
-0.48082
-0.48082
-0.48082
-0.48082
-0.48082
-0.48082
-0.48082
-0.480821
-0.480821
-0.480821
-0.480821
-0.480821
-0.480821
-0.480821
-0.480821
-0.480821
-0.480821
-0.480821
-0.480821
-0.480821
-0.480821
-0.480821
-0.480821
-0.480822
-0.480822
-0.480822
-0.480822
-0.480822
-0.480822
-0.480822
-0.480822
-0.480822
-0.480822
-0.480822
-0.480822
-0.480822
-0.480822
-0.480822
-0.480822
-0.480822
-0.480823
-0.480823
-0.480823
-0.480823
-0.480823
-0.480823
-0.480823
-0.480823
-0.480823
-0.480823
-0.480823
-0.480823
-0.480823
-0.480823
-0.480823
-0.480823
-0.480824
-0.480824
-0.480824
-0.480824
-0.480824
-0.480824
-0.480824
-0.480824
-0.480824
-0.480824
-0.480824
-0.480824
-0.480824
-0.480824
-0.480824
-0.480824
-0.480824
-0.480825
-0.480825
-0.480825
-0.480825
-0.480825
-0.480825
-0.480825
-0.480825
-0.480825
-0.480825
-0.480825
-0.480825
-0.480825
-0.480825
-0.480825
-0.480825
-0.480826
-0.480826
-0.480826
-0.480826
-0.480826
-0.480826
-0.480826
-0.480826
-0.480826
-0.480826
-0.480826
-0.480826
-0.480826
-0.480826
-0.480826
-0.480827
-0.480827
-0.480827
-0.480827
-0.480827
-0.480827
-0.480827
-0.480827
-0.480827
-0.480827
-0.480827
-0.480827
-0.480827
-0.480828
-0.480828
-0.480828
-0.480828
-0.480828
-0.480828
-0.480828
-0.480828
-0.480828
-0.480828
-0.480828
-0.480828
-0.480829
-0.480829
-0.480829
-0.480829
-0.480829
-0.480829
-0.480829
-0.480829
-0.480829
-0.480829
-0.48083
-0.48083
-0.48083
-0.48083
-0.48083
-0.48083
-0.48083
-0.48083
-0.480831
-0.480831
-0.480831
-0.480831
-0.480831
-0.480831
-0.480831
-0.480831
-0.480832
-0.480832
-0.480832
-0.480832
-0.480832
-0.480832
-0.503173
-0.503173
-0.503173
-0.503173
-0.503173
-0.503174
-0.503174
-0.503174
-0.503174
-0.503174
-0.503174
-0.503174
-0.503174
-0.503174
-0.503174
-0.503174
-0.503174
-0.503175
-0.503175
-0.503175
-0.503175
-0.503175
-0.503175
-0.503175
-0.503175
-0.503175
-0.503175
-0.503175
-0.503175
-0.503175
-0.503176
-0.503176
-0.503176
-0.503176
-0.503176
-0.503176
-0.503176
-0.503176
-0.503176
-0.503176
-0.503176
-0.503176
-0.503177
-0.503177
-0.503177
-0.503177
-0.503177
-0.503177
-0.503177
-0.503177
-0.503177
-0.503177
-0.503177
-0.503177
-0.503178
-0.503178
-0.503178
-0.503178
-0.503178
-0.503178
-0.503178
-0.503178
-0.503178
-0.503178
-0.503178
-0.503178
-0.503179
-0.503179
-0.503179
-0.503179
-0.503179
-0.503179
-0.503179
-0.503179
-0.503179
-0.503179
-0.503179
-0.503179
-0.50318
-0.50318
-0.50318
-0.50318
-0.50318
-0.50318
-0.50318
-0.50318
-0.50318
-0.50318
-0.50318
-0.50318
-0.50318
-0.503181
-0.503181
-0.503181
-0.503181
-0.503181
-0.503181
-0.503181
-0.503181
-0.503181
-0.503181
-0.503181
-0.503181
-0.503181
-0.503182
-0.503182
-0.503182
-0.503182
-0.503182
-0.503182
-0.503182
-0.503182
-0.503182
-0.503182
-0.503182
-0.503182
-0.503182
-0.503183
-0.503183
-0.503183
-0.503183
-0.503183
-0.503183
-0.503183
-0.503183
-0.503183
-0.503183
-0.503183
-0.503183
-0.503183
-0.503183
-0.503184
-0.503184
-0.503184
-0.503184
-0.503184
-0.503184
-0.503184
-0.503184
-0.503184
-0.503184
-0.503184
-0.503184
-0.503184
-0.503184
-0.503185
-0.503185
-0.503185
-0.503185
-0.503185
-0.503185
-0.503185
-0.503185
-0.503185
-0.503185
-0.503185
-0.503185
-0.503185
-0.503185
-0.503185
-0.503185
-0.503186
-0.503186
-0.503186
-0.503186
-0.503186
-0.503186
-0.503186
-0.503186
-0.503186
-0.503186
-0.503186
-0.503186
-0.503186
-0.503186
-0.503186
-0.503186
-0.503187
-0.503187
-0.503187
-0.503187
-0.503187
-0.503187
-0.503187
-0.503187
-0.503187
-0.503187
-0.503187
-0.503187
-0.503187
-0.503187
-0.503187
-0.503187
-0.503187
-0.503188
-0.503188
-0.503188
-0.503188
-0.503188
-0.503188
-0.503188
-0.503188
-0.503188
-0.503188
-0.503188
-0.503188
-0.503188
-0.503188
-0.503188
-0.503188
-0.503188
-0.503189
-0.503189
-0.503189
-0.503189
-0.503189
-0.503189
-0.503189
-0.503189
-0.503189
-0.503189
-0.503189
-0.503189
-0.503189
-0.503189
-0.503189
-0.503189
-0.50319
-0.50319
-0.50319
-0.50319
-0.50319
-0.50319
-0.50319
-0.50319
-0.50319
-0.50319
-0.50319
-0.50319
-0.50319
-0.50319
-0.50319
-0.50319
-0.503191
-0.503191
-0.503191
-0.503191
-0.503191
-0.503191
-0.503191
-0.503191
-0.503191
-0.503191
-0.503191
-0.503191
-0.503191
-0.503192
-0.503192
-0.503192
-0.503192
-0.503192
-0.503192
-0.503192
-0.503192
-0.503192
-0.503192
-0.503192
-0.503192
-0.503193
-0.503193
-0.503193
-0.503193
-0.503193
-0.503193
-0.503193
-0.503193
-0.503193
-0.503193
-0.503194
-0.503194
-0.503194
-0.503194
-0.503194
-0.503194
-0.503194
-0.503194
-0.503195
-0.503195
-0.503195
-0.503195
-0.503195
-0.503195
-0.503195
-0.503195
-0.503196
-0.503196
-0.503196
-0.503196
-0.503196
-0.503196
-0.525538
-0.525538
-0.525539
-0.525539
-0.525539
-0.525539
-0.525539
-0.525539
-0.525539
-0.525539
-0.525539
-0.525539
-0.525539
-0.525539
-0.525539
-0.52554
-0.52554
-0.52554
-0.52554
-0.52554
-0.52554
-0.52554
-0.52554
-0.52554
-0.52554
-0.52554
-0.52554
-0.52554
-0.525541
-0.525541
-0.525541
-0.525541
-0.525541
-0.525541
-0.525541
-0.525541
-0.525541
-0.525541
-0.525541
-0.525541
-0.525541
-0.525542
-0.525542
-0.525542