/*--------------------------------*- C++ -*----------------------------------*\
| =========                 |                                                 |
| \\      /  F ield         | OpenFOAM: The Open Source CFD Toolbox           |
|  \\    /   O peration     | Version:  2.4.0                                 |
|   \\  /    A nd           | Web:      www.OpenFOAM.org                      |
|    \\/     M anipulation  |                                                 |
\*---------------------------------------------------------------------------*/
FoamFile
{
    version     2.0;
    format      ascii;
    class       volScalarField;
    location    "4.9";
    object      p;
}
// * * * * * * * * * * * * * * * * * * * * * * * * * * * * * * * * * * * * * //

dimensions      [1 -1 -2 0 0 0 0];

internalField   nonuniform List<scalar> 
125
(
-0.0182387
-0.0182379
-0.0182329
-0.0182346
-0.0182393
-0.0138087
-0.0138095
-0.0138132
-0.0138119
-0.0138082
-0.0152919
-0.0152919
-0.0152924
-0.0152922
-0.0152919
-0.0163663
-0.0163662
-0.0163658
-0.016366
-0.0163663
-0.0170918
-0.0170917
-0.0170915
-0.0170916
-0.0170918
-0.0177432
-0.0177432
-0.0177431
-0.0177432
-0.0177432
-0.0184164
-0.0184164
-0.0184164
-0.0184164
-0.0184164
-0.019111
-0.019111
-0.0191109
-0.0191109
-0.019111
-0.0198163
-0.0198163
-0.0198162
-0.0198163
-0.0198163
-0.020529
-0.0205289
-0.0205289
-0.0205289
-0.020529
-0.021249
-0.021249
-0.0212489
-0.021249
-0.021249
-0.021977
-0.021977
-0.0219769
-0.0219769
-0.021977
-0.0227131
-0.0227131
-0.022713
-0.022713
-0.0227131
-0.0234574
-0.0234574
-0.0234573
-0.0234574
-0.0234574
-0.0242101
-0.02421
-0.02421
-0.02421
-0.0242101
-0.0249711
-0.0249711
-0.024971
-0.0249711
-0.0249711
-0.0257407
-0.0257406
-0.0257406
-0.0257406
-0.0257407
-0.0265188
-0.0265188
-0.0265187
-0.0265187
-0.0265188
-0.0273056
-0.0273056
-0.0273055
-0.0273055
-0.0273056
-0.0281012
-0.0281012
-0.0281011
-0.0281011
-0.0281012
-0.0289057
-0.0289056
-0.0289056
-0.0289056
-0.0289057
-0.0297191
-0.0297191
-0.029719
-0.0297191
-0.0297191
-0.0305416
-0.0305416
-0.0305416
-0.0305416
-0.0305416
-0.0313733
-0.0313733
-0.0313733
-0.0313733
-0.0313733
-0.0322143
-0.0322143
-0.0322143
-0.0322143
-0.0322143
)
;

boundaryField
{
    BotWall
    {
        type            calculated;
        value           nonuniform 0();
    }
    FreeStream
    {
        type            calculated;
        value           nonuniform 0();
    }
    FrontNBack
    {
        type            empty;
    }
    LeftSide
    {
        type            symmetryPlane;
    }
    RightSide
    {
        type            symmetryPlane;
    }
    procBoundary1to0
    {
        type            processor;
        value           nonuniform List<scalar> 5(-4.46427 -4.48225 -4.56053 -4.53255 -4.45243);
    }
    procBoundary1to2
    {
        type            processor;
        value           nonuniform List<scalar> 5(-0.0330647 -0.0330647 -0.0330646 -0.0330646 -0.0330647);
    }
}


// ************************************************************************* //
