/*--------------------------------*- C++ -*----------------------------------*\
| =========                 |                                                 |
| \\      /  F ield         | OpenFOAM: The Open Source CFD Toolbox           |
|  \\    /   O peration     | Version:  2.4.0                                 |
|   \\  /    A nd           | Web:      www.OpenFOAM.org                      |
|    \\/     M anipulation  |                                                 |
\*---------------------------------------------------------------------------*/
FoamFile
{
    version     2.0;
    format      ascii;
    class       surfaceScalarField;
    location    "4.9";
    object      phi;
}
// * * * * * * * * * * * * * * * * * * * * * * * * * * * * * * * * * * * * * //

dimensions      [0 3 -1 0 0 0 0];

internalField   nonuniform List<scalar> 
220
(
2.36775e-15
-1.87537e-10
3.05285e-15
-1.87558e-10
-1.08942e-15
-1.8762e-10
-3.59429e-15
-1.87594e-10
-1.87528e-10
2.32269e-15
-1.87539e-10
3.08029e-15
-1.87558e-10
-1.09027e-15
-1.87616e-10
-3.59328e-15
-1.87592e-10
-1.87532e-10
2.23159e-15
-1.87542e-10
2.89883e-15
-1.87559e-10
-1.01801e-15
-1.87612e-10
-3.38074e-15
-1.87589e-10
-1.87535e-10
2.13416e-15
-1.87544e-10
2.75886e-15
-1.8756e-10
-9.59815e-16
-1.87608e-10
-3.20603e-15
-1.87587e-10
-1.87538e-10
2.03787e-15
-1.87546e-10
2.64042e-15
-1.8756e-10
-9.09401e-16
-1.87604e-10
-3.05212e-15
-1.87585e-10
-1.87541e-10
1.94325e-15
-1.87548e-10
2.52565e-15
-1.87561e-10
-8.60629e-16
-1.87601e-10
-2.90254e-15
-1.87583e-10
-1.87544e-10
1.84931e-15
-1.8755e-10
2.4104e-15
-1.87561e-10
-8.11931e-16
-1.87598e-10
-2.7534e-15
-1.87581e-10
-1.87547e-10
1.75597e-15
-1.87551e-10
2.2955e-15
-1.87562e-10
-7.63556e-16
-1.87595e-10
-2.6056e-15
-1.87579e-10
-1.8755e-10
1.66336e-15
-1.87553e-10
2.1818e-15
-1.87562e-10
-7.15827e-16
-1.87592e-10
-2.45998e-15
-1.87577e-10
-1.87552e-10
1.57162e-15
-1.87555e-10
2.06958e-15
-1.87563e-10
-6.68867e-16
-1.87589e-10
-2.31677e-15
-1.87576e-10
-1.87555e-10
1.48083e-15
-1.87556e-10
1.9589e-15
-1.87563e-10
-6.22711e-16
-1.87586e-10
-2.17604e-15
-1.87574e-10
-1.87557e-10
1.39108e-15
-1.87557e-10
1.84982e-15
-1.87564e-10
-5.7739e-16
-1.87584e-10
-2.03787e-15
-1.87573e-10
-1.87559e-10
1.30249e-15
-1.87559e-10
1.74244e-15
-1.87564e-10
-5.32942e-16
-1.87582e-10
-1.90236e-15
-1.87571e-10
-1.87561e-10
1.21515e-15
-1.8756e-10
1.63684e-15
-1.87565e-10
-4.89411e-16
-1.8758e-10
-1.76962e-15
-1.8757e-10
-1.87562e-10
1.12916e-15
-1.87561e-10
1.53312e-15
-1.87565e-10
-4.46839e-16
-1.87578e-10
-1.63975e-15
-1.87569e-10
-1.87564e-10
1.04464e-15
-1.87562e-10
1.43138e-15
-1.87566e-10
-4.05268e-16
-1.87576e-10
-1.51285e-15
-1.87568e-10
-1.87566e-10
9.61671e-16
-1.87563e-10
1.3317e-15
-1.87566e-10
-3.6474e-16
-1.87574e-10
-1.38904e-15
-1.87567e-10
-1.87567e-10
8.80367e-16
-1.87564e-10
1.23419e-15
-1.87566e-10
-3.25293e-16
-1.87573e-10
-1.2684e-15
-1.87566e-10
-1.87568e-10
8.00826e-16
-1.87565e-10
1.13893e-15
-1.87567e-10
-2.86967e-16
-1.87571e-10
-1.15103e-15
-1.87565e-10
-1.87569e-10
7.2315e-16
-1.87565e-10
1.04602e-15
-1.87567e-10
-2.498e-16
-1.8757e-10
-1.03702e-15
-1.87564e-10
-1.8757e-10
6.47438e-16
-1.87566e-10
9.55548e-16
-1.87567e-10
-2.13827e-16
-1.87569e-10
-9.26473e-16
-1.87563e-10
-1.87571e-10
5.73789e-16
-1.87567e-10
8.67595e-16
-1.87568e-10
-1.79085e-16
-1.87568e-10
-8.1947e-16
-1.87563e-10
-1.87572e-10
5.023e-16
-1.87567e-10
7.82251e-16
-1.87568e-10
-1.45606e-16
-1.87567e-10
-7.16094e-16
-1.87562e-10
-1.87573e-10
4.33065e-16
-1.87568e-10
6.996e-16
-1.87568e-10
-1.13424e-16
-1.87566e-10
-6.16418e-16
-1.87562e-10
-1.87573e-10
3.66179e-16
6.19723e-16
-8.25674e-17
-5.20532e-16
)
;

boundaryField
{
    BotWall
    {
        type            calculated;
        value           nonuniform 0();
    }
    FreeStream
    {
        type            calculated;
        value           nonuniform 0();
    }
    FrontNBack
    {
        type            empty;
        value           nonuniform 0();
    }
    LeftSide
    {
        type            symmetryPlane;
        value           uniform 0;
    }
    RightSide
    {
        type            symmetryPlane;
        value           uniform 0;
    }
    procBoundary1to0
    {
        type            processor;
        value           nonuniform List<scalar> 5(1.87535e-10 1.87557e-10 1.87624e-10 1.87597e-10 1.87525e-10);
    }
    procBoundary1to2
    {
        type            processor;
        value           nonuniform List<scalar> 5(-1.87568e-10 -1.87568e-10 -1.87565e-10 -1.87561e-10 -1.87574e-10);
    }
}


// ************************************************************************* //
