/*--------------------------------*- C++ -*----------------------------------*\
| =========                 |                                                 |
| \\      /  F ield         | OpenFOAM: The Open Source CFD Toolbox           |
|  \\    /   O peration     | Version:  2.4.0                                 |
|   \\  /    A nd           | Web:      www.OpenFOAM.org                      |
|    \\/     M anipulation  |                                                 |
\*---------------------------------------------------------------------------*/
FoamFile
{
    version     2.0;
    format      ascii;
    class       volScalarField;
    location    "0.004";
    object      H;
}
// * * * * * * * * * * * * * * * * * * * * * * * * * * * * * * * * * * * * * //

dimensions      [0 2 -2 0 0 0 0];

internalField   nonuniform List<scalar> 
125
(
-134.484
-125.964
-117.678
-109.656
-101.924
-94.5037
-87.4119
-80.6612
-74.2599
-68.2129
-62.5214
-57.1836
-52.1949
-47.548
-43.2338
-39.241
-35.5572
-32.1685
-29.0602
-26.217
-23.6232
-21.2628
-19.1201
-17.1793
-15.4251
-13.8428
-12.418
-11.1372
-9.98754
-8.95681
-8.03374
-7.20778
-6.46922
-5.80908
-5.21918
-4.69206
-4.22094
-3.79972
-3.4229
-3.08556
-2.7833
-2.5122
-2.26878
-2.04997
-1.85304
-1.67558
-1.51548
-1.37088
-1.24012
-1.12178
-1.01456
-0.91736
-0.829174
-0.74913
-0.676449
-0.610439
-0.550483
-0.496031
-0.446586
-0.401704
-0.360982
-0.324055
-0.290592
-0.260292
-0.23288
-0.208104
-0.185733
-0.165556
-0.147379
-0.131023
-0.116324
-0.103131
-0.0913065
-0.0807226
-0.0712626
-0.0628192
-0.0552943
-0.0485979
-0.0426479
-0.0373692
-0.0326933
-0.0285579
-0.0249063
-0.0216872
-0.0188539
-0.0163642
-0.0141802
-0.0122675
-0.0105952
-0.00913551
-0.00786369
-0.00675743
-0.00579685
-0.00496424
-0.00424382
-0.00362158
-0.00308511
-0.00262343
-0.00222683
-0.00188677
-0.00159572
-0.00134708
-0.00113508
-0.000954658
-0.000801402
-0.000671472
-0.000561533
-0.000468689
-0.000390436
-0.000324612
-0.000269353
-0.000223057
-0.000184348
-0.00015205
-0.000125155
-0.000102806
-8.42741e-05
-6.89388e-05
-5.62758e-05
-4.58417e-05
-3.72627e-05
-3.02242e-05
-2.44622e-05
-1.97554e-05
-1.59192e-05
)
;

boundaryField
{
    BotWall
    {
        type            zeroGradient;
    }
    FreeStream
    {
        type            zeroGradient;
    }
    FrontNBack
    {
        type            empty;
    }
    LeftSide
    {
        type            symmetryPlane;
    }
    RightSide
    {
        type            symmetryPlane;
    }
    procBoundary6to3
    {
        type            processor;
        value           nonuniform List<scalar> 
50
(
-0.0628502
-0.0553197
-0.0486185
-0.0426644
-0.0373822
-0.0327034
-0.0285656
-0.024912
-0.0216912
-0.0188566
-0.0163659
-0.014181
-0.0122676
-0.0105948
-0.00913474
-0.00786265
-0.00675621
-0.00579553
-0.00496286
-0.00424242
-0.00362021
-0.00308379
-0.00262217
-0.00222565
-0.00188566
-0.0015947
-0.00134615
-0.00113424
-0.000953897
-0.00080072
-0.000670865
-0.000560994
-0.000468213
-0.000390019
-0.000324247
-0.000269036
-0.000222782
-0.000184111
-0.000151846
-0.00012498
-0.000102657
-8.41474e-05
-6.88315e-05
-5.61852e-05
-4.57656e-05
-3.7199e-05
-3.01711e-05
-2.44181e-05
-1.97191e-05
-1.58894e-05
)
;
    }
    procBoundary6to4
    {
        type            processor;
        value           nonuniform List<scalar> 
75
(
-134.717
-126.161
-117.842
-109.789
-102.029
-94.5838
-87.4694
-80.6987
-74.28
-68.218
-62.5138
-57.1655
-52.1682
-47.5146
-43.1953
-39.1989
-35.5128
-32.1228
-29.0143
-26.1716
-23.5789
-21.2203
-19.0797
-17.1413
-15.3898
-13.8102
-12.3882
-11.1102
-9.96325
-8.93514
-8.01456
-7.19095
-6.45456
-5.79642
-5.20835
-4.68287
-4.21322
-3.79331
-3.41764
-3.0813
-2.7799
-2.50953
-2.26674
-2.04845
-1.85195
-1.67485
-1.51504
-1.37066
-1.24009
-1.12188
-1.01477
-0.917635
-0.829497
-0.749482
-0.676814
-0.610805
-0.550843
-0.496376
-0.446913
-0.402009
-0.361264
-0.324313
-0.290826
-0.260502
-0.233067
-0.20827
-0.185879
-0.165683
-0.147489
-0.131117
-0.116404
-0.103199
-0.0913633
-0.0807695
-0.0713007
)
;
    }
    procBoundary6to5
    {
        type            processor;
        value           uniform -1.27997e-05;
    }
    procBoundary6to7
    {
        type            processor;
        value           uniform -143.201;
    }
    procBoundary6to8
    {
        type            processor;
        value           nonuniform List<scalar> 
75
(
-0.982221
-0.88944
-0.805024
-0.728193
-0.658253
-0.594584
-0.536632
-0.483898
-0.435931
-0.392323
-0.352704
-0.316735
-0.284108
-0.25454
-0.22777
-0.203559
-0.181689
-0.161955
-0.144172
-0.128167
-0.113781
-0.100869
-0.0892948
-0.078935
-0.0696756
-0.0614118
-0.0540476
-0.047495
-0.0416735
-0.0365095
-0.031936
-0.0278918
-0.0243213
-0.0211743
-0.0184049
-0.0159719
-0.013838
-0.0119694
-0.0103361
-0.00891068
-0.00766894
-0.00658904
-0.00565153
-0.00483905
-0.00413617
-0.0035292
-0.00300598
-0.00255578
-0.0021691
-0.0018376
-0.00155392
-0.00131163
-0.00110506
-0.000929293
-0.000780012
-0.000653471
-0.000546413
-0.000456016
-0.000379836
-0.000315764
-0.000261983
-0.000216931
-0.000179267
-0.000147844
-0.000121681
-9.99433e-05
-8.19196e-05
-6.70069e-05
-5.46941e-05
-4.45497e-05
-3.62097e-05
-2.9368e-05
-2.37676e-05
-1.91933e-05
-1.54655e-05
)
;
    }
    procBoundary6to9
    {
        type            processor;
        value           nonuniform List<scalar> 
50
(
-136.964
-127.837
-118.998
-110.477
-102.301
-94.4904
-87.0599
-80.0202
-73.3775
-67.1335
-61.2863
-55.8306
-50.7583
-46.0586
-41.7186
-37.7236
-34.0576
-30.7036
-27.6438
-24.8601
-22.3341
-20.0476
-17.9827
-16.1218
-14.4482
-12.9456
-11.5987
-10.393
-9.31493
-8.35193
-7.49229
-6.72528
-6.04105
-5.43066
-4.886
-4.39976
-3.96537
-3.57697
-3.22931
-2.91774
-2.63816
-2.38692
-2.16083
-1.95707
-1.77316
-1.60694
-1.45651
-1.3202
-1.19654
-1.08426
)
;
    }
}


// ************************************************************************* //
