/*--------------------------------*- C++ -*----------------------------------*\
| =========                 |                                                 |
| \\      /  F ield         | OpenFOAM: The Open Source CFD Toolbox           |
|  \\    /   O peration     | Version:  2.4.0                                 |
|   \\  /    A nd           | Web:      www.OpenFOAM.org                      |
|    \\/     M anipulation  |                                                 |
\*---------------------------------------------------------------------------*/
FoamFile
{
    version     2.0;
    format      ascii;
    class       surfaceScalarField;
    location    "0.004";
    object      phi;
}
// * * * * * * * * * * * * * * * * * * * * * * * * * * * * * * * * * * * * * //

dimensions      [0 3 -1 0 0 0 0];

internalField   nonuniform List<scalar> 
124
(
-5.16207e-09
-5.16192e-09
-5.16177e-09
-5.16163e-09
-5.1615e-09
-5.16136e-09
-5.16123e-09
-5.16111e-09
-5.16099e-09
-5.16087e-09
-5.16076e-09
-5.16065e-09
-5.16055e-09
-5.16044e-09
-5.16035e-09
-5.16025e-09
-5.16016e-09
-5.16008e-09
-5.15999e-09
-5.15991e-09
-5.15983e-09
-5.15975e-09
-5.15968e-09
-5.15961e-09
-5.15953e-09
-5.15946e-09
-5.15939e-09
-5.15933e-09
-5.15926e-09
-5.1592e-09
-5.15913e-09
-5.15907e-09
-5.15901e-09
-5.15894e-09
-5.15888e-09
-5.15882e-09
-5.15876e-09
-5.1587e-09
-5.15864e-09
-5.15858e-09
-5.15853e-09
-5.15847e-09
-5.15841e-09
-5.15835e-09
-5.1583e-09
-5.15824e-09
-5.15818e-09
-5.15813e-09
-5.15807e-09
-5.15802e-09
-5.15796e-09
-5.15791e-09
-5.15785e-09
-5.1578e-09
-5.15774e-09
-5.15769e-09
-5.15764e-09
-5.15758e-09
-5.15753e-09
-5.15748e-09
-5.15743e-09
-5.15737e-09
-5.15732e-09
-5.15727e-09
-5.15722e-09
-5.15717e-09
-5.15712e-09
-5.15707e-09
-5.15702e-09
-5.15697e-09
-5.15692e-09
-5.15687e-09
-5.15682e-09
-5.15677e-09
-5.15672e-09
-5.15668e-09
-5.15663e-09
-5.15658e-09
-5.15653e-09
-5.15649e-09
-5.15644e-09
-5.1564e-09
-5.15635e-09
-5.1563e-09
-5.15626e-09
-5.15621e-09
-5.15617e-09
-5.15612e-09
-5.15608e-09
-5.15604e-09
-5.15599e-09
-5.15595e-09
-5.15591e-09
-5.15586e-09
-5.15582e-09
-5.15578e-09
-5.15574e-09
-5.1557e-09
-5.15565e-09
-5.15561e-09
-5.15557e-09
-5.15553e-09
-5.15549e-09
-5.15545e-09
-5.15541e-09
-5.15537e-09
-5.15533e-09
-5.15529e-09
-5.15526e-09
-5.15522e-09
-5.15518e-09
-5.15514e-09
-5.1551e-09
-5.15507e-09
-5.15503e-09
-5.15499e-09
-5.15495e-09
-5.15492e-09
-5.15488e-09
-5.15485e-09
-5.15481e-09
-5.15477e-09
-5.15474e-09
-5.1547e-09
)
;

boundaryField
{
    BotWall
    {
        type            calculated;
        value           nonuniform 0();
    }
    FreeStream
    {
        type            calculated;
        value           nonuniform 0();
    }
    FrontNBack
    {
        type            empty;
        value           nonuniform 0();
    }
    LeftSide
    {
        type            symmetryPlane;
        value           nonuniform 0();
    }
    RightSide
    {
        type            symmetryPlane;
        value           nonuniform 0();
    }
    procBoundary6to3
    {
        type            processor;
        value           nonuniform List<scalar> 
50
(
-4.81724e-15
-4.8376e-15
-4.85944e-15
-4.88274e-15
-4.90751e-15
-4.93373e-15
-4.96138e-15
-4.99047e-15
-5.02098e-15
-5.05288e-15
-5.08617e-15
-5.12082e-15
-5.15681e-15
-5.19412e-15
-5.23271e-15
-5.27256e-15
-5.31364e-15
-5.35592e-15
-5.39935e-15
-5.4439e-15
-5.48952e-15
-5.53618e-15
-5.58384e-15
-5.63243e-15
-5.68191e-15
-5.73224e-15
-5.78335e-15
-5.83519e-15
-5.8877e-15
-5.94083e-15
-5.9945e-15
-6.04866e-15
-6.10323e-15
-6.15816e-15
-6.21338e-15
-6.26881e-15
-6.32438e-15
-6.38002e-15
-6.43567e-15
-6.49123e-15
-6.54665e-15
-6.60185e-15
-6.65675e-15
-6.71128e-15
-6.76536e-15
-6.81892e-15
-6.87188e-15
-6.92417e-15
-6.97572e-15
-7.02644e-15
)
;
    }
    procBoundary6to4
    {
        type            processor;
        value           nonuniform List<scalar> 
75
(
-1.48284e-14
-1.44053e-14
-1.39464e-14
-1.34604e-14
-1.29554e-14
-1.24391e-14
-1.19184e-14
-1.13998e-14
-1.08891e-14
-1.03911e-14
-9.91008e-15
-9.44959e-15
-9.01237e-15
-8.6005e-15
-8.21541e-15
-7.85795e-15
-7.52841e-15
-7.22664e-15
-6.95204e-15
-6.70368e-15
-6.48037e-15
-6.28067e-15
-6.103e-15
-5.94568e-15
-5.80697e-15
-5.68509e-15
-5.57834e-15
-5.48504e-15
-5.4036e-15
-5.33253e-15
-5.27043e-15
-5.21605e-15
-5.16825e-15
-5.12602e-15
-5.08847e-15
-5.05482e-15
-5.02441e-15
-4.99669e-15
-4.97119e-15
-4.94754e-15
-4.92542e-15
-4.90461e-15
-4.88492e-15
-4.86622e-15
-4.84842e-15
-4.83145e-15
-4.81529e-15
-4.79994e-15
-4.78538e-15
-4.77166e-15
-4.75879e-15
-4.74682e-15
-4.73577e-15
-4.72569e-15
-4.71661e-15
-4.70859e-15
-4.70167e-15
-4.69587e-15
-4.69125e-15
-4.68783e-15
-4.68565e-15
-4.68474e-15
-4.68513e-15
-4.68685e-15
-4.68991e-15
-4.69434e-15
-4.70016e-15
-4.70738e-15
-4.71602e-15
-4.7261e-15
-4.73761e-15
-4.75059e-15
-4.76503e-15
-4.78095e-15
-4.79835e-15
)
;
    }
    procBoundary6to5
    {
        type            processor;
        value           uniform -5.15467e-09;
    }
    procBoundary6to7
    {
        type            processor;
        value           uniform 5.16222e-09;
    }
    procBoundary6to8
    {
        type            processor;
        value           nonuniform List<scalar> 
75
(
-5.03637e-14
-5.00813e-14
-4.98e-14
-4.95191e-14
-4.92381e-14
-4.89568e-14
-4.86749e-14
-4.83919e-14
-4.81078e-14
-4.78225e-14
-4.75357e-14
-4.72474e-14
-4.69575e-14
-4.6666e-14
-4.63729e-14
-4.60781e-14
-4.57818e-14
-4.54838e-14
-4.51842e-14
-4.4883e-14
-4.45803e-14
-4.42762e-14
-4.39707e-14
-4.36638e-14
-4.33556e-14
-4.30462e-14
-4.27356e-14
-4.24238e-14
-4.21111e-14
-4.17973e-14
-4.14827e-14
-4.11672e-14
-4.0851e-14
-4.0534e-14
-4.02164e-14
-3.98983e-14
-3.95797e-14
-3.92607e-14
-3.89413e-14
-3.86217e-14
-3.83019e-14
-3.79819e-14
-3.76619e-14
-3.7342e-14
-3.70221e-14
-3.67024e-14
-3.63829e-14
-3.60638e-14
-3.5745e-14
-3.54266e-14
-3.51088e-14
-3.47916e-14
-3.4475e-14
-3.41592e-14
-3.38442e-14
-3.35301e-14
-3.32169e-14
-3.29047e-14
-3.25937e-14
-3.22838e-14
-3.19751e-14
-3.16677e-14
-3.13617e-14
-3.1057e-14
-3.07539e-14
-3.04523e-14
-3.01523e-14
-2.9854e-14
-2.95573e-14
-2.92625e-14
-2.89694e-14
-2.86783e-14
-2.83891e-14
-2.81018e-14
-2.78165e-14
)
;
    }
    procBoundary6to9
    {
        type            processor;
        value           nonuniform List<scalar> 
50
(
-1.36535e-13
-1.33989e-13
-1.31106e-13
-1.27947e-13
-1.24568e-13
-1.21024e-13
-1.17365e-13
-1.13639e-13
-1.09889e-13
-1.06154e-13
-1.0247e-13
-9.88657e-14
-9.53674e-14
-9.19964e-14
-8.87697e-14
-8.57007e-14
-8.27988e-14
-8.00699e-14
-7.75171e-14
-7.51405e-14
-7.29379e-14
-7.09052e-14
-6.90365e-14
-6.73244e-14
-6.57608e-14
-6.43365e-14
-6.3042e-14
-6.18675e-14
-6.08031e-14
-5.98391e-14
-5.89659e-14
-5.81745e-14
-5.7456e-14
-5.68024e-14
-5.62061e-14
-5.56599e-14
-5.51576e-14
-5.46932e-14
-5.42615e-14
-5.38577e-14
-5.34778e-14
-5.31179e-14
-5.27749e-14
-5.24458e-14
-5.21282e-14
-5.182e-14
-5.15193e-14
-5.12246e-14
-5.09345e-14
-5.06479e-14
)
;
    }
}


// ************************************************************************* //
