/*--------------------------------*- C++ -*----------------------------------*\
| =========                 |                                                 |
| \\      /  F ield         | OpenFOAM: The Open Source CFD Toolbox           |
|  \\    /   O peration     | Version:  2.4.0                                 |
|   \\  /    A nd           | Web:      www.OpenFOAM.org                      |
|    \\/     M anipulation  |                                                 |
\*---------------------------------------------------------------------------*/
FoamFile
{
    version     2.0;
    format      ascii;
    class       volVectorField;
    location    "0.004";
    object      U;
}
// * * * * * * * * * * * * * * * * * * * * * * * * * * * * * * * * * * * * * //

dimensions      [0 1 -1 0 0 0 0];

internalField   nonuniform List<vector> 
125
(
(-0.000164531 -0.0258107 0)
(-0.000160344 -0.02581 0)
(-0.000155779 -0.0258092 0)
(-0.000150915 -0.0258085 0)
(-0.000145829 -0.0258078 0)
(-0.000140592 -0.0258071 0)
(-0.00013527 -0.0258065 0)
(-0.000129924 -0.0258058 0)
(-0.000124606 -0.0258052 0)
(-0.000119365 -0.0258046 0)
(-0.000114244 -0.0258041 0)
(-0.000109276 -0.0258035 0)
(-0.000104491 -0.025803 0)
(-9.99122e-05 -0.0258025 0)
(-9.55577e-05 -0.025802 0)
(-9.144e-05 -0.0258015 0)
(-8.75668e-05 -0.025801 0)
(-8.39418e-05 -0.0258006 0)
(-8.05648e-05 -0.0258002 0)
(-7.74323e-05 -0.0257998 0)
(-7.45383e-05 -0.0257993 0)
(-7.18742e-05 -0.025799 0)
(-6.94298e-05 -0.0257986 0)
(-6.71932e-05 -0.0257982 0)
(-6.51519e-05 -0.0257978 0)
(-6.32925e-05 -0.0257975 0)
(-6.16014e-05 -0.0257971 0)
(-6.00647e-05 -0.0257968 0)
(-5.86691e-05 -0.0257965 0)
(-5.74013e-05 -0.0257961 0)
(-5.62487e-05 -0.0257958 0)
(-5.51994e-05 -0.0257955 0)
(-5.42421e-05 -0.0257952 0)
(-5.33663e-05 -0.0257949 0)
(-5.25625e-05 -0.0257946 0)
(-5.18217e-05 -0.0257943 0)
(-5.11361e-05 -0.025794 0)
(-5.04984e-05 -0.0257937 0)
(-4.99021e-05 -0.0257934 0)
(-4.93416e-05 -0.0257931 0)
(-4.88117e-05 -0.0257928 0)
(-4.83081e-05 -0.0257925 0)
(-4.78268e-05 -0.0257922 0)
(-4.73644e-05 -0.0257919 0)
(-4.69181e-05 -0.0257916 0)
(-4.64853e-05 -0.0257913 0)
(-4.60638e-05 -0.0257911 0)
(-4.56518e-05 -0.0257908 0)
(-4.52477e-05 -0.0257905 0)
(-4.48502e-05 -0.0257902 0)
(-4.44582e-05 -0.0257899 0)
(-4.40706e-05 -0.0257897 0)
(-4.36868e-05 -0.0257894 0)
(-4.33061e-05 -0.0257891 0)
(-4.29278e-05 -0.0257888 0)
(-4.25515e-05 -0.0257886 0)
(-4.21769e-05 -0.0257883 0)
(-4.18037e-05 -0.025788 0)
(-4.14315e-05 -0.0257878 0)
(-4.10602e-05 -0.0257875 0)
(-4.06895e-05 -0.0257873 0)
(-4.03195e-05 -0.025787 0)
(-3.99499e-05 -0.0257867 0)
(-3.95807e-05 -0.0257865 0)
(-3.92118e-05 -0.0257862 0)
(-3.88432e-05 -0.025786 0)
(-3.84749e-05 -0.0257857 0)
(-3.81068e-05 -0.0257855 0)
(-3.77389e-05 -0.0257852 0)
(-3.73714e-05 -0.025785 0)
(-3.7004e-05 -0.0257847 0)
(-3.6637e-05 -0.0257845 0)
(-3.62703e-05 -0.0257842 0)
(-3.59039e-05 -0.025784 0)
(-3.55379e-05 -0.0257837 0)
(-3.51723e-05 -0.0257835 0)
(-3.48072e-05 -0.0257833 0)
(-3.44426e-05 -0.025783 0)
(-3.40786e-05 -0.0257828 0)
(-3.37151e-05 -0.0257826 0)
(-3.33523e-05 -0.0257823 0)
(-3.29902e-05 -0.0257821 0)
(-3.26289e-05 -0.0257819 0)
(-3.22684e-05 -0.0257816 0)
(-3.19087e-05 -0.0257814 0)
(-3.15499e-05 -0.0257812 0)
(-3.11922e-05 -0.025781 0)
(-3.08354e-05 -0.0257807 0)
(-3.04798e-05 -0.0257805 0)
(-3.01252e-05 -0.0257803 0)
(-2.97719e-05 -0.0257801 0)
(-2.94199e-05 -0.0257799 0)
(-2.90692e-05 -0.0257796 0)
(-2.87198e-05 -0.0257794 0)
(-2.83719e-05 -0.0257792 0)
(-2.80255e-05 -0.025779 0)
(-2.76807e-05 -0.0257788 0)
(-2.73375e-05 -0.0257786 0)
(-2.6996e-05 -0.0257784 0)
(-2.66562e-05 -0.0257782 0)
(-2.63182e-05 -0.025778 0)
(-2.59821e-05 -0.0257778 0)
(-2.56479e-05 -0.0257776 0)
(-2.53157e-05 -0.0257774 0)
(-2.49856e-05 -0.0257772 0)
(-2.46576e-05 -0.025777 0)
(-2.43317e-05 -0.0257768 0)
(-2.40081e-05 -0.0257766 0)
(-2.36868e-05 -0.0257764 0)
(-2.33678e-05 -0.0257762 0)
(-2.30512e-05 -0.025776 0)
(-2.27371e-05 -0.0257758 0)
(-2.24256e-05 -0.0257756 0)
(-2.21166e-05 -0.0257754 0)
(-2.18102e-05 -0.0257752 0)
(-2.15066e-05 -0.025775 0)
(-2.12056e-05 -0.0257749 0)
(-2.09075e-05 -0.0257747 0)
(-2.06122e-05 -0.0257745 0)
(-2.03198e-05 -0.0257743 0)
(-2.00303e-05 -0.0257741 0)
(-1.97438e-05 -0.025774 0)
(-1.94603e-05 -0.0257738 0)
(-1.91799e-05 -0.0257736 0)
(-1.89025e-05 -0.0257734 0)
)
;

boundaryField
{
    BotWall
    {
        type            fixedValue;
        value           nonuniform 0();
    }
    FreeStream
    {
        type            zeroGradient;
    }
    FrontNBack
    {
        type            empty;
    }
    LeftSide
    {
        type            symmetryPlane;
    }
    RightSide
    {
        type            symmetryPlane;
    }
    procBoundary6to3
    {
        type            processor;
        value           nonuniform List<vector> 
50
(
(4.2522e-05 -0.0257775 0)
(4.21612e-05 -0.0257773 0)
(4.18029e-05 -0.0257771 0)
(4.14472e-05 -0.0257769 0)
(4.10941e-05 -0.0257767 0)
(4.07437e-05 -0.0257765 0)
(4.03959e-05 -0.0257763 0)
(4.00508e-05 -0.0257762 0)
(3.97083e-05 -0.025776 0)
(3.93686e-05 -0.0257758 0)
(3.90315e-05 -0.0257756 0)
(3.86971e-05 -0.0257754 0)
(3.83654e-05 -0.0257752 0)
(3.80365e-05 -0.025775 0)
(3.77102e-05 -0.0257748 0)
(3.73866e-05 -0.0257747 0)
(3.70657e-05 -0.0257745 0)
(3.67476e-05 -0.0257743 0)
(3.6432e-05 -0.0257741 0)
(3.61192e-05 -0.0257739 0)
(3.5809e-05 -0.0257738 0)
(3.55015e-05 -0.0257736 0)
(3.51966e-05 -0.0257734 0)
(3.48943e-05 -0.0257732 0)
(3.45946e-05 -0.0257731 0)
(3.42974e-05 -0.0257729 0)
(3.40028e-05 -0.0257727 0)
(3.37107e-05 -0.0257725 0)
(3.34211e-05 -0.0257724 0)
(3.3134e-05 -0.0257722 0)
(3.28493e-05 -0.025772 0)
(3.2567e-05 -0.0257719 0)
(3.2287e-05 -0.0257717 0)
(3.20094e-05 -0.0257716 0)
(3.17341e-05 -0.0257714 0)
(3.14611e-05 -0.0257712 0)
(3.11903e-05 -0.0257711 0)
(3.09216e-05 -0.0257709 0)
(3.06552e-05 -0.0257708 0)
(3.03908e-05 -0.0257706 0)
(3.01285e-05 -0.0257705 0)
(2.98682e-05 -0.0257703 0)
(2.961e-05 -0.0257702 0)
(2.93537e-05 -0.02577 0)
(2.90992e-05 -0.0257699 0)
(2.88467e-05 -0.0257697 0)
(2.85959e-05 -0.0257696 0)
(2.8347e-05 -0.0257694 0)
(2.80998e-05 -0.0257693 0)
(2.78543e-05 -0.0257691 0)
)
;
    }
    procBoundary6to4
    {
        type            processor;
        value           nonuniform List<vector> 
75
(
(0.000194124 -0.0258021 0)
(0.000188989 -0.0258013 0)
(0.000183411 -0.0258006 0)
(0.000177488 -0.0257998 0)
(0.000171313 -0.0257991 0)
(0.000164973 -0.0257984 0)
(0.000158547 -0.0257978 0)
(0.000152107 -0.0257971 0)
(0.00014572 -0.0257965 0)
(0.000139442 -0.0257959 0)
(0.000133323 -0.0257954 0)
(0.000127404 -0.0257948 0)
(0.000121719 -0.0257943 0)
(0.000116295 -0.0257938 0)
(0.000111151 -0.0257933 0)
(0.000106303 -0.0257929 0)
(0.000101756 -0.0257925 0)
(9.75142e-05 -0.025792 0)
(9.35755e-05 -0.0257917 0)
(8.99341e-05 -0.0257913 0)
(8.6581e-05 -0.0257909 0)
(8.35047e-05 -0.0257906 0)
(8.06914e-05 -0.0257902 0)
(7.81258e-05 -0.0257899 0)
(7.57917e-05 -0.0257896 0)
(7.36722e-05 -0.0257893 0)
(7.17501e-05 -0.025789 0)
(7.00083e-05 -0.0257887 0)
(6.84303e-05 -0.0257884 0)
(6.69998e-05 -0.0257881 0)
(6.57017e-05 -0.0257878 0)
(6.45216e-05 -0.0257876 0)
(6.34459e-05 -0.0257873 0)
(6.24624e-05 -0.025787 0)
(6.15597e-05 -0.0257868 0)
(6.07275e-05 -0.0257865 0)
(5.99567e-05 -0.0257863 0)
(5.92389e-05 -0.025786 0)
(5.85669e-05 -0.0257858 0)
(5.79343e-05 -0.0257855 0)
(5.73355e-05 -0.0257853 0)
(5.67655e-05 -0.025785 0)
(5.62201e-05 -0.0257848 0)
(5.56957e-05 -0.0257845 0)
(5.51892e-05 -0.0257843 0)
(5.46979e-05 -0.0257841 0)
(5.42197e-05 -0.0257838 0)
(5.37526e-05 -0.0257836 0)
(5.3295e-05 -0.0257834 0)
(5.28457e-05 -0.0257831 0)
(5.24036e-05 -0.0257829 0)
(5.19677e-05 -0.0257827 0)
(5.15372e-05 -0.0257825 0)
(5.11117e-05 -0.0257822 0)
(5.06905e-05 -0.025782 0)
(5.02733e-05 -0.0257818 0)
(4.98596e-05 -0.0257816 0)
(4.94494e-05 -0.0257813 0)
(4.90423e-05 -0.0257811 0)
(4.86381e-05 -0.0257809 0)
(4.82368e-05 -0.0257807 0)
(4.78381e-05 -0.0257805 0)
(4.74421e-05 -0.0257802 0)
(4.70487e-05 -0.02578 0)
(4.66578e-05 -0.0257798 0)
(4.62695e-05 -0.0257796 0)
(4.58835e-05 -0.0257794 0)
(4.55001e-05 -0.0257792 0)
(4.51191e-05 -0.025779 0)
(4.47406e-05 -0.0257788 0)
(4.43646e-05 -0.0257786 0)
(4.39911e-05 -0.0257783 0)
(4.362e-05 -0.0257781 0)
(4.32515e-05 -0.0257779 0)
(4.28855e-05 -0.0257777 0)
)
;
    }
    procBoundary6to5
    {
        type            processor;
        value           uniform (-1.86283e-05 -0.0257733 0);
    }
    procBoundary6to7
    {
        type            processor;
        value           uniform (-0.000168255 -0.0258115 0);
    }
    procBoundary6to8
    {
        type            processor;
        value           nonuniform List<vector> 
75
(
(-3.93049e-05 -0.0257202 0)
(-3.89197e-05 -0.0257204 0)
(-3.8537e-05 -0.0257207 0)
(-3.81566e-05 -0.025721 0)
(-3.77781e-05 -0.0257212 0)
(-3.74014e-05 -0.0257215 0)
(-3.70265e-05 -0.0257217 0)
(-3.6653e-05 -0.025722 0)
(-3.62811e-05 -0.0257222 0)
(-3.59106e-05 -0.0257225 0)
(-3.55416e-05 -0.0257228 0)
(-3.51739e-05 -0.025723 0)
(-3.48077e-05 -0.0257233 0)
(-3.4443e-05 -0.0257235 0)
(-3.40797e-05 -0.0257237 0)
(-3.37179e-05 -0.025724 0)
(-3.33577e-05 -0.0257242 0)
(-3.29991e-05 -0.0257245 0)
(-3.26422e-05 -0.0257247 0)
(-3.22869e-05 -0.025725 0)
(-3.19334e-05 -0.0257252 0)
(-3.15817e-05 -0.0257254 0)
(-3.12319e-05 -0.0257257 0)
(-3.0884e-05 -0.0257259 0)
(-3.05381e-05 -0.0257261 0)
(-3.01942e-05 -0.0257264 0)
(-2.98523e-05 -0.0257266 0)
(-2.95126e-05 -0.0257268 0)
(-2.91751e-05 -0.0257271 0)
(-2.88398e-05 -0.0257273 0)
(-2.85067e-05 -0.0257275 0)
(-2.8176e-05 -0.0257277 0)
(-2.78477e-05 -0.025728 0)
(-2.75217e-05 -0.0257282 0)
(-2.71982e-05 -0.0257284 0)
(-2.68771e-05 -0.0257286 0)
(-2.65586e-05 -0.0257288 0)
(-2.62426e-05 -0.0257291 0)
(-2.59292e-05 -0.0257293 0)
(-2.56184e-05 -0.0257295 0)
(-2.53102e-05 -0.0257297 0)
(-2.50047e-05 -0.0257299 0)
(-2.47019e-05 -0.0257301 0)
(-2.44017e-05 -0.0257303 0)
(-2.41043e-05 -0.0257305 0)
(-2.38097e-05 -0.0257307 0)
(-2.35178e-05 -0.0257309 0)
(-2.32287e-05 -0.0257311 0)
(-2.29424e-05 -0.0257313 0)
(-2.26588e-05 -0.0257315 0)
(-2.23782e-05 -0.0257317 0)
(-2.21003e-05 -0.0257319 0)
(-2.18252e-05 -0.0257321 0)
(-2.1553e-05 -0.0257323 0)
(-2.12837e-05 -0.0257325 0)
(-2.10172e-05 -0.0257327 0)
(-2.07535e-05 -0.0257329 0)
(-2.04927e-05 -0.0257331 0)
(-2.02347e-05 -0.0257333 0)
(-1.99795e-05 -0.0257334 0)
(-1.97272e-05 -0.0257336 0)
(-1.94777e-05 -0.0257338 0)
(-1.9231e-05 -0.025734 0)
(-1.89871e-05 -0.0257342 0)
(-1.8746e-05 -0.0257343 0)
(-1.85077e-05 -0.0257345 0)
(-1.82721e-05 -0.0257347 0)
(-1.80393e-05 -0.0257348 0)
(-1.78092e-05 -0.025735 0)
(-1.75818e-05 -0.0257352 0)
(-1.73572e-05 -0.0257353 0)
(-1.71352e-05 -0.0257355 0)
(-1.69159e-05 -0.0257357 0)
(-1.66992e-05 -0.0257358 0)
(-1.64851e-05 -0.025736 0)
)
;
    }
    procBoundary6to9
    {
        type            processor;
        value           nonuniform List<vector> 
50
(
(-0.000107832 -0.0257015 0)
(-0.000105963 -0.0257022 0)
(-0.000103849 -0.0257028 0)
(-0.000101533 -0.0257034 0)
(-9.90568e-05 -0.025704 0)
(-9.64596e-05 -0.0257046 0)
(-9.37785e-05 -0.0257052 0)
(-9.10474e-05 -0.0257057 0)
(-8.82973e-05 -0.0257063 0)
(-8.55559e-05 -0.0257068 0)
(-8.28477e-05 -0.0257073 0)
(-8.01938e-05 -0.0257078 0)
(-7.7612e-05 -0.0257082 0)
(-7.51174e-05 -0.0257087 0)
(-7.27215e-05 -0.0257091 0)
(-7.04334e-05 -0.0257095 0)
(-6.82595e-05 -0.0257099 0)
(-6.62038e-05 -0.0257103 0)
(-6.42682e-05 -0.0257107 0)
(-6.24525e-05 -0.0257111 0)
(-6.07552e-05 -0.0257114 0)
(-5.91732e-05 -0.0257118 0)
(-5.77024e-05 -0.0257121 0)
(-5.63376e-05 -0.0257125 0)
(-5.50732e-05 -0.0257128 0)
(-5.39029e-05 -0.0257131 0)
(-5.28202e-05 -0.0257134 0)
(-5.18184e-05 -0.0257138 0)
(-5.08907e-05 -0.0257141 0)
(-5.00305e-05 -0.0257144 0)
(-4.92314e-05 -0.0257147 0)
(-4.84874e-05 -0.025715 0)
(-4.77924e-05 -0.0257153 0)
(-4.71412e-05 -0.0257155 0)
(-4.65286e-05 -0.0257158 0)
(-4.595e-05 -0.0257161 0)
(-4.5401e-05 -0.0257164 0)
(-4.4878e-05 -0.0257167 0)
(-4.43774e-05 -0.025717 0)
(-4.38962e-05 -0.0257172 0)
(-4.34316e-05 -0.0257175 0)
(-4.29812e-05 -0.0257178 0)
(-4.25431e-05 -0.0257181 0)
(-4.21152e-05 -0.0257183 0)
(-4.16962e-05 -0.0257186 0)
(-4.12847e-05 -0.0257189 0)
(-4.08795e-05 -0.0257191 0)
(-4.04796e-05 -0.0257194 0)
(-4.00843e-05 -0.0257197 0)
(-3.96929e-05 -0.0257199 0)
)
;
    }
}


// ************************************************************************* //
