/*--------------------------------*- C++ -*----------------------------------*\
| =========                 |                                                 |
| \\      /  F ield         | OpenFOAM: The Open Source CFD Toolbox           |
|  \\    /   O peration     | Version:  2.4.0                                 |
|   \\  /    A nd           | Web:      www.OpenFOAM.org                      |
|    \\/     M anipulation  |                                                 |
\*---------------------------------------------------------------------------*/
FoamFile
{
    version     2.0;
    format      ascii;
    class       volScalarField;
    location    "4.9";
    object      p;
}
// * * * * * * * * * * * * * * * * * * * * * * * * * * * * * * * * * * * * * //

dimensions      [1 -1 -2 0 0 0 0];

internalField   nonuniform List<scalar> 
8000
(
-11.1389
-10.8922
-10.6734
-10.4403
-9.88978
-8.70407
-8.38403
-16.4233
-10.7685
-1.76628
-1.86203
-1.69271
-1.7325
-1.74904
-1.74491
-1.71801
-1.65707
-1.5887
-1.56172
-1.56523
-1.56026
-1.54479
-1.5303
-1.52061
-1.51655
-1.5177
-1.52071
-1.52228
-1.52237
-1.52198
-1.52155
-1.52128
-1.52045
-1.52013
-1.51889
-1.51938
-1.51928
-1.5189
-1.51895
-1.51879
-1.51883
-1.51911
-1.51456
-1.51713
-1.51706
-1.51695
-1.51696
-1.51699
-1.51699
-1.51698
-3.77747
-3.65015
-3.48946
-3.31236
-3.15038
-3.0659
-3.01818
-3.26077
-3.38425
-2.68658
-1.34852
-8.59525
-8.08298
-7.57146
-6.55329
-6.40091
-6.92221
-6.13427
-3.62586
-1.96667
-1.4382
-1.36005
-1.42916
-1.51757
-1.58025
-1.59956
-1.59515
-1.58768
-1.57084
-1.55109
-1.53892
-1.53789
-1.54396
-1.54869
-1.54934
-1.54747
-1.54603
-1.54564
-1.5461
-1.54541
-1.54546
-1.54753
-1.54806
-1.54665
-1.54628
-1.54581
-1.54541
-1.54504
-1.54461
-1.54413
-2.34413
-2.31691
-2.28359
-2.24565
-2.20402
-2.15904
-2.10581
-2.03291
-1.94392
-1.85394
-1.75058
-1.68878
-1.58837
-1.38524
-1.00703
-0.502094
-0.105457
0.115901
0.223417
-6.75658
-8.70724
-7.77992
-7.59497
-8.85452
-9.77814
-7.17358
-2.82625
-1.48494
-1.36297
-1.35171
-1.38519
-1.48033
-1.56986
-1.60505
-1.58904
-1.56105
-1.55052
-1.55343
-1.5583
-1.56314
-1.56904
-1.57233
-1.57263
-1.57234
-1.57242
-1.54647
-1.55715
-1.5579
-1.55739
-1.55697
-0.0156699
-0.00626899
0.00631351
0.0209759
0.0372134
0.0551194
0.0743835
0.0954822
0.117742
0.140548
0.163752
0.193877
0.232773
0.293496
0.38575
0.519494
0.689041
0.860151
1.02436
1.16061
1.26205
1.39555
1.56566
1.70518
1.65562
1.39849
0.280697
-5.48661
-7.12881
-6.33221
-7.91085
-8.364
-2.61892
-1.54443
-0.523712
-0.367388
-0.63112
-1.66624
-1.61338
-1.58383
-1.58327
-1.58446
-1.58355
-1.58146
-1.55424
-1.55445
-1.56388
-1.56339
-1.56288
-1.56269
1.51244
1.50581
1.50074
1.49913
1.50089
1.50576
1.5136
1.5244
1.5381
1.55463
1.57387
1.5958
1.62032
1.6474
1.67674
1.70804
1.74039
1.77271
1.80408
1.83813
1.87877
1.93448
2.01477
2.12981
2.27777
2.44341
2.62423
2.82251
3.03205
3.24881
3.33061
2.98042
-2.23063
-5.15721
-9.89746
-9.17615
-1.75377
-0.633226
0.064731
-1.10074
-1.59121
-1.61001
-1.56726
-1.56905
-1.58334
-1.58625
-1.58466
-1.58366
-1.58302
-1.58289
2.39093
2.38095
2.37045
2.36199
2.35569
2.35132
2.34874
2.34794
2.34889
2.3516
2.35603
2.36219
2.37
2.37947
2.39045
2.40289
2.4165
2.43117
2.44649
2.4624
2.47859
2.49511
2.51156
2.52806
2.54394
2.55916
2.57387
2.5932
2.62158
2.65797
2.6846
2.71435
2.74901
2.82
2.82169
2.52378
-1.72025
-5.00949
-7.87453
-8.44638
-4.47996
-1.47657
-0.25646
-1.07058
-1.5861
-1.60503
-1.58904
-1.59444
-1.59693
-1.59747
3.47597
3.45545
3.43488
3.41784
3.40401
3.39286
3.38423
3.37811
3.3745
3.37339
3.37477
3.3786
3.38488
3.39357
3.40466
3.41812
3.43394
3.45209
3.47257
3.49535
3.52043
3.54778
3.57736
3.6091
3.64286
3.67851
3.71583
3.75463
3.79468
3.83567
3.87737
3.92048
3.96714
4.01663
4.05631
4.08482
4.11466
4.19228
4.22124
3.96686
0.0855303
-1.23046
-6.20458
-6.5538
-2.75696
-0.988358
-1.03273
-1.55535
-1.60581
-1.61
3.59371
3.56972
3.54402
3.52161
3.50258
3.48632
3.47263
3.46147
3.45286
3.4468
3.44326
3.44225
3.44376
3.44778
3.45432
3.46338
3.47496
3.48908
3.50575
3.52499
3.54681
3.57124
3.59832
3.62809
3.66058
3.69586
3.73395
3.77495
3.81888
3.86582
3.91582
3.96895
4.02521
4.08465
4.14751
4.21483
4.28814
4.36469
4.4316
4.50189
4.56892
4.66758
4.6745
3.65859
0.271596
-5.20553
-5.62633
-3.02438
-1.75189
-1.52893
3.82012
3.79322
3.76559
3.74186
3.72168
3.70436
3.6897
3.6777
3.66836
3.66169
3.65768
3.65632
3.65761
3.66154
3.66813
3.67738
3.68929
3.70389
3.72118
3.74119
3.76394
3.78946
3.81777
3.84892
3.88294
3.91989
3.95979
4.00272
4.04871
4.09789
4.15026
4.20599
4.26506
4.32771
4.3939
4.46394
4.53769
4.61558
4.69762
4.7851
4.87844
4.97482
5.06387
5.14126
5.26758
5.46934
5.45051
0.277817
-3.24977
-2.83522
3.06873
3.0487
3.02697
3.00752
2.99037
2.97508
2.96145
2.9495
2.93922
2.93061
2.92366
2.91838
2.91473
2.91273
2.91236
2.91362
2.91649
2.92098
2.92708
2.93478
2.94407
2.95495
2.96741
2.98146
2.99707
3.01424
3.03297
3.05325
3.07508
3.09844
3.12333
3.14975
3.17767
3.2071
3.238
3.2704
3.30425
3.33957
3.37628
3.41443
3.45389
3.49488
3.53781
3.58361
3.62936
3.66445
3.69435
3.723
3.60751
1.66228
2.42485
2.40944
2.39313
2.37856
2.36557
2.35382
2.34319
2.33368
2.32531
2.31807
2.31196
2.30697
2.30309
2.30031
2.29862
2.298
2.29844
2.29992
2.30242
2.30592
2.3104
2.31584
2.32222
2.32949
2.33762
2.3466
2.35637
2.36691
2.37817
2.39011
2.40267
2.41582
2.42947
2.44359
2.45808
2.47291
2.48796
2.50319
2.51847
2.53374
2.54884
2.56373
2.57824
2.59235
2.60576
2.61799
2.62917
2.64007
2.65781
2.6784
1.42403
1.41437
1.40391
1.39433
1.38559
1.37747
1.3699
1.36289
1.35645
1.35058
1.34528
1.34053
1.33635
1.33272
1.32964
1.3271
1.3251
1.32362
1.32266
1.3222
1.32224
1.32275
1.32374
1.32518
1.32705
1.32934
1.33202
1.33509
1.33852
1.34229
1.34637
1.35073
1.35535
1.3602
1.36525
1.37046
1.37581
1.38126
1.38676
1.39228
1.39776
1.40319
1.40848
1.41362
1.41851
1.42313
1.42748
1.44309
1.43438
1.43864
0.331401
0.325088
0.317992
0.311454
0.305542
0.300127
0.295156
0.290632
0.28656
0.282946
0.279789
0.277091
0.274853
0.273074
0.271755
0.270896
0.270497
0.270556
0.271073
0.272047
0.273478
0.275364
0.277703
0.280495
0.283738
0.287431
0.291574
0.296166
0.301208
0.306698
0.31264
0.31903
0.325874
0.333171
0.340931
0.349153
0.35785
0.367021
0.376687
0.386846
0.397531
0.40874
0.420521
0.43284
0.44569
0.459058
0.473664
0.506675
0.525711
0.537355
-0.564751
-0.567595
-0.570085
-0.572236
-0.574278
-0.576292
-0.578274
-0.580215
-0.582109
-0.583955
-0.585751
-0.587495
-0.589188
-0.590827
-0.592411
-0.59394
-0.595413
-0.59683
-0.598189
-0.59949
-0.600733
-0.601917
-0.603042
-0.604108
-0.605114
-0.60606
-0.606944
-0.607766
-0.608524
-0.609219
-0.609845
-0.610405
-0.610891
-0.611305
-0.611637
-0.61189
-0.612049
-0.612118
-0.612078
-0.611932
-0.611642
-0.611225
-0.610713
-0.610353
-0.610015
-0.607741
-0.598015
-0.562162
-0.593578
-0.786381
-2.04581
-2.04524
-2.04575
-2.04662
-2.0475
-2.04832
-2.04913
-2.04992
-2.05072
-2.05151
-2.0523
-2.05309
-2.05389
-2.05468
-2.05548
-2.05628
-2.05709
-2.05791
-2.05874
-2.05959
-2.06045
-2.06134
-2.06225
-2.0632
-2.06419
-2.06522
-2.06631
-2.06746
-2.06869
-2.07001
-2.07143
-2.07298
-2.07467
-2.07651
-2.07854
-2.08079
-2.08327
-2.08603
-2.0891
-2.09251
-2.09633
-2.1007
-2.10584
-2.11141
-2.11503
-2.11288
-2.11505
-2.18382
-2.41844
-2.68828
-2.54009
-2.5383
-2.53475
-2.53106
-2.5278
-2.52498
-2.52256
-2.52052
-2.51887
-2.51761
-2.51673
-2.51624
-2.51613
-2.5164
-2.51704
-2.51805
-2.51944
-2.52118
-2.52329
-2.52577
-2.52861
-2.53182
-2.5354
-2.53936
-2.5437
-2.54844
-2.55359
-2.55915
-2.56515
-2.57161
-2.57854
-2.58596
-2.5939
-2.60238
-2.61145
-2.62111
-2.63141
-2.64237
-2.65403
-2.66642
-2.67972
-2.69404
-2.70904
-2.7222
-2.7301
-2.74404
-2.82765
-3.07059
-2.98101
-2.32172
-4.48393
-4.47555
-4.46883
-4.46347
-4.45867
-4.45421
-4.45013
-4.44648
-4.44328
-4.44052
-4.43819
-4.43629
-4.43478
-4.43366
-4.43288
-4.43242
-4.43225
-4.43232
-4.43259
-4.43302
-4.43356
-4.43416
-4.43477
-4.43533
-4.43577
-4.43603
-4.43604
-4.43573
-4.43501
-4.4338
-4.43201
-4.42954
-4.42627
-4.42209
-4.41688
-4.41048
-4.40275
-4.39351
-4.3826
-4.36987
-4.35518
-4.338
-4.31631
-4.28757
-4.25955
-4.275
-4.3889
-4.37566
-2.76021
-1.99419
-4.25747
-4.23494
-4.20855
-4.18631
-4.16902
-4.15561
-4.14526
-4.1375
-4.13196
-4.12832
-4.12627
-4.12555
-4.1259
-4.12711
-4.12899
-4.13135
-4.13404
-4.13693
-4.13988
-4.1428
-4.14559
-4.14818
-4.15048
-4.15247
-4.15408
-4.15531
-4.15613
-4.15655
-4.15659
-4.15626
-4.15563
-4.15476
-4.15373
-4.15265
-4.15165
-4.1509
-4.15059
-4.15094
-4.15222
-4.15482
-4.15912
-4.16532
-4.17289
-4.18137
-4.19758
-4.25005
-4.3662
-4.22855
-2.28213
-1.87932
-6.97034
-6.89777
-6.83202
-6.78275
-6.74595
-6.71819
-6.69795
-6.6844
-6.67683
-6.67458
-6.67705
-6.68375
-6.69426
-6.70823
-6.72536
-6.7454
-6.76815
-6.79346
-6.82121
-6.8513
-6.88369
-6.91834
-6.95527
-6.99452
-7.03615
-7.08026
-7.12698
-7.17647
-7.22893
-7.2846
-7.34377
-7.40676
-7.47396
-7.54582
-7.62287
-7.7057
-7.79502
-7.89168
-7.99665
-8.11081
-8.23452
-8.36839
-8.51949
-8.71312
-8.97258
-9.16581
-8.67398
-5.49305
-1.88644
-1.85772
-1.95658
-2.37385
-2.79016
-3.14613
-3.4544
-3.72999
-3.97931
-4.20518
-4.40985
-4.59543
-4.76383
-4.91663
-5.05515
-5.18052
-5.29365
-5.3953
-5.48609
-5.56653
-5.637
-5.6978
-5.74911
-5.79106
-5.82366
-5.84686
-5.86051
-5.86437
-5.85809
-5.84126
-5.81329
-5.77353
-5.7211
-5.65502
-5.57404
-5.47677
-5.36142
-5.22603
-5.06808
-4.88479
-4.67263
-4.42758
-4.14478
-3.819
-3.44498
-3.01372
-2.50299
-1.86565
-1.10787
-0.553166
-4.33532
-1.85439
-1.51696
-1.51692
-1.51688
-1.51684
-1.51678
-1.51672
-1.51666
-1.5166
-1.51653
-1.51647
-1.5164
-1.51634
-1.51629
-1.51623
-1.51618
-1.51614
-1.5161
-1.51606
-1.51604
-1.51601
-1.516
-1.51599
-1.51598
-1.51599
-1.516
-1.51601
-1.51603
-1.51606
-1.51609
-1.51613
-1.51617
-1.51622
-1.51628
-1.51633
-1.51639
-1.51646
-1.51653
-1.5166
-1.51667
-1.51675
-1.51682
-1.5169
-1.51699
-1.51707
-1.51715
-1.51724
-1.51732
-1.51741
-1.5175
-1.51758
-1.54363
-1.54313
-1.54263
-1.54213
-1.54165
-1.54119
-1.54075
-1.54033
-1.53994
-1.53957
-1.53923
-1.53891
-1.53862
-1.53836
-1.53812
-1.5379
-1.53771
-1.53754
-1.53739
-1.53726
-1.53716
-1.53707
-1.537
-1.53695
-1.53692
-1.53691
-1.53691
-1.53692
-1.53695
-1.53699
-1.53704
-1.5371
-1.53718
-1.53726
-1.53735
-1.53745
-1.53756
-1.53767
-1.53779
-1.53791
-1.53804
-1.53817
-1.5383
-1.53843
-1.53857
-1.53871
-1.53885
-1.53899
-1.53913
-1.53926
-1.55664
-1.55632
-1.556
-1.55569
-1.55539
-1.55511
-1.55486
-1.55462
-1.55441
-1.55423
-1.55407
-1.55394
-1.55383
-1.55375
-1.55368
-1.55365
-1.55363
-1.55363
-1.55366
-1.5537
-1.55377
-1.55385
-1.55394
-1.55405
-1.55418
-1.55432
-1.55448
-1.55465
-1.55482
-1.55501
-1.55521
-1.55542
-1.55564
-1.55586
-1.55609
-1.55632
-1.55656
-1.55681
-1.55705
-1.5573
-1.55755
-1.55781
-1.55806
-1.55831
-1.55856
-1.55881
-1.55906
-1.55931
-1.55955
-1.55979
-1.56277
-1.56293
-1.56311
-1.56332
-1.56354
-1.56378
-1.56403
-1.56428
-1.56455
-1.56482
-1.56509
-1.56537
-1.56565
-1.56594
-1.56623
-1.56652
-1.56683
-1.56713
-1.56744
-1.56776
-1.56808
-1.56841
-1.56874
-1.56908
-1.56942
-1.56977
-1.57013
-1.57049
-1.57085
-1.57122
-1.57159
-1.57197
-1.57235
-1.57273
-1.57311
-1.5735
-1.57389
-1.57428
-1.57466
-1.57505
-1.57544
-1.57583
-1.57621
-1.5766
-1.57697
-1.57735
-1.57772
-1.57809
-1.57845
-1.57881
-1.58289
-1.5829
-1.58286
-1.58282
-1.5828
-1.5828
-1.58282
-1.58285
-1.5829
-1.58297
-1.58305
-1.58315
-1.58326
-1.58339
-1.58354
-1.5837
-1.58388
-1.58407
-1.58428
-1.5845
-1.58474
-1.585
-1.58527
-1.58555
-1.58585
-1.58616
-1.58649
-1.58683
-1.58718
-1.58754
-1.58791
-1.5883
-1.58869
-1.58909
-1.5895
-1.58992
-1.59035
-1.59078
-1.59122
-1.59166
-1.5921
-1.59255
-1.59301
-1.59346
-1.59391
-1.59437
-1.59482
-1.59528
-1.59572
-1.59617
-1.59786
-1.5978
-1.59752
-1.59749
-1.59748
-1.59746
-1.59741
-1.59737
-1.59735
-1.59735
-1.59737
-1.59741
-1.59747
-1.59755
-1.59765
-1.59777
-1.59791
-1.59808
-1.59826
-1.59846
-1.59868
-1.59893
-1.59919
-1.59947
-1.59977
-1.60008
-1.60042
-1.60077
-1.60114
-1.60152
-1.60191
-1.60232
-1.60275
-1.60318
-1.60363
-1.60409
-1.60456
-1.60504
-1.60553
-1.60602
-1.60653
-1.60704
-1.60755
-1.60807
-1.60859
-1.60912
-1.60965
-1.61018
-1.61071
-1.61124
-1.61363
-1.6131
-1.61251
-1.61224
-1.612
-1.61187
-1.61184
-1.61181
-1.61177
-1.61174
-1.61173
-1.61174
-1.61176
-1.6118
-1.61186
-1.61195
-1.61205
-1.61218
-1.61233
-1.6125
-1.61269
-1.6129
-1.61313
-1.61339
-1.61366
-1.61395
-1.61426
-1.6146
-1.61494
-1.61531
-1.61569
-1.61609
-1.6165
-1.61693
-1.61738
-1.61783
-1.6183
-1.61879
-1.61928
-1.61978
-1.6203
-1.62082
-1.62136
-1.6219
-1.62244
-1.623
-1.62356
-1.62412
-1.62469
-1.62526
-1.55545
-1.57052
-1.60541
-1.62293
-1.62652
-1.62652
-1.62625
-1.62617
-1.62617
-1.62618
-1.62618
-1.62618
-1.6262
-1.62623
-1.62627
-1.62634
-1.62643
-1.62653
-1.62666
-1.62681
-1.62697
-1.62716
-1.62737
-1.6276
-1.62785
-1.62812
-1.62841
-1.62872
-1.62905
-1.62939
-1.62976
-1.63014
-1.63053
-1.63094
-1.63137
-1.63181
-1.63227
-1.63274
-1.63322
-1.63372
-1.63422
-1.63474
-1.63527
-1.6358
-1.63635
-1.63691
-1.63747
-1.63804
-1.63862
-1.6392
-1.9079
-1.51151
-1.52961
-1.58649
-1.61984
-1.63601
-1.64143
-1.64244
-1.64248
-1.64247
-1.6425
-1.64254
-1.64257
-1.64261
-1.64265
-1.64271
-1.64279
-1.64289
-1.643
-1.64313
-1.64328
-1.64345
-1.64364
-1.64385
-1.64408
-1.64433
-1.6446
-1.64489
-1.64519
-1.64551
-1.64585
-1.6462
-1.64657
-1.64696
-1.64736
-1.64777
-1.6482
-1.64865
-1.6491
-1.64957
-1.65006
-1.65055
-1.65105
-1.65157
-1.6521
-1.65263
-1.65318
-1.65373
-1.65429
-1.65486
0.0837905
-0.7206
-0.901612
-1.23152
-1.54252
-1.64225
-1.65878
-1.6612
-1.66154
-1.66155
-1.66157
-1.66162
-1.66167
-1.66171
-1.66176
-1.66182
-1.66189
-1.66197
-1.66207
-1.66218
-1.66231
-1.66246
-1.66262
-1.66281
-1.66301
-1.66323
-1.66347
-1.66373
-1.664
-1.66429
-1.66459
-1.66491
-1.66525
-1.6656
-1.66596
-1.66634
-1.66674
-1.66714
-1.66756
-1.668
-1.66844
-1.6689
-1.66937
-1.66985
-1.67034
-1.67084
-1.67135
-1.67187
-1.6724
-1.67294
2.58599
1.85247
1.15289
-0.48746
-1.50044
-1.66289
-1.68049
-1.68323
-1.68382
-1.68386
-1.68382
-1.68383
-1.68386
-1.68388
-1.68391
-1.68394
-1.68397
-1.68403
-1.68409
-1.68417
-1.68427
-1.68438
-1.68451
-1.68466
-1.68482
-1.68501
-1.68521
-1.68542
-1.68566
-1.6859
-1.68617
-1.68644
-1.68674
-1.68705
-1.68737
-1.6877
-1.68805
-1.68841
-1.68879
-1.68918
-1.68958
-1.68999
-1.69042
-1.69085
-1.6913
-1.69176
-1.69223
-1.69271
-1.69321
-1.69371
1.44467
1.38661
0.777639
-0.561035
-1.54183
-1.69036
-1.70481
-1.70646
-1.70683
-1.70689
-1.7068
-1.70674
-1.70673
-1.70672
-1.70672
-1.70673
-1.70675
-1.70679
-1.70684
-1.70691
-1.707
-1.7071
-1.70723
-1.70737
-1.70753
-1.70771
-1.7079
-1.70811
-1.70833
-1.70856
-1.70882
-1.70908
-1.70936
-1.70965
-1.70995
-1.71027
-1.7106
-1.71094
-1.71129
-1.71166
-1.71204
-1.71242
-1.71283
-1.71324
-1.71366
-1.7141
-1.71454
-1.715
-1.71547
-1.71595
0.498442
0.322351
-0.049508
-1.13268
-1.67164
-1.72483
-1.72851
-1.72858
-1.72864
-1.72869
-1.72901
-1.72898
-1.72893
-1.72888
-1.72885
-1.72885
-1.72886
-1.72889
-1.72894
-1.72901
-1.72911
-1.72923
-1.72937
-1.72953
-1.7297
-1.7299
-1.73012
-1.73035
-1.7306
-1.73086
-1.73114
-1.73143
-1.73173
-1.73204
-1.73236
-1.7327
-1.73305
-1.7334
-1.73377
-1.73415
-1.73453
-1.73493
-1.73534
-1.73575
-1.73618
-1.73662
-1.73706
-1.73752
-1.73799
-1.73847
-1.17373
-1.1213
-1.38607
-1.63887
-1.74329
-1.75449
-1.7534
-1.75023
-1.75078
-1.74596
-1.75007
-1.7501
-1.75005
-1.75001
-1.74998
-1.74996
-1.74995
-1.74995
-1.74997
-1.75002
-1.75009
-1.75019
-1.75031
-1.75046
-1.75063
-1.75083
-1.75105
-1.75129
-1.75155
-1.75184
-1.75214
-1.75245
-1.75278
-1.75313
-1.75348
-1.75385
-1.75424
-1.75463
-1.75503
-1.75544
-1.75586
-1.75629
-1.75673
-1.75718
-1.75763
-1.7581
-1.75857
-1.75905
-1.75954
-1.76004
-2.40636
-2.07616
-1.87855
-1.79099
-1.77296
-1.77079
-1.7708
-1.77083
-1.77094
-1.7709
-1.7708
-1.77078
-1.77065
-1.77068
-1.77067
-1.77065
-1.77062
-1.77061
-1.7706
-1.7706
-1.77062
-1.77066
-1.77072
-1.77081
-1.77092
-1.77106
-1.77122
-1.7714
-1.77162
-1.77186
-1.77212
-1.7724
-1.7727
-1.77303
-1.77337
-1.77373
-1.77411
-1.7745
-1.77491
-1.77533
-1.77576
-1.7762
-1.77665
-1.77712
-1.77759
-1.77807
-1.77857
-1.77907
-1.77958
-1.7801
-2.06507
-1.84893
-1.79483
-1.79085
-1.79143
-1.79151
-1.79147
-1.79144
-1.79143
-1.79142
-1.79142
-1.79141
-1.79141
-1.79138
-1.79134
-1.79133
-1.79134
-1.79134
-1.7912
-1.79118
-1.79118
-1.79119
-1.79121
-1.79124
-1.79128
-1.79133
-1.79139
-1.79148
-1.79157
-1.79168
-1.79183
-1.79198
-1.79216
-1.79252
-1.79276
-1.79301
-1.79328
-1.79358
-1.79389
-1.79422
-1.79457
-1.79494
-1.79533
-1.79573
-1.79615
-1.79658
-1.79702
-1.79748
-1.79795
-1.79843
-1.80915
-1.80977
-1.81366
-1.8135
-1.81344
-1.81345
-1.81345
-1.81346
-1.81346
-1.81345
-1.81345
-1.81345
-1.81344
-1.81342
-1.81341
-1.8134
-1.81338
-1.81336
-1.81334
-1.81332
-1.81329
-1.81327
-1.81325
-1.81313
-1.81319
-1.81313
-1.81313
-1.81311
-1.81312
-1.8131
-1.81309
-1.81332
-1.81336
-1.8134
-1.81345
-1.8135
-1.81359
-1.81365
-1.81376
-1.81402
-1.81417
-1.81433
-1.81452
-1.81472
-1.81494
-1.81518
-1.81544
-1.81572
-1.81602
-1.81633
-1.83558
-1.83505
-1.83508
-1.83509
-1.8351
-1.83511
-1.83511
-1.83511
-1.83511
-1.83512
-1.83512
-1.83512
-1.83511
-1.83511
-1.83511
-1.8351
-1.83509
-1.83508
-1.83507
-1.83506
-1.83505
-1.83504
-1.83503
-1.83501
-1.835
-1.83498
-1.83497
-1.83495
-1.83493
-1.83491
-1.8349
-1.83487
-1.83476
-1.83444
-1.83467
-1.83463
-1.8347
-1.83477
-1.83479
-1.8348
-1.83482
-1.83484
-1.83488
-1.83492
-1.83497
-1.83502
-1.83509
-1.83517
-1.83526
-1.83537
-1.85733
-1.85752
-1.85762
-1.85764
-1.85764
-1.85767
-1.85768
-1.85769
-1.85769
-1.85769
-1.85769
-1.85769
-1.85768
-1.85767
-1.85767
-1.85765
-1.85764
-1.85763
-1.85761
-1.85759
-1.85757
-1.85756
-1.85754
-1.85752
-1.8575
-1.85747
-1.85745
-1.85743
-1.8574
-1.85737
-1.85735
-1.85732
-1.85729
-1.85726
-1.85723
-1.85721
-1.85718
-1.85715
-1.85712
-1.8571
-1.85708
-1.85699
-1.8568
-1.8569
-1.85689
-1.85694
-1.85692
-1.85691
-1.85673
-1.85673
-1.88006
-1.87975
-1.87979
-1.87981
-1.87909
-1.87992
-1.8799
-1.87988
-1.87985
-1.87984
-1.87979
-1.87975
-1.87999
-1.87997
-1.87994
-1.87991
-1.8799
-1.87986
-1.87984
-1.87986
-1.87984
-1.87981
-1.87979
-1.87977
-1.87975
-1.87972
-1.8797
-1.87968
-1.87966
-1.87964
-1.87961
-1.87959
-1.87957
-1.87955
-1.87953
-1.87951
-1.8795
-1.87948
-1.87946
-1.87945
-1.87944
-1.87942
-1.87942
-1.87941
-1.87941
-1.87941
-1.87942
-1.87943
-1.87944
-1.87945
-1.51765
-1.5177
-1.51775
-1.5178
-1.51785
-1.51791
-1.51796
-1.51801
-1.51806
-1.51811
-1.51816
-1.51821
-1.51827
-1.51832
-1.51837
-1.51842
-1.51847
-1.51853
-1.51858
-1.51863
-1.51868
-1.51874
-1.51879
-1.51885
-1.5189
-1.51895
-1.51901
-1.51906
-1.51912
-1.51917
-1.51923
-1.51929
-1.51934
-1.5194
-1.51946
-1.51951
-1.51957
-1.51963
-1.51969
-1.51975
-1.51981
-1.51987
-1.51993
-1.51999
-1.52005
-1.52011
-1.52018
-1.52024
-1.5203
-1.52037
-1.52043
-1.5205
-1.52056
-1.52063
-1.52069
-1.52076
-1.52083
-1.52089
-1.52096
-1.52103
-1.5211
-1.52117
-1.52124
-1.52131
-1.52138
-1.52145
-1.52152
-1.52159
-1.52166
-1.52173
-1.5218
-1.52188
-1.52195
-1.52202
-1.5221
-1.52217
-1.52224
-1.52232
-1.52239
-1.52247
-1.52254
-1.52261
-1.52269
-1.52277
-1.52284
-1.52292
-1.52299
-1.52307
-1.52315
-1.52322
-1.5233
-1.52338
-1.52345
-1.52353
-1.52361
-1.52369
-1.52376
-1.52384
-1.52392
-1.524
-1.52408
-1.52416
-1.52424
-1.52432
-1.5244
-1.52448
-1.52456
-1.52464
-1.52472
-1.5248
-1.52488
-1.52497
-1.52505
-1.52513
-1.52521
-1.5253
-1.52538
-1.52547
-1.52555
-1.52563
-1.52572
-1.52581
-1.52589
-1.52598
-1.52606
-1.52615
-1.52624
-1.52633
-1.52642
-1.52651
-1.52659
-1.52668
-1.52678
-1.52687
-1.52696
-1.52705
-1.52714
-1.52724
-1.52733
-1.52743
-1.52752
-1.52762
-1.52771
-1.52781
-1.52791
-1.52801
-1.52811
-1.52821
-1.52831
-1.52841
-1.52852
-1.52862
-1.52872
-1.52883
-1.52894
-1.52905
-1.52916
-1.52927
-1.52938
-1.52949
-1.5296
-1.52972
-1.52984
-1.52995
-1.53007
-1.53019
-1.53032
-1.53044
-1.53057
-1.53069
-1.53082
-1.53095
-1.53108
-1.53122
-1.53135
-1.53149
-1.53163
-1.53177
-1.53192
-1.53206
-1.53221
-1.53236
-1.53251
-1.53267
-1.53283
-1.53299
-1.53315
-1.53331
-1.53348
-1.53365
-1.53383
-1.534
-1.53418
-1.53436
-1.53455
-1.53474
-1.53493
-1.53513
-1.53533
-1.53553
-1.53574
-1.53595
-1.53616
-1.53638
-1.5366
-1.53683
-1.53706
-1.5373
-1.53754
-1.53779
-1.53803
-1.53829
-1.53855
-1.53881
-1.53908
-1.53935
-1.53963
-1.53991
-1.5402
-1.5405
-1.54079
-1.5411
-1.54141
-1.54172
-1.54204
-1.54236
-1.54269
-1.54302
-1.54336
-1.54371
-1.54406
-1.54441
-1.54477
-1.54513
-1.5455
-1.54588
-1.54626
-1.54664
-1.54703
-1.54742
-1.54782
-1.54822
-1.54863
-1.54904
-1.54946
-1.54988
-1.5503
-1.55073
-1.55116
-1.5516
-1.55204
-1.55249
-1.55293
-1.55339
-1.55384
-1.5543
-1.55476
-1.55522
-1.55569
-1.55616
-1.55663
-1.55711
-1.55758
-1.55806
-1.55854
-1.55902
-1.55951
-1.55999
-1.56048
-1.56097
-1.56146
-1.56195
-1.56244
-1.56294
-1.56343
-1.56392
-1.56442
-1.56491
-1.56541
-1.5659
-1.5664
-1.56689
-1.56739
-1.56789
-1.56838
-1.56888
-1.56937
-1.56987
-1.57036
-1.57085
-1.57135
-1.57184
-1.57234
-1.57283
-1.57333
-1.57382
-1.57432
-1.57482
-1.57533
-1.57583
-1.53937
-1.53945
-1.53953
-1.53961
-1.53968
-1.53976
-1.53984
-1.53992
-1.53999
-1.54007
-1.54014
-1.54022
-1.54029
-1.54037
-1.54044
-1.54051
-1.54058
-1.54066
-1.54073
-1.5408
-1.54087
-1.54094
-1.541
-1.54107
-1.54114
-1.54121
-1.54127
-1.54134
-1.5414
-1.54147
-1.54153
-1.5416
-1.54166
-1.54172
-1.54178
-1.54185
-1.54191
-1.54197
-1.54203
-1.54209
-1.54215
-1.54221
-1.54227
-1.54233
-1.54239
-1.54245
-1.54251
-1.54257
-1.54263
-1.54269
-1.54274
-1.5428
-1.54286
-1.54292
-1.54298
-1.54304
-1.5431
-1.54316
-1.54322
-1.54328
-1.54334
-1.5434
-1.54346
-1.54353
-1.54359
-1.54365
-1.54371
-1.54377
-1.54384
-1.5439
-1.54396
-1.54402
-1.54409
-1.54415
-1.54422
-1.54428
-1.54435
-1.54441
-1.54448
-1.54455
-1.54461
-1.54468
-1.54475
-1.54481
-1.54488
-1.54495
-1.54502
-1.54509
-1.54516
-1.54523
-1.5453
-1.54537
-1.54544
-1.54551
-1.54559
-1.54566
-1.54573
-1.5458
-1.54588
-1.54595
-1.54602
-1.5461
-1.54617
-1.54625
-1.54633
-1.5464
-1.54648
-1.54655
-1.54663
-1.54671
-1.54679
-1.54687
-1.54694
-1.54702
-1.5471
-1.54718
-1.54726
-1.54735
-1.54743
-1.54751
-1.54759
-1.54767
-1.54776
-1.54784
-1.54793
-1.54801
-1.5481
-1.54818
-1.54827
-1.54836
-1.54844
-1.54853
-1.54862
-1.54871
-1.5488
-1.54889
-1.54898
-1.54908
-1.54917
-1.54926
-1.54936
-1.54945
-1.54955
-1.54965
-1.54975
-1.54985
-1.54995
-1.55005
-1.55015
-1.55025
-1.55036
-1.55046
-1.55057
-1.55067
-1.55078
-1.55089
-1.551
-1.55111
-1.55123
-1.55134
-1.55146
-1.55158
-1.55169
-1.55181
-1.55194
-1.55206
-1.55218
-1.55231
-1.55244
-1.55257
-1.5527
-1.55284
-1.55297
-1.55311
-1.55325
-1.55339
-1.55354
-1.55369
-1.55383
-1.55399
-1.55414
-1.5543
-1.55446
-1.55462
-1.55479
-1.55495
-1.55513
-1.5553
-1.55548
-1.55566
-1.55584
-1.55603
-1.55622
-1.55642
-1.55662
-1.55682
-1.55703
-1.55724
-1.55745
-1.55767
-1.5579
-1.55812
-1.55836
-1.55859
-1.55883
-1.55908
-1.55933
-1.55958
-1.55984
-1.5601
-1.56037
-1.56064
-1.56091
-1.5612
-1.56148
-1.56177
-1.56207
-1.56237
-1.56267
-1.56298
-1.56329
-1.56361
-1.56394
-1.56427
-1.5646
-1.56494
-1.56528
-1.56563
-1.56598
-1.56634
-1.5667
-1.56707
-1.56744
-1.56782
-1.5682
-1.56859
-1.56898
-1.56938
-1.56978
-1.57018
-1.57059
-1.571
-1.57142
-1.57184
-1.57227
-1.5727
-1.57313
-1.57357
-1.57401
-1.57445
-1.5749
-1.57535
-1.57581
-1.57626
-1.57672
-1.57718
-1.57765
-1.57812
-1.57859
-1.57906
-1.57953
-1.58001
-1.58048
-1.58096
-1.58144
-1.58192
-1.5824
-1.58288
-1.58337
-1.58385
-1.58434
-1.58482
-1.58531
-1.58579
-1.58628
-1.58676
-1.58725
-1.58774
-1.58822
-1.58871
-1.58919
-1.58968
-1.59016
-1.59065
-1.59113
-1.59162
-1.5921
-1.59258
-1.59307
-1.59355
-1.59403
-1.59452
-1.595
-1.59549
-1.59597
-1.59645
-1.59694
-1.59743
-1.59794
-1.59844
-1.55997
-1.5601
-1.56023
-1.56036
-1.56049
-1.56062
-1.56075
-1.56088
-1.561
-1.56113
-1.56125
-1.56137
-1.56149
-1.56161
-1.56173
-1.56185
-1.56196
-1.56207
-1.56219
-1.5623
-1.5624
-1.56251
-1.56262
-1.56272
-1.56282
-1.56292
-1.56302
-1.56312
-1.56321
-1.5633
-1.5634
-1.56349
-1.56358
-1.56366
-1.56375
-1.56383
-1.56392
-1.564
-1.56408
-1.56416
-1.56423
-1.56431
-1.56438
-1.56446
-1.56453
-1.5646
-1.56467
-1.56474
-1.56481
-1.56488
-1.56494
-1.56501
-1.56507
-1.56514
-1.5652
-1.56526
-1.56533
-1.56539
-1.56545
-1.56551
-1.56557
-1.56563
-1.56569
-1.56575
-1.56581
-1.56587
-1.56593
-1.56598
-1.56604
-1.5661
-1.56616
-1.56622
-1.56628
-1.56633
-1.56639
-1.56645
-1.56651
-1.56657
-1.56663
-1.56669
-1.56675
-1.56681
-1.56687
-1.56693
-1.56699
-1.56705
-1.56711
-1.56717
-1.56724
-1.5673
-1.56736
-1.56743
-1.56749
-1.56755
-1.56762
-1.56769
-1.56775
-1.56782
-1.56789
-1.56795
-1.56802
-1.56809
-1.56816
-1.56823
-1.5683
-1.56837
-1.56845
-1.56852
-1.56859
-1.56866
-1.56874
-1.56881
-1.56889
-1.56897
-1.56904
-1.56912
-1.5692
-1.56928
-1.56936
-1.56944
-1.56952
-1.5696
-1.56968
-1.56977
-1.56985
-1.56993
-1.57002
-1.57011
-1.57019
-1.57028
-1.57037
-1.57046
-1.57055
-1.57064
-1.57073
-1.57083
-1.57092
-1.57102
-1.57111
-1.57121
-1.57131
-1.57141
-1.57151
-1.57161
-1.57171
-1.57181
-1.57192
-1.57203
-1.57213
-1.57224
-1.57235
-1.57246
-1.57258
-1.57269
-1.57281
-1.57293
-1.57305
-1.57317
-1.57329
-1.57341
-1.57354
-1.57367
-1.5738
-1.57393
-1.57407
-1.5742
-1.57434
-1.57448
-1.57462
-1.57477
-1.57492
-1.57507
-1.57522
-1.57538
-1.57553
-1.5757
-1.57586
-1.57603
-1.57619
-1.57637
-1.57654
-1.57672
-1.5769
-1.57709
-1.57727
-1.57746
-1.57766
-1.57786
-1.57806
-1.57826
-1.57847
-1.57868
-1.5789
-1.57912
-1.57934
-1.57957
-1.5798
-1.58003
-1.58027
-1.58051
-1.58076
-1.58101
-1.58126
-1.58152
-1.58179
-1.58205
-1.58233
-1.5826
-1.58288
-1.58317
-1.58346
-1.58375
-1.58405
-1.58436
-1.58467
-1.58498
-1.5853
-1.58562
-1.58595
-1.58628
-1.58662
-1.58696
-1.5873
-1.58766
-1.58801
-1.58837
-1.58874
-1.5891
-1.58948
-1.58986
-1.59024
-1.59063
-1.59102
-1.59141
-1.59181
-1.59221
-1.59262
-1.59303
-1.59345
-1.59387
-1.59429
-1.59471
-1.59514
-1.59557
-1.59601
-1.59645
-1.59689
-1.59733
-1.59778
-1.59822
-1.59867
-1.59913
-1.59958
-1.60004
-1.60049
-1.60095
-1.60141
-1.60188
-1.60234
-1.6028
-1.60327
-1.60373
-1.6042
-1.60466
-1.60513
-1.60559
-1.60606
-1.60652
-1.60699
-1.60745
-1.60792
-1.60838
-1.60884
-1.60931
-1.60977
-1.61023
-1.61068
-1.61114
-1.6116
-1.61205
-1.61251
-1.61296
-1.61341
-1.61386
-1.61431
-1.61476
-1.6152
-1.61565
-1.6161
-1.61654
-1.61699
-1.61743
-1.61788
-1.61832
-1.61877
-1.61921
-1.61966
-1.62011
-1.62059
-1.62105
-1.57909
-1.57928
-1.57948
-1.57967
-1.57987
-1.58006
-1.58025
-1.58044
-1.58063
-1.58082
-1.581
-1.58119
-1.58137
-1.58155
-1.58173
-1.5819
-1.58208
-1.58225
-1.58242
-1.58259
-1.58276
-1.58292
-1.58308
-1.58324
-1.5834
-1.58355
-1.5837
-1.58385
-1.584
-1.58414
-1.58428
-1.58442
-1.58456
-1.58469
-1.58482
-1.58495
-1.58508
-1.5852
-1.58532
-1.58544
-1.58555
-1.58567
-1.58578
-1.58589
-1.586
-1.5861
-1.58621
-1.58631
-1.58641
-1.5865
-1.5866
-1.58669
-1.58678
-1.58687
-1.58696
-1.58705
-1.58713
-1.58722
-1.5873
-1.58738
-1.58746
-1.58753
-1.58761
-1.58769
-1.58776
-1.58783
-1.5879
-1.58798
-1.58805
-1.58812
-1.58818
-1.58825
-1.58832
-1.58839
-1.58845
-1.58852
-1.58858
-1.58865
-1.58871
-1.58878
-1.58884
-1.58891
-1.58897
-1.58904
-1.5891
-1.58916
-1.58923
-1.58929
-1.58936
-1.58942
-1.58949
-1.58955
-1.58962
-1.58968
-1.58975
-1.58981
-1.58988
-1.58995
-1.59002
-1.59009
-1.59015
-1.59022
-1.59029
-1.59037
-1.59044
-1.59051
-1.59058
-1.59066
-1.59073
-1.5908
-1.59088
-1.59096
-1.59103
-1.59111
-1.59119
-1.59127
-1.59135
-1.59144
-1.59152
-1.5916
-1.59169
-1.59177
-1.59186
-1.59195
-1.59204
-1.59213
-1.59222
-1.59231
-1.59241
-1.5925
-1.5926
-1.5927
-1.59279
-1.59289
-1.593
-1.5931
-1.5932
-1.59331
-1.59342
-1.59353
-1.59364
-1.59375
-1.59386
-1.59398
-1.5941
-1.59421
-1.59433
-1.59446
-1.59458
-1.59471
-1.59483
-1.59496
-1.5951
-1.59523
-1.59537
-1.5955
-1.59564
-1.59579
-1.59593
-1.59608
-1.59623
-1.59638
-1.59653
-1.59669
-1.59684
-1.59701
-1.59717
-1.59733
-1.5975
-1.59767
-1.59785
-1.59802
-1.5982
-1.59839
-1.59857
-1.59876
-1.59895
-1.59915
-1.59934
-1.59954
-1.59975
-1.59995
-1.60016
-1.60038
-1.6006
-1.60082
-1.60104
-1.60127
-1.6015
-1.60173
-1.60197
-1.60222
-1.60246
-1.60271
-1.60297
-1.60323
-1.60349
-1.60376
-1.60403
-1.6043
-1.60458
-1.60487
-1.60516
-1.60545
-1.60574
-1.60605
-1.60635
-1.60666
-1.60698
-1.6073
-1.60762
-1.60795
-1.60828
-1.60862
-1.60896
-1.6093
-1.60965
-1.61001
-1.61036
-1.61073
-1.61109
-1.61147
-1.61184
-1.61222
-1.6126
-1.61299
-1.61338
-1.61378
-1.61418
-1.61458
-1.61498
-1.61539
-1.61581
-1.61622
-1.61664
-1.61706
-1.61749
-1.61791
-1.61834
-1.61878
-1.61921
-1.61965
-1.62009
-1.62053
-1.62097
-1.62141
-1.62186
-1.6223
-1.62275
-1.6232
-1.62364
-1.62409
-1.62454
-1.62499
-1.62543
-1.62588
-1.62633
-1.62677
-1.62722
-1.62766
-1.62811
-1.62855
-1.62899
-1.62942
-1.62986
-1.63029
-1.63073
-1.63115
-1.63158
-1.63201
-1.63243
-1.63285
-1.63327
-1.63368
-1.63409
-1.6345
-1.63491
-1.63531
-1.63571
-1.63611
-1.6365
-1.63689
-1.63728
-1.63767
-1.63805
-1.63843
-1.63881
-1.63919
-1.63956
-1.63994
-1.64031
-1.64068
-1.64105
-1.64142
-1.64179
-1.64216
-1.64252
-1.6429
-1.64329
-1.64369
-1.59652
-1.59677
-1.59702
-1.59727
-1.59752
-1.59777
-1.59802
-1.59826
-1.59851
-1.59876
-1.599
-1.59925
-1.59949
-1.59974
-1.59998
-1.60022
-1.60046
-1.6007
-1.60093
-1.60117
-1.6014
-1.60163
-1.60186
-1.60208
-1.60231
-1.60253
-1.60275
-1.60297
-1.60318
-1.60339
-1.6036
-1.60381
-1.60402
-1.60422
-1.60442
-1.60461
-1.6048
-1.60499
-1.60518
-1.60536
-1.60554
-1.60572
-1.6059
-1.60607
-1.60624
-1.6064
-1.60657
-1.60673
-1.60688
-1.60704
-1.60719
-1.60734
-1.60748
-1.60763
-1.60777
-1.60791
-1.60804
-1.60817
-1.6083
-1.60843
-1.60856
-1.60868
-1.6088
-1.60892
-1.60904
-1.60915
-1.60926
-1.60937
-1.60948
-1.60959
-1.60969
-1.60979
-1.6099
-1.61
-1.61009
-1.61019
-1.61029
-1.61038
-1.61048
-1.61057
-1.61066
-1.61075
-1.61084
-1.61093
-1.61102
-1.6111
-1.61119
-1.61128
-1.61136
-1.61145
-1.61153
-1.61162
-1.6117
-1.61178
-1.61187
-1.61195
-1.61204
-1.61212
-1.61221
-1.61229
-1.61238
-1.61246
-1.61255
-1.61263
-1.61272
-1.61281
-1.6129
-1.61298
-1.61307
-1.61316
-1.61325
-1.61334
-1.61344