/*--------------------------------*- C++ -*----------------------------------*\
| =========                 |                                                 |
| \\      /  F ield         | OpenFOAM: The Open Source CFD Toolbox           |
|  \\    /   O peration     | Version:  2.4.0                                 |
|   \\  /    A nd           | Web:      www.OpenFOAM.org                      |
|    \\/     M anipulation  |                                                 |
\*---------------------------------------------------------------------------*/
FoamFile
{
    version     2.0;
    format      ascii;
    class       volScalarField;
    location    "4.9";
    object      p_rgh;
}
// * * * * * * * * * * * * * * * * * * * * * * * * * * * * * * * * * * * * * //

dimensions      [1 -1 -2 0 0 0 0];

internalField   nonuniform List<scalar> 
8000
(
70.557
70.8037
71.0226
71.2556
71.8061
72.3227
73.3112
21.6019
-4.55171
-0.0631917
-0.109469
-0.20774
-0.356607
-0.392485
-0.391166
-0.364746
-0.303839
-0.235472
-0.208331
-0.210725
-0.20579
-0.190392
-0.17601
-0.166447
-0.16252
-0.163789
-0.166914
-0.168568
-0.168736
-0.168362
-0.167938
-0.167776
-0.167151
-0.166848
-0.165168
-0.165803
-0.165961
-0.165625
-0.16564
-0.165496
-0.165511
-0.165009
-0.159684
-0.162664
-0.163568
-0.16371
-0.163741
-0.16378
-0.163783
-0.163778
79.2688
79.3962
79.5568
79.7339
79.8959
79.9794
80.0281
79.7855
79.6618
80.327
81.695
60.4056
44.6003
33.3251
25.5112
17.3121
8.21473
2.2912
1.17855
1.42486
1.36074
1.02162
0.593277
0.223574
-0.0279132
-0.14821
-0.182103
-0.189429
-0.179321
-0.163573
-0.154387
-0.155919
-0.16426
-0.17062
-0.172177
-0.171057
-0.169812
-0.169161
-0.169882
-0.169713
-0.169771
-0.171259
-0.170791
-0.169163
-0.168793
-0.168962
-0.169259
-0.169313
-0.169008
-0.168544
82.0525
82.0797
82.1131
82.151
82.1926
82.2374
82.2906
82.3635
82.4525
82.5426
82.6461
82.7079
82.8083
83.0114
83.3896
83.8945
84.2857
84.4771
84.5508
73.0313
60.3083
48.4244
37.0669
22.1042
6.23694
-0.319177
0.479563
0.902344
0.769205
0.608506
0.413469
0.182883
0.00736434
-0.0865331
-0.109159
-0.112994
-0.123531
-0.137337
-0.147864
-0.156284
-0.165667
-0.171743
-0.173678
-0.173429
-0.173506
-0.142734
-0.155193
-0.158273
-0.158993
-0.158982
85.7313
85.7407
85.7533
85.768
85.7842
85.8021
85.8213
85.8424
85.8647
85.8875
85.9107
85.9408
85.9797
86.0405
86.1327
86.2665
86.436
86.6071
86.7714
86.9076
87.0091
87.1425
87.3127
87.4521
87.3987
87.1232
85.6399
76.2759
60.8438
44.5269
22.9728
5.26507
2.71771
2.83105
2.80678
2.99011
2.56531
0.825633
0.303793
0.0349165
-0.0868123
-0.133277
-0.149207
-0.155052
-0.132851
-0.127713
-0.138907
-0.14071
-0.141758
-0.142247
88.6098
88.6032
88.5981
88.5965
88.5982
88.6031
88.611
88.6217
88.6354
88.652
88.6712
88.6931
88.7176
88.7447
88.7741
88.8054
88.8377
88.8701
88.9014
88.9355
88.9761
89.0318
89.1121
89.2271
89.3751
89.5408
89.7216
89.9199
90.1294
90.3447
90.4195
90.0573
81.7729
77.4524
50.9159
11.5975
4.05195
4.33787
3.58593
1.33434
0.298244
0.0460561
-0.01193
-0.0689856
-0.116113
-0.134913
-0.138904
-0.139805
-0.140118
-0.14009
90.8386
90.8286
90.8181
90.8097
90.8034
90.799
90.7964
90.7956
90.7966
90.7993
90.8037
90.8099
90.8177
90.8272
90.8381
90.8506
90.8642
90.8789
90.8942
90.9101
90.9263
90.9428
90.9592
90.9757
90.9916
91.0068
91.0215
91.0408
91.0692
91.1056
91.1323
91.162
91.1967
91.2677
91.2687
90.9609
83.7884
77.7301
52.5961
18.6937
4.15524
3.92763
3.3234
1.31688
0.222337
0.00116581
-0.0616251
-0.102776
-0.12045
-0.127233
93.274
93.2535
93.2329
93.2159
93.2021
93.1909
93.1823
93.1762
93.1725
93.1714
93.1728
93.1766
93.1829
93.1916
93.2027
93.2162
93.232
93.2501
93.2706
93.2934
93.3184
93.3458
93.3753
93.4071
93.4408
93.4764
93.5137
93.5525
93.5926
93.6336
93.6753
93.7184
93.7651
93.8146
93.8543
93.8829
93.9127
93.9903
94.0185
93.7595
86.0428
83.6633
59.8475
19.7024
4.86108
3.54953
1.70019
0.399941
0.0697169
-0.0409093
94.7421
94.7181
94.6924
94.67
94.651
94.6347
94.621
94.6099
94.6013
94.5952
94.5917
94.5906
94.5921
94.5962
94.6027
94.6118
94.6233
94.6374
94.6541
94.6733
94.6951
94.7195
94.7466
94.7764
94.8088
94.8441
94.8822
94.9232
94.9671
95.014
95.0641
95.1172
95.1735
95.2329
95.2958
95.3632
95.4365
95.5131
95.58
95.6503
95.7173
95.816
95.8225
94.1167
87.6981
69.8902
21.9057
5.66448
2.77468
1.02234
96.3189
96.292
96.2643
96.2406
96.2204
96.2031
96.1884
96.1764
96.1671
96.1604
96.1564
96.1551
96.1563
96.1603
96.1669
96.1761
96.188
96.2026
96.2199
96.2399
96.2626
96.2881
96.3164
96.3475
96.3815
96.4185
96.4584
96.5013
96.5473
96.5965
96.6489
96.7046
96.7637
96.8264
96.8926
96.9626
97.0364
97.1143
97.1963
97.2838
97.3772
97.4735
97.5626
97.64
97.7663
97.9681
97.9483
87.5484
54.6243
21.1591
96.9178
96.8978
96.876
96.8566
96.8395
96.8242
96.8105
96.7986
96.7883
96.7797
96.7727
96.7675
96.7638
96.7618
96.7614
96.7627
96.7655
96.77
96.7761
96.7838
96.7931
96.8039
96.8164
96.8304
96.8461
96.8632
96.882
96.9022
96.9241
96.9475
96.9723
96.9988
97.0267
97.0561
97.087
97.1194
97.1533
97.1886
97.2253
97.2635
97.3029
97.3439
97.3868
97.4325
97.4783
97.5133
97.5433
97.5721
97.4566
90.9742
97.6243
97.6089
97.5926
97.578
97.565
97.5532
97.5426
97.5331
97.5247
97.5175
97.5114
97.5064
97.5025
97.4997
97.498
97.4974
97.4978
97.4993
97.5018
97.5053
97.5098
97.5152
97.5216
97.5289
97.537
97.546
97.5558
97.5663
97.5776
97.5895
97.6021
97.6152
97.6289
97.643
97.6575
97.6723
97.6873
97.7025
97.7178
97.7331
97.7481
97.7629
97.7774
97.7914
97.8045
97.8164
97.8269
97.8373
97.8565
97.8778
97.9738
97.9641
97.9537
97.9441
97.9354
97.9272
97.9197
97.9127
97.9062
97.9004
97.895
97.8903
97.8861
97.8825
97.8794
97.8769
97.8749
97.8734
97.8724
97.872
97.872
97.8725
97.8735
97.8749
97.8768
97.8791
97.8818
97.8848
97.8883
97.892
97.8961
97.9005
97.9051
97.91
97.915
97.9202
97.9255
97.931
97.9365
97.9419
97.9474
97.9527
97.9579
97.9628
97.9673
97.9712
97.9735
97.9869
97.9806
97.9872
98.2315
98.2252
98.2181
98.2116
98.2057
98.2002
98.1953
98.1908
98.1867
98.1831
98.1799
98.1772
98.175
98.1732
98.1719
98.171
98.1706
98.1707
98.1712
98.1722
98.1736
98.1755
98.1778
98.1806
98.1838
98.1875
98.1917
98.1963
98.2013
98.2068
98.2128
98.2191
98.226
98.2333
98.241
98.2493
98.2579
98.2671
98.2768
98.2869
98.2976
98.3087
98.3204
98.3325
98.345
98.3574
98.3691
98.3991
98.4185
98.4357
98.6857
98.6829
98.6804
98.6782
98.6762
98.6742
98.6722
98.6703
98.6684
98.6665
98.6647
98.663
98.6613
98.6596
98.6581
98.6565
98.6551
98.6536
98.6523
98.651
98.6497
98.6485
98.6474
98.6464
98.6453
98.6444
98.6435
98.6427
98.6419
98.6412
98.6406
98.6401
98.6396
98.6392
98.6388
98.6386
98.6384
98.6383
98.6384
98.6385
98.6388
98.6392
98.6397
98.6399
98.6401
98.6419
98.6501
98.6818
98.6513
98.4623
98.555
98.5556
98.5551
98.5542
98.5533
98.5525
98.5517
98.5509
98.5501
98.5493
98.5485
98.5477
98.5469
98.5461
98.5453
98.5445
98.5437
98.5429
98.5421
98.5412
98.5404
98.5395
98.5386
98.5376
98.5366
98.5356
98.5345
98.5334
98.5321
98.5308
98.5294
98.5278
98.5261
98.5243
98.5223
98.52
98.5175
98.5148
98.5117
98.5083
98.5045
98.5001
98.4949
98.4893
98.4856
98.4875
98.4844
98.4136
98.179
94.4312
99.4111
99.4129
99.4164
99.4201
99.4234
99.4262
99.4286
99.4306
99.4323
99.4336
99.4344
99.4349
99.435
99.4348
99.4341
99.4331
99.4317
99.43
99.4279
99.4254
99.4225
99.4193
99.4158
99.4118
99.4075
99.4027
99.3976
99.392
99.386
99.3796
99.3726
99.3652
99.3573
99.3488
99.3397
99.3301
99.3197
99.3088
99.2971
99.2847
99.2714
99.2571
99.2421
99.2289
99.2209
99.2068
99.1226
98.877
87.175
30.9401
98.8176
98.826
98.8327
98.838
98.8428
98.8473
98.8514
98.855
98.8582
98.861
98.8633
98.8652
98.8667
98.8679
98.8686
98.8691
98.8693
98.8692
98.8689
98.8685
98.8679
98.8673
98.8667
98.8662
98.8657
98.8655
98.8655
98.8658
98.8665
98.8677
98.8695
98.872
98.8752
98.8794
98.8846
98.891
98.8988
98.908
98.9189
98.9316
98.9463
98.9635
98.9852
99.0139
99.0418
99.0261
98.9111
85.4328
13.2797
0.0883238
100.394
100.417
100.443
100.466
100.483
100.496
100.507
100.514
100.52
100.524
100.526
100.526
100.526
100.525
100.523
100.521
100.518
100.515
100.512
100.509
100.506
100.504
100.501
100.499
100.498
100.497
100.496
100.495
100.495
100.496
100.496
100.497
100.498
100.499
100.5
100.501
100.501
100.501
100.5
100.497
100.493
100.487
100.479
100.47
100.454
100.402
100.285
72.4914
8.8528
0.317201
99.0319
99.1044
99.1702
99.2195
99.2563
99.284
99.3042
99.3178
99.3254
99.3276
99.3252
99.3184
99.3079
99.294
99.2768
99.2568
99.234
99.2087
99.181
99.1509
99.1185
99.0839
99.0469
99.0077
98.966
98.9219
98.8752
98.8257
98.7733
98.7176
98.6584
98.5954
98.5282
98.4564
98.3793
98.2965
98.2072
98.1105
98.0055
97.8914
97.7677
97.6338
97.4827
97.2891
97.0296
96.8364
97.3282
18.7084
-0.0129331
-0.100252
105.396
104.979
104.562
104.206
103.898
103.623
103.373
103.147
102.943
102.757
102.589
102.436
102.297
102.172
102.059
101.957
101.866
101.786
101.716
101.655
101.603
101.561
101.529
101.506
101.492
101.488
101.494
101.511
101.539
101.579
101.631
101.698
101.779
101.876
101.991
102.127
102.284
102.468
102.68
102.925
103.208
103.534
103.908
104.339
104.85
105.487
106.245
106.799
89.3058
-0.0816863
-0.163758
-0.163729
-0.16369
-0.163643
-0.163589
-0.16353
-0.163468
-0.163404
-0.163339
-0.163275
-0.163212
-0.163152
-0.163094
-0.16304
-0.16299
-0.162946
-0.162906
-0.162872
-0.162844
-0.162822
-0.162806
-0.162797
-0.162793
-0.162796
-0.162806
-0.162821
-0.162842
-0.162869
-0.162902
-0.16294
-0.162983
-0.163031
-0.163084
-0.163141
-0.163202
-0.163266
-0.163334
-0.163405
-0.163478
-0.163554
-0.163633
-0.163713
-0.163794
-0.163878
-0.163962
-0.164047
-0.164133
-0.164219
-0.164305
-0.164392
-0.168056
-0.167559
-0.167062
-0.166571
-0.166092
-0.165631
-0.165191
-0.164774
-0.164381
-0.164014
-0.163672
-0.163356
-0.163065
-0.1628
-0.162559
-0.162343
-0.16215
-0.16198
-0.161832
-0.161705
-0.161599
-0.161513
-0.161445
-0.161396
-0.161364
-0.161348
-0.161347
-0.161361
-0.161388
-0.161429
-0.161481
-0.161544
-0.161618
-0.161701
-0.161792
-0.161891
-0.161997
-0.16211
-0.162228
-0.162351
-0.162477
-0.162608
-0.162741
-0.162876
-0.163013
-0.163152
-0.163291
-0.16343
-0.163568
-0.163706
-0.158661
-0.158363
-0.158062
-0.157758
-0.157463
-0.157187
-0.156931
-0.156698
-0.156489
-0.156306
-0.156147
-0.156014
-0.155905
-0.15582
-0.155759
-0.155721
-0.155704
-0.155709
-0.155733
-0.155777
-0.15584
-0.15592
-0.156017
-0.15613
-0.156257
-0.156399
-0.156554
-0.156721
-0.1569
-0.157089
-0.157288
-0.157496
-0.157711
-0.157934
-0.158163
-0.158398
-0.158638
-0.158881
-0.159128
-0.159377
-0.159628
-0.159881
-0.160133
-0.160385
-0.160637
-0.160887
-0.161135
-0.16138
-0.161622
-0.161861
-0.142376
-0.142567
-0.142784
-0.143007
-0.143238
-0.143482
-0.143733
-0.143991
-0.144255
-0.144524
-0.144798
-0.145076
-0.145358
-0.145645
-0.145937
-0.146232
-0.146533
-0.146839
-0.147151
-0.147467
-0.147789
-0.148117
-0.14845
-0.148789
-0.149133
-0.149482
-0.149837
-0.150196
-0.15056
-0.150928
-0.1513
-0.151676
-0.152055
-0.152437
-0.152821
-0.153208
-0.153595
-0.153983
-0.154372
-0.154761
-0.155149
-0.155535
-0.15592
-0.156303
-0.156683
-0.15706
-0.157433
-0.157801
-0.158163
-0.158521
-0.140136
-0.140183
-0.140144
-0.140126
-0.140117
-0.140131
-0.140154
-0.140192
-0.140243
-0.14031
-0.140392
-0.14049
-0.140604
-0.140733
-0.140879
-0.14104
-0.141217
-0.14141
-0.141619
-0.141843
-0.142083
-0.142338
-0.142608
-0.142893
-0.143192
-0.143504
-0.14383
-0.144168
-0.144519
-0.144881
-0.145254
-0.145638
-0.146032
-0.146434
-0.146845
-0.147264
-0.147689
-0.148121
-0.148558
-0.149
-0.149446
-0.149895
-0.150347
-0.150801
-0.151255
-0.15171
-0.152164
-0.152617
-0.153066
-0.153514
-0.130552
-0.132333
-0.132362
-0.132385
-0.132382
-0.132403
-0.132363
-0.132339
-0.132326
-0.132329
-0.132349
-0.132388
-0.132447
-0.132526
-0.132626
-0.132747
-0.132888
-0.133051
-0.133233
-0.133436
-0.133659
-0.133902
-0.134163
-0.134444
-0.134743
-0.135059
-0.135393
-0.135744
-0.13611
-0.136492
-0.136888
-0.137299
-0.137723
-0.138159
-0.138607
-0.139066
-0.139536
-0.140015
-0.140503
-0.140998
-0.141501
-0.142011
-0.142525
-0.143045
-0.143569
-0.144096
-0.144626
-0.145156
-0.145686
-0.146217
-0.0900535
-0.110084
-0.118902
-0.122776
-0.124393
-0.124393
-0.124387
-0.124399
-0.124371
-0.124348
-0.124337
-0.124343
-0.124366
-0.124409
-0.124472
-0.124556
-0.124661
-0.124788
-0.124936
-0.125106
-0.125297
-0.125509
-0.125742
-0.125995
-0.126268
-0.126561
-0.126873
-0.127203
-0.127551
-0.127917
-0.128299
-0.128698
-0.129112
-0.129542
-0.129985
-0.130442
-0.130912
-0.131394
-0.131888
-0.132392
-0.132907
-0.133431
-0.133963
-0.134503
-0.135051
-0.135605
-0.136164
-0.136728
-0.137295
-0.137866
0.361552
0.109603
-0.0245579
-0.0859773
-0.107902
-0.114536
-0.116284
-0.116331
-0.116382
-0.116409
-0.116413
-0.116419
-0.116436
-0.116467
-0.116515
-0.116582
-0.116667
-0.116773
-0.116899
-0.117047
-0.117215
-0.117404
-0.117614
-0.117844
-0.118095
-0.118365
-0.118654
-0.118963
-0.11929
-0.119635
-0.119997
-0.120377
-0.120773
-0.121184
-0.121612
-0.122053
-0.122509
-0.122979
-0.123461
-0.123956
-0.124463
-0.12498
-0.125508
-0.126046
-0.126593
-0.127148
-0.127712
-0.128282
-0.128858
-0.12944
9.03961
3.74113
1.23111
0.310682
0.021103
-0.0706821
-0.0999518
-0.108278
-0.110157
-0.11026
-0.110345
-0.1104
-0.110439
-0.110479
-0.110527
-0.110589
-0.110666
-0.11076
-0.110873
-0.111005
-0.111157
-0.111328
-0.111519
-0.111729
-0.111959
-0.112207
-0.112474
-0.11276
-0.113063
-0.113384
-0.113721
-0.114075
-0.114446
-0.114831
-0.115232
-0.115648
-0.116078
-0.116521
-0.116978
-0.117448
-0.11793
-0.118423
-0.118928
-0.119443
-0.119969
-0.120505
-0.12105
-0.121603
-0.122164
-0.122733
71.0947
41.9077
19.1612
6.9053
1.91011
0.389128
0.00255229
-0.0833501
-0.10259
-0.106567
-0.106887
-0.107071
-0.107154
-0.107212
-0.107267
-0.107326
-0.107395
-0.107476
-0.107573
-0.107686
-0.107816
-0.107965
-0.108132
-0.108316
-0.108519
-0.10874
-0.108978
-0.109233
-0.109506
-0.109794
-0.110099
-0.110419
-0.110755
-0.111105
-0.111471
-0.11185
-0.112243
-0.11265
-0.11307
-0.113503
-0.113948
-0.114405
-0.114873
-0.115353
-0.115844
-0.116345
-0.116857
-0.117378
-0.117909
-0.118448
97.7855
90.6739
73.4771
38.7825
9.52454
1.38166
0.117177
-0.059832
-0.0938361
-0.104201
-0.106634
-0.106857
-0.10695
-0.107
-0.107036
-0.107072
-0.107113
-0.107165
-0.10723
-0.107309
-0.107406
-0.107519
-0.107651
-0.107799
-0.107965
-0.108148
-0.108347
-0.108564
-0.108796
-0.109043
-0.109307
-0.109585
-0.109878
-0.110186
-0.110507
-0.110843
-0.111192
-0.111555
-0.11193
-0.112319
-0.11272
-0.113133
-0.113558
-0.113995
-0.114443
-0.114902
-0.115372
-0.115853
-0.116346
-0.116847
97.9942
97.9364
96.5733
63.919
14.3782
1.47892
0.0144307
-0.0908129
-0.099188
-0.103481
-0.106654
-0.10731
-0.107423
-0.107455
-0.107471
-0.107489
-0.107516
-0.107556
-0.107611
-0.107682
-0.107771
-0.107878
-0.108002
-0.108145
-0.108304
-0.10848
-0.108672
-0.108879
-0.109102
-0.109338
-0.109589
-0.109853
-0.110131
-0.110422
-0.110726
-0.111042
-0.111371
-0.111713
-0.112066
-0.112432
-0.112809
-0.113198
-0.113599
-0.114011
-0.114435
-0.114869
-0.115315
-0.115772
-0.116241
-0.11672
98.3979
98.2183
81.0118
32.6891
4.18634
0.275783
-0.0917436
-0.103806
-0.103071
-0.10373
-0.105658
-0.106922
-0.107173
-0.107211
-0.107215
-0.107223
-0.107245
-0.107282
-0.107338
-0.107414
-0.107511
-0.10763
-0.10777
-0.107931
-0.108111
-0.108309
-0.108525
-0.108758
-0.109006
-0.109268
-0.109544
-0.109833
-0.110134
-0.110447
-0.110772
-0.111107
-0.111453
-0.11181
-0.112176
-0.112553
-0.11294
-0.113337
-0.113744
-0.114161
-0.114587
-0.115024
-0.11547
-0.115927
-0.116395
-0.116873
98.0633
72.9538
26.3696
5.62494
0.695189
-0.0609146
-0.107819
-0.105293
-0.105739
-0.0998208
-0.104752
-0.105234
-0.105376
-0.105553
-0.105736
-0.105836
-0.105888
-0.105926
-0.10597
-0.106028
-0.106107
-0.106209
-0.106335
-0.106486
-0.106661
-0.106861
-0.107083
-0.107327
-0.107591
-0.107873
-0.108174
-0.10849
-0.108821
-0.109166
-0.109524
-0.109894
-0.110275
-0.110667
-0.111069
-0.11148
-0.111901
-0.112331
-0.11277
-0.113217
-0.113672
-0.114137
-0.114609
-0.11509
-0.115581
-0.11608
51.0053
10.8385
1.12539
0.00862295
-0.104869
-0.103968
-0.104127
-0.104152
-0.104215
-0.104127
-0.103906
-0.103889
-0.103741
-0.103799
-0.103924
-0.103992
-0.104068
-0.104118
-0.10415
-0.104182
-0.104223
-0.104278
-0.104351
-0.104445
-0.104563
-0.104704
-0.104869
-0.105059
-0.105274
-0.105515
-0.105779
-0.106064
-0.106371
-0.106696
-0.10704
-0.107402
-0.10778
-0.108172
-0.108579
-0.108998
-0.109429
-0.109872
-0.110325
-0.110789
-0.111263
-0.111746
-0.112238
-0.112739
-0.11325
-0.11377
3.67896
0.023452
-0.100499
-0.100805
-0.102377
-0.102583
-0.102601
-0.102597
-0.102591
-0.102584
-0.102577
-0.102566
-0.102545
-0.102491
-0.10244
-0.102432
-0.102467
-0.102483
-0.10238
-0.102342
-0.102337
-0.102387
-0.102436
-0.102471
-0.102521
-0.102582
-0.102653
-0.102739
-0.102841
-0.102952
-0.103097
-0.103188
-0.103359
-0.103758
-0.104047
-0.104301
-0.104573
-0.104868
-0.105184
-0.105519
-0.105871
-0.10624
-0.106626
-0.107028
-0.107445
-0.107876
-0.10832
-0.108779
-0.10925
-0.109733
-0.0652961
-0.0910986
-0.10176
-0.101995
-0.102203
-0.102291
-0.102312
-0.10232
-0.102324
-0.102327
-0.102328
-0.102326
-0.10232
-0.10231
-0.102298
-0.102282
-0.10226
-0.102235
-0.102213
-0.102186
-0.102148
-0.102127
-0.102116
-0.10202
-0.102058
-0.101991
-0.101996
-0.101976
-0.10198
-0.101884
-0.101882
-0.102152
-0.102261
-0.102301
-0.102349
-0.102403
-0.102491
-0.102511
-0.102617
-0.102912
-0.103092
-0.103258
-0.10344
-0.103642
-0.103863
-0.104104
-0.104364
-0.104644
-0.104942
-0.105258
-0.0996614
-0.101309
-0.101555
-0.101581
-0.101597
-0.101613
-0.101622
-0.101631
-0.101637
-0.101644
-0.101648
-0.101651
-0.101654
-0.101652
-0.101649
-0.101645
-0.101638
-0.10163
-0.101621
-0.10161
-0.101598
-0.101584
-0.101568
-0.101552
-0.101533
-0.101514
-0.101495
-0.101475
-0.101449
-0.101424
-0.101419
-0.101396
-0.101307
-0.100919
-0.101198
-0.101162
-0.101205
-0.10128
-0.101312
-0.101326
-0.101342
-0.101368
-0.101409
-0.101453
-0.101504
-0.101565
-0.101635
-0.101717
-0.101811
-0.101917
-0.101449
-0.101647
-0.101743
-0.101757
-0.101761
-0.101798
-0.101811
-0.101832
-0.101839
-0.101852
-0.101854
-0.101855
-0.101861
-0.101855
-0.101848
-0.101838
-0.101828
-0.101814
-0.101799
-0.101785
-0.101765
-0.101748
-0.101728
-0.101707
-0.101685
-0.101662
-0.101638
-0.101612
-0.101586
-0.101559
-0.101531
-0.101503
-0.101473
-0.10144
-0.101411
-0.101381
-0.10135
-0.101319
-0.101287
-0.101272
-0.101251
-0.101172
-0.100942
-0.101078
-0.10106
-0.101097
-0.101071
-0.101055
-0.100837
-0.100837
-0.101705
-0.101498
-0.10148
-0.101489
-0.100616
-0.101619
-0.101546
-0.101631
-0.101549
-0.10161
-0.101568
-0.10148
-0.101786
-0.10177
-0.101749
-0.101711
-0.101722
-0.10169
-0.101654
-0.101687
-0.101667
-0.101645
-0.101622
-0.101601
-0.101579
-0.101557
-0.101535
-0.101513
-0.101491
-0.101469
-0.101448
-0.101427
-0.101406
-0.101385
-0.101365
-0.101346
-0.101328
-0.10131
-0.101294
-0.101279
-0.101265
-0.101254
-0.101245
-0.101239
-0.101235
-0.101234
-0.101237
-0.101244
-0.101253
-0.101269
-0.164461
-0.164511
-0.164561
-0.164612
-0.164663
-0.164714
-0.164765
-0.164816
-0.164867
-0.164919
-0.16497
-0.165022
-0.165073
-0.165125
-0.165177
-0.165229
-0.165281
-0.165334
-0.165386
-0.165439
-0.165492
-0.165545
-0.165599
-0.165653
-0.165707
-0.165761
-0.165815
-0.16587
-0.165925
-0.165981
-0.166036
-0.166093
-0.166149
-0.166206
-0.166263
-0.166321
-0.166379
-0.166437
-0.166496
-0.166555
-0.166615
-0.166675
-0.166736
-0.166797
-0.166858
-0.16692
-0.166982
-0.167045
-0.167109
-0.167172
-0.167237
-0.167301
-0.167366
-0.167432
-0.167498
-0.167565
-0.167632
-0.167699
-0.167767
-0.167835
-0.167904
-0.167973
-0.168042
-0.168112
-0.168182
-0.168253
-0.168324
-0.168395
-0.168466
-0.168538
-0.16861
-0.168683
-0.168756
-0.168829
-0.168902
-0.168976
-0.169049
-0.169123
-0.169198
-0.169272
-0.169347
-0.169422
-0.169497
-0.169573
-0.169648
-0.169724
-0.1698
-0.169877
-0.169953
-0.17003
-0.170107
-0.170184
-0.170261
-0.170339
-0.170417
-0.170494
-0.170573
-0.170651
-0.17073
-0.170808
-0.170888
-0.170967
-0.171046
-0.171126
-0.171206
-0.171287
-0.171367
-0.171448
-0.171529
-0.171611
-0.171693
-0.171775
-0.171857
-0.17194
-0.172023
-0.172106
-0.17219
-0.172274
-0.172358
-0.172443
-0.172528
-0.172614
-0.1727
-0.172786
-0.172873
-0.17296
-0.173048
-0.173136
-0.173225
-0.173314
-0.173403
-0.173493
-0.173584
-0.173675
-0.173767
-0.173859
-0.173952
-0.174045
-0.174139
-0.174234
-0.174329
-0.174425
-0.174522
-0.17462
-0.174718
-0.174817
-0.174917
-0.175017
-0.175119
-0.175221
-0.175324
-0.175428
-0.175533
-0.17564
-0.175747
-0.175855
-0.175964
-0.176075
-0.176186
-0.176299
-0.176413
-0.176528
-0.176645
-0.176763
-0.176882
-0.177003
-0.177125
-0.177249
-0.177374
-0.177501
-0.17763
-0.17776
-0.177892
-0.178026
-0.178162
-0.1783
-0.178439
-0.178581
-0.178725
-0.17887
-0.179019
-0.179169
-0.179321
-0.179476
-0.179634
-0.179794
-0.179956
-0.180122
-0.180289
-0.18046
-0.180634
-0.18081
-0.18099
-0.181172
-0.181358
-0.181547
-0.18174
-0.181936
-0.182135
-0.182339
-0.182546
-0.182756
-0.182971
-0.18319
-0.183413
-0.18364
-0.183872
-0.184108
-0.184349
-0.184594
-0.184843
-0.185097
-0.185356
-0.18562
-0.185888
-0.186162
-0.18644
-0.186723
-0.187011
-0.187304
-0.187602
-0.187906
-0.188214
-0.188528
-0.188846
-0.18917
-0.189499
-0.189833
-0.190172
-0.190516
-0.190865
-0.19122
-0.191579
-0.191943
-0.192313
-0.192687
-0.193066
-0.19345
-0.193839
-0.194232
-0.19463
-0.195033
-0.19544
-0.195851
-0.196267
-0.196688
-0.197112
-0.197541
-0.197973
-0.19841
-0.198851
-0.199295
-0.199743
-0.200194
-0.200649
-0.201107
-0.201568
-0.202032
-0.202498
-0.202968
-0.20344
-0.203914
-0.204391
-0.20487
-0.205351
-0.205833
-0.206317
-0.206803
-0.207291
-0.207779
-0.208269
-0.20876
-0.209252
-0.209744
-0.210238
-0.210732
-0.211226
-0.211721
-0.212216
-0.212712
-0.213207
-0.213703
-0.214199
-0.214694
-0.21519
-0.215685
-0.21618
-0.216675
-0.217169
-0.217663
-0.218157
-0.218651
-0.219145
-0.219639
-0.220134
-0.220629
-0.221124
-0.221627
-0.222139
-0.222638
-0.163814
-0.163892
-0.16397
-0.164048
-0.164126
-0.164203
-0.16428
-0.164357
-0.164433
-0.164509
-0.164584
-0.164659
-0.164734
-0.164807
-0.164881
-0.164953
-0.165025
-0.165097
-0.165168
-0.165238
-0.165308
-0.165377
-0.165445
-0.165513
-0.16558
-0.165647
-0.165713
-0.165779
-0.165844
-0.165908
-0.165972
-0.166036
-0.166099
-0.166161
-0.166223
-0.166285
-0.166347
-0.166408
-0.166469
-0.166529
-0.166589
-0.16665
-0.166709
-0.166769
-0.166829
-0.166888
-0.166947
-0.167007
-0.167066
-0.167125
-0.167184
-0.167244
-0.167303
-0.167362
-0.167422
-0.167482
-0.167541
-0.167601
-0.167661
-0.167722
-0.167782
-0.167843
-0.167904
-0.167965
-0.168026
-0.168088
-0.16815
-0.168213
-0.168275
-0.168338
-0.168402
-0.168465
-0.168529
-0.168593
-0.168658
-0.168723
-0.168788
-0.168854
-0.16892
-0.168986
-0.169053
-0.16912
-0.169188
-0.169256
-0.169324
-0.169393
-0.169462
-0.169531
-0.169601
-0.169671
-0.169741
-0.169812
-0.169883
-0.169955
-0.170027
-0.170099
-0.170172
-0.170245
-0.170318
-0.170392
-0.170466
-0.170541
-0.170616
-0.170691
-0.170767
-0.170843
-0.170919
-0.170996
-0.171073
-0.171151
-0.171229
-0.171308
-0.171386
-0.171466
-0.171545
-0.171626
-0.171706
-0.171787
-0.171869
-0.171951
-0.172033
-0.172116
-0.1722
-0.172284
-0.172368
-0.172453
-0.172539
-0.172625
-0.172711
-0.172798
-0.172886
-0.172975
-0.173064
-0.173154
-0.173244
-0.173335
-0.173427
-0.173519
-0.173612
-0.173706
-0.173801
-0.173897
-0.173993
-0.17409
-0.174188
-0.174287
-0.174387
-0.174488
-0.17459
-0.174693
-0.174797
-0.174902
-0.175008
-0.175115
-0.175223
-0.175333
-0.175444
-0.175556
-0.175669
-0.175784
-0.1759
-0.176017
-0.176136
-0.176256
-0.176378
-0.176502
-0.176627
-0.176753
-0.176882
-0.177012
-0.177144
-0.177279
-0.177415
-0.177553
-0.177693
-0.177835
-0.17798
-0.178127
-0.178276
-0.178428
-0.178582
-0.178739
-0.178899
-0.179062
-0.179227
-0.179395
-0.179567
-0.179741
-0.179919
-0.180101
-0.180285
-0.180474
-0.180665
-0.180861
-0.18106
-0.181263
-0.18147
-0.181681
-0.181896
-0.182115
-0.182338
-0.182566
-0.182797
-0.183033
-0.183273
-0.183518
-0.183767
-0.184021
-0.184279
-0.184541
-0.184808
-0.18508
-0.185356
-0.185637
-0.185923
-0.186213
-0.186508
-0.186808
-0.187112
-0.187422
-0.187736
-0.188055
-0.188379
-0.188708
-0.189041
-0.18938
-0.189723
-0.190072
-0.190425
-0.190783
-0.191146
-0.191513
-0.191886
-0.192263
-0.192645
-0.193032
-0.193423
-0.193819
-0.194219
-0.194624
-0.195033
-0.195446
-0.195864
-0.196285
-0.196711
-0.197141
-0.197574
-0.198011
-0.198452
-0.198896
-0.199344
-0.199794
-0.200248
-0.200705
-0.201165
-0.201627
-0.202092
-0.202559
-0.203028
-0.203499
-0.203973
-0.204447
-0.204923
-0.205401
-0.205881
-0.206361
-0.206843
-0.207326
-0.20781
-0.208294
-0.208779
-0.209264
-0.209749
-0.210235
-0.21072
-0.211206
-0.211692
-0.212177
-0.212663
-0.213148
-0.213634
-0.214119
-0.214604
-0.215089
-0.215573
-0.216057
-0.216541
-0.217025
-0.217509
-0.217992
-0.218476
-0.218959
-0.219443
-0.219927
-0.220412
-0.220895
-0.221378
-0.221871
-0.222382
-0.222879
-0.162045
-0.162176
-0.162308
-0.162439
-0.162568
-0.162697
-0.162825
-0.162952
-0.163077
-0.163202
-0.163325
-0.163447
-0.163567
-0.163687
-0.163804
-0.163921
-0.164035
-0.164149
-0.16426
-0.16437
-0.164478
-0.164585
-0.16469
-0.164794
-0.164895
-0.164995
-0.165094
-0.165191
-0.165286
-0.165379
-0.165471
-0.165561
-0.16565
-0.165738
-0.165823
-0.165908
-0.16599
-0.166072
-0.166152
-0.16623
-0.166308
-0.166384
-0.166458
-0.166532
-0.166604
-0.166676
-0.166746
-0.166815
-0.166884
-0.166951
-0.167017
-0.167083
-0.167148
-0.167212
-0.167275
-0.167338
-0.1674
-0.167462
-0.167523
-0.167584
-0.167644
-0.167704
-0.167763
-0.167823
-0.167882
-0.16794
-0.167999
-0.168057
-0.168116
-0.168174
-0.168232
-0.168291
-0.168349
-0.168408
-0.168466
-0.168525
-0.168583
-0.168642
-0.168702
-0.168761
-0.168821
-0.168881
-0.168941
-0.169002
-0.169062
-0.169124
-0.169185
-0.169248
-0.16931
-0.169373
-0.169436
-0.1695
-0.169565
-0.169629
-0.169695
-0.16976
-0.169827
-0.169894
-0.169961
-0.170029
-0.170097
-0.170166
-0.170236
-0.170306
-0.170377
-0.170448
-0.17052
-0.170593
-0.170666
-0.170739
-0.170814
-0.170889
-0.170964
-0.17104
-0.171117
-0.171195
-0.171273
-0.171352
-0.171432
-0.171512
-0.171593
-0.171674
-0.171757
-0.17184
-0.171924
-0.172009
-0.172094
-0.17218
-0.172267
-0.172355
-0.172444
-0.172534
-0.172624
-0.172715
-0.172808
-0.172901
-0.172995
-0.17309
-0.173186
-0.173283
-0.173381
-0.173481
-0.173581
-0.173682
-0.173785
-0.173889
-0.173994
-0.1741
-0.174208
-0.174317
-0.174427
-0.174539
-0.174652
-0.174767
-0.174883
-0.175001
-0.17512
-0.175241
-0.175364
-0.175489
-0.175615
-0.175744
-0.175874
-0.176006
-0.17614
-0.176277
-0.176416
-0.176556
-0.176699
-0.176845
-0.176993
-0.177143
-0.177296
-0.177451
-0.17761
-0.17777
-0.177934
-0.1781
-0.17827
-0.178442
-0.178617
-0.178795
-0.178977
-0.179161
-0.179349
-0.17954
-0.179734
-0.179932
-0.180133
-0.180337
-0.180545
-0.180757
-0.180972
-0.181192
-0.181414
-0.181641
-0.181871
-0.182106
-0.182344
-0.182587
-0.182833
-0.183084
-0.183338
-0.183598
-0.183861
-0.184129
-0.184401
-0.184677
-0.184958
-0.185244
-0.185534
-0.185829
-0.186128
-0.186432
-0.186741
-0.187054
-0.187372
-0.187695
-0.188023
-0.188355
-0.188692
-0.189033
-0.189379
-0.18973
-0.190086
-0.190446
-0.19081
-0.191179
-0.191553
-0.191931
-0.192314
-0.1927
-0.193091
-0.193487
-0.193886
-0.194289
-0.194696
-0.195107
-0.195522
-0.19594
-0.196362
-0.196788
-0.197216
-0.197648
-0.198083
-0.198521
-0.198961
-0.199405
-0.19985
-0.200298
-0.200749
-0.201201
-0.201655
-0.202112
-0.202569
-0.203029
-0.203489
-0.203951
-0.204414
-0.204878
-0.205342
-0.205807
-0.206272
-0.206738
-0.207203
-0.207669
-0.208135
-0.2086
-0.209065
-0.209529
-0.209993
-0.210456
-0.210919
-0.211381
-0.211841
-0.2123
-0.212759
-0.213216
-0.213673
-0.214127
-0.214581
-0.215033
-0.215484
-0.215935
-0.216384
-0.216832
-0.21728
-0.217727
-0.218173
-0.218618
-0.219063
-0.219508
-0.219953
-0.220399
-0.220844
-0.221288
-0.22173
-0.222184
-0.222661
-0.223128
-0.158796
-0.158992
-0.159188
-0.159383
-0.159576
-0.159769
-0.15996
-0.16015
-0.160339
-0.160526
-0.160711
-0.160895
-0.161077
-0.161258
-0.161436
-0.161613
-0.161787
-0.16196
-0.16213
-0.162298
-0.162464
-0.162628
-0.162789
-0.162948
-0.163104
-0.163258
-0.16341
-0.163558
-0.163705
-0.163849
-0.16399
-0.164129
-0.164265
-0.164398
-0.164529
-0.164657
-0.164783
-0.164906
-0.165028
-0.165146
-0.165263
-0.165377
-0.165489
-0.165598
-0.165706
-0.165811
-0.165914
-0.166015
-0.166114
-0.166211
-0.166307
-0.1664
-0.166491
-0.166581
-0.166669
-0.166755
-0.16684
-0.166923
-0.167005
-0.167085
-0.167164
-0.167241
-0.167318
-0.167393
-0.167467
-0.16754
-0.167612
-0.167683
-0.167754
-0.167823
-0.167892
-0.16796
-0.168027
-0.168094
-0.168161
-0.168226
-0.168292
-0.168357
-0.168422
-0.168486
-0.168551
-0.168615
-0.168679
-0.168743
-0.168807
-0.168871
-0.168936
-0.169
-0.169064
-0.169129
-0.169194
-0.169259
-0.169324
-0.16939
-0.169456
-0.169523
-0.16959
-0.169657
-0.169725
-0.169794
-0.169863
-0.169932
-0.170003
-0.170073
-0.170145
-0.170217
-0.17029
-0.170363
-0.170438
-0.170513
-0.170589
-0.170665
-0.170743
-0.170821
-0.170901
-0.170981
-0.171062
-0.171144
-0.171227
-0.171311
-0.171396
-0.171482
-0.171569
-0.171657
-0.171746
-0.171836
-0.171928
-0.172021
-0.172115
-0.17221
-0.172306
-0.172404
-0.172503
-0.172603
-0.172705
-0.172808
-0.172912
-0.173018
-0.173126
-0.173235
-0.173345
-0.173457
-0.173571
-0.173686
-0.173803
-0.173922
-0.174043
-0.174165
-0.174289
-0.174415
-0.174543
-0.174673
-0.174804
-0.174938
-0.175074
-0.175212
-0.175352
-0.175494
-0.175638
-0.175785
-0.175934
-0.176085
-0.176238
-0.176394
-0.176552
-0.176713
-0.176877
-0.177043
-0.177211
-0.177382
-0.177556
-0.177733
-0.177912
-0.178095
-0.17828
-0.178468
-0.178659
-0.178853
-0.179051
-0.179251
-0.179455
-0.179662
-0.179872
-0.180086
-0.180303
-0.180524
-0.180748
-0.180976
-0.181208
-0.181443
-0.181682
-0.181925
-0.182172
-0.182422
-0.182677
-0.182936
-0.183199
-0.183466
-0.183737
-0.184012
-0.184292
-0.184576
-0.184864
-0.185156
-0.185453
-0.185754
-0.18606
-0.18637
-0.186685
-0.187003
-0.187327
-0.187655
-0.187987
-0.188323
-0.188665
-0.18901
-0.18936
-0.189714
-0.190073
-0.190435
-0.190802
-0.191173
-0.191549
-0.191928
-0.192312
-0.192699