/*--------------------------------*- C++ -*----------------------------------*\
| =========                 |                                                 |
| \\      /  F ield         | OpenFOAM: The Open Source CFD Toolbox           |
|  \\    /   O peration     | Version:  2.4.0                                 |
|   \\  /    A nd           | Web:      www.OpenFOAM.org                      |
|    \\/     M anipulation  |                                                 |
\*---------------------------------------------------------------------------*/
FoamFile
{
    version     2.0;
    format      ascii;
    class       volScalarField;
    location    "1";
    object      H;
}
// * * * * * * * * * * * * * * * * * * * * * * * * * * * * * * * * * * * * * //

dimensions      [0 2 -2 0 0 0 0];

internalField   nonuniform List<scalar> 
500
(
-11740.1
-11740.1
-11740.1
-11740.1
-11740.1
-10754.8
-10754.8
-10754.8
-10754.8
-10754.8
-9758.18
-9758.18
-9758.18
-9758.18
-9758.18
-8750.08
-8750.07
-8750.07
-8750.07
-8750.08
-7730.14
-7730.13
-7730.13
-7730.13
-7730.14
-6698.05
-6698.04
-6698.04
-6698.04
-6698.05
-5653.48
-5653.47
-5653.46
-5653.47
-5653.48
-4596.08
-4596.07
-4596.07
-4596.07
-4596.08
-3525.52
-3525.5
-3525.5
-3525.5
-3525.52
-2441.42
-2441.4
-2441.4
-2441.4
-2441.42
-1343.42
-1343.4
-1343.4
-1343.4
-1343.42
-29.6973
-29.6958
-29.6955
-29.6958
-29.6974
-22.2507
-22.2496
-22.2494
-22.2496
-22.2508
-22.5029
-22.5018
-22.5016
-22.5018
-22.5029
-22.7465
-22.7454
-22.7452
-22.7454
-22.7465
-22.9811
-22.9801
-22.9799
-22.9801
-22.9812
-23.2065
-23.2054
-23.2052
-23.2055
-23.2066
-23.4222
-23.4212
-23.421
-23.4212
-23.4223
-23.628
-23.627
-23.6268
-23.627
-23.6281
-23.8234
-23.8225
-23.8222
-23.8225
-23.8235
-24.0082
-24.0073
-24.0071
-24.0073
-24.0083
-24.182
-24.1811
-24.1809
-24.1811
-24.1821
-24.3445
-24.3436
-24.3434
-24.3436
-24.3446
-24.4953
-24.4944
-24.4942
-24.4944
-24.4954
-24.6341
-24.6332
-24.633
-24.6332
-24.6342
-24.7606
-24.7597
-24.7595
-24.7597
-24.7607
-24.8745
-24.8736
-24.8734
-24.8736
-24.8745
-24.9754
-24.9745
-24.9743
-24.9745
-24.9754
-25.063
-25.0622
-25.062
-25.0622
-25.0631
-25.1371
-25.1363
-25.1361
-25.1363
-25.1372
-25.1974
-25.1966
-25.1964
-25.1966
-25.1975
-25.2435
-25.2428
-25.2426
-25.2428
-25.2436
-25.2753
-25.2746
-25.2744
-25.2746
-25.2754
-25.2925
-25.2918
-25.2916
-25.2918
-25.2926
-25.2948
-25.2941
-25.2939
-25.2941
-25.2949
-25.2821
-25.2813
-25.2811
-25.2814
-25.2821
-25.254
-25.2533
-25.2531
-25.2533
-25.2541
-25.2105
-25.2098
-25.2096
-25.2098
-25.2105
-25.1513
-25.1506
-25.1504
-25.1506
-25.1513
-25.0763
-25.0756
-25.0755
-25.0757
-25.0764
-24.9854
-24.9847
-24.9846
-24.9848
-24.9854
-24.8784
-24.8778
-24.8776
-24.8778
-24.8785
-24.7553
-24.7547
-24.7545
-24.7547
-24.7553
-24.6159
-24.6154
-24.6152
-24.6154
-24.616
-24.4604
-24.4598
-24.4596
-24.4598
-24.4604
-24.2885
-24.2879
-24.2878
-24.2879
-24.2885
-24.1003
-24.0998
-24.0996
-24.0998
-24.1004
-23.8959
-23.8954
-23.8953
-23.8954
-23.896
-23.6754
-23.6748
-23.6747
-23.6749
-23.6754
-23.4387
-23.4382
-23.438
-23.4382
-23.4387
-23.186
-23.1855
-23.1854
-23.1855
-23.186
-22.9175
-22.917
-22.9169
-22.917
-22.9175
-22.6333
-22.6328
-22.6327
-22.6328
-22.6333
-22.3336
-22.3331
-22.333
-22.3332
-22.3336
-22.0186
-22.0182
-22.0181
-22.0182
-22.0187
-21.6887
-21.6883
-21.6882
-21.6883
-21.6887
-21.3441
-21.3437
-21.3436
-21.3437
-21.3441
-20.9851
-20.9847
-20.9846
-20.9847
-20.9851
-20.612
-20.6116
-20.6115
-20.6117
-20.612
-20.2253
-20.2249
-20.2248
-20.225
-20.2253
-19.8253
-19.825
-19.8249
-19.825
-19.8254
-19.4126
-19.4123
-19.4122
-19.4123
-19.4126
-18.9875
-18.9872
-18.9871
-18.9872
-18.9875
-18.5505
-18.5502
-18.5501
-18.5502
-18.5505
-18.1022
-18.1019
-18.1018
-18.1019
-18.1022
-17.643
-17.6428
-17.6427
-17.6428
-17.6431
-17.1737
-17.1734
-17.1733
-17.1734
-17.1737
-16.6947
-16.6944
-16.6944
-16.6944
-16.6947
-16.2066
-16.2064
-16.2063
-16.2064
-16.2066
-15.7101
-15.7099
-15.7099
-15.7099
-15.7102
-15.2059
-15.2057
-15.2056
-15.2057
-15.2059
-14.6945
-14.6943
-14.6943
-14.6943
-14.6945
-14.1767
-14.1765
-14.1765
-14.1765
-14.1767
-13.6531
-13.653
-13.6529
-13.653
-13.6532
-13.1245
-13.1243
-13.1243
-13.1244
-13.1245
-12.5915
-12.5914
-12.5913
-12.5914
-12.5915
-12.0548
-12.0547
-12.0547
-12.0547
-12.0549
-11.5152
-11.5151
-11.5151
-11.5151
-11.5152
-10.9734
-10.9732
-10.9732
-10.9732
-10.9734
-10.4299
-10.4298
-10.4298
-10.4298
-10.43
-9.88569
-9.88558
-9.88555
-9.88559
-9.8857
-9.34129
-9.34119
-9.34116
-9.3412
-9.3413
-8.79743
-8.79734
-8.79731
-8.79734
-8.79743
-8.25477
-8.25469
-8.25467
-8.2547
-8.25478
-7.714
-7.71392
-7.7139
-7.71393
-7.714
-7.17574
-7.17567
-7.17565
-7.17568
-7.17575
-6.64064
-6.64058
-6.64056
-6.64058
-6.64065
-6.1093
-6.10925
-6.10923
-6.10925
-6.10931
-5.58233
-5.58228
-5.58227
-5.58228
-5.58234
-5.0603
-5.06025
-5.06024
-5.06026
-5.0603
-4.54376
-4.54372
-4.54371
-4.54372
-4.54376
-4.03325
-4.03322
-4.03321
-4.03322
-4.03325
-3.52929
-3.52926
-3.52925
-3.52926
-3.52929
-3.03236
-3.03233
-3.03233
-3.03234
-3.03236
-2.54295
-2.54293
-2.54292
-2.54293
-2.54295
-2.06151
-2.06149
-2.06149
-2.06149
-2.06151
-1.58848
-1.58846
-1.58846
-1.58846
-1.58848
-1.12428
-1.12427
-1.12427
-1.12427
-1.12428
-0.669321
-0.669315
-0.669314
-0.669316
-0.669321
-0.224004
-0.224002
-0.224002
-0.224002
-0.224004
)
;

boundaryField
{
    BotWall
    {
        type            zeroGradient;
    }
    FreeStream
    {
        type            zeroGradient;
    }
    FrontNBack
    {
        type            empty;
    }
    LeftSide
    {
        type            symmetryPlane;
    }
    RightSide
    {
        type            symmetryPlane;
    }
}


// ************************************************************************* //
