/*--------------------------------*- C++ -*----------------------------------*\
| =========                 |                                                 |
| \\      /  F ield         | OpenFOAM: The Open Source CFD Toolbox           |
|  \\    /   O peration     | Version:  2.4.0                                 |
|   \\  /    A nd           | Web:      www.OpenFOAM.org                      |
|    \\/     M anipulation  |                                                 |
\*---------------------------------------------------------------------------*/
FoamFile
{
    version     2.0;
    format      ascii;
    class       volScalarField;
    location    "1";
    object      p;
}
// * * * * * * * * * * * * * * * * * * * * * * * * * * * * * * * * * * * * * //

dimensions      [1 -1 -2 0 0 0 0];

internalField   nonuniform List<scalar> 
500
(
0.344504
0.344511
0.344507
0.344511
0.344504
0.315502
0.31551
0.315507
0.31551
0.315502
0.286114
0.286122
0.286118
0.286122
0.286114
0.252966
0.252971
0.252968
0.252971
0.252965
0.207343
0.207343
0.207339
0.207343
0.207342
0.156726
0.156734
0.15673
0.156734
0.156726
0.195215
0.195277
0.195274
0.195278
0.195215
0.536495
0.536643
0.536643
0.536643
0.536493
0.992553
0.992577
0.992583
0.992576
0.99255
-0.845851
-0.846525
-0.846525
-0.846526
-0.845852
-10.2686
-10.2699
-10.2699
-10.2699
-10.2685
-22.625
-22.6249
-22.6251
-22.6249
-22.625
-0.0160322
-0.0160319
-0.0160318
-0.0160319
-0.0160322
-0.00431916
-0.00431951
-0.00431951
-0.00431951
-0.00431916
-0.00668338
-0.00668334
-0.00668334
-0.00668334
-0.00668338
-0.00824037
-0.0082403
-0.00824031
-0.0082403
-0.00824037
-0.00897064
-0.00897064
-0.00897064
-0.00897064
-0.00897064
-0.00949584
-0.00949585
-0.00949586
-0.00949585
-0.00949584
-0.0100546
-0.0100546
-0.0100546
-0.0100546
-0.0100546
-0.0106521
-0.0106521
-0.0106521
-0.0106521
-0.0106521
-0.0112642
-0.0112642
-0.0112642
-0.0112642
-0.0112642
-0.011882
-0.011882
-0.011882
-0.011882
-0.011882
-0.0125055
-0.0125055
-0.0125055
-0.0125055
-0.0125055
-0.0131355
-0.0131355
-0.0131355
-0.0131355
-0.0131355
-0.0137727
-0.0137727
-0.0137727
-0.0137727
-0.0137727
-0.014417
-0.014417
-0.014417
-0.014417
-0.014417
-0.0150685
-0.0150685
-0.0150685
-0.0150685
-0.0150685
-0.0157273
-0.0157273
-0.0157273
-0.0157273
-0.0157273
-0.0163934
-0.0163934
-0.0163934
-0.0163934
-0.0163934
-0.017067
-0.017067
-0.017067
-0.017067
-0.017067
-0.0177481
-0.0177481
-0.0177481
-0.0177481
-0.0177481
-0.0184367
-0.0184367
-0.0184367
-0.0184367
-0.0184367
-0.0191331
-0.0191331
-0.0191331
-0.0191331
-0.0191331
-0.0198372
-0.0198372
-0.0198373
-0.0198372
-0.0198372
-0.0205492
-0.0205492
-0.0205492
-0.0205492
-0.0205492
-0.0212692
-0.0212692
-0.0212692
-0.0212692
-0.0212692
-0.0219971
-0.0219972
-0.0219972
-0.0219972
-0.0219971
-0.0227332
-0.0227332
-0.0227332
-0.0227332
-0.0227332
-0.0234776
-0.0234776
-0.0234776
-0.0234776
-0.0234776
-0.0242302
-0.0242302
-0.0242302
-0.0242302
-0.0242302
-0.0249912
-0.0249912
-0.0249912
-0.0249912
-0.0249912
-0.0257607
-0.0257607
-0.0257607
-0.0257607
-0.0257607
-0.0265388
-0.0265388
-0.0265388
-0.0265388
-0.0265388
-0.0273256
-0.0273256
-0.0273256
-0.0273256
-0.0273256
-0.0281211
-0.0281211
-0.0281211
-0.0281211
-0.0281211
-0.0289255
-0.0289255
-0.0289255
-0.0289255
-0.0289255
-0.0297389
-0.0297389
-0.029739
-0.0297389
-0.0297389
-0.0305614
-0.0305614
-0.0305614
-0.0305614
-0.0305614
-0.0313931
-0.0313931
-0.0313931
-0.0313931
-0.0313931
-0.032234
-0.032234
-0.032234
-0.032234
-0.032234
-0.0330844
-0.0330844
-0.0330844
-0.0330844
-0.0330844
-0.0339442
-0.0339442
-0.0339442
-0.0339442
-0.0339442
-0.0348136
-0.0348136
-0.0348136
-0.0348136
-0.0348136
-0.0356927
-0.0356927
-0.0356927
-0.0356927
-0.0356927
-0.0365816
-0.0365816
-0.0365816
-0.0365816
-0.0365816
-0.0374805
-0.0374805
-0.0374805
-0.0374805
-0.0374805
-0.0383893
-0.0383893
-0.0383893
-0.0383893
-0.0383893
-0.0393084
-0.0393084
-0.0393084
-0.0393084
-0.0393084
-0.0402376
-0.0402376
-0.0402376
-0.0402376
-0.0402376
-0.0411773
-0.0411773
-0.0411773
-0.0411773
-0.0411773
-0.0421274
-0.0421274
-0.0421274
-0.0421274
-0.0421274
-0.0430881
-0.0430881
-0.0430881
-0.0430881
-0.0430881
-0.0440596
-0.0440596
-0.0440596
-0.0440596
-0.0440596
-0.0450418
-0.0450418
-0.0450418
-0.0450418
-0.0450418
-0.0460351
-0.0460351
-0.0460351
-0.0460351
-0.0460351
-0.0470394
-0.0470394
-0.0470394
-0.0470394
-0.0470394
-0.048055
-0.048055
-0.048055
-0.048055
-0.048055
-0.0490818
-0.0490818
-0.0490818
-0.0490818
-0.0490818
-0.0501202
-0.0501202
-0.0501202
-0.0501202
-0.0501202
-0.0511701
-0.0511701
-0.0511701
-0.0511701
-0.0511701
-0.0522317
-0.0522317
-0.0522317
-0.0522317
-0.0522317
-0.0533052
-0.0533052
-0.0533052
-0.0533052
-0.0533052
-0.0543907
-0.0543907
-0.0543907
-0.0543907
-0.0543907
-0.0554882
-0.0554882
-0.0554882
-0.0554882
-0.0554882
-0.056598
-0.056598
-0.056598
-0.056598
-0.056598
-0.0577202
-0.0577202
-0.0577202
-0.0577202
-0.0577202
-0.058855
-0.058855
-0.058855
-0.058855
-0.058855
-0.0600024
-0.0600024
-0.0600024
-0.0600024
-0.0600024
-0.0611626
-0.0611626
-0.0611626
-0.0611626
-0.0611626
-0.0623357
-0.0623357
-0.0623357
-0.0623357
-0.0623357
-0.0635219
-0.0635219
-0.0635219
-0.0635219
-0.0635219
-0.0647214
-0.0647214
-0.0647214
-0.0647214
-0.0647214
-0.0659342
-0.0659342
-0.0659342
-0.0659342
-0.0659342
-0.0671606
-0.0671606
-0.0671606
-0.0671606
-0.0671606
-0.0684007
-0.0684007
-0.0684007
-0.0684007
-0.0684007
-0.0696546
-0.0696546
-0.0696546
-0.0696546
-0.0696546
-0.0709225
-0.0709225
-0.0709225
-0.0709225
-0.0709225
-0.0722045
-0.0722045
-0.0722045
-0.0722045
-0.0722045
-0.0735009
-0.0735009
-0.0735009
-0.0735009
-0.0735009
-0.0748117
-0.0748117
-0.0748117
-0.0748117
-0.0748117
-0.0761372
-0.0761372
-0.0761372
-0.0761372
-0.0761372
-0.0774774
-0.0774774
-0.0774774
-0.0774774
-0.0774774
-0.0788326
-0.0788326
-0.0788326
-0.0788326
-0.0788326
-0.0802029
-0.0802029
-0.0802029
-0.0802029
-0.0802029
-0.0815885
-0.0815885
-0.0815885
-0.0815885
-0.0815885
-0.0829896
-0.0829896
-0.0829896
-0.0829896
-0.0829896
-0.0844063
-0.0844063
-0.0844063
-0.0844063
-0.0844063
-0.0858388
-0.0858388
-0.0858388
-0.0858388
-0.0858388
-0.0872873
-0.0872873
-0.0872873
-0.0872873
-0.0872873
-0.088752
-0.088752
-0.088752
-0.088752
-0.088752
)
;

boundaryField
{
    BotWall
    {
        type            calculated;
        value           nonuniform List<scalar> 5(0.359325 0.359331 0.359327 0.359331 0.359324);
    }
    FreeStream
    {
        type            calculated;
        value           nonuniform List<scalar> 5(-0.0894884 -0.0894884 -0.0894884 -0.0894884 -0.0894884);
    }
    FrontNBack
    {
        type            empty;
    }
    LeftSide
    {
        type            symmetryPlane;
    }
    RightSide
    {
        type            symmetryPlane;
    }
}


// ************************************************************************* //
