/*--------------------------------*- C++ -*----------------------------------*\
| =========                 |                                                 |
| \\      /  F ield         | OpenFOAM: The Open Source CFD Toolbox           |
|  \\    /   O peration     | Version:  2.4.0                                 |
|   \\  /    A nd           | Web:      www.OpenFOAM.org                      |
|    \\/     M anipulation  |                                                 |
\*---------------------------------------------------------------------------*/
FoamFile
{
    version     2.0;
    format      ascii;
    class       volScalarField;
    location    "1";
    object      p_rgh;
}
// * * * * * * * * * * * * * * * * * * * * * * * * * * * * * * * * * * * * * //

dimensions      [1 -1 -2 0 0 0 0];

internalField   nonuniform List<scalar> 
500
(
0.359325
0.359331
0.359327
0.359331
0.359324
0.360128
0.360137
0.360133
0.360137
0.360128
0.360879
0.360887
0.360883
0.360887
0.360879
0.358206
0.358211
0.358208
0.358211
0.358205
0.343398
0.343397
0.343394
0.343397
0.343397
0.32394
0.323947
0.323944
0.323947
0.323939
0.393935
0.393998
0.393994
0.393998
0.393935
0.767073
0.767221
0.767221
0.767221
0.767071
1.25535
1.25537
1.25538
1.25537
1.25534
-0.550486
-0.55116
-0.55116
-0.551161
-0.550487
-9.94026
-9.94159
-9.94164
-9.94158
-9.94023
-22.3987
-22.3985
-22.3987
-22.3985
-22.3986
-0.00948486
-0.00948451
-0.00948451
-0.00948451
-0.00948486
0.0027922
0.00279185
0.00279185
0.00279185
0.0027922
0.000998292
0.000998341
0.000998338
0.000998341
0.000998292
1.79871e-05
1.80512e-05
1.8049e-05
1.80514e-05
1.79868e-05
-0.00012917
-0.000129168
-0.00012917
-0.000129168
-0.000129171
-6.47494e-05
-6.47643e-05
-6.47668e-05
-6.47641e-05
-6.47496e-05
-2.72842e-05
-2.72922e-05
-2.72947e-05
-2.7292e-05
-2.72843e-05
-2.19668e-05
-2.19693e-05
-2.19718e-05
-2.19691e-05
-2.19669e-05
-2.44896e-05
-2.44914e-05
-2.44938e-05
-2.44911e-05
-2.44897e-05
-2.59283e-05
-2.59307e-05
-2.59331e-05
-2.59304e-05
-2.59284e-05
-2.6093e-05
-2.60957e-05
-2.60982e-05
-2.60955e-05
-2.60931e-05
-2.59514e-05
-2.59542e-05
-2.59566e-05
-2.59539e-05
-2.59515e-05
-2.58537e-05
-2.58564e-05
-2.58588e-05
-2.58561e-05
-2.58537e-05
-2.58059e-05
-2.58086e-05
-2.58111e-05
-2.58084e-05
-2.5806e-05
-2.57697e-05
-2.57724e-05
-2.57748e-05
-2.57722e-05
-2.57698e-05
-2.57312e-05
-2.57339e-05
-2.57363e-05
-2.57337e-05
-2.57313e-05
-2.56903e-05
-2.5693e-05
-2.56954e-05
-2.56927e-05
-2.56903e-05
-2.56484e-05
-2.56511e-05
-2.56535e-05
-2.56508e-05
-2.56484e-05
-2.56061e-05
-2.56088e-05
-2.56111e-05
-2.56085e-05
-2.56061e-05
-2.55635e-05
-2.55661e-05
-2.55684e-05
-2.55658e-05
-2.55635e-05
-2.55203e-05
-2.55229e-05
-2.55252e-05
-2.55227e-05
-2.55203e-05
-2.54767e-05
-2.54793e-05
-2.54816e-05
-2.5479e-05
-2.54767e-05
-2.54326e-05
-2.54351e-05
-2.54374e-05
-2.54349e-05
-2.54325e-05
-2.53879e-05
-2.53905e-05
-2.53927e-05
-2.53902e-05
-2.53879e-05
-2.53428e-05
-2.53453e-05
-2.53475e-05
-2.5345e-05
-2.53428e-05
-2.52972e-05
-2.52996e-05
-2.53018e-05
-2.52994e-05
-2.52971e-05
-2.5251e-05
-2.52535e-05
-2.52556e-05
-2.52532e-05
-2.5251e-05
-2.52043e-05
-2.52068e-05
-2.52089e-05
-2.52065e-05
-2.52043e-05
-2.51571e-05
-2.51595e-05
-2.51616e-05
-2.51593e-05
-2.51571e-05
-2.51094e-05
-2.51118e-05
-2.51138e-05
-2.51115e-05
-2.51094e-05
-2.50611e-05
-2.50635e-05
-2.50655e-05
-2.50632e-05
-2.50611e-05
-2.50123e-05
-2.50146e-05
-2.50166e-05
-2.50144e-05
-2.50123e-05
-2.4963e-05
-2.49652e-05
-2.49672e-05
-2.4965e-05
-2.49629e-05
-2.49131e-05
-2.49153e-05
-2.49172e-05
-2.4915e-05
-2.4913e-05
-2.48626e-05
-2.48648e-05
-2.48667e-05
-2.48645e-05
-2.48625e-05
-2.48116e-05
-2.48137e-05
-2.48156e-05
-2.48135e-05
-2.48115e-05
-2.476e-05
-2.47621e-05
-2.47639e-05
-2.47618e-05
-2.47599e-05
-2.47078e-05
-2.47098e-05
-2.47116e-05
-2.47096e-05
-2.47077e-05
-2.4655e-05
-2.4657e-05
-2.46588e-05
-2.46568e-05
-2.46549e-05
-2.46017e-05
-2.46036e-05
-2.46053e-05
-2.46034e-05
-2.46016e-05
-2.45477e-05
-2.45496e-05
-2.45513e-05
-2.45494e-05
-2.45476e-05
-2.44932e-05
-2.4495e-05
-2.44967e-05
-2.44948e-05
-2.44931e-05
-2.4438e-05
-2.44398e-05
-2.44414e-05
-2.44396e-05
-2.44379e-05
-2.43822e-05
-2.4384e-05
-2.43856e-05
-2.43838e-05
-2.43821e-05
-2.43258e-05
-2.43276e-05
-2.43291e-05
-2.43273e-05
-2.43257e-05
-2.42688e-05
-2.42705e-05
-2.4272e-05
-2.42703e-05
-2.42687e-05
-2.42111e-05
-2.42128e-05
-2.42142e-05
-2.42126e-05
-2.4211e-05
-2.41528e-05
-2.41544e-05
-2.41558e-05
-2.41542e-05
-2.41527e-05
-2.40939e-05
-2.40954e-05
-2.40968e-05
-2.40952e-05
-2.40938e-05
-2.40343e-05
-2.40358e-05
-2.40371e-05
-2.40356e-05
-2.40341e-05
-2.3974e-05
-2.39754e-05
-2.39767e-05
-2.39752e-05
-2.39739e-05
-2.3913e-05
-2.39144e-05
-2.39157e-05
-2.39142e-05
-2.39129e-05
-2.38514e-05
-2.38528e-05
-2.38539e-05
-2.38526e-05
-2.38513e-05
-2.37891e-05
-2.37904e-05
-2.37915e-05
-2.37902e-05
-2.3789e-05
-2.37261e-05
-2.37273e-05
-2.37284e-05
-2.37272e-05
-2.3726e-05
-2.36624e-05
-2.36636e-05
-2.36647e-05
-2.36634e-05
-2.36623e-05
-2.3598e-05
-2.35991e-05
-2.36002e-05
-2.3599e-05
-2.35979e-05
-2.35328e-05
-2.3534e-05
-2.35349e-05
-2.35338e-05
-2.35327e-05
-2.3467e-05
-2.34681e-05
-2.3469e-05
-2.34679e-05
-2.34669e-05
-2.34004e-05
-2.34014e-05
-2.34023e-05
-2.34013e-05
-2.34003e-05
-2.33331e-05
-2.33341e-05
-2.33349e-05
-2.33339e-05
-2.3333e-05
-2.3265e-05
-2.3266e-05
-2.32668e-05
-2.32658e-05
-2.32649e-05
-2.31962e-05
-2.31971e-05
-2.31979e-05
-2.3197e-05
-2.31961e-05
-2.31266e-05
-2.31275e-05
-2.31282e-05
-2.31273e-05
-2.31265e-05
-2.30562e-05
-2.3057e-05
-2.30578e-05
-2.30569e-05
-2.30561e-05
-2.29851e-05
-2.29859e-05
-2.29865e-05
-2.29857e-05
-2.2985e-05
-2.29131e-05
-2.29139e-05
-2.29145e-05
-2.29138e-05
-2.2913e-05
-2.28404e-05
-2.28411e-05
-2.28417e-05
-2.2841e-05
-2.28403e-05
-2.27669e-05
-2.27675e-05
-2.27681e-05
-2.27674e-05
-2.27668e-05
-2.26925e-05
-2.26931e-05
-2.26937e-05
-2.2693e-05
-2.26924e-05
-2.26173e-05
-2.26179e-05
-2.26184e-05
-2.26178e-05
-2.26172e-05
-2.25413e-05
-2.25419e-05
-2.25424e-05
-2.25418e-05
-2.25412e-05
-2.24645e-05
-2.2465e-05
-2.24654e-05
-2.24649e-05
-2.24644e-05
-2.23867e-05
-2.23872e-05
-2.23877e-05
-2.23872e-05
-2.23867e-05
-2.23082e-05
-2.23086e-05
-2.2309e-05
-2.23086e-05
-2.23081e-05
-2.22287e-05
-2.22292e-05
-2.22295e-05
-2.22291e-05
-2.22287e-05
-2.21484e-05
-2.21488e-05
-2.21491e-05
-2.21487e-05
-2.21483e-05
-2.20672e-05
-2.20676e-05
-2.20679e-05
-2.20675e-05
-2.20671e-05
-2.19851e-05
-2.19854e-05
-2.19857e-05
-2.19854e-05
-2.1985e-05
-2.19021e-05
-2.19024e-05
-2.19026e-05
-2.19023e-05
-2.1902e-05
-2.18181e-05
-2.18184e-05
-2.18186e-05
-2.18183e-05
-2.18181e-05
-2.17332e-05
-2.17335e-05
-2.17337e-05
-2.17334e-05
-2.17332e-05
-2.16474e-05
-2.16476e-05
-2.16478e-05
-2.16476e-05
-2.16474e-05
-2.15607e-05
-2.15608e-05
-2.1561e-05
-2.15608e-05
-2.15606e-05
-2.14729e-05
-2.14731e-05
-2.14732e-05
-2.14731e-05
-2.14729e-05
-2.13842e-05
-2.13844e-05
-2.13844e-05
-2.13843e-05
-2.13842e-05
-2.12945e-05
-2.12946e-05
-2.12947e-05
-2.12946e-05
-2.12945e-05
-2.12038e-05
-2.12039e-05
-2.12039e-05
-2.12039e-05
-2.12038e-05
)
;

boundaryField
{
    BotWall
    {
        type            fixedFluxPressure;
        gradient        uniform 0;
        value           nonuniform List<scalar> 5(0.359325 0.359331 0.359327 0.359331 0.359324);
    }
    FreeStream
    {
        type            totalPressure;
        rho             rho;
        psi             none;
        gamma           1;
        p0              uniform 0;
        value           nonuniform List<scalar> 5(-2.11581e-05 -2.11583e-05 -2.11583e-05 -2.11582e-05 -2.11581e-05);
    }
    FrontNBack
    {
        type            empty;
    }
    LeftSide
    {
        type            symmetryPlane;
    }
    RightSide
    {
        type            symmetryPlane;
    }
}


// ************************************************************************* //
