/*--------------------------------*- C++ -*----------------------------------*\
| =========                 |                                                 |
| \\      /  F ield         | OpenFOAM: The Open Source CFD Toolbox           |
|  \\    /   O peration     | Version:  2.4.0                                 |
|   \\  /    A nd           | Web:      www.OpenFOAM.org                      |
|    \\/     M anipulation  |                                                 |
\*---------------------------------------------------------------------------*/
FoamFile
{
    version     2.0;
    format      ascii;
    class       volVectorField;
    location    "1";
    object      U;
}
// * * * * * * * * * * * * * * * * * * * * * * * * * * * * * * * * * * * * * //

dimensions      [0 1 -1 0 0 0 0];

internalField   nonuniform List<vector> 
500
(
(2.5223e-10 -2.08643e-09 0)
(2.96382e-10 -2.09702e-09 0)
(-3.32828e-12 -2.09649e-09 0)
(-3.08902e-10 -2.09702e-09 0)
(-2.6135e-10 -2.08647e-09 0)
(7.59978e-10 7.5721e-09 0)
(8.91925e-10 7.62373e-09 0)
(-1.00208e-11 7.62864e-09 0)
(-9.29734e-10 7.62377e-09 0)
(-7.87552e-10 7.57182e-09 0)
(1.27804e-09 2.32775e-08 0)
(1.49763e-09 2.32728e-08 0)
(-1.67683e-11 2.32881e-08 0)
(-1.56118e-09 2.32728e-08 0)
(-1.32447e-09 2.32765e-08 0)
(1.80129e-09 5.69454e-08 0)
(2.10817e-09 5.70814e-08 0)
(-2.35848e-11 5.71113e-08 0)
(-2.19806e-09 5.70816e-08 0)
(-1.8671e-09 5.69434e-08 0)
(2.33719e-09 -1.29284e-07 0)
(2.73078e-09 -1.29413e-07 0)
(-3.04702e-11 -1.29362e-07 0)
(-2.84742e-09 -1.29412e-07 0)
(-2.42273e-09 -1.29287e-07 0)
(2.87611e-09 -7.63483e-07 0)
(3.35598e-09 -7.63528e-07 0)
(-3.7391e-11 -7.63458e-07 0)
(-3.49976e-09 -7.63527e-07 0)
(-2.98175e-09 -7.63486e-07 0)
(3.42937e-09 -1.26987e-06 0)
(3.99494e-09 -1.26962e-06 0)
(-4.43571e-11 -1.26952e-06 0)
(-4.16628e-09 -1.26961e-06 0)
(-3.55548e-09 -1.26987e-06 0)
(3.99574e-09 3.14154e-06 0)
(4.64632e-09 3.14457e-06 0)
(-5.13471e-11 3.14472e-06 0)
(-4.84563e-09 3.14457e-06 0)
(-4.14273e-09 3.14153e-06 0)
(4.60689e-09 2.04748e-05 0)
(5.34202e-09 2.04804e-05 0)
(-5.83547e-11 2.04807e-05 0)
(-5.56991e-09 2.04804e-05 0)
(-4.77538e-09 2.04747e-05 0)
(5.23746e-09 3.15123e-05 0)
(6.0547e-09 3.15116e-05 0)
(-6.56156e-11 3.15122e-05 0)
(-6.31231e-09 3.15116e-05 0)
(-5.42833e-09 3.15122e-05 0)
(5.76964e-09 -7.63759e-05 0)
(6.67513e-09 -7.64056e-05 0)
(-7.31164e-11 -7.64057e-05 0)
(-6.96376e-09 -7.64056e-05 0)
(-5.98399e-09 -7.63758e-05 0)
(5.96802e-09 -0.00058624 0)
(6.96514e-09 -0.000586279 0)
(-8.0792e-11 -0.000586281 0)
(-7.28601e-09 -0.000586279 0)
(-6.2069e-09 -0.000586239 0)
(6.27152e-09 -0.00158962 0)
(7.28404e-09 -0.00158958 0)
(-8.22202e-11 -0.00158958 0)
(-7.61077e-09 -0.00158958 0)
(-6.51484e-09 -0.00158962 0)
(6.88315e-09 -0.00367374 0)
(7.59016e-09 -0.0036737 0)
(-2.50349e-11 -0.0036737 0)
(-7.86078e-09 -0.0036737 0)
(-7.12613e-09 -0.00367374 0)
(5.52643e-09 -0.00223132 0)
(5.90446e-09 -0.00223138 0)
(3.36763e-11 -0.00223138 0)
(-6.11172e-09 -0.00223138 0)
(-5.7634e-09 -0.00223132 0)
(4.67831e-09 -0.00207533 0)
(4.74663e-09 -0.00207534 0)
(8.96925e-11 -0.00207534 0)
(-4.89217e-09 -0.00207534 0)
(-4.90824e-09 -0.00207533 0)
(4.13668e-09 -0.00210933 0)
(3.91285e-09 -0.00210932 0)
(1.43232e-10 -0.00210932 0)
(-3.99872e-09 -0.00210932 0)
(-4.3592e-09 -0.00210933 0)
(3.62177e-09 -0.00214961 0)
(3.12274e-09 -0.00214961 0)
(1.94327e-10 -0.00214961 0)
(-3.15075e-09 -0.00214961 0)
(-3.83631e-09 -0.00214961 0)
(3.07357e-09 -0.00215762 0)
(2.31543e-09 -0.00215762 0)
(2.43046e-10 -0.00215762 0)
(-2.28724e-09 -0.00215762 0)
(-3.27945e-09 -0.00215762 0)
(2.53209e-09 -0.00215584 0)
(1.53067e-09 -0.00215584 0)
(2.89413e-10 -0.00215584 0)
(-1.44791e-09 -0.00215584 0)
(-2.72866e-09 -0.00215584 0)
(2.02142e-09 -0.00215424 0)
(7.92361e-10 -0.00215424 0)
(3.3344e-10 -0.00215424 0)
(-6.5672e-10 -0.00215424 0)
(-2.20807e-09 -0.00215424 0)
(1.54292e-09 -0.00215391 0)
(1.01669e-10 -0.00215391 0)
(3.75145e-10 -0.00215391 0)
(8.51384e-11 -0.00215391 0)
(-1.71913e-09 -0.00215391 0)
(1.09268e-09 -0.00215399 0)
(-5.45593e-10 -0.00215399 0)
(4.14547e-10 -0.00215399 0)
(7.81824e-10 -0.00215399 0)
(-1.25793e-09 -0.00215399 0)
(6.68601e-10 -0.00215405 0)
(-1.15177e-09 -0.00215406 0)
(4.51671e-10 -0.00215406 0)
(1.43566e-09 -0.00215406 0)
(-8.22458e-10 -0.00215405 0)
(2.7015e-10 -0.00215407 0)
(-1.71768e-09 -0.00215407 0)
(4.86541e-10 -0.00215407 0)
(2.04745e-09 -0.00215407 0)
(-4.12205e-10 -0.00215407 0)
(-1.02969e-10 -0.00215406 0)
(-2.24392e-09 -0.00215407 0)
(5.19183e-10 -0.00215407 0)
(2.61776e-09 -0.00215407 0)
(-2.69258e-11 -0.00215406 0)
(-4.51202e-10 -0.00215406 0)
(-2.73124e-09 -0.00215406 0)
(5.49626e-10 -0.00215406 0)
(3.14733e-09 -0.00215406 0)
(3.3378e-10 -0.00215406 0)
(-7.75104e-10 -0.00215406 0)
(-3.18051e-09 -0.00215406 0)
(5.77901e-10 -0.00215406 0)
(3.63703e-09 -0.00215406 0)
(6.7042e-10 -0.00215406 0)
(-1.07526e-09 -0.00215406 0)
(-3.59264e-09 -0.00215406 0)
(6.04039e-10 -0.00215406 0)
(4.08773e-09 -0.00215406 0)
(9.83533e-10 -0.00215406 0)
(-1.35225e-09 -0.00215406 0)
(-3.96857e-09 -0.00215406 0)
(6.28075e-10 -0.00215406 0)
(4.50039e-09 -0.00215406 0)
(1.27366e-09 -0.00215406 0)
(-1.60668e-09 -0.00215406 0)
(-4.30925e-09 -0.00215406 0)
(6.50045e-10 -0.00215406 0)
(4.87592e-09 -0.00215406 0)
(1.54137e-09 -0.00215406 0)
(-1.83916e-09 -0.00215406 0)
(-4.61565e-09 -0.00215406 0)
(6.69987e-10 -0.00215406 0)
(5.21531e-09 -0.00215406 0)
(1.78721e-09 -0.00215406 0)
(-2.05032e-09 -0.00215406 0)
(-4.88877e-09 -0.00215406 0)
(6.8794e-10 -0.00215406 0)
(5.51955e-09 -0.00215406 0)
(2.01178e-09 -0.00215406 0)
(-2.24079e-09 -0.00215406 0)
(-5.12963e-09 -0.00215406 0)
(7.03946e-10 -0.00215406 0)
(5.78966e-09 -0.00215406 0)
(2.21567e-09 -0.00215406 0)
(-2.41121e-09 -0.00215406 0)
(-5.33927e-09 -0.00215406 0)
(7.18048e-10 -0.00215406 0)
(6.02668e-09 -0.00215406 0)
(2.39948e-09 -0.00215406 0)
(-2.56225e-09 -0.00215406 0)
(-5.51875e-09 -0.00215406 0)
(7.3029e-10 -0.00215406 0)
(6.23167e-09 -0.00215406 0)
(2.56383e-09 -0.00215406 0)
(-2.69456e-09 -0.00215406 0)
(-5.66914e-09 -0.00215406 0)
(7.4072e-10 -0.00215406 0)
(6.40571e-09 -0.00215406 0)
(2.70935e-09 -0.00215406 0)
(-2.80883e-09 -0.00215406 0)
(-5.79153e-09 -0.00215406 0)
(7.49385e-10 -0.00215406 0)
(6.54991e-09 -0.00215406 0)
(2.83667e-09 -0.00215406 0)
(-2.90572e-09 -0.00215406 0)
(-5.88701e-09 -0.00215406 0)
(7.56334e-10 -0.00215406 0)
(6.66536e-09 -0.00215406 0)
(2.94645e-09 -0.00215406 0)
(-2.98594e-09 -0.00215406 0)
(-5.95672e-09 -0.00215406 0)
(7.61619e-10 -0.00215406 0)
(6.75321e-09 -0.00215406 0)
(3.03933e-09 -0.00215406 0)
(-3.05016e-09 -0.00215406 0)
(-6.00175e-09 -0.00215406 0)
(7.65293e-10 -0.00215406 0)
(6.8146e-09 -0.00215406 0)
(3.11596e-09 -0.00215406 0)
(-3.09908e-09 -0.00215406 0)
(-6.02325e-09 -0.00215406 0)
(7.67408e-10 -0.00215406 0)
(6.85066e-09 -0.00215406 0)
(3.17702e-09 -0.00215406 0)
(-3.1334e-09 -0.00215406 0)
(-6.02235e-09 -0.00215406 0)
(7.68021e-10 -0.00215407 0)
(6.86257e-09 -0.00215406 0)
(3.22317e-09 -0.00215406 0)
(-3.15381e-09 -0.00215406 0)
(-6.00019e-09 -0.00215406 0)
(7.67186e-10 -0.00215407 0)
(6.85149e-09 -0.00215406 0)
(3.25507e-09 -0.00215406 0)
(-3.16102e-09 -0.00215406 0)
(-5.95792e-09 -0.00215406 0)
(7.64963e-10 -0.00215407 0)
(6.81858e-09 -0.00215406 0)
(3.27341e-09 -0.00215406 0)
(-3.15572e-09 -0.00215406 0)
(-5.89667e-09 -0.00215406 0)
(7.61408e-10 -0.00215407 0)
(6.76503e-09 -0.00215406 0)
(3.27886e-09 -0.00215406 0)
(-3.13861e-09 -0.00215406 0)
(-5.81758e-09 -0.00215406 0)
(7.56582e-10 -0.00215407 0)
(6.692e-09 -0.00215406 0)
(3.27208e-09 -0.00215406 0)
(-3.11039e-09 -0.00215406 0)
(-5.7218e-09 -0.00215406 0)
(7.50545e-10 -0.00215407 0)
(6.60067e-09 -0.00215406 0)
(3.25376e-09 -0.00215406 0)
(-3.07174e-09 -0.00215406 0)
(-5.61044e-09 -0.00215406 0)
(7.43357e-10 -0.00215407 0)
(6.49221e-09 -0.00215406 0)
(3.22456e-09 -0.00215406 0)
(-3.02334e-09 -0.00215406 0)
(-5.48465e-09 -0.00215406 0)
(7.3508e-10 -0.00215407 0)
(6.36778e-09 -0.00215406 0)
(3.18515e-09 -0.00215406 0)
(-2.96588e-09 -0.00215406 0)
(-5.34552e-09 -0.00215406 0)
(7.25777e-10 -0.00215407 0)
(6.22853e-09 -0.00215406 0)
(3.13619e-09 -0.00215406 0)
(-2.90002e-09 -0.00215406 0)
(-5.19416e-09 -0.00215406 0)
(7.15509e-10 -0.00215407 0)
(6.07563e-09 -0.00215406 0)
(3.07835e-09 -0.00215406 0)
(-2.82644e-09 -0.00215406 0)
(-5.03167e-09 -0.00215406 0)
(7.0434e-10 -0.00215407 0)
(5.9102e-09 -0.00215406 0)
(3.01226e-09 -0.00215406 0)
(-2.74578e-09 -0.00215406 0)
(-4.8591e-09 -0.00215406 0)
(6.92332e-10 -0.00215407 0)
(5.73337e-09 -0.00215406 0)
(2.93859e-09 -0.00215406 0)
(-2.65868e-09 -0.00215406 0)
(-4.67753e-09 -0.00215406 0)
(6.7955e-10 -0.00215407 0)
(5.54625e-09 -0.00215406 0)
(2.85796e-09 -0.00215406 0)
(-2.56578e-09 -0.00215406 0)
(-4.48798e-09 -0.00215406 0)
(6.66056e-10 -0.00215407 0)
(5.34992e-09 -0.00215406 0)
(2.77099e-09 -0.00215406 0)
(-2.4677e-09 -0.00215406 0)
(-4.29147e-09 -0.00215406 0)
(6.51914e-10 -0.00215407 0)
(5.14546e-09 -0.00215406 0)
(2.67831e-09 -0.00215406 0)
(-2.36505e-09 -0.00215406 0)
(-4.089e-09 -0.00215406 0)
(6.37186e-10 -0.00215407 0)
(4.93393e-09 -0.00215406 0)
(2.58052e-09 -0.00215406 0)
(-2.2584e-09 -0.00215406 0)
(-3.88153e-09 -0.00215406 0)
(6.21934e-10 -0.00215407 0)
(4.71635e-09 -0.00215406 0)
(2.47821e-09 -0.00215406 0)
(-2.14835e-09 -0.00215406 0)
(-3.67001e-09 -0.00215406 0)
(6.06222e-10 -0.00215407 0)
(4.49373e-09 -0.00215406 0)
(2.37197e-09 -0.00215406 0)
(-2.03545e-09 -0.00215406 0)
(-3.45536e-09 -0.00215406 0)
(5.9011e-10 -0.00215407 0)
(4.26704e-09 -0.00215406 0)
(2.26234e-09 -0.00215406 0)
(-1.92025e-09 -0.00215406 0)
(-3.23846e-09 -0.00215406 0)
(5.73659e-10 -0.00215407 0)
(4.03723e-09 -0.00215406 0)
(2.14989e-09 -0.00215406 0)
(-1.80326e-09 -0.00215406 0)
(-3.02016e-09 -0.00215406 0)
(5.56929e-10 -0.00215407 0)
(3.80524e-09 -0.00215406 0)
(2.03514e-09 -0.00215406 0)
(-1.685e-09 -0.00215406 0)
(-2.8013e-09 -0.00215406 0)
(5.39979e-10 -0.00215407 0)
(3.57194e-09 -0.00215406 0)
(1.91862e-09 -0.00215406 0)
(-1.56596e-09 -0.00215406 0)
(-2.58266e-09 -0.00215406 0)
(5.22867e-10 -0.00215407 0)
(3.33819e-09 -0.00215406 0)
(1.80081e-09 -0.00215406 0)
(-1.4466e-09 -0.00215406 0)
(-2.365e-09 -0.00215406 0)
(5.0565e-10 -0.00215407 0)
(3.10483e-09 -0.00215406 0)
(1.68222e-09 -0.00215406 0)
(-1.32736e-09 -0.00215406 0)
(-2.14904e-09 -0.00215406 0)
(4.88383e-10 -0.00215407 0)
(2.87263e-09 -0.00215406 0)
(1.56328e-09 -0.00215406 0)
(-1.20869e-09 -0.00215406 0)
(-1.93547e-09 -0.00215406 0)
(4.7112e-10 -0.00215407 0)
(2.64236e-09 -0.00215406 0)
(1.44446e-09 -0.00215406 0)
(-1.09098e-09 -0.00215406 0)
(-1.72493e-09 -0.00215406 0)
(4.53914e-10 -0.00215407 0)
(2.41472e-09 -0.00215406 0)
(1.32616e-09 -0.00215406 0)
(-9.74615e-10 -0.00215406 0)
(-1.51803e-09 -0.00215406 0)
(4.36815e-10 -0.00215407 0)
(2.1904e-09 -0.00215406 0)
(1.2088e-09 -0.00215406 0)
(-8.59957e-10 -0.00215406 0)
(-1.31535e-09 -0.00215406 0)
(4.19874e-10 -0.00215407 0)
(1.97004e-09 -0.00215406 0)
(1.09276e-09 -0.00215406 0)
(-7.47346e-10 -0.00215406 0)
(-1.11742e-09 -0.00215406 0)
(4.03138e-10 -0.00215407 0)
(1.75422e-09 -0.00215406 0)
(9.78389e-10 -0.00215406 0)
(-6.37096e-10 -0.00215406 0)
(-9.24716e-10 -0.00215406 0)
(3.86652e-10 -0.00215407 0)
(1.54352e-09 -0.00215406 0)
(8.66034e-10 -0.00215406 0)
(-5.29502e-10 -0.00215406 0)
(-7.37701e-10 -0.00215406 0)
(3.7046e-10 -0.00215407 0)
(1.33845e-09 -0.00215406 0)
(7.56012e-10 -0.00215406 0)
(-4.24833e-10 -0.00215406 0)
(-5.56782e-10 -0.00215406 0)
(3.54603e-10 -0.00215407 0)
(1.13948e-09 -0.00215406 0)
(6.48617e-10 -0.00215406 0)
(-3.23337e-10 -0.00215406 0)
(-3.82328e-10 -0.00215406 0)
(3.39122e-10 -0.00215407 0)
(9.47054e-10 -0.00215406 0)
(5.44123e-10 -0.00215406 0)
(-2.25238e-10 -0.00215406 0)
(-2.14669e-10 -0.00215406 0)
(3.24054e-10 -0.00215407 0)
(7.61557e-10 -0.00215406 0)
(4.42782e-10 -0.00215406 0)
(-1.30738e-10 -0.00215406 0)
(-5.40919e-11 -0.00215406 0)
(3.09434e-10 -0.00215407 0)
(5.83344e-10 -0.00215406 0)
(3.44822e-10 -0.00215406 0)
(-4.00154e-11 -0.00215406 0)
(9.91555e-11 -0.00215406 0)
(2.95295e-10 -0.00215407 0)
(4.12723e-10 -0.00215406 0)
(2.50451e-10 -0.00215406 0)
(4.67721e-11 -0.00215406 0)
(2.44865e-10 -0.00215406 0)
(2.81667e-10 -0.00215407 0)
(2.49961e-10 -0.00215406 0)
(1.59856e-10 -0.00215406 0)
(1.2949e-10 -0.00215406 0)
(3.82869e-10 -0.00215406 0)
(2.68579e-10 -0.00215407 0)
(9.52866e-11 -0.00215406 0)
(7.32013e-11 -0.00215406 0)
(2.08024e-10 -0.00215406 0)
(5.13037e-10 -0.00215406 0)
(2.56057e-10 -0.00215407 0)
(-5.11149e-11 -0.00215406 0)
(-9.36912e-12 -0.00215406 0)
(2.82281e-10 -0.00215406 0)
(6.35278e-10 -0.00215406 0)
(2.44124e-10 -0.00215407 0)
(-1.89097e-10 -0.00215406 0)
(-8.77319e-11 -0.00215406 0)
(3.5219e-10 -0.00215406 0)
(7.49537e-10 -0.00215406 0)
(2.32801e-10 -0.00215407 0)
(-3.18552e-10 -0.00215406 0)
(-1.61783e-10 -0.00215406 0)
(4.17698e-10 -0.00215406 0)
(8.55797e-10 -0.00215406 0)
(2.22107e-10 -0.00215407 0)
(-4.39412e-10 -0.00215406 0)
(-2.31439e-10 -0.00215406 0)
(4.78769e-10 -0.00215406 0)
(9.54074e-10 -0.00215406 0)
(2.12059e-10 -0.00215407 0)
(-5.51644e-10 -0.00215406 0)
(-2.96634e-10 -0.00215406 0)
(5.35389e-10 -0.00215406 0)
(1.04442e-09 -0.00215406 0)
(2.02669e-10 -0.00215407 0)
(-6.55252e-10 -0.00215406 0)
(-3.5732e-10 -0.00215406 0)
(5.87559e-10 -0.00215406 0)
(1.12692e-09 -0.00215406 0)
(1.9395e-10 -0.00215407 0)
(-7.50276e-10 -0.00215406 0)
(-4.13467e-10 -0.00215406 0)
(6.35294e-10 -0.00215406 0)
(1.20168e-09 -0.00215406 0)
(1.85911e-10 -0.00215407 0)
(-8.36789e-10 -0.00215406 0)
(-4.65059e-10 -0.00215406 0)
(6.78629e-10 -0.00215406 0)
(1.26886e-09 -0.00215406 0)
(1.78558e-10 -0.00215407 0)
(-9.14895e-10 -0.00215406 0)
(-5.12098e-10 -0.00215406 0)
(7.17609e-10 -0.00215406 0)
(1.32862e-09 -0.00215406 0)
(1.71896e-10 -0.00215407 0)
(-9.8473e-10 -0.00215406 0)
(-5.54597e-10 -0.00215406 0)
(7.52292e-10 -0.00215406 0)
(1.38117e-09 -0.00215406 0)
(1.65927e-10 -0.00215407 0)
(-1.04646e-09 -0.00215406 0)
(-5.92584e-10 -0.00215406 0)
(7.82751e-10 -0.00215406 0)
(1.42673e-09 -0.00215406 0)
(1.6065e-10 -0.00215407 0)
(-1.10027e-09 -0.00215406 0)
(-6.26099e-10 -0.00215406 0)
(8.09065e-10 -0.00215406 0)
(1.46555e-09 -0.00215406 0)
(1.56065e-10 -0.00215407 0)
(-1.14639e-09 -0.00215406 0)
(-6.55191e-10 -0.00215406 0)
(8.31323e-10 -0.00215406 0)
(1.4979e-09 -0.00215406 0)
(1.52167e-10 -0.00215407 0)
(-1.18505e-09 -0.00215406 0)
(-6.79916e-10 -0.00215406 0)
(8.49619e-10 -0.00215406 0)
(1.52406e-09 -0.00215406 0)
(1.48948e-10 -0.00215407 0)
(-1.21652e-09 -0.00215406 0)
(-7.0034e-10 -0.00215406 0)
(8.64056e-10 -0.00215406 0)
(1.54434e-09 -0.00215406 0)
(1.46402e-10 -0.00215407 0)
(-1.24107e-09 -0.00215406 0)
(-7.16531e-10 -0.00215406 0)
(8.74767e-10 -0.00215406 0)
(1.55911e-09 -0.00215406 0)
(1.44519e-10 -0.00215407 0)
(-1.25906e-09 -0.00215406 0)
(-7.28595e-10 -0.00215406 0)
(8.81948e-10 -0.00215406 0)
(1.56886e-09 -0.00215406 0)
(1.43287e-10 -0.00215407 0)
(-1.27093e-09 -0.00215406 0)
(-7.36688e-10 -0.00215406 0)
(8.85773e-10 -0.00215406 0)
(1.57404e-09 -0.00215406 0)
(1.42694e-10 -0.00215407 0)
(-1.27714e-09 -0.00215406 0)
(-7.40953e-10 -0.00215406 0)
)
;

boundaryField
{
    BotWall
    {
        type            fixedValue;
        value           uniform (0 0 0);
    }
    FreeStream
    {
        type            zeroGradient;
    }
    FrontNBack
    {
        type            empty;
    }
    LeftSide
    {
        type            symmetryPlane;
    }
    RightSide
    {
        type            symmetryPlane;
    }
}


// ************************************************************************* //
