/*--------------------------------*- C++ -*----------------------------------*\
| =========                 |                                                 |
| \\      /  F ield         | OpenFOAM: The Open Source CFD Toolbox           |
|  \\    /   O peration     | Version:  2.4.0                                 |
|   \\  /    A nd           | Web:      www.OpenFOAM.org                      |
|    \\/     M anipulation  |                                                 |
\*---------------------------------------------------------------------------*/
FoamFile
{
    version     2.0;
    format      ascii;
    class       volScalarField;
    location    "0.003";
    object      H;
}
// * * * * * * * * * * * * * * * * * * * * * * * * * * * * * * * * * * * * * //

dimensions      [0 2 -2 0 0 0 0];

internalField   nonuniform List<scalar> 
125
(
-4.10246e-11
-5.11329e-11
-4.03924e-11
-2.74703e-12
3.72659e-13
-6.54068e-14
-3.23644e-14
-2.94082e-15
-1.59036e-16
-8.74871e-17
-1.99014e-17
-2.00419e-18
-2.8676e-19
-8.232e-20
-1.43762e-20
-1.5517e-21
-2.31435e-22
-5.53241e-23
-9.78281e-24
-1.23316e-24
-1.70539e-25
-3.24678e-26
-5.76121e-27
-8.30904e-28
-1.15882e-28
-1.85217e-29
-3.07211e-30
-4.68614e-31
-6.77126e-32
-1.00446e-32
-1.53769e-33
-2.31479e-34
-3.3759e-35
-4.87539e-36
-7.08005e-37
-1.02595e-37
-1.467e-38
-2.0706e-39
-2.90331e-40
-4.05279e-41
-5.61362e-42
-7.69461e-43
-1.04509e-43
-1.40973e-44
-1.88758e-45
-2.50382e-46
-3.29049e-47
-4.29147e-48
-5.55463e-49
-7.12397e-50
-9.05166e-51
-1.14109e-51
-1.42769e-52
-1.77033e-53
-2.17469e-54
-2.6501e-55
-3.20567e-56
-3.84461e-57
-4.56868e-58
-5.38599e-59
-6.30484e-60
-7.32241e-61
-8.43171e-62
-9.63697e-63
-1.09461e-63
-1.23516e-64
-1.38399e-65
-1.54172e-66
-1.71023e-67
-1.88984e-68
-2.08044e-69
-2.28506e-70
-2.50941e-71
-2.75825e-72
-3.0363e-73
-3.35255e-74
-3.72002e-75
-4.15158e-76
-4.66015e-77
-5.26304e-78
-5.98173e-79
-6.83738e-80
-7.85024e-81
-9.04288e-82
-1.04399e-82
-1.20635e-83
-1.39323e-84
-1.6063e-85
-1.84698e-86
-2.11612e-87
-2.41381e-88
-2.7395e-89
-3.09195e-90
-3.46907e-91
-3.86779e-92
-4.28421e-93
-4.71366e-94
-5.15068e-95
-5.5891e-96
-6.02226e-97
-6.44313e-98
-6.8445e-99
-7.21919e-100
-7.56023e-101
-7.86112e-102
-8.11603e-103
-8.31991e-104
-8.46876e-105
-8.55965e-106
-8.5909e-107
-8.56206e-108
-8.47394e-109
-8.32858e-110
-8.12915e-111
-7.87984e-112
-7.58573e-113
-7.25259e-114
-6.88672e-115
-6.49476e-116
-6.08346e-117
-5.65955e-118
-5.22951e-119
-4.80001e-120
-4.40309e-121
-5.24874e-122
)
;

boundaryField
{
    BotWall
    {
        type            zeroGradient;
    }
    FreeStream
    {
        type            zeroGradient;
    }
    FrontNBack
    {
        type            empty;
    }
    LeftSide
    {
        type            symmetryPlane;
    }
    RightSide
    {
        type            symmetryPlane;
    }
    procBoundary0to1
    {
        type            processor;
        value           uniform -6.20795e-11;
    }
    procBoundary0to2
    {
        type            processor;
        value           nonuniform List<scalar> 
75
(
-1.45198e-56
-2.02238e-57
3.19758e-58
2.55997e-59
-3.72639e-59
-4.65214e-60
1.2128e-60
9.75509e-62
-6.64117e-62
-7.09092e-63
1.51169e-63
1.05376e-64
-6.07377e-65
-6.18968e-66
8.9636e-67
5.40291e-68
-3.36234e-68
-3.63656e-69
2.50305e-70
1.00326e-71
-1.31479e-71
-1.61172e-72
-5.9507e-75
-5.20058e-75
-4.26526e-75
-5.87529e-76
-3.64967e-77
-5.09876e-78
-1.3086e-78
-1.87667e-79
-1.86832e-80
-2.35879e-81
-3.88679e-82
-5.38927e-83
-6.29248e-84
-7.75444e-85
-1.05766e-85
-1.38082e-86
-1.66948e-87
-2.01737e-88
-2.51658e-89
-3.10351e-90
-3.69819e-91
-4.35418e-92
-5.15155e-93
-6.05649e-94
-6.99692e-95
-7.98649e-96
-9.07454e-97
-1.0241e-97
-1.14267e-98
-1.26176e-99
-1.38297e-100
-1.50442e-101
-1.62148e-102
-1.73171e-103
-1.83463e-104
-1.92844e-105
-2.01007e-106
-2.07757e-107
-2.13025e-108
-2.16716e-109
-2.18714e-110
-2.18975e-111
-2.17531e-112
-2.14437e-113
-2.09759e-114
-2.0361e-115
-1.96145e-116
-1.87533e-117
-1.77957e-118
-1.67611e-119
-1.56721e-120
-1.46495e-121
-1.80637e-122
)
;
    }
    procBoundary0to3
    {
        type            processor;
        value           nonuniform List<scalar> 
50
(
-4.09956e-11
-6.05026e-11
-4.01882e-11
1.60525e-12
7.92113e-13
-5.25656e-14
-2.51915e-14
-1.0014e-15
1.86833e-17
-7.29453e-17
-1.38626e-17
-7.94642e-19
-1.86561e-19
-6.68155e-20
-9.14917e-21
-7.89963e-22
-1.8432e-22
-4.42798e-23
-5.98608e-24
-7.06024e-25
-1.3642e-25
-2.63629e-26
-3.85651e-27
-5.47647e-28
-9.15933e-29
-1.52893e-29
-2.37377e-30
-3.70745e-31
-5.85274e-32
-9.03167e-33
-1.40789e-33
-2.24305e-34
-3.48439e-35
-5.25341e-36
-8.04425e-37
-1.25501e-37
-1.92073e-38
-2.87333e-39
-4.3164e-40
-6.53615e-41
-9.79384e-42
-1.44682e-42
-2.13077e-43
-3.13741e-44
-4.58835e-45
-6.64965e-46
-9.58222e-47
-1.37485e-47
-1.95642e-48
-2.62541e-49
)
;
    }
}


// ************************************************************************* //
