/*--------------------------------*- C++ -*----------------------------------*\
| =========                 |                                                 |
| \\      /  F ield         | OpenFOAM: The Open Source CFD Toolbox           |
|  \\    /   O peration     | Version:  2.4.0                                 |
|   \\  /    A nd           | Web:      www.OpenFOAM.org                      |
|    \\/     M anipulation  |                                                 |
\*---------------------------------------------------------------------------*/
FoamFile
{
    version     2.0;
    format      ascii;
    class       surfaceScalarField;
    location    "0.003";
    object      phi;
}
// * * * * * * * * * * * * * * * * * * * * * * * * * * * * * * * * * * * * * //

dimensions      [0 3 -1 0 0 0 0];

internalField   nonuniform List<scalar> 
124
(
-1.02434e-08
-1.02435e-08
-1.02436e-08
-1.02438e-08
-1.02439e-08
-1.0244e-08
-1.02441e-08
-1.02442e-08
-1.02443e-08
-1.02444e-08
-1.02445e-08
-1.02446e-08
-1.02447e-08
-1.02448e-08
-1.02449e-08
-1.0245e-08
-1.0245e-08
-1.02451e-08
-1.02452e-08
-1.02453e-08
-1.02454e-08
-1.02455e-08
-1.02456e-08
-1.02457e-08
-1.02458e-08
-1.02459e-08
-1.0246e-08
-1.02461e-08
-1.02461e-08
-1.02462e-08
-1.02463e-08
-1.02464e-08
-1.02465e-08
-1.02466e-08
-1.02467e-08
-1.02468e-08
-1.02468e-08
-1.02469e-08
-1.0247e-08
-1.02471e-08
-1.02472e-08
-1.02472e-08
-1.02473e-08
-1.02474e-08
-1.02475e-08
-1.02476e-08
-1.02476e-08
-1.02477e-08
-1.02478e-08
-1.02479e-08
-1.02479e-08
-1.0248e-08
-1.02481e-08
-1.02481e-08
-1.02482e-08
-1.02483e-08
-1.02484e-08
-1.02484e-08
-1.02485e-08
-1.02486e-08
-1.02486e-08
-1.02487e-08
-1.02487e-08
-1.02488e-08
-1.02489e-08
-1.02489e-08
-1.0249e-08
-1.02491e-08
-1.02491e-08
-1.02492e-08
-1.02492e-08
-1.02493e-08
-1.02493e-08
-1.02494e-08
-1.02495e-08
-1.02495e-08
-1.02496e-08
-1.02496e-08
-1.02497e-08
-1.02497e-08
-1.02498e-08
-1.02498e-08
-1.02499e-08
-1.02499e-08
-1.025e-08
-1.025e-08
-1.025e-08
-1.02501e-08
-1.02501e-08
-1.02502e-08
-1.02502e-08
-1.02503e-08
-1.02503e-08
-1.02503e-08
-1.02504e-08
-1.02504e-08
-1.02504e-08
-1.02505e-08
-1.02505e-08
-1.02505e-08
-1.02506e-08
-1.02506e-08
-1.02506e-08
-1.02507e-08
-1.02507e-08
-1.02507e-08
-1.02508e-08
-1.02508e-08
-1.02508e-08
-1.02508e-08
-1.02509e-08
-1.02509e-08
-1.02509e-08
-1.02509e-08
-1.0251e-08
-1.0251e-08
-1.0251e-08
-1.0251e-08
-1.0251e-08
-1.02511e-08
-1.02511e-08
-1.02511e-08
-1.02511e-08
-1.02511e-08
)
;

boundaryField
{
    BotWall
    {
        type            calculated;
        value           nonuniform 0();
    }
    FreeStream
    {
        type            calculated;
        value           uniform -1.02512e-08;
    }
    FrontNBack
    {
        type            empty;
        value           nonuniform 0();
    }
    LeftSide
    {
        type            symmetryPlane;
        value           uniform 0;
    }
    RightSide
    {
        type            symmetryPlane;
        value           nonuniform 0();
    }
    procBoundary0to1
    {
        type            processor;
        value           uniform 1.02433e-08;
    }
    procBoundary0to2
    {
        type            processor;
        value           nonuniform List<scalar> 
75
(
7.3345e-14
7.26119e-14
7.18749e-14
7.11342e-14
7.03897e-14
6.96415e-14
6.88896e-14
6.81339e-14
6.73746e-14
6.66115e-14
6.58447e-14
6.50743e-14
6.43001e-14
6.35222e-14
6.27406e-14
6.19551e-14
6.11658e-14
6.03727e-14
5.95755e-14
5.87743e-14
5.7969e-14
5.71596e-14
5.63458e-14
5.55276e-14
5.47049e-14
5.38776e-14
5.30456e-14
5.22089e-14
5.13672e-14
5.05207e-14
4.96692e-14
4.88128e-14
4.79515e-14
4.70853e-14
4.62145e-14
4.53392e-14
4.44598e-14
4.35765e-14
4.26899e-14
4.18005e-14
4.09091e-14
4.00163e-14
3.91233e-14
3.8231e-14
3.73407e-14
3.64537e-14
3.55716e-14
3.46961e-14
3.38289e-14
3.2972e-14
3.21272e-14
3.12968e-14
3.04828e-14
2.96875e-14
2.8913e-14
2.81615e-14
2.74348e-14
2.6735e-14
2.60638e-14
2.54228e-14
2.48133e-14
2.42366e-14
2.36939e-14
2.3186e-14
2.27141e-14
2.22793e-14
2.1883e-14
2.15273e-14
2.12148e-14
2.0949e-14
2.07341e-14
2.05749e-14
2.04762e-14
2.0442e-14
2.05075e-14
)
;
    }
    procBoundary0to3
    {
        type            processor;
        value           nonuniform List<scalar> 
50
(
1.05296e-13
1.04729e-13
1.0416e-13
1.0359e-13
1.03017e-13
1.02443e-13
1.01866e-13
1.01287e-13
1.00706e-13
1.00122e-13
9.95356e-14
9.89468e-14
9.83554e-14
9.77612e-14
9.71643e-14
9.65645e-14
9.59618e-14
9.53561e-14
9.47474e-14
9.41354e-14
9.35203e-14
9.29019e-14
9.22802e-14
9.1655e-14
9.10264e-14
9.03943e-14
8.97586e-14
8.91193e-14
8.84763e-14
8.78296e-14
8.71791e-14
8.65249e-14
8.58668e-14
8.52048e-14
8.4539e-14
8.38692e-14
8.31955e-14
8.25178e-14
8.18362e-14
8.11505e-14
8.04609e-14
7.97673e-14
7.90696e-14
7.8368e-14
7.76624e-14
7.69527e-14
7.62391e-14
7.55215e-14
7.47999e-14
7.40744e-14
)
;
    }
}


// ************************************************************************* //
