/*--------------------------------*- C++ -*----------------------------------*\
| =========                 |                                                 |
| \\      /  F ield         | OpenFOAM: The Open Source CFD Toolbox           |
|  \\    /   O peration     | Version:  2.4.0                                 |
|   \\  /    A nd           | Web:      www.OpenFOAM.org                      |
|    \\/     M anipulation  |                                                 |
\*---------------------------------------------------------------------------*/
FoamFile
{
    version     2.0;
    format      ascii;
    class       volScalarField;
    location    "0.001";
    object      H;
}
// * * * * * * * * * * * * * * * * * * * * * * * * * * * * * * * * * * * * * //

dimensions      [0 2 -2 0 0 0 0];

internalField   nonuniform List<scalar> 
125
(
-9724.3
-1306.54
-1050.19
-1050.23
-1036.62
-1010.86
-974.596
-929.572
-877.569
-820.344
-759.577
-696.835
-633.535
-570.921
-510.054
-451.801
-396.842
-345.674
-298.625
-255.872
-217.461
-183.325
-153.307
-127.179
-104.666
-85.456
-69.223
-55.6353
-44.3678
-35.1101
-27.5728
-21.491
-16.6269
-12.7704
-9.73886
-7.37576
-5.54881
-4.14764
-3.08138
-2.27605
-1.6722
-1.22253
-0.889854
-0.645218
-0.466326
-0.336168
-0.241884
-0.173841
-0.124883
-0.0897352
-0.0645375
-0.0464835
-0.033545
-0.0242631
-0.0175932
-0.0127894
-0.00932019
-0.00680733
-0.00498155
-0.00365098
-0.00267859
-0.00196621
-0.0014433
-0.00105889
-0.000776067
-0.000567917
-0.000414773
-0.000302197
-0.000219558
-0.000159011
-0.000114754
-8.24935e-05
-5.90531e-05
-4.20814e-05
-2.9841e-05
-2.10503e-05
-1.47657e-05
-1.0295e-05
-7.13121e-06
-4.90486e-06
-3.34773e-06
-2.26566e-06
-1.51901e-06
-1.00775e-06
-6.60579e-07
-4.27017e-07
-2.71521e-07
-1.69194e-07
-1.02713e-07
-6.03006e-08
-3.36781e-08
-1.7427e-08
-7.8066e-09
-2.36066e-09
5.29099e-10
1.87905e-09
2.32943e-09
2.3321e-09
2.10016e-09
1.79831e-09
1.40432e-09
1.09671e-09
8.73588e-10
6.57947e-10
4.79071e-10
3.70135e-10
2.49808e-10
1.75768e-10
1.46303e-10
7.13134e-11
7.59227e-11
3.73436e-11
4.23584e-11
5.25021e-11
2.28476e-11
8.51449e-13
-1.18005e-13
1.19307e-13
3.75995e-14
3.41223e-15
2.86946e-16
2.1722e-16
6.6184e-17
1.00455e-17
1.40655e-18
)
;

boundaryField
{
    BotWall
    {
        type            zeroGradient;
    }
    FreeStream
    {
        type            zeroGradient;
    }
    FrontNBack
    {
        type            empty;
    }
    LeftSide
    {
        type            symmetryPlane;
    }
    RightSide
    {
        type            symmetryPlane;
    }
    procBoundary11to8
    {
        type            processor;
        value           nonuniform List<scalar> 
50
(
-2.10378e-05
-1.47569e-05
-1.02888e-05
-7.12684e-06
-4.90187e-06
-3.34569e-06
-2.26427e-06
-1.51809e-06
-1.00716e-06
-6.60218e-07
-4.26795e-07
-2.71358e-07
-1.69083e-07
-1.02687e-07
-6.0283e-08
-3.36873e-08
-1.74391e-08
-7.82384e-09
-2.34989e-09
5.26207e-10
1.85946e-09
2.33843e-09
2.30232e-09
2.10718e-09
1.79393e-09
1.39764e-09
1.09471e-09
8.80224e-10
6.56287e-10
4.71604e-10
3.49246e-10
2.74028e-10
1.66427e-10
1.55571e-10
6.59858e-11
6.80088e-11
3.47618e-11
7.27902e-11
3.09783e-11
2.32753e-11
4.94711e-13
-1.23612e-13
1.04735e-13
3.12481e-14
2.50907e-15
2.24376e-16
1.85537e-16
5.31602e-17
7.93083e-18
1.41768e-18
)
;
    }
    procBoundary11to9
    {
        type            processor;
        value           nonuniform List<scalar> 
75
(
-9724.3
-1306.53
-1050.18
-1050.22
-1036.62
-1010.86
-974.59
-929.565
-877.561
-820.335
-759.568
-696.825
-633.524
-570.91
-510.043
-451.79
-396.832
-345.663
-298.615
-255.863
-217.453
-183.317
-153.299
-127.173
-104.66
-85.4509
-69.2186
-55.6315
-44.3645
-35.1074
-27.5705
-21.4891
-16.6253
-12.7691
-9.73782
-7.37492
-5.54814
-4.14711
-3.08096
-2.27573
-1.67195
-1.22234
-0.889703
-0.645102
-0.466238
-0.3361
-0.241832
-0.173801
-0.124853
-0.0897123
-0.0645201
-0.0464703
-0.0335348
-0.0242554
-0.0175873
-0.0127849
-0.00931676
-0.0068047
-0.00497955
-0.00364945
-0.00267742
-0.00196533
-0.00144262
-0.00105838
-0.000775681
-0.000567627
-0.000414556
-0.000302035
-0.000219438
-0.000158922
-0.000114688
-8.24454e-05
-5.90182e-05
-4.20562e-05
-2.98231e-05
)
;
    }
    procBoundary11to10
    {
        type            processor;
        value           uniform 8.86835e-20;
    }
}


// ************************************************************************* //
