/*--------------------------------*- C++ -*----------------------------------*\
| =========                 |                                                 |
| \\      /  F ield         | OpenFOAM: The Open Source CFD Toolbox           |
|  \\    /   O peration     | Version:  2.4.0                                 |
|   \\  /    A nd           | Web:      www.OpenFOAM.org                      |
|    \\/     M anipulation  |                                                 |
\*---------------------------------------------------------------------------*/
FoamFile
{
    version     2.0;
    format      ascii;
    class       volScalarField;
    location    "5";
    object      H;
}
// * * * * * * * * * * * * * * * * * * * * * * * * * * * * * * * * * * * * * //

dimensions      [0 2 -2 0 0 0 0];

internalField   nonuniform List<scalar> 
125
(
-12015.5
-12015.5
-12015.5
-12015.5
-12015.5
-11584.2
-11584.2
-11584
-11584.1
-11584.2
-11148
-11148
-11147.7
-11147.8
-11148.1
-10706.9
-10706.9
-10706.5
-10706.7
-10707
-10260.9
-10260.8
-10260.4
-10260.5
-10260.9
-9809.75
-9809.64
-9809.12
-9809.3
-9809.82
-9353.5
-9353.36
-9352.74
-9352.96
-9353.58
-8892.03
-8891.88
-8891.15
-8891.41
-8892.13
-8425.28
-8425.09
-8424.26
-8424.55
-8425.39
-7953.14
-7952.94
-7951.99
-7952.33
-7953.27
-7475.55
-7475.32
-7474.26
-7474.63
-7475.7
-6992.42
-6992.15
-6990.98
-6991.39
-6992.58
-6503.65
-6503.35
-6502.05
-6502.51
-6503.83
-6009.16
-6008.83
-6007.4
-6007.91
-6009.36
-5508.85
-5508.49
-5506.92
-5507.48
-5509.08
-5002.64
-5002.23
-5000.52
-5001.13
-5002.89
-4490.42
-4489.97
-4488.1
-4488.77
-4490.7
-3972.09
-3971.6
-3969.57
-3970.29
-3972.4
-3447.56
-3447.02
-3444.81
-3445.6
-3447.9
-2916.72
-2916.13
-2913.73
-2914.58
-2917.1
-2379.47
-2378.82
-2376.22
-2377.15
-2379.89
-1835.71
-1834.98
-1832.17
-1833.17
-1836.17
-1285.31
-1284.52
-1281.47
-1282.56
-1285.83
-728.186
-727.308
-724.011
-725.184
-728.757
-18.8454
-18.7541
-18.4286
-18.5432
-18.9054
)
;

boundaryField
{
    BotWall
    {
        type            zeroGradient;
    }
    FreeStream
    {
        type            zeroGradient;
    }
    FrontNBack
    {
        type            empty;
    }
    LeftSide
    {
        type            symmetryPlane;
    }
    RightSide
    {
        type            symmetryPlane;
    }
    procBoundary0to1
    {
        type            processor;
        value           nonuniform List<scalar> 5(-14.1006 -14.0318 -13.7891 -13.8746 -14.1448);
    }
}


// ************************************************************************* //
