/*--------------------------------*- C++ -*----------------------------------*\
| =========                 |                                                 |
| \\      /  F ield         | OpenFOAM: The Open Source CFD Toolbox           |
|  \\    /   O peration     | Version:  2.4.0                                 |
|   \\  /    A nd           | Web:      www.OpenFOAM.org                      |
|    \\/     M anipulation  |                                                 |
\*---------------------------------------------------------------------------*/
FoamFile
{
    version     2.0;
    format      ascii;
    class       surfaceScalarField;
    location    "5";
    object      phi;
}
// * * * * * * * * * * * * * * * * * * * * * * * * * * * * * * * * * * * * * //

dimensions      [0 3 -1 0 0 0 0];

internalField   nonuniform List<scalar> 
220
(
2.41763e-17
-2.41768e-17
3.0638e-17
-6.46278e-18
-9.35324e-18
3.999e-17
-3.10413e-17
2.1688e-17
-3.10423e-17
7.57205e-17
-9.99066e-17
9.64634e-17
-2.72215e-17
-2.97979e-17
1.66229e-16
-9.96737e-17
9.15462e-17
-1.30729e-16
1.31169e-16
-2.31086e-16
1.67181e-16
-6.32519e-17
-5.22914e-17
3.85677e-16
-1.74958e-16
2.14194e-16
-3.05701e-16
1.90734e-16
-4.21833e-16
2.42742e-16
-1.15279e-16
-7.6959e-17
7.05352e-16
-2.56778e-16
3.93993e-16
-5.62493e-16
2.54623e-16
-6.76469e-16
3.234e-16
-1.84076e-16
-1.03927e-16
1.13265e-15
-3.45498e-16
6.35543e-16
-9.08005e-16
3.23084e-16
-9.99568e-16
4.09448e-16
-2.7046e-16
-1.33339e-16
1.67541e-15
-4.41548e-16
9.43731e-16
-1.34957e-15
3.9634e-16
-1.39592e-15
5.0117e-16
-3.75312e-16
-1.65328e-16
2.34188e-15
-5.45337e-16
1.32372e-15
-1.89492e-15
4.74668e-16
-1.8706e-15
5.98892e-16
-4.99557e-16
-2.00062e-16
3.1408e-15
-6.57348e-16
1.78098e-15
-2.55228e-15
5.58313e-16
-2.42893e-15
7.02928e-16
-6.44194e-16
-2.37687e-16
4.08139e-15
-7.78032e-16
2.32131e-15
-3.33033e-15
6.47585e-16
-3.07653e-15
8.13645e-16
-8.10275e-16
-2.7839e-16
5.17339e-15
-9.07936e-16
2.95083e-15
-4.23828e-15
7.42751e-16
-3.8193e-15
9.31392e-16
-9.98937e-16
-3.22334e-16
6.42709e-15
-1.04757e-15
3.67604e-15
-5.28586e-15
8.44161e-16
-4.66347e-15
1.05658e-15
-1.21138e-15
-3.6973e-16
7.85337e-15
-1.19754e-15
4.50383e-15
-6.48341e-15
9.52104e-16
-5.61559e-15
1.18961e-15
-1.4489e-15
-4.20757e-16
9.46371e-15
-1.35841e-15
5.44146e-15
-7.84183e-15
1.06697e-15
-6.68258e-15
1.33092e-15
-1.71287e-15
-4.75651e-16
1.12703e-14
-1.53089e-15
6.49668e-15
-9.37273e-15
1.18909e-15
-7.87168e-15
1.48097e-15
-2.00478e-15
-5.34614e-16
1.32858e-14
-1.7156e-15
7.67765e-15
-1.10883e-14
1.31888e-15
-9.19058e-15
1.64028e-15
-2.32619e-15
-5.97908e-16
1.5524e-14
-1.91333e-15
8.99305e-15
-1.30017e-14
1.45672e-15
-1.06473e-14
1.80933e-15
-2.67882e-15
-6.65764e-16
1.79991e-14
-2.12481e-15
1.04521e-14
-1.51265e-14
1.60308e-15
-1.22504e-14
1.98876e-15
-3.06451e-15
-7.38448e-16
2.07262e-14
-2.35101e-15
1.20646e-14
-1.74775e-14
1.75832e-15
-1.40087e-14
2.17904e-15
-3.48525e-15
-8.16243e-16
2.37215e-14
-2.59232e-15
1.38407e-14
-2.00698e-14
1.92283e-15
-1.59316e-14
2.38072e-15
-3.94315e-15
-8.998e-16
2.7002e-14
-2.84953e-15
1.57904e-14
-2.29194e-14
2.09704e-15
-1.80286e-14
2.59408e-15
-4.44019e-15
-9.87241e-16
3.05833e-14
-3.12276e-15
1.79259e-14
-2.60421e-14
2.28281e-15
-2.03114e-14
2.81827e-15
-4.97566e-15
-1.08261e-15
3.44842e-14
-3.41541e-15
2.02587e-14
-2.94576e-14
2.48213e-15
-2.27936e-14
3.06533e-15
-5.55886e-15
-1.18659e-15
3.87361e-14
-3.73871e-15
2.28108e-14
-3.31964e-14
2.68999e-15
-3.41696e-14
3.36494e-15
-8.32989e-15
-1.30612e-15
4.34071e-14
-4.11729e-15
2.5622e-14
-5.01455e-14
2.90365e-15
3.80484e-15
-1.47175e-15
-4.63846e-15
)
;

boundaryField
{
    BotWall
    {
        type            calculated;
        value           nonuniform List<scalar> 5(4.18334e-22 8.66943e-22 1.03114e-21 -1.46999e-22 8.01326e-22);
    }
    FreeStream
    {
        type            calculated;
        value           nonuniform 0();
    }
    FrontNBack
    {
        type            empty;
        value           nonuniform 0();
    }
    LeftSide
    {
        type            symmetryPlane;
        value           uniform 0;
    }
    RightSide
    {
        type            symmetryPlane;
        value           uniform 0;
    }
    procBoundary0to1
    {
        type            processor;
        value           nonuniform List<scalar> 5(-1.89112e-10 -1.89122e-10 -1.89165e-10 -1.89149e-10 -1.89104e-10);
    }
}


// ************************************************************************* //
