/*--------------------------------*- C++ -*----------------------------------*\
| =========                 |                                                 |
| \\      /  F ield         | OpenFOAM: The Open Source CFD Toolbox           |
|  \\    /   O peration     | Version:  2.4.0                                 |
|   \\  /    A nd           | Web:      www.OpenFOAM.org                      |
|    \\/     M anipulation  |                                                 |
\*---------------------------------------------------------------------------*/
FoamFile
{
    version     2.0;
    format      ascii;
    class       volScalarField;
    location    "5";
    object      T;
}
// * * * * * * * * * * * * * * * * * * * * * * * * * * * * * * * * * * * * * //

dimensions      [0 0 0 1 0 0 0];

internalField   nonuniform List<scalar> 
125
(
293.088
293.088
293.088
293.088
293.088
293.264
293.264
293.264
293.264
293.264
293.442
293.442
293.442
293.442
293.442
293.623
293.623
293.623
293.623
293.623
293.805
293.805
293.805
293.805
293.805
293.989
293.99
293.99
293.99
293.989
294.176
294.176
294.176
294.176
294.176
294.365
294.365
294.365
294.365
294.365
294.555
294.556
294.556
294.556
294.555
294.749
294.749
294.749
294.749
294.748
294.944
294.944
294.944
294.944
294.944
295.141
295.141
295.142
295.142
295.141
295.341
295.341
295.342
295.342
295.341
295.543
295.543
295.544
295.544
295.543
295.748
295.748
295.749
295.748
295.748
295.955
295.955
295.956
295.955
295.955
296.164
296.164
296.165
296.165
296.164
296.376
296.376
296.377
296.377
296.376
296.591
296.591
296.592
296.591
296.59
296.808
296.808
296.809
296.808
296.807
297.027
297.027
297.029
297.028
297.027
297.25
297.25
297.251
297.251
297.249
297.475
297.475
297.476
297.476
297.474
297.702
297.703
297.704
297.704
297.702
297.992
297.992
297.992
297.992
297.992
)
;

boundaryField
{
    BotWall
    {
        type            fixedValue;
        value           uniform 293;
    }
    FreeStream
    {
        type            fixedValue;
        value           nonuniform 0();
    }
    FrontNBack
    {
        type            empty;
    }
    LeftSide
    {
        type            symmetryPlane;
    }
    RightSide
    {
        type            symmetryPlane;
    }
    procBoundary0to1
    {
        type            processor;
        value           nonuniform List<scalar> 5(297.992 297.992 297.992 297.992 297.992);
    }
}


// ************************************************************************* //
