/*--------------------------------*- C++ -*----------------------------------*\
| =========                 |                                                 |
| \\      /  F ield         | OpenFOAM: The Open Source CFD Toolbox           |
|  \\    /   O peration     | Version:  2.4.0                                 |
|   \\  /    A nd           | Web:      www.OpenFOAM.org                      |
|    \\/     M anipulation  |                                                 |
\*---------------------------------------------------------------------------*/
FoamFile
{
    version     2.0;
    format      ascii;
    class       volVectorField;
    location    "5";
    object      U;
}
// * * * * * * * * * * * * * * * * * * * * * * * * * * * * * * * * * * * * * //

dimensions      [0 1 -1 0 0 0 0];

internalField   nonuniform List<vector> 
125
(
(2.49767e-09 9.02228e-11 0)
(1.51317e-08 1.10291e-10 0)
(7.64657e-09 1.4974e-10 0)
(-1.44698e-08 1.32732e-10 0)
(-8.87682e-09 8.61175e-11 0)
(7.90134e-09 -5.40547e-10 0)
(4.6693e-08 -3.65729e-10 0)
(2.35312e-08 1.21176e-10 0)
(-4.50207e-08 -6.92009e-11 0)
(-2.79377e-08 -6.13993e-10 0)
(1.37496e-08 -2.62321e-10 0)
(7.97721e-08 3.04149e-10 0)
(4.01196e-08 1.77469e-09 0)
(-7.74095e-08 1.2099e-09 0)
(-4.84559e-08 -5.01194e-10 0)
(2.00566e-08 -2.24154e-09 0)
(1.1443e-07 -1.13293e-09 0)
(5.74403e-08 1.89363e-09 0)
(-1.11713e-07 7.40756e-10 0)
(-7.04919e-08 -2.75006e-09 0)
(2.68294e-08 -1.7724e-09 0)
(1.5072e-07 1.94545e-10 0)
(7.55219e-08 5.38394e-09 0)
(-1.48e-07 3.41971e-09 0)
(-9.4099e-08 -2.67251e-09 0)
(3.40852e-08 -5.21753e-09 0)
(1.88714e-07 -2.26156e-09 0)
(9.43977e-08 5.73084e-09 0)
(-1.86359e-07 2.71846e-09 0)
(-1.19347e-07 -6.63516e-09 0)
(4.18293e-08 -4.55974e-09 0)
(2.28468e-07 -2.10707e-10 0)
(1.14101e-07 1.1275e-08 0)
(-2.26865e-07 6.96342e-09 0)
(-1.46295e-07 -6.64603e-09 0)
(5.00814e-08 -9.65645e-09 0)
(2.70061e-07 -3.79738e-09 0)
(1.34666e-07 1.1912e-08 0)
(-2.69613e-07 6.03326e-09 0)
(-1.7502e-07 -1.25643e-08 0)
(5.88454e-08 -8.80247e-09 0)
(3.13554e-07 -9.33575e-10 0)
(1.56131e-07 1.97885e-08 0)
(-3.14687e-07 1.20588e-08 0)
(-2.05585e-07 -1.27172e-08 0)
(6.81434e-08 -1.57624e-08 0)
(3.59033e-07 -5.77868e-09 0)
(1.78535e-07 2.07874e-08 0)
(-3.62192e-07 1.09043e-08 0)
(-2.38079e-07 -2.08678e-08 0)
(7.79781e-08 -1.468e-08 0)
(4.06566e-07 -1.97947e-09 0)
(2.01918e-07 3.13293e-08 0)
(-4.12217e-07 1.89729e-08 0)
(-2.72569e-07 -2.12003e-08 0)
(8.83736e-08 -2.3906e-08 0)
(4.56247e-07 -8.39374e-09 0)
(2.26325e-07 3.25996e-08 0)
(-4.64883e-07 1.743e-08 0)
(-3.09155e-07 -3.20599e-08 0)
(9.93318e-08 -2.29073e-08 0)
(5.08151e-07 -3.87308e-09 0)
(2.518e-07 4.58221e-08 0)
(-5.20285e-07 2.74809e-08 0)
(-3.47912e-07 -3.29627e-08 0)
(1.10878e-07 -3.47544e-08 0)
(5.6238e-07 -1.21127e-08 0)
(2.78394e-07 4.73531e-08 0)
(-5.78557e-07 2.54587e-08 0)
(-3.8895e-07 -4.69696e-08 0)
(1.23015e-07 -3.04606e-08 0)
(6.19017e-07 -3.38156e-09 0)
(3.06156e-07 6.70539e-08 0)
(-6.39803e-07 4.11894e-08 0)
(-4.32353e-07 -4.51588e-08 0)
(1.35768e-07 -3.55408e-08 0)
(6.78177e-07 -3.91686e-09 0)
(3.35142e-07 7.88108e-08 0)
(-7.04172e-07 4.85093e-08 0)
(-4.78244e-07 -5.30452e-08 0)
(1.4914e-07 -2.75182e-08 0)
(7.3995e-07 9.64816e-09 0)
(3.65409e-07 1.05988e-07 0)
(-7.71783e-07 7.07835e-08 0)
(-5.26719e-07 -4.8225e-08 0)
(1.63159e-07 -1.1173e-07 0)
(8.04463e-07 -6.9201e-08 0)
(3.97019e-07 4.13565e-08 0)
(-8.42797e-07 1.04372e-09 0)
(-5.77913e-07 -1.35861e-07 0)
(1.7782e-07 -3.55429e-07 0)
(8.71792e-07 -3.07286e-07 0)
(4.30022e-07 -1.83746e-07 0)
(-9.17282e-07 -2.28698e-07 0)
(-6.31875e-07 -3.82915e-07 0)
(1.93127e-07 -5.20362e-07 0)
(9.42016e-07 -4.66671e-07 0)
(4.64465e-07 -3.3014e-07 0)
(-9.95418e-07 -3.79736e-07 0)
(-6.88768e-07 -5.51287e-07 0)
(2.09102e-07 1.21764e-06 0)
(1.01529e-06 1.28442e-06 0)
(5.00718e-07 1.45607e-06 0)
(-1.07709e-06 1.39396e-06 0)
(-7.48733e-07 1.17918e-06 0)
(2.2588e-07 7.73111e-06 0)
(1.09184e-06 7.83076e-06 0)
(5.38367e-07 8.1099e-06 0)
(-1.16359e-06 8.00959e-06 0)
(-8.12558e-07 7.67169e-06 0)
(2.43746e-07 1.06634e-05 0)
(1.17331e-06 1.08089e-05 0)
(5.78769e-07 1.12491e-05 0)
(-1.2561e-06 1.10917e-05 0)
(-8.81452e-07 1.05716e-05 0)
(2.6267e-07 -3.036e-05 0)
(1.2603e-06 -3.03467e-05 0)
(6.22594e-07 -3.03818e-05 0)
(-1.35477e-06 -3.03689e-05 0)
(-9.55626e-07 -3.03729e-05 0)
(2.8388e-07 -0.000235801 0)
(1.3584e-06 -0.000236232 0)
(6.71907e-07 -0.00023787 0)
(-1.46618e-06 -0.000237289 0)
(-1.04011e-06 -0.000235522 0)
)
;

boundaryField
{
    BotWall
    {
        type            fixedValue;
        value           uniform (0 0 0);
    }
    FreeStream
    {
        type            zeroGradient;
    }
    FrontNBack
    {
        type            empty;
    }
    LeftSide
    {
        type            symmetryPlane;
    }
    RightSide
    {
        type            symmetryPlane;
    }
    procBoundary0to1
    {
        type            processor;
        value           nonuniform List<vector> 5((2.87755e-07 -0.000706348 0) (1.37699e-06 -0.000706132 0) (6.81403e-07 -0.000705509 0) (-1.48728e-06 -0.000705727 0) (-1.05599e-06 -0.000706472 0));
    }
}


// ************************************************************************* //
