/*--------------------------------*- C++ -*----------------------------------*\
| =========                 |                                                 |
| \\      /  F ield         | OpenFOAM: The Open Source CFD Toolbox           |
|  \\    /   O peration     | Version:  2.4.0                                 |
|   \\  /    A nd           | Web:      www.OpenFOAM.org                      |
|    \\/     M anipulation  |                                                 |
\*---------------------------------------------------------------------------*/
FoamFile
{
    version     2.0;
    format      ascii;
    class       volScalarField;
    location    "2.5";
    object      H;
}
// * * * * * * * * * * * * * * * * * * * * * * * * * * * * * * * * * * * * * //

dimensions      [0 2 -2 0 0 0 0];

internalField   nonuniform List<scalar> 
500
(
-11913.6
-11913.6
-11913.6
-11913.6
-11913.6
-11277.4
-11277.4
-11277.4
-11277.4
-11277.4
-10634
-10633.9
-10633.9
-10633.9
-10634
-9983.28
-9983.27
-9983.26
-9983.27
-9983.28
-9325.23
-9325.21
-9325.19
-9325.21
-9325.23
-8659.67
-8659.65
-8659.63
-8659.64
-8659.67
-7986.49
-7986.46
-7986.44
-7986.46
-7986.49
-7305.56
-7305.52
-7305.5
-7305.52
-7305.56
-6616.75
-6616.71
-6616.68
-6616.71
-6616.75
-5919.93
-5919.88
-5919.85
-5919.88
-5919.93
-5214.95
-5214.9
-5214.86
-5214.9
-5214.95
-4501.69
-4501.63
-4501.59
-4501.63
-4501.69
-3779.99
-3779.93
-3779.88
-3779.93
-3779.99
-3049.72
-3049.64
-3049.6
-3049.64
-3049.72
-2310.72
-2310.63
-2310.58
-2310.63
-2310.72
-1562.83
-1562.74
-1562.69
-1562.74
-1562.84
-805.916
-805.816
-805.753
-805.815
-805.917
-13.9111
-13.9065
-13.9037
-13.9065
-13.9111
-10.352
-10.3486
-10.3465
-10.3485
-10.352
-10.3612
-10.3579
-10.3558
-10.3579
-10.3612
-10.3687
-10.3655
-10.3634
-10.3654
-10.3687
-10.3744
-10.3712
-10.3692
-10.3712
-10.3744
-10.3782
-10.375
-10.3731
-10.375
-10.3782
-10.38
-10.3769
-10.375
-10.3769
-10.38
-10.3797
-10.3767
-10.3749
-10.3767
-10.3798
-10.3774
-10.3744
-10.3726
-10.3744
-10.3774
-10.3728
-10.3699
-10.3681
-10.3699
-10.3728
-10.3659
-10.3631
-10.3613
-10.3631
-10.3659
-10.3567
-10.3539
-10.3522
-10.3539
-10.3567
-10.345
-10.3423
-10.3406
-10.3422
-10.345
-10.3307
-10.3281
-10.3264
-10.3281
-10.3307
-10.3138
-10.3112
-10.3096
-10.3112
-10.3138
-10.2942
-10.2917
-10.2901
-10.2917
-10.2942
-10.2718
-10.2693
-10.2678
-10.2693
-10.2718
-10.2465
-10.2441
-10.2426
-10.2441
-10.2465
-10.2182
-10.2159
-10.2144
-10.2158
-10.2182
-10.1868
-10.1845
-10.1831
-10.1845
-10.1868
-10.1523
-10.1501
-10.1487
-10.1501
-10.1523
-10.1145
-10.1123
-10.111
-10.1123
-10.1145
-10.0734
-10.0713
-10.0699
-10.0713
-10.0734
-10.0288
-10.0268
-10.0255
-10.0268
-10.0289
-9.98077
-9.97876
-9.9775
-9.97875
-9.98079
-9.92909
-9.92713
-9.9259
-9.92712
-9.92911
-9.87372
-9.87181
-9.87061
-9.8718
-9.87374
-9.81457
-9.81271
-9.81154
-9.8127
-9.81459
-9.75155
-9.74974
-9.7486
-9.74973
-9.75157
-9.68458
-9.68282
-9.68171
-9.68281
-9.6846
-9.61358
-9.61187
-9.61079
-9.61185
-9.6136
-9.53846
-9.5368
-9.53575
-9.53679
-9.53848
-9.45916
-9.45754
-9.45653
-9.45753
-9.45918
-9.37559
-9.37402
-9.37303
-9.37401
-9.37561
-9.28769
-9.28616
-9.2852
-9.28615
-9.28771
-9.19537
-9.19389
-9.19296
-9.19388
-9.19539
-9.09859
-9.09715
-9.09624
-9.09714
-9.0986
-8.99726
-8.99587
-8.99499
-8.99586
-8.99728
-8.89134
-8.88999
-8.88913
-8.88998
-8.89136
-8.78077
-8.77946
-8.77863
-8.77945
-8.78078
-8.66549
-8.66422
-8.66342
-8.66422
-8.66551
-8.54547
-8.54424
-8.54347
-8.54424
-8.54549
-8.42067
-8.41948
-8.41873
-8.41947
-8.42068
-8.29104
-8.28989
-8.28917
-8.28989
-8.29106
-8.15657
-8.15546
-8.15475
-8.15545
-8.15658
-8.01722
-8.01615
-8.01547
-8.01615
-8.01724
-7.87299
-7.87196
-7.87131
-7.87195
-7.87301
-7.72387
-7.72287
-7.72224
-7.72287
-7.72389
-7.56986
-7.5689
-7.56829
-7.5689
-7.56987
-7.41097
-7.41004
-7.40945
-7.41004
-7.41098
-7.2472
-7.24631
-7.24575
-7.24631
-7.24722
-7.0786
-7.07774
-7.0772
-7.07774
-7.07861
-6.90519
-6.90437
-6.90385
-6.90437
-6.9052
-6.72702
-6.72623
-6.72573
-6.72623
-6.72703
-6.54414
-6.54338
-6.54291
-6.54338
-6.54415
-6.35662
-6.3559
-6.35544
-6.3559
-6.35663
-6.16454
-6.16384
-6.16341
-6.16384
-6.16455
-5.96797
-5.96731
-5.9669
-5.96731
-5.96798
-5.76703
-5.7664
-5.76601
-5.7664
-5.76704
-5.56183
-5.56123
-5.56085
-5.56122
-5.56183
-5.35247
-5.3519
-5.35154
-5.3519
-5.35248
-5.13911
-5.13857
-5.13823
-5.13857
-5.13912
-4.9219
-4.92139
-4.92107
-4.92139
-4.9219
-4.70099
-4.7005
-4.7002
-4.7005
-4.70099
-4.47656
-4.4761
-4.47582
-4.4761
-4.47656
-4.2488
-4.24837
-4.24811
-4.24837
-4.24881
-4.01792
-4.01752
-4.01727
-4.01752
-4.01793
-3.78414
-3.78376
-3.78353
-3.78376
-3.78414
-3.54768
-3.54734
-3.54712
-3.54734
-3.54769
-3.3088
-3.30848
-3.30828
-3.30848
-3.30881
-3.06776
-3.06747
-3.06728
-3.06747
-3.06776
-2.82484
-2.82457
-2.8244
-2.82457
-2.82484
-2.58032
-2.58007
-2.57992
-2.58007
-2.58032
-2.33451
-2.33429
-2.33415
-2.33429
-2.33451
-2.08773
-2.08754
-2.08742
-2.08754
-2.08774
-1.84032
-1.84015
-1.84005
-1.84015
-1.84033
-1.59263
-1.59248
-1.59239
-1.59248
-1.59263
-1.345
-1.34488
-1.3448
-1.34488
-1.345
-1.09782
-1.09772
-1.09766
-1.09772
-1.09782
-0.851479
-0.851402
-0.851353
-0.851402
-0.85148
-0.606365
-0.60631
-0.606276
-0.60631
-0.606366
-0.36289
-0.362857
-0.362837
-0.362858
-0.362891
-0.121473
-0.121462
-0.121456
-0.121462
-0.121474
)
;

boundaryField
{
    BotWall
    {
        type            zeroGradient;
    }
    FreeStream
    {
        type            zeroGradient;
    }
    FrontNBack
    {
        type            empty;
    }
    LeftSide
    {
        type            symmetryPlane;
    }
    RightSide
    {
        type            symmetryPlane;
    }
}


// ************************************************************************* //
