/*--------------------------------*- C++ -*----------------------------------*\
| =========                 |                                                 |
| \\      /  F ield         | OpenFOAM: The Open Source CFD Toolbox           |
|  \\    /   O peration     | Version:  2.4.0                                 |
|   \\  /    A nd           | Web:      www.OpenFOAM.org                      |
|    \\/     M anipulation  |                                                 |
\*---------------------------------------------------------------------------*/
FoamFile
{
    version     2.0;
    format      ascii;
    class       volScalarField;
    location    "2.5";
    object      p;
}
// * * * * * * * * * * * * * * * * * * * * * * * * * * * * * * * * * * * * * //

dimensions      [1 -1 -2 0 0 0 0];

internalField   nonuniform List<scalar> 
500
(
0.55974
0.559859
0.559923
0.55986
0.55974
0.529951
0.530073
0.530139
0.530074
0.52995
0.499806
0.499927
0.499992
0.499928
0.499804
0.469338
0.46946
0.469526
0.469461
0.469336
0.438493
0.438617
0.438683
0.438618
0.438492
0.407316
0.407441
0.407508
0.407442
0.407315
0.375869
0.375995
0.376063
0.375995
0.375867
0.34447
0.344598
0.344667
0.344599
0.344468
0.312945
0.313074
0.313143
0.313075
0.312943
0.278566
0.278693
0.278764
0.278694
0.278564
0.234241
0.234362
0.234431
0.234363
0.234239
0.183378
0.183501
0.183568
0.183502
0.183377
0.19641
0.196586
0.196656
0.196586
0.196408
0.450655
0.450968
0.451081
0.45097
0.450652
0.855675
0.856019
0.856238
0.856023
0.85567
-0.379533
-0.379914
-0.37976
-0.379912
-0.379536
-7.73343
-7.73582
-7.73674
-7.73584
-7.73341
-18.6201
-18.624
-18.6273
-18.624
-18.6201
-0.0155208
-0.0155205
-0.0155204
-0.0155205
-0.0155208
-0.00905934
-0.00905966
-0.0090597
-0.00905966
-0.00905934
-0.0106515
-0.0106515
-0.0106515
-0.0106515
-0.0106515
-0.0118329
-0.0118329
-0.0118329
-0.0118329
-0.0118329
-0.0125472
-0.0125472
-0.0125472
-0.0125472
-0.0125472
-0.013142
-0.013142
-0.013142
-0.013142
-0.013142
-0.0137575
-0.0137575
-0.0137575
-0.0137575
-0.0137575
-0.0143986
-0.0143986
-0.0143986
-0.0143986
-0.0143986
-0.0150515
-0.0150515
-0.0150515
-0.0150515
-0.0150515
-0.0157112
-0.0157112
-0.0157112
-0.0157112
-0.0157112
-0.0163775
-0.0163775
-0.0163775
-0.0163775
-0.0163775
-0.017051
-0.017051
-0.017051
-0.017051
-0.017051
-0.0177321
-0.0177321
-0.0177321
-0.0177321
-0.0177321
-0.0184208
-0.0184208
-0.0184208
-0.0184208
-0.0184208
-0.0191172
-0.0191172
-0.0191172
-0.0191172
-0.0191172
-0.0198214
-0.0198214
-0.0198214
-0.0198214
-0.0198214
-0.0205334
-0.0205334
-0.0205334
-0.0205334
-0.0205334
-0.0212534
-0.0212534
-0.0212534
-0.0212534
-0.0212534
-0.0219814
-0.0219814
-0.0219814
-0.0219814
-0.0219814
-0.0227175
-0.0227175
-0.0227175
-0.0227175
-0.0227175
-0.0234619
-0.0234619
-0.0234619
-0.0234619
-0.0234619
-0.0242145
-0.0242145
-0.0242145
-0.0242145
-0.0242145
-0.0249756
-0.0249756
-0.0249756
-0.0249756
-0.0249756
-0.0257451
-0.0257451
-0.0257451
-0.0257451
-0.0257451
-0.0265232
-0.0265232
-0.0265232
-0.0265232
-0.0265232
-0.0273101
-0.0273101
-0.0273101
-0.0273101
-0.0273101
-0.0281057
-0.0281057
-0.0281057
-0.0281057
-0.0281057
-0.0289101
-0.0289101
-0.0289101
-0.0289101
-0.0289101
-0.0297236
-0.0297236
-0.0297236
-0.0297236
-0.0297236
-0.0305461
-0.0305461
-0.0305461
-0.0305461
-0.0305461
-0.0313778
-0.0313778
-0.0313778
-0.0313778
-0.0313778
-0.0322188
-0.0322188
-0.0322188
-0.0322188
-0.0322188
-0.0330692
-0.0330692
-0.0330692
-0.0330692
-0.0330692
-0.033929
-0.033929
-0.033929
-0.033929
-0.033929
-0.0347985
-0.0347985
-0.0347985
-0.0347985
-0.0347985
-0.0356776
-0.0356776
-0.0356776
-0.0356776
-0.0356776
-0.0365666
-0.0365666
-0.0365666
-0.0365666
-0.0365666
-0.0374655
-0.0374655
-0.0374655
-0.0374655
-0.0374655
-0.0383744
-0.0383744
-0.0383744
-0.0383744
-0.0383744
-0.0392935
-0.0392935
-0.0392935
-0.0392935
-0.0392935
-0.0402228
-0.0402228
-0.0402228
-0.0402228
-0.0402228
-0.0411625
-0.0411625
-0.0411625
-0.0411625
-0.0411625
-0.0421126
-0.0421126
-0.0421126
-0.0421126
-0.0421126
-0.0430734
-0.0430734
-0.0430734
-0.0430734
-0.0430734
-0.0440449
-0.0440449
-0.0440449
-0.0440449
-0.0440449
-0.0450272
-0.0450272
-0.0450272
-0.0450272
-0.0450272
-0.0460205
-0.0460205
-0.0460205
-0.0460205
-0.0460205
-0.0470249
-0.0470249
-0.0470249
-0.0470249
-0.0470249
-0.0480405
-0.0480405
-0.0480405
-0.0480405
-0.0480405
-0.0490674
-0.0490674
-0.0490674
-0.0490674
-0.0490674
-0.0501058
-0.0501058
-0.0501058
-0.0501058
-0.0501058
-0.0511558
-0.0511558
-0.0511558
-0.0511558
-0.0511558
-0.0522175
-0.0522175
-0.0522175
-0.0522175
-0.0522175
-0.053291
-0.053291
-0.053291
-0.053291
-0.053291
-0.0543765
-0.0543765
-0.0543765
-0.0543765
-0.0543765
-0.0554741
-0.0554741
-0.0554741
-0.0554741
-0.0554741
-0.056584
-0.056584
-0.056584
-0.056584
-0.056584
-0.0577063
-0.0577063
-0.0577063
-0.0577063
-0.0577063
-0.0588411
-0.0588411
-0.0588411
-0.0588411
-0.0588411
-0.0599885
-0.0599885
-0.0599885
-0.0599885
-0.0599885
-0.0611488
-0.0611488
-0.0611488
-0.0611488
-0.0611488
-0.062322
-0.062322
-0.062322
-0.062322
-0.062322
-0.0635082
-0.0635082
-0.0635082
-0.0635082
-0.0635082
-0.0647078
-0.0647078
-0.0647078
-0.0647078
-0.0647078
-0.0659207
-0.0659207
-0.0659207
-0.0659207
-0.0659207
-0.0671471
-0.0671471
-0.0671471
-0.0671471
-0.0671471
-0.0683873
-0.0683873
-0.0683873
-0.0683873
-0.0683873
-0.0696412
-0.0696412
-0.0696412
-0.0696412
-0.0696412
-0.0709092
-0.0709092
-0.0709092
-0.0709092
-0.0709092
-0.0721913
-0.0721913
-0.0721913
-0.0721913
-0.0721913
-0.0734877
-0.0734877
-0.0734877
-0.0734877
-0.0734877
-0.0747986
-0.0747986
-0.0747986
-0.0747986
-0.0747986
-0.0761241
-0.0761241
-0.0761241
-0.0761241
-0.0761241
-0.0774644
-0.0774644
-0.0774644
-0.0774644
-0.0774644
-0.0788197
-0.0788197
-0.0788197
-0.0788197
-0.0788197
-0.0801901
-0.0801901
-0.0801901
-0.0801901
-0.0801901
-0.0815758
-0.0815758
-0.0815758
-0.0815758
-0.0815758
-0.0829769
-0.0829769
-0.0829769
-0.0829769
-0.0829769
-0.0843937
-0.0843937
-0.0843937
-0.0843937
-0.0843937
-0.0858262
-0.0858262
-0.0858262
-0.0858262
-0.0858262
-0.0872748
-0.0872748
-0.0872748
-0.0872748
-0.0872748
-0.0887396
-0.0887396
-0.0887396
-0.0887396
-0.0887396
)
;

boundaryField
{
    BotWall
    {
        type            calculated;
        value           nonuniform List<scalar> 5(0.574561 0.574679 0.574744 0.57468 0.57456);
    }
    FreeStream
    {
        type            calculated;
        value           nonuniform List<scalar> 5(-0.089476 -0.089476 -0.089476 -0.089476 -0.089476);
    }
    FrontNBack
    {
        type            empty;
    }
    LeftSide
    {
        type            symmetryPlane;
    }
    RightSide
    {
        type            symmetryPlane;
    }
}


// ************************************************************************* //
