/*--------------------------------*- C++ -*----------------------------------*\
| =========                 |                                                 |
| \\      /  F ield         | OpenFOAM: The Open Source CFD Toolbox           |
|  \\    /   O peration     | Version:  2.4.0                                 |
|   \\  /    A nd           | Web:      www.OpenFOAM.org                      |
|    \\/     M anipulation  |                                                 |
\*---------------------------------------------------------------------------*/
FoamFile
{
    version     2.0;
    format      ascii;
    class       surfaceScalarField;
    location    "2.5";
    object      phi;
}
// * * * * * * * * * * * * * * * * * * * * * * * * * * * * * * * * * * * * * //

dimensions      [0 3 -1 0 0 0 0];

internalField   nonuniform List<scalar> 
895
(
2.83315e-18
-2.8329e-18
1.79365e-18
1.03976e-18
-1.77981e-18
3.57397e-18
-2.86882e-18
1.08936e-18
-2.86844e-18
8.75883e-18
-1.15881e-17
5.53818e-18
4.26657e-18
-5.49538e-18
1.46161e-17
-8.86886e-18
4.46964e-18
-1.17323e-17
1.50108e-17
-2.65946e-17
9.48097e-18
9.80327e-18
-9.40915e-18
3.35156e-17
-1.51996e-17
1.02673e-17
-2.69268e-17
2.15858e-17
-4.81756e-17
1.36254e-17
1.77711e-17
-1.35237e-17
6.06747e-17
-2.1859e-17
1.86101e-17
-4.87807e-17
2.85097e-17
-7.66803e-17
1.79858e-17
2.83026e-17
-1.78535e-17
9.65241e-17
-2.8871e-17
2.96352e-17
-7.76466e-17
3.57892e-17
-1.12464e-16
2.25678e-17
4.15317e-17
-2.24037e-17
1.41506e-16
-3.62429e-17
4.3482e-17
-1.13884e-16
4.34574e-17
-1.55916e-16
2.739e-17
5.76069e-17
-2.71929e-17
1.96099e-16
-4.4008e-17
6.03046e-17
-1.57888e-16
5.15172e-17
-2.07428e-16
3.24563e-17
7.66752e-17
-3.2225e-17
2.6079e-16
-5.21697e-17
8.02565e-17
-2.10053e-16
6.00081e-17
-2.67432e-16
3.77882e-17
9.89024e-17
-3.75213e-17
3.36109e-16
-6.07681e-17
1.0351e-16
-2.70816e-16
6.89345e-17
-3.36361e-16
4.33893e-17
1.24454e-16
-4.30854e-17
4.22592e-16
-6.98076e-17
1.30239e-16
-3.4062e-16
7.83383e-17
-4.14695e-16
4.92839e-17
1.53515e-16
-4.89416e-17
5.20826e-16
-7.93307e-17
1.60634e-16
-4.19947e-16
8.82126e-17
-5.02904e-16
5.54773e-17
1.86256e-16
-5.50951e-17
6.31406e-16
-8.93305e-17
1.94874e-16
-5.09274e-16
9.85804e-17
-6.0148e-16
6.19976e-17
2.22844e-16
-6.1574e-17
7.54984e-16
-9.98305e-17
2.33135e-16
-6.09102e-16
1.09464e-16
-7.10941e-16
6.88489e-17
2.63464e-16
-6.83828e-17
8.92221e-16
-1.10853e-16
2.75609e-16
-7.19953e-16
1.21128e-16
-8.32067e-16
7.60995e-17
3.08497e-16
-7.55896e-17
1.04391e-15
-1.22662e-16
3.22684e-16
-8.42614e-16
1.33963e-16
-9.66029e-16
8.35581e-17
3.58904e-16
-8.30013e-17
1.21048e-15
-1.35654e-16
3.75339e-16
-9.78268e-16
1.47955e-16
-1.21056e-15
9.22094e-17
4.14649e-16
-9.15836e-17
1.39427e-15
-1.4985e-16
4.33605e-16
-1.22593e-15
1.60009e-16
-2.77596e-10
1.01944e-16
-2.77598e-10
-1.01209e-16
-2.77599e-10
-1.6217e-16
-2.77598e-10
-2.77596e-10
1.62027e-16
-2.77596e-10
1.0171e-16
-2.77598e-10
-1.01037e-16
-2.77599e-10
-1.64105e-16
-2.77598e-10
-2.77596e-10
1.65881e-16
-2.77597e-10
1.00464e-16
-2.77598e-10
-9.97219e-17
-2.77599e-10
-1.67926e-16
-2.77598e-10
-2.77597e-10
1.54725e-16
-2.77597e-10
9.75025e-17
-2.77598e-10
-9.67266e-17
-2.77599e-10
-1.5666e-16
-2.77598e-10
-2.77597e-10
1.48331e-16
-2.77597e-10
9.38491e-17
-2.77598e-10
-9.30304e-17
-2.77598e-10
-1.50174e-16
-2.77598e-10
-2.77597e-10
1.43758e-16
-2.77597e-10
9.04066e-17
-2.77598e-10
-8.95412e-17
-2.77598e-10
-1.45517e-16
-2.77598e-10
-2.77597e-10
1.38948e-16
-2.77597e-10
8.72308e-17
-2.77598e-10
-8.63189e-17
-2.77598e-10
-1.40624e-16
-2.77598e-10
-2.77597e-10
1.33788e-16
-2.77597e-10
8.41134e-17
-2.77598e-10
-8.31562e-17
-2.77598e-10
-1.35381e-16
-2.77598e-10
-2.77597e-10
1.28619e-16
-2.77597e-10
8.09898e-17
-2.77598e-10
-7.99883e-17
-2.77598e-10
-1.3013e-16
-2.77598e-10
-2.77597e-10
1.23561e-16
-2.77598e-10
7.78812e-17
-2.77598e-10
-7.68362e-17
-2.77598e-10
-1.2499e-16
-2.77598e-10
-2.77598e-10
1.18597e-16
-2.77598e-10
7.48093e-17
-2.77598e-10
-7.37218e-17
-2.77597e-10
-1.19944e-16
-2.77598e-10
-2.77598e-10
1.13702e-16
-2.77598e-10
7.17799e-17
-2.77598e-10
-7.06508e-17
-2.77597e-10
-1.14969e-16
-2.77598e-10
-2.77598e-10
1.08873e-16
-2.77598e-10
6.87926e-17
-2.77597e-10
-6.7623e-17
-2.77597e-10
-1.1006e-16
-2.77597e-10
-2.77598e-10
1.04113e-16
-2.77598e-10
6.58474e-17
-2.77597e-10
-6.46383e-17
-2.77597e-10
-1.05221e-16
-2.77597e-10
-2.77598e-10
9.94275e-17
-2.77598e-10
6.29454e-17
-2.77597e-10
-6.16982e-17
-2.77597e-10
-1.00457e-16
-2.77597e-10
-2.77598e-10
9.48181e-17
-2.77598e-10
6.00883e-17
-2.77597e-10
-5.8804e-17
-2.77597e-10
-9.577e-17
-2.77597e-10
-2.77598e-10
9.02869e-17
-2.77598e-10
5.72774e-17
-2.77597e-10
-5.59574e-17
-2.77597e-10
-9.11623e-17
-2.77597e-10
-2.77598e-10
8.58358e-17
-2.77598e-10
5.45141e-17
-2.77597e-10
-5.31597e-17
-2.77597e-10
-8.66358e-17
-2.77597e-10
-2.77598e-10
8.14668e-17
-2.77598e-10
5.17996e-17
-2.77597e-10
-5.04123e-17
-2.77597e-10
-8.21924e-17
-2.77597e-10
-2.77598e-10
7.71817e-17
-2.77599e-10
4.91352e-17
-2.77597e-10
-4.77163e-17
-2.77596e-10
-7.78341e-17
-2.77597e-10
-2.77599e-10
7.29822e-17
-2.77599e-10
4.6522e-17
-2.77597e-10
-4.5073e-17
-2.77596e-10
-7.35626e-17
-2.77597e-10
-2.77599e-10
6.88702e-17
-2.77599e-10
4.3961e-17
-2.77597e-10
-4.24836e-17
-2.77596e-10
-6.93798e-17
-2.77597e-10
-2.77599e-10
6.4847e-17
-2.77599e-10
4.14535e-17
-2.77597e-10
-3.99492e-17
-2.77596e-10
-6.52872e-17
-2.77597e-10
-2.77599e-10
6.09144e-17
-2.77599e-10
3.90003e-17
-2.77597e-10
-3.74708e-17
-2.77596e-10
-6.12864e-17
-2.77597e-10
-2.77599e-10
5.70736e-17
-2.77599e-10
3.66025e-17
-2.77597e-10
-3.50495e-17
-2.77596e-10
-5.73789e-17
-2.77597e-10
-2.77599e-10
5.3326e-17
-2.77599e-10
3.42609e-17
-2.77597e-10
-3.2686e-17
-2.77596e-10
-5.35661e-17
-2.77597e-10
-2.77599e-10
4.96729e-17
-2.77599e-10
3.19763e-17
-2.77597e-10
-3.03814e-17
-2.77596e-10
-4.98491e-17
-2.77597e-10
-2.77599e-10
4.61152e-17
-2.77599e-10
2.97496e-17
-2.77597e-10
-2.81364e-17
-2.77596e-10
-4.62293e-17
-2.77597e-10
-2.77599e-10
4.26541e-17
-2.77599e-10
2.75813e-17
-2.77597e-10
-2.59518e-17
-2.77596e-10
-4.27076e-17
-2.77597e-10
-2.77599e-10
3.92904e-17
-2.77599e-10
2.54723e-17
-2.77597e-10
-2.38282e-17
-2.77596e-10
-3.9285e-17
-2.77597e-10
-2.77599e-10
3.6025e-17
-2.77599e-10
2.34229e-17
-2.77597e-10
-2.17662e-17
-2.77596e-10
-3.59623e-17
-2.77597e-10
-2.77599e-10
3.28584e-17
-2.77599e-10
2.14339e-17
-2.77597e-10
-1.97664e-17
-2.77596e-10
-3.27403e-17
-2.77597e-10
-2.77599e-10
2.97914e-17
-2.77599e-10
1.95055e-17
-2.77597e-10
-1.78291e-17
-2.77596e-10
-2.96196e-17
-2.77597e-10
-2.77599e-10
2.68244e-17
-2.77599e-10
1.76382e-17
-2.77597e-10
-1.59549e-17
-2.77596e-10
-2.66007e-17
-2.77597e-10
-2.77599e-10
2.39578e-17
-2.77599e-10
1.58322e-17
-2.77597e-10
-1.4144e-17
-2.77596e-10
-2.36841e-17
-2.77597e-10
-2.77599e-10
2.11917e-17
-2.77599e-10
1.40879e-17
-2.77597e-10
-1.23966e-17
-2.77596e-10
-2.08699e-17
-2.77597e-10
-2.77599e-10
1.85264e-17
-2.77599e-10
1.24054e-17
-2.77597e-10
-1.07128e-17
-2.77595e-10
-1.81583e-17
-2.77597e-10
-2.77599e-10
1.59618e-17
-2.77599e-10
1.07847e-17
-2.77597e-10
-9.09292e-18
-2.77595e-10
-1.55494e-17
-2.77597e-10
-2.77599e-10
1.34979e-17
-2.77599e-10
9.22587e-18
-2.77597e-10
-7.53677e-18
-2.77595e-10
-1.30432e-17
-2.77597e-10
-2.77599e-10
1.11344e-17
-2.77599e-10
7.7289e-18
-2.77597e-10
-6.04433e-18
-2.77595e-10
-1.06394e-17
-2.77597e-10
-2.77599e-10
8.871e-18
-2.77599e-10
6.29364e-18
-2.77597e-10
-4.61545e-18
-2.77595e-10
-8.33766e-18
-2.77597e-10
-2.77599e-10
6.70726e-18
-2.77599e-10
4.91989e-18
-2.77597e-10
-3.24989e-18
-2.77595e-10
-6.1376e-18
-2.77597e-10
-2.77599e-10
4.6426e-18
-2.77599e-10
3.60737e-18
-2.77597e-10
-1.94733e-18
-2.77595e-10
-4.03865e-18
-2.77597e-10
-2.77599e-10
2.67633e-18
-2.77599e-10
2.35573e-18
-2.77597e-10
-7.07388e-19
-2.77595e-10
-2.04011e-18
-2.77597e-10
-2.77599e-10
8.07661e-19
-2.77599e-10
1.16456e-18
-2.77597e-10
4.70414e-19
-2.77595e-10
-1.41199e-19
-2.77597e-10
-2.77599e-10
-9.64348e-19
-2.77599e-10
3.33391e-20
-2.77597e-10
1.58663e-18
-2.77595e-10
1.65903e-18
-2.77597e-10
-2.77599e-10
-2.64074e-18
-2.77599e-10
-1.03849e-18
-2.77597e-10
2.6419e-18
-2.77595e-10
3.36163e-18
-2.77597e-10
-2.77599e-10
-4.22267e-18
-2.77599e-10
-2.05159e-18
-2.77597e-10
3.63695e-18
-2.77595e-10
4.96777e-18
-2.77597e-10
-2.77599e-10
-5.71144e-18
-2.77599e-10
-3.00667e-18
-2.77597e-10
4.57258e-18
-2.77595e-10
6.47876e-18
-2.77597e-10
-2.77599e-10
-7.10844e-18
-2.77599e-10
-3.90456e-18
-2.77597e-10
5.44966e-18
-2.77595e-10
7.89603e-18
-2.77597e-10
-2.77599e-10
-8.41521e-18
-2.77599e-10
-4.74612e-18
-2.77597e-10
6.26918e-18
-2.77595e-10
9.22113e-18
-2.77597e-10
-2.77599e-10
-9.63338e-18
-2.77599e-10
-5.53231e-18
-2.77597e-10
7.03218e-18
-2.77595e-10
1.04558e-17
-2.77597e-10
-2.77599e-10
-1.07647e-17
-2.77599e-10
-6.26417e-18
-2.77597e-10
7.73981e-18
-2.77595e-10
1.16017e-17
-2.77597e-10
-2.77599e-10
-1.18112e-17
-2.77599e-10
-6.94282e-18
-2.77597e-10
8.39327e-18
-2.77595e-10
1.26609e-17
-2.77597e-10
-2.77599e-10
-1.27747e-17
-2.77599e-10
-7.56946e-18
-2.77597e-10
8.99389e-18
-2.77596e-10
1.36355e-17
-2.77597e-10
-2.77599e-10
-1.36575e-17
-2.77599e-10
-8.14535e-18
-2.77597e-10
9.54305e-18
-2.77596e-10
1.45275e-17
-2.77597e-10
-2.77599e-10
-1.44618e-17
-2.77599e-10
-8.67187e-18
-2.77597e-10
1.00422e-17
-2.77596e-10
1.53395e-17
-2.77597e-10
-2.77599e-10
-1.51901e-17
-2.77599e-10
-9.15044e-18
-2.77597e-10
1.0493e-17
-2.77596e-10
1.60738e-17
-2.77597e-10
-2.77599e-10
-1.58448e-17
-2.77599e-10
-9.58261e-18
-2.77597e-10
1.08971e-17
-2.77596e-10
1.67331e-17
-2.77597e-10
-2.77599e-10
-1.64287e-17
-2.77599e-10
-9.96999e-18
-2.77597e-10
1.12561e-17
-2.77596e-10
1.732e-17
-2.77597e-10
-2.77599e-10
-1.69445e-17
-2.77599e-10
-1.03143e-17
-2.77597e-10
1.15721e-17
-2.77596e-10
1.78376e-17
-2.77597e-10
-2.77599e-10
-1.73953e-17
-2.77599e-10
-1.06173e-17
-2.77597e-10
1.18468e-17
-2.77596e-10
1.82889e-17
-2.77597e-10
-2.77599e-10
-1.77841e-17
-2.77599e-10
-1.0881e-17
-2.77597e-10
1.20824e-17
-2.77596e-10
1.86771e-17
-2.77597e-10
-2.77599e-10
-1.81142e-17
-2.77599e-10
-1.11072e-17
-2.77597e-10
1.22811e-17
-2.77596e-10
1.90055e-17
-2.77597e-10
-2.77599e-10
-1.83892e-17
-2.77599e-10
-1.12982e-17
-2.77597e-10
1.2445e-17
-2.77596e-10
1.92778e-17
-2.77597e-10
-2.77599e-10
-1.86125e-17
-2.77599e-10
-1.14562e-17
-2.77597e-10
1.25766e-17
-2.77596e-10
1.94976e-17
-2.77597e-10
-2.77599e-10
-1.8788e-17
-2.77599e-10
-1.15835e-17
-2.77597e-10
1.26783e-17
-2.77596e-10
1.96689e-17
-2.77597e-10
-2.77599e-10
-1.89198e-17
-2.77599e-10
-1.16825e-17
-2.77597e-10
1.27528e-17
-2.77596e-10
1.97958e-17
-2.77597e-10
-2.77599e-10
-1.90119e-17
-2.77599e-10
-1.17559e-17
-2.77597e-10
1.28029e-17
-2.77596e-10
1.98827e-17
-2.77597e-10
-2.77599e-10
-1.90689e-17
-2.77599e-10
-1.18064e-17
-2.77597e-10
1.28315e-17
-2.77596e-10
1.99341e-17
-2.77597e-10
-2.77599e-10
-1.90955e-17
-2.77599e-10
-1.1837e-17
-2.77597e-10
1.28415e-17
-2.77596e-10
1.99549e-17
-2.77597e-10
-2.77599e-10
-1.90965e-17
-2.77599e-10
-1.18506e-17
-2.77597e-10
1.28363e-17
-2.77596e-10
1.99502e-17
-2.77597e-10
-2.77599e-10
-1.90772e-17
-2.77599e-10
-1.18505e-17
-2.77597e-10
1.28192e-17
-2.77596e-10
1.99253e-17
-2.77597e-10
-2.77599e-10
-1.90432e-17
-2.77599e-10
-1.18403e-17
-2.77597e-10
1.27939e-17
-2.77596e-10
1.9886e-17
-2.77597e-10
-2.77599e-10
-1.90004e-17
-2.77599e-10
-1.18235e-17
-2.77597e-10
1.27641e-17
-2.77596e-10
1.98383e-17
-2.77597e-10
-2.77599e-10
-1.8955e-17
-2.77599e-10
-1.1804e-17
-2.77597e-10
1.27339e-17
-2.77596e-10
1.97888e-17
-2.77597e-10
-2.77599e-10
-1.89137e-17
-2.77599e-10
-1.17861e-17
-2.77597e-10
1.27076e-17
-2.77596e-10
1.97442e-17
-2.77597e-10
-2.77599e-10
-1.88835e-17
-2.77599e-10
-1.17741e-17
-2.77597e-10
1.26897e-17
-2.77596e-10
1.97119e-17
-2.77597e-10
-2.77599e-10
-1.88722e-17
-2.77599e-10
-1.17728e-17
-2.77597e-10
1.26851e-17
-2.77596e-10
1.96997e-17
-2.77597e-10
-2.77599e-10
-1.88875e-17
-2.77599e-10
-1.17871e-17
-2.77597e-10
1.26987e-17
-2.77596e-10
1.97157e-17
-2.77597e-10
-2.77599e-10
-1.89386e-17
-2.77599e-10
-1.18226e-17
-2.77597e-10
1.27364e-17
-2.77596e-10
1.97692e-17
-2.77597e-10
-2.77599e-10
-1.90376e-17
-2.77599e-10
-1.18871e-17
-2.77597e-10
1.28058e-17
-2.77596e-10
1.98727e-17
-2.77597e-10
-2.77599e-10
-1.92057e-17
-1.1994e-17
1.29198e-17
2.00485e-17
)
;

boundaryField
{
    BotWall
    {
        type            calculated;
        value           nonuniform List<scalar> 5(-1.46914e-22 -1.97322e-22 -3.32076e-22 -2.70611e-22 -2.69847e-22);
    }
    FreeStream
    {
        type            calculated;
        value           nonuniform List<scalar> 5(-2.77599e-10 -2.77597e-10 -2.77596e-10 -2.77597e-10 -2.77599e-10);
    }
    FrontNBack
    {
        type            empty;
        value           nonuniform 0();
    }
    LeftSide
    {
        type            symmetryPlane;
        value           uniform 0;
    }
    RightSide
    {
        type            symmetryPlane;
        value           uniform 0;
    }
}


// ************************************************************************* //
