/*--------------------------------*- C++ -*----------------------------------*\
| =========                 |                                                 |
| \\      /  F ield         | OpenFOAM: The Open Source CFD Toolbox           |
|  \\    /   O peration     | Version:  2.4.0                                 |
|   \\  /    A nd           | Web:      www.OpenFOAM.org                      |
|    \\/     M anipulation  |                                                 |
\*---------------------------------------------------------------------------*/
FoamFile
{
    version     2.0;
    format      ascii;
    class       volVectorField;
    location    "2.5";
    object      U;
}
// * * * * * * * * * * * * * * * * * * * * * * * * * * * * * * * * * * * * * //

dimensions      [0 1 -1 0 0 0 0];

internalField   nonuniform List<vector> 
500
(
(7.75526e-10 -2.25947e-10 0)
(1.30403e-09 -2.26563e-10 0)
(9.49064e-12 -2.24205e-10 0)
(-1.31272e-09 -2.26522e-10 0)
(-7.93173e-10 -2.25986e-10 0)
(2.36473e-09 5.47752e-10 0)
(3.97234e-09 5.98724e-10 0)
(2.87788e-11 6.25033e-10 0)
(-3.99873e-09 5.99248e-10 0)
(-2.41829e-09 5.47396e-10 0)
(4.00479e-09 -1.03982e-09 0)
(6.72013e-09 -9.37795e-10 0)
(4.82992e-11 -8.59288e-10 0)
(-6.76506e-09 -9.36268e-10 0)
(-4.09533e-09 -1.04093e-09 0)
(5.69513e-09 1.25391e-09 0)
(9.548e-09 1.52317e-09 0)
(6.81945e-11 1.68213e-09 0)
(-9.61237e-09 1.52629e-09 0)
(-5.82394e-09 1.25168e-09 0)
(7.44129e-09 -2.20367e-09 0)
(1.24625e-08 -1.82015e-09 0)
(8.85123e-11 -1.5495e-09 0)
(-1.2547e-08 -1.81487e-09 0)
(-7.6094e-09 -2.20751e-09 0)
(9.24155e-09 8.31891e-10 0)
(1.54634e-08 1.50522e-09 0)
(1.09295e-10 1.91718e-09 0)
(-1.55685e-08 1.51327e-09 0)
(-9.44999e-09 8.2605e-10 0)
(1.11034e-08 -5.08771e-09 0)
(1.85594e-08 -4.22784e-09 0)
(1.30563e-10 -3.63966e-09 0)
(-1.86857e-08 -4.21639e-09 0)
(-1.13533e-08 -5.09608e-09 0)
(1.30238e-08 5.2971e-09 0)
(2.17487e-08 6.58803e-09 0)
(1.52356e-10 7.38552e-09 0)
(-2.1897e-08 6.60357e-09 0)
(-1.33165e-08 5.28575e-09 0)
(1.50117e-08 1.9329e-08 0)
(2.50416e-08 2.09029e-08 0)
(1.74726e-10 2.19516e-08 0)
(-2.52126e-08 2.09233e-08 0)
(-1.53484e-08 1.9314e-08 0)
(1.70635e-08 4.78568e-08 0)
(2.84361e-08 4.99857e-08 0)
(1.97692e-10 5.13234e-08 0)
(-2.86306e-08 5.00117e-08 0)
(-1.74458e-08 4.78376e-08 0)
(1.91885e-08 -8.71167e-08 0)
(3.19429e-08 -8.47724e-08 0)
(2.21277e-10 -8.31197e-08 0)
(-3.21617e-08 -8.47404e-08 0)
(-1.96179e-08 -8.71403e-08 0)
(2.13815e-08 -6.3157e-07 0)
(3.55581e-08 -6.28809e-07 0)
(2.45522e-10 -6.26878e-07 0)
(-3.58021e-08 -6.28772e-07 0)
(-2.18595e-08 -6.31597e-07 0)
(2.3652e-08 -1.1783e-06 0)
(3.92919e-08 -1.17486e-06 0)
(2.70452e-10 -1.17268e-06 0)
(-3.9562e-08 -1.17482e-06 0)
(-2.41803e-08 -1.17833e-06 0)
(2.60056e-08 2.15182e-06 0)
(4.31515e-08 2.15886e-06 0)
(2.96105e-10 2.16183e-06 0)
(-4.34487e-08 2.15892e-06 0)
(-2.6586e-08 2.15177e-06 0)
(2.84841e-08 1.66167e-05 0)
(4.71881e-08 1.66301e-05 0)
(3.22662e-10 1.66358e-05 0)
(-4.75135e-08 1.66302e-05 0)
(-2.91187e-08 1.66167e-05 0)
(3.10967e-08 3.04736e-05 0)
(5.14146e-08 3.04878e-05 0)
(3.50447e-10 3.04987e-05 0)
(-5.17698e-08 3.0488e-05 0)
(-3.17885e-08 3.04734e-05 0)
(3.37644e-08 -5.85165e-05 0)
(5.58352e-08 -5.85475e-05 0)
(3.80397e-10 -5.85491e-05 0)
(-5.62229e-08 -5.85475e-05 0)
(-3.45183e-08 -5.85165e-05 0)
(3.59001e-08 -0.000428282 0)
(5.95778e-08 -0.000428344 0)
(4.08082e-10 -0.000428369 0)
(-5.99953e-08 -0.000428345 0)
(-3.67113e-08 -0.000428282 0)
(3.64176e-08 -0.00100651 0)
(6.03029e-08 -0.00100647 0)
(4.11648e-10 -0.00100647 0)
(-6.07243e-08 -0.00100647 0)
(-3.72364e-08 -0.00100651 0)
(3.63062e-08 -0.00232237 0)
(5.95075e-08 -0.00232232 0)
(4.13628e-10 -0.0023223 0)
(-5.99052e-08 -0.00232232 0)
(-3.71011e-08 -0.00232237 0)
(3.41569e-08 -0.00144366 0)
(5.63607e-08 -0.00144371 0)
(4.10475e-10 -0.00144372 0)
(-5.67291e-08 -0.00144371 0)
(-3.49176e-08 -0.00144366 0)
(3.23996e-08 -0.00134148 0)
(5.36267e-08 -0.0013415 0)
(4.07087e-10 -0.0013415 0)
(-5.39665e-08 -0.0013415 0)
(-3.31265e-08 -0.00134148 0)
(3.09279e-08 -0.00136011 0)
(5.12175e-08 -0.00136011 0)
(4.03888e-10 -0.00136012 0)
(-5.15296e-08 -0.00136011 0)
(-3.16223e-08 -0.00136011 0)
(2.95147e-08 -0.00138489 0)
(4.88977e-08 -0.00138489 0)
(4.00718e-10 -0.00138489 0)
(-4.91831e-08 -0.00138489 0)
(-3.01778e-08 -0.00138489 0)
(2.80979e-08 -0.00139011 0)
(4.65974e-08 -0.00139011 0)
(3.9744e-10 -0.00139011 0)
(-4.68566e-08 -0.00139011 0)
(-2.87303e-08 -0.00139011 0)
(2.67046e-08 -0.0013891 0)
(4.43421e-08 -0.0013891 0)
(3.94031e-10 -0.0013891 0)
(-4.45759e-08 -0.0013891 0)
(-2.7307e-08 -0.0013891 0)
(2.53539e-08 -0.00138811 0)
(4.21517e-08 -0.00138812 0)
(3.90496e-10 -0.00138812 0)
(-4.23608e-08 -0.00138812 0)
(-2.59271e-08 -0.00138811 0)
(2.40477e-08 -0.0013879 0)
(4.00282e-08 -0.0013879 0)
(3.86836e-10 -0.0013879 0)
(-4.02132e-08 -0.0013879 0)
(-2.45924e-08 -0.0013879 0)
(2.27832e-08 -0.00138794 0)
(3.79685e-08 -0.00138794 0)
(3.83052e-10 -0.00138794 0)
(-3.81303e-08 -0.00138794 0)
(-2.33e-08 -0.00138794 0)
(2.15585e-08 -0.00138798 0)
(3.5971e-08 -0.00138798 0)
(3.79141e-10 -0.00138798 0)
(-3.61101e-08 -0.00138798 0)
(-2.20482e-08 -0.00138798 0)
(2.03731e-08 -0.00138799 0)
(3.40348e-08 -0.00138799 0)
(3.75101e-10 -0.00138799 0)
(-3.41521e-08 -0.00138799 0)
(-2.08365e-08 -0.00138799 0)
(1.92268e-08 -0.00138799 0)
(3.21596e-08 -0.00138799 0)
(3.70932e-10 -0.00138799 0)
(-3.22558e-08 -0.00138799 0)
(-1.96644e-08 -0.00138799 0)
(1.8119e-08 -0.00138799 0)
(3.03448e-08 -0.00138799 0)
(3.66632e-10 -0.00138798 0)
(-3.04205e-08 -0.00138799 0)
(-1.85316e-08 -0.00138799 0)
(1.70492e-08 -0.00138799 0)
(2.85896e-08 -0.00138799 0)
(3.62201e-10 -0.00138798 0)
(-2.86457e-08 -0.00138799 0)
(-1.74375e-08 -0.00138799 0)
(1.60169e-08 -0.00138799 0)
(2.68935e-08 -0.00138799 0)
(3.57639e-10 -0.00138798 0)
(-2.69306e-08 -0.00138799 0)
(-1.63816e-08 -0.00138799 0)
(1.50216e-08 -0.00138799 0)
(2.52557e-08 -0.00138799 0)
(3.52946e-10 -0.00138798 0)
(-2.52745e-08 -0.00138799 0)
(-1.53634e-08 -0.00138799 0)
(1.40627e-08 -0.00138799 0)
(2.36753e-08 -0.00138799 0)
(3.48125e-10 -0.00138798 0)
(-2.36767e-08 -0.00138799 0)
(-1.43822e-08 -0.00138799 0)
(1.31396e-08 -0.00138799 0)
(2.21517e-08 -0.00138799 0)
(3.43174e-10 -0.00138798 0)
(-2.21363e-08 -0.00138799 0)
(-1.34376e-08 -0.00138799 0)
(1.22517e-08 -0.00138799 0)
(2.06841e-08 -0.00138799 0)
(3.38097e-10 -0.00138798 0)
(-2.06526e-08 -0.00138799 0)
(-1.25288e-08 -0.00138799 0)
(1.13984e-08 -0.00138799 0)
(1.92716e-08 -0.00138799 0)
(3.32896e-10 -0.00138798 0)
(-1.92248e-08 -0.00138799 0)
(-1.16553e-08 -0.00138799 0)
(1.05792e-08 -0.00138799 0)
(1.79134e-08 -0.00138799 0)
(3.27572e-10 -0.00138798 0)
(-1.7852e-08 -0.00138799 0)
(-1.08165e-08 -0.00138799 0)
(9.79332e-09 -0.00138799 0)
(1.66086e-08 -0.00138799 0)
(3.22129e-10 -0.00138798 0)
(-1.65333e-08 -0.00138799 0)
(-1.00118e-08 -0.00138799 0)
(9.04024e-09 -0.00138799 0)
(1.53563e-08 -0.00138799 0)
(3.16571e-10 -0.00138798 0)
(-1.52678e-08 -0.00138799 0)
(-9.24052e-09 -0.00138799 0)
(8.3193e-09 -0.00138799 0)
(1.41556e-08 -0.00138799 0)
(3.10899e-10 -0.00138798 0)
(-1.40547e-08 -0.00138799 0)
(-8.50201e-09 -0.00138799 0)
(7.62984e-09 -0.00138799 0)
(1.30056e-08 -0.00138799 0)
(3.0512e-10 -0.00138798 0)
(-1.28929e-08 -0.00138799 0)
(-7.79562e-09 -0.001388 0)
(6.97121e-09 -0.001388 0)
(1.19054e-08 -0.00138799 0)
(2.99238e-10 -0.00138798 0)
(-1.17816e-08 -0.00138799 0)
(-7.12069e-09 -0.001388 0)
(6.34273e-09 -0.001388 0)
(1.08539e-08 -0.00138799 0)
(2.93257e-10 -0.00138798 0)
(-1.07198e-08 -0.00138799 0)
(-6.47656e-09 -0.001388 0)
(5.74375e-09 -0.001388 0)
(9.85024e-09 -0.00138799 0)
(2.87183e-10 -0.00138798 0)
(-9.70641e-09 -0.00138799 0)
(-5.86254e-09 -0.001388 0)
(5.17358e-09 -0.001388 0)
(8.89336e-09 -0.00138799 0)
(2.81021e-10 -0.00138798 0)
(-8.74051e-09 -0.00138798 0)
(-5.27796e-09 -0.001388 0)
(4.63154e-09 -0.001388 0)
(7.98228e-09 -0.00138799 0)
(2.74778e-10 -0.00138798 0)
(-7.82106e-09 -0.00138798 0)
(-4.72212e-09 -0.001388 0)
(4.11695e-09 -0.001388 0)
(7.11595e-09 -0.00138799 0)
(2.68461e-10 -0.00138798 0)
(-6.94702e-09 -0.00138798 0)
(-4.19432e-09 -0.001388 0)
(3.62911e-09 -0.001388 0)
(6.29335e-09 -0.00138799 0)
(2.62076e-10 -0.00138798 0)
(-6.11735e-09 -0.00138798 0)
(-3.69388e-09 -0.001388 0)
(3.16732e-09 -0.001388 0)
(5.51343e-09 -0.00138799 0)
(2.55631e-10 -0.00138798 0)
(-5.33099e-09 -0.00138798 0)
(-3.22007e-09 -0.001388 0)
(2.73089e-09 -0.001388 0)
(4.77512e-09 -0.00138798 0)
(2.49133e-10 -0.00138798 0)
(-4.58686e-09 -0.00138798 0)
(-2.7722e-09 -0.001388 0)
(2.31911e-09 -0.001388 0)
(4.07737e-09 -0.00138798 0)
(2.4259e-10 -0.00138798 0)
(-3.88388e-09 -0.00138798 0)
(-2.34956e-09 -0.001388 0)
(1.93129e-09 -0.001388 0)
(3.41908e-09 -0.00138798 0)
(2.3601e-10 -0.00138798 0)
(-3.22096e-09 -0.00138798 0)
(-1.95143e-09 -0.001388 0)
(1.56671e-09 -0.001388 0)
(2.79918e-09 -0.00138798 0)
(2.29403e-10 -0.00138798 0)
(-2.59701e-09 -0.00138798 0)
(-1.5771e-09 -0.001388 0)
(1.22468e-09 -0.001388 0)
(2.21658e-09 -0.00138798 0)
(2.22777e-10 -0.00138798 0)
(-2.0109e-09 -0.00138798 0)
(-1.22585e-09 -0.001388 0)
(9.04477e-10 -0.001388 0)
(1.67018e-09 -0.00138798 0)
(2.16141e-10 -0.00138798 0)
(-1.46154e-09 -0.00138798 0)
(-8.96973e-10 -0.001388 0)
(6.05411e-10 -0.001388 0)
(1.15889e-09 -0.00138798 0)
(2.09504e-10 -0.00138798 0)
(-9.47809e-10 -0.00138798 0)
(-5.89748e-10 -0.001388 0)
(3.26774e-10 -0.001388 0)
(6.81584e-10 -0.00138798 0)
(2.02877e-10 -0.00138798 0)
(-4.68578e-10 -0.00138798 0)
(-3.03464e-10 -0.001388 0)
(6.78633e-11 -0.001388 0)
(2.37173e-10 -0.00138798 0)
(1.96268e-10 -0.00138798 0)
(-2.27255e-11 -0.00138798 0)
(-3.74058e-11 -0.001388 0)
(-1.72021e-10 -0.001388 0)
(-1.75453e-10 -0.00138798 0)
(1.89688e-10 -0.00138798 0)
(3.90874e-10 -0.00138798 0)
(2.09137e-10 -0.001388 0)
(-3.93576e-10 -0.001388 0)
(-5.57403e-10 -0.00138798 0)
(1.83147e-10 -0.00138798 0)
(7.73348e-10 -0.00138798 0)
(4.36874e-10 -0.001388 0)
(-5.97496e-10 -0.001388 0)
(-9.09786e-10 -0.00138798 0)
(1.76655e-10 -0.00138798 0)
(1.12583e-09 -0.00138798 0)
(6.46512e-10 -0.001388 0)
(-7.84471e-10 -0.001388 0)
(-1.23371e-09 -0.00138798 0)
(1.70223e-10 -0.00138798 0)
(1.44943e-09 -0.00138798 0)
(8.38753e-10 -0.001388 0)
(-9.5519e-10 -0.001388 0)
(-1.53027e-09 -0.00138798 0)
(1.6386e-10 -0.00138798 0)
(1.7453e-09 -0.00138798 0)
(1.0143e-09 -0.001388 0)
(-1.11033e-09 -0.001388 0)
(-1.80058e-09 -0.00138798 0)
(1.57578e-10 -0.00138798 0)
(2.01454e-09 -0.00138798 0)
(1.17384e-09 -0.001388 0)
(-1.25058e-09 -0.001388 0)
(-2.04573e-09 -0.00138798 0)
(1.51387e-10 -0.00138798 0)
(2.25829e-09 -0.00138798 0)
(1.31808e-09 -0.001388 0)
(-1.3766e-09 -0.001388 0)
(-2.26682e-09 -0.00138798 0)
(1.45296e-10 -0.00138798 0)
(2.47765e-09 -0.00138798 0)
(1.44769e-09 -0.001388 0)
(-1.48907e-09 -0.001388 0)
(-2.46494e-09 -0.00138799 0)
(1.39317e-10 -0.00138798 0)
(2.67375e-09 -0.00138798 0)
(1.56336e-09 -0.001388 0)
(-1.58865e-09 -0.001388 0)
(-2.64118e-09 -0.00138799 0)
(1.3346e-10 -0.00138798 0)
(2.84769e-09 -0.00138798 0)
(1.66577e-09 -0.001388 0)
(-1.67599e-09 -0.001388 0)
(-2.7966e-09 -0.00138799 0)
(1.27734e-10 -0.00138798 0)
(3.00057e-09 -0.00138798 0)
(1.75559e-09 -0.001388 0)
(-1.75175e-09 -0.001388 0)
(-2.9323e-09 -0.00138799 0)
(1.22149e-10 -0.00138798 0)
(3.1335e-09 -0.00138798 0)
(1.83349e-09 -0.001388 0)
(-1.81657e-09 -0.001388 0)
(-3.04934e-09 -0.00138799 0)
(1.16715e-10 -0.00138798 0)
(3.24756e-09 -0.00138798 0)
(1.90012e-09 -0.001388 0)
(-1.87109e-09 -0.001388 0)
(-3.14877e-09 -0.00138799 0)
(1.11442e-10 -0.00138798 0)
(3.34385e-09 -0.00138798 0)
(1.95615e-09 -0.001388 0)
(-1.91596e-09 -0.001388 0)
(-3.23166e-09 -0.00138799 0)
(1.06339e-10 -0.00138798 0)
(3.42344e-09 -0.00138798 0)
(2.00223e-09 -0.001388 0)
(-1.95179e-09 -0.001388 0)
(-3.29905e-09 -0.00138799 0)
(1.01413e-10 -0.00138798 0)
(3.4874e-09 -0.00138798 0)
(2.03899e-09 -0.001388 0)
(-1.97922e-09 -0.001388 0)
(-3.352e-09 -0.00138799 0)
(9.66746e-11 -0.00138798 0)
(3.53682e-09 -0.00138798 0)
(2.06709e-09 -0.001388 0)
(-1.99886e-09 -0.001388 0)
(-3.39153e-09 -0.00138799 0)
(9.21304e-11 -0.00138798 0)
(3.57274e-09 -0.00138798 0)
(2.08716e-09 -0.001388 0)
(-2.01132e-09 -0.001388 0)
(-3.41869e-09 -0.00138799 0)
(8.7788e-11 -0.00138798 0)
(3.59624e-09 -0.00138798 0)
(2.09984e-09 -0.001388 0)
(-2.01723e-09 -0.001388 0)
(-3.43449e-09 -0.00138799 0)
(8.36545e-11 -0.00138798 0)
(3.60836e-09 -0.00138798 0)
(2.10574e-09 -0.001388 0)
(-2.01719e-09 -0.001388 0)
(-3.43998e-09 -0.00138799 0)
(7.9736e-11 -0.00138798 0)
(3.61015e-09 -0.00138799 0)
(2.10551e-09 -0.001388 0)
(-2.01181e-09 -0.001388 0)
(-3.43616e-09 -0.00138799 0)
(7.60384e-11 -0.00138798 0)
(3.60265e-09 -0.00138799 0)
(2.09976e-09 -0.001388 0)
(-2.00168e-09 -0.001388 0)
(-3.42406e-09 -0.00138799 0)
(7.25666e-11 -0.00138798 0)
(3.58693e-09 -0.00138799 0)
(2.08912e-09 -0.001388 0)
(-1.98742e-09 -0.001388 0)
(-3.40471e-09 -0.00138799 0)
(6.93248e-11 -0.00138798 0)
(3.56401e-09 -0.00138799 0)
(2.0742e-09 -0.001388 0)
(-1.96962e-09 -0.001388 0)
(-3.37911e-09 -0.00138799 0)
(6.63165e-11 -0.00138798 0)
(3.53494e-09 -0.00138799 0)
(2.05564e-09 -0.001388 0)
(-1.9489e-09 -0.001388 0)
(-3.3483e-09 -0.00138799 0)
(6.35444e-11 -0.00138798 0)
(3.50077e-09 -0.00138799 0)
(2.03405e-09 -0.00138799 0)
(-1.92586e-09 -0.00138799 0)
(-3.3133e-09 -0.00138799 0)
(6.101e-11 -0.00138798 0)
(3.46256e-09 -0.00138799 0)
(2.01007e-09 -0.00138799 0)
(-1.90111e-09 -0.00138799 0)
(-3.27516e-09 -0.00138799 0)
(5.8714e-11 -0.00138798 0)
(3.42135e-09 -0.00138799 0)
(1.98434e-09 -0.00138799 0)
(-1.87528e-09 -0.00138799 0)
(-3.23491e-09 -0.00138799 0)
(5.66561e-11 -0.00138798 0)
(3.37822e-09 -0.00138799 0)
(1.95748e-09 -0.00138799 0)
(-1.84899e-09 -0.00138799 0)
(-3.19362e-09 -0.00138799 0)
(5.48347e-11 -0.00138798 0)
(3.33425e-09 -0.00138799 0)
(1.93015e-09 -0.00138799 0)
(-1.82287e-09 -0.00138799 0)
(-3.15235e-09 -0.00138799 0)
(5.32472e-11 -0.00138798 0)
(3.29054e-09 -0.00138799 0)
(1.90302e-09 -0.00138799 0)
(-1.79759e-09 -0.00138799 0)
(-3.11221e-09 -0.00138799 0)
(5.18894e-11 -0.00138798 0)
(3.24819e-09 -0.00138799 0)
(1.87675e-09 -0.00138799 0)
(-1.77381e-09 -0.00138799 0)
(-3.07431e-09 -0.00138799 0)
(5.0756e-11 -0.00138798 0)
(3.20834e-09 -0.00138799 0)
(1.85205e-09 -0.00138799 0)
(-1.7522e-09 -0.00138799 0)
(-3.03978e-09 -0.00138799 0)
(4.984e-11 -0.00138798 0)
(3.17215e-09 -0.00138799 0)
(1.8296e-09 -0.00138799 0)
(-1.73349e-09 -0.00138799 0)
(-3.00981e-09 -0.00138799 0)
(4.9133e-11 -0.00138798 0)
(3.14082e-09 -0.00138799 0)
(1.81016e-09 -0.00138799 0)
(-1.71843e-09 -0.00138799 0)
(-2.98566e-09 -0.00138799 0)
(4.86244e-11 -0.00138798 0)
(3.11563e-09 -0.00138799 0)
(1.79452e-09 -0.00138799 0)
(-1.70795e-09 -0.00138799 0)
(-2.96885e-09 -0.00138799 0)
(4.83023e-11 -0.00138798 0)
(3.09812e-09 -0.00138799 0)
(1.78363e-09 -0.00138799 0)
(-1.7029e-09 -0.00138799 0)
(-2.96078e-09 -0.00138799 0)
(4.81512e-11 -0.00138798 0)
(3.08972e-09 -0.00138799 0)
(1.77838e-09 -0.00138799 0)
)
;

boundaryField
{
    BotWall
    {
        type            fixedValue;
        value           uniform (0 0 0);
    }
    FreeStream
    {
        type            zeroGradient;
    }
    FrontNBack
    {
        type            empty;
    }
    LeftSide
    {
        type            symmetryPlane;
    }
    RightSide
    {
        type            symmetryPlane;
    }
}


// ************************************************************************* //
