/*--------------------------------*- C++ -*----------------------------------*\
| =========                 |                                                 |
| \\      /  F ield         | OpenFOAM: The Open Source CFD Toolbox           |
|  \\    /   O peration     | Version:  2.4.0                                 |
|   \\  /    A nd           | Web:      www.OpenFOAM.org                      |
|    \\/     M anipulation  |                                                 |
\*---------------------------------------------------------------------------*/
FoamFile
{
    version     2.0;
    format      ascii;
    class       volScalarField;
    location    "0.012";
    object      p;
}
// * * * * * * * * * * * * * * * * * * * * * * * * * * * * * * * * * * * * * //

dimensions      [1 -1 -2 0 0 0 0];

internalField   nonuniform List<scalar> 
125
(
0.0601681
-0.0576736
0.311669
-1.78353
-0.200136
0.0512964
0.017347
-0.00651742
-0.0111452
-0.010076
-0.00934303
-0.00934339
-0.0095521
-0.00974741
-0.00991514
-0.0100757
-0.0102374
-0.0104007
-0.010565
-0.0107299
-0.0108953
-0.0110614
-0.011228
-0.0113952
-0.0115631
-0.0117316
-0.0119007
-0.0120704
-0.0122408
-0.0124118
-0.0125834
-0.0127556
-0.0129285
-0.013102
-0.0132762
-0.013451
-0.0136264
-0.0138025
-0.0139792
-0.0141566
-0.0143346
-0.0145133
-0.0146927
-0.0148727
-0.0150534
-0.0152347
-0.0154167
-0.0155994
-0.0157827
-0.0159667
-0.061581
-0.0619337
-0.0622876
-0.0626428
-0.0629993
-0.0633572
-0.0637163
-0.0640768
-0.0644386
-0.0648018
-0.0651663
-0.0655321
-0.0658992
-0.0662678
-0.0666376
-0.0670089
-0.0673815
-0.0677555
-0.0681308
-0.0685076
-0.0688857
-0.0692652
-0.0696461
-0.0700284
-0.0704121
-0.0707973
-0.0711838
-0.0715718
-0.0719612
-0.072352
-0.0727443
-0.073138
-0.0735332
-0.0739298
-0.0743279
-0.0747275
-0.0751285
-0.075531
-0.0759349
-0.0763404
-0.0767474
-0.0771558
-0.0775658
-0.0779773
-0.0783902
-0.0788047
-0.0792208
-0.0796383
-0.0800574
-0.0804781
-0.0809003
-0.081324
-0.0817493
-0.0821762
-0.0826046
-0.0830346
-0.0834662
-0.0838994
-0.0843342
-0.0847706
-0.0852086
-0.0856482
-0.0860894
-0.0865323
-0.0869768
-0.0874229
-0.0878706
-0.08832
-0.0887711
-0.0892238
-0.0896782
-0.0901343
-0.090592
-0.0910514
-0.0915124
)
;

boundaryField
{
    BotWall
    {
        type            calculated;
        value           uniform 0.0651115;
    }
    FreeStream
    {
        type            calculated;
        value           uniform -0.0917432;
    }
    FrontNBack
    {
        type            empty;
    }
    LeftSide
    {
        type            symmetryPlane;
    }
    RightSide
    {
        type            symmetryPlane;
    }
    procBoundary2to0
    {
        type            processor;
        value           nonuniform List<scalar> 
75
(
-0.061581
-0.0619336
-0.0622875
-0.0626427
-0.0629992
-0.063357
-0.0637162
-0.0640766
-0.0644384
-0.0648015
-0.065166
-0.0655318
-0.0658989
-0.0662674
-0.0666373
-0.0670085
-0.0673811
-0.0677551
-0.0681304
-0.0685071
-0.0688852
-0.0692647
-0.0696456
-0.0700279
-0.0704116
-0.0707967
-0.0711832
-0.0715712
-0.0719606
-0.0723514
-0.0727436
-0.0731373
-0.0735325
-0.0739291
-0.0743271
-0.0747267
-0.0751277
-0.0755301
-0.0759341
-0.0763395
-0.0767465
-0.0771549
-0.0775648
-0.0779763
-0.0783892
-0.0788037
-0.0792197
-0.0796373
-0.0800563
-0.0804769
-0.0808991
-0.0813228
-0.0817481
-0.0821749
-0.0826034
-0.0830334
-0.0834649
-0.0838981
-0.0843328
-0.0847692
-0.0852072
-0.0856467
-0.0860879
-0.0865308
-0.0869752
-0.0874213
-0.087869
-0.0883184
-0.0887694
-0.0892221
-0.0896765
-0.0901325
-0.0905902
-0.0910496
-0.0915106
)
;
    }
    procBoundary2to1
    {
        type            processor;
        value           uniform -0.0161514;
    }
    procBoundary2to3
    {
        type            processor;
        value           uniform -0.0612297;
    }
    procBoundary2to4
    {
        type            processor;
        value           nonuniform List<scalar> 
75
(
0.0618108
-0.0566174
0.315546
-1.80165
-0.201508
0.0516627
0.0174757
-0.00650975
-0.011155
-0.0100777
-0.00934028
-0.00934006
-0.00954909
-0.00974457
-0.00991233
-0.0100728
-0.0102345
-0.0103979
-0.0105622
-0.0107271
-0.0108925
-0.0110585
-0.0112252
-0.0113924
-0.0115603
-0.0117288
-0.0118979
-0.0120676
-0.012238
-0.012409
-0.0125806
-0.0127528
-0.0129257
-0.0130992
-0.0132734
-0.0134482
-0.0136236
-0.0137997
-0.0139764
-0.0141538
-0.0143318
-0.0145105
-0.0146899
-0.0148699
-0.0150506
-0.0152319
-0.0154139
-0.0155966
-0.0157799
-0.0159639
-0.0809005
-0.0813242
-0.0817495
-0.0821764
-0.0826048
-0.0830348
-0.0834664
-0.0838996
-0.0843344
-0.0847707
-0.0852087
-0.0856483
-0.0860895
-0.0865324
-0.0869769
-0.087423
-0.0878707
-0.0883201
-0.0887712
-0.0892239
-0.0896783
-0.0901343
-0.0905921
-0.0910515
-0.0915124
)
;
    }
    procBoundary2to5
    {
        type            processor;
        value           nonuniform List<scalar> 
50
(
-0.0615815
-0.0619341
-0.0622881
-0.0626433
-0.0629998
-0.0633576
-0.0637168
-0.0640773
-0.0644391
-0.0648022
-0.0651667
-0.0655325
-0.0658997
-0.0662682
-0.0666381
-0.0670093
-0.0673819
-0.0677559
-0.0681312
-0.0685079
-0.068886
-0.0692656
-0.0696465
-0.0700288
-0.0704125
-0.0707976
-0.0711842
-0.0715721
-0.0719615
-0.0723523
-0.0727446
-0.0731383
-0.0735335
-0.0739301
-0.0743282
-0.0747277
-0.0751287
-0.0755312
-0.0759352
-0.0763407
-0.0767476
-0.0771561
-0.077566
-0.0779775
-0.0783905
-0.078805
-0.079221
-0.0796385
-0.0800576
-0.0804783
)
;
    }
}


// ************************************************************************* //
