/*--------------------------------*- C++ -*----------------------------------*\
| =========                 |                                                 |
| \\      /  F ield         | OpenFOAM: The Open Source CFD Toolbox           |
|  \\    /   O peration     | Version:  2.4.0                                 |
|   \\  /    A nd           | Web:      www.OpenFOAM.org                      |
|    \\/     M anipulation  |                                                 |
\*---------------------------------------------------------------------------*/
FoamFile
{
    version     2.0;
    format      ascii;
    class       volScalarField;
    location    "0.012";
    object      p_rgh;
}
// * * * * * * * * * * * * * * * * * * * * * * * * * * * * * * * * * * * * * //

dimensions      [1 -1 -2 0 0 0 0];

internalField   nonuniform List<scalar> 
125
(
0.0651115
-0.0428252
0.336459
-1.75284
-0.199394
0.0522047
0.0184224
-0.00527433
-0.00973382
-0.00849564
-0.00759307
-0.00742322
-0.0074611
-0.00748495
-0.00748059
-0.00746838
-0.00745673
-0.00744612
-0.00743577
-0.00742535
-0.00741485
-0.0074043
-0.00739372
-0.00738309
-0.00737243
-0.00736173
-0.00735099
-0.00734021
-0.00732939
-0.00731854
-0.00730764
-0.0072967
-0.00728572
-0.0072747
-0.00726364
-0.00725254
-0.0072414
-0.00723022
-0.00721899
-0.00720773
-0.00719642
-0.00718508
-0.00717369
-0.00716226
-0.00715078
-0.00713927
-0.00712771
-0.0071161
-0.00710445
-0.00709275
-0.00419138
-0.00416899
-0.00414651
-0.00412395
-0.00410131
-0.00407858
-0.00405577
-0.00403288
-0.00400991
-0.00398685
-0.0039637
-0.00394047
-0.00391715
-0.00389375
-0.00387027
-0.00384669
-0.00382303
-0.00379928
-0.00377545
-0.00375153
-0.00372752
-0.00370342
-0.00367923
-0.00365496
-0.00363059
-0.00360614
-0.00358159
-0.00355696
-0.00353223
-0.00350741
-0.00348251
-0.00345751
-0.00343242
-0.00340723
-0.00338196
-0.00335659
-0.00333113
-0.00330557
-0.00327992
-0.00325418
-0.00322834
-0.0032024
-0.00317638
-0.00315025
-0.00312403
-0.00309771
-0.0030713
-0.00304479
-0.00301818
-0.00299148
-0.00296467
-0.00293777
-0.00291077
-0.00288367
-0.00285647
-0.00282917
-0.00280177
-0.00277427
-0.00274666
-0.00271896
-0.00269115
-0.00266325
-0.00263524
-0.00260712
-0.00257891
-0.00255059
-0.00252216
-0.00249364
-0.002465
-0.00243626
-0.00240742
-0.00237848
-0.00234943
-0.00232026
-0.00229083
)
;

boundaryField
{
    BotWall
    {
        type            fixedFluxPressure;
        gradient        uniform 0;
        value           uniform 0.0651115;
    }
    FreeStream
    {
        type            totalPressure;
        rho             rho;
        psi             none;
        gamma           1;
        p0              uniform 0;
        value           uniform -0.00227602;
    }
    FrontNBack
    {
        type            empty;
    }
    LeftSide
    {
        type            symmetryPlane;
    }
    RightSide
    {
        type            symmetryPlane;
    }
    procBoundary2to0
    {
        type            processor;
        value           nonuniform List<scalar> 
75
(
-0.0041913
-0.00416889
-0.00414639
-0.00412382
-0.00410116
-0.00407841
-0.00405559
-0.00403267
-0.00400968
-0.0039866
-0.00396343
-0.00394018
-0.00391685
-0.00389343
-0.00386992
-0.00384633
-0.00382265
-0.00379888
-0.00377502
-0.00375108
-0.00372705
-0.00370293
-0.00367872
-0.00365443
-0.00363004
-0.00360556
-0.003581
-0.00355634
-0.00353159
-0.00350676
-0.00348183
-0.0034568
-0.00343169
-0.00340649
-0.00338119
-0.0033558
-0.00333031
-0.00330473
-0.00327906
-0.00325329
-0.00322743
-0.00320147
-0.00317542
-0.00314927
-0.00312303
-0.00309669
-0.00307025
-0.00304371
-0.00301708
-0.00299035
-0.00296352
-0.00293659
-0.00290956
-0.00288244
-0.00285521
-0.00282788
-0.00280045
-0.00277292
-0.00274529
-0.00271756
-0.00268973
-0.00266179
-0.00263375
-0.00260561
-0.00257736
-0.00254901
-0.00252056
-0.002492
-0.00246334
-0.00243457
-0.00240569
-0.00237671
-0.00234762
-0.00231842
-0.00228904
)
;
    }
    procBoundary2to1
    {
        type            processor;
        value           uniform -0.007081;
    }
    procBoundary2to3
    {
        type            processor;
        value           uniform -0.0042137;
    }
    procBoundary2to4
    {
        type            processor;
        value           nonuniform List<scalar> 
75
(
0.0667542
-0.0417691
0.340336
-1.77057
-0.200767
0.0525709
0.018551
-0.00526666
-0.00974359
-0.00849733
-0.00759032
-0.0074199
-0.00745809
-0.00748211
-0.00747778
-0.00746556
-0.00745391
-0.0074433
-0.00743295
-0.00742253
-0.00741203
-0.00740149
-0.00739091
-0.00738029
-0.00736963
-0.00735893
-0.00734819
-0.00733741
-0.00732659
-0.00731573
-0.00730484
-0.0072939
-0.00728292
-0.0072719
-0.00726084
-0.00724974
-0.0072386
-0.00722742
-0.00721619
-0.00720493
-0.00719362
-0.00718227
-0.00717088
-0.00715945
-0.00714797
-0.00713646
-0.0071249
-0.0071133
-0.00710165
-0.00708996
-0.00296486
-0.00293796
-0.00291095
-0.00288384
-0.00285663
-0.00282933
-0.00280192
-0.00277441
-0.0027468
-0.00271909
-0.00269128
-0.00266337
-0.00263535
-0.00260723
-0.00257901
-0.00255068
-0.00252225
-0.00249372
-0.00246508
-0.00243633
-0.00240748
-0.00237853
-0.00234948
-0.0023203
-0.00229085
)
;
    }
    procBoundary2to5
    {
        type            processor;
        value           nonuniform List<scalar> 
50
(
-0.00419187
-0.00416947
-0.00414699
-0.00412442
-0.00410177
-0.00407904
-0.00405623
-0.00403333
-0.00401035
-0.00398728
-0.00396413
-0.00394089
-0.00391757
-0.00389416
-0.00387067
-0.00384709
-0.00382342
-0.00379967
-0.00377583
-0.0037519
-0.00372789
-0.00370378
-0.00367959
-0.00365531
-0.00363094
-0.00360647
-0.00358192
-0.00355728
-0.00353255
-0.00350773
-0.00348282
-0.00345781
-0.00343271
-0.00340753
-0.00338224
-0.00335687
-0.0033314
-0.00330584
-0.00328019
-0.00325444
-0.00322859
-0.00320265
-0.00317662
-0.00315049
-0.00312426
-0.00309794
-0.00307152
-0.003045
-0.00301839
-0.00299168
)
;
    }
}


// ************************************************************************* //
