/*--------------------------------*- C++ -*----------------------------------*\
| =========                 |                                                 |
| \\      /  F ield         | OpenFOAM: The Open Source CFD Toolbox           |
|  \\    /   O peration     | Version:  2.4.0                                 |
|   \\  /    A nd           | Web:      www.OpenFOAM.org                      |
|    \\/     M anipulation  |                                                 |
\*---------------------------------------------------------------------------*/
FoamFile
{
    version     2.0;
    format      ascii;
    class       volScalarField;
    location    "0.7";
    object      H;
}
// * * * * * * * * * * * * * * * * * * * * * * * * * * * * * * * * * * * * * //

dimensions      [0 2 -2 0 0 0 0];

internalField   nonuniform List<scalar> 
8000
(
-11906.5
-11260.7
-10618.8
-9983.4
-9357.23
-8742.8
-8142.55
-7558.78
-6993.56
-6448.77
-5926.02
-5426.68
-4951.85
-4502.36
-4078.77
-3681.41
-3310.33
-2965.37
-2646.16
-2352.12
-2082.53
-1836.48
-1612.96
-1410.86
-1228.98
-1066.07
-920.845
-791.993
-678.214
-578.224
-490.769
-414.638
-348.673
-291.774
-242.908
-201.108
-165.477
-135.187
-109.477
-87.6486
-69.0669
-53.1541
-39.3924
-27.3275
-16.5882
-6.99271
-0.0655298
-0.0474119
-0.038639
-0.0268012
-11907.5
-11263.8
-10623.8
-9990.28
-9365.78
-8752.86
-8153.94
-7571.29
-7006.97
-6462.84
-5940.52
-5441.37
-4966.51
-4516.77
-4092.75
-3694.79
-3322.96
-2977.16
-2657.01
-2361.99
-2091.37
-1844.3
-1619.78
-1416.72
-1233.92
-1070.16
-924.142
-794.581
-680.172
-579.63
-491.699
-415.163
-348.859
-291.679
-242.583
-200.595
-164.809
-134.387
-108.561
-86.6248
-67.9349
-51.9081
-38.0174
-25.7743
-14.651
-3.88279
-0.0377805
-0.0440821
-0.0385484
-0.0303311
-11907.9
-11265.1
-10626.3
-9993.95
-9370.75
-8759.15
-8161.5
-7580.01
-7016.7
-6473.4
-5951.7
-5452.95
-4978.27
-4528.51
-4104.28
-3705.93
-3333.58
-2987.13
-2666.25
-2370.42
-2098.97
-1851.04
-1625.67
-1421.77
-1238.19
-1073.68
-926.987
-796.808
-681.848
-580.822
-492.472
-415.578
-348.973
-291.542
-242.237
-200.074
-164.139
-133.586
-107.637
-85.5755
-66.7485
-50.5573
-36.4469
-23.8523
-12.0248
-0.110372
-0.00136445
-0.0151294
-0.0167002
-0.0166824
-11908.1
-11265.5
-10626.7
-9994.51
-9371.33
-8759.69
-8161.93
-7580.28
-7016.74
-6473.16
-5951.11
-5451.97
-4976.86
-4526.63
-4101.9
-3703.05
-3330.2
-2983.27
-2661.93
-2365.69
-2093.87
-1845.64
-1620.02
-1415.95
-1232.26
-1067.71
-921.042
-790.949
-676.129
-575.289
-487.164
-410.525
-344.193
-287.045
-238.022
-196.129
-160.443
-130.108
-104.332
-82.3901
-63.6143
-47.3925
-33.1721
-20.4621
-8.79428
-0.0818265
-0.0398831
-0.0271929
-0.018419
-0.0150317
-11908
-11265.3
-10626.5
-9994.26
-9371.04
-8759.32
-8161.45
-7579.63
-7015.86
-6471.98
-5949.57
-5450.01
-4974.43
-4523.71
-4098.47
-3699.1
-3325.75
-2978.33
-2656.56
-2359.93
-2087.79
-1839.3
-1613.5
-1409.31
-1225.58
-1061.07
-914.5
-784.565
-669.956
-569.37
-481.533
-405.204
-339.194
-282.37
-233.661
-192.062
-156.638
-126.523
-100.915
-79.0787
-60.3389
-44.0786
-29.7565
-16.9476
-5.18354
-0.0505922
-0.0502658
-0.0425872
-0.0320993
-0.0277795
-11907.8
-11264.6
-10625.3
-9992.49
-9368.62
-8756.21
-8157.61
-7575.01
-7010.45
-6465.75
-5942.55
-5442.21
-4965.89
-4514.47
-4088.6
-3688.67
-3314.84
-2967.05
-2644.99
-2348.18
-2075.96
-1827.49
-1601.82
-1397.85
-1214.43
-1050.3
-904.173
-774.741
-660.676
-560.663
-473.413
-397.675
-332.244
-275.976
-227.787
-186.661
-151.65
-121.876
-96.5277
-74.8546
-56.1601
-39.7893
-25.1539
-11.8864
-0.109633
-0.00144879
-0.00691732
-0.00943176
-0.0113278
-0.0129832
-11907.5
-11263.9
-10624.1
-9990.71
-9366.28
-8753.25
-8153.98
-7570.68
-7005.38
-6459.92
-5935.94
-5434.84
-4957.77
-4505.64
-4079.11
-3678.6
-3304.26
-2956.05
-2633.67
-2336.65
-2064.32
-1815.85
-1590.28
-1386.51
-1203.37
-1039.61
-893.923
-764.984
-651.455
-552.008
-465.339
-390.183
-325.321
-269.595
-221.908
-181.23
-146.602
-117.132
-91.995
-70.4308
-51.7375
-35.2821
-20.584
-7.50053
-0.0719784
-0.0619835
-0.0519085
-0.0376388
-0.0314278
-0.027279
-11907.2
-11263
-10622.5
-9988.41
-9363.2
-8749.35
-8149.21
-7565
-6998.78
-6452.4
-5927.51
-5425.52
-4947.62
-4494.73
-4067.51
-3666.4
-3291.58
-2942.98
-2620.35
-2323.19
-2050.84
-1802.47
-1577.1
-1373.65
-1190.92
-1027.64
-882.511
-754.181
-641.299
-542.521
-456.528
-382.038
-317.819
-262.695
-215.557
-175.36
-141.131
-111.964
-87.0202
-65.517
-46.7074
-29.8533
-14.3348
-0.132033
-0.00170804
-0.0105006
-0.0136122
-0.0155436
-0.0173289
-0.0182621
-11906.9
-11262
-10620.9
-9986.14
-9360.2
-8745.57
-8144.61
-7559.54
-6992.43
-6445.16
-5919.38
-5416.54
-4937.81
-4484.15
-4056.24
-3654.53
-3279.2
-2930.22
-2607.31
-2309.99
-2037.61
-1789.32
-1564.15
-1361
-1178.66
-1015.86
-871.275
-743.542
-631.295
-533.173
-447.839
-373.997
-310.397
-255.848
-209.224
-169.466
-135.584
-106.657
-81.829
-60.3097
-41.3743
-24.4457
-9.40332
-0.0896754
-0.0728194
-0.0603689
-0.0431325
-0.0354074
-0.0304341
-0.0265281
-11906.6
-11261
-10619.2
-9983.68
-9356.93
-8741.45
-8139.59
-7553.6
-6985.55
-6437.33
-5910.63
-5406.88
-4927.31
-4472.87
-4044.27
-3641.96
-3266.15
-2916.79
-2593.63
-2296.19
-2023.81
-1775.65
-1550.72
-1347.92
-1166.02
-1003.74
-859.744
-732.648
-621.071
-523.634
-438.983
-365.803
-302.829
-248.851
-202.727
-163.381
-129.806
-101.064
-76.2781
-54.6078
-35.1832
-17.1224
-0.157607
-0.0020336
-0.0153755
-0.019157
-0.0210442
-0.0228711
-0.02362
-0.0234671
-11906.3
-11260
-10617.5
-9981.17
-9353.63
-8737.3
-8134.56
-7547.66
-6978.68
-6429.53
-5901.91
-5397.28
-4916.87
-4461.66
-4032.37
-3629.47
-3253.17
-2903.45
-2580.05
-2282.5
-2010.12
-1762.09
-1537.41
-1334.96
-1153.5
-991.752
-848.342
-721.882
-610.969
-514.208
-430.225
-357.688
-295.311
-241.869
-196.198
-157.205
-123.863
-95.2149
-70.3686
-48.5055
-28.9511
-11.535
-0.109694
-0.0865512
-0.0712264
-0.0505835
-0.0412371
-0.0353201
-0.0307464
-0.0271321
-11905.9
-11258.9
-10615.6
-9978.55
-9350.17
-8732.97
-8129.32
-7541.48
-6971.55
-6421.45
-5892.9
-5387.38
-4906.13
-4450.15
-4020.18
-3616.7
-3239.93
-2889.87
-2566.25
-2268.6
-1996.27
-1748.39
-1523.99
-1321.91
-1140.93
-979.724
-836.921
-711.112
-600.873
-504.79
-421.471
-349.563
-287.761
-234.819
-189.555
-150.855
-117.674
-89.0302
-63.984
-41.5365
-20.5076
-0.188682
-0.00244401
-0.0221172
-0.0266174
-0.0283293
-0.0300899
-0.030508
-0.0298423
-0.0285042
-11905.5
-11257.8
-10613.7
-9975.83
-9346.61
-8728.52
-8123.95
-7535.17
-6964.29
-6413.24
-5883.76
-5377.35
-4895.27
-4438.53
-4007.9
-3603.85
-3226.63
-2876.24
-2552.41
-2254.7
-1982.42
-1734.72
-1510.61
-1308.93
-1128.43
-967.784
-825.596
-700.439
-590.871
-495.456
-412.782
-341.475
-280.209
-227.717
-182.795
-144.305
-111.176
-82.4086
-57.0817
-34.4199
-14.1514
-0.134285
-0.103743
-0.0847892
-0.0599815
-0.0487429
-0.0416973
-0.0363211
-0.0321263
-0.0288245
-11905.2
-11256.6
-10611.8
-9973.02
-9342.93
-8723.93
-8118.43
-7528.69
-6956.85
-6404.85
-5874.44
-5367.14
-4884.24
-4426.75
-3995.46
-3590.87
-3213.22
-2862.52
-2538.52
-2240.76
-1968.56
-1721.07
-1497.26
-1296
-1116
-955.93
-814.365
-689.862
-580.958
-486.198
-404.146
-333.406
-272.631
-220.529
-175.874
-137.506
-104.334
-75.3132
-49.3328
-24.868
-0.228688
-0.00298864
-0.033693
-0.0385224
-0.0392581
-0.0403962
-0.0399698
-0.0383673
-0.0361289
-0.0336257
-11904.7
-11255.4
-10609.7
-9970.1
-9339.11
-8719.19
-8112.74
-7522.03
-6949.22
-6396.27
-5864.93
-5356.75
-4873.03
-4414.82
-3982.89
-3577.77
-3199.71
-2848.73
-2524.58
-2226.79
-1954.7
-1707.43
-1483.97
-1283.14
-1103.66
-944.17
-803.233
-679.381
-571.132
-477.006
-395.546
-325.331
-264.988
-213.203
-168.72
-130.349
-96.9704
-67.5503
-41.2189
-17.5807
-0.166344
-0.124126
-0.100252
-0.0704851
-0.0570796
-0.0488115
-0.0426369
-0.0379197
-0.0342703
-0.0313792
-11904.3
-11254.2
-10607.6
-9967.1
-9335.19
-8714.33
-8106.92
-7515.24
-6941.46
-6387.56
-5855.3
-5346.26
-4861.74
-4402.81
-3970.26
-3564.64
-3186.2
-2834.96
-2510.68
-2212.9
-1940.94
-1693.92
-1470.82
-1270.44
-1091.49
-932.581
-792.268
-669.056
-561.441
-467.918
-387.005
-317.257
-257.276
-205.719
-161.309
-122.835
-89.1505
-59.0887
-30.9824
-0.659165
-0.00773118
-0.0615484
-0.0618173
-0.057497
-0.0558054
-0.0531312
-0.0497267
-0.0460662
-0.0424356
-0.0389793
-11903.9
-11252.8
-10605.4
-9963.99
-9331.14
-8709.32
-8100.93
-7508.28
-6933.52
-6378.66
-5845.5
-5335.59
-4850.29
-4390.66
-3957.52
-3551.42
-3172.62
-2821.15
-2496.78
-2199.04
-1927.23
-1680.49
-1457.76
-1257.85
-1079.44
-921.12
-781.426
-658.841
-551.835
-458.879
-378.464
-309.118
-249.415
-197.979
-153.497
-114.711
-80.4543
-49.7336
-22.0453
-0.207777
-0.143906
-0.113448
-0.0789451
-0.0637269
-0.054756
-0.0483644
-0.0436801
-0.0401564
-0.0373817
-0.0350614
-11903.5
-11251.5
-10603.1
-9960.81
-9327.01
-8704.22
-8094.85
-7501.22
-6925.5
-6369.69
-5835.63
-5324.89
-4838.82
-4378.52
-3944.82
-3538.26
-3159.14
-2807.47
-2483.03
-2185.35
-1913.73
-1667.28
-1444.94
-1245.5
-1067.63
-909.892
-770.801
-648.815
-542.379
-449.937
-369.952
-300.925
-241.399
-189.974
-145.315
-106.163
-71.3206
-39.4065
-7.54894
-0.0791818
-0.111841
-0.0972698
-0.0825042
-0.07595
-0.0700352
-0.064279
-0.0588463
-0.0538264
-0.0492361
-0.045058
-11903
-11250.1
-10600.8
-9957.53
-9322.77
-8699
-8088.64
-7494.02
-6917.33
-6360.6
-5825.64
-5314.08
-4827.27
-4366.33
-3932.08
-3525.11
-3145.69
-2793.86
-2469.38
-2171.78
-1900.36
-1654.23
-1432.3
-1233.34
-1056.01
-898.843
-760.334
-638.917
-533.006
-441.019
-361.39
-292.587
-233.118
-181.539
-136.448
-96.5025
-60.5016
-27.6887
-0.259654
-0.151935
-0.112833
-0.0776418
-0.0633238
-0.056077
-0.0515804
-0.0486059
-0.0464249
-0.0445697
-0.0427701
-0.0408968
-11902.5
-11248.7
-10598.4
-9954.19
-9318.45
-8693.69
-8082.35
-7486.75
-6909.11
-6351.46
-5815.64
-5303.28
-4815.76
-4354.2
-3919.45
-3512.09
-3132.41
-2780.44
-2455.95
-2158.47
-1887.28
-1641.47
-1419.95
-1221.47
-1044.67
-888.055
-750.096
-629.201
-523.756
-432.147
-352.78
-284.087
-224.552
-172.711
-127.181
-86.6873
-50.0732
-15.8249
-0.161561
-0.169923
-0.139963
-0.112718
-0.100846
-0.0914155
-0.0829892
-0.0754121
-0.0686046
-0.0624881
-0.0569894
-0.0520426
-0.0217578
-0.0186194
-0.0162182
-0.0143925
-0.0130122
-0.011967
-0.0111675
-0.0105439
-0.0100437
-0.00962873
-0.00927176
-0.00895406
-0.00866296
-0.00839009
-0.00813005
-0.0078795
-0.00763651
-0.00740005
-0.00716974
-0.00694559
-0.00672784
-0.00651683
-0.00631293
-0.00611648
-0.00592771
-0.00574679
-0.00557375
-0.00540852
-0.0052509
-0.00510064
-0.00495738
-0.00482071
-0.0046902
-0.00456536
-0.0044457
-0.00433076
-0.00422005
-0.00411313
-0.00400958
-0.00390899
-0.00381102
-0.00371534
-0.00362165
-0.00352972
-0.00343931
-0.00335025
-0.00326238
-0.00317556
-0.00308971
-0.00300473
-0.027248
-0.024695
-0.0222963
-0.0200975
-0.0181235
-0.0163797
-0.014858
-0.0135421
-0.0124109
-0.0114417
-0.0106119
-0.00990025
-0.00928727
-0.00875597
-0.00829178
-0.00788245
-0.0075179
-0.00718998
-0.00689216
-0.00661933
-0.0063675
-0.00613357
-0.00591515
-0.0057104
-0.00551786
-0.00533638
-0.00516501
-0.00500294
-0.00484947
-0.00470397
-0.00456584
-0.00443452
-0.00430947
-0.00419019
-0.00407617
-0.00396695
-0.00386206
-0.0037611
-0.00366365
-0.00356934
-0.00347783
-0.00338881
-0.00330199
-0.00321712
-0.00313398
-0.00305236
-0.00297209
-0.00289303
-0.00281506
-0.00273807
-0.0173775
-0.0174825
-0.0171066
-0.0164407
-0.0156179
-0.0147261
-0.013822
-0.0129407
-0.0121029
-0.0113193
-0.0105946
-0.00992923
-0.00932136
-0.00876756
-0.00826371
-0.00780544
-0.00738837
-0.00700832
-0.00666141
-0.00634411
-0.00605323
-0.00578591
-0.00553966
-0.00531224
-0.00510171
-0.00490635
-0.00472463
-0.00455521
-0.0043969
-0.00424864
-0.00410946
-0.00397851
-0.003855
-0.00373822
-0.00362752
-0.0035223
-0.00342204
-0.00332622
-0.0032344
-0.00314615
-0.00306111
-0.00297894
-0.00289932
-0.00282197
-0.00274666
-0.00267315
-0.00260126
-0.00253082
-0.00246168
-0.00239371
-0.0136265
-0.0128789
-0.0124465
-0.0121405
-0.0118568
-0.011547
-0.0111954
-0.0108041
-0.0103821
-0.00994067
-0.00949046
-0.0090403
-0.00859714
-0.00816621
-0.00775126
-0.00735485
-0.00697858
-0.00662334
-0.0062894
-0.00597659
-0.00568442
-0.00541212
-0.00515877
-0.00492329
-0.00470458
-0.00450147
-0.00431283
-0.00413752
-0.00397446
-0.0038226
-0.00368098
-0.00354867
-0.00342483
-0.00330867
-0.00319945
-0.0030965
-0.00299922
-0.00290704
-0.00281944
-0.00273597
-0.0026562
-0.00257974
-0.00250625
-0.00243542
-0.00236697
-0.00230065
-0.00223624
-0.00217354
-0.00211238
-0.00205261
-0.0246593
-0.0220061
-0.0197329
-0.0177831
-0.0161073
-0.0146627
-0.0134129
-0.0123268
-0.0113777
-0.0105434
-0.00980491
-0.00914649
-0.00855524
-0.00802064
-0.00753426
-0.00708938
-0.00668066
-0.0063039
-0.00595571
-0.00563337
-0.00533461
-0.00505751
-0.0048004
-0.00456179
-0.00434032
-0.00413474
-0.00394385
-0.00376657
-0.00360183
-0.00344866
-0.00330612
-0.00317334
-0.00304949
-0.00293382
-0.00282559
-0.00272416
-0.00262889
-0.00253921
-0.0024546
-0.00237458
-0.00229871
-0.00222656
-0.00215779
-0.00209204
-0.00202902
-0.00196845
-0.00191009
-0.00185371
-0.00179912
-0.00174615
-0.0139809
-0.01443
-0.0144738
-0.0142275
-0.0137821
-0.0132074
-0.0125565
-0.0118685
-0.0111715
-0.0104849
-0.00982175
-0.00919001
-0.00859419
-0.0080363
-0.00751666
-0.00703445
-0.00658815
-0.00617586
-0.00579543
-0.00544468
-0.00512143
-0.00482354
-0.00454902
-0.00429598
-0.00406264
-0.00384737
-0.00364865
-0.0034651
-0.00329542
-0.00313843
-0.00299304
-0.00285827
-0.00273317
-0.00261692
-0.00250872
-0.00240787
-0.00231371
-0.00222562
-0.00214306
-0.0020655
-0.00199249
-0.00192359
-0.00185841
-0.0017966
-0.00173782
-0.00168179
-0.00162824
-0.00157692
-0.00152761
-0.00148013
-0.0239237
-0.0211655
-0.0188893
-0.0170007
-0.0154218
-0.0140884
-0.0129481
-0.011959
-0.0110884
-0.0103111
-0.00960842
-0.00896653
-0.00837561
-0.00782865
-0.00732067
-0.0068481
-0.00640822
-0.00599891
-0.00561831
-0.0052648
-0.00493679
-0.0046328
-0.00435133
-0.00409094
-0.00385022
-0.00362779
-0.00342234
-0.0032326
-0.00305737
-0.00289552
-0.00274598
-0.00260774
-0.00247988
-0.00236152
-0.00225185
-0.00215012
-0.00205564
-0.00196777
-0.0018859
-0.00180951
-0.00173808
-0.00167117
-0.00160834
-0.00154922
-0.00149345
-0.00144072
-0.00139074
-0.00134323
-0.00129797
-0.00125474
-0.0184715
-0.018168
-0.0175242
-0.0166723
-0.0157094
-0.0147039
-0.0137015
-0.0127308
-0.0118086
-0.0109433
-0.0101379
-0.00939221
-0.00870406
-0.00807024
-0.00748713
-0.00695097
-0.00645809
-0.006005
-0.00558841
-0.00520532
-0.00485295
-0.00452875
-0.00423041
-0.0039558
-0.00370299
-0.00347021
-0.00325583
-0.00305837
-0.00287645
-0.00270883
-0.00255432
-0.00241187
-0.00228046
-0.00215919
-0.00204721
-0.00194371
-0.00184799
-0.00175937
-0.00167722
-0.00160097
-0.0015301
-0.00146411
-0.00140258
-0.00134508
-0.00129125
-0.00124073
-0.00119323
-0.00114846
-0.00110615
-0.00106607
-0.0233981
-0.0208754
-0.0188229
-0.0171295
-0.0157068
-0.0144864
-0.0134166
-0.0124597
-0.0115894
-0.0107877
-0.0100427
-0.00934705
-0.00869596
-0.0080864
-0.00751626
-0.00698388
-0.00648772
-0.00602625
-0.00559789
-0.00520094
-0.00483367
-0.00449431
-0.00418108
-0.00389224
-0.00362608
-0.00338098
-0.00315536
-0.00294775
-0.00275677
-0.00258109
-0.00241952
-0.00227089
-0.00213417
-0.00200836
-0.00189255
-0.0017859
-0.00168763
-0.00159702
-0.00151341
-0.00143617
-0.00136475
-0.00129863
-0.00123733
-0.00118042
-0.00112748
-0.00107817
-0.00103214
-0.000989084
-0.000948727
-0.000910815
-0.0227114
-0.0215919
-0.020282
-0.0189002
-0.0175229
-0.0161955
-0.0149422
-0.0137739
-0.012693
-0.0116972
-0.0107821
-0.00994185
-0.00917071
-0.00846292
-0.00781307
-0.00721618
-0.00666772
-0.00616355
-0.00569994
-0.00527352
-0.00488124
-0.00452034
-0.0041883
-0.00388283
-0.00360185
-0.00334344
-0.00310584
-0.00288742
-0.00268667
-0.0025022
-0.00233273
-0.00217705
-0.00203405
-0.00190271
-0.00178205
-0.00167121
-0.00156934
-0.00147571
-0.00138959
-0.00131035
-0.00123737
-0.00117012
-0.00110809
-0.0010508
-0.000997826
-0.000948781
-0.000903304
-0.000861065
-0.000821764
-0.000785128
-0.024255
-0.0219356
-0.0200299
-0.0184261
-0.0170399
-0.0158105
-0.0146958
-0.013668
-0.0127096
-0.0118103
-0.0109643
-0.0101684
-0.00942074
-0.00872003
-0.00806509
-0.00745455
-0.00688683
-0.00636008
-0.0058723
-0.00542134
-0.005005
-0.00462108
-0.00426739
-0.00394183
-0.00364238
-0.0033671
-0.00311418
-0.00288191
-0.00266869
-0.00247302
-0.00229352
-0.00212889
-0.00197792
-0.00183951
-0.00171261
-0.00159627
-0.00148961
-0.00139181
-0.00130212
-0.00121983
-0.00114432
-0.00107498
-0.00101127
-0.000952702
-0.000898805
-0.000849163
-0.000803389
-0.000761131
-0.000722065
-0.000685896
-0.0268064
-0.0249601
-0.0230985
-0.0212988
-0.0196008
-0.0180215
-0.0165643
-0.0152252
-0.0139971
-0.0128714
-0.0118396
-0.0108933
-0.010025
-0.00922757
-0.00849488
-0.00782126
-0.00720165
-0.00663153
-0.00610682
-0.00562386
-0.00517934
-0.00477024
-0.00439384
-0.00404761
-0.00372927
-0.00343668
-0.00316788
-0.00292105
-0.00269449
-0.00248665
-0.00229604
-0.00212132
-0.00196122
-0.00181456
-0.00168025
-0.00155728
-0.00144471
-0.00134167
-0.00124736
-0.00116103
-0.00108201
-0.00100965
-0.000943379
-0.00088266
-0.000827001
-0.00077595
-0.000729092
-0.000686046
-0.000646467
-0.000610035
-0.026183
-0.0240173
-0.022187
-0.0205897
-0.0191545
-0.017835
-0.0166024
-0.0154407
-0.0143415
-0.0133012
-0.0123183
-0.0113926
-0.0105236
-0.00971056
-0.00895229
-0.00824705
-0.00759266
-0.00698667
-0.00642644
-0.00590924
-0.0054323
-0.00499294
-0.00458853
-0.00421658
-0.0038747
-0.00356066
-0.00327235
-0.0030078
-0.00276517
-0.00254276
-0.00233897
-0.00215233
-0.00198144
-0.00182506
-0.00168198
-0.00155113
-0.00143149
-0.00132212
-0.00122216
-0.00113082
-0.00104736
-0.000971095
-0.000901409
-0.000837724
-0.000779513
-0.000726291
-0.00067761
-0.000633064
-0.000592278
-0.000554909
-0.0310815
-0.0286199
-0.0263017
-0.0241509
-0.0221711
-0.0203557
-0.0186934
-0.0171718
-0.0157784
-0.0145015
-0.0133302
-0.012255
-0.0112671
-0.0103588
-0.00952305
-0.00875371
-0.00804521
-0.00739261
-0.00679142
-0.00623763
-0.0057276
-0.005258
-0.0048258
-0.00442819
-0.00406261
-0.00372665
-0.00341808
-0.00313485
-0.00287502
-0.0026368
-0.00241851
-0.0022186
-0.0020356
-0.00186818
-0.00171507
-0.00157512
-0.00144725
-0.00133045
-0.00122381
-0.00112646
-0.00103762
-0.000956568
-0.000882624
-0.000815173
-0.000753647
-0.000697524
-0.000646324
-0.000599607
-0.000556969
-0.000518042
-0.0290082
-0.026983
-0.0251833
-0.0235313
-0.0219805
-0.0205061
-0.0190971
-0.0177504
-0.0164667
-0.0152484
-0.0140974
-0.0130148
-0.0120007
-0.0110542
-0.0101733
-0.0093556
-0.00859797
-0.0078972
-0.00724988
-0.00665263
-0.00610209
-0.00559504
-0.00512839
-0.00469922
-0.00430477
-0.00394245
-0.00360984
-0.00330468
-0.00302485
-0.0027684
-0.00253349
-0.00231844
-0.00212165
-0.00194168
-0.00177716
-0.00162684
-0.00148955
-0.00136422
-0.00124985
-0.00114553
-0.0010504
-0.000963691
-0.000884669
-0.000812674
-0.000747095
-0.000687369
-0.00063298
-0.000583453
-0.000538354
-0.000497284
-0.0357599
-0.0327952
-0.0300799
-0.0275988
-0.0253328
-0.0232625
-0.0213696
-0.0196371
-0.0180496
-0.0165934
-0.0152563
-0.0140271
-0.0128961
-0.0118546
-0.0108949
-0.0100101
-0.00919416
-0.00844158
-0.00774749
-0.00710748
-0.00651752
-0.00597394
-0.00547335
-0.00501262
-0.00458884
-0.00419929
-0.00384145
-0.00351294
-0.00321157
-0.00293526
-0.00268209
-0.00245027
-0.00223813
-0.00204409
-0.00186672
-0.00170468
-0.00155671
-0.00142167
-0.00129848
-0.00118615
-0.00108377
-0.000990496
-0.000905555
-0.000828227
-0.000757854
-0.000693829
-0.000635593
-0.000582636
-0.000534487
-0.000490714
-0.0329994
-0.0310758
-0.029226
-0.027422
-0.0256575
-0.0239383
-0.0222742
-0.0206758
-0.0191519
-0.0177088
-0.0163498
-0.0150761
-0.0138869
-0.0127799
-0.0117519
-0.0107991
-0.00991743
-0.00910248
-0.00835001
-0.00765585
-0.00701597
-0.00642656
-0.00588399
-0.00538487
-0.00492598
-0.00450435
-0.00411717
-0.00376185
-0.00343595
-0.0031372
-0.00286351
-0.00261291
-0.00238359
-0.00217386
-0.00198214
-0.001807
-0.00164707
-0.00150113
-0.001368
-0.00124663
-0.00113604
-0.00103531
-0.000943607
-0.000860158
-0.000784252
-0.000715233
-0.0006525
-0.000595499
-0.000543723
-0.000496705
-0.0412609
-0.0378101
-0.0346722
-0.0318161
-0.0292137
-0.0268395
-0.0246704
-0.0226859
-0.0208672
-0.0191979
-0.0176633
-0.0162507
-0.0149489
-0.0137479
-0.0126392
-0.0116152
-0.0106694
-0.00979579
-0.00898902
-0.00824428
-0.00755713
-0.00692349
-0.00633957
-0.00580184
-0.00530698
-0.0048519
-0.00443369
-0.00404963
-0.00369718
-0.00337395
-0.00307771
-0.00280638
-0.00255802
-0.00233082
-0.00212311
-0.00193332
-0.00176001
-0.00160184
-0.00145756
-0.00132602
-0.00120616
-0.00109701
-0.000997645
-0.000907242
-0.000825029
-0.000750297
-0.000682397
-0.000620728
-0.000564742
-0.000513934
-0.0389102
-0.0368225
-0.0346698
-0.032495
-0.0303388
-0.0282343
-0.0262068
-0.0242731
-0.0224435
-0.020723
-0.0191126
-0.0176105
-0.0162133
-0.0149162
-0.0137139
-0.0126009
-0.0115715
-0.0106204
-0.00974218
-0.00893187
-0.00818468
-0.00749614
-0.00686202
-0.00627837
-0.0057415
-0.00524795
-0.00479449
-0.00437812
-0.00399602
-0.00364559
-0.00332438
-0.00303015
-0.00276077
-0.0025143
-0.00228892
-0.00208294
-0.00189481
-0.00172307
-0.00156639
-0.00142353
-0.00129334
-0.00117475
-0.0010668
-0.000968581
-0.000879259
-0.00079807
-0.00072431
-0.00065733
-0.000596536
-0.00054138
-0.0475885
-0.0435736
-0.0399493
-0.0366712
-0.0336991
-0.0309972
-0.0285335
-0.0262802
-0.0242133
-0.0223125
-0.0205603
-0.0189424
-0.0174464
-0.0160618
-0.0147799
-0.0135928
-0.0124938
-0.0114766
-0.0105357
-0.00966596
-0.00886255
-0.00812097
-0.007437
-0.00680665
-0.00622617
-0.00569201
-0.00520083
-0.00474949
-0.00433506
-0.00395477
-0.00360603
-0.00328645
-0.00299376
-0.00272587
-0.00248083
-0.00225682
-0.00205217
-0.00186531
-0.00169479
-0.00153928
-0.00139753
-0.00126839
-0.00115082
-0.00104383
-0.000946518
-0.000858062
-0.000777694
-0.000704713
-0.000638472
-0.000578379
-0.00293998
-0.00289489
-0.00284979
-0.00280467
-0.00275953
-0.00271438
-0.00266922
-0.00262404
-0.00257887
-0.0025337
-0.00248853
-0.00244339
-0.00239827
-0.00235319
-0.00230816
-0.00226319
-0.00221829
-0.00217348
-0.00212877
-0.00208418
-0.00203972
-0.0019954
-0.00195125
-0.00190728
-0.0018635
-0.00181995
-0.00177663
-0.00173356
-0.00169076
-0.00164826
-0.00160607
-0.0015642
-0.00152268
-0.00148154
-0.00144078
-0.00140042
-0.00136049
-0.001321
-0.00128198
-0.00124343
-0.00120538
-0.00116784
-0.00113083
-0.00109437
-0.00105847
-0.00102314
-0.00098841
-0.000954278
-0.000920762
-0.000887873
-0.000855623
-0.000824021
-0.000793078
-0.0007628
-0.000733196
-0.000704273
-0.000676036
-0.000648489
-0.000621637
-0.000595482
-0.000570026
-0.00054527
-0.000521215
-0.000497858
-0.000475199
-0.000453235
-0.000431961
-0.000411374
-0.000391468
-0.000372236
-0.000353673
-0.00033577
-0.00031852
-0.000301912
-0.000285937
-0.000270584
-0.000255844
-0.000241703
-0.000228151
-0.000215175
-0.000202762
-0.000190898
-0.00017957
-0.000168765
-0.000158468
-0.000148664
-0.000139339
-0.000130479
-0.000122068
-0.000114093
-0.000106537
-9.93865e-05
-9.26263e-05
-8.62418e-05
-8.02184e-05
-7.45416e-05
-6.91971e-05
-6.41708e-05
-5.9449e-05
-5.50178e-05
-5.0864e-05
-4.69746e-05
-4.33366e-05
-3.99377e-05
-3.67657e-05
-3.38089e-05
-3.10558e-05
-2.84953e-05
-2.61167e-05
-2.39097e-05
-2.18643e-05
-1.9971e-05
-1.82205e-05
-1.66041e-05
-1.51133e-05
-1.37399e-05
-1.24764e-05
-1.13154e-05
-1.02499e-05
-9.27337e-06
-8.37944e-06
-7.56221e-06
-6.81606e-06
-6.13572e-06
-5.51619e-06
-4.95279e-06
-4.44113e-06
-3.97709e-06
-3.5568e-06
-3.17666e-06
-2.83332e-06
-2.52365e-06
-2.24474e-06
-1.99389e-06
-1.7686e-06
-1.56656e-06
-1.38563e-06
-1.22384e-06
-1.07939e-06
-9.50602e-07
-8.35956e-07
-7.34053e-07
-6.43614e-07
-5.63472e-07
-4.92564e-07
-4.29925e-07
-3.74677e-07
-3.26026e-07
-2.8325e-07
-2.45703e-07
-2.12796e-07
-1.84005e-07
-1.58855e-07
-1.36922e-07
-1.17827e-07
-1.0123e-07
-8.68282e-08
-7.43528e-08
-6.35645e-08
-5.42511e-08
-4.62248e-08
-3.93197e-08
-3.33896e-08
-2.83057e-08
-2.3955e-08
-2.02383e-08
-1.70688e-08
-1.43709e-08
-1.20785e-08
-1.01341e-08
-8.48799e-09
-7.09684e-09
-5.92331e-09
-4.93518e-09
-4.1047e-09
-3.40797e-09
-2.82455e-09
-2.33691e-09
-1.93006e-09
-1.59127e-09
-1.30964e-09
-1.07601e-09
-8.82508e-10
-7.22523e-10
-5.9051e-10
-4.81819e-10
-3.92467e-10
-3.19157e-10
-2.59113e-10
-2.09978e-10
-1.69851e-10
-1.37256e-10
-1.10659e-10
-8.9091e-11
-7.16468e-11
-5.75784e-11
-4.62847e-11
-3.70532e-11
-2.96056e-11
-2.36123e-11
-1.88007e-11
-1.49458e-11
-1.18632e-11
-9.4024e-12
-7.44128e-12
-5.88094e-12
-4.64145e-12
-3.65835e-12
-2.87978e-12
-2.26406e-12
-1.77782e-12
-1.39433e-12
-1.09229e-12
-8.54686e-13
-6.68011e-13
-5.21522e-13
-4.06703e-13
-3.16811e-13
-2.46513e-13
-1.91601e-13
-1.48753e-13
-1.15356e-13
-8.9354e-14
-6.91318e-14
-5.34221e-14
-4.12315e-14
-3.17825e-14
-2.44672e-14
-1.88103e-14
-1.44413e-14
-1.10712e-14
-8.47502e-15
-6.47769e-15
-4.94323e-15
-3.76606e-15
-2.86434e-15
-2.1747e-15
-1.6481e-15
-1.24667e-15
-9.41183e-16
-7.09133e-16
-5.33193e-16
-4.00052e-16
-2.99501e-16
-2.23718e-16
-1.66724e-16
-1.23954e-16
-9.19321e-17
-6.80122e-17
-5.01873e-17
-3.6937e-17
-2.71122e-17
-1.98462e-17
-1.44868e-17
-1.05445e-17
-7.65257e-18
-5.53728e-18
-3.99453e-18
-2.87269e-18
-2.0594e-18
-1.47162e-18
-1.04817e-18
-7.44074e-19
-5.26415e-19
-3.71143e-19
-2.60753e-19
-1.82544e-19
-1.27329e-19
-8.84881e-20
-6.1265e-20
-4.22557e-20
-2.90318e-20
-1.9868e-20
-1.35425e-20
-9.19346e-21
-6.2154e-21
-4.18447e-21
-2.80521e-21
-1.87247e-21
-1.24441e-21
-8.23346e-22
-5.42302e-22
-3.55559e-22
-2.32041e-22
-1.50721e-22
-9.74331e-23
-6.26808e-23
-4.01263e-23
-2.55601e-23
-1.61996e-23
-1.0215e-23
-6.40839e-24
-4.00008e-24
-2.48499e-24
-1.53785e-24
-9.50539e-25
-5.90993e-25
-3.76553e-25
-2.56894e-25
-2.03466e-25
-0.00267951
-0.00263877
-0.00259806
-0.00255737
-0.00251669
-0.00247602
-0.00243537
-0.00239473
-0.00235411
-0.00231351
-0.00227292
-0.00223237
-0.00219184
-0.00215135
-0.00211091
-0.00207052
-0.00203019
-0.00198994
-0.00194976
-0.00190969
-0.00186972
-0.00182987
-0.00179016
-0.00175059
-0.00171119
-0.00167196
-0.00163293
-0.00159411
-0.00155551
-0.00151715
-0.00147905
-0.00144123
-0.0014037
-0.00136647
-0.00132958
-0.00129302
-0.00125683
-0.00122102
-0.0011856
-0.00115059
-0.001116
-0.00108186
-0.00104817
-0.00101496
-0.000982231
-0.000950005
-0.000918293
-0.000887107
-0.00085646
-0.000826364
-0.000796829
-0.000767865
-0.000739481
-0.000711687
-0.00068449
-0.000657896
-0.000631913
-0.000606545
-0.000581796
-0.000557671
-0.000534171
-0.000511299
-0.000489057
-0.000467443
-0.000446457
-0.000426098
-0.000406364
-0.000387251
-0.000368755
-0.000350871
-0.000333595
-0.00031692
-0.000300839
-0.000285344
-0.000270429
-0.000256082
-0.000242297
-0.000229061
-0.000216366
-0.000204201
-0.000192554
-0.000181413
-0.000170768
-0.000160604
-0.000150911
-0.000141675
-0.000132883
-0.000124522
-0.000116579
-0.00010904
-0.000101893
-9.51233e-05
-8.87179e-05
-8.26636e-05
-7.69469e-05
-7.15548e-05
-6.64741e-05
-6.1692e-05
-5.71958e-05
-5.29729e-05
-4.90111e-05
-4.52982e-05
-4.18225e-05
-3.85725e-05
-3.55369e-05
-3.27048e-05
-3.00656e-05
-2.76089e-05
-2.53248e-05
-2.32037e-05
-2.12362e-05
-1.94134e-05
-1.77266e-05
-1.61676e-05
-1.47285e-05
-1.34016e-05
-1.21797e-05
-1.1056e-05
-1.00238e-05
-9.0768e-06
-8.20917e-06
-7.41526e-06
-6.68972e-06
-6.02755e-06
-5.42399e-06
-4.8746e-06
-4.37517e-06
-3.92178e-06
-3.51073e-06
-3.13859e-06
-2.80214e-06
-2.49837e-06
-2.2245e-06
-1.97792e-06
-1.75625e-06
-1.55723e-06
-1.37883e-06
-1.21913e-06
-1.07639e-06
-9.48992e-07
-8.35455e-07
-7.34425e-07
-6.4466e-07
-5.65025e-07
-4.94486e-07
-4.321e-07
-3.77011e-07
-3.28441e-07
-2.85687e-07
-2.48113e-07
-2.15143e-07
-1.8626e-07
-1.60999e-07
-1.38942e-07
-1.19714e-07
-1.0298e-07
-8.84415e-08
-7.58307e-08
-6.4911e-08
-5.54717e-08
-4.7326e-08
-4.03088e-08
-3.42742e-08
-2.90937e-08
-2.46542e-08
-2.08565e-08
-1.76134e-08
-1.48489e-08
-1.24967e-08
-1.04988e-08
-8.80492e-09
-7.37143e-09
-6.16049e-09
-5.13941e-09
-4.28002e-09
-3.55803e-09
-2.95261e-09
-2.44584e-09
-2.02247e-09
-1.66941e-09
-1.37552e-09
-1.13136e-09
-9.28918e-10
-7.61363e-10
-6.22869e-10
-5.08661e-10
-4.1467e-10
-3.37466e-10
-2.74152e-10
-2.22363e-10
-1.79966e-10
-1.45499e-10
-1.1738e-10
-9.44838e-11
-7.59413e-11
-6.09447e-11
-4.89349e-11
-3.91716e-11
-3.12422e-11
-2.48843e-11
-1.97898e-11
-1.5713e-11
-1.24563e-11
-9.85936e-12
-7.79217e-12
-6.14944e-12
-4.84613e-12
-3.81375e-12
-2.99723e-12
-2.35241e-12
-1.84393e-12
-1.44352e-12
-1.12866e-12
-8.81392e-13
-6.8747e-13
-5.35577e-13
-4.16755e-13
-3.23917e-13
-2.51468e-13
-1.94998e-13
-1.51034e-13
-1.16847e-13
-9.02919e-14
-6.96896e-14
-5.37237e-14
-4.1365e-14
-3.18098e-14
-2.44306e-14
-1.87387e-14
-1.43536e-14
-1.09795e-14
-8.38662e-15
-6.39661e-15
-4.87139e-15
-3.70401e-15
-2.81181e-15
-2.13093e-15
-1.61212e-15
-1.21743e-15
-9.17662e-16
-6.90379e-16
-5.18359e-16
-3.88406e-16
-2.90418e-16
-2.1668e-16
-1.61302e-16
-1.19802e-16
-8.87684e-17
-6.56142e-17
-4.83786e-17
-3.55794e-17
-2.60979e-17
-1.90917e-17
-1.39281e-17
-1.01325e-17
-7.35017e-18
-5.3162e-18
-3.83358e-18
-2.75599e-18
-1.97514e-18
-1.41102e-18
-1.00476e-18
-7.1311e-19
-5.04415e-19
-3.55575e-19
-2.49781e-19
-1.74842e-19
-1.21944e-19
-8.47388e-20
-5.86652e-20
-4.04603e-20
-2.77971e-20
-1.90225e-20
-1.29658e-20
-8.80188e-21
-5.95063e-21
-4.00621e-21
-2.68573e-21
-1.79274e-21
-1.19144e-21
-7.88315e-22
-5.1924e-22
-3.40447e-22
-2.22185e-22
-1.44323e-22
-9.32999e-23
-6.00237e-23
-3.84265e-23
-2.44781e-23
-1.55144e-23
-9.78316e-24
-6.13769e-24
-3.83124e-24
-2.38018e-24
-1.47304e-24
-9.10531e-25
-5.66171e-25
-3.60807e-25
-2.46251e-25
-1.95177e-25
-0.00234219
-0.00230643
-0.00227075
-0.00223515
-0.00219963
-0.00216418
-0.00212879
-0.00209346
-0.00205818
-0.00202297
-0.00198781
-0.00195271
-0.00191766
-0.00188268
-0.00184775
-0.0018129
-0.00177812
-0.00174342
-0.0017088
-0.00167427
-0.00163985
-0.00160553
-0.00157133
-0.00153726
-0.00150333
-0.00146955
-0.00143593
-0.00140249
-0.00136923
-0.00133617
-0.00130332
-0.0012707
-0.00123831
-0.00120618
-0.00117431
-0.00114273
-0.00111144
-0.00108045
-0.00104979
-0.00101946
-0.000989488
-0.000959874
-0.000930635
-0.000901785
-0.000873336
-0.0008453
-0.000817689