/*--------------------------------*- C++ -*----------------------------------*\
| =========                 |                                                 |
| \\      /  F ield         | OpenFOAM: The Open Source CFD Toolbox           |
|  \\    /   O peration     | Version:  2.4.0                                 |
|   \\  /    A nd           | Web:      www.OpenFOAM.org                      |
|    \\/     M anipulation  |                                                 |
\*---------------------------------------------------------------------------*/
FoamFile
{
    version     2.0;
    format      ascii;
    class       surfaceScalarField;
    location    "0.7";
    object      phi;
}
// * * * * * * * * * * * * * * * * * * * * * * * * * * * * * * * * * * * * * //

dimensions      [0 3 -1 0 0 0 0];

internalField   nonuniform List<scalar> 
15580
(
-1.33203e-13
-3.40102e-12
-4.2892e-13
-1.00947e-11
-8.42768e-13
-1.66556e-11
-1.36029e-12
-2.3072e-11
-1.96899e-12
-2.93442e-11
-2.65807e-12
-3.54723e-11
-3.41828e-12
-4.14564e-11
-4.24168e-12
-4.72966e-11
-5.12145e-12
-5.29931e-11
-6.05178e-12
-5.8546e-11
-7.02768e-12
-6.39552e-11
-8.04489e-12
-6.9221e-11
-9.09981e-12
-7.43434e-11
-1.01893e-11
-7.93224e-11
-1.13109e-11
-8.41581e-11
-1.24623e-11
-8.88506e-11
-1.36417e-11
-9.33998e-11
-1.48475e-11
-9.78057e-11
-1.60784e-11
-1.02069e-10
-1.73335e-11
-1.06188e-10
-1.86117e-11
-1.10164e-10
-1.99125e-11
-1.13998e-10
-2.12353e-11
-1.17688e-10
-2.25795e-11
-1.21234e-10
-2.39448e-11
-1.24638e-10
-2.53309e-11
-1.27898e-10
-2.67377e-11
-1.31015e-10
-2.81648e-11
-1.33988e-10
-2.96121e-11
-1.36819e-10
-3.10795e-11
-1.39506e-10
-3.25667e-11
-1.42049e-10
-3.40735e-11
-1.44449e-10
-3.55997e-11
-1.46705e-10
-3.7145e-11
-1.48818e-10
-3.87089e-11
-1.50788e-10
-4.02908e-11
-1.52613e-10
-4.18902e-11
-1.54296e-10
-4.35061e-11
-1.55834e-10
-4.51376e-11
-1.57229e-10
-4.67832e-11
-1.5848e-10
-4.84415e-11
-1.59587e-10
-5.01105e-11
-1.6055e-10
-5.17878e-11
-1.6137e-10
-5.34707e-11
-1.62045e-10
-5.51557e-11
-1.62576e-10
-5.69551e-11
-1.62965e-10
-5.91462e-11
-1.63216e-10
-6.07967e-11
-1.63371e-10
-6.23464e-11
-1.63452e-10
-1.63488e-10
-6.38549e-11
-2.64223e-14
-3.37459e-12
-1.51565e-13
-9.96952e-12
-3.838e-13
-1.64233e-11
-7.13877e-13
-2.2742e-11
-1.13365e-12
-2.89244e-11
-1.63589e-12
-3.497e-11
-2.21418e-12
-4.08781e-11
-2.86281e-12
-4.6648e-11
-3.57671e-12
-5.22792e-11
-4.35142e-12
-5.77712e-11
-5.18298e-12
-6.31237e-11
-6.06791e-12
-6.83361e-11
-7.00313e-12
-7.34082e-11
-7.98598e-12
-7.83396e-11
-9.0141e-12
-8.313e-11
-1.00855e-11
-8.77792e-11
-1.11983e-11
-9.22869e-11
-1.23511e-11
-9.6653e-11
-1.35425e-11
-1.00877e-10
-1.47715e-11
-1.04959e-10
-1.60371e-11
-1.08899e-10
-1.73386e-11
-1.12696e-10
-1.86753e-11
-1.16351e-10
-2.00467e-11
-1.19863e-10
-2.14524e-11
-1.23232e-10
-2.28922e-11
-1.26458e-10
-2.43657e-11
-1.29541e-10
-2.58728e-11
-1.32481e-10
-2.74134e-11
-1.35278e-10
-2.89874e-11
-1.37932e-10
-3.05947e-11
-1.40442e-10
-3.22352e-11
-1.42808e-10
-3.3909e-11
-1.45032e-10
-3.56158e-11
-1.47112e-10
-3.73555e-11
-1.49048e-10
-3.91279e-11
-1.50841e-10
-4.09326e-11
-1.52491e-10
-4.27694e-11
-1.53997e-10
-4.46374e-11
-1.55361e-10
-4.65361e-11
-1.56581e-10
-4.84645e-11
-1.57658e-10
-5.04213e-11
-1.58593e-10
-5.2405e-11
-1.59386e-10
-5.44135e-11
-1.60037e-10
-5.64443e-11
-1.60546e-10
-5.91882e-11
-1.60914e-10
-6.1528e-11
-1.61156e-10
-6.36114e-11
-1.61288e-10
-6.56995e-11
-1.61364e-10
-1.61426e-10
-6.77619e-11
-3.87285e-14
-3.33586e-12
-1.23305e-13
-9.88494e-12
-2.44526e-13
-1.63021e-11
-4.03787e-13
-2.25827e-11
-6.01933e-13
-2.87263e-11
-8.39412e-13
-3.47326e-11
-1.11636e-12
-4.06012e-11
-1.43266e-12
-4.63317e-11
-1.78799e-12
-5.19239e-11
-2.18191e-12
-5.73773e-11
-2.61382e-12
-6.26918e-11
-3.08308e-12
-6.78668e-11
-3.58898e-12
-7.29023e-11
-4.13078e-12
-7.77978e-11
-4.70773e-12
-8.25531e-11
-5.3191e-12
-8.71679e-11
-5.96416e-12
-9.16419e-11
-6.6422e-12
-9.59749e-11
-7.35257e-12
-1.00167e-10
-8.09465e-12
-1.04217e-10
-8.86788e-12
-1.08126e-10
-9.67175e-12
-1.11892e-10
-1.05058e-11
-1.15517e-10
-1.13697e-11
-1.18999e-10
-1.22631e-11
-1.22339e-10
-1.31857e-11
-1.25536e-10
-1.41375e-11
-1.2859e-10
-1.51183e-11
-1.31501e-10
-1.61281e-11
-1.34268e-10
-1.71672e-11
-1.36893e-10
-1.82357e-11
-1.39373e-10
-1.93339e-11
-1.4171e-10
-2.04624e-11
-1.43903e-10
-2.16217e-11
-1.45952e-10
-2.28126e-11
-1.47857e-10
-2.4036e-11
-1.49618e-10
-2.52932e-11
-1.51234e-10
-2.65853e-11
-1.52705e-10
-2.79142e-11
-1.54032e-10
-2.92815e-11
-1.55214e-10
-3.06897e-11
-1.5625e-10
-3.21413e-11
-1.57142e-10
-3.36393e-11
-1.57888e-10
-3.51874e-11
-1.58489e-10
-3.67891e-11
-1.58944e-10
-3.93293e-11
-1.59257e-10
-4.10439e-11
-1.5945e-10
-4.27923e-11
-1.5954e-10
-4.45675e-11
-1.59589e-10
-1.59592e-10
-4.64007e-11
-9.95697e-15
-3.32591e-12
-5.97706e-14
-9.83513e-12
-1.55271e-13
-1.62066e-11
-2.95495e-13
-2.24425e-11
-4.79632e-13
-2.85422e-11
-7.06976e-13
-3.45052e-11
-9.76901e-13
-4.03312e-11
-1.28886e-12
-4.60197e-11
-1.64236e-12
-5.15704e-11
-2.03699e-12
-5.69827e-11
-2.47236e-12
-6.22564e-11
-2.94816e-12
-6.7391e-11
-3.46412e-12
-7.23863e-11
-4.02e-12
-7.72419e-11
-4.61564e-12
-8.19574e-11
-5.25089e-12
-8.65326e-11
-5.92566e-12
-9.09671e-11
-6.63994e-12
-9.52607e-11
-7.39371e-12
-9.94129e-11
-8.18705e-12
-1.03424e-10
-9.02009e-12
-1.07293e-10
-9.89298e-12
-1.11019e-10
-1.0806e-11
-1.14604e-10
-1.17593e-11
-1.18046e-10
-1.27535e-11
-1.21345e-10
-1.37887e-11
-1.245e-10
-1.48657e-11
-1.27513e-10
-1.59849e-11
-1.30381e-10
-1.7147e-11
-1.33106e-10
-1.83527e-11
-1.35687e-10
-1.96029e-11
-1.38123e-10
-2.08984e-11
-1.40415e-10
-2.22403e-11
-1.42561e-10
-2.36296e-11
-1.44563e-10
-2.50677e-11
-1.46419e-10
-2.65558e-11
-1.4813e-10
-2.80954e-11
-1.49694e-10
-2.96881e-11
-1.51112e-10
-3.13357e-11
-1.52384e-10
-3.304e-11
-1.53509e-10
-3.48031e-11
-1.54487e-10
-3.66272e-11
-1.55318e-10
-3.85146e-11
-1.56e-10
-4.04682e-11
-1.56535e-10
-4.26728e-11
-1.56921e-10
-4.54037e-11
-1.57168e-10
-4.75524e-11
-1.57301e-10
-4.9747e-11
-1.57345e-10
-5.19631e-11
-1.57373e-10
-1.57305e-10
-5.42503e-11
-1.68544e-14
-3.30905e-12
-5.7584e-14
-9.7944e-12
-1.20511e-13
-1.61437e-11
-2.07787e-13
-2.23552e-11
-3.21306e-13
-2.84286e-11
-4.6275e-13
-3.43638e-11
-6.33626e-13
-4.01603e-11
-8.35289e-13
-4.58181e-11
-1.06896e-12
-5.13367e-11
-1.33575e-12
-5.67159e-11
-1.63666e-12
-6.19555e-11
-1.97263e-12
-6.70551e-11
-2.34452e-12
-7.20144e-11
-2.75315e-12
-7.68333e-11
-3.19929e-12
-8.15113e-11
-3.68366e-12
-8.60482e-11
-4.20698e-12
-9.04438e-11
-4.76994e-12
-9.46977e-11
-5.37324e-12
-9.88096e-11
-6.01756e-12
-1.02779e-10
-6.70359e-12
-1.06607e-10
-7.43204e-12
-1.10291e-10
-8.20361e-12
-1.13832e-10
-9.01905e-12
-1.1723e-10
-9.87913e-12
-1.20484e-10
-1.07846e-11
-1.23595e-10
-1.17364e-11
-1.26561e-10
-1.27352e-11
-1.29383e-10
-1.3782e-11
-1.32059e-10
-1.48778e-11
-1.34591e-10
-1.60235e-11
-1.36977e-10
-1.722e-11
-1.39218e-10
-1.84686e-11
-1.41313e-10
-1.97702e-11
-1.43261e-10
-2.1126e-11
-1.45063e-10
-2.25372e-11
-1.46718e-10
-2.40049e-11
-1.48226e-10
-2.55304e-11
-1.49587e-10
-2.7115e-11
-1.508e-10
-2.87598e-11
-1.51864e-10
-3.04663e-11
-1.52781e-10
-3.22355e-11
-1.53548e-10
-3.40687e-11
-1.54167e-10
-3.59667e-11
-1.54637e-10
-3.85593e-11
-1.54959e-10
-4.09455e-11
-1.55152e-10
-4.30119e-11
-1.55235e-10
-4.50889e-11
-1.55268e-10
-4.71849e-11
-1.55277e-10
-1.55026e-10
-4.94644e-11
-1.21794e-14
-3.29687e-12
-5.63404e-14
-9.75024e-12
-1.35157e-13
-1.60649e-11
-2.48932e-13
-2.22414e-11
-3.98049e-13
-2.82795e-11
-5.82941e-13
-3.41789e-11
-8.04086e-13
-3.99392e-11
-1.06199e-12
-4.55602e-11
-1.3572e-12
-5.10415e-11
-1.69026e-12
-5.63829e-11
-2.06175e-12
-6.1584e-11
-2.47226e-12
-6.66446e-11
-2.9224e-12
-7.15643e-11
-3.41279e-12
-7.63429e-11
-3.94404e-12
-8.09801e-11
-4.51679e-12
-8.54755e-11
-5.13169e-12
-8.98289e-11
-5.7894e-12
-9.404e-11
-6.49058e-12
-9.81085e-11
-7.23593e-12
-1.02034e-10
-8.02613e-12
-1.05816e-10
-8.8619e-12
-1.09455e-10
-9.74396e-12
-1.1295e-10
-1.06731e-11
-1.16301e-10
-1.165e-11
-1.19508e-10
-1.26755e-11
-1.22569e-10
-1.37505e-11
-1.25486e-10
-1.48756e-11
-1.28257e-10
-1.60519e-11
-1.30883e-10
-1.72803e-11
-1.33363e-10
-1.85615e-11
-1.35696e-10
-1.98966e-11
-1.37883e-10
-2.12866e-11
-1.39923e-10
-2.27325e-11
-1.41815e-10
-2.42354e-11
-1.4356e-10
-2.57963e-11
-1.45157e-10
-2.74165e-11
-1.46606e-10
-2.90971e-11
-1.47906e-10
-3.08394e-11
-1.49057e-10
-3.26446e-11
-1.50059e-10
-3.45142e-11
-1.50911e-10
-3.64496e-11
-1.51613e-10
-3.84523e-11
-1.52164e-10
-4.05235e-11
-1.52566e-10
-4.35289e-11
-1.52824e-10
-4.57237e-11
-1.52965e-10
-4.79545e-11
-1.53004e-10
-5.01976e-11
-1.53025e-10
-5.24804e-11
-1.52994e-10
-1.52426e-10
-5.50799e-11
-1.75759e-14
-3.2793e-12
-6.71238e-14
-9.70069e-12
-1.48437e-13
-1.59836e-11
-2.62717e-13
-2.21271e-11
-4.11088e-13
-2.81311e-11
-5.94618e-13
-3.39954e-11
-8.14322e-13
-3.97195e-11
-1.07118e-12
-4.53033e-11
-1.36612e-12
-5.07466e-11
-1.70007e-12
-5.60489e-11
-2.07389e-12
-6.12102e-11
-2.48846e-12
-6.623e-11
-2.94463e-12
-7.11081e-11
-3.44322e-12
-7.58443e-11
-3.98505e-12
-8.04382e-11
-4.57095e-12
-8.48896e-11
-5.20172e-12
-8.91981e-11
-5.87818e-12
-9.33635e-11
-6.60112e-12
-9.73855e-11
-7.37136e-12
-1.01264e-10
-8.18971e-12
-1.04998e-10
-9.05698e-12
-1.08588e-10
-9.974e-12
-1.12033e-10
-1.09416e-11
-1.15333e-10
-1.19606e-11
-1.18489e-10
-1.30319e-11
-1.21498e-10
-1.41563e-11
-1.24362e-10
-1.53346e-11
-1.27079e-10
-1.65679e-11
-1.2965e-10
-1.78568e-11
-1.32074e-10
-1.92024e-11
-1.34351e-10
-2.06055e-11
-1.3648e-10
-2.20671e-11
-1.38461e-10
-2.35881e-11
-1.40294e-10
-2.51694e-11
-1.41979e-10
-2.68119e-11
-1.43515e-10
-2.85166e-11
-1.44901e-10
-3.02844e-11
-1.46138e-10
-3.21162e-11
-1.47226e-10
-3.40131e-11
-1.48162e-10
-3.59758e-11
-1.48948e-10
-3.80052e-11
-1.49584e-10
-4.01023e-11
-1.50067e-10
-4.26461e-11
-1.50401e-10
-4.54051e-11
-1.50603e-10
-4.76784e-11
-1.50692e-10
-4.99595e-11
-1.50723e-10
-5.22475e-11
-1.50737e-10
-5.46402e-11
-1.50601e-10
-1.49621e-10
-5.74457e-11
-1.80757e-14
-3.26122e-12
-7.54626e-14
-9.6433e-12
-1.73432e-13
-1.58856e-11
-3.1236e-13
-2.19882e-11
-4.92663e-13
-2.79508e-11
-7.14793e-13
-3.37732e-11
-9.79228e-13
-3.94551e-11
-1.28647e-12
-4.49961e-11
-1.63705e-12
-5.0396e-11
-2.0315e-12
-5.56545e-11
-2.47039e-12
-6.07713e-11
-2.95428e-12
-6.57461e-11
-3.48378e-12
-7.05786e-11
-4.05948e-12
-7.52686e-11
-4.68199e-12
-7.98157e-11
-5.35194e-12
-8.42196e-11
-6.06996e-12
-8.84801e-11
-6.8367e-12
-9.25968e-11
-7.65283e-12
-9.65694e-11
-8.519e-12
-1.00398e-10
-9.43589e-12
-1.04081e-10
-1.04042e-11
-1.0762e-10
-1.14246e-11
-1.11013e-10
-1.24979e-11
-1.1426e-10
-1.36247e-11
-1.17362e-10
-1.48058e-11
-1.20317e-10
-1.60419e-11
-1.23125e-10
-1.73338e-11
-1.25787e-10
-1.86822e-11
-1.28301e-10
-2.0088e-11
-1.30668e-10
-2.15519e-11
-1.32887e-10
-2.30747e-11
-1.34957e-10
-2.46573e-11
-1.36879e-10
-2.63005e-11
-1.38651e-10
-2.80051e-11
-1.40274e-10
-2.9772e-11
-1.41748e-10
-3.1602e-11
-1.43071e-10
-3.34961e-11
-1.44244e-10
-3.54551e-11
-1.45267e-10
-3.74801e-11
-1.46137e-10
-3.95719e-11
-1.46857e-10
-4.17314e-11
-1.47424e-10
-4.39586e-11
-1.4784e-10
-4.73001e-11
-1.48111e-10
-4.96501e-11
-1.48263e-10
-5.20329e-11
-1.48309e-10
-5.44215e-11
-1.48335e-10
-5.68328e-11
-1.48326e-10
-5.94702e-11
-1.47964e-10
-1.46743e-10
-6.23483e-11
-2.22897e-14
-3.23893e-12
-8.77919e-14
-9.5778e-12
-1.96461e-13
-1.57769e-11
-3.4889e-13
-2.18358e-11
-5.45658e-13
-2.77541e-11
-7.87337e-13
-3.35315e-11
-1.0745e-12
-3.91679e-11
-1.40772e-12
-4.46629e-11
-1.78755e-12
-5.00161e-11
-2.21458e-12
-5.52274e-11
-2.68938e-12
-6.02965e-11
-3.21252e-12
-6.52229e-11
-3.78459e-12
-7.00066e-11
-4.40618e-12
-7.4647e-11
-5.07788e-12
-7.9144e-11
-5.80029e-12
-8.34972e-11
-6.57402e-12
-8.77064e-11
-7.39969e-12
-9.17711e-11
-8.27791e-12
-9.56912e-11
-9.20933e-12
-9.94662e-11
-1.01946e-11
-1.03096e-10
-1.12343e-11
-1.0658e-10
-1.23291e-11
-1.09918e-10
-1.34798e-11
-1.1311e-10
-1.46869e-11
-1.16155e-10
-1.59512e-11
-1.19053e-10
-1.72733e-11
-1.21803e-10
-1.8654e-11
-1.24406e-10
-2.00939e-11
-1.26861e-10
-2.15937e-11
-1.29168e-10
-2.31543e-11
-1.31326e-10
-2.47763e-11
-1.33335e-10
-2.64604e-11
-1.35194e-10
-2.82074e-11
-1.36904e-10
-3.00181e-11
-1.38464e-10
-3.18932e-11
-1.39873e-10
-3.38335e-11
-1.41131e-10
-3.58397e-11
-1.42238e-10
-3.79126e-11
-1.43194e-10
-4.00529e-11
-1.43997e-10
-4.22614e-11
-1.44648e-10
-4.45393e-11
-1.45146e-10
-4.72039e-11
-1.45492e-10
-5.0285e-11
-1.45707e-10
-5.27421e-11
-1.45806e-10
-5.52093e-11
-1.45842e-10
-5.76786e-11
-1.45865e-10
-6.02172e-11
-1.45787e-10
-6.3084e-11
-1.45097e-10
-1.43844e-10
-6.59828e-11
-2.32515e-14
-3.21568e-12
-9.47281e-14
-9.50632e-12
-2.15163e-13
-1.56565e-11
-3.84823e-13
-2.16661e-11
-6.04004e-13
-2.75349e-11
-8.73023e-13
-3.32625e-11
-1.19222e-12
-3.88487e-11
-1.56195e-12
-4.42931e-11
-1.98259e-12
-4.95955e-11
-2.45454e-12
-5.47555e-11
-2.9782e-12
-5.97728e-11
-3.554e-12
-6.46472e-11
-4.18237e-12
-6.93782e-11
-4.86377e-12
-7.39656e-11
-5.59867e-12
-7.84091e-11
-6.38754e-12
-8.27084e-11
-7.23087e-12
-8.6863e-11
-8.12918e-12
-9.08728e-11
-9.08297e-12
-9.47374e-11
-1.00928e-11
-9.84564e-11
-1.11591e-11
-1.02029e-10
-1.22826e-11
-1.05456e-10
-1.34637e-11
-1.08737e-10
-1.47031e-11
-1.1187e-10
-1.60013e-11
-1.14856e-10
-1.7359e-11
-1.17695e-10
-1.87767e-11
-1.20386e-10
-2.0255e-11
-1.22928e-10
-2.17947e-11
-1.25322e-10
-2.33963e-11
-1.27567e-10
-2.50604e-11
-1.29662e-10
-2.67878e-11
-1.31608e-10
-2.85792e-11
-1.33403e-10
-3.04351e-11
-1.35048e-10
-3.23563e-11
-1.36543e-10
-3.43435e-11
-1.37886e-10
-3.63974e-11
-1.39077e-10
-3.85187e-11
-1.40117e-10
-4.07082e-11
-1.41004e-10
-4.29666e-11
-1.41739e-10
-4.52944e-11
-1.4232e-10
-4.7691e-11
-1.4275e-10
-5.14086e-11
-1.43032e-10
-5.39328e-11
-1.43195e-10
-5.64891e-11
-1.4325e-10
-5.90486e-11
-1.43283e-10
-6.16225e-11
-1.43291e-10
-6.43586e-11
-1.43051e-10
-6.73234e-11
-1.42132e-10
-1.40943e-10
-7.02238e-11
-2.66355e-14
-3.18904e-12
-1.05549e-13
-9.42741e-12
-2.36624e-13
-1.55254e-11
-4.20174e-13
-2.14826e-11
-6.5652e-13
-2.72986e-11
-9.45987e-13
-3.29731e-11
-1.28891e-12
-3.85058e-11
-1.68564e-12
-4.38964e-11
-2.13654e-12
-4.91446e-11
-2.64196e-12
-5.42501e-11
-3.20228e-12
-5.92125e-11
-3.81791e-12
-6.40315e-11
-4.48922e-12
-6.87069e-11
-5.21664e-12
-7.32382e-11
-6.00058e-12
-7.76252e-11
-6.84148e-12
-8.18675e-11
-7.73978e-12
-8.59647e-11
-8.69593e-12
-8.99167e-11
-9.7104e-12
-9.37229e-11
-1.07837e-11
-9.73831e-11
-1.19162e-11
-1.00897e-10
-1.31085e-11
-1.04264e-10
-1.43611e-11
-1.07484e-10
-1.56745e-11
-1.10557e-10
-1.70491e-11
-1.13482e-10
-1.84857e-11
-1.16258e-10
-1.99846e-11
-1.18887e-10
-2.15465e-11
-1.21366e-10
-2.31719e-11
-1.23696e-10
-2.48614e-11
-1.25877e-10
-2.66156e-11
-1.27908e-10
-2.8435e-11
-1.29788e-10
-3.03203e-11
-1.31518e-10
-3.2272e-11
-1.33097e-10
-3.42909e-11
-1.34524e-10
-3.63774e-11
-1.35799e-10
-3.85323e-11
-1.36922e-10
-4.07561e-11
-1.37893e-10
-4.30494e-11
-1.38711e-10
-4.54129e-11
-1.39375e-10
-4.78478e-11
-1.39885e-10
-5.0638e-11
-1.40242e-10
-5.40342e-11
-1.40467e-10
-5.66525e-11
-1.40577e-10
-5.92834e-11
-1.40619e-10
-6.19142e-11
-1.40652e-10
-6.45934e-11
-1.40612e-10
-6.75201e-11
-1.40124e-10
-7.04932e-11
-1.39159e-10
-1.38056e-10
-7.33811e-11
-2.70724e-14
-3.16197e-12
-1.09662e-13
-9.34482e-12
-2.48329e-13
-1.53867e-11
-4.43256e-13
-2.12876e-11
-6.94645e-13
-2.70472e-11
-1.00271e-12
-3.2665e-11
-1.3677e-12
-3.81408e-11
-1.78985e-12
-4.34742e-11
-2.26944e-12
-4.8665e-11
-2.80675e-12
-5.37128e-11
-3.40208e-12
-5.86172e-11
-4.05573e-12
-6.33779e-11
-4.76804e-12
-6.79946e-11
-5.53933e-12
-7.24669e-11
-6.36995e-12
-7.67945e-11
-7.26028e-12
-8.09771e-11
-8.21067e-12
-8.50143e-11
-9.22152e-12
-8.89058e-11
-1.02932e-11
-9.26512e-11
-1.14262e-11
-9.62501e-11
-1.26208e-11
-9.97023e-11
-1.38776e-11
-1.03007e-10
-1.51969e-11
-1.06165e-10
-1.65792e-11
-1.09175e-10
-1.8025e-11
-1.12036e-10
-1.95347e-11
-1.14749e-10
-2.11088e-11
-1.17313e-10
-2.27479e-11
-1.19727e-10
-2.44524e-11
-1.21992e-10
-2.62229e-11
-1.24107e-10
-2.80599e-11
-1.26071e-10
-2.9964e-11
-1.27884e-10
-3.19357e-11
-1.29546e-10
-3.39755e-11
-1.31057e-10
-3.60841e-11
-1.32415e-10
-3.8262e-11
-1.33621e-10
-4.05098e-11
-1.34675e-10
-4.28282e-11
-1.35575e-10
-4.52177e-11
-1.36321e-10
-4.76784e-11
-1.36914e-10
-5.02093e-11
-1.37355e-10
-5.4312e-11
-1.37647e-10
-5.6977e-11
-1.37818e-10
-5.96737e-11
-1.3788e-10
-6.2373e-11
-1.3792e-10
-6.50818e-11
-1.37943e-10
-6.79053e-11
-1.37789e-10
-7.09112e-11
-1.37118e-10
-7.38653e-11
-1.36205e-10
-1.35186e-10
-7.67349e-11
-3.00215e-14
-3.13195e-12
-1.19009e-13
-9.25583e-12
-2.66737e-13
-1.5239e-11
-4.73404e-13
-2.1081e-11
-7.39214e-13
-2.67814e-11
-1.06438e-12
-3.23398e-11
-1.44913e-12
-3.7756e-11
-1.8937e-12
-4.30297e-11
-2.39833e-12
-4.81604e-11
-2.96329e-12
-5.31478e-11
-3.58884e-12
-5.79916e-11
-4.27526e-12
-6.26915e-11
-5.02285e-12
-6.7247e-11
-5.83191e-12
-7.16579e-11
-6.70275e-12
-7.59237e-11
-7.63569e-12
-8.00442e-11
-8.63108e-12
-8.40189e-11
-9.68926e-12
-8.78476e-11
-1.08106e-11
-9.15299e-11
-1.19954e-11
-9.50653e-11
-1.32441e-11
-9.84536e-11
-1.45571e-11
-1.01694e-10
-1.59347e-11
-1.04787e-10
-1.73773e-11
-1.07732e-10
-1.88854e-11
-1.10528e-10
-2.04594e-11
-1.13175e-10
-2.20997e-11
-1.15672e-10
-2.38067e-11
-1.1802e-10
-2.55808e-11
-1.20218e-10
-2.74226e-11
-1.22265e-10
-2.93325e-11
-1.24161e-10
-3.13108e-11
-1.25906e-10
-3.33582e-11
-1.27499e-10
-3.54751e-11
-1.2894e-10
-3.76619e-11
-1.30228e-10
-3.99193e-11
-1.31364e-10
-4.22476e-11
-1.32346e-10
-4.46474e-11
-1.33175e-10
-4.71192e-11
-1.33849e-10
-4.96645e-11
-1.34369e-10
-5.25409e-11
-1.34735e-10
-5.62404e-11
-1.34969e-10
-5.89729e-11
-1.35085e-10
-6.17201e-11
-1.35133e-10
-6.44665e-11
-1.35173e-10
-6.72462e-11
-1.35163e-10
-7.02041e-11
-1.34831e-10
-7.32004e-11
-1.34122e-10
-7.61252e-11
-1.3328e-10
-1.32342e-10
-7.89695e-11
-2.97302e-14
-3.10222e-12
-1.20381e-13
-9.16518e-12
-2.7251e-13
-1.50869e-11
-4.86248e-13
-2.08672e-11
-7.61739e-13
-2.65059e-11
-1.09915e-12
-3.20024e-11
-1.49864e-12
-3.73565e-11
-1.96041e-12
-4.25679e-11
-2.48466e-12
-4.76361e-11
-3.0716e-12
-5.25609e-11
-3.72146e-12
-5.73418e-11
-4.43448e-12
-6.19784e-11
-5.21091e-12
-6.64706e-11
-6.05102e-12
-7.08177e-11
-6.95507e-12
-7.50196e-11
-7.92336e-12
-7.90759e-11
-8.95618e-12
-8.29861e-11
-1.00538e-11
-8.675e-11
-1.12166e-11
-9.03671e-11
-1.24449e-11
-9.38371e-11
-1.37389e-11
-9.71596e-11
-1.5099e-11
-1.00334e-10
-1.65256e-11
-1.03361e-10
-1.8019e-11
-1.06238e-10
-1.95795e-11
-1.08967e-10
-2.12074e-11
-1.11547e-10
-2.29032e-11
-1.13977e-10
-2.46672e-11
-1.16256e-10
-2.64998e-11
-1.18385e-10
-2.84013e-11
-1.20363e-10
-3.03722e-11
-1.2219e-10
-3.24129e-11
-1.23865e-10
-3.45239e-11
-1.25388e-10
-3.67057e-11
-1.26758e-10
-3.89589e-11
-1.27975e-10
-4.12842e-11
-1.29039e-10
-4.36824e-11
-1.29948e-10
-4.61545e-11
-1.30703e-10
-4.87005e-11
-1.31304e-10
-5.13182e-11
-1.31751e-10
-5.58322e-11
-1.3205e-10
-5.85944e-11
-1.32225e-10
-6.13887e-11
-1.32291e-10
-6.41876e-11
-1.32334e-10
-6.69927e-11
-1.32368e-10
-6.98704e-11
-1.32286e-10
-7.2873e-11
-1.31828e-10
-7.58327e-11
-1.31162e-10
-7.8721e-11
-1.30392e-10
-1.2953e-10
-8.15322e-11
-3.25986e-14
-3.06962e-12
-1.29018e-13
-9.06876e-12
-2.889e-13
-1.4927e-11
-5.12381e-13
-2.06438e-11
-7.9961e-13
-2.62186e-11
-1.15074e-12
-3.16513e-11
-1.56595e-12
-3.69413e-11
-2.0454e-12
-4.20885e-11
-2.58929e-12
-4.70922e-11
-3.19781e-12
-5.19523e-11
-3.87118e-12
-5.66684e-11
-4.60959e-12
-6.124e-11
-5.41329e-12
-6.56669e-11
-6.28251e-12
-6.99485e-11
-7.21748e-12
-7.40847e-11
-8.21845e-12
-7.80749e-11
-9.28569e-12
-8.19189e-11
-1.04195e-11
-8.56162e-11
-1.162e-11
-8.91665e-11
-1.28877e-11
-9.25694e-11
-1.42227e-11
-9.58246e-11
-1.56254e-11
-9.89316e-11
-1.7096e-11
-1.0189e-10
-1.8635e-11
-1.047e-10
-2.02424e-11
-1.0736e-10
-2.19188e-11
-1.0987e-10
-2.36643e-11
-1.12231e-10
-2.54794e-11
-1.14441e-10
-2.73643e-11
-1.165e-10
-2.93194e-11
-1.18408e-10
-3.13451e-11
-1.20164e-10
-3.34415e-11
-1.21769e-10
-3.56092e-11
-1.2322e-10
-3.78484e-11
-1.24519e-10
-4.01595e-11
-1.25664e-10
-4.25427e-11
-1.26655e-10
-4.49983e-11
-1.27492e-10
-4.75271e-11
-1.28174e-10
-5.01324e-11
-1.28698e-10
-5.30344e-11
-1.29066e-10
-5.70456e-11
-1.2931e-10
-5.98384e-11
-1.29432e-10
-6.26478e-11
-1.29482e-10
-6.54561e-11
-1.29526e-10
-6.82866e-11
-1.29538e-10
-7.12412e-11
-1.29331e-10
-7.42244e-11
-1.28845e-10
-7.71475e-11
-1.28239e-10
-8.00025e-11
-1.27537e-10
-1.26748e-10
-8.2785e-11
-3.13389e-14
-3.03828e-12
-1.27106e-13
-8.97299e-12
-2.87961e-13
-1.47662e-11
-5.1404e-13
-2.04177e-11
-8.05488e-13
-2.59272e-11
-1.16246e-12
-3.12943e-11
-1.58512e-12
-3.65187e-11
-2.07364e-12
-4.15999e-11
-2.62819e-12
-4.65377e-11
-3.24895e-12
-5.13316e-11
-3.93611e-12
-5.59812e-11
-4.68987e-12
-6.04863e-11
-5.51043e-12
-6.48463e-11
-6.39798e-12
-6.9061e-11
-7.35274e-12
-7.31299e-11
-8.37493e-12
-7.70527e-11
-9.46477e-12
-8.08291e-11
-1.06225e-11
-8.44585e-11
-1.18483e-11
-8.79407e-11
-1.31424e-11
-9.12753e-11
-1.45051e-11
-9.44618e-11
-1.59367e-11
-9.75e-11
-1.74372e-11
-1.00389e-10
-1.90071e-11
-1.0313e-10
-2.06465e-11
-1.0572e-10
-2.23557e-11
-1.08161e-10
-2.41349e-11
-1.10452e-10
-2.59843e-11
-1.12592e-10
-2.79041e-11
-1.1458e-10
-2.98946e-11
-1.16418e-10
-3.19558e-11
-1.18103e-10
-3.40879e-11
-1.19636e-10
-3.6291e-11
-1.21017e-10
-3.8565e-11
-1.22245e-10
-4.09099e-11
-1.23319e-10
-4.33259e-11
-1.24239e-10
-4.58128e-11
-1.25006e-10
-4.83686e-11
-1.25618e-10
-5.09873e-11
-1.2608e-10
-5.75432e-11
-1.26393e-10
-6.03422e-11
-1.26574e-10
-6.31294e-11
-1.26645e-10
-6.5917e-11
-1.26694e-10
-6.87036e-11
-1.26739e-10
-7.15237e-11
-1.26718e-10
-7.44087e-11
-1.26446e-10
-7.72545e-11
-1.25999e-10
-8.0043e-11
-1.25451e-10
-8.27707e-11
-1.2481e-10
-1.24083e-10
-8.54357e-11
-3.44552e-14
-3.00383e-12
-1.36149e-13
-8.8713e-12
-3.04607e-13
-1.45977e-11
-5.39934e-13
-2.01823e-11
-8.42244e-13
-2.56249e-11
-1.21166e-12
-3.09249e-11
-1.64831e-12
-3.6082e-11
-2.15234e-12
-4.10959e-11
-2.72388e-12
-4.59661e-11
-3.3631e-12
-5.06924e-11
-4.07015e-12
-5.52742e-11
-4.8452e-12
-5.97112e-11
-5.68841e-12
-6.40031e-11
-6.59997e-12
-6.81494e-11
-7.58005e-12
-7.21498e-11
-8.62885e-12
-7.60039e-11
-9.74655e-12
-7.97114e-11
-1.09333e-11
-8.32717e-11
-1.21894e-11
-8.66846e-11
-1.3515e-11
-8.99497e-11
-1.49104e-11
-9.30665e-11
-1.63756e-11
-9.60348e-11
-1.7911e-11
-9.88541e-11
-1.95167e-11
-1.01524e-10
-2.1193e-11
-1.04044e-10
-2.29401e-11
-1.06414e-10
-2.47582e-11
-1.08634e-10
-2.66476e-11
-1.10702e-10
-2.86084e-11
-1.1262e-10
-3.0641e-11
-1.14385e-10
-3.27455e-11
-1.15999e-10
-3.49221e-11
-1.1746e-10
-3.71711e-11
-1.18768e-10
-3.94928e-11
-1.19923e-10
-4.18872e-11
-1.20925e-10
-4.43544e-11
-1.21772e-10
-4.6895e-11
-1.22465e-10
-4.95114e-11
-1.23002e-10
-5.2373e-11
-1.23383e-10
-5.67304e-11
-1.23635e-10
-5.95375e-11
-1.23767e-10
-6.23618e-11
-1.23821e-10
-6.51843e-11
-1.23871e-10
-6.80182e-11
-1.23905e-10
-7.09269e-11
-1.23809e-10
-7.38558e-11
-1.23517e-10
-7.67369e-11
-1.23118e-10
-7.95627e-11
-1.22625e-10
-8.23297e-11
-1.22043e-10
-1.21377e-10
-8.50358e-11
-3.25096e-14
-2.97132e-12
-1.31989e-13
-8.77182e-12
-2.99165e-13
-1.44305e-11
-5.3417e-13
-1.99473e-11
-8.37142e-13
-2.53219e-11
-1.20822e-12
-3.05538e-11
-1.64754e-12
-3.56427e-11
-2.15524e-12
-4.05882e-11
-2.73148e-12
-4.53899e-11
-3.37638e-12
-5.00475e-11
-4.0901e-12
-5.45605e-11
-4.87279e-12
-5.89285e-11
-5.72459e-12
-6.31513e-11
-6.64566e-12
-6.72283e-11
-7.63615e-12
-7.11593e-11
-8.69623e-12
-7.49439e-11
-9.82604e-12
-7.85815e-11
-1.10258e-11
-8.2072e-11
-1.22955e-11
-8.54148e-11
-1.36355e-11
-8.86097e-11
-1.50459e-11
-9.16561e-11
-1.65269e-11
-9.45538e-11
-1.80786e-11
-9.73024e-11
-1.97012e-11
-9.99014e-11
-2.13948e-11
-1.0235e-10
-2.31597e-11
-1.04649e-10
-2.49959e-11
-1.06797e-10
-2.69037e-11
-1.08794e-10
-2.88833e-11
-1.1064e-10
-3.09347e-11
-1.12334e-10
-3.30581e-11
-1.13875e-10
-3.52537e-11
-1.15264e-10
-3.75216e-11
-1.165e-10
-3.98618e-11
-1.17583e-10
-4.22749e-11
-1.18512e-10
-4.47607e-11
-1.19286e-10
-4.73187e-11
-1.19907e-10
-4.99454e-11
-1.20375e-10
-5.55514e-11
-1.20694e-10
-5.88312e-11
-1.20884e-10
-6.1638e-11
-1.2096e-10
-6.44489e-11
-1.2101e-10
-6.7259e-11
-1.21061e-10
-7.00769e-11
-1.21087e-10
-7.29165e-11
-1.20969e-10
-7.57205e-11
-1.20713e-10
-7.84795e-11
-1.20359e-10
-8.11913e-11
-1.19913e-10
-8.38535e-11
-1.1938e-10
-1.18766e-10
-8.64641e-11
-3.56203e-14
-2.9357e-12
-1.40738e-13
-8.6667e-12
-3.14835e-13
-1.42564e-11
-5.57993e-13
-1.97042e-11
-8.70295e-13
-2.50096e-11
-1.25183e-12
-3.01723e-11
-1.70269e-12
-3.51919e-11
-2.22298e-12
-4.00679e-11
-2.8128e-12
-4.48001e-11
-3.47225e-12
-4.9388e-11
-4.20145e-12
-5.38313e-11
-5.00051e-12
-5.81295e-11
-5.86955e-12
-6.22822e-11
-6.80869e-12
-6.62892e-11
-7.81805e-12
-7.015e-11
-8.89776e-12
-7.38642e-11
-1.00479e-11
-7.74314e-11
-1.12687e-11
-8.08512e-11
-1.25602e-11
-8.41233e-11
-1.39226e-11
-8.72473e-11
-1.5356e-11
-9.02228e-11
-1.68605e-11
-9.30493e-11
-1.84362e-11
-9.57266e-11
-2.00834e-11
-9.82542e-11
-2.18021e-11
-1.00632e-10
-2.35925e-11
-1.02859e-10
-2.54546e-11
-1.04935e-10
-2.73888e-11
-1.0686e-10
-2.9395e-11
-1.08634e-10
-3.14734e-11
-1.10255e-10
-3.36241e-11
-1.11725e-10
-3.58473e-11
-1.13041e-10
-3.81431e-11
-1.14204e-10
-4.05117e-11
-1.15214e-10
-4.2953e-11
-1.1607e-10
-4.54673e-11
-1.16772e-10
-4.80556e-11
-1.17319e-10
-5.08778e-11
-1.17711e-10
-5.56231e-11
-1.17968e-10
-5.84014e-11
-1.18106e-10
-6.12017e-11
-1.1816e-10
-6.40002e-11
-1.18212e-10
-6.68e-11
-1.18261e-10
-6.96254e-11
-1.18262e-10
-7.24555e-11
-1.18139e-10
-7.52512e-11
-1.17917e-10
-7.80065e-11
-1.17604e-10
-8.07181e-11
-1.17201e-10
-8.33832e-11
-1.16715e-10
-1.1615e-10
-8.59998e-11
-3.34241e-14
-1.35541e-13
-3.0703e-13
-5.48004e-13
-8.58575e-13
-1.23885e-12
-1.68893e-12
-2.20893e-12
-2.79893e-12
-3.45903e-12
-4.18934e-12
-4.98995e-12
-5.86095e-12
-6.80244e-12
-7.81451e-12
-8.89726e-12
-1.00508e-11
-1.12752e-11
-1.25705e-11
-1.3937e-11
-1.53745e-11
-1.68834e-11
-1.84635e-11
-2.01151e-11
-2.18383e-11
-2.36331e-11
-2.54996e-11
-2.74379e-11
-2.9448e-11
-3.15302e-11
-3.36843e-11
-3.59106e-11
-3.8209e-11
-4.05797e-11
-4.30227e-11
-4.55379e-11
-4.81242e-11
-5.26284e-11
-5.64402e-11
-5.92068e-11
-6.19784e-11
-6.47483e-11
-6.75103e-11
-7.02704e-11
-7.30076e-11
-7.57141e-11
-7.83871e-11
-8.10235e-11
-8.36204e-11
-8.61755e-11
-6.53903e-11
-1.63317e-10
-6.68722e-11
-1.61071e-10
-6.80259e-11
-1.58316e-10
-6.88867e-11
-1.55569e-10
-6.95053e-11
-1.52828e-10
-6.9923e-11
-1.50096e-10
-7.01728e-11
-1.4737e-10
-7.02813e-11
-1.44652e-10
-7.02707e-11
-1.41941e-10
-7.01597e-11
-1.39238e-10
-6.99639e-11
-1.36546e-10
-6.96964e-11
-1.33864e-10
-6.93682e-11
-1.31194e-10
-6.89885e-11
-1.28539e-10
-6.85652e-11
-1.25899e-10
-6.81049e-11
-1.23275e-10
-6.76133e-11
-1.2067e-10
-6.70953e-11
-1.18085e-10
-6.65549e-11
-1.15521e-10
-6.59957e-11
-1.12979e-10
-6.54208e-11
-1.10462e-10
-6.48328e-11
-1.07969e-10
-6.42341e-11
-1.05503e-10
-6.36267e-11
-1.03065e-10
-6.30122e-11
-1.00654e-10
-6.23924e-11
-9.82736e-11
-6.17684e-11
-9.59233e-11
-6.11415e-11
-9.36042e-11
-6.05128e-11
-9.13171e-11
-5.98832e-11
-8.90628e-11
-5.92535e-11
-8.68419e-11
-5.86245e-11
-8.46551e-11
-5.79968e-11
-8.25029e-11
-5.7371e-11
-8.03857e-11
-5.67477e-11
-7.83041e-11
-5.61273e-11
-7.62585e-11
-5.55103e-11
-7.42491e-11
-5.48972e-11
-7.22762e-11
-5.42882e-11
-7.03401e-11
-5.36838e-11
-6.84409e-11
-5.30843e-11
-6.65789e-11
-5.249e-11
-6.4754e-11
-5.19013e-11
-6.29664e-11
-5.13184e-11
-6.1216e-11
-5.07416e-11
-5.95029e-11
-5.01714e-11
-5.78268e-11
-4.96079e-11
-5.61878e-11
-4.90516e-11
-5.45857e-11
-4.85027e-11
-5.30203e-11
-5.14898e-11
-4.79661e-11
-6.99094e-11
-1.6117e-10
-7.19433e-11
-1.59037e-10
-7.36434e-11
-1.56616e-10
-7.50575e-11
-1.54155e-10
-7.6222e-11
-1.51664e-10
-7.71691e-11
-1.49149e-10
-7.79267e-11
-1.46612e-10
-7.85185e-11
-1.4406e-10
-7.89646e-11
-1.41495e-10
-7.92826e-11
-1.3892e-10
-7.94876e-11
-1.36341e-10
-7.95927e-11
-1.33759e-10
-7.96094e-11
-1.31178e-10
-7.95476e-11
-1.28601e-10
-7.94161e-11
-1.2603e-10
-7.92229e-11
-1.23469e-10
-7.89746e-11
-1.20918e-10
-7.86774e-11
-1.18382e-10
-7.83368e-11
-1.15862e-10
-7.79575e-11
-1.13359e-10
-7.7544e-11
-1.10875e-10
-7.71001e-11
-1.08413e-10
-7.66293e-11
-1.05974e-10
-7.61346e-11
-1.03559e-10
-7.56191e-11
-1.0117e-10
-7.50851e-11
-9.88076e-11
-7.4535e-11
-9.64734e-11
-7.39709e-11
-9.41683e-11
-7.33946e-11
-9.18934e-11
-7.28079e-11
-8.96495e-11
-7.22123e-11
-8.74375e-11
-7.16092e-11
-8.52582e-11
-7.09999e-11
-8.31122e-11
-7.03856e-11
-8.10001e-11
-6.97673e-11
-7.89224e-11
-6.91461e-11
-7.68797e-11
-6.85229e-11
-7.48723e-11
-6.78986e-11
-7.29006e-11
-6.72738e-11
-7.09648e-11
-6.66495e-11
-6.90653e-11
-6.60262e-11
-6.72022e-11
-6.54047e-11
-6.53755e-11
-6.47856e-11
-6.35855e-11
-6.41695e-11
-6.18321e-11
-6.35571e-11
-6.01153e-11
-6.29488e-11
-5.8435e-11
-6.23454e-11
-5.67912e-11
-6.17474e-11
-5.51837e-11
-6.11553e-11
-5.36124e-11
-5.20779e-11
-6.05672e-11
-4.86083e-11
-1.58962e-10
-5.08754e-11
-1.5677e-10
-5.30314e-11
-1.5446e-10
-5.50678e-11
-1.52118e-10
-5.69836e-11
-1.49748e-10
-5.87796e-11
-1.47353e-10
-6.04577e-11
-1.44934e-10
-6.20205e-11
-1.42497e-10
-6.3471e-11
-1.40044e-10
-6.48128e-11
-1.37579e-10
-6.60497e-11
-1.35104e-10
-6.71858e-11
-1.32623e-10
-6.82252e-11
-1.30138e-10
-6.91725e-11
-1.27653e-10
-7.00319e-11
-1.25171e-10
-7.08079e-11
-1.22693e-10
-7.15048e-11
-1.20222e-10
-7.2127e-11
-1.1776e-10
-7.26785e-11
-1.1531e-10
-7.31636e-11
-1.12874e-10
-7.3586e-11
-1.10453e-10
-7.39497e-11
-1.0805e-10
-7.42581e-11
-1.05666e-10
-7.45147e-11
-1.03303e-10
-7.47228e-11
-1.00962e-10
-7.48854e-11
-9.8645e-11
-7.50056e-11
-9.63532e-11
-7.5086e-11
-9.40879e-11
-7.51293e-11
-9.18501e-11
-7.51379e-11
-8.96409e-11
-7.51142e-11
-8.74612e-11
-7.50603e-11
-8.53121e-11
-7.49783e-11
-8.31942e-11
-7.48701e-11
-8.11083e-11
-7.47375e-11
-7.9055e-11
-7.45823e-11
-7.70349e-11
-7.44059e-11
-7.50486e-11
-7.421e-11
-7.30965e-11
-7.39959e-11
-7.11789e-11
-7.37651e-11
-6.92961e-11
-7.35187e-11
-6.74485e-11
-7.3258e-11
-6.56362e-11
-7.29841e-11
-6.38594e-11
-7.26981e-11
-6.21181e-11
-7.24011e-11
-6.04124e-11
-7.20939e-11
-5.87422e-11
-7.17776e-11
-5.71075e-11
-7.14531e-11
-5.55083e-11
-7.1121e-11
-5.39444e-11
-5.24155e-11
-7.07835e-11
-5.69547e-11
-1.56258e-10
-5.94822e-11
-1.54243e-10
-6.18181e-11
-1.52124e-10
-6.39811e-11
-1.49955e-10
-6.59861e-11
-1.47743e-10