/*--------------------------------*- C++ -*----------------------------------*\
| =========                 |                                                 |
| \\      /  F ield         | OpenFOAM: The Open Source CFD Toolbox           |
|  \\    /   O peration     | Version:  2.4.0                                 |
|   \\  /    A nd           | Web:      www.OpenFOAM.org                      |
|    \\/     M anipulation  |                                                 |
\*---------------------------------------------------------------------------*/
FoamFile
{
    version     2.0;
    format      ascii;
    class       volScalarField;
    location    "0.009";
    object      H;
}
// * * * * * * * * * * * * * * * * * * * * * * * * * * * * * * * * * * * * * //

dimensions      [0 2 -2 0 0 0 0];

internalField   nonuniform List<scalar> 
125
(
-0.784342
-0.724908
-0.669779
-0.618639
-0.571196
-0.527183
-0.486353
-0.448479
-0.413352
-0.380777
-0.350576
-0.322583
-0.296645
-0.27262
-0.250377
-0.229791
-0.210749
-0.193145
-0.17688
-0.16186
-0.147999
-0.135217
-0.123438
-0.112592
-0.102611
-0.0934352
-0.0850055
-0.0772679
-0.0701718
-0.0636696
-0.0577171
-0.0522726
-0.0472976
-0.0427558
-0.0386134
-0.034839
-0.0314032
-0.0282788
-0.0254404
-0.0228644
-0.0205289
-0.0184137
-0.0164999
-0.0147701
-0.0132084
-0.0117998
-0.0105307
-0.00938851
-0.00836159
-0.00743932
-0.00661193
-0.00587046
-0.0052067
-0.00461316
-0.00408299
-0.00360995
-0.00318833
-0.00281298
-0.00247917
-0.00218265
-0.00191953
-0.00168632
-0.00147985
-0.00129726
-0.00113596
-0.000993644
-0.000868208
-0.000757778
-0.000660669
-0.000575372
-0.000500535
-0.000434951
-0.000377541
-0.000327344
-0.000283505
-0.000245262
-0.00021194
-0.000182939
-0.000157727
-0.000135836
-0.00011685
-0.000100403
-8.61723e-05
-7.38733e-05
-6.32564e-05
-5.41025e-05
-4.62193e-05
-3.94385e-05
-3.36129e-05
-2.8614e-05
-2.43295e-05
-2.06619e-05
-1.75261e-05
-1.48482e-05
-1.25643e-05
-1.06186e-05
-8.96322e-06
-7.55655e-06
-6.3627e-06
-5.35073e-06
-4.49404e-06
-3.76973e-06
-3.15808e-06
-2.64228e-06
-2.20781e-06
-1.84241e-06
-1.53542e-06
-1.27788e-06
-1.06212e-06
-8.81594e-07
-7.30736e-07
-6.04873e-07
-4.99974e-07
-4.12702e-07
-3.40173e-07
-2.79989e-07
-2.30116e-07
-1.88862e-07
-1.5477e-07
-1.26638e-07
-1.03461e-07
-8.44007e-08
-6.87558e-08
-5.5907e-08
-4.5399e-08
)
;

boundaryField
{
    BotWall
    {
        type            zeroGradient;
    }
    FreeStream
    {
        type            zeroGradient;
    }
    FrontNBack
    {
        type            empty;
    }
    LeftSide
    {
        type            symmetryPlane;
    }
    RightSide
    {
        type            symmetryPlane;
    }
    procBoundary3to0
    {
        type            processor;
        value           nonuniform List<scalar> 
50
(
-0.000236785
-0.000204575
-0.000176549
-0.000152193
-0.000131049
-0.000112716
-9.6838e-05
-8.31023e-05
-7.12336e-05
-6.09903e-05
-5.21599e-05
-4.45565e-05
-3.80174e-05
-3.24002e-05
-2.75806e-05
-2.34503e-05
-1.9915e-05
-1.68925e-05
-1.43116e-05
-1.21104e-05
-1.02354e-05
-8.64008e-06
-7.28447e-06
-6.13398e-06
-5.15874e-06
-4.33312e-06
-3.63504e-06
-3.04554e-06
-2.54837e-06
-2.12959e-06
-1.77731e-06
-1.48135e-06
-1.23304e-06
-1.02498e-06
-8.50874e-07
-7.05387e-07
-5.83954e-07
-4.82769e-07
-3.9855e-07
-3.2856e-07
-2.70472e-07
-2.22329e-07
-1.82499e-07
-1.49577e-07
-1.22425e-07
-1.00028e-07
-8.16271e-08
-6.64892e-08
-5.40908e-08
-4.39235e-08
)
;
    }
    procBoundary3to1
    {
        type            processor;
        value           nonuniform List<scalar> 
75
(
-0.771962
-0.713706
-0.65963
-0.60943
-0.562827
-0.519564
-0.479404
-0.442129
-0.407538
-0.375445
-0.345676
-0.318073
-0.292488
-0.268782
-0.246827
-0.226505
-0.207705
-0.190321
-0.174259
-0.159426
-0.145739
-0.133117
-0.121487
-0.110779
-0.100928
-0.0918724
-0.0835553
-0.0759232
-0.0689256
-0.0625158
-0.0566497
-0.0512862
-0.0463868
-0.0419158
-0.0378395
-0.0341268
-0.0307487
-0.0276779
-0.0248895
-0.0223599
-0.0200676
-0.0179924
-0.0161156
-0.0144202
-0.0128901
-0.0115106
-0.0102684
-0.00915089
-0.00814664
-0.00724515
-0.00643677
-0.00571267
-0.00506476
-0.00448566
-0.00396862
-0.0035075
-0.0030967
-0.00273112
-0.00240616
-0.00211762
-0.00186169
-0.00163495
-0.00143429
-0.0012569
-0.00110027
-0.000962116
-0.000840398
-0.000733282
-0.000639121
-0.000556441
-0.000483925
-0.000420395
-0.0003648
-0.000316204
-0.000273775
)
;
    }
    procBoundary3to2
    {
        type            processor;
        value           uniform -3.6805e-08;
    }
    procBoundary3to4
    {
        type            processor;
        value           uniform -0.848448;
    }
    procBoundary3to5
    {
        type            processor;
        value           nonuniform List<scalar> 
75
(
-0.00661791
-0.0058759
-0.00521165
-0.00461766
-0.00408708
-0.00361365
-0.00319169
-0.00281601
-0.00248191
-0.00218511
-0.00192175
-0.00168832
-0.00148164
-0.00129886
-0.0011374
-0.000994927
-0.000869352
-0.000758797
-0.000661575
-0.000576176
-0.000501248
-0.000435582
-0.000378098
-0.000327836
-0.000283938
-0.000245643
-0.000212274
-0.000183231
-0.000157983
-0.00013606
-0.000117045
-0.000100573
-8.63193e-05
-7.40006e-05
-6.33666e-05
-5.41977e-05
-4.63014e-05
-3.95092e-05
-3.36737e-05
-2.86661e-05
-2.43742e-05
-2.07001e-05
-1.75587e-05
-1.48761e-05
-1.2588e-05
-1.06388e-05
-8.98033e-06
-7.57105e-06
-6.37497e-06
-5.36111e-06
-4.5028e-06
-3.77708e-06
-3.16429e-06
-2.64748e-06
-2.21221e-06
-1.84606e-06
-1.5385e-06
-1.28044e-06
-1.06427e-06
-8.83372e-07
-7.32227e-07
-6.06112e-07
-5.01011e-07
-4.13562e-07
-3.40862e-07
-2.80579e-07
-2.30613e-07
-1.89261e-07
-1.55106e-07
-1.26914e-07
-1.03694e-07
-8.45905e-08
-6.89086e-08
-5.60486e-08
-4.55029e-08
)
;
    }
    procBoundary3to6
    {
        type            processor;
        value           nonuniform List<scalar> 
50
(
-0.785172
-0.725653
-0.670449
-0.619242
-0.571739
-0.527673
-0.486796
-0.448879
-0.413714
-0.381105
-0.350874
-0.322854
-0.296892
-0.272846
-0.250583
-0.22998
-0.210922
-0.193304
-0.177025
-0.161994
-0.148123
-0.135331
-0.123543
-0.112688
-0.1027
-0.093517
-0.0850809
-0.0773373
-0.0702357
-0.0637285
-0.0577712
-0.0523224
-0.0473433
-0.0427976
-0.0386517
-0.034874
-0.0314352
-0.0283079
-0.0254668
-0.0228883
-0.0205506
-0.0184332
-0.0165174
-0.0147858
-0.0132223
-0.0118121
-0.0105415
-0.00939788
-0.00836965
-0.00744615
)
;
    }
}


// ************************************************************************* //
