/*--------------------------------*- C++ -*----------------------------------*\
| =========                 |                                                 |
| \\      /  F ield         | OpenFOAM: The Open Source CFD Toolbox           |
|  \\    /   O peration     | Version:  2.4.0                                 |
|   \\  /    A nd           | Web:      www.OpenFOAM.org                      |
|    \\/     M anipulation  |                                                 |
\*---------------------------------------------------------------------------*/
FoamFile
{
    version     2.0;
    format      ascii;
    class       volVectorField;
    location    "0.009";
    object      U;
}
// * * * * * * * * * * * * * * * * * * * * * * * * * * * * * * * * * * * * * //

dimensions      [0 1 -1 0 0 0 0];

internalField   nonuniform List<vector> 
125
(
(1.45047e-05 -0.0202415 0)
(1.4354e-05 -0.0202414 0)
(1.42059e-05 -0.0202413 0)
(1.40604e-05 -0.0202413 0)
(1.39172e-05 -0.0202412 0)
(1.37764e-05 -0.0202411 0)
(1.36377e-05 -0.0202411 0)
(1.35011e-05 -0.020241 0)
(1.33666e-05 -0.0202409 0)
(1.3234e-05 -0.0202409 0)
(1.31033e-05 -0.0202408 0)
(1.29745e-05 -0.0202407 0)
(1.28474e-05 -0.0202407 0)
(1.2722e-05 -0.0202406 0)
(1.25982e-05 -0.0202405 0)
(1.24761e-05 -0.0202405 0)
(1.23554e-05 -0.0202404 0)
(1.22363e-05 -0.0202404 0)
(1.21186e-05 -0.0202403 0)
(1.20024e-05 -0.0202402 0)
(1.18875e-05 -0.0202402 0)
(1.17739e-05 -0.0202401 0)
(1.16616e-05 -0.0202401 0)
(1.15506e-05 -0.02024 0)
(1.14408e-05 -0.02024 0)
(1.13322e-05 -0.0202399 0)
(1.12247e-05 -0.0202398 0)
(1.11183e-05 -0.0202398 0)
(1.1013e-05 -0.0202397 0)
(1.09088e-05 -0.0202397 0)
(1.08056e-05 -0.0202396 0)
(1.07034e-05 -0.0202396 0)
(1.06021e-05 -0.0202395 0)
(1.05018e-05 -0.0202395 0)
(1.04024e-05 -0.0202394 0)
(1.03039e-05 -0.0202394 0)
(1.02063e-05 -0.0202393 0)
(1.01096e-05 -0.0202393 0)
(1.00136e-05 -0.0202392 0)
(9.91848e-06 -0.0202392 0)
(9.82412e-06 -0.0202391 0)
(9.73052e-06 -0.0202391 0)
(9.63767e-06 -0.020239 0)
(9.54554e-06 -0.020239 0)
(9.45412e-06 -0.0202389 0)
(9.36338e-06 -0.0202389 0)
(9.27332e-06 -0.0202388 0)
(9.18391e-06 -0.0202388 0)
(9.09514e-06 -0.0202387 0)
(9.007e-06 -0.0202387 0)
(8.91947e-06 -0.0202387 0)
(8.83254e-06 -0.0202386 0)
(8.74618e-06 -0.0202386 0)
(8.6604e-06 -0.0202385 0)
(8.57518e-06 -0.0202385 0)
(8.49051e-06 -0.0202384 0)
(8.40638e-06 -0.0202384 0)
(8.32277e-06 -0.0202383 0)
(8.23969e-06 -0.0202383 0)
(8.15712e-06 -0.0202383 0)
(8.07504e-06 -0.0202382 0)
(7.99347e-06 -0.0202382 0)
(7.91238e-06 -0.0202381 0)
(7.83177e-06 -0.0202381 0)
(7.75165e-06 -0.020238 0)
(7.67199e-06 -0.020238 0)
(7.5928e-06 -0.020238 0)
(7.51407e-06 -0.0202379 0)
(7.43581e-06 -0.0202379 0)
(7.358e-06 -0.0202378 0)
(7.28064e-06 -0.0202378 0)
(7.20374e-06 -0.0202378 0)
(7.12729e-06 -0.0202377 0)
(7.0513e-06 -0.0202377 0)
(6.97575e-06 -0.0202376 0)
(6.90066e-06 -0.0202376 0)
(6.82601e-06 -0.0202376 0)
(6.75182e-06 -0.0202375 0)
(6.67808e-06 -0.0202375 0)
(6.6048e-06 -0.0202375 0)
(6.53198e-06 -0.0202374 0)
(6.45961e-06 -0.0202374 0)
(6.38771e-06 -0.0202373 0)
(6.31627e-06 -0.0202373 0)
(6.2453e-06 -0.0202373 0)
(6.1748e-06 -0.0202372 0)
(6.10478e-06 -0.0202372 0)
(6.03524e-06 -0.0202372 0)
(5.96618e-06 -0.0202371 0)
(5.8976e-06 -0.0202371 0)
(5.82952e-06 -0.020237 0)
(5.76193e-06 -0.020237 0)
(5.69483e-06 -0.020237 0)
(5.62823e-06 -0.0202369 0)
(5.56214e-06 -0.0202369 0)
(5.49655e-06 -0.0202369 0)
(5.43147e-06 -0.0202368 0)
(5.36689e-06 -0.0202368 0)
(5.30282e-06 -0.0202368 0)
(5.23926e-06 -0.0202367 0)
(5.17619e-06 -0.0202367 0)
(5.11362e-06 -0.0202367 0)
(5.05155e-06 -0.0202366 0)
(4.98995e-06 -0.0202366 0)
(4.92883e-06 -0.0202366 0)
(4.86817e-06 -0.0202365 0)
(4.80795e-06 -0.0202365 0)
(4.74816e-06 -0.0202365 0)
(4.68878e-06 -0.0202364 0)
(4.62977e-06 -0.0202364 0)
(4.57112e-06 -0.0202364 0)
(4.51278e-06 -0.0202363 0)
(4.45472e-06 -0.0202363 0)
(4.3969e-06 -0.0202363 0)
(4.33927e-06 -0.0202362 0)
(4.28177e-06 -0.0202362 0)
(4.22435e-06 -0.0202362 0)
(4.16694e-06 -0.0202361 0)
(4.10947e-06 -0.0202361 0)
(4.05187e-06 -0.0202361 0)
(3.99404e-06 -0.020236 0)
(3.93591e-06 -0.020236 0)
(3.87736e-06 -0.020236 0)
(3.8183e-06 -0.0202359 0)
(3.75863e-06 -0.0202359 0)
)
;

boundaryField
{
    BotWall
    {
        type            fixedValue;
        value           nonuniform 0();
    }
    FreeStream
    {
        type            zeroGradient;
    }
    FrontNBack
    {
        type            empty;
    }
    LeftSide
    {
        type            symmetryPlane;
    }
    RightSide
    {
        type            symmetryPlane;
    }
    procBoundary3to0
    {
        type            processor;
        value           nonuniform List<vector> 
50
(
(5.90317e-06 -0.0202227 0)
(5.88741e-06 -0.0202228 0)
(5.87194e-06 -0.0202228 0)
(5.85677e-06 -0.0202229 0)
(5.84189e-06 -0.0202229 0)
(5.8273e-06 -0.020223 0)
(5.81299e-06 -0.0202231 0)
(5.79898e-06 -0.0202231 0)
(5.78525e-06 -0.0202232 0)
(5.7718e-06 -0.0202232 0)
(5.75865e-06 -0.0202233 0)
(5.74578e-06 -0.0202233 0)
(5.73321e-06 -0.0202234 0)
(5.72093e-06 -0.0202234 0)
(5.70894e-06 -0.0202235 0)
(5.69725e-06 -0.0202235 0)
(5.68586e-06 -0.0202236 0)
(5.67477e-06 -0.0202236 0)
(5.66398e-06 -0.0202237 0)
(5.6535e-06 -0.0202238 0)
(5.64333e-06 -0.0202238 0)
(5.63347e-06 -0.0202239 0)
(5.62391e-06 -0.0202239 0)
(5.61466e-06 -0.020224 0)
(5.60573e-06 -0.020224 0)
(5.59709e-06 -0.0202241 0)
(5.58876e-06 -0.0202241 0)
(5.58073e-06 -0.0202242 0)
(5.57299e-06 -0.0202242 0)
(5.56554e-06 -0.0202243 0)
(5.55836e-06 -0.0202243 0)
(5.55144e-06 -0.0202244 0)
(5.54476e-06 -0.0202244 0)
(5.53832e-06 -0.0202245 0)
(5.53208e-06 -0.0202245 0)
(5.52602e-06 -0.0202246 0)
(5.52012e-06 -0.0202246 0)
(5.51434e-06 -0.0202247 0)
(5.50865e-06 -0.0202247 0)
(5.503e-06 -0.0202248 0)
(5.49736e-06 -0.0202248 0)
(5.49166e-06 -0.0202249 0)
(5.48586e-06 -0.0202249 0)
(5.47989e-06 -0.020225 0)
(5.47368e-06 -0.020225 0)
(5.46718e-06 -0.0202251 0)
(5.46029e-06 -0.0202251 0)
(5.45293e-06 -0.0202252 0)
(5.44502e-06 -0.0202252 0)
(5.43647e-06 -0.0202253 0)
)
;
    }
    procBoundary3to1
    {
        type            processor;
        value           nonuniform List<vector> 
75
(
(8.86969e-06 -0.0202179 0)
(8.78442e-06 -0.020218 0)
(8.70149e-06 -0.020218 0)
(8.6208e-06 -0.0202181 0)
(8.54227e-06 -0.0202182 0)
(8.4658e-06 -0.0202183 0)
(8.39133e-06 -0.0202183 0)
(8.31877e-06 -0.0202184 0)
(8.24807e-06 -0.0202185 0)
(8.17916e-06 -0.0202186 0)
(8.11197e-06 -0.0202186 0)
(8.04646e-06 -0.0202187 0)
(7.98258e-06 -0.0202188 0)
(7.92027e-06 -0.0202188 0)
(7.85949e-06 -0.0202189 0)
(7.8002e-06 -0.020219 0)
(7.74235e-06 -0.0202191 0)
(7.6859e-06 -0.0202191 0)
(7.63082e-06 -0.0202192 0)
(7.57706e-06 -0.0202193 0)
(7.5246e-06 -0.0202193 0)
(7.47339e-06 -0.0202194 0)
(7.42341e-06 -0.0202195 0)
(7.37463e-06 -0.0202195 0)
(7.327e-06 -0.0202196 0)
(7.28051e-06 -0.0202197 0)
(7.23512e-06 -0.0202197 0)
(7.1908e-06 -0.0202198 0)
(7.14753e-06 -0.0202199 0)
(7.10528e-06 -0.0202199 0)
(7.06403e-06 -0.02022 0)
(7.02374e-06 -0.0202201 0)
(6.98439e-06 -0.0202201 0)
(6.94597e-06 -0.0202202 0)
(6.90843e-06 -0.0202203 0)
(6.87177e-06 -0.0202203 0)
(6.83595e-06 -0.0202204 0)
(6.80096e-06 -0.0202205 0)
(6.76677e-06 -0.0202205 0)
(6.73336e-06 -0.0202206 0)
(6.70072e-06 -0.0202207 0)
(6.66881e-06 -0.0202207 0)
(6.63762e-06 -0.0202208 0)
(6.60713e-06 -0.0202208 0)
(6.57732e-06 -0.0202209 0)
(6.54817e-06 -0.020221 0)
(6.51966e-06 -0.020221 0)
(6.49177e-06 -0.0202211 0)
(6.46449e-06 -0.0202212 0)
(6.43779e-06 -0.0202212 0)
(6.41167e-06 -0.0202213 0)
(6.3861e-06 -0.0202213 0)
(6.36106e-06 -0.0202214 0)
(6.33655e-06 -0.0202215 0)
(6.31254e-06 -0.0202215 0)
(6.28902e-06 -0.0202216 0)
(6.26598e-06 -0.0202216 0)
(6.24341e-06 -0.0202217 0)
(6.22128e-06 -0.0202218 0)
(6.19958e-06 -0.0202218 0)
(6.17831e-06 -0.0202219 0)
(6.15746e-06 -0.0202219 0)
(6.137e-06 -0.020222 0)
(6.11692e-06 -0.020222 0)
(6.09723e-06 -0.0202221 0)
(6.07791e-06 -0.0202222 0)
(6.05894e-06 -0.0202222 0)
(6.04033e-06 -0.0202223 0)
(6.02205e-06 -0.0202223 0)
(6.00412e-06 -0.0202224 0)
(5.98651e-06 -0.0202224 0)
(5.96922e-06 -0.0202225 0)
(5.95224e-06 -0.0202226 0)
(5.93558e-06 -0.0202226 0)
(5.91922e-06 -0.0202227 0)
)
;
    }
    procBoundary3to2
    {
        type            processor;
        value           uniform (3.69821e-06 -0.0202359 0);
    }
    procBoundary3to4
    {
        type            processor;
        value           uniform (1.46581e-05 -0.0202415 0);
    }
    procBoundary3to5
    {
        type            processor;
        value           nonuniform List<vector> 
75
(
(-5.01971e-06 -0.0202384 0)
(-4.92091e-06 -0.0202384 0)
(-4.8237e-06 -0.0202383 0)
(-4.72807e-06 -0.0202382 0)
(-4.63401e-06 -0.0202382 0)
(-4.5415e-06 -0.0202381 0)
(-4.45052e-06 -0.020238 0)
(-4.36105e-06 -0.020238 0)
(-4.27307e-06 -0.0202379 0)
(-4.18658e-06 -0.0202379 0)
(-4.10154e-06 -0.0202378 0)
(-4.01793e-06 -0.0202377 0)
(-3.93575e-06 -0.0202377 0)
(-3.85496e-06 -0.0202376 0)
(-3.77555e-06 -0.0202376 0)
(-3.6975e-06 -0.0202375 0)
(-3.62079e-06 -0.0202375 0)
(-3.5454e-06 -0.0202374 0)
(-3.4713e-06 -0.0202373 0)
(-3.39848e-06 -0.0202373 0)
(-3.32692e-06 -0.0202372 0)
(-3.25659e-06 -0.0202372 0)
(-3.18748e-06 -0.0202371 0)
(-3.11956e-06 -0.0202371 0)
(-3.05281e-06 -0.020237 0)
(-2.98722e-06 -0.020237 0)
(-2.92275e-06 -0.0202369 0)
(-2.8594e-06 -0.0202369 0)
(-2.79714e-06 -0.0202368 0)
(-2.73594e-06 -0.0202368 0)
(-2.6758e-06 -0.0202367 0)
(-2.61668e-06 -0.0202367 0)
(-2.55857e-06 -0.0202366 0)
(-2.50145e-06 -0.0202366 0)
(-2.4453e-06 -0.0202365 0)
(-2.39009e-06 -0.0202365 0)
(-2.33581e-06 -0.0202364 0)
(-2.28243e-06 -0.0202364 0)
(-2.22994e-06 -0.0202363 0)
(-2.17832e-06 -0.0202363 0)
(-2.12753e-06 -0.0202362 0)
(-2.07758e-06 -0.0202362 0)
(-2.02842e-06 -0.0202361 0)
(-1.98005e-06 -0.0202361 0)
(-1.93243e-06 -0.0202361 0)
(-1.88556e-06 -0.020236 0)
(-1.83939e-06 -0.020236 0)
(-1.79392e-06 -0.0202359 0)
(-1.74911e-06 -0.0202359 0)
(-1.70495e-06 -0.0202358 0)
(-1.6614e-06 -0.0202358 0)
(-1.61844e-06 -0.0202357 0)
(-1.57603e-06 -0.0202357 0)
(-1.53416e-06 -0.0202357 0)
(-1.49278e-06 -0.0202356 0)
(-1.45187e-06 -0.0202356 0)
(-1.41138e-06 -0.0202355 0)
(-1.37128e-06 -0.0202355 0)
(-1.33153e-06 -0.0202355 0)
(-1.29209e-06 -0.0202354 0)
(-1.25291e-06 -0.0202354 0)
(-1.21394e-06 -0.0202353 0)
(-1.17514e-06 -0.0202353 0)
(-1.13644e-06 -0.0202353 0)
(-1.09779e-06 -0.0202352 0)
(-1.05913e-06 -0.0202352 0)
(-1.0204e-06 -0.0202352 0)
(-9.81512e-07 -0.0202351 0)
(-9.42407e-07 -0.0202351 0)
(-9.03005e-07 -0.020235 0)
(-8.63223e-07 -0.020235 0)
(-8.22975e-07 -0.020235 0)
(-7.82175e-07 -0.0202349 0)
(-7.40725e-07 -0.0202349 0)
(-6.98531e-07 -0.0202349 0)
)
;
    }
    procBoundary3to6
    {
        type            processor;
        value           nonuniform List<vector> 
50
(
(-1.22874e-05 -0.0202423 0)
(-1.20912e-05 -0.0202422 0)
(-1.18976e-05 -0.0202421 0)
(-1.17064e-05 -0.020242 0)
(-1.15176e-05 -0.0202419 0)
(-1.13312e-05 -0.0202418 0)
(-1.11471e-05 -0.0202417 0)
(-1.09652e-05 -0.0202417 0)
(-1.07856e-05 -0.0202416 0)
(-1.06082e-05 -0.0202415 0)
(-1.0433e-05 -0.0202414 0)
(-1.02599e-05 -0.0202413 0)
(-1.00889e-05 -0.0202412 0)
(-9.92e-06 -0.0202411 0)
(-9.75319e-06 -0.0202411 0)
(-9.58843e-06 -0.020241 0)
(-9.4257e-06 -0.0202409 0)
(-9.265e-06 -0.0202408 0)
(-9.1063e-06 -0.0202407 0)
(-8.94959e-06 -0.0202406 0)
(-8.79487e-06 -0.0202406 0)
(-8.6421e-06 -0.0202405 0)
(-8.4913e-06 -0.0202404 0)
(-8.34243e-06 -0.0202403 0)
(-8.1955e-06 -0.0202402 0)
(-8.05049e-06 -0.0202402 0)
(-7.90739e-06 -0.0202401 0)
(-7.76619e-06 -0.02024 0)
(-7.62688e-06 -0.0202399 0)
(-7.48946e-06 -0.0202399 0)
(-7.35391e-06 -0.0202398 0)
(-7.22022e-06 -0.0202397 0)
(-7.08838e-06 -0.0202396 0)
(-6.95838e-06 -0.0202396 0)
(-6.83022e-06 -0.0202395 0)
(-6.70388e-06 -0.0202394 0)
(-6.57936e-06 -0.0202394 0)
(-6.45663e-06 -0.0202393 0)
(-6.3357e-06 -0.0202392 0)
(-6.21654e-06 -0.0202391 0)
(-6.09915e-06 -0.0202391 0)
(-5.98352e-06 -0.020239 0)
(-5.86964e-06 -0.0202389 0)
(-5.75748e-06 -0.0202389 0)
(-5.64704e-06 -0.0202388 0)
(-5.53831e-06 -0.0202387 0)
(-5.43127e-06 -0.0202387 0)
(-5.3259e-06 -0.0202386 0)
(-5.2222e-06 -0.0202385 0)
(-5.12014e-06 -0.0202385 0)
)
;
    }
}


// ************************************************************************* //
