/*--------------------------------*- C++ -*----------------------------------*\
| =========                 |                                                 |
| \\      /  F ield         | OpenFOAM: The Open Source CFD Toolbox           |
|  \\    /   O peration     | Version:  2.4.0                                 |
|   \\  /    A nd           | Web:      www.OpenFOAM.org                      |
|    \\/     M anipulation  |                                                 |
\*---------------------------------------------------------------------------*/
FoamFile
{
    version     2.0;
    format      ascii;
    class       volScalarField;
    location    "0.2";
    object      p;
}
// * * * * * * * * * * * * * * * * * * * * * * * * * * * * * * * * * * * * * //

dimensions      [1 -1 -2 0 0 0 0];

internalField   nonuniform List<scalar> 
125
(
-0.0578124
-0.0578124
-0.0578124
-0.0578124
-0.0578124
-0.0589461
-0.0589461
-0.0589461
-0.0589461
-0.0589461
-0.0600925
-0.0600925
-0.0600925
-0.0600925
-0.0600925
-0.0612516
-0.0612516
-0.0612516
-0.0612516
-0.0612516
-0.0624237
-0.0624237
-0.0624237
-0.0624237
-0.0624237
-0.0636089
-0.0636089
-0.0636089
-0.0636089
-0.0636089
-0.0648073
-0.0648073
-0.0648073
-0.0648073
-0.0648073
-0.0660191
-0.0660191
-0.0660191
-0.0660191
-0.0660191
-0.0672444
-0.0672444
-0.0672444
-0.0672444
-0.0672444
-0.0684834
-0.0684834
-0.0684834
-0.0684834
-0.0684834
-0.0697362
-0.0697362
-0.0697362
-0.0697362
-0.0697362
-0.071003
-0.071003
-0.071003
-0.071003
-0.071003
-0.0722839
-0.0722839
-0.0722839
-0.0722839
-0.0722839
-0.0735791
-0.0735791
-0.0735791
-0.0735791
-0.0735791
-0.0748888
-0.0748888
-0.0748888
-0.0748888
-0.0748888
-0.0762131
-0.0762131
-0.0762131
-0.0762131
-0.0762131
-0.0775521
-0.0775521
-0.0775521
-0.0775521
-0.0775521
-0.0789061
-0.0789061
-0.0789061
-0.0789061
-0.0789061
-0.0802752
-0.0802752
-0.0802752
-0.0802752
-0.0802753
-0.0816596
-0.0816596
-0.0816596
-0.0816596
-0.0816596
-0.0830595
-0.0830595
-0.0830595
-0.0830595
-0.0830595
-0.0844749
-0.0844749
-0.0844749
-0.0844749
-0.0844749
-0.0859062
-0.0859062
-0.0859062
-0.0859062
-0.0859062
-0.0873534
-0.0873534
-0.0873534
-0.0873534
-0.0873534
-0.0888168
-0.0888168
-0.0888168
-0.0888168
-0.0888168
)
;

boundaryField
{
    BotWall
    {
        type            calculated;
        value           nonuniform 0();
    }
    FreeStream
    {
        type            calculated;
        value           nonuniform List<scalar> 5(-0.0895525 -0.0895525 -0.0895525 -0.0895525 -0.0895525);
    }
    FrontNBack
    {
        type            empty;
    }
    LeftSide
    {
        type            symmetryPlane;
    }
    RightSide
    {
        type            symmetryPlane;
    }
    procBoundary3to2
    {
        type            processor;
        value           nonuniform List<scalar> 5(-0.0566911 -0.0566911 -0.0566911 -0.0566911 -0.0566911);
    }
}


// ************************************************************************* //
