/*--------------------------------*- C++ -*----------------------------------*\
| =========                 |                                                 |
| \\      /  F ield         | OpenFOAM: The Open Source CFD Toolbox           |
|  \\    /   O peration     | Version:  2.4.0                                 |
|   \\  /    A nd           | Web:      www.OpenFOAM.org                      |
|    \\/     M anipulation  |                                                 |
\*---------------------------------------------------------------------------*/
FoamFile
{
    version     2.0;
    format      ascii;
    class       volScalarField;
    location    "0.7";
    object      H;
}
// * * * * * * * * * * * * * * * * * * * * * * * * * * * * * * * * * * * * * //

dimensions      [0 2 -2 0 0 0 0];

internalField   nonuniform List<scalar> 
125
(
-21.1391
-21.1389
-21.1388
-21.1388
-21.1391
-20.8501
-20.8499
-20.8498
-20.8498
-20.8501
-20.5477
-20.5476
-20.5475
-20.5475
-20.5477
-20.2324
-20.2322
-20.2321
-20.2321
-20.2324
-19.9043
-19.9041
-19.904
-19.904
-19.9043
-19.5637
-19.5636
-19.5635
-19.5635
-19.5637
-19.2111
-19.211
-19.2109
-19.2109
-19.2111
-18.8468
-18.8467
-18.8466
-18.8466
-18.8468
-18.4712
-18.471
-18.471
-18.4709
-18.4711
-18.0846
-18.0845
-18.0844
-18.0844
-18.0846
-17.6877
-17.6876
-17.6875
-17.6875
-17.6877
-17.2808
-17.2807
-17.2806
-17.2806
-17.2807
-16.8644
-16.8643
-16.8642
-16.8642
-16.8643
-16.439
-16.4389
-16.4388
-16.4388
-16.439
-16.0052
-16.0051
-16.005
-16.005
-16.0052
-15.5635
-15.5634
-15.5634
-15.5634
-15.5635
-15.1145
-15.1144
-15.1144
-15.1144
-15.1145
-14.6588
-14.6587
-14.6587
-14.6587
-14.6588
-14.197
-14.1969
-14.1968
-14.1968
-14.1969
-13.7296
-13.7295
-13.7295
-13.7295
-13.7296
-13.2573
-13.2573
-13.2572
-13.2572
-13.2573
-12.7808
-12.7808
-12.7807
-12.7807
-12.7808
-12.3007
-12.3007
-12.3006
-12.3006
-12.3007
-11.8176
-11.8176
-11.8175
-11.8175
-11.8176
-11.3322
-11.3322
-11.3321
-11.3321
-11.3322
)
;

boundaryField
{
    BotWall
    {
        type            zeroGradient;
    }
    FreeStream
    {
        type            zeroGradient;
    }
    FrontNBack
    {
        type            empty;
    }
    LeftSide
    {
        type            symmetryPlane;
    }
    RightSide
    {
        type            symmetryPlane;
    }
    procBoundary2to1
    {
        type            processor;
        value           nonuniform List<scalar> 5(-21.4127 -21.4125 -21.4124 -21.4124 -21.4127);
    }
    procBoundary2to3
    {
        type            processor;
        value           nonuniform List<scalar> 5(-10.8445 -10.8444 -10.8444 -10.8444 -10.8444);
    }
}


// ************************************************************************* //
