/*--------------------------------*- C++ -*----------------------------------*\
| =========                 |                                                 |
| \\      /  F ield         | OpenFOAM: The Open Source CFD Toolbox           |
|  \\    /   O peration     | Version:  2.4.0                                 |
|   \\  /    A nd           | Web:      www.OpenFOAM.org                      |
|    \\/     M anipulation  |                                                 |
\*---------------------------------------------------------------------------*/
FoamFile
{
    version     2.0;
    format      ascii;
    class       volScalarField;
    location    "0.7";
    object      p;
}
// * * * * * * * * * * * * * * * * * * * * * * * * * * * * * * * * * * * * * //

dimensions      [1 -1 -2 0 0 0 0];

internalField   nonuniform List<scalar> 
125
(
-0.0330975
-0.0330975
-0.0330975
-0.0330975
-0.0330975
-0.0339573
-0.0339573
-0.0339573
-0.0339573
-0.0339573
-0.0348267
-0.0348267
-0.0348267
-0.0348267
-0.0348267
-0.0357057
-0.0357057
-0.0357057
-0.0357057
-0.0357057
-0.0365946
-0.0365946
-0.0365946
-0.0365946
-0.0365946
-0.0374934
-0.0374934
-0.0374934
-0.0374934
-0.0374934
-0.0384023
-0.0384023
-0.0384023
-0.0384023
-0.0384023
-0.0393212
-0.0393212
-0.0393212
-0.0393212
-0.0393212
-0.0402505
-0.0402505
-0.0402505
-0.0402505
-0.0402505
-0.0411901
-0.0411901
-0.0411901
-0.0411901
-0.0411901
-0.0421402
-0.0421402
-0.0421402
-0.0421402
-0.0421402
-0.0431008
-0.0431008
-0.0431008
-0.0431008
-0.0431008
-0.0440723
-0.0440723
-0.0440723
-0.0440723
-0.0440723
-0.0450545
-0.0450545
-0.0450545
-0.0450545
-0.0450545
-0.0460477
-0.0460477
-0.0460477
-0.0460477
-0.0460477
-0.047052
-0.047052
-0.047052
-0.047052
-0.047052
-0.0480675
-0.0480675
-0.0480675
-0.0480675
-0.0480675
-0.0490943
-0.0490943
-0.0490943
-0.0490943
-0.0490943
-0.0501326
-0.0501326
-0.0501326
-0.0501326
-0.0501326
-0.0511825
-0.0511825
-0.0511825
-0.0511825
-0.0511825
-0.0522441
-0.0522441
-0.0522441
-0.0522441
-0.0522441
-0.0533175
-0.0533175
-0.0533175
-0.0533175
-0.0533175
-0.0544029
-0.0544029
-0.0544029
-0.0544029
-0.0544029
-0.0555005
-0.0555005
-0.0555005
-0.0555005
-0.0555005
-0.0566102
-0.0566102
-0.0566102
-0.0566102
-0.0566102
)
;

boundaryField
{
    BotWall
    {
        type            calculated;
        value           nonuniform 0();
    }
    FreeStream
    {
        type            calculated;
        value           nonuniform 0();
    }
    FrontNBack
    {
        type            empty;
    }
    LeftSide
    {
        type            symmetryPlane;
    }
    RightSide
    {
        type            symmetryPlane;
    }
    procBoundary2to1
    {
        type            processor;
        value           nonuniform List<scalar> 5(-0.0322472 -0.0322472 -0.0322472 -0.0322472 -0.0322472);
    }
    procBoundary2to3
    {
        type            processor;
        value           nonuniform List<scalar> 5(-0.0577324 -0.0577324 -0.0577324 -0.0577324 -0.0577324);
    }
}


// ************************************************************************* //
