/*--------------------------------*- C++ -*----------------------------------*\
| =========                 |                                                 |
| \\      /  F ield         | OpenFOAM: The Open Source CFD Toolbox           |
|  \\    /   O peration     | Version:  2.4.0                                 |
|   \\  /    A nd           | Web:      www.OpenFOAM.org                      |
|    \\/     M anipulation  |                                                 |
\*---------------------------------------------------------------------------*/
FoamFile
{
    version     2.0;
    format      ascii;
    class       surfaceScalarField;
    location    "0.7";
    object      phi;
}
// * * * * * * * * * * * * * * * * * * * * * * * * * * * * * * * * * * * * * //

dimensions      [0 3 -1 0 0 0 0];

internalField   nonuniform List<scalar> 
220
(
-1.5006e-17
-5.30041e-10
-2.2977e-17
-5.30041e-10
-2.46258e-17
-5.30041e-10
-1.7758e-17
-5.30042e-10
-5.30042e-10
-1.52275e-17
-5.30041e-10
-2.32004e-17
-5.30041e-10
-2.45318e-17
-5.30041e-10
-1.73637e-17
-5.30042e-10
-5.30042e-10
-1.54207e-17
-5.30041e-10
-2.33892e-17
-5.30041e-10
-2.44179e-17
-5.30041e-10
-1.6967e-17
-5.30042e-10
-5.30042e-10
-1.55857e-17
-5.30041e-10
-2.35436e-17
-5.30041e-10
-2.4284e-17
-5.30041e-10
-1.65675e-17
-5.30042e-10
-5.30042e-10
-1.57229e-17
-5.30041e-10
-2.36638e-17
-5.30041e-10
-2.41309e-17
-5.30041e-10
-1.61671e-17
-5.30042e-10
-5.30042e-10
-1.58325e-17
-5.30041e-10
-2.37502e-17
-5.30041e-10
-2.39591e-17
-5.30041e-10
-1.57667e-17
-5.30042e-10
-5.30042e-10
-1.59149e-17
-5.30041e-10
-2.38035e-17
-5.30041e-10
-2.37692e-17
-5.30041e-10
-1.53674e-17
-5.30042e-10
-5.30042e-10
-1.59704e-17
-5.30041e-10
-2.38242e-17
-5.30041e-10
-2.35619e-17
-5.30041e-10
-1.49701e-17
-5.30042e-10
-5.30042e-10
-1.59997e-17
-5.30041e-10
-2.38129e-17
-5.30041e-10
-2.33378e-17
-5.30041e-10
-1.45757e-17
-5.30042e-10
-5.30042e-10
-1.60033e-17
-5.30041e-10
-2.37705e-17
-5.30041e-10
-2.30978e-17
-5.30041e-10
-1.41849e-17
-5.30042e-10
-5.30042e-10
-1.59818e-17
-5.30041e-10
-2.36978e-17
-5.30041e-10
-2.28427e-17
-5.30041e-10
-1.37985e-17
-5.30042e-10
-5.30042e-10
-1.59357e-17
-5.30041e-10
-2.35957e-17
-5.30041e-10
-2.25733e-17
-5.30041e-10
-1.34171e-17
-5.30042e-10
-5.30042e-10
-1.5866e-17
-5.30041e-10
-2.34653e-17
-5.30041e-10
-2.22907e-17
-5.30041e-10
-1.30416e-17
-5.30042e-10
-5.30042e-10
-1.57733e-17
-5.30041e-10
-2.33076e-17
-5.30041e-10
-2.19958e-17
-5.30041e-10
-1.26725e-17
-5.30042e-10
-5.30042e-10
-1.56585e-17
-5.30041e-10
-2.31238e-17
-5.30041e-10
-2.16896e-17
-5.30041e-10
-1.23107e-17
-5.30042e-10
-5.30042e-10
-1.55225e-17
-5.30041e-10
-2.29152e-17
-5.30041e-10
-2.13732e-17
-5.30041e-10
-1.19567e-17
-5.30042e-10
-5.30042e-10
-1.53662e-17
-5.30041e-10
-2.2683e-17
-5.30041e-10
-2.10478e-17
-5.30041e-10
-1.16114e-17
-5.30042e-10
-5.30042e-10
-1.51906e-17
-5.30041e-10
-2.24287e-17
-5.30041e-10
-2.07147e-17
-5.30041e-10
-1.12754e-17
-5.30042e-10
-5.30042e-10
-1.49969e-17
-5.30041e-10
-2.21536e-17
-5.30041e-10
-2.03749e-17
-5.30041e-10
-1.09496e-17
-5.30042e-10
-5.30042e-10
-1.47859e-17
-5.3004e-10
-2.18593e-17
-5.30041e-10
-2.00299e-17
-5.30041e-10
-1.06347e-17
-5.30042e-10
-5.30042e-10
-1.4559e-17
-5.3004e-10
-2.15474e-17
-5.30041e-10
-1.9681e-17
-5.30041e-10
-1.03315e-17
-5.30042e-10
-5.30042e-10
-1.43172e-17
-5.3004e-10
-2.12193e-17
-5.30041e-10
-1.93295e-17
-5.30041e-10
-1.00421e-17
-5.30042e-10
-5.30042e-10
-1.40618e-17
-5.3004e-10
-2.08768e-17
-5.30041e-10
-1.89755e-17
-5.30041e-10
-9.766e-18
-5.30042e-10
-5.30042e-10
-1.37941e-17
-5.3004e-10
-2.05216e-17
-5.30041e-10
-1.86218e-17
-5.30041e-10
-9.5149e-18
-5.30042e-10
-5.30042e-10
-1.35153e-17
-2.01558e-17
-1.82682e-17
-9.27407e-18
)
;

boundaryField
{
    BotWall
    {
        type            calculated;
        value           nonuniform 0();
    }
    FreeStream
    {
        type            calculated;
        value           nonuniform 0();
    }
    FrontNBack
    {
        type            empty;
        value           nonuniform 0();
    }
    LeftSide
    {
        type            symmetryPlane;
        value           uniform 0;
    }
    RightSide
    {
        type            symmetryPlane;
        value           uniform 0;
    }
    procBoundary2to1
    {
        type            processor;
        value           nonuniform List<scalar> 5(5.30041e-10 5.30041e-10 5.30041e-10 5.30042e-10 5.30042e-10);
    }
    procBoundary2to3
    {
        type            processor;
        value           nonuniform List<scalar> 5(-5.3004e-10 -5.30041e-10 -5.30041e-10 -5.30042e-10 -5.30042e-10);
    }
}


// ************************************************************************* //
