/*--------------------------------*- C++ -*----------------------------------*\
| =========                 |                                                 |
| \\      /  F ield         | OpenFOAM: The Open Source CFD Toolbox           |
|  \\    /   O peration     | Version:  2.4.0                                 |
|   \\  /    A nd           | Web:      www.OpenFOAM.org                      |
|    \\/     M anipulation  |                                                 |
\*---------------------------------------------------------------------------*/
FoamFile
{
    version     2.0;
    format      ascii;
    class       volVectorField;
    location    "0.7";
    object      U;
}
// * * * * * * * * * * * * * * * * * * * * * * * * * * * * * * * * * * * * * //

dimensions      [0 1 -1 0 0 0 0];

internalField   nonuniform List<vector> 
125
(
(-1.83291e-09 -0.0026502 0)
(-4.44161e-09 -0.00265021 0)
(-5.17935e-09 -0.00265021 0)
(-5.10961e-09 -0.00265021 0)
(-2.35386e-09 -0.00265021 0)
(-1.84917e-09 -0.0026502 0)
(-4.44776e-09 -0.00265021 0)
(-5.15951e-09 -0.00265021 0)
(-4.97831e-09 -0.00265021 0)
(-2.23708e-09 -0.00265021 0)
(-1.86091e-09 -0.0026502 0)
(-4.44559e-09 -0.00265021 0)
(-5.13289e-09 -0.00265021 0)
(-4.84746e-09 -0.00265021 0)
(-2.12395e-09 -0.00265021 0)
(-1.86827e-09 -0.0026502 0)
(-4.43543e-09 -0.00265021 0)
(-5.09977e-09 -0.00265021 0)
(-4.71707e-09 -0.00265021 0)
(-2.01432e-09 -0.00265021 0)
(-1.87142e-09 -0.0026502 0)
(-4.41762e-09 -0.00265021 0)
(-5.06041e-09 -0.00265021 0)
(-4.58741e-09 -0.00265021 0)
(-1.90835e-09 -0.00265021 0)
(-1.87052e-09 -0.0026502 0)
(-4.39249e-09 -0.00265021 0)
(-5.01511e-09 -0.00265021 0)
(-4.45868e-09 -0.00265021 0)
(-1.80611e-09 -0.00265021 0)
(-1.86574e-09 -0.0026502 0)
(-4.36041e-09 -0.00265021 0)
(-4.96418e-09 -0.00265021 0)
(-4.33108e-09 -0.00265021 0)
(-1.70767e-09 -0.00265021 0)
(-1.85725e-09 -0.0026502 0)
(-4.32172e-09 -0.00265021 0)
(-4.90792e-09 -0.00265021 0)
(-4.20477e-09 -0.00265021 0)
(-1.61304e-09 -0.00265021 0)
(-1.84521e-09 -0.0026502 0)
(-4.27678e-09 -0.00265021 0)
(-4.84665e-09 -0.00265021 0)
(-4.07993e-09 -0.00265021 0)
(-1.52225e-09 -0.00265021 0)
(-1.82981e-09 -0.0026502 0)
(-4.22597e-09 -0.00265021 0)
(-4.78068e-09 -0.00265021 0)
(-3.9567e-09 -0.00265021 0)
(-1.43532e-09 -0.00265021 0)
(-1.81121e-09 -0.0026502 0)
(-4.16965e-09 -0.00265021 0)
(-4.71035e-09 -0.00265021 0)
(-3.83525e-09 -0.00265021 0)
(-1.35224e-09 -0.00265021 0)
(-1.78961e-09 -0.0026502 0)
(-4.10821e-09 -0.00265021 0)
(-4.63599e-09 -0.00265021 0)
(-3.7157e-09 -0.00265021 0)
(-1.273e-09 -0.00265021 0)
(-1.76517e-09 -0.0026502 0)
(-4.042e-09 -0.00265021 0)
(-4.55793e-09 -0.00265021 0)
(-3.59821e-09 -0.00265021 0)
(-1.19759e-09 -0.00265021 0)
(-1.73808e-09 -0.0026502 0)
(-3.97141e-09 -0.00265021 0)
(-4.4765e-09 -0.00265021 0)
(-3.4829e-09 -0.00265021 0)
(-1.126e-09 -0.00265021 0)
(-1.70853e-09 -0.0026502 0)
(-3.89682e-09 -0.00265021 0)
(-4.39205e-09 -0.00265021 0)
(-3.36993e-09 -0.00265021 0)
(-1.0582e-09 -0.00265021 0)
(-1.67668e-09 -0.0026502 0)
(-3.8186e-09 -0.00265021 0)
(-4.30492e-09 -0.00265021 0)
(-3.25941e-09 -0.00265021 0)
(-9.9417e-10 -0.00265021 0)
(-1.64273e-09 -0.0026502 0)
(-3.73713e-09 -0.00265021 0)
(-4.21543e-09 -0.00265021 0)
(-3.15149e-09 -0.00265021 0)
(-9.33884e-10 -0.00265021 0)
(-1.60685e-09 -0.0026502 0)
(-3.65278e-09 -0.00265021 0)
(-4.12394e-09 -0.00265021 0)
(-3.0463e-09 -0.00265021 0)
(-8.77314e-10 -0.00265021 0)
(-1.56923e-09 -0.0026502 0)
(-3.56593e-09 -0.0026502 0)
(-4.03078e-09 -0.00265021 0)
(-2.94396e-09 -0.00265021 0)
(-8.24433e-10 -0.00265021 0)
(-1.53004e-09 -0.0026502 0)
(-3.47692e-09 -0.0026502 0)
(-3.93627e-09 -0.00265021 0)
(-2.84461e-09 -0.00265021 0)
(-7.75214e-10 -0.00265021 0)
(-1.48947e-09 -0.0026502 0)
(-3.38614e-09 -0.0026502 0)
(-3.84075e-09 -0.00265021 0)
(-2.74838e-09 -0.00265021 0)
(-7.29638e-10 -0.00265021 0)
(-1.4477e-09 -0.0026502 0)
(-3.29394e-09 -0.0026502 0)
(-3.74454e-09 -0.00265021 0)
(-2.65548e-09 -0.00265021 0)
(-6.87751e-10 -0.00265021 0)
(-1.40489e-09 -0.0026502 0)
(-3.20067e-09 -0.0026502 0)
(-3.64796e-09 -0.00265021 0)
(-2.56574e-09 -0.00265021 0)
(-6.49231e-10 -0.00265021 0)
(-1.36122e-09 -0.0026502 0)
(-3.10668e-09 -0.0026502 0)
(-3.55133e-09 -0.00265021 0)
(-2.48034e-09 -0.00265021 0)
(-6.15129e-10 -0.00265021 0)
(-1.31686e-09 -0.0026502 0)
(-3.01232e-09 -0.0026502 0)
(-3.45497e-09 -0.00265021 0)
(-2.39788e-09 -0.00265021 0)
(-5.83871e-10 -0.00265021 0)
)
;

boundaryField
{
    BotWall
    {
        type            fixedValue;
        value           nonuniform 0();
    }
    FreeStream
    {
        type            zeroGradient;
    }
    FrontNBack
    {
        type            empty;
    }
    LeftSide
    {
        type            symmetryPlane;
    }
    RightSide
    {
        type            symmetryPlane;
    }
    procBoundary2to1
    {
        type            processor;
        value           nonuniform List<vector> 5((-1.81195e-09 -0.0026502 0) (-4.42685e-09 -0.00265021 0) (-5.19214e-09 -0.00265021 0) (-5.24038e-09 -0.00265021 0) (-2.47342e-09 -0.00265021 0));
    }
    procBoundary2to3
    {
        type            processor;
        value           nonuniform List<vector> 5((-1.27198e-09 -0.0026502 0) (-2.91792e-09 -0.0026502 0) (-3.35918e-09 -0.00265021 0) (-2.3197e-09 -0.00265021 0) (-5.56667e-10 -0.00265021 0));
    }
}


// ************************************************************************* //
