/*--------------------------------*- C++ -*----------------------------------*\
| =========                 |                                                 |
| \\      /  F ield         | OpenFOAM: The Open Source CFD Toolbox           |
|  \\    /   O peration     | Version:  2.4.0                                 |
|   \\  /    A nd           | Web:      www.OpenFOAM.org                      |
|    \\/     M anipulation  |                                                 |
\*---------------------------------------------------------------------------*/
FoamFile
{
    version     2.0;
    format      ascii;
    class       volScalarField;
    location    "4.2";
    object      H;
}
// * * * * * * * * * * * * * * * * * * * * * * * * * * * * * * * * * * * * * //

dimensions      [0 2 -2 0 0 0 0];

internalField   nonuniform List<scalar> 
125
(
-11992.5
-11992.5
-11992.5
-11992.5
-11992.5
-11514.8
-11514.8
-11514.7
-11514.8
-11514.8
-11031.8
-11031.7
-11031.7
-11031.7
-11031.8
-10543.3
-10543.3
-10543.1
-10543.2
-10543.3
-10049.3
-10049.3
-10049.1
-10049.2
-10049.4
-9549.76
-9549.65
-9549.44
-9549.55
-9549.79
-9044.49
-9044.36
-9044.1
-9044.23
-9044.52
-8533.45
-8533.29
-8532.99
-8533.14
-8533.48
-8016.54
-8016.36
-8016.02
-8016.19
-8016.58
-7493.68
-7493.47
-7493.09
-7493.28
-7493.72
-6964.77
-6964.54
-6964.1
-6964.33
-6964.82
-6429.71
-6429.46
-6428.98
-6429.22
-6429.77
-5888.42
-5888.14
-5887.61
-5887.88
-5888.49
-5340.79
-5340.48
-5339.89
-5340.19
-5340.87
-4786.72
-4786.38
-4785.73
-4786.06
-4786.8
-4226.11
-4225.73
-4225.02
-4225.38
-4226.2
-3658.84
-3658.43
-3657.65
-3658.04
-3658.95
-3084.82
-3084.37
-3083.51
-3083.94
-3084.94
-2503.93
-2503.43
-2502.5
-2502.97
-2504.06
-1916.07
-1915.52
-1914.5
-1915.01
-1916.21
-1321.11
-1320.51
-1319.39
-1319.95
-1321.27
-718.94
-718.285
-717.066
-717.678
-719.118
-15.1326
-15.0879
-15.0059
-15.0469
-15.1449
-11.2805
-11.2471
-11.1863
-11.2167
-11.2896
-11.2885
-11.2555
-11.1962
-11.2259
-11.2971
)
;

boundaryField
{
    BotWall
    {
        type            zeroGradient;
    }
    FreeStream
    {
        type            zeroGradient;
    }
    FrontNBack
    {
        type            empty;
    }
    LeftSide
    {
        type            symmetryPlane;
    }
    RightSide
    {
        type            symmetryPlane;
    }
    procBoundary0to1
    {
        type            processor;
        value           nonuniform List<scalar> 5(-11.2939 -11.2614 -11.2035 -11.2325 -11.302);
    }
}


// ************************************************************************* //
