/*--------------------------------*- C++ -*----------------------------------*\
| =========                 |                                                 |
| \\      /  F ield         | OpenFOAM: The Open Source CFD Toolbox           |
|  \\    /   O peration     | Version:  2.4.0                                 |
|   \\  /    A nd           | Web:      www.OpenFOAM.org                      |
|    \\/     M anipulation  |                                                 |
\*---------------------------------------------------------------------------*/
FoamFile
{
    version     2.0;
    format      ascii;
    class       volScalarField;
    location    "4.2";
    object      T;
}
// * * * * * * * * * * * * * * * * * * * * * * * * * * * * * * * * * * * * * //

dimensions      [0 0 0 1 0 0 0];

internalField   nonuniform List<scalar> 
125
(
293.097
293.097
293.097
293.097
293.097
293.292
293.292
293.292
293.292
293.292
293.49
293.49
293.49
293.49
293.49
293.69
293.69
293.69
293.69
293.69
293.892
293.892
293.892
293.892
293.892
294.096
294.096
294.096
294.096
294.096
294.302
294.302
294.302
294.302
294.302
294.511
294.511
294.511
294.511
294.511
294.723
294.723
294.723
294.723
294.723
294.936
294.936
294.937
294.937
294.936
295.153
295.153
295.153
295.153
295.153
295.371
295.371
295.372
295.372
295.371
295.593
295.593
295.593
295.593
295.593
295.817
295.817
295.817
295.817
295.816
296.043
296.043
296.043
296.043
296.043
296.272
296.272
296.273
296.273
296.272
296.504
296.504
296.505
296.504
296.504
296.739
296.739
296.739
296.739
296.739
296.976
296.977
296.977
296.977
296.976
297.217
297.217
297.217
297.217
297.217
297.46
297.46
297.461
297.46
297.46
297.706
297.706
297.707
297.707
297.706
297.994
297.994
297.994
297.994
297.994
297.994
297.994
297.994
297.994
297.994
297.994
297.994
297.994
297.994
297.994
)
;

boundaryField
{
    BotWall
    {
        type            fixedValue;
        value           uniform 293;
    }
    FreeStream
    {
        type            fixedValue;
        value           nonuniform 0();
    }
    FrontNBack
    {
        type            empty;
    }
    LeftSide
    {
        type            symmetryPlane;
    }
    RightSide
    {
        type            symmetryPlane;
    }
    procBoundary0to1
    {
        type            processor;
        value           nonuniform List<scalar> 5(297.994 297.994 297.994 297.994 297.994);
    }
}


// ************************************************************************* //
