/*--------------------------------*- C++ -*----------------------------------*\
| =========                 |                                                 |
| \\      /  F ield         | OpenFOAM: The Open Source CFD Toolbox           |
|  \\    /   O peration     | Version:  2.4.0                                 |
|   \\  /    A nd           | Web:      www.OpenFOAM.org                      |
|    \\/     M anipulation  |                                                 |
\*---------------------------------------------------------------------------*/
FoamFile
{
    version     2.0;
    format      ascii;
    class       volScalarField;
    location    "3.5";
    object      H;
}
// * * * * * * * * * * * * * * * * * * * * * * * * * * * * * * * * * * * * * //

dimensions      [0 2 -2 0 0 0 0];

internalField   nonuniform List<scalar> 
8000
(
-11843.2
-11077.3
-10331.4
-9613.8
-8929.12
-8279.29
-7664.72
-7085.1
-6538.35
-6021.93
-5533.23
-5069.26
-4627.92
-4205.64
-3794.67
-3390.7
-2993.38
-2601.09
-2213.61
-1831.06
-1448.95
-1071.26
-685.352
-302.711
-5.04012
-0.958935
-0.819382
-0.746706
-0.606012
-0.411018
-0.310475
-0.659149
-20.3802
-33.7611
-47.0589
-64.0641
-82.8115
-102.624
-113.59
-119.378
-121.548
-122.442
-122.753
-122.96
-125.405
-128.946
-129.592
-127.334
-122.923
-118.249
-11934.2
-11345.1
-10763.2
-10191.6
-9632.64
-9087.58
-8557.22
-8042.18
-7542.58
-7058.74
-6591
-6139.72
-5705.34
-5288.33
-4889.14
-4508.1
-4145.38
-3800.72
-3473.46
-3162.49
-2866.29
-2583.09
-2310.97
-2047.76
-1790.84
-1540.21
-1292.17
-1042.99
-791.321
-538.397
-289.71
-93.6682
-1.35872
-0.145548
-0.0605155
-0.0212897
-0.115105
-7.40318
-14.4087
-21.0933
-27.6179
-33.0648
-37.5499
-42.6003
-47.674
-51.9809
-55.3341
-58.1977
-60.3976
-62.0834
-11964.2
-11433.1
-10903.5
-10376.6
-9853.59
-9335.88
-8824.95
-8322.36
-7829.75
-7348.82
-6881.26
-6428.68
-5992.56
-5574.14
-5174.39
-4793.98
-4433.19
-4091.98
-3769.95
-3466.39
-3180.35
-2910.67
-2656.03
-2415.06
-2186.29
-1968.17
-1759.03
-1558.43
-1365.83
-1180.71
-1002.49
-830.736
-665.04
-504.468
-347.32
-193.176
-56.4295
-0.727112
-0.0327902
-0.015003
-0.0583612
-3.64039
-7.51329
-11.3922
-14.8541
-17.6127
-20.0225
-22.303
-24.5157
-26.6317
-11969.8
-11448.9
-10927
-10404.4
-9881.88
-9360.68
-8842.63
-8329.87
-7824.81
-7329.97
-6847.92
-6381.12
-5931.82
-5501.94
-5093.03
-4706.23
-4342.2
-4001.18
-3682.96
-3386.97
-3112.32
-2857.84
-2622.18
-2403.84
-2201.24
-2012.78
-1836.83
-1671.83
-1516.29
-1368.79
-1228.08
-1093.04
-962.76
-836.354
-713.679
-594.711
-478.584
-364.673
-250.822
-131.79
-1.47935
-0.0527405
-0.0163331
-0.0167518
-1.10847
-2.66906
-4.34874
-6.01879
-7.58879
-9.11499
-11963.4
-11429.3
-10893.3
-10355.4
-9816.15
-9277.16
-8740.47
-8208.62
-7684.5
-7171.1
-6671.44
-6188.37
-5724.45
-5281.89
-4862.43
-4467.3
-4097.26
-3752.55
-3432.98
-3137.93
-2866.48
-2617.4
-2389.3
-2180.63
-1989.78
-1815.12
-1655.01
-1507.92
-1372.34
-1246.9
-1130.32
-1021.44
-919.223
-822.742
-731.184
-643.837
-560.08
-479.357
-401.129
-324.759
-251.216
-181.858
-117.686
-58.8836
-0.655926
-0.0264276
-0.0073789
-0.0127422
-0.906628
-1.9527
-11953.1
-11398.7
-10843.1
-10286.3
-9729.44
-9174.13
-8622.66
-8077.73
-7542.3
-7019.42
-6512.09
-6023.1
-5554.91
-5109.57
-4688.65
-4293.23
-3923.88
-3580.68
-3263.31
-2971.04
-2702.84
-2457.46
-2233.46
-2029.3
-1843.39
-1674.14
-1520
-1379.49
-1251.21
-1133.86
-1026.25
-927.322
-836.109
-751.758
-673.521
-600.745
-532.866
-469.403
-409.951
-354.178
-301.822
-252.682
-206.573
-163.227
-122.042
-82.3351
-42.7326
-0.463545
-0.0300078
-0.0209528
-11947.8
-11383.3
-10818.8
-10255.1
-9693.66
-9136.24
-8585.16
-8042.99
-7512.42
-6996.2
-6496.9
-6016.92
-5558.27
-5122.63
-4711.19
-4324.73
-3963.58
-3627.65
-3316.49
-3029.32
-2765.14
-2522.72
-2300.71
-2097.68
-1912.19
-1742.76
-1588
-1446.55
-1317.15
-1198.63
-1089.92
-990.031
-898.096
-813.326
-735.024
-662.569
-595.413
-533.069
-475.103
-421.125
-370.771
-323.694
-279.541
-237.924
-198.389
-160.407
-123.476
-87.63
-54.2333
-25.8557
-11949.4
-11388.5
-10829.2
-10272.7
-9720.81
-9175.43
-8638.75
-8113.07
-7600.68
-7103.81
-6624.51
-6164.57
-5725.5
-5308.46
-4914.24
-4543.26
-4195.61
-3871.02
-3568.96
-3288.68
-3029.19
-2789.41
-2568.12
-2364.07
-2175.98
-2002.61
-1842.71
-1695.12
-1558.75
-1432.56
-1315.63
-1207.08
-1106.14
-1012.11
-924.347
-842.292
-765.441
-693.345
-625.605
-561.866
-501.813
-445.161
-391.656
-341.06
-293.15
-247.711
-204.547
-163.524
-124.707
-88.5619
-11960.4
-11422.1
-10886.2
-10354.6
-9829.01
-9311.51
-8803.99
-8308.37
-7826.47
-7359.96
-6910.3
-6478.76
-6066.31
-5673.66
-5301.23
-4949.17
-4617.38
-4305.52
-4013.06
-3739.29
-3483.37
-3244.38
-3021.31
-2813.14
-2618.83
-2437.34
-2267.69
-2108.91
-1960.09
-1820.41
-1689.06
-1565.33
-1448.55
-1338.13
-1233.51
-1134.2
-1039.75
-949.78
-863.924
-781.878
-703.382
-628.219
-556.219
-487.253
-421.236
-358.133
-297.982
-240.902
-187.078
-136.707
-11975.3
-11467.1
-10962
-10462.1
-9969.26
-9485.28
-9011.86
-8550.52
-8102.65
-7669.43
-7251.85
-6850.66
-6466.41
-6099.42
-5749.81
-5417.48
-5102.18
-4803.49
-4520.87
-4253.66
-4001.13
-3762.51
-3536.97
-3323.7
-3121.86
-2930.65
-2749.29
-2577.03
-2413.15
-2257
-2107.96
-1965.44
-1828.9
-1697.85
-1571.83
-1450.42
-1333.21
-1219.85
-1110.03
-1003.46
-899.898
-799.185
-701.214
-605.945
-513.397
-423.665
-337.084
-254.406
-176.148
-102.865
-11994.3
-11524.1
-11057.1
-10595.4
-10140.7
-9694.68
-9258.7
-8833.96
-8421.46
-8021.98
-7636.12
-7264.28
-6906.68
-6563.38
-6234.26
-5919.11
-5617.58
-5329.22
-5053.54
-4789.96
-4537.88
-4296.69
-4065.75
-3844.42
-3632.11
-3428.21
-3232.14
-3043.36
-2861.36
-2685.64
-2515.72
-2351.18
-2191.58
-2036.52
-1885.61
-1738.49
-1594.81
-1454.22
-1316.44
-1181.2
-1048.28
-917.545
-788.904
-662.332
-537.829
-415.468
-295.633
-179.173
-69.8061
-0.660805
-12013
-11580.2
-11150.6
-10726
-10308
-9897.93
-9496.84
-9105.6
-8724.85
-8355.07
-7996.53
-7649.37
-7313.58
-6989.06
-6675.57
-6372.84
-6080.5
-5798.15
-5525.36
-5261.68
-5006.65
-4759.81
-4520.7
-4288.9
-4063.97
-3845.51
-3633.14
-3426.48
-3225.16
-3028.85
-2837.19
-2649.85
-2466.48
-2286.74
-2110.28
-1936.73
-1765.74
-1596.95
-1430
-1264.58
-1100.42
-937.315
-775.133
-613.668
-452.495
-291.392
-132.607
-1.24213
-0.0190275
-0.0148651
-12029.9
-11630.8
-11234.4
-10842.3
-10455.7
-10075.6
-9702.93
-9338.13
-8981.65
-8633.74
-8294.53
-7964.01
-7642.1
-7328.62
-7023.36
-6726.07
-6436.44
-6154.19
-5878.99
-5610.54
-5348.54
-5092.68
-4842.69
-4598.3
-4359.23
-4125.24
-3896.08
-3671.5
-3451.25
-3235.06
-3022.66
-2813.74
-2607.98
-2405.03
-2204.49
-2005.94
-1808.94
-1613.02
-1417.7
-1222.52
-1027.09
-831.149
-634.508
-436.399
-233.767
-23.4403
-0.272454
-0.162944
-0.0050875
0.000578156
-12042.4
-11667.9
-11295.8
-10927
-10562.6
-10203.3
-9849.73
-9502.14
-9160.82
-8825.88
-8497.36
-8175.22
-7859.38
-7549.71
-7246.06
-6948.29
-6656.2
-6369.65
-6088.44
-5812.43
-5541.44
-5275.33
-5013.94
-4757.13
-4504.75
-4256.63
-4012.62
-3772.5
-3536.07
-3303.07
-3073.21
-2846.13
-2621.43
-2398.63
-2177.17
-1956.46
-1735.91
-1514.9
-1292.86
-1069.28
-843.908
-616.856
-388.742
-160.233
-1.64615
-0.0304423
-0.00128001
0.00383295
0.0172636
0.136961
-12049.4
-11688.7
-11329.7
-10973.1
-10619.7
-10270
-9924.22
-9582.83
-9245.97
-8913.8
-8586.41
-8263.85
-7946.16
-7633.35
-7325.4
-7022.28
-6723.98
-6430.44
-6141.62
-5857.47
-5577.94
-5302.96
-5032.45
-4766.35
-4504.55
-4246.91
-3993.29
-3743.47
-3497.18
-3254.07
-3013.7
-2775.52
-2538.81
-2302.69
-2066.15
-1828.15
-1587.95
-1345.21
-1099.95
-852.963
-604.519
-353.56
-95.1875
-1.27167
-0.98463
-0.333422
0.174486
1.8507
3.44619
4.98481
-12049.2
-11687.9
-11327.8
-10969.4
-10613.3
-10259.9
-9909.6
-9562.67
-9219.46
-8880.23
-8545.26
-8214.77
-7888.96
-7568.02
-7252.07
-6941.25
-6635.62
-6335.27
-6040.24
-5750.56
-5466.25
-5187.31
-4913.74
-4645.49
-4382.49
-4124.62
-3871.69
-3623.43
-3379.47
-3139.29
-2902.22
-2667.38
-2433.66
-2199.74
-1964.06
-1724.95
-1480.75
-1230.01
-971.367
-703.245
-424.569
-134.672
-1.90779
-0.127808
0.309861
2.98494
5.71899
8.47963
11.2364
13.9431
-12039
-11657.2
-11275.8
-10895
-10515.6
-10138
-9762.91
-9391.12
-9023.29
-8660.07
-8302.03
-7949.63
-7603.27
-7263.23
-6929.75
-6603
-6283.13
-5970.24
-5664.46
-5365.88
-5074.64
-4790.84
-4514.59
-4246
-3985.1
-3731.88
-3486.23
-3247.91
-3016.49
-2791.34
-2571.56
-2355.96
-2142.97
-1930.66
-1716.76
-1498.8
-1274.35
-1041.47
-799.279
-548.707
-293.054
-3.38895
-0.286524
-0.0183211
0.0653175
0.622463
5.69153
10.818
16.2352
21.7846
-12014.3
-11582.6
-11150.5
-10718.9
-10289.1
-9862.66
-9441.04
-9025.5
-8617.09
-8216.57
-7824.44
-7441.01
-7066.43
-6700.74
-6343.95
-5996.06
-5657.1
-5327.16
-5006.41
-4695.12
-4393.66
-4102.44
-3821.91
-3552.52
-3294.68
-3048.69
-2814.72
-2592.78
-2382.67
-2183.95
-1995.95
-1817.78
-1648.24
-1485.91
-1329.13
-1176.1
-1024.93
-873.771
-720.789
-564.182
-402.321
-235.382
-89.3899
-1.44471
-0.0878518
0.00438251
0.154896
1.41664
12.6281
23.4149
-11966.7
-11441.1
-10920.4
-10408.6
-9909.02
-9423.75
-8953.81
-8499.41
-8060.11
-7635
-7222.74
-6822.78
-6434.28
-6056.5
-5688.87
-5331.02
-4982.74
-4644.06
-4315.29
-3997.15
-3690.47
-3396.18
-3115.23
-2848.52
-2596.8
-2360.67
-2140.5
-1936.42
-1748.27
-1575.67
-1417.97
-1274.27
-1143.48
-1024.34
-915.44
-815.26
-722.21
-634.604
-550.555
-467.722
-382.851
-291.25
-187.378
-68.6759
-0.635859
-0.0093993
-0.000123268
0.0124357
0.371941
3.15584
-11763.6
-10979.6
-10299.3
-9693.95
-9144.51
-8637.75
-8164.23
-7717.05
-7291.06
-6882.36
-6487.98
-6105.65
-5733.69
-5370.85
-5016.23
-4669.24
-4329.33
-3995.76
-3668.17
-3352.19
-3048.64
-2758.81
-2484.02
-2225.43
-1983.95
-1760.26
-1554.69
-1367.23
-1197.57
-1045.09
-908.942
-788.07
-681.274
-587.266
-504.716
-432.303
-368.747
-312.839
-263.455
-219.553
-180.168
-144.369
-111.203
-79.5552
-47.9687
-13.8819
-0.134967
-0.087767
0.00853784
1.35999
-114.426
-110.683
-106.876
-103.031
-99.1645
-95.2759
-91.3481
-87.358
-83.2915
-79.1392
-74.8977
-70.5589
-66.1385
-61.6592
-57.1534
-52.6523
-48.1935
-43.8178
-39.5623
-35.4672
-31.5676
-27.8935
-24.4688
-21.3108
-18.4298
-15.8289
-13.5044
-11.4466
-9.64137
-8.07405
-6.73392
-5.59438
-4.6305
-3.81904
-3.1388
-2.5708
-2.09832
-1.70677
-1.3835
-1.11759
-0.899663
-0.721734
-0.576999
-0.459705
-0.365006
-0.288839
-0.227812
-0.179104
-0.140382
-0.109721
-63.323
-64.1195
-64.5212
-64.5892
-64.3778
-63.9169
-63.2269
-62.3156
-61.1906
-59.8519
-58.2967
-56.5286
-54.561
-52.4
-50.059
-47.5587
-44.924
-42.1867
-39.3754
-36.5252
-33.6693
-30.8419
-28.073
-25.3908
-22.8178
-20.3748
-18.0768
-15.9344
-13.9675
-12.1829
-10.5773
-9.14352
-7.87185
-6.75052
-5.7669
-4.90817
-4.16177
-3.5157
-2.95875
-2.48054
-2.07158
-1.72327
-1.42784
-1.17833
-0.96852
-0.792876
-0.646498
-0.525075
-0.424829
-0.342464
-28.6433
-30.5486
-32.3347
-33.9904
-35.5087
-36.8843
-38.1033
-39.1559
-40.029
-40.7095
-41.1921
-41.4641
-41.5189
-41.3544
-40.9698
-40.3709
-39.5656
-38.5669
-37.3899
-36.0531
-34.5778
-32.9816
-31.2879
-29.5178
-27.6962
-25.8446
-23.9839
-22.1368
-20.3197
-18.5526
-16.8491
-15.2237
-13.6855
-12.24
-10.8916
-9.64242
-8.49256
-7.44088
-6.48495
-5.62127
-4.84541
-4.15282
-3.54171
-3.00577
-2.53867
-2.13405
-1.78563
-1.48734
-1.23342
-1.01849
-10.6667
-12.2552
-13.8618
-15.4755
-17.0847
-18.677
-20.234
-21.735
-23.1605
-24.4988
-25.7247
-26.8199
-27.7736
-28.575
-29.217
-29.6953
-30.0072
-30.1532
-30.1357
-29.9601
-29.6342
-29.164
-28.5596
-27.8336
-26.9978
-26.0641
-25.0461
-23.9578
-22.8136
-21.6292
-20.4374
-19.2026
-17.9629
-16.7366
-15.5246
-14.3297
-13.1574
-12.0138
-10.9052
-9.83902
-8.8225
-7.86279
-6.96601
-6.13644
-5.3762
-4.68549
-4.06294
-3.50592
-3.01089
-2.57368
-3.04471
-4.09542
-5.1102
-6.14925
-7.24742
-8.39
-9.55986
-10.7443
-11.9317
-13.1099
-14.2678
-15.3926
-16.4724
-17.4938
-18.4457
-19.3166
-20.0982
-20.7826
-21.3642
-21.8391
-22.2049
-22.4612
-22.6095
-22.6514
-22.5902
-22.4302
-22.1765
-21.8348
-21.4124
-20.9266
-20.3753
-19.7478
-19.067
-18.323
-17.5387
-16.7187
-15.8622
-14.9732
-14.0595
-13.132
-12.203
-11.285
-10.3889
-9.52277
-8.69237
-7.90245
-7.15644
-6.45662
-5.80433
-5.19999
-0.299385
-0.689955
-1.23105
-1.88296
-2.51806
-3.13502
-3.82889
-4.58708
-5.37934
-6.19446
-7.02743
-7.87103
-8.71658
-9.55812
-10.3857
-11.191
-11.9681
-12.709
-13.4073
-14.0569
-14.6529
-15.1914
-15.6693
-16.0845
-16.4354
-16.7215
-16.9432
-17.1037
-17.2054
-17.2293
-17.184
-17.0678
-16.8947
-16.6605
-16.3677
-16.018
-15.6123
-15.1537
-14.649
-14.1196
-13.543
-12.9443
-12.335
-11.7201
-11.1027
-10.4867
-9.87611
-9.27468
-8.68615
-8.11419
-0.296381
-0.0261481
-0.146071
-0.307459
-0.56398
-0.93307
-1.31098
-1.69015
-2.13115
-2.6103
-3.11212
-3.63529
-4.17793
-4.73551
-5.30421
-5.87886
-6.45437
-7.02567
-7.58847
-8.13881
-8.67319
-9.1885
-9.68175
-10.1505
-10.5925
-11.0063
-11.3909
-11.7454
-12.0689
-12.3605
-12.6214
-12.8379
-13.0086
-13.1344
-13.2147
-13.2507
-13.2436
-13.1827
-13.0709
-12.9105
-12.6981
-12.4465
-12.1667
-11.861
-11.5319
-11.1831
-10.8183
-10.441
-10.0549
-9.66381
-55.9136
-27.1353
-0.263207
-0.217095
-0.221593
-0.29481
-0.445319
-0.601855
-0.796763
-1.02554
-1.26971
-1.52785
-1.80081
-2.08761
-2.38717
-2.69582
-3.01137
-3.33132
-3.65389
-3.97769
-4.30147
-4.624
-4.94418
-5.26094
-5.57334
-5.88087
-6.18333
-6.48035
-6.77285
-7.06124
-7.33939
-7.60447
-7.85467
-8.09096
-8.31721
-8.53292
-8.73419
-8.92073
-9.09077
-9.23513
-9.3451
-9.41911
-9.45761
-9.46111
-9.43137
-9.37099
-9.28292
-9.17046
-9.03587
-8.8825
-89.9317
-46.9229
-6.25237
-0.0608427
-0.12067
-0.156869
-0.199006
-0.238935
-0.297778
-0.374869
-0.458578
-0.548358
-0.64482
-0.748225
-0.857914
-0.97362
-1.09456
-1.2197
-1.34887
-1.48161
-1.61766
-1.7568
-1.89902
-2.0445
-2.19365
-2.347
-2.50522
-2.66884
-2.83709
-3.01008
-3.18609
-3.36641
-3.54828
-3.73011
-3.91735
-4.11525
-4.33044
-4.55126
-4.76899
-4.97711
-5.16723
-5.33855
-5.48831
-5.6147
-5.71817
-5.79932
-5.8588
-5.89742
-5.91593
-5.91652
-33.0106
-0.323283
-0.00405087
-0.00498163
-0.00419988
-0.000981894
-0.013625
-0.026678
-0.0422439
-0.0604507
-0.081907
-0.107378
-0.137574
-0.17245
-0.211856
-0.255671
-0.303765
-0.35576
-0.411318
-0.470204
-0.532048
-0.596554
-0.663578
-0.733154
-0.805368
-0.880298
-0.958117
-1.03874
-1.12181
-1.2066
-1.29224
-1.37804
-1.46345
-1.54818
-1.63248
-1.71673
-1.80111
-1.88426
-1.96381
-2.03664
-2.10546
-2.16827
-2.22367
-2.27087
-2.30975
-2.3403
-2.36273
-2.37685
-2.38327
-2.38145
-0.00966389
-0.0129684
-0.00895183
-0.000286844
0.00137551
0.0109221
0.0904807
0.164244
0.230965
0.289481
0.33948
0.381142
0.414738
0.440669
0.459485
0.471605
0.477619
0.47818
0.473765
0.464635
0.45144
0.434669
0.414708
0.391922
0.366663
0.339259
0.310018
0.279252
0.247296
0.214532
0.181242
0.147875
0.115049
0.0833444
0.0533729
0.0256734
0.000614422
-0.0215762
-0.0406989
-0.057631
-0.0717755
-0.08259
-0.0895313
-0.0918654
-0.0889741
-0.0803766
-0.0665599
-0.0480107
-0.0250569
-0.000328072
-0.000323862
0.00029022
0.00484301
0.0377215
0.331492
0.607826
0.864955
1.10101
1.31768
1.51691
1.7009
1.87178
2.03133
2.18107
2.3221
2.45531
2.58166
2.70169
2.81563
2.92357
3.02515
3.12076
3.21049
3.29495
3.37484
3.45103
3.52356
3.59337
3.66115
3.72649
3.78678
3.84137
3.88877
3.92733
3.95733
3.97912
3.99212
3.99497
3.98676
3.96891
3.94407
3.91251
3.87762
3.84165
3.80572
3.76903
3.73062
3.68756
3.63751
3.57741
0.0103447
0.0943834
0.829125
1.52762
2.20543
2.86025
3.48495
4.08068
4.65065
5.19876
5.72934
6.24667
6.75475
7.25708
7.75552
8.24593
8.72466
9.18788
9.63174
10.0514
10.4418
10.8012
11.1276
11.4198
11.6771
11.8991
12.085
12.2348
12.348
12.424
12.4655
12.4749
12.4543
12.4058
12.3315
12.2332
12.1126
11.9716
11.8115
11.6338
11.4401
11.2316
11.0099
10.7762
10.5316
10.2772
10.0139
9.74287
9.46507
9.18179
1.1764
2.17614
3.16096
4.12009
5.08108
6.05549
7.0376
8.02874
9.02962
10.0406
11.0527
12.0544
13.0339
13.9784
14.8762
15.7223
16.5121
17.2423
17.9098
18.5123
19.0479
19.5152
19.9135
20.2427
20.5032
20.6958
20.822
20.8838
20.8835
20.8236
20.707
20.537
20.3172
20.0513
19.7432
19.3968
19.0159
18.6044
18.1662
17.7048
17.2239
16.7269
16.217
15.6974
15.171
14.6406
14.1089
13.5784
13.0517
12.5311
6.4735
7.90626
9.31288
10.7098
12.0978
13.4752
14.8376
16.1774
17.4847
18.7468
19.9603
21.1241
22.2362
23.2942
24.2888
25.212
26.0583
26.8219
27.4986
28.0841
28.575
28.9675
29.2594
29.4498
29.5386
29.5269
29.4171
29.2127
28.9178
28.5375
28.0777
27.5447
26.9458
26.2886
25.5809
24.8303
24.0446
23.2312
22.3974
21.5499
20.695
19.8387
18.9863
18.1425
17.3115
16.4972
15.7028
14.9309
14.184
13.4641
16.5735
19.1027
21.5104
23.7815
25.9075
27.8845
29.7124
31.3934
32.9305
34.327
35.5863
36.7139
37.707
38.5608
39.276
39.8623
40.3193
40.6439
40.8359
40.8948
40.8212
40.6133
40.2745
39.8079
39.2169
38.5074
37.6874
36.7658
35.7526
34.6591
33.4971
32.2787
31.0166
29.7228
28.4093
27.087
25.7665
24.4571
23.1673
21.9043
20.6746
19.4832
18.3345
17.2315
16.1769
15.1725
14.2188
13.3163
12.4644
11.6627
27.2522
32.4622
37.2911
41.6597
45.53
48.8951
51.7682
54.1734
56.1391
57.6929
58.8603
59.6642
60.1243
60.2621
60.093
59.6419
58.9302
57.9799
56.8121
55.4564
53.9361
52.2742
50.4928
48.6131
46.6557
44.6405
42.5862
40.5103
38.4293
36.358
34.3102
32.2978
30.3314
28.4202
26.5717
24.7922
23.0866
21.4585
19.9106
18.4443
17.0603
15.7583
14.5373
13.3957
12.3313
11.3418
10.4242
9.57533
8.79151
8.06958
34.2102
44.6554
54.2208
62.615
69.72
75.5353
80.1321
83.6189
86.1173
87.7467
88.6165
88.8228
88.4488
87.5461
86.1709
84.3823
82.2399
79.8019
77.1234
74.2558
71.2465
68.1383
64.9618
61.7452
58.5147
55.2945
52.1066
48.9707
45.904
42.9215
40.0358
37.2571
34.5936
32.0515
29.6352
27.3471
25.1885
23.1591
21.2575
19.4813
17.8272
16.2913
14.869
13.5553
12.3451
11.2327
10.2125
9.27873
8.42581
7.64807
26.7277
48.2191
67.1877
83.4591
97.0466
108.089
116.797
123.415
128.19
131.358
133.133
133.706
133.243
131.913
129.849
127.163
123.949
120.289
116.254
111.912
107.325
102.547
97.6426
92.6653
87.6651
82.6857
77.7655
72.9378
68.231
63.6688
59.2704
55.0512
51.0226
47.1926
43.566
40.1449
36.9291
33.9161
31.1019
28.4808
26.0461
23.7903
21.705
19.7816
18.011
16.3843
14.8923
13.5262
12.2772
11.137
26.9522
52.947
76.5716
97.5555
115.828
131.446
144.552
155.329
163.973
170.681
175.635
179.004
180.939
181.578
181.044
179.454
176.915
173.533
169.406
164.633
159.309
153.527
147.376
140.941
134.304
127.541
120.72
113.906
107.156
100.518
94.0376
87.7494
81.6833
75.863
70.3061
65.0249
60.0268
55.3153
50.8898
46.7469
42.8804
39.282
35.9417
32.8485
29.9902
27.3542
24.9278
22.6977
20.6514
18.7761
-0.0905184
-0.0787387
-0.068378
-0.0592832
-0.0513149
-0.0443475
-0.0382673
-0.032972
-0.0283697
-0.0243778
-0.0209225
-0.0179379
-0.015365
-0.0131518
-0.0112518
-0.00962403
-0.00823234
-0.00704483
-0.0060335
-0.00517383
-0.00444438
-0.00382646
-0.00330382
-0.00286236
-0.0024899
-0.00217593
-0.0019114
-0.00168856
-0.00150078
-0.0013424
-0.00120861
-0.00109534
-0.000999146
-0.000917118
-0.000846822
-0.000786219
-0.00073361
-0.000687581
-0.000646962
-0.000610788
-0.000578267
-0.000548751
-0.000521711
-0.000496722
-0.000473439
-0.000451587
-0.000430946
-0.000411345
-0.000392647
-0.000374747
-0.000357564
-0.000341038
-0.00032512
-0.000309778
-0.000294987
-0.000280726
-0.000266985
-0.000253751
-0.000241019
-0.000228783
-0.000217036
-0.000205775
-0.000194993
-0.000184686
-0.000174846
-0.000165467
-0.00015654
-0.000148056
-0.000140006
-0.000132379
-0.000125165
-0.000118351
-0.000111927
-0.000105879
-0.000100197
-9.4867e-05
-8.9878e-05
-8.5218e-05
-8.08756e-05
-7.68396e-05
-7.30993e-05
-6.96444e-05
-6.64651e-05
-6.35522e-05
-6.08969e-05
-5.84908e-05
-5.63262e-05
-5.43958e-05
-5.26927e-05
-5.12106e-05
-4.99434e-05
-4.88858e-05
-4.80324e-05
-4.73787e-05
-4.69203e-05
-4.66533e-05
-4.65742e-05
-4.66799e-05
-4.69677e-05
-4.74354e-05
-4.80813e-05
-4.89039e-05
-4.99025e-05
-5.10766e-05
-5.24264e-05
-5.39524e-05
-5.56559e-05
-5.75384e-05
-5.9602e-05
-6.18492e-05
-6.4283e-05
-6.6907e-05
-6.97248e-05
-7.27407e-05
-7.59592e-05
-7.93852e-05
-8.30238e-05
-8.68804e-05
-9.09608e-05
-9.52708e-05
-9.98166e-05
-0.000104605
-0.000109641
-0.000114934
-0.000120489
-0.000126314
-0.000132417
-0.000138806
-0.000145488
-0.000152473
-0.000159769
-0.000167386
-0.000175332
-0.000183619
-0.000192256
-0.000201255
-0.000210625
-0.000220381
-0.000230532
-0.000241092
-0.000252074
-0.000263491
-0.000275357
-0.000287686
-0.000300494
-0.000313795
-0.000327606
-0.000341943
-0.000356821
-0.000372259
-0.000388274
-0.000404883
-0.000422106
-0.000439961
-0.000458467
-0.000477643
-0.00049751
-0.000518088
-0.000539397
-0.000561458
-0.000584292
-0.000607919
-0.000632362
-0.000657642
-0.00068378
-0.000710797
-0.000738715
-0.000767556
-0.000797339
-0.000828086
-0.000859818
-0.000892554
-0.000926313
-0.000961114
-0.000996975
-0.00103391
-0.00107194
-0.00111108
-0.00115134
-0.00119274
-0.00123528
-0.00127897
-0.00132382
-0.00136983
-0.00141701
-0.00146536
-0.00151487
-0.00156553
-0.00161735
-0.0016703
-0.00172437
-0.00177955
-0.00183581
-0.00189312
-0.00195144
-0.00201076
-0.00207102
-0.00213218
-0.00219419
-0.00225699
-0.00232052
-0.00238473
-0.00244952
-0.00251483
-0.00258057
-0.00264665
-0.00271298
-0.00277943
-0.00284592
-0.0029123
-0.00297847
-0.00304429
-0.00310961
-0.00317429
-0.00323818
-0.00330111
-0.00336292
-0.00342343
-0.00348246
-0.00353984
-0.00359535
-0.00364881
-0.00370001
-0.00374874
-0.00379478
-0.00383791
-0.00387793
-0.0039146
-0.00394771
-0.00397706
-0.00400242
-0.00402359
-0.00404034
-0.00405247
-0.00405976
-0.00406201
-0.00405906
-0.00405071
-0.00403683
-0.00401725
-0.00399181
-0.00396037
-0.00392282
-0.00387913
-0.00382929
-0.00377334
-0.00371139
-0.00364356
-0.00357004
-0.00349102
-0.00340673
-0.00331743
-0.00322338
-0.00312489
-0.00302233
-0.00291613
-0.0028068
-0.00269487
-0.00258091
-0.00246549
-0.00234919
-0.00223251
-0.00211597
-0.00200008
-0.00188534
-0.00177226
-0.00166131
-0.00155291
-0.00144745
-0.00134537
-0.00124697
-0.00115158
-0.00105908
-0.000969631
-0.0008835
-0.000800909
-0.000722028
-0.000647038
-0.000576154
-0.000509594
-0.000447543
-0.000390115
-0.00033734
-0.000289168
-0.000245482
-0.000206122
-0.000170907
-0.000139661
-0.000112229
-8.8465e-05
-6.82164e-05
-5.12968e-05
-3.7475e-05
-2.64722e-05
-1.79694e-05
-1.16197e-05
-7.06529e-06
-3.95401e-06
-1.95488e-06
-7.7091e-07
-0.289331
-0.256064
-0.226207
-0.199465
-0.175566
-0.154254
-0.135291
-0.118455
-0.103542
-0.0903621
-0.0787412
-0.0685187
-0.0595475
-0.0516933
-0.0448333
-0.0388561
-0.0336606
-0.0291556
-0.0252586
-0.0218957
-0.0190004
-0.0165136
-0.0143825
-0.0125602
-0.0110051
-0.00968061
-0.00855455
-0.00759862
-0.0067881
-0.00610145
-0.00551996
-0.00502743
-0.00460987
-0.00425529
-0.00395337
-0.00369532
-0.00347368
-0.0032821
-0.00311524
-0.00296861
-0.00283845
-0.00272163
-0.00261557
-0.00251814
-0.00242761
-0.00234258
-0.0022619
-0.00218471
-0.0021103
-0.00203813
-0.00196782
-0.00189907
-0.00183169
-0.00176556
-0.0017006
-0.0016368
-0.00157416
-0.00151272
-0.00145253
-0.00139365
-0.00133615
-0.0012801
-0.00122556
-0.00117259
-0.00112124
-0.00107155
-0.00102355
-0.000977275
-0.000932725
-0.000889905
-0.000848808
-0.000809418
-0.000771712
-0.00073566
-0.000701226
-0.000668372
-0.000637052
-0.000607223
-0.000578836
-0.000551844
-0.000526199
-0.000501854
-0.00047876
-0.000456874
-0.00043615
-0.000416546
-0.00039802
-0.000380532
-0.000364042
-0.000348514
-0.000333908
-0.00032019
-0.000307321
-0.000295267
-0.000283992
-0.00027346
-0.000263637
-0.000254487
-0.000245977
-0.000238073
-0.000230743
-0.000223958
-0.000217687
-0.000211907
-0.000206591
-0.000201722
-0.000197281
-0.000193255
-0.000189634
-0.000186414
-0.000183593
-0.000181171
-0.000179155
-0.000177553
-0.000176376
-0.000175636
-0.00017535
-0.000175531
-0.000176197
-0.000177365
-0.00017905
-0.000181269
-0.000184036
-0.000187367
-0.000191273
-0.000195768
-0.000200864
-0.00020657
-0.000212898
-0.000219856
-0.000227454
-0.000235701
-0.000244606
-0.000254178
-0.000264427
-0.000275363
-0.000286996
-0.000299338
-0.0003124
-0.000326197
-0.000340741
-0.000356047
-0.000372133
-0.000389016
-0.000406713
-0.000425246
-0.000444636
-0.000464904
-0.000486075
-0.000508176
-0.000531231
-0.000555271
-0.000580325
-0.000606424
-0.000633601
-0.00066189
-0.000691328
-0.000721951
-0.000753798
-0.00078691
-0.000821327
-0.000857093
-0.00089425
-0.000932846
-0.000972925
-0.00101454
-0.00105773
-0.00110255
-0.00114905
-0.00119728
-0.0012473
-0.00129915
-0.00135289
-0.00140857
-0.00146626
-0.00152599
-0.00158783
-0.00165182
-0.00171803
-0.0017865
-0.00185729
-0.00193044
-0.00200601
-0.00208405
-0.00216459
-0.00224768
-0.00233337
-0.00242169
-0.00251267
-0.00260635
-0.00270275
-0.0028019
-0.0029038
-0.00300848
-0.00311595
-0.00322619
-0.00333921
-0.003455
-0.00357353
-0.00369479
-0.00381873
-0.00394533
-0.00407452
-0.00420626
-0.00434049
-0.00447712
-0.00461608
-0.00475726
-0.00490055
-0.00504582
-0.00519293
-0.00534172
-0.00549202
-0.00564364
-0.00579637
-0.00595001
-0.00610432
-0.00625905
-0.00641394
-0.00656872
-0.00672311
-0.00687678
-0.00702941
-0.00718062
-0.00733002
-0.00747712
-0.00762144
-0.0077625
-0.00789991
-0.00803328
-0.00816226
-0.00828647
-0.00840538
-0.0085183
-0.00862456
-0.00872355
-0.00881484
-0.00889809
-0.00897299
-0.009039
-0.00909486
-0.00913925
-0.009171
-0.0091893
-0.00919359
-0.00918351
-0.00915879
-0.00911927
-0.00906494
-0.00899584
-0.00891209
-0.00881343
-0.00869914
-0.00856857
-0.0084215
-0.00825821
-0.00807944
-0.00788627
-0.00768011
-0.00746241
-0.00723442
-0.0069968
-0.00675006
-0.00649495
-0.00623263
-0.00596458
-0.00569239
-0.00541756
-0.0051412
-0.00486405
-0.00458723
-0.00431166
-0.00403659
-0.00376411
-0.0034969
-0.003236
-0.00298035
-0.00272989
-0.00248564
-0.0022494
-0.00202301
-0.00180806
-0.00160568
-0.00141627
-0.0012398
-0.00107589
-0.000923849
-0.000782906
-0.00065295
-0.000534421
-0.000428011
-0.000334354
-0.000253799
-0.000186299
-0.000131384
-8.81929e-05
-5.55472e-05
-3.20339e-05
-1.61033e-05
-6.166e-06
-0.877743
-0.788149
-0.706404
-0.631981
-0.564374
-0.503094
-0.447676
-0.397672
-0.352658
-0.312231
-0.276009
-0.243633
-0.214763
-0.189082
-0.166295
-0.146125
-0.128316
-0.112632
-0.098853
-0.0867791
-0.0762262
-0.0670263
-0.0590264
-0.0520878
-0.0460851
-0.040905
-0.0364458
-0.0326164
-0.0293354
-0.0265304
-0.0241371
-0.0220987
-0.0203649
-0.0188917
-0.0176404
-0.0165773
-0.0156729
-0.0149018
-0.0142417
-0.0136738
-0.0131814
-0.0127506
-0.0123693
-0.0120274
-0.0117164
-0.0114291
-0.0111598
-0.0109034
-0.0106562
-0.010415
-0.0101774
-0.00994144
-0.00970588
-0.00946975
-0.0092325
-0.00899388
-0.00875387
-0.00851266
-0.0082706
-0.00802814
-0.00778584
-0.00754427
-0.00730405
-0.00706581
-0.00683014
-0.00659763
-0.0063688
-0.00614414
-0.00592406
-0.00570893
-0.00549906
-0.00529468
-0.00509599
-0.00490312
-0.00471615
-0.00453513
-0.00436007
-0.00419096
-0.00402774
-0.00387036
-0.00371876
-0.00357284
-0.00343253
-0.00329775
-0.0031684
-0.00304441
-0.0029257
-0.00281217
-0.00270376
-0.00260037
-0.0025019
-0.00240825
-0.00231929
-0.00223489
-0.00215489
-0.00207911
-0.00200735
-0.00193939
-0.00187497
-0.00181383
-0.00175568
-0.00170022
-0.00164713
-0.0015961
-0.00154681
-0.00149896
-0.00145226
-0.00140647
-0.00136134
-0.0013167
-0.00127241
-0.00122838
-0.00118457
-0.00114098
-0.00109766
-0.00105472
-0.00101227
-0.000970475
-0.000929501
-0.000889527
-0.000850734
-0.000813301
-0.000777395
-0.000743174
-0.000710776
-0.000680325
-0.000651926
-0.000625665
-0.000601612
-0.000579817
-0.000560319
-0.000543141
-0.000528293
-0.000515776
-0.000505582
-0.000497696
-0.000492097
-0.000488757
-0.000487648
-0.000488736
-0.000491989
-0.00049737
-0.000504845
-0.00051438
-0.000525941
-0.000539494
-0.000555008
-0.000572454
-0.000591806
-0.00061304
-0.000636137
-0.00066108
-0.000687859
-0.000716469
-0.000746909
-0.000779183
-0.000813302
-0.000849283
-0.000887148
-0.000926924
-0.000968646
-0.00101235
-0.00105808
-0.00110589
-0.00115584
-0.00120797
-0.00126236
-0.00131907
-0.00137818
-0.00143976
-0.00150389
-0.00157065
-0.00164014
-0.00171244
-0.00178765
-0.00186586
-0.00194717
-0.00203167
-0.00211948
-0.0022107
-0.00230543
-0.00240378
-0.00250586
-0.00261177
-0.00272163
-0.00283554
-0.00295361
-0.00307595
-0.00320267
-0.00333387
-0.00346965
-0.00361011
-0.00375534
-0.00390544
-0.00406049
-0.00422057
-0.00438576
-0.00455612
-0.00473172
-0.00491262
-0.00509886
-0.00529048
-0.00548749
-0.0056899
-0.00589773
-0.00611101
-0.00632974
-0.00655393
-0.00678359
-0.00701868
-0.00725915
-0.00750493
-0.00775595
-0.00801209
-0.00827319
-0.00853912
-0.00880972
-0.00908478
-0.00936412
-0.00964752
-0.00993474
-0.0102256
-0.0105197
-0.0108169
-0.0111167
-0.0114187
-0.0117219
-0.0120257
-0.0123295
-0.0126326
-0.0129352
-0.0132366
-0.0135369
-0.0138348
-0.0141292
-0.0144189
-0.0147032
-0.0149823
-0.0152562
-0.0155249
-0.0157877
-0.0160404
-0.0162804
-0.016505
-0.0167124
-0.016901
-0.0170693
-0.0172164
-0.0173416
-0.0174453
-0.0175277
-0.017588
-0.0176223
-0.0176264
-0.0175964
-0.0175309
-0.0174298
-0.0172946
-0.0171287
-0.0169365
-0.0167205
-0.016478
-0.0162044
-0.0158962
-0.0155554
-0.0151871
-0.0147972
-0.0143903
-0.0139635
-0.0135065
-0.0130155
-0.0124926
-0.0119423
-0.0113722
-0.0107902
-0.0102036
-0.00960625
-0.00899902
-0.00838523
-0.00777021
-0.00716108
-0.00656357
-0.0059854
-0.00543229
-0.00490705
-0.00441252
-0.00394397
-0.0034837
-0.00302875
-0.00258393
-0.00215731
-0.00175754
-0.00139224
-0.00106729
-0.000786524
-0.000551726
-0.000362681
-0.00021734
-0.000112011
-4.16242e-05
-2.27876
-2.08623
-1.90664
-1.73946
-1.58424
-1.44062
-1.308
-1.18576
-1.07332
-0.970112
-0.875568
-0.789142
-0.7103
-0.638528
-0.573329
-0.51423
-0.460775
-0.412532
-0.369092
-0.330066
-0.295088
-0.263813
-0.235918
-0.211099
-0.189075
-0.169582
-0.152376
-0.137231
-0.123937
-0.112303
-0.102152
-0.0933218
-0.0856649
-0.0790468
-0.0733452
-0.0684495
-0.0642594
-0.0606845
-0.0576436
-0.0550629
-0.052877
-0.0510272
-0.0494609
-0.0481314
-0.0469978
-0.0460244
-0.0451802
-0.0444384
-0.0437746
-0.0431676
-0.0425981
-0.0420502
-0.0415108
-0.0409699
-0.0404195
-0.0398542
-0.0392698
-0.038664
-0.0380356
-0.0373842
-0.0367104
-0.0360153
-0.0353005
-0.0345677
-0.0338193
-0.0330574
-0.0322846
-0.0315034
-0.0307161
-0.029925
-0.0291326
-0.0283408