/*--------------------------------*- C++ -*----------------------------------*\
| =========                 |                                                 |
| \\      /  F ield         | OpenFOAM: The Open Source CFD Toolbox           |
|  \\    /   O peration     | Version:  2.4.0                                 |
|   \\  /    A nd           | Web:      www.OpenFOAM.org                      |
|    \\/     M anipulation  |                                                 |
\*---------------------------------------------------------------------------*/
FoamFile
{
    version     2.0;
    format      ascii;
    class       volScalarField;
    location    "3.5";
    object      p;
}
// * * * * * * * * * * * * * * * * * * * * * * * * * * * * * * * * * * * * * //

dimensions      [1 -1 -2 0 0 0 0];

internalField   nonuniform List<scalar> 
8000
(
-1.10885
-1.12379
-1.14444
-1.16998
-1.20196
-1.23566
-1.24088
-1.27431
-1.23283
-1.20108
-1.1154
-0.888876
-0.795488
-0.641859
-0.649535
-0.63869
-0.567299
-0.33533
-0.0108388
0.403054
0.838269
1.14475
1.6558
2.43143
1.79293
-4.92792
-7.99702
-7.67876
-7.09894
-7.02277
-7.65421
-8.20658
-6.61222
-2.91835
-1.75764
-1.1233
-0.849765
0.276208
-1.39378
-1.51229
-1.47127
-1.4654
-1.44623
-1.39864
-1.43342
-1.46822
-1.24298
-1.2725
-1.3047
-1.31331
1.67647
1.65216
1.62903
1.60981
1.59406
1.58033
1.57266
1.56103
1.55722
1.55767
1.5628
1.56967
1.57731
1.58472
1.59738
1.61878
1.66314
1.73047
1.82309
1.93143
2.04989
2.19224
2.36456
2.54392
2.72498
2.893
3.02692
3.19434
3.44946
3.84008
4.22445
4.05889
1.51403
-0.894181
-6.10014
-10.8166
-9.62241
-1.99657
0.254986
0.927514
-0.362557
-1.40455
-1.49118
-1.44065
-1.38606
-1.39124
-1.39489
-1.38801
-1.38393
-1.38192
2.02004
2.00054
1.97786
1.9576
1.94049
1.92623
1.91461
1.90552
1.89907
1.89532
1.89404
1.89512
1.89818
1.90304
1.90948
1.91744
1.92685
1.93753
1.94914
1.9611
1.97295
1.98391
1.99333
1.99986
2.00395
2.00811
2.01807
2.04211
2.09011
2.16001
2.23478
2.31091
2.38947
2.46684
2.58094
2.72582
2.61075
-1.62688
-3.29391
-7.60033
-7.77514
-2.15985
-0.258155
0.107018
-0.987814
-1.42274
-1.43501
-1.4058
-1.39234
-1.38839
4.03665
4.00835
3.98083
3.95803
3.93921
3.92358
3.91105
3.9016
3.89532
3.89218
3.89226
3.89551
3.90202
3.91172
3.92474
3.941
3.96065
3.98354
4.00979
4.03914
4.07171
4.10714
4.14557
4.18653
4.23015
4.27585
4.324
4.37391
4.42597
4.47898
4.5333
4.58783
4.64474
4.70404
4.76777
4.81966
4.87203
4.92049
4.99739
4.95584
4.61554
0.453963
-5.01588
-7.11753
-5.77838
-2.43294
-0.933636
-1.06163
-1.32191
-1.37098
3.81922
3.79395
3.76579
3.74056
3.71865
3.69949
3.68283
3.66867
3.65699
3.64781
3.64111
3.63687
3.63508
3.63573
3.6388
3.64428
3.65217
3.66243
3.67509
3.6901
3.70749
3.72722
3.74936
3.77382
3.80074
3.83001
3.86182
3.89599
3.9328
3.97193
4.0137
4.05763
4.10426
4.15287
4.2042
4.25734
4.31455
4.37631
4.44139
4.48948
4.51373
4.54384
4.61311
4.62183
2.28182
-0.981975
-5.73183
-4.46696
-2.4279
-1.43147
4.54452
4.51517
4.485
4.45858
4.43541
4.41476
4.39643
4.38042
4.36675
4.35541
4.34639
4.33966
4.33522
4.33305
4.33313
4.33544
4.33997
4.3467
4.3556
4.36666
4.37986
4.39518
4.41258
4.43207
4.4536
4.47719
4.50276
4.53036
4.55993
4.5915
4.62495
4.66037
4.69768
4.73694
4.77804
4.8211
4.86594
4.9127
4.9612
5.01186
5.06513
5.12143
5.17599
5.22506
5.27272
5.39797
5.53656
4.82761
-0.274245
-2.11901
3.9461
3.91875
3.88904
3.86252
3.83928
3.81867
3.80047
3.78466
3.77125
3.76024
3.75163
3.74539
3.74153
3.74004
3.74092
3.74416
3.74976
3.75772
3.76805
3.78073
3.79578
3.8132
3.833
3.85516
3.87973
3.90667
3.93603
3.96778
4.00199
4.03858
4.07762
4.11908
4.16302
4.20939
4.25826
4.30956
4.3634
4.41967
4.47849
4.53978
4.60358
4.66985
4.73914
4.81226
4.88922
4.95922
5.00505
5.07755
5.16399
5.06989
3.57861
3.55533
3.53096
3.50934
3.49016
3.47287
3.45729
3.44344
3.43132
3.42093
3.41227
3.40532
3.40009
3.39656
3.39474
3.39463
3.39621
3.3995
3.40448
3.41117
3.41957
3.42967
3.4415
3.45506
3.47036
3.4874
3.50622
3.52682
3.54923
3.57347
3.59957
3.62754
3.65746
3.68932
3.7232
3.75912
3.79718
3.83737
3.87984
3.92459
3.97179
4.0214
4.07371
4.12866
4.18681
4.24795
4.31172
4.3744
4.43255
4.5087
2.48479
2.46739
2.44853
2.43167
2.41688
2.40373
2.3921
2.382
2.37342
2.36638
2.36089
2.35694
2.35454
2.35369
2.3544
2.35667
2.3605
2.36592
2.37291
2.38149
2.39168
2.40348
2.4169
2.43196
2.44867
2.46704
2.48709
2.50884
2.5323
2.55749
2.58444
2.61315
2.64367
2.67599
2.71017
2.7462
2.78414
2.82398
2.86581
2.90958
2.95541
3.00324
3.0532
3.10521
3.15942
3.21575
3.27456
3.33567
3.40034
3.46636
1.48792
1.47812
1.46789
1.45868
1.45028
1.44249
1.43523
1.42853
1.42239
1.41682
1.4118
1.40733
1.40341
1.40004
1.39719
1.39487
1.39306
1.39175
1.39091
1.39054
1.39062
1.39111
1.39201
1.39329
1.39491
1.39685
1.39907
1.40153
1.40421
1.40705
1.41001
1.41303
1.41607
1.41906
1.42194
1.42463
1.42708
1.42917
1.43085
1.43198
1.43252
1.43228
1.43119
1.42894
1.42551
1.42121
1.4187
1.41816
1.40738
1.31849
0.0558798
0.0504053
0.0439211
0.0378292
0.0322953
0.0272096
0.0225148
0.0182005
0.0142682
0.0107143
0.00753572
0.00472473
0.00227763
0.000184606
-0.00155815
-0.0029631
-0.00403406
-0.00478689
-0.00522542
-0.00537024
-0.00522371
-0.00481123
-0.00413375
-0.00322436
-0.00208111
-0.000746577
0.0007855
0.00245939
0.00428934
0.00620394
0.00822776
0.0102667
0.0123612
0.0143877
0.0164094
0.0182631
0.0200449
0.0215409
0.0228991
0.0238321
0.0245003
0.024388
0.0237972
0.0233349
0.0266335
0.0332331
0.0174171
-0.0986563
-0.422318
-1.59251
-0.915948
-0.918031
-0.919363
-0.920128
-0.920612
-0.9209
-0.920987
-0.920866
-0.920533
-0.919986
-0.919222
-0.918234
-0.917015
-0.915553
-0.913836
-0.91185
-0.909577
-0.906999
-0.904092
-0.900833
-0.897193
-0.893145
-0.888652
-0.88368
-0.878187
-0.872132
-0.865464
-0.858136
-0.850088
-0.841262
-0.831589
-0.821002
-0.809421
-0.796762
-0.78294
-0.767847
-0.751388
-0.733429
-0.713922
-0.6928
-0.669968
-0.644246
-0.613005
-0.57615
-0.554706
-0.609548
-0.924437
-2.47588
-3.10652
-3.1696
-2.64464
-2.63727
-2.6303
-2.62436
-2.61907
-2.61424
-2.60983
-2.60585
-2.60231
-2.59918
-2.59648
-2.59418
-2.59228
-2.59078
-2.58965
-2.5889
-2.58851
-2.58846
-2.58876
-2.58937
-2.59031
-2.59152
-2.59304
-2.5948
-2.59683
-2.59907
-2.60156
-2.6042
-2.60707
-2.61003
-2.61321
-2.61641
-2.61981
-2.62315
-2.62668
-2.63004
-2.63358
-2.63694
-2.64106
-2.64556
-2.64813
-2.63672
-2.60492
-2.62613
-2.98524
-3.99688
-4.41559
-4.35238
-3.56341
-2.13255
-3.44808
-3.43545
-3.42102
-3.40805
-3.39689
-3.38726
-3.37903
-3.3722
-3.36677
-3.36275
-3.36015
-3.35896
-3.3592
-3.36087
-3.36397
-3.36853
-3.37454
-3.38202
-3.39099
-3.40146
-3.41345
-3.42697
-3.44205
-3.45871
-3.47698
-3.49687
-3.51843
-3.54167
-3.56665
-3.59337
-3.62191
-3.65226
-3.68451
-3.71865
-3.75478
-3.79292
-3.8335
-3.87668
-3.92113
-3.96018
-3.98787
-4.04258
-4.29094
-4.89651
-5.26928
-4.69241
-3.28563
-1.86569
-1.61577
-1.63696
-5.08543
-5.0678
-5.05072
-5.03624
-5.02374
-5.01275
-5.0032
-4.99511
-4.98851
-4.98339
-4.97975
-4.97758
-4.97688
-4.97763
-4.97982
-4.98344
-4.98847
-4.99489
-5.00268
-5.01181
-5.02225
-5.03398
-5.04695
-5.06113
-5.07647
-5.09293
-5.11044
-5.12896
-5.1484
-5.16871
-5.18977
-5.21154
-5.23383
-5.25662
-5.27981
-5.3037
-5.3279
-5.34926
-5.35902
-5.3599
-5.43152
-5.78707
-6.3572
-5.00167
-3.11581
-1.8207
-1.65854
-1.66916
-1.66836
-1.66754
-5.03886
-5.01467
-4.98681
-4.96161
-4.93969
-4.92052
-4.90381
-4.88951
-4.87761
-4.86809
-4.86092
-4.85609
-4.85358
-4.85337
-4.85545
-4.85983
-4.8665
-4.87548
-4.88677
-4.90039
-4.91636
-4.93472
-4.9555
-4.97875
-5.00449
-5.03281
-5.06373
-5.09736
-5.13373
-5.17295
-5.21507
-5.26021
-5.30844
-5.36003
-5.41526
-5.47402
-5.53333
-5.58735
-5.64426
-5.78105
-6.15308
-6.54017
-4.10631
-1.90336
-1.71609
-1.69025
-1.68868
-1.68805
-1.68807
-1.6881
-6.70559
-6.6683
-6.63266
-6.60348
-6.57948
-6.55958
-6.54356
-6.53141
-6.52314
-6.51873
-6.51818
-6.52146
-6.52861
-6.53964
-6.55459
-6.57351
-6.59648
-6.62358
-6.65491
-6.69059
-6.73077
-6.77559
-6.82524
-6.87992
-6.93984
-7.00526
-7.07644
-7.15367
-7.23727
-7.3276
-7.425
-7.52994
-7.64283
-7.76428
-7.89444
-8.03278
-8.17854
-8.33936
-8.54555
-8.82875
-9.00377
-8.18802
-3.58948
-1.9756
-1.68061
-1.68713
-1.70571
-1.71095
-1.71239
-1.71217
-4.86902
-4.85456
-4.83705
-4.82283
-4.81264
-4.80559
-4.80095
-4.79824
-4.7971
-4.79722
-4.7983
-4.80007
-4.80232
-4.80484
-4.80745
-4.81001
-4.81237
-4.81445
-4.81615
-4.8174
-4.81815
-4.81839
-4.81808
-4.81725
-4.8159
-4.8141
-4.81188
-4.80936
-4.80659
-4.80376
-4.80093
-4.79838
-4.79616
-4.79462
-4.79381
-4.79441
-4.79711
-4.803
-4.80755
-4.79506
-4.75742
-4.81246
-5.43844
-6.15362
-2.14041
-1.74199
-1.82478
-1.73792
-1.73571
-1.73544
-5.8094
-5.78595
-5.76989
-5.76232
-5.75996
-5.76067
-5.76332
-5.76706
-5.77112
-5.77482
-5.77756
-5.7788
-5.77807
-5.77497
-5.76911
-5.76017
-5.74787
-5.73192
-5.7121
-5.68818
-5.65997
-5.62729
-5.58997
-5.54786
-5.50085
-5.4488
-5.39162
-5.32921
-5.26153
-5.18851
-5.11016
-5.02643
-4.93742
-4.84313
-4.74379
-4.63944
-4.53046
-4.41663
-4.29825
-4.17689
-4.061
-3.95798
-3.83406
-3.86831
-6.08352
-10.0449
-5.17259
-5.14423
-1.78432
-1.74533
-1.14336
-1.59221
-2.04333
-2.43114
-2.76773
-3.06836
-3.3393
-3.58304
-3.80154
-3.99665
-4.17007
-4.32319
-4.45718
-4.573
-4.67144
-4.75314
-4.81864
-4.86833
-4.90255
-4.9215
-4.92536
-4.91418
-4.88798
-4.84667
-4.79015
-4.71818
-4.6305
-4.52672
-4.40642
-4.26898
-4.1138
-3.93998
-3.74665
-3.5325
-3.29631
-3.03621
-2.7505
-2.43657
-2.09196
-1.71218
-1.29185
-0.825453
-0.324771
0.171166
0.671921
1.00784
3.59161
7.54497
-4.54526
-2.35002
-1.31653
-1.31881
-1.3209
-1.32289
-1.32467
-1.32626
-1.32785
-1.32923
-1.33055
-1.33179
-1.33289
-1.33388
-1.33617
-1.33703
-1.33737
-1.33871
-1.33895
-1.33961
-1.34028
-1.34083
-1.34135
-1.34183
-1.34227
-1.34269
-1.34308
-1.34345
-1.3438
-1.34412
-1.34442
-1.34471
-1.34497
-1.34523
-1.34546
-1.34569
-1.3459
-1.34611
-1.3463
-1.34649
-1.34666
-1.34684
-1.347
-1.34716
-1.34731
-1.34746
-1.34761
-1.34775
-1.34788
-1.34802
-1.34815
-1.34828
-1.38042
-1.37932
-1.37848
-1.37763
-1.37693
-1.37634
-1.37585
-1.37543
-1.37513
-1.37323
-1.37302
-1.3729
-1.37269
-1.37247
-1.3724
-1.37227
-1.37217
-1.37207
-1.37182
-1.37206
-1.372
-1.37169
-1.3717
-1.3711
-1.3715
-1.3715
-1.37148
-1.37146
-1.37146
-1.37145
-1.37145
-1.37145
-1.37145
-1.37145
-1.37147
-1.37149
-1.37151
-1.37154
-1.37158
-1.37161
-1.37166
-1.3717
-1.37175
-1.3718
-1.37185
-1.37191
-1.37196
-1.37202
-1.37209
-1.37215
-1.38814
-1.38893
-1.38976
-1.3904
-1.39084
-1.39112
-1.39129
-1.39137
-1.39115
-1.39122
-1.3903
-1.39117
-1.39124
-1.39132
-1.39139
-1.39133
-1.39152
-1.39159
-1.39168
-1.3918
-1.39185
-1.39189
-1.39215
-1.39226
-1.39235
-1.39244
-1.39257
-1.39268
-1.39173
-1.39256
-1.39223
-1.39217
-1.39222
-1.39227
-1.39231
-1.39236
-1.3924
-1.39245
-1.3925
-1.39255
-1.39261
-1.39267
-1.39274
-1.3928
-1.39288
-1.39295
-1.39303
-1.39312
-1.39321
-1.3933
-1.39225
-1.40747
-1.41586
-1.41925
-1.42024
-1.42061
-1.4208
-1.42088
-1.42092
-1.42091
-1.4209
-1.42088
-1.42088
-1.42089
-1.42088
-1.42094
-1.42098
-1.42104
-1.42111
-1.42119
-1.42111
-1.42118
-1.42241
-1.42258
-1.42276
-1.42297
-1.42321
-1.42348
-1.42381
-1.42421
-1.39989
-1.41249
-1.41332
-1.41343
-1.41363
-1.41386
-1.41407
-1.41426
-1.41444
-1.41459
-1.41474
-1.41488
-1.41501
-1.41514
-1.41527
-1.4154
-1.41553
-1.41565
-1.41579
-1.41592
-1.28214
-1.29503
-1.3268
-1.38199
-1.42031
-1.43513
-1.43853
-1.4391
-1.43925
-1.43934
-1.43939
-1.4394
-1.4393
-1.43921
-1.43861
-1.43913
-1.43908
-1.43911
-1.4391
-1.4387
-1.43868
-1.43868
-1.43863
-1.43856
-1.43847
-1.43838
-1.43827
-1.43816
-1.43812
-1.43785
-1.43699
-1.43679
-1.43807
-1.43854
-1.43872
-1.43872
-1.43873
-1.43879
-1.43888
-1.4388
-1.43853
-1.4389
-1.43908
-1.43912
-1.43915
-1.43919
-1.43922
-1.43925
-1.43922
-1.43932
-1.89649
-1.26499
-0.996611
-1.14873
-1.34189
-1.42495
-1.4524
-1.46056
-1.46282
-1.4635
-1.46374
-1.46384
-1.46389
-1.46391
-1.46392
-1.46357
-1.4636
-1.46403
-1.46404
-1.46406
-1.46408
-1.46409
-1.46409
-1.46412
-1.46417
-1.46419
-1.46415
-1.46394
-1.46347
-1.46314
-1.46491
-1.46547
-1.46583
-1.46618
-1.46617
-1.46605
-1.46618
-1.46634
-1.46714
-1.44665
-1.45542
-1.45928
-1.45956
-1.45976
-1.45994
-1.46013
-1.46031
-1.46049
-1.46067
-1.46084
2.83616
1.69475
0.651084
-0.235106
-0.883492
-1.29853
-1.44988
-1.47955
-1.48405
-1.48503
-1.48537
-1.48552
-1.48557
-1.48556
-1.48555
-1.48555
-1.4855
-1.48554
-1.48554
-1.4855
-1.48546
-1.48548
-1.48545
-1.48541
-1.48537
-1.48531
-1.48521
-1.48398
-1.48424
-1.48501
-1.48465
-1.48404
-1.48492
-1.48487
-1.48462
-1.48415
-1.48325
-1.48243
-1.48217
-1.48228
-1.48309
-1.48369
-1.48397
-1.48407
-1.48413
-1.48419
-1.48427
-1.48435
-1.48444
-1.48452
4.58117
4.52443
3.3793
2.14212
0.395828
-1.04066
-1.44517
-1.50118
-1.50684
-1.50758
-1.50772
-1.50773
-1.50772
-1.50702
-1.50686
-1.50757
-1.50755
-1.50752
-1.5075
-1.50747
-1.50744
-1.50741
-1.50737
-1.50732
-1.50732
-1.50726
-1.50722
-1.50718
-1.50723
-1.50732
-1.50676
-1.50976
-1.50796
-1.51071
-1.51043
-1.50153
-1.50583
-1.50635
-1.50645
-1.50654
-1.50676
-1.50686
-1.50682
-1.50676
-1.50668
-1.50662
-1.50656
-1.50649
-1.50631
-1.50672
3.52158
3.52165
3.35894
2.30579
0.84251
-0.935692
-1.46103
-1.52607
-1.5314
-1.53177
-1.53175
-1.53159
-1.53175
-1.53175
-1.53175
-1.53174
-1.53001
-1.53157
-1.53159
-1.5316
-1.53161
-1.53161
-1.5316
-1.5316
-1.53153
-1.5315
-1.53149
-1.52909
-1.53073
-1.53075
-1.53072
-1.53072
-1.53063
-1.53087
-1.53033
-1.52968
-1.53062
-1.53062
-1.5305
-1.53036
-1.53026
-1.53006
-1.52986
-1.53025
-1.53004
-1.52993
-1.52985
-1.52975
-1.52967
-1.52542
1.0278
0.0442034
-0.513041
-0.851896
-1.13814
-1.42531
-1.54093
-1.5537
-1.55349
-1.55337
-1.55314
-1.55302
-1.55243
-1.55205
-1.55227
-1.5509
-1.55104
-1.55164
-1.55061
-1.55243
-1.55229
-1.5522
-1.55266
-1.55257
-1.55243
-1.55239
-1.55228
-1.55122
-1.55276
-1.55263
-1.55322
-1.55309
-1.55332
-1.55283
-1.55269
-1.55278
-1.5527
-1.55227
-1.55198
-1.55378
-1.55361
-1.5534
-1.5532
-1.55299
-1.55275
-1.55252
-1.55227
-1.55195
-1.55161
-1.5512
-2.13382
-2.15427
-1.97736
-1.78977
-1.6353
-1.58879
-1.57665
-1.57631
-1.57647
-1.57648
-1.57643
-1.57645
-1.57646
-1.57645
-1.57591
-1.5766
-1.57693
-1.57697
-1.57588
-1.57746
-1.57776
-1.57775
-1.57825
-1.57828
-1.5783
-1.57839
-1.57843
-1.57847
-1.57855
-1.57746
-1.57773
-1.57786
-1.57797
-1.57807
-1.57816
-1.57834
-1.57845
-1.57855
-1.57332
-1.57556
-1.57593
-1.57477
-1.57517
-1.57527
-1.57498
-1.57531
-1.57543
-1.57492
-1.57562
-1.56795
-2.99971
-2.1706
-1.69199
-1.58403
-1.59654
-1.60017
-1.59999
-1.59998
-1.59997
-1.59991
-1.59984
-1.59979
-1.59974
-1.59968
-1.5996
-1.59953
-1.59954
-1.5995
-1.5994
-1.59945
-1.59944
-1.59942
-1.59939
-1.59936
-1.59908
-1.59826
-1.59882
-1.59883
-1.59888
-1.59886
-1.59882
-1.59887
-1.59871
-1.59921
-1.59922
-1.59931
-1.59936
-1.5993
-1.59928
-1.5993
-1.59792
-1.59851
-1.59871
-1.59865
-1.59873
-1.59861
-1.59819
-1.59835
-1.59834
-1.59829
-1.5794
-1.56475
-1.62405
-1.62279
-1.62265
-1.62279
-1.62279
-1.62274
-1.62269
-1.62264
-1.6226
-1.62255
-1.62251
-1.62247
-1.62243
-1.62239
-1.62235
-1.62231
-1.62228
-1.62225
-1.62222
-1.62219
-1.62217
-1.62215
-1.62213
-1.62211
-1.6221
-1.62208
-1.62207
-1.62206
-1.62205
-1.62204
-1.62203
-1.62202
-1.62202
-1.62201
-1.622
-1.62199
-1.62198
-1.62196
-1.62195
-1.62195
-1.62194
-1.62194
-1.62194
-1.62195
-1.62193
-1.62196
-1.62193
-1.62199
-1.6462
-1.64453
-1.64472
-1.64468
-1.64463
-1.64467
-1.64472
-1.64476
-1.6448
-1.64485
-1.64488
-1.6449
-1.64493
-1.64495
-1.64496
-1.64497
-1.64498
-1.64498
-1.64499
-1.64498
-1.645
-1.64499
-1.64499
-1.64499
-1.64499
-1.64499
-1.64499
-1.64501
-1.64501
-1.64501
-1.64507
-1.64508
-1.64509
-1.6451
-1.64512
-1.64513
-1.64515
-1.64517
-1.64519
-1.64521
-1.64523
-1.64525
-1.64527
-1.6453
-1.64532
-1.64535
-1.64538
-1.64541
-1.64545
-1.64548
-1.6676
-1.66766
-1.66762
-1.66768
-1.66775
-1.66782
-1.66788
-1.66795
-1.66801
-1.66744
-1.66738
-1.66653
-1.66688
-1.66728
-1.66729
-1.66726
-1.66743
-1.66755
-1.6676
-1.6676
-1.66762
-1.66768
-1.6677
-1.66771
-1.66776
-1.66778
-1.66781
-1.66782
-1.66785
-1.66788
-1.66787
-1.66795
-1.66799
-1.66802
-1.66806
-1.6681
-1.66814
-1.66818
-1.66823
-1.66827
-1.66832
-1.66836
-1.66841
-1.66846
-1.66851
-1.66857
-1.66862
-1.66868
-1.66874
-1.6688
-1.6882
-1.68827
-1.68838
-1.6885
-1.68862
-1.68873
-1.68884
-1.68894
-1.68904
-1.68914
-1.68922
-1.68926
-1.68909
-1.68977
-1.68987
-1.68994
-1.69001
-1.69007
-1.69009
-1.69001
-1.68974
-1.69005
-1.69005
-1.6902
-1.69027
-1.69035
-1.6904
-1.69046
-1.69051
-1.69057
-1.69063
-1.69069
-1.69076
-1.69082
-1.69089
-1.69096
-1.69103
-1.6911
-1.69118
-1.69126
-1.69134
-1.69143
-1.69152
-1.69161
-1.6917
-1.6918
-1.6919
-1.692
-1.69207
-1.69191
-1.71217
-1.71233
-1.71249
-1.71263
-1.71274
-1.71284
-1.71291
-1.71297
-1.71302
-1.71306
-1.71308
-1.7131
-1.71313
-1.71279
-1.71309
-1.71313
-1.71313
-1.71314
-1.71315
-1.71315
-1.71316
-1.71318
-1.71319
-1.71321
-1.71323
-1.71325
-1.71327
-1.71329
-1.71332
-1.71335
-1.71338
-1.71341
-1.71344
-1.71348
-1.71352
-1.71356
-1.7136
-1.71364
-1.71369
-1.71373
-1.71378
-1.71383
-1.71396
-1.71398
-1.71388
-1.71413
-1.71419
-1.71398
-1.71406
-1.71412
-1.7359
-1.73608
-1.73617
-1.73625
-1.73631
-1.73636
-1.73639
-1.7364
-1.7364
-1.7364
-1.73639
-1.73637
-1.73636
-1.73634
-1.73633
-1.73631
-1.73629
-1.73628
-1.73626
-1.73625
-1.73624
-1.73624
-1.73624
-1.73624
-1.73624
-1.73624
-1.73625
-1.73626
-1.73627
-1.73628
-1.7363
-1.73632
-1.73634
-1.73636
-1.73638
-1.7364
-1.73643
-1.73646
-1.73648
-1.73651
-1.73654
-1.73657
-1.73661
-1.73664
-1.73667
-1.73671
-1.73674
-1.73678
-1.73681
-1.73684
-1.75939
-1.75967
-1.75988
-1.75987
-1.75981
-1.75976
-1.75971
-1.75966
-1.75961
-1.75956
-1.75952
-1.75947
-1.75943
-1.7594
-1.75936
-1.75933
-1.7593
-1.75928
-1.75925
-1.75924
-1.75922
-1.75921
-1.75919
-1.75919
-1.75918
-1.75918
-1.75917
-1.75917
-1.75917
-1.75918
-1.75918
-1.75919
-1.7592
-1.75921
-1.75922
-1.75923
-1.75924
-1.75926
-1.75927
-1.75929
-1.75931
-1.75933
-1.75935
-1.75937
-1.75939
-1.75941
-1.75944
-1.75946
-1.75949
-1.75951
-1.78692
-1.77884
-1.78047
-1.78129
-1.78132
-1.78123
-1.78124
-1.78119
-1.78131
-1.78131
-1.78132
-1.78133
-1.78133
-1.78134
-1.78135
-1.78136
-1.78137
-1.78138
-1.7814
-1.78141
-1.78142
-1.78143
-1.78144
-1.78146
-1.78147
-1.78149
-1.7815
-1.78152
-1.78153
-1.78155
-1.78157
-1.78159
-1.78161
-1.78163
-1.78165
-1.78167
-1.78169
-1.78171
-1.78173
-1.78176
-1.78178
-1.78181
-1.78183
-1.78186
-1.78189
-1.78191
-1.78194
-1.78197
-1.782
-1.78203
-1.34837
-1.34844
-1.34852
-1.34859
-1.34866
-1.34874
-1.34881
-1.34888
-1.34896
-1.34903
-1.3491
-1.34917
-1.34925
-1.34932
-1.34939
-1.34947
-1.34954
-1.34961
-1.34968
-1.34976
-1.34983
-1.3499
-1.34998
-1.35005
-1.35012
-1.3502
-1.35027
-1.35035
-1.35042
-1.3505
-1.35057
-1.35065
-1.35072
-1.3508
-1.35087
-1.35095
-1.35103
-1.3511
-1.35118
-1.35126
-1.35134
-1.35141
-1.35149
-1.35157
-1.35165
-1.35173
-1.35181
-1.35189
-1.35197
-1.35205
-1.35213
-1.35221
-1.35229
-1.35237
-1.35245
-1.35254
-1.35262
-1.3527
-1.35278
-1.35287
-1.35295
-1.35303
-1.35312
-1.3532
-1.35329
-1.35337
-1.35346
-1.35354
-1.35363
-1.35371
-1.3538
-1.35389
-1.35397
-1.35406
-1.35415
-1.35424
-1.35433
-1.35442
-1.35451
-1.3546
-1.35469
-1.35478
-1.35487
-1.35496
-1.35506
-1.35515
-1.35524
-1.35534
-1.35543
-1.35552
-1.35562
-1.35571
-1.35581
-1.35591
-1.356
-1.3561
-1.3562
-1.3563
-1.35639
-1.35649
-1.35659
-1.35669
-1.35679
-1.35689
-1.35699
-1.35709
-1.35719
-1.35729
-1.35739
-1.35749
-1.35759
-1.35769
-1.35779
-1.35788
-1.35798
-1.35808
-1.35818
-1.35828
-1.35837
-1.35847
-1.35856
-1.35866
-1.35875
-1.35885
-1.35894
-1.35903
-1.35912
-1.35921
-1.3593
-1.35938
-1.35947
-1.35955
-1.35963
-1.35971
-1.35979
-1.35987
-1.35995
-1.36002
-1.36009
-1.36017
-1.36023
-1.3603
-1.36037
-1.36043
-1.36049
-1.36055
-1.36061
-1.36067
-1.36072
-1.36077
-1.36082
-1.36087
-1.36092
-1.36096
-1.361
-1.36104
-1.36108
-1.36112
-1.36115
-1.36118
-1.36121
-1.36124
-1.36127
-1.3613
-1.36132
-1.36134
-1.36136
-1.36138
-1.3614
-1.36142
-1.36143
-1.36144
-1.36146
-1.36147
-1.36148
-1.36149
-1.36149
-1.3615
-1.36151
-1.36151
-1.36152
-1.36152
-1.36152
-1.36153
-1.36153
-1.36153
-1.36153
-1.36153
-1.36153
-1.36153
-1.36153
-1.36152
-1.36152
-1.36152
-1.36152
-1.36152
-1.36151
-1.36151
-1.36151
-1.3615
-1.3615
-1.3615
-1.3615
-1.36149
-1.36149
-1.36149
-1.36148
-1.36148
-1.36148
-1.36147
-1.36147
-1.36147
-1.36147
-1.36146
-1.36146
-1.36146
-1.36146
-1.36145
-1.36145
-1.36145
-1.36145
-1.36145
-1.36144
-1.36144
-1.36144
-1.36144
-1.36143
-1.36143
-1.36143
-1.36142
-1.36142
-1.36142
-1.36141
-1.36141
-1.36141
-1.3614
-1.3614
-1.36139
-1.36139
-1.36138
-1.36138
-1.36137
-1.36136
-1.36135
-1.36134
-1.36134
-1.36133
-1.36132
-1.36131
-1.36131
-1.3613
-1.36129
-1.36128
-1.36127
-1.36126
-1.36125
-1.36124
-1.36124
-1.36123
-1.36122
-1.36121
-1.3612
-1.36119
-1.36118
-1.36117
-1.36116
-1.36115
-1.36114
-1.36113
-1.36111
-1.3611
-1.36109
-1.36107
-1.36106
-1.36104
-1.36103
-1.36101
-1.361
-1.36098
-1.36096
-1.36094
-1.36092
-1.3609
-1.36088
-1.36086
-1.36084
-1.36082
-1.3608
-1.36077
-1.36075
-1.36072
-1.36069
-1.36067
-1.36064
-1.36061
-1.36058
-1.36055
-1.36052
-1.36049
-1.36046
-1.37221
-1.37225
-1.3723
-1.37234
-1.37238
-1.37243
-1.37247
-1.37252
-1.37257
-1.37261
-1.37266
-1.37271
-1.37276
-1.37281
-1.37286
-1.37291
-1.37296
-1.37302
-1.37307
-1.37313
-1.37318
-1.37324
-1.37329
-1.37335
-1.37341
-1.37347
-1.37353
-1.37358
-1.37365
-1.37371
-1.37377
-1.37383
-1.37389
-1.37396
-1.37402
-1.37408
-1.37415
-1.37421
-1.37428
-1.37435
-1.37441
-1.37448
-1.37455
-1.37461
-1.37468
-1.37475
-1.37482
-1.37489
-1.37496
-1.37503
-1.37511
-1.37518
-1.37525
-1.37532
-1.3754
-1.37547
-1.37554
-1.37562
-1.37569
-1.37577
-1.37584
-1.37592
-1.37599
-1.37607
-1.37615
-1.37623
-1.37631
-1.37638
-1.37646
-1.37654
-1.37663
-1.37671
-1.37679
-1.37687
-1.37696
-1.37704
-1.37713
-1.37721
-1.3773
-1.37739
-1.37748
-1.37757
-1.37766
-1.37775
-1.37784
-1.37794
-1.37803
-1.37813
-1.37822
-1.37832
-1.37842
-1.37852
-1.37862
-1.37872
-1.37882
-1.37893
-1.37903
-1.37914
-1.37924
-1.37935
-1.37946
-1.37956
-1.37967
-1.37978
-1.37989
-1.38
-1.38011
-1.38022
-1.38033
-1.38044
-1.38055
-1.38066
-1.38077
-1.38088
-1.38099
-1.3811
-1.38121
-1.38132
-1.38142
-1.38153
-1.38164
-1.38174
-1.38185
-1.38195
-1.38205
-1.38215
-1.38225
-1.38235
-1.38244
-1.38254
-1.38263
-1.38272
-1.38281
-1.38289
-1.38298
-1.38306
-1.38314
-1.38322
-1.38329
-1.38336
-1.38343
-1.3835
-1.38356
-1.38362
-1.38368
-1.38374
-1.38379
-1.38384
-1.38389
-1.38394
-1.38398
-1.38402
-1.38405
-1.38409
-1.38412
-1.38415
-1.38418
-1.3842
-1.38422
-1.38424
-1.38426
-1.38427
-1.38429
-1.3843
-1.38431
-1.38431
-1.38432
-1.38432
-1.38432
-1.38432
-1.38432
-1.38432
-1.38432
-1.38431
-1.38431
-1.3843
-1.38429
-1.38429
-1.38428
-1.38427
-1.38426
-1.38425
-1.38424
-1.38422
-1.38421
-1.3842
-1.38419
-1.38418
-1.38416
-1.38415
-1.38414
-1.38413
-1.38411
-1.3841
-1.38409
-1.38408
-1.38406
-1.38405
-1.38404
-1.38403
-1.38402
-1.38401
-1.384
-1.38399
-1.38398
-1.38397
-1.38397
-1.38396
-1.38395
-1.38395
-1.38394
-1.38394
-1.38393
-1.38393
-1.38392
-1.38392
-1.38391
-1.38391
-1.38391
-1.3839
-1.3839
-1.3839
-1.38389
-1.38389
-1.38388
-1.38388
-1.38388
-1.38387
-1.38387
-1.38386
-1.38386
-1.38386
-1.38386
-1.38385
-1.38385
-1.38384
-1.38384
-1.38383
-1.38383
-1.38382
-1.38381
-1.3838
-1.38379
-1.38378
-1.38377
-1.38377
-1.38376
-1.38375
-1.38374
-1.38374
-1.38373
-1.38372
-1.38371
-1.38369
-1.38368
-1.38367
-1.38366
-1.38366
-1.38365
-1.38365
-1.38363
-1.38362
-1.38361
-1.3836
-1.38359
-1.38359
-1.38359
-1.38359
-1.38358
-1.38356
-1.38354
-1.38353
-1.38351
-1.38349
-1.38348
-1.38345
-1.38343
-1.38341
-1.38339
-1.38336
-1.38334
-1.38332
-1.3833
-1.38328
-1.38326
-1.38324
-1.38321
-1.38319
-1.38316
-1.38313
-1.38311
-1.38308
-1.38305
-1.38301
-1.38298
-1.38295
-1.38292
-1.38288
-1.38285
-1.38281
-1.39337
-1.39342
-1.39347
-1.39353
-1.39359
-1.39364
-1.3937
-1.39376
-1.39382
-1.39389
-1.39395
-1.39401
-1.39407
-1.39414
-1.3942
-1.39427
-1.39434
-1.39441
-1.39447
-1.39454
-1.39461
-1.39468
-1.39476
-1.39483
-1.3949
-1.39498
-1.39505
-1.39513
-1.3952
-1.39528
-1.39536
-1.39544
-1.39552
-1.3956
-1.39568
-1.39576
-1.39584
-1.39593
-1.39601
-1.3961
-1.39618
-1.39627
-1.39636
-1.39645
-1.39654
-1.39663
-1.39672
-1.39681
-1.39691
-1.397
-1.39708
-1.39717
-1.39726
-1.39735
-1.39743
-1.39752
-1.39761
-1.39769
-1.39778
-1.39786
-1.39795
-1.39803
-1.39812
-1.3982
-1.39829
-1.39837
-1.39846
-1.39854
-1.39863
-1.39872
-1.39881
-1.3989
-1.39899
-1.39908
-1.39917
-1.39926
-1.39935
-1.39945
-1.39954
-1.39964
-1.39974
-1.39984
-1.39994
-1.40004
-1.40014
-1.40025
-1.40035
-1.40046
-1.40057
-1.40068
-1.4008
-1.40091
-1.40103
-1.40115
-1.40127
-1.40139
-1.40151
-1.40164
-1.40176
-1.40189
-1.40202
-1.40216
-1.40229
-1.40243
-1.40257
-1.40271
-1.40285
-1.40299
-1.40313
-1.40328
-1.40342
-1.40356
-1.40371
-1.40385
-1.404
-1.40414
-1.40428
-1.40442
-1.40456
-1.40469
-1.40483
-1.40496
-1.40509
-1.40522
-1.40534
-1.40547
-1.40559
-1.4057
-1.40582
-1.40593
-1.40604
-1.40614
-1.40625
-1.40635
-1.40644
-1.40653
-1.40662
-1.4067
-1.40678
-1.40686
-1.40693
-1.407
-1.40706
-1.40712
-1.40718
-1.40723
-1.40728
-1.40732
-1.40736
-1.40739
-1.40742
-1.40744
-1.40747
-1.40748
-1.4075
-1.40751
-1.40751
-1.40752
-1.40752
-1.40751
-1.40751
-1.4075
-1.40749
-1.40747
-1.40746
-1.40744
-1.40741
-1.40739
-1.40737
-1.40734
-1.40731
-1.40728
-1.40725
-1.40722
-1.40719
-1.40716
-1.40713
-1.40709
-1.40706
-1.40703
-1.407
-1.40696
-1.40693
-1.4069
-1.40687
-1.40683
-1.4068
-1.40677
-1.40674
-1.40672
-1.40669
-1.40666
-1.40663
-1.40661
-1.40658
-1.40656
-1.40654
-1.40652
-1.40649
-1.40647
-1.40646
-1.40644
-1.40642
-1.4064
-1.40639
-1.40637
-1.40636
-1.40635
-1.40634
-1.40633
-1.40632
-1.40631
-1.4063
-1.40629
-1.40629
-1.40628
-1.40628
-1.40627
-1.40627
-1.40626
-1.40626
-1.40626
-1.40625
-1.40622
-1.40623
-1.40623
-1.40623
-1.40622
-1.40622
-1.40622
-1.40622
-1.40617
-1.40621
-1.40622
-1.40622
-1.40622
-1.40623
-1.40624
-1.40605
-1.40607
-1.40609
-1.40607
-1.40608
-1.40609
-1.40609
-1.4061
-1.4061
-1.40609
-1.40609
-1.40608
-1.40558
-1.40599
-1.40601
-1.40601
-1.406
-1.406
-1.406
-1.406
-1.406
-1.40571
-1.40583
-1.40593
-1.40593
-1.40594
-1.40594
-1.40594
-1.40594
-1.40594
-1.40593
-1.40592
-1.40591
-1.4059
-1.40588
-1.40587
-1.40585
-1.40584
-1.40582
-1.4058
-1.40578
-1.40576
-1.40574
-1.40573
-1.40572
-1.40571
-1.4057
-1.40569
-1.40567
-1.40563
-1.4056
-1.40556
-1.40552
-1.40548
-1.40544
-1.4054
-1.40536
-1.40532
-1.40528
-1.40524
-1.4052
-1.40516
-1.41603
-1.4161
-1.41618
-1.41626
-1.41633
-1.41641
-1.41649
-1.41657
-1.41665
-1.41674
-1.41682
-1.4169
-1.41699
-1.41707
-1.41716
-1.41724
-1.41733
-1.41742
-1.41751
-1.4176
-1.41769
-1.41778
-1.41787
-1.41796
-1.41806
-1.41815
-1.41824
-1.41834
-1.41843
-1.41853
-1.41863
-1.41872
-1.41882
-1.41892
-1.41902
-1.41912
-1.41922
-1.4191
-1.41924
-1.41934
-1.41943
-1.41953
-1.41962
-1.41971
-1.41981
-1.41991
-1.42
-1.42011
-1.4202
-1.42028
-1.42037
-1.42046
-1.42054
-1.42062
-1.4207
-1.42078
-1.42085
-1.42091
-1.42097
-1.42103
-1.42109
-1.42114
-1.4212
-1.42125
-1.42131
-1.42136
-1.42142
-1.42147
-1.42153
-1.42158
-1.42164
-1.4217
-1.42176
-1.42181
-1.42187
-1.42194
-1.422
-1.42207
-1.42215
-1.42223
-1.42231
-1.42241
-1.4225
-1.4226
-1.4227
-1.42281
-1.42292
-1.42304
-1.42316
-1.42328
-1.42341
-1.42354
-1.42367
-1.42381
-1.42395
-1.4241
-1.42425
-1.4244
-1.42455
-1.42471
-1.42487
-1.42503
-1.4252
-1.42537
-1.42554
-1.42571
-1.42588
-1.42606
-1.42623
-1.42639
-1.42656
-1.42671
-1.42687
-1.42703
-1.42719
-1.42735
-1.42751
-1.42768
-1.42784
-1.428
-1.42817
-1.42833
-1.42849
-1.42865
-1.4288
-1.42896
-1.42911
-1.42925
-1.42939
-1.42953
-1.42967
-1.42979
-1.42992
-1.43004
-1.43015
-1.43025
-1.43035
-1.43044
-1.43053
-1.43061
-1.43068
-1.43074
-1.4308
-1.43085
-1.43089
-1.43093
-1.43095
-1.43097
-1.43099
-1.43099
-1.43099
-1.43099
-1.43097
-1.43096
-1.43093
-1.4309
-1.43087
-1.43083
-1.43079
-1.43075
-1.4307
-1.43065
-1.43059
-1.43054
-1.43048
-1.43042
-1.43036
-1.4303
-1.43023
-1.43017
-1.43011
-1.43004
-1.42998
-1.42991
-1.42985
-1.42979
-1.42973
-1.42967
-1.42961
-1.42955
-1.42949
-1.42944
-1.42938
-1.42933
-1.42928
-1.42923
-1.42918
-1.42913
-1.42909
-1.42905
-1.42901
-1.42897
-1.42893
-1.42889
-1.42886
-1.42883
-1.42875
-1.42876
-1.42874
-1.42871
-1.42868
-1.42866
-1.42855
-1.42853
-1.42855
-1.42844
-1.42854
-1.42856
-1.42855
-1.42844
-1.42856
-1.42858
-1.42856
-1.42846
-1.42856
-1.42859
-1.42858
-1.42857
-1.42857
-1.42854
-1.42853
-1.42855
-1.4285
-1.42851
-1.42852
-1.42851
-1.42851
-1.42851
-1.42851
-1.42851
-1.4285
-1.42849
-1.4285
-1.42849
-1.42849
-1.42848
-1.42847
-1.42846
-1.42845
-1.42842
-1.42842
-1.42836
-1.42834
-1.42853
-1.42852
-1.42851
-1.4285
-1.42848
-1.42849
-1.42847
-1.42815
-1.42818
-1.42825
-1.42825
-1.42824
-1.42822
-1.42819
-1.42815
-1.42811
-1.42801
-1.42793
-1.42808
-1.42806
-1.42793
-1.42812
-1.42802
-1.42777
-1.42771
-1.4284
-1.4284
-1.42831
-1.42825
-1.42822
-1.42816
-1.42807
-1.42814
-1.42815
-1.42813
-1.42811
-1.42809
-1.42807
-1.42806
-1.42802
-1.42803
-1.42801
-1.428
-1.42799
-1.42798
-1.42795
-1.42792
-1.42789
-1.42785
-1.42781
-1.42777
-1.42772
-1.42768
-1.42764
-1.4276
-1.42755
-1.42751
-1.43935
-1.43937
-1.4394
-1.43942
-1.43944
-1.43947
-1.43949
-1.43952
-1.43953
-1.43955
-1.43968
-1.43975
-1.43979
-1.43982
-1.43985
-1.43988
-1.43991
-1.43994
-1.43998
-1.44002
-1.44006
-1.4401
-1.44014
-1.44018
-1.44022
-1.44026
-1.44031
-1.44035
-1.44039
-1.44044
-1.44048
-1.44053
-1.44056
-1.44061
-1.44065
-1.44069
-1.44073
-1.44077
-1.4408
-1.44083
-1.44049
-1.44091
-1.44091
-1.44094
-1.44097
-1.441
-1.44098
-1.44096
-1.44396
-1.44386
-1.44374
-1.44374
-1.44382
-1.44386
-1.44343
-1.44389
-1.44386
-1.44383
-1.44381
-1.4438
-1.4438
-1.44381
-1.44384
-1.44385
-1.44386
-1.44387
-1.44388
-1.44387
-1.44386
-1.4439
-1.44391
-1.44393
-1.44395
-1.44396
-1.44396
-1.44399
-1.44404
-1.44403
-1.44401
-1.44415
-1.44416
-1.44416
-1.44421
-1.44427
-1.44433
-1.44441
-1.44448
-1.44457
-1.44466
-1.44476
-1.44486
-1.44498
-1.44509
-1.44522
-1.44535
-1.44548
-1.44564
-1.4458
-1.44598
-1.44616
-1.44637
-1.44658
-1.44681
-1.44706
-1.44732
-1.44761
-1.44792
-1.44825