/*--------------------------------*- C++ -*----------------------------------*\
| =========                 |                                                 |
| \\      /  F ield         | OpenFOAM: The Open Source CFD Toolbox           |
|  \\    /   O peration     | Version:  2.4.0                                 |
|   \\  /    A nd           | Web:      www.OpenFOAM.org                      |
|    \\/     M anipulation  |                                                 |
\*---------------------------------------------------------------------------*/
FoamFile
{
    version     2.0;
    format      ascii;
    class       surfaceScalarField;
    location    "3.5";
    object      phi;
}
// * * * * * * * * * * * * * * * * * * * * * * * * * * * * * * * * * * * * * //

dimensions      [0 3 -1 0 0 0 0];

internalField   nonuniform List<scalar> 
15580
(
-1.00205e-13
-2.72887e-12
-4.60518e-13
-7.79039e-12
-1.16594e-12
-1.24813e-11
-2.30106e-12
-1.68334e-11
-3.98384e-12
-2.08469e-11
-6.3028e-12
-2.45355e-11
-9.16137e-12
-2.78814e-11
-1.23762e-11
-3.08854e-11
-1.53837e-11
-3.35252e-11
-1.76685e-11
-3.58105e-11
-1.84903e-11
-3.77218e-11
-1.67802e-11
-3.93215e-11
-1.27944e-11
-4.0626e-11
-6.53413e-12
-4.17371e-11
3.28164e-13
-4.25337e-11
7.76711e-12
-4.29835e-11
1.59562e-11
-4.27472e-11
2.68392e-11
-4.19076e-11
4.08011e-11
-4.04113e-11
5.83989e-11
-3.84773e-11
8.00275e-11
-3.62907e-11
1.03487e-10
-3.37411e-11
1.2634e-10
-3.05452e-11
1.63813e-10
-2.70473e-11
1.83793e-10
-2.3496e-11
2.12106e-10
-2.008e-11
2.73668e-10
-1.71626e-11
3.69516e-10
-1.36748e-11
4.83608e-10
-9.48908e-12
6.16303e-10
-4.24924e-12
7.71699e-10
4.25525e-12
9.44589e-10
1.08355e-11
1.09888e-09
8.19926e-12
1.14283e-09
9.31409e-12
1.15791e-09
-5.61195e-12
1.19876e-09
1.16129e-11
1.27176e-09
2.7341e-11
1.41269e-09
5.36029e-11
1.51022e-09
4.60767e-11
1.63103e-09
4.76533e-11
1.72542e-09
7.12013e-11
1.79376e-09
6.62452e-11
1.88484e-09
1.5318e-12
2.07163e-09
-1.59249e-10
2.18882e-09
1.21039e-11
2.34509e-09
4.2316e-11
2.60942e-09
4.42767e-11
2.65549e-09
7.51407e-11
2.66401e-09
8.84269e-11
1.03437e-10
2.65983e-09
-2.8502e-13
-2.44384e-12
-9.85002e-13
-7.09041e-12
-2.01291e-12
-1.14534e-11
-3.33112e-12
-1.55152e-11
-4.89916e-12
-1.92788e-11
-6.69176e-12
-2.27429e-11
-8.66409e-12
-2.5909e-11
-1.07748e-11
-2.87746e-11
-1.29589e-11
-3.13411e-11
-1.51627e-11
-3.36067e-11
-1.73084e-11
-3.55761e-11
-1.93807e-11
-3.72492e-11
-2.13733e-11
-3.86334e-11
-2.33792e-11
-3.97312e-11
-2.53667e-11
-4.05463e-11
-2.72725e-11
-4.10776e-11
-2.86942e-11
-4.13255e-11
-2.93065e-11
-4.12953e-11
-2.87213e-11
-4.09965e-11
-2.67496e-11
-4.0449e-11
-2.33742e-11
-3.96661e-11
-1.84399e-11
-3.86755e-11
-1.14983e-11
-3.74867e-11
-2.40047e-12
-3.61451e-11
8.76686e-12
-3.46634e-11
2.1722e-11
-3.30352e-11
3.57058e-11
-3.11465e-11
5.09331e-11
-2.89017e-11
6.75623e-11
-2.61158e-11
8.62853e-11
-2.27804e-11
1.08525e-10
-1.91909e-11
1.26899e-10
-1.55983e-11
1.36461e-10
-1.1889e-11
1.52913e-10
-8.24331e-12
1.51045e-10
-4.18078e-12
1.60855e-10
1.69488e-12
1.81273e-10
6.69857e-12
2.18267e-10
1.66089e-11
2.72495e-10
-8.15122e-12
2.59325e-10
6.08228e-11
2.51559e-10
7.89678e-11
2.6287e-10
5.49337e-11
2.26758e-10
3.76441e-11
3.02349e-11
3.72738e-11
-1.39281e-11
5.62669e-11
-3.50422e-11
6.34301e-11
-4.86284e-11
5.7863e-11
-2.02816e-11
4.67939e-11
2.15794e-11
4.65659e-11
4.72133e-11
7.78027e-11
-1.48618e-13
-2.29522e-12
-6.58291e-13
-6.58073e-12
-1.51532e-12
-1.05964e-11
-2.66744e-12
-1.43631e-11
-4.06361e-12
-1.78827e-11
-5.64945e-12
-2.11571e-11
-7.37177e-12
-2.41867e-11
-9.17307e-12
-2.69733e-11
-1.09974e-11
-2.95167e-11
-1.2785e-11
-3.18191e-11
-1.44808e-11
-3.38803e-11
-1.6027e-11
-3.5703e-11
-1.73735e-11
-3.72869e-11
-1.84696e-11
-3.86351e-11
-1.92692e-11
-3.97467e-11
-1.97215e-11
-4.06253e-11
-1.97775e-11
-4.12695e-11
-1.93885e-11
-4.16843e-11
-1.85164e-11
-4.18686e-11
-1.71361e-11
-4.18293e-11
-1.52373e-11
-4.1565e-11
-1.28286e-11
-4.10841e-11
-9.93213e-12
-4.03832e-11
-6.6048e-12
-3.94725e-11
-2.92277e-12
-3.83454e-11
1.05701e-12
-3.7015e-11
5.37637e-12
-3.54659e-11
1.01898e-11
-3.37152e-11
1.58167e-11
-3.17427e-11
2.2617e-11
-2.95807e-11
3.06325e-11
-2.72064e-11
3.97034e-11
-2.46692e-11
4.97204e-11
-2.1906e-11
6.04535e-11
-1.89761e-11
7.19444e-11
-1.56627e-11
8.59669e-11
-1.24005e-11
9.62245e-11
-8.82961e-12
1.13016e-10
-5.73276e-12
1.06016e-10
-1.3992e-12
1.63442e-10
3.31393e-12
2.31379e-10
1.09177e-11
2.73126e-10
1.31866e-11
3.20339e-10
-9.56909e-12
3.07075e-10
5.05378e-11
3.02103e-10
6.1239e-11
3.23734e-10
4.17985e-11
3.62538e-10
1.90595e-11
3.94846e-10
1.44855e-11
4.29591e-10
1.18214e-11
7.38165e-12
4.69423e-10
-3.20988e-13
-1.97423e-12
-1.14099e-12
-5.76074e-12
-2.38042e-12
-9.35698e-12
-3.99187e-12
-1.27516e-11
-5.9276e-12
-1.59469e-11
-8.14057e-12
-1.89441e-11
-1.0583e-11
-2.17443e-11
-1.3208e-11
-2.43483e-11
-1.59676e-11
-2.67571e-11
-1.88152e-11
-2.89715e-11
-2.17028e-11
-3.09927e-11
-2.45841e-11
-3.28217e-11
-2.74112e-11
-3.44597e-11
-3.01384e-11
-3.59079e-11
-3.27174e-11
-3.71677e-11
-3.51024e-11
-3.82403e-11
-3.72448e-11
-3.91271e-11
-3.90995e-11
-3.98295e-11
-4.0619e-11
-4.0349e-11
-4.17612e-11
-4.06872e-11
-4.24809e-11
-4.08453e-11
-4.27399e-11
-4.08251e-11
-4.24955e-11
-4.06275e-11
-4.17134e-11
-4.02546e-11
-4.03525e-11
-3.97062e-11
-3.83823e-11
-3.89852e-11
-3.57585e-11
-3.80897e-11
-3.24495e-11
-3.70241e-11
-2.84075e-11
-3.57847e-11
-2.36092e-11
-3.4379e-11
-1.8015e-11
-3.28006e-11
-1.16224e-11
-3.10617e-11
-4.3781e-12
-2.91504e-11
3.72939e-12
-2.70836e-11
1.29074e-11
-2.48407e-11
2.29579e-11
-2.2451e-11
3.40068e-11
-1.98785e-11
4.54265e-11
-1.71524e-11
5.81852e-11
-1.41582e-11
7.23332e-11
-1.11636e-11
7.98865e-11
-8.4459e-12
9.8659e-11
-5.99375e-12
9.16892e-11
-2.71641e-12
1.42321e-10
-1.67794e-13
1.96446e-10
7.11417e-12
2.39182e-10
-9.38315e-13
2.61103e-10
-2.86103e-12
2.5821e-10
1.73785e-11
2.59637e-10
1.03946e-11
4.46e-12
2.62558e-10
-2.17153e-13
-1.75708e-12
-8.96996e-13
-5.08089e-12
-2.01928e-12
-8.23469e-12
-3.54109e-12
-1.12298e-11
-5.42049e-12
-1.40675e-11
-7.61579e-12
-1.67488e-11
-1.00858e-11
-1.92743e-11
-1.27892e-11
-2.16449e-11
-1.56853e-11
-2.38611e-11
-1.87331e-11
-2.59237e-11
-2.18924e-11
-2.78334e-11
-2.51229e-11
-2.95912e-11
-2.83849e-11
-3.11977e-11
-3.16388e-11
-3.2654e-11
-3.48456e-11
-3.3961e-11
-3.79664e-11
-3.51195e-11
-4.09629e-11
-3.61306e-11
-4.37972e-11
-3.69953e-11
-4.64315e-11
-3.77147e-11
-4.88289e-11
-3.82898e-11
-5.09524e-11
-3.87218e-11
-5.27657e-11
-3.90118e-11
-5.42322e-11
-3.91611e-11
-5.53161e-11
-3.91707e-11
-5.59802e-11
-3.90421e-11
-5.61891e-11
-3.87763e-11
-5.5904e-11
-3.83749e-11
-5.50893e-11
-3.78388e-11
-5.37041e-11
-3.71699e-11
-5.17143e-11
-3.63688e-11
-4.90769e-11
-3.54381e-11
-4.57607e-11
-3.43779e-11
-4.17198e-11
-3.31912e-11
-3.69256e-11
-3.18779e-11
-3.13248e-11
-3.04415e-11
-2.48944e-11
-2.88814e-11
-1.75709e-11
-2.7202e-11
-9.32108e-12
-2.54022e-11
7.51946e-15
-2.34868e-11
1.02979e-11
-2.14539e-11
2.116e-11
-1.9308e-11
3.2183e-11
-1.70168e-11
4.40884e-11
-1.46225e-11
5.59799e-11
-1.20432e-11
6.7876e-11
-9.88959e-12
7.40705e-11
-7.33176e-12
7.35947e-11
-2.42394e-12
9.43598e-11
-3.41074e-12
1.12522e-10
-7.76709e-12
-9.51187e-12
1.26493e-10
-3.04883e-13
-1.4522e-12
-1.1293e-12
-4.25648e-12
-2.41715e-12
-6.94684e-12
-4.12931e-12
-9.51765e-12
-6.22694e-12
-1.19699e-11
-8.67148e-12
-1.43042e-11
-1.14246e-11
-1.65212e-11
-1.44482e-11
-1.86213e-11
-1.77042e-11
-2.0605e-11
-2.11551e-11
-2.24728e-11
-2.47633e-11
-2.42252e-11
-2.84916e-11
-2.58628e-11
-3.23031e-11
-2.73862e-11
-3.61611e-11
-2.8796e-11
-4.00292e-11
-3.00929e-11
-4.38712e-11
-3.12775e-11
-4.76513e-11
-3.23505e-11
-5.13339e-11
-3.33127e-11
-5.48838e-11
-3.41648e-11
-5.8266e-11
-3.49076e-11
-6.14458e-11
-3.5542e-11
-6.43887e-11
-3.60689e-11
-6.70608e-11
-3.6489e-11
-6.9428e-11
-3.68035e-11
-7.1457e-11
-3.70131e-11
-7.31142e-11
-3.71191e-11
-7.4367e-11
-3.71222e-11
-7.51818e-11
-3.70239e-11
-7.5527e-11
-3.68247e-11
-7.53693e-11
-3.65265e-11
-7.46778e-11
-3.61296e-11
-7.34192e-11
-3.56364e-11
-7.15638e-11
-3.50467e-11
-6.90782e-11
-3.43635e-11
-6.59337e-11
-3.3586e-11
-6.20969e-11
-3.27182e-11
-5.75407e-11
-3.17583e-11
-5.22313e-11
-3.07116e-11
-4.61433e-11
-2.95748e-11
-3.92422e-11
-2.8355e-11
-3.15038e-11
-2.70465e-11
-2.28616e-11
-2.56589e-11
-1.33014e-11
-2.41828e-11
-2.71409e-12
-2.26305e-11
8.37444e-12
-2.09782e-11
2.02307e-11
-1.91886e-11
3.57624e-11
-1.79646e-11
4.5469e-11
-1.68119e-11
5.29406e-11
-1.54471e-11
-1.63715e-11
5.9702e-11
-2.5219e-13
-1.20001e-12
-1.00048e-12
-3.50818e-12
-2.21528e-12
-5.73205e-12
-3.8575e-12
-7.87543e-12
-5.88936e-12
-9.93805e-12
-8.27408e-12
-1.19195e-11
-1.09758e-11
-1.38195e-11
-1.39594e-11
-1.56377e-11
-1.71904e-11
-1.7374e-11
-2.0635e-11
-1.90281e-11
-2.42601e-11
-2.06001e-11
-2.80329e-11
-2.209e-11
-3.19213e-11
-2.34978e-11
-3.58936e-11
-2.48238e-11
-3.99182e-11
-2.60682e-11
-4.39644e-11
-2.72313e-11
-4.80013e-11
-2.83136e-11
-5.19987e-11
-2.93153e-11
-5.59264e-11
-3.02371e-11
-5.97544e-11
-3.10796e-11
-6.34531e-11
-3.18433e-11
-6.69929e-11
-3.25291e-11
-7.03442e-11
-3.31377e-11
-7.34777e-11
-3.367e-11
-7.63639e-11
-3.41269e-11
-7.89734e-11
-3.45096e-11
-8.12766e-11
-3.4819e-11
-8.32441e-11
-3.50564e-11
-8.48457e-11
-3.5223e-11
-8.60518e-11
-3.53205e-11
-8.68315e-11
-3.53499e-11
-8.71546e-11
-3.53134e-11
-8.69892e-11
-3.52121e-11
-8.63042e-11
-3.50485e-11
-8.50664e-11
-3.48238e-11
-8.32435e-11
-3.45411e-11
-8.08002e-11
-3.42016e-11
-7.77027e-11
-3.38091e-11
-7.3913e-11
-3.33644e-11
-6.93952e-11
-3.28728e-11
-6.41075e-11
-3.23341e-11
-5.80109e-11
-3.17556e-11
-5.10579e-11
-3.11358e-11
-4.3204e-11
-3.04844e-11
-3.43842e-11
-2.97979e-11
-2.44815e-11
-2.90913e-11
-1.40884e-11
-2.83577e-11
-3.29329e-12
-2.76071e-11
8.34806e-12
-2.70885e-11
-2.65921e-11
1.97131e-11
-2.33482e-13
-9.66526e-13
-8.80627e-13
-2.86104e-12
-1.90425e-12
-4.70842e-12
-3.27544e-12
-6.50424e-12
-4.96583e-12
-8.24766e-12
-6.94753e-12
-9.93781e-12
-9.19314e-12
-1.15739e-11
-1.16757e-11
-1.31552e-11
-1.43686e-11
-1.46811e-11
-1.72457e-11
-1.6151e-11
-2.02812e-11
-1.75647e-11
-2.34496e-11
-1.89216e-11
-2.67258e-11
-2.02216e-11
-3.00852e-11
-2.14644e-11
-3.35033e-11
-2.26502e-11
-3.69559e-11
-2.37787e-11
-4.04193e-11
-2.48502e-11
-4.387e-11
-2.58647e-11
-4.72845e-11
-2.68225e-11
-5.06401e-11
-2.7724e-11
-5.39138e-11
-2.85696e-11
-5.70831e-11
-2.93597e-11
-6.01258e-11
-3.0095e-11
-6.30197e-11
-3.07761e-11
-6.57429e-11
-3.14038e-11
-6.82736e-11
-3.19789e-11
-7.05902e-11
-3.25024e-11
-7.26713e-11
-3.29753e-11
-7.44955e-11
-3.33988e-11
-7.60417e-11
-3.37743e-11
-7.72886e-11
-3.4103e-11
-7.82153e-11
-3.43867e-11
-7.88005e-11
-3.46269e-11
-7.90235e-11
-3.48255e-11
-7.88628e-11
-3.49845e-11
-7.82979e-11
-3.51061e-11
-7.73068e-11
-3.51927e-11
-7.58692e-11
-3.52468e-11
-7.39624e-11
-3.52712e-11
-7.15663e-11
-3.52689e-11
-6.86572e-11
-3.52432e-11
-6.52152e-11
-3.51975e-11
-6.12153e-11
-3.51357e-11
-5.66381e-11
-3.50616e-11
-5.14563e-11
-3.49797e-11
-4.56531e-11
-3.48944e-11
-3.92006e-11
-3.48103e-11
-3.20747e-11
-3.4733e-11
-2.44968e-11
-3.46664e-11
-3.46134e-11
-1.64756e-11
-1.61354e-13
-8.05173e-13
-6.38063e-13
-2.38433e-12
-1.41143e-12
-3.93506e-12
-2.45772e-12
-5.45795e-12
-3.75395e-12
-6.95143e-12
-5.27779e-12
-8.41398e-12
-7.00747e-12
-9.84422e-12
-8.92172e-12
-1.12409e-11
-1.09997e-11
-1.26031e-11
-1.32212e-11
-1.39296e-11
-1.5566e-11
-1.52198e-11
-1.80146e-11
-1.6473e-11
-2.05477e-11
-1.76885e-11
-2.31463e-11
-1.88659e-11
-2.57917e-11
-2.00047e-11
-2.84655e-11
-2.11049e-11
-3.11497e-11
-2.2166e-11
-3.38262e-11
-2.31881e-11
-3.64776e-11
-2.41712e-11
-3.90865e-11
-2.51152e-11
-4.16356e-11
-2.60205e-11
-4.41082e-11
-2.68872e-11
-4.64875e-11
-2.77156e-11
-4.87573e-11
-2.85063e-11
-5.09014e-11
-2.92597e-11
-5.29039e-11
-2.99764e-11
-5.47492e-11
-3.06571e-11
-5.6422e-11
-3.13025e-11
-5.79071e-11
-3.19137e-11
-5.91899e-11
-3.24914e-11
-6.02558e-11
-3.30371e-11
-6.10908e-11
-3.35517e-11
-6.16807e-11
-3.4037e-11
-6.20121e-11
-3.4494e-11
-6.20715e-11
-3.49251e-11
-6.18459e-11
-3.53316e-11
-6.13221e-11
-3.57165e-11
-6.04877e-11
-3.60811e-11
-5.93295e-11
-3.64295e-11
-5.78352e-11
-3.67631e-11
-5.59912e-11
-3.70872e-11
-5.37853e-11
-3.74035e-11
-5.12022e-11
-3.77188e-11
-4.82293e-11
-3.80346e-11
-4.48487e-11
-3.83604e-11
-4.10462e-11
-3.86969e-11
-3.67988e-11
-3.90577e-11
-3.20887e-11
-3.94431e-11
-2.68811e-11
-3.9874e-11
-4.0258e-11
-2.12364e-11
-9.96776e-14
-7.05496e-13
-3.71254e-13
-2.11275e-12
-7.99136e-13
-3.50717e-12
-1.37323e-12
-4.88385e-12
-2.08287e-12
-6.24179e-12
-2.91689e-12
-7.57996e-12
-3.86372e-12
-8.89739e-12
-4.91147e-12
-1.01932e-11
-6.04793e-12
-1.14666e-11
-7.26069e-12
-1.27169e-11
-8.53714e-12
-1.39434e-11
-9.86449e-12
-1.51456e-11
-1.12299e-11
-1.63231e-11
-1.26203e-11
-1.74755e-11
-1.40226e-11
-1.86024e-11
-1.54238e-11
-1.97037e-11
-1.68107e-11
-2.07791e-11
-1.817e-11
-2.18287e-11
-1.94887e-11
-2.28524e-11
-2.07537e-11
-2.38503e-11
-2.19517e-11
-2.48224e-11
-2.30699e-11
-2.5769e-11
-2.40953e-11
-2.66902e-11
-2.50153e-11
-2.75863e-11
-2.58173e-11
-2.84577e-11
-2.6489e-11
-2.93046e-11
-2.70186e-11
-3.01275e-11
-2.73943e-11
-3.09267e-11
-2.76053e-11
-3.17028e-11
-2.76408e-11
-3.2456e-11
-2.7491e-11
-3.31869e-11
-2.71468e-11
-3.38959e-11
-2.66e-11
-3.45838e-11
-2.58434e-11
-3.52506e-11
-2.48712e-11
-3.58973e-11
-2.36789e-11
-3.6524e-11
-2.22635e-11
-3.71319e-11
-2.0624e-11
-3.77206e-11
-1.87611e-11
-3.82924e-11
-1.66784e-11
-3.88458e-11
-1.43812e-11
-3.93845e-11
-1.18789e-11
-3.99058e-11
-9.18218e-12
-4.04155e-11
-6.3079e-12
-4.09088e-11
-3.27269e-12
-4.13956e-11
-1.01424e-13
-4.18681e-11
3.18569e-12
-4.23448e-11
6.52345e-12
-4.27808e-11
9.81659e-12
-4.31672e-11
-4.37286e-11
1.31521e-11
-4.02026e-14
-6.65294e-13
-1.81425e-13
-1.97153e-12
-4.25346e-13
-3.26325e-12
-7.64429e-13
-4.54477e-12
-1.19114e-12
-5.81508e-12
-1.69791e-12
-7.07319e-12
-2.27713e-12
-8.31816e-12
-2.92122e-12
-9.54912e-12
-3.62255e-12
-1.07653e-11
-4.37354e-12
-1.19659e-11
-5.1666e-12
-1.31503e-11
-5.99415e-12
-1.43181e-11
-6.84861e-12
-1.54686e-11
-7.72239e-12
-1.66017e-11
-8.60786e-12
-1.77169e-11
-9.49739e-12
-1.88141e-11
-1.03833e-11
-1.98933e-11
-1.12577e-11
-2.09543e-11
-1.2113e-11
-2.19972e-11
-1.29411e-11
-2.30222e-11
-1.37341e-11
-2.40294e-11
-1.4484e-11
-2.50191e-11
-1.51825e-11
-2.59917e-11
-1.58215e-11
-2.69473e-11
-1.63926e-11
-2.78866e-11
-1.68877e-11
-2.88095e-11
-1.72982e-11
-2.9717e-11
-1.76162e-11
-3.06087e-11
-1.78331e-11
-3.14859e-11
-1.79414e-11
-3.23477e-11
-1.79328e-11
-3.31956e-11
-1.78006e-11
-3.40281e-11
-1.75371e-11
-3.48473e-11
-1.71372e-11
-3.56504e-11
-1.65943e-11
-3.64402e-11
-1.59057e-11
-3.72125e-11
-1.50666e-11
-3.7971e-11
-1.40783e-11
-3.8709e-11
-1.29384e-11
-3.94323e-11
-1.16539e-11
-4.01303e-11
-1.02264e-11
-4.08119e-11
-8.67128e-12
-4.14609e-11
-6.99581e-12
-4.20909e-11
-5.2269e-12
-4.26777e-11
-3.37707e-12
-4.32454e-11
-1.4814e-12
-4.37638e-11
2.53276e-13
-4.40795e-11
1.52773e-12
-4.43984e-11
-1.1398e-12
-4.4465e-11
-4.36956e-11
-6.26412e-12
-3.75554e-14
-6.27739e-13
-1.08456e-13
-1.90063e-12
-1.97483e-13
-3.17423e-12
-3.02535e-13
-4.43972e-12
-4.21916e-13
-5.6957e-12
-5.54301e-13
-6.94081e-12
-6.98704e-13
-8.17376e-12
-8.54426e-13
-9.3934e-12
-1.02101e-12
-1.05987e-11
-1.1982e-12
-1.17887e-11
-1.3859e-12
-1.29626e-11
-1.58412e-12
-1.41198e-11
-1.79298e-12
-1.52598e-11
-2.0126e-12
-1.63821e-11
-2.24312e-12
-1.74864e-11
-2.48465e-12
-1.85726e-11
-2.7372e-12
-1.96407e-11
-3.00068e-12
-2.06908e-11
-3.27479e-12
-2.17231e-11
-3.55908e-12
-2.27379e-11
-3.85279e-12
-2.37357e-11
-4.15488e-12
-2.4717e-11
-4.4639e-12
-2.56827e-11
-4.77805e-12
-2.66332e-11
-5.09492e-12
-2.75697e-11
-5.41165e-12
-2.84928e-11
-5.7246e-12
-2.9404e-11
-6.02953e-12
-3.03038e-11
-6.3212e-12
-3.11942e-11
-6.59358e-12
-3.20753e-11
-6.83937e-12
-3.29498e-11
-7.05026e-12
-3.38172e-11
-7.21637e-12
-3.46812e-11
-7.32643e-12
-3.55404e-11
-7.36729e-12
-3.63994e-11
-7.32393e-12
-3.72559e-11
-7.17913e-12
-3.81158e-11
-6.91297e-12
-3.89752e-11
-6.50331e-12
-3.98419e-11
-5.92397e-12
-4.07096e-11
-5.14689e-12
-4.1589e-11
-4.13702e-12
-4.24708e-11
-2.85633e-12
-4.33716e-11
-1.25518e-12
-4.42789e-11
2.98795e-13
-4.47994e-11
1.80806e-12
-4.52731e-11
5.84651e-13
-4.58915e-11
-8.81276e-12
-4.47566e-11
-1.04475e-11
-4.29395e-11
-3.59254e-11
-1.82177e-11
8.93985e-14
-7.17139e-13
3.04728e-13
-2.11596e-12
6.23758e-13
-3.49326e-12
1.03897e-12
-4.85493e-12
1.54264e-12
-6.19937e-12
2.12699e-12
-7.52515e-12
2.78421e-12
-8.83099e-12
3.50658e-12
-1.01158e-11
4.28638e-12
-1.13785e-11
5.11604e-12
-1.26183e-11
5.98805e-12
-1.38346e-11
6.89508e-12
-1.50269e-11
7.82988e-12
-1.61946e-11
8.78545e-12
-1.73376e-11
9.75484e-12
-1.84558e-11
1.07314e-11
-1.95492e-11
1.17086e-11
-2.06179e-11
1.26801e-11
-2.16623e-11
1.36398e-11
-2.26828e-11
1.45821e-11
-2.36801e-11
1.5501e-11
-2.46547e-11
1.63916e-11
-2.56076e-11
1.72485e-11
-2.65396e-11
1.80676e-11
-2.74522e-11
1.8844e-11
-2.83461e-11
1.95745e-11
-2.92233e-11
2.02551e-11
-3.00846e-11
2.08838e-11
-3.09326e-11
2.14575e-11
-3.17679e-11
2.19761e-11
-3.25939e-11
2.24372e-11
-3.34109e-11
2.28436e-11
-3.42236e-11
2.31938e-11
-3.50314e-11
2.34941e-11
-3.58407e-11
2.37446e-11
-3.66499e-11
2.39566e-11
-3.74678e-11
2.41316e-11
-3.82908e-11
2.42879e-11
-3.91315e-11
2.44289e-11
-3.99829e-11
2.45829e-11
-4.08636e-11
2.4756e-11
-4.17621e-11
2.49919e-11
-4.27066e-11
2.52942e-11
-4.36739e-11
2.5698e-11
-4.46827e-11
2.66093e-11
-4.67161e-11
8.30255e-12
-4.5445e-11
4.49773e-12
-4.37514e-11
-8.95734e-12
-3.13015e-11
-5.38002e-11
1.89919e-12
-6.14912e-11
-2.82344e-11
1.01532e-13
-8.18671e-13
4.38509e-13
-2.45293e-12
1.00628e-12
-4.06103e-12
1.78278e-12
-5.63144e-12
2.74702e-12
-7.16361e-12
3.87888e-12
-8.65701e-12
5.15903e-12
-1.01111e-11
6.56882e-12
-1.15256e-11
8.09027e-12
-1.28999e-11
9.70596e-12
-1.4234e-11
1.1399e-11
-1.55276e-11
1.31529e-11
-1.67807e-11
1.49516e-11
-1.79933e-11
1.67795e-11
-1.91656e-11
1.86214e-11
-2.02976e-11
2.04621e-11
-2.13899e-11
2.2287e-11
-2.24428e-11
2.40815e-11
-2.34568e-11
2.58313e-11
-2.44327e-11
2.75225e-11
-2.53713e-11
2.9141e-11
-2.62732e-11
3.0673e-11
-2.71397e-11
3.21049e-11
-2.79715e-11
3.34231e-11
-2.87703e-11
3.46138e-11
-2.95369e-11
3.56637e-11
-3.02732e-11
3.6559e-11
-3.09799e-11
3.72861e-11
-3.16597e-11
3.78311e-11
-3.23128e-11
3.81799e-11
-3.29427e-11
3.8318e-11
-3.3549e-11
3.82307e-11
-3.41362e-11
3.7902e-11
-3.47028e-11
3.73163e-11
-3.5255e-11
3.64555e-11
-3.57891e-11
3.53018e-11
-3.63141e-11
3.38337e-11
-3.68227e-11
3.20304e-11
-3.73282e-11
2.98655e-11
-3.7818e-11
2.73133e-11
-3.83114e-11
2.43377e-11
-3.87866e-11
2.08992e-11
-3.92681e-11
1.69403e-11
-3.97151e-11
4.8461e-12
-4.02865e-11
-1.30197e-11
-4.01535e-11
-2.72763e-11
-3.12782e-11
-4.22109e-11
-2.88174e-11
-2.25982e-11
-5.09136e-11
-3.10723e-11
1.03757e-11
9.80078e-12
-1.02346e-10
2.03366e-13
-1.02204e-12
7.13305e-13
-2.96287e-12
1.48159e-12
-4.82931e-12
2.48498e-12
-6.63482e-12
3.69966e-12
-8.37829e-12
5.10145e-12
-1.00588e-11
6.66594e-12
-1.16756e-11
8.36847e-12
-1.32281e-11
1.01843e-11
-1.47157e-11
1.20884e-11
-1.61382e-11
1.4056e-11
-1.74952e-11
1.60618e-11
-1.87866e-11
1.8081e-11
-2.00125e-11
2.00883e-11
-2.11729e-11
2.20587e-11
-2.2268e-11
2.39671e-11
-2.32983e-11
2.57884e-11
-2.42641e-11
2.74976e-11
-2.51661e-11
2.90699e-11
-2.6005e-11
3.04804e-11
-2.67817e-11
3.17045e-11
-2.74973e-11
3.27178e-11
-2.81529e-11
3.34963e-11
-2.875e-11
3.4016e-11
-2.92901e-11
3.42541e-11
-2.9775e-11
3.41876e-11
-3.02067e-11
3.37954e-11
-3.05877e-11
3.3056e-11
-3.09204e-11
3.19509e-11
-3.12077e-11
3.04612e-11
-3.1453e-11
2.85718e-11
-3.16596e-11
2.62676e-11
-3.1832e-11
2.3539e-11
-3.19741e-11
2.03756e-11
-3.20916e-11
1.67756e-11
-3.21891e-11
1.27354e-11
-3.22738e-11
8.26369e-12
-3.23511e-11
3.36602e-12
-3.24305e-11
-1.93505e-12
-3.25169e-11
-7.6255e-12
-3.2621e-11
-1.36667e-11
-3.27453e-11
-2.00061e-11
-3.29287e-11
-4.31115e-11
-3.32991e-11
-5.53948e-11
-3.3849e-11
-5.80239e-11
-3.75245e-11
-5.38676e-11
-3.54345e-11
-4.95883e-11
-3.30728e-11
-6.22077e-11
-3.82942e-11
-1.65445e-11
-3.52874e-11
-3.31653e-11
2.64215e-11
1.90705e-13
-1.21274e-12
8.31165e-13
-3.60333e-12
1.91367e-12
-5.91181e-12
3.39449e-12
-8.11565e-12
5.23143e-12
-1.02152e-11
7.38356e-12
-1.22109e-11
9.81118e-12
-1.41032e-11
1.24757e-11
-1.58926e-11
1.53395e-11
-1.75795e-11
1.83659e-11
-1.91646e-11
2.1519e-11
-2.06484e-11
2.47637e-11
-2.20313e-11
2.80653e-11
-2.3314e-11
3.13892e-11
-2.44968e-11
3.47015e-11
-2.55803e-11
3.7968e-11
-2.65647e-11
4.11544e-11
-2.74505e-11
4.42263e-11
-2.82379e-11
4.71485e-11
-2.89272e-11
4.98854e-11
-2.95186e-11
5.24005e-11
-3.00124e-11
5.46564e-11
-3.04088e-11
5.66143e-11
-3.07079e-11
5.82343e-11
-3.09101e-11
5.9475e-11
-3.10156e-11
6.02933e-11
-3.10251e-11
6.06445e-11
-3.09389e-11
6.0482e-11
-3.07579e-11
5.97572e-11
-3.04829e-11
5.84198e-11
-3.01155e-11
5.64171e-11
-2.9657e-11
5.36948e-11
-2.91097e-11
5.01965e-11
-2.84758e-11
4.58639e-11
-2.7759e-11
4.06374e-11
-2.69625e-11
3.44554e-11
-2.60919e-11
2.72559e-11
-2.51516e-11
1.89746e-11
-2.41492e-11
9.54812e-12
-2.30905e-11
-1.08363e-12
-2.19892e-11
-1.29678e-11
-2.08612e-11
-4.07641e-11
-2.08147e-11
-6.16137e-11
-2.03767e-11
-7.31731e-11
-2.23353e-11
-6.75139e-11
-4.31407e-11
-2.10236e-11
-8.19247e-11
8.43742e-11
-1.38471e-10
2.04455e-10
-1.58375e-10
3.51085e-10
-1.81917e-10
-1.74301e-10
4.92221e-10
4.38145e-13
-1.65089e-12
1.53356e-12
-4.69875e-12
3.17443e-12
-7.55268e-12
5.30241e-12
-1.02436e-11
7.86242e-12
-1.27752e-11
1.08027e-11
-1.51512e-11
1.40747e-11
-1.73753e-11
1.76331e-11
-1.9451e-11
2.14352e-11
-2.13816e-11
2.54411e-11
-2.31705e-11
2.96129e-11
-2.48202e-11
3.3915e-11
-2.63334e-11
3.83131e-11
-2.77121e-11
4.27743e-11
-2.8958e-11
4.72664e-11
-3.00724e-11
5.17578e-11
-3.10562e-11
5.62168e-11
-3.19095e-11
6.0611e-11
-3.26321e-11
6.49072e-11
-3.32234e-11
6.90705e-11
-3.3682e-11
7.3064e-11
-3.40059e-11
7.68479e-11
-3.41927e-11
8.03791e-11
-3.42391e-11
8.36103e-11
-3.41413e-11
8.64895e-11
-3.38948e-11
8.89589e-11
-3.34944e-11
9.09541e-11
-3.29341e-11
9.24031e-11
-3.22069e-11
9.32258e-11
-3.13056e-11
9.33315e-11
-3.02212e-11
9.26194e-11
-2.8945e-11
9.09756e-11
-2.74658e-11
8.82732e-11
-2.57735e-11
8.43682e-11
-2.3854e-11
7.91017e-11
-2.1696e-11
7.22916e-11
-1.92818e-11
6.37393e-11
-1.65993e-11
5.32161e-11
-1.3626e-11
4.04775e-11
-1.03519e-11
2.52354e-11
-6.74711e-12
7.19267e-12
-2.7977e-12
-3.70538e-11
3.91648e-12
-6.03155e-11
2.7489e-12
-6.33792e-11
-1.92758e-11
-9.33906e-11
-1.31203e-11
-2.15891e-11
-1.5364e-10
-6.01614e-11
-9.98984e-11
-2.30632e-11
-1.95473e-10
6.05123e-11
-2.65493e-10
-2.71363e-10
1.57575e-10
1.01445e-13
-1.75233e-12
4.9734e-13
-5.09465e-12
1.16672e-12
-8.22206e-12
2.03491e-12
-1.11118e-11
3.03757e-12
-1.37779e-11
4.11953e-12
-1.62332e-11
5.23388e-12
-1.84896e-11
6.34125e-12
-2.05583e-11
7.40908e-12
-2.24495e-11
8.41107e-12
-2.41724e-11
9.32648e-12
-2.57356e-11
1.01396e-11
-2.71465e-11
1.08393e-11
-2.84117e-11
1.14182e-11
-2.9537e-11
1.18727e-11
-3.05269e-11
1.2202e-11
-3.13855e-11
1.2408e-11
-3.21155e-11
1.24951e-11
-3.27192e-11
1.2469e-11
-3.31974e-11
1.23376e-11
-3.35505e-11
1.21095e-11
-3.37778e-11
1.17944e-11
-3.38775e-11
1.14025e-11
-3.38473e-11
1.09446e-11
-3.36834e-11
1.04314e-11
-3.33816e-11
9.8732e-12
-3.29363e-11
9.28058e-12
-3.23415e-11
8.66281e-12
-3.15892e-11
8.02925e-12
-3.0672e-11
7.3873e-12
-2.95792e-11
6.74482e-12
-2.83025e-11
6.1066e-12
-2.68276e-11
5.47894e-12
-2.51458e-11
4.86359e-12
-2.32387e-11
4.26581e-12
-2.10983e-11
3.68419e-12
-1.87002e-11
3.12455e-12
-1.60396e-11
2.5821e-12
-1.30835e-11
2.06327e-12
-9.83303e-12
1.55668e-12
-6.24052e-12
1.07943e-12
-2.32044e-12
2.74047e-12
1.15131e-12
-3.0091e-12
4.84003e-12
-4.05559e-11
1.32706e-11
-6.01152e-11
6.40238e-12
-2.02488e-10
-1.12653e-11
-2.99828e-10
-2.53615e-12
-3.00388e-10
-1.94712e-10
-4.32121e-10
-1.3376e-10
-2.41218e-10
-4.62266e-10
4.34623e-13
-2.18696e-12
1.20456e-12
-5.86458e-12
2.01259e-12
-9.03009e-12
2.69918e-12
-1.17984e-11
3.14305e-12
-1.42218e-11
3.25393e-12
-1.63441e-11
2.96738e-12
-1.82031e-11
2.24035e-12
-1.98313e-11
1.04753e-12
-2.12567e-11
-6.21797e-13
-2.25031e-11
-2.76626e-12
-2.35912e-11
-5.37451e-12
-2.45383e-11
-8.42686e-12
-2.53594e-11
-1.18967e-11
-2.60671e-11
-1.57516e-11
-2.66721e-11
-1.9954e-11
-2.71831e-11
-2.44621e-11
-2.76074e-11
-2.92302e-11
-2.7951e-11
-3.42094e-11
-2.82182e-11
-3.93475e-11
-2.84125e-11
-4.45892e-11
-2.85361e-11
-4.98765e-11
-2.85902e-11
-5.51486e-11
-2.85752e-11
-6.03419e-11
-2.84901e-11
-6.539e-11
-2.83335e-11
-7.02237e-11
-2.81026e-11
-7.4771e-11
-2.77942e-11
-7.89568e-11
-2.74033e-11
-8.27037e-11
-2.69251e-11
-8.59306e-11
-2.63523e-11
-8.85549e-11
-2.56782e-11
-9.04902e-11
-2.48923e-11
-9.16495e-11
-2.39865e-11
-9.1942e-11
-2.29462e-11
-9.12788e-11
-2.17614e-11
-8.95671e-11
-2.04119e-11
-8.67205e-11
-1.88863e-11
-8.26482e-11
-1.71559e-11
-7.72728e-11
-1.52085e-11
-7.05103e-11
-1.30029e-11
-6.23023e-11
-1.05284e-11
-5.34278e-11
-7.72326e-12
-4.40171e-11
-4.57064e-12
-3.28454e-11
-2.30562e-12
-3.17883e-11
2.93846e-13
-4.40898e-11
9.92439e-13
-5.22959e-11
5.66983e-12
-2.40863e-10
-6.13661e-12
-4.1198e-10
3.74056e-11
-2.76238e-10
-3.76536e-10
1.7213e-11
3.07485e-11
4.11184e-11
4.872e-11
5.38982e-11
5.69541e-11
5.81511e-11
5.77198e-11
5.58631e-11
5.276e-11
4.85689e-11
4.34306e-11
3.74712e-11
3.08041e-11
2.3532e-11
1.5749e-11
7.54152e-12
-1.00944e-12
-9.82765e-12
-1.88401e-11
-2.79762e-11
-3.71665e-11
-4.63416e-11
-5.54317e-11
-6.43652e-11
-7.30677e-11
-8.14619e-11
-8.94652e-11
-9.69903e-11
-1.03943e-10
-1.10221e-10
-1.15713e-10
-1.203e-10
-1.23846e-10
-1.26207e-10
-1.27219e-10
-1.26705e-10
-1.24461e-10
-1.2027e-10
-1.13873e-10
-1.05001e-10
-9.33244e-11
-7.8495e-11
-6.14006e-11
-4.1707e-11
-2.34999e-11
-9.57008e-13
1.16338e-11
6.25021e-11
-2.44185e-10
2.62079e-09
1.26884e-10
2.55989e-09
1.44385e-10
2.48214e-09
1.54254e-10
2.39236e-09
1.58503e-10
2.29592e-09
1.59352e-10
2.19656e-09
1.58391e-10
2.09211e-09
1.57102e-10
1.98784e-09
1.5545e-10
1.8824e-09
1.54333e-10
1.77706e-09
1.53118e-10
1.67216e-09
1.51774e-10
1.57025e-09
1.50981e-10
1.46696e-09
1.53366e-10
1.36305e-09
1.55284e-10
1.25888e-09
1.56838e-10
1.15634e-09
1.57803e-10
1.0555e-09
1.58719e-10
9.54571e-10
1.59981e-10
8.54316e-10
1.61135e-10
7.56725e-10
1.60212e-10
6.61444e-10
1.5946e-10
5.69137e-10
1.58144e-10
4.79324e-10
1.57434e-10
3.92009e-10
1.56819e-10
3.08133e-10
1.55297e-10
2.27444e-10
1.53994e-10
1.49944e-10
1.5276e-10
7.53675e-11
1.51872e-10
4.01566e-12
1.50769e-10
-6.4256e-11
1.49901e-10
-1.29167e-10
1.48832e-10
-1.91027e-10
1.48135e-10
-2.50192e-10
1.47853e-10
-3.07004e-10
1.47959e-10
-3.61766e-10
1.4841e-10
-4.14739e-10
1.49157e-10
-4.6615e-10
1.50158e-10
-5.16192e-10
1.51376e-10
-5.65028e-10
1.52775e-10
-6.12794e-10
1.54326e-10
-6.59602e-10
1.56006e-10
-7.05547e-10
1.57793e-10
-7.50708e-10
1.59672e-10
-7.9515e-10
1.61628e-10
-8.38929e-10
1.63646e-10
-8.82093e-10
1.65712e-10
-9.24685e-10
1.67807e-10
-9.66748e-10
1.6991e-10
-1.00832e-09
1.72002e-10
1.73907e-10
-1.04912e-09
1.53454e-10
5.12322e-11
2.37834e-10
6.0005e-11
3.22612e-10
6.94761e-11
4.02788e-10
7.83272e-11
4.75438e-10
8.67023e-11
5.36948e-10
9.68806e-11
5.88226e-10
1.05825e-10
6.2754e-10
1.16136e-10
6.55852e-10
1.26021e-10
6.74349e-10
1.34621e-10
6.81927e-10
1.44197e-10
6.77766e-10
1.55142e-10
6.6639e-10
1.64741e-10
6.47922e-10
1.73753e-10
6.23113e-10
1.81646e-10
5.92359e-10
1.88557e-10
5.56117e-10
1.9496e-10
5.15159e-10
2.00939e-10
4.72351e-10
2.03943e-10
4.24802e-10
2.07761e-10
3.74014e-10
2.10247e-10
3.19741e-10
2.12418e-10
2.63417e-10
2.13758e-10
2.05191e-10
2.15045e-10
1.44977e-10
2.15511e-10
8.36967e-11
2.15275e-10
2.18515e-11
2.14606e-10
-3.93224e-11
2.13046e-10
-1.01872e-10
2.13319e-10
-1.60183e-10
2.08212e-10
-2.14103e-10
2.02752e-10
-2.63548e-10
1.9758e-10
-3.07553e-10
1.91857e-10
-3.47547e-10
1.87953e-10
-3.84243e-10
1.85106e-10
-4.18308e-10
1.83221e-10
-4.50337e-10
1.82187e-10
-4.80833e-10
1.81872e-10
-5.10217e-10
1.82158e-10
-5.38818e-10
1.82928e-10
-5.66897e-10
1.84085e-10
-5.94666e-10
1.85562e-10
-6.22291e-10
1.87298e-10
-6.49905e-10
1.89241e-10
-6.7761e-10
1.91351e-10
-7.05492e-10
1.93594e-10
-7.33623e-10
1.95938e-10
-7.62063e-10
1.98351e-10
-7.90872e-10
2.0081e-10
2.03442e-10
-8.20407e-10
5.13008e-10
7.64644e-12
5.61756e-10
1.12573e-11
6.15573e-10
1.56595e-11
6.72877e-10
2.10231e-11
7.31158e-10
2.84216e-11
7.89799e-10
3.82392e-11
8.45775e-10
4.98487e-11
8.99342e-10
6.25692e-11
9.5128e-10
7.4083e-11
9.93735e-10
9.2166e-11
1.02918e-09
1.08753e-10
1.06063e-09
1.23691e-10
1.08705e-09
1.38325e-10
1.10881e-09
1.5199e-10
1.12539e-09
1.65068e-10
1.13639e-09
1.77554e-10
1.14211e-09
1.89237e-10
1.14296e-09
2.00092e-10
1.13673e-09
2.10179e-10
1.12531e-09
2.19182e-10
1.10839e-09
2.2716e-10
1.08575e-09
2.35059e-10
1.05612e-09
2.43394e-10
1.01991e-09
2.51254e-10
9.76759e-10
2.58659e-10
9.26641e-10
2.65393e-10
8.69866e-10
2.7138e-10
8.061e-10
2.76813e-10
7.3877e-10
2.80649e-10
6.60045e-10
2.86937e-10
5.78018e-10
2.84779e-10
5.02675e-10
2.72923e-10
4.28326e-10
2.66207e-10
3.60136e-10
2.56142e-10
2.97204e-10
2.48038e-10
2.38639e-10
2.41787e-10
1.83797e-10
2.37028e-10
1.32193e-10
2.33477e-10
8.33812e-11
2.3097e-10
3.69191e-11
2.2939e-10
-7.67639e-12
2.2868e-10
-5.08483e-11
2.28733e-10
-9.29666e-11
2.29416e-10
-1.34285e-10
2.3056e-10
-1.75016e-10
2.32082e-10
-2.15362e-10
2.33939e-10
-2.55526e-10
2.36103e-10
-2.95671e-10
2.38495e-10
-3.35902e-10
2.41042e-10
2.43696e-10
-3.76156e-10
2.67787e-10
2.41779e-12
2.79627e-10
-5.83305e-13
2.97621e-10
-2.33364e-12
3.18825e-10
-1.81721e-13
3.42696e-10
4.55134e-12
3.71401e-10
9.5336e-12
4.06869e-10
1.43811e-11
4.49089e-10
2.03489e-11
4.9458e-10
2.85922e-11
5.47616e-10
3.91304e-11
6.04962e-10
5.14068e-11
6.64274e-10
6.43786e-11
7.25076e-10
7.75221e-11
7.86319e-10
9.07467e-11
8.47729e-10
1.03659e-10
9.08443e-10
1.1684e-10
9.67966e-10
1.29714e-10
1.02559e-09
1.4247e-10
1.08077e-09
1.54999e-10
1.1329e-09
1.67046e-10
1.18124e-09
1.7882e-10
1.22595e-09
1.90355e-10
1.26681e-09
2.02529e-10
1.30335e-09
2.14716e-10
1.33503e-09
2.26981e-10
1.36101e-09
2.39418e-10
1.37998e-09
2.52408e-10
1.39034e-09
2.6645e-10
1.38771e-09
2.83279e-10
1.37395e-09
3.00692e-10
1.33449e-09
3.24248e-10
1.27834e-09
3.29068e-10
1.22766e-09
3.16884e-10
1.17196e-09
3.11845e-10
1.11157e-09
3.08428e-10