/*--------------------------------*- C++ -*----------------------------------*\
| =========                 |                                                 |
| \\      /  F ield         | OpenFOAM: The Open Source CFD Toolbox           |
|  \\    /   O peration     | Version:  2.4.0                                 |
|   \\  /    A nd           | Web:      www.OpenFOAM.org                      |
|    \\/     M anipulation  |                                                 |
\*---------------------------------------------------------------------------*/
FoamFile
{
    version     2.0;
    format      ascii;
    class       volScalarField;
    location    "0.1";
    object      alpha1;
}
// * * * * * * * * * * * * * * * * * * * * * * * * * * * * * * * * * * * * * //

dimensions      [0 0 0 0 0 0 0];

internalField   nonuniform List<scalar> 
1000
(
0.0143476
0.973896
0.0162847
0.982935
0.0162854
0.973896
0.0143476
0.0509448
0.9965
0.0509448
9.92809e-09
3.08011e-07
0.00201592
0.198498
0.00201552
3.07454e-07
1.00652e-08
0.00576215
0.9803
0.00576215
5.6475e-11
1.94539e-09
3.60034e-08
9.79278e-06
3.59758e-08
1.94258e-09
5.64425e-11
9.2608e-21
9.11367e-20
9.26559e-21
4.74556e-23
1.35671e-24
4.52501e-24
4.11494e-22
4.51546e-24
1.36307e-24
4.74865e-23
3.12555e-21
2.94153e-20
3.12755e-21
1.11556e-23
6.15496e-25
2.58826e-25
2.30523e-23
2.58313e-25
6.18878e-25
1.11422e-23
1.01384e-21
9.16145e-21
1.01461e-21
2.36599e-24
3.41464e-25
2.14262e-26
1.84383e-24
2.13876e-26
3.43273e-25
2.35703e-24
3.23189e-22
2.74666e-21
3.2348e-22
4.5292e-25
1.85526e-25
2.64721e-27
2.19309e-25
2.6429e-27
1.86468e-25
4.50061e-25
1.01178e-22
7.90565e-22
1.01287e-22
8.11254e-26
9.62876e-26
4.59331e-28
3.72869e-26
4.58635e-28
9.67611e-26
8.09654e-26
3.10141e-23
2.17915e-22
3.10546e-23
1.38628e-26
4.75174e-26
9.95662e-29
8.17452e-27
9.94218e-29
4.77452e-26
1.41131e-26
9.29419e-24
5.7386e-23
9.30862e-24
2.40235e-27
2.22584e-26
2.42044e-29
2.05393e-27
2.41699e-29
2.23627e-26
2.54041e-27
2.72011e-24
1.44019e-23
2.72496e-24
6.13671e-28
9.89e-27
6.25415e-30
5.47436e-28
6.24516e-30
9.93513e-27
6.43695e-28
7.76532e-25
3.43594e-24
7.78058e-25
1.99761e-28
4.16914e-27
1.72022e-30
1.48829e-28
1.7176e-30
4.18754e-27
2.06541e-28
2.16127e-25
7.77343e-25
2.16595e-25
6.11653e-29
1.66926e-27
5.31416e-31
4.04849e-29
5.30445e-31
1.6763e-27
6.25881e-29
5.86816e-26
1.6639e-25
5.88209e-26
1.71499e-29
6.36043e-28
1.98529e-31
1.09058e-29
1.98038e-31
6.38574e-28
1.73821e-29
1.55798e-26
3.36315e-26
1.56205e-26
4.30396e-30
2.31257e-28
8.96401e-32
2.89071e-30
8.93712e-32
2.32108e-28
4.33991e-30
4.06597e-27
6.41097e-27
4.07769e-27
9.35317e-31
8.04765e-29
4.41214e-32
7.5053e-31
4.40073e-32
8.07454e-29
9.41665e-31
1.05221e-27
1.15243e-27
1.05559e-27
1.64061e-31
2.68967e-29
2.12001e-32
1.90199e-31
2.11845e-32
2.69765e-29
1.65321e-31
2.73248e-28
1.95698e-28
2.74237e-28
1.96671e-32
8.67217e-30
9.43378e-33
4.69078e-32
9.45737e-33
8.69448e-30
1.99481e-32
7.21325e-29
3.15366e-29
7.24282e-29
1.87819e-33
2.71101e-30
3.93464e-33
1.12303e-32
3.95907e-33
2.71693e-30
1.89761e-33
1.95464e-29
4.86212e-30
1.9637e-29
4.97424e-34
8.24003e-31
1.61438e-33
2.60448e-33
1.62774e-33
8.25505e-31
4.9628e-34
5.45098e-30
7.25592e-31
5.47924e-30
1.33145e-34
2.43823e-31
6.70712e-34
5.84096e-34
6.75672e-34
2.44198e-31
1.3273e-34
1.55561e-30
1.06204e-31
1.56447e-30
3.56002e-35
7.01066e-32
2.93266e-34
1.26506e-34
2.94968e-34
7.0197e-32
3.546e-35
4.49327e-31
1.54013e-32
4.52079e-31
9.51379e-36
1.95727e-32
1.07124e-34
2.64394e-35
1.07589e-34
1.9594e-32
9.46485e-36
1.29757e-31
2.217e-33
1.30597e-31
2.5595e-36
5.2957e-33
3.47946e-35
5.33068e-36
3.49161e-35
5.30053e-33
2.54222e-36
3.70652e-32
3.14274e-34
3.73151e-32
6.96636e-37
1.38626e-33
1.0396e-35
1.03714e-36
1.04263e-35
1.38731e-33
6.90631e-37
1.03867e-32
4.32371e-35
1.04588e-32
1.91665e-37
3.5059e-34
2.90304e-36
1.94888e-37
2.91029e-36
3.50808e-34
1.89663e-37
2.83799e-33
5.68197e-36
2.85811e-33
5.28652e-38
8.55547e-35
7.64123e-37
3.5412e-38
7.65775e-37
8.55962e-35
5.22352e-38
7.52617e-34
7.0357e-37
7.58031e-34
1.44153e-38
2.01206e-35
1.90492e-37
6.23015e-39
1.9085e-37
2.01276e-35
1.42301e-38
1.93027e-34
8.12493e-38
1.94428e-34
3.82665e-39
4.55446e-36
4.51e-38
1.06228e-39
4.51734e-38
4.55541e-36
3.77594e-39
4.77405e-35
8.6867e-39
4.8089e-35
9.76687e-40
9.90953e-37
1.01552e-38
1.75572e-40
1.01694e-38
9.91017e-37
9.63661e-40
1.1359e-35
8.55423e-40
1.1442e-35
2.38304e-40
2.0696e-37
2.17616e-39
2.81043e-41
2.17876e-39
2.06943e-37
2.35107e-40
2.59476e-36
7.73243e-41
2.61369e-36
5.5853e-41
4.14313e-38
4.4385e-40
4.34873e-42
4.44295e-40
4.14222e-38
5.50837e-41
5.68064e-37
6.40591e-42
5.72181e-37
1.28138e-41
7.93954e-39
8.61482e-41
6.48694e-43
8.62196e-41
7.93668e-39
1.26254e-41
1.19004e-37
4.86872e-43
1.19858e-37
2.9579e-42
1.45456e-39
1.59061e-41
9.29889e-44
1.59167e-41
1.45384e-39
2.90367e-42
2.38217e-38
3.41053e-44
2.39904e-38
7.06759e-43
2.54461e-40
2.79239e-42
1.27687e-44
2.79383e-42
2.54302e-40
6.92037e-43
4.5503e-39
2.22058e-45
4.58198e-39
1.80627e-43
4.24569e-41
4.65812e-43
1.67459e-45
4.6599e-43
4.2425e-41
1.76213e-43
8.28306e-40
1.35756e-46
8.33955e-40
4.52191e-44
6.7479e-42
7.37773e-44
2.09216e-46
7.37972e-44
6.7421e-42
4.40436e-44
1.43509e-40
7.85826e-48
1.44465e-40
1.04307e-44
1.02024e-42
1.10841e-44
2.48471e-47
1.10861e-44
1.01927e-42
1.01619e-44
2.3637e-41
4.3446e-49
2.37904e-41
2.2218e-45
1.46541e-43
1.578e-45
2.80032e-48
1.5782e-45
1.46394e-43
2.15337e-45
3.69688e-42
2.34529e-50
3.72019e-42
4.38228e-46
1.99717e-44
2.12685e-46
2.99112e-49
2.12706e-46
1.99509e-44
4.2373e-46
5.48421e-43
1.28981e-51
5.51772e-43
7.90692e-47
2.57981e-45
2.71152e-47
3.02518e-50
2.71175e-47
2.57708e-45
7.68904e-47
7.7082e-44
7.5353e-53
7.75383e-44
1.30968e-47
3.15515e-46
3.2671e-48
2.8951e-51
3.2674e-48
3.15181e-46
1.27979e-47
1.02542e-44
4.76031e-54
1.03129e-44
1.96151e-48
3.64965e-47
3.71712e-49
2.62026e-52
3.71753e-49
3.64581e-47
1.92209e-48
1.2899e-45
3.21204e-55
1.29705e-45
2.64971e-49
3.98886e-48
3.99016e-50
2.24176e-53
3.99066e-50
3.98469e-48
2.60212e-49
1.53301e-46
2.25261e-56
1.54122e-46
3.27366e-50
4.11582e-49
4.03844e-51
1.812e-54
4.03895e-51
4.11149e-49
3.2228e-50
1.71983e-47
1.59597e-57
1.72876e-47
3.73606e-51
4.00641e-50
3.8513e-52
1.38286e-55
3.85167e-52
4.00204e-50
3.68132e-51
1.81983e-48
1.11492e-58
1.82903e-48
3.95512e-52
3.67669e-51
3.4588e-53
9.95972e-57
3.45889e-53
3.67238e-51
3.90037e-52
1.81492e-49
7.53341e-60
1.82392e-49
3.89431e-53
3.17909e-52
2.92379e-54
6.7686e-58
2.92356e-54
3.175e-52
3.84441e-53
1.70484e-50
4.86473e-61
1.71317e-50
3.57516e-54
2.58849e-53
2.32514e-55
4.34038e-59
2.32473e-55
2.58483e-53
3.53164e-54
1.50744e-51
2.98331e-62
1.51468e-51
3.06313e-55
1.98342e-54
1.73858e-56
2.62646e-60
1.73819e-56
1.98048e-54
3.02753e-55
1.25385e-52
1.7196e-63
1.25969e-52
2.45083e-56
1.42924e-55
1.22151e-57
1.49986e-61
1.22129e-57
1.42716e-55
2.42348e-56
9.80365e-54
9.17976e-65
9.84694e-54
1.83187e-57
9.67839e-57
8.05894e-59
8.08332e-63
8.05836e-59
9.6652e-57
1.81235e-57
7.19996e-55
4.53612e-66
7.22966e-55
1.27943e-58
6.15535e-58
4.98998e-60
4.11151e-64
4.99021e-60
6.14758e-58
1.26643e-58
4.96349e-56
2.11602e-67
4.98247e-56
8.35136e-60
3.67495e-59
2.89854e-61
1.97362e-65
2.89904e-61
3.67071e-59
8.27064e-60
3.21026e-57
9.4654e-69
3.22154e-57
5.09508e-61
2.05881e-60
1.57889e-62
8.93865e-67
1.57938e-62
2.05667e-60
5.04835e-61
1.94712e-58
4.0241e-70
1.95334e-58
2.90546e-62
1.08188e-61
8.06252e-64
3.81873e-68
8.06612e-64
1.0809e-61
2.88025e-62
1.10703e-59
1.5783e-71
1.11021e-59
1.54864e-63
5.33091e-63
3.85834e-65
1.53814e-69
3.86064e-65
5.32677e-63
1.53596e-63
5.89774e-61
5.62036e-73
5.91268e-61
7.71523e-65
2.46232e-64
1.72992e-66
5.83816e-71
1.73121e-66
2.46075e-64
7.65588e-65
2.94319e-62
1.86457e-74
2.94964e-62
3.59249e-66
1.06585e-65
7.26507e-68
2.08865e-72
7.27168e-68
1.06533e-65
3.56662e-66
1.3754e-63
5.94411e-76
1.37793e-63
1.56341e-67
4.32268e-67
2.8573e-69
7.04602e-74
2.86038e-69
4.32123e-67
1.55293e-67
6.0173e-65
1.85816e-77
6.02623e-65
6.35875e-69
1.64223e-68
1.0522e-70
2.24087e-75
1.05352e-70
1.64194e-68
6.31926e-69
2.46395e-66
5.56019e-79
2.46672e-66
2.41708e-70
5.84353e-70
3.62761e-72
6.72387e-77
3.63273e-72
5.8434e-70
2.40324e-70
9.44152e-68
1.51303e-80
9.44879e-68
8.58748e-72
1.9474e-71
1.17087e-73
1.90532e-78
1.17269e-73
1.94761e-71
8.54219e-72
3.3852e-69
3.78745e-82
3.38671e-69
2.85246e-73
6.07914e-73
3.53872e-75
5.10701e-80
3.54441e-75
6.08011e-73
2.83849e-73
1.13579e-70
9.03833e-84
1.13603e-70
8.86363e-75
1.77854e-74
1.002e-76
1.29138e-81
1.00353e-76
1.77866e-74
8.82244e-75
3.56752e-72
2.12647e-85
3.56789e-72
2.57811e-76
4.87967e-76
2.65975e-78
3.08851e-83
2.6635e-78
4.87937e-76
2.56677e-76
1.0497e-73
4.82624e-87
1.04972e-73
7.01689e-78
1.25511e-77
6.61641e-80
7.01051e-85
6.62702e-80
1.25526e-77
6.98977e-78
2.89297e-75
9.85263e-89
2.89193e-75
1.7853e-79
3.02301e-79
1.54079e-81
1.5034e-86
1.54357e-81
3.02395e-79
1.77938e-79
7.45751e-77
1.84797e-90
7.45197e-77
4.24641e-81
6.81826e-81
3.35908e-83
3.03813e-88
3.36583e-83
6.82174e-81
4.23476e-81
1.79802e-78
3.33275e-92
1.79599e-78
9.44285e-83
1.44012e-82
6.85609e-85
5.76133e-90
6.87132e-85
1.44115e-82
9.42249e-83
4.05451e-80
5.94571e-94
4.04834e-80
1.96332e-84
2.84869e-84
1.31024e-86
1.02253e-91
1.31343e-86
2.85133e-84
1.96026e-84
8.55116e-82
9.80411e-96
8.53477e-82
3.8171e-86
5.27776e-86
2.34473e-88
1.70167e-93
2.35097e-88
5.28381e-86
3.81342e-86
1.68681e-83
1.44653e-97
1.68291e-83
6.94045e-88
9.1595e-88
3.92983e-90
2.66435e-95
3.94115e-90
9.172e-88
6.93786e-88
3.11235e-85
1.97821e-99
3.10392e-85
1.18048e-89
1.4894e-89
6.17035e-92
3.93113e-97
6.18922e-92
1.4917e-89
1.18067e-89
5.3721e-87
2.66885e-101
5.3557e-87
1.87917e-91
2.27032e-91
9.08101e-94
5.46162e-99
9.1087e-94
2.27381e-91
1.88012e-91
8.67679e-89
3.69276e-103
8.64897e-89
2.80242e-93
3.24742e-93
1.25401e-95
7.1256e-101
1.25742e-95
3.25133e-93
2.80393e-93
1.31244e-90
4.50967e-105
1.30844e-90
3.91744e-95
4.36147e-95
1.6259e-97
8.69819e-103
1.63067e-97
4.36767e-95
3.92164e-95
1.86164e-92
4.90253e-107
1.85526e-92
5.1345e-97
5.50143e-97
1.97995e-99
9.92375e-105
1.98626e-99
5.51066e-97
5.14254e-97
2.47559e-94
4.8524e-109
2.4661e-94
6.32779e-99
6.53781e-99
2.27166e-101
1.06358e-106
2.27948e-101
6.55048e-99
6.34063e-99
3.0952e-96
4.55273e-111
3.08208e-96
7.31552e-101
7.30298e-101
2.45017e-103
1.0731e-108
2.45923e-103
7.31906e-101
7.3338e-101
3.62978e-98
4.36341e-113
3.61294e-98
7.92768e-103
7.66226e-103
2.48274e-105
1.01961e-110
2.49255e-105
7.68115e-103
7.95127e-103
3.98916e-100
4.01372e-115
3.96908e-100
8.05665e-105
7.55492e-105
2.36492e-107
9.07429e-113
2.37487e-107
7.57557e-105
8.08452e-105
4.11015e-102
3.25027e-117
4.08784e-102
7.68245e-107
7.00446e-107
2.11913e-109
7.56699e-115
2.12859e-109
7.02553e-107
7.71279e-107
3.97192e-104
2.36317e-119
3.94882e-104
6.8801e-109
6.11254e-109
1.7883e-111
5.93123e-117
1.79675e-111
6.1326e-109
6.91063e-109
3.60312e-106
1.55869e-121
3.58078e-106
5.80172e-111
5.03402e-111
1.42522e-113
4.37041e-119
1.4323e-113
5.05185e-111
5.8302e-111
3.07583e-108
9.37931e-124
3.05565e-108
4.62106e-113
3.92558e-113
1.07642e-115
3.0208e-121
1.08203e-115
3.94054e-113
4.64595e-113
2.4786e-110
5.16391e-126
2.46144e-110
3.46311e-115
2.88752e-115
7.67686e-118
1.95525e-123
7.71873e-118
2.89931e-115
3.48341e-115
1.87786e-112
2.60341e-128
1.86419e-112
2.44371e-117
2.00515e-117
5.17558e-120
1.18541e-125
5.20505e-120
2.01387e-117
2.45919e-117
1.33847e-114
1.20057e-130
1.32826e-114
1.62495e-119
1.3157e-119
3.30229e-122
6.73357e-128
3.32188e-122
1.32177e-119
1.636e-119
8.98141e-117
5.04801e-133
8.90986e-117
1.01908e-121
8.16505e-122
1.99661e-124
3.58156e-130
2.00892e-124
8.20495e-122
1.02648e-121
5.67816e-119
1.92321e-135
5.63106e-119
6.03332e-124
4.79722e-124
1.14544e-126
1.7898e-132
1.15275e-126
4.82193e-124
6.07982e-124
3.38498e-121
6.53887e-138
3.35582e-121
3.37519e-126
2.67116e-126
6.24386e-129
8.54733e-135
6.28506e-129
2.6856e-126
3.40268e-126
1.90446e-123
1.92595e-140
1.88747e-123
1.78593e-128
1.4111e-128
3.23863e-131
4.16001e-137
3.26065e-131
1.41908e-128
1.80122e-128
1.0122e-125
4.56106e-143
1.00287e-125
8.94727e-131
7.07979e-131
1.60064e-133
2.88451e-139
1.61183e-133
7.12152e-131
9.02753e-131
5.08698e-128
6.91335e-146
5.03866e-128
4.24831e-133
3.37704e-133
7.54768e-136
5.00578e-141
7.60186e-136
3.39773e-133
4.28806e-133
2.41993e-130
6.81068e-149
2.39628e-130
1.9137e-135
1.53289e-135
3.39936e-138
9.99101e-143
3.42457e-138
1.54272e-135
1.93241e-135
1.09088e-132
4.5409e-152
1.07987e-132
8.18932e-138
6.63027e-138
1.46427e-140
9.62436e-145
1.47622e-140
6.67793e-138
8.27674e-138
4.66879e-135
7.14957e-156
4.6179e-135
3.33601e-140
2.73863e-140
6.04414e-143
7.00658e-147
6.09636e-143
2.75972e-140
3.37365e-140
1.89977e-137
3.67261e-162
1.87802e-137
1.28716e-142
1.07547e-142
2.37961e-145
4.18411e-149
2.40076e-145
1.08405e-142
1.30212e-142
7.31537e-140
1.02679e-169
7.22934e-140
4.38413e-145
3.6974e-145
8.33239e-148
1.80138e-151
8.40764e-148
3.72746e-145
4.43602e-145
2.45449e-142
2.31429e-173
2.42512e-142
)
;

boundaryField
{
    BotWall
    {
        type            constantAlphaContactAngle;
        gradient        nonuniform List<scalar> 10(3995.09 8.14195 37.8717 0.00488103 37.871 8.14578 3995.1 4251.07 41.1827 4251.07);
        limit           gradient;
        theta0          30;
        value           nonuniform List<scalar> 10(0.028188 0.973924 0.0164159 0.982935 0.0164166 0.973925 0.028188 0.065672 0.996642 0.065672);
    }
    FreeStream
    {
        type            inletOutlet;
        inletValue      uniform 0;
        value           uniform 0;
    }
    FrontNBack
    {
        type            empty;
    }
    LeftSide
    {
        type            cyclic;
    }
    RightSide
    {
        type            cyclic;
    }
}


// ************************************************************************* //
