/*--------------------------------*- C++ -*----------------------------------*\
| =========                 |                                                 |
| \\      /  F ield         | OpenFOAM: The Open Source CFD Toolbox           |
|  \\    /   O peration     | Version:  2.4.0                                 |
|   \\  /    A nd           | Web:      www.OpenFOAM.org                      |
|    \\/     M anipulation  |                                                 |
\*---------------------------------------------------------------------------*/
FoamFile
{
    version     2.0;
    format      ascii;
    class       volScalarField;
    location    "0.1";
    object      H;
}
// * * * * * * * * * * * * * * * * * * * * * * * * * * * * * * * * * * * * * //

dimensions      [0 2 -2 0 0 0 0];

internalField   nonuniform List<scalar> 
1000
(
-2263.64
-7759.63
-2060.09
-9046.13
-2060.04
-7761.43
-2263.67
-1300.3
-8307.75
-1300.3
-1877.72
-5596.08
-2058.17
-8761.38
-2057.97
-5597.59
-1877.8
-1105.24
-1749.98
-1105.23
-1796.56
-5108.58
-1908.23
-6389.02
-1907.94
-5110.46
-1796.68
-956.127
-1263.88
-956.124
-1711.13
-4670.87
-1828.31
-6064.83
-1827.96
-4672.95
-1711.29
-899.692
-1156.16
-899.687
-1623.4
-4276.44
-1745.05
-5750.94
-1744.67
-4278.59
-1623.59
-845.936
-1057.14
-845.93
-1534.93
-3919.96
-1659.26
-5444.74
-1658.87
-3922.06
-1535.12
-794.799
-966.313
-794.79
-1446.88
-3596.91
-1571.85
-5145.61
-1571.49
-3598.89
-1447.08
-746.209
-883.144
-746.199
-1360.14
-3303.4
-1483.79
-4853.43
-1483.47
-3305.21
-1360.34
-700.092
-807.085
-700.08
-1275.4
-3036.04
-1396.02
-4568.43
-1395.74
-3037.65
-1275.59
-656.363
-737.598
-656.349
-1193.18
-2791.91
-1309.39
-4291.11
-1309.16
-2793.32
-1193.37
-614.937
-674.158
-614.921
-1113.87
-2568.45
-1224.68
-4022.08
-1224.49
-2569.66
-1114.05
-575.724
-616.264
-575.707
-1037.76
-2363.46
-1142.53
-3762.06
-1142.38
-2364.49
-1037.93
-538.636
-563.439
-538.617
-965.056
-2175
-1063.47
-3511.73
-1063.36
-2175.88
-965.223
-503.574
-515.235
-503.554
-895.898
-2001.43
-987.9
-3271.73
-987.812
-2002.17
-896.056
-470.443
-471.236
-470.422
-830.362
-1841.29
-916.102
-3042.56
-916.034
-1841.92
-830.511
-439.156
-431.059
-439.133
-768.473
-1693.34
-848.253
-2824.63
-848.201
-1693.88
-768.613
-409.627
-394.355
-409.604
-710.215
-1556.49
-784.434
-2618.19
-784.395
-1556.95
-710.347
-381.779
-360.806
-381.756
-655.541
-1429.78
-724.649
-2423.32
-724.619
-1430.19
-655.664
-355.534
-330.123
-355.512
-604.373
-1312.4
-668.834
-2240
-668.813
-1312.75
-604.488
-330.822
-302.047
-330.8
-556.567
-1203.65
-616.877
-2068.06
-616.862
-1203.96
-556.674
-307.572
-276.346
-307.55
-511.962
-1102.94
-568.626
-1907.23
-568.616
-1103.21
-512.062
-285.717
-252.808
-285.696
-470.397
-1009.7
-523.906
-1757.15
-523.901
-1009.95
-470.49
-265.192
-231.245
-265.172
-431.718
-923.491
-482.483
-1617.39
-482.482
-923.711
-431.805
-245.935
-211.486
-245.915
-395.772
-843.862
-444.131
-1487.48
-444.134
-844.06
-395.853
-227.883
-193.376
-227.864
-362.41
-770.399
-408.636
-1366.9
-408.641
-770.579
-362.487
-210.978
-176.777
-210.96
-331.49
-702.704
-375.793
-1255.15
-375.801
-702.867
-331.562
-195.162
-161.561
-195.144
-302.87
-640.396
-345.414
-1151.69
-345.423
-640.545
-302.938
-180.379
-147.613
-180.362
-276.415
-583.111
-317.321
-1056.01
-317.331
-583.247
-276.479
-166.575
-134.829
-166.559
-251.994
-530.504
-291.35
-967.596
-291.361
-530.628
-252.055
-153.699
-123.112
-153.683
-229.481
-482.243
-267.348
-885.971
-267.36
-482.357
-229.538
-141.698
-112.374
-141.683
-208.754
-438.016
-245.174
-810.666
-245.186
-438.121
-208.808
-130.525
-102.536
-130.51
-189.697
-397.527
-224.697
-741.241
-224.709
-397.624
-189.748
-120.132
-93.5235
-120.118
-172.197
-360.497
-205.795
-677.278
-205.807
-360.587
-172.245
-110.474
-85.2689
-110.461
-156.149
-326.662
-188.355
-618.386
-188.367
-326.745
-156.194
-101.508
-77.7103
-101.495
-141.45
-295.775
-172.273
-564.197
-172.285
-295.852
-141.493
-93.1909
-70.7908
-93.1785
-128.004
-267.605
-157.451
-514.368
-157.463
-267.677
-128.044
-85.4843
-64.4578
-85.4725
-115.72
-241.935
-143.799
-468.578
-143.81
-242.001
-115.758
-78.3494
-58.6635
-78.3382
-104.511
-218.563
-131.232
-426.528
-131.243
-218.625
-104.546
-71.7498
-53.3634
-71.7391
-94.2954
-197.302
-119.671
-387.938
-119.682
-197.359
-94.3286
-65.6507
-48.517
-65.6406
-84.9963
-177.976
-109.044
-352.55
-109.054
-178.03
-85.0274
-60.0193
-44.087
-60.0097
-76.5416
-160.424
-99.2803
-320.12
-99.2902
-160.475
-76.5705
-54.8243
-40.039
-54.8152
-68.8633
-144.496
-90.3177
-290.424
-90.3272
-144.543
-68.8902
-50.036
-36.3415
-50.0274
-61.8981
-130.053
-82.0963
-263.253
-82.1053
-130.097
-61.9231
-45.6266
-32.9654
-45.6185
-55.5867
-116.967
-74.5604
-238.412
-74.5689
-117.008
-55.6099
-41.5697
-29.8841
-41.5621
-49.874
-105.119
-67.6582
-215.72
-67.6663
-105.157
-49.8955
-37.8404
-27.0732
-37.8332
-44.7088
-94.4011
-61.3415
-195.009
-61.3492
-94.4363
-44.7286
-34.4153
-24.5101
-34.4085
-40.0433
-84.7122
-55.5653
-176.121
-55.5725
-84.7449
-40.0616
-31.2723
-22.1742
-31.266
-35.8335
-75.9604
-50.2877
-158.913
-50.2945
-75.9907
-35.8503
-28.3908
-20.0463
-28.3849
-32.0388
-68.0611
-45.4698
-143.249
-45.4761
-68.0892
-32.0542
-25.7514
-18.1092
-25.7459
-28.6215
-60.9366
-41.0752
-129.004
-41.0811
-60.9625
-28.6356
-23.336
-16.3466
-23.3309
-25.547
-54.5157
-37.0702
-116.061
-37.0757
-54.5397
-25.5599
-21.1275
-14.7438
-21.1227
-22.7835
-48.7334
-33.4236
-104.313
-33.4287
-48.7555
-22.7953
-19.1101
-13.2873
-19.1056
-20.3018
-43.5301
-30.1062
-93.6599
-30.1109
-43.5504
-20.3126
-17.2689
-11.9646
-17.2647
-18.0753
-38.8513
-27.0911
-84.0093
-27.0955
-38.87
-18.0851
-15.59
-10.7643
-15.5862
-16.0794
-34.6473
-24.3533
-75.2756
-24.3573
-34.6645
-16.0883
-14.0607
-9.67577
-14.0572
-14.2918
-30.8729
-21.8697
-67.3798
-21.8734
-30.8886
-14.2999
-12.6689
-8.68938
-12.6656
-12.6922
-27.4868
-19.6188
-60.2486
-19.6222
-27.5011
-12.6995
-11.4034
-7.79624
-11.4004
-11.262
-24.4512
-17.5808
-53.8149
-17.5839
-24.4643
-11.2686
-10.254
-6.98818
-10.2512
-9.98427
-21.7322
-15.7374
-48.0164
-15.7402
-21.7441
-9.99026
-9.21086
-6.2577
-9.20828
-8.84382
-19.2986
-14.0717
-42.796
-14.0743
-19.3094
-8.84922
-8.26522
-5.59793
-8.26284
-7.8267
-17.1221
-12.5681
-38.101
-12.5705
-17.1319
-7.83156
-7.40879
-5.00255
-7.40661
-6.92032
-15.1772
-11.2123
-33.8832
-11.2144
-15.1861
-6.9247
-6.63393
-4.46575
-6.63193
-6.11331
-13.4406
-9.99098
-30.0981
-9.99296
-13.4487
-6.11725
-5.93358
-3.98222
-5.93175
-5.39537
-11.8914
-8.89207
-26.705
-8.89387
-11.8987
-5.3989
-5.30123
-3.5471
-5.29956
-4.75718
-10.5104
-7.90435
-23.6669
-7.90598
-10.517
-4.76035
-4.73087
-3.15591
-4.72935
-4.19038
-9.28052
-7.01756
-20.9494
-7.01904
-9.28643
-4.19322
-4.21697
-2.80457
-4.21558
-3.6874
-8.18609
-6.22228
-18.5217
-6.22362
-8.19141
-3.68993
-3.75443
-2.48934
-3.75316
-3.24143
-7.21309
-5.5099
-16.3552
-5.51111
-7.21787
-3.24369
-3.33856
-2.20681
-3.33741
-2.84635
-6.34883
-4.8725
-14.4241
-4.87359
-6.35311
-2.84837
-2.96506
-1.95384
-2.96401
-2.49665
-5.58185
-4.30288
-12.7049
-4.30387
-5.58568
-2.49845
-2.62998
-1.72759
-2.62903
-2.1874
-4.90185
-3.79444
-11.176
-3.79532
-4.90528
-2.189
-2.3297
-1.52545
-2.32884
-1.91416
-4.29953
-3.34115
-9.81797
-3.34194
-4.3026
-1.91559
-2.06091
-1.34506
-2.06014
-1.67295
-3.76655
-2.93753
-8.61324
-2.93824
-3.76928
-1.67422
-1.82058
-1.18426
-1.81989
-1.46022
-3.29538
-2.57859
-7.54574
-2.57922
-3.29781
-1.46134
-1.60594
-1.04108
-1.60532
-1.27277
-2.87927
-2.25977
-6.60101
-2.26034
-2.88144
-1.27376
-1.41447
-0.913738
-1.41391
-1.10776
-2.51217
-1.97696
-5.76593
-1.97747
-2.51409
-1.10864
-1.24386
-0.800615
-1.24336
-0.962635
-2.18863
-1.72641
-5.02868
-1.72687
-2.19034
-0.96341
-1.09202
-0.700243
-1.09157
-0.835128
-1.90379
-1.50473
-4.37859
-1.50514
-1.9053
-0.835812
-0.95704
-0.611291
-0.95664
-0.72321
-1.65328
-1.30885
-3.80606
-1.30921
-1.65461
-0.723811
-0.837192
-0.532556
-0.836836
-0.625074
-1.43319
-1.136
-3.30245
-1.13631
-1.43436
-0.625601
-0.730904
-0.462951
-0.730588
-0.539109
-1.24004
-0.983658
-2.85999
-0.983935
-1.24107
-0.53957
-0.636754
-0.401493
-0.636474
-0.463885
-1.07071
-0.849586
-2.47171
-0.849829
-1.07162
-0.464288
-0.553454
-0.347299
-0.553207
-0.398129
-0.922411
-0.731746
-2.13139
-0.73196
-0.923208
-0.39848
-0.479841
-0.29957
-0.479623
-0.340711
-0.792675
-0.628315
-1.83342
-0.628502
-0.793371
-0.341016
-0.414864
-0.257592
-0.414672
-0.29063
-0.679288
-0.537655
-1.57281
-0.537817
-0.679895
-0.290893
-0.357575
-0.220721
-0.357408
-0.246997
-0.580287
-0.458298
-1.34512
-0.458439
-0.580813
-0.247223
-0.307122
-0.188381
-0.306976
-0.209026
-0.493925
-0.388934
-1.14636
-0.389055
-0.49438
-0.20922
-0.262737
-0.160055
-0.262611
-0.176022
-0.418651
-0.328389
-0.973002
-0.328493
-0.419043
-0.176187
-0.223732
-0.135281
-0.223623
-0.147371
-0.35309
-0.27562
-0.821898
-0.275709
-0.353425
-0.147511
-0.189489
-0.113648
-0.189395
-0.122531
-0.296024
-0.229697
-0.690256
-0.229772
-0.296308
-0.122649
-0.159453
-0.0947869
-0.159374
-0.101026
-0.246372
-0.189795
-0.575597
-0.189857
-0.246612
-0.101124
-0.13313
-0.0783717
-0.133063
-0.082435
-0.20318
-0.155182
-0.475726
-0.155233
-0.20338
-0.0825157
-0.110076
-0.0641114
-0.11002
-0.0663898
-0.165606
-0.125209
-0.388699
-0.125251
-0.165771
-0.0664554
-0.0898967
-0.0517479
-0.0898509
-0.0525666
-0.132905
-0.099307
-0.312798
-0.0993406
-0.133038
-0.0526188
-0.0722394
-0.0410525
-0.0722024
-0.0406817
-0.104421
-0.0769708
-0.246506
-0.076997
-0.104527
-0.0407224
-0.0567909
-0.031823
-0.0567616
-0.0304873
-0.0795766
-0.0577585
-0.188484
-0.0577782
-0.0796576
-0.0305179
-0.0432729
-0.0238808
-0.0432505
-0.0217669
-0.0578653
-0.0412823
-0.137555
-0.0412964
-0.0579246
-0.0217889
-0.0314391
-0.0170686
-0.0314228
-0.014332
-0.0388437
-0.027204
-0.0926872
-0.0272132
-0.0388836
-0.0143465
-0.021072
-0.0112477
-0.0210611
-0.00801886
-0.0221256
-0.0152292
-0.0529793
-0.0152343
-0.0221483
-0.00802695
-0.0119809
-0.00629674
-0.0119747
-0.00268554
-0.0073769
-0.00510363
-0.0176512
-0.00510538
-0.00738451
-0.00268825
-0.00399925
-0.00210907
-0.00399718
)
;

boundaryField
{
    BotWall
    {
        type            zeroGradient;
    }
    FreeStream
    {
        type            zeroGradient;
    }
    FrontNBack
    {
        type            empty;
    }
    LeftSide
    {
        type            cyclic;
    }
    RightSide
    {
        type            cyclic;
    }
}


// ************************************************************************* //
