/*--------------------------------*- C++ -*----------------------------------*\
| =========                 |                                                 |
| \\      /  F ield         | OpenFOAM: The Open Source CFD Toolbox           |
|  \\    /   O peration     | Version:  2.4.0                                 |
|   \\  /    A nd           | Web:      www.OpenFOAM.org                      |
|    \\/     M anipulation  |                                                 |
\*---------------------------------------------------------------------------*/
FoamFile
{
    version     2.0;
    format      ascii;
    class       volScalarField;
    location    "0.1";
    object      p_rgh;
}
// * * * * * * * * * * * * * * * * * * * * * * * * * * * * * * * * * * * * * //

dimensions      [1 -1 -2 0 0 0 0];

internalField   nonuniform List<scalar> 
1000
(
1.14958
93.6631
0.702839
58.9316
0.702914
93.6631
1.14959
0.331519
2.05214
0.33152
0.000730311
-0.0295123
0.0265854
0.0705002
0.0265862
-0.0295238
0.000740312
0.544883
1.38924
0.544884
0.00153778
0.00847358
-0.00456704
-0.00547105
-0.00455467
0.00846178
0.00154773
0.000224053
-0.0294884
0.000224639
-0.000489065
0.00346987
-0.00608805
-0.00363754
-0.006076
0.00345825
-0.000479147
-0.000967214
0.00753146
-0.000966571
-0.00120245
-3.29769e-05
-0.00697984
-0.00365746
-0.00696811
-4.4385e-05
-0.00119255
-0.00175314
0.00252442
-0.00175243
-0.00121797
-0.000775011
-0.00700853
-0.00372712
-0.00699709
-0.000786244
-0.00120808
-0.00187711
-0.000804223
-0.00187633
-0.00115254
-0.000703939
-0.00683218
-0.00366523
-0.00682101
-0.00071502
-0.00114268
-0.00182749
-0.00140224
-0.00182665
-0.00113804
-0.000676231
-0.00668336
-0.00355662
-0.00667246
-0.000687162
-0.00112821
-0.00179433
-0.00122541
-0.00179344
-0.00114981
-0.000743557
-0.00656642
-0.00345165
-0.00655577
-0.000754339
-0.00114001
-0.0017859
-0.00110562
-0.00178495
-0.0011651
-0.000832385
-0.00645784
-0.00335701
-0.00644743
-0.000843017
-0.00115533
-0.00178392
-0.00108656
-0.00178292
-0.00117908
-0.000912752
-0.00634962
-0.00326919
-0.00633942
-0.000923232
-0.00116937
-0.00178136
-0.00109456
-0.00178031
-0.00119296
-0.000983122
-0.0062417
-0.00318619
-0.00623172
-0.00099345
-0.00118329
-0.0017775
-0.00110047
-0.00177639
-0.00120708
-0.00104643
-0.00613493
-0.00310756
-0.00612515
-0.0010566
-0.00119745
-0.00177331
-0.00110293
-0.00177215
-0.00122143
-0.00110396
-0.0060296
-0.00303324
-0.00602001
-0.00111399
-0.00121186
-0.00176905
-0.00110466
-0.00176784
-0.00123593
-0.00115603
-0.0059257
-0.00296302
-0.0059163
-0.0011659
-0.00122641
-0.00176468
-0.00110671
-0.00176342
-0.00125047
-0.00120281
-0.00582322
-0.00289667
-0.00581399
-0.00121253
-0.00124102
-0.00176016
-0.00110908
-0.00175885
-0.00126502
-0.00124456
-0.00572214
-0.00283388
-0.00571309
-0.00125412
-0.00125562
-0.00175545
-0.00111167
-0.0017541
-0.00127947
-0.00128162
-0.00562247
-0.00277438
-0.0056136
-0.00129103
-0.00127015
-0.00175056
-0.0011144
-0.00174917
-0.0012935
-0.00131453
-0.00552435
-0.0027179
-0.00551565
-0.00132378
-0.00128425
-0.0017455
-0.00111727
-0.00174407
-0.00130701
-0.00134341
-0.00542804
-0.00266417
-0.00541952
-0.0013525
-0.00129785
-0.00174026
-0.00112025
-0.0017388
-0.00131998
-0.0013688
-0.0053334
-0.00261296
-0.00532506
-0.00137772
-0.00131091
-0.00173486
-0.00112335
-0.00173336
-0.00133241
-0.00139369
-0.00523759
-0.00256404
-0.00522939
-0.00140249
-0.00132343
-0.00172927
-0.00112653
-0.00172775
-0.0013443
-0.00141653
-0.00514243
-0.00251722
-0.00513437
-0.0014252
-0.00133542
-0.00172352
-0.00112978
-0.00172196
-0.00135566
-0.00143737
-0.00504811
-0.00247236
-0.00504021
-0.00144591
-0.00134689
-0.00171759
-0.00113309
-0.00171601
-0.00136652
-0.00145645
-0.00495464
-0.00242929
-0.00494688
-0.00146486
-0.00135784
-0.00171148
-0.00113645
-0.00170987
-0.00137686
-0.00147392
-0.00486207
-0.00238787
-0.00485445
-0.0014822
-0.0013683
-0.00170519
-0.00113984
-0.00170356
-0.00138671
-0.00148984
-0.00477051
-0.002348
-0.00476303
-0.00149799
-0.00137826
-0.00169871
-0.00114325
-0.00169707
-0.00139606
-0.0015043
-0.00468004
-0.00230955
-0.00467271
-0.00151232
-0.00138772
-0.00169206
-0.00114666
-0.0016904
-0.00140492
-0.00151734
-0.00459075
-0.00227241
-0.00458356
-0.00152524
-0.0013967
-0.00168521
-0.00115007
-0.00168354
-0.00141329
-0.00152904
-0.0045027
-0.00223651
-0.00449565
-0.00153682
-0.00140519
-0.00167818
-0.00115346
-0.0016765
-0.00142117
-0.00153944
-0.00441595
-0.00220174
-0.00440904
-0.00154709
-0.0014132
-0.00167095
-0.00115682
-0.00166927
-0.00142856
-0.00154859
-0.00433054
-0.00216804
-0.00432378
-0.00155612
-0.00142072
-0.00166353
-0.00116014
-0.00166184
-0.00143545
-0.00155654
-0.00424652
-0.00213532
-0.0042399
-0.00156395
-0.00142774
-0.00165594
-0.00116342
-0.00165425
-0.00144182
-0.00156333
-0.00416391
-0.00210353
-0.00415742
-0.00157061
-0.00143424
-0.00164817
-0.00116663
-0.00164648
-0.00144772
-0.00156899
-0.00408273
-0.00207258
-0.00407639
-0.00157615
-0.00144027
-0.00164018
-0.00116977
-0.00163848
-0.00145325
-0.00157355
-0.004003
-0.00204244
-0.0039968
-0.00158059
-0.00144593
-0.00163188
-0.00117284
-0.00163017
-0.00145826
-0.00157706
-0.00392473
-0.00201303
-0.00391867
-0.00158398
-0.00145107
-0.0016234
-0.00117582
-0.00162169
-0.00146273
-0.00157954
-0.00384792
-0.00198432
-0.00384199
-0.00158634
-0.00145567
-0.00161476
-0.00117871
-0.00161305
-0.00146667
-0.00158102
-0.00377258
-0.00195624
-0.00376679
-0.00158769
-0.00145975
-0.00160594
-0.0011815
-0.00160423
-0.00147012
-0.00158153
-0.00369869
-0.00192874
-0.00369303
-0.00158808
-0.00146333
-0.00159691
-0.00118418
-0.0015952
-0.00147307
-0.00158108
-0.00362625
-0.0019018
-0.00362073
-0.00158751
-0.00146641
-0.00158766
-0.00118675
-0.00158595
-0.00147554
-0.00157971
-0.00355525
-0.00187535
-0.00354986
-0.00158602
-0.00146901
-0.00157819
-0.0011892
-0.00157648
-0.00147752
-0.00157744
-0.00348567
-0.00184937
-0.00348042
-0.00158362
-0.00147113
-0.00156848
-0.00119152
-0.00156678
-0.00147902
-0.00157429
-0.00341749
-0.00182381
-0.00341238
-0.00158035
-0.00147278
-0.00155853
-0.00119371
-0.00155684
-0.00148006
-0.00157027
-0.00335071
-0.00179863
-0.00334573
-0.00157621
-0.00147396
-0.00154833
-0.00119576
-0.00154664
-0.00148064
-0.00156542
-0.0032853
-0.00177381
-0.00328044
-0.00157123
-0.00147467
-0.00153787
-0.00119767
-0.0015362
-0.00148076
-0.00155974
-0.00322123
-0.0017493
-0.00321651
-0.00156543
-0.00147493
-0.00152714
-0.00119943
-0.00152549
-0.00148043
-0.00155326
-0.00315848
-0.00172508
-0.00315389
-0.00155882
-0.00147474
-0.00151615
-0.00120103
-0.00151451
-0.00147965
-0.00154599
-0.00309703
-0.00170111
-0.00309257
-0.00155143
-0.00147411
-0.00150489
-0.00120248
-0.00150326
-0.00147845
-0.00153795
-0.00303686
-0.00167737
-0.00303252
-0.00154327
-0.00147305
-0.00149334
-0.00120377
-0.00149173
-0.00147681
-0.00152916
-0.00297793
-0.00165382
-0.00297372
-0.00153436
-0.00147155
-0.00148151
-0.00120489
-0.00147992
-0.00147476
-0.00151964
-0.00292022
-0.00163044
-0.00291614
-0.00152471
-0.00146964
-0.00146938
-0.00120584
-0.00146781
-0.0014723
-0.0015094
-0.00286371
-0.00160721
-0.00285976
-0.00151434
-0.00146732
-0.00145696
-0.00120661
-0.00145541
-0.00146943
-0.00149845
-0.00280837
-0.00158409
-0.00280454
-0.00150327
-0.0014646
-0.00144424
-0.00120721
-0.00144272
-0.00146618
-0.00148682
-0.00275416
-0.00156107
-0.00275045
-0.00149151
-0.00146148
-0.00143122
-0.00120763
-0.00142971
-0.00146253
-0.00147451
-0.00270107
-0.00153813
-0.00269748
-0.00147908
-0.00145798
-0.00141788
-0.00120786
-0.0014164
-0.00145852
-0.00146154
-0.00264906
-0.00151523
-0.00264558
-0.00146599
-0.0014541
-0.00140424
-0.0012079
-0.00140278
-0.00145413
-0.00144793
-0.0025981
-0.00149236
-0.00259474
-0.00145225
-0.00144986
-0.00139027
-0.00120776
-0.00138884
-0.00144939
-0.00143369
-0.00254817
-0.00146951
-0.00254493
-0.00143789
-0.00144526
-0.00137598
-0.00120742
-0.00137458
-0.0014443
-0.00141884
-0.00249923
-0.00144664
-0.00249611
-0.00142291
-0.0014403
-0.00136137
-0.00120689
-0.00136
-0.00143888
-0.00140338
-0.00245127
-0.00142375
-0.00244826
-0.00140732
-0.00143501
-0.00134643
-0.00120616
-0.00134509
-0.00143312
-0.00138733
-0.00240424
-0.00140081
-0.00240134
-0.00139115
-0.00142939
-0.00133116
-0.00120524
-0.00132984
-0.00142705
-0.0013707
-0.00235813
-0.00137781
-0.00235534
-0.00137441
-0.00142345
-0.00131555
-0.00120412
-0.00131427
-0.00142066
-0.00135352
-0.0023129
-0.00135473
-0.00231022
-0.0013571
-0.0014172
-0.00129961
-0.0012028
-0.00129835
-0.00141398
-0.00133578
-0.00226853
-0.00133156
-0.00226596
-0.00133924
-0.00141064
-0.00128332
-0.00120129
-0.00128209
-0.00140701
-0.0013175
-0.00222499
-0.00130829
-0.00222252
-0.00132084
-0.0014038
-0.00126668
-0.00119958
-0.00126549
-0.00139975
-0.0012987
-0.00218225
-0.00128489
-0.00217987
-0.00130192
-0.00139667
-0.0012497
-0.00119767
-0.00124854
-0.00139222
-0.00127938
-0.00214027
-0.00126136
-0.002138
-0.00128248
-0.00138926
-0.00123237
-0.00119557
-0.00123124
-0.00138442
-0.00125956
-0.00209905
-0.00123768
-0.00209687
-0.00126255
-0.00138158
-0.0012147
-0.00119327
-0.0012136
-0.00137635
-0.00123925
-0.00205853
-0.00121384
-0.00205646
-0.00124212
-0.00137363
-0.00119668
-0.00119079
-0.00119561
-0.00136802
-0.00121846
-0.00201871
-0.00118983
-0.00201673
-0.00122122
-0.00136543
-0.00117831
-0.00118811
-0.00117727
-0.00135944
-0.0011972
-0.00197955
-0.00116564
-0.00197766
-0.00119985
-0.00135696
-0.0011596
-0.00118525
-0.0011586
-0.00135061
-0.00117548
-0.00194102
-0.00114127
-0.00193922
-0.00117802
-0.00134825
-0.00114055
-0.00118221
-0.00113958
-0.00134153
-0.00115332
-0.00190309
-0.00111669
-0.00190138
-0.00115575
-0.00133929
-0.00112117
-0.00117897
-0.00112023
-0.00133221
-0.00113072
-0.00186575
-0.0010919
-0.00186412
-0.00113304
-0.00133008
-0.00110145
-0.00117555
-0.00110055
-0.00132266
-0.0011077
-0.00182895
-0.0010669
-0.00182741
-0.00110991
-0.00132064
-0.00108142
-0.00117193
-0.00108055
-0.00131287
-0.00108426
-0.00179267
-0.00104167
-0.00179122
-0.00108637
-0.00131096
-0.00106106
-0.00116813
-0.00106023
-0.00130285
-0.00106041
-0.0017569
-0.0010162
-0.00175553
-0.00106243
-0.00130105
-0.00104039
-0.00116413
-0.0010396
-0.00129261
-0.00103618
-0.00172158
-0.0009905
-0.00172029
-0.00103809
-0.00129091
-0.00101942
-0.00115994
-0.00101866
-0.00128215
-0.00101155
-0.00168671
-0.000964548
-0.0016855
-0.00101336
-0.00128055
-0.000998146
-0.00115555
-0.000997418
-0.00127147
-0.000986554
-0.00165225
-0.000938343
-0.00165112
-0.000988268
-0.00126997
-0.000976581
-0.00115096
-0.000975888
-0.00126057
-0.000961189
-0.00161818
-0.000911877
-0.00161712
-0.000962807
-0.00125918
-0.00095473
-0.00114618
-0.000954072
-0.00124947
-0.000935466
-0.00158446
-0.000885146
-0.00158347
-0.000936991
-0.00124817
-0.000932602
-0.0011412
-0.000931978
-0.00123816
-0.000909395
-0.00155106
-0.000858143
-0.00155015
-0.000910827
-0.00123696
-0.000910203
-0.00113603
-0.000909614
-0.00122666
-0.000882983
-0.00151797
-0.000830864
-0.00151713
-0.000884324
-0.00122555
-0.000887542
-0.00113067
-0.000886986
-0.00121495
-0.000856239
-0.00148515
-0.000803303
-0.00148437
-0.000857491
-0.00121393
-0.000864625
-0.00112512
-0.000864104
-0.00120305
-0.000829172
-0.00145257
-0.000775455
-0.00145186
-0.000830335
-0.00120213
-0.000841462
-0.00111938
-0.000840974
-0.00119096
-0.000801787
-0.0014202
-0.000747315
-0.00141956
-0.000802864
-0.00119013
-0.00081806
-0.00111346
-0.000817605
-0.00117869
-0.000774094
-0.00138801
-0.000718879
-0.00138744
-0.000775086
-0.00117794
-0.000794428
-0.00110736
-0.000794007
-0.00116623
-0.000746099
-0.00135598
-0.000690141
-0.00135547
-0.000747006
-0.00116557
-0.000770575
-0.00110108
-0.000770188
-0.00115361
-0.000717809
-0.00132407
-0.000661098
-0.00132362
-0.000718633
-0.00115303
-0.000746512
-0.00109464
-0.000746157
-0.0011408
-0.000689231
-0.00129225
-0.000631745
-0.00129186
-0.000689973
-0.00114031
-0.000722246
-0.00108804
-0.000721925
-0.00112784
-0.00066037
-0.00126048
-0.000602076
-0.00126016
-0.000661032
-0.00112743
-0.00069779
-0.00108128
-0.000697502
-0.00111471
-0.000631235
-0.00122875
-0.000572075
-0.00122849
-0.000631816
-0.00111438
-0.000673152
-0.00107437
-0.000672897
-0.00110141
-0.000601832
-0.00119706
-0.000541723
-0.00119686
-0.000602333
-0.00110116
-0.000648343
-0.00106728
-0.00064812
-0.00108796
-0.000572164
-0.00116532
-0.000511052
-0.00116519
-0.000572587
-0.0010878
-0.000623376
-0.00106007
-0.000623187
-0.00107448
-0.00054223
-0.00113317
-0.00048028
-0.0011331
-0.000542575
-0.00107439
-0.000598279
-0.00105301
-0.000598123
-0.00106109
-0.000512017
-0.00110003
-0.000449661
-0.00110002
-0.000512284
-0.00106109
-0.000573076
-0.00104651
-0.000572952
-0.00104734
-0.000481603
-0.00106738
-0.000418032
-0.00106742
-0.000481792
-0.00104741
-0.000547729
-0.00103935
-0.000547638
-0.00103066
-0.000450919
-0.00104313
-0.000379487
-0.00104324
-0.000451026
-0.00103082
-0.000521647
-0.0010249
-0.000521591
)
;

boundaryField
{
    BotWall
    {
        type            fixedFluxPressure;
        gradient        uniform 0;
        value           nonuniform List<scalar> 10(1.14958 93.6631 0.702839 58.9316 0.702914 93.6631 1.14959 0.331519 2.05214 0.33152);
    }
    FreeStream
    {
        type            totalPressure;
        rho             rho;
        psi             none;
        gamma           1;
        p0              uniform 0;
        value           nonuniform List<scalar> 10(-0.00102018 -0.000435569 -0.00103833 -0.000355134 -0.00103847 -0.000435631 -0.00102038 -0.000508209 -0.00101184 -0.000508171);
    }
    FrontNBack
    {
        type            empty;
    }
    LeftSide
    {
        type            cyclic;
    }
    RightSide
    {
        type            cyclic;
    }
}


// ************************************************************************* //
