/*--------------------------------*- C++ -*----------------------------------*\
| =========                 |                                                 |
| \\      /  F ield         | OpenFOAM: The Open Source CFD Toolbox           |
|  \\    /   O peration     | Version:  2.4.0                                 |
|   \\  /    A nd           | Web:      www.OpenFOAM.org                      |
|    \\/     M anipulation  |                                                 |
\*---------------------------------------------------------------------------*/
FoamFile
{
    version     2.0;
    format      ascii;
    class       surfaceScalarField;
    location    "0.1";
    object      phi;
}
// * * * * * * * * * * * * * * * * * * * * * * * * * * * * * * * * * * * * * //

dimensions      [0 3 -1 0 0 0 0];

internalField   nonuniform List<scalar> 
1890
(
-2.82189e-11
-1.49873e-09
-2.82439e-10
-1.23677e-09
5.02989e-10
-1.75957e-09
-5.02997e-10
2.6828e-11
2.82448e-10
-1.75958e-09
2.82191e-11
-1.23676e-09
5.00032e-11
-1.49875e-09
1.11857e-10
-1.18698e-09
-1.11857e-10
2.08759e-11
-1.18698e-09
-4.40578e-11
-1.45614e-09
-4.94158e-11
-1.23141e-09
-5.58813e-11
-1.7531e-09
5.58803e-11
-8.49336e-11
4.94252e-11
-1.75313e-09
4.40535e-11
-1.23138e-09
1.46246e-12
-1.45616e-09
-1.99585e-11
-1.16556e-09
1.99585e-11
-1.14998e-09
-1.16555e-09
-3.99828e-11
-1.40818e-09
-6.27006e-11
-1.20869e-09
-1.96052e-11
-1.7962e-09
1.96008e-11
-1.2414e-10
6.2719e-11
-1.79625e-09
3.99786e-11
-1.20864e-09
-7.9946e-12
-1.40818e-09
-3.29405e-12
-1.17026e-09
3.29354e-12
-1.15657e-09
-1.17024e-09
-3.57522e-11
-1.36643e-09
-5.52056e-11
-1.18924e-09
-1.77387e-11
-1.83367e-09
1.77273e-11
-1.59606e-10
5.52269e-11
-1.83375e-09
3.57486e-11
-1.18916e-09
-6.01046e-12
-1.36642e-09
-3.91937e-12
-1.17235e-09
3.91842e-12
-1.16441e-09
-1.17232e-09
-3.17925e-11
-1.33003e-09
-4.92202e-11
-1.17181e-09
-1.66442e-11
-1.86624e-09
1.66285e-11
-1.92878e-10
4.9242e-11
-1.86636e-09
3.17894e-11
-1.17171e-09
-4.62042e-12
-1.33001e-09
-3.50111e-12
-1.17347e-09
3.49989e-12
-1.17141e-09
-1.17342e-09
-2.81838e-11
-1.29841e-09
-4.40533e-11
-1.15594e-09
-1.59176e-11
-1.89438e-09
1.59002e-11
-2.24696e-10
4.40738e-11
-1.89453e-09
2.81811e-11
-1.15582e-09
-3.46186e-12
-1.29837e-09
-3.09166e-12
-1.17384e-09
3.09043e-12
-1.17759e-09
-1.17377e-09
-2.48554e-11
-1.27108e-09
-3.94098e-11
-1.14139e-09
-1.53184e-11
-1.91847e-09
1.53016e-11
-2.55316e-10
3.94281e-11
-1.91866e-09
2.48533e-11
-1.14124e-09
-2.48799e-12
-1.27103e-09
-2.80345e-12
-1.17352e-09
2.80246e-12
-1.1832e-09
-1.17344e-09
-2.17495e-11
-1.24766e-09
-3.514e-11
-1.12799e-09
-1.47321e-11
-1.93888e-09
1.47173e-11
-2.84765e-10
3.51554e-11
-1.9391e-09
2.1748e-11
-1.12784e-09
-1.68488e-12
-1.2476e-09
-2.58613e-12
-1.17262e-09
2.58563e-12
-1.18837e-09
-1.17253e-09
-1.8842e-11
-1.2278e-09
-3.11519e-11
-1.11568e-09
-1.41089e-11
-1.95592e-09
1.40969e-11
-3.12971e-10
3.11642e-11
-1.95617e-09
1.88412e-11
-1.11551e-09
-1.02848e-12
-1.22773e-09
-2.39995e-12
-1.17125e-09
2.4001e-12
-1.19317e-09
-1.17115e-09
-1.61211e-11
-1.21119e-09
-2.73953e-11
-1.10441e-09
-1.34355e-11
-1.96988e-09
1.34266e-11
-3.39833e-10
2.74045e-11
-1.97014e-09
1.6121e-11
-1.10423e-09
-4.94702e-13
-1.21111e-09
-2.23744e-12
-1.16951e-09
2.23835e-12
-1.19765e-09
-1.1694e-09
-1.35785e-11
-1.19754e-09
-2.38481e-11
-1.09414e-09
-1.2718e-11
-1.98101e-09
1.27119e-11
-3.65263e-10
2.38546e-11
-1.98129e-09
1.35792e-11
-1.09396e-09
-7.15715e-14
-1.19746e-09
-2.0984e-12
-1.16748e-09
2.10008e-12
-1.20185e-09
-1.16736e-09
-1.12079e-11
-1.18663e-09
-2.05048e-11
-1.08484e-09
-1.19714e-11
-1.98954e-09
1.19675e-11
-3.89202e-10
2.05087e-11
-1.98983e-09
1.12091e-11
-1.08466e-09
2.907e-13
-1.18654e-09
-1.98164e-12
-1.16521e-09
1.98407e-12
-1.20581e-09
-1.16509e-09
-9.0042e-12
-1.1782e-09
-1.73676e-11
-1.07648e-09
-1.12134e-11
-1.9957e-09
1.12111e-11
-4.11627e-10
1.73693e-11
-1.99599e-09
9.00594e-12
-1.07629e-09
5.74857e-13
-1.17811e-09
-1.88505e-12
-1.16275e-09
1.88812e-12
-1.20958e-09
-1.16262e-09
-6.96359e-12
-1.17203e-09
-1.44417e-11
-1.069e-09
-1.04615e-11
-1.99968e-09
1.04603e-11
-4.32548e-10
1.44416e-11
-1.99997e-09
6.96563e-12
-1.06882e-09
7.96198e-13
-1.17194e-09
-1.80642e-12
-1.16015e-09
1.81004e-12
-1.2132e-09
-1.16002e-09
-5.08239e-12
-1.16791e-09
-1.17319e-11
-1.06235e-09
-9.73098e-12
-2.00168e-09
9.73026e-12
-4.5201e-10
1.17303e-11
-2.00197e-09
5.08458e-12
-1.06217e-09
9.64881e-13
-1.16782e-09
-1.74383e-12
-1.15744e-09
1.74786e-12
-1.21669e-09
-1.15731e-09
-3.35674e-12
-1.16563e-09
-9.24132e-12
-1.05647e-09
-9.03377e-12
-2.00189e-09
9.03324e-12
-4.70077e-10
9.23841e-12
-2.00217e-09
3.35893e-12
-1.05629e-09
1.08843e-12
-1.16555e-09
-1.69556e-12
-1.15466e-09
1.69988e-12
-1.22009e-09
-1.15453e-09
-1.78209e-12
-1.16502e-09
-6.97006e-12
-1.05128e-09
-8.37852e-12
-2.00048e-09
8.37794e-12
-4.86833e-10
6.96614e-12
-2.00076e-09
1.78419e-12
-1.05111e-09
1.17295e-12
-1.16494e-09
-1.66008e-12
-1.15182e-09
1.66459e-12
-1.22341e-09
-1.1517e-09
-3.50511e-13
-1.16588e-09
-4.91558e-12
-1.04672e-09
-7.7706e-12
-1.99762e-09
7.76984e-12
-5.02373e-10
4.91085e-12
-1.9979e-09
3.5272e-13
-1.04655e-09
1.22349e-12
-1.16581e-09
-1.636e-12
-1.14896e-09
1.6406e-12
-1.22669e-09
-1.14884e-09
9.33893e-13
-1.16805e-09
-3.07333e-12
-1.04271e-09
-7.21251e-12
-1.99348e-09
7.21153e-12
-5.16798e-10
3.06794e-12
-1.99376e-09
-9.32195e-13
-1.04255e-09
1.24432e-12
-1.16799e-09
-1.62203e-12
-1.1461e-09
1.62666e-12
-1.22994e-09
-1.14598e-09
2.08587e-12
-1.17137e-09
-1.43967e-12
-1.03918e-09
-6.70447e-12
-1.98822e-09
6.70325e-12
-5.30205e-10
1.43372e-12
-1.98849e-09
-2.08456e-12
-1.03903e-09
1.23963e-12
-1.17131e-09
-1.61697e-12
-1.14324e-09
1.62159e-12
-1.23318e-09
-1.14312e-09
3.11119e-12
-1.17569e-09
-6.47964e-14
-1.03601e-09
-6.24488e-12
-1.98204e-09
6.24343e-12
-5.42694e-10
5.9649e-14
-1.9823e-09
-3.1102e-12
-1.03586e-09
1.21335e-12
-1.17564e-09
-1.61972e-12
-1.14041e-09
1.62428e-12
-1.23642e-09
-1.14029e-09
4.01665e-12
-1.18087e-09
1.29538e-12
-1.03329e-09
-5.83076e-12
-1.97491e-09
5.82913e-12
-5.54353e-10
-1.30218e-12
-1.97517e-09
-4.01594e-12
-1.03315e-09
1.169e-12
-1.18082e-09
-1.62923e-12
-1.13761e-09
1.63373e-12
-1.23968e-09
-1.1375e-09
4.81047e-12
-1.18678e-09
2.42668e-12
-1.0309e-09
-5.45966e-12
-1.96703e-09
5.45787e-12
-5.65271e-10
-2.43339e-12
-1.96728e-09
-4.81002e-12
-1.03077e-09
1.10971e-12
-1.18674e-09
-1.64454e-12
-1.13485e-09
1.64895e-12
-1.24298e-09
-1.13474e-09
5.5011e-12
-1.19332e-09
3.39924e-12
-1.0288e-09
-5.12844e-12
-1.9585e-09
5.12652e-12
-5.75526e-10
-3.40597e-12
-1.95875e-09
-5.50087e-12
-1.02868e-09
1.03827e-12
-1.19328e-09
-1.66473e-12
-1.13215e-09
1.66905e-12
-1.24631e-09
-1.13204e-09
6.09681e-12
-1.20036e-09
4.23221e-12
-1.02693e-09
-4.83365e-12
-1.94943e-09
4.83164e-12
-5.85191e-10
-4.23894e-12
-1.94968e-09
-6.09677e-12
-1.02682e-09
9.5719e-13
-1.20033e-09
-1.68894e-12
-1.1295e-09
1.69318e-12
-1.24969e-09
-1.1294e-09
6.6056e-12
-1.20783e-09
4.94e-12
-1.02527e-09
-4.57176e-12
-1.93992e-09
4.56968e-12
-5.94333e-10
-4.94671e-12
-1.94016e-09
-6.60573e-12
-1.02516e-09
8.68669e-13
-1.20781e-09
-1.71639e-12
-1.12692e-09
1.72054e-12
-1.25313e-09
-1.12682e-09
7.03509e-12
-1.21563e-09
5.53546e-12
-1.02377e-09
-4.33933e-12
-1.93005e-09
4.33718e-12
-6.03009e-10
-5.54213e-12
-1.93028e-09
-7.03535e-12
-1.02367e-09
7.74645e-13
-1.21562e-09
-1.74633e-12
-1.1244e-09
1.75039e-12
-1.25663e-09
-1.1243e-09
7.39249e-12
-1.2237e-09
6.03037e-12
-1.02241e-09
-4.13306e-12
-1.91988e-09
4.13087e-12
-6.11273e-10
-6.03699e-12
-1.92011e-09
-7.39286e-12
-1.02231e-09
6.76802e-13
-1.22369e-09
-1.77808e-12
-1.12194e-09
1.78205e-12
-1.26019e-09
-1.12185e-09
7.68455e-12
-1.23195e-09
6.43555e-12
-1.02116e-09
-3.94994e-12
-1.9095e-09
3.94771e-12
-6.19171e-10
-6.44209e-12
-1.90972e-09
-7.68501e-12
-1.02107e-09
5.76593e-13
-1.23195e-09
-1.81101e-12
-1.11956e-09
1.8149e-12
-1.26381e-09
-1.11946e-09
7.91759e-12
-1.24034e-09
6.76086e-12
-1.02e-09
-3.78721e-12
-1.89895e-09
3.78494e-12
-6.26743e-10
-6.76731e-12
-1.89917e-09
-7.91812e-12
-1.01992e-09
4.7525e-13
-1.24034e-09
-1.84455e-12
-1.11724e-09
1.84835e-12
-1.2675e-09
-1.11714e-09
8.09747e-12
-1.24881e-09
7.0153e-12
-1.01892e-09
-3.64236e-12
-1.88829e-09
3.64007e-12
-6.34025e-10
-7.02165e-12
-1.88851e-09
-8.09805e-12
-1.01884e-09
3.73784e-13
-1.24881e-09
-1.87818e-12
-1.11498e-09
1.88189e-12
-1.27126e-09
-1.11489e-09
8.2296e-12
-1.2573e-09
7.20703e-12
-1.0179e-09
-3.51318e-12
-1.87757e-09
3.51088e-12
-6.41049e-10
-7.21326e-12
-1.87779e-09
-8.23022e-12
-1.01782e-09
2.72963e-13
-1.25732e-09
-1.91142e-12
-1.1128e-09
1.91504e-12
-1.27509e-09
-1.11271e-09
8.31898e-12
-1.26579e-09
7.34341e-12
-1.01692e-09
-3.39768e-12
-1.86683e-09
3.39537e-12
-6.47842e-10
-7.34952e-12
-1.86704e-09
-8.31963e-12
-1.01685e-09
1.73192e-13
-1.26581e-09
-1.94386e-12
-1.11068e-09
1.94738e-12
-1.27898e-09
-1.11059e-09
8.37021e-12
-1.27423e-09
7.43109e-12
-1.01598e-09
-3.2941e-12
-1.85611e-09
3.29179e-12
-6.54428e-10
-7.43707e-12
-1.85631e-09
-8.37087e-12
-1.01592e-09
7.37927e-14
-1.27426e-09
-1.97511e-12
-1.10863e-09
1.97853e-12
-1.28294e-09
-1.10855e-09
8.3875e-12
-1.28259e-09
7.47608e-12
-1.01507e-09
-3.20089e-12
-1.84543e-09
3.19858e-12
-6.60828e-10
-7.48192e-12
-1.84563e-09
-8.38816e-12
-1.01501e-09
-2.51818e-14
-1.28262e-09
-2.00483e-12
-1.10665e-09
2.00814e-12
-1.28695e-09
-1.10657e-09
8.3747e-12
-1.29085e-09
7.48374e-12
-1.01418e-09
-3.11667e-12
-1.83483e-09
3.11437e-12
-6.67059e-10
-7.48944e-12
-1.83503e-09
-8.37535e-12
-1.01413e-09
-1.04818e-13
-1.29089e-09
-2.0327e-12
-1.10473e-09
2.03591e-12
-1.29102e-09
-1.10464e-09
8.33529e-12
-1.299e-09
7.45893e-12
-1.0133e-09
-3.04023e-12
-1.82433e-09
3.03794e-12
-6.73137e-10
-7.46448e-12
-1.82453e-09
-8.33593e-12
-1.01326e-09
-1.85691e-13
-1.29904e-09
-2.05851e-12
-1.10285e-09
2.06161e-12
-1.29514e-09
-1.10277e-09
8.27246e-12
-1.307e-09
7.40598e-12
-1.01244e-09
-2.97048e-12
-1.81395e-09
2.96821e-12
-6.79076e-10
-7.41138e-12
-1.81415e-09
-8.27309e-12
-1.0124e-09
-2.63816e-13
-1.30705e-09
-2.08207e-12
-1.10104e-09
2.08506e-12
-1.2993e-09
-1.10095e-09
8.18909e-12
-1.31485e-09
7.32878e-12
-1.01158e-09
-2.90648e-12
-1.80372e-09
2.90423e-12
-6.84886e-10
-7.33404e-12
-1.80391e-09
-8.18971e-12
-1.01154e-09
-3.38265e-13
-1.3149e-09
-2.10322e-12
-1.09927e-09
2.1061e-12
-1.30351e-09
-1.09919e-09
8.0878e-12
-1.32252e-09
7.23082e-12
-1.01072e-09
-2.84739e-12
-1.79364e-09
2.84517e-12
-6.90579e-10
-7.23593e-12
-1.79383e-09
-8.08839e-12
-1.01069e-09
-4.08621e-13
-1.32258e-09
-2.12184e-12
-1.09756e-09
2.12461e-12
-1.30776e-09
-1.09748e-09
7.97094e-12
-1.33002e-09
7.11521e-12
-1.00986e-09
-2.79247e-12
-1.78373e-09
2.79028e-12
-6.96162e-10
-7.12016e-12
-1.78392e-09
-7.97151e-12
-1.00984e-09
-4.74662e-13
-1.33008e-09
-2.13784e-12
-1.09589e-09
2.1405e-12
-1.31204e-09
-1.09582e-09
7.84066e-12
-1.33732e-09
6.98473e-12
-1.00901e-09
-2.74106e-12
-1.77401e-09
2.73891e-12
-7.01642e-10
-6.98953e-12
-1.77419e-09
-7.84122e-12
-1.00898e-09
-5.36277e-13
-1.33738e-09
-2.15115e-12
-1.09428e-09
2.1537e-12
-1.31634e-09
-1.0942e-09
7.69891e-12
-1.34442e-09
6.84185e-12
-1.00815e-09
-2.6926e-12
-1.76447e-09
2.69048e-12
-7.07025e-10
-6.84651e-12
-1.76465e-09
-7.69946e-12
-1.00813e-09
-5.93421e-13
-1.34449e-09
-2.16173e-12
-1.09271e-09
2.16417e-12
-1.32067e-09
-1.09264e-09
7.54745e-12
-1.35131e-09
6.68879e-12
-1.00729e-09
-2.64658e-12
-1.75514e-09
2.64451e-12
-7.12316e-10
-6.6933e-12
-1.75531e-09
-7.54798e-12
-1.00728e-09
-6.46107e-13
-1.35139e-09
-2.16957e-12
-1.09119e-09
2.1719e-12
-1.32501e-09
-1.09111e-09
7.38785e-12
-1.358e-09
6.52752e-12
-1.00643e-09
-2.60256e-12
-1.74601e-09
2.60053e-12
-7.17519e-10
-6.53188e-12
-1.74618e-09
-7.38836e-12
-1.00642e-09
-6.94383e-13
-1.35808e-09
-2.17466e-12
-1.08971e-09
2.17689e-12
-1.32936e-09
-1.08963e-09
7.22154e-12
-1.36448e-09
6.35976e-12
-1.00557e-09
-2.56016e-12
-1.73709e-09
2.55818e-12
-7.22637e-10
-6.36398e-12
-1.73726e-09
-7.22205e-12
-1.00556e-09
-7.38332e-13
-1.36457e-09
-2.17702e-12
-1.08827e-09
2.17915e-12
-1.33372e-09
-1.0882e-09
7.04982e-12
-1.37075e-09
6.18708e-12
-1.00471e-09
-2.51903e-12
-1.72838e-09
2.51711e-12
-7.27674e-10
-6.19115e-12
-1.72855e-09
-7.05032e-12
-1.0047e-09
-7.78064e-13
-1.37084e-09
-2.17668e-12
-1.08687e-09
2.17871e-12
-1.33807e-09
-1.0868e-09
6.87385e-12
-1.37681e-09
6.01082e-12
-1.00384e-09
-2.47891e-12
-1.71989e-09
2.47703e-12
-7.3263e-10
-6.01475e-12
-1.72006e-09
-6.87433e-12
-1.00384e-09
-8.13708e-13
-1.3769e-09
-2.17369e-12
-1.08551e-09
2.17562e-12
-1.34242e-09
-1.08544e-09
6.69467e-12
-1.38266e-09
5.8322e-12
-1.00298e-09
-2.43953e-12
-1.71162e-09
2.43771e-12
-7.37507e-10
-5.83599e-12
-1.71179e-09
-6.69514e-12
-1.00298e-09
-8.45411e-13
-1.38275e-09
-2.16809e-12
-1.08419e-09
2.16992e-12
-1.34676e-09
-1.08412e-09
6.51322e-12
-1.38829e-09
5.65227e-12
-1.00212e-09
-2.40068e-12
-1.70357e-09
2.39893e-12
-7.42306e-10
-5.65593e-12
-1.70373e-09
-6.51368e-12
-1.00213e-09
-8.73334e-13
-1.38839e-09
-2.15996e-12
-1.0829e-09
2.16169e-12
-1.35108e-09
-1.08283e-09
6.33034e-12
-1.39372e-09
5.47196e-12
-1.00126e-09
-2.36219e-12
-1.69573e-09
2.3605e-12
-7.47029e-10
-5.47548e-12
-1.69589e-09
-6.33079e-12
-1.00127e-09
-8.97648e-13
-1.39382e-09
-2.14936e-12
-1.08165e-09
2.151e-12
-1.35538e-09
-1.08158e-09
6.14678e-12
-1.39895e-09
5.29208e-12
-1.00041e-09
-2.32391e-12
-1.68812e-09
2.32228e-12
-7.51675e-10
-5.29547e-12
-1.68828e-09
-6.14723e-12
-1.00042e-09
-9.18532e-13
-1.39905e-09
-2.13637e-12
-1.08043e-09
2.13791e-12
-1.35966e-09
-1.08037e-09
5.96322e-12
-1.40397e-09
5.11333e-12
-9.99558e-10
-2.2857e-12
-1.68072e-09
2.28414e-12
-7.56245e-10
-5.1166e-12
-1.68088e-09
-5.96365e-12
-9.99572e-10
-9.3617e-13
-1.40408e-09
-2.12107e-12
-1.07925e-09
2.12251e-12
-1.3639e-09
-1.07918e-09
5.78025e-12
-1.4088e-09
4.93633e-12
-9.98714e-10
-2.24748e-12
-1.67353e-09
2.24599e-12
-7.60739e-10
-4.93947e-12
-1.67369e-09
-5.78067e-12
-9.98731e-10
-9.5075e-13
-1.40891e-09
-2.10355e-12
-1.07809e-09
2.1049e-12
-1.36811e-09
-1.07803e-09
5.5984e-12
-1.41343e-09
4.76159e-12
-9.97878e-10
-2.20916e-12
-1.66656e-09
2.20774e-12
-7.65156e-10
-4.76461e-12
-1.66672e-09
-5.59881e-12
-9.97897e-10
-9.62461e-13
-1.41355e-09
-2.08391e-12
-1.07697e-09
2.08516e-12
-1.37228e-09
-1.07691e-09
5.41814e-12
-1.41788e-09
4.58957e-12
-9.97049e-10
-2.17067e-12
-1.6598e-09
2.16932e-12
-7.69496e-10
-4.59247e-12
-1.65996e-09
-5.41854e-12
-9.97071e-10
-9.71496e-13
-1.41799e-09
-2.06223e-12
-1.07588e-09
2.06339e-12
-1.3764e-09
-1.07582e-09
5.23989e-12
-1.42214e-09
4.42064e-12
-9.9623e-10
-2.13196e-12
-1.65325e-09
2.13069e-12
-7.73758e-10
-4.42343e-12
-1.6534e-09
-5.24027e-12
-9.96254e-10
-9.78041e-13
-1.42225e-09
-2.03862e-12
-1.07482e-09
2.03968e-12
-1.38048e-09
-1.07476e-09
5.064e-12
-1.42622e-09
4.25514e-12
-9.95421e-10
-2.09302e-12
-1.6469e-09
2.09182e-12
-7.77943e-10
-4.25781e-12
-1.64705e-09
-5.06438e-12
-9.95448e-10
-9.82286e-13
-1.42634e-09
-2.01317e-12
-1.07379e-09
2.01414e-12
-1.38451e-09
-1.07373e-09
4.8908e-12
-1.43012e-09
4.09332e-12
-9.94623e-10
-2.0538e-12
-1.64075e-09
2.05268e-12
-7.8205e-10
-4.09588e-12
-1.6409e-09
-4.89116e-12
-9.94652e-10
-9.84416e-13
-1.43024e-09
-1.98598e-12
-1.07279e-09
1.98686e-12
-1.38848e-09
-1.07273e-09
4.72056e-12
-1.43385e-09
3.93541e-12
-9.93838e-10
-2.01431e-12
-1.6348e-09
2.01326e-12
-7.86077e-10
-3.93786e-12
-1.63495e-09
-4.72091e-12
-9.93869e-10
-9.84612e-13
-1.43398e-09
-1.95716e-12
-1.07182e-09
1.95795e-12
-1.3924e-09
-1.07176e-09
4.55352e-12
-1.43742e-09
3.78158e-12
-9.93066e-10
-1.97454e-12
-1.62905e-09
1.97356e-12
-7.90025e-10
-3.78393e-12
-1.6292e-09
-4.55385e-12
-9.93099e-10
-9.83052e-13
-1.43755e-09
-1.9268e-12
-1.07087e-09
1.9275e-12
-1.39625e-09
-1.07082e-09
4.38988e-12
-1.44083e-09
3.63198e-12
-9.92308e-10
-1.93449e-12
-1.62348e-09
1.9336e-12
-7.93893e-10
-3.63423e-12
-1.62363e-09
-4.3902e-12
-9.92343e-10
-9.79912e-13
-1.44096e-09
-1.89501e-12
-1.06996e-09
1.89562e-12
-1.40004e-09
-1.0699e-09
4.22981e-12
-1.44408e-09
3.48671e-12
-9.91565e-10
-1.89418e-12
-1.6181e-09
1.89337e-12
-7.97681e-10
-3.48887e-12
-1.61825e-09
-4.23011e-12
-9.91602e-10
-9.75363e-13
-1.44422e-09
-1.86188e-12
-1.06907e-09
1.86241e-12
-1.40377e-09
-1.06902e-09
4.07346e-12
-1.44719e-09
3.34586e-12
-9.90838e-10
-1.85364e-12
-1.6129e-09
1.8529e-12
-8.01388e-10
-3.34793e-12
-1.61304e-09
-4.07375e-12
-9.90876e-10
-9.6957e-13
-1.44732e-09
-1.82752e-12
-1.06821e-09
1.82796e-12
-1.40742e-09
-1.06816e-09
3.92095e-12
-1.45014e-09
3.20949e-12
-9.90126e-10
-1.81287e-12
-1.60788e-09
1.81221e-12
-8.05013e-10
-3.21147e-12
-1.60802e-09
-3.92123e-12
-9.90167e-10
-9.62671e-13
-1.45028e-09
-1.79201e-12
-1.06738e-09
1.79237e-12
-1.41101e-09
-1.06733e-09
3.77239e-12
-1.45296e-09
3.07761e-12
-9.89432e-10
-1.77192e-12
-1.60303e-09
1.77133e-12
-8.08556e-10
-3.07951e-12
-1.60317e-09
-3.77265e-12
-9.89473e-10
-9.54791e-13
-1.4531e-09
-1.75546e-12
-1.06658e-09
1.75574e-12
-1.41452e-09
-1.06653e-09
3.62784e-12
-1.45564e-09
2.95026e-12
-9.88754e-10
-1.73081e-12
-1.59835e-09
1.7303e-12
-8.12017e-10
-2.95208e-12
-1.59849e-09
-3.62809e-12
-9.88797e-10
-9.46051e-13
-1.45578e-09
-1.71796e-12
-1.06581e-09
1.71817e-12
-1.41795e-09
-1.06576e-09
3.48738e-12
-1.45819e-09
2.82743e-12
-9.88094e-10
-1.68958e-12
-1.59383e-09
1.68914e-12
-8.15396e-10
-2.82917e-12
-1.59397e-09
-3.48762e-12
-9.88139e-10
-9.36557e-13
-1.45833e-09
-1.67959e-12
-1.06507e-09
1.67973e-12
-1.42131e-09
-1.06502e-09
3.35106e-12
-1.46061e-09
2.70911e-12
-9.87452e-10
-1.64827e-12
-1.58947e-09
1.64789e-12
-8.18692e-10
-2.71078e-12
-1.58961e-09
-3.35129e-12
-9.87499e-10
-9.26418e-13
-1.46075e-09
-1.64045e-12
-1.06435e-09
1.64051e-12
-1.42459e-09
-1.06431e-09
3.21892e-12
-1.46292e-09
2.59527e-12
-9.86829e-10
-1.6069e-12
-1.58527e-09
1.6066e-12
-8.21905e-10
-2.59687e-12
-1.58541e-09
-3.21913e-12
-9.86876e-10
-9.15735e-13
-1.46306e-09
-1.60061e-12
-1.06367e-09
1.60061e-12
-1.4278e-09
-1.06362e-09
3.09098e-12
-1.4651e-09
2.48589e-12
-9.86223e-10
-1.56554e-12
-1.58122e-09
1.5653e-12
-8.25036e-10
-2.48742e-12
-1.58135e-09
-3.09118e-12
-9.86273e-10
-9.04608e-13
-1.46524e-09
-1.56021e-12
-1.06301e-09
1.56015e-12
-1.43092e-09
-1.06297e-09
2.96727e-12
-1.46718e-09
2.38092e-12
-9.85637e-10
-1.52421e-12
-1.57732e-09
1.52404e-12
-8.28085e-10
-2.38238e-12
-1.57745e-09
-2.96746e-12
-9.85687e-10
-8.93136e-13
-1.46732e-09
-1.51938e-12
-1.06239e-09
1.51926e-12
-1.43396e-09
-1.06234e-09
2.84779e-12
-1.46914e-09
2.28031e-12
-9.8507e-10
-1.48297e-12
-1.57355e-09
1.48286e-12
-8.3105e-10
-2.28172e-12
-1.57368e-09
-2.84797e-12
-9.85121e-10
-8.81412e-13
-1.46929e-09
-1.47825e-12
-1.06179e-09
1.47809e-12
-1.43691e-09
-1.06175e-09
2.73256e-12
-1.471e-09
2.18403e-12
-9.84521e-10
-1.44185e-12
-1.56993e-09
1.44181e-12
-8.33934e-10
-2.18538e-12
-1.57006e-09
-2.73273e-12
-9.84574e-10
-8.69532e-13
-1.47115e-09
-1.43696e-12
-1.06122e-09
1.43675e-12
-1.43979e-09
-1.06118e-09
2.62159e-12
-1.47277e-09
2.09203e-12
-9.83992e-10
-1.40091e-12
-1.56643e-09
1.40092e-12
-8.36736e-10
-2.09332e-12
-1.56656e-09
-2.62175e-12
-9.84045e-10
-8.57586e-13
-1.47291e-09
-1.39562e-12
-1.06068e-09
1.39536e-12
-1.44258e-09
-1.06064e-09
2.51488e-12
-1.47444e-09
2.00427e-12
-9.83481e-10
-1.36018e-12
-1.56307e-09
1.36025e-12
-8.39456e-10
-2.0055e-12
-1.5632e-09
-2.51503e-12
-9.83536e-10
-8.45662e-13
-1.47458e-09
-1.35435e-12
-1.06018e-09
1.35406e-12
-1.44528e-09
-1.06013e-09
2.41244e-12
-1.47602e-09
1.92069e-12
-9.82989e-10
-1.31972e-12
-1.55983e-09
1.31985e-12
-8.42096e-10
-1.92188e-12
-1.55995e-09
-2.41259e-12
-9.83045e-10
-8.33847e-13
-1.47616e-09
-1.31328e-12
-1.0597e-09
1.31295e-12
-1.44791e-09
-1.05966e-09
2.31428e-12
-1.47751e-09
1.84127e-12
-9.82516e-10
-1.27957e-12
-1.55671e-09
1.27975e-12
-8.44655e-10
-1.84241e-12
-1.55683e-09
-2.31442e-12
-9.82573e-10
-8.22226e-13
-1.47765e-09
-1.27253e-12
-1.05925e-09
1.27216e-12
-1.45046e-09
-1.05921e-09
2.2204e-12
-1.47892e-09
1.76599e-12
-9.82062e-10
-1.23978e-12
-1.5537e-09
1.24e-12
-8.47135e-10
-1.76708e-12
-1.55383e-09
-2.22053e-12
-9.8212e-10
-8.10883e-13
-1.47906e-09
-1.23221e-12
-1.05882e-09
1.23182e-12
-1.45292e-09
-1.05878e-09
2.13083e-12
-1.48025e-09
1.69483e-12
-9.81626e-10
-1.20039e-12
-1.55081e-09
1.20066e-12
-8.49536e-10
-1.69587e-12
-1.55093e-09
-2.13096e-12
-9.81685e-10
-7.99902e-13
-1.48039e-09
-1.19245e-12
-1.05843e-09
1.19203e-12
-1.4553e-09
-1.05839e-09
2.04558e-12
-1.48151e-09
1.62778e-12
-9.81208e-10
-1.16144e-12
-1.54802e-09
1.16175e-12
-8.51859e-10
-1.62877e-12
-1.54814e-09
-2.04571e-12
-9.81268e-10
-7.89366e-13
-1.48165e-09
-1.15338e-12
-1.05807e-09
1.15293e-12
-1.45761e-09
-1.05803e-09
1.96469e-12
-1.48269e-09
1.56486e-12
-9.80808e-10
-1.12299e-12
-1.54533e-09
1.12334e-12
-8.54106e-10
-1.56581e-12
-1.54545e-09
-1.96483e-12
-9.80869e-10
-7.79358e-13
-1.48284e-09
-1.11513e-12
-1.05773e-09
1.11466e-12
-1.45984e-09
-1.05769e-09
1.8882e-12
-1.48381e-09
1.5061e-12
-9.80426e-10
-1.08507e-12
-1.54274e-09
1.08545e-12
-8.56276e-10
-1.50701e-12
-1.54286e-09
-1.88834e-12
-9.80487e-10
-7.6996e-13
-1.48395e-09
-1.07782e-12
-1.05742e-09
1.07733e-12
-1.462e-09
-1.05739e-09
1.81615e-12
-1.48486e-09
1.45156e-12
-9.80062e-10
-1.04772e-12
-1.54024e-09
1.04814e-12
-8.58372e-10
-1.45243e-12
-1.54036e-09
-1.8163e-12
-9.80124e-10
-7.61256e-13
-1.48501e-09
-1.0416e-12
-1.05714e-09
1.0411e-12
-1.46408e-09
-1.05711e-09
1.7486e-12
-1.48586e-09
1.4013e-12
-9.79714e-10
-1.011e-12
-1.53783e-09
1.01144e-12
-8.60395e-10
-1.40214e-12
-1.53794e-09
-1.74875e-12
-9.79777e-10
-7.53325e-13
-1.486e-09
-1.00662e-12
-1.05689e-09
1.0061e-12
-1.46609e-09
-1.05685e-09
1.68562e-12
-1.4868e-09
1.35543e-12
-9.79384e-10
-9.74952e-13
-1.5355e-09
9.75404e-13
-8.62345e-10
-1.35623e-12
-1.53561e-09
-1.68577e-12
-9.79447e-10
-7.46245e-13
-1.48694e-09
-9.73011e-13
-1.05666e-09
9.72482e-13
-1.46804e-09
-1.05663e-09
1.62726e-12
-1.48769e-09
1.31404e-12
-9.79071e-10
-9.39625e-13
-1.53324e-09
9.40089e-13
-8.64225e-10
-1.31482e-12
-1.53336e-09
-1.62743e-12
-9.79135e-10
-7.40087e-13
-1.48783e-09
-9.40942e-13
-1.05646e-09
9.40407e-13
-1.46992e-09
-1.05642e-09
1.5736e-12
-1.48853e-09
1.27728e-12
-9.78775e-10
-9.0509e-13
-1.53106e-09
9.05559e-13
-8.66035e-10
-1.27802e-12
-1.53117e-09
-1.57378e-12
-9.78839e-10
-7.34913e-13
-1.48867e-09
-9.1057e-13
-1.05629e-09
9.10035e-13
-1.47174e-09
-1.05625e-09
1.5247e-12
-1.48932e-09
1.24525e-12
-9.78495e-10
-8.71433e-13
-1.52894e-09
8.719e-13
-8.67779e-10
-1.24597e-12
-1.52905e-09
-1.52489e-12
-9.7856e-10
-7.30772e-13
-1.48946e-09
-8.82061e-13
-1.05614e-09
8.81531e-13
-1.4735e-09
-1.0561e-09
1.48061e-12
-1.49008e-09
1.21807e-12
-9.78233e-10
-8.38776e-13
-1.52689e-09
8.39232e-13
-8.69457e-10
-1.21876e-12
-1.527e-09
-1.48082e-12
-9.78298e-10
-7.27694e-13
-1.49022e-09
-8.55582e-13
-1.05601e-09
8.55063e-13
-1.47521e-09
-1.05597e-09
1.44135e-12
-1.49079e-09
1.19579e-12
-9.77987e-10
-8.07286e-13
-1.52488e-09
8.07718e-13
-8.71072e-10
-1.19646e-12
-1.52499e-09
-1.44158e-12
-9.78053e-10
-7.25684e-13
-1.49093e-09
-8.31297e-13
-1.0559e-09
8.30798e-13
-1.47687e-09
-1.05586e-09
1.40691e-12
-1.49147e-09
1.17841e-12
-9.77759e-10
-7.77194e-13
-1.52293e-09
7.77586e-13
-8.72626e-10
-1.17907e-12
-1.52304e-09
-1.40716e-12
-9.77825e-10
-7.24712e-13
-1.49162e-09
-8.09362e-13
-1.05582e-09
8.08893e-13
-1.47849e-09
-1.05578e-09
1.37722e-12
-1.49213e-09
1.16579e-12
-9.77547e-10
-7.48819e-13
-1.52101e-09
7.49146e-13
-8.74124e-10
-1.16645e-12
-1.52112e-09
-1.37749e-12
-9.77614e-10
-7.24715e-13
-1.49227e-09
-7.89916e-13
-1.05575e-09
7.89494e-13
-1.48007e-09
-1.05571e-09
1.35214e-12
-1.49275e-09
1.15767e-12
-9.77353e-10
-7.22575e-13
-1.51913e-09
7.22808e-13
-8.7557e-10
-1.15835e-12
-1.51924e-09
-1.35244e-12
-9.7742e-10
-7.25592e-13
-1.4929e-09
-7.73071e-13
-1.05571e-09
7.72717e-13
-1.48162e-09
-1.05567e-09
1.33148e-12
-1.49336e-09
1.1536e-12
-9.77175e-10
-6.98988e-13
-1.51728e-09
6.99088e-13
-8.76968e-10
-1.15431e-12
-1.51739e-09
-1.33181e-12
-9.77242e-10
-7.27213e-13
-1.4935e-09
-7.58908e-13
-1.05567e-09
7.58645e-13
-1.48314e-09
-1.05563e-09
1.315e-12
-1.49394e-09
1.15295e-12
-9.77013e-10
-6.78666e-13
-1.51545e-09
6.78597e-13
-8.78325e-10
-1.15372e-12
-1.51555e-09
-1.31536e-12
-9.77081e-10
-7.29441e-13
-1.49409e-09
-7.47461e-13
-1.05566e-09
7.47312e-13
-1.48463e-09
-1.05562e-09
1.3025e-12
-1.49451e-09
1.15494e-12
-9.76865e-10
-6.62247e-13
-1.51363e-09
6.61983e-13
-8.79649e-10
-1.15578e-12
-1.51374e-09
-1.30288e-12
-9.76934e-10
-7.32194e-13
-1.49466e-09
-7.3871e-13
-1.05565e-09
7.38689e-13
-1.48611e-09
-1.05561e-09
1.29394e-12
-1.49507e-09
1.15878e-12
-9.7673e-10
-6.50401e-13
-1.51182e-09
6.49943e-13
-8.8095e-10
-1.15969e-12
-1.51193e-09
-1.29433e-12
-9.76799e-10
-7.35526e-13
-1.49522e-09
-7.3264e-13
-1.05565e-09
7.32744e-13
-1.48757e-09
-1.05561e-09
1.28976e-12
-1.49562e-09
1.16421e-12
-9.76605e-10
-6.44156e-13
-1.51001e-09
6.43542e-13
-8.82237e-10
-1.1652e-12
-1.51012e-09
-1.29015e-12
-9.76674e-10
-7.39671e-13
-1.49577e-09
-7.29489e-13
-1.05566e-09
7.29695e-13
-1.48903e-09
-1.05562e-09
1.27324e-12
1.1906e-12
-6.56893e-13
6.56183e-13
-1.19166e-12
-1.27361e-12
-7.57128e-13
-7.19447e-13
7.19707e-13
)
;

boundaryField
{
    BotWall
    {
        type            calculated;
        value           nonuniform List<scalar> 10(7.51013e-10 2.97561e-12 2.72678e-10 1.35831e-15 2.72676e-10 2.977e-12 7.51021e-10 2.18842e-10 2.58826e-12 2.18842e-10);
    }
    FreeStream
    {
        type            calculated;
        value           nonuniform List<scalar> 10(-1.49614e-09 -9.76522e-10 -1.50817e-09 -8.83551e-10 -1.50827e-09 -9.76592e-10 -1.49628e-09 -1.0557e-09 -1.49047e-09 -1.05566e-09);
    }
    FrontNBack
    {
        type            empty;
        value           nonuniform 0();
    }
    LeftSide
    {
        type            cyclic;
        value           nonuniform List<scalar> 
100
(
5.00052e-11
1.4699e-12
-7.98276e-12
-5.99557e-12
-4.6039e-12
-3.44519e-12
-2.4724e-12
-1.67135e-12
-1.01763e-12
-4.8684e-13
-6.69808e-14
2.92835e-13
5.74349e-13
7.93574e-13
9.60622e-13
1.08298e-12
1.16668e-12
1.21672e-12
1.23728e-12
1.23249e-12
1.20623e-12
1.16197e-12
1.10281e-12
1.03153e-12
9.50613e-13
8.62261e-13
7.68405e-13
6.7073e-13
5.70687e-13
4.69509e-13
3.68207e-13
2.6755e-13
1.67932e-13
6.85929e-14
-2.89742e-14
-1.09171e-13
-1.90107e-13
-2.68201e-13
-3.42581e-13
-4.12846e-13
-4.78786e-13
-5.4029e-13
-5.9732e-13
-6.49886e-13
-6.98041e-13
-7.41868e-13
-7.81476e-13
-8.16995e-13
-8.48574e-13
-8.76373e-13
-9.00564e-13
-9.21324e-13
-9.3884e-13
-9.53299e-13
-9.64891e-13
-9.73807e-13
-9.80236e-13
-9.84367e-13
-9.86384e-13
-9.8647e-13
-9.84804e-13
-9.8156e-13
-9.76911e-13
-9.71017e-13
-9.64009e-13
-9.56017e-13
-9.4716e-13
-9.37549e-13
-9.27292e-13
-9.16494e-13
-9.05255e-13
-8.93674e-13
-8.81848e-13
-8.6987e-13
-8.57832e-13
-8.45821e-13
-8.33923e-13
-8.22225e-13
-8.10809e-13
-7.9976e-13
-7.8916e-13
-7.79093e-13
-7.69642e-13
-7.60888e-13
-7.52913e-13
-7.45794e-13
-7.39601e-13
-7.34399e-13
-7.30236e-13
-7.27145e-13
-7.25131e-13
-7.24171e-13
-7.24207e-13
-7.25143e-13
-7.26854e-13
-7.29202e-13
-7.32093e-13
-7.35562e-13
-7.39815e-13
-7.57327e-13
)
;
    }
    RightSide
    {
        type            cyclic;
        value           nonuniform List<scalar> 
100
(
-5.00052e-11
-1.4699e-12
7.98276e-12
5.99557e-12
4.6039e-12
3.44519e-12
2.4724e-12
1.67135e-12
1.01763e-12
4.8684e-13
6.69808e-14
-2.92835e-13
-5.74349e-13
-7.93574e-13
-9.60622e-13
-1.08298e-12
-1.16668e-12
-1.21672e-12
-1.23728e-12
-1.23249e-12
-1.20623e-12
-1.16197e-12
-1.10281e-12
-1.03153e-12
-9.50613e-13
-8.62261e-13
-7.68405e-13
-6.7073e-13
-5.70687e-13
-4.69509e-13
-3.68207e-13
-2.6755e-13
-1.67932e-13
-6.85929e-14
2.89742e-14
1.09171e-13
1.90107e-13
2.68201e-13
3.42581e-13
4.12846e-13
4.78786e-13
5.4029e-13
5.9732e-13
6.49886e-13
6.98041e-13
7.41868e-13
7.81476e-13
8.16995e-13
8.48574e-13
8.76373e-13
9.00564e-13
9.21324e-13
9.3884e-13
9.53299e-13
9.64891e-13
9.73807e-13
9.80236e-13
9.84367e-13
9.86384e-13
9.8647e-13
9.84804e-13
9.8156e-13
9.76911e-13
9.71017e-13
9.64009e-13
9.56017e-13
9.4716e-13
9.37549e-13
9.27292e-13
9.16494e-13
9.05255e-13
8.93674e-13
8.81848e-13
8.6987e-13
8.57832e-13
8.45821e-13
8.33923e-13
8.22225e-13
8.10809e-13
7.9976e-13
7.8916e-13
7.79093e-13
7.69642e-13
7.60888e-13
7.52913e-13
7.45794e-13
7.39601e-13
7.34399e-13
7.30236e-13
7.27145e-13
7.25131e-13
7.24171e-13
7.24207e-13
7.25143e-13
7.26854e-13
7.29202e-13
7.32093e-13
7.35562e-13
7.39815e-13
7.57327e-13
)
;
    }
}


// ************************************************************************* //
