/*--------------------------------*- C++ -*----------------------------------*\
| =========                 |                                                 |
| \\      /  F ield         | OpenFOAM: The Open Source CFD Toolbox           |
|  \\    /   O peration     | Version:  2.4.0                                 |
|   \\  /    A nd           | Web:      www.OpenFOAM.org                      |
|    \\/     M anipulation  |                                                 |
\*---------------------------------------------------------------------------*/
FoamFile
{
    version     2.0;
    format      ascii;
    class       volScalarField;
    location    "0.1";
    object      T;
}
// * * * * * * * * * * * * * * * * * * * * * * * * * * * * * * * * * * * * * //

dimensions      [0 0 0 1 0 0 0];

internalField   nonuniform List<scalar> 
1000
(
296.928
294.827
297.034
294.301
297.034
294.827
296.928
297.434
294.603
297.434
296.968
294.924
296.909
294.36
296.909
294.923
296.968
297.442
297.284
297.442
297.012
295.192
296.951
294.488
296.951
295.191
297.012
297.474
297.305
297.474
297.059
295.432
296.995
294.666
296.995
295.431
297.059
297.505
297.364
297.505
297.108
295.649
297.041
294.838
297.041
295.648
297.107
297.535
297.419
297.535
297.156
295.845
297.088
295.007
297.088
295.844
297.156
297.563
297.469
297.563
297.205
296.023
297.136
295.171
297.136
296.021
297.204
297.59
297.514
297.59
297.252
296.184
297.184
295.332
297.184
296.183
297.252
297.615
297.556
297.615
297.299
296.331
297.233
295.488
297.233
296.33
297.299
297.639
297.595
297.639
297.344
296.465
297.28
295.641
297.28
296.464
297.344
297.662
297.629
297.662
297.388
296.588
297.327
295.789
297.327
296.587
297.388
297.683
297.661
297.684
297.429
296.701
297.372
295.932
297.372
296.7
297.429
297.704
297.69
297.704
297.469
296.804
297.415
296.069
297.415
296.804
297.469
297.723
297.717
297.723
297.507
296.9
297.457
296.201
297.457
296.899
297.507
297.741
297.741
297.741
297.544
296.988
297.496
296.327
297.496
296.987
297.543
297.759
297.763
297.759
297.578
297.069
297.534
296.447
297.534
297.069
297.577
297.775
297.783
297.775
297.61
297.144
297.569
296.561
297.569
297.144
297.609
297.79
297.802
297.79
297.64
297.214
297.602
296.668
297.602
297.214
297.64
297.805
297.819
297.805
297.668
297.279
297.632
296.769
297.632
297.278
297.668
297.818
297.834
297.818
297.694
297.338
297.661
296.863
297.661
297.338
297.694
297.831
297.848
297.831
297.719
297.394
297.687
296.951
297.687
297.394
297.718
297.843
297.861
297.843
297.741
297.445
297.712
297.034
297.712
297.445
297.741
297.854
297.873
297.854
297.763
297.492
297.735
297.111
297.735
297.492
297.763
297.865
297.884
297.865
297.782
297.536
297.756
297.182
297.756
297.536
297.782
297.875
297.894
297.875
297.801
297.576
297.775
297.249
297.775
297.576
297.801
297.884
297.903
297.884
297.818
297.614
297.793
297.31
297.793
297.614
297.818
297.893
297.911
297.893
297.833
297.648
297.81
297.367
297.81
297.648
297.833
297.901
297.919
297.901
297.848
297.679
297.826
297.419
297.826
297.679
297.848
297.908
297.926
297.908
297.861
297.708
297.84
297.468
297.84
297.708
297.861
297.916
297.932
297.916
297.874
297.735
297.853
297.513
297.853
297.735
297.874
297.922
297.938
297.922
297.885
297.759
297.865
297.554
297.865
297.759
297.885
297.928
297.944
297.928
297.896
297.781
297.876
297.593
297.876
297.781
297.896
297.934
297.949
297.934
297.905
297.802
297.887
297.628
297.887
297.802
297.905
297.939
297.953
297.939
297.914
297.82
297.896
297.66
297.896
297.82
297.914
297.944
297.957
297.944
297.922
297.837
297.905
297.69
297.905
297.837
297.922
297.949
297.961
297.949
297.93
297.853
297.913
297.717
297.913
297.853
297.93
297.953
297.965
297.953
297.936
297.867
297.921
297.742
297.921
297.867
297.936
297.957
297.968
297.957
297.943
297.88
297.928
297.766
297.928
297.88
297.943
297.961
297.971
297.961
297.948
297.892
297.934
297.787
297.934
297.892
297.948
297.964
297.973
297.964
297.953
297.902
297.94
297.806
297.94
297.902
297.953
297.967
297.976
297.967
297.958
297.912
297.945
297.824
297.945
297.912
297.958
297.97
297.978
297.97
297.962
297.921
297.95
297.84
297.95
297.921
297.962
297.972
297.98
297.972
297.966
297.929
297.955
297.855
297.955
297.928
297.966
297.975
297.982
297.975
297.969
297.936
297.959
297.869
297.959
297.936
297.969
297.977
297.984
297.977
297.973
297.942
297.963
297.881
297.963
297.942
297.973
297.979
297.985
297.979
297.975
297.948
297.966
297.893
297.966
297.948
297.975
297.981
297.987
297.981
297.978
297.953
297.969
297.903
297.969
297.953
297.978
297.983
297.988
297.983
297.98
297.958
297.972
297.913
297.972
297.958
297.98
297.984
297.989
297.984
297.982
297.963
297.975
297.921
297.975
297.963
297.982
297.986
297.99
297.986
297.984
297.966
297.977
297.929
297.977
297.966
297.984
297.987
297.991
297.987
297.986
297.97
297.98
297.936
297.98
297.97
297.986
297.988
297.992
297.988
297.987
297.973
297.982
297.943
297.982
297.973
297.987
297.989
297.993
297.989
297.989
297.976
297.983
297.949
297.983
297.976
297.989
297.991
297.993
297.991
297.99
297.979
297.985
297.954
297.985
297.979
297.99
297.991
297.994
297.991
297.991
297.981
297.987
297.959
297.987
297.981
297.991
297.992
297.995
297.992
297.992
297.983
297.988
297.963
297.988
297.983
297.992
297.993
297.995
297.993
297.993
297.985
297.989
297.967
297.989
297.985
297.993
297.994
297.996
297.994
297.994
297.987
297.99
297.97
297.99
297.987
297.994
297.994
297.996
297.994
297.995
297.988
297.991
297.974
297.991
297.988
297.995
297.995
297.997
297.995
297.995
297.989
297.992
297.976
297.992
297.989
297.995
297.995
297.997
297.995
297.996
297.991
297.993
297.979
297.993
297.991
297.996
297.996
297.997
297.996
297.996
297.992
297.994
297.981
297.994
297.992
297.996
297.996
297.998
297.996
297.997
297.993
297.995
297.983
297.995
297.993
297.997
297.997
297.998
297.997
297.997
297.993
297.995
297.985
297.995
297.993
297.997
297.997
297.998
297.997
297.997
297.994
297.996
297.987
297.996
297.994
297.997
297.997
297.998
297.997
297.998
297.995
297.996
297.988
297.996
297.995
297.998
297.998
297.998
297.998
297.998
297.995
297.997
297.99
297.997
297.995
297.998
297.998
297.999
297.998
297.998
297.996
297.997
297.991
297.997
297.996
297.998
297.998
297.999
297.998
297.998
297.997
297.997
297.992
297.997
297.997
297.998
297.998
297.999
297.998
297.999
297.997
297.998
297.993
297.998
297.997
297.999
297.999
297.999
297.999
297.999
297.997
297.998
297.994
297.998
297.997
297.999
297.999
297.999
297.999
297.999
297.998
297.998
297.995
297.998
297.998
297.999
297.999
297.999
297.999
297.999
297.998
297.998
297.995
297.998
297.998
297.999
297.999
297.999
297.999
297.999
297.998
297.999
297.996
297.999
297.998
297.999
297.999
297.999
297.999
297.999
297.998
297.999
297.996
297.999
297.998
297.999
297.999
297.999
297.999
297.999
297.999
297.999
297.997
297.999
297.999
297.999
297.999
298
297.999
297.999
297.999
297.999
297.997
297.999
297.999
297.999
297.999
298
297.999
298
297.999
297.999
297.998
297.999
297.999
298
297.999
298
297.999
298
297.999
297.999
297.998
297.999
297.999
298
298
298
298
298
297.999
297.999
297.998
297.999
297.999
298
298
298
298
298
297.999
297.999
297.998
297.999
297.999
298
298
298
298
298
297.999
298
297.999
298
297.999
298
298
298
298
298
297.999
298
297.999
298
297.999
298
298
298
298
298
298
298
297.999
298
298
298
298
298
298
298
298
298
297.999
298
298
298
298
298
298
298
298
298
297.999
298
298
298
298
298
298
298
298
298
297.999
298
298
298
298
298
298
298
298
298
297.999
298
298
298
298
298
298
298
298
298
298
298
298
298
298
298
298
298
298
298
298
298
298
298
298
298
298
298
298
298
298
298
298
298
298
298
298
298
298
298
298
298
298
298
298
298
298
298
298
298
298
298
298
298
298
298
298
298
298
298
298
298
298
298
298
298
298
298
298
298
298
298
298
298
298
298
298
298
298
298
298
298
298
298
298
298
298
298
298
298
298
298
298
298
298
298
298
298
298
298
298
298
298
298
298
298
298
298
298
298
298
298
298
298
298
298
298
298
298
298
298
298
298
298
298
298
298
)
;

boundaryField
{
    BotWall
    {
        type            fixedValue;
        value           uniform 293;
    }
    FreeStream
    {
        type            fixedValue;
        value           uniform 298;
    }
    FrontNBack
    {
        type            empty;
    }
    LeftSide
    {
        type            cyclic;
    }
    RightSide
    {
        type            cyclic;
    }
}


// ************************************************************************* //
