/*--------------------------------*- C++ -*----------------------------------*\
| =========                 |                                                 |
| \\      /  F ield         | OpenFOAM: The Open Source CFD Toolbox           |
|  \\    /   O peration     | Version:  2.4.0                                 |
|   \\  /    A nd           | Web:      www.OpenFOAM.org                      |
|    \\/     M anipulation  |                                                 |
\*---------------------------------------------------------------------------*/
FoamFile
{
    version     2.0;
    format      ascii;
    class       volVectorField;
    location    "0.1";
    object      U;
}
// * * * * * * * * * * * * * * * * * * * * * * * * * * * * * * * * * * * * * //

dimensions      [0 1 -1 0 0 0 0];

internalField   nonuniform List<vector> 
1000
(
(0.00277099 -0.0157986 0)
(-0.028796 -0.00376358 0)
(0.0575769 -0.0106151 0)
(-1.87571e-06 6.3076e-05 0)
(-0.057575 -0.0106148 0)
(0.0287977 -0.00376356 0)
(-0.00277236 -0.0157989 0)
(0.0424406 -0.00806641 0)
(1.85917e-08 0.000834208 0)
(-0.0424406 -0.0080664 0)
(0.00341996 -0.0174943 0)
(-0.0285979 -0.0116957 0)
(-0.0135717 -0.0199038 0)
(-2.63818e-06 0.000121544 0)
(0.0135761 -0.0199041 0)
(0.0285999 -0.0116955 0)
(-0.00342422 -0.0174945 0)
(-0.00250349 -0.0132326 0)
(4.40044e-08 -0.00175423 0)
(0.00250339 -0.0132325 0)
(0.00223031 -0.015169 0)
(-0.0248162 -0.0177717 0)
(-0.0110991 -0.0190496 0)
(-3.61431e-06 -0.00108069 0)
(0.0111041 -0.01905 0)
(0.0248211 -0.0177712 0)
(-0.00223697 -0.0151692 0)
(-0.00209329 -0.0127267 0)
(4.47912e-08 -0.0111792 0)
(0.00209296 -0.0127265 0)
(0.00139676 -0.0138262 0)
(-0.0214936 -0.0124929 0)
(-0.00989341 -0.0183053 0)
(-5.40817e-06 -0.00170056 0)
(0.00989806 -0.0183059 0)
(0.0215004 -0.0124923 0)
(-0.00140491 -0.0138262 0)
(-0.00204184 -0.0118391 0)
(7.56752e-08 -0.0170987 0)
(0.00204122 -0.0118388 0)
(0.00075701 -0.0133654 0)
(-0.0185512 -0.0115492 0)
(-0.00920672 -0.0184163 0)
(-6.21176e-06 -0.00181579 0)
(0.00921062 -0.0184173 0)
(0.0185588 -0.0115484 0)
(-0.00076578 -0.0133652 0)
(-0.00186739 -0.011661 0)
(1.26788e-07 -0.0121558 0)
(0.00186653 -0.0116606 0)
(0.000253943 -0.0130998 0)
(-0.0159285 -0.0114699 0)
(-0.00874135 -0.0187685 0)
(-6.18061e-06 -0.00208184 0)
(0.0087443 -0.0187698 0)
(0.0159364 -0.0114688 0)
(-0.000262598 -0.0130996 0)
(-0.00168978 -0.0117008 0)
(2.02233e-07 -0.0114882 0)
(0.00168878 -0.0117002 0)
(-0.000145753 -0.0128384 0)
(-0.0135767 -0.0114615 0)
(-0.00835059 -0.0190699 0)
(-5.52389e-06 -0.00239403 0)
(0.00835257 -0.0190716 0)
(0.0135842 -0.0114602 0)
(0.000137797 -0.012838 0)
(-0.00153266 -0.011734 0)
(2.90943e-07 -0.0116428 0)
(0.00153163 -0.0117332 0)
(-0.000462217 -0.0125879 0)
(-0.0114566 -0.0113546 0)
(-0.00797086 -0.0192994 0)
(-4.4845e-06 -0.00270198 0)
(0.00797194 -0.0193015 0)
(0.0114633 -0.0113531 0)
(0.000455368 -0.0125874 0)
(-0.00139942 -0.0117348 0)
(3.83194e-07 -0.0118387 0)
(0.00139847 -0.0117339 0)
(-0.000711665 -0.0123696 0)
(-0.00953798 -0.0112216 0)
(-0.0075759 -0.019484 0)
(-3.28769e-06 -0.00299285 0)
(0.0075762 -0.0194863 0)
(0.00954373 -0.0112199 0)
(0.000706159 -0.0123689 0)
(-0.00128562 -0.0117218 0)
(4.7037e-07 -0.0119196 0)
(0.00128486 -0.0117208 0)
(-0.00090731 -0.0121868 0)
(-0.00779752 -0.0110985 0)
(-0.00715909 -0.0196368 0)
(-2.11226e-06 -0.00326836 0)
(0.00715873 -0.0196393 0)
(0.00780225 -0.0110967 0)
(0.000903228 -0.0121861 0)
(-0.00118824 -0.0117048 0)
(5.46196e-07 -0.0119608 0)
(0.00118773 -0.0117037 0)
(-0.00105962 -0.0120362 0)
(-0.00621736 -0.0109897 0)
(-0.00672402 -0.0197613 0)
(-1.07781e-06 -0.0035297 0)
(0.00672312 -0.019764 0)
(0.00622109 -0.0109878 0)
(0.00105692 -0.0120354 0)
(-0.00110537 -0.0116855 0)
(6.07052e-07 -0.0119989 0)
(0.00110516 -0.0116843 0)
(-0.00117679 -0.0119141 0)
(-0.00478357 -0.0108921 0)
(-0.00627898 -0.0198591 0)
(-2.46148e-07 -0.00377654 0)
(0.00627764 -0.0198619 0)
(0.00478637 -0.0108902 0)
(0.00117534 -0.0119133 0)
(-0.00103547 -0.0116639 0)
(6.51783e-07 -0.0120385 0)
(0.00103556 -0.0116627 0)
(-0.00126524 -0.0118181 0)
(-0.00348503 -0.0108041 0)
(-0.00583371 -0.019932 0)
(3.68106e-07 -0.00400835 0)
(0.00583201 -0.0199349 0)
(0.00348702 -0.0108022 0)
(0.00126484 -0.0118172 0)
(-0.000977106 -0.0116402 0)
(6.81283e-07 -0.0120773 0)
(0.000977474 -0.0116389 0)
(-0.00133006 -0.0117457 0)
(-0.00231257 -0.0107251 0)
(-0.00539748 -0.0199822 0)
(7.82815e-07 -0.004225 0)
(0.0053955 -0.019985 0)
(0.00231387 -0.0107232 0)
(0.0013305 -0.0117448 0)
(-0.00092894 -0.0116148 0)
(6.97666e-07 -0.0121143 0)
(0.000929548 -0.0116135 0)
(-0.00137529 -0.0116947 0)
(-0.00125828 -0.0106546 0)
(-0.00497814 -0.0200115 0)
(1.03364e-06 -0.00442675 0)
(0.00497594 -0.0200144 0)
(0.00125901 -0.0106528 0)
(0.00137638 -0.0116939 0)
(-0.000889778 -0.0115881 0)
(7.03675e-07 -0.0121498 0)
(0.000890578 -0.0115868 0)
(-0.00140418 -0.0116633 0)
(-0.000315041 -0.0105921 0)
(-0.00458169 -0.0200221 0)
(1.16201e-06 -0.00461418 0)
(0.00457932 -0.020025 0)
(0.000315298 -0.0105903 0)
(0.00140572 -0.0116625 0)
(-0.000858557 -0.0115606 0)
(7.02152e-07 -0.0121842 0)
(0.000859498 -0.0115593 0)
(-0.00141932 -0.0116493 0)
(0.000523832 -0.0105369 0)
(-0.00421218 -0.0200156 0)
(1.20689e-06 -0.00478804 0)
(0.0042097 -0.0200185 0)
(-0.000523949 -0.0105352 0)
(0.00142116 -0.0116486 0)
(-0.000834325 -0.0115324 0)
(6.95669e-07 -0.0122177 0)
(0.00083536 -0.0115312 0)
(-0.00142281 -0.0116511 0)
(0.00126476 -0.0104884 0)
(-0.00387189 -0.0199939 0)
(1.20029e-06 -0.00494926 0)
(0.00386933 -0.0199966 0)
(-0.00126517 -0.0104867 0)
(0.00142483 -0.0116503 0)
(-0.000816225 -0.0115039 0)
(6.8632e-07 -0.0122507 0)
(0.000817313 -0.0115027 0)
(-0.00141636 -0.0116667 0)
(0.00191403 -0.0104457 0)
(-0.00356154 -0.0199585 0)
(1.16582e-06 -0.00509881 0)
(0.00355894 -0.0199612 0)
(-0.00191467 -0.0104441 0)
(0.00141846 -0.011666 0)
(-0.000803477 -0.0114752 0)
(6.75657e-07 -0.0122832 0)
(0.000804586 -0.011474 0)
(-0.00140165 -0.0116945 0)
(0.00247812 -0.0104082 0)
(-0.00328066 -0.0199111 0)
(1.11918e-06 -0.0052377 0)
(0.00327803 -0.0199138 0)
(-0.00247894 -0.0104066 0)
(0.00140379 -0.0116939 0)
(-0.000795367 -0.0114466 0)
(6.64721e-07 -0.0123156 0)
(0.000796473 -0.0114454 0)
(-0.00138025 -0.0117331 0)
(0.00296352 -0.0103748 0)
(-0.00302788 -0.0198536 0)
(1.06962e-06 -0.00536692 0)
(0.00302524 -0.0198563 0)
(-0.00296448 -0.0103733 0)
(0.00138237 -0.0117325 0)
(-0.000791245 -0.0114181 0)
(6.54124e-07 -0.012348 0)
(0.000792332 -0.0114169 0)
(-0.0013535 -0.0117809 0)
(0.0033766 -0.0103455 0)
(-0.00280126 -0.0197867 0)
(1.0217e-06 -0.00548742 0)
(0.00279862 -0.0197893 0)
(-0.00337766 -0.0103441 0)
(0.00135558 -0.0117804 0)
(-0.000790512 -0.0113899 0)
(6.44153e-07 -0.0123805 0)
(0.000791568 -0.0113888 0)
(-0.00132257 -0.0118367 0)
(0.00372403 -0.0103201 0)
(-0.00259901 -0.0197113 0)
(9.7752e-07 -0.00560009 0)
(0.00259638 -0.0197139 0)
(-0.00372517 -0.0103188 0)
(0.0013246 -0.0118362 0)
(-0.000792617 -0.0113621 0)
(6.34872e-07 -0.0124133 0)
(0.000793637 -0.011361 0)
(-0.0012885 -0.0118992 0)
(0.00401223 -0.0102978 0)
(-0.00241909 -0.0196289 0)
(9.37396e-07 -0.00570574 0)
(0.00241649 -0.0196315 0)
(-0.00401341 -0.0102965 0)
(0.00129046 -0.0118988 0)
(-0.000797055 -0.0113348 0)
(6.2621e-07 -0.0124464 0)
(0.000798035 -0.0113338 0)
(-0.00125213 -0.0119673 0)
(0.00424721 -0.0102781 0)
(-0.00225939 -0.0195407 0)
(9.00871e-07 -0.00580516 0)
(0.00225681 -0.0195432 0)
(-0.00424842 -0.0102769 0)
(0.00125404 -0.011967 0)
(-0.000803361 -0.0113081 0)
(6.18028e-07 -0.0124799 0)
(0.000804301 -0.011307 0)
(-0.00121423 -0.0120402 0)
(0.00443461 -0.0102605 0)
(-0.00211777 -0.0194476 0)
(8.67278e-07 -0.00589903 0)
(0.00211523 -0.01945 0)
(-0.00443584 -0.0102594 0)
(0.00121607 -0.0120399 0)
(-0.00081111 -0.0112819 0)
(6.10161e-07 -0.012514 0)
(0.00081201 -0.0112809 0)
(-0.0011754 -0.0121167 0)
(0.00457965 -0.0102448 0)
(-0.00199221 -0.0193505 0)
(8.36001e-07 -0.00598797 0)
(0.00198971 -0.0193528 0)
(-0.00458089 -0.0102437 0)
(0.00117718 -0.0121165 0)
(-0.000819918 -0.0112564 0)
(6.02452e-07 -0.0125487 0)
(0.000820778 -0.0112554 0)
(-0.00113615 -0.0121962 0)
(0.00468711 -0.0102305 0)
(-0.00188082 -0.0192501 0)
(8.06566e-07 -0.00607254 0)
(0.00187836 -0.0192524 0)
(-0.00468835 -0.0102296 0)
(0.00113789 -0.0121961 0)
(-0.000829435 -0.0112315 0)
(5.94764e-07 -0.012584 0)
(0.000830256 -0.0112305 0)
(-0.00109692 -0.012278 0)
(0.00476138 -0.0102175 0)
(-0.00178189 -0.0191472 0)
(7.78655e-07 -0.00615323 0)
(0.00177946 -0.0191495 0)
(-0.00476261 -0.0102166 0)
(0.00109861 -0.0122779 0)
(-0.000839346 -0.0112073 0)
(5.86987e-07 -0.0126199 0)
(0.00084013 -0.0112063 0)
(-0.00105805 -0.0123613 0)
(0.00480645 -0.0102056 0)
(-0.00169384 -0.0190424 0)
(7.52073e-07 -0.00623048 0)
(0.00169147 -0.0190446 0)
(-0.00480765 -0.0102047 0)
(0.00105968 -0.0123613 0)
(-0.000849374 -0.0111838 0)
(5.79041e-07 -0.0126565 0)
(0.000850121 -0.0111828 0)
(-0.00101979 -0.0124457 0)
(0.00482592 -0.0101944 0)
(-0.00161531 -0.0189362 0)
(7.26708e-07 -0.00630466 0)
(0.00161298 -0.0189384 0)
(-0.0048271 -0.0101936 0)
(0.00102137 -0.0124458 0)
(-0.000859272 -0.0111609 0)
(5.70873e-07 -0.0126937 0)
(0.000859981 -0.01116 0)
(-0.000982358 -0.0125307 0)
(0.00482307 -0.0101839 0)
(-0.00154507 -0.0188292 0)
(7.025e-07 -0.00637612 0)
(0.00154278 -0.0188314 0)
(-0.00482422 -0.0101832 0)
(0.000983895 -0.0125308 0)
(-0.000868821 -0.0111387 0)
(5.62458e-07 -0.0127317 0)
(0.000869493 -0.0111378 0)
(-0.000945915 -0.0126157 0)
(0.00480082 -0.010174 0)
(-0.00148203 -0.0187218 0)
(6.79412e-07 -0.00644513 0)
(0.00147979 -0.018724 0)
(-0.00480193 -0.0101733 0)
(0.000947408 -0.0126159 0)
(-0.000877834 -0.0111172 0)
(5.53783e-07 -0.0127703 0)
(0.000878469 -0.0111163 0)
(-0.000910569 -0.0127004 0)
(0.00476181 -0.0101644 0)
(-0.00142525 -0.0186144 0)
(6.57418e-07 -0.00651197 0)
(0.00142306 -0.0186165 0)
(-0.00476289 -0.0101638 0)
(0.000912022 -0.0127006 0)
(-0.000886147 -0.0110964 0)
(5.44851e-07 -0.0128095 0)
(0.000886743 -0.0110955 0)
(-0.000876392 -0.0127844 0)
(0.00470841 -0.0101552 0)
(-0.0013739 -0.0185073 0)
(6.36492e-07 -0.00657684 0)
(0.00137176 -0.0185094 0)
(-0.00470946 -0.0101546 0)
(0.000877807 -0.0127847 0)
(-0.000893617 -0.0110763 0)
(5.35732e-07 -0.0128494 0)
(0.000894173 -0.0110754 0)
(-0.000843428 -0.0128676 0)
(0.00464272 -0.0101462 0)
(-0.00132724 -0.0184009 0)
(6.16606e-07 -0.00663995 0)
(0.00132515 -0.0184029 0)
(-0.00464373 -0.0101457 0)
(0.000844806 -0.012868 0)
(-0.000900123 -0.0110567 0)
(5.26685e-07 -0.0128898 0)
(0.000900639 -0.0110559 0)
(-0.000811713 -0.0129497 0)
(0.00456664 -0.0101374 0)
(-0.00128465 -0.0182953 0)
(5.97728e-07 -0.00670146 0)
(0.00128261 -0.0182973 0)
(-0.00456761 -0.0101369 0)
(0.000813056 -0.0129501 0)
(-0.000905582 -0.0110377 0)
(5.17641e-07 -0.0129307 0)
(0.000906058 -0.0110369 0)
(-0.000781264 -0.0130305 0)
(0.00448183 -0.0101287 0)
(-0.00124556 -0.0181909 0)
(5.79825e-07 -0.00676151 0)
(0.00124356 -0.0181929 0)
(-0.00448276 -0.0101282 0)
(0.000782571 -0.0130309 0)
(-0.000909929 -0.0110193 0)
(5.08574e-07 -0.0129722 0)
(0.000910365 -0.0110184 0)
(-0.000752079 -0.0131098 0)
(0.00438979 -0.01012 0)
(-0.00120949 -0.0180878 0)
(5.62861e-07 -0.00682022 0)
(0.00120754 -0.0180897 0)
(-0.00439069 -0.0101196 0)
(0.000753352 -0.0131103 0)
(-0.00091312 -0.0110014 0)
(4.99488e-07 -0.0130141 0)
(0.000913515 -0.0110006 0)
(-0.000724147 -0.0131874 0)
(0.00429184 -0.0101115 0)
(-0.001176 -0.0179862 0)
(5.46803e-07 -0.00687772 0)
(0.0011741 -0.0179881 0)
(-0.0042927 -0.0101111 0)
(0.000725386 -0.013188 0)
(-0.000915124 -0.010984 0)
(4.90388e-07 -0.0130564 0)
(0.00091548 -0.0109832 0)
(-0.000697442 -0.0132633 0)
(0.00418915 -0.0101029 0)
(-0.00114473 -0.0178862 0)
(5.31617e-07 -0.00693407 0)
(0.00114288 -0.0178881 0)
(-0.00418997 -0.0101026 0)
(0.000698647 -0.0132639 0)
(-0.000915928 -0.0109671 0)
(4.8128e-07 -0.013099 0)
(0.000916245 -0.0109663 0)
(-0.000671934 -0.0133373 0)
(0.00408275 -0.0100943 0)
(-0.00111535 -0.0177881 0)
(5.17272e-07 -0.00698937 0)
(0.00111355 -0.0177899 0)
(-0.00408352 -0.0100941 0)
(0.000673104 -0.0133379 0)
(-0.000915527 -0.0109507 0)
(4.72161e-07 -0.0131419 0)
(0.000915807 -0.0109499 0)
(-0.000647582 -0.0134093 0)
(0.00397354 -0.0100858 0)
(-0.00108759 -0.0176917 0)
(5.03739e-07 -0.00704367 0)
(0.00108583 -0.0176935 0)
(-0.00397428 -0.0100856 0)
(0.000648717 -0.01341 0)
(-0.000913932 -0.0109348 0)
(4.6302e-07 -0.0131851 0)
(0.000914176 -0.010934 0)
(-0.000624342 -0.0134793 0)
(0.00386234 -0.0100772 0)
(-0.00106118 -0.0175974 0)
(4.9099e-07 -0.00709703 0)
(0.00105947 -0.0175992 0)
(-0.00386304 -0.010077 0)
(0.000625443 -0.01348 0)
(-0.00091116 -0.0109194 0)
(4.53844e-07 -0.0132284 0)
(0.000911369 -0.0109186 0)
(-0.000602166 -0.0135472 0)
(0.00374984 -0.0100686 0)
(-0.00103594 -0.017505 0)
(4.78996e-07 -0.00714949 0)
(0.00103427 -0.0175068 0)
(-0.0037505 -0.0100685 0)
(0.000603232 -0.013548 0)
(-0.000907236 -0.0109043 0)
(4.44617e-07 -0.0132719 0)
(0.000907412 -0.0109036 0)
(-0.000581002 -0.0136131 0)
(0.00363664 -0.01006 0)
(-0.00101166 -0.0174148 0)
(4.67732e-07 -0.00720108 0)
(0.00101005 -0.0174165 0)
(-0.00363728 -0.0100599 0)
(0.000582033 -0.0136139 0)
(-0.000902193 -0.0108898 0)
(4.35322e-07 -0.0133155 0)
(0.000902338 -0.010889 0)
(-0.000560797 -0.0136768 0)
(0.0035233 -0.0100514 0)
(-0.000988203 -0.0173266 0)
(4.57171e-07 -0.00725185 0)
(0.000986632 -0.0173284 0)
(-0.0035239 -0.0100513 0)
(0.000561793 -0.0136777 0)
(-0.000896068 -0.0108756 0)
(4.25946e-07 -0.0133591 0)
(0.000896182 -0.0108749 0)
(-0.000541494 -0.0137384 0)
(0.00341027 -0.0100427 0)
(-0.000965425 -0.0172407 0)
(4.47284e-07 -0.0073018 0)
(0.0009639 -0.0172424 0)
(-0.00341083 -0.0100427 0)
(0.000542456 -0.0137393 0)
(-0.000888903 -0.0108618 0)
(4.16481e-07 -0.0134026 0)
(0.000888988 -0.0108611 0)
(-0.00052304 -0.0137979 0)
(0.00329795 -0.0100341 0)
(-0.000943215 -0.0171569 0)
(4.38043e-07 -0.00735096 0)
(0.000941734 -0.0171585 0)
(-0.00329848 -0.0100341 0)
(0.000523967 -0.0137989 0)
(-0.000880743 -0.0108484 0)
(4.06923e-07 -0.013446 0)
(0.0008808 -0.0108477 0)
(-0.000505378 -0.0138554 0)
(0.00318669 -0.0100255 0)
(-0.000921477 -0.0170752 0)
(4.29416e-07 -0.00739935 0)
(0.00092004 -0.0170769 0)
(-0.00318719 -0.0100255 0)
(0.000506272 -0.0138563 0)
(-0.000871637 -0.0108353 0)
(3.97273e-07 -0.0134893 0)
(0.000871667 -0.0108347 0)
(-0.000488455 -0.0139107 0)
(0.00307678 -0.0100169 0)
(-0.00090013 -0.0169958 0)
(4.21371e-07 -0.00744695 0)
(0.000898737 -0.0169974 0)
(-0.00307726 -0.010017 0)
(0.000489316 -0.0139117 0)
(-0.000861636 -0.0108226 0)
(3.87537e-07 -0.0135325 0)
(0.00086164 -0.010822 0)
(-0.000472218 -0.0139639 0)
(0.00296848 -0.0100083 0)
(-0.000879109 -0.0169186 0)
(4.13874e-07 -0.0074938 0)
(0.000877759 -0.0169202 0)
(-0.00296893 -0.0100084 0)
(0.000473046 -0.013965 0)
(-0.000850791 -0.0108103 0)
(3.77725e-07 -0.0135754 0)
(0.00085077 -0.0108097 0)
(-0.000456615 -0.0140152 0)
(0.002862 -0.0099998 0)
(-0.000858359 -0.0168435 0)
(4.0689e-07 -0.00753987 0)
(0.000857052 -0.0168451 0)
(-0.00286242 -0.00999993 0)
(0.000457412 -0.0140162 0)
(-0.000839157 -0.0107983 0)
(3.67849e-07 -0.013618 0)
(0.000839111 -0.0107977 0)
(-0.000441597 -0.0140644 0)
(0.00275751 -0.00999133 0)
(-0.000837836 -0.0167706 0)
(4.00383e-07 -0.00758519 0)
(0.000836571 -0.0167722 0)
(-0.0027579 -0.00999149 0)
(0.000442362 -0.0140655 0)
(-0.000826786 -0.0107866 0)
(3.57925e-07 -0.0136602 0)
(0.000826716 -0.010786 0)
(-0.000427117 -0.0141117 0)
(0.00265517 -0.00998292 0)
(-0.000817506 -0.0166998 0)
(3.94316e-07 -0.00762974 0)
(0.000816282 -0.0167014 0)
(-0.00265553 -0.00998311 0)
(0.000427852 -0.0141128 0)
(-0.000813734 -0.0107752 0)
(3.47967e-07 -0.0137021 0)
(0.000813641 -0.0107746 0)
(-0.000413131 -0.0141571 0)
(0.00255508 -0.00997459 0)
(-0.000797342 -0.0166312 0)
(3.88652e-07 -0.00767353 0)
(0.000796158 -0.0166327 0)
(-0.00255543 -0.0099748 0)
(0.000413836 -0.0141582 0)
(-0.000800054 -0.0107642 0)
(3.37994e-07 -0.0137436 0)
(0.000799939 -0.0107636 0)
(-0.000399597 -0.0142006 0)
(0.00245736 -0.00996635 0)
(-0.000777323 -0.0165646 0)
(3.83352e-07 -0.00771654 0)
(0.000776179 -0.0165662 0)
(-0.00245768 -0.00996658 0)
(0.000400274 -0.0142018 0)
(-0.000785801 -0.0107534 0)
(3.28021e-07 -0.0137846 0)
(0.000785665 -0.0107528 0)
(-0.000386478 -0.0142423 0)
(0.00236207 -0.00995821 0)
(-0.000757437 -0.0165001 0)
(3.78377e-07 -0.00775878 0)
(0.000756332 -0.0165017 0)
(-0.00236236 -0.00995847 0)
(0.000387126 -0.0142435 0)
(-0.000771028 -0.010743 0)
(3.18065e-07 -0.0138252 0)
(0.000770872 -0.0107424 0)
(-0.000373736 -0.0142822 0)
(0.00226927 -0.00995018 0)
(-0.000737675 -0.0164377 0)
(3.73691e-07 -0.00780023 0)
(0.000736608 -0.0164392 0)
(-0.00226954 -0.00995045 0)
(0.000374356 -0.0142834 0)
(-0.000755789 -0.0107328 0)
(3.08139e-07 -0.0138652 0)
(0.000755613 -0.0107322 0)
(-0.00036134 -0.0143204 0)
(0.00217899 -0.00994226 0)
(-0.000718031 -0.0163772 0)
(3.69253e-07 -0.0078409 0)
(0.000717002 -0.0163787 0)
(-0.00217925 -0.00994256 0)
(0.000361933 -0.0143216 0)
(-0.000740134 -0.0107229 0)
(2.98258e-07 -0.0139046 0)
(0.00073994 -0.0107224 0)
(-0.000349259 -0.0143569 0)
(0.00209127 -0.00993447 0)
(-0.000698505 -0.0163187 0)
(3.65026e-07 -0.00788078 0)
(0.000697512 -0.0163202 0)
(-0.00209151 -0.00993479 0)
(0.000349825 -0.0143581 0)
(-0.000724115 -0.0107134 0)
(2.88433e-07 -0.0139435 0)
(0.000723904 -0.0107128 0)
(-0.000337466 -0.0143917 0)
(0.00200612 -0.00992682 0)
(-0.000679099 -0.0162621 0)
(3.60972e-07 -0.00791986 0)
(0.000678142 -0.0162636 0)
(-0.00200634 -0.00992716 0)
(0.000338006 -0.014393 0)
(-0.000707782 -0.0107041 0)
(2.78675e-07 -0.0139817 0)
(0.000707555 -0.0107035 0)
(-0.000325936 -0.014425 0)
(0.00192354 -0.00991932 0)
(-0.000659817 -0.0162074 0)
(3.57051e-07 -0.00795814 0)
(0.000658896 -0.0162088 0)
(-0.00192374 -0.00991968 0)
(0.000326451 -0.0144263 0)
(-0.000691184 -0.0106951 0)
(2.68992e-07 -0.0140193 0)
(0.000690941 -0.0106945 0)
(-0.000314648 -0.0144568 0)
(0.00184353 -0.00991196 0)
(-0.000640667 -0.0161545 0)
(3.53227e-07 -0.00799561 0)
(0.00063978 -0.0161559 0)
(-0.00184372 -0.00991234 0)
(0.000315139 -0.0144581 0)
(-0.000674366 -0.0106863 0)
(2.59392e-07 -0.0140562 0)
(0.000674109 -0.0106858 0)
(-0.000303582 -0.0144871 0)
(0.00176607 -0.00990477 0)
(-0.000621657 -0.0161034 0)
(3.49463e-07 -0.00803227 0)
(0.000620804 -0.0161048 0)
(-0.00176624 -0.00990516 0)
(0.000304049 -0.0144884 0)
(-0.000657375 -0.0106779 0)
(2.49879e-07 -0.0140924 0)
(0.000657105 -0.0106774 0)
(-0.000292721 -0.0145159 0)
(0.00169115 -0.00989773 0)
(-0.000602796 -0.016054 0)
(3.45722e-07 -0.00806811 0)
(0.000601976 -0.0160554 0)
(-0.0016913 -0.00989814 0)
(0.000293165 -0.0145173 0)
(-0.000640255 -0.0106697 0)
(2.40462e-07 -0.0141279 0)
(0.000639973 -0.0106693 0)
(-0.000282051 -0.0145434 0)
(0.00161873 -0.00989087 0)
(-0.000584095 -0.0160064 0)
(3.41969e-07 -0.00810313 0)
(0.000583307 -0.0160078 0)
(-0.00161887 -0.0098913 0)
(0.000282473 -0.0145448 0)
(-0.00062305 -0.0106619 0)
(2.31146e-07 -0.0141626 0)
(0.000622756 -0.0106614 0)
(-0.00027156 -0.0145695 0)
(0.00154879 -0.00988418 0)
(-0.000565566 -0.0159604 0)
(3.38171e-07 -0.00813733 0)
(0.000564809 -0.0159618 0)
(-0.00154892 -0.00988462 0)
(0.00027196 -0.0145709 0)
(-0.000605799 -0.0106543 0)
(2.21938e-07 -0.0141966 0)
(0.000605496 -0.0106538 0)
(-0.000261237 -0.0145944 0)
(0.0014813 -0.00987767 0)
(-0.000547221 -0.0159161 0)
(3.34295e-07 -0.0081707 0)
(0.000546495 -0.0159174 0)
(-0.00148141 -0.00987813 0)
(0.000261615 -0.0145958 0)
(-0.000588543 -0.010647 0)
(2.12843e-07 -0.0142298 0)
(0.000588231 -0.0106466 0)
(-0.000251073 -0.014618 0)
(0.00141622 -0.00987134 0)
(-0.000529073 -0.0158733 0)
(3.3031e-07 -0.00820325 0)
(0.000528378 -0.0158746 0)
(-0.00141632 -0.00987182 0)
(0.00025143 -0.0146194 0)
(-0.000571321 -0.01064 0)
(2.03866e-07 -0.0142622 0)
(0.000571002 -0.0106396 0)
(-0.000241061 -0.0146404 0)
(0.00135351 -0.0098652 0)
(-0.000511135 -0.015832 0)
(3.26186e-07 -0.00823497 0)
(0.000510469 -0.0158334 0)
(-0.0013536 -0.00986569 0)
(0.000241399 -0.0146418 0)
(-0.000554169 -0.0106333 0)
(1.95009e-07 -0.0142938 0)
(0.000553843 -0.0106329 0)
(-0.000231198 -0.0146617 0)
(0.00129314 -0.00985924 0)
(-0.000493421 -0.0157923 0)
(3.21893e-07 -0.00826586 0)
(0.000492783 -0.0157936 0)
(-0.00129322 -0.00985974 0)
(0.000231516 -0.0146631 0)
(-0.000537124 -0.0106269 0)
(1.86272e-07 -0.0143246 0)
(0.000536793 -0.0106265 0)
(-0.00022148 -0.0146819 0)
(0.00123506 -0.00985348 0)
(-0.000475943 -0.0157539 0)
(3.17406e-07 -0.00829593 0)
(0.000475334 -0.0157552 0)
(-0.00123514 -0.00985398 0)
(0.000221778 -0.0146833 0)
(-0.000520219 -0.0106208 0)
(1.77656e-07 -0.0143546 0)
(0.000519884 -0.0106204 0)
(-0.000211904 -0.014701 0)
(0.00117924 -0.0098479 0)
(-0.000458715 -0.015717 0)
(3.12696e-07 -0.00832518 0)
(0.000458134 -0.0157183 0)
(-0.00117931 -0.00984842 0)
(0.000212184 -0.0147025 0)
(-0.000503489 -0.010615 0)
(1.69159e-07 -0.0143837 0)
(0.000503151 -0.0106146 0)
(-0.00020247 -0.0147191 0)
(0.00112564 -0.00984251 0)
(-0.000441751 -0.0156814 0)
(3.07738e-07 -0.0083536 0)
(0.000441197 -0.0156827 0)
(-0.0011257 -0.00984304 0)
(0.000202733 -0.0147206 0)
(-0.000486967 -0.0106095 0)
(1.60775e-07 -0.0144121 0)
(0.000486626 -0.010609 0)
(-0.00019318 -0.0147363 0)
(0.00107422 -0.00983731 0)
(-0.000425064 -0.0156471 0)
(3.02507e-07 -0.00838121 0)
(0.000424536 -0.0156484 0)
(-0.00107428 -0.00983785 0)
(0.000193425 -0.0147377 0)
(-0.000470683 -0.0106042 0)
(1.52499e-07 -0.0144396 0)
(0.000470342 -0.0106038 0)
(-0.000184036 -0.0147525 0)
(0.00102495 -0.00983229 0)
(-0.000408666 -0.0156141 0)
(2.96977e-07 -0.00840801 0)
(0.000408163 -0.0156154 0)
(-0.001025 -0.00983285 0)
(0.000184263 -0.014754 0)
(-0.000454671 -0.0105993 0)
(1.44327e-07 -0.0144662 0)
(0.000454329 -0.0105989 0)
(-0.00017504 -0.0147679 0)
(0.00097779 -0.00982747 0)
(-0.00039257 -0.0155823 0)
(2.91123e-07 -0.008434 0)
(0.000392092 -0.0155836 0)
(-0.000977839 -0.00982804 0)
(0.000175251 -0.0147693 0)
(-0.000438961 -0.0105946 0)
(1.36254e-07 -0.0144921 0)
(0.000438621 -0.0105942 0)
(-0.000166199 -0.0147824 0)
(0.000932718 -0.00982283 0)
(-0.000376788 -0.0155517 0)
(2.84921e-07 -0.00845919 0)
(0.000376335 -0.015553 0)
(-0.000932764 -0.00982341 0)
(0.000166394 -0.0147838 0)
(-0.000423585 -0.0105903 0)
(1.28281e-07 -0.0145171 0)
(0.000423246 -0.0105899 0)
(-0.000157518 -0.014796 0)
(0.000889705 -0.00981838 0)
(-0.000361331 -0.0155222 0)
(2.78344e-07 -0.00848359 0)
(0.000360903 -0.0155235 0)
(-0.000889748 -0.00981897 0)
(0.000157697 -0.0147975 0)
(-0.000408574 -0.0105862 0)
(1.20413e-07 -0.0145414 0)
(0.000408238 -0.0105858 0)
(-0.000149004 -0.014809 0)
(0.00084873 -0.00981412 0)
(-0.000346211 -0.0154938 0)
(2.71366e-07 -0.00850721 0)
(0.000345806 -0.015495 0)
(-0.00084877 -0.00981471 0)
(0.000149168 -0.0148104 0)
(-0.00039396 -0.0105824 0)
(1.12661e-07 -0.0145648 0)
(0.000393628 -0.010582 0)
(-0.000140668 -0.0148212 0)
(0.000809775 -0.00981003 0)
(-0.000331437 -0.0154664 0)
(2.63961e-07 -0.00853005 0)
(0.000331056 -0.0154676 0)
(-0.000809813 -0.00981063 0)
(0.000140817 -0.0148226 0)
(-0.000379775 -0.0105789 0)
(1.0504e-07 -0.0145875 0)
(0.000379448 -0.0105785 0)
(-0.000132521 -0.0148327 0)
(0.000772827 -0.00980612 0)
(-0.000317021 -0.0154401 0)
(2.56101e-07 -0.00855213 0)
(0.000316662 -0.0154413 0)
(-0.000772864 -0.00980673 0)
(0.000132656 -0.0148341 0)
(-0.000366052 -0.0105757 0)
(9.75718e-08 -0.0146094 0)
(0.000365731 -0.0105753 0)
(-0.000124576 -0.0148435 0)
(0.000737882 -0.00980239 0)
(-0.000302971 -0.0154146 0)
(2.47758e-07 -0.00857346 0)
(0.000302634 -0.0154158 0)
(-0.000737918 -0.009803 0)
(0.000124696 -0.014845 0)
(-0.000352827 -0.0105728 0)
(9.02788e-08 -0.0146306 0)
(0.000352513 -0.0105724 0)
(-0.00011685 -0.0148538 0)
(0.000704939 -0.00979883 0)
(-0.000289297 -0.0153901 0)
(2.38904e-07 -0.00859405 0)
(0.000288981 -0.0153912 0)
(-0.000704975 -0.00979945 0)
(0.000116956 -0.0148552 0)
(-0.000340135 -0.0105701 0)
(8.31818e-08 -0.0146511 0)
(0.000339829 -0.0105697 0)
(-0.000109363 -0.0148635 0)
(0.000674005 -0.00979544 0)
(-0.000276009 -0.0153664 0)
(2.29506e-07 -0.00861391 0)
(0.000275714 -0.0153675 0)
(-0.00067404 -0.00979607 0)
(0.000109456 -0.0148649 0)
(-0.000328013 -0.0105677 0)
(7.62958e-08 -0.0146708 0)
(0.000327716 -0.0105673 0)
(-0.000102138 -0.0148726 0)
(0.000645092 -0.00979223 0)
(-0.000263119 -0.0153435 0)
(2.19526e-07 -0.00863305 0)
(0.000262844 -0.0153446 0)
(-0.000645128 -0.00979286 0)
(0.000102219 -0.014874 0)
(-0.000316501 -0.0105656 0)
(6.96269e-08 -0.01469 0)
(0.000316213 -0.0105652 0)
(-9.52061e-05 -0.0148812 0)
(0.000618218 -0.00978918 0)
(-0.000250642 -0.0153213 0)
(2.08901e-07 -0.0086515 0)
(0.000250387 -0.0153224 0)
(-0.000618255 -0.00978982 0)
(9.52738e-05 -0.0148826 0)
(-0.000305638 -0.0105637 0)
(6.31703e-08 -0.0147085 0)
(0.000305361 -0.0105633 0)
(-8.86006e-05 -0.0148894 0)
(0.000593408 -0.0097863 0)
(-0.000238599 -0.0152998 0)
(1.97528e-07 -0.00866926 0)
(0.000238362 -0.0153009 0)
(-0.000593447 -0.00978695 0)
(8.86561e-05 -0.0148908 0)
(-0.000295465 -0.0105621 0)
(5.69146e-08 -0.0147264 0)
(0.000295201 -0.0105617 0)
(-8.23629e-05 -0.0148971 0)
(0.000570685 -0.00978359 0)
(-0.000227019 -0.015279 0)
(1.85224e-07 -0.00868636 0)
(0.0002268 -0.0152801 0)
(-0.000570727 -0.00978424 0)
(8.24068e-05 -0.0148985 0)
(-0.000286025 -0.0105607 0)
(5.08522e-08 -0.0147437 0)
(0.000285775 -0.0105603 0)
(-7.65407e-05 -0.0149044 0)
(0.000550076 -0.00978105 0)
(-0.000215944 -0.0152587 0)
(1.71684e-07 -0.00870282 0)
(0.000215742 -0.0152598 0)
(-0.000550121 -0.00978171 0)
(7.65737e-05 -0.0149059 0)
(-0.000277358 -0.0105595 0)
(4.49966e-08 -0.0147606 0)
(0.000277124 -0.0105591 0)
(-7.11876e-05 -0.0149114 0)
(0.000531598 -0.00977868 0)
(-0.000205432 -0.0152389 0)
(1.56442e-07 -0.00871866 0)
(0.000205246 -0.01524 0)
(-0.000531648 -0.00977934 0)
(7.12108e-05 -0.0149128 0)
(-0.000269499 -0.0105586 0)
(3.94028e-08 -0.014777 0)
(0.000269286 -0.0105582 0)
(-6.63621e-05 -0.0149181 0)
(0.00051526 -0.00977648 0)
(-0.000195564 -0.0152196 0)
(1.38882e-07 -0.00873392 0)
(0.000195391 -0.0152207 0)
(-0.000515316 -0.00977715 0)
(6.63769e-05 -0.0149195 0)
(-0.000262482 -0.0105578 0)
(3.41793e-08 -0.0147929 0)
(0.000262293 -0.0105574 0)
(-6.21234e-05 -0.0149245 0)
(0.000501053 -0.00977445 0)
(-0.000186445 -0.0152006 0)
(1.18367e-07 -0.00874862 0)
(0.000186284 -0.0152017 0)
(-0.000501118 -0.00977512 0)
(6.21319e-05 -0.0149259 0)
(-0.000256329 -0.0105573 0)
(2.94853e-08 -0.0148086 0)
(0.000256169 -0.0105569 0)
(-5.8527e-05 -0.0149306 0)
(0.000488947 -0.00977259 0)
(-0.000178206 -0.015182 0)
(9.4543e-08 -0.0087628 0)
(0.000178053 -0.0151831 0)
(-0.000489023 -0.00977327 0)
(5.85318e-05 -0.014932 0)
(-0.000251053 -0.0105569 0)
(2.55077e-08 -0.0148238 0)
(0.000250927 -0.0105565 0)
(-5.56171e-05 -0.0149365 0)
(0.00047889 -0.0097709 0)
(-0.000171 -0.0151637 0)
(6.78289e-08 -0.00877651 0)
(0.000170851 -0.0151647 0)
(-0.000478978 -0.00977158 0)
(5.56209e-05 -0.0149379 0)
(-0.000246652 -0.0105566 0)
(2.243e-08 -0.0148388 0)
(0.000246566 -0.0105562 0)
(-5.34168e-05 -0.0149423 0)
(0.000470815 -0.00976936 0)
(-0.000164997 -0.0151454 0)
(3.99553e-08 -0.00878993 0)
(0.000164848 -0.0151465 0)
(-0.000470917 -0.00977004 0)
(5.34224e-05 -0.0149437 0)
(-0.000243116 -0.0105565 0)
(2.04016e-08 -0.0148537 0)
(0.000243073 -0.0105561 0)
(-5.1916e-05 -0.0149482 0)
(0.00046468 -0.00976792 0)
(-0.000160378 -0.0151266 0)
(1.41872e-08 -0.00880357 0)
(0.000160225 -0.0151276 0)
(-0.000464795 -0.0097686 0)
(5.19253e-05 -0.0149496 0)
(-0.000240441 -0.0105565 0)
(1.9496e-08 -0.014869 0)
(0.000240436 -0.0105561 0)
(-5.10554e-05 -0.0149542 0)
(0.000460536 -0.00976665 0)
(-0.000157323 -0.0151067 0)
(-5.26315e-09 -0.00881778 0)
(0.000157166 -0.0151077 0)
(-0.000460661 -0.00976734 0)
(5.1069e-05 -0.0149556 0)
(-0.000238649 -0.0105567 0)
(1.96039e-08 -0.014885 0)
(0.000238673 -0.0105563 0)
(-5.07114e-05 -0.014959 0)
(0.000458542 -0.00976537 0)
(-0.00015593 -0.0150905 0)
(-1.50201e-08 -0.00882885 0)
(0.00015577 -0.0150916 0)
(-0.000458672 -0.00976607 0)
(5.07281e-05 -0.0149604 0)
(-0.000237799 -0.0105566 0)
(2.02336e-08 -0.0148979 0)
(0.000237838 -0.0105562 0)
)
;

boundaryField
{
    BotWall
    {
        type            fixedValue;
        value           uniform (0 0 0);
    }
    FreeStream
    {
        type            zeroGradient;
    }
    FrontNBack
    {
        type            empty;
    }
    LeftSide
    {
        type            cyclic;
    }
    RightSide
    {
        type            cyclic;
    }
}


// ************************************************************************* //
