/*--------------------------------*- C++ -*----------------------------------*\
| =========                 |                                                 |
| \\      /  F ield         | OpenFOAM: The Open Source CFD Toolbox           |
|  \\    /   O peration     | Version:  2.4.0                                 |
|   \\  /    A nd           | Web:      www.OpenFOAM.org                      |
|    \\/     M anipulation  |                                                 |
\*---------------------------------------------------------------------------*/
FoamFile
{
    version     2.0;
    format      ascii;
    class       volScalarField;
    location    "2.6";
    object      H;
}
// * * * * * * * * * * * * * * * * * * * * * * * * * * * * * * * * * * * * * //

dimensions      [0 2 -2 0 0 0 0];

internalField   nonuniform List<scalar> 
8000
(
-11992.1
-11516.5
-11041.7
-10568.2
-10096
-9625.4
-9156.53
-8689.46
-8224.27
-7760.99
-7299.61
-6840.07
-6382.22
-5925.8
-5470.43
-5015.6
-4560.65
-4104.81
-3647.4
-3188.12
-2727.69
-2268.75
-1816.69
-1379.14
-962.517
-565.144
-13.0121
-10.0341
-9.92423
-9.94515
-9.91646
-9.84748
-9.74661
-9.62159
-9.47949
-9.32658
-9.16818
-9.00866
-8.85144
-8.699
-8.55301
-8.41442
-8.28357
-8.16032
-8.0442
-7.93443
-7.83013
-7.7303
-7.63396
-7.54014
-11992.1
-11516.6
-11041.8
-10568.2
-10096.1
-9625.56
-9156.86
-8690.08
-8225.33
-7762.64
-7302.04
-6843.46
-6386.79
-5931.84
-5478.35
-5026.01
-4574.57
-4123.89
-3674.16
-3225.98
-2780.42
-2338.75
-1901.69
-1468.07
-1032.97
-585.772
-8.39901
-6.60662
-6.80071
-7.09317
-7.33267
-7.52431
-7.67347
-7.78531
-7.86469
-7.91606
-7.94342
-7.95039
-7.94015
-7.91551
-7.87893
-7.83252
-7.77808
-7.71711
-7.65085
-7.5803
-7.50623
-7.42924
-7.34979
-7.26819
-11991.9
-11515.8
-11040.3
-10565.7
-10092.4
-9620.67
-9150.67
-8682.62
-8216.7
-7753
-7291.62
-6832.56
-6375.8
-5921.24
-5468.78
-5018.29
-4569.7
-4122.99
-3678.25
-3235.63
-2795.21
-2356.66
-1918.69
-1478.37
-1030.4
-565.786
-7.19165
-5.79158
-5.91016
-6.15735
-6.34505
-6.49049
-6.60679
-6.70276
-6.78366
-6.8521
-6.90909
-6.95473
-6.98888
-7.01146
-7.02266
-7.02294
-7.013
-6.99368
-6.9659
-6.93057
-6.88856
-6.84063
-6.78747
-6.72965
-11991.8
-11515.7
-11040.4
-10566.2
-10093.6
-9622.78
-9154.08
-8687.7
-8223.86
-7762.69
-7304.31
-6848.8
-6396.18
-5946.45
-5499.58
-5055.5
-4614.09
-4175.18
-3738.44
-3303.35
-2869
-2433.91
-1995.84
-1552.69
-1107.74
-684.849
-344.018
-15.4818
-10.775
-9.73206
-8.8878
-8.1743
-7.60758
-7.18152
-6.87815
-6.67423
-6.54559
-6.46999
-6.42878
-6.40749
-6.39568
-6.38638
-6.3753
-6.36009
-6.33968
-6.31378
-6.28253
-6.24626
-6.20535
-6.1602
-11991.9
-11516.1
-11041.1
-10567.5
-10095.7
-9626.03
-9158.82
-8694.36
-8232.85
-7774.48
-7319.39
-6867.66
-6419.35
-5974.46
-5532.93
-5094.66
-4659.49
-4227.18
-3797.45
-3370.09
-2945.05
-2522.86
-2104.89
-1693.41
-1290.6
-896.171
-503.629
-7.24049
-5.75615
-5.74635
-5.90288
-6.01437
-6.09057
-6.13956
-6.16753
-6.17916
-6.17791
-6.16645
-6.14682
-6.12066
-6.08929
-6.05382
-6.01512
-5.97389
-5.93065
-5.88575
-5.83943
-5.79179
-5.74286
-5.69262
-11992.5
-11518
-11044.4
-10572.4
-10102.4
-9634.9
-9170.2
-8708.63
-8250.42
-7795.77
-7344.83
-6897.69
-6454.41
-6015
-5579.42
-5147.6
-4719.45
-4294.87
-3873.75
-3455.99
-3041.4
-2629.65
-2219.98
-1810.71
-1398.15
-974.347
-522.988
-5.85216
-5.64045
-4.69928
-4.88199
-5.0398
-5.1694
-5.27302
-5.35324
-5.4128
-5.4545
-5.48099
-5.49471
-5.49786
-5.49233
-5.47973
-5.46134
-5.43823
-5.41117
-5.38077
-5.34747
-5.31157
-5.27326
-5.2327
-11993.6
-11521.1
-11049.8
-10580.2
-10112.9
-9648.35
-9186.89
-8728.88
-8274.6
-7824.25
-7377.99
-6935.93
-6498.15
-6064.66
-5635.44
-5210.43
-4789.53
-4372.58
-3959.37
-3549.64
-3143.04
-2739.31
-2338.57
-1941.95
-1552.17
-1173.32
-808.39
-454.17
-6.95694
-5.54031
-5.36001
-5.42969
-5.47244
-5.49202
-5.49251
-5.47785
-5.45165
-5.41706
-5.37674
-5.33285
-5.28705
-5.24053
-5.19409
-5.1482
-5.10306
-5.05867
-5.01488
-4.97146
-4.92815
-4.88465
-11994.9
-11525.1
-11056.5
-10589.7
-10125.4
-9664.08
-9206.1
-8751.86
-8301.62
-7855.64
-7414.08
-6977.06
-6544.66
-6116.9
-5693.77
-5275.2
-4861.11
-4451.39
-4045.91
-3644.55
-3247.19
-2853.71
-2463.87
-2077.12
-1692.11
-1305.53
-909.856
-489.236
-5.51878
-5.34664
-4.40023
-4.53693
-4.65383
-4.74522
-4.81345
-4.8613
-4.89164
-4.90728
-4.91081
-4.90458
-4.89062
-4.87063
-4.84599
-4.81778
-4.78682
-4.7537
-4.71881
-4.68242
-4.64467
-4.60566
-11996.4
-11529.7
-11064.2
-10600.7
-10139.8
-9681.97
-9227.71
-8777.4
-8331.32
-7889.73
-7452.81
-7020.7
-6593.47
-6171.16
-5753.76
-5341.23
-4933.48
-4530.4
-4131.83
-3737.57
-3347.35
-2960.89
-2577.97
-2198.73
-1824.2
-1456.88
-1100.43
-757.595
-425.669
-6.57861
-5.18767
-5.04422
-5.08561
-5.1043
-5.10261
-5.08441
-5.05348
-5.0132
-4.96652
-4.9159
-4.86328
-4.81011
-4.75741
-4.70583
-4.6557
-4.60711
-4.55996
-4.51405
-4.4691
-4.42481
-11998
-11534.4
-11072
-10611.7
-10154
-9699.58
-9248.79
-8802.08
-8359.78
-7922.15
-7489.38
-7061.61
-6638.93
-6221.38
-5808.97
-5401.63
-4999.3
-4601.86
-4209.2
-3821.18
-3437.68
-3058.56
-2683.67
-2312.75
-1945.24
-1579.98
-1214.47
-843.159
-453.562
-5.22001
-4.96583
-4.27017
-4.38277
-4.48954
-4.56412
-4.61172
-4.63728
-4.64534
-4.63987
-4.62426
-4.60131
-4.57319
-4.54158
-4.50764
-4.4722
-4.43573
-4.39852
-4.36066
-4.32217
-4.28299
-11999.7
-11539.5
-11080.7
-10624
-10170
-9719.37
-9272.54
-8829.92
-8391.84
-7958.56
-7530.27
-7107.11
-6689.18
-6276.5
-5869.07
-5466.85
-5069.76
-4677.69
-4290.5
-3908.02
-3530.03
-3156.24
-2786.31
-2419.87
-2056.8
-1697.9
-1346.04
-1007
-688.105
-392.793
-8.10499
-6.15572
-5.8623
-5.73174
-5.59785
-5.46305
-5.33022
-5.20191
-5.08016
-4.96641
-4.8615
-4.76571
-4.67881
-4.60019
-4.52899
-4.46418
-4.40467
-4.34937
-4.29731
-4.24758
-12001.5
-11544.8
-11089.5
-10636.3
-10185.9
-9738.78
-9295.48
-8856.38
-8421.83
-7992.08
-7567.32
-7147.68
-6733.26
-6324.09
-5920.17
-5521.44
-5127.84
-4739.26
-4355.58
-3976.66
-3602.38
-3232.66
-2867.46
-2506.83
-2150.85
-1799.48
-1452.28
-1107.93
-763.686
-414.87
-4.91096
-3.8213
-3.92464
-4.07094
-4.1875
-4.27753
-4.34463
-4.3923
-4.42378
-4.44191
-4.44908
-4.44725
-4.43797
-4.42246
-4.40165
-4.37625
-4.34685
-4.3139
-4.27782
-4.23894
-12003.1
-11549.8
-11097.7
-10647.6
-10200.1
-9755.83
-9315.27
-8878.82
-8446.82
-8019.53
-7597.15
-7179.83
-6767.65
-6360.65
-5958.82
-5562.15
-5170.55
-4783.96
-4402.25
-4025.31
-3652.96
-3285.01
-2921.2
-2561.13
-2204.21
-1849.48
-1495.59
-1140.63
-781.808
-412.96
-4.63163
-4.17777
-4.07329
-4.31767
-4.48598
-4.59502
-4.65995
-4.69322
-4.70461
-4.70133
-4.68844
-4.66923
-4.64563
-4.61862
-4.5886
-4.55559
-4.51952
-4.48027
-4.43781
-4.3922
-12004.8
-11554.8
-11106
-10659.2
-10215.1
-9774.06
-9336.71
-8903.41
-8474.5
-8050.22
-7630.77
-7216.29
-6806.85
-6402.5
-6003.22
-5608.96
-5219.64
-4835.15
-4455.36
-4080.1
-3709.19
-3342.43
-2979.58
-2620.39
-2264.56
-1911.81
-1562.43
-1218.79
-888.609
-587.626
-333.624
-14.1744
-10.3774
-9.71244
-9.07375
-8.47808
-7.93642
-7.45468
-7.0344
-6.67343
-6.36691
-6.10826
-5.8901
-5.70495
-5.5458
-5.40644
-5.28163
-5.16718
-5.05987
-4.95737
-12006.5
-11559.9
-11114.5
-10671.2
-10230.4
-9792.77
-9358.75
-8928.71
-8502.94
-8081.7
-7665.13
-7253.36
-6846.44
-6444.37
-6047.12
-5654.63
-5266.8
-4883.53
-4504.72
-4130.29
-3760.21
-3394.58
-3033.61
-2677.82
-2328.05
-1985.57
-1652.03
-1329.14
-1018.06
-718.318
-426.669
-10.4713
-7.90999
-7.90264
-7.85921
-7.78458
-7.68523
-7.56677
-7.43389
-7.29045
-7.13949
-6.98338
-6.82393
-6.66256
-6.50033
-6.33811
-6.1766
-6.01641
-5.85806
-5.70202
-12008.2
-11564.9
-11122.9
-10682.7
-10245.2
-9810.66
-9379.62
-8952.41
-8529.29
-8110.47
-7696.08
-7286.19
-6880.83
-6479.99
-6083.61
-5691.64
-5303.99
-4920.61
-4541.5
-4166.72
-3796.44
-3430.98
-3070.85
-2716.7
-2369.32
-2029.52
-1697.93
-1374.72
-1059.34
-750.197
-444.271
-10.061
-7.62076
-7.68454
-7.7196
-7.72707
-7.70898
-7.66752
-7.60497
-7.52356
-7.42551
-7.31291
-7.18778
-7.05202
-6.90744
-6.75571
-6.59843
-6.43704
-6.2729
-6.10724
-12009.8
-11569.7
-11130.9
-10693.9
-10259.3
-9827.63
-9399.22
-8974.4
-8553.38
-8136.32
-7723.33
-7314.44
-6909.65
-6508.94
-6112.26
-5719.54
-5330.75
-4945.87
-4564.94
-4188.11
-3815.61
-3447.82
-3085.24
-2728.49
-2378.24
-2035.11
-1699.61
-1372.07
-1052.74
-741.72
-438.414
-10.6349
-8.10532
-8.19165
-8.22286
-8.21135
-8.16644
-8.09504
-8.00223
-7.89183
-7.76673
-7.62921
-7.48115
-7.32415
-7.15969
-6.98914
-6.81384
-6.63506
-6.45404
-6.27198
-12011.2
-11573.9
-11137.7
-10703.2
-10270.9
-9841.13
-9414.33
-8990.72
-8570.51
-8153.8
-7740.67
-7331.14
-6925.19
-6522.79
-6123.9
-5728.46
-5336.46
-4947.9
-4562.84
-4181.43
-3803.88
-3430.53
-3061.8
-2698.14
-2340.01
-1987.73
-1641.59
-1302.34
-972.485
-658.436
-372.887
-17.2886
-12.2639
-11.2665
-10.4589
-9.80253
-9.26541
-8.82141
-8.4491
-8.13115
-7.85361
-7.6055
-7.37827
-7.16546
-6.96233
-6.76557
-6.57299
-6.3833
-6.19589
-6.01065
-12012.1
-11576.7
-11142.1
-10709
-10277.7
-9848.76
-9422.32
-8998.64
-8577.89
-8160.12
-7745.39
-7333.67
-6924.94
-6519.16
-6116.27
-5716.27
-5319.14
-4924.93
-4533.72
-4145.64
-3760.89
-3379.7
-3002.28
-2628.73
-2258.81
-1891.61
-1525.22
-1156.72
-782.944
-401.971
-3.88875
-3.26568
-3.52979
-3.91521
-4.24083
-4.51444
-4.74203
-4.92826
-5.07683
-5.19081
-5.27285
-5.32542
-5.35087
-5.3516
-5.33002
-5.28863
-5.22996
-5.15654
-5.07087
-4.97536
-12013.1
-11579.5
-11146.8
-10715.4
-10285.8
-9858.12
-9432.67
-9009.52
-8588.71
-8170.23
-7754.04
-7340.08
-6928.29
-6518.62
-6111.07
-5705.66
-5302.47
-4901.64
-4503.36
-4107.86
-3715.42
-3326.36
-2941.01
-2559.76
-2183.06
-1811.52
-1446
-1087.58
-737.535
-397.532
-5.22756
-3.93056
-3.98667
-4.03366
-4.07247
-4.10387
-4.12829
-4.14595
-4.15692
-4.1612
-4.15882
-4.14982
-4.13435
-4.11263
-4.08497
-4.05179
-4.01357
-3.97083
-3.92415
-3.87411
-7.44797
-7.35665
-7.26548
-7.17387
-7.08134
-6.98749
-6.89203
-6.79474
-6.69546
-6.5941
-6.49064
-6.38507
-6.27744
-6.16784
-6.05637
-5.94316
-5.82837
-5.71216
-5.5947
-5.47618
-5.35681
-5.23676
-5.11626
-4.99549
-4.87467
-4.75397
-4.6336
-4.51375
-4.39458
-4.27628
-4.159
-4.04291
-3.92813
-3.81481
-3.70308
-3.59303
-3.48479
-3.37843
-3.27405
-3.17172
-3.0715
-2.97344
-2.87759
-2.78398
-2.69266
-2.60362
-2.5169
-2.43249
-2.3504
-2.27062
-7.18466
-7.09935
-7.01234
-6.92366
-6.83335
-6.74139
-6.64778
-6.55251
-6.45557
-6.35696
-6.2567
-6.15481
-6.05135
-5.94638
-5.83996
-5.7322
-5.62321
-5.51309
-5.40199
-5.29005
-5.17741
-5.06423
-4.95067
-4.8369
-4.72307
-4.60936
-4.49592
-4.38291
-4.27049
-4.15881
-4.04801
-3.93823
-3.8296
-3.72223
-3.61626
-3.51177
-3.40887
-3.30764
-3.20817
-3.11053
-3.01477
-2.92097
-2.82915
-2.73937
-2.65165
-2.56602
-2.48249
-2.40109
-2.32181
-2.24465
-6.66767
-6.60193
-6.53278
-6.46049
-6.3853
-6.30739
-6.22695
-6.14413
-6.05905
-5.97184
-5.88262
-5.79152
-5.69865
-5.60413
-5.50808
-5.41064
-5.31193
-5.21209
-5.11126
-5.00957
-4.90716
-4.8042
-4.70081
-4.59715
-4.49336
-4.38958
-4.28596
-4.18264
-4.07975
-3.97742
-3.87578
-3.77495
-3.67504
-3.57616
-3.47842
-3.38191
-3.28671
-3.19292
-3.1006
-3.00982
-2.92065
-2.83314
-2.74734
-2.66329
-2.58102
-2.50056
-2.42194
-2.34518
-2.27028
-2.19725
-6.11113
-6.05844
-6.00236
-5.94311
-5.88086
-5.81578
-5.74799
-5.67766
-5.60491
-5.52987
-5.45268
-5.37348
-5.29239
-5.20956
-5.12513
-5.03923
-4.952
-4.86359
-4.77413
-4.68376
-4.59263
-4.50087
-4.40861
-4.31599
-4.22314
-4.13018
-4.03726
-3.94448
-3.85198
-3.75987
-3.66826
-3.57725
-3.48695
-3.39744
-3.30883
-3.2212
-3.13462
-3.04918
-2.96493
-2.88195
-2.80029
-2.72
-2.64114
-2.56373
-2.48783
-2.41345
-2.34063
-2.26938
-2.19973
-2.13168
-5.64099
-5.58789
-5.53322
-5.4769
-5.41886
-5.35906
-5.29746
-5.23406
-5.16887
-5.10193
-5.03329
-4.96302
-4.8912
-4.81791
-4.74325
-4.66732
-4.59023
-4.51208
-4.43299
-4.35307
-4.27243
-4.19118
-4.10944
-4.02732
-3.94492
-3.86236
-3.77975
-3.69717
-3.61474
-3.53256
-3.45071
-3.36929
-3.28838
-3.20808
-3.12845
-3.04957
-2.97151
-2.89435
-2.81815
-2.74296
-2.66884
-2.59584
-2.52399
-2.45335
-2.38394
-2.3158
-2.24896
-2.18344
-2.11925
-2.05642
-5.18996
-5.14512
-5.09822
-5.0493
-4.99842
-4.94563
-4.89098
-4.83455
-4.7764
-4.71663
-4.65531
-4.59253
-4.52839
-4.46298
-4.39638
-4.3287
-4.26002
-4.19044
-4.12005
-4.04894
-3.97721
-3.90494
-3.83223
-3.75916
-3.68583
-3.61231
-3.53869
-3.46507
-3.39151
-3.31811
-3.24493
-3.17206
-3.09957
-3.02753
-2.956
-2.88506
-2.81475
-2.74515
-2.6763
-2.60825
-2.54106
-2.47477
-2.40942
-2.34504
-2.28167
-2.21934
-2.15808
-2.09792
-2.03887
-1.98096
-4.84068
-4.796
-4.75041
-4.70372
-4.65583
-4.60666
-4.55614
-4.50429
-4.45109
-4.39659
-4.34083
-4.28387
-4.22577
-4.1666
-4.10643
-4.04535
-3.98342
-3.92072
-3.85732
-3.79331
-3.72875
-3.66372
-3.59829
-3.53254
-3.46653
-3.40034
-3.33404
-3.26769
-3.20137
-3.13514
-3.06907
-3.00321
-2.93764
-2.87241
-2.80757
-2.74319
-2.67931
-2.61599
-2.55327
-2.4912
-2.42982
-2.36918
-2.3093
-2.25022
-2.19197
-2.13459
-2.0781
-2.02252
-1.96788
-1.91418
-4.56541
-4.52392
-4.48121
-4.43725
-4.39206
-4.34564
-4.29801
-4.2492
-4.19926
-4.14823
-4.09616
-4.04312
-3.98915
-3.93432
-3.87869
-3.82231
-3.76526
-3.70759
-3.64935
-3.59061
-3.53143
-3.47185
-3.41195
-3.35177
-3.29137
-3.23081
-3.17015
-3.10944
-3.04874
-2.9881
-2.92757
-2.86721
-2.80706
-2.74719
-2.68762
-2.62843
-2.56963
-2.51129
-2.45345
-2.39613
-2.33938
-2.28324
-2.22774
-2.1729
-2.11876
-2.06535
-2.01269
-1.9608
-1.9097
-1.85942
-4.38086
-4.33698
-4.29291
-4.24845
-4.20344
-4.15776
-4.11133
-4.06411
-4.01606
-3.96719
-3.91751
-3.86707
-3.81589
-3.76401
-3.71149
-3.65836
-3.60468
-3.5505
-3.49586
-3.44081
-3.3854
-3.32967
-3.27368
-3.21746
-3.16106
-3.10454
-3.04793
-2.99129
-2.93465
-2.87806
-2.82157
-2.76521
-2.70904
-2.65309
-2.59741
-2.54203
-2.487
-2.43234
-2.3781
-2.32432
-2.27102
-2.21823
-2.16599
-2.11433
-2.06326
-2.01282
-1.96304
-1.91392
-1.8655
-1.81778
-4.24306
-4.20228
-4.16061
-4.118
-4.07444
-4.02993
-3.9845
-3.93818
-3.89103
-3.8431
-3.79445
-3.74513
-3.69521
-3.64473
-3.59374
-3.5423
-3.49045
-3.43823
-3.38568
-3.33284
-3.27975
-3.22644
-3.17295
-3.11931
-3.06556
-3.01174
-2.95788
-2.90402
-2.85019
-2.79642
-2.74277
-2.68925
-2.6359
-2.58276
-2.52987
-2.47725
-2.42494
-2.37296
-2.32136
-2.27016
-2.21939
-2.16908
-2.11925
-2.06993
-2.02115
-1.97292
-1.92527
-1.87821
-1.83178
-1.78598
-4.19944
-4.15226
-4.10556
-4.05897
-4.01222
-3.96514
-3.91762
-3.8696
-3.82107
-3.77203
-3.72251
-3.67255
-3.62217
-3.57144
-3.52038
-3.46903
-3.41744
-3.36564
-3.31365
-3.26152
-3.20927
-3.15692
-3.10452
-3.05207
-2.99961
-2.94717
-2.89477
-2.84244
-2.7902
-2.73809
-2.68612
-2.63433
-2.58274
-2.53138
-2.48028
-2.42946
-2.37895
-2.32877
-2.27894
-2.22951
-2.18047
-2.13187
-2.08372
-2.03605
-1.98887
-1.94221
-1.89608
-1.85051
-1.80551
-1.76109
-4.19758
-4.15405
-4.10863
-4.06156
-4.0131
-3.96347
-3.91286
-3.86146
-3.80941
-3.75686
-3.70392
-3.65069
-3.59726
-3.54368
-3.49003
-3.43634
-3.38266
-3.32903
-3.27545
-3.22198
-3.16861
-3.11537
-3.06229
-3.00936
-2.95661
-2.90406
-2.85171
-2.79958
-2.74768
-2.69603
-2.64464
-2.59353
-2.54272
-2.4922
-2.44202
-2.39217
-2.34268
-2.29355
-2.24482
-2.1965
-2.14859
-2.10112
-2.05411
-2.00757
-1.96152
-1.91597
-1.87094
-1.82644
-1.78249
-1.7391
-4.3436
-4.29227
-4.23851
-4.18267
-4.12512
-4.06618
-4.0062
-3.94547
-3.88424
-3.82275
-3.76117
-3.69966
-3.63835
-3.57734
-3.5167
-3.45649
-3.39676
-3.33755
-3.27886
-3.22072
-3.16313
-3.10609
-3.04961
-2.99368
-2.9383
-2.88345
-2.82913
-2.77533
-2.72205
-2.66927
-2.61699
-2.5652
-2.51391
-2.4631
-2.41277
-2.36293
-2.31356
-2.26468
-2.21629
-2.16838
-2.12097
-2.07405
-2.02764
-1.98175
-1.93637
-1.89152
-1.8472
-1.80343
-1.76022
-1.71756
-4.85807
-4.76092
-4.66533
-4.57101
-4.47786
-4.38592
-4.29528
-4.20607
-4.11841
-4.03241
-3.94814
-3.86565
-3.78499
-3.70615
-3.62914
-3.55391
-3.48043
-3.40866
-3.33854
-3.27
-3.203
-3.13746
-3.07332
-3.01052
-2.94898
-2.88866
-2.82949
-2.77141
-2.71438
-2.65833
-2.60322
-2.549
-2.49565
-2.4431
-2.39134
-2.34033
-2.29004
-2.24045
-2.19153
-2.14327
-2.09566
-2.04867
-2.00231
-1.95655
-1.91139
-1.86684
-1.82288
-1.77951
-1.73674
-1.69457
-5.54869
-5.39844
-5.25157
-5.10836
-4.96902
-4.8337
-4.70249
-4.57547
-4.45263
-4.33397
-4.21942
-4.10891
-4.00233
-3.89958
-3.80052
-3.70501
-3.6129
-3.52405
-3.4383
-3.3555
-3.2755
-3.19816
-3.12331
-3.05083
-2.98058
-2.91242
-2.84624
-2.78189
-2.71929
-2.65831
-2.59885
-2.54083
-2.48415
-2.42872
-2.37448
-2.32136
-2.26929
-2.21821
-2.16808
-2.11884
-2.07045
-2.02288
-1.9761
-1.93007
-1.88477
-1.84019
-1.7963
-1.75308
-1.71053
-1.66864
-5.94117
-5.77568
-5.61165
-5.44984
-5.29088
-5.13531
-4.98357
-4.836
-4.69284
-4.55428
-4.42042
-4.29129
-4.16689
-4.04719
-3.93208
-3.82146
-3.7152
-3.61313
-3.5151
-3.42093
-3.33044
-3.24345
-3.15977
-3.07922
-3.00162
-2.9268
-2.85459
-2.78483
-2.71736
-2.65203
-2.58871
-2.52726
-2.46757
-2.40951
-2.35298
-2.29789
-2.24413
-2.19163
-2.14031
-2.0901
-2.04094
-1.99278
-1.94555
-1.89922
-1.85374
-1.80908
-1.76522
-1.72211
-1.67975
-1.6381
-6.08997
-5.90907
-5.73019
-5.55418
-5.38173
-5.21344
-5.04979
-4.89114
-4.73776
-4.58981
-4.44738
-4.31048
-4.17908
-4.05306
-3.9323
-3.81662
-3.70584
-3.59976
-3.49815
-3.4008
-3.30748
-3.21797
-3.13206
-3.04952
-2.97017
-2.89379
-2.8202
-2.74923
-2.6807
-2.61446
-2.55035
-2.48824
-2.42799
-2.36948
-2.31259
-2.25723
-2.2033
-2.1507
-2.09936
-2.0492
-2.00015
-1.95216
-1.90516
-1.85911
-1.81397
-1.76968
-1.72623
-1.68357
-1.64168
-1.60054
-5.82781
-5.6478
-5.47117
-5.29848
-5.1303
-4.96709
-4.80924
-4.65703
-4.51065
-4.37018
-4.23562
-4.10688
-3.98383
-3.86627
-3.75398
-3.64671
-3.54419
-3.44616
-3.35235
-3.26248
-3.1763
-3.09357
-3.01405
-2.93752
-2.86378
-2.79263
-2.7239
-2.65742
-2.59304
-2.53061
-2.47002
-2.41114
-2.35385
-2.29806
-2.24368
-2.19062
-2.13881
-2.08817
-2.03864
-1.99015
-1.94267
-1.89614
-1.85051
-1.80575
-1.76183
-1.7187
-1.67636
-1.63476
-1.59389
-1.55374
-4.8723
-4.76376
-4.65164
-4.53759
-4.42301
-4.30909
-4.19676
-4.08674
-3.97956
-3.8756
-3.77507
-3.67809
-3.58466
-3.49472
-3.40818
-3.32487
-3.24464
-3.16731
-3.09268
-3.02057
-2.95082
-2.88324
-2.81769
-2.75402
-2.69209
-2.63178
-2.57298
-2.5156
-2.45954
-2.40472
-2.35107
-2.29852
-2.24701
-2.1965
-2.14693
-2.09826
-2.05045
-2.00347
-1.95729
-1.91188
-1.86722
-1.82328
-1.78005
-1.73751
-1.69564
-1.65444
-1.61388
-1.57396
-1.53468
-1.49602
-3.82129
-3.76625
-3.70949
-3.6515
-3.59269
-3.53342
-3.474
-3.41466
-3.35562
-3.29702
-3.23897
-3.18156
-3.12483
-3.06881
-3.0135
-2.95891
-2.90502
-2.85181
-2.79927
-2.74736
-2.69606
-2.64534
-2.5952
-2.54559
-2.49652
-2.44796
-2.3999
-2.35232
-2.30523
-2.25862
-2.21247
-2.1668
-2.12159
-2.07684
-2.03257
-1.98876
-1.94543
-1.90257
-1.86018
-1.81828
-1.77687
-1.73594
-1.69551
-1.65558
-1.61615
-1.57724
-1.53884
-1.50095
-1.4636
-1.42677
-2.21101
-2.16995
-2.12934
-2.08917
-2.04945
-2.0102
-1.97141
-1.93308
-1.89523
-1.85786
-1.82096
-1.78455
-1.74863
-1.71319
-1.67824
-1.64378
-1.60982
-1.57635
-1.54337
-1.51089
-1.4789
-1.44741
-1.41641
-1.3859
-1.35589
-1.32636
-1.29732
-1.26877
-1.2407
-1.21311
-1.18599
-1.15935
-1.13318
-1.10748
-1.08224
-1.05746
-1.03314
-1.00926
-0.985834
-0.962846
-0.940294
-0.918173
-0.896478
-0.875204
-0.854345
-0.833896
-0.813851
-0.794206
-0.774953
-0.756088
-0.737604
-0.719496
-0.701759
-0.684385
-0.66737
-0.650708
-0.634392
-0.618417
-0.602777
-0.587467
-0.57248
-0.557812
-0.543455
-0.529406
-0.515657
-0.502205
-0.489043
-0.476165
-0.463568
-0.451245
-0.439191
-0.427402
-0.415873
-0.404598
-0.393572
-0.382792
-0.372253
-0.361949
-0.351876
-0.342031
-0.332409
-0.323005
-0.313816
-0.304837
-0.296064
-0.287495
-0.279124
-0.270948
-0.262964
-0.255167
-0.247555
-0.240124
-0.232871
-0.225792
-0.218884
-0.212144
-0.205569
-0.199156
-0.192902
-0.186803
-0.180858
-0.175062
-0.169414
-0.16391
-0.158549
-0.153326
-0.14824
-0.143288
-0.138468
-0.133777
-0.129212
-0.124771
-0.120452
-0.116252
-0.112169
-0.108201
-0.104345
-0.1006
-0.0969616
-0.0934293
-0.0900004
-0.0866728
-0.0834444
-0.080313
-0.0772766
-0.0743331
-0.0714805
-0.0687167
-0.0660397
-0.0634477
-0.0609385
-0.0585104
-0.0561613
-0.0538895
-0.051693
-0.04957
-0.0475187
-0.0455374
-0.0436242
-0.0417774
-0.0399953
-0.0382762
-0.0366185
-0.0350204
-0.0334803
-0.0319968
-0.0305681
-0.0291927
-0.0278692
-0.0265959
-0.0253716
-0.0241946
-0.0230636
-0.0219772
-0.020934
-0.0199327
-0.018972
-0.0180505
-0.0171671
-0.0163204
-0.0155093
-0.0147325
-0.013989
-0.0132775
-0.012597
-0.0119464
-0.0113247
-0.0107307
-0.0101636
-0.00962226
-0.0091058
-0.00861328
-0.00814379
-0.00769645
-0.00727041
-0.00686483
-0.0064789
-0.00611185
-0.0057629
-0.00543131
-0.00511638
-0.0048174
-0.0045337
-0.00426463
-0.00400955
-0.00376786
-0.00353897
-0.00332231
-0.00311733
-0.00292348
-0.00274028
-0.00256721
-0.0024038
-0.0022496
-0.00210416
-0.00196705
-0.00183788
-0.00171624
-0.00160176
-0.00149408
-0.00139284
-0.00129773
-0.00120841
-0.00112459
-0.00104597
-0.000972269
-0.000903222
-0.000838573
-0.000778078
-0.000721505
-0.000668632
-0.000619247
-0.000573148
-0.000530144
-0.000490053
-0.000452701
-0.000417924
-0.000385564
-0.000355474
-0.000327513
-0.000301548
-0.000277452
-0.000255107
-0.000234398
-0.00021522
-0.000197472
-0.000181059
-0.000165891
-0.000151884
-0.000138958
-0.000127038
-0.000116055
-0.000105942
-9.66374e-05
-8.80829e-05
-8.02241e-05
-7.30099e-05
-6.63926e-05
-6.03276e-05
-5.47732e-05
-4.96904e-05
-4.5043e-05
-4.0797e-05
-3.6921e-05
-3.33856e-05
-3.01637e-05
-2.72298e-05
-2.45604e-05
-2.21339e-05
-1.99299e-05
-1.79299e-05
-1.61165e-05
-1.44737e-05
-1.29869e-05
-1.16423e-05
-1.04276e-05
-9.33105e-06
-8.34223e-06
-7.4513e-06
-6.64929e-06
-5.92807e-06
-5.28007e-06
-4.69839e-06
-4.17679e-06
-3.70947e-06
-3.29122e-06
-2.91723e-06
-2.58314e-06
-2.28503e-06
-2.01922e-06
-1.7825e-06
-1.57187e-06
-1.38466e-06
-1.2184e-06
-1.07093e-06
-9.40226e-07
-8.24506e-07
-7.22169e-07
-6.31712e-07
-5.51867e-07
-4.81436e-07
-4.1936e-07
-3.64684e-07
-3.16589e-07
-2.74267e-07
-2.37064e-07
-2.04366e-07
-1.7562e-07
-1.50351e-07
-1.28115e-07
-1.08519e-07
-9.1226e-08
-7.59166e-08
-6.23147e-08
-5.01582e-08
-3.92419e-08
-2.93313e-08
-2.0255e-08
-1.18486e-08
-3.90056e-09
-2.18695
-2.14717
-2.10779
-2.06882
-2.03026
-1.99211
-1.95439
-1.9171
-1.88025
-1.84383
-1.80785
-1.77231
-1.73723
-1.7026
-1.66842
-1.6347
-1.60144
-1.56864
-1.53631
-1.50443
-1.47302
-1.44208
-1.4116
-1.38158
-1.35203
-1.32295
-1.29432
-1.26615
-1.23845
-1.2112
-1.18441
-1.15807
-1.13218
-1.10673
-1.08174
-1.05718
-1.03306
-1.00937
-0.986117
-0.963287
-0.940879
-0.918889
-0.897311
-0.876142
-0.855377
-0.83501
-0.815038
-0.795455
-0.776255
-0.757435
-0.738988
-0.720909
-0.703193
-0.685835
-0.668829
-0.65217
-0.635853
-0.619871
-0.604221
-0.588895
-0.57389
-0.559199
-0.544818
-0.53074
-0.516962
-0.503477
-0.49028
-0.477367
-0.464732
-0.45237
-0.440277
-0.428448
-0.416877
-0.405561
-0.394493
-0.383671
-0.37309
-0.362744
-0.35263
-0.342744
-0.33308
-0.323636
-0.314407
-0.305389
-0.296578
-0.287971
-0.279563
-0.271352
-0.263333
-0.255502
-0.247858
-0.240395
-0.233111
-0.226002
-0.219065
-0.212298
-0.205696
-0.199257
-0.192978
-0.186856
-0.180888
-0.175071
-0.169403
-0.16388
-0.1585
-0.153261
-0.148159
-0.143192
-0.138357
-0.133652
-0.129075
-0.124622
-0.120292
-0.116083
-0.111991
-0.108014
-0.104151
-0.100398
-0.0967536
-0.0932157
-0.089782
-0.0864501
-0.083218
-0.0800836
-0.0770446
-0.0740991
-0.0712449
-0.0684801
-0.0658025
-0.0632103
-0.0607014
-0.0582738
-0.0559257
-0.0536552
-0.0514603
-0.0493393
-0.0472902
-0.0453113
-0.0434008
-0.041557
-0.039778
-0.0380622
-0.0364079
-0.0348134
-0.0332772
-0.0317975
-0.0303728
-0.0290015
-0.0276821
-0.0264131
-0.025193
-0.0240204
-0.0228938
-0.0218118
-0.020773
-0.0197762
-0.0188198
-0.0179028
-0.0170237
-0.0161814
-0.0153746
-0.0146021
-0.0138628
-0.0131555
-0.0124792
-0.0118327
-0.0112149
-0.0106249
-0.0100617
-0.00952412
-0.00901139
-0.00852251
-0.00805658
-0.00761272
-0.00719007
-0.0067878
-0.0064051
-0.00604118
-0.00569528
-0.00536665
-0.00505459
-0.00475839
-0.00447738
-0.00421092
-0.00395837
-0.00371912
-0.00349258
-0.00327818
-0.00307538
-0.00288365
-0.00270246
-0.00253134
-0.0023698
-0.00221739
-0.00207367
-0.00193821
-0.00181061
-0.00169048
-0.00157745
-0.00147114
-0.00137123
-0.00127736
-0.00118924
-0.00110656
-0.00102902
-0.000956346
-0.000888276
-0.000824554
-0.000764939
-0.000709199
-0.000657115
-0.000608476
-0.000563083
-0.000520746
-0.000481284
-0.000444525
-0.000410306
-0.000378473
-0.000348878
-0.000321382
-0.000295854
-0.000272168
-0.000250207
-0.000229858
-0.000211018
-0.000193585
-0.000177466
-0.000162573
-0.000148822
-0.000136135
-0.000124438
-0.000113662
-0.000103742
-9.4616e-05
-8.62274e-05
-7.85223e-05
-7.14506e-05
-6.4965e-05
-5.90219e-05
-5.35799e-05
-4.86009e-05
-4.40492e-05
-3.98914e-05
-3.60965e-05
-3.26356e-05
-2.94821e-05
-2.6611e-05
-2.39993e-05
-2.16254e-05
-1.94697e-05
-1.75137e-05
-1.57404e-05
-1.41343e-05
-1.26809e-05
-1.13667e-05
-1.01796e-05
-9.10823e-06
-8.14215e-06
-7.27185e-06
-6.48854e-06
-5.78419e-06
-5.15144e-06
-4.58354e-06
-4.07434e-06
-3.61819e-06
-3.20998e-06
-2.84502e-06
-2.51904e-06
-2.22815e-06
-1.96886e-06
-1.73794e-06
-1.53251e-06
-1.34992e-06
-1.1878e-06
-1.04399e-06
-9.16559e-07
-8.03737e-07
-7.03966e-07
-6.15798e-07
-5.37977e-07
-4.69326e-07
-4.08832e-07
-3.55554e-07
-3.08685e-07
-2.67454e-07
-2.31209e-07
-1.99354e-07
-1.71353e-07
-1.46743e-07
-1.25079e-07
-1.06003e-07
-8.91589e-08
-7.42392e-08
-6.0992e-08
-4.91498e-08
-3.84894e-08
-2.88163e-08
-1.99299e-08
-1.16622e-08
-3.8756e-09
-2.14255
-2.10481
-2.06741
-2.03036
-1.99366
-1.95733
-1.92136
-1.88577
-1.85055
-1.81572
-1.78127
-1.74721
-1.71356
-1.6803
-1.64744
-1.61499
-1.58295
-1.55132
-1.52011
-1.48931
-1.45894
-1.42898
-1.39944
-1.37032
-1.34162
-1.31335
-1.2855
-1.25807
-1.23106
-1.20448
-1.17831
-1.15256
-1.12723
-1.10231
-1.0778
-1.05371
-1.03002
-1.00674
-0.983868
-0.961392
-0.939313
-0.917628
-0.896333
-0.875424
-0.854899
-0.834753
-0.814982
-0.795582
-0.776548
-0.757878
-0.739565
-0.721607
-0.703997
-0.686733
-0.669808
-0.653219
-0.636961
-0.621029
-0.605418
-0.590123
-0.575141
-0.560465
-0.546092
-0.532016
-0.518234
-0.504739
-0.491528
-0.478596
-0.465938
-0.453549
-0.441426
-0.429564
-0.417958
-0.406603
-0.395496
-0.384633
-0.374008
-0.363619
-0.35346
-0.343528
-0.333819
-0.324328
-0.315053
-0.305988
-0.297132
-0.288479
-0.280026
-0.27177
-0.263707
-0.255833
-0.248146
-0.240642
-0.233318
-0.22617
-0.219195
-0.212391
-0.205754
-0.199281
-0.192969
-0.186815
-0.180817
-0.174971
-0.169275
-0.163725
-0.15832
-0.153057
-0.147933
-0.142944
-0.13809
-0.133367
-0.128772
-0.124304
-0.119959
-0.115735
-0.111631
-0.107643
-0.103769
-0.100007
-0.0963546
-0.0928095
-0.0893694
-0.0860322
-0.0827957
-0.0796576
-0.0766159
-0.0736684
-0.070813
-0.0680476
-0.0653702
-0.0627788
-0.0602713
-0.0578458
-0.0555003
-0.0532329
-0.0510416
-0.0489246
-0.04688
-0.044906
-0.0430008
-0.0411625
-0.0393894
-0.0376798
-0.036032
-0.0344442
-0.0329148
-0.0314422
-0.0300248
-0.0286609
-0.0273491
-0.0260877
-0.0248754
-0.0237105
-0.0225917
-0.0215176
-0.0204867
-0.0194977
-0.0185492
-0.01764
-0.0167687
-0.0159342
-0.015135
-0.0143702
-0.0136384
-0.0129386
-0.0122696
-0.0116303
-0.0110197
-0.0104366
-0.00988024
-0.00934945
-0.00884331
-0.00836089
-0.00790128
-0.0074636
-0.00704697
-0.00665057
-0.00627359
-0.00591523
-0.00557474
-0.00525137
-0.0049444
-0.00465315
-0.00437693
-0.0041151
-0.00386703
-0.00363211
-0.00340975
-0.00319939
-0.00300048
-0.00281248
-0.0026349
-0.00246724
-0.00230903
-0.00215981
-0.00201915
-0.00188663
-0.00176185
-0.0016444
-0.00153394
-0.00143009
-0.00133252
-0.0012409
-0.00115491
-0.00107425
-0.000998644
-0.000927808
-0.000861483
-0.000799417
-0.000741373
-0.000687123
-0.000636449
-0.000589144
-0.000545013
-0.000503868
-0.000465531
-0.000429834
-0.000396615
-0.000365724
-0.000337016
-0.000310353
-0.000285608
-0.000262657
-0.000241384
-0.000221682
-0.000203445
-0.000186578
-0.000170988
-0.000156588
-0.000143298
-0.00013104
-0.000119743
-0.000109339
-9.9765e-05
-9.09606e-05
-8.28703e-05
-7.54419e-05
-6.86264e-05
-6.23782e-05
-5.66544e-05
-5.14152e-05
-4.66234e-05
-4.22442e-05
-3.82454e-05
-3.45969e-05
-3.12707e-05
-2.82409e-05
-2.54834e-05
-2.29757e-05
-2.06973e-05
-1.86288e-05
-1.67526e-05
-1.50523e-05
-1.35127e-05
-1.212e-05
-1.0861e-05
-9.72419e-06
-8.69846e-06
-7.77386e-06
-6.94116e-06
-6.19193e-06
-5.51842e-06
-4.91356e-06
-4.37084e-06
-3.88437e-06
-3.4487e-06
-3.05893e-06
-2.71054e-06
-2.39947e-06
-2.12195e-06
-1.87463e-06
-1.65444e-06
-1.4586e-06
-1.28458e-06
-1.13012e-06
-9.93113e-07
-8.71767e-07
-7.6435e-07
-6.69368e-07
-5.85473e-07
-5.11422e-07
-4.46128e-07
-3.88596e-07
-3.37947e-07
-2.93392e-07
-2.54212e-07
-2.19774e-07
-1.89533e-07
-1.62938e-07
-1.39582e-07
-1.19021e-07
-1.00919e-07
-8.49422e-08
-7.07993e-08
-5.82186e-08
-4.69706e-08
-3.68528e-08
-2.76384e-08
-1.91667e-08
-1.12396e-08
-3.70061e-09
-2.08062
-2.04535
-2.01037
-1.97567
-1.94126
-1.90716
-1.87336
-1.83987
-1.8067
-1.77386
-1.74134
-1.70916
-1.67732
-1.64581
-1.61466
-1.58385
-1.5534
-1.5233
-1.49356
-1.46419
-1.43518
-1.40654
-1.37827
-1.35037
-1.32285
-1.29569
-1.26892
-1.24252
-1.21649
-1.19084
-1.16557
-1.14068
-1.11616
-1.09201
-1.06824
-1.04485
-1.02182
-0.99917
-0.976886
-0.95497
-0.933418
-0.91223
-0.891402
-0.870932
-0.850818
-0.831057
-0.811646
-0.792581
-0.77386
-0.755479
-0.737435
-0.719725
-0.702344
-0.68529
-0.668558
-0.652146
-0.636048
-0.620261
-0.604782
-0.589606
-0.574729
-0.560148
-0.545857
-0.531854
-0.518134
-0.504693
-0.491528
-0.478633
-0.466005
-0.45364
-0.441535
-0.429684
-0.418084
-0.406732
-0.395622
-0.384752
-0.374118
-0.363715
-0.35354
-0.34359
-0.33386
-0.324347
-0.315048
-0.305959
-0.297076
-0.288396
-0.279915
-0.271631
-0.263539
-0.255637
-0.247922
-0.240389
-0.233037
-0.225862
-0.21886
-0.212029
-0.205367
-0.198869
-0.192533
-0.186356
-0.180336
-0.174469
-0.168753
-0.163184
-0.157762
-0.152482
-0.147342
-0.142339
-0.137471
-0.132736
-0.12813
-0.123652
-0.119298
-0.115067
-0.110956
-0.106962
-0.103084
-0.0993181
-0.0956631
-0.0921164
-0.0886756
-0.0853386
-0.082103
-0.0789668
-0.0759277
-0.0729836
-0.0701324
-0.0673718
-0.0646999
-0.0621146
-0.0596138
-0.0571955
-0.0548578
-0.0525986
-0.050416
-0.0483081
-0.046273
-0.0443089
-0.0424138
-0.040586