/*--------------------------------*- C++ -*----------------------------------*\
| =========                 |                                                 |
| \\      /  F ield         | OpenFOAM: The Open Source CFD Toolbox           |
|  \\    /   O peration     | Version:  2.4.0                                 |
|   \\  /    A nd           | Web:      www.OpenFOAM.org                      |
|    \\/     M anipulation  |                                                 |
\*---------------------------------------------------------------------------*/
FoamFile
{
    version     2.0;
    format      ascii;
    class       volVectorField;
    location    "2.6";
    object      U;
}
// * * * * * * * * * * * * * * * * * * * * * * * * * * * * * * * * * * * * * //

dimensions      [0 1 -1 0 0 0 0];

internalField   nonuniform List<vector> 
8000
(
(3.15313e-07 -0.000173469 0)
(1.97161e-06 -0.000508908 0)
(4.8768e-06 -0.000832494 0)
(8.81834e-06 -0.00114397 0)
(1.36489e-05 -0.00144311 0)
(1.92404e-05 -0.00172969 0)
(2.55314e-05 -0.00200354 0)
(3.24217e-05 -0.00226445 0)
(3.98824e-05 -0.00251229 0)
(4.78178e-05 -0.00274689 0)
(5.62302e-05 -0.00296814 0)
(6.50209e-05 -0.00317591 0)
(7.42251e-05 -0.0033701 0)
(8.37316e-05 -0.0035506 0)
(9.36114e-05 -0.00371733 0)
(0.000103733 -0.00387018 0)
(0.000114204 -0.0040091 0)
(0.000124872 -0.00413397 0)
(0.000135873 -0.00424476 0)
(0.000147003 -0.00434134 0)
(0.00015847 -0.00442369 0)
(0.000169972 -0.00449168 0)
(0.000182349 -0.00454526 0)
(0.000195623 -0.00458419 0)
(0.000209506 -0.00460832 0)
(0.000215828 -0.00461801 0)
(0.000184314 -0.00461595 0)
(4.90843e-05 -0.00461515 0)
(-9.71497e-05 -0.00464801 0)
(1.43109e-06 -0.0048654 0)
(3.17374e-05 -0.00504627 0)
(3.23158e-05 -0.00521346 0)
(3.30515e-05 -0.00537114 0)
(3.37744e-05 -0.00552042 0)
(3.36654e-05 -0.00566149 0)
(3.23574e-05 -0.00579432 0)
(2.99909e-05 -0.00591886 0)
(2.67632e-05 -0.00603511 0)
(2.28249e-05 -0.00614312 0)
(1.82914e-05 -0.00624291 0)
(1.32602e-05 -0.00633454 0)
(7.81812e-06 -0.00641807 0)
(2.04178e-06 -0.00649359 0)
(-4.0018e-06 -0.00656124 0)
(-1.02548e-05 -0.00662121 0)
(-1.66676e-05 -0.00667376 0)
(-2.31986e-05 -0.00671917 0)
(-2.98126e-05 -0.00675778 0)
(-3.6481e-05 -0.00678995 0)
(-4.31805e-05 -0.00681606 0)
(1.66785e-08 -0.0001907 0)
(8.08864e-07 -0.000556411 0)
(2.55228e-06 -0.000906619 0)
(5.23102e-06 -0.00124155 0)
(8.77577e-06 -0.00156141 0)
(1.31202e-05 -0.00186637 0)
(1.82208e-05 -0.00215658 0)
(2.40319e-05 -0.00243213 0)
(3.05255e-05 -0.00269312 0)
(3.76614e-05 -0.00293961 0)
(4.54257e-05 -0.00317165 0)
(5.3781e-05 -0.00338928 0)
(6.27304e-05 -0.00359252 0)
(7.2236e-05 -0.00378141 0)
(8.23212e-05 -0.00395594 0)
(9.29433e-05 -0.00411611 0)
(0.000104154 -0.00426192 0)
(0.000115899 -0.00439335 0)
(0.000128266 -0.00451038 0)
(0.000141141 -0.00461296 0)
(0.000154614 -0.00470108 0)
(0.000168666 -0.00477467 0)
(0.000184253 -0.00483369 0)
(0.000202656 -0.00487805 0)
(0.000221377 -0.00490752 0)
(0.00022197 -0.00492213 0)
(0.000161803 -0.00492393 0)
(2.30253e-05 -0.00492029 0)
(-0.000136186 -0.00493447 0)
(-2.98458e-05 -0.00507955 0)
(2.04555e-05 -0.00520178 0)
(2.50139e-05 -0.00531728 0)
(3.38566e-05 -0.00543013 0)
(4.23473e-05 -0.00554087 0)
(4.96559e-05 -0.00564898 0)
(5.53068e-05 -0.0057537 0)
(5.94534e-05 -0.00585435 0)
(6.22833e-05 -0.0059504 0)
(6.39405e-05 -0.00604142 0)
(6.45433e-05 -0.00612704 0)
(6.42032e-05 -0.00620696 0)
(6.30273e-05 -0.00628095 0)
(6.11164e-05 -0.00634882 0)
(5.85634e-05 -0.00641046 0)
(5.54526e-05 -0.00646584 0)
(5.1859e-05 -0.006515 0)
(4.78493e-05 -0.00655802 0)
(4.34813e-05 -0.00659508 0)
(3.88056e-05 -0.00662638 0)
(3.38653e-05 -0.00665217 0)
(5.99952e-08 -0.00018721 0)
(5.12943e-07 -0.000548063 0)
(1.45102e-06 -0.000895263 0)
(2.88194e-06 -0.00122878 0)
(4.81813e-06 -0.00154859 0)
(7.26044e-06 -0.00185461 0)
(1.02302e-05 -0.00214681 0)
(1.3717e-05 -0.00242514 0)
(1.77449e-05 -0.00268954 0)
(2.2292e-05 -0.00294001 0)
(2.73892e-05 -0.00317651 0)
(3.30031e-05 -0.00339905 0)
(3.9177e-05 -0.00360764 0)
(4.58634e-05 -0.00380228 0)
(5.31246e-05 -0.00398298 0)
(6.08952e-05 -0.0041498 0)
(6.92661e-05 -0.00430274 0)
(7.81514e-05 -0.00444188 0)
(8.76716e-05 -0.00456724 0)
(9.76746e-05 -0.00467892 0)
(0.00010826 -0.00477696 0)
(0.000119381 -0.00486139 0)
(0.000132184 -0.00493224 0)
(0.000148197 -0.00498968 0)
(0.000164949 -0.00503405 0)
(0.000159459 -0.00506651 0)
(8.33472e-05 -0.00508726 0)
(-6.18362e-05 -0.00509173 0)
(-0.000236135 -0.00511532 0)
(-0.000175889 -0.00528102 0)
(-8.75714e-05 -0.00540607 0)
(-7.31465e-05 -0.00551873 0)
(-6.47061e-05 -0.00562629 0)
(-5.42826e-05 -0.00572971 0)
(-4.3259e-05 -0.00582882 0)
(-3.31765e-05 -0.00592325 0)
(-2.43188e-05 -0.00601276 0)
(-1.65579e-05 -0.0060972 0)
(-9.76286e-06 -0.00617649 0)
(-3.84714e-06 -0.00625056 0)
(1.25867e-06 -0.00631929 0)
(5.61965e-06 -0.00638259 0)
(9.29717e-06 -0.00644034 0)
(1.23465e-05 -0.00649247 0)
(1.48163e-05 -0.00653896 0)
(1.67498e-05 -0.00657981 0)
(1.81852e-05 -0.00661511 0)
(1.91564e-05 -0.00664498 0)
(1.96936e-05 -0.00666959 0)
(1.98239e-05 -0.00668916 0)
(1.12254e-07 -0.000195781 0)
(1.13063e-06 -0.000572473 0)
(3.16153e-06 -0.000934362 0)
(6.16928e-06 -0.00128151 0)
(1.00681e-05 -0.00161397 0)
(1.48103e-05 -0.0019318 0)
(2.0342e-05 -0.00223505 0)
(2.66334e-05 -0.00252379 0)
(3.36361e-05 -0.00279804 0)
(4.1331e-05 -0.00305785 0)
(4.96658e-05 -0.00330326 0)
(5.8635e-05 -0.00353432 0)
(6.81725e-05 -0.00375105 0)
(7.82911e-05 -0.00395351 0)
(8.89033e-05 -0.00414171 0)
(0.000100034 -0.00431573 0)
(0.000111593 -0.00447557 0)
(0.000123573 -0.00462132 0)
(0.000135913 -0.00475299 0)
(0.00014858 -0.00487067 0)
(0.000161423 -0.00497438 0)
(0.000174872 -0.00506423 0)
(0.000187566 -0.00514022 0)
(0.000200216 -0.00520262 0)
(0.000211883 -0.0052515 0)
(0.000232321 -0.00528682 0)
(0.000275016 -0.00530703 0)
(0.000318679 -0.00531052 0)
(0.000268995 -0.00531737 0)
(0.000176606 -0.00535235 0)
(0.000227787 -0.00547313 0)
(0.000235452 -0.00557792 0)
(0.000230599 -0.00567417 0)
(0.000224168 -0.00576514 0)
(0.000219039 -0.0058523 0)
(0.00021416 -0.00593601 0)
(0.000209094 -0.00601625 0)
(0.000203846 -0.00609286 0)
(0.000198519 -0.00616561 0)
(0.000193194 -0.00623422 0)
(0.000187915 -0.00629838 0)
(0.000182712 -0.00635778 0)
(0.000177601 -0.00641214 0)
(0.00017259 -0.00646123 0)
(0.000167678 -0.00650493 0)
(0.000162859 -0.00654316 0)
(0.000158122 -0.00657594 0)
(0.000153455 -0.00660336 0)
(0.000148844 -0.00662558 0)
(0.000144273 -0.00664278 0)
(2.97763e-08 -0.000200665 0)
(4.57131e-07 -0.000587015 0)
(1.39059e-06 -0.000958425 0)
(2.85429e-06 -0.00131486 0)
(4.8389e-06 -0.00165632 0)
(7.35452e-06 -0.00198283 0)
(1.03913e-05 -0.00229444 0)
(1.3963e-05 -0.0025912 0)
(1.80521e-05 -0.00287314 0)
(2.26764e-05 -0.0031403 0)
(2.7808e-05 -0.00339269 0)
(3.34721e-05 -0.00363031 0)
(3.96282e-05 -0.00385317 0)
(4.6312e-05 -0.00406126 0)
(5.34673e-05 -0.00425456 0)
(6.11444e-05 -0.00443304 0)
(6.92661e-05 -0.00459667 0)
(7.7908e-05 -0.00474537 0)
(8.69561e-05 -0.00487909 0)
(9.65344e-05 -0.00499774 0)
(0.000106434 -0.00510121 0)
(0.000116801 -0.00518943 0)
(0.000127472 -0.00526231 0)
(0.000139249 -0.00531971 0)
(0.000153266 -0.00536135 0)
(0.000167075 -0.00538638 0)
(0.000165035 -0.00539509 0)
(0.000112513 -0.00538979 0)
(-7.01437e-06 -0.00538303 0)
(-0.0001341 -0.00537127 0)
(-7.37689e-05 -0.00545627 0)
(-1.33432e-05 -0.00555022 0)
(-7.95778e-06 -0.00563803 0)
(8.25267e-07 -0.00572062 0)
(1.08595e-05 -0.00580047 0)
(2.03681e-05 -0.00587836 0)
(2.90124e-05 -0.00595432 0)
(3.68639e-05 -0.0060281 0)
(4.40297e-05 -0.00609931 0)
(5.05777e-05 -0.00616743 0)
(5.6552e-05 -0.00623192 0)
(6.19919e-05 -0.00629225 0)
(6.6935e-05 -0.00634795 0)
(7.14157e-05 -0.00639863 0)
(7.54642e-05 -0.00644404 0)
(7.91069e-05 -0.006484 0)
(8.23661e-05 -0.00651846 0)
(8.52609e-05 -0.00654747 0)
(8.78074e-05 -0.00657114 0)
(9.00192e-05 -0.00658963 0)
(4.20012e-08 -0.0002018 0)
(4.17184e-07 -0.00059086 0)
(1.2045e-06 -0.00096543 0)
(2.41136e-06 -0.00132549 0)
(4.04093e-06 -0.00167101 0)
(6.11038e-06 -0.00200198 0)
(8.62426e-06 -0.0023184 0)
(1.16074e-05 -0.00262029 0)
(1.50575e-05 -0.00290765 0)
(1.90038e-05 -0.00318051 0)
(2.34375e-05 -0.00343887 0)
(2.8396e-05 -0.00368276 0)
(3.38636e-05 -0.0039122 0)
(3.98895e-05 -0.0041272 0)
(4.64492e-05 -0.00432779 0)
(5.36091e-05 -0.00451398 0)
(6.13337e-05 -0.00468581 0)
(6.9715e-05 -0.00484331 0)
(7.87066e-05 -0.00498651 0)
(8.84276e-05 -0.00511543 0)
(9.87642e-05 -0.00523015 0)
(0.000109789 -0.00533068 0)
(0.000121507 -0.00541713 0)
(0.000135279 -0.00548952 0)
(0.000153341 -0.00554804 0)
(0.000173268 -0.00559279 0)
(0.000165198 -0.00562364 0)
(7.38478e-05 -0.00563998 0)
(-7.53687e-05 -0.0056429 0)
(-0.000191895 -0.00564779 0)
(-0.000214048 -0.00570853 0)
(-8.42938e-05 -0.00580671 0)
(-7.40084e-05 -0.00589176 0)
(-6.6596e-05 -0.00597034 0)
(-5.57604e-05 -0.0060446 0)
(-4.31744e-05 -0.00611555 0)
(-3.09567e-05 -0.00618336 0)
(-1.94927e-05 -0.00624796 0)
(-8.68836e-06 -0.00630919 0)
(1.53494e-06 -0.00636682 0)
(1.11974e-05 -0.00642054 0)
(2.03051e-05 -0.00647004 0)
(2.88694e-05 -0.00651501 0)
(3.69065e-05 -0.00655517 0)
(4.44347e-05 -0.00659034 0)
(5.14721e-05 -0.00662039 0)
(5.8036e-05 -0.00664529 0)
(6.41424e-05 -0.00666508 0)
(6.98056e-05 -0.00667986 0)
(7.50385e-05 -0.00668981 0)
(3.97492e-08 -0.000205417 0)
(4.50952e-07 -0.000601542 0)
(1.32152e-06 -0.000983012 0)
(2.64778e-06 -0.00134984 0)
(4.43708e-06 -0.00170205 0)
(6.67863e-06 -0.00203966 0)
(9.39339e-06 -0.0023627 0)
(1.2569e-05 -0.00267119 0)
(1.62345e-05 -0.00296517 0)
(2.03679e-05 -0.00324467 0)
(2.50087e-05 -0.0035097 0)
(3.01226e-05 -0.0037603 0)
(3.57633e-05 -0.00399649 0)
(4.18801e-05 -0.00421829 0)
(4.85445e-05 -0.00442575 0)
(5.56853e-05 -0.00461886 0)
(6.33963e-05 -0.00479768 0)
(7.15783e-05 -0.00496221 0)
(8.03604e-05 -0.00511251 0)
(8.95939e-05 -0.00524858 0)
(9.94743e-05 -0.00537047 0)
(0.000109735 -0.00547817 0)
(0.000120619 -0.00557177 0)
(0.000131895 -0.00565125 0)
(0.000144409 -0.00571678 0)
(0.000159184 -0.00576844 0)
(0.000173413 -0.00580603 0)
(0.000172172 -0.00582744 0)
(0.000126826 -0.00582973 0)
(1.89995e-05 -0.0058347 0)
(-8.18586e-05 -0.00584097 0)
(-3.85589e-05 -0.00592304 0)
(1.88634e-05 -0.00599513 0)
(1.92205e-05 -0.00606152 0)
(2.6254e-05 -0.00612468 0)
(3.45524e-05 -0.00618623 0)
(4.30598e-05 -0.00624629 0)
(5.10875e-05 -0.00630449 0)
(5.86702e-05 -0.00636036 0)
(6.58777e-05 -0.00641344 0)
(7.27466e-05 -0.00646325 0)
(7.92934e-05 -0.00650934 0)
(8.5531e-05 -0.00655131 0)
(9.14733e-05 -0.0065888 0)
(9.7133e-05 -0.00662153 0)
(0.000102521 -0.00664932 0)
(0.000107645 -0.00667209 0)
(0.00011251 -0.00668981 0)
(0.000117119 -0.00670256 0)
(0.000121472 -0.00671046 0)
(3.20377e-08 -0.000207269 0)
(4.04321e-07 -0.000607403 0)
(1.20142e-06 -0.000993143 0)
(2.42451e-06 -0.00136448 0)
(4.0739e-06 -0.00172141 0)
(6.14535e-06 -0.00206393 0)
(8.64896e-06 -0.00239205 0)
(1.15832e-05 -0.00270578 0)
(1.4962e-05 -0.00300513 0)
(1.87803e-05 -0.00329012 0)
(2.30566e-05 -0.00356077 0)
(2.7781e-05 -0.00381709 0)
(3.29783e-05 -0.00405909 0)
(3.86317e-05 -0.0042868 0)
(4.47743e-05 -0.00450022 0)
(5.13799e-05 -0.0046994 0)
(5.84925e-05 -0.00488431 0)
(6.60727e-05 -0.00505502 0)
(7.41818e-05 -0.0052115 0)
(8.27652e-05 -0.00535381 0)
(9.19006e-05 -0.00548193 0)
(0.000101462 -0.00559591 0)
(0.000111475 -0.00569572 0)
(0.00012191 -0.00578144 0)
(0.000133981 -0.00585301 0)
(0.000149719 -0.00591056 0)
(0.000166795 -0.00595408 0)
(0.000157384 -0.0059833 0)
(6.98021e-05 -0.00599761 0)
(-7.22239e-05 -0.00599908 0)
(-0.000182409 -0.00600198 0)
(-0.000213613 -0.00605039 0)
(-9.15988e-05 -0.00613447 0)
(-8.27292e-05 -0.00620635 0)
(-7.77429e-05 -0.00627207 0)
(-6.90216e-05 -0.00633357 0)
(-5.81512e-05 -0.00639202 0)
(-4.72586e-05 -0.00644754 0)
(-3.67756e-05 -0.00649997 0)
(-2.66318e-05 -0.00654907 0)
(-1.6761e-05 -0.00659458 0)
(-7.15385e-06 -0.00663619 0)
(2.1838e-06 -0.0066736 0)
(1.12491e-05 -0.00670652 0)
(2.00424e-05 -0.00673471 0)
(2.85647e-05 -0.006758 0)
(3.68154e-05 -0.00677629 0)
(4.47928e-05 -0.00678955 0)
(5.24931e-05 -0.00679784 0)
(5.99116e-05 -0.00680127 0)
(4.38798e-08 -0.000210585 0)
(3.74022e-07 -0.000617085 0)
(1.04094e-06 -0.00100897 0)
(2.04723e-06 -0.00138628 0)
(3.38887e-06 -0.00174906 0)
(5.07975e-06 -0.00209736 0)
(7.11719e-06 -0.00243122 0)
(9.5229e-06 -0.00275066 0)
(1.22869e-05 -0.00305572 0)
(1.54366e-05 -0.00334643 0)
(1.89535e-05 -0.00362283 0)
(2.28735e-05 -0.00388494 0)
(2.71675e-05 -0.00413279 0)
(3.18831e-05 -0.00436641 0)
(3.69777e-05 -0.00458581 0)
(4.25144e-05 -0.00479104 0)
(4.84329e-05 -0.00498211 0)
(5.48178e-05 -0.00515906 0)
(6.15827e-05 -0.00532189 0)
(6.88494e-05 -0.00547065 0)
(7.6486e-05 -0.00560534 0)
(8.46726e-05 -0.005726 0)
(9.31889e-05 -0.00583264 0)
(0.00010222 -0.00592529 0)
(0.000111687 -0.00600396 0)
(0.000122307 -0.00606879 0)
(0.000134974 -0.00611985 0)
(0.000146785 -0.00615694 0)
(0.000143486 -0.00617812 0)
(0.000100084 -0.00618097 0)
(-5.15047e-07 -0.00618485 0)
(-0.000100037 -0.00619186 0)
(-5.13074e-05 -0.00626711 0)
(-4.32211e-06 -0.00633624 0)
(-4.44546e-06 -0.00639745 0)
(4.90372e-06 -0.00645429 0)
(1.37826e-05 -0.00650857 0)
(2.26768e-05 -0.0065605 0)
(3.13494e-05 -0.00660978 0)
(3.98435e-05 -0.00665604 0)
(4.81744e-05 -0.00669891 0)
(5.63362e-05 -0.00673804 0)
(6.4318e-05 -0.00677306 0)
(7.21126e-05 -0.00680368 0)
(7.97152e-05 -0.0068296 0)
(8.71216e-05 -0.00685063 0)
(9.43273e-05 -0.00686662 0)
(0.000101327 -0.00687753 0)
(0.000108114 -0.00688338 0)
(0.000114679 -0.00688426 0)
(-6.8755e-09 -0.000211091 0)
(1.54803e-07 -0.000619118 0)
(5.67122e-07 -0.00101296 0)
(1.2539e-06 -0.00139261 0)
(2.22177e-06 -0.00175806 0)
(3.48102e-06 -0.0021093 0)
(5.03663e-06 -0.00244633 0)
(6.90189e-06 -0.00276914 0)
(9.07924e-06 -0.00307776 0)
(1.15832e-05 -0.00337217 0)
(1.44128e-05 -0.00365239 0)
(1.7585e-05 -0.00391843 0)
(2.10948e-05 -0.00417031 0)
(2.49633e-05 -0.00440804 0)
(2.91802e-05 -0.00463165 0)
(3.37729e-05 -0.00484115 0)
(3.87238e-05 -0.00503657 0)
(4.40693e-05 -0.00521792 0)
(4.97825e-05 -0.00538525 0)
(5.59137e-05 -0.00553856 0)
(6.24263e-05 -0.00567792 0)
(6.93837e-05 -0.00580331 0)
(7.66921e-05 -0.00591481 0)
(8.437e-05 -0.00601241 0)
(9.24198e-05 -0.00609619 0)
(0.000101897 -0.00616614 0)
(0.000114566 -0.00622241 0)
(0.000128208 -0.00626509 0)
(0.0001187 -0.00629412 0)
(4.09005e-05 -0.00630923 0)
(-8.76548e-05 -0.00631203 0)
(-0.00020049 -0.00631675 0)
(-0.000226599 -0.00634281 0)
(-0.000117146 -0.00643006 0)
(-0.000105204 -0.00650119 0)
(-9.99853e-05 -0.0065635 0)
(-9.16951e-05 -0.00662042 0)
(-8.10485e-05 -0.00667344 0)
(-7.00348e-05 -0.00672281 0)
(-5.91778e-05 -0.00676837 0)
(-4.8472e-05 -0.00680992 0)
(-3.78817e-05 -0.00684724 0)
(-2.74178e-05 -0.00688011 0)
(-1.71055e-05 -0.00690831 0)
(-6.96581e-06 -0.00693163 0)
(2.98566e-06 -0.0069499 0)
(1.27361e-05 -0.00696301 0)
(2.22738e-05 -0.00697092 0)
(3.15872e-05 -0.00697366 0)
(4.06646e-05 -0.00697133 0)
(7.60717e-08 -0.000213567 0)
(5.60906e-07 -0.000626362 0)
(1.48241e-06 -0.00102483 0)
(2.8075e-06 -0.00140899 0)
(4.51636e-06 -0.00177889 0)
(6.58907e-06 -0.00213454 0)
(9.02557e-06 -0.00247598 0)
(1.18091e-05 -0.00280321 0)
(1.49473e-05 -0.00311627 0)
(1.84204e-05 -0.00341517 0)
(2.22439e-05 -0.00369994 0)
(2.63925e-05 -0.0039706 0)
(3.08904e-05 -0.00422718 0)
(3.57035e-05 -0.0044697 0)
(4.08665e-05 -0.00469819 0)
(4.6332e-05 -0.00491267 0)
(5.21473e-05 -0.00511319 0)
(5.8248e-05 -0.00529976 0)
(6.4695e-05 -0.00547243 0)
(7.14026e-05 -0.00563122 0)
(7.8451e-05 -0.00577619 0)
(8.57158e-05 -0.00590737 0)
(9.33288e-05 -0.00602481 0)
(0.00010106 -0.00612854 0)
(0.000109118 -0.00621865 0)
(0.000117188 -0.00629517 0)
(0.000125833 -0.00635826 0)
(0.000135735 -0.00640808 0)
(0.000145076 -0.00644455 0)
(0.000145413 -0.00646606 0)
(0.000117081 -0.00647124 0)
(2.27837e-05 -0.00647513 0)
(-7.10487e-05 -0.00648721 0)
(-1.90856e-05 -0.00657362 0)
(1.38402e-05 -0.00664627 0)
(1.68787e-05 -0.00670946 0)
(2.1842e-05 -0.00676676 0)
(2.79509e-05 -0.00681986 0)
(3.44431e-05 -0.00686903 0)
(4.08698e-05 -0.00691411 0)
(4.72489e-05 -0.00695487 0)
(5.36093e-05 -0.00699111 0)
(5.99617e-05 -0.00702264 0)
(6.63032e-05 -0.00704928 0)
(7.26264e-05 -0.00707083 0)
(7.89229e-05 -0.00708716 0)
(8.51831e-05 -0.00709816 0)
(9.13956e-05 -0.0071038 0)
(9.75474e-05 -0.00710409 0)
(0.000103624 -0.00709912 0)
(-1.849e-08 -0.000216625 0)
(-2.23651e-08 -0.000635138 0)
(4.21985e-08 -0.001039 0)
(2.03535e-07 -0.00142829 0)
(4.80603e-07 -0.00180308 0)
(8.89708e-07 -0.00216342 0)
(1.44427e-06 -0.00250935 0)
(2.15693e-06 -0.00284091 0)
(3.03881e-06 -0.00315814 0)
(4.09959e-06 -0.00346107 0)
(5.3487e-06 -0.00374972 0)
(6.79319e-06 -0.00402413 0)
(8.44176e-06 -0.0042843 0)
(1.02988e-05 -0.00453026 0)
(1.23733e-05 -0.004762 0)
(1.46666e-05 -0.00497954 0)
(1.71897e-05 -0.00518287 0)
(1.99398e-05 -0.00537199 0)
(2.29315e-05 -0.00554688 0)
(2.61564e-05 -0.00570752 0)
(2.96373e-05 -0.00585388 0)
(3.33578e-05 -0.00598593 0)
(3.73496e-05 -0.0061036 0)
(4.15587e-05 -0.00620686 0)
(4.5994e-05 -0.00629563 0)
(5.06746e-05 -0.00636982 0)
(5.62336e-05 -0.00642932 0)
(6.36718e-05 -0.00647395 0)
(7.11609e-05 -0.00650344 0)
(6.48542e-05 -0.00651761 0)
(1.42661e-05 -0.00651817 0)
(-8.20748e-05 -0.00651213 0)
(-0.000219699 -0.00651773 0)
(-0.000166745 -0.00660268 0)
(-0.000111374 -0.00667274 0)
(-0.000101173 -0.00673398 0)
(-9.58388e-05 -0.00679002 0)
(-8.81173e-05 -0.00684244 0)
(-7.87261e-05 -0.00689141 0)
(-6.8891e-05 -0.00693668 0)
(-5.89772e-05 -0.00697794 0)
(-4.90185e-05 -0.00701493 0)
(-3.90279e-05 -0.00704737 0)
(-2.90446e-05 -0.00707499 0)
(-1.91137e-05 -0.00709756 0)
(-9.2748e-06 -0.00711486 0)
(4.38714e-07 -0.00712673 0)
(9.99823e-06 -0.0071331 0)
(1.93787e-05 -0.00713396 0)
(2.85582e-05 -0.00712937 0)
(-1.2279e-08 -0.00021407 0)
(-9.42244e-08 -0.000628473 0)
(-2.22687e-07 -0.00102909 0)
(-3.724e-07 -0.00141591 0)
(-5.13507e-07 -0.00178889 0)
(-6.23559e-07 -0.00214802 0)
(-6.7774e-07 -0.00249325 0)
(-6.59159e-07 -0.00282459 0)
(-5.45189e-07 -0.00314201 0)
(-3.22736e-07 -0.00344552 0)
(3.03573e-08 -0.00373511 0)
(5.23933e-07 -0.00401079 0)
(1.18136e-06 -0.00427255 0)
(2.00984e-06 -0.00452043 0)
(3.03583e-06 -0.00475442 0)
(4.26435e-06 -0.00497454 0)
(5.72712e-06 -0.00518082 0)
(7.4273e-06 -0.00537329 0)
(9.40444e-06 -0.00555197 0)
(1.16603e-05 -0.0057169 0)
(1.4247e-05 -0.00586812 0)
(1.71671e-05 -0.00600567 0)
(2.04844e-05 -0.0061296 0)
(2.41647e-05 -0.00623998 0)
(2.82325e-05 -0.00633687 0)
(3.27663e-05 -0.00642035 0)
(3.86895e-05 -0.00649051 0)
(4.76167e-05 -0.00654746 0)
(5.75277e-05 -0.00659135 0)
(4.74672e-05 -0.00662204 0)
(-2.09557e-05 -0.00663935 0)
(-0.000132645 -0.00664199 0)
(-0.000250627 -0.00664981 0)
(-0.000285523 -0.00675058 0)
(-0.000166249 -0.00683857 0)
(-0.000153521 -0.00691659 0)
(-0.000149081 -0.00698578 0)
(-0.000141399 -0.00704811 0)
(-0.000130871 -0.00710429 0)
(-0.000119717 -0.00715443 0)
(-0.000108574 -0.00719852 0)
(-9.74657e-05 -0.00723656 0)
(-8.63686e-05 -0.00726853 0)
(-7.53065e-05 -0.00729442 0)
(-6.43196e-05 -0.00731421 0)
(-5.34441e-05 -0.00732788 0)
(-4.27098e-05 -0.00733545 0)
(-3.21423e-05 -0.00733698 0)
(-2.1765e-05 -0.00733257 0)
(-1.15995e-05 -0.00732238 0)
(3.18491e-08 -0.00021538 0)
(2.92657e-07 -0.000632287 0)
(8.04861e-07 -0.00103532 0)
(1.55717e-06 -0.00142449 0)
(2.53245e-06 -0.00179977 0)
(3.72291e-06 -0.00216118 0)
(5.11948e-06 -0.00250871 0)
(6.72193e-06 -0.00284236 0)
(8.52124e-06 -0.00316214 0)
(1.05211e-05 -0.00346804 0)
(1.27109e-05 -0.00376009 0)
(1.50981e-05 -0.00403829 0)
(1.76693e-05 -0.00430265 0)
(2.04361e-05 -0.0045532 0)
(2.33802e-05 -0.00478996 0)
(2.65176e-05 -0.00501294 0)
(2.98231e-05 -0.00522219 0)
(3.33189e-05 -0.00541772 0)
(3.69679e-05 -0.00559958 0)
(4.08032e-05 -0.00576781 0)
(4.47675e-05 -0.00592245 0)
(4.89121e-05 -0.00606355 0)
(5.31567e-05 -0.00619116 0)
(5.75495e-05 -0.00630536 0)
(6.20073e-05 -0.0064062 0)
(6.65263e-05 -0.00649376 0)
(7.12015e-05 -0.00656811 0)
(7.63001e-05 -0.00662943 0)
(8.13689e-05 -0.00667789 0)
(8.48836e-05 -0.00671353 0)
(8.21988e-05 -0.00673494 0)
(6.66196e-05 -0.00673919 0)
(-2.05916e-05 -0.00674575 0)
(-0.000131551 -0.00682339 0)
(-1.65871e-05 -0.00690909 0)
(-2.69264e-05 -0.00698389 0)
(-2.44306e-05 -0.00705028 0)
(-2.0623e-05 -0.00711037 0)
(-1.59814e-05 -0.00716484 0)
(-1.14679e-05 -0.00721374 0)
(-6.9581e-06 -0.00725699 0)
(-2.39852e-06 -0.00729454 0)
(2.23361e-06 -0.00732634 0)
(6.94383e-06 -0.0073523 0)
(1.17335e-05 -0.00737233 0)
(1.66012e-05 -0.00738635 0)
(2.15413e-05 -0.00739428 0)
(2.65444e-05 -0.00739612 0)
(3.15973e-05 -0.0073919 0)
(3.66841e-05 -0.00738173 0)
(2.0081e-08 -0.000217391 0)
(2.37126e-07 -0.000638065 0)
(6.82675e-07 -0.00104464 0)
(1.3503e-06 -0.00143714 0)
(2.22574e-06 -0.00181559 0)
(3.29797e-06 -0.00218 0)
(4.55759e-06 -0.0025304 0)
(5.99711e-06 -0.00286678 0)
(7.60721e-06 -0.00318916 0)
(9.38097e-06 -0.00349756 0)
(1.13084e-05 -0.00379198 0)
(1.3383e-05 -0.00407243 0)
(1.55936e-05 -0.00433892 0)
(1.79342e-05 -0.00459146 0)
(2.03916e-05 -0.00483005 0)
(2.29604e-05 -0.0050547 0)
(2.56243e-05 -0.00526542 0)
(2.83788e-05 -0.0054622 0)
(3.1203e-05 -0.00564505 0)
(3.4094e-05 -0.00581396 0)
(3.70243e-05 -0.00596894 0)
(3.99941e-05 -0.00610997 0)
(4.2968e-05 -0.00623705 0)
(4.59464e-05 -0.00635014 0)
(4.8873e-05 -0.00644925 0)
(5.17433e-05 -0.00653432 0)
(5.45382e-05 -0.00660533 0)
(5.75274e-05 -0.00666224 0)
(6.09291e-05 -0.00670503 0)
(6.34562e-05 -0.00673371 0)
(6.0262e-05 -0.00674819 0)
(3.32367e-05 -0.00674994 0)
(-7.04279e-05 -0.00674784 0)
(-0.000244928 -0.00684789 0)
(-8.63382e-05 -0.0069408 0)
(-9.11857e-05 -0.0070196 0)
(-9.34617e-05 -0.00708979 0)
(-9.14903e-05 -0.00715349 0)
(-8.64172e-05 -0.00721126 0)
(-8.0824e-05 -0.00726317 0)
(-7.51758e-05 -0.0073092 0)
(-6.94082e-05 -0.00734934 0)
(-6.34727e-05 -0.00738354 0)
(-5.73906e-05 -0.00741172 0)
(-5.12024e-05 -0.00743378 0)
(-4.49456e-05 -0.00744958 0)
(-3.86525e-05 -0.00745906 0)
(-3.23526e-05 -0.00746217 0)
(-2.60726e-05 -0.00745894 0)
(-1.98375e-05 -0.00744948 0)
(1.52731e-08 -0.000218383 0)
(1.60769e-07 -0.00064104 0)
(4.62484e-07 -0.00104958 0)
(9.18445e-07 -0.00144401 0)
(1.52196e-06 -0.00182433 0)
(2.26777e-06 -0.00219055 0)
(3.14988e-06 -0.00254268 0)
(4.16281e-06 -0.00288071 0)
(5.29907e-06 -0.00320466 0)
(6.55224e-06 -0.00351454 0)
(7.91348e-06 -0.00381034 0)
(9.37621e-06 -0.00409208 0)
(1.09305e-05 -0.00435977 0)
(1.25702e-05 -0.00461341 0)
(1.42845e-05 -0.00485301 0)
(1.60685e-05 -0.00507859 0)
(1.79105e-05 -0.00529014 0)
(1.98079e-05 -0.00548769 0)
(2.1748e-05 -0.00567124 0)
(2.37318e-05 -0.00584081 0)
(2.57458e-05 -0.00599641 0)
(2.77968e-05 -0.00613805 0)
(2.98705e-05 -0.00626575 0)
(3.19796e-05 -0.00637952 0)
(3.40964e-05 -0.00647939 0)
(3.62317e-05 -0.00656536 0)
(3.84182e-05 -0.00663747 0)
(4.09717e-05 -0.00669574 0)
(4.42809e-05 -0.00674019 0)
(4.69027e-05 -0.00677085 0)
(4.32441e-05 -0.00678777 0)
(1.33098e-05 -0.00679296 0)
(-9.28967e-05 -0.00679249 0)
(-0.000278308 -0.00690479 0)
(-0.000110302 -0.00700246 0)
(-0.000112836 -0.00708739 0)
(-0.000115134 -0.00716333 0)
(-0.000112957 -0.0072321 0)
(-0.000107338 -0.00729423 0)
(-0.0001011 -0.00734972 0)
(-9.4823e-05 -0.00739855 0)
(-8.84627e-05 -0.0074407 0)
(-8.19763e-05 -0.00747616 0)
(-7.53951e-05 -0.00750492 0)
(-6.87717e-05 -0.00752691 0)
(-6.21537e-05 -0.00754209 0)
(-5.5581e-05 -0.00755046 0)
(-4.90879e-05 -0.00755205 0)
(-4.27042e-05 -0.00754696 0)
(-3.64558e-05 -0.00753535 0)
(2.43992e-08 -0.000219275 0)
(2.82827e-07 -0.000643727 0)
(8.05146e-07 -0.00105406 0)
(1.57686e-06 -0.00145026 0)
(2.57383e-06 -0.00183231 0)
(3.77702e-06 -0.00220021 0)
(5.16907e-06 -0.00255394 0)
(6.73542e-06 -0.00289349 0)
(8.45999e-06 -0.00321888 0)
(1.03292e-05 -0.00353009 0)
(1.23273e-05 -0.00382713 0)
(1.44415e-05 -0.00411 0)
(1.66557e-05 -0.00437871 0)
(1.89577e-05 -0.00463326 0)
(2.13305e-05 -0.00487366 0)
(2.3762e-05 -0.00509993 0)
(2.62337e-05 -0.00531207 0)
(2.8733e-05 -0.0055101 0)
(3.12395e-05 -0.00569405 0)
(3.37396e-05 -0.00586392 0)
(3.62102e-05 -0.00601975 0)
(3.86365e-05 -0.00616155 0)
(4.09919e-05 -0.00628936 0)
(4.32571e-05 -0.00640322 0)
(4.5391e-05 -0.00650316 0)
(4.73598e-05 -0.00658922 0)
(4.91728e-05 -0.00666146 0)
(5.10383e-05 -0.00671993 0)
(5.32461e-05 -0.00676473 0)
(5.4325e-05 -0.00679593 0)
(4.96676e-05 -0.00681363 0)
(2.05965e-05 -0.00681993 0)
(-8.67711e-05 -0.00682022 0)
(-0.000276404 -0.00694107 0)
(-0.000108841 -0.00704579 0)
(-0.000114731 -0.00713727 0)
(-0.000119512 -0.00721896 0)
(-0.000119636 -0.00729269 0)
(-0.000116219 -0.007359 0)
(-0.000112124 -0.00741796 0)
(-0.000107924 -0.00746955 0)
(-0.000103576 -0.00751381 0)
(-9.90399e-05 -0.00755077 0)
(-9.43496e-05 -0.00758044 0)
(-8.95601e-05 -0.00760282 0)
(-8.47211e-05 -0.00761791 0)
(-7.98746e-05 -0.00762575 0)
(-7.50572e-05 -0.0076264 0)
(-7.03011e-05 -0.00762002 0)
(-6.56344e-05 -0.0076068 0)
(3.81578e-08 -0.000222056 0)
(2.84956e-07 -0.000651502 0)
(7.49068e-07 -0.00106633 0)
(1.40932e-06 -0.00146657 0)
(2.24634e-06 -0.00185225 0)
(3.24326e-06 -0.00222342 0)
(4.38837e-06 -0.00258009 0)
(5.66638e-06 -0.00292229 0)
(7.06698e-06 -0.00325003 0)
(8.57376e-06 -0.00356332 0)
(1.01777e-05 -0.00386219 0)
(1.18611e-05 -0.00414663 0)
(1.36163e-05 -0.00441667 0)
(1.54236e-05 -0.00467229 0)
(1.72772e-05 -0.0049135 0)
(1.91544e-05 -0.00514031 0)
(2.10517e-05 -0.00535271 0)
(2.29422e-05 -0.00555069 0)
(2.48253e-05 -0.00573424 0)
(2.66686e-05 -0.00590336 0)
(2.84754e-05 -0.00605801 0)
(3.02057e-05 -0.00619819 0)
(3.1868e-05 -0.00632386 0)
(3.34091e-05 -0.00643499 0)
(3.48389e-05 -0.00653154 0)
(3.60915e-05 -0.00661348 0)
(3.72394e-05 -0.00668073 0)
(3.83356e-05 -0.0067332 0)
(3.94448e-05 -0.0067707 0)
(3.91892e-05 -0.00679331 0)
(3.52592e-05 -0.00680209 0)
(1.99663e-05 -0.00680245 0)
(-7.89102e-05 -0.00679479 0)
(-0.000228693 -0.00692088 0)
(-8.92345e-05 -0.00703487 0)
(-9.52499e-05 -0.00713456 0)
(-9.99611e-05 -0.00722403 0)
(-0.000100535 -0.00730496 0)
(-9.80545e-05 -0.00737773 0)
(-9.49776e-05 -0.00744229 0)
(-9.18172e-05 -0.00749861 0)
(-8.85604e-05 -0.00754672 0)
(-8.51942e-05 -0.00758673 0)
(-8.17652e-05 -0.00761869 0)
(-7.83331e-05 -0.00764268 0)
(-7.49493e-05 -0.00765878 0)
(-7.16553e-05 -0.00766708 0)
(-6.84851e-05 -0.00766772 0)
(-6.54667e-05 -0.00766093 0)
(-6.26225e-05 -0.00764694 0)
(-2.69295e-08 -0.000222132 0)
(-1.22455e-07 -0.000651894 0)
(-2.55615e-07 -0.00106716 0)
(-4.0355e-07 -0.00146792 0)
(-5.53037e-07 -0.00185418 0)
(-6.95519e-07 -0.00222593 0)
(-8.28234e-07 -0.00258318 0)
(-9.48442e-07 -0.00292593 0)
(-1.05849e-06 -0.00325417 0)
(-1.15887e-06 -0.00356792 0)
(-1.25579e-06 -0.00386716 0)
(-1.35136e-06 -0.00415191 0)
(-1.45442e-06 -0.00442216 0)
(-1.56697e-06 -0.00467792 0)
(-1.6994e-06 -0.00491918 0)
(-1.85188e-06 -0.00514596 0)
(-2.03543e-06 -0.00535826 0)
(-2.24646e-06 -0.00555608 0)
(-2.49596e-06 -0.00573942 0)
(-2.77409e-06 -0.00590829 0)
(-3.09001e-06 -0.00606268 0)
(-3.42307e-06 -0.00620261 0)
(-3.78512e-06 -0.00632806 0)
(-4.17119e-06 -0.00643904 0)
(-4.64057e-06 -0.00653556 0)
(-5.07064e-06 -0.0066176 0)
(-4.80057e-06 -0.00668515 0)
(-2.46625e-06 -0.0067382 0)
(6.61729e-09 -0.00677665 0)
(-1.48368e-05 -0.00680065 0)
(-7.71588e-05 -0.00681119 0)
(-0.000173747 -0.0068115 0)
(-0.000299133 -0.00681267 0)
(-0.000323392 -0.00694278 0)
(-0.000216582 -0.00706491 0)
(-0.000203325 -0.0071724 0)
(-0.000201031 -0.00726829 0)
(-0.00019662 -0.00735399 0)
(-0.000189777 -0.00743004 0)
(-0.000182539 -0.00749655 0)
(-0.000175576 -0.00755364 0)
(-0.000168937 -0.00760152 0)
(-0.000162594 -0.00764041 0)
(-0.000156567 -0.00767053 0)
(-0.000150892 -0.00769207 0)
(-0.000145603 -0.00770522 0)
(-0.000140721 -0.00771018 0)
(-0.000136264 -0.00770719 0)
(-0.00013224 -0.00769655 0)
(-0.000128654 -0.00767858 0)
(3.64441e-08 -0.000221295 0)
(3.1866e-07 -0.000649788 0)
(8.71866e-07 -0.0010641 0)
(1.67783e-06 -0.00146416 0)
(2.71253e-06 -0.0018499 0)
(3.95644e-06 -0.00222127 0)
(5.38938e-06 -0.00257821 0)
(6.99318e-06 -0.00292069 0)
(8.74558e-06 -0.00324868 0)
(1.06279e-05 -0.00356214 0)
(1.26158e-05 -0.00386108 0)
(1.46915e-05 -0.00414546 0)
(1.68286e-05 -0.00441529 0)
(1.90112e-05 -0.00467058 0)
(2.12109e-05 -0.00491131 0)
(2.34147e-05 -0.00513751 0)
(2.55914e-05 -0.0053492 0)
(2.77332e-05 -0.00554641 0)
(2.98047e-05 -0.00572915 0)
(3.18053e-05 -0.00589748 0)
(3.36945e-05 -0.00605143 0)
(3.54832e-05 -0.00619107 0)
(3.71186e-05 -0.00631643 0)
(3.86075e-05 -0.00642761 0)
(3.98576e-05 -0.00652466 0)
(4.09824e-05 -0.00660767 0)
(4.23397e-05 -0.00667672 0)
(4.47391e-05 -0.0067319 0)
(4.61783e-05 -0.00677344 0)
(3.6743e-05 -0.00680203 0)
(-9.52709e-06 -0.00682117 0)
(-0.000102622 -0.00682501 0)
(-0.000302802 -0.00697845 0)
(-0.000133803 -0.00709601 0)
(-0.000132768 -0.00720738 0)
(-0.000135918 -0.0073086 0)
(-0.000135856 -0.00739983 0)
(-0.00013283 -0.00748104 0)
(-0.000129586 -0.00755225 0)
(-0.000126763 -0.00761353 0)
(-0.000124323 -0.00766505 0)
(-0.000122204 -0.00770705 0)
(-0.000120419 -0.00773978 0)
(-0.000119002 -0.00776348 0)
(-0.000117987 -0.00777837 0)
(-0.000117401 -0.00778471 0)
(-0.000117258 -0.00778275 0)
(-0.000117571 -0.00777282 0)
(-0.000118342 -0.00775527 0)
(-0.000119569 -0.00773048 0)
(-4.98925e-05 -0.00683651 0)
(-5.66026e-05 -0.00685171 0)
(-6.32997e-05 -0.00686205 0)
(-6.99757e-05 -0.00686793 0)
(-7.66248e-05 -0.00686973 0)
(-8.3243e-05 -0.00686781 0)
(-8.98279e-05 -0.00686251 0)
(-9.63781e-05 -0.00685415 0)
(-0.000102893 -0.00684304 0)
(-0.000109373 -0.00682945 0)
(-0.000115819 -0.00681363 0)
(-0.000122231 -0.00679581 0)
(-0.00012861 -0.0067762 0)
(-0.000134958 -0.006755 0)
(-0.000141275 -0.00673236 0)
(-0.000147562 -0.00670844 0)
(-0.00015382 -0.00668337 0)
(-0.000160051 -0.00665726 0)
(-0.000166254 -0.0066302 0)
(-0.00017243 -0.00660229 0)
(-0.00017858 -0.0065736 0)
(-0.000184703 -0.00654419 0)
(-0.0001908 -0.0065141 0)
(-0.00019687 -0.00648339 0)
(-0.000202914 -0.00645208 0)
(-0.000208932 -0.0064202 0)
(-0.000214922 -0.00638777 0)
(-0.000220885 -0.00635481 0)
(-0.00022682 -0.00632134 0)
(-0.000232726 -0.00628737 0)
(-0.000238604 -0.0062529 0)
(-0.000244453 -0.00621796 0)
(-0.000250271 -0.00618255 0)
(-0.000256059 -0.00614669 0)
(-0.000261816 -0.00611041 0)