/*--------------------------------*- C++ -*----------------------------------*\
| =========                 |                                                 |
| \\      /  F ield         | OpenFOAM: The Open Source CFD Toolbox           |
|  \\    /   O peration     | Version:  2.4.0                                 |
|   \\  /    A nd           | Web:      www.OpenFOAM.org                      |
|    \\/     M anipulation  |                                                 |
\*---------------------------------------------------------------------------*/
FoamFile
{
    version     2.0;
    format      ascii;
    class       volScalarField;
    location    "1.6";
    object      T;
}
// * * * * * * * * * * * * * * * * * * * * * * * * * * * * * * * * * * * * * //

dimensions      [0 0 0 1 0 0 0];

internalField   nonuniform List<scalar> 
125
(
293.156
293.156
293.156
293.156
293.156
293.47
293.47
293.47
293.47
293.47
293.787
293.787
293.787
293.787
293.787
294.108
294.108
294.108
294.108
294.108
294.433
294.433
294.433
294.433
294.433
294.762
294.762
294.762
294.762
294.762
295.094
295.094
295.094
295.094
295.094
295.43
295.43
295.43
295.43
295.43
295.771
295.771
295.771
295.771
295.771
296.116
296.116
296.116
296.116
296.116
296.464
296.464
296.464
296.464
296.464
296.818
296.818
296.818
296.818
296.818
297.175
297.175
297.175
297.175
297.175
297.537
297.537
297.537
297.537
297.537
297.989
297.989
297.989
297.989
297.989
297.989
297.989
297.989
297.989
297.989
297.988
297.988
297.988
297.988
297.988
297.988
297.988
297.988
297.988
297.988
297.988
297.988
297.988
297.988
297.988
297.988
297.988
297.988
297.988
297.988
297.988
297.988
297.988
297.988
297.988
297.988
297.988
297.988
297.988
297.988
297.988
297.988
297.988
297.988
297.988
297.988
297.988
297.988
297.988
297.988
297.988
297.988
297.988
297.988
297.988
)
;

boundaryField
{
    BotWall
    {
        type            fixedValue;
        value           uniform 293;
    }
    FreeStream
    {
        type            fixedValue;
        value           nonuniform 0();
    }
    FrontNBack
    {
        type            empty;
    }
    LeftSide
    {
        type            symmetryPlane;
    }
    RightSide
    {
        type            symmetryPlane;
    }
    procBoundary0to1
    {
        type            processor;
        value           nonuniform List<scalar> 5(297.988 297.988 297.988 297.988 297.988);
    }
}


// ************************************************************************* //
