/*--------------------------------*- C++ -*----------------------------------*\
| =========                 |                                                 |
| \\      /  F ield         | OpenFOAM: The Open Source CFD Toolbox           |
|  \\    /   O peration     | Version:  2.4.0                                 |
|   \\  /    A nd           | Web:      www.OpenFOAM.org                      |
|    \\/     M anipulation  |                                                 |
\*---------------------------------------------------------------------------*/
FoamFile
{
    version     2.0;
    format      ascii;
    class       volVectorField;
    location    "0.015";
    object      U;
}
// * * * * * * * * * * * * * * * * * * * * * * * * * * * * * * * * * * * * * //

dimensions      [0 1 -1 0 0 0 0];

internalField   nonuniform List<vector> 
125
(
(7.99301e-08 -1.7611e-05 0)
(2.4334e-07 4.81861e-05 0)
(4.12546e-07 -0.000140251 0)
(5.81768e-07 0.000543005 0)
(8.89531e-07 -0.00227369 0)
(1.21286e-06 -0.0180121 0)
(2.15661e-06 -0.0210173 0)
(3.15941e-06 -0.0168039 0)
(4.1399e-06 -0.0159573 0)
(5.08548e-06 -0.0160295 0)
(5.99293e-06 -0.0161669 0)
(6.86378e-06 -0.0162021 0)
(7.69874e-06 -0.0161985 0)
(8.49799e-06 -0.0161932 0)
(9.26161e-06 -0.0161918 0)
(9.98975e-06 -0.016192 0)
(1.06826e-05 -0.0161922 0)
(1.13405e-05 -0.0161922 0)
(1.19637e-05 -0.0161922 0)
(1.25525e-05 -0.0161922 0)
(1.31075e-05 -0.0161922 0)
(1.3629e-05 -0.0161922 0)
(1.41175e-05 -0.0161922 0)
(1.45737e-05 -0.0161922 0)
(1.4998e-05 -0.0161922 0)
(1.53912e-05 -0.0161922 0)
(1.57538e-05 -0.0161922 0)
(1.60866e-05 -0.0161922 0)
(1.63904e-05 -0.0161922 0)
(1.66659e-05 -0.0161922 0)
(1.6914e-05 -0.0161922 0)
(1.71355e-05 -0.0161922 0)
(1.73312e-05 -0.0161922 0)
(1.75021e-05 -0.0161922 0)
(1.76491e-05 -0.0161922 0)
(1.77731e-05 -0.0161922 0)
(1.78751e-05 -0.0161922 0)
(1.7956e-05 -0.0161922 0)
(1.80168e-05 -0.0161922 0)
(1.80584e-05 -0.0161921 0)
(1.8082e-05 -0.0161921 0)
(1.80883e-05 -0.0161921 0)
(1.80785e-05 -0.0161921 0)
(1.80535e-05 -0.0161921 0)
(1.80142e-05 -0.0161921 0)
(1.79616e-05 -0.0161921 0)
(1.78965e-05 -0.0161921 0)
(1.782e-05 -0.0161921 0)
(1.77329e-05 -0.0161921 0)
(1.7636e-05 -0.0161921 0)
(1.75303e-05 -0.0161921 0)
(1.74164e-05 -0.0161921 0)
(1.72953e-05 -0.0161921 0)
(1.71675e-05 -0.0161921 0)
(1.70339e-05 -0.0161921 0)
(1.68952e-05 -0.0161921 0)
(1.67519e-05 -0.0161921 0)
(1.66047e-05 -0.0161921 0)
(1.64541e-05 -0.0161921 0)
(1.63007e-05 -0.016192 0)
(1.6145e-05 -0.016192 0)
(1.59875e-05 -0.016192 0)
(1.58286e-05 -0.016192 0)
(1.56686e-05 -0.016192 0)
(1.55079e-05 -0.016192 0)
(1.5347e-05 -0.016192 0)
(1.51859e-05 -0.016192 0)
(1.50251e-05 -0.016192 0)
(1.48647e-05 -0.016192 0)
(1.47049e-05 -0.016192 0)
(1.4546e-05 -0.016192 0)
(1.4388e-05 -0.016192 0)
(1.42312e-05 -0.016192 0)
(1.40755e-05 -0.016192 0)
(1.39211e-05 -0.016192 0)
(1.3768e-05 -0.0161919 0)
(1.36163e-05 -0.0161919 0)
(1.3466e-05 -0.0161919 0)
(1.33172e-05 -0.0161919 0)
(1.31698e-05 -0.0161919 0)
(1.30239e-05 -0.0161919 0)
(1.28794e-05 -0.0161919 0)
(1.27363e-05 -0.0161919 0)
(1.25945e-05 -0.0161919 0)
(1.24541e-05 -0.0161919 0)
(1.2315e-05 -0.0161919 0)
(1.21772e-05 -0.0161919 0)
(1.20405e-05 -0.0161919 0)
(1.19051e-05 -0.0161919 0)
(1.17708e-05 -0.0161919 0)
(1.16375e-05 -0.0161918 0)
(1.15053e-05 -0.0161918 0)
(1.13741e-05 -0.0161918 0)
(1.12439e-05 -0.0161918 0)
(1.11145e-05 -0.0161918 0)
(1.0986e-05 -0.0161918 0)
(1.08584e-05 -0.0161918 0)
(1.07316e-05 -0.0161918 0)
(1.06055e-05 -0.0161918 0)
(1.04802e-05 -0.0161918 0)
(1.03557e-05 -0.0161918 0)
(1.02318e-05 -0.0161918 0)
(1.01086e-05 -0.0161918 0)
(9.98605e-06 -0.0161918 0)
(9.86416e-06 -0.0161918 0)
(9.7429e-06 -0.0161918 0)
(9.62227e-06 -0.0161917 0)
(9.50224e-06 -0.0161917 0)
(9.38281e-06 -0.0161917 0)
(9.26398e-06 -0.0161917 0)
(9.14575e-06 -0.0161917 0)
(9.0281e-06 -0.0161917 0)
(8.91103e-06 -0.0161917 0)
(8.79455e-06 -0.0161917 0)
(8.67865e-06 -0.0161917 0)
(8.56333e-06 -0.0161917 0)
(8.44859e-06 -0.0161917 0)
(8.33443e-06 -0.0161917 0)
(8.22085e-06 -0.0161917 0)
(8.10786e-06 -0.0161917 0)
(7.99545e-06 -0.0161917 0)
(7.88363e-06 -0.0161917 0)
(7.7724e-06 -0.0161917 0)
(7.66176e-06 -0.0161916 0)
(7.5517e-06 -0.0161916 0)
)
;

boundaryField
{
    BotWall
    {
        type            fixedValue;
        value           uniform (0 0 0);
    }
    FreeStream
    {
        type            zeroGradient;
    }
    FrontNBack
    {
        type            empty;
    }
    LeftSide
    {
        type            symmetryPlane;
    }
    RightSide
    {
        type            symmetryPlane;
    }
    procBoundary11to8
    {
        type            processor;
        value           nonuniform List<vector> 
50
(
(-1.16276e-05 -0.0161882 0)
(-1.14723e-05 -0.0161883 0)
(-1.13193e-05 -0.0161884 0)
(-1.11684e-05 -0.0161884 0)
(-1.10199e-05 -0.0161885 0)
(-1.08736e-05 -0.0161886 0)
(-1.07296e-05 -0.0161886 0)
(-1.05879e-05 -0.0161887 0)
(-1.04484e-05 -0.0161888 0)
(-1.0311e-05 -0.0161888 0)
(-1.01758e-05 -0.0161889 0)
(-1.00428e-05 -0.016189 0)
(-9.91178e-06 -0.016189 0)
(-9.7828e-06 -0.0161891 0)
(-9.65579e-06 -0.0161891 0)
(-9.5307e-06 -0.0161892 0)
(-9.40749e-06 -0.0161893 0)
(-9.28609e-06 -0.0161893 0)
(-9.16646e-06 -0.0161894 0)
(-9.04856e-06 -0.0161894 0)
(-8.93233e-06 -0.0161895 0)
(-8.81773e-06 -0.0161895 0)
(-8.70473e-06 -0.0161896 0)
(-8.59327e-06 -0.0161897 0)
(-8.48333e-06 -0.0161897 0)
(-8.37487e-06 -0.0161898 0)
(-8.26785e-06 -0.0161898 0)
(-8.16224e-06 -0.0161899 0)
(-8.05802e-06 -0.0161899 0)
(-7.95516e-06 -0.01619 0)
(-7.85364e-06 -0.01619 0)
(-7.75343e-06 -0.0161901 0)
(-7.65451e-06 -0.0161901 0)
(-7.55686e-06 -0.0161902 0)
(-7.46048e-06 -0.0161902 0)
(-7.36533e-06 -0.0161903 0)
(-7.27142e-06 -0.0161903 0)
(-7.17871e-06 -0.0161904 0)
(-7.08721e-06 -0.0161904 0)
(-6.9969e-06 -0.0161904 0)
(-6.90777e-06 -0.0161905 0)
(-6.8198e-06 -0.0161905 0)
(-6.733e-06 -0.0161906 0)
(-6.64735e-06 -0.0161906 0)
(-6.56283e-06 -0.0161907 0)
(-6.47945e-06 -0.0161907 0)
(-6.3972e-06 -0.0161907 0)
(-6.31605e-06 -0.0161908 0)
(-6.23602e-06 -0.0161908 0)
(-6.15708e-06 -0.0161909 0)
)
;
    }
    procBoundary11to9
    {
        type            processor;
        value           nonuniform List<vector> 
75
(
(-7.26833e-08 -1.7492e-05 0)
(-2.35458e-07 4.78627e-05 0)
(-4.14039e-07 -0.000139141 0)
(-6.02155e-07 0.000538656 0)
(-9.53821e-07 -0.0022688 0)
(-1.2667e-06 -0.018021 0)
(-2.08719e-06 -0.0209826 0)
(-2.99236e-06 -0.0167925 0)
(-3.88293e-06 -0.015949 0)
(-4.74325e-06 -0.016021 0)
(-5.56917e-06 -0.0161578 0)
(-6.36236e-06 -0.0161928 0)
(-7.12355e-06 -0.0161893 0)
(-7.85275e-06 -0.0161841 0)
(-8.54986e-06 -0.0161827 0)
(-9.21488e-06 -0.0161829 0)
(-9.84784e-06 -0.0161832 0)
(-1.04489e-05 -0.0161833 0)
(-1.10181e-05 -0.0161834 0)
(-1.15559e-05 -0.0161834 0)
(-1.20623e-05 -0.0161835 0)
(-1.25378e-05 -0.0161836 0)
(-1.29826e-05 -0.0161836 0)
(-1.33973e-05 -0.0161837 0)
(-1.37822e-05 -0.0161838 0)
(-1.41378e-05 -0.0161839 0)
(-1.44648e-05 -0.016184 0)
(-1.47637e-05 -0.016184 0)
(-1.50351e-05 -0.0161841 0)
(-1.52796e-05 -0.0161842 0)
(-1.54981e-05 -0.0161843 0)
(-1.56913e-05 -0.0161844 0)
(-1.58599e-05 -0.0161845 0)
(-1.60046e-05 -0.0161846 0)
(-1.61265e-05 -0.0161847 0)
(-1.62262e-05 -0.0161848 0)
(-1.63047e-05 -0.0161849 0)
(-1.63629e-05 -0.016185 0)
(-1.64016e-05 -0.016185 0)
(-1.64218e-05 -0.0161851 0)
(-1.64244e-05 -0.0161852 0)
(-1.64104e-05 -0.0161853 0)
(-1.63806e-05 -0.0161854 0)
(-1.6336e-05 -0.0161855 0)
(-1.62775e-05 -0.0161856 0)
(-1.6206e-05 -0.0161857 0)
(-1.61225e-05 -0.0161858 0)
(-1.60278e-05 -0.0161859 0)
(-1.59228e-05 -0.016186 0)
(-1.58083e-05 -0.0161861 0)
(-1.56852e-05 -0.0161862 0)
(-1.55543e-05 -0.0161863 0)
(-1.54164e-05 -0.0161864 0)
(-1.52722e-05 -0.0161865 0)
(-1.51224e-05 -0.0161866 0)
(-1.49679e-05 -0.0161866 0)
(-1.48091e-05 -0.0161867 0)
(-1.46467e-05 -0.0161868 0)
(-1.44814e-05 -0.0161869 0)
(-1.43137e-05 -0.016187 0)
(-1.41441e-05 -0.0161871 0)
(-1.39731e-05 -0.0161872 0)
(-1.38012e-05 -0.0161872 0)
(-1.36288e-05 -0.0161873 0)
(-1.34562e-05 -0.0161874 0)
(-1.32838e-05 -0.0161875 0)
(-1.3112e-05 -0.0161876 0)
(-1.2941e-05 -0.0161876 0)
(-1.27711e-05 -0.0161877 0)
(-1.26025e-05 -0.0161878 0)
(-1.24354e-05 -0.0161879 0)
(-1.227e-05 -0.0161879 0)
(-1.21064e-05 -0.016188 0)
(-1.19447e-05 -0.0161881 0)
(-1.17851e-05 -0.0161882 0)
)
;
    }
    procBoundary11to10
    {
        type            processor;
        value           uniform (7.44224e-06 -0.0161916 0);
    }
}


// ************************************************************************* //
