/*--------------------------------*- C++ -*----------------------------------*\
| =========                 |                                                 |
| \\      /  F ield         | OpenFOAM: The Open Source CFD Toolbox           |
|  \\    /   O peration     | Version:  2.4.0                                 |
|   \\  /    A nd           | Web:      www.OpenFOAM.org                      |
|    \\/     M anipulation  |                                                 |
\*---------------------------------------------------------------------------*/
FoamFile
{
    version     2.0;
    format      ascii;
    class       surfaceScalarField;
    location    "3.3";
    object      phi;
}
// * * * * * * * * * * * * * * * * * * * * * * * * * * * * * * * * * * * * * //

dimensions      [0 3 -1 0 0 0 0];

internalField   nonuniform List<scalar> 
15580
(
-3.08639e-14
-1.31976e-12
-1.39445e-13
-3.7995e-12
-3.33192e-13
-6.12439e-12
-6.15047e-13
-8.29646e-12
-9.87182e-13
-1.03154e-11
-1.45117e-12
-1.21801e-11
-2.00819e-12
-1.38901e-11
-2.6587e-12
-1.54441e-11
-3.40299e-12
-1.68415e-11
-4.24069e-12
-1.80809e-11
-5.17127e-12
-1.91617e-11
-6.19313e-12
-2.00827e-11
-7.30455e-12
-2.0843e-11
-8.50703e-12
-2.14365e-11
-9.81491e-12
-2.18528e-11
-3.73685e-11
-2.20859e-11
-7.16653e-11
-2.22838e-11
-7.3154e-11
-2.24458e-11
-6.2657e-11
-4.83157e-11
-5.19512e-11
-7.32259e-11
-4.09996e-11
-9.71267e-11
-2.98972e-11
-1.20103e-10
-1.87369e-11
-1.4204e-10
-7.6122e-12
-1.62883e-10
3.37816e-12
-1.82603e-10
1.41349e-11
-2.01188e-10
2.45603e-11
-2.18635e-10
3.45605e-11
-2.3495e-10
4.40473e-11
-2.50144e-10
5.29404e-11
-2.64238e-10
6.11685e-11
-2.77255e-10
6.86712e-11
-2.89224e-10
7.53988e-11
-3.0018e-10
8.13132e-11
-3.1016e-10
8.6387e-11
-3.19205e-10
9.06034e-11
-3.27358e-10
9.39554e-11
-3.34664e-10
9.64449e-11
-3.41171e-10
9.8082e-11
-3.46925e-10
9.88837e-11
-3.51974e-10
9.88728e-11
-3.56366e-10
9.80774e-11
-3.60147e-10
9.65295e-11
-3.63361e-10
9.42644e-11
-3.66054e-10
9.13195e-11
-3.68266e-10
8.77338e-11
-3.70037e-10
8.3547e-11
-3.71404e-10
7.87991e-11
-3.72403e-10
7.35295e-11
-3.73066e-10
-3.73422e-10
6.7777e-11
-4.96189e-14
-1.27014e-12
-1.78167e-13
-3.67095e-12
-3.73566e-13
-5.92899e-12
-6.27612e-13
-8.04242e-12
-9.32313e-13
-1.00107e-11
-1.2798e-12
-1.18326e-11
-1.66211e-12
-1.35078e-11
-2.07102e-12
-1.50352e-11
-2.49774e-12
-1.64148e-11
-2.93294e-12
-1.76457e-11
-3.36677e-12
-1.87279e-11
-3.78935e-12
-1.96601e-11
-4.18832e-12
-2.04441e-11
-4.5381e-12
-2.10867e-11
-4.78598e-12
-2.1605e-11
-6.1042e-11
-2.19946e-11
-7.66534e-11
-2.20332e-11
-7.66335e-11
-2.24656e-11
-7.32704e-11
-5.16788e-11
-6.87138e-11
-7.77825e-11
-6.32479e-11
-1.02593e-10
-5.71786e-11
-1.26172e-10
-5.07571e-11
-1.48462e-10
-4.41927e-11
-1.69448e-10
-3.76673e-11
-1.89129e-10
-3.13393e-11
-2.07516e-10
-2.53453e-11
-2.24629e-10
-1.9801e-11
-2.40494e-10
-1.48026e-11
-2.55143e-10
-1.04285e-11
-2.68612e-10
-6.74081e-12
-2.80942e-10
-3.7868e-12
-2.92178e-10
-1.60037e-12
-3.02367e-10
-2.0343e-13
-3.11557e-10
3.92744e-13
-3.19801e-10
1.8626e-13
-3.27151e-10
-8.16559e-13
-3.33661e-10
-2.60228e-12
-3.39385e-10
-5.15138e-12
-3.44376e-10
-8.43923e-12
-3.48686e-10
-1.2437e-11
-3.52368e-10
-1.71124e-11
-3.55471e-10
-2.24309e-11
-3.58043e-10
-2.83557e-11
-3.60129e-10
-3.48492e-11
-3.61772e-10
-4.18733e-11
-3.63013e-10
-4.93898e-11
-3.63888e-10
-5.73612e-11
-3.64432e-10
-6.5751e-11
-3.64676e-10
-3.64649e-10
-7.45238e-11
9.74408e-15
-1.27988e-12
3.98311e-14
-3.70104e-12
8.77542e-14
-5.97691e-12
1.49905e-13
-8.10457e-12
2.22699e-13
-1.00834e-11
3.02403e-13
-1.19123e-11
3.84751e-13
-1.35901e-11
4.65221e-13
-1.51157e-11
5.38359e-13
-1.64879e-11
5.98495e-13
-1.77058e-11
6.39006e-13
-1.87684e-11
6.53956e-13
-1.9675e-11
6.34977e-13
-2.04251e-11
5.64482e-13
-2.10162e-11
3.98806e-13
-2.14393e-11
-4.20181e-12
-2.16752e-11
-3.11741e-11
-2.17576e-11
-3.15518e-11
-2.2088e-11
-3.21921e-11
-5.10385e-11
-3.31503e-11
-7.68244e-11
-3.42243e-11
-1.01519e-10
-3.53283e-11
-1.25068e-10
-3.64545e-11
-1.47336e-10
-3.76353e-11
-1.68267e-10
-3.89225e-11
-1.87842e-10
-4.03782e-11
-2.06061e-10
-4.20684e-11
-2.22939e-10
-4.40581e-11
-2.38504e-10
-4.64077e-11
-2.52793e-10
-4.91708e-11
-2.65849e-10
-5.23929e-11
-2.7772e-10
-5.61117e-11
-2.88459e-10
-6.03566e-11
-2.98122e-10
-6.5149e-11
-3.06765e-10
-7.05029e-11
-3.14447e-10
-7.64253e-11
-3.21229e-10
-8.2917e-11
-3.2717e-10
-8.99724e-11
-3.3233e-10
-9.75809e-11
-3.36767e-10
-1.05727e-10
-3.4054e-10
-1.14391e-10
-3.43704e-10
-1.23551e-10
-3.46312e-10
-1.3318e-10
-3.48414e-10
-1.43251e-10
-3.50058e-10
-1.53735e-10
-3.51288e-10
-1.64601e-10
-3.52146e-10
-1.7582e-10
-3.52668e-10
-1.87362e-10
-3.5289e-10
-1.99198e-10
-3.5284e-10
-3.52549e-10
-2.11299e-10
1.05465e-13
-1.38535e-12
3.89955e-13
-3.98553e-12
8.3228e-13
-6.41923e-12
1.4182e-12
-8.69049e-12
2.13499e-12
-1.08002e-11
2.97053e-12
-1.27479e-11
3.91288e-12
-1.45325e-11
4.95052e-12
-1.61533e-11
6.07187e-12
-1.76093e-11
7.26583e-12
-1.88998e-11
8.52103e-12
-2.00236e-11
9.82591e-12
-2.09799e-11
1.11682e-11
-2.17673e-11
1.25343e-11
-2.23824e-11
1.39132e-11
-2.28181e-11
1.53047e-11
-2.30639e-11
-3.72847e-11
-2.30802e-11
-3.61209e-11
-2.32518e-11
-4.74337e-11
-3.97257e-11
-5.72259e-11
-6.70322e-11
-6.59712e-11
-9.27733e-11
-7.38809e-11
-1.17158e-10
-8.11245e-11
-1.40092e-10
-8.78877e-11
-1.61504e-10
-9.43445e-11
-1.81385e-10
-1.00648e-10
-1.99757e-10
-1.06928e-10
-2.16659e-10
-1.13294e-10
-2.32138e-10
-1.19838e-10
-2.46249e-10
-1.26636e-10
-2.59051e-10
-1.33753e-10
-2.70604e-10
-1.4124e-10
-2.80972e-10
-1.4914e-10
-2.90222e-10
-1.57486e-10
-2.98418e-10
-1.66305e-10
-3.05629e-10
-1.75612e-10
-3.11922e-10
-1.85417e-10
-3.17365e-10
-1.95722e-10
-3.22025e-10
-2.06522e-10
-3.25967e-10
-2.17807e-10
-3.29255e-10
-2.29561e-10
-3.3195e-10
-2.41765e-10
-3.34108e-10
-2.54394e-10
-3.35785e-10
-2.67422e-10
-3.37029e-10
-2.80822e-10
-3.37888e-10
-2.94565e-10
-3.38403e-10
-3.08621e-10
-3.38613e-10
-3.2296e-10
-3.3855e-10
-3.37555e-10
-3.38245e-10
-3.37726e-10
-3.52378e-10
1.13017e-13
-1.49836e-12
4.50613e-13
-4.32312e-12
1.00626e-12
-6.97488e-12
1.77058e-12
-9.45481e-12
2.73376e-12
-1.17634e-11
3.88635e-12
-1.39005e-11
5.21885e-12
-1.5865e-11
6.72245e-12
-1.76569e-11
8.38843e-12
-1.92753e-11
1.0209e-11
-2.07203e-11
1.21764e-11
-2.1991e-11
1.42838e-11
-2.30873e-11
1.65235e-11
-2.40071e-11
1.88905e-11
-2.47494e-11
2.13924e-11
-2.532e-11
2.40718e-11
-2.57434e-11
-4.36419e-11
-2.60743e-11
-4.08712e-11
-2.60224e-11
-5.18354e-11
-2.87615e-11
-7.24928e-11
-4.63748e-11
-9.02918e-11
-7.49743e-11
-1.06172e-10
-1.01278e-10
-1.20477e-10
-1.25787e-10
-1.33529e-10
-1.48452e-10
-1.45622e-10
-1.69292e-10
-1.57013e-10
-1.88366e-10
-1.67922e-10
-2.0575e-10
-1.78536e-10
-2.21525e-10
-1.89013e-10
-2.35772e-10
-1.99488e-10
-2.48575e-10
-2.10079e-10
-2.60013e-10
-2.20883e-10
-2.70169e-10
-2.31981e-10
-2.79123e-10
-2.43442e-10
-2.86958e-10
-2.55316e-10
-2.93755e-10
-2.67642e-10
-2.99596e-10
-2.80445e-10
-3.04562e-10
-2.93738e-10
-3.08731e-10
-3.07525e-10
-3.12181e-10
-3.21798e-10
-3.14982e-10
-3.36544e-10
-3.17204e-10
-3.51742e-10
-3.1891e-10
-3.67367e-10
-3.2016e-10
-3.83391e-10
-3.21006e-10
-3.99782e-10
-3.21497e-10
-4.16508e-10
-3.21677e-10
-4.33538e-10
-3.21583e-10
-4.50839e-10
-3.21249e-10
-4.68379e-10
-3.20705e-10
-3.19975e-10
-4.8613e-10
1.56436e-13
-1.6548e-12
6.15038e-13
-4.78173e-12
1.36492e-12
-7.72476e-12
2.39228e-12
-1.04822e-11
3.68185e-12
-1.3053e-11
5.21845e-12
-1.54371e-11
6.98763e-12
-1.76342e-11
8.97495e-12
-1.96443e-11
1.11665e-11
-2.14668e-11
1.35479e-11
-2.31017e-11
1.61049e-11
-2.4548e-11
1.8823e-11
-2.58054e-11
2.16896e-11
-2.68737e-11
2.4695e-11
-2.77548e-11
2.78211e-11
-2.84461e-11
3.10032e-11
-2.89255e-11
4.62107e-11
-2.91471e-11
2.18474e-11
-2.91447e-11
2.24592e-11
-2.93733e-11
7.82131e-12
-3.17369e-11
-1.63369e-11
-5.08161e-11
-3.95285e-11
-7.80862e-11
-6.15635e-11
-1.03753e-10
-8.24821e-11
-1.27533e-10
-1.02397e-10
-1.49377e-10
-1.21448e-10
-1.69315e-10
-1.3979e-10
-1.87408e-10
-1.57583e-10
-2.03731e-10
-1.7499e-10
-2.18366e-10
-1.92167e-10
-2.31398e-10
-2.09259e-10
-2.42921e-10
-2.26397e-10
-2.53031e-10
-2.43691e-10
-2.61829e-10
-2.61232e-10
-2.69417e-10
-2.7909e-10
-2.75896e-10
-2.97317e-10
-2.81369e-10
-3.15945e-10
-2.85934e-10
-3.34991e-10
-2.89685e-10
-3.54459e-10
-2.92713e-10
-3.7434e-10
-2.95101e-10
-3.94617e-10
-2.96927e-10
-4.15267e-10
-2.98261e-10
-4.3626e-10
-2.99167e-10
-4.57563e-10
-2.99702e-10
-4.79144e-10
-2.99916e-10
-5.00967e-10
-2.99853e-10
-5.22999e-10
-2.99551e-10
-5.45206e-10
-2.99042e-10
-5.67558e-10
-2.98353e-10
-2.97508e-10
-5.90026e-10
1.84849e-13
-1.83965e-12
7.25287e-13
-5.32216e-12
1.60894e-12
-8.60841e-12
2.82351e-12
-1.16967e-11
4.35698e-12
-1.45864e-11
6.19764e-12
-1.72777e-11
8.33484e-12
-1.97714e-11
1.07583e-11
-2.20678e-11
1.34593e-11
-2.41678e-11
1.64294e-11
-2.60718e-11
1.96619e-11
-2.77805e-11
2.31506e-11
-2.92941e-11
2.68902e-11
-3.06133e-11
3.08736e-11
-3.17382e-11
3.50997e-11
-3.26722e-11
3.96021e-11
-3.34279e-11
4.42772e-11
-3.40319e-11
-2.64447e-11
-3.4462e-11
-2.14714e-11
-3.43467e-11
-1.86392e-11
-3.45691e-11
-3.01668e-11
-3.92885e-11
-5.16206e-11
-5.66325e-11
-7.21545e-11
-8.32186e-11
-9.21004e-11
-1.07587e-10
-1.11558e-10
-1.2992e-10
-1.3066e-10
-1.50212e-10
-1.49571e-10
-1.68498e-10
-1.68456e-10
-1.84846e-10
-1.87476e-10
-1.99346e-10
-2.06771e-10
-2.12103e-10
-2.26461e-10
-2.23231e-10
-2.46641e-10
-2.32852e-10
-2.67379e-10
-2.41091e-10
-2.8872e-10
-2.48076e-10
-3.10685e-10
-2.5393e-10
-3.33279e-10
-2.58776e-10
-3.56485e-10
-2.62727e-10
-3.80278e-10
-2.65893e-10
-4.04619e-10
-2.68372e-10
-4.29463e-10
-2.70256e-10
-4.54761e-10
-2.71628e-10
-4.80461e-10
-2.72561e-10
-5.06509e-10
-2.73119e-10
-5.32854e-10
-2.73357e-10
-5.59445e-10
-2.73325e-10
-5.86236e-10
-2.73063e-10
-6.13181e-10
-2.72605e-10
-6.40242e-10
-2.71981e-10
-6.67381e-10
-2.71214e-10
-2.70324e-10
-6.94565e-10
1.65846e-13
-2.00549e-12
6.47859e-13
-5.80418e-12
1.43482e-12
-9.39538e-12
2.51833e-12
-1.27802e-11
3.88926e-12
-1.59574e-11
5.5379e-12
-1.89264e-11
7.45355e-12
-2.1687e-11
9.62561e-12
-2.42398e-11
1.20431e-11
-2.65853e-11
1.46959e-11
-2.87246e-11
1.75743e-11
-3.06588e-11
2.06699e-11
-3.23897e-11
2.39756e-11
-3.3919e-11
2.74871e-11
-3.52497e-11
3.11989e-11
-3.63841e-11
3.50956e-11
-3.73245e-11
3.91343e-11
-3.80707e-11
4.41872e-11
-3.86256e-11
-1.35343e-11
-3.90528e-11
-9.07779e-12
-3.90256e-11
-9.04756e-12
-3.93188e-11
-2.24394e-11
-4.32406e-11
-3.68069e-11
-6.88512e-11
-5.20709e-11
-9.23232e-11
-6.83561e-11
-1.13635e-10
-8.57766e-11
-1.32792e-10
-1.04424e-10
-1.49851e-10
-1.24356e-10
-1.64913e-10
-1.456e-10
-1.78102e-10
-1.68153e-10
-1.8955e-10
-1.91987e-10
-1.99397e-10
-2.17053e-10
-2.07785e-10
-2.43286e-10
-2.14859e-10
-2.70605e-10
-2.20756e-10
-2.98922e-10
-2.25613e-10
-3.28141e-10
-2.29557e-10
-3.58162e-10
-2.32706e-10
-3.88886e-10
-2.35169e-10
-4.20212e-10
-2.37045e-10
-4.52046e-10
-2.38422e-10
-4.84298e-10
-2.39377e-10
-5.16882e-10
-2.39977e-10
-5.49721e-10
-2.4028e-10
-5.82745e-10
-2.40334e-10
-6.1589e-10
-2.4018e-10
-6.49101e-10
-2.39852e-10
-6.82329e-10
-2.39377e-10
-7.15532e-10
-2.38778e-10
-7.48674e-10
-2.38073e-10
-2.37275e-10
-7.81723e-10
2.41323e-13
-2.24682e-12
9.61137e-13
-6.52399e-12
2.13122e-12
-1.05655e-11
3.71322e-12
-1.43623e-11
5.66981e-12
-1.7914e-11
7.96451e-12
-2.12211e-11
1.05606e-11
-2.42831e-11
1.34214e-11
-2.71007e-11
1.65093e-11
-2.96732e-11
1.97864e-11
-3.20017e-11
2.32129e-11
-3.40853e-11
2.67484e-11
-3.59252e-11
3.03499e-11
-3.75205e-11
3.39729e-11
-3.88726e-11
3.75694e-11
-3.99806e-11
4.10921e-11
-4.08472e-11
4.44963e-11
-4.14748e-11
4.77432e-11
-4.18725e-11
4.86529e-11
-4.20494e-11
1.04126e-11
-4.20653e-11
1.31229e-11
-4.2029e-11
1.22024e-11
-4.23201e-11
6.5039e-12
-6.31526e-11
-3.29797e-12
-8.25214e-11
-1.70538e-11
-9.98788e-11
-3.44234e-11
-1.15422e-10
-5.50661e-11
-1.29208e-10
-7.86542e-11
-1.41325e-10
-1.0488e-10
-1.51876e-10
-1.33454e-10
-1.60975e-10
-1.64106e-10
-1.68745e-10
-1.9658e-10
-1.75312e-10
-2.30632e-10
-1.80806e-10
-2.66037e-10
-1.85352e-10
-3.0258e-10
-1.89071e-10
-3.40062e-10
-1.92074e-10
-3.78303e-10
-1.94466e-10
-4.17135e-10
-1.96337e-10
-4.5641e-10
-1.97771e-10
-4.95995e-10
-1.98837e-10
-5.35775e-10
-1.99597e-10
-5.7565e-10
-2.00102e-10
-6.15534e-10
-2.00396e-10
-6.55355e-10
-2.00512e-10
-6.95055e-10
-2.00481e-10
-7.34583e-10
-2.00323e-10
-7.73901e-10
-2.00059e-10
-8.12978e-10
-1.99701e-10
-8.51789e-10
-1.99262e-10
-1.98748e-10
-8.90316e-10
4.15765e-13
-2.66258e-12
1.52826e-12
-7.63648e-12
3.24833e-12
-1.22855e-11
5.51031e-12
-1.66242e-11
8.25411e-12
-2.06578e-11
1.1421e-11
-2.4388e-11
1.49559e-11
-2.78179e-11
1.88017e-11
-3.09466e-11
2.29035e-11
-3.3775e-11
2.72013e-11
-3.62995e-11
3.16351e-11
-3.85192e-11
3.61382e-11
-4.04282e-11
4.06413e-11
-4.20236e-11
4.50682e-11
-4.32996e-11
4.93477e-11
-4.42601e-11
5.34212e-11
-4.49207e-11
5.70897e-11
-4.51434e-11
6.02677e-11
-4.50504e-11
6.21086e-11
-4.46566e-11
2.1902e-11
-4.43761e-11
2.3451e-11
-4.3578e-11
2.59153e-11
-4.47845e-11
2.07333e-11
-5.79706e-11
9.22922e-12
-7.10173e-11
-7.49867e-12
-8.31509e-11
-2.87217e-11
-9.41991e-11
-5.39122e-11
-1.04017e-10
-8.26417e-11
-1.12596e-10
-1.14519e-10
-1.19999e-10
-1.4917e-10
-1.26324e-10
-1.86229e-10
-1.31686e-10
-2.25342e-10
-1.36199e-10
-2.6617e-10
-1.39978e-10
-3.08395e-10
-1.43128e-10
-3.51721e-10
-1.45745e-10
-3.95882e-10
-1.47913e-10
-4.40641e-10
-1.49706e-10
-4.85793e-10
-1.51185e-10
-5.31162e-10
-1.52402e-10
-5.766e-10
-1.53399e-10
-6.21986e-10
-1.54211e-10
-6.67221e-10
-1.54867e-10
-7.12229e-10
-1.55388e-10
-7.56948e-10
-1.55793e-10
-8.01335e-10
-1.56094e-10
-8.45354e-10
-1.56304e-10
-8.88985e-10
-1.56429e-10
-9.3221e-10
-1.56476e-10
-9.75021e-10
-1.5645e-10
-1.56355e-10
-1.01741e-09
-8.66268e-14
-2.57596e-12
-2.93596e-13
-7.42951e-12
-5.56562e-13
-1.20226e-11
-8.03077e-13
-1.63777e-11
-9.74967e-13
-2.04859e-11
-1.00971e-12
-2.43532e-11
-8.66279e-13
-2.79614e-11
-4.92181e-13
-3.13207e-11
1.33615e-13
-3.44008e-11
1.05342e-12
-3.72193e-11
2.26445e-12
-3.97302e-11
3.80286e-12
-4.19667e-11
5.66067e-12
-4.38814e-11
7.91108e-12
-4.555e-11
1.03774e-11
-4.67264e-11
1.24854e-11
-4.70288e-11
1.47793e-11
-4.76557e-11
-1.83809e-12
-4.66703e-11
-3.18478e-11
-4.46354e-11
-1.3013e-10
5.39059e-11
-1.80374e-10
6.66619e-12
-2.11556e-10
-1.36029e-11
-2.35746e-10
-3.37801e-11
-2.56472e-10
-5.02909e-11
-2.76482e-10
-6.31411e-11
-2.97721e-10
-7.29607e-11
-3.21281e-10
-8.04573e-11
-3.47642e-10
-8.62342e-11
-3.76892e-10
-9.07483e-11
-4.08882e-10
-9.43347e-11
-4.43331e-10
-9.72364e-11
-4.79901e-10
-9.96295e-11
-5.18237e-10
-1.01642e-10
-5.57997e-10
-1.03367e-10
-5.98869e-10
-1.04872e-10
-6.40576e-10
-1.06207e-10
-6.82878e-10
-1.07404e-10
-7.25575e-10
-1.08488e-10
-7.68502e-10
-1.09475e-10
-8.11526e-10
-1.10375e-10
-8.54542e-10
-1.11195e-10
-8.97468e-10
-1.1194e-10
-9.40243e-10
-1.12613e-10
-9.8282e-10
-1.13216e-10
-1.02517e-09
-1.13749e-10
-1.06726e-09
-1.14213e-10
-1.10908e-09
-1.1461e-10
-1.15061e-09
-1.14939e-10
-1.19186e-09
-1.15202e-10
-1.15399e-10
-1.23282e-09
-6.22348e-13
-1.95361e-12
-2.12079e-12
-5.93107e-12
-4.21227e-12
-9.93109e-12
-6.65629e-12
-1.39337e-11
-9.23996e-12
-1.79022e-11
-1.17504e-11
-2.18427e-11
-1.40085e-11
-2.57033e-11
-1.58188e-11
-2.95103e-11
-1.70252e-11
-3.31944e-11
-1.74057e-11
-3.68387e-11
-1.67808e-11
-4.03551e-11
-1.4917e-11
-4.38305e-11
-1.26855e-11
-4.61129e-11
-1.03327e-11
-4.79028e-11
-8.05289e-12
-4.99357e-11
-3.97964e-11
-5.31486e-11
-7.52991e-11
-3.4411e-11
-1.10531e-10
-1.17485e-11
-1.27336e-10
-2.78306e-11
-1.98045e-10
1.24615e-10
-2.96034e-10
1.04655e-10
-3.55814e-10
4.61774e-11
-3.99414e-10
9.8201e-12
-4.35161e-10
-1.45445e-11
-4.67727e-10
-3.05749e-11
-4.99861e-10
-4.08265e-11
-5.32773e-10
-4.75449e-11
-5.66879e-10
-5.21288e-11
-6.02196e-10
-5.54309e-11
-6.38578e-10
-5.79528e-11
-6.75829e-10
-5.99859e-11
-7.13758e-10
-6.16999e-11
-7.52203e-10
-6.3197e-11
-7.9103e-10
-6.45405e-11
-8.30131e-10
-6.57706e-11
-8.69425e-10
-6.69134e-11
-9.08844e-10
-6.79849e-11
-9.48337e-10
-6.89947e-11
-9.87864e-10
-6.99482e-11
-1.02739e-09
-7.08474e-11
-1.06689e-09
-7.16931e-11
-1.10635e-09
-7.24846e-11
-1.14574e-09
-7.3221e-11
-1.18506e-09
-7.39008e-11
-1.22428e-09
-7.4523e-11
-1.26341e-09
-7.50866e-11
-1.30243e-09
-7.55906e-11
-1.34133e-09
-7.60346e-11
-1.38012e-09
-7.64182e-11
-7.67414e-11
-1.41877e-09
1.08018e-13
-2.06163e-12
6.21862e-13
-6.44491e-12
1.72772e-12
-1.10369e-11
3.61389e-12
-1.58199e-11
6.46251e-12
-2.07508e-11
1.04671e-11
-2.58474e-11
1.58313e-11
-3.10675e-11
2.28059e-11
-3.64849e-11
3.16234e-11
-4.20119e-11
4.27713e-11
-4.79866e-11
5.39132e-11
-5.1497e-11
6.69786e-11
-5.68959e-11
6.71905e-11
-6.31752e-11
2.62846e-11
-6.4356e-11
-3.98433e-11
4.89006e-12
-3.04269e-12
-9.01137e-11
-1.41897e-10
1.04443e-10
-3.02928e-10
1.49283e-10
-4.59974e-10
1.29215e-10
-5.20223e-10
1.84864e-10
-5.78003e-10
1.62435e-10
-6.41854e-10
1.10029e-10
-7.04496e-10
7.24615e-11
-7.64474e-10
4.54337e-11
-8.20764e-10
2.57154e-11
-8.72582e-10
1.0991e-11
-9.19683e-10
-4.43579e-13
-9.62798e-10
-9.01442e-12
-1.00247e-09
-1.57627e-11
-1.03922e-09
-2.1202e-11
-1.07363e-09
-2.55718e-11
-1.10625e-09
-2.90799e-11
-1.13755e-09
-3.18958e-11
-1.16793e-09
-3.41597e-11
-1.19772e-09
-3.59883e-11
-1.22715e-09
-3.74794e-11
-1.25642e-09
-3.87091e-11
-1.28568e-09
-3.97359e-11
-1.31503e-09
-4.06037e-11
-1.34453e-09
-4.13453e-11
-1.37424e-09
-4.19848e-11
-1.40418e-09
-4.25394e-11
-1.43438e-09
-4.30215e-11
-1.46484e-09
-4.34396e-11
-1.49557e-09
-4.37997e-11
-1.52655e-09
-4.4106e-11
-1.55778e-09
-4.43612e-11
-1.58925e-09
-4.45671e-11
-1.62094e-09
-4.4725e-11
-4.48358e-11
-1.65284e-09
1.07733e-12
-3.13895e-12
4.30394e-12
-9.67152e-12
9.7194e-12
-1.64524e-11
1.7453e-11
-2.35535e-11
2.76463e-11
-3.09442e-11
4.05648e-11
-3.87658e-11
5.64916e-11
-4.69944e-11
7.29411e-11
-5.29344e-11
9.1398e-11
-6.04688e-11
9.06453e-11
-6.58798e-11
4.81462e-11
-1.0756e-10
-3.20616e-11
1.39994e-11
1.34523e-11
-1.20536e-10
-1.42676e-10
9.16427e-11
-1.91475e-10
5.36893e-11
-3.62148e-10
8.05598e-11
-3.93116e-10
1.35411e-10
-4.59617e-10
2.15784e-10
-5.80392e-10
2.4999e-10
-6.20695e-10
2.25167e-10
-6.54193e-10
1.95933e-10
-7.10379e-10
1.66215e-10
-7.762e-10
1.38283e-10
-8.43846e-10
1.13079e-10
-9.08993e-10
9.08632e-11
-9.69616e-10
7.16139e-11
-1.02524e-09
5.5183e-11
-1.07561e-09
4.13571e-11
-1.12125e-09
2.98775e-11
-1.16292e-09
2.04642e-11
-1.20133e-09
1.2838e-11
-1.23715e-09
6.73491e-12
-1.27097e-09
1.92416e-12
-1.30339e-09
-1.73856e-12
-1.33443e-09
-4.94785e-12
-1.36435e-09
-7.55967e-12
-1.3935e-09
-9.55659e-12
-1.42212e-09
-1.1115e-11
-1.45039e-09
-1.23385e-11
-1.47843e-09
-1.33017e-11
-1.50635e-09
-1.40603e-11
-1.53424e-09
-1.46557e-11
-1.56214e-09
-1.5119e-11
-1.59011e-09
-1.54732e-11
-1.61817e-09
-1.57354e-11
-1.64636e-09
-1.59182e-11
-1.67469e-09
-1.6031e-11
-1.70317e-09
-1.60808e-11
-1.73183e-09
-1.60728e-11
-1.60109e-11
-1.76065e-09
1.65791e-13
-3.30475e-12
5.19411e-13
-1.00251e-11
9.63375e-13
-1.68964e-11
1.37335e-12
-2.39634e-11
1.67744e-12
-3.12483e-11
1.52883e-12
-3.86172e-11
-1.36986e-12
-4.72058e-11
-4.72681e-11
-7.84787e-11
-1.77725e-10
1.81443e-11
-1.46679e-10
-1.23475e-10
-3.23467e-10
6.89007e-11
-3.89442e-10
7.94331e-11
-6.19852e-10
1.09874e-10
-6.52732e-10
1.24523e-10
-7.57985e-10
1.58942e-10
-8.66709e-10
1.89284e-10
-9.31268e-10
1.99971e-10
-9.26247e-10
2.10762e-10
-8.81623e-10
2.05366e-10
-8.47977e-10
1.91521e-10
-8.27303e-10
1.7526e-10
-8.18865e-10
1.57777e-10
-8.20687e-10
1.40105e-10
-8.30655e-10
1.23047e-10
-8.46949e-10
1.07156e-10
-8.68098e-10
9.27628e-11
-8.92934e-10
8.00193e-11
-9.20525e-10
6.89482e-11
-9.50129e-10
5.94813e-11
-9.81157e-10
5.14925e-11
-1.01314e-09
4.48243e-11
-1.04572e-09
3.9307e-11
-1.07856e-09
3.47732e-11
-1.11137e-09
3.10663e-11
-1.14436e-09
2.80452e-11
-1.17751e-09
2.55904e-11
-1.21067e-09
2.36002e-11
-1.24377e-09
2.19888e-11
-1.2768e-09
2.06851e-11
-1.30973e-09
1.96322e-11
-1.34258e-09
1.87845e-11
-1.37534e-09
1.81064e-11
-1.40803e-09
1.75699e-11
-1.44065e-09
1.71533e-11
-1.47323e-09
1.68395e-11
-1.50576e-09
1.66156e-11
-1.53826e-09
1.64713e-11
-1.57074e-09
1.6399e-11
-1.60321e-09
1.63925e-11
1.64473e-11
-1.63567e-09
-1.46719e-12
-1.83755e-12
-6.26112e-12
-5.23121e-12
-1.47522e-11
-8.40527e-12
-2.73932e-11
-1.13225e-11
-4.45554e-11
-1.41718e-11
-8.7308e-11
-1.75386e-11
-2.59069e-10
1.72504e-11
-3.18913e-10
-1.96223e-11
-7.52554e-10
4.50207e-10
-1.19583e-09
3.19803e-10
-1.39083e-09
2.63896e-10
-1.57536e-09
2.63965e-10
-1.74675e-09
2.81264e-10
-1.87477e-09
2.52543e-10
-1.94494e-09
2.2911e-10
-1.96055e-09
2.04892e-10
-1.94614e-09
1.85568e-10
-1.90434e-09
1.68957e-10
-1.85289e-09
1.53918e-10
-1.80118e-09
1.39807e-10
-1.75233e-09
1.26417e-10
-1.70831e-09
1.13749e-10
-1.67012e-09
1.01914e-10
-1.63811e-09
9.10409e-11
-1.61218e-09
8.12234e-11
-1.59192e-09
7.25042e-11
-1.57677e-09
6.4875e-11
-1.56611e-09
5.82871e-11
-1.5593e-09
5.26637e-11
-1.55572e-09
4.79124e-11
-1.55483e-09
4.39346e-11
-1.55615e-09
4.06338e-11
-1.5593e-09
3.79196e-11
-1.56394e-09
3.57111e-11
-1.56984e-09
3.39369e-11
-1.57678e-09
3.25352e-11
-1.58463e-09
3.1453e-11
-1.59329e-09
3.0646e-11
-1.60268e-09
3.00766e-11
-1.61276e-09
2.97134e-11
-1.62351e-09
2.95294e-11
-1.6349e-09
2.95016e-11
-1.64694e-09
2.96105e-11
-1.65963e-09
2.98391e-11
-1.67296e-09
3.01727e-11
-1.68695e-09
3.05987e-11
-1.70158e-09
3.11062e-11
-1.71687e-09
3.16857e-11
-1.7328e-09
3.23294e-11
3.30307e-11
-1.74939e-09
-1.12932e-12
-7.08232e-13
-4.60276e-12
-1.75777e-12
-1.05653e-11
-2.44275e-12
-1.9034e-11
-2.94355e-12
-2.45892e-10
-4.54092e-12
-3.02654e-10
3.76385e-11
-4.85284e-10
1.9988e-10
-6.79463e-10
1.74556e-10
-5.73567e-10
3.44311e-10
-7.54491e-10
5.00727e-10
-9.1556e-10
4.24966e-10
-1.0106e-09
3.59003e-10
-1.02973e-09
3.00395e-10
-1.03192e-09
2.54733e-10
-1.02358e-09
2.20773e-10
-1.01387e-09
1.95184e-10
-1.00339e-09
1.75085e-10
-9.93155e-10
1.58722e-10
-9.84057e-10
1.4482e-10
-9.76809e-10
1.3256e-10
-9.71887e-10
1.21495e-10
-9.69554e-10
1.11416e-10
-9.6988e-10
1.0224e-10
-9.72758e-10
9.39187e-11
-9.77938e-10
8.64034e-11
-9.8507e-10
7.9636e-11
-9.93756e-10
7.35617e-11
-1.0036e-09
6.81348e-11
-1.01428e-09
6.33403e-11
-1.02551e-09
5.9144e-11
-1.03709e-09
5.55146e-11
-1.04889e-09
5.24286e-11
-1.06084e-09
4.98692e-11
-1.07295e-09
4.78221e-11
-1.08528e-09
4.62676e-11
-1.09792e-09
4.51727e-11
-1.11096e-09
4.44961e-11
-1.12452e-09
4.42106e-11
-1.13873e-09
4.42802e-11
-1.15367e-09
4.46545e-11
-1.16943e-09
4.52935e-11
-1.18609e-09
4.6158e-11
-1.20368e-09
4.72059e-11
-1.22223e-09
4.83871e-11
-1.2417e-09
4.96422e-11
-1.26202e-09
5.09116e-11
-1.28306e-09
5.21467e-11
-1.30467e-09
5.33047e-11
-1.32676e-09
5.44182e-11
5.55103e-11
-1.34924e-09
-5.31263e-13
-1.7697e-13
-1.81144e-12
-4.7759e-13
-3.48108e-12
-7.73122e-13
-2.33218e-10
-1.01331e-12
-2.52129e-10
-8.09913e-13
-2.90686e-10
7.61961e-11
-3.41435e-10
2.50629e-10
-6.52739e-10
4.85861e-10
-9.32521e-10
6.24093e-10
-1.11457e-09
6.8278e-10
-1.35433e-09
6.64718e-10
-1.601e-09
6.05673e-10
-1.82649e-09
5.25891e-10
-2.01458e-09
4.4282e-10
-2.16138e-09
3.67573e-10
-2.27009e-09
3.03893e-10
-2.34439e-09
2.49391e-10
-2.38688e-09
2.01211e-10
-2.39973e-09
1.57669e-10
-2.3856e-09
1.18427e-10
-2.34841e-09
8.43085e-11
-2.29344e-09
5.64468e-11
-2.22644e-09
3.52338e-11
-2.15257e-09
2.00552e-11
-2.07587e-09
9.69783e-12
-1.99905e-09
2.82099e-12
-1.92401e-09
-1.47925e-12
-1.85077e-09
-5.10774e-12
-1.78005e-09
-7.3777e-12
-1.71211e-09
-8.79872e-12
-1.64695e-09
-9.64533e-12
-1.58454e-09
-9.97578e-12
-1.52485e-09
-9.82258e-12
-1.46814e-09
-8.88569e-12
-1.41519e-09
-6.69121e-12
-1.36673e-09
-3.27941e-12
-1.32208e-09
-1.62068e-13
-1.28132e-09
3.45275e-12
-1.24474e-09
7.70411e-12
-1.21241e-09
1.23229e-11
-1.18432e-09
1.71988e-11
-1.16043e-09
2.22687e-11
-1.14066e-09
2.74397e-11
-1.12483e-09
3.25586e-11
-1.11267e-09
3.74846e-11
-1.10395e-09
4.21834e-11
-1.09847e-09
4.66731e-11
-1.09613e-09
5.09606e-11
-1.09659e-09
5.48811e-11
5.84341e-11
-1.09951e-09
-1.63861e-13
-1.311e-14
-3.10578e-13
-3.30873e-13
-6.78004e-13
-7.56141e-13
-2.41188e-10
-8.73072e-13
-2.4345e-10
1.45176e-12
-1.60185e-10
-7.06887e-12
-9.25209e-11
1.82965e-10
5.46312e-11
3.38708e-10
2.55368e-10
4.23356e-10
4.62766e-10
4.75382e-10
6.32575e-10
4.94908e-10
7.42041e-10
4.96207e-10
8.0815e-10
4.59781e-10
8.50686e-10
4.00284e-10
9.18024e-10
3.00234e-10
9.61664e-10
2.60254e-10
9.6318e-10
2.47875e-10
9.16876e-10
2.47515e-10
8.15051e-10
2.59495e-10
6.56502e-10
2.76975e-10
4.55464e-10
2.85346e-10
2.36408e-10
2.75503e-10
2.27533e-11
2.48889e-10
-1.69154e-10
2.11962e-10
-3.30129e-10
1.70673e-10
-4.54621e-10
1.27313e-10
-5.3779e-10
8.16901e-11
-5.78173e-10
3.52752e-11
-5.77336e-10
-8.21459e-12
-5.45914e-10
-4.02209e-11
-4.90616e-10
-6.49433e-11
-4.19505e-10
-8.1087e-11
-3.40373e-10
-8.89548e-11
-2.58681e-10
-9.05776e-11
-1.76013e-10
-8.93591e-11
-9.33742e-11
-8.59183e-11
-1.70074e-11
-7.65289e-11
4.74959e-11
-6.10506e-11
9.68066e-11
-4.16066e-11
1.31545e-10
-2.24152e-11
1.57298e-10
-8.55427e-12
1.71893e-10
7.67376e-12
1.66757e-10
3.25757e-11
1.33285e-10
6.60308e-11
6.45796e-11
1.0619e-10
-4.21246e-11
1.48887e-10
-1.69119e-10
1.73668e-10
-2.89426e-10
1.71268e-10
-3.75846e-10
1.413e-10
1.1963e-10
-4.37041e-10
1.22247e-12
4.27503e-12
8.77318e-12
1.50375e-11
-2.15725e-10
-2.11471e-10
-2.64532e-11
2.266e-10
4.52194e-10
7.0407e-10
9.21908e-10
1.0957e-09
1.39002e-09
1.84616e-09
2.15673e-09
2.36061e-09
2.49672e-09
2.57732e-09
2.61062e-09
2.60653e-09
2.57447e-09
2.52574e-09
2.46967e-09
2.41376e-09
2.39117e-09
2.36243e-09
2.31499e-09
2.25654e-09
2.20262e-09
2.17443e-09
2.18839e-09
2.2148e-09
2.21522e-09
2.18207e-09
2.18112e-09
2.21675e-09
2.26571e-09
2.28219e-09
2.25151e-09
2.21852e-09
2.19343e-09
2.17075e-09
2.13374e-09
2.06388e-09
1.97553e-09
1.88112e-09
1.71968e-09
1.62568e-09
1.53443e-09
1.4472e-09
6.1579e-11
-3.735e-10
5.49713e-11
-3.73324e-10
4.79879e-11
-3.72917e-10
4.0661e-11
-3.72299e-10
3.30206e-11
-3.71489e-10
2.50944e-11
-3.70503e-10
1.69082e-11
-3.69355e-10
8.48556e-12
-3.68058e-10
-1.51981e-13
-3.66624e-10
-8.98488e-12
-3.65063e-10
-1.79955e-11
-3.63383e-10
-2.71678e-11
-3.61592e-10
-3.64874e-11
-3.59696e-10
-4.59415e-11
-3.57703e-10
-5.55185e-11
-3.55616e-10
-6.52081e-11
-3.5344e-10
-7.50008e-11
-3.51181e-10
-8.48884e-11
-3.4884e-10
-9.48632e-11
-3.46421e-10
-1.04918e-10
-3.43928e-10
-1.15048e-10
-3.41363e-10
-1.25246e-10
-3.38729e-10
-1.35508e-10
-3.36027e-10
-1.45828e-10
-3.3326e-10
-1.56202e-10
-3.3043e-10
-1.66625e-10
-3.2754e-10
-1.77095e-10
-3.2459e-10
-1.87607e-10
-3.21583e-10
-1.98158e-10
-3.1852e-10
-2.08743e-10
-3.15404e-10
-2.1936e-10
-3.12236e-10
-2.30006e-10
-3.09017e-10
-2.40678e-10
-3.05751e-10
-2.51372e-10
-3.02437e-10
-2.62085e-10
-2.99079e-10
-2.72815e-10
-2.95677e-10
-2.8356e-10
-2.92235e-10
-2.94316e-10
-2.88752e-10
-3.05081e-10
-2.85231e-10
-3.15853e-10
-2.81674e-10
-3.26629e-10
-2.78083e-10
-3.37407e-10
-2.74458e-10
-3.48186e-10
-2.70802e-10
-3.58962e-10
-2.67117e-10
-3.69736e-10
-2.63405e-10
-3.80505e-10
-2.59667e-10
-3.91267e-10
-2.55906e-10
-4.02022e-10
-2.52127e-10
-4.12768e-10
-2.4833e-10
-2.44441e-10
-4.23512e-10
-8.3646e-11
-3.64378e-10
-9.30858e-11
-3.63884e-10
-1.02813e-10
-3.63189e-10
-1.12801e-10
-3.62312e-10
-1.23022e-10
-3.61267e-10
-1.33454e-10
-3.60071e-10
-1.44075e-10
-3.58734e-10
-1.54864e-10
-3.57269e-10
-1.65805e-10
-3.55683e-10
-1.76881e-10
-3.53987e-10
-1.88078e-10
-3.52186e-10
-1.99382e-10
-3.50288e-10
-2.10781e-10
-3.48297e-10
-2.22266e-10
-3.46218e-10
-2.33826e-10
-3.44055e-10
-2.45454e-10
-3.41813e-10
-2.57141e-10
-3.39494e-10
-2.6888e-10
-3.371e-10
-2.80665e-10
-3.34636e-10
-2.92491e-10
-3.32103e-10
-3.04351e-10
-3.29503e-10
-3.1624e-10
-3.26839e-10
-3.28155e-10
-3.24112e-10
-3.40089e-10
-3.21325e-10
-3.52041e-10
-3.18479e-10
-3.64004e-10
-3.15576e-10
-3.75976e-10
-3.12618e-10
-3.87953e-10
-3.09606e-10
-3.99931e-10
-3.06542e-10
-4.11907e-10
-3.03428e-10
-4.23877e-10
-3.00265e-10
-4.35838e-10
-2.97056e-10
-4.47788e-10
-2.93801e-10
-4.59722e-10
-2.90503e-10
-4.71639e-10
-2.87162e-10
-4.83534e-10
-2.83782e-10
-4.95406e-10
-2.80363e-10
-5.07251e-10
-2.76907e-10
-5.19066e-10
-2.73416e-10
-5.3085e-10
-2.69891e-10
-5.42599e-10
-2.66334e-10
-5.54311e-10
-2.62746e-10
-5.65983e-10
-2.5913e-10
-5.77613e-10
-2.55487e-10
-5.89199e-10
-2.51819e-10
-6.00738e-10
-2.48128e-10
-6.12229e-10
-2.44416e-10
-6.23667e-10
-2.40688e-10
-6.35052e-10
-2.36945e-10
-2.33115e-10
-6.46378e-10
-2.23638e-10
-3.52038e-10
-2.36191e-10
-3.51332e-10
-2.48933e-10
-3.50448e-10
-2.61842e-10
-3.49403e-10
-2.74897e-10
-3.48212e-10
-2.88082e-10
-3.46887e-10
-3.01377e-10
-3.45439e-10
-3.14769e-10
-3.43877e-10
-3.28243e-10
-3.4221e-10
-3.41786e-10
-3.40444e-10
-3.55388e-10
-3.38585e-10
-3.69037e-10
-3.36638e-10
-3.82726e-10
-3.34608e-10
-3.96446e-10
-3.32498e-10
-4.10189e-10
-3.30312e-10
-4.23948e-10
-3.28054e-10
-4.37718e-10
-3.25724e-10
-4.51492e-10
-3.23326e-10
-4.65265e-10
-3.20863e-10
-4.79032e-10
-3.18336e-10
-4.92789e-10
-3.15747e-10
-5.06531e-10
-3.13098e-10
-5.20253e-10
-3.1039e-10
-5.33952e-10
-3.07626e-10
-5.47624e-10
-3.04807e-10
-5.61265e-10
-3.01935e-10
-5.74872e-10
-2.99011e-10
-5.88441e-10
-2.96037e-10
-6.01968e-10
-2.93015e-10
-6.15451e-10
-2.89945e-10
-6.28885e-10
-2.86831e-10
-6.42269e-10
-2.83672e-10
-6.55598e-10
-2.80472e-10
-6.6887e-10
-2.77231e-10
-6.82082e-10
-2.73951e-10
-6.95231e-10
-2.70633e-10
-7.08313e-10
-2.6728e-10
-7.21327e-10
-2.63893e-10
-7.3427e-10
-2.60473e-10
-7.47138e-10
-2.57022e-10
-7.5993e-10
-2.53542e-10
-7.72642e-10
-2.50034e-10
-7.85273e-10
-2.465e-10
-7.97819e-10
-2.42941e-10
-8.10277e-10
-2.3936e-10
-8.22647e-10
-2.35758e-10
-8.34923e-10
-2.32139e-10
-8.47105e-10
-2.28507e-10
-8.59188e-10
-2.24861e-10
-2.21123e-10
-8.7118e-10
-3.67403e-10
-3.37014e-10
-3.82605e-10
-3.3613e-10
-3.9796e-10
-3.35092e-10
-4.13448e-10
-3.33914e-10
-4.2905e-10
-3.3261e-10
-4.44747e-10
-3.3119e-10
-4.60523e-10
-3.29663e-10
-4.76363e-10
-3.28037e-10
-4.92253e-10
-3.26319e-10
-5.08183e-10
-3.24514e-10
-5.2414e-10
-3.22628e-10
-5.40115e-10
-3.20663e-10
-5.56098e-10
-3.18625e-10
-5.72081e-10
-3.16515e-10
-5.88057e-10
-3.14337e-10
-6.04018e-10
-3.12093e-10
-6.19957e-10
-3.09784e-10
-6.3587e-10
-3.07414e-10
-6.51748e-10
-3.04984e-10
-6.67589e-10
-3.02496e-10
-6.83385e-10
-2.9995e-10
-6.99133e-10
-2.9735e-10
-7.14827e-10
-2.94696e-10
-7.30463e-10
-2.9199e-10
-7.46037e-10