/*--------------------------------*- C++ -*----------------------------------*\
| =========                 |                                                 |
| \\      /  F ield         | OpenFOAM: The Open Source CFD Toolbox           |
|  \\    /   O peration     | Version:  2.4.0                                 |
|   \\  /    A nd           | Web:      www.OpenFOAM.org                      |
|    \\/     M anipulation  |                                                 |
\*---------------------------------------------------------------------------*/
FoamFile
{
    version     2.0;
    format      ascii;
    class       volScalarField;
    location    "2";
    object      p;
}
// * * * * * * * * * * * * * * * * * * * * * * * * * * * * * * * * * * * * * //

dimensions      [1 -1 -2 0 0 0 0];

internalField   nonuniform List<scalar> 
125
(
-0.0577114
-0.0577114
-0.0577114
-0.0577114
-0.0577114
-0.0588461
-0.0588461
-0.0588461
-0.0588461
-0.0588461
-0.0599933
-0.0599933
-0.0599933
-0.0599933
-0.0599933
-0.0611534
-0.0611534
-0.0611534
-0.0611534
-0.0611534
-0.0623264
-0.0623264
-0.0623264
-0.0623264
-0.0623264
-0.0635125
-0.0635125
-0.0635125
-0.0635125
-0.0635125
-0.0647119
-0.0647119
-0.0647119
-0.0647119
-0.0647119
-0.0659246
-0.0659246
-0.0659246
-0.0659246
-0.0659246
-0.0671509
-0.0671509
-0.0671509
-0.0671509
-0.0671509
-0.0683908
-0.0683908
-0.0683908
-0.0683908
-0.0683908
-0.0696446
-0.0696446
-0.0696446
-0.0696446
-0.0696446
-0.0709124
-0.0709124
-0.0709124
-0.0709124
-0.0709124
-0.0721943
-0.0721943
-0.0721943
-0.0721943
-0.0721943
-0.0734905
-0.0734905
-0.0734905
-0.0734905
-0.0734905
-0.0748012
-0.0748012
-0.0748012
-0.0748012
-0.0748012
-0.0761266
-0.0761266
-0.0761266
-0.0761266
-0.0761266
-0.0774667
-0.0774667
-0.0774667
-0.0774667
-0.0774667
-0.0788217
-0.0788217
-0.0788217
-0.0788217
-0.0788217
-0.0801919
-0.0801919
-0.0801919
-0.0801919
-0.0801919
-0.0815774
-0.0815774
-0.0815774
-0.0815774
-0.0815774
-0.0829783
-0.0829783
-0.0829783
-0.0829783
-0.0829783
-0.0843949
-0.0843949
-0.0843949
-0.0843949
-0.0843949
-0.0858272
-0.0858272
-0.0858272
-0.0858272
-0.0858272
-0.0872756
-0.0872756
-0.0872756
-0.0872756
-0.0872756
-0.0887401
-0.0887401
-0.0887401
-0.0887401
-0.0887401
)
;

boundaryField
{
    BotWall
    {
        type            calculated;
        value           nonuniform 0();
    }
    FreeStream
    {
        type            calculated;
        value           nonuniform List<scalar> 5(-0.0894764 -0.0894764 -0.0894764 -0.0894764 -0.0894764);
    }
    FrontNBack
    {
        type            empty;
    }
    LeftSide
    {
        type            symmetryPlane;
    }
    RightSide
    {
        type            symmetryPlane;
    }
    procBoundary3to2
    {
        type            processor;
        value           nonuniform List<scalar> 5(-0.0565894 -0.0565894 -0.0565893 -0.0565894 -0.0565894);
    }
}


// ************************************************************************* //
