/*--------------------------------*- C++ -*----------------------------------*\
| =========                 |                                                 |
| \\      /  F ield         | OpenFOAM: The Open Source CFD Toolbox           |
|  \\    /   O peration     | Version:  2.4.0                                 |
|   \\  /    A nd           | Web:      www.OpenFOAM.org                      |
|    \\/     M anipulation  |                                                 |
\*---------------------------------------------------------------------------*/
FoamFile
{
    version     2.0;
    format      ascii;
    class       volScalarField;
    location    "2";
    object      p_rgh;
}
// * * * * * * * * * * * * * * * * * * * * * * * * * * * * * * * * * * * * * //

dimensions      [1 -1 -2 0 0 0 0];

internalField   nonuniform List<scalar> 
125
(
-1.43243e-05
-1.43224e-05
-1.43213e-05
-1.43221e-05
-1.43242e-05
-1.41423e-05
-1.41405e-05
-1.41395e-05
-1.41402e-05
-1.41422e-05
-1.39583e-05
-1.39566e-05
-1.39556e-05
-1.39563e-05
-1.39582e-05
-1.37723e-05
-1.37706e-05
-1.37697e-05
-1.37704e-05
-1.37721e-05
-1.35842e-05
-1.35826e-05
-1.35817e-05
-1.35824e-05
-1.3584e-05
-1.3394e-05
-1.33924e-05
-1.33916e-05
-1.33922e-05
-1.33938e-05
-1.32016e-05
-1.32002e-05
-1.31994e-05
-1.32e-05
-1.32015e-05
-1.30072e-05
-1.30058e-05
-1.30051e-05
-1.30056e-05
-1.3007e-05
-1.28106e-05
-1.28093e-05
-1.28086e-05
-1.28091e-05
-1.28104e-05
-1.26118e-05
-1.26106e-05
-1.26099e-05
-1.26104e-05
-1.26117e-05
-1.24108e-05
-1.24096e-05
-1.2409e-05
-1.24095e-05
-1.24106e-05
-1.22075e-05
-1.22065e-05
-1.22059e-05
-1.22063e-05
-1.22074e-05
-1.2002e-05
-1.2001e-05
-1.20005e-05
-1.20009e-05
-1.20019e-05
-1.17942e-05
-1.17933e-05
-1.17928e-05
-1.17932e-05
-1.17941e-05
-1.15841e-05
-1.15833e-05
-1.15828e-05
-1.15831e-05
-1.1584e-05
-1.13717e-05
-1.13709e-05
-1.13705e-05
-1.13708e-05
-1.13716e-05
-1.11569e-05
-1.11562e-05
-1.11558e-05
-1.11561e-05
-1.11568e-05
-1.09397e-05
-1.09391e-05
-1.09387e-05
-1.0939e-05
-1.09396e-05
-1.07201e-05
-1.07196e-05
-1.07192e-05
-1.07194e-05
-1.072e-05
-1.0498e-05
-1.04976e-05
-1.04973e-05
-1.04975e-05
-1.0498e-05
-1.02735e-05
-1.02731e-05
-1.02729e-05
-1.0273e-05
-1.02735e-05
-1.00465e-05
-1.00462e-05
-1.00459e-05
-1.00461e-05
-1.00465e-05
-9.81692e-06
-9.81671e-06
-9.81648e-06
-9.81659e-06
-9.81693e-06
-9.58479e-06
-9.58466e-06
-9.58447e-06
-9.58455e-06
-9.58481e-06
-9.34981e-06
-9.34992e-06
-9.34983e-06
-9.34979e-06
-9.34986e-06
)
;

boundaryField
{
    BotWall
    {
        type            fixedFluxPressure;
        gradient        nonuniform 0();
        value           nonuniform 0();
    }
    FreeStream
    {
        type            totalPressure;
        rho             rho;
        psi             none;
        gamma           1;
        p0              uniform 0;
        value           nonuniform List<scalar> 5(-9.23153e-06 -9.23188e-06 -9.23189e-06 -9.23173e-06 -9.2316e-06);
    }
    FrontNBack
    {
        type            empty;
    }
    LeftSide
    {
        type            symmetryPlane;
    }
    RightSide
    {
        type            symmetryPlane;
    }
    procBoundary3to2
    {
        type            processor;
        value           nonuniform List<scalar> 5(-1.45043e-05 -1.45023e-05 -1.45012e-05 -1.4502e-05 -1.45042e-05);
    }
}


// ************************************************************************* //
