/*--------------------------------*- C++ -*----------------------------------*\
| =========                 |                                                 |
| \\      /  F ield         | OpenFOAM: The Open Source CFD Toolbox           |
|  \\    /   O peration     | Version:  2.4.0                                 |
|   \\  /    A nd           | Web:      www.OpenFOAM.org                      |
|    \\/     M anipulation  |                                                 |
\*---------------------------------------------------------------------------*/
FoamFile
{
    version     2.0;
    format      ascii;
    class       surfaceScalarField;
    location    "2";
    object      phi;
}
// * * * * * * * * * * * * * * * * * * * * * * * * * * * * * * * * * * * * * //

dimensions      [0 3 -1 0 0 0 0];

internalField   nonuniform List<scalar> 
220
(
2.65059e-17
-2.84569e-10
3.55941e-17
-2.84576e-10
-8.56217e-18
-2.84577e-10
-4.12332e-17
-2.84574e-10
-2.8457e-10
2.86928e-17
-2.84569e-10
3.55707e-17
-2.84576e-10
-1.01985e-17
-2.84577e-10
-4.20523e-17
-2.84574e-10
-2.8457e-10
3.07289e-17
-2.84569e-10
3.54351e-17
-2.84576e-10
-1.17602e-17
-2.84577e-10
-4.27259e-17
-2.84574e-10
-2.8457e-10
3.26207e-17
-2.84569e-10
3.51987e-17
-2.84576e-10
-1.32484e-17
-2.84577e-10
-4.32661e-17
-2.84574e-10
-2.8457e-10
3.43768e-17
-2.84569e-10
3.48739e-17
-2.84576e-10
-1.46652e-17
-2.84577e-10
-4.36879e-17
-2.84574e-10
-2.8457e-10
3.60075e-17
-2.84569e-10
3.44744e-17
-2.84576e-10
-1.60135e-17
-2.84577e-10
-4.40075e-17
-2.84574e-10
-2.8457e-10
3.75244e-17
-2.84569e-10
3.40147e-17
-2.84576e-10
-1.72973e-17
-2.84577e-10
-4.42422e-17
-2.84574e-10
-2.84571e-10
3.89404e-17
-2.84569e-10
3.35099e-17
-2.84576e-10
-1.85211e-17
-2.84577e-10
-4.44101e-17
-2.84574e-10
-2.84571e-10
4.02692e-17
-2.8457e-10
3.29755e-17
-2.84576e-10
-1.96899e-17
-2.84577e-10
-4.45298e-17
-2.84574e-10
-2.84571e-10
4.15248e-17
-2.8457e-10
3.24272e-17
-2.84576e-10
-2.0809e-17
-2.84577e-10
-4.46199e-17
-2.84574e-10
-2.84571e-10
4.27213e-17
-2.8457e-10
3.18803e-17
-2.84576e-10
-2.18838e-17
-2.84577e-10
-4.46988e-17
-2.84573e-10
-2.84571e-10
4.38723e-17
-2.8457e-10
3.135e-17
-2.84576e-10
-2.29195e-17
-2.84576e-10
-4.47837e-17
-2.84573e-10
-2.84571e-10
4.49909e-17
-2.8457e-10
3.08503e-17
-2.84576e-10
-2.39211e-17
-2.84576e-10
-4.48911e-17
-2.84573e-10
-2.84571e-10
4.60884e-17
-2.8457e-10
3.03944e-17
-2.84576e-10
-2.48928e-17
-2.84576e-10
-4.50354e-17
-2.84573e-10
-2.84571e-10
4.71748e-17
-2.8457e-10
2.99941e-17
-2.84576e-10
-2.58379e-17
-2.84576e-10
-4.52292e-17
-2.84573e-10
-2.84571e-10
4.82576e-17
-2.8457e-10
2.96593e-17
-2.84576e-10
-2.67588e-17
-2.84576e-10
-4.54825e-17
-2.84573e-10
-2.84571e-10
4.93417e-17
-2.8457e-10
2.93984e-17
-2.84576e-10
-2.76564e-17
-2.84576e-10
-4.58022e-17
-2.84573e-10
-2.84571e-10
5.04288e-17
-2.8457e-10
2.92173e-17
-2.84576e-10
-2.85299e-17
-2.84576e-10
-4.6192e-17
-2.84573e-10
-2.84571e-10
5.15171e-17
-2.8457e-10
2.91195e-17
-2.84576e-10
-2.93766e-17
-2.84576e-10
-4.66519e-17
-2.84573e-10
-2.84571e-10
5.26007e-17
-2.8457e-10
2.9106e-17
-2.84576e-10
-3.01918e-17
-2.84576e-10
-4.71779e-17
-2.84573e-10
-2.84571e-10
5.36691e-17
-2.8457e-10
2.91747e-17
-2.84576e-10
-3.09682e-17
-2.84576e-10
-4.77613e-17
-2.84573e-10
-2.84571e-10
5.47066e-17
-2.8457e-10
2.93207e-17
-2.84576e-10
-3.16959e-17
-2.84576e-10
-4.83889e-17
-2.84573e-10
-2.84571e-10
5.5694e-17
-2.8457e-10
2.95365e-17
-2.84576e-10
-3.23631e-17
-2.84576e-10
-4.90439e-17
-2.84573e-10
-2.84571e-10
5.66151e-17
-2.8457e-10
2.98148e-17
-2.84576e-10
-3.29594e-17
-2.84576e-10
-4.9711e-17
-2.84573e-10
-2.84571e-10
5.74863e-17
3.01277e-17
-3.34822e-17
-5.03643e-17
)
;

boundaryField
{
    BotWall
    {
        type            calculated;
        value           nonuniform 0();
    }
    FreeStream
    {
        type            calculated;
        value           nonuniform List<scalar> 5(-2.8457e-10 -2.84576e-10 -2.84576e-10 -2.84573e-10 -2.84571e-10);
    }
    FrontNBack
    {
        type            empty;
        value           nonuniform 0();
    }
    LeftSide
    {
        type            symmetryPlane;
        value           uniform 0;
    }
    RightSide
    {
        type            symmetryPlane;
        value           uniform 0;
    }
    procBoundary3to2
    {
        type            processor;
        value           nonuniform List<scalar> 5(2.84569e-10 2.84576e-10 2.84577e-10 2.84574e-10 2.8457e-10);
    }
}


// ************************************************************************* //
