/*--------------------------------*- C++ -*----------------------------------*\
| =========                 |                                                 |
| \\      /  F ield         | OpenFOAM: The Open Source CFD Toolbox           |
|  \\    /   O peration     | Version:  2.4.0                                 |
|   \\  /    A nd           | Web:      www.OpenFOAM.org                      |
|    \\/     M anipulation  |                                                 |
\*---------------------------------------------------------------------------*/
FoamFile
{
    version     2.0;
    format      ascii;
    class       volVectorField;
    location    "2";
    object      U;
}
// * * * * * * * * * * * * * * * * * * * * * * * * * * * * * * * * * * * * * //

dimensions      [0 1 -1 0 0 0 0];

internalField   nonuniform List<vector> 
125
(
(1.60146e-09 -0.00142285 0)
(6.8394e-09 -0.00142288 0)
(4.46124e-09 -0.00142289 0)
(-7.18508e-09 -0.00142287 0)
(-5.93201e-09 -0.00142285 0)
(1.96925e-09 -0.00142285 0)
(7.06395e-09 -0.00142288 0)
(4.10446e-09 -0.00142288 0)
(-7.31155e-09 -0.00142287 0)
(-5.91667e-09 -0.00142285 0)
(2.31236e-09 -0.00142285 0)
(7.25224e-09 -0.00142288 0)
(3.75072e-09 -0.00142288 0)
(-7.40686e-09 -0.00142287 0)
(-5.88344e-09 -0.00142285 0)
(2.63171e-09 -0.00142285 0)
(7.40713e-09 -0.00142288 0)
(3.40171e-09 -0.00142288 0)
(-7.47391e-09 -0.00142287 0)
(-5.83474e-09 -0.00142285 0)
(2.92844e-09 -0.00142285 0)
(7.53179e-09 -0.00142288 0)
(3.05908e-09 -0.00142288 0)
(-7.51596e-09 -0.00142287 0)
(-5.77315e-09 -0.00142285 0)
(3.20382e-09 -0.00142285 0)
(7.62956e-09 -0.00142288 0)
(2.7244e-09 -0.00142288 0)
(-7.53641e-09 -0.00142287 0)
(-5.70135e-09 -0.00142285 0)
(3.45926e-09 -0.00142285 0)
(7.70396e-09 -0.00142288 0)
(2.39917e-09 -0.00142288 0)
(-7.53875e-09 -0.00142287 0)
(-5.62197e-09 -0.00142285 0)
(3.69623e-09 -0.00142285 0)
(7.75854e-09 -0.00142288 0)
(2.0848e-09 -0.00142288 0)
(-7.5265e-09 -0.00142287 0)
(-5.53766e-09 -0.00142285 0)
(3.91624e-09 -0.00142285 0)
(7.79689e-09 -0.00142288 0)
(1.7826e-09 -0.00142288 0)
(-7.50315e-09 -0.00142287 0)
(-5.45094e-09 -0.00142285 0)
(4.1208e-09 -0.00142285 0)
(7.8225e-09 -0.00142288 0)
(1.49375e-09 -0.00142288 0)
(-7.47206e-09 -0.00142287 0)
(-5.36425e-09 -0.00142285 0)
(4.31136e-09 -0.00142285 0)
(7.83873e-09 -0.00142288 0)
(1.21935e-09 -0.00142288 0)
(-7.43644e-09 -0.00142287 0)
(-5.27982e-09 -0.00142285 0)
(4.48928e-09 -0.00142285 0)
(7.84874e-09 -0.00142288 0)
(9.60363e-10 -0.00142288 0)
(-7.39928e-09 -0.00142287 0)
(-5.19968e-09 -0.00142285 0)
(4.65579e-09 -0.00142285 0)
(7.8554e-09 -0.00142288 0)
(7.17633e-10 -0.00142288 0)
(-7.36322e-09 -0.00142287 0)
(-5.1256e-09 -0.00142285 0)
(4.81195e-09 -0.00142285 0)
(7.86124e-09 -0.00142288 0)
(4.91888e-10 -0.00142288 0)
(-7.33059e-09 -0.00142287 0)
(-5.05906e-09 -0.00142285 0)
(4.95856e-09 -0.00142285 0)
(7.86836e-09 -0.00142288 0)
(2.83736e-10 -0.00142288 0)
(-7.30327e-09 -0.00142287 0)
(-5.0012e-09 -0.00142285 0)
(5.0962e-09 -0.00142285 0)
(7.87844e-09 -0.00142288 0)
(9.36725e-11 -0.00142288 0)
(-7.2827e-09 -0.00142287 0)
(-4.95282e-09 -0.00142285 0)
(5.22514e-09 -0.00142285 0)
(7.89261e-09 -0.00142288 0)
(-7.79126e-11 -0.00142288 0)
(-7.2698e-09 -0.00142287 0)
(-4.91434e-09 -0.00142285 0)
(5.34533e-09 -0.00142285 0)
(7.91147e-09 -0.00142288 0)
(-2.30728e-10 -0.00142288 0)
(-7.26495e-09 -0.00142287 0)
(-4.88575e-09 -0.00142285 0)
(5.45633e-09 -0.00142285 0)
(7.93499e-09 -0.00142288 0)
(-3.64571e-10 -0.00142288 0)
(-7.26795e-09 -0.00142287 0)
(-4.86665e-09 -0.00142286 0)
(5.55736e-09 -0.00142285 0)
(7.96255e-09 -0.00142288 0)
(-4.79312e-10 -0.00142288 0)
(-7.278e-09 -0.00142287 0)
(-4.85622e-09 -0.00142286 0)
(5.6472e-09 -0.00142285 0)
(7.99284e-09 -0.00142288 0)
(-5.74886e-10 -0.00142288 0)
(-7.29368e-09 -0.00142287 0)
(-4.85317e-09 -0.00142286 0)
(5.72423e-09 -0.00142285 0)
(8.02391e-09 -0.00142288 0)
(-6.51276e-10 -0.00142288 0)
(-7.31295e-09 -0.00142287 0)
(-4.85585e-09 -0.00142286 0)
(5.78654e-09 -0.00142285 0)
(8.05337e-09 -0.00142288 0)
(-7.08522e-10 -0.00142288 0)
(-7.3334e-09 -0.00142287 0)
(-4.86228e-09 -0.00142286 0)
(5.83216e-09 -0.00142285 0)
(8.07865e-09 -0.00142288 0)
(-7.46727e-10 -0.00142288 0)
(-7.35245e-09 -0.00142287 0)
(-4.87037e-09 -0.00142286 0)
(5.85846e-09 -0.00142285 0)
(8.09622e-09 -0.00142288 0)
(-7.65986e-10 -0.00142288 0)
(-7.36666e-09 -0.00142287 0)
(-4.8775e-09 -0.00142286 0)
)
;

boundaryField
{
    BotWall
    {
        type            fixedValue;
        value           nonuniform 0();
    }
    FreeStream
    {
        type            zeroGradient;
    }
    FrontNBack
    {
        type            empty;
    }
    LeftSide
    {
        type            symmetryPlane;
    }
    RightSide
    {
        type            symmetryPlane;
    }
    procBoundary3to2
    {
        type            processor;
        value           nonuniform List<vector> 5((1.20823e-09 -0.00142285 0) (6.57606e-09 -0.00142288 0) (4.81931e-09 -0.00142289 0) (-7.02455e-09 -0.00142287 0) (-5.92693e-09 -0.00142285 0));
    }
}


// ************************************************************************* //
