/*--------------------------------*- C++ -*----------------------------------*\
| =========                 |                                                 |
| \\      /  F ield         | OpenFOAM: The Open Source CFD Toolbox           |
|  \\    /   O peration     | Version:  2.4.0                                 |
|   \\  /    A nd           | Web:      www.OpenFOAM.org                      |
|    \\/     M anipulation  |                                                 |
\*---------------------------------------------------------------------------*/
FoamFile
{
    version     2.0;
    format      ascii;
    class       volScalarField;
    location    "1.3";
    object      H;
}
// * * * * * * * * * * * * * * * * * * * * * * * * * * * * * * * * * * * * * //

dimensions      [0 2 -2 0 0 0 0];

internalField   nonuniform List<scalar> 
125
(
-12.9946
-12.9953
-12.9958
-12.9955
-12.9946
-12.0888
-12.0894
-12.0898
-12.0896
-12.0888
-11.2262
-11.2268
-11.2272
-11.2269
-11.2262
-10.4059
-10.4065
-10.4069
-10.4067
-10.4059
-9.62691
-9.62751
-9.62786
-9.62763
-9.62689
-8.88785
-8.88842
-8.88875
-8.88853
-8.88784
-8.18731
-8.18784
-8.18815
-8.18795
-8.1873
-7.52372
-7.52422
-7.52451
-7.52432
-7.52371
-6.89541
-6.89587
-6.89614
-6.89597
-6.89539
-6.30061
-6.30104
-6.30129
-6.30113
-6.3006
-5.73752
-5.73791
-5.73814
-5.73799
-5.7375
-5.20426
-5.20462
-5.20482
-5.20469
-5.20425
-4.69896
-4.69928
-4.69946
-4.69935
-4.69894
-4.21971
-4.21999
-4.22016
-4.22006
-4.21969
-3.76463
-3.76488
-3.76503
-3.76494
-3.76461
-3.33186
-3.33208
-3.33222
-3.33213
-3.33185
-2.91958
-2.91977
-2.91989
-2.91982
-2.91956
-2.52599
-2.52616
-2.52626
-2.5262
-2.52598
-2.14937
-2.14951
-2.14959
-2.14954
-2.14936
-1.78802
-1.78814
-1.78821
-1.78817
-1.78801
-1.44032
-1.44041
-1.44047
-1.44043
-1.44031
-1.10467
-1.10474
-1.10479
-1.10476
-1.10467
-0.779539
-0.779589
-0.779619
-0.779601
-0.779536
-0.463413
-0.463442
-0.46346
-0.463449
-0.46341
-0.154807
-0.154817
-0.154823
-0.154819
-0.154806
)
;

boundaryField
{
    BotWall
    {
        type            zeroGradient;
    }
    FreeStream
    {
        type            zeroGradient;
    }
    FrontNBack
    {
        type            empty;
    }
    LeftSide
    {
        type            symmetryPlane;
    }
    RightSide
    {
        type            symmetryPlane;
    }
    procBoundary3to2
    {
        type            processor;
        value           nonuniform List<scalar> 5(-13.9468 -13.9475 -13.9479 -13.9476 -13.9468);
    }
}


// ************************************************************************* //
