/*--------------------------------*- C++ -*----------------------------------*\
| =========                 |                                                 |
| \\      /  F ield         | OpenFOAM: The Open Source CFD Toolbox           |
|  \\    /   O peration     | Version:  2.4.0                                 |
|   \\  /    A nd           | Web:      www.OpenFOAM.org                      |
|    \\/     M anipulation  |                                                 |
\*---------------------------------------------------------------------------*/
FoamFile
{
    version     2.0;
    format      ascii;
    class       volScalarField;
    location    "0.7";
    object      p_rgh;
}
// * * * * * * * * * * * * * * * * * * * * * * * * * * * * * * * * * * * * * //

dimensions      [1 -1 -2 0 0 0 0];

internalField   nonuniform List<scalar> 
8000
(
80.1895
80.1883
80.187
80.1857
80.1845
80.1833
80.1822
80.1811
80.18
80.1789
80.1779
80.1769
80.1759
80.175
80.1741
80.1733
80.1725
80.1715
80.1704
80.1699
80.1732
80.1821
80.1757
80.0738
79.8269
27.2215
0.013367
0.00180356
0.000877154
0.000510797
0.00036665
0.000303154
0.000270116
0.000251836
0.000241361
0.000235055
0.000230572
0.00022684
0.000223002
0.000218381
0.000211137
0.000208407
0.000206278
0.000205202
0.000205907
0.00019931
0.000200485
0.000193214
0.000190172
0.000200656
81.5133
81.5119
81.5103
81.5088
81.5073
81.5059
81.5045
81.5031
81.5018
81.5004
81.4992
81.4979
81.4967
81.4955
81.4944
81.4933
81.4923
81.4911
81.4897
81.489
81.4922
81.5015
81.4948
81.3882
81.1276
29.3478
0.0123624
0.00193949
0.00094291
0.000552115
0.000411638
0.00035267
0.000322078
0.000304194
0.000292737
0.000284801
0.000278414
0.000273166
0.000268468
0.000262945
0.000251169
0.000248237
0.000245323
0.000244402
0.000249044
0.000236977
0.000245117
0.00023282
0.000230005
0.000254446
82.8428
82.8406
82.8381
82.8358
82.8336
82.8315
82.8295
82.8275
82.8257
82.8239
82.8222
82.8206
82.8191
82.8177
82.8165
82.8153
82.8142
82.813
82.8117
82.8111
82.8147
82.8251
82.8196
82.709
82.4265
35.7291
0.0120889
0.001752
0.000992974
0.000615858
0.000484181
0.000428785
0.00039909
0.000380324
0.000366886
0.000356537
0.000347593
0.000340398
0.000335036
0.000329624
0.000311739
0.000309546
0.000309228
0.000332606
0.000359294
0.000232768
0.000260253
0.000229317
0.000233394
0.0002735
84.1606
84.1571
84.1532
84.1496
84.1462
84.1429
84.1397
84.1367
84.1338
84.131
84.1284
84.1259
84.1236
84.1214
84.1194
84.1176
84.1159
84.1141
84.1123
84.1112
84.1142
84.1247
84.1211
84.0132
83.7203
44.787
0.0313753
0.00109633
0.000947326
0.000637859
0.000518638
0.000463674
0.000431168
0.0004091
0.00039169
0.000377101
0.000363895
0.000352892
0.000345088
0.000339853
0.000313627
0.00031091
0.000304329
0.000303134
0.000271805
0.000343309
0.000489986
0.000272329
0.000269926
0.00026432
85.4588
85.4532
85.447
85.4412
85.4358
85.4307
85.4257
85.4211
85.4166
85.4124
85.4085
85.4048
85.4013
85.3981
85.3952
85.3925
85.39
85.3877
85.3853
85.3836
85.3857
85.3955
85.3957
85.3025
85.0191
56.4966
0.382161
0.000898044
0.000929553
0.000730797
0.000618354
0.000557207
0.000516724
0.000489653
0.000467423
0.000448407
0.000431714
0.000417647
0.000407087
0.000399481
0.000376688
0.000372198
0.000363519
0.000352705
0.000341997
0.000340093
0.000377423
0.000345918
0.000340074
0.000320597
86.7428
86.7343
86.725
86.7164
86.7083
86.7006
86.6933
86.6862
86.6796
86.6733
86.6674
86.6618
86.6566
86.6517
86.6473
86.6432
86.6395
86.6361
86.6328
86.6299
86.6304
86.6391
86.6453
86.5752
86.3055
70.2509
2.93721
0.00321348
0.000903344
0.000865131
0.000761849
0.0006874
0.000632472
0.000598417
0.000570722
0.000547744
0.000528792
0.000512235
0.000497631
0.000484494
0.00047444
0.00046393
0.000453048
0.000441711
0.00043167
0.000424441
0.000416805
0.000412306
0.000406835
0.000400549
87.9455
87.9328
87.9189
87.9061
87.8943
87.8832
87.8728
87.863
87.8539
87.8455
87.8377
87.8307
87.8243
87.8185
87.8135
87.8091
87.8055
87.8024
87.7996
87.7973
87.7987
87.8104
87.8256
87.7671
87.4661
79.992
12.4119
0.0386229
0.00101329
0.00101475
0.000932359
0.000841523
0.000771201
0.000729932
0.00069825
0.000673604
0.000654349
0.000637176
0.000622033
0.000607827
0.000594021
0.000579401
0.000565469
0.000552332
0.000540244
0.000529303
0.000519276
0.000510394
0.000501831
0.000493311
89.1233
89.1069
89.0891
89.0728
89.0576
89.0431
89.0293
89.0162
89.0037
88.9918
88.9805
88.9698
88.9598
88.9503
88.9415
88.9333
88.9257
88.9186
88.9115
88.9047
88.902
88.9136
88.9355
88.8682
88.456
86.42
28.615
0.354848
0.00541169
0.00131661
0.0012972
0.00121342
0.00113584
0.00108165
0.00104375
0.00101362
0.000987605
0.000961939
0.000938279
0.000913831
0.000888272
0.000860488
0.000835458
0.000811421
0.000787428
0.000764531
0.000743415
0.000722075
0.000701783
0.000681559
90.0064
89.9869
89.9654
89.9457
89.9276
89.9107
89.8949
89.8799
89.866
89.8529
89.8408
89.8295
89.8192
89.8098
89.8012
89.7937
89.7872
89.7815
89.7765
89.7722
89.7714
89.7831
89.8081
89.772
89.453
88.8099
53.3887
3.05149
0.0610907
0.00281038
0.00171343
0.00170215
0.00165092
0.00155537
0.00149728
0.00144044
0.00138684
0.00133486
0.00129141
0.00124644
0.00119923
0.00114394
0.00110187
0.00106222
0.00101756
0.000975444
0.000940582
0.000901735
0.000866258
0.000829728
91.0257
91.0162
91.0063
90.9969
90.9873
90.9773
90.967
90.9561
90.9448
90.9329
90.9205
90.9074
90.8938
90.8795
90.8645
90.8489
90.8326
90.8156
90.7977
90.7786
90.7587
90.7412
90.7334
90.7274
90.6387
90.286
84.2317
27.4855
1.09617
0.0399678
0.00389512
0.00312565
0.00313996
0.00276473
0.00269011
0.00252616
0.00235731
0.00219961
0.00207161
0.00194814
0.00182715
0.00168147
0.00157788
0.00148947
0.00137799
0.00127973
0.00120606
0.00112846
0.0010581
0.000978484
91.2034
91.2246
91.2445
91.2595
91.2702
91.2771
91.2805
91.2803
91.2765
91.269
91.2579
91.2432
91.2247
91.2023
91.1762
91.1461
91.112
91.0738
91.0313
90.9843
90.9324
90.8755
90.8172
90.7655
90.7144
90.5712
90.1234
87.0666
29.3031
2.92601
0.00529385
0.0280004
0.00373661
0.00294921
0.00287911
0.00261555
0.0024303
0.00226498
0.00216941
0.00207792
0.00193044
0.00177725
0.00181326
0.00183847
0.00109938
0.00114748
0.000900371
0.000883897
0.000816803
0.000695983
93.0624
93.096
93.1319
93.1631
93.1895
93.2119
93.2306
93.2459
93.2576
93.2658
93.2705
93.2717
93.2694
93.2636
93.2544
93.2415
93.225
93.2049
93.181
93.1533
93.1218
93.086
93.0459
93.0012
92.9546
92.9116
92.8689
92.7625
92.431
77.0664
9.54225
1.88259
0.0119896
0.0249409
-0.00150647
-0.0026447
-0.0022538
-0.00193814
-0.00183491
-0.00174944
-0.00170622
-0.00161357
-0.00150543
-0.00146688
-0.00142618
-0.00126418
-0.00114857
-0.0013566
-0.00129114
-0.00126276
94.725
94.7522
94.7803
94.8052
94.8274
94.8477
94.8663
94.8832
94.8985
94.9121
94.9241
94.9346
94.9436
94.9511
94.9572
94.9618
94.9652
94.9672
94.9679
94.9674
94.9657
94.9628
94.9587
94.9536
94.947
94.9384
94.9293
94.9292
94.9546
94.9429
94.5248
72.8325
11.0233
0.935549
-0.0500203
-0.00318791
-0.000174001
-0.00160954
-0.00206912
-0.00194859
-0.00179747
-0.00172436
-0.00164843
-0.00160171
-0.0015637
-0.00151083
-0.00146034
-0.00140891
-0.00136637
-0.0013234
97.7275
97.7367
97.7488
97.7615
97.7743
97.7875
97.8012
97.8154
97.83
97.8451
97.8608
97.8771
97.894
97.9116
97.9299
97.949
97.9689
97.9898
98.0116
98.0346
98.0587
98.0842
98.1109
98.1395
98.1695
98.2019
98.2361
98.2714
98.3024
98.3332
98.4097
98.488
98.1316
80.2172
18.243
1.35333
0.320636
0.00726467
0.000862421
5.60933e-05
-0.00147946
-0.00162598
-0.00168361
-0.00162815
-0.00159886
-0.00154929
-0.0015227
-0.00150842
-0.00149865
-0.00148808
99.4515
99.4532
99.4545
99.4566
99.4599
99.4645
99.4703
99.4773
99.4855
99.4949
99.5056
99.5175
99.5307
99.5453
99.5611
99.5784
99.597
99.6172
99.6387
99.6619
99.6865
99.713
99.7409
99.7709
99.8023
99.8359
99.871
99.9088
99.9485
99.9903
100.025
100.05
100.099
100.162
99.9529
86.0937
27.0084
3.23533
0.7815
0.136081
0.0274532
0.0169963
-0.000244496
-0.000648455
-0.00175942
-0.00178421
-0.00161561
-0.00158636
-0.00157277
-0.00157632
102.161
102.151
102.142
102.136
102.131
102.127
102.125
102.125
102.125
102.127
102.131
102.135
102.141
102.148
102.157
102.167
102.178
102.191
102.205
102.22
102.237
102.255
102.275
102.296
102.318
102.342
102.367
102.394
102.422
102.452
102.484
102.517
102.545
102.563
102.598
102.68
102.619
92.775
42.0093
8.04401
2.44658
0.813348
0.168955
0.130792
0.0038924
0.00524507
-0.000590824
-0.00101038
-0.00110001
-0.00111028
103.348
103.333
103.316
103.3
103.287
103.276
103.267
103.26
103.254
103.25
103.248
103.247
103.248
103.251
103.255
103.261
103.269
103.279
103.29
103.303
103.318
103.334
103.352
103.372
103.394
103.417
103.442
103.468
103.496
103.526
103.558
103.591
103.626
103.663
103.698
103.721
103.742
103.81
103.832
97.3293
62.3258
19.6912
7.51795
3.61838
0.845582
0.510791
0.0104293
0.0169371
-0.000867643
-0.00121397
105.74
105.731
105.722
105.712
105.702
105.69
105.677
105.665
105.652
105.641
105.63
105.62
105.611
105.604
105.598
105.594
105.592
105.592
105.594
105.598
105.604
105.613
105.623
105.636
105.651
105.668
105.688
105.709
105.733
105.758
105.785
105.814
105.845
105.877
105.911
105.946
105.982
106.009
106.019
106.045
106.038
101.613
86.2817
45.9216
24.4792
13.8318
1.83598
0.822697
-0.00458006
0.00488862
105.831
105.857
105.876
105.885
105.888
105.886
105.881
105.874
105.865
105.856
105.846
105.837
105.828
105.82
105.814
105.809
105.806
105.806
105.807
105.811
105.818
105.827
105.838
105.852
105.869
105.888
105.91
105.934
105.961
105.99
106.021
106.054
106.088
106.125
106.162
106.201
106.24
106.28
106.319
106.352
106.375
106.4
106.454
105.751
99.5631
85.4371
50.1454
16.4474
7.25669
1.03467
111.519
111.088
110.654
110.28
109.955
109.664
109.399
109.16
108.945
108.75
108.575
108.418
108.279
108.155
108.047
107.953
107.873
107.807
107.754
107.713
107.685
107.669
107.666
107.674
107.695
107.727
107.771
107.827
107.896
107.977
108.071
108.178
108.299
108.434
108.584
108.751
108.934
109.136
109.357
109.602
109.872
110.169
110.484
110.775
110.948
110.508
111.087
109.254
109.382
59.0261
0.000197938
0.000178787
0.000181336
0.000174182
0.000174642
0.000167919
0.000168108
0.000179368
0.000167047
0.000165264
0.000173703
0.000164945
0.00016594
0.000161962
0.000159448
0.000157537
0.000155799
0.000154751
0.000153873
0.000153564
0.000152514
0.000153499
0.000149011
0.000146725
0.000144912
0.000143572
0.000141755
0.000140039
0.000138158
0.000136503
0.000134793
0.000133265
0.000131763
0.000130194
0.000128508
0.000126743
0.000124928
0.00012311
0.000121305
0.000119524
0.00011777
0.000116034
0.000114305
0.000112578
0.000110849
0.00010912
0.000107394
0.00010568
0.000103996
0.000102313
0.000214048
0.000168861
0.000205552
0.000191565
0.00019718
0.000184336
0.000186549
0.000230331
0.000210902
0.000195372
0.000182697
0.000159795
0.000183437
0.000173417
0.000169859
0.000167268
0.000164961
0.000165604
0.000165313
0.000167846
0.000166728
0.000174253
0.000168001
0.000163615
0.000161681
0.000160593
0.000158443
0.000156661
0.000154158
0.000152256
0.000149759
0.000147997
0.00014653
0.000144963
0.000143236
0.000141293
0.000139123
0.00013688
0.000134589
0.000132303
0.000130056
0.000127849
0.000125665
0.000123487
0.000121297
0.000119093
0.000116875
0.000114655
0.000112466
0.00011029
0.000228202
0.000141155
0.000254508
0.000209421
0.000221909
0.000202019
0.000208802
0.000195218
0.000187371
0.000198585
0.000208133
0.00019997
0.000318597
0.000227408
0.000224553
0.000220925
0.000227723
0.000240207
0.00032651
0.000232343
0.000234683
0.000206902
0.000191307
0.000182945
0.000191307
0.000181065
0.000177571
0.000176935
0.000172168
0.000170524
0.000165573
0.000163185
0.000161655
0.000159087
0.000157375
0.000156237
0.000154122
0.000151205
0.000148186
0.000145199
0.000142274
0.000139419
0.000136616
0.000133839
0.000131045
0.000128222
0.000125355
0.000122453
0.000119559
0.000116653
0.000282445
0.000267932
0.000257229
0.000254343
0.000246293
0.000245362
0.000238895
0.000236963
0.000232717
0.000230017
0.000230373
0.000232494
0.000257067
0.000223305
0.000210208
0.000209688
0.000205492
0.000223763
0.000205716
0.000192058
0.000205708
0.000322301
0.0002378
0.000234401
0.000249305
0.000224342
0.000221454
0.000247504
0.000202242
0.000204647
0.00019098
0.000185938
0.000179896
0.000177575
0.000175178
0.000173587
0.000171548
0.000169691
0.000164499
0.000160408
0.000156584
0.000152936
0.00014935
0.000145822
0.000142233
0.00013863
0.000134953
0.000131219
0.000127488
0.000123722
0.000315801
0.000312901
0.00030922
0.000306511
0.000302591
0.000298997
0.00029536
0.000291749
0.000288228
0.00028478
0.000281195
0.000277737
0.00027594
0.000270404
0.000268494
0.000266301
0.000261848
0.000256147
0.000252423
0.000247439
0.00024337
0.000240366
0.000235594
0.000232941
0.000228744
0.000224397
0.000226197
0.000212248
0.000236034
0.000205195
0.000199797
0.000192709
0.000189079
0.000186576
0.000182682
0.000182615
0.00017757
0.000179406
0.000169763
0.000165171
0.000161148
0.00015727
0.000153207
0.000149338
0.000144736
0.000140493
0.000135978
0.000131505
0.000127077
0.000122577
0.000394414
0.000388867
0.000383308
0.000377814
0.000372212
0.00036647
0.000360632
0.000354708
0.000348706
0.000342641
0.000336508
0.000330378
0.000324141
0.000317843
0.000311535
0.000305509
0.000299654
0.000293777
0.000287889
0.00028199
0.000276157
0.000270239
0.000264419
0.00025856
0.000252589
0.000248524
0.000244028
0.000236708
0.000233416
0.000225791
0.000220921
0.000215496
0.000210313
0.000209229
0.000200022
0.000206365
0.000171369
0.000196944
0.000179998
0.000167991
0.000163466
0.000160946
0.000155646
0.000157173
0.000144635
0.000141907
0.000133233
0.000128546
0.000123423
0.000118025
0.000484878
0.000476503
0.000468138
0.000459749
0.000451295
0.000442724
0.000434026
0.000425213
0.000416316
0.000407361
0.00039837
0.000389352
0.000380323
0.000371284
0.000362263
0.000353291
0.000344343
0.000335464
0.000326683
0.000317972
0.000309319
0.000300754
0.000292305
0.000284202
0.000275663
0.000267266
0.000262161
0.000249929
0.000241621
0.000233252
0.000227779
0.000217391
0.000268563
0.000205562
0.00019501
0.000189331
0.000187788
0.000181325
0.000174202
0.000173563
0.000160317
0.000161917
0.000133592
0.000155218
0.00013694
0.000134527
0.000122732
0.000116677
0.000110697
0.000104065
0.000661975
0.000642596
0.000623738
0.000605184
0.000587017
0.000569206
0.000551713
0.000534525
0.000517624
0.000500968
0.000484473
0.0004682
0.000452213
0.000436501
0.000421058
0.000405895
0.000390983
0.000376341
0.000361985
0.000347929
0.000334184
0.000320754
0.000307598
0.000294914
0.000281884
0.000270057
0.000279526
0.00024944
0.000235773
0.000226405
0.000264234
0.000218395
0.000213687
0.000198271
0.000188255
0.000178767
0.000170366
0.000161417
0.000156541
0.000183851
0.000143933
0.000134887
0.000126299
0.000117324
0.000110613
0.000102062
9.50769e-05
8.74276e-05
7.92521e-05
7.23111e-05
0.000796394
0.000763408
0.000732532
0.00070255
0.000673845
0.000646483
0.000620264
0.00059507
0.00057084
0.000547524
0.000525057
0.000503353
0.000482312
0.000461794
0.000441788
0.000422372
0.000403523
0.000385218
0.00036744
0.00035018
0.00033344
0.000317219
0.000301422
0.000285908
0.00027095
0.000257022
0.000243856
0.000228189
0.000215172
0.000202508
0.00019099
0.000179022
0.000166761
0.00015531
0.000144097
0.000132759
0.000121065
0.000110359
0.000100313
9.21643e-05
8.2257e-05
7.28887e-05
6.41188e-05
5.5634e-05
4.74781e-05
3.96014e-05
3.20645e-05
2.48556e-05
1.79864e-05
1.13737e-05
0.000914586
0.000848366
0.000791026
0.000736162
0.000684314
0.000636377
0.000591864
0.000550338
0.000511528
0.000475296
0.000441517
0.000410026
0.000380615
0.000353058
0.000327125
0.000302597
0.000279281
0.000257123
0.000236111
0.000216169
0.000197225
0.000179213
0.000162063
0.000145692
0.00013006
0.000115176
0.000100985
8.75859e-05
7.49443e-05
6.23451e-05
5.01825e-05
3.89203e-05
2.81528e-05
1.78717e-05
8.03394e-06
-1.36391e-06
-1.03522e-05
-1.89983e-05
-2.72727e-05
-3.51597e-05
-4.26906e-05
-4.98781e-05
-5.67249e-05
-6.32582e-05
-6.94953e-05
-7.54483e-05
-8.11216e-05
-8.65148e-05
-9.16298e-05
-9.65707e-05
0.000674764
0.000568054
0.000528679
0.000466495
0.000418844
0.000371511
0.000327921
0.000287598
0.000250094
0.000215327
0.000183345
0.000154148
0.000127619
0.000103531
8.15942e-05
6.14956e-05
4.2935e-05
2.56552e-05
9.47901e-06
-5.68913e-06
-1.99199e-05
-3.32942e-05
-4.5889e-05
-5.77694e-05
-6.89928e-05
-7.9616e-05
-8.96868e-05
-9.92397e-05
-0.000108303
-0.000116899
-0.000125061
-0.000132818
-0.000140196
-0.000147211
-0.000153878
-0.000160215
-0.000166236
-0.000171953
-0.000177382
-0.000182535
-0.000187423
-0.000192056
-0.000196443
-0.000200591
-0.000204508
-0.000208203
-0.000211683
-0.000214951
-0.000217999
-0.000220833
-0.00121484
-0.00118872
-0.00112871
-0.00112621
-0.00109455
-0.00106412
-0.00103643
-0.00101073
-0.000986508
-0.000963354
-0.000940844
-0.000918649
-0.000896592
-0.000874642
-0.000852872
-0.000831417
-0.000810429
-0.000790044
-0.000770338
-0.000751331
-0.000733016
-0.000715386
-0.000698438
-0.000682166
-0.000666561
-0.000651612
-0.000637308
-0.000623631
-0.000610565
-0.00059809
-0.000586187
-0.000574835
-0.000564013
-0.0005537
-0.000543872
-0.000534507
-0.000525586
-0.000517093
-0.00050897
-0.000501227
-0.000493865
-0.000486871
-0.000480214
-0.000473871
-0.000467823
-0.000462054
-0.000456552
-0.000451309
-0.000446334
-0.000441602
-0.00129288
-0.00125903
-0.00122464
-0.00119958
-0.00117371
-0.00115269
-0.00113179
-0.00111182
-0.00109258
-0.00107382
-0.0010553
-0.00103689
-0.00101854
-0.00100028
-0.000982189
-0.000964344
-0.000946794
-0.000929549
-0.000912616
-0.000896008
-0.00087974
-0.000863828
-0.000848284
-0.000833124
-0.000818356
-0.000803986
-0.00079002
-0.000776484
-0.000763384
-0.000750689
-0.000738396
-0.000726507
-0.000715016
-0.000703919
-0.000693205
-0.000682866
-0.000672885
-0.000663247
-0.000653974
-0.000645027
-0.000636372
-0.000627991
-0.000619884
-0.000612047
-0.000604467
-0.000597133
-0.000590039
-0.000583185
-0.000576578
-0.000570116
-0.00147809
-0.00146805
-0.00145672
-0.00144428
-0.001431
-0.00141682
-0.00140171
-0.00138568
-0.0013688
-0.00135112
-0.00133272
-0.00131368
-0.00129409
-0.00127404
-0.00125363
-0.00123296
-0.00121212
-0.00119119
-0.00117025
-0.00114937
-0.00112863
-0.00110807
-0.00108776
-0.00106774
-0.00104805
-0.00102875
-0.00100984
-0.00099132
-0.000973209
-0.000955547
-0.000938342
-0.000921592
-0.000905298
-0.00088946
-0.000874074
-0.000859137
-0.000844643
-0.000830584
-0.000816953
-0.000803742
-0.000790941
-0.000778541
-0.000766533
-0.000754907
-0.000743652
-0.000732759
-0.000722221
-0.00071205
-0.000702259
-0.000692695
-0.00158155
-0.00158282
-0.00157906
-0.00157136
-0.00156065
-0.00154751
-0.00153235
-0.00151541
-0.00149692
-0.00147715
-0.00145634
-0.00143473
-0.00141251
-0.00138988
-0.00136701
-0.00134403
-0.00132106
-0.00129822
-0.00127559
-0.00125331
-0.00123143
-0.00120966
-0.00118836
-0.00116757
-0.00114725
-0.0011274
-0.00110804
-0.00108917
-0.0010708
-0.00105292
-0.00103553
-0.00101863
-0.0010022
-0.000986245
-0.000970744
-0.000955691
-0.000941072
-0.000926876
-0.000913091
-0.000899704
-0.000886703
-0.000874076
-0.000861811
-0.000849895
-0.000838317
-0.000827065
-0.000816129
-0.000805516
-0.00079525
-0.000785257
-0.00111906
-0.00114415
-0.00117035
-0.0011887
-0.00120113
-0.00120868
-0.0012128
-0.00121413
-0.00121301
-0.00120975
-0.00120466
-0.00119801
-0.00119003
-0.00118093
-0.00117091
-0.00116011
-0.00114869
-0.00113677
-0.00112445
-0.00111176
-0.00109875
-0.00108588
-0.0010729
-0.00105988
-0.00104686
-0.0010339
-0.00102103
-0.00100828
-0.000995658
-0.000983195
-0.0009709
-0.000958785
-0.000946857
-0.000935124
-0.000923591
-0.000912261
-0.000901137
-0.00089022
-0.00087951
-0.000869008
-0.000858712
-0.000848621
-0.000838733
-0.000829045
-0.000819555
-0.000810258
-0.00080116
-0.000792276
-0.000783611
-0.000774983
-0.00107337
-0.00102265
-0.00102777
-0.00104458
-0.00106514
-0.00107941
-0.0010899
-0.00109845
-0.00110531
-0.00111053
-0.00111417
-0.00111633
-0.00111711
-0.00111665
-0.00111506
-0.00111246
-0.00110895
-0.00110462
-0.00109959
-0.00109393
-0.00108773
-0.00108106
-0.00107394
-0.00106639
-0.00105853
-0.00105039
-0.00104201
-0.00103344
-0.00102469
-0.00101582
-0.00100683
-0.000997763
-0.000988637
-0.000979472
-0.000970285
-0.000961094
-0.000951912
-0.000942752
-0.000933626
-0.000924544
-0.000915514
-0.000906544
-0.000897641
-0.000888811
-0.00088006
-0.000871389
-0.000862802
-0.00085431
-0.000845947
-0.000837737
-0.000451611
-0.000712298
-0.00087967
-0.000878869
-0.000905444
-0.000918321
-0.000924722
-0.000929784
-0.000933494
-0.000935978
-0.000937473
-0.000938154
-0.000938147
-0.000937541
-0.000936395
-0.000934764
-0.000932696
-0.000930235
-0.00092742
-0.000924285
-0.00092086
-0.000917174
-0.00091325
-0.000909113
-0.000904783
-0.00090028
-0.000895622
-0.000890825
-0.000885902
-0.000880868
-0.000875734
-0.000870511
-0.000865208
-0.000859836
-0.000854401
-0.000848912
-0.000843375
-0.000837797
-0.000832185
-0.000826544
-0.000820879
-0.000815196
-0.000809498
-0.000803791
-0.000798077
-0.000792361
-0.000786654
-0.000780974
-0.000775316
-0.000769498
0.0101184
0.0142728
-0.000886163
-0.00142691
-0.00155312
-0.00171053
-0.00168254
-0.00164449
-0.00161125
-0.00157881
-0.001546
-0.00151299
-0.00148026
-0.00144825
-0.00141735
-0.00138779
-0.00135961
-0.00133273
-0.00130711
-0.00128268
-0.00125937
-0.00123713
-0.00121589
-0.00119558
-0.00117615
-0.00115755
-0.00113971
-0.00112259
-0.00110614
-0.00109031
-0.00107507
-0.00106038
-0.00104619
-0.00103249
-0.00101923
-0.00100638
-0.000993933
-0.000981852
-0.000970116
-0.000958706
-0.000947603
-0.00093679
-0.00092625
-0.000915969
-0.000905932
-0.000896126
-0.000886537
-0.000877157
-0.000868009
-0.000859144
5.28288
0.386511
0.0408695
0.0112785
0.00286271
-8.76962e-05
-0.000485073
-0.000618066
-0.000699747
-0.000764654
-0.000816438
-0.000854465
-0.000880407
-0.00089678
-0.000906566
-0.000912325
-0.000915854
-0.0009181
-0.000919336
-0.000919673
-0.000919224
-0.000918094
-0.000916369
-0.000914125
-0.000911426
-0.000908327
-0.000904876
-0.000901117
-0.000897084
-0.000892811
-0.000888327
-0.000883656
-0.00087882
-0.000873841
-0.000868734
-0.000863517
-0.000858204
-0.000852807
-0.000847338
-0.000841806
-0.000836223
-0.000830595
-0.000824931
-0.000819237
-0.000813519
-0.000807782
-0.000802036
-0.000796293
-0.000790553
-0.000784736
0.000100949
9.99012e-05
9.88351e-05
9.77834e-05
9.6738e-05
9.56952e-05
9.46527e-05
9.36095e-05
9.25648e-05
9.1518e-05
9.04683e-05
8.9415e-05
8.83578e-05
8.72963e-05
8.62306e-05
8.51604e-05
8.40858e-05
8.30066e-05
8.19228e-05
8.08343e-05
7.97409e-05
7.86427e-05
7.75396e-05
7.64316e-05
7.53189e-05
7.42013e-05
7.30791e-05
7.19523e-05
7.0821e-05
6.96852e-05
6.85451e-05
6.74008e-05
6.62524e-05
6.50999e-05
6.39435e-05
6.27832e-05
6.16193e-05
6.04517e-05
5.92806e-05
5.81062e-05
5.69284e-05
5.57475e-05
5.45636e-05
5.33767e-05
5.2187e-05
5.09946e-05
4.97997e-05
4.86023e-05
4.74026e-05
4.62007e-05
4.49968e-05
4.37909e-05
4.25831e-05
4.13737e-05
4.01627e-05
3.89503e-05
3.77365e-05
3.65216e-05
3.53056e-05
3.40886e-05
3.28708e-05
3.16524e-05
3.04334e-05
2.92139e-05
2.79941e-05
2.67742e-05
2.55542e-05
2.43342e-05
2.31144e-05
2.18949e-05
2.06759e-05
1.94573e-05
1.82395e-05
1.70224e-05
1.58062e-05
1.45911e-05
1.3377e-05
1.21642e-05
1.09528e-05
9.74282e-06
8.53444e-06
7.32775e-06
6.12286e-06
4.91988e-06
3.71892e-06
2.52008e-06
1.32347e-06
1.29189e-07
-1.06266e-06
-2.25198e-06
-3.43867e-06
-4.62263e-06
-5.80376e-06
-6.98197e-06
-8.15716e-06
-9.32924e-06
-1.04981e-05
-1.16637e-05
-1.28259e-05
-1.39847e-05
-1.51399e-05
-1.62914e-05
-1.74393e-05
-1.85833e-05
-1.97235e-05
-2.08597e-05
-2.19918e-05
-2.31199e-05
-2.42437e-05
-2.53633e-05
-2.64786e-05
-2.75894e-05
-2.86958e-05
-2.97976e-05
-3.08949e-05
-3.19874e-05
-3.30752e-05
-3.41582e-05
-3.52364e-05
-3.63096e-05
-3.73779e-05
-3.84411e-05
-3.94992e-05
-4.05522e-05
-4.16e-05
-4.26425e-05
-4.36798e-05
-4.47117e-05
-4.57382e-05
-4.67593e-05
-4.77749e-05
-4.8785e-05
-4.97895e-05
-5.07884e-05
-5.17817e-05
-5.27693e-05
-5.37512e-05
-5.47273e-05
-5.56977e-05
-5.66622e-05
-5.7621e-05
-5.85738e-05
-5.95208e-05
-6.04619e-05
-6.1397e-05
-6.23261e-05
-6.32493e-05
-6.41665e-05
-6.50776e-05
-6.59828e-05
-6.68818e-05
-6.77748e-05
-6.86618e-05
-6.95426e-05
-7.04174e-05
-7.1286e-05
-7.21485e-05
-7.3005e-05
-7.38553e-05
-7.46995e-05
-7.55375e-05
-7.63695e-05
-7.71953e-05
-7.8015e-05
-7.88287e-05
-7.96362e-05
-8.04376e-05
-8.12329e-05
-8.20222e-05
-8.28054e-05
-8.35826e-05
-8.43537e-05
-8.51188e-05
-8.5878e-05
-8.66311e-05
-8.73783e-05
-8.81195e-05
-8.88549e-05
-8.95843e-05
-9.03079e-05
-9.10257e-05
-9.17376e-05
-9.24438e-05
-9.31443e-05
-9.3839e-05
-9.4528e-05
-9.52114e-05
-9.58892e-05
-9.65615e-05
-9.72282e-05
-9.78894e-05
-9.85452e-05
-9.91955e-05
-9.98405e-05
-0.00010048
-0.000101115
-0.000101744
-0.000102368
-0.000102987
-0.000103601
-0.000104209
-0.000104813
-0.000105412
-0.000106006
-0.000106596
-0.00010718
-0.00010776
-0.000108336
-0.000108906
-0.000109472
-0.000110034
-0.000110592
-0.000111145
-0.000111694
-0.000112239
-0.000112779
-0.000113316
-0.000113848
-0.000114377
-0.000114902
-0.000115424
-0.000115941
-0.000116455
-0.000116966
-0.000117473
-0.000117976
-0.000118477
-0.000118974
-0.000119468
-0.000119959
-0.000120448
-0.000120933
-0.000121415
-0.000121895
-0.000122373
-0.000122847
-0.00012332
-0.00012379
-0.000124257
-0.000124723
-0.000125187
-0.000125648
-0.000126108
-0.000126566
-0.000127022
-0.000127477
-0.00012793
-0.000128381
-0.000128832
-0.000129281
-0.000129729
-0.000130177
-0.000130623
-0.000131068
-0.000131513
-0.000131957
-0.000132401
-0.000132844
-0.000133287
-0.00013373
-0.000134173
-0.000134616
-0.000135059
-0.000135502
-0.000135946
-0.00013639
-0.000136835
-0.000137281
-0.000137727
-0.000138175
-0.000138623
-0.000139073
-0.000139524
-0.000139976
-0.000140431
-0.000140886
-0.000141344
-0.000141803
-0.000142265
-0.000142729
-0.000143195
-0.000143664
-0.000144135
-0.000144609
-0.000145086
-0.000145566
-0.00014605
-0.000146536
-0.000147026
-0.00014752
-0.000148018
-0.00014852
-0.000149025
-0.000149535
-0.00015005
-0.000150569
-0.000151094
-0.000151624
-0.000152159
-0.000152685
0.00010857
0.000107209
0.000105841
0.000104505
0.000103185
0.000101877
0.000100582
9.92981e-05
9.80256e-05
9.67634e-05
9.55096e-05
9.4262e-05
9.30181e-05
9.17753e-05
9.05314e-05
8.92848e-05
8.80347e-05
8.67807e-05
8.55228e-05
8.42612e-05
8.29959e-05
8.17269e-05
8.0454e-05
7.91772e-05
7.78964e-05
7.66116e-05
7.53229e-05
7.40304e-05
7.27341e-05
7.14341e-05
7.01306e-05
6.88238e-05
6.75136e-05
6.62003e-05
6.48841e-05
6.35649e-05
6.2243e-05
6.09185e-05
5.95915e-05
5.82622e-05
5.69307e-05
5.55971e-05
5.42616e-05
5.29244e-05
5.15854e-05
5.0245e-05
4.89032e-05
4.75601e-05
4.6216e-05
4.48709e-05
4.3525e-05
4.21785e-05
4.08313e-05
3.94838e-05
3.8136e-05
3.67881e-05
3.54401e-05
3.40923e-05
3.27447e-05
3.13975e-05
3.00509e-05
2.87049e-05
2.73597e-05
2.60155e-05
2.46723e-05
2.33304e-05
2.19897e-05
2.06505e-05
1.93129e-05
1.79771e-05
1.6643e-05
1.53109e-05
1.39809e-05
1.26531e-05
1.13277e-05
1.00047e-05
8.68425e-06
7.36651e-06
6.05158e-06
4.73956e-06
3.43059e-06
2.12476e-06
8.2219e-07
-4.77008e-07
-1.77273e-06
-3.06486e-06
-4.35329e-06
-5.63793e-06
-6.91867e-06
-8.1954e-06
-9.46803e-06
-1.07365e-05
-1.20006e-05
-1.32603e-05
-1.45155e-05
-1.57662e-05
-1.70121e-05
-1.82533e-05
-1.94896e-05
-2.0721e-05
-2.19473e-05
-2.31685e-05
-2.43845e-05
-2.55953e-05
-2.68006e-05
-2.80005e-05
-2.91949e-05
-3.03837e-05
-3.15668e-05
-3.27441e-05
-3.39156e-05
-3.50813e-05
-3.62409e-05
-3.73946e-05
-3.85421e-05
-3.96835e-05
-4.08187e-05
-4.19476e-05
-4.30701e-05
-4.41863e-05
-4.52959e-05
-4.63991e-05
-4.74957e-05
-4.85857e-05
-4.96691e-05
-5.07457e-05
-5.18156e-05
-5.28787e-05
-5.39349e-05
-5.49842e-05
-5.60266e-05
-5.70621e-05
-5.80906e-05
-5.9112e-05
-6.01264e-05
-6.11336e-05
-6.21338e-05
-6.31268e-05
-6.41126e-05
-6.50913e-05
-6.60627e-05
-6.70269e-05
-6.79838e-05
-6.89334e-05
-6.98758e-05
-7.08109e-05
-7.17386e-05
-7.26591e-05
-7.35722e-05
-7.4478e-05
-7.53765e-05
-7.62676e-05
-7.71514e-05
-7.80279e-05
-7.8897e-05
-7.97588e-05
-8.06133e-05
-8.14605e-05
-8.23004e-05
-8.3133e-05
-8.39584e-05
-8.47765e-05
-8.55874e-05
-8.6391e-05
-8.71875e-05
-8.79768e-05
-8.8759e-05
-8.9534e-05
-9.0302e-05
-9.10628e-05
-9.18167e-05
-9.25636e-05
-9.33035e-05
-9.40364e-05
-9.47625e-05
-9.54817e-05
-9.61941e-05
-9.68998e-05
-9.75987e-05
-9.82909e-05
-9.89765e-05
-9.96556e-05
-0.000100328
-0.000100994
-0.000101654
-0.000102307
-0.000102954
-0.000103594
-0.000104228
-0.000104857
-0.000105479
-0.000106095
-0.000106705
-0.000107309
-0.000107907
-0.0001085
-0.000109086
-0.000109668
-0.000110243
-0.000110813
-0.000111378
-0.000111937
-0.000112491
-0.00011304
-0.000113583
-0.000114122
-0.000114655
-0.000115184
-0.000115707
-0.000116226
-0.000116741
-0.00011725
-0.000117755
-0.000118256
-0.000118753
-0.000119245
-0.000119733
-0.000120216
-0.000120696
-0.000121172
-0.000121644
-0.000122113
-0.000122577
-0.000123038
-0.000123496
-0.00012395
-0.000124401
-0.000124849
-0.000125294
-0.000125735
-0.000126174
-0.00012661
-0.000127043
-0.000127474
-0.000127902
-0.000128328
-0.000128751
-0.000129172
-0.000129591
-0.000130008
-0.000130424
-0.000130837
-0.000131248
-0.000131658
-0.000132067
-0.000132474
-0.000132879
-0.000133284
-0.000133687
-0.00013409
-0.000134491
-0.000134892
-0.000135292
-0.000135691
-0.00013609
-0.000136489
-0.000136888
-0.000137286
-0.000137684
-0.000138083
-0.000138481
-0.00013888
-0.00013928
-0.00013968
-0.00014008
-0.000140482
-0.000140884
-0.000141287
-0.000141692
-0.000142097
-0.000142504
-0.000142913
-0.000143323
-0.000143735
-0.000144149
-0.000144565
-0.000144983
-0.000145403
-0.000145825
-0.000146251
-0.000146678
-0.000147109
-0.000147542
-0.000147979
-0.000148419
-0.000148862
-0.000149308
-0.000149759
-0.000150213
-0.000150671
-0.000151133
-0.000151599
-0.00015207
-0.000152546
-0.000153026
-0.000153511
-0.000154002
-0.000154499
-0.000155
-0.000155494
0.000114394
0.000112579
0.000110757
0.00010897
0.000107199
0.000105444
0.00010371
0.000101999
0.000100316
9.86623e-05
9.70391e-05
9.54463e-05
9.38819e-05
9.23424e-05
9.08228e-05
8.93174e-05
8.78202e-05
8.63259e-05
8.48311e-05
8.3334e-05
8.18344e-05
8.03328e-05
7.88295e-05