/*--------------------------------*- C++ -*----------------------------------*\
| =========                 |                                                 |
| \\      /  F ield         | OpenFOAM: The Open Source CFD Toolbox           |
|  \\    /   O peration     | Version:  2.4.0                                 |
|   \\  /    A nd           | Web:      www.OpenFOAM.org                      |
|    \\/     M anipulation  |                                                 |
\*---------------------------------------------------------------------------*/
FoamFile
{
    version     2.0;
    format      ascii;
    class       volScalarField;
    location    "1.3";
    object      H;
}
// * * * * * * * * * * * * * * * * * * * * * * * * * * * * * * * * * * * * * //

dimensions      [0 2 -2 0 0 0 0];

internalField   nonuniform List<scalar> 
500
(
-11829
-11829
-11829
-11829
-11829
-11022.5
-11022.5
-11022.5
-11022.5
-11022.5
-10207
-10207
-10207
-10207
-10207
-9382.12
-9382.12
-9382.12
-9382.12
-9382.12
-8547.78
-8547.78
-8547.77
-8547.78
-8547.78
-7703.7
-7703.7
-7703.7
-7703.7
-7703.7
-6849.61
-6849.6
-6849.6
-6849.6
-6849.61
-5985.17
-5985.16
-5985.16
-5985.16
-5985.18
-5110.01
-5110
-5109.99
-5110
-5110.01
-4223.68
-4223.67
-4223.66
-4223.67
-4223.68
-3325.7
-3325.68
-3325.67
-3325.68
-3325.7
-2415.52
-2415.5
-2415.49
-2415.5
-2415.53
-1492.57
-1492.54
-1492.53
-1492.54
-1492.57
-84.7533
-84.7405
-84.7371
-84.7406
-84.7539
-64.8485
-64.8386
-64.836
-64.8387
-64.849
-65.6159
-65.6061
-65.6035
-65.6062
-65.6165
-66.3164
-66.3067
-66.3041
-66.3068
-66.317
-66.9481
-66.9385
-66.9359
-66.9386
-66.9486
-67.5093
-67.4998
-67.4972
-67.4999
-67.5098
-67.9983
-67.9889
-67.9863
-67.989
-67.9988
-68.4137
-68.4044
-68.4019
-68.4045
-68.4141
-68.7541
-68.745
-68.7424
-68.7451
-68.7545
-69.0183
-69.0093
-69.0069
-69.0095
-69.0188
-69.2053
-69.1966
-69.1941
-69.1967
-69.2058
-69.3144
-69.3058
-69.3034
-69.3059
-69.3148
-69.3447
-69.3363
-69.334
-69.3364
-69.3451
-69.2958
-69.2877
-69.2854
-69.2878
-69.2963
-69.1676
-69.1596
-69.1574
-69.1597
-69.168
-68.9598
-68.9521
-68.9499
-68.9522
-68.9602
-68.6727
-68.6652
-68.6631
-68.6653
-68.6731
-68.3067
-68.2994
-68.2974
-68.2995
-68.307
-67.8623
-67.8553
-67.8533
-67.8554
-67.8627
-67.3404
-67.3337
-67.3318
-67.3338
-67.3408
-66.7422
-66.7357
-66.7339
-66.7358
-66.7425
-66.0689
-66.0627
-66.0609
-66.0628
-66.0692
-65.3221
-65.3162
-65.3145
-65.3162
-65.3224
-64.5037
-64.498
-64.4964
-64.4981
-64.5039
-63.6156
-63.6102
-63.6087
-63.6103
-63.6159
-62.6603
-62.6552
-62.6538
-62.6553
-62.6605
-61.6402
-61.6354
-61.6341
-61.6355
-61.6404
-60.5581
-60.5536
-60.5524
-60.5537
-60.5583
-59.4171
-59.4128
-59.4117
-59.4129
-59.4172
-58.2202
-58.2162
-58.2152
-58.2163
-58.2203
-56.9709
-56.9672
-56.9662
-56.9673
-56.971
-55.6728
-55.6694
-55.6685
-55.6695
-55.6729
-54.3296
-54.3265
-54.3257
-54.3266
-54.3297
-52.9453
-52.9425
-52.9417
-52.9425
-52.9454
-51.5238
-51.5213
-51.5207
-51.5213
-51.5239
-50.0695
-50.0672
-50.0667
-50.0673
-50.0696
-48.5865
-48.5845
-48.584
-48.5845
-48.5866
-47.0792
-47.0774
-47.077
-47.0774
-47.0792
-45.552
-45.5504
-45.5501
-45.5505
-45.552
-44.0093
-44.008
-44.0077
-44.008
-44.0093
-42.4555
-42.4545
-42.4543
-42.4545
-42.4556
-40.8952
-40.8944
-40.8942
-40.8944
-40.8952
-39.3326
-39.332
-39.3319
-39.332
-39.3326
-37.7721
-37.7717
-37.7716
-37.7717
-37.7721
-36.2179
-36.2176
-36.2176
-36.2176
-36.2179
-34.6741
-34.6739
-34.674
-34.6739
-34.674
-33.1445
-33.1445
-33.1447
-33.1445
-33.1445
-31.6331
-31.6332
-31.6334
-31.6332
-31.633
-30.1433
-30.1436
-30.1438
-30.1436
-30.1433
-28.6786
-28.679
-28.6793
-28.679
-28.6786
-27.2422
-27.2427
-27.2429
-27.2426
-27.2421
-25.8368
-25.8374
-25.8377
-25.8374
-25.8368
-24.4653
-24.4659
-24.4662
-24.4659
-24.4652
-23.1298
-23.1306
-23.1309
-23.1305
-23.1298
-21.8327
-21.8334
-21.8338
-21.8334
-21.8326
-20.5755
-20.5763
-20.5767
-20.5763
-20.5754
-19.3599
-19.3607
-19.3611
-19.3607
-19.3598
-18.187
-18.1879
-18.1883
-18.1879
-18.187
-17.0579
-17.0587
-17.0591
-17.0587
-17.0578
-15.973
-15.9739
-15.9742
-15.9738
-15.9729
-14.9327
-14.9336
-14.9339
-14.9336
-14.9326
-13.9371
-13.938
-13.9383
-13.938
-13.9371
-12.9861
-12.9869
-12.9873
-12.9869
-12.986
-12.079
-12.0799
-12.0802
-12.0798
-12.079
-11.2154
-11.2162
-11.2165
-11.2162
-11.2153
-10.3942
-10.3949
-10.3952
-10.3949
-10.3941
-9.61432
-9.61506
-9.61533
-9.61503
-9.61427
-8.87457
-8.87526
-8.87552
-8.87524
-8.87451
-8.17348
-8.17413
-8.17437
-8.17411
-8.17343
-7.50949
-7.51011
-7.51033
-7.51009
-7.50945
-6.88095
-6.88152
-6.88173
-6.8815
-6.88091
-6.28609
-6.28662
-6.28681
-6.2866
-6.28605
-5.72309
-5.72358
-5.72375
-5.72356
-5.72305
-5.19009
-5.19053
-5.19069
-5.19052
-5.19006
-4.68519
-4.6856
-4.68574
-4.68558
-4.68516
-4.2065
-4.20686
-4.20699
-4.20685
-4.20647
-3.75212
-3.75244
-3.75256
-3.75243
-3.75209
-3.32017
-3.32046
-3.32056
-3.32045
-3.32015
-2.90883
-2.90908
-2.90917
-2.90907
-2.90881
-2.51629
-2.5165
-2.51658
-2.5165
-2.51627
-2.1408
-2.14098
-2.14105
-2.14098
-2.14079
-1.78066
-1.78081
-1.78087
-1.78081
-1.78065
-1.43423
-1.43435
-1.43439
-1.43435
-1.43422
-1.0999
-1.09999
-1.10003
-1.09999
-1.0999
-0.776118
-0.776183
-0.776206
-0.776181
-0.776114
-0.461357
-0.461395
-0.461409
-0.461394
-0.461354
-0.154116
-0.154129
-0.154134
-0.154129
-0.154116
)
;

boundaryField
{
    BotWall
    {
        type            zeroGradient;
    }
    FreeStream
    {
        type            zeroGradient;
    }
    FrontNBack
    {
        type            empty;
    }
    LeftSide
    {
        type            symmetryPlane;
    }
    RightSide
    {
        type            symmetryPlane;
    }
}


// ************************************************************************* //
