/*--------------------------------*- C++ -*----------------------------------*\
| =========                 |                                                 |
| \\      /  F ield         | OpenFOAM: The Open Source CFD Toolbox           |
|  \\    /   O peration     | Version:  2.4.0                                 |
|   \\  /    A nd           | Web:      www.OpenFOAM.org                      |
|    \\/     M anipulation  |                                                 |
\*---------------------------------------------------------------------------*/
FoamFile
{
    version     2.0;
    format      ascii;
    class       volScalarField;
    location    "1.3";
    object      p;
}
// * * * * * * * * * * * * * * * * * * * * * * * * * * * * * * * * * * * * * //

dimensions      [1 -1 -2 0 0 0 0];

internalField   nonuniform List<scalar> 
500
(
0.396057
0.396059
0.396047
0.396059
0.396057
0.366404
0.36641
0.366398
0.366409
0.366404
0.336248
0.336252
0.336239
0.336251
0.336247
0.306059
0.306065
0.306052
0.306064
0.306058
0.275299
0.275304
0.275291
0.275304
0.275299
0.242985
0.24299
0.242977
0.242989
0.242984
0.206434
0.206436
0.206424
0.206436
0.206433
0.171004
0.17101
0.170997
0.171009
0.171003
0.170635
0.17066
0.170648
0.170659
0.170634
0.262993
0.263051
0.263044
0.263051
0.262992
0.321718
0.321746
0.321748
0.321746
0.321715
-0.538535
-0.538735
-0.538757
-0.538734
-0.538534
-3.65123
-3.65182
-3.65194
-3.65182
-3.65121
-6.54039
-6.54127
-6.54152
-6.54126
-6.54034
-0.0162439
-0.0162437
-0.0162437
-0.0162437
-0.0162439
-0.00543466
-0.00543493
-0.00543494
-0.00543493
-0.00543466
-0.00795138
-0.00795131
-0.00795131
-0.00795131
-0.00795138
-0.00945311
-0.00945305
-0.00945305
-0.00945305
-0.00945311
-0.0101548
-0.0101548
-0.0101548
-0.0101548
-0.0101548
-0.0106884
-0.0106884
-0.0106884
-0.0106884
-0.0106884
-0.0112636
-0.0112636
-0.0112636
-0.0112636
-0.0112636
-0.0118762
-0.0118762
-0.0118762
-0.0118762
-0.0118762
-0.0125022
-0.0125022
-0.0125022
-0.0125022
-0.0125022
-0.0131337
-0.0131337
-0.0131337
-0.0131337
-0.0131337
-0.013771
-0.013771
-0.013771
-0.013771
-0.013771
-0.0144151
-0.0144151
-0.0144151
-0.0144151
-0.0144151
-0.0150665
-0.0150665
-0.0150665
-0.0150665
-0.0150665
-0.0157253
-0.0157253
-0.0157253
-0.0157253
-0.0157253
-0.0163914
-0.0163914
-0.0163914
-0.0163914
-0.0163914
-0.0170649
-0.0170649
-0.0170649
-0.0170649
-0.0170649
-0.0177459
-0.0177459
-0.0177459
-0.0177459
-0.0177459
-0.0184346
-0.0184346
-0.0184346
-0.0184346
-0.0184346
-0.0191309
-0.0191309
-0.0191309
-0.0191309
-0.0191309
-0.019835
-0.019835
-0.019835
-0.019835
-0.019835
-0.0205469
-0.0205469
-0.0205469
-0.0205469
-0.0205469
-0.0212668
-0.0212668
-0.0212668
-0.0212668
-0.0212668
-0.0219947
-0.0219947
-0.0219947
-0.0219947
-0.0219947
-0.0227308
-0.0227308
-0.0227308
-0.0227308
-0.0227308
-0.023475
-0.023475
-0.023475
-0.023475
-0.023475
-0.0242276
-0.0242276
-0.0242276
-0.0242276
-0.0242276
-0.0249886
-0.0249886
-0.0249886
-0.0249886
-0.0249886
-0.025758
-0.025758
-0.025758
-0.025758
-0.025758
-0.0265361
-0.0265361
-0.0265361
-0.0265361
-0.0265361
-0.0273228
-0.0273228
-0.0273228
-0.0273228
-0.0273228
-0.0281183
-0.0281183
-0.0281183
-0.0281183
-0.0281183
-0.0289227
-0.0289227
-0.0289227
-0.0289227
-0.0289227
-0.029736
-0.029736
-0.029736
-0.029736
-0.029736
-0.0305585
-0.0305585
-0.0305585
-0.0305585
-0.0305585
-0.0313901
-0.0313901
-0.0313901
-0.0313901
-0.0313901
-0.032231
-0.032231
-0.032231
-0.032231
-0.032231
-0.0330812
-0.0330812
-0.0330812
-0.0330812
-0.0330812
-0.033941
-0.033941
-0.033941
-0.033941
-0.033941
-0.0348103
-0.0348103
-0.0348103
-0.0348103
-0.0348103
-0.0356894
-0.0356894
-0.0356894
-0.0356894
-0.0356894
-0.0365783
-0.0365783
-0.0365783
-0.0365783
-0.0365783
-0.037477
-0.037477
-0.037477
-0.037477
-0.037477
-0.0383859
-0.0383859
-0.0383859
-0.0383859
-0.0383859
-0.0393048
-0.0393048
-0.0393048
-0.0393048
-0.0393048
-0.040234
-0.040234
-0.040234
-0.040234
-0.040234
-0.0411736
-0.0411736
-0.0411736
-0.0411736
-0.0411736
-0.0421237
-0.0421237
-0.0421237
-0.0421237
-0.0421237
-0.0430843
-0.0430843
-0.0430843
-0.0430843
-0.0430843
-0.0440557
-0.0440557
-0.0440557
-0.0440557
-0.0440557
-0.0450379
-0.0450379
-0.0450379
-0.0450379
-0.0450379
-0.0460311
-0.0460311
-0.0460311
-0.0460311
-0.0460311
-0.0470354
-0.0470354
-0.0470354
-0.0470354
-0.0470354
-0.0480509
-0.0480509
-0.0480509
-0.0480509
-0.0480509
-0.0490777
-0.0490777
-0.0490777
-0.0490777
-0.0490777
-0.0501159
-0.0501159
-0.0501159
-0.0501159
-0.0501159
-0.0511658
-0.0511658
-0.0511658
-0.0511658
-0.0511658
-0.0522273
-0.0522273
-0.0522273
-0.0522273
-0.0522273
-0.0533007
-0.0533007
-0.0533007
-0.0533007
-0.0533007
-0.0543861
-0.0543861
-0.0543861
-0.0543861
-0.0543861
-0.0554836
-0.0554836
-0.0554836
-0.0554836
-0.0554836
-0.0565934
-0.0565934
-0.0565934
-0.0565934
-0.0565934
-0.0577155
-0.0577155
-0.0577155
-0.0577155
-0.0577155
-0.0588502
-0.0588502
-0.0588502
-0.0588502
-0.0588502
-0.0599975
-0.0599975
-0.0599975
-0.0599975
-0.0599975
-0.0611576
-0.0611576
-0.0611576
-0.0611576
-0.0611576
-0.0623307
-0.0623307
-0.0623307
-0.0623307
-0.0623307
-0.0635168
-0.0635168
-0.0635168
-0.0635168
-0.0635168
-0.0647162
-0.0647162
-0.0647162
-0.0647162
-0.0647162
-0.065929
-0.065929
-0.065929
-0.065929
-0.065929
-0.0671553
-0.0671553
-0.0671553
-0.0671553
-0.0671553
-0.0683953
-0.0683953
-0.0683953
-0.0683953
-0.0683953
-0.0696491
-0.0696491
-0.0696491
-0.0696491
-0.0696491
-0.0709169
-0.0709169
-0.0709169
-0.0709169
-0.0709169
-0.0721989
-0.0721989
-0.0721989
-0.0721989
-0.0721989
-0.0734951
-0.0734951
-0.0734951
-0.0734951
-0.0734951
-0.0748059
-0.0748059
-0.0748059
-0.0748059
-0.0748059
-0.0761312
-0.0761312
-0.0761312
-0.0761312
-0.0761312
-0.0774714
-0.0774714
-0.0774714
-0.0774714
-0.0774714
-0.0788265
-0.0788265
-0.0788265
-0.0788265
-0.0788265
-0.0801967
-0.0801967
-0.0801967
-0.0801967
-0.0801967
-0.0815822
-0.0815822
-0.0815822
-0.0815822
-0.0815822
-0.0829832
-0.0829832
-0.0829832
-0.0829832
-0.0829832
-0.0843998
-0.0843998
-0.0843998
-0.0843998
-0.0843998
-0.0858322
-0.0858322
-0.0858322
-0.0858322
-0.0858322
-0.0872806
-0.0872806
-0.0872806
-0.0872806
-0.0872806
-0.0887452
-0.0887452
-0.0887452
-0.0887452
-0.0887452
)
;

boundaryField
{
    BotWall
    {
        type            calculated;
        value           nonuniform List<scalar> 5(0.410877 0.41088 0.410867 0.410879 0.410877);
    }
    FreeStream
    {
        type            calculated;
        value           nonuniform List<scalar> 5(-0.0894816 -0.0894816 -0.0894816 -0.0894816 -0.0894816);
    }
    FrontNBack
    {
        type            empty;
    }
    LeftSide
    {
        type            symmetryPlane;
    }
    RightSide
    {
        type            symmetryPlane;
    }
}


// ************************************************************************* //
