/*--------------------------------*- C++ -*----------------------------------*\
| =========                 |                                                 |
| \\      /  F ield         | OpenFOAM: The Open Source CFD Toolbox           |
|  \\    /   O peration     | Version:  2.4.0                                 |
|   \\  /    A nd           | Web:      www.OpenFOAM.org                      |
|    \\/     M anipulation  |                                                 |
\*---------------------------------------------------------------------------*/
FoamFile
{
    version     2.0;
    format      ascii;
    class       volScalarField;
    location    "1.3";
    object      p_rgh;
}
// * * * * * * * * * * * * * * * * * * * * * * * * * * * * * * * * * * * * * //

dimensions      [1 -1 -2 0 0 0 0];

internalField   nonuniform List<scalar> 
500
(
0.410877
0.41088
0.410867
0.410879
0.410877
0.41103
0.411036
0.411024
0.411036
0.41103
0.411013
0.411017
0.411004
0.411016
0.411012
0.411299
0.411304
0.411292
0.411304
0.411298
0.411354
0.411359
0.411346
0.411358
0.411353
0.410198
0.410203
0.410191
0.410203
0.410198
0.405154
0.405156
0.405144
0.405156
0.405153
0.401582
0.401588
0.401575
0.401588
0.401581
0.433427
0.433452
0.43344
0.433451
0.433426
0.558358
0.558416
0.558409
0.558416
0.558357
0.650019
0.650048
0.650049
0.650047
0.650017
-0.176929
-0.177129
-0.177151
-0.177129
-0.176928
-3.25595
-3.25654
-3.25666
-3.25653
-3.25593
-6.46109
-6.46196
-6.46221
-6.46195
-6.46104
-0.00856227
-0.00856201
-0.008562
-0.00856201
-0.00856227
0.00282369
0.00282343
0.00282341
0.00282343
0.0028237
0.00089009
0.000890158
0.000890157
0.000890158
0.00089009
-2.20161e-05
-2.19587e-05
-2.1958e-05
-2.19589e-05
-2.20165e-05
-0.000127473
-0.000127471
-0.000127471
-0.000127472
-0.000127473
-5.82816e-05
-5.82919e-05
-5.82922e-05
-5.8292e-05
-5.82818e-05
-2.3881e-05
-2.38833e-05
-2.38837e-05
-2.38834e-05
-2.38812e-05
-2.0133e-05
-2.01303e-05
-2.01307e-05
-2.01304e-05
-2.01332e-05
-2.28004e-05
-2.27974e-05
-2.27978e-05
-2.27975e-05
-2.28006e-05
-2.40753e-05
-2.40729e-05
-2.40733e-05
-2.4073e-05
-2.40754e-05
-2.41346e-05
-2.41327e-05
-2.41331e-05
-2.41328e-05
-2.41348e-05
-2.39429e-05
-2.3941e-05
-2.39414e-05
-2.39411e-05
-2.3943e-05
-2.38066e-05
-2.38047e-05
-2.38051e-05
-2.38047e-05
-2.38067e-05
-2.37175e-05
-2.37156e-05
-2.37161e-05
-2.37157e-05
-2.37176e-05
-2.36373e-05
-2.36355e-05
-2.36359e-05
-2.36355e-05
-2.36374e-05
-2.35538e-05
-2.3552e-05
-2.35525e-05
-2.35521e-05
-2.35539e-05
-2.34675e-05
-2.34658e-05
-2.34663e-05
-2.34658e-05
-2.34676e-05
-2.33798e-05
-2.33782e-05
-2.33787e-05
-2.33782e-05
-2.338e-05
-2.32913e-05
-2.32896e-05
-2.32902e-05
-2.32897e-05
-2.32914e-05
-2.32018e-05
-2.32002e-05
-2.32007e-05
-2.32003e-05
-2.32019e-05
-2.31113e-05
-2.31098e-05
-2.31103e-05
-2.31099e-05
-2.31115e-05
-2.30199e-05
-2.30184e-05
-2.30189e-05
-2.30184e-05
-2.302e-05
-2.29274e-05
-2.29259e-05
-2.29265e-05
-2.2926e-05
-2.29275e-05
-2.28339e-05
-2.28325e-05
-2.2833e-05
-2.28325e-05
-2.2834e-05
-2.27393e-05
-2.27379e-05
-2.27385e-05
-2.2738e-05
-2.27394e-05
-2.26436e-05
-2.26423e-05
-2.26429e-05
-2.26424e-05
-2.26438e-05
-2.2547e-05
-2.25457e-05
-2.25462e-05
-2.25457e-05
-2.2547e-05
-2.24492e-05
-2.24479e-05
-2.24485e-05
-2.2448e-05
-2.24493e-05
-2.23503e-05
-2.23491e-05
-2.23497e-05
-2.23492e-05
-2.23504e-05
-2.22503e-05
-2.22492e-05
-2.22497e-05
-2.22492e-05
-2.22504e-05
-2.21492e-05
-2.21481e-05
-2.21487e-05
-2.21482e-05
-2.21493e-05
-2.2047e-05
-2.20459e-05
-2.20465e-05
-2.2046e-05
-2.20471e-05
-2.19437e-05
-2.19426e-05
-2.19432e-05
-2.19426e-05
-2.19437e-05
-2.18391e-05
-2.18381e-05
-2.18387e-05
-2.18382e-05
-2.18392e-05
-2.17335e-05
-2.17325e-05
-2.1733e-05
-2.17325e-05
-2.17335e-05
-2.16266e-05
-2.16256e-05
-2.16262e-05
-2.16257e-05
-2.16267e-05
-2.15185e-05
-2.15176e-05
-2.15182e-05
-2.15177e-05
-2.15186e-05
-2.14093e-05
-2.14084e-05
-2.1409e-05
-2.14084e-05
-2.14093e-05
-2.12988e-05
-2.12979e-05
-2.12985e-05
-2.1298e-05
-2.12989e-05
-2.11871e-05
-2.11863e-05
-2.11868e-05
-2.11863e-05
-2.11871e-05
-2.10741e-05
-2.10733e-05
-2.10739e-05
-2.10733e-05
-2.10742e-05
-2.09599e-05
-2.09591e-05
-2.09597e-05
-2.09592e-05
-2.09599e-05
-2.08444e-05
-2.08437e-05
-2.08442e-05
-2.08437e-05
-2.08444e-05
-2.07276e-05
-2.07269e-05
-2.07274e-05
-2.07269e-05
-2.07277e-05
-2.06095e-05
-2.06088e-05
-2.06094e-05
-2.06088e-05
-2.06096e-05
-2.04901e-05
-2.04894e-05
-2.049e-05
-2.04895e-05
-2.04901e-05
-2.03694e-05
-2.03687e-05
-2.03692e-05
-2.03687e-05
-2.03694e-05
-2.02473e-05
-2.02467e-05
-2.02472e-05
-2.02467e-05
-2.02473e-05
-2.01238e-05
-2.01232e-05
-2.01237e-05
-2.01232e-05
-2.01239e-05
-1.9999e-05
-1.99984e-05
-1.99989e-05
-1.99984e-05
-1.9999e-05
-1.98728e-05
-1.98722e-05
-1.98727e-05
-1.98722e-05
-1.98728e-05
-1.97452e-05
-1.97446e-05
-1.97451e-05
-1.97446e-05
-1.97452e-05
-1.96161e-05
-1.96156e-05
-1.9616e-05
-1.96156e-05
-1.96161e-05
-1.94856e-05
-1.94851e-05
-1.94856e-05
-1.94851e-05
-1.94856e-05
-1.93537e-05
-1.93532e-05
-1.93536e-05
-1.93532e-05
-1.93537e-05
-1.92202e-05
-1.92198e-05
-1.92202e-05
-1.92198e-05
-1.92202e-05
-1.90853e-05
-1.90849e-05
-1.90853e-05
-1.90849e-05
-1.90853e-05
-1.89489e-05
-1.89485e-05
-1.89489e-05
-1.89485e-05
-1.89489e-05
-1.8811e-05
-1.88106e-05
-1.8811e-05
-1.88106e-05
-1.8811e-05
-1.86715e-05
-1.86711e-05
-1.86715e-05
-1.86711e-05
-1.86715e-05
-1.85305e-05
-1.85301e-05
-1.85305e-05
-1.85301e-05
-1.85305e-05
-1.83879e-05
-1.83875e-05
-1.83879e-05
-1.83875e-05
-1.83879e-05
-1.82437e-05
-1.82433e-05
-1.82437e-05
-1.82433e-05
-1.82437e-05
-1.80979e-05
-1.80975e-05
-1.80979e-05
-1.80975e-05
-1.80979e-05
-1.79504e-05
-1.79501e-05
-1.79504e-05
-1.79501e-05
-1.79504e-05
-1.78014e-05
-1.78011e-05
-1.78014e-05
-1.78011e-05
-1.78014e-05
-1.76506e-05
-1.76504e-05
-1.76506e-05
-1.76504e-05
-1.76506e-05
-1.74982e-05
-1.7498e-05
-1.74982e-05
-1.7498e-05
-1.74982e-05
-1.73441e-05
-1.73439e-05
-1.73441e-05
-1.73439e-05
-1.73441e-05
-1.71883e-05
-1.7188e-05
-1.71883e-05
-1.7188e-05
-1.71883e-05
-1.70307e-05
-1.70305e-05
-1.70307e-05
-1.70305e-05
-1.70307e-05
-1.68714e-05
-1.68712e-05
-1.68714e-05
-1.68712e-05
-1.68714e-05
-1.67103e-05
-1.67101e-05
-1.67103e-05
-1.67101e-05
-1.67103e-05
-1.65474e-05
-1.65472e-05
-1.65474e-05
-1.65472e-05
-1.65474e-05
-1.63827e-05
-1.63825e-05
-1.63826e-05
-1.63825e-05
-1.63827e-05
-1.62161e-05
-1.6216e-05
-1.62161e-05
-1.6216e-05
-1.62161e-05
-1.60477e-05
-1.60476e-05
-1.60477e-05
-1.60476e-05
-1.60477e-05
-1.58775e-05
-1.58773e-05
-1.58774e-05
-1.58773e-05
-1.58774e-05
-1.57053e-05
-1.57051e-05
-1.57052e-05
-1.57051e-05
-1.57053e-05
-1.55312e-05
-1.55311e-05
-1.55311e-05
-1.5531e-05
-1.55312e-05
-1.53551e-05
-1.5355e-05
-1.53551e-05
-1.5355e-05
-1.53551e-05
-1.51771e-05
-1.5177e-05
-1.51771e-05
-1.5177e-05
-1.51771e-05
-1.49972e-05
-1.49971e-05
-1.49971e-05
-1.49971e-05
-1.49971e-05
-1.48152e-05
-1.48151e-05
-1.48151e-05
-1.48151e-05
-1.48152e-05
-1.46311e-05
-1.46311e-05
-1.4631e-05
-1.46311e-05
-1.46311e-05
-1.44448e-05
-1.44448e-05
-1.44448e-05
-1.44448e-05
-1.44448e-05
)
;

boundaryField
{
    BotWall
    {
        type            fixedFluxPressure;
        gradient        uniform 0;
        value           nonuniform List<scalar> 5(0.410877 0.41088 0.410867 0.410879 0.410877);
    }
    FreeStream
    {
        type            totalPressure;
        rho             rho;
        psi             none;
        gamma           1;
        p0              uniform 0;
        value           nonuniform List<scalar> 5(-1.43511e-05 -1.43512e-05 -1.43512e-05 -1.43512e-05 -1.43511e-05);
    }
    FrontNBack
    {
        type            empty;
    }
    LeftSide
    {
        type            symmetryPlane;
    }
    RightSide
    {
        type            symmetryPlane;
    }
}


// ************************************************************************* //
