/*--------------------------------*- C++ -*----------------------------------*\
| =========                 |                                                 |
| \\      /  F ield         | OpenFOAM: The Open Source CFD Toolbox           |
|  \\    /   O peration     | Version:  2.4.0                                 |
|   \\  /    A nd           | Web:      www.OpenFOAM.org                      |
|    \\/     M anipulation  |                                                 |
\*---------------------------------------------------------------------------*/
FoamFile
{
    version     2.0;
    format      ascii;
    class       surfaceScalarField;
    location    "1.3";
    object      phi;
}
// * * * * * * * * * * * * * * * * * * * * * * * * * * * * * * * * * * * * * //

dimensions      [0 3 -1 0 0 0 0];

internalField   nonuniform List<scalar> 
895
(
7.9598e-19
-7.96294e-19
4.55997e-19
3.39171e-19
-4.7782e-19
9.33786e-19
-8.23218e-19
3.4483e-19
-8.23554e-19
2.41577e-18
-3.21279e-18
1.37575e-18
1.37797e-18
-1.44251e-18
3.75036e-18
-2.49832e-18
1.39931e-18
-3.32284e-18
4.10544e-18
-7.31908e-18
2.3269e-18
3.15516e-18
-2.44087e-18
8.51632e-18
-4.24574e-18
3.20279e-18
-7.56954e-18
5.83244e-18
-1.31524e-17
3.29824e-18
5.68794e-18
-3.46161e-18
1.52743e-17
-6.03398e-18
5.77377e-18
-1.36045e-17
7.64206e-18
-2.07955e-17
4.31061e-18
9.01797e-18
-4.52571e-18
2.41088e-17
-7.90643e-18
9.15314e-18
-2.15118e-17
9.48498e-18
-3.02814e-17
5.34079e-18
1.31608e-17
-5.60964e-18
3.50574e-17
-9.8142e-18
1.33564e-17
-3.13268e-17
1.14241e-17
-4.17064e-17
6.41885e-18
1.81648e-17
-6.74357e-18
4.82182e-17
-1.18205e-17
1.84322e-17
-4.3148e-17
1.33913e-17
-5.50986e-17
7.51422e-18
2.40407e-17
-7.89707e-18
6.36281e-17
-1.38571e-17
2.43912e-17
-5.70058e-17
1.5456e-17
-7.05554e-17
8.66456e-18
3.08312e-17
-9.10768e-18
8.1399e-17
-1.59939e-17
3.12765e-17
-7.30001e-17
1.75598e-17
-8.81158e-17
9.83848e-18
3.85517e-17
-1.03443e-17
1.01581e-16
-1.81722e-17
3.91038e-17
-9.11727e-17
1.98362e-17
-1.07952e-16
1.10817e-17
4.73057e-17
-1.16532e-17
1.24315e-16
-2.05258e-17
4.79759e-17
-1.11699e-16
2.22743e-17
-1.30227e-16
1.22822e-17
5.72975e-17
-1.29231e-17
1.4952e-16
-2.30474e-17
5.81e-17
-1.34746e-16
2.4874e-17
-8.40804e-16
1.35522e-17
6.86183e-17
-1.4262e-17
1.77334e-16
-2.57413e-17
6.95788e-17
-8.70022e-16
2.83858e-17
-3.54807e-10
1.50094e-17
-3.54809e-10
-1.57904e-17
-3.54809e-10
-2.94035e-17
-3.54809e-10
-3.54807e-10
2.84823e-17
-3.54807e-10
1.58053e-17
-3.54809e-10
-1.66435e-17
-3.54809e-10
-2.9491e-17
-3.54809e-10
-3.54807e-10
3.11952e-17
-3.54807e-10
1.4492e-17
-3.54809e-10
-1.5181e-17
-3.54809e-10
-3.21144e-17
-3.54809e-10
-3.54807e-10
2.21308e-17
-3.54807e-10
1.32685e-17
-3.54809e-10
-1.3785e-17
-3.54809e-10
-2.28793e-17
-3.54809e-10
-3.54807e-10
1.85651e-17
-3.54807e-10
1.12218e-17
-3.54809e-10
-1.15629e-17
-3.54809e-10
-1.9161e-17
-3.54809e-10
-3.54807e-10
1.63846e-17
-3.54807e-10
9.38814e-18
-3.54809e-10
-9.55659e-18
-3.54809e-10
-1.68379e-17
-3.54809e-10
-3.54807e-10
1.37076e-17
-3.54807e-10
7.82315e-18
-3.54809e-10
-7.82235e-18
-3.54809e-10
-1.40223e-17
-3.54809e-10
-3.54807e-10
1.06839e-17
-3.54807e-10
6.32305e-18
-3.54809e-10
-6.15605e-18
-3.54809e-10
-1.08629e-17
-3.54809e-10
-3.54807e-10
7.74475e-18
-3.54807e-10
4.8348e-18
-3.54809e-10
-4.5048e-18
-3.54809e-10
-7.79151e-18
-3.54809e-10
-3.54807e-10
4.99945e-18
-3.54807e-10
3.39037e-18
-3.54809e-10
-2.90099e-18
-3.54809e-10
-4.91809e-18
-3.54809e-10
-3.54807e-10
2.41263e-18
-3.54807e-10
2.01596e-18
-3.54809e-10
-1.37123e-18
-3.54809e-10
-2.20764e-18
-3.54809e-10
-3.54807e-10
-4.24692e-20
-3.54807e-10
7.18222e-19
-3.54809e-10
7.74251e-20
-3.54809e-10
3.66308e-19
-3.54809e-10
-3.54807e-10
-2.3649e-18
-3.54807e-10
-5.02487e-19
-3.54809e-10
1.44424e-18
-3.54809e-10
2.80251e-18
-3.54809e-10
-3.54807e-10
-4.54555e-18
-3.54807e-10
-1.64485e-18
-3.54809e-10
2.72754e-18
-3.54809e-10
5.09156e-18
-3.54809e-10
-3.54807e-10
-6.57716e-18
-3.54807e-10
-2.7063e-18
-3.54809e-10
3.92442e-18
-3.54809e-10
7.22595e-18
-3.54809e-10
-3.54807e-10
-8.45485e-18
-3.54807e-10
-3.68413e-18
-3.54809e-10
5.03184e-18
-3.54809e-10
9.20053e-18
-3.54809e-10
-3.54807e-10
-1.01747e-17
-3.54807e-10
-4.57603e-18
-3.54809e-10
6.04717e-18
-3.54809e-10
1.10112e-17
-3.54809e-10
-3.54807e-10
-1.17332e-17
-3.54807e-10
-5.38005e-18
-3.54809e-10
6.96818e-18
-3.54809e-10
1.26542e-17
-3.54809e-10
-3.54807e-10
-1.31273e-17
-3.54807e-10
-6.09459e-18
-3.54809e-10
7.79301e-18
-3.54809e-10
1.41263e-17
-3.54809e-10
-3.54807e-10
-1.43547e-17
-3.54807e-10
-6.71839e-18
-3.54809e-10
8.52016e-18
-3.54809e-10
1.54251e-17
-3.54809e-10
-3.54807e-10
-1.54136e-17
-3.54807e-10
-7.25054e-18
-3.54809e-10
9.14852e-18
-3.54809e-10
1.65486e-17
-3.54809e-10
-3.54807e-10
-1.63029e-17
-3.54807e-10
-7.69052e-18
-3.54809e-10
9.67739e-18
-3.54809e-10
1.74957e-17
-3.54809e-10
-3.54807e-10
-1.70224e-17
-3.54807e-10
-8.03822e-18
-3.54809e-10
1.01065e-17
-3.54809e-10
1.82662e-17
-3.54809e-10
-3.54807e-10
-1.75726e-17
-3.54807e-10
-8.29396e-18
-3.54809e-10
1.04361e-17
-3.54809e-10
1.88604e-17
-3.54809e-10
-3.54807e-10
-1.79548e-17
-3.54807e-10
-8.45849e-18
-3.54809e-10
1.06669e-17
-3.54809e-10
1.92798e-17
-3.54809e-10
-3.54807e-10
-1.81711e-17
-3.54807e-10
-8.53303e-18
-3.54809e-10
1.08e-17
-3.54809e-10
1.95265e-17
-3.54809e-10
-3.54807e-10
-1.82246e-17
-3.54807e-10
-8.51928e-18
-3.54809e-10
1.08372e-17
-3.54809e-10
1.96036e-17
-3.54809e-10
-3.54807e-10
-1.8119e-17
-3.54807e-10
-8.41938e-18
-3.54809e-10
1.07807e-17
-3.54809e-10
1.95152e-17
-3.54809e-10
-3.54807e-10
-1.78592e-17
-3.54807e-10
-8.23599e-18
-3.54809e-10
1.06332e-17
-3.54809e-10
1.9266e-17
-3.54809e-10
-3.54807e-10
-1.74506e-17
-3.54807e-10
-7.97221e-18
-3.54809e-10
1.0398e-17
-3.54809e-10
1.8862e-17
-3.54809e-10
-3.54807e-10
-1.68998e-17
-3.54807e-10
-7.63162e-18
-3.54809e-10
1.00789e-17
-3.54809e-10
1.83097e-17
-3.54809e-10
-3.54807e-10
-1.62138e-17
-3.54807e-10
-7.21827e-18
-3.54809e-10
9.68017e-18
-3.54809e-10
1.76168e-17
-3.54809e-10
-3.54807e-10
-1.54009e-17
-3.54807e-10
-6.73662e-18
-3.54809e-10
9.20652e-18
-3.54809e-10
1.67915e-17
-3.54809e-10
-3.54807e-10
-1.44697e-17
-3.54807e-10
-6.19156e-18
-3.54809e-10
8.66317e-18
-3.54809e-10
1.5843e-17
-3.54809e-10
-3.54807e-10
-1.34297e-17
-3.54807e-10
-5.58837e-18
-3.54809e-10
8.05577e-18
-3.54809e-10
1.47811e-17
-3.54809e-10
-3.54807e-10
-1.2291e-17
-3.54807e-10
-4.93267e-18
-3.54809e-10
7.39031e-18
-3.54809e-10
1.36164e-17
-3.54809e-10
-3.54807e-10
-1.10642e-17
-3.54807e-10
-4.23038e-18
-3.54809e-10
6.67317e-18
-3.54809e-10
1.23599e-17
-3.54809e-10
-3.54807e-10
-9.76042e-18
-3.54807e-10
-3.48772e-18
-3.54809e-10
5.91098e-18
-3.54809e-10
1.10233e-17
-3.54809e-10
-3.54807e-10
-8.39123e-18
-3.54807e-10
-2.71111e-18
-3.54809e-10
5.11065e-18
-3.54809e-10
9.61839e-18
-3.54809e-10
-3.54807e-10
-6.96841e-18
-3.54807e-10
-1.90713e-18
-3.54809e-10
4.27925e-18
-3.54809e-10
8.15762e-18
-3.54809e-10
-3.54807e-10
-5.50396e-18
-3.54807e-10
-1.08248e-18
-3.54809e-10
3.42399e-18
-3.54809e-10
6.65344e-18
-3.54809e-10
-3.54807e-10
-4.00996e-18
-3.54807e-10
-2.43914e-19
-3.54809e-10
2.55212e-18
-3.54809e-10
5.11843e-18
-3.54809e-10
-3.54807e-10
-2.49847e-18
-3.54807e-10
6.01817e-19
-3.54809e-10
1.6709e-18
-3.54809e-10
3.56515e-18
-3.54809e-10
-3.54807e-10
-9.81441e-19
-3.54807e-10
1.44804e-18
-3.54809e-10
7.87522e-19
-3.54809e-10
2.00602e-18
-3.54809e-10
-3.54807e-10
5.29457e-19
-3.54807e-10
2.28822e-18
-3.54809e-10
-9.09827e-20
-3.54809e-10
4.532e-19
-3.54809e-10
-3.54807e-10
2.0229e-18
-3.54807e-10
3.11601e-18
-3.54809e-10
-9.57787e-19
-3.54809e-10
-1.08154e-18
-3.54809e-10
-3.54807e-10
3.48803e-18
-3.54807e-10
3.92531e-18
-3.54809e-10
-1.80635e-18
-3.54809e-10
-2.58693e-18
-3.54809e-10
-3.54807e-10
4.91459e-18
-3.54807e-10
4.71038e-18
-3.54809e-10
-2.63047e-18
-3.54809e-10
-4.05231e-18
-3.54809e-10
-3.54807e-10
6.293e-18
-3.54807e-10
5.46581e-18
-3.54809e-10
-3.42436e-18
-3.54809e-10
-5.46771e-18
-3.54809e-10
-3.54807e-10
7.61446e-18
-3.54807e-10
6.18666e-18
-3.54809e-10
-4.1827e-18
-3.54809e-10
-6.82405e-18
-3.54809e-10
-3.54807e-10
8.87107e-18
-3.54807e-10
6.86846e-18
-3.54809e-10
-4.90072e-18
-3.54809e-10
-8.1131e-18
-3.54809e-10
-3.54807e-10
1.00559e-17
-3.54807e-10
7.50727e-18
-3.54809e-10
-5.5742e-18
-3.54809e-10
-9.32768e-18
-3.54809e-10
-3.54807e-10
1.11629e-17
-3.54807e-10
8.09973e-18
-3.54809e-10
-6.19955e-18
-3.54809e-10
-1.04617e-17
-3.54809e-10
-3.54807e-10
1.21874e-17
-3.54807e-10
8.64306e-18
-3.54809e-10
-6.77382e-18
-3.54809e-10
-1.15101e-17
-3.54809e-10
-3.54807e-10
1.31257e-17
-3.54807e-10
9.13515e-18
-3.54809e-10
-7.29478e-18
-3.54809e-10
-1.24692e-17
-3.54809e-10
-3.54807e-10
1.39751e-17
-3.54807e-10
9.5745e-18
-3.54809e-10
-7.76088e-18
-3.54809e-10
-1.33364e-17
-3.54809e-10
-3.54807e-10
1.47344e-17
-3.54807e-10
9.9603e-18
-3.54809e-10
-8.17129e-18
-3.54809e-10
-1.41103e-17
-3.54809e-10
-3.54807e-10
1.54034e-17
-3.54807e-10
1.02924e-17
-3.54809e-10
-8.52591e-18
-3.54809e-10
-1.4791e-17
-3.54809e-10
-3.54807e-10
1.59832e-17
-3.54807e-10
1.05713e-17
-3.54809e-10
-8.82533e-18
-3.54809e-10
-1.53794e-17
-3.54809e-10
-3.54807e-10
1.64759e-17
-3.54807e-10
1.07982e-17
-3.54809e-10
-9.07084e-18
-3.54809e-10
-1.58781e-17
-3.54809e-10
-3.54807e-10
1.68848e-17
-3.54807e-10
1.09748e-17
-3.54809e-10
-9.26443e-18
-3.54809e-10
-1.62904e-17
-3.54809e-10
-3.54807e-10
1.72142e-17
-3.54807e-10
1.11034e-17
-3.54809e-10
-9.40867e-18
-3.54809e-10
-1.66209e-17
-3.54809e-10
-3.54807e-10
1.74694e-17
-3.54807e-10
1.11871e-17
-3.54809e-10
-9.50674e-18
-3.54809e-10
-1.68752e-17
-3.54809e-10
-3.54807e-10
1.76566e-17
-3.54807e-10
1.12292e-17
-3.54809e-10
-9.56235e-18
-3.54809e-10
-1.70597e-17
-3.54809e-10
-3.54807e-10
1.77825e-17
-3.54807e-10
1.12335e-17
-3.54809e-10
-9.57968e-18
-3.54809e-10
-1.71817e-17
-3.54809e-10
-3.54807e-10
1.78549e-17
-3.54807e-10
1.12044e-17
-3.54809e-10
-9.56329e-18
-3.54809e-10
-1.72491e-17
-3.54809e-10
-3.54807e-10
1.78817e-17
-3.54807e-10
1.11464e-17
-3.54809e-10
-9.51805e-18
-3.54809e-10
-1.72703e-17
-3.54809e-10
-3.54807e-10
1.78714e-17
-3.54807e-10
1.10642e-17
-3.54809e-10
-9.4491e-18
-3.54809e-10
-1.72541e-17
-3.54809e-10
-3.54807e-10
1.78326e-17
-3.54807e-10
1.09629e-17
-3.54809e-10
-9.36167e-18
-3.54809e-10
-1.72095e-17
-3.54809e-10
-3.54807e-10
1.7774e-17
-3.54807e-10
1.08474e-17
-3.54809e-10
-9.26108e-18
-3.54809e-10
-1.71455e-17
-3.54809e-10
-3.54807e-10
1.77041e-17
-3.54807e-10
1.07228e-17
-3.54809e-10
-9.15256e-18
-3.54809e-10
-1.70709e-17
-3.54809e-10
-3.54807e-10
1.76313e-17
-3.54807e-10
1.0594e-17
-3.54809e-10
-9.04122e-18
-3.54809e-10
-1.69944e-17
-3.54809e-10
-3.54807e-10
1.75633e-17
-3.54807e-10
1.04658e-17
-3.54809e-10
-8.9319e-18
-3.54809e-10
-1.69239e-17
-3.54809e-10
-3.54807e-10
1.75074e-17
-3.54807e-10
1.03426e-17
-3.54809e-10
-8.82909e-18
-3.54809e-10
-1.68668e-17
-3.54809e-10
-3.54807e-10
1.74699e-17
-3.54807e-10
1.02285e-17
-3.54809e-10
-8.73684e-18
-3.54809e-10
-1.68297e-17
-3.54809e-10
-3.54807e-10
1.74562e-17
-3.54807e-10
1.01272e-17
-3.54809e-10
-8.65866e-18
-3.54809e-10
-1.68179e-17
-3.54809e-10
-3.54807e-10
1.74708e-17
-3.54807e-10
1.00419e-17
-3.54809e-10
-8.59741e-18
-3.54809e-10
-1.68359e-17
-3.54809e-10
-3.54807e-10
1.75167e-17
-3.54807e-10
9.97508e-18
-3.54809e-10
-8.5553e-18
-3.54809e-10
-1.68865e-17
-3.54809e-10
-3.54807e-10
1.75957e-17
-3.54807e-10
9.92867e-18
-3.54809e-10
-8.53373e-18
-3.54809e-10
-1.69714e-17
-3.54809e-10
-3.54807e-10
1.77082e-17
-3.54807e-10
9.90393e-18
-3.54809e-10
-8.53332e-18
-3.54809e-10
-1.70906e-17
-3.54809e-10
-3.54807e-10
1.78529e-17
-3.54807e-10
9.90138e-18
-3.54809e-10
-8.55387e-18
-3.54809e-10
-1.72425e-17
-3.54809e-10
-3.54807e-10
1.80274e-17
-3.54807e-10
9.92081e-18
-3.54809e-10
-8.5943e-18
-3.54809e-10
-1.74241e-17
-3.54808e-10
-3.54807e-10
1.82274e-17
-3.54807e-10
9.96129e-18
-3.54809e-10
-8.65272e-18
-3.54809e-10
-1.76305e-17
-3.54808e-10
-3.54807e-10
1.84471e-17
-3.54808e-10
1.00212e-17
-3.54809e-10
-8.72645e-18
-3.54809e-10
-1.78555e-17
-3.54808e-10
-3.54807e-10
1.868e-17
-3.54808e-10
1.00986e-17
-3.54809e-10
-8.81244e-18
-3.54808e-10
-1.80917e-17
-3.54808e-10
-3.54807e-10
1.89214e-17
-3.54808e-10
1.0192e-17
-3.54809e-10
-8.90782e-18
-3.54808e-10
-1.83337e-17
-3.54808e-10
-3.54807e-10
1.91732e-17
1.02938e-17
-9.00422e-18
-1.85828e-17
)
;

boundaryField
{
    BotWall
    {
        type            calculated;
        value           nonuniform List<scalar> 5(-9.18738e-24 7.93632e-24 3.02147e-23 1.61752e-23 1.66663e-23);
    }
    FreeStream
    {
        type            calculated;
        value           nonuniform List<scalar> 5(-3.54808e-10 -3.54809e-10 -3.54808e-10 -3.54808e-10 -3.54807e-10);
    }
    FrontNBack
    {
        type            empty;
        value           nonuniform 0();
    }
    LeftSide
    {
        type            symmetryPlane;
        value           uniform 0;
    }
    RightSide
    {
        type            symmetryPlane;
        value           uniform 0;
    }
}


// ************************************************************************* //
