/*--------------------------------*- C++ -*----------------------------------*\
| =========                 |                                                 |
| \\      /  F ield         | OpenFOAM: The Open Source CFD Toolbox           |
|  \\    /   O peration     | Version:  2.4.0                                 |
|   \\  /    A nd           | Web:      www.OpenFOAM.org                      |
|    \\/     M anipulation  |                                                 |
\*---------------------------------------------------------------------------*/
FoamFile
{
    version     2.0;
    format      ascii;
    class       volVectorField;
    location    "1.3";
    object      U;
}
// * * * * * * * * * * * * * * * * * * * * * * * * * * * * * * * * * * * * * //

dimensions      [0 1 -1 0 0 0 0];

internalField   nonuniform List<vector> 
500
(
(2.5006e-10 -2.04193e-09 0)
(3.31529e-10 -2.0632e-09 0)
(-2.40027e-12 -2.06247e-09 0)
(-3.42673e-10 -2.0632e-09 0)
(-2.58715e-10 -2.04196e-09 0)
(7.51234e-10 4.57403e-09 0)
(9.93431e-10 4.64254e-09 0)
(-7.28243e-12 4.64829e-09 0)
(-1.02699e-09 4.64261e-09 0)
(-7.77247e-10 4.57376e-09 0)
(1.26424e-09 -9.05765e-09 0)
(1.66559e-09 -9.11986e-09 0)
(-1.23494e-11 -9.10135e-09 0)
(-1.72208e-09 -9.11971e-09 0)
(-1.30794e-09 -9.0585e-09 0)
(1.77832e-09 1.41033e-08 0)
(2.33709e-09 1.43084e-08 0)
(-1.75995e-11 1.43436e-08 0)
(-2.41717e-09 1.43087e-08 0)
(-1.8402e-09 1.41016e-08 0)
(2.30879e-09 -5.21094e-09 0)
(3.02296e-09 -5.25568e-09 0)
(-2.30304e-11 -5.19395e-09 0)
(-3.12697e-09 -5.25517e-09 0)
(-2.38899e-09 -5.21388e-09 0)
(2.83805e-09 3.03683e-08 0)
(3.70574e-09 3.07488e-08 0)
(-2.86106e-11 3.08389e-08 0)
(-3.83397e-09 3.07496e-08 0)
(-2.93673e-09 3.03639e-08 0)
(3.38711e-09 -8.2916e-08 0)
(4.40624e-09 -8.2956e-08 0)
(-3.43442e-11 -8.28279e-08 0)
(-4.55906e-09 -8.29548e-08 0)
(-3.5045e-09 -8.29219e-08 0)
(3.93347e-09 -2.45945e-07 0)
(5.10183e-09 -2.45449e-07 0)
(-4.02259e-11 -2.45288e-07 0)
(-5.27962e-09 -2.45447e-07 0)
(-4.0698e-09 -2.45951e-07 0)
(4.50161e-09 -3.13947e-07 0)
(5.8167e-09 -3.13747e-07 0)
(-4.62249e-11 -3.13535e-07 0)
(-6.01984e-09 -3.13744e-07 0)
(-4.65718e-09 -3.13955e-07 0)
(5.07118e-09 1.581e-06 0)
(6.53047e-09 1.58283e-06 0)
(-5.23709e-11 1.58315e-06 0)
(-6.75942e-09 1.58283e-06 0)
(-5.24629e-09 1.58098e-06 0)
(5.67451e-09 7.2783e-06 0)
(7.27611e-09 7.28079e-06 0)
(-5.87092e-11 7.28139e-06 0)
(-7.5314e-09 7.28078e-06 0)
(-5.86955e-09 7.27824e-06 0)
(6.28514e-09 6.05814e-06 0)
(8.02354e-09 6.05961e-06 0)
(-6.53858e-11 6.06036e-06 0)
(-8.30634e-09 6.0596e-06 0)
(-6.50094e-09 6.05805e-06 0)
(6.88566e-09 -3.2273e-05 0)
(8.76721e-09 -3.22812e-05 0)
(-7.21296e-11 -3.22817e-05 0)
(-9.07803e-09 -3.22812e-05 0)
(-7.12269e-09 -3.22729e-05 0)
(7.55284e-09 -0.000254136 0)
(9.61029e-09 -0.00025417 0)
(-8.02254e-11 -0.000254177 0)
(-9.95611e-09 -0.00025417 0)
(-7.81677e-09 -0.000254134 0)
(7.83061e-09 -0.00141053 0)
(9.94521e-09 -0.00141052 0)
(-8.29888e-11 -0.00141051 0)
(-1.03022e-08 -0.00141052 0)
(-8.10299e-09 -0.00141053 0)
(7.76353e-09 -0.00322146 0)
(9.74847e-09 -0.00322144 0)
(-6.03795e-11 -0.00322144 0)
(-1.00577e-08 -0.00322144 0)
(-8.00997e-09 -0.00322146 0)
(6.1062e-09 -0.00180915 0)
(7.87781e-09 -0.0018092 0)
(-3.43796e-11 -0.0018092 0)
(-8.12465e-09 -0.0018092 0)
(-6.31552e-09 -0.00180915 0)
(5.01801e-09 -0.00168926 0)
(6.58898e-09 -0.00168926 0)
(-9.17619e-12 -0.00168927 0)
(-6.77605e-09 -0.00168926 0)
(-5.19207e-09 -0.00168925 0)
(4.2017e-09 -0.00173267 0)
(5.58684e-09 -0.00173267 0)
(1.50845e-11 -0.00173267 0)
(-5.71729e-09 -0.00173267 0)
(-4.34276e-09 -0.00173267 0)
(3.40326e-09 -0.00177138 0)
(4.61454e-09 -0.00177138 0)
(3.85094e-11 -0.00177138 0)
(-4.69098e-09 -0.00177138 0)
(-3.51311e-09 -0.00177138 0)
(2.58721e-09 -0.00177783 0)
(3.63473e-09 -0.00177784 0)
(6.11528e-11 -0.00177784 0)
(-3.65946e-09 -0.00177784 0)
(-2.66739e-09 -0.00177783 0)
(1.80009e-09 -0.00177568 0)
(2.6939e-09 -0.00177568 0)
(8.29878e-11 -0.00177569 0)
(-2.66927e-09 -0.00177568 0)
(-1.85216e-09 -0.00177568 0)
(1.06504e-09 -0.00177414 0)
(1.81549e-09 -0.00177415 0)
(1.03973e-10 -0.00177415 0)
(-1.74392e-09 -0.00177415 0)
(-1.09061e-09 -0.00177414 0)
(3.8268e-10 -0.00177388 0)
(1.00029e-09 -0.00177389 0)
(1.24074e-10 -0.00177389 0)
(-8.84285e-10 -0.00177389 0)
(-3.83363e-10 -0.00177388 0)
(-2.50575e-10 -0.00177397 0)
(2.4481e-10 -0.00177398 0)
(1.43261e-10 -0.00177398 0)
(-8.69169e-11 -0.00177398 0)
(2.73116e-10 -0.00177397 0)
(-8.36071e-10 -0.00177403 0)
(-4.52277e-10 -0.00177404 0)
(1.61508e-10 -0.00177404 0)
(6.49463e-10 -0.00177404 0)
(8.80172e-10 -0.00177403 0)
(-1.37377e-09 -0.00177404 0)
(-1.09092e-09 -0.00177405 0)
(1.78792e-10 -0.00177405 0)
(1.32477e-09 -0.00177405 0)
(1.43776e-09 -0.00177404 0)
(-1.86356e-09 -0.00177404 0)
(-1.67102e-09 -0.00177405 0)
(1.95092e-10 -0.00177405 0)
(1.9389e-09 -0.00177405 0)
(1.94577e-09 -0.00177404 0)
(-2.30564e-09 -0.00177404 0)
(-2.19284e-09 -0.00177404 0)
(2.10391e-10 -0.00177404 0)
(2.49208e-09 -0.00177404 0)
(2.40439e-09 -0.00177404 0)
(-2.70043e-09 -0.00177404 0)
(-2.65687e-09 -0.00177404 0)
(2.24674e-10 -0.00177404 0)
(2.98481e-09 -0.00177404 0)
(2.81408e-09 -0.00177404 0)
(-3.04851e-09 -0.00177404 0)
(-3.0638e-09 -0.00177404 0)
(2.3793e-10 -0.00177404 0)
(3.41777e-09 -0.00177404 0)
(3.17541e-09 -0.00177404 0)
(-3.35059e-09 -0.00177404 0)
(-3.41448e-09 -0.00177404 0)
(2.50152e-10 -0.00177404 0)
(3.79184e-09 -0.00177404 0)
(3.48911e-09 -0.00177404 0)
(-3.6075e-09 -0.00177404 0)
(-3.70994e-09 -0.00177404 0)
(2.61334e-10 -0.00177404 0)
(4.10806e-09 -0.00177404 0)
(3.75606e-09 -0.00177404 0)
(-3.82025e-09 -0.00177404 0)
(-3.95139e-09 -0.00177404 0)
(2.71478e-10 -0.00177404 0)
(4.36768e-09 -0.00177404 0)
(3.97729e-09 -0.00177404 0)
(-3.98997e-09 -0.00177404 0)
(-4.14022e-09 -0.00177404 0)
(2.80586e-10 -0.00177404 0)
(4.57213e-09 -0.00177404 0)
(4.15396e-09 -0.00177404 0)
(-4.11794e-09 -0.00177404 0)
(-4.27799e-09 -0.00177404 0)
(2.88666e-10 -0.00177404 0)
(4.72303e-09 -0.00177404 0)
(4.28743e-09 -0.00177404 0)
(-4.20559e-09 -0.00177404 0)
(-4.36646e-09 -0.00177404 0)
(2.95729e-10 -0.00177404 0)
(4.82219e-09 -0.00177404 0)
(4.37914e-09 -0.00177404 0)
(-4.25448e-09 -0.00177404 0)
(-4.40756e-09 -0.00177404 0)
(3.0179e-10 -0.00177404 0)
(4.87162e-09 -0.00177404 0)
(4.43074e-09 -0.00177404 0)
(-4.26631e-09 -0.00177404 0)
(-4.40339e-09 -0.00177404 0)
(3.0687e-10 -0.00177404 0)
(4.87351e-09 -0.00177404 0)
(4.44398e-09 -0.00177404 0)
(-4.24292e-09 -0.00177404 0)
(-4.35621e-09 -0.00177404 0)
(3.10992e-10 -0.00177404 0)
(4.83022e-09 -0.00177404 0)
(4.42075e-09 -0.00177404 0)
(-4.18624e-09 -0.00177404 0)
(-4.26846e-09 -0.00177404 0)
(3.14184e-10 -0.00177405 0)
(4.74426e-09 -0.00177404 0)
(4.36308e-09 -0.00177404 0)
(-4.09835e-09 -0.00177404 0)
(-4.14271e-09 -0.00177404 0)
(3.16477e-10 -0.00177405 0)
(4.61835e-09 -0.00177404 0)
(4.27312e-09 -0.00177403 0)
(-3.98141e-09 -0.00177404 0)
(-3.98168e-09 -0.00177404 0)
(3.17908e-10 -0.00177405 0)
(4.4553e-09 -0.00177404 0)
(4.1531e-09 -0.00177403 0)
(-3.83769e-09 -0.00177404 0)
(-3.7882e-09 -0.00177404 0)
(3.18514e-10 -0.00177405 0)
(4.25807e-09 -0.00177404 0)
(4.00537e-09 -0.00177403 0)
(-3.66952e-09 -0.00177404 0)
(-3.56523e-09 -0.00177404 0)
(3.18338e-10 -0.00177405 0)
(4.02977e-09 -0.00177404 0)
(3.83237e-09 -0.00177403 0)
(-3.47932e-09 -0.00177404 0)
(-3.31581e-09 -0.00177404 0)
(3.17425e-10 -0.00177405 0)
(3.77355e-09 -0.00177404 0)
(3.6366e-09 -0.00177403 0)
(-3.26954e-09 -0.00177404 0)
(-3.04304e-09 -0.00177404 0)
(3.15824e-10 -0.00177405 0)
(3.49267e-09 -0.00177404 0)
(3.42059e-09 -0.00177403 0)
(-3.0427e-09 -0.00177403 0)
(-2.7501e-09 -0.00177404 0)
(3.13584e-10 -0.00177405 0)
(3.19045e-09 -0.00177404 0)
(3.18696e-09 -0.00177403 0)
(-2.80129e-09 -0.00177403 0)
(-2.44019e-09 -0.00177404 0)
(3.10756e-10 -0.00177405 0)
(2.87023e-09 -0.00177404 0)
(2.9383e-09 -0.00177403 0)
(-2.54785e-09 -0.00177403 0)
(-2.11651e-09 -0.00177404 0)
(3.07396e-10 -0.00177405 0)
(2.53537e-09 -0.00177404 0)
(2.67723e-09 -0.00177403 0)
(-2.28487e-09 -0.00177403 0)
(-1.78226e-09 -0.00177404 0)
(3.03555e-10 -0.00177405 0)
(2.18922e-09 -0.00177404 0)
(2.40634e-09 -0.00177403 0)
(-2.01485e-09 -0.00177403 0)
(-1.4406e-09 -0.00177404 0)
(2.9929e-10 -0.00177405 0)
(1.83508e-09 -0.00177404 0)
(2.12821e-09 -0.00177403 0)
(-1.74018e-09 -0.00177403 0)
(-1.09462e-09 -0.00177404 0)
(2.94655e-10 -0.00177405 0)
(1.47619e-09 -0.00177404 0)
(1.84534e-09 -0.00177403 0)
(-1.46324e-09 -0.00177403 0)
(-7.4736e-10 -0.00177404 0)
(2.89704e-10 -0.00177405 0)
(1.11571e-09 -0.00177404 0)
(1.56017e-09 -0.00177403 0)
(-1.18629e-09 -0.00177403 0)
(-4.01714e-10 -0.00177404 0)
(2.84489e-10 -0.00177405 0)
(7.56699e-10 -0.00177404 0)
(1.27505e-09 -0.00177403 0)
(-9.11496e-10 -0.00177403 0)
(-6.04695e-11 -0.00177404 0)
(2.79063e-10 -0.00177405 0)
(4.02057e-10 -0.00177404 0)
(9.92224e-10 -0.00177403 0)
(-6.40903e-10 -0.00177403 0)
(2.73741e-10 -0.00177404 0)
(2.73474e-10 -0.00177405 0)
(5.45417e-11 -0.00177404 0)
(7.13807e-10 -0.00177403 0)
(-3.76426e-10 -0.00177403 0)
(5.98455e-10 -0.00177404 0)
(2.6777e-10 -0.00177405 0)
(-2.83269e-10 -0.00177404 0)
(4.41779e-10 -0.00177403 0)
(-1.19828e-10 -0.00177403 0)
(9.11397e-10 -0.00177404 0)
(2.61994e-10 -0.00177405 0)
(-6.08995e-10 -0.00177404 0)
(1.77964e-10 -0.00177403 0)
(1.27287e-10 -0.00177403 0)
(1.2105e-09 -0.00177404 0)
(2.56189e-10 -0.00177405 0)
(-9.20474e-10 -0.00177404 0)
(-7.59817e-11 -0.00177403 0)
(3.63486e-10 -0.00177403 0)
(1.4939e-09 -0.00177404 0)
(2.50389e-10 -0.00177405 0)
(-1.21577e-09 -0.00177404 0)
(-3.1858e-10 -0.00177403 0)
(5.87518e-10 -0.00177403 0)
(1.76001e-09 -0.00177404 0)
(2.44631e-10 -0.00177405 0)
(-1.4932e-09 -0.00177404 0)
(-5.4854e-10 -0.00177403 0)
(7.98322e-10 -0.00177403 0)
(2.00742e-09 -0.00177404 0)
(2.38941e-10 -0.00177405 0)
(-1.75132e-09 -0.00177404 0)
(-7.64768e-10 -0.00177403 0)
(9.95027e-10 -0.00177403 0)
(2.23503e-09 -0.00177404 0)
(2.33346e-10 -0.00177405 0)
(-1.98897e-09 -0.00177404 0)
(-9.66372e-10 -0.00177403 0)
(1.17696e-09 -0.00177403 0)
(2.44197e-09 -0.00177404 0)
(2.27866e-10 -0.00177405 0)
(-2.20524e-09 -0.00177404 0)
(-1.15266e-09 -0.00177403 0)
(1.34366e-09 -0.00177403 0)
(2.62762e-09 -0.00177404 0)
(2.22517e-10 -0.00177405 0)
(-2.39949e-09 -0.00177404 0)
(-1.32316e-09 -0.00177403 0)
(1.49483e-09 -0.00177403 0)
(2.79163e-09 -0.00177404 0)
(2.17312e-10 -0.00177405 0)
(-2.57136e-09 -0.00177404 0)
(-1.47759e-09 -0.00177403 0)
(1.6304e-09 -0.00177403 0)
(2.9339e-09 -0.00177404 0)
(2.12256e-10 -0.00177405 0)
(-2.72076e-09 -0.00177404 0)
(-1.61587e-09 -0.00177403 0)
(1.75047e-09 -0.00177404 0)
(3.05457e-09 -0.00177404 0)
(2.07354e-10 -0.00177405 0)
(-2.84783e-09 -0.00177404 0)
(-1.73811e-09 -0.00177403 0)
(1.85533e-09 -0.00177404 0)
(3.15402e-09 -0.00177404 0)
(2.02604e-10 -0.00177405 0)
(-2.95298e-09 -0.00177404 0)
(-1.84464e-09 -0.00177403 0)
(1.94543e-09 -0.00177404 0)
(3.23285e-09 -0.00177404 0)
(1.98002e-10 -0.00177405 0)
(-3.03685e-09 -0.00177404 0)
(-1.93591e-09 -0.00177403 0)
(2.02139e-09 -0.00177404 0)
(3.29189e-09 -0.00177404 0)
(1.9354e-10 -0.00177405 0)
(-3.10031e-09 -0.00177404 0)
(-2.0126e-09 -0.00177403 0)
(2.08397e-09 -0.00177404 0)
(3.33215e-09 -0.00177404 0)
(1.89207e-10 -0.00177404 0)
(-3.1444e-09 -0.00177404 0)
(-2.07547e-09 -0.00177403 0)
(2.13405e-09 -0.00177404 0)
(3.3548e-09 -0.00177404 0)
(1.8499e-10 -0.00177404 0)
(-3.17038e-09 -0.00177404 0)
(-2.12548e-09 -0.00177403 0)
(2.17262e-09 -0.00177404 0)
(3.36118e-09 -0.00177404 0)
(1.80873e-10 -0.00177404 0)
(-3.17964e-09 -0.00177404 0)
(-2.16364e-09 -0.00177403 0)
(2.20079e-09 -0.00177404 0)
(3.35277e-09 -0.00177404 0)
(1.76839e-10 -0.00177404 0)
(-3.17372e-09 -0.00177404 0)
(-2.19112e-09 -0.00177403 0)
(2.21972e-09 -0.00177404 0)
(3.33112e-09 -0.00177404 0)
(1.72871e-10 -0.00177404 0)
(-3.15426e-09 -0.00177404 0)
(-2.20911e-09 -0.00177404 0)
(2.23062e-09 -0.00177404 0)
(3.29789e-09 -0.00177404 0)
(1.6895e-10 -0.00177404 0)
(-3.12298e-09 -0.00177404 0)
(-2.2189e-09 -0.00177404 0)
(2.23475e-09 -0.00177404 0)
(3.2548e-09 -0.00177404 0)
(1.6506e-10 -0.00177404 0)
(-3.08167e-09 -0.00177404 0)
(-2.22177e-09 -0.00177404 0)
(2.23336e-09 -0.00177404 0)
(3.20358e-09 -0.00177404 0)
(1.61183e-10 -0.00177404 0)
(-3.03213e-09 -0.00177404 0)
(-2.21903e-09 -0.00177404 0)
(2.2277e-09 -0.00177404 0)
(3.14596e-09 -0.00177404 0)
(1.57306e-10 -0.00177404 0)
(-2.97617e-09 -0.00177404 0)
(-2.21198e-09 -0.00177404 0)
(2.21897e-09 -0.00177404 0)
(3.08366e-09 -0.00177404 0)
(1.53415e-10 -0.00177404 0)
(-2.91557e-09 -0.00177404 0)
(-2.20188e-09 -0.00177404 0)
(2.20834e-09 -0.00177404 0)
(3.01833e-09 -0.00177404 0)
(1.49503e-10 -0.00177404 0)
(-2.85203e-09 -0.00177404 0)
(-2.18992e-09 -0.00177404 0)
(2.19689e-09 -0.00177404 0)
(2.95158e-09 -0.00177404 0)
(1.45563e-10 -0.00177404 0)
(-2.78719e-09 -0.00177404 0)
(-2.17722e-09 -0.00177404 0)
(2.18559e-09 -0.00177404 0)
(2.88488e-09 -0.00177404 0)
(1.41596e-10 -0.00177404 0)
(-2.72258e-09 -0.00177404 0)
(-2.16479e-09 -0.00177404 0)
(2.17532e-09 -0.00177404 0)
(2.8196e-09 -0.00177404 0)
(1.37604e-10 -0.00177404 0)
(-2.65959e-09 -0.00177404 0)
(-2.15353e-09 -0.00177404 0)
(2.1668e-09 -0.00177404 0)
(2.75696e-09 -0.00177404 0)
(1.33598e-10 -0.00177404 0)
(-2.59946e-09 -0.00177404 0)
(-2.1442e-09 -0.00177404 0)
(2.16063e-09 -0.00177404 0)
(2.69802e-09 -0.00177404 0)
(1.29594e-10 -0.00177404 0)
(-2.54325e-09 -0.00177404 0)
(-2.13739e-09 -0.00177404 0)
(2.15722e-09 -0.00177404 0)
(2.64367e-09 -0.00177404 0)
(1.25612e-10 -0.00177404 0)
(-2.49184e-09 -0.00177404 0)
(-2.13354e-09 -0.00177404 0)
(2.15683e-09 -0.00177404 0)
(2.59461e-09 -0.00177404 0)
(1.21681e-10 -0.00177404 0)
(-2.44589e-09 -0.00177404 0)
(-2.1329e-09 -0.00177404 0)
(2.15954e-09 -0.00177404 0)
(2.55133e-09 -0.00177404 0)
(1.17835e-10 -0.00177404 0)
(-2.40588e-09 -0.00177404 0)
(-2.13554e-09 -0.00177404 0)
(2.16523e-09 -0.00177404 0)
(2.51413e-09 -0.00177404 0)
(1.14116e-10 -0.00177404 0)
(-2.37202e-09 -0.00177404 0)
(-2.14132e-09 -0.00177404 0)
(2.17361e-09 -0.00177404 0)
(2.4831e-09 -0.00177404 0)
(1.1057e-10 -0.00177404 0)
(-2.34436e-09 -0.00177404 0)
(-2.14994e-09 -0.00177404 0)
(2.1842e-09 -0.00177404 0)
(2.45813e-09 -0.00177404 0)
(1.0725e-10 -0.00177404 0)
(-2.3227e-09 -0.00177404 0)
(-2.1609e-09 -0.00177404 0)
(2.19635e-09 -0.00177404 0)
(2.43891e-09 -0.00177404 0)
(1.04214e-10 -0.00177404 0)
(-2.30664e-09 -0.00177404 0)
(-2.1735e-09 -0.00177404 0)
(2.20926e-09 -0.00177404 0)
(2.42495e-09 -0.00177404 0)
(1.01523e-10 -0.00177404 0)
(-2.2956e-09 -0.00177404 0)
(-2.18689e-09 -0.00177404 0)
(2.22197e-09 -0.00177404 0)
(2.41562e-09 -0.00177404 0)
(9.92428e-11 -0.00177404 0)
(-2.28882e-09 -0.00177404 0)
(-2.20008e-09 -0.00177404 0)
(2.23345e-09 -0.00177404 0)
(2.41022e-09 -0.00177404 0)
(9.744e-11 -0.00177404 0)
(-2.28549e-09 -0.00177404 0)
(-2.212e-09 -0.00177404 0)
(2.24271e-09 -0.00177404 0)
(2.40808e-09 -0.00177404 0)
(9.61854e-11 -0.00177404 0)
(-2.28484e-09 -0.00177404 0)
(-2.22159e-09 -0.00177404 0)
(2.2486e-09 -0.00177404 0)
(2.4084e-09 -0.00177404 0)
(9.55449e-11 -0.00177404 0)
(-2.28594e-09 -0.00177404 0)
(-2.22768e-09 -0.00177404 0)
)
;

boundaryField
{
    BotWall
    {
        type            fixedValue;
        value           uniform (0 0 0);
    }
    FreeStream
    {
        type            zeroGradient;
    }
    FrontNBack
    {
        type            empty;
    }
    LeftSide
    {
        type            symmetryPlane;
    }
    RightSide
    {
        type            symmetryPlane;
    }
}


// ************************************************************************* //
