/*--------------------------------*- C++ -*----------------------------------*\
| =========                 |                                                 |
| \\      /  F ield         | OpenFOAM: The Open Source CFD Toolbox           |
|  \\    /   O peration     | Version:  2.4.0                                 |
|   \\  /    A nd           | Web:      www.OpenFOAM.org                      |
|    \\/     M anipulation  |                                                 |
\*---------------------------------------------------------------------------*/
FoamFile
{
    version     2.0;
    format      ascii;
    class       volScalarField;
    location    "2.5";
    object      p_rgh;
}
// * * * * * * * * * * * * * * * * * * * * * * * * * * * * * * * * * * * * * //

dimensions      [1 -1 -2 0 0 0 0];

internalField   nonuniform List<scalar> 
125
(
-9.16162e-06
-9.16125e-06
-9.16087e-06
-9.16108e-06
-9.16168e-06
-9.14811e-06
-9.14777e-06
-9.1474e-06
-9.14761e-06
-9.14818e-06
-9.13447e-06
-9.13414e-06
-9.13379e-06
-9.13399e-06
-9.13454e-06
-9.12069e-06
-9.12037e-06
-9.12003e-06
-9.12022e-06
-9.12075e-06
-9.10675e-06
-9.10645e-06
-9.10613e-06
-9.10631e-06
-9.10681e-06
-9.09266e-06
-9.09238e-06
-9.09207e-06
-9.09224e-06
-9.09272e-06
-9.07842e-06
-9.07815e-06
-9.07786e-06
-9.07802e-06
-9.07847e-06
-9.06403e-06
-9.06377e-06
-9.06349e-06
-9.06365e-06
-9.06407e-06
-9.04947e-06
-9.04923e-06
-9.04897e-06
-9.04911e-06
-9.04952e-06
-9.03476e-06
-9.03453e-06
-9.03429e-06
-9.03442e-06
-9.0348e-06
-9.01988e-06
-9.01967e-06
-9.01944e-06
-9.01956e-06
-9.01992e-06
-9.00484e-06
-9.00465e-06
-9.00443e-06
-9.00455e-06
-9.00488e-06
-8.98964e-06
-8.98946e-06
-8.98926e-06
-8.98936e-06
-8.98967e-06
-8.97427e-06
-8.9741e-06
-8.97392e-06
-8.97401e-06
-8.9743e-06
-8.95873e-06
-8.95858e-06
-8.95841e-06
-8.95849e-06
-8.95876e-06
-8.94302e-06
-8.94288e-06
-8.94273e-06
-8.9428e-06
-8.94304e-06
-8.92714e-06
-8.92701e-06
-8.92687e-06
-8.92694e-06
-8.92716e-06
-8.91108e-06
-8.91097e-06
-8.91085e-06
-8.9109e-06
-8.9111e-06
-8.89484e-06
-8.89475e-06
-8.89464e-06
-8.89469e-06
-8.89486e-06
-8.87843e-06
-8.87835e-06
-8.87826e-06
-8.8783e-06
-8.87844e-06
-8.86183e-06
-8.86177e-06
-8.86169e-06
-8.86172e-06
-8.86184e-06
-8.84505e-06
-8.84501e-06
-8.84495e-06
-8.84497e-06
-8.84506e-06
-8.82809e-06
-8.82806e-06
-8.82802e-06
-8.82803e-06
-8.82809e-06
-8.81094e-06
-8.81092e-06
-8.8109e-06
-8.8109e-06
-8.81094e-06
-8.79364e-06
-8.7936e-06
-8.79355e-06
-8.79357e-06
-8.79365e-06
)
;

boundaryField
{
    BotWall
    {
        type            fixedFluxPressure;
        gradient        nonuniform 0();
        value           nonuniform 0();
    }
    FreeStream
    {
        type            totalPressure;
        rho             rho;
        psi             none;
        gamma           1;
        p0              uniform 0;
        value           nonuniform List<scalar> 5(-8.78497e-06 -8.78488e-06 -8.7848e-06 -8.78485e-06 -8.78498e-06);
    }
    FrontNBack
    {
        type            empty;
    }
    LeftSide
    {
        type            symmetryPlane;
    }
    RightSide
    {
        type            symmetryPlane;
    }
    procBoundary3to2
    {
        type            processor;
        value           nonuniform List<scalar> 5(-9.17499e-06 -9.17461e-06 -9.17421e-06 -9.17443e-06 -9.17506e-06);
    }
}


// ************************************************************************* //
