/*--------------------------------*- C++ -*----------------------------------*\
| =========                 |                                                 |
| \\      /  F ield         | OpenFOAM: The Open Source CFD Toolbox           |
|  \\    /   O peration     | Version:  2.4.0                                 |
|   \\  /    A nd           | Web:      www.OpenFOAM.org                      |
|    \\/     M anipulation  |                                                 |
\*---------------------------------------------------------------------------*/
FoamFile
{
    version     2.0;
    format      ascii;
    class       volScalarField;
    location    "0.015";
    object      p_rgh;
}
// * * * * * * * * * * * * * * * * * * * * * * * * * * * * * * * * * * * * * //

dimensions      [1 -1 -2 0 0 0 0];

internalField   nonuniform List<scalar> 
125
(
-0.00464728
-0.00463877
-0.00463021
-0.00462163
-0.00461301
-0.00460437
-0.00459569
-0.00458698
-0.00457824
-0.00456947
-0.00456066
-0.00455183
-0.00454296
-0.00453406
-0.00452512
-0.00451616
-0.00450716
-0.00449813
-0.00448907
-0.00447998
-0.00447085
-0.00446169
-0.0044525
-0.00444327
-0.00443401
-0.00442472
-0.00441539
-0.00440603
-0.00439663
-0.0043872
-0.00437774
-0.00436824
-0.00435871
-0.00434915
-0.00433955
-0.00432991
-0.00432024
-0.00431054
-0.0043008
-0.00429102
-0.00428121
-0.00427136
-0.00426148
-0.00425156
-0.00424161
-0.00423162
-0.0042216
-0.00421153
-0.00420143
-0.0041913
-0.00418113
-0.00417092
-0.00416067
-0.00415039
-0.00414007
-0.00412971
-0.00411932
-0.00410889
-0.00409842
-0.00408791
-0.00407736
-0.00406678
-0.00405615
-0.00404549
-0.00403479
-0.00402405
-0.00401327
-0.00400246
-0.0039916
-0.00398071
-0.00396977
-0.0039588
-0.00394778
-0.00393673
-0.00392563
-0.0039145
-0.00390332
-0.0038921
-0.00388085
-0.00386955
-0.00385821
-0.00384683
-0.00383541
-0.00382395
-0.00381244
-0.0038009
-0.00378931
-0.00377768
-0.00376601
-0.00375429
-0.00374254
-0.00373074
-0.00371889
-0.00370701
-0.00369508
-0.00368311
-0.00367109
-0.00365903
-0.00364693
-0.00363478
-0.00362259
-0.00361035
-0.00359807
-0.00358575
-0.00357338
-0.00356096
-0.0035485
-0.003536
-0.00352345
-0.00351085
-0.00349821
-0.00348552
-0.00347278
-0.00346
-0.00344718
-0.0034343
-0.00342138
-0.00340841
-0.0033954
-0.00338234
-0.00336923
-0.00335607
-0.00334286
-0.0033296
-0.0033163
)
;

boundaryField
{
    BotWall
    {
        type            fixedFluxPressure;
        gradient        nonuniform 0();
        value           nonuniform 0();
    }
    FreeStream
    {
        type            totalPressure;
        rho             rho;
        psi             none;
        gamma           1;
        p0              nonuniform 0();
        value           nonuniform 0();
    }
    FrontNBack
    {
        type            empty;
    }
    LeftSide
    {
        type            symmetryPlane;
    }
    RightSide
    {
        type            symmetryPlane;
    }
    procBoundary1to0
    {
        type            processor;
        value           uniform -0.00330295;
    }
    procBoundary1to2
    {
        type            processor;
        value           uniform -0.00465577;
    }
    procBoundary1to3
    {
        type            processor;
        value           nonuniform List<scalar> 
75
(
-0.00416937
-0.00415925
-0.0041491
-0.0041389
-0.00412867
-0.00411841
-0.0041081
-0.00409776
-0.00408738
-0.00407696
-0.0040665
-0.004056
-0.00404547
-0.00403489
-0.00402428
-0.00401363
-0.00400294
-0.00399221
-0.00398143
-0.00397062
-0.00395977
-0.00394888
-0.00393795
-0.00392698
-0.00391597
-0.00390492
-0.00389382
-0.00388269
-0.00387151
-0.0038603
-0.00384904
-0.00383774
-0.0038264
-0.00381502
-0.00380359
-0.00379212
-0.00378061
-0.00376906
-0.00375747
-0.00374583
-0.00373415
-0.00372243
-0.00371066
-0.00369885
-0.003687
-0.0036751
-0.00366316
-0.00365117
-0.00363914
-0.00362707
-0.00361495
-0.00360279
-0.00359058
-0.00357833
-0.00356603
-0.00355369
-0.0035413
-0.00352886
-0.00351638
-0.00350386
-0.00349128
-0.00347866
-0.003466
-0.00345329
-0.00344053
-0.00342772
-0.00341487
-0.00340197
-0.00338902
-0.00337602
-0.00336298
-0.00334989
-0.00333675
-0.00332356
-0.00331032
)
;
    }
    procBoundary1to4
    {
        type            processor;
        value           nonuniform List<scalar> 
50
(
-0.00462995
-0.00462155
-0.00461312
-0.00460466
-0.00459616
-0.00458764
-0.00457908
-0.00457049
-0.00456187
-0.00455322
-0.00454453
-0.00453581
-0.00452706
-0.00451828
-0.00450947
-0.00450062
-0.00449174
-0.00448283
-0.00447388
-0.0044649
-0.00445589
-0.00444684
-0.00443776
-0.00442865
-0.0044195
-0.00441032
-0.0044011
-0.00439185
-0.00438257
-0.00437325
-0.0043639
-0.00435451
-0.00434509
-0.00433563
-0.00432614
-0.00431661
-0.00430705
-0.00429745
-0.00428781
-0.00427815
-0.00426844
-0.0042587
-0.00424892
-0.00423911
-0.00422926
-0.00421937
-0.00420945
-0.00419949
-0.00418949
-0.00417945
)
;
    }
}


// ************************************************************************* //
