/*--------------------------------*- C++ -*----------------------------------*\
| =========                 |                                                 |
| \\      /  F ield         | OpenFOAM: The Open Source CFD Toolbox           |
|  \\    /   O peration     | Version:  2.4.0                                 |
|   \\  /    A nd           | Web:      www.OpenFOAM.org                      |
|    \\/     M anipulation  |                                                 |
\*---------------------------------------------------------------------------*/
FoamFile
{
    version     2.0;
    format      ascii;
    class       volScalarField;
    location    "0.013";
    object      T;
}
// * * * * * * * * * * * * * * * * * * * * * * * * * * * * * * * * * * * * * //

dimensions      [0 0 0 1 0 0 0];

internalField   nonuniform List<scalar> 
125
(
293.464
294.388
295.302
296.208
297.699
297.705
297.712
297.721
297.731
297.743
297.755
297.768
297.782
297.795
297.809
297.823
297.836
297.849
297.861
297.873
297.885
297.895
297.905
297.915
297.923
297.931
297.938
297.945
297.95
297.955
297.96
297.964
297.968
297.971
297.974
297.976
297.978
297.98
297.981
297.983
297.984
297.985
297.986
297.987
297.987
297.988
297.989
297.989
297.99
297.99
298
298
298
298
298
298
298
298
298
298
298
298
298
298
298
298
298
298
298
298
298
298
298
298
298
298
298
298
298
298
298
298
298
298
298
298
298
298
298
298
298
298
298
298
298
298
298
298
298
298
298
298
298
298
298
298
298
298
298
298
298
298
298
298
298
298
298
298
298
298
298
298
298
298
298
)
;

boundaryField
{
    BotWall
    {
        type            fixedValue;
        value           uniform 293;
    }
    FreeStream
    {
        type            fixedValue;
        value           uniform 298;
    }
    FrontNBack
    {
        type            empty;
    }
    LeftSide
    {
        type            symmetryPlane;
    }
    RightSide
    {
        type            symmetryPlane;
    }
    procBoundary2to0
    {
        type            processor;
        value           nonuniform List<scalar> 
75
(
298
298
298
298
298
298
298
298
298
298
298
298
298
298
298
298
298
298
298
298
298
298
298
298
298
298
298
298
298
298
298
298
298
298
298
298
298
298
298
298
298
298
298
298
298
298
298
298
298
298
298
298
298
298
298
298
298
298
298
298
298
298
298
298
298
298
298
298
298
298
298
298
298
298
298
)
;
    }
    procBoundary2to1
    {
        type            processor;
        value           uniform 297.99;
    }
    procBoundary2to3
    {
        type            processor;
        value           uniform 298;
    }
    procBoundary2to4
    {
        type            processor;
        value           nonuniform List<scalar> 
75
(
293.46
294.379
295.296
296.214
297.732
297.734
297.739
297.745
297.753
297.761
297.77
297.781
297.791
297.802
297.814
297.825
297.837
297.848
297.859
297.87
297.88
297.89
297.9
297.909
297.917
297.925
297.932
297.938
297.944
297.95
297.955
297.959
297.963
297.967
297.97
297.973
297.975
297.977
297.979
297.981
297.982
297.984
297.985
297.986
297.987
297.987
297.988
297.989
297.989
297.99
298
298
298
298
298
298
298
298
298
298
298
298
298
298
298
298
298
298
298
298
298
298
298
298
298
)
;
    }
    procBoundary2to5
    {
        type            processor;
        value           nonuniform List<scalar> 
50
(
298
298
298
298
298
298
298
298
298
298
298
298
298
298
298
298
298
298
298
298
298
298
298
298
298
298
298
298
298
298
298
298
298
298
298
298
298
298
298
298
298
298
298
298
298
298
298
298
298
298
)
;
    }
}


// ************************************************************************* //
