/*--------------------------------*- C++ -*----------------------------------*\
| =========                 |                                                 |
| \\      /  F ield         | OpenFOAM: The Open Source CFD Toolbox           |
|  \\    /   O peration     | Version:  2.4.0                                 |
|   \\  /    A nd           | Web:      www.OpenFOAM.org                      |
|    \\/     M anipulation  |                                                 |
\*---------------------------------------------------------------------------*/
FoamFile
{
    version     2.0;
    format      ascii;
    class       volScalarField;
    location    "0.015";
    object      H;
}
// * * * * * * * * * * * * * * * * * * * * * * * * * * * * * * * * * * * * * //

dimensions      [0 2 -2 0 0 0 0];

internalField   nonuniform List<scalar> 
125
(
-10.5757
-9.96235
-9.38221
-8.83389
-8.316
-7.82718
-7.36607
-6.93135
-6.52171
-6.13587
-5.77261
-5.43071
-5.10901
-4.80639
-4.52177
-4.25412
-4.00245
-3.76581
-3.54331
-3.33409
-3.13734
-2.9523
-2.77824
-2.61448
-2.46039
-2.31535
-2.17881
-2.05024
-1.92914
-1.81505
-1.70753
-1.60619
-1.51064
-1.42054
-1.33556
-1.2554
-1.17977
-1.1084
-1.04106
-0.977516
-0.917545
-0.860951
-0.807549
-0.757161
-0.709624
-0.664785
-0.622498
-0.582628
-0.545047
-0.509635
-0.476277
-0.444866
-0.4153
-0.387482
-0.361321
-0.336731
-0.313628
-0.291934
-0.271574
-0.252477
-0.234575
-0.217804
-0.202101
-0.187409
-0.17367
-0.160832
-0.148843
-0.137655
-0.127222
-0.1175
-0.108446
-0.100021
-0.092186
-0.0849059
-0.0781462
-0.0718741
-0.0660589
-0.0606714
-0.0556837
-0.0510698
-0.0468048
-0.0428654
-0.0392294
-0.0358761
-0.0327858
-0.0299402
-0.0273218
-0.0249143
-0.0227025
-0.0206721
-0.0188095
-0.0171024
-0.0155388
-0.0141078
-0.0127992
-0.0116035
-0.0105118
-0.00951574
-0.00860772
-0.00778059
-0.00702772
-0.00634299
-0.00572071
-0.00515562
-0.00464288
-0.00417799
-0.00375682
-0.00337555
-0.00303068
-0.00271897
-0.00243747
-0.00218343
-0.00195436
-0.00174798
-0.00156217
-0.00139503
-0.0012448
-0.00110986
-0.000988775
-0.000880195
-0.000782909
-0.000695814
-0.000617906
-0.000548271
-0.000486082
)
;

boundaryField
{
    BotWall
    {
        type            zeroGradient;
    }
    FreeStream
    {
        type            zeroGradient;
    }
    FrontNBack
    {
        type            empty;
    }
    LeftSide
    {
        type            symmetryPlane;
    }
    RightSide
    {
        type            symmetryPlane;
    }
    procBoundary8to5
    {
        type            processor;
        value           nonuniform List<scalar> 
50
(
-0.0726693
-0.0668031
-0.0613671
-0.0563335
-0.0516761
-0.0473699
-0.0433916
-0.0397189
-0.036331
-0.0332082
-0.0303318
-0.0276846
-0.0252502
-0.0230131
-0.0209589
-0.0190742
-0.0173463
-0.0157634
-0.0143144
-0.0129891
-0.0117778
-0.0106717
-0.00966221
-0.00874179
-0.00790318
-0.0071397
-0.00644518
-0.00581388
-0.00524048
-0.00472009
-0.00424818
-0.00382056
-0.00343339
-0.00308311
-0.00276645
-0.00248042
-0.00222226
-0.00198943
-0.00177962
-0.0015907
-0.00142073
-0.00126792
-0.00113066
-0.00100746
-0.000896968
-0.000797957
-0.000709304
-0.000629991
-0.00055909
-0.000495763
)
;
    }
    procBoundary8to6
    {
        type            processor;
        value           nonuniform List<scalar> 
75
(
-10.6961
-10.079
-9.49487
-8.94228
-8.41994
-7.92653
-7.46076
-7.02133
-6.60698
-6.21648
-5.8486
-5.50218
-5.17608
-4.86918
-4.58044
-4.30882
-4.05336
-3.8131
-3.58716
-3.37469
-3.17487
-2.98694
-2.81018
-2.6439
-2.48746
-2.34024
-2.20167
-2.07123
-1.9484
-1.83273
-1.72375
-1.62108
-1.52431
-1.4331
-1.3471
-1.26602
-1.18955
-1.11742
-1.04939
-0.985209
-0.924668
-0.867556
-0.813682
-0.762867
-0.714941
-0.669747
-0.627136
-0.586971
-0.549118
-0.513457
-0.479869
-0.448246
-0.418483
-0.390483
-0.364152
-0.339403
-0.316151
-0.294316
-0.273825
-0.254603
-0.236583
-0.2197
-0.203892
-0.189098
-0.175264
-0.162334
-0.150258
-0.138987
-0.128475
-0.118677
-0.109551
-0.101058
-0.0931576
-0.0858153
-0.0789964
)
;
    }
    procBoundary8to7
    {
        type            processor;
        value           uniform -0.0004306;
    }
    procBoundary8to9
    {
        type            processor;
        value           uniform -11.2238;
    }
    procBoundary8to10
    {
        type            processor;
        value           nonuniform List<scalar> 
75
(
-0.477605
-0.446118
-0.416481
-0.388599
-0.362377
-0.33773
-0.314574
-0.292831
-0.272424
-0.253283
-0.235339
-0.218527
-0.202787
-0.188058
-0.174284
-0.161413
-0.149393
-0.138175
-0.127712
-0.117962
-0.108882
-0.100431
-0.0925719
-0.0852686
-0.0784866
-0.0721934
-0.0663581
-0.0609513
-0.0559455
-0.0513142
-0.0470328
-0.0430778
-0.0394272
-0.03606
-0.0329566
-0.0300986
-0.0274686
-0.0250503
-0.0228282
-0.0207882
-0.0189167
-0.0172011
-0.0156297
-0.0141915
-0.0128761
-0.0116741
-0.0105765
-0.00957499
-0.00866194
-0.00783015
-0.00707298
-0.00638428
-0.00575834
-0.00518989
-0.00467404
-0.00420631
-0.00378253
-0.00339887
-0.00305181
-0.00273811
-0.00245477
-0.00219907
-0.00196849
-0.00176072
-0.00157366
-0.00140538
-0.00125411
-0.00111824
-0.000996307
-0.000886962
-0.000788986
-0.000701269
-0.0006228
-0.000552661
-0.00049002
)
;
    }
    procBoundary8to11
    {
        type            processor;
        value           nonuniform List<scalar> 
50
(
-10.6287
-10.0137
-9.43172
-8.88146
-8.36156
-7.87066
-7.40745
-6.97061
-6.55885
-6.17092
-5.80558
-5.46166
-5.13799
-4.83347
-4.54702
-4.2776
-4.02425
-3.78601
-3.56199
-3.35134
-3.15324
-2.96693
-2.79169
-2.62683
-2.47171
-2.32572
-2.18831
-2.05892
-1.93708
-1.8223
-1.71416
-1.61225
-1.51618
-1.42561
-1.3402
-1.25964
-1.18366
-1.11197
-1.04434
-0.980532
-0.920323
-0.863515
-0.809917
-0.759352
-0.711655
-0.66667
-0.62425
-0.584258
-0.546566
-0.511052
)
;
    }
}


// ************************************************************************* //
