/*--------------------------------*- C++ -*----------------------------------*\
| =========                 |                                                 |
| \\      /  F ield         | OpenFOAM: The Open Source CFD Toolbox           |
|  \\    /   O peration     | Version:  2.4.0                                 |
|   \\  /    A nd           | Web:      www.OpenFOAM.org                      |
|    \\/     M anipulation  |                                                 |
\*---------------------------------------------------------------------------*/
FoamFile
{
    version     2.0;
    format      ascii;
    class       volScalarField;
    location    "0.01";
    object      alpha1;
}
// * * * * * * * * * * * * * * * * * * * * * * * * * * * * * * * * * * * * * //

dimensions      [0 0 0 0 0 0 0];

internalField   nonuniform List<scalar> 
125
(
1
1
1
0.487725
2.15995e-116
1.3231e-122
7.97349e-129
4.76099e-135
2.62843e-141
1.24996e-147
5.09326e-154
1.82672e-160
5.4381e-167
1.3425e-173
2.78345e-180
5.12573e-187
9.64463e-194
2.12427e-200
5.03918e-207
1.05789e-213
1.70749e-220
1.88193e-227
1.16601e-234
2.28316e-242
0
0
0
0
0
0
0
0
0
0
0
0
0
0
0
0
0
0
0
0
0
0
0
0
0
0
0
0
0
0
0
0
0
0
0
0
0
0
0
0
0
0
0
0
0
0
0
0
0
0
0
0
0
0
0
0
0
0
0
0
0
0
0
0
0
0
0
0
0
0
0
0
0
0
0
0
0
0
0
0
0
0
0
0
0
0
0
0
0
0
0
0
0
0
0
0
0
0
0
0
0
)
;

boundaryField
{
    BotWall
    {
        type            fixedValue;
        value           uniform 1;
    }
    FreeStream
    {
        type            inletOutlet;
        inletValue      uniform 0;
        value           uniform 0;
    }
    FrontNBack
    {
        type            empty;
    }
    LeftSide
    {
        type            symmetryPlane;
    }
    RightSide
    {
        type            symmetryPlane;
    }
    procBoundary9to6
    {
        type            processor;
        value           uniform 0;
    }
    procBoundary9to7
    {
        type            processor;
        value           nonuniform List<scalar> 
75
(
1
1
1
0.497275
2.88969e-118
3.31931e-124
4.52737e-130
6.23355e-136
7.85587e-142
8.76519e-148
8.55107e-154
7.28514e-160
5.40175e-166
3.47729e-172
1.93594e-178
9.2519e-185
3.75324e-191
1.27158e-197
3.51089e-204
7.62876e-211
1.23586e-217
1.36019e-224
8.41489e-232
1.64579e-239
0
0
0
0
0
0
0
0
0
0
0
0
0
0
0
0
0
0
0
0
0
0
0
0
0
0
0
0
0
0
0
0
0
0
0
0
0
0
0
0
0
0
0
0
0
0
0
0
0
0
0
)
;
    }
    procBoundary9to8
    {
        type            processor;
        value           uniform 0;
    }
    procBoundary9to10
    {
        type            processor;
        value           uniform 0;
    }
    procBoundary9to11
    {
        type            processor;
        value           nonuniform List<scalar> 
75
(
1
1
1
0.492005
2.97318e-119
1.76421e-125
1.04859e-131
6.19316e-138
3.37885e-144
1.58597e-150
6.37581e-157
2.25286e-163
6.58404e-170
1.57937e-176
3.07987e-183
4.85214e-190
6.30165e-197
7.57315e-204
1.06553e-210
1.79034e-217
2.71374e-224
2.92582e-231
1.7894e-238
3.47768e-246
0
0
0
0
0
0
0
0
0
0
0
0
0
0
0
0
0
0
0
0
0
0
0
0
0
0
0
0
0
0
0
0
0
0
0
0
0
0
0
0
0
0
0
0
0
0
0
0
0
0
0
)
;
    }
}


// ************************************************************************* //
