/*--------------------------------*- C++ -*----------------------------------*\
| =========                 |                                                 |
| \\      /  F ield         | OpenFOAM: The Open Source CFD Toolbox           |
|  \\    /   O peration     | Version:  2.4.0                                 |
|   \\  /    A nd           | Web:      www.OpenFOAM.org                      |
|    \\/     M anipulation  |                                                 |
\*---------------------------------------------------------------------------*/
FoamFile
{
    version     2.0;
    format      ascii;
    class       volScalarField;
    location    "0.01";
    object      p;
}
// * * * * * * * * * * * * * * * * * * * * * * * * * * * * * * * * * * * * * //

dimensions      [1 -1 -2 0 0 0 0];

internalField   nonuniform List<scalar> 
125
(
0.0468958
-0.043554
0.196114
-1.11169
-0.1427
0.0350501
0.0106842
-0.00791962
-0.0117139
-0.0109708
-0.0104295
-0.0104552
-0.0106486
-0.0108339
-0.010998
-0.0111564
-0.0113157
-0.0114764
-0.011638
-0.0118002
-0.0119629
-0.0121262
-0.0122901
-0.0124546
-0.0126197
-0.0127855
-0.0129518
-0.0131188
-0.0132863
-0.0134545
-0.0136233
-0.0137928
-0.0139628
-0.0141335
-0.0143048
-0.0144767
-0.0146493
-0.0148225
-0.0149963
-0.0151708
-0.0153459
-0.0155217
-0.0156981
-0.0158751
-0.0160529
-0.0162312
-0.0164102
-0.0165899
-0.0167703
-0.0169513
-0.017133
-0.0173153
-0.0174983
-0.017682
-0.0178664
-0.0180514
-0.0182371
-0.0184235
-0.0186106
-0.0187984
-0.0189869
-0.019176
-0.0193659
-0.0195565
-0.0197477
-0.0199397
-0.0201324
-0.0203257
-0.0205198
-0.0207146
-0.0209102
-0.0211064
-0.0213034
-0.0215011
-0.0216995
-0.0708827
-0.0712629
-0.0716445
-0.0720274
-0.0724118
-0.0727976
-0.0731849
-0.0735735
-0.0739636
-0.0743551
-0.0747481
-0.0751425
-0.0755384
-0.0759357
-0.0763345
-0.0767347
-0.0771364
-0.0775396
-0.0779443
-0.0783505
-0.0787582
-0.0791674
-0.079578
-0.0799902
-0.0804039
-0.0808192
-0.0812359
-0.0816542
-0.082074
-0.0824954
-0.0829184
-0.0833428
-0.0837689
-0.0841965
-0.0846257
-0.0850565
-0.0854888
-0.0859228
-0.0863583
-0.0867955
-0.0872342
-0.0876746
-0.0881166
-0.0885602
-0.0890055
-0.0894524
-0.0899009
-0.0903511
-0.090803
-0.0912563
)
;

boundaryField
{
    BotWall
    {
        type            calculated;
        value           uniform 0.0518392;
    }
    FreeStream
    {
        type            calculated;
        value           uniform -0.0914834;
    }
    FrontNBack
    {
        type            empty;
    }
    LeftSide
    {
        type            symmetryPlane;
    }
    RightSide
    {
        type            symmetryPlane;
    }
    procBoundary9to6
    {
        type            processor;
        value           nonuniform List<scalar> 
50
(
-0.0127924
-0.0129587
-0.0131256
-0.0132931
-0.0134612
-0.01363
-0.0137994
-0.0139693
-0.01414
-0.0143112
-0.0144831
-0.0146556
-0.0148287
-0.0150025
-0.015177
-0.015352
-0.0155277
-0.0157041
-0.0158811
-0.0160588
-0.0162371
-0.016416
-0.0165957
-0.016776
-0.0169569
-0.0171386
-0.0173208
-0.0175038
-0.0176874
-0.0178718
-0.0180568
-0.0182424
-0.0184288
-0.0186158
-0.0188036
-0.018992
-0.0191811
-0.0193709
-0.0195614
-0.0197527
-0.0199446
-0.0201372
-0.0203305
-0.0205246
-0.0207193
-0.0209148
-0.021111
-0.0213079
-0.0215056
-0.021704
)
;
    }
    procBoundary9to7
    {
        type            processor;
        value           nonuniform List<scalar> 
75
(
0.0482183
-0.0432774
0.200421
-1.12781
-0.144443
0.0354804
0.0108489
-0.00791442
-0.0117364
-0.0109842
-0.0104369
-0.0104617
-0.0106554
-0.010841
-0.0110051
-0.0111634
-0.0113227
-0.0114835
-0.011645
-0.0118072
-0.0119699
-0.0121332
-0.0122971
-0.0124616
-0.0126267
-0.0708822
-0.0712624
-0.0716439
-0.0720269
-0.0724113
-0.0727971
-0.0731843
-0.073573
-0.0739631
-0.0743546
-0.0747475
-0.075142
-0.0755378
-0.0759351
-0.0763339
-0.0767341
-0.0771359
-0.0775391
-0.0779437
-0.0783499
-0.0787576
-0.0791667
-0.0795774
-0.0799896
-0.0804033
-0.0808185
-0.0812353
-0.0816535
-0.0820734
-0.0824947
-0.0829177
-0.0833421
-0.0837682
-0.0841958
-0.084625
-0.0850557
-0.0854881
-0.085922
-0.0863576
-0.0867947
-0.0872335
-0.0876738
-0.0881158
-0.0885594
-0.0890047
-0.0894516
-0.0899001
-0.0903503
-0.0908021
-0.0912556
)
;
    }
    procBoundary9to8
    {
        type            processor;
        value           uniform -0.0218986;
    }
    procBoundary9to10
    {
        type            processor;
        value           uniform -0.0705039;
    }
    procBoundary9to11
    {
        type            processor;
        value           nonuniform List<scalar> 
75
(
0.0474441
-0.0434603
0.198023
-1.11893
-0.14348
0.0352462
0.0107608
-0.00791469
-0.0117213
-0.0109741
-0.0104302
-0.0104554
-0.010649
-0.0108344
-0.0109984
-0.0111568
-0.0113161
-0.0114768
-0.0116384
-0.0118006
-0.0119633
-0.0121266
-0.0122905
-0.012455
-0.0126201
-0.0127858
-0.0129522
-0.0131191
-0.0132867
-0.0134548
-0.0136236
-0.0137931
-0.0139631
-0.0141338
-0.0143051
-0.014477
-0.0146495
-0.0148227
-0.0149966
-0.015171
-0.0153461
-0.0155219
-0.0156983
-0.0158754
-0.0160531
-0.0162314
-0.0164104
-0.0165901
-0.0167704
-0.0169514
-0.0171331
-0.0173154
-0.0174985
-0.0176821
-0.0178665
-0.0180515
-0.0182372
-0.0184236
-0.0186107
-0.0187985
-0.018987
-0.0191761
-0.019366
-0.0195565
-0.0197478
-0.0199397
-0.0201324
-0.0203258
-0.0205199
-0.0207147
-0.0209102
-0.0211064
-0.0213034
-0.0215011
-0.0216995
)
;
    }
}


// ************************************************************************* //
