/*--------------------------------*- C++ -*----------------------------------*\
| =========                 |                                                 |
| \\      /  F ield         | OpenFOAM: The Open Source CFD Toolbox           |
|  \\    /   O peration     | Version:  2.4.0                                 |
|   \\  /    A nd           | Web:      www.OpenFOAM.org                      |
|    \\/     M anipulation  |                                                 |
\*---------------------------------------------------------------------------*/
FoamFile
{
    version     2.0;
    format      ascii;
    class       surfaceScalarField;
    location    "0.01";
    object      phi;
}
// * * * * * * * * * * * * * * * * * * * * * * * * * * * * * * * * * * * * * //

dimensions      [0 3 -1 0 0 0 0];

internalField   nonuniform List<scalar> 
123
(
-1.47385e-16
-6.79983e-16
-2.99607e-15
-4.20219e-09
-4.20219e-09
-4.2022e-09
-4.2022e-09
-4.20221e-09
-4.20222e-09
-4.20223e-09
-4.20224e-09
-4.20225e-09
-4.20226e-09
-4.20228e-09
-4.2023e-09
-4.20231e-09
-4.20233e-09
-4.20235e-09
-4.20238e-09
-4.2024e-09
-4.20242e-09
-4.20244e-09
-4.20247e-09
-4.20249e-09
-4.20252e-09
-4.20254e-09
-4.20257e-09
-4.2026e-09
-4.20263e-09
-4.20265e-09
-4.20268e-09
-4.20271e-09
-4.20274e-09
-4.20277e-09
-4.2028e-09
-4.20283e-09
-4.20286e-09
-4.20289e-09
-4.20292e-09
-4.20295e-09
-4.20298e-09
-4.20301e-09
-4.20304e-09
-4.20307e-09
-4.2031e-09
-4.20313e-09
-4.20315e-09
-4.20318e-09
-4.20321e-09
-4.20324e-09
-4.20327e-09
-4.2033e-09
-4.20333e-09
-4.20336e-09
-4.20338e-09
-4.20341e-09
-4.20344e-09
-4.20347e-09
-4.20349e-09
-4.20352e-09
-4.20355e-09
-4.20357e-09
-4.2036e-09
-4.20362e-09
-4.20365e-09
-4.20367e-09
-4.2037e-09
-4.20372e-09
-4.20375e-09
-4.20377e-09
-4.2038e-09
-4.20382e-09
-4.20384e-09
-4.20387e-09
-4.2054e-09
-4.2054e-09
-4.20541e-09
-4.20541e-09
-4.20541e-09
-4.20542e-09
-4.20542e-09
-4.20542e-09
-4.20543e-09
-4.20543e-09
-4.20543e-09
-4.20544e-09
-4.20544e-09
-4.20544e-09
-4.20545e-09
-4.20545e-09
-4.20545e-09
-4.20546e-09
-4.20546e-09
-4.20546e-09
-4.20547e-09
-4.20547e-09
-4.20547e-09
-4.20548e-09
-4.20548e-09
-4.20549e-09
-4.20549e-09
-4.20549e-09
-4.2055e-09
-4.2055e-09
-4.2055e-09
-4.20551e-09
-4.20551e-09
-4.20551e-09
-4.20552e-09
-4.20552e-09
-4.20552e-09
-4.20553e-09
-4.20553e-09
-4.20553e-09
-4.20554e-09
-4.20554e-09
-4.20554e-09
-4.20555e-09
-4.20555e-09
-4.20555e-09
-4.20556e-09
-4.20556e-09
-4.20556e-09
)
;

boundaryField
{
    BotWall
    {
        type            calculated;
        value           uniform -3.13965e-22;
    }
    FreeStream
    {
        type            calculated;
        value           uniform -4.20557e-09;
    }
    FrontNBack
    {
        type            empty;
        value           nonuniform 0();
    }
    LeftSide
    {
        type            symmetryPlane;
        value           nonuniform 0();
    }
    RightSide
    {
        type            symmetryPlane;
        value           uniform 0;
    }
    procBoundary9to6
    {
        type            processor;
        value           nonuniform List<scalar> 
50
(
2.55972e-14
2.61072e-14
2.65688e-14
2.69833e-14
2.73523e-14
2.76773e-14
2.79599e-14
2.82017e-14
2.84043e-14
2.85694e-14
2.86987e-14
2.87938e-14
2.88565e-14
2.88883e-14
2.88911e-14
2.88664e-14
2.88159e-14
2.87413e-14
2.86442e-14
2.85261e-14
2.83886e-14
2.82332e-14
2.80613e-14
2.78745e-14
2.76741e-14
2.74613e-14
2.72376e-14
2.70041e-14
2.67619e-14
2.65123e-14
2.62562e-14
2.59947e-14
2.57286e-14
2.5459e-14
2.51865e-14
2.4912e-14
2.46361e-14
2.43595e-14
2.40829e-14
2.38066e-14
2.35313e-14
2.32574e-14
2.29853e-14
2.27152e-14
2.24476e-14
2.21826e-14
2.19206e-14
2.16616e-14
2.14058e-14
2.11534e-14
)
;
    }
    procBoundary9to7
    {
        type            processor;
        value           nonuniform List<scalar> 
75
(
1.63663e-16
5.58241e-16
8.90322e-16
1.87962e-15
2.17212e-15
3.40401e-15
5.1468e-15
6.82476e-15
8.39873e-15
9.89253e-15
1.13229e-14
1.26921e-14
1.39995e-14
1.52447e-14
1.64282e-14
1.75506e-14
1.86127e-14
1.96151e-14
2.05585e-14
2.1444e-14
2.22725e-14
2.30449e-14
2.37623e-14
2.44261e-14
2.50372e-14
3.35423e-15
3.37362e-15
3.39153e-15
3.40798e-15
3.42299e-15
3.43657e-15
3.44876e-15
3.45957e-15
3.46904e-15
3.47721e-15
3.48409e-15
3.48974e-15
3.4942e-15
3.49749e-15
3.49967e-15
3.50079e-15
3.5009e-15
3.50004e-15
3.49829e-15
3.4957e-15
3.49233e-15
3.48827e-15
3.48359e-15
3.47837e-15
3.4727e-15
3.46667e-15
3.46039e-15
3.45396e-15
3.44749e-15
3.44109e-15
3.43489e-15
3.42899e-15
3.42352e-15
3.4186e-15
3.41433e-15
3.41083e-15
3.40821e-15
3.40654e-15
3.40592e-15
3.40642e-15
3.40808e-15
3.41095e-15
3.41504e-15
3.42038e-15
3.42694e-15
3.43469e-15
3.44354e-15
3.4534e-15
3.46444e-15
3.47252e-15
)
;
    }
    procBoundary9to8
    {
        type            processor;
        value           uniform -4.20389e-09;
    }
    procBoundary9to10
    {
        type            processor;
        value           uniform 4.2054e-09;
    }
    procBoundary9to11
    {
        type            processor;
        value           nonuniform List<scalar> 
75
(
-1.62771e-17
-2.56432e-17
-8.44752e-17
1.08087e-16
4.92523e-17
-9.48454e-17
3.82379e-18
8.33171e-17
1.31364e-16
1.68367e-16
2.04169e-16
2.39329e-16
2.7308e-16
3.05217e-16
3.35873e-16
3.65225e-16
3.93419e-16
4.20579e-16
4.46822e-16
4.7226e-16
4.96997e-16
5.21132e-16
5.44757e-16
5.67958e-16
5.90814e-16
6.134e-16
6.35787e-16
6.58037e-16
6.8021e-16
7.02358e-16
7.24531e-16
7.4677e-16
7.69114e-16
7.91595e-16
8.14243e-16
8.37081e-16
8.6013e-16
8.83405e-16
9.06917e-16
9.30676e-16
9.54685e-16
9.78944e-16
1.00345e-15
1.0282e-15
1.05319e-15
1.07839e-15
1.10381e-15
1.12942e-15
1.1552e-15
1.18113e-15
1.20719e-15
1.23335e-15
1.2596e-15
1.28589e-15
1.31221e-15
1.33852e-15
1.3648e-15
1.391e-15
1.41711e-15
1.44308e-15
1.46889e-15
1.4945e-15
1.51989e-15
1.54501e-15
1.56985e-15
1.59436e-15
1.61853e-15
1.64231e-15
1.66568e-15
1.68861e-15
1.71107e-15
1.73305e-15
1.75451e-15
1.77543e-15
1.79579e-15
)
;
    }
}


// ************************************************************************* //
