/*--------------------------------*- C++ -*----------------------------------*\
| =========                 |                                                 |
| \\      /  F ield         | OpenFOAM: The Open Source CFD Toolbox           |
|  \\    /   O peration     | Version:  2.4.0                                 |
|   \\  /    A nd           | Web:      www.OpenFOAM.org                      |
|    \\/     M anipulation  |                                                 |
\*---------------------------------------------------------------------------*/
FoamFile
{
    version     2.0;
    format      ascii;
    class       volScalarField;
    location    "0.3";
    object      H;
}
// * * * * * * * * * * * * * * * * * * * * * * * * * * * * * * * * * * * * * //

dimensions      [0 2 -2 0 0 0 0];

internalField   nonuniform List<scalar> 
500
(
-11371
-11371
-11371
-11371
-11371
-9643.01
-9643
-9643
-9643
-9643.01
-7894.02
-7894.01
-7894.01
-7894.01
-7894.02
-6122.67
-6122.65
-6122.66
-6122.66
-6122.68
-4327.49
-4327.47
-4327.47
-4327.47
-4327.5
-2506.95
-2506.92
-2506.93
-2506.92
-2506.96
-74.6556
-74.6511
-74.6518
-74.6513
-74.6562
-56.2774
-56.274
-56.2745
-56.2742
-56.2778
-57.0273
-57.0239
-57.0244
-57.0241
-57.0278
-57.7191
-57.7157
-57.7162
-57.7159
-57.7196
-58.3514
-58.348
-58.3485
-58.3482
-58.3519
-58.9228
-58.9195
-58.9199
-58.9197
-58.9233
-59.4321
-59.4288
-59.4292
-59.429
-59.4326
-59.8782
-59.8749
-59.8753
-59.8751
-59.8787
-60.2599
-60.2566
-60.2571
-60.2568
-60.2604
-60.5764
-60.5732
-60.5736
-60.5734
-60.577
-60.827
-60.8237
-60.8241
-60.8239
-60.8275
-61.0108
-61.0076
-61.008
-61.0078
-61.0113
-61.1274
-61.1243
-61.1246
-61.1245
-61.1279
-61.1764
-61.1733
-61.1737
-61.1735
-61.1769
-61.1576
-61.1546
-61.1549
-61.1548
-61.1581
-61.0709
-61.0679
-61.0683
-61.0681
-61.0715
-60.9164
-60.9135
-60.9138
-60.9137
-60.917
-60.6944
-60.6915
-60.6918
-60.6918
-60.6949
-60.4053
-60.4025
-60.4028
-60.4027
-60.4058
-60.0497
-60.0469
-60.0472
-60.0471
-60.0502
-59.6283
-59.6256
-59.6259
-59.6258
-59.6288
-59.1422
-59.1396
-59.1399
-59.1398
-59.1427
-58.5926
-58.59
-58.5903
-58.5902
-58.5931
-57.9807
-57.9782
-57.9784
-57.9784
-57.9811
-57.308
-57.3056
-57.3059
-57.3058
-57.3085
-56.5764
-56.5741
-56.5743
-56.5743
-56.5768
-55.7876
-55.7854
-55.7856
-55.7856
-55.788
-54.9437
-54.9416
-54.9418
-54.9418
-54.9442
-54.047
-54.045
-54.0451
-54.0452
-54.0474
-53.0999
-53.0979
-53.0981
-53.0981
-53.1003
-52.1048
-52.1029
-52.1031
-52.1031
-52.1052
-51.0646
-51.0628
-51.0629
-51.0629
-51.065
-49.982
-49.9803
-49.9804
-49.9804
-49.9824
-48.86
-48.8584
-48.8585
-48.8586
-48.8604
-47.7018
-47.7003
-47.7004
-47.7004
-47.7022
-46.5105
-46.5091
-46.5092
-46.5093
-46.5109
-45.2895
-45.2881
-45.2882
-45.2883
-45.2898
-44.0421
-44.0408
-44.0409
-44.0409
-44.0424
-42.7717
-42.7705
-42.7706
-42.7706
-42.772
-41.4818
-41.4807
-41.4808
-41.4809
-41.4821
-40.176
-40.175
-40.1751
-40.1752
-40.1763
-38.8578
-38.8569
-38.857
-38.857
-38.8581
-37.5308
-37.5299
-37.5299
-37.53
-37.531
-36.1983
-36.1975
-36.1976
-36.1976
-36.1986
-34.8639
-34.8632
-34.8633
-34.8633
-34.8642
-33.5311
-33.5304
-33.5305
-33.5305
-33.5313
-32.2031
-32.2024
-32.2025
-32.2026
-32.2033
-30.8831
-30.8826
-30.8826
-30.8827
-30.8833
-29.5744
-29.5739
-29.5739
-29.574
-29.5746
-28.2798
-28.2794
-28.2794
-28.2795
-28.28
-27.0024
-27.002
-27.002
-27.0021
-27.0026
-25.7447
-25.7444
-25.7444
-25.7445
-25.7449
-24.5094
-24.5091
-24.5091
-24.5092
-24.5095
-23.2987
-23.2985
-23.2985
-23.2986
-23.2989
-22.1149
-22.1147
-22.1147
-22.1148
-22.1151
-20.96
-20.9598
-20.9598
-20.9599
-20.9601
-19.8356
-19.8355
-19.8355
-19.8356
-19.8358
-18.7434
-18.7433
-18.7433
-18.7434
-18.7436
-17.6847
-17.6847
-17.6847
-17.6847
-17.6849
-16.6607
-16.6606
-16.6606
-16.6607
-16.6608
-15.6721
-15.6721
-15.6721
-15.6722
-15.6723
-14.7198
-14.7198
-14.7198
-14.7199
-14.7199
-13.8042
-13.8042
-13.8042
-13.8043
-13.8044
-12.9257
-12.9257
-12.9257
-12.9257
-12.9258
-12.0842
-12.0842
-12.0842
-12.0843
-12.0843
-11.2797
-11.2797
-11.2797
-11.2798
-11.2798
-10.5119
-10.5119
-10.5119
-10.512
-10.512
-9.78042
-9.78045
-9.78043
-9.78051
-9.78051
-9.08461
-9.08465
-9.08463
-9.0847
-9.0847
-8.42376
-8.42379
-8.42377
-8.42385
-8.42384
-7.797
-7.79704
-7.79702
-7.79709
-7.79708
-7.20338
-7.20341
-7.20339
-7.20346
-7.20345
-6.64183
-6.64186
-6.64184
-6.64191
-6.6419
-6.11121
-6.11124
-6.11122
-6.11129
-6.11127
-5.61032
-5.61035
-5.61033
-5.61039
-5.61038
-5.13791
-5.13794
-5.13792
-5.13798
-5.13797
-4.69269
-4.69271
-4.69269
-4.69275
-4.69274
-4.27334
-4.27337
-4.27335
-4.2734
-4.2734
-3.87856
-3.87858
-3.87856
-3.87862
-3.87861
-3.50702
-3.50704
-3.50702
-3.50707
-3.50707
-3.15743
-3.15744
-3.15743
-3.15747
-3.15747
-2.82849
-2.82851
-2.82849
-2.82853
-2.82853
-2.51897
-2.51898
-2.51897
-2.51901
-2.51901
-2.22765
-2.22766
-2.22765
-2.22769
-2.22769
-1.95337
-1.95338
-1.95337
-1.9534
-1.9534
-1.695
-1.695
-1.69499
-1.69502
-1.69502
-1.45146
-1.45147
-1.45146
-1.45149
-1.45149
-1.22176
-1.22176
-1.22175
-1.22177
-1.22178
-1.0049
-1.0049
-1.0049
-1.00491
-1.00492
-0.799982
-0.799984
-0.799979
-0.799993
-0.799997
-0.606136
-0.606137
-0.606133
-0.606145
-0.606148
-0.422542
-0.422543
-0.42254
-0.422548
-0.42255
-0.248424
-0.248425
-0.248423
-0.248428
-0.248429
-0.0830474
-0.0830475
-0.083047
-0.0830486
-0.083049
)
;

boundaryField
{
    BotWall
    {
        type            zeroGradient;
    }
    FreeStream
    {
        type            zeroGradient;
    }
    FrontNBack
    {
        type            empty;
    }
    LeftSide
    {
        type            symmetryPlane;
    }
    RightSide
    {
        type            symmetryPlane;
    }
}


// ************************************************************************* //
