/*--------------------------------*- C++ -*----------------------------------*\
| =========                 |                                                 |
| \\      /  F ield         | OpenFOAM: The Open Source CFD Toolbox           |
|  \\    /   O peration     | Version:  2.4.0                                 |
|   \\  /    A nd           | Web:      www.OpenFOAM.org                      |
|    \\/     M anipulation  |                                                 |
\*---------------------------------------------------------------------------*/
FoamFile
{
    version     2.0;
    format      ascii;
    class       volScalarField;
    location    "0.3";
    object      p;
}
// * * * * * * * * * * * * * * * * * * * * * * * * * * * * * * * * * * * * * //

dimensions      [1 -1 -2 0 0 0 0];

internalField   nonuniform List<scalar> 
500
(
0.097253
0.0972407
0.0972406
0.0972408
0.0972527
0.215587
0.215658
0.215657
0.215658
0.215586
0.71375
0.713932
0.713928
0.713931
0.713746
1.24991
1.24994
1.24993
1.24993
1.2499
-1.69149
-1.69231
-1.6923
-1.69231
-1.69149
-14.8351
-14.8369
-14.8368
-14.8369
-14.8351
-30.0213
-30.022
-30.0218
-30.0219
-30.0211
-0.0222756
-0.022275
-0.022275
-0.022275
-0.0222756
0.00120485
0.00120431
0.00120431
0.00120431
0.00120486
-0.00302973
-0.00302963
-0.00302963
-0.00302963
-0.00302973
-0.00548396
-0.00548386
-0.00548386
-0.00548386
-0.00548396
-0.00629808
-0.00629807
-0.00629808
-0.00629807
-0.00629808
-0.00672392
-0.00672395
-0.00672395
-0.00672395
-0.00672393
-0.00721581
-0.00721582
-0.00721582
-0.00721582
-0.00721581
-0.00777667
-0.00777667
-0.00777667
-0.00777667
-0.00777667
-0.00835828
-0.00835828
-0.00835829
-0.00835828
-0.00835829
-0.00894394
-0.00894394
-0.00894394
-0.00894394
-0.00894394
-0.00953363
-0.00953363
-0.00953363
-0.00953363
-0.00953363
-0.0101293
-0.0101294
-0.0101294
-0.0101294
-0.0101293
-0.0107318
-0.0107318
-0.0107318
-0.0107318
-0.0107318
-0.0113411
-0.0113411
-0.0113411
-0.0113411
-0.0113411
-0.0119572
-0.0119572
-0.0119572
-0.0119572
-0.0119572
-0.0125802
-0.0125802
-0.0125802
-0.0125802
-0.0125802
-0.0132101
-0.0132101
-0.0132101
-0.0132101
-0.0132101
-0.0138471
-0.0138471
-0.0138471
-0.0138471
-0.0138471
-0.0144911
-0.0144911
-0.0144911
-0.0144911
-0.0144911
-0.0151424
-0.0151424
-0.0151424
-0.0151424
-0.0151424
-0.0158009
-0.0158009
-0.0158009
-0.0158009
-0.0158009
-0.0164668
-0.0164668
-0.0164668
-0.0164668
-0.0164668
-0.01714
-0.01714
-0.01714
-0.01714
-0.01714
-0.0178209
-0.0178209
-0.0178209
-0.0178209
-0.0178209
-0.0185093
-0.0185093
-0.0185093
-0.0185093
-0.0185093
-0.0192053
-0.0192053
-0.0192053
-0.0192053
-0.0192053
-0.0199092
-0.0199092
-0.0199092
-0.0199092
-0.0199092
-0.0206209
-0.0206209
-0.0206209
-0.0206209
-0.0206209
-0.0213406
-0.0213406
-0.0213406
-0.0213406
-0.0213406
-0.0220682
-0.0220682
-0.0220682
-0.0220682
-0.0220682
-0.022804
-0.022804
-0.022804
-0.022804
-0.022804
-0.023548
-0.0235481
-0.0235481
-0.0235481
-0.023548
-0.0243004
-0.0243004
-0.0243004
-0.0243004
-0.0243004
-0.0250611
-0.0250611
-0.0250611
-0.0250611
-0.0250611
-0.0258303
-0.0258303
-0.0258303
-0.0258303
-0.0258303
-0.026608
-0.0266081
-0.0266081
-0.0266081
-0.026608
-0.0273945
-0.0273945
-0.0273945
-0.0273945
-0.0273945
-0.0281897
-0.0281897
-0.0281897
-0.0281897
-0.0281897
-0.0289939
-0.0289939
-0.0289939
-0.0289939
-0.0289939
-0.0298069
-0.0298069
-0.0298069
-0.0298069
-0.0298069
-0.0306291
-0.0306291
-0.0306291
-0.0306291
-0.0306291
-0.0314604
-0.0314604
-0.0314604
-0.0314604
-0.0314604
-0.032301
-0.032301
-0.032301
-0.032301
-0.032301
-0.033151
-0.033151
-0.033151
-0.033151
-0.033151
-0.0340105
-0.0340105
-0.0340105
-0.0340105
-0.0340105
-0.0348796
-0.0348796
-0.0348796
-0.0348796
-0.0348796
-0.0357583
-0.0357583
-0.0357583
-0.0357583
-0.0357583
-0.0366469
-0.0366469
-0.0366469
-0.0366469
-0.0366469
-0.0375454
-0.0375454
-0.0375454
-0.0375454
-0.0375454
-0.0384539
-0.0384539
-0.0384539
-0.0384539
-0.0384539
-0.0393725
-0.0393725
-0.0393725
-0.0393725
-0.0393725
-0.0403014
-0.0403014
-0.0403014
-0.0403014
-0.0403014
-0.0412407
-0.0412407
-0.0412407
-0.0412407
-0.0412407
-0.0421904
-0.0421904
-0.0421904
-0.0421904
-0.0421904
-0.0431508
-0.0431508
-0.0431508
-0.0431508
-0.0431508
-0.0441218
-0.0441218
-0.0441218
-0.0441218
-0.0441218
-0.0451037
-0.0451037
-0.0451037
-0.0451037
-0.0451037
-0.0460966
-0.0460966
-0.0460966
-0.0460966
-0.0460966
-0.0471005
-0.0471005
-0.0471005
-0.0471005
-0.0471005
-0.0481156
-0.0481156
-0.0481156
-0.0481156
-0.0481156
-0.0491421
-0.0491421
-0.0491421
-0.0491421
-0.0491421
-0.05018
-0.05018
-0.05018
-0.05018
-0.05018
-0.0512295
-0.0512295
-0.0512295
-0.0512295
-0.0512295
-0.0522907
-0.0522907
-0.0522907
-0.0522907
-0.0522907
-0.0533638
-0.0533638
-0.0533638
-0.0533638
-0.0533638
-0.0544488
-0.0544488
-0.0544488
-0.0544488
-0.0544488
-0.0555459
-0.0555459
-0.0555459
-0.0555459
-0.0555459
-0.0566553
-0.0566553
-0.0566553
-0.0566553
-0.0566553
-0.057777
-0.057777
-0.057777
-0.057777
-0.057777
-0.0589113
-0.0589113
-0.0589113
-0.0589113
-0.0589113
-0.0600582
-0.0600582
-0.0600582
-0.0600582
-0.0600582
-0.061218
-0.061218
-0.061218
-0.061218
-0.061218
-0.0623906
-0.0623906
-0.0623906
-0.0623906
-0.0623906
-0.0635764
-0.0635764
-0.0635764
-0.0635764
-0.0635764
-0.0647754
-0.0647754
-0.0647754
-0.0647754
-0.0647754
-0.0659877
-0.0659877
-0.0659877
-0.0659877
-0.0659877
-0.0672136
-0.0672136
-0.0672136
-0.0672136
-0.0672136
-0.0684532
-0.0684532
-0.0684532
-0.0684532
-0.0684532
-0.0697066
-0.0697066
-0.0697066
-0.0697066
-0.0697066
-0.070974
-0.070974
-0.070974
-0.070974
-0.070974
-0.0722555
-0.0722555
-0.0722555
-0.0722555
-0.0722555
-0.0735514
-0.0735514
-0.0735514
-0.0735514
-0.0735514
-0.0748617
-0.0748617
-0.0748617
-0.0748617
-0.0748617
-0.0761866
-0.0761866
-0.0761866
-0.0761866
-0.0761866
-0.0775263
-0.0775263
-0.0775263
-0.0775263
-0.0775263
-0.0788809
-0.0788809
-0.0788809
-0.0788809
-0.0788809
-0.0802507
-0.0802507
-0.0802507
-0.0802507
-0.0802507
-0.0816358
-0.0816358
-0.0816358
-0.0816358
-0.0816358
-0.0830363
-0.0830363
-0.0830363
-0.0830363
-0.0830363
-0.0844524
-0.0844524
-0.0844524
-0.0844524
-0.0844524
-0.0858844
-0.0858844
-0.0858844
-0.0858844
-0.0858844
-0.0873323
-0.0873323
-0.0873323
-0.0873323
-0.0873323
-0.0887963
-0.0887963
-0.0887963
-0.0887963
-0.0887963
)
;

boundaryField
{
    BotWall
    {
        type            calculated;
        value           nonuniform List<scalar> 5(0.112073 0.112061 0.112061 0.112061 0.112073);
    }
    FreeStream
    {
        type            calculated;
        value           nonuniform List<scalar> 5(-0.0895324 -0.0895324 -0.0895324 -0.0895324 -0.0895324);
    }
    FrontNBack
    {
        type            empty;
    }
    LeftSide
    {
        type            symmetryPlane;
    }
    RightSide
    {
        type            symmetryPlane;
    }
}


// ************************************************************************* //
