/*--------------------------------*- C++ -*----------------------------------*\
| =========                 |                                                 |
| \\      /  F ield         | OpenFOAM: The Open Source CFD Toolbox           |
|  \\    /   O peration     | Version:  2.4.0                                 |
|   \\  /    A nd           | Web:      www.OpenFOAM.org                      |
|    \\/     M anipulation  |                                                 |
\*---------------------------------------------------------------------------*/
FoamFile
{
    version     2.0;
    format      ascii;
    class       volScalarField;
    location    "0.3";
    object      p_rgh;
}
// * * * * * * * * * * * * * * * * * * * * * * * * * * * * * * * * * * * * * //

dimensions      [1 -1 -2 0 0 0 0];

internalField   nonuniform List<scalar> 
500
(
0.112073
0.112061
0.112061
0.112061
0.112073
0.260213
0.260285
0.260284
0.260285
0.260212
0.788515
0.788697
0.788693
0.788696
0.788511
1.35515
1.35518
1.35517
1.35517
1.35514
-1.55544
-1.55625
-1.55625
-1.55625
-1.55543
-14.6679
-14.6697
-14.6696
-14.6696
-14.6678
-29.9391
-29.9398
-29.9396
-29.9397
-29.9389
-0.0184563
-0.0184558
-0.0184558
-0.0184558
-0.0184563
0.00555767
0.00555712
0.00555713
0.00555713
0.00555767
0.00186262
0.00186273
0.00186272
0.00186273
0.00186262
-4.6059e-05
-4.59514e-05
-4.59536e-05
-4.59524e-05
-4.60609e-05
-0.000308533
-0.00030853
-0.000308532
-0.00030853
-0.000308534
-0.000176584
-0.000176606
-0.000176608
-0.000176607
-0.000176585
-0.000104448
-0.000104458
-0.00010446
-0.000104459
-0.000104449
-9.49952e-05
-9.4996e-05
-9.49978e-05
-9.49968e-05
-9.49964e-05
-9.99292e-05
-9.9929e-05
-9.99307e-05
-9.99297e-05
-9.99304e-05
-0.000102467
-0.000102468
-0.000102469
-0.000102468
-0.000102468
-0.000102541
-0.000102543
-0.000102545
-0.000102543
-0.000102542
-0.000102059
-0.000102061
-0.000102063
-0.000102061
-0.00010206
-0.000101671
-0.000101673
-0.000101674
-0.000101673
-0.000101672
-0.000101376
-0.000101378
-0.00010138
-0.000101379
-0.000101377
-0.0001011
-0.000101101
-0.000101103
-0.000101102
-0.000101101
-0.000100816
-0.000100818
-0.00010082
-0.000100819
-0.000100817
-0.000100526
-0.000100527
-0.000100529
-0.000100528
-0.000100527
-0.000100231
-0.000100233
-0.000100235
-0.000100233
-0.000100232
-9.99331e-05
-9.99349e-05
-9.99368e-05
-9.99355e-05
-9.9934e-05
-9.96321e-05
-9.96339e-05
-9.96358e-05
-9.96345e-05
-9.9633e-05
-9.93278e-05
-9.93296e-05
-9.93315e-05
-9.93302e-05
-9.93286e-05
-9.90201e-05
-9.90219e-05
-9.90238e-05
-9.90224e-05
-9.90208e-05
-9.87089e-05
-9.87107e-05
-9.87127e-05
-9.87112e-05
-9.87096e-05
-9.83942e-05
-9.83961e-05
-9.8398e-05
-9.83966e-05
-9.83949e-05
-9.80761e-05
-9.80779e-05
-9.80799e-05
-9.80784e-05
-9.80767e-05
-9.77543e-05
-9.77562e-05
-9.77582e-05
-9.77567e-05
-9.7755e-05
-9.7429e-05
-9.74309e-05
-9.74328e-05
-9.74313e-05
-9.74296e-05
-9.71e-05
-9.71019e-05
-9.71039e-05
-9.71024e-05
-9.71006e-05
-9.67674e-05
-9.67693e-05
-9.67713e-05
-9.67697e-05
-9.67679e-05
-9.6431e-05
-9.6433e-05
-9.64349e-05
-9.64333e-05
-9.64315e-05
-9.60909e-05
-9.60929e-05
-9.60948e-05
-9.60932e-05
-9.60914e-05
-9.5747e-05
-9.57489e-05
-9.57509e-05
-9.57493e-05
-9.57475e-05
-9.53993e-05
-9.54012e-05
-9.54031e-05
-9.54015e-05
-9.53997e-05
-9.50476e-05
-9.50496e-05
-9.50514e-05
-9.50499e-05
-9.5048e-05
-9.4692e-05
-9.4694e-05
-9.46959e-05
-9.46943e-05
-9.46924e-05
-9.43325e-05
-9.43344e-05
-9.43363e-05
-9.43347e-05
-9.43328e-05
-9.39689e-05
-9.39709e-05
-9.39727e-05
-9.39711e-05
-9.39692e-05
-9.36013e-05
-9.36033e-05
-9.36051e-05
-9.36035e-05
-9.36016e-05
-9.32296e-05
-9.32315e-05
-9.32333e-05
-9.32317e-05
-9.32298e-05
-9.28537e-05
-9.28556e-05
-9.28574e-05
-9.28558e-05
-9.28539e-05
-9.24737e-05
-9.24756e-05
-9.24773e-05
-9.24757e-05
-9.24738e-05
-9.20894e-05
-9.20912e-05
-9.2093e-05
-9.20914e-05
-9.20895e-05
-9.17007e-05
-9.17026e-05
-9.17043e-05
-9.17027e-05
-9.17008e-05
-9.13078e-05
-9.13096e-05
-9.13113e-05
-9.13097e-05
-9.13079e-05
-9.09105e-05
-9.09123e-05
-9.09139e-05
-9.09124e-05
-9.09105e-05
-9.05087e-05
-9.05105e-05
-9.05121e-05
-9.05106e-05
-9.05087e-05
-9.01024e-05
-9.01042e-05
-9.01058e-05
-9.01043e-05
-9.01024e-05
-8.96917e-05
-8.96934e-05
-8.9695e-05
-8.96934e-05
-8.96916e-05
-8.92763e-05
-8.9278e-05
-8.92795e-05
-8.9278e-05
-8.92762e-05
-8.88563e-05
-8.8858e-05
-8.88595e-05
-8.88579e-05
-8.88561e-05
-8.84316e-05
-8.84332e-05
-8.84347e-05
-8.84332e-05
-8.84314e-05
-8.80021e-05
-8.80038e-05
-8.80052e-05
-8.80037e-05
-8.80019e-05
-8.75679e-05
-8.75695e-05
-8.75709e-05
-8.75694e-05
-8.75677e-05
-8.71288e-05
-8.71304e-05
-8.71317e-05
-8.71303e-05
-8.71285e-05
-8.66849e-05
-8.66864e-05
-8.66877e-05
-8.66862e-05
-8.66845e-05
-8.62359e-05
-8.62374e-05
-8.62387e-05
-8.62372e-05
-8.62356e-05
-8.5782e-05
-8.57834e-05
-8.57847e-05
-8.57832e-05
-8.57816e-05
-8.5323e-05
-8.53244e-05
-8.53256e-05
-8.53242e-05
-8.53225e-05
-8.48588e-05
-8.48602e-05
-8.48614e-05
-8.486e-05
-8.48584e-05
-8.43895e-05
-8.43909e-05
-8.4392e-05
-8.43906e-05
-8.4389e-05
-8.3915e-05
-8.39163e-05
-8.39173e-05
-8.3916e-05
-8.39145e-05
-8.34352e-05
-8.34364e-05
-8.34374e-05
-8.34361e-05
-8.34346e-05
-8.295e-05
-8.29512e-05
-8.29521e-05
-8.29508e-05
-8.29494e-05
-8.24594e-05
-8.24605e-05
-8.24614e-05
-8.24602e-05
-8.24587e-05
-8.19633e-05
-8.19644e-05
-8.19653e-05
-8.1964e-05
-8.19626e-05
-8.14617e-05
-8.14627e-05
-8.14635e-05
-8.14623e-05
-8.1461e-05
-8.09545e-05
-8.09555e-05
-8.09562e-05
-8.09551e-05
-8.09537e-05
-8.04416e-05
-8.04426e-05
-8.04433e-05
-8.04421e-05
-8.04408e-05
-7.9923e-05
-7.99239e-05
-7.99246e-05
-7.99235e-05
-7.99222e-05
-7.93987e-05
-7.93995e-05
-7.94001e-05
-7.9399e-05
-7.93978e-05
-7.88685e-05
-7.88692e-05
-7.88698e-05
-7.88687e-05
-7.88675e-05
-7.83323e-05
-7.83331e-05
-7.83336e-05
-7.83325e-05
-7.83314e-05
-7.77902e-05
-7.77909e-05
-7.77914e-05
-7.77903e-05
-7.77892e-05
-7.72421e-05
-7.72427e-05
-7.72431e-05
-7.72421e-05
-7.7241e-05
-7.66878e-05
-7.66884e-05
-7.66887e-05
-7.66878e-05
-7.66867e-05
-7.61274e-05
-7.61279e-05
-7.61282e-05
-7.61272e-05
-7.61263e-05
-7.55607e-05
-7.55611e-05
-7.55614e-05
-7.55605e-05
-7.55595e-05
-7.49877e-05
-7.49881e-05
-7.49883e-05
-7.49874e-05
-7.49865e-05
-7.44083e-05
-7.44086e-05
-7.44087e-05
-7.44079e-05
-7.4407e-05
-7.38224e-05
-7.38227e-05
-7.38228e-05
-7.38219e-05
-7.38211e-05
-7.323e-05
-7.32303e-05
-7.32303e-05
-7.32295e-05
-7.32287e-05
-7.26311e-05
-7.26312e-05
-7.26312e-05
-7.26304e-05
-7.26297e-05
-7.20254e-05
-7.20255e-05
-7.20254e-05
-7.20246e-05
-7.2024e-05
-7.1413e-05
-7.1413e-05
-7.14128e-05
-7.14121e-05
-7.14115e-05
-7.07937e-05
-7.07937e-05
-7.07935e-05
-7.07928e-05
-7.07922e-05
-7.01676e-05
-7.01675e-05
-7.01672e-05
-7.01665e-05
-7.0166e-05
-6.95345e-05
-6.95343e-05
-6.9534e-05
-6.95333e-05
-6.95328e-05
-6.88943e-05
-6.88941e-05
-6.88937e-05
-6.8893e-05
-6.88926e-05
-6.8247e-05
-6.82467e-05
-6.82462e-05
-6.82456e-05
-6.82452e-05
-6.75925e-05
-6.75921e-05
-6.75916e-05
-6.7591e-05
-6.75907e-05
-6.69308e-05
-6.69303e-05
-6.69297e-05
-6.69292e-05
-6.69289e-05
-6.62614e-05
-6.62609e-05
-6.62602e-05
-6.62597e-05
-6.62595e-05
-6.5583e-05
-6.55828e-05
-6.55823e-05
-6.55817e-05
-6.55813e-05
)
;

boundaryField
{
    BotWall
    {
        type            fixedFluxPressure;
        gradient        uniform 0;
        value           nonuniform List<scalar> 5(0.112073 0.112061 0.112061 0.112061 0.112073);
    }
    FreeStream
    {
        type            totalPressure;
        rho             rho;
        psi             none;
        gamma           1;
        p0              uniform 0;
        value           nonuniform List<scalar> 5(-6.52413e-05 -6.52414e-05 -6.52412e-05 -6.52405e-05 -6.52398e-05);
    }
    FrontNBack
    {
        type            empty;
    }
    LeftSide
    {
        type            symmetryPlane;
    }
    RightSide
    {
        type            symmetryPlane;
    }
}


// ************************************************************************* //
