/*--------------------------------*- C++ -*----------------------------------*\
| =========                 |                                                 |
| \\      /  F ield         | OpenFOAM: The Open Source CFD Toolbox           |
|  \\    /   O peration     | Version:  2.4.0                                 |
|   \\  /    A nd           | Web:      www.OpenFOAM.org                      |
|    \\/     M anipulation  |                                                 |
\*---------------------------------------------------------------------------*/
FoamFile
{
    version     2.0;
    format      ascii;
    class       surfaceScalarField;
    location    "0.3";
    object      phi;
}
// * * * * * * * * * * * * * * * * * * * * * * * * * * * * * * * * * * * * * //

dimensions      [0 3 -1 0 0 0 0];

internalField   nonuniform List<scalar> 
895
(
1.22066e-18
-1.22067e-18
5.5386e-19
6.66824e-19
-6.55814e-19
1.20953e-18
-1.32474e-18
6.68804e-19
-1.32472e-18
3.67549e-18
-4.89562e-18
1.70014e-18
2.64302e-18
-2.01052e-18
4.92133e-18
-3.99271e-18
2.65187e-18
-5.31683e-18
6.22372e-18
-1.11188e-17
2.90352e-18
5.96404e-18
-3.42978e-18
1.12557e-17
-6.76134e-18
5.98421e-18
-1.20777e-17
9.05937e-18
-2.01777e-17
4.15169e-18
1.08724e-17
-4.90251e-18
2.03107e-17
-9.82598e-18
1.09082e-17
-2.19033e-17
1.2297e-17
-3.24744e-17
5.30248e-18
1.78673e-17
-6.28848e-18
3.19021e-17
-1.33083e-17
1.79284e-17
-3.52115e-17
1.54875e-17
-1.16007e-16
6.18539e-18
2.71702e-17
-7.41058e-18
4.54985e-17
-1.67734e-17
2.72921e-17
-1.2574e-16
1.72925e-17
-7.56504e-10
6.83274e-18
-7.56506e-10
-8.31137e-18
-7.56506e-10
-1.89567e-17
-7.56506e-10
-7.56504e-10
1.80305e-17
-7.56504e-10
8.16284e-18
-7.56506e-10
-9.75947e-18
-7.56506e-10
-1.96734e-17
-7.56506e-10
-7.56504e-10
2.38598e-17
-7.56504e-10
7.3443e-18
-7.56506e-10
-3.50199e-18
-7.56506e-10
-2.22351e-17
-7.56506e-10
-7.56504e-10
1.12105e-17
-7.56504e-10
7.7016e-18
-7.56506e-10
1.6493e-18
-7.56506e-10
-6.16904e-18
-7.56506e-10
-7.56504e-10
6.50256e-18
-7.56504e-10
6.51762e-18
-7.56506e-10
8.34841e-18
-7.56506e-10
1.93124e-18
-7.56506e-10
-7.56504e-10
4.21458e-18
-7.56504e-10
5.48858e-18
-7.56506e-10
1.48876e-17
-7.56506e-10
7.59682e-18
-7.56506e-10
-7.56504e-10
1.33396e-18
-7.56504e-10
4.88325e-18
-7.56506e-10
2.09947e-17
-7.56506e-10
1.38487e-17
-7.56506e-10
-7.56504e-10
-2.04828e-18
-7.56504e-10
4.42066e-18
-7.56506e-10
2.69486e-17
-7.56506e-10
2.05962e-17
-7.56506e-10
-7.56504e-10
-5.32273e-18
-7.56504e-10
3.99895e-18
-7.56506e-10
3.28474e-17
-7.56506e-10
2.7227e-17
-7.56506e-10
-7.56504e-10
-8.31917e-18
-7.56504e-10
3.64916e-18
-7.56506e-10
3.86558e-17
-7.56506e-10
3.35679e-17
-7.56506e-10
-7.56504e-10
-1.10859e-17
-7.56504e-10
3.40384e-18
-7.56506e-10
4.43369e-17
-7.56506e-10
3.96646e-17
-7.56506e-10
-7.56503e-10
-1.3667e-17
-7.56504e-10
3.26978e-18
-7.56506e-10
4.98794e-17
-7.56506e-10
4.55585e-17
-7.56506e-10
-7.56503e-10
-1.60684e-17
-7.56504e-10
3.24426e-18
-7.56506e-10
5.52819e-17
-7.56506e-10
5.1253e-17
-7.56506e-10
-7.56503e-10
-1.82832e-17
-7.56504e-10
3.32544e-18
-7.56506e-10
6.05415e-17
-7.56506e-10
5.67384e-17
-7.56506e-10
-7.56503e-10
-2.03065e-17
-7.56504e-10
3.51333e-18
-7.56506e-10
6.56539e-17
-7.56506e-10
6.20072e-17
-7.56506e-10
-7.56503e-10
-2.21359e-17
-7.56504e-10
3.80834e-18
-7.56506e-10
7.0614e-17
-7.56506e-10
6.70544e-17
-7.56506e-10
-7.56503e-10
-2.37704e-17
-7.56504e-10
4.2106e-18
-7.56506e-10
7.54173e-17
-7.56506e-10
7.1876e-17
-7.56506e-10
-7.56503e-10
-2.52089e-17
-7.56504e-10
4.71996e-18
-7.56506e-10
8.00591e-17
-7.56506e-10
7.64683e-17
-7.56506e-10
-7.56503e-10
-2.64503e-17
-7.56504e-10
5.33604e-18
-7.56506e-10
8.45354e-17
-7.56506e-10
8.08274e-17
-7.56506e-10
-7.56503e-10
-2.7494e-17
-7.56504e-10
6.05831e-18
-7.56506e-10
8.8842e-17
-7.56506e-10
8.49501e-17
-7.56506e-10
-7.56503e-10
-2.83396e-17
-7.56504e-10
6.88605e-18
-7.56506e-10
9.29751e-17
-7.56507e-10
8.88331e-17
-7.56506e-10
-7.56503e-10
-2.89871e-17
-7.56504e-10
7.81835e-18
-7.56506e-10
9.69308e-17
-7.56507e-10
9.24737e-17
-7.56506e-10
-7.56503e-10
-2.94367e-17
-7.56504e-10
8.85414e-18
-7.56506e-10
1.00706e-16
-7.56507e-10
9.58694e-17
-7.56506e-10
-7.56503e-10
-2.96891e-17
-7.56504e-10
9.99213e-18
-7.56506e-10
1.04297e-16
-7.56507e-10
9.9018e-17
-7.56506e-10
-7.56502e-10
-2.9745e-17
-7.56504e-10
1.12308e-17
-7.56506e-10
1.07701e-16
-7.56507e-10
1.01918e-16
-7.56506e-10
-7.56502e-10
-2.96059e-17
-7.56504e-10
1.25686e-17
-7.56507e-10
1.10914e-16
-7.56507e-10
1.04567e-16
-7.56506e-10
-7.56502e-10
-2.92733e-17
-7.56503e-10
1.40035e-17
-7.56507e-10
1.13936e-16
-7.56507e-10
1.06966e-16
-7.56506e-10
-7.56502e-10
-2.8749e-17
-7.56503e-10
1.55336e-17
-7.56507e-10
1.16763e-16
-7.56507e-10
1.09112e-16
-7.56506e-10
-7.56502e-10
-2.80355e-17
-7.56503e-10
1.71566e-17
-7.56507e-10
1.19393e-16
-7.56507e-10
1.11006e-16
-7.56506e-10
-7.56502e-10
-2.71354e-17
-7.56503e-10
1.887e-17
-7.56507e-10
1.21824e-16
-7.56507e-10
1.12648e-16
-7.56506e-10
-7.56502e-10
-2.60516e-17
-7.56503e-10
2.06712e-17
-7.56507e-10
1.24056e-16
-7.56507e-10
1.14039e-16
-7.56506e-10
-7.56502e-10
-2.47875e-17
-7.56503e-10
2.25573e-17
-7.56507e-10
1.26086e-16
-7.56508e-10
1.15179e-16
-7.56506e-10
-7.56502e-10
-2.33467e-17
-7.56503e-10
2.45255e-17
-7.56507e-10
1.27915e-16
-7.56508e-10
1.16071e-16
-7.56506e-10
-7.56501e-10
-2.17333e-17
-7.56503e-10
2.65724e-17
-7.56507e-10
1.29542e-16
-7.56508e-10
1.16715e-16
-7.56506e-10
-7.56501e-10
-1.99516e-17
-7.56503e-10
2.86947e-17
-7.56507e-10
1.30965e-16
-7.56508e-10
1.17114e-16
-7.56506e-10
-7.56501e-10
-1.80063e-17
-7.56503e-10
3.08889e-17
-7.56507e-10
1.32187e-16
-7.56508e-10
1.17271e-16
-7.56506e-10
-7.56501e-10
-1.59023e-17
-7.56503e-10
3.31513e-17
-7.56507e-10
1.33207e-16
-7.56508e-10
1.17188e-16
-7.56506e-10
-7.56501e-10
-1.36451e-17
-7.56503e-10
3.54781e-17
-7.56507e-10
1.34026e-16
-7.56508e-10
1.1687e-16
-7.56506e-10
-7.56501e-10
-1.12401e-17
-7.56503e-10
3.78653e-17
-7.56507e-10
1.34645e-16
-7.56508e-10
1.1632e-16
-7.56506e-10
-7.56501e-10
-8.69327e-18
-7.56503e-10
4.03088e-17
-7.56507e-10
1.35066e-16
-7.56508e-10
1.15543e-16
-7.56506e-10
-7.56501e-10
-6.01072e-18
-7.56503e-10
4.28043e-17
-7.56507e-10
1.3529e-16
-7.56508e-10
1.14543e-16
-7.56506e-10
-7.56501e-10
-3.19885e-18
-7.56503e-10
4.53475e-17
-7.56507e-10
1.3532e-16
-7.56509e-10
1.13326e-16
-7.56506e-10
-7.565e-10
-2.6426e-19
-7.56503e-10
4.79339e-17
-7.56507e-10
1.35159e-16
-7.56509e-10
1.11896e-16
-7.56506e-10
-7.565e-10
2.7862e-18
-7.56503e-10
5.0559e-17
-7.56507e-10
1.34809e-16
-7.56509e-10
1.10261e-16
-7.56506e-10
-7.565e-10
5.94552e-18
-7.56503e-10
5.32183e-17
-7.56507e-10
1.34274e-16
-7.56509e-10
1.08425e-16
-7.56506e-10
-7.565e-10
9.20649e-18
-7.56503e-10
5.5907e-17
-7.56507e-10
1.33558e-16
-7.56509e-10
1.06396e-16
-7.56505e-10
-7.565e-10
1.25618e-17
-7.56503e-10
5.86205e-17
-7.56508e-10
1.32663e-16
-7.56509e-10
1.0418e-16
-7.56505e-10
-7.565e-10
1.60039e-17
-7.56503e-10
6.1354e-17
-7.56508e-10
1.31596e-16
-7.56509e-10
1.01785e-16
-7.56505e-10
-7.565e-10
1.95253e-17
-7.56503e-10
6.41029e-17
-7.56508e-10
1.30359e-16
-7.56509e-10
9.92188e-17
-7.56505e-10
-7.565e-10
2.31183e-17
-7.56503e-10
6.68623e-17
-7.56508e-10
1.28959e-16
-7.56509e-10
9.6488e-17
-7.56505e-10
-7.565e-10
2.67752e-17
-7.56503e-10
6.96276e-17
-7.56508e-10
1.274e-16
-7.56509e-10
9.36013e-17
-7.56505e-10
-7.565e-10
3.04883e-17
-7.56503e-10
7.23941e-17
-7.56508e-10
1.25689e-16
-7.56509e-10
9.05668e-17
-7.56505e-10
-7.56499e-10
3.42497e-17
-7.56503e-10
7.51571e-17
-7.56508e-10
1.23831e-16
-7.56509e-10
8.7393e-17
-7.56505e-10
-7.56499e-10
3.80519e-17
-7.56503e-10
7.79123e-17
-7.56508e-10
1.21832e-16
-7.56509e-10
8.40887e-17
-7.56505e-10
-7.56499e-10
4.18871e-17
-7.56503e-10
8.0655e-17
-7.56508e-10
1.19699e-16
-7.56509e-10
8.06628e-17
-7.56505e-10
-7.56499e-10
4.57476e-17
-7.56504e-10
8.3381e-17
-7.56508e-10
1.17438e-16
-7.56509e-10
7.71242e-17
-7.56505e-10
-7.56499e-10
4.9626e-17
-7.56504e-10
8.6086e-17
-7.56508e-10
1.15058e-16
-7.56509e-10
7.34822e-17
-7.56505e-10
-7.56499e-10
5.35147e-17
-7.56504e-10
8.8766e-17
-7.56508e-10
1.12565e-16
-7.56509e-10
6.97462e-17
-7.56505e-10
-7.56499e-10
5.74065e-17
-7.56504e-10
9.14171e-17
-7.56508e-10
1.09966e-16
-7.5651e-10
6.59257e-17
-7.56505e-10
-7.56499e-10
6.12943e-17
-7.56504e-10
9.40354e-17
-7.56508e-10
1.07271e-16
-7.5651e-10
6.20303e-17
-7.56505e-10
-7.56499e-10
6.51709e-17
-7.56504e-10
9.66174e-17
-7.56508e-10
1.04486e-16
-7.5651e-10
5.80696e-17
-7.56505e-10
-7.56499e-10
6.90298e-17
-7.56504e-10
9.91598e-17
-7.56508e-10
1.01621e-16
-7.5651e-10
5.40536e-17
-7.56505e-10
-7.56499e-10
7.28642e-17
-7.56504e-10
1.01659e-16
-7.56508e-10
9.86837e-17
-7.5651e-10
4.9992e-17
-7.56505e-10
-7.56499e-10
7.66678e-17
-7.56504e-10
1.04113e-16
-7.56508e-10
9.56836e-17
-7.5651e-10
4.58947e-17
-7.56505e-10
-7.56499e-10
8.04346e-17
-7.56504e-10
1.06519e-16
-7.56508e-10
9.26296e-17
-7.5651e-10
4.17718e-17
-7.56505e-10
-7.56499e-10
8.41586e-17
-7.56504e-10
1.08874e-16
-7.56508e-10
8.95311e-17
-7.56509e-10
3.76333e-17
-7.56505e-10
-7.56499e-10
8.78343e-17
-7.56504e-10
1.11177e-16
-7.56508e-10
8.63977e-17
-7.56509e-10
3.34891e-17
-7.56505e-10
-7.56499e-10
9.14565e-17
-7.56504e-10
1.13424e-16
-7.56508e-10
8.32391e-17
-7.56509e-10
2.93494e-17
-7.56505e-10
-7.56498e-10
9.50201e-17
-7.56504e-10
1.15616e-16
-7.56508e-10
8.00654e-17
-7.56509e-10
2.52242e-17
-7.56505e-10
-7.56498e-10
9.85207e-17
-7.56505e-10
1.17751e-16
-7.56508e-10
7.68865e-17
-7.56509e-10
2.11236e-17
-7.56504e-10
-7.56498e-10
1.01954e-16
-7.56505e-10
1.19828e-16
-7.56508e-10
7.37129e-17
-7.56509e-10
1.70576e-17
-7.56504e-10
-7.56498e-10
1.05316e-16
-7.56505e-10
1.21847e-16
-7.56508e-10
7.05551e-17
-7.56509e-10
1.30361e-17
-7.56504e-10
-7.56498e-10
1.08603e-16
-7.56505e-10
1.23807e-16
-7.56508e-10
6.74237e-17
-7.56509e-10
9.06919e-18
-7.56504e-10
-7.56498e-10
1.11813e-16
-7.56505e-10
1.2571e-16
-7.56508e-10
6.43295e-17
-7.56509e-10
5.1667e-18
-7.56504e-10
-7.56498e-10
1.14942e-16
-7.56505e-10
1.27556e-16
-7.56508e-10
6.12834e-17
-7.56509e-10
1.33848e-18
-7.56504e-10
-7.56498e-10
1.17989e-16
-7.56505e-10
1.29347e-16
-7.56508e-10
5.82965e-17
-7.56509e-10
-2.40574e-18
-7.56504e-10
-7.56498e-10
1.20951e-16
-7.56505e-10
1.31084e-16
-7.56508e-10
5.538e-17
-7.56509e-10
-6.0563e-18
-7.56504e-10
-7.56498e-10
1.23827e-16
-7.56505e-10
1.3277e-16
-7.56508e-10
5.2545e-17
-7.56509e-10
-9.60368e-18
-7.56504e-10
-7.56498e-10
1.26618e-16
-7.56506e-10
1.34407e-16
-7.56508e-10
4.9803e-17
-7.56509e-10
-1.30385e-17
-7.56504e-10
-7.56498e-10
1.29321e-16
-7.56506e-10
1.35999e-16
-7.56508e-10
4.71654e-17
-7.56509e-10
-1.63514e-17
-7.56504e-10
-7.56498e-10
1.31939e-16
-7.56506e-10
1.3755e-16
-7.56508e-10
4.46436e-17
-7.56509e-10
-1.95333e-17
-7.56504e-10
-7.56498e-10
1.34471e-16
-7.56506e-10
1.39065e-16
-7.56508e-10
4.22493e-17
-7.56508e-10
-2.25754e-17
-7.56504e-10
-7.56498e-10
1.3692e-16
-7.56506e-10
1.40548e-16
-7.56508e-10
3.9994e-17
-7.56508e-10
-2.54687e-17
-7.56504e-10
-7.56499e-10
1.39287e-16
-7.56506e-10
1.42006e-16
-7.56508e-10
3.78892e-17
-7.56508e-10
-2.82049e-17
-7.56504e-10
-7.56499e-10
1.41575e-16
-7.56506e-10
1.43445e-16
-7.56508e-10
3.59467e-17
-7.56508e-10
-3.07755e-17
-7.56504e-10
-7.56499e-10
1.43788e-16
-7.56507e-10
1.44872e-16
-7.56508e-10
3.41779e-17
-7.56508e-10
-3.31725e-17
-7.56503e-10
-7.56499e-10
1.45929e-16
-7.56507e-10
1.46296e-16
-7.56508e-10
3.25946e-17
-7.56508e-10
-3.5388e-17
-7.56503e-10
-7.56499e-10
1.48004e-16
-7.56507e-10
1.47724e-16
-7.56508e-10
3.12083e-17
-7.56508e-10
-3.74145e-17
-7.56503e-10
-7.56499e-10
1.50018e-16
-7.56507e-10
1.49167e-16
-7.56508e-10
3.00304e-17
-7.56508e-10
-3.92446e-17
-7.56503e-10
-7.56499e-10
1.51977e-16
-7.56507e-10
1.50633e-16
-7.56508e-10
2.90729e-17
-7.56508e-10
-4.08708e-17
-7.56503e-10
-7.56499e-10
1.53885e-16
-7.56507e-10
1.52133e-16
-7.56508e-10
2.83478e-17
-7.56507e-10
-4.22852e-17
-7.56503e-10
-7.56499e-10
1.55753e-16
-7.56507e-10
1.5368e-16
-7.56508e-10
2.78664e-17
-7.56507e-10
-4.34821e-17
-7.56503e-10
-7.56499e-10
1.57607e-16
-7.56508e-10
1.55301e-16
-7.56508e-10
2.76335e-17
-7.56507e-10
-4.44684e-17
-7.56503e-10
-7.56499e-10
1.59492e-16
1.57026e-16
2.762e-17
-4.52879e-17
)
;

boundaryField
{
    BotWall
    {
        type            calculated;
        value           nonuniform List<scalar> 5(6.55783e-25 3.2835e-23 5.34598e-23 3.95099e-23 5.55243e-25);
    }
    FreeStream
    {
        type            calculated;
        value           nonuniform List<scalar> 5(-7.56508e-10 -7.56508e-10 -7.56507e-10 -7.56503e-10 -7.56499e-10);
    }
    FrontNBack
    {
        type            empty;
        value           nonuniform 0();
    }
    LeftSide
    {
        type            symmetryPlane;
        value           uniform 0;
    }
    RightSide
    {
        type            symmetryPlane;
        value           uniform 0;
    }
}


// ************************************************************************* //
