/*--------------------------------*- C++ -*----------------------------------*\
| =========                 |                                                 |
| \\      /  F ield         | OpenFOAM: The Open Source CFD Toolbox           |
|  \\    /   O peration     | Version:  2.4.0                                 |
|   \\  /    A nd           | Web:      www.OpenFOAM.org                      |
|    \\/     M anipulation  |                                                 |
\*---------------------------------------------------------------------------*/
FoamFile
{
    version     2.0;
    format      ascii;
    class       volVectorField;
    location    "0.3";
    object      U;
}
// * * * * * * * * * * * * * * * * * * * * * * * * * * * * * * * * * * * * * //

dimensions      [0 1 -1 0 0 0 0];

internalField   nonuniform List<vector> 
500
(
(4.68489e-10 -8.71587e-07 0)
(4.19222e-10 -8.71778e-07 0)
(-1.45073e-11 -8.71771e-07 0)
(-4.64481e-10 -8.71777e-07 0)
(-4.99175e-10 -8.71582e-07 0)
(1.40824e-09 -1.65551e-06 0)
(1.25971e-09 -1.65545e-06 0)
(-4.36495e-11 -1.65543e-06 0)
(-1.39606e-09 -1.65545e-06 0)
(-1.50075e-09 -1.6555e-06 0)
(2.36729e-09 4.852e-06 0)
(2.11762e-09 4.85517e-06 0)
(-7.31182e-11 4.85517e-06 0)
(-2.3463e-09 4.85516e-06 0)
(-2.52254e-09 4.85198e-06 0)
(3.37485e-09 2.77314e-05 0)
(3.02116e-09 2.77378e-05 0)
(-1.03049e-10 2.77376e-05 0)
(-3.34388e-09 2.77377e-05 0)
(-3.59411e-09 2.77313e-05 0)
(4.40818e-09 3.4699e-05 0)
(3.94473e-09 3.46981e-05 0)
(-1.33838e-10 3.46977e-05 0)
(-4.36449e-09 3.46979e-05 0)
(-4.6936e-09 3.46987e-05 0)
(5.3346e-09 -0.000110415 0)
(4.75915e-09 -0.000110449 0)
(-1.65253e-10 -0.000110448 0)
(-5.27839e-09 -0.000110449 0)
(-5.68804e-09 -0.000110415 0)
(5.99132e-09 -0.000866924 0)
(5.28801e-09 -0.000866986 0)
(-2.00721e-10 -0.000866982 0)
(-5.92022e-09 -0.000866985 0)
(-6.42224e-09 -0.00086692 0)
(6.44846e-09 -0.00285706 0)
(5.71353e-09 -0.00285702 0)
(-2.09007e-10 -0.00285702 0)
(-6.37234e-09 -0.00285702 0)
(-6.89769e-09 -0.00285706 0)
(7.1089e-09 -0.00659296 0)
(5.70191e-09 -0.00659291 0)
(7.97509e-10 -0.00659291 0)
(-4.74243e-09 -0.00659291 0)
(-6.96453e-09 -0.00659296 0)
(5.00708e-09 -0.00389671 0)
(2.98374e-09 -0.00389681 0)
(1.79396e-09 -0.0038968 0)
(-4.05327e-10 -0.00389681 0)
(-4.25816e-09 -0.00389671 0)
(3.74771e-09 -0.00363092 0)
(1.14428e-09 -0.00363094 0)
(2.76835e-09 -0.00363094 0)
(3.01643e-09 -0.00363094 0)
(-2.40856e-09 -0.00363092 0)
(2.94771e-09 -0.00370143 0)
(-2.03696e-10 -0.00370143 0)
(3.72002e-09 -0.00370142 0)
(5.9086e-09 -0.00370143 0)
(-1.03347e-09 -0.00370143 0)
(2.1897e-09 -0.00377558 0)
(-1.47578e-09 -0.00377558 0)
(4.64907e-09 -0.00377558 0)
(8.68759e-09 -0.00377558 0)
(2.85242e-10 -0.00377557 0)
(1.39693e-09 -0.0037893 0)
(-2.74793e-09 -0.00378931 0)
(5.55543e-09 -0.00378931 0)
(1.14297e-08 -0.00378931 0)
(1.62473e-09 -0.0037893 0)
(6.34244e-10 -0.0037857 0)
(-3.95535e-09 -0.00378571 0)
(6.43881e-09 -0.00378571 0)
(1.40698e-08 -0.00378571 0)
(2.92007e-09 -0.0037857 0)
(-6.32395e-11 -0.0037828 0)
(-5.0631e-09 -0.00378281 0)
(7.2989e-09 -0.00378281 0)
(1.65724e-08 -0.00378281 0)
(4.13595e-09 -0.00378279 0)
(-6.95009e-10 -0.00378224 0)
(-6.0709e-09 -0.00378225 0)
(8.1354e-09 -0.00378225 0)
(1.89367e-08 -0.00378225 0)
(5.27167e-09 -0.00378224 0)
(-1.2678e-09 -0.00378239 0)
(-6.98572e-09 -0.0037824 0)
(8.94802e-09 -0.0037824 0)
(2.11692e-08 -0.0037824 0)
(6.33387e-09 -0.00378239 0)
(-1.78522e-09 -0.00378251 0)
(-7.81142e-09 -0.00378252 0)
(9.73651e-09 -0.00378252 0)
(2.32736e-08 -0.00378252 0)
(7.32599e-09 -0.00378251 0)
(-2.24856e-09 -0.00378253 0)
(-8.54959e-09 -0.00378254 0)
(1.05006e-08 -0.00378254 0)
(2.52509e-08 -0.00378254 0)
(8.24925e-09 -0.00378253 0)
(-2.65881e-09 -0.00378252 0)
(-9.20156e-09 -0.00378254 0)
(1.12402e-08 -0.00378254 0)
(2.71022e-08 -0.00378253 0)
(9.10452e-09 -0.00378252 0)
(-3.01723e-09 -0.00378252 0)
(-9.76895e-09 -0.00378253 0)
(1.19549e-08 -0.00378253 0)
(2.88288e-08 -0.00378253 0)
(9.89297e-09 -0.00378252 0)
(-3.32524e-09 -0.00378252 0)
(-1.02536e-08 -0.00378253 0)
(1.26446e-08 -0.00378253 0)
(3.04322e-08 -0.00378253 0)
(1.06159e-08 -0.00378252 0)
(-3.58431e-09 -0.00378252 0)
(-1.06574e-08 -0.00378253 0)
(1.33091e-08 -0.00378253 0)
(3.19141e-08 -0.00378253 0)
(1.12748e-08 -0.00378252 0)
(-3.79594e-09 -0.00378252 0)
(-1.09823e-08 -0.00378253 0)
(1.39483e-08 -0.00378253 0)
(3.32763e-08 -0.00378253 0)
(1.1871e-08 -0.00378251 0)
(-3.96165e-09 -0.00378252 0)
(-1.12304e-08 -0.00378253 0)
(1.45621e-08 -0.00378253 0)
(3.45205e-08 -0.00378253 0)
(1.2406e-08 -0.00378251 0)
(-4.08299e-09 -0.00378252 0)
(-1.14037e-08 -0.00378253 0)
(1.51502e-08 -0.00378253 0)
(3.56488e-08 -0.00378253 0)
(1.28813e-08 -0.00378251 0)
(-4.16154e-09 -0.00378252 0)
(-1.15044e-08 -0.00378253 0)
(1.57127e-08 -0.00378253 0)
(3.66631e-08 -0.00378253 0)
(1.32986e-08 -0.00378251 0)
(-4.19891e-09 -0.00378252 0)
(-1.15348e-08 -0.00378253 0)
(1.62495e-08 -0.00378253 0)
(3.75656e-08 -0.00378253 0)
(1.36592e-08 -0.00378251 0)
(-4.19674e-09 -0.00378252 0)
(-1.14971e-08 -0.00378253 0)
(1.67604e-08 -0.00378253 0)
(3.83585e-08 -0.00378253 0)
(1.3965e-08 -0.00378251 0)
(-4.15669e-09 -0.00378252 0)
(-1.13936e-08 -0.00378253 0)
(1.72456e-08 -0.00378253 0)
(3.90442e-08 -0.00378253 0)
(1.42176e-08 -0.00378251 0)
(-4.08044e-09 -0.00378252 0)
(-1.12268e-08 -0.00378253 0)
(1.77049e-08 -0.00378253 0)
(3.9625e-08 -0.00378253 0)
(1.44187e-08 -0.00378251 0)
(-3.9697e-09 -0.00378252 0)
(-1.09991e-08 -0.00378253 0)
(1.81384e-08 -0.00378254 0)
(4.01034e-08 -0.00378253 0)
(1.45699e-08 -0.00378251 0)
(-3.82619e-09 -0.00378252 0)
(-1.07129e-08 -0.00378253 0)
(1.85462e-08 -0.00378254 0)
(4.0482e-08 -0.00378253 0)
(1.46732e-08 -0.00378251 0)
(-3.65163e-09 -0.00378252 0)
(-1.03708e-08 -0.00378253 0)
(1.89283e-08 -0.00378254 0)
(4.07636e-08 -0.00378253 0)
(1.47302e-08 -0.00378251 0)
(-3.44778e-09 -0.00378252 0)
(-9.97543e-09 -0.00378253 0)
(1.92849e-08 -0.00378254 0)
(4.09507e-08 -0.00378253 0)
(1.47429e-08 -0.00378251 0)
(-3.2164e-09 -0.00378252 0)
(-9.5293e-09 -0.00378253 0)
(1.9616e-08 -0.00378254 0)
(4.10464e-08 -0.00378253 0)
(1.4713e-08 -0.00378251 0)
(-2.95924e-09 -0.00378252 0)
(-9.0351e-09 -0.00378253 0)
(1.99218e-08 -0.00378254 0)
(4.10533e-08 -0.00378253 0)
(1.46425e-08 -0.00378251 0)
(-2.67808e-09 -0.00378252 0)
(-8.49547e-09 -0.00378253 0)
(2.02025e-08 -0.00378254 0)
(4.09747e-08 -0.00378253 0)
(1.45332e-08 -0.00378251 0)
(-2.37467e-09 -0.00378252 0)
(-7.91313e-09 -0.00378253 0)
(2.04583e-08 -0.00378254 0)
(4.08133e-08 -0.00378253 0)
(1.4387e-08 -0.00378251 0)
(-2.05077e-09 -0.00378252 0)
(-7.29076e-09 -0.00378253 0)
(2.06894e-08 -0.00378254 0)
(4.05725e-08 -0.00378253 0)
(1.42058e-08 -0.00378251 0)
(-1.70814e-09 -0.00378252 0)
(-6.6311e-09 -0.00378253 0)
(2.08961e-08 -0.00378254 0)
(4.02552e-08 -0.00378253 0)
(1.39916e-08 -0.00378251 0)
(-1.34851e-09 -0.00378252 0)
(-5.93688e-09 -0.00378254 0)
(2.10787e-08 -0.00378254 0)
(3.98647e-08 -0.00378253 0)
(1.37462e-08 -0.00378251 0)
(-9.73616e-10 -0.00378252 0)
(-5.21082e-09 -0.00378254 0)
(2.12374e-08 -0.00378254 0)
(3.94043e-08 -0.00378253 0)
(1.34717e-08 -0.0037825 0)
(-5.85153e-10 -0.00378252 0)
(-4.45565e-09 -0.00378254 0)
(2.13727e-08 -0.00378254 0)
(3.88772e-08 -0.00378253 0)
(1.31698e-08 -0.0037825 0)
(-1.84805e-10 -0.00378252 0)
(-3.67411e-09 -0.00378254 0)
(2.14849e-08 -0.00378254 0)
(3.82868e-08 -0.00378253 0)
(1.28425e-08 -0.0037825 0)
(2.25776e-10 -0.00378252 0)
(-2.86889e-09 -0.00378254 0)
(2.15745e-08 -0.00378254 0)
(3.76363e-08 -0.00378253 0)
(1.24917e-08 -0.0037825 0)
(6.44967e-10 -0.00378252 0)
(-2.04269e-09 -0.00378254 0)
(2.16417e-08 -0.00378254 0)
(3.69293e-08 -0.00378253 0)
(1.21193e-08 -0.0037825 0)
(1.07118e-09 -0.00378252 0)
(-1.19817e-09 -0.00378254 0)
(2.16872e-08 -0.00378254 0)
(3.6169e-08 -0.00378253 0)
(1.1727e-08 -0.0037825 0)
(1.50287e-09 -0.00378252 0)
(-3.37964e-10 -0.00378254 0)
(2.17113e-08 -0.00378254 0)
(3.53589e-08 -0.00378253 0)
(1.13169e-08 -0.0037825 0)
(1.93854e-09 -0.00378252 0)
(5.35334e-10 -0.00378254 0)
(2.17146e-08 -0.00378254 0)
(3.45023e-08 -0.00378253 0)
(1.08905e-08 -0.0037825 0)
(2.37672e-09 -0.00378252 0)
(1.41916e-09 -0.00378254 0)
(2.16976e-08 -0.00378254 0)
(3.36027e-08 -0.00378253 0)
(1.04498e-08 -0.0037825 0)
(2.816e-09 -0.00378252 0)
(2.31102e-09 -0.00378254 0)
(2.16609e-08 -0.00378254 0)
(3.26635e-08 -0.00378253 0)
(9.99645e-09 -0.0037825 0)
(3.25504e-09 -0.00378252 0)
(3.20844e-09 -0.00378254 0)
(2.16051e-08 -0.00378255 0)
(3.16881e-08 -0.00378253 0)
(9.5321e-09 -0.0037825 0)
(3.69252e-09 -0.00378252 0)
(4.10904e-09 -0.00378254 0)
(2.15308e-08 -0.00378255 0)
(3.06797e-08 -0.00378253 0)
(9.05842e-09 -0.0037825 0)
(4.12722e-09 -0.00378252 0)
(5.01046e-09 -0.00378254 0)
(2.14385e-08 -0.00378255 0)
(2.96418e-08 -0.00378253 0)
(8.57702e-09 -0.0037825 0)
(4.55795e-09 -0.00378252 0)
(5.91044e-09 -0.00378254 0)
(2.13291e-08 -0.00378255 0)
(2.85777e-08 -0.00378253 0)
(8.08945e-09 -0.0037825 0)
(4.9836e-09 -0.00378252 0)
(6.80679e-09 -0.00378254 0)
(2.1203e-08 -0.00378255 0)
(2.74906e-08 -0.00378253 0)
(7.5972e-09 -0.0037825 0)
(5.40311e-09 -0.00378252 0)
(7.69737e-09 -0.00378254 0)
(2.10612e-08 -0.00378255 0)
(2.63839e-08 -0.00378253 0)
(7.10173e-09 -0.0037825 0)
(5.81551e-09 -0.00378252 0)
(8.58014e-09 -0.00378254 0)
(2.09042e-08 -0.00378255 0)
(2.52605e-08 -0.00378253 0)
(6.60443e-09 -0.0037825 0)
(6.21987e-09 -0.00378252 0)
(9.45313e-09 -0.00378254 0)
(2.07329e-08 -0.00378255 0)
(2.41238e-08 -0.00378253 0)
(6.10663e-09 -0.0037825 0)
(6.61535e-09 -0.00378252 0)
(1.03145e-08 -0.00378254 0)
(2.05479e-08 -0.00378255 0)
(2.29767e-08 -0.00378253 0)
(5.60962e-09 -0.0037825 0)
(7.00116e-09 -0.00378252 0)
(1.11624e-08 -0.00378254 0)
(2.03502e-08 -0.00378255 0)
(2.18224e-08 -0.00378253 0)
(5.11461e-09 -0.0037825 0)
(7.37661e-09 -0.00378252 0)
(1.19952e-08 -0.00378254 0)
(2.01404e-08 -0.00378255 0)
(2.06638e-08 -0.00378253 0)
(4.62277e-09 -0.00378249 0)
(7.74105e-09 -0.00378252 0)
(1.28112e-08 -0.00378254 0)
(1.99194e-08 -0.00378255 0)
(1.95037e-08 -0.00378253 0)
(4.1352e-09 -0.00378249 0)
(8.0939e-09 -0.00378252 0)
(1.36089e-08 -0.00378254 0)
(1.96881e-08 -0.00378255 0)
(1.8345e-08 -0.00378252 0)
(3.65294e-09 -0.00378249 0)
(8.43467e-09 -0.00378252 0)
(1.43871e-08 -0.00378254 0)
(1.94473e-08 -0.00378255 0)
(1.71905e-08 -0.00378252 0)
(3.17699e-09 -0.00378249 0)
(8.76292e-09 -0.00378252 0)
(1.51442e-08 -0.00378254 0)
(1.91978e-08 -0.00378255 0)
(1.60429e-08 -0.00378252 0)
(2.70826e-09 -0.00378249 0)
(9.07828e-09 -0.00378252 0)
(1.58791e-08 -0.00378254 0)
(1.89406e-08 -0.00378255 0)
(1.49047e-08 -0.00378252 0)
(2.24763e-09 -0.00378249 0)
(9.38044e-09 -0.00378252 0)
(1.65908e-08 -0.00378254 0)
(1.86765e-08 -0.00378255 0)
(1.37784e-08 -0.00378252 0)
(1.79592e-09 -0.00378249 0)
(9.66916e-09 -0.00378252 0)
(1.72781e-08 -0.00378254 0)
(1.84064e-08 -0.00378255 0)
(1.26667e-08 -0.00378252 0)
(1.35389e-09 -0.00378249 0)
(9.94427e-09 -0.00378252 0)
(1.79402e-08 -0.00378254 0)
(1.81314e-08 -0.00378255 0)
(1.15717e-08 -0.00378252 0)
(9.22239e-10 -0.00378249 0)
(1.02056e-08 -0.00378252 0)
(1.85763e-08 -0.00378254 0)
(1.78522e-08 -0.00378255 0)
(1.04958e-08 -0.00378252 0)
(5.01633e-10 -0.00378249 0)
(1.04532e-08 -0.00378252 0)
(1.91857e-08 -0.00378254 0)
(1.75698e-08 -0.00378255 0)
(9.44114e-09 -0.00378252 0)
(9.26771e-11 -0.00378249 0)
(1.06869e-08 -0.00378252 0)
(1.97677e-08 -0.00378254 0)
(1.72852e-08 -0.00378255 0)
(8.40988e-09 -0.00378252 0)
(-3.04071e-10 -0.00378249 0)
(1.09069e-08 -0.00378252 0)
(2.03219e-08 -0.00378254 0)
(1.69993e-08 -0.00378255 0)
(7.40401e-09 -0.00378252 0)
(-6.88098e-10 -0.00378249 0)
(1.11132e-08 -0.00378252 0)
(2.0848e-08 -0.00378254 0)
(1.67131e-08 -0.00378255 0)
(6.42545e-09 -0.00378252 0)
(-1.05894e-09 -0.00378249 0)
(1.13059e-08 -0.00378252 0)
(2.13455e-08 -0.00378254 0)
(1.64276e-08 -0.00378255 0)
(5.47603e-09 -0.00378252 0)
(-1.41616e-09 -0.00378249 0)
(1.14853e-08 -0.00378252 0)
(2.18144e-08 -0.00378254 0)
(1.61437e-08 -0.00378255 0)
(4.55749e-09 -0.00378252 0)
(-1.75939e-09 -0.00378249 0)
(1.16516e-08 -0.00378252 0)
(2.22546e-08 -0.00378254 0)
(1.58623e-08 -0.00378255 0)
(3.67146e-09 -0.00378252 0)
(-2.08828e-09 -0.00378249 0)
(1.18051e-08 -0.00378253 0)
(2.26661e-08 -0.00378254 0)
(1.55846e-08 -0.00378255 0)
(2.8195e-09 -0.00378252 0)
(-2.40251e-09 -0.00378249 0)
(1.1946e-08 -0.00378253 0)
(2.30491e-08 -0.00378254 0)
(1.53114e-08 -0.00378255 0)
(2.00304e-09 -0.00378252 0)
(-2.70183e-09 -0.00378249 0)
(1.20748e-08 -0.00378253 0)
(2.34037e-08 -0.00378254 0)
(1.50437e-08 -0.00378254 0)
(1.22343e-09 -0.00378252 0)
(-2.986e-09 -0.00378249 0)
(1.21919e-08 -0.00378253 0)
(2.37304e-08 -0.00378254 0)
(1.47826e-08 -0.00378254 0)
(4.81923e-10 -0.00378252 0)
(-3.2548e-09 -0.00378249 0)
(1.22975e-08 -0.00378253 0)
(2.40296e-08 -0.00378254 0)
(1.4529e-08 -0.00378254 0)
(-2.2034e-10 -0.00378252 0)
(-3.50808e-09 -0.00378249 0)
(1.23923e-08 -0.00378253 0)
(2.43019e-08 -0.00378254 0)
(1.4284e-08 -0.00378254 0)
(-8.82315e-10 -0.00378252 0)
(-3.74569e-09 -0.00378249 0)
(1.24768e-08 -0.00378253 0)
(2.4548e-08 -0.00378254 0)
(1.40484e-08 -0.00378254 0)
(-1.50306e-09 -0.00378252 0)
(-3.96751e-09 -0.00378249 0)
(1.25513e-08 -0.00378253 0)
(2.47685e-08 -0.00378254 0)
(1.38234e-08 -0.00378254 0)
(-2.08173e-09 -0.00378252 0)
(-4.17346e-09 -0.00378249 0)
(1.26165e-08 -0.00378253 0)
(2.49644e-08 -0.00378254 0)
(1.36099e-08 -0.00378254 0)
(-2.61761e-09 -0.00378252 0)
(-4.36349e-09 -0.00378249 0)
(1.26729e-08 -0.00378253 0)
(2.51367e-08 -0.00378254 0)
(1.34089e-08 -0.00378254 0)
(-3.11004e-09 -0.00378252 0)
(-4.53755e-09 -0.00378249 0)
(1.27212e-08 -0.00378253 0)
(2.52865e-08 -0.00378254 0)
(1.32213e-08 -0.00378254 0)
(-3.55851e-09 -0.00378252 0)
(-4.69563e-09 -0.00378249 0)
(1.27619e-08 -0.00378253 0)
(2.54148e-08 -0.00378254 0)
(1.30483e-08 -0.00378254 0)
(-3.96259e-09 -0.00378252 0)
(-4.83775e-09 -0.00378249 0)
(1.27957e-08 -0.00378253 0)
(2.55231e-08 -0.00378254 0)
(1.28907e-08 -0.00378254 0)
(-4.32196e-09 -0.00378252 0)
(-4.96393e-09 -0.00378249 0)
(1.28233e-08 -0.00378253 0)
(2.56127e-08 -0.00378254 0)
(1.27496e-08 -0.00378254 0)
(-4.6364e-09 -0.00378252 0)
(-5.07423e-09 -0.00378249 0)
(1.28452e-08 -0.00378253 0)
(2.5685e-08 -0.00378254 0)
(1.2626e-08 -0.00378254 0)
(-4.90578e-09 -0.00378252 0)
(-5.1687e-09 -0.00378249 0)
(1.28621e-08 -0.00378254 0)
(2.57415e-08 -0.00378254 0)
(1.25208e-08 -0.00378254 0)
(-5.13004e-09 -0.00378252 0)
(-5.24739e-09 -0.00378249 0)
(1.28747e-08 -0.00378254 0)
(2.57839e-08 -0.00378254 0)
(1.24349e-08 -0.00378254 0)
(-5.30921e-09 -0.00378252 0)
(-5.31039e-09 -0.00378249 0)
(1.28839e-08 -0.00378254 0)
(2.58143e-08 -0.00378254 0)
(1.23696e-08 -0.00378254 0)
(-5.44378e-09 -0.00378252 0)
(-5.35798e-09 -0.00378249 0)
(1.28914e-08 -0.00378254 0)
(2.58363e-08 -0.00378254 0)
(1.23261e-08 -0.00378254 0)
(-5.53506e-09 -0.00378252 0)
(-5.391e-09 -0.00378249 0)
(1.28985e-08 -0.00378254 0)
(2.58528e-08 -0.00378254 0)
(1.23057e-08 -0.00378254 0)
(-5.58406e-09 -0.00378251 0)
(-5.40999e-09 -0.00378249 0)
)
;

boundaryField
{
    BotWall
    {
        type            fixedValue;
        value           uniform (0 0 0);
    }
    FreeStream
    {
        type            zeroGradient;
    }
    FrontNBack
    {
        type            empty;
    }
    LeftSide
    {
        type            symmetryPlane;
    }
    RightSide
    {
        type            symmetryPlane;
    }
}


// ************************************************************************* //
