/*--------------------------------*- C++ -*----------------------------------*\
| =========                 |                                                 |
| \\      /  F ield         | OpenFOAM: The Open Source CFD Toolbox           |
|  \\    /   O peration     | Version:  2.4.0                                 |
|   \\  /    A nd           | Web:      www.OpenFOAM.org                      |
|    \\/     M anipulation  |                                                 |
\*---------------------------------------------------------------------------*/
FoamFile
{
    version     2.0;
    format      ascii;
    class       volScalarField;
    location    "3.1";
    object      alpha1;
}
// * * * * * * * * * * * * * * * * * * * * * * * * * * * * * * * * * * * * * //

dimensions      [0 0 0 0 0 0 0];

internalField   nonuniform List<scalar> 
8000
(
1
0.999999
0.999997
0.999996
0.999997
0.999999
0.999999
0.999999
0.999999
0.999999
0.999999
0.999999
0.999999
0.999999
0.999998
0.999998
0.999998
0.999998
0.999997
0.999997
0.999997
0.999124
0.742542
0.129755
0.00477299
0.000608008
0.000197159
2.4674e-05
6.1751e-06
4.74116e-06
4.33308e-06
2.7258e-06
4.09638e-06
4.09459e-06
3.64977e-06
1.31046e-06
1.26609e-06
1.20867e-06
1.01965e-06
5.2345e-07
1.99157e-06
9.94162e-07
7.09443e-07
5.68315e-07
4.51951e-07
3.49812e-07
2.70842e-07
2.13388e-07
1.72096e-07
1.40968e-07
1
0.999999
0.999997
0.999998
0.999998
0.999999
0.999999
0.999999
0.999999
0.999999
0.999999
0.999999
0.999999
0.999999
0.999999
0.999998
0.999998
0.999998
0.999997
0.999885
0.956074
0.28194
0.0105412
0.000436603
7.36501e-05
1.90409e-05
5.90064e-06
4.11798e-06
3.62766e-06
2.94951e-06
3.93909e-06
2.03513e-06
1.42307e-06
1.18454e-06
9.33431e-07
7.09893e-07
8.30913e-07
6.88817e-07
4.97712e-07
3.41359e-07
1.57117e-07
1.45539e-07
1.34842e-07
1.18026e-07
9.68069e-08
7.4807e-08
5.53773e-08
4.02293e-08
2.92886e-08
2.15198e-08
1
0.999999
0.999997
0.999998
0.999999
0.999999
0.999999
0.999999
0.999999
0.999999
0.999999
0.999999
0.999999
0.999999
0.999999
0.999998
0.999998
0.999998
0.999568
0.69614
0.0472817
0.000784842
4.299e-05
6.40544e-06
3.28652e-06
2.45113e-06
2.3062e-06
2.01574e-06
1.66252e-06
1.30607e-06
6.75852e-07
6.14408e-07
5.49072e-07
4.5458e-07
3.52379e-07
2.63048e-07
1.35916e-07
8.61314e-08
6.25854e-08
4.72668e-08
3.60955e-08
2.73024e-08
1.98491e-08
1.367e-08
9.03811e-09
5.9198e-09
3.94201e-09
2.69318e-09
1.90822e-09
1.44709e-09
1
0.999999
0.999997
0.999998
0.999999
0.999999
0.999999
0.999999
0.999999
0.999999
0.999999
0.999999
0.999999
0.999999
0.999999
0.999998
0.999998
0.99928
0.478678
0.00964381
8.89093e-05
3.93865e-06
1.89258e-06
1.57874e-06
1.36302e-06
1.1403e-06
9.17146e-07
6.89293e-07
4.95817e-07
3.44192e-07
2.31894e-07
1.14998e-07
8.66515e-08
6.09832e-08
3.88091e-08
2.47457e-08
1.62045e-08
9.0116e-09
3.06712e-09
2.14133e-09
1.60299e-09
1.09358e-09
7.87325e-10
6.69278e-10
6.58724e-10
6.95054e-10
7.4433e-10
7.93339e-10
8.38892e-10
8.81229e-10
1
0.999999
0.999997
0.999998
0.999999
0.999999
0.999999
0.999999
0.999999
0.999999
0.999999
0.999999
0.999999
0.999999
0.999998
0.999998
0.999662
0.537506
0.00713544
2.94304e-05
2.39157e-06
1.43832e-06
1.06045e-06
7.9069e-07
5.61458e-07
3.77556e-07
2.41068e-07
1.46617e-07
8.53302e-08
4.76786e-08
2.55087e-08
1.28958e-08
6.09874e-09
2.77561e-09
1.33796e-09
7.28955e-10
4.47449e-10
3.49969e-10
3.5434e-10
3.97321e-10
4.50105e-10
5.01092e-10
5.45826e-10
5.82894e-10
6.12453e-10
6.35657e-10
6.54318e-10
6.70639e-10
6.86983e-10
7.05682e-10
1
0.999999
0.999997
0.999998
0.999999
0.999999
1
0.999999
0.999999
0.999999
0.999999
0.999999
0.999999
0.999999
0.999998
0.999989
0.887175
0.0302153
3.55441e-05
2.51865e-06
1.33258e-06
8.66963e-07
5.63465e-07
3.39539e-07
1.87685e-07
9.55341e-08
4.4995e-08
1.96628e-08
7.9887e-09
3.0335e-09
1.0994e-09
4.12832e-10
2.0304e-10
1.64457e-10
1.85582e-10
2.27839e-10
2.76956e-10
3.25904e-10
3.70074e-10
4.06429e-10
4.3353e-10
4.51462e-10
4.61538e-10
4.6587e-10
4.66944e-10
4.67296e-10
4.69281e-10
4.74934e-10
4.85884e-10
5.03295e-10
1
0.999999
0.999998
0.999998
0.999999
0.999999
0.999999
0.999999
0.999999
0.999999
0.999999
0.999999
0.999999
0.999998
0.999998
0.999781
0.476486
0.000702978
2.53938e-06
1.54636e-06
9.10746e-07
5.50309e-07
3.0258e-07
1.46346e-07
6.21882e-08
2.33628e-08
7.82213e-09
2.3633e-09
6.69531e-10
2.08627e-10
1.0772e-10
1.04629e-10
1.29891e-10
1.65873e-10
2.06066e-10
2.4552e-10
2.79778e-10
3.05595e-10
3.2155e-10
3.28074e-10
3.26998e-10
3.20898e-10
3.1251e-10
3.04333e-10
2.98438e-10
2.96403e-10
2.99311e-10
3.0776e-10
3.21877e-10
3.41348e-10
1
0.999999
0.999998
0.999999
0.999999
0.999999
0.999999
0.999999
0.999999
0.999999
0.999999
0.999999
0.999999
0.999999
0.999998
0.999402
0.189894
2.23334e-05
1.78969e-06
1.09862e-06
6.44744e-07
3.48877e-07
1.62569e-07
6.42195e-08
2.15808e-08
6.23526e-09
1.58515e-09
3.82987e-10
1.18626e-10
7.70753e-11
8.63262e-11
1.1001e-10
1.3949e-10
1.70026e-10
1.97089e-10
2.16945e-10
2.27608e-10
2.29164e-10
2.23364e-10
2.12845e-10
2.00368e-10
1.88303e-10
1.78431e-10
1.7193e-10
1.69462e-10
1.71242e-10
1.77103e-10
1.86543e-10
1.98804e-10
2.12961e-10
1
0.999999
0.999999
0.999999
0.999999
0.999999
0.999999
0.999999
0.999999
0.999999
0.999999
1
0.999999
0.999999
0.999998
0.997979
0.0328922
1.91069e-06
1.32137e-06
7.84928e-07
4.34002e-07
2.07828e-07
8.27836e-08
2.7308e-08
7.5566e-09
1.80431e-09
4.0204e-10
1.1095e-10
6.42821e-11
6.86125e-11
8.56654e-11
1.06749e-10
1.27402e-10
1.43757e-10
1.53059e-10
1.54391e-10
1.48691e-10
1.38136e-10
1.25288e-10
1.12428e-10
1.01213e-10
9.26266e-11
8.70836e-11
8.45894e-11
8.48594e-11
8.74008e-11
9.15801e-11
9.66964e-11
1.02065e-10
1.07104e-10
1
1
0.999999
0.999999
0.999999
1
1
0.999999
0.999999
0.999999
1
1
0.999999
0.999998
0.999999
0.87432
0.0011895
1.10431e-06
9.75134e-07
5.4281e-07
2.662e-07
1.09738e-07
3.77121e-08
1.08472e-08
2.65572e-09
5.79593e-10
1.3235e-10
5.15857e-11
4.50313e-11
5.4052e-11
6.68021e-11
7.91874e-11
8.83761e-11
9.25073e-11
9.10885e-11
8.49562e-11
7.57769e-11
6.54037e-11
5.53804e-11
4.67464e-11
4.0151e-11
3.56829e-11
3.30733e-11
3.19079e-11
3.17359e-11
3.21236e-11
3.26911e-11
3.31424e-11
3.3289e-11
3.30616e-11
1
1
0.999999
0.999999
0.999999
1
1
1
1
1
1
1
1
0.999998
1
0.739846
2.40107e-05
1.17402e-06
7.84318e-07
4.27447e-07
2.0402e-07
8.0847e-08
2.65454e-08
7.30698e-09
1.72569e-09
3.69008e-10
8.53368e-11
3.41871e-11
2.83331e-11
3.08529e-11
3.42354e-11
3.61804e-11
3.56839e-11
3.26536e-11
2.77645e-11
2.20864e-11
1.66446e-11
1.2121e-11
8.77952e-12
6.53063e-12
4.98635e-12
3.8745e-12
3.04628e-12
2.41363e-12
1.9206e-12
1.53094e-12
1.22056e-12
9.72516e-13
7.74086e-13
6.15276e-13
1
1
0.999999
0.999999
1
1
1
1
1
1
1
1
1
0.999998
1
0.720696
1.78212e-06
1.16412e-06
7.40029e-07
4.13193e-07
1.93864e-07
7.46423e-08
2.37056e-08
6.31273e-09
1.44845e-09
3.03041e-10
6.86966e-11
2.62001e-11
2.02036e-11
2.07256e-11
2.18867e-11
2.21225e-11
2.09242e-11
1.83939e-11
1.50453e-11
1.15243e-11
8.35569e-12
5.81868e-12
3.95827e-12
2.67175e-12
1.80412e-12
1.22006e-12
8.24699e-13
5.55235e-13
3.70628e-13
2.44097e-13
1.57871e-13
9.98017e-14
6.13461e-14
3.64139e-14
1
1
1
1
1
1
1
1
1
1
1
1
1
1
1
0.703104
3.16423e-06
1.22975e-06
8.06629e-07
4.58715e-07
2.14609e-07
8.11565e-08
2.50661e-08
6.46435e-09
1.43751e-09
2.91942e-10
6.32244e-11
2.1756e-11
1.5071e-11
1.45045e-11
1.46775e-11
1.43335e-11
1.31417e-11
1.12085e-11
8.88864e-12
6.5863e-12
4.59956e-12
3.06219e-12
1.96914e-12
1.23866e-12
7.69497e-13
4.74484e-13
2.90718e-13
1.76638e-13
1.0597e-13
6.24205e-14
3.58829e-14
2.00037e-14
1.07381e-14
5.50169e-15
1
1
1
1
1
1
1
1
0.999999
0.999999
0.999999
0.999999
1
1
1
0.781041
0.000131198
9.99654e-07
9.14307e-07
5.54013e-07
2.66282e-07
1.00592e-07
3.04275e-08
7.60296e-09
1.63286e-09
3.1977e-10
6.52807e-11
1.96555e-11
1.18024e-11
1.05126e-11
1.0178e-11
9.62892e-12
8.59658e-12
7.15119e-12
5.52832e-12
3.98418e-12
2.69511e-12
1.72727e-12
1.06029e-12
6.30431e-13
3.66676e-13
2.10091e-13
1.18992e-13
6.66077e-14
3.67224e-14
1.98269e-14
1.04107e-14
5.27546e-15
2.55769e-15
1.17407e-15
1
1
1
1
1
1
1
1
0.999999
0.999999
0.999999
0.999999
0.999999
0.999999
0.999829
0.495439
0.00347746
1.91829e-06
8.04183e-07
4.74474e-07
2.22065e-07
8.19367e-08
2.42861e-08
5.96775e-09
1.26725e-09
2.47475e-10
5.09553e-11
1.54227e-11
8.97816e-12
7.62439e-12
7.05975e-12
6.42345e-12
5.54245e-12
4.47194e-12
3.36024e-12
2.35517e-12
1.54769e-12
9.60725e-13
5.68426e-13
3.23675e-13
1.79028e-13
9.69152e-14
5.15939e-14
2.70458e-14
1.39286e-14
7.0104e-15
3.42349e-15
1.60834e-15
7.19799e-16
3.03298e-16
1
1
1
1
1
1
0.999999
0.999999
0.999999
0.999998
0.999998
0.999998
0.999682
0.998936
0.555027
0.00051339
7.26011e-07
5.62544e-07
3.82209e-07
2.16288e-07
9.85518e-08
3.59975e-08
1.06954e-08
2.6599e-09
5.77765e-10
1.17897e-10
2.68481e-11
9.64039e-12
6.18534e-12
5.21556e-12
4.63862e-12
4.03559e-12
3.34044e-12
2.59913e-12
1.89277e-12
1.29063e-12
8.26921e-13
5.00628e-13
2.88411e-13
1.59355e-13
8.51177e-14
4.4261e-14
2.25199e-14
1.12355e-14
5.48999e-15
2.61566e-15
1.20675e-15
5.34389e-16
2.24793e-16
8.87111e-17
1
1
1
1
1
0.999998
0.999999
0.999998
0.999998
0.999805
0.998086
0.999602
0.510101
0.0317872
0.00830213
1.5779e-07
1.97906e-07
1.64991e-07
1.10444e-07
6.10187e-08
2.748e-08
1.00732e-08
3.04426e-09
7.79755e-10
1.77629e-10
3.97971e-11
1.11311e-11
5.24181e-12
3.80184e-12
3.20459e-12
2.74582e-12
2.28661e-12
1.81672e-12
1.3646e-12
9.65296e-13
6.42824e-13
4.03852e-13
2.40294e-13
1.36114e-13
7.38448e-14
3.86132e-14
1.95757e-14
9.6664e-15
4.66039e-15
2.19273e-15
1.00327e-15
4.43624e-16
1.87971e-16
7.55342e-17
2.84338e-17
1
1
1
1
0.999998
0.999996
0.999997
0.998931
0.998908
0.619113
0.0335703
0.0354635
0.000143002
9.971e-05
6.47793e-06
6.16295e-08
5.90991e-08
4.1982e-08
2.56751e-08
1.34237e-08
5.89309e-09
2.15881e-09
6.65916e-10
1.7794e-10
4.39129e-11
1.16849e-11
4.44758e-12
2.71614e-12
2.13258e-12
1.78475e-12
1.48443e-12
1.19648e-12
9.23357e-13
6.77631e-13
4.71273e-13
3.10302e-13
1.9361e-13
1.14741e-13
6.48105e-14
3.50368e-14
1.82113e-14
9.14205e-15
4.449e-15
2.10371e-15
9.66639e-16
4.30542e-16
1.84934e-16
7.6036e-17
2.96435e-17
1.08434e-17
1
1
1
0.999999
0.999992
0.999811
0.995548
0.160204
0.0159645
0.0128623
0.000462187
0.000293024
2.65985e-07
2.54743e-07
1.2681e-07
2.99115e-08
2.10547e-08
1.2945e-08
7.1173e-09
3.45299e-09
1.45108e-09
5.23903e-10
1.63832e-10
4.5945e-11
1.26732e-11
4.21901e-12
2.11058e-12
1.48733e-12
1.20186e-12
9.97048e-13
8.16058e-13
6.4828e-13
4.9534e-13
3.61958e-13
2.52085e-13
1.67067e-13
1.0535e-13
6.32721e-14
3.62587e-14
1.9874e-14
1.04482e-14
5.28344e-15
2.57651e-15
1.21386e-15
5.52779e-16
2.43013e-16
1.02794e-16
4.16169e-17
1.60192e-17
5.82765e-18
1
1
0.999999
0.999996
0.999726
0.605318
0.00794515
0.00399567
0.000486608
0.00030505
0.000286831
6.04641e-05
4.86434e-06
2.82239e-07
2.34821e-07
1.59698e-07
7.68714e-08
4.76347e-08
1.70298e-08
9.60377e-09
2.96111e-09
1.3918e-09
5.90534e-10
2.50456e-10
1.0537e-10
4.3258e-11
1.72855e-11
6.98359e-12
3.11918e-12
1.6752e-12
1.07012e-12
7.53099e-13
5.4855e-13
4.00149e-13
2.8745e-13
2.01483e-13
1.37175e-13
9.06263e-14
5.82183e-14
3.65563e-14
2.26253e-14
1.39641e-14
8.71948e-15
5.59298e-15
3.73098e-15
2.60289e-15
1.89431e-15
1.42605e-15
1.09885e-15
8.58404e-16
1.15526e-07
9.33749e-08
7.36823e-08
5.64075e-08
4.17359e-08
2.97926e-08
2.05365e-08
1.37448e-08
9.05108e-09
6.01559e-09
4.19912e-09
3.2184e-09
2.77344e-09
2.65065e-09
2.71111e-09
2.87364e-09
3.09647e-09
3.35607e-09
3.63973e-09
3.94741e-09
4.28082e-09
4.64189e-09
5.0324e-09
5.45397e-09
5.90814e-09
6.39653e-09
6.92049e-09
7.48325e-09
8.08914e-09
8.73826e-09
9.42385e-09
1.01452e-08
1.09106e-08
1.17223e-08
1.25826e-08
1.3494e-08
1.44592e-08
1.54813e-08
1.65631e-08
1.7708e-08
1.89191e-08
2.01997e-08
2.15531e-08
2.29823e-08
2.44905e-08
2.60802e-08
2.77542e-08
2.95152e-08
3.13663e-08
3.33107e-08
1.58342e-08
1.15198e-08
8.22652e-09
5.79006e-09
4.08582e-09
2.97808e-09
2.32535e-09
1.9955e-09
1.87809e-09
1.89037e-09
1.97697e-09
2.1052e-09
2.25857e-09
2.43062e-09
2.62013e-09
2.82896e-09
3.06353e-09
3.31997e-09
3.5916e-09
3.88603e-09
4.20398e-09
4.54612e-09
4.91313e-09
5.30577e-09
5.72493e-09
6.17167e-09
6.64727e-09
7.15323e-09
7.69127e-09
8.26335e-09
8.87165e-09
9.51855e-09
1.02066e-08
1.09385e-08
1.17172e-08
1.25455e-08
1.34266e-08
1.43635e-08
1.53595e-08
1.64178e-08
1.75416e-08
1.87341e-08
1.99987e-08
2.13384e-08
2.27566e-08
2.42561e-08
2.58397e-08
2.751e-08
2.9269e-08
3.11184e-08
1.21627e-09
1.13514e-09
1.14135e-09
1.19511e-09
1.26724e-09
1.34519e-09
1.42834e-09
1.5186e-09
1.61804e-09
1.72856e-09
1.85179e-09
1.98903e-09
2.14126e-09
2.30917e-09
2.49314e-09
2.69342e-09
2.91012e-09
3.14336e-09
3.39334e-09
3.6604e-09
3.9451e-09
4.24826e-09
4.57095e-09
4.91453e-09
5.2806e-09
5.67104e-09
6.0879e-09
6.53344e-09
7.01005e-09
7.52026e-09
8.06669e-09
8.65204e-09
9.27906e-09
9.95055e-09
1.06694e-08
1.14383e-08
1.22604e-08
1.31383e-08
1.40749e-08
1.5073e-08
1.61353e-08
1.72641e-08
1.84618e-08
1.97302e-08
2.10708e-08
2.24843e-08
2.39711e-08
2.55308e-08
2.71626e-08
2.88651e-08
9.21878e-10
9.62875e-10
1.00644e-09
1.05479e-09
1.10998e-09
1.17378e-09
1.2476e-09
1.33246e-09
1.42891e-09
1.53718e-09
1.65716e-09
1.78853e-09
1.9309e-09
2.08386e-09
2.24716e-09
2.42076e-09
2.6049e-09
2.80013e-09
3.00734e-09
3.22775e-09
3.46285e-09
3.71439e-09
3.98428e-09
4.2746e-09
4.58748e-09
4.92514e-09
5.2898e-09
5.68369e-09
6.10904e-09
6.5681e-09
7.06312e-09
7.59636e-09
8.17008e-09
8.78655e-09
9.44802e-09
1.01567e-08
1.09146e-08
1.17236e-08
1.25855e-08
1.35014e-08
1.4472e-08
1.54977e-08
1.65775e-08
1.77102e-08
1.88933e-08
2.01236e-08
2.13973e-08
2.27097e-08
2.40563e-08
2.54322e-08
7.28877e-10
7.58393e-10
7.95644e-10
8.41579e-10
8.96659e-10
9.60895e-10
1.03391e-09
1.11505e-09
1.2035e-09
1.29846e-09
1.39923e-09
1.50537e-09
1.61673e-09
1.73356e-09
1.8565e-09
1.98654e-09
2.12499e-09
2.27344e-09
2.43363e-09
2.6074e-09
2.79664e-09
3.00318e-09
3.22878e-09
3.47513e-09
3.74383e-09
4.03639e-09
4.3543e-09
4.69906e-09
5.07218e-09
5.47522e-09
5.90977e-09
6.37745e-09
6.87981e-09
7.4183e-09
7.99412e-09
8.60812e-09
9.26066e-09
9.95144e-09
1.06794e-08
1.14426e-08
1.22382e-08
1.30623e-08
1.39101e-08
1.47765e-08
1.56554e-08
1.65412e-08
1.74281e-08
1.8311e-08
1.91859e-08
2.00494e-08
5.27835e-10
5.59673e-10
5.98514e-10
6.43681e-10
6.94231e-10
7.49102e-10
8.07262e-10
8.67858e-10
9.30332e-10
9.94504e-10
1.06061e-09
1.12929e-09
1.20157e-09
1.27875e-09
1.36234e-09
1.45397e-09
1.55526e-09
1.66777e-09
1.79292e-09
1.93194e-09
2.08588e-09
2.2556e-09
2.44185e-09
2.64528e-09
2.86657e-09
3.10641e-09
3.36563e-09
3.64515e-09
3.94598e-09
4.26915e-09
4.61559e-09
4.98601e-09
5.38075e-09
5.79954e-09
6.24145e-09
6.70469e-09
7.18657e-09
7.68354e-09
8.1912e-09
8.70455e-09
9.21815e-09
9.72648e-09
1.02242e-08
1.07066e-08
1.11699e-08
1.16111e-08
1.20287e-08
1.24224e-08
1.2793e-08
1.31423e-08
3.65487e-10
3.93334e-10
4.2379e-10
4.55771e-10
4.8835e-10
5.20888e-10
5.53109e-10
5.85146e-10
6.17529e-10
6.51132e-10
6.871e-10
7.26744e-10
7.71439e-10
8.22521e-10
8.81199e-10
9.48486e-10
1.02515e-09
1.11172e-09
1.20845e-09
1.31545e-09
1.43266e-09
1.56e-09
1.69744e-09
1.84505e-09
2.00309e-09
2.17196e-09
2.35217e-09
2.54426e-09
2.74864e-09
2.9654e-09
3.19415e-09
3.43385e-09
3.68273e-09
3.9382e-09
4.19696e-09
4.45509e-09
4.7083e-09
4.95224e-09
5.18273e-09
5.39615e-09
5.58962e-09
5.76126e-09
5.91021e-09
6.03671e-09
6.14197e-09
6.22806e-09
6.2977e-09
6.35406e-09
6.4006e-09
6.44081e-09
2.28049e-10
2.43191e-10
2.57712e-10
2.7123e-10
2.83706e-10
2.95441e-10
3.07041e-10
3.19347e-10
3.33347e-10
3.50078e-10
3.70535e-10
3.95589e-10
4.25924e-10
4.61991e-10
5.0399e-10
5.5187e-10
6.05359e-10
6.64018e-10
7.27312e-10
7.94694e-10
8.65686e-10
9.39947e-10
1.01731e-09
1.09779e-09
1.18151e-09
1.26866e-09
1.35931e-09
1.45329e-09
1.55009e-09
1.64867e-09
1.74752e-09
1.8446e-09
1.93748e-09
2.02352e-09
2.10012e-09
2.16493e-09
2.2161e-09
2.2525e-09
2.27382e-09
2.28061e-09
2.27424e-09
2.25675e-09
2.23069e-09
2.1989e-09
2.16431e-09
2.12974e-09
2.09778e-09
2.07067e-09
2.05027e-09
2.03799e-09
1.11404e-10
1.14785e-10
1.17307e-10
1.19258e-10
1.21107e-10
1.23446e-10
1.26914e-10
1.3213e-10
1.39627e-10
1.49812e-10
1.62925e-10
1.79022e-10
1.97976e-10
2.19485e-10
2.43099e-10
2.68264e-10
2.94369e-10
3.20805e-10
3.47026e-10
3.72591e-10
3.972e-10
4.20699e-10
4.43065e-10
4.64359e-10
4.84668e-10
5.04029e-10
5.22367e-10
5.39445e-10
5.54848e-10
5.67997e-10
5.7821e-10
5.84781e-10
5.87089e-10
5.84698e-10
5.77445e-10
5.65502e-10
5.49389e-10
5.29948e-10
5.08279e-10
4.85639e-10
4.63339e-10
4.42626e-10
4.24591e-10
4.10096e-10
3.99734e-10
3.93812e-10
3.92366e-10
3.95198e-10
4.01911e-10
4.11966e-10
3.25069e-11
3.17706e-11
3.10677e-11
3.06482e-11
3.07606e-11
3.1621e-11
3.33884e-11
3.6149e-11
3.99079e-11
4.45888e-11
5.0039e-11
5.604e-11
6.23222e-11
6.8583e-11
7.45091e-11
7.97991e-11
8.41866e-11
8.74614e-11
8.94854e-11
9.02026e-11
8.9641e-11
8.79064e-11
8.51696e-11
8.16478e-11
7.7583e-11
7.32202e-11
6.87873e-11
6.44795e-11
6.0449e-11
5.67994e-11
5.35868e-11
5.0824e-11
4.84883e-11
4.65311e-11
4.48875e-11
4.34849e-11
4.22511e-11
4.11197e-11
4.00337e-11
3.89478e-11
3.78289e-11
3.6655e-11
3.54148e-11
3.41051e-11
3.27295e-11
3.12962e-11
2.98166e-11
2.83041e-11
2.67726e-11
2.52358e-11
4.88111e-13
3.86233e-13
3.04613e-13
2.39285e-13
1.87114e-13
1.456e-13
1.12723e-13
8.69215e-14
6.68273e-14
5.12347e-14
3.91808e-14
2.9897e-14
2.27711e-14
1.73182e-14
1.31561e-14
9.98592e-15
7.57526e-15
5.74436e-15
4.35498e-15
3.30122e-15
2.50226e-15
1.89657e-15
1.43742e-15
1.08934e-15
8.25455e-16
6.25384e-16
4.73697e-16
3.58697e-16
2.71522e-16
2.0545e-16
1.55386e-16
1.17464e-16
8.87509e-17
6.70196e-17
5.0581e-17
3.81528e-17
2.87623e-17
2.16712e-17
1.632e-17
1.22842e-17
9.24241e-18
6.95127e-18
5.22659e-18
3.92909e-18
2.95351e-18
2.22038e-18
1.66974e-18
1.25636e-18
9.46155e-19
7.13475e-19
2.06653e-14
1.10393e-14
5.40783e-15
2.31374e-15
7.75313e-16
1.43468e-16
1.50933e-19
2.39923e-20
2.23451e-20
2.17644e-20
2.15787e-20
2.15767e-20
2.1664e-20
2.17999e-20
2.19673e-20
2.21603e-20
2.23772e-20
2.26184e-20
2.28848e-20
2.31773e-20
2.34966e-20
2.38429e-20
2.4216e-20
2.46154e-20
2.504e-20
2.54884e-20
2.59588e-20
2.64494e-20
2.69587e-20
2.74752e-20
2.79961e-20
2.85189e-20
2.9041e-20
2.95597e-20
3.00724e-20
3.05765e-20
3.10695e-20
3.15489e-20
3.20126e-20
3.24585e-20
3.28845e-20
3.32891e-20
3.36705e-20
3.40275e-20
3.43588e-20
3.46636e-20
3.49408e-20
3.519e-20
3.54106e-20
3.56024e-20
2.65762e-15
1.1882e-15
4.77153e-16
1.63153e-16
4.25412e-17
6.26002e-18
5.94e-20
3.14315e-20
3.13822e-20
3.16868e-20
3.21015e-20
3.25564e-20
3.30265e-20
3.35054e-20
3.39942e-20
3.44968e-20
3.50183e-20
3.55632e-20
3.61357e-20
3.67395e-20
3.7377e-20
3.80501e-20
3.87597e-20
3.95058e-20
4.0288e-20
4.11049e-20
4.19548e-20
4.28351e-20
4.37422e-20
4.46824e-20
4.56523e-20
4.66482e-20
4.76663e-20
4.87027e-20
4.97535e-20
5.08151e-20
5.18835e-20
5.29554e-20
5.40271e-20
5.50954e-20
5.61572e-20
5.72098e-20
5.82503e-20
5.92765e-20
6.02862e-20
6.12776e-20
6.22488e-20
6.31985e-20
6.41255e-20
6.50289e-20
5.03214e-16
1.97358e-16
6.86257e-17
2.00476e-17
4.44023e-18
5.9785e-19
5.02398e-20
4.42267e-20
4.52828e-20
4.6475e-20
4.7701e-20
4.8935e-20
5.01716e-20
5.14143e-20
5.26701e-20
5.39474e-20
5.52551e-20
5.66022e-20
5.79973e-20
5.94481e-20
6.0962e-20
6.25449e-20
6.42021e-20
6.59376e-20
6.77542e-20
6.96535e-20
7.16362e-20
7.37014e-20
7.58475e-20
7.80717e-20
8.03701e-20
8.2738e-20
8.51701e-20
8.76602e-20
9.02018e-20
9.27879e-20
9.54111e-20
9.80639e-20
1.00739e-19
1.03428e-19
1.06123e-19
1.08818e-19
1.11504e-19
1.14174e-19
1.16822e-19
1.19441e-19
1.22025e-19
1.2457e-19
1.27069e-19
1.2952e-19
1.18518e-16
4.20583e-17
1.31415e-17
3.45036e-18
7.19188e-19
1.34819e-19
6.18581e-20
6.23491e-20
6.48315e-20
6.74038e-20
7.00154e-20
7.2653e-20
7.53151e-20
7.80054e-20
8.07308e-20
8.35008e-20
8.63261e-20
8.92194e-20
9.21942e-20
9.52647e-20
9.84458e-20
1.01752e-19
1.052e-19
1.08802e-19
1.12572e-19
1.16525e-19
1.2067e-19
1.25019e-19
1.29581e-19
1.34361e-19
1.39367e-19
1.446e-19
1.50063e-19
1.55753e-19
1.6167e-19
1.67808e-19
1.7416e-19
1.80718e-19
1.87473e-19
1.94413e-19
2.01525e-19
2.08796e-19
2.16211e-19
2.23755e-19
2.31411e-19
2.39164e-19
2.46998e-19
2.54897e-19
2.62845e-19
2.70826e-19
3.23371e-17
1.0674e-17
3.11631e-18
7.9763e-19
2.04551e-19
9.1326e-20
8.10067e-20
8.46624e-20
8.90783e-20
9.36698e-20
9.84083e-20
1.03284e-19
1.08295e-19
1.1344e-19
1.18719e-19
1.24137e-19
1.29699e-19
1.35412e-19
1.41285e-19
1.47332e-19
1.53568e-19
1.60012e-19
1.66684e-19
1.73608e-19
1.80811e-19
1.88323e-19
1.96173e-19
2.04395e-19
2.13022e-19
2.22089e-19
2.3163e-19
2.4168e-19
2.52271e-19
2.63437e-19
2.75207e-19
2.87609e-19
3.00669e-19
3.14408e-19
3.28847e-19
3.43999e-19
3.59878e-19
3.76491e-19
3.93842e-19
4.11931e-19
4.30753e-19
4.50301e-19
4.70563e-19
4.91523e-19
5.13161e-19
5.35456e-19
9.88715e-18
3.1354e-18
9.13418e-19
2.7441e-19
1.23787e-19
1.00204e-19
1.02482e-19
1.08491e-19
1.1504e-19
1.21931e-19
1.29158e-19
1.36727e-19
1.44646e-19
1.52925e-19
1.61576e-19
1.70611e-19
1.8004e-19
1.89877e-19
2.00134e-19
2.10827e-19
2.21971e-19
2.33583e-19
2.45681e-19
2.58286e-19
2.71422e-19
2.85115e-19
2.99395e-19
3.14297e-19
3.29858e-19
3.46123e-19
3.63142e-19
3.80972e-19
3.99674e-19
4.19318e-19
4.3998e-19
4.61744e-19
4.84696e-19
5.08933e-19
5.34554e-19
5.61664e-19
5.9037e-19
6.20783e-19
6.53017e-19
6.87184e-19
7.23397e-19
7.61766e-19
8.024e-19
8.45402e-19
8.9087e-19
9.38896e-19
3.68976e-18
1.17643e-18
3.80151e-19
1.6165e-19
1.15036e-19
1.11948e-19
1.17889e-19
1.25512e-19
1.33728e-19
1.42454e-19
1.51702e-19
1.61494e-19
1.7186e-19
1.82829e-19
1.94432e-19
2.06702e-19
2.19671e-19
2.33376e-19
2.47852e-19
2.63138e-19
2.79274e-19
2.96304e-19
3.14272e-19
3.33229e-19
3.53225e-19
3.74318e-19
3.96566e-19
4.20035e-19
4.44792e-19
4.70909e-19
4.98464e-19
5.27536e-19
5.58212e-19
5.90582e-19
6.2474e-19
6.60788e-19
6.98832e-19
7.38987e-19
7.81376e-19
8.26132e-19
8.73402e-19
9.23346e-19
9.76139e-19
1.03198e-18
1.09108e-18
1.15368e-18
1.22003e-18
1.29043e-18
1.36519e-18
1.44464e-18
2.00771e-18
6.78774e-19
2.58041e-19
1.41051e-19
1.15619e-19
1.14849e-19
1.20318e-19
1.27683e-19
1.36031e-19
1.4515e-19
1.54973e-19
1.65492e-19
1.76723e-19
1.88701e-19
2.01469e-19
2.15074e-19
2.29568e-19
2.45008e-19
2.61454e-19
2.78968e-19
2.97617e-19
3.17474e-19
3.38616e-19
3.61127e-19
3.85096e-19
4.1062e-19
4.37802e-19
4.66752e-19
4.97587e-19
5.3043e-19
5.65411e-19
6.02663e-19
6.42329e-19
6.84556e-19
7.29501e-19
7.77327e-19
8.28211e-19
8.82344e-19
9.3993e-19
1.0012e-18
1.06639e-18
1.13577e-18
1.20965e-18
1.28835e-18
1.37223e-18
1.46166e-18
1.55706e-18
1.65887e-18
1.76755e-18
1.88358e-18
6.74798e-16
5.31022e-16
4.16814e-16
3.25503e-16
2.5241e-16
1.94035e-16
1.47648e-16
1.1105e-16
8.24401e-17
6.03211e-17
4.34422e-17
3.07529e-17
2.1373e-17
1.45687e-17
9.73449e-18
6.37801e-18
4.10575e-18
2.6099e-18
1.65548e-18
1.06794e-18
7.21454e-19
5.28294e-19
4.29445e-19
3.86725e-19
3.76438e-19
3.84522e-19
4.03031e-19
4.27715e-19
4.56448e-19
4.88264e-19
5.22802e-19
5.60002e-19
5.99946e-19
6.42789e-19
6.88718e-19
7.37945e-19
7.90697e-19
8.47218e-19
9.07772e-19
9.72645e-19
1.04215e-18
1.11663e-18
1.19648e-18
1.2821e-18
1.37397e-18
1.4726e-18
1.57856e-18
1.69244e-18
1.81489e-18
1.9466e-18
3.53515e-08
3.65168e-08
3.77206e-08
3.89639e-08
4.02473e-08
4.15713e-08
4.29362e-08
4.43423e-08
4.57898e-08
4.72789e-08
4.88098e-08
5.03828e-08
5.19983e-08
5.36571e-08
5.53602e-08
5.71093e-08
5.89068e-08
6.07561e-08
6.26611e-08
6.46267e-08
6.66581e-08
6.87611e-08
7.09411e-08
7.32035e-08
7.55537e-08
7.79967e-08
8.05381e-08
8.3184e-08
8.59418e-08
8.88205e-08
9.18308e-08
9.49859e-08
9.83015e-08
1.01797e-07
1.05495e-07
1.09423e-07
1.13615e-07
1.18111e-07
1.22958e-07
1.28211e-07
1.33935e-07
1.40204e-07
1.47099e-07
1.54713e-07
1.63139e-07
1.72453e-07
1.82654e-07
1.93538e-07
2.0449e-07
2.14274e-07
2.21111e-07
2.23472e-07
2.21503e-07
2.17341e-07
2.12285e-07
2.04301e-07
1.93749e-07
3.7433e-07
1.45991e-07
2.01068e-07
2.14049e-07
1.78687e-07
1.95924e-07
2.06411e-07
2.1907e-07
2.33995e-07
2.50606e-07
2.66688e-07
2.77689e-07
2.77848e-07
2.63254e-07
2.3029e-07
2.64967e-07
2.66474e-07
2.44662e-07
2.29053e-07
2.23811e-07
2.24418e-07
2.28951e-07
2.37965e-07
2.5234e-07
2.73593e-07
3.03977e-07
3.45792e-07
4.00234e-07
4.6883e-07
5.61433e-07
7.0248e-07
9.12255e-07
2.0172e-06
5.52423e-07
4.9389e-07
5.19242e-07
5.20044e-07
6.06426e-07
6.30175e-07
1.1694e-06
4.59022e-07
4.71526e-07
5.0102e-07
4.96854e-07
5.20591e-07
5.49077e-07
5.77978e-07
6.29194e-07
2.34846e-06
5.16472e-06
9.54859e-06
1.97358e-05
2.32929e-05
2.32544e-05
2.15076e-05
6.19054e-06
1.17263e-06
7.52925e-07
6.54751e-07
5.89795e-07
5.38786e-07
4.97296e-07
4.64344e-07
4.38805e-07
4.19344e-07
4.04574e-07
3.93472e-07
3.85397e-07
3.8001e-07
3.77165e-07
3.7682e-07
3.78991e-07
3.83753e-07
3.91258e-07
4.01617e-07
4.15105e-07
4.33152e-07
4.58498e-07
4.92793e-07
5.29704e-07
5.54942e-07
5.99896e-07
5.7159e-06
2.4719e-05
3.5476e-05
3.1192e-05
7.02107e-06
2.07118e-06
1.87419e-06
2.77869e-06
2.08736e-06
1.19606e-06
1.03623e-06
1.01946e-06
9.80469e-07
8.90959e-07
8.12691e-07
7.80491e-07
7.39091e-07
6.72552e-07
6.11721e-07
5.86098e-07
6.06584e-07
7.34468e-07
1.22633e-06
4.81761e-06
6.4303e-06
2.79938e-06
7.18229e-07
5.08242e-07
4.22909e-07
3.8845e-07
3.78449e-07
3.83493e-07
4.00082e-07
4.26627e-07
4.62268e-07
5.067e-07
5.58164e-07
6.02321e-07
6.14315e-07
1.90923e-06
3.02301e-06
4.7589e-07
3.74195e-07
3.71952e-07
3.73262e-07
3.87137e-07
4.10268e-07
4.41504e-07
4.75394e-07
5.31176e-07
3.09937e-06
8.10944e-06
7.29164e-06
1.50838e-06
6.30866e-07
5.54025e-07
5.34315e-07
5.41542e-07
5.6585e-07
6.07626e-07
6.57966e-07
7.4141e-07
1.3192e-06
4.10299e-07
4.24237e-07
4.41189e-07
4.44309e-07
4.49047e-07
4.60245e-07
4.75209e-07
4.92024e-07
5.08718e-07
5.16807e-07
4.78518e-07
4.36523e-07
4.14283e-07
4.02778e-07
4.00271e-07
4.00113e-07
4.04674e-07
4.13818e-07
4.26409e-07
4.40804e-07
4.54693e-07
4.6508e-07
4.70696e-07
4.76481e-07
4.89211e-07
5.08496e-07
5.23778e-07
5.32889e-07
7.36286e-07
8.24811e-07
4.84257e-07
4.84173e-07
4.91707e-07
5.01272e-07
5.716e-07
5.79931e-07
4.51946e-07
4.53003e-07
4.388e-07
4.30547e-07
4.31401e-07
4.42386e-07
5.20122e-07
1.99654e-06
3.08139e-06
3.97802e-07
3.55427e-07
1.07248e-06
1.4027e-06
1.1106e-06
4.05483e-07
3.65551e-07
3.44799e-07
3.38081e-07
3.41505e-07
1.46934e-06
4.52833e-06
5.10617e-06
4.27338e-07
2.66079e-07
2.08192e-07
1.64496e-07
1.30156e-07
1.02416e-07
7.97203e-08
6.11432e-08
4.60653e-08
3.40056e-08
2.45427e-08
1.72829e-08
1.18526e-08
7.90165e-09
5.11147e-09
3.20273e-09
1.94024e-09
1.13431e-09
6.38706e-10
3.45654e-10
1.79376e-10
8.90381e-11
4.21575e-11
1.89809e-11
8.09835e-12
3.26143e-12
1.23426e-12
4.36681e-13
1.43577e-13
4.35641e-14
1.20967e-14
3.04304e-15
6.84908e-16
1.35759e-16
2.32129e-17
3.32846e-18
3.84191e-19
3.34637e-20
1.95493e-21
5.74423e-23
3.3059e-08
3.41593e-08
3.52933e-08
3.64615e-08
3.76644e-08
3.89027e-08
4.01769e-08
4.14877e-08
4.28358e-08
4.42219e-08
4.56468e-08
4.71114e-08
4.86165e-08
5.0163e-08
5.17517e-08
5.33835e-08
5.50594e-08
5.67804e-08
5.85474e-08
6.03619e-08
6.22251e-08
6.41387e-08
6.61048e-08
6.81254e-08
7.02033e-08
7.23413e-08
7.45427e-08
7.68111e-08
7.91506e-08
8.15657e-08
8.40619e-08
8.6645e-08
8.93223e-08
9.21018e-08
9.49921e-08
9.80024e-08
1.01141e-07
1.04413e-07
1.07819e-07
1.11351e-07
1.14988e-07
1.18691e-07
1.22393e-07
1.25997e-07
1.29366e-07
1.32327e-07
1.34682e-07
1.36231e-07
1.36824e-07
1.36405e-07
1.35057e-07
1.33014e-07
1.30614e-07
1.28224e-07
1.26144e-07
1.24526e-07
1.23308e-07
1.22166e-07
1.41628e-07
1.46709e-07
2.94025e-07
1.2127e-07
1.60796e-07
1.64706e-07
1.6805e-07
1.70596e-07
1.72211e-07
1.72915e-07
1.72894e-07
1.72451e-07
1.71905e-07
1.71536e-07
1.7161e-07
1.72462e-07
1.74511e-07
1.78137e-07
1.8353e-07
1.90698e-07
1.99643e-07
2.10565e-07
2.23944e-07
2.40514e-07
2.61102e-07
2.86201e-07
3.15303e-07
3.47241e-07
3.82545e-07
4.21076e-07
4.63508e-07
4.95395e-07
6.17896e-07
8.63769e-07
1.20569e-06
1.00111e-06
1.61483e-06
1.60682e-06
1.17409e-06
6.89349e-07
6.07507e-07
5.90981e-07
6.80433e-07
7.81396e-07
7.53742e-07
2.61784e-06
8.00583e-06
2.02822e-05
2.69184e-05
2.68858e-05
2.69086e-05
1.37398e-05
2.58088e-06
8.3842e-07
6.82891e-07
6.14562e-07
5.67188e-07
5.28796e-07
5.01393e-07
4.77143e-07
4.54479e-07
4.3557e-07
4.20242e-07
4.08228e-07
3.98234e-07
3.89723e-07
3.82664e-07
3.77396e-07
3.74555e-07
3.7464e-07
3.78308e-07
3.8667e-07
4.00692e-07
4.15512e-07
4.28607e-07
4.49256e-07
4.95449e-07
5.87742e-07
6.88443e-07
7.02724e-07
2.82219e-06
1.45972e-05
3.36432e-05
3.54573e-05
3.54797e-05
2.82342e-05
8.21669e-06
1.85827e-06
1.13435e-06
9.45306e-07
1.00308e-06
1.13825e-06
1.29181e-06
1.35508e-06
1.23128e-06
1.1438e-06
1.19621e-06
1.14876e-06
9.76626e-07
8.35368e-07
7.80929e-07
7.48235e-07
7.61526e-07
9.79985e-07
4.1045e-06
6.44484e-06
3.18825e-06
9.18084e-07
5.8909e-07
4.55713e-07
4.00211e-07
3.78733e-07
3.76464e-07
3.88457e-07
4.12944e-07
4.49446e-07
4.9828e-07
5.5885e-07
6.19467e-07
6.56661e-07
2.01129e-06
3.02825e-06
5.76813e-07
4.34208e-07
3.99252e-07
3.91389e-07
4.03715e-07
4.27068e-07
4.64101e-07
5.40805e-07
8.39153e-07
4.70726e-06
8.20351e-06
7.65324e-06
1.61583e-06
7.22192e-07
6.20201e-07
5.83508e-07
5.76296e-07
5.66884e-07
7.40172e-07
6.73093e-07
1.34002e-06
1.72153e-06
4.11301e-07
4.56959e-07
5.384e-07
5.03714e-07
5.07982e-07
5.34971e-07
5.70032e-07
6.40772e-07
7.6701e-07
9.01023e-07
5.46709e-07
4.42531e-07
4.37787e-07
4.32219e-07
4.27959e-07
4.27081e-07
4.32227e-07
4.43029e-07
4.58908e-07
4.77778e-07
5.02876e-07
5.0735e-07
4.91897e-07
4.786e-07
4.73135e-07
4.74309e-07
4.77524e-07
1.01265e-06
1.5098e-06
7.0625e-07
5.1704e-07
4.85389e-07
4.66957e-07
4.55365e-07
4.46863e-07
4.40414e-07
4.37095e-07
4.35859e-07
4.40379e-07
4.52925e-07
4.6208e-07
4.44946e-07
1.28095e-06
3.35337e-06
3.35098e-06
2.02614e-06
4.53078e-07
4.16725e-07
3.91591e-07
3.75833e-07
3.6383e-07
3.49462e-07
3.29476e-07
3.13722e-07
1.27633e-06
5.7233e-06
7.93413e-06
7.66716e-06
1.94766e-06
3.78713e-07
3.13572e-07
2.62317e-07
2.19473e-07
1.82075e-07
1.48947e-07
1.19729e-07
9.43056e-08
7.26181e-08
5.45562e-08
3.99158e-08
2.83929e-08
1.96032e-08
1.31159e-08
8.49012e-09
5.30808e-09
3.19959e-09
1.8559e-09
1.03375e-09
5.51686e-10
2.81387e-10
1.36789e-10
6.31818e-11
2.76327e-11
1.13985e-11
4.41494e-12
1.59746e-12