/*--------------------------------*- C++ -*----------------------------------*\
| =========                 |                                                 |
| \\      /  F ield         | OpenFOAM: The Open Source CFD Toolbox           |
|  \\    /   O peration     | Version:  2.4.0                                 |
|   \\  /    A nd           | Web:      www.OpenFOAM.org                      |
|    \\/     M anipulation  |                                                 |
\*---------------------------------------------------------------------------*/
FoamFile
{
    version     2.0;
    format      ascii;
    class       volScalarField;
    location    "3.1";
    object      p;
}
// * * * * * * * * * * * * * * * * * * * * * * * * * * * * * * * * * * * * * //

dimensions      [1 -1 -2 0 0 0 0];

internalField   nonuniform List<scalar> 
8000
(
-2.98063
-2.98115
-2.98304
-2.98699
-2.9939
-3.00262
-3.01369
-3.02685
-3.0426
-3.06035
-3.08073
-3.10313
-3.1283
-3.15571
-3.18742
-3.22255
-3.25555
-3.26072
-3.23116
-3.34441
-4.20903
-6.268
-5.67929
-3.45538
-1.24088
-0.85286
-0.86548
-0.878835
-0.878998
-0.878926
-0.878952
-0.878257
-0.879018
-0.879109
-0.879438
-0.879559
-0.879665
-0.879768
-0.879788
-0.879651
-0.879075
-0.879659
-0.879749
-0.879841
-0.879934
-0.880023
-0.880109
-0.880193
-0.880276
-0.880358
-2.39788
-2.41812
-2.43878
-2.45753
-2.47467
-2.49009
-2.50473
-2.51792
-2.53021
-2.54101
-2.55098
-2.55943
-2.56749
-2.57516
-2.58204
-2.5757
-2.5352
-2.49139
-2.72871
-3.80507
-5.86399
-3.33582
-1.48516
-0.902572
-0.897535
-0.901015
-0.900696
-0.900626
-0.900624
-0.900657
-0.900679
-0.900877
-0.900933
-0.900993
-0.901051
-0.901101
-0.901165
-0.901245
-0.901316
-0.901383
-0.901436
-0.901502
-0.901569
-0.901639
-0.90171
-0.90178
-0.901851
-0.901922
-0.901993
-0.902065
-2.88926
-2.89892
-2.91088
-2.92506
-2.94009
-2.95633
-2.97376
-2.99274
-3.01277
-3.03435
-3.05711
-3.08227
-3.10943
-3.1356
-3.14549
-3.13172
-3.19127
-3.68852
-4.84188
-4.33779
-1.87531
-0.962615
-0.923126
-0.92339
-0.922992
-0.922904
-0.922895
-0.922924
-0.922949
-0.922966
-0.922968
-0.922988
-0.923014
-0.923047
-0.92308
-0.923114
-0.923146
-0.92318
-0.923218
-0.923259
-0.923302
-0.923348
-0.923395
-0.923445
-0.923496
-0.92355
-0.923605
-0.923663
-0.923723
-0.923784
-2.33927
-2.35412
-2.37081
-2.38822
-2.40623
-2.42486
-2.44432
-2.465
-2.48633
-2.50902
-2.53339
-2.56006
-2.58282
-2.58474
-2.56292
-2.66485
-3.33872
-4.61989
-2.84454
-1.07931
-0.948798
-0.944761
-0.944611
-0.944685
-0.94472
-0.94473
-0.944743
-0.94476
-0.94478
-0.944802
-0.944827
-0.94485
-0.944876
-0.944905
-0.944936
-0.944969
-0.945004
-0.945041
-0.945079
-0.94512
-0.945162
-0.945206
-0.945252
-0.945299
-0.945348
-0.9454
-0.945452
-0.945507
-0.945563
-0.945622
-1.96572
-1.98801
-2.01146
-2.03465
-2.05619
-2.07688
-2.09679
-2.1163
-2.13502
-2.15363
-2.17236
-2.18815
-2.18977
-2.17127
-2.21134
-2.5932
-3.45273
-2.72592
-0.999008
-0.967616
-0.966545
-0.966672
-0.966752
-0.966766
-0.966769
-0.966775
-0.966785
-0.966798
-0.966811
-0.966826
-0.966842
-0.96686
-0.966879
-0.966899
-0.966922
-0.966946
-0.966972
-0.966999
-0.967029
-0.96706
-0.967093
-0.967128
-0.967165
-0.967203
-0.967244
-0.967287
-0.967331
-0.967378
-0.967426
-0.967477
-1.65722
-1.67679
-1.69705
-1.71695
-1.73524
-1.75259
-1.76907
-1.78511
-1.80053
-1.8163
-1.83187
-1.83816
-1.81493
-1.77919
-1.95867
-2.86991
-4.04351
-1.13104
-0.989318
-0.9883
-0.988468
-0.988559
-0.988579
-0.988582
-0.988589
-0.988599
-0.98861
-0.988623
-0.988637
-0.988652
-0.988668
-0.988686
-0.988705
-0.988725
-0.988747
-0.988771
-0.988796
-0.988823
-0.988851
-0.988881
-0.988913
-0.988947
-0.988983
-0.98902
-0.989059
-0.989101
-0.989144
-0.989189
-0.989236
-0.989285
-1.58044
-1.59261
-1.60534
-1.6186
-1.63124
-1.64371
-1.65615
-1.66862
-1.68137
-1.69479
-1.70675
-1.70837
-1.69236
-1.71305
-1.99573
-2.71248
-2.49338
-1.01443
-1.01047
-1.0103
-1.01041
-1.01046
-1.01047
-1.01048
-1.01049
-1.0105
-1.01051
-1.01052
-1.01053
-1.01055
-1.01056
-1.01058
-1.0106
-1.01062
-1.01064
-1.01066
-1.01068
-1.0107
-1.01073
-1.01076
-1.01079
-1.01082
-1.01085
-1.01089
-1.01093
-1.01096
-1.011
-1.01105
-1.01109
-1.01114
-1.52796
-1.53373
-1.54003
-1.54725
-1.55451
-1.56195
-1.5697
-1.57793
-1.58707
-1.59717
-1.60377
-1.59405
-1.56882
-1.64007
-2.13199
-3.00122
-1.64353
-1.03301
-1.03197
-1.03217
-1.03226
-1.03229
-1.0323
-1.03231
-1.03232
-1.03234
-1.03235
-1.03237
-1.03238
-1.0324
-1.03242
-1.03244
-1.03245
-1.03248
-1.0325
-1.03252
-1.03255
-1.03257
-1.0326
-1.03263
-1.03266
-1.0327
-1.03273
-1.03277
-1.03281
-1.03285
-1.03289
-1.03293
-1.03298
-1.03303
-1.22526
-1.23085
-1.23613
-1.24095
-1.24496
-1.24818
-1.25078
-1.25324
-1.25675
-1.26103
-1.25356
-1.20142
-1.11564
-1.3135
-2.63774
-4.73313
-1.19635
-1.05499
-1.05411
-1.05434
-1.05444
-1.05445
-1.05446
-1.05447
-1.05448
-1.05449
-1.0545
-1.05451
-1.05452
-1.05454
-1.05455
-1.05457
-1.05459
-1.0546
-1.05462
-1.05465
-1.05467
-1.05469
-1.05472
-1.05475
-1.05478
-1.05481
-1.05484
-1.05488
-1.05491
-1.05495
-1.05499
-1.05503
-1.05508
-1.05513
-1.17778
-1.18049
-1.183
-1.18516
-1.1869
-1.18811
-1.18896
-1.18982
-1.19144
-1.19353
-1.18739
-1.15159
-1.09751
-1.24338
-2.13095
-3.43277
-1.08194
-1.07666
-1.0764
-1.07652
-1.07658
-1.0766
-1.07661
-1.07663
-1.07664
-1.07666
-1.07667
-1.07669
-1.0767
-1.07672
-1.07674
-1.07676
-1.07678
-1.0768
-1.07682
-1.07685
-1.07687
-1.0769
-1.07693
-1.07696
-1.07699
-1.07702
-1.07706
-1.0771
-1.07714
-1.07718
-1.07722
-1.07726
-1.07731
-1.07736
-1.24248
-1.23597
-1.22919
-1.22348
-1.21882
-1.21481
-1.2116
-1.20947
-1.20918
-1.21034
-1.20504
-1.17392
-1.1292
-1.27263
-2.08691
-3.20083
-1.09996
-1.0988
-1.09901
-1.0991
-1.09913
-1.09914
-1.09915
-1.09916
-1.09918
-1.09919
-1.09921
-1.09923
-1.09924
-1.09926
-1.09928
-1.0993
-1.09932
-1.09934
-1.09936
-1.09939
-1.09941
-1.09944
-1.09947
-1.0995
-1.09954
-1.09957
-1.09961
-1.09964
-1.09968
-1.09972
-1.09977
-1.09981
-1.09986
-1.09991
-1.10703
-1.09043
-1.07287
-1.05762
-1.04474
-1.03358
-1.02422
-1.01691
-1.01257
-1.01074
-1.00275
-0.966663
-0.914808
-1.06995
-1.97607
-3.25474
-1.12258
-1.12146
-1.12173
-1.12183
-1.12184
-1.12186
-1.12187
-1.12189
-1.12191
-1.12193
-1.12194
-1.12196
-1.12198
-1.122
-1.12202
-1.12205
-1.12207
-1.1221
-1.12212
-1.12215
-1.12218
-1.12221
-1.12224
-1.12227
-1.12231
-1.12235
-1.12239
-1.12243
-1.12247
-1.12251
-1.12256
-1.1226
-1.12265
-1.1227
-0.791678
-0.769569
-0.746186
-0.72519
-0.706461
-0.689261
-0.673672
-0.659934
-0.649119
-0.640683
-0.625913
-0.58177
-0.519864
-0.670559
-1.60204
-3.03072
-1.14569
-1.14446
-1.14482
-1.1449
-1.14492
-1.14494
-1.14497
-1.14499
-1.14502
-1.14504
-1.14506
-1.14508
-1.14511
-1.14513
-1.14515
-1.14518
-1.1452
-1.14523
-1.14526
-1.14529
-1.14532
-1.14535
-1.14538
-1.14542
-1.14545
-1.14549
-1.14553
-1.14557
-1.14561
-1.14565
-1.1457
-1.14575
-1.14579
-1.14584
0.0791699
0.118425
0.160522
0.196975
0.227509
0.25316
0.274067
0.289854
0.299205
0.302372
0.308878
0.344492
0.399889
0.224642
-0.826727
-2.80616
-1.16965
-1.16786
-1.16828
-1.16831
-1.16835
-1.16839
-1.16842
-1.16845
-1.16848
-1.1685
-1.16852
-1.16855
-1.16857
-1.16859
-1.16861
-1.16864
-1.16866
-1.16869
-1.16871
-1.16874
-1.16877
-1.1688
-1.16883
-1.16886
-1.1689
-1.16893
-1.16897
-1.16901
-1.16905
-1.16909
-1.16913
-1.16918
-1.16923
-1.16927
0.580872
0.626798
0.674192
0.718588
0.761211
0.803362
0.84455
0.884768
0.924046
0.968055
1.02535
1.0916
1.08226
0.776795
-0.34019
-1.89626
-1.20429
-1.19327
-1.19281
-1.19293
-1.19297
-1.19296
-1.19295
-1.19293
-1.19291
-1.19289
-1.19287
-1.19285
-1.19283
-1.19282
-1.1928
-1.19279
-1.19278
-1.19277
-1.19277
-1.19276
-1.19277
-1.19277
-1.19278
-1.19279
-1.1928
-1.19282
-1.19284
-1.19286
-1.19288
-1.19291
-1.19294
-1.19297
-1.193
-1.19304
4.37078
4.38458
4.4153
4.46436
4.5296
4.61199
4.71085
4.83255
4.98457
5.17332
5.32453
5.23789
3.63753
0.456669
-2.9023
-1.23416
-1.21754
-1.21726
-1.21744
-1.21751
-1.21749
-1.21745
-1.21741
-1.21736
-1.21731
-1.21726
-1.2172
-1.21715
-1.2171
-1.21705
-1.217
-1.21696
-1.21692
-1.21689
-1.21686
-1.21683
-1.21681
-1.21679
-1.21678
-1.21677
-1.21676
-1.21676
-1.21677
-1.21677
-1.21678
-1.2168
-1.21681
-1.21683
-1.21686
-1.21688
2.11408
2.15344
2.21015
2.28599
2.38593
2.52164
2.70708
2.89779
2.83448
1.09864
-3.4093
-4.28767
-5.85158
-3.35577
-1.21263
-1.24614
-1.24118
-1.24184
-1.24214
-1.24209
-1.24196
-1.24184
-1.24172
-1.24161
-1.2415
-1.24139
-1.24129
-1.24119
-1.2411
-1.24101
-1.24093
-1.24086
-1.24079
-1.24073
-1.24068
-1.24064
-1.2406
-1.24057
-1.24054
-1.24052
-1.2405
-1.24049
-1.24049
-1.24049
-1.24049
-1.2405
-1.24051
-1.24052
-1.24054
-1.24056
-1.7017
-1.65645
-1.59224
-1.49297
-1.31653
-1.22056
-1.98056
-5.08223
-7.7365
-12.7817
-4.24124
-4.02063
-1.25046
-1.25074
-1.26062
-1.2665
-1.26579
-1.26523
-1.265
-1.26487
-1.26474
-1.26461
-1.26447
-1.26435
-1.26423
-1.26412
-1.26402
-1.26393
-1.26385
-1.26378
-1.26371
-1.26366
-1.26361
-1.26357
-1.26354
-1.26352
-1.2635
-1.26349
-1.26349
-1.26349
-1.26349
-1.2635
-1.26352
-1.26354
-1.26356
-1.26358
-1.26361
-1.26365
-1.26368
-1.26372
-9.84338
-9.86451
-9.80591
-9.68932
-10.319
-13.8236
-20.0311
-11.1007
-1.5905
-0.849989
-1.30703
-1.27446
-1.28023
-1.28195
-1.28232
-1.28234
-1.28249
-1.2827
-1.28292
-1.28311
-1.28328
-1.28344
-1.28359
-1.28374
-1.28388
-1.28401
-1.28414
-1.28427
-1.28439
-1.2845
-1.28462
-1.28472
-1.28483
-1.28493
-1.28504
-1.28513
-1.28523
-1.28533
-1.28542
-1.28551
-1.2856
-1.28569
-1.28578
-1.28586
-1.28595
-1.28603
-1.28612
-1.2862
-1.28628
-1.28637
-8.73958
-8.96222
-9.31809
-10.2259
-11.9418
-10.8818
-1.95088
-1.43974
-1.27119
-1.26605
-1.27537
-1.30126
-1.3006
-1.30135
-1.30201
-1.30256
-1.30298
-1.30328
-1.30353
-1.30374
-1.30393
-1.3041
-1.30426
-1.30442
-1.30458
-1.30474
-1.3049
-1.30507
-1.30523
-1.3054
-1.30556
-1.30573
-1.3059
-1.30606
-1.30623
-1.30639
-1.30655
-1.30672
-1.30688
-1.30704
-1.3072
-1.30735
-1.30751
-1.30766
-1.30781
-1.30796
-1.30811
-1.30825
-1.30839
-1.30853
-0.880438
-0.880518
-0.880597
-0.880675
-0.880752
-0.880828
-0.880904
-0.88098
-0.881055
-0.88113
-0.881205
-0.88128
-0.881355
-0.88143
-0.881505
-0.88158
-0.881655
-0.88173
-0.881806
-0.881882
-0.881958
-0.882035
-0.882112
-0.882189
-0.882267
-0.882345
-0.882423
-0.882502
-0.882581
-0.882661
-0.882741
-0.882821
-0.882902
-0.882982
-0.883064
-0.883145
-0.883227
-0.88331
-0.883392
-0.883475
-0.883558
-0.883641
-0.883724
-0.883807
-0.883891
-0.883974
-0.884058
-0.884141
-0.884224
-0.884308
-0.902137
-0.90221
-0.902284
-0.902358
-0.902433
-0.902508
-0.902584
-0.902661
-0.902738
-0.902815
-0.902894
-0.902973
-0.903052
-0.903133
-0.903214
-0.903295
-0.903378
-0.903461
-0.903544
-0.903628
-0.903713
-0.903799
-0.903885
-0.903972
-0.90406
-0.904148
-0.904237
-0.904326
-0.904416
-0.904507
-0.904598
-0.90469
-0.904782
-0.904875
-0.904968
-0.905062
-0.905156
-0.905251
-0.905346
-0.905441
-0.905537
-0.905633
-0.905729
-0.905826
-0.905923
-0.90602
-0.906118
-0.906216
-0.906314
-0.906412
-0.923847
-0.923912
-0.923978
-0.924047
-0.924116
-0.924188
-0.924261
-0.924335
-0.924411
-0.924488
-0.924567
-0.924647
-0.924728
-0.924811
-0.924895
-0.92498
-0.925066
-0.925154
-0.925243
-0.925333
-0.925424
-0.925516
-0.925609
-0.925703
-0.925798
-0.925894
-0.925991
-0.926089
-0.926188
-0.926288
-0.926388
-0.926489
-0.926591
-0.926694
-0.926797
-0.926901
-0.927005
-0.92711
-0.927216
-0.927322
-0.927428
-0.927535
-0.927643
-0.92775
-0.927858
-0.927966
-0.928075
-0.928184
-0.928292
-0.928402
-0.945681
-0.945743
-0.945806
-0.945871
-0.945938
-0.946006
-0.946076
-0.946148
-0.946221
-0.946296
-0.946373
-0.946451
-0.946531
-0.946612
-0.946694
-0.946779
-0.946864
-0.946951
-0.94704
-0.947129
-0.94722
-0.947313
-0.947407
-0.947501
-0.947598
-0.947695
-0.947794
-0.947893
-0.947994
-0.948096
-0.948199
-0.948302
-0.948407
-0.948513
-0.948619
-0.948727
-0.948835
-0.948944
-0.949054
-0.949164
-0.949275
-0.949387
-0.9495
-0.949613
-0.949726
-0.94984
-0.949954
-0.950069
-0.950184
-0.9503
-0.96753
-0.967584
-0.967641
-0.967699
-0.96776
-0.967822
-0.967887
-0.967953
-0.968021
-0.968092
-0.968164
-0.968238
-0.968313
-0.968391
-0.96847
-0.968551
-0.968634
-0.968719
-0.968805
-0.968893
-0.968982
-0.969073
-0.969165
-0.969259
-0.969355
-0.969452
-0.96955
-0.96965
-0.969751
-0.969853
-0.969956
-0.970061
-0.970167
-0.970274
-0.970382
-0.970491
-0.970601
-0.970712
-0.970824
-0.970937
-0.971051
-0.971165
-0.97128
-0.971396
-0.971513
-0.97163
-0.971748
-0.971866
-0.971985
-0.972105
-0.989337
-0.98939
-0.989445
-0.989502
-0.98956
-0.989621
-0.989684
-0.989749
-0.989816
-0.989884
-0.989955
-0.990027
-0.990101
-0.990177
-0.990255
-0.990335
-0.990416
-0.990499
-0.990584
-0.99067
-0.990759
-0.990848
-0.99094
-0.991033
-0.991127
-0.991223
-0.991321
-0.99142
-0.99152
-0.991622
-0.991725
-0.991829
-0.991934
-0.992041
-0.992149
-0.992258
-0.992369
-0.99248
-0.992592
-0.992705
-0.99282
-0.992935
-0.993051
-0.993168
-0.993286
-0.993404
-0.993523
-0.993643
-0.993764
-0.993885
-1.01119
-1.01124
-1.01129
-1.01135
-1.0114
-1.01146
-1.01152
-1.01158
-1.01165
-1.01171
-1.01178
-1.01185
-1.01192
-1.012
-1.01207
-1.01215
-1.01223
-1.01231
-1.0124
-1.01248
-1.01257
-1.01265
-1.01274
-1.01283
-1.01293
-1.01302
-1.01312
-1.01322
-1.01331
-1.01341
-1.01352
-1.01362
-1.01372
-1.01383
-1.01394
-1.01404
-1.01415
-1.01426
-1.01437
-1.01449
-1.0146
-1.01472
-1.01483
-1.01495
-1.01507
-1.01518
-1.0153
-1.01542
-1.01554
-1.01566
-1.03308
-1.03313
-1.03318
-1.03324
-1.03329
-1.03335
-1.03341
-1.03348
-1.03354
-1.03361
-1.03368
-1.03375
-1.03382
-1.03389
-1.03397
-1.03405
-1.03412
-1.0342
-1.03429
-1.03437
-1.03446
-1.03454
-1.03463
-1.03472
-1.03481
-1.03491
-1.035
-1.0351
-1.0352
-1.0353
-1.0354
-1.0355
-1.0356
-1.03571
-1.03581
-1.03592
-1.03603
-1.03614
-1.03625
-1.03636
-1.03647
-1.03658
-1.0367
-1.03681
-1.03693
-1.03705
-1.03717
-1.03728
-1.0374
-1.03752
-1.05517
-1.05522
-1.05527
-1.05533
-1.05538
-1.05544
-1.0555
-1.05556
-1.05562
-1.05569
-1.05576
-1.05582
-1.05589
-1.05597
-1.05604
-1.05611
-1.05619
-1.05627
-1.05635
-1.05643
-1.05652
-1.0566
-1.05669
-1.05678
-1.05687
-1.05696
-1.05705
-1.05714
-1.05724
-1.05734
-1.05744
-1.05753
-1.05764
-1.05774
-1.05784
-1.05795
-1.05805
-1.05816
-1.05827
-1.05838
-1.05849
-1.0586
-1.05871
-1.05882
-1.05894
-1.05905
-1.05917
-1.05928
-1.0594
-1.05952
-1.07741
-1.07746
-1.07751
-1.07757
-1.07763
-1.07768
-1.07774
-1.07781
-1.07787
-1.07794
-1.078
-1.07807
-1.07814
-1.07821
-1.07829
-1.07836
-1.07844
-1.07852
-1.0786
-1.07868
-1.07876
-1.07885
-1.07893
-1.07902
-1.07911
-1.0792
-1.07929
-1.07938
-1.07948
-1.07957
-1.07967
-1.07977
-1.07987
-1.07997
-1.08007
-1.08017
-1.08028
-1.08038
-1.08049
-1.08059
-1.0807
-1.08081
-1.08092
-1.08103
-1.08114
-1.08125
-1.08137
-1.08148
-1.0816
-1.08171
-1.09996
-1.10001
-1.10006
-1.10012
-1.10017
-1.10023
-1.10029
-1.10035
-1.10042
-1.10048
-1.10055
-1.10061
-1.10068
-1.10076
-1.10083
-1.1009
-1.10098
-1.10105
-1.10113
-1.10121
-1.10129
-1.10138
-1.10146
-1.10155
-1.10163
-1.10172
-1.10181
-1.1019
-1.10199
-1.10208
-1.10218
-1.10227
-1.10237
-1.10247
-1.10257
-1.10266
-1.10277
-1.10287
-1.10297
-1.10307
-1.10318
-1.10328
-1.10339
-1.10349
-1.1036
-1.10371
-1.10382
-1.10393
-1.10404
-1.10415
-1.12275
-1.1228
-1.12286
-1.12292
-1.12297
-1.12303
-1.12309
-1.12316
-1.12322
-1.12328
-1.12335
-1.12342
-1.12349
-1.12356
-1.12363
-1.12371
-1.12378
-1.12386
-1.12394
-1.12401
-1.12409
-1.12418
-1.12426
-1.12434
-1.12443
-1.12451
-1.1246
-1.12469
-1.12478
-1.12487
-1.12496
-1.12505
-1.12515
-1.12524
-1.12534
-1.12543
-1.12553
-1.12563
-1.12573
-1.12583
-1.12593
-1.12603
-1.12613
-1.12624
-1.12634
-1.12644
-1.12655
-1.12666
-1.12676
-1.12687
-1.14589
-1.14595
-1.146
-1.14606
-1.14611
-1.14617
-1.14623
-1.14629
-1.14636
-1.14642
-1.14649
-1.14655
-1.14662
-1.14669
-1.14676
-1.14683
-1.1469
-1.14698
-1.14705
-1.14713
-1.14721
-1.14729
-1.14737
-1.14745
-1.14753
-1.14761
-1.1477
-1.14778
-1.14787
-1.14796
-1.14804
-1.14813
-1.14822
-1.14831
-1.1484
-1.1485
-1.14859
-1.14868
-1.14878
-1.14887
-1.14897
-1.14907
-1.14916
-1.14926
-1.14936
-1.14946
-1.14956
-1.14966
-1.14976
-1.14986
-1.16932
-1.16937
-1.16943
-1.16948
-1.16954
-1.16959
-1.16965
-1.16971
-1.16977
-1.16983
-1.1699
-1.16996
-1.17003
-1.17009
-1.17016
-1.17023
-1.1703
-1.17037
-1.17044
-1.17052
-1.17059
-1.17067
-1.17074
-1.17082
-1.1709
-1.17098
-1.17106
-1.17114
-1.17122
-1.17131
-1.17139
-1.17148
-1.17156
-1.17165
-1.17173
-1.17182
-1.17191
-1.172
-1.17209
-1.17218
-1.17227
-1.17236
-1.17245
-1.17255
-1.17264
-1.17273
-1.17283
-1.17292
-1.17302
-1.17311
-1.19308
-1.19312
-1.19316
-1.1932
-1.19325
-1.1933
-1.19335
-1.1934
-1.19345
-1.19351
-1.19356
-1.19362
-1.19368
-1.19374
-1.1938
-1.19386
-1.19393
-1.19399
-1.19406
-1.19412
-1.19419
-1.19426
-1.19433
-1.19441
-1.19448
-1.19455
-1.19463
-1.1947
-1.19478
-1.19486
-1.19493
-1.19501
-1.19509
-1.19517
-1.19525
-1.19534
-1.19542
-1.1955
-1.19559
-1.19567
-1.19576
-1.19584
-1.19593
-1.19601
-1.1961
-1.19619
-1.19628
-1.19637
-1.19645
-1.19654
-1.21691
-1.21694
-1.21697
-1.21701
-1.21705
-1.21709
-1.21713
-1.21717
-1.21722
-1.21727
-1.21731
-1.21737
-1.21742
-1.21747
-1.21753
-1.21759
-1.21765
-1.21771
-1.21777
-1.21783
-1.21789
-1.21796
-1.21802
-1.21809
-1.21816
-1.21823
-1.2183
-1.21837
-1.21844
-1.21851
-1.21859
-1.21866
-1.21874
-1.21881
-1.21889
-1.21897
-1.21905
-1.21912
-1.2192
-1.21928
-1.21936
-1.21944
-1.21953
-1.21961
-1.21969
-1.21977
-1.21986
-1.21994
-1.22002
-1.22011
-1.24059
-1.24061
-1.24064
-1.24067
-1.24071
-1.24075
-1.24078
-1.24083
-1.24087
-1.24091
-1.24096
-1.24101
-1.24106
-1.24111
-1.24117
-1.24122
-1.24128
-1.24134
-1.2414
-1.24146
-1.24152
-1.24158
-1.24164
-1.24171
-1.24177
-1.24184
-1.24191
-1.24198
-1.24205
-1.24212
-1.24219
-1.24226
-1.24233
-1.24241
-1.24248
-1.24255
-1.24263
-1.24271
-1.24278
-1.24286
-1.24294
-1.24301
-1.24309
-1.24317
-1.24325
-1.24333
-1.24341
-1.24349
-1.24357
-1.24365
-1.26376
-1.26381
-1.26385
-1.2639
-1.26395
-1.264
-1.26406
-1.26411
-1.26417
-1.26423
-1.26429
-1.26435
-1.26441
-1.26447
-1.26454
-1.2646
-1.26467
-1.26474
-1.2648
-1.26487
-1.26494
-1.26501
-1.26509
-1.26516
-1.26523
-1.2653
-1.26538
-1.26545
-1.26553
-1.2656
-1.26568
-1.26576
-1.26583
-1.26591
-1.26599
-1.26607
-1.26614
-1.26622
-1.2663
-1.26638
-1.26646
-1.26654
-1.26662
-1.2667
-1.26678
-1.26686
-1.26694
-1.26702
-1.2671
-1.26718
-1.28645
-1.28653
-1.28661
-1.28669
-1.28677
-1.28686
-1.28694
-1.28702
-1.2871
-1.28718
-1.28726
-1.28734
-1.28742
-1.28751
-1.28759
-1.28767
-1.28775
-1.28783
-1.28792
-1.288
-1.28808
-1.28816
-1.28825
-1.28833
-1.28841
-1.2885
-1.28858
-1.28866
-1.28875
-1.28883
-1.28891
-1.289
-1.28908
-1.28916
-1.28925
-1.28933
-1.28942
-1.2895
-1.28958
-1.28967
-1.28975
-1.28983
-1.28992
-1.29
-1.29009
-1.29017
-1.29025
-1.29033
-1.29042
-1.2905
-1.30867
-1.30881
-1.30895
-1.30908
-1.30921
-1.30934
-1.30947
-1.30959
-1.30972
-1.30984
-1.30996
-1.31008
-1.3102
-1.31032
-1.31043
-1.31054
-1.31066
-1.31077
-1.31088
-1.31099
-1.3111
-1.3112
-1.31131
-1.31141
-1.31152
-1.31162
-1.31172
-1.31182
-1.31192
-1.31202
-1.31212
-1.31222
-1.31232
-1.31241
-1.31251
-1.3126
-1.3127
-1.31279
-1.31288
-1.31298
-1.31307
-1.31316
-1.31325
-1.31334
-1.31343
-1.31352
-1.3136
-1.31369
-1.31378
-1.31387
-0.884372
-0.884418
-0.884464
-0.88451
-0.884556
-0.884603
-0.88465
-0.884697
-0.884744
-0.884791
-0.884839
-0.884886
-0.884934
-0.884982
-0.885031
-0.885079
-0.885128
-0.885176
-0.885225
-0.885274
-0.885324
-0.885373
-0.885423
-0.885472
-0.885522
-0.885572
-0.885622
-0.885673
-0.885723
-0.885774
-0.885824
-0.885875
-0.885926
-0.885977
-0.886029
-0.886081
-0.886132
-0.886184
-0.886236
-0.886289
-0.886342
-0.886395
-0.886448
-0.886501
-0.886555
-0.886609
-0.886663
-0.886718
-0.886773
-0.886827
-0.886882
-0.886938
-0.886996
-0.887053
-0.887112
-0.887166
-0.887218
-0.887157
-0.887368
-0.887463
-0.887525
-0.887591
-0.887665
-0.88773
-0.887795
-0.887862
-0.887929
-0.887996
-0.888063
-0.888135
-0.888209
-0.888273
-0.888349
-0.888418
-0.888494
-0.888561
-0.888627
-0.888694
-0.888761
-0.888828
-0.888893
-0.888958
-0.889022
-0.889086
-0.889149
-0.889211
-0.889272
-0.889332
-0.889392
-0.888816
-0.889715
-0.889753
-0.889817
-0.889867
-0.889917
-0.889963
-0.889715
-0.890136
-0.890178
-0.890225
-0.890257
-0.890286
-0.89031
-0.89033
-0.890349
-0.890361
-0.89038
-0.890417
-0.890459
-0.890387
-0.890364
-0.89132
-0.891448
-0.891444
-0.891443
-0.891481
-0.891529
-0.891577
-0.891628
-0.891682
-0.891739
-0.891799
-0.891863
-0.89193
-0.891999
-0.892071
-0.892147
-0.892225
-0.892306
-0.89239
-0.892477
-0.892566
-0.892658
-0.892753
-0.892851
-0.892951
-0.893055
-0.893164
-0.893271
-0.893358
-0.893377
-0.888706
-0.890886
-0.891333
-0.891542
-0.891603
-0.891734
-0.892137
-0.892263
-0.892373
-0.892481
-0.892585
-0.892685
-0.892777
-0.892864
-0.892946
-0.893025
-0.893094
-0.893149
-0.893214
-0.893267
-0.893312
-0.893344
-0.892755
-0.894196
-0.894235
-0.894273
-0.894313
-0.894354
-0.894394
-0.89444
-0.894485
-0.89453
-0.894576
-0.894621
-0.894667
-0.894713
-0.894758
-0.894797
-0.894452
-0.89539
-0.895442
-0.895498
-0.89556
-0.895628
-0.8957
-0.895779
-0.895865
-0.895961
-0.896073
-0.894566
-0.894976
-0.89517
-0.895279
-0.895378
-0.895464
-0.89555
-0.895629
-0.895702
-0.89577
-0.895833
-0.895715
-0.896031
-0.896092
-0.896153
-0.896208
-0.896262
-0.896315
-0.896367
-0.896418
-0.896467
-0.896515
-0.896566
-0.896613
-0.896659
-0.896704
-0.896749
-0.896794
-0.89684
-0.896885
-0.896929
-0.896972
-0.897015
-0.897057
-0.897099
-0.897142
-0.897184
-0.897227
-0.897271
-0.897315
-0.897338
-0.89736
-0.897444
-0.897484
-0.897526
-0.897564
-0.897592
-0.897629
-0.897672
-0.897711
-0.897748
-0.897785
-0.897821
-0.897858
-0.897908
-0.897917
-0.897666
-0.898283
-0.898294
-0.898481
-0.898418
-0.898524
-0.898564
-0.8986
-0.898639
-0.89868
-0.898727
-0.898773
-0.898421
-0.89833
-0.89885
-0.898889
-0.898928
-0.898968
-0.899007
-0.899046
-0.899085
-0.899124
-0.899163
-0.899203
-0.899242
-0.899281
-0.899321
-0.89936
-0.899399
-0.899438
-0.899476
-0.899515
-0.899553
-0.899591
-0.899629
-0.899666
-0.899703
-0.89974
-0.899776
-0.899812
-0.899848
-0.899883
-0.899918
-0.899952
-0.899987
-0.90002
-0.900054
-0.900087
-0.90012
-0.900153
-0.900185
-0.900217
-0.900249
-0.90028
-0.906488
-0.906541
-0.906595
-0.90665
-0.906704
-0.906759
-0.906814
-0.90687
-0.906925
-0.906981
-0.907038
-0.907094
-0.907151
-0.907208
-0.907265
-0.907323
-0.90738
-0.907438
-0.907496
-0.907555
-0.907613
-0.907672
-0.907731
-0.907791
-0.90785
-0.90791
-0.90797
-0.90803
-0.90809
-0.90815
-0.908211
-0.908272
-0.908333
-0.908394
-0.908456
-0.908517
-0.908579
-0.908641
-0.908703
-0.908765
-0.908828
-0.90889
-0.908953
-0.909016
-0.909078
-0.909141
-0.909204
-0.909268
-0.909331
-0.909395
-0.909459
-0.909522
-0.909586
-0.90965
-0.909714
-0.909778
-0.909842
-0.909906
-0.909973
-0.910038
-0.910004
-0.910182
-0.910271
-0.910338
-0.910402
-0.910467
-0.910531
-0.910596
-0.910661
-0.910726
-0.91079
-0.910854
-0.910919
-0.910983
-0.911047
-0.911111
-0.911175
-0.911239
-0.911302
-0.911365
-0.911427
-0.911489
-0.911551
-0.911612
-0.911672
-0.911731
-0.91179
-0.911848
-0.911904
-0.91196
-0.912019
-0.912067
-0.912094
-0.912138
-0.912184
-0.912229
-0.912505
-0.912537
-0.912559
-0.912591
-0.912653
-0.912695
-0.912734
-0.912778
-0.912811
-0.912771
-0.912702
-0.912724
-0.912844
-0.913221
-0.913278
-0.913217
-0.913256
-0.913316
-0.913374
-0.913425
-0.913475
-0.913524
-0.913573
-0.91362
-0.913667
-0.913714
-0.91376
-0.913806
-0.913851
-0.913897
-0.913942
-0.913988
-0.914035
-0.914082
-0.91413
-0.914179
-0.914229
-0.914282
-0.914337
-0.914396
-0.914458
-0.914523
-0.914575
-0.914581
-0.914494
-0.913881
-0.914067
-0.914713
-0.91499
-0.915134
-0.915237
-0.915287
-0.915402
-0.915505
-0.915582
-0.915629
-0.915747
-0.915799
-0.91586
-0.915926
-0.915986
-0.916033
-0.916079
-0.916111
-0.916157
-0.916199
-0.916234
-0.91538
-0.916685
-0.916736
-0.916781
-0.916829
-0.916877
-0.916925
-0.916974
-0.917027
-0.917078
-0.917128
-0.917177
-0.917225
-0.917272
-0.917318
-0.917359
-0.917042
-0.91795
-0.917995
-0.918042
-0.91809
-0.918145
-0.918198
-0.918251
-0.918302
-0.918352
-0.918398
-0.917286
-0.917529
-0.917637
-0.917693
-0.917749
-0.917805
-0.917864
-0.917923
-0.917985
-0.918045
-0.918073
-0.918008
-0.91842
-0.918488
-0.918559
-0.918618
-0.918671
-0.918727
-0.918779
-0.918829
-0.918868
-0.918879
-0.918999
-0.919046
-0.919093
-0.919139
-0.919184
-0.91923
-0.919275
-0.91932
-0.919365
-0.919409
-0.919451
-0.919493
-0.919537
-0.919578
-0.919618
-0.919659
-0.919699
-0.919735
-0.919629
-0.919885
-0.91992
-0.919955
-0.91999
-0.920025
-0.92006
-0.920096
-0.920131
-0.920165
-0.920199
-0.920231
-0.920261
-0.920287
-0.920324
-0.920318
-0.920336
-0.920688
-0.920722
-0.920756
-0.920794
-0.920834
-0.920875
-0.920919
-0.92096
-0.921005
-0.921055
-0.921082
-0.920617
-0.920778
-0.920915
-0.921001
-0.921074
-0.921141
-0.921203
-0.921261
-0.921315
-0.921366
-0.921415
-0.921462
-0.921507
-0.921551
-0.921594
-0.921635
-0.921676
-0.921716
-0.921755
-0.921794
-0.921832
-0.921869
-0.921907
-0.921943
-0.92198
-0.922016
-0.922051
-0.922086
-0.922121
-0.922156
-0.92219
-0.922224
-0.922257
-0.92229
-0.922323
-0.922356
-0.922388
-0.92242
-0.922452
-0.922483
-0.922515
-0.922546
-0.928486
-0.928545
-0.928605
-0.928665
-0.928725
-0.928786
-0.928847
-0.928909
-0.92897
-0.929032
-0.929094
-0.929157
-0.92922
-0.929283
-0.929346
-0.92941
-0.929474
-0.929538
-0.929602
-0.929667
-0.929732
-0.929797
-0.929863
-0.929928
-0.929994
-0.93006
-0.930127
-0.930193
-0.93026
-0.930327
-0.930394
-0.930462
-0.93053
-0.930598
-0.930666
-0.930734
-0.930803
-0.930872
-0.930941
-0.93101
-0.93108
-0.931149
-0.931219
-0.93129
-0.93136
-0.931431
-0.931502
-0.931574
-0.931645
-0.931717
-0.931789
-0.931862
-0.931934
-0.932008
-0.932081
-0.932155
-0.932229
-0.932304
-0.932379
-0.932455
-0.932531
-0.932608
-0.932685
-0.932762
-0.93284
-0.932919
-0.932998
-0.933077
-0.933158
-0.933239
-0.93332
-0.933403
-0.933486
-0.93357
-0.933655
-0.933741
-0.933828
-0.933916
-0.934005
-0.934095
-0.934187
-0.934281
-0.934376
-0.934473
-0.934572
-0.934672
-0.934776
-0.934879
-0.93496
-0.93507
-0.935186
-0.935289
-0.934838
-0.934959
-0.93511
-0.935244
-0.935359
-0.935491
-0.935602
-0.935709
-0.935824
-0.935941
-0.936041
-0.93609
-0.934133
-0.934571
-0.934779
-0.934663
-0.934732
-0.934839
-0.934951
-0.935057
-0.935153
-0.935243
-0.935329
-0.935407
-0.935484
-0.935557
-0.935626
-0.93569
-0.93575
-0.935806
-0.935858
-0.935906
-0.93595
-0.93599
-0.936026
-0.936056
-0.936082
-0.9361
-0.936112
-0.936118
-0.936123
-0.936116
-0.936095
-0.936074
-0.93607
-0.936048
-0.935976
-0.935616
-0.932559
-0.939621
-0.939373
-0.939156
-0.939083
-0.939027
-0.938993
-0.938949
-0.938916
-0.938906
-0.938896
-0.938891
-0.938895
-0.938891
-0.938893
-0.939027
-0.938956
-0.939033
-0.939
-0.93905
-0.939019
-0.939199
-0.938343
-0.939009
-0.939109
-0.939185
-0.93926
-0.939336
-0.939409
-0.939483
-0.939558
-0.939633
-0.939708
-0.939784
-0.939861
-0.939941
-0.940024
-0.94011
-0.939839
-0.939922
-0.940142
-0.94023
-0.940319
-0.9404
-0.94048
-0.94056
-0.940642
-0.940729
-0.940815
-0.939761
-0.93992
-0.940122
-0.940202
-0.940276
-0.94036
-0.94043
-0.94039
-0.940574
-0.940588
-0.940641
-0.940672
-0.940578
-0.941005
-0.941082
-0.94112
-0.941132
-0.941185
-0.941244
-0.941287
-0.941321
-0.94136
-0.941466
-0.941509
-0.941551
-0.941592
-0.941633
-0.941675
-0.941716
-0.941758
-0.941798
-0.941839
-0.941882
-0.941852
-0.941986
-0.942025
-0.942065
-0.942109
-0.942152
-0.942217
-0.942185
-0.942274
-0.942325
-0.942366
-0.942405
-0.942444
-0.942483
-0.942521
-0.942557
-0.942592
-0.942631
-0.942667
-0.942707
-0.942766
-0.942822
-0.942622
-0.942677
-0.942901
-0.942955
-0.942997
-0.943035
-0.94307
-0.943102
-0.943133
-0.943161
-0.943173
-0.943188
-0.943194
-0.943138
-0.942886
-0.943464
-0.943516
-0.943542
-0.94357
-0.943601
-0.943634
-0.943668
-0.943703
-0.943739
-0.943775
-0.943812
-0.943848
-0.943885
-0.943921
-0.943957
-0.943993
-0.944029
-0.944065
-0.9441
-0.944135
-0.94417
-0.944205
-0.94424
-0.944274
-0.944308
-0.944342
-0.944375
-0.944409
-0.944442
-0.944474
-0.944507
-0.944539
-0.944572
-0.944604
-0.944635
-0.944667
-0.944698
-0.944729
-0.94476
-0.944791
-0.94482
-0.950389
-0.950452
-0.950516
-0.95058
-0.950644
-0.950709
-0.950774
-0.950839
-0.950905
-0.950971
-0.951037
-0.951104
-0.951171
-0.951239
-0.951307
-0.951375
-0.951444
-0.951513
-0.951582
-0.951651
-0.951721
-0.951792
-0.951862
-0.951933
-0.952004
-0.952075
-0.952147
-0.952219
-0.952291
-0.952364
-0.952437
-0.95251
-0.952583
-0.952657
-0.952731
-0.952805
-0.95288
-0.952954
-0.953029
-0.953105
-0.95318
-0.953256
-0.953332
-0.953408
-0.953484
-0.953561
-0.953638
-0.953715
-0.953792
-0.95387
-0.953947
-0.954025
-0.954103
-0.954182
-0.95426
-0.954339
-0.954418
-0.954497
-0.954576
-0.954656
-0.954736
-0.954816
-0.954896
-0.954976
-0.955057
-0.955137
-0.955218
-0.955299
-0.95538
-0.95546
-0.955541
-0.955622
-0.955703
-0.955784
-0.955865
-0.955946
-0.956027
-0.956108
-0.956188
-0.956269
-0.956349
-0.956428
-0.956506
-0.956583
-0.956662
-0.956504
-0.956571
-0.956959
-0.957022
-0.956906
-0.957137
-0.957188
-0.957237
-0.9573
-0.957362
-0.957423
-0.957519
-0.957578
-0.957085
-0.957408
-0.95751
-0.957564
-0.957635
-0.957724
-0.957823
-0.957886
-0.957954
-0.958021
-0.958087
-0.958147
-0.958204
-0.95826
-0.958313
-0.958367
-0.958287
-0.958427
-0.958513
-0.958509
-0.958707
-0.958801
-0.95886
-0.958917
-0.958976
-0.959036
-0.959099
-0.959162
-0.959227
-0.959294
-0.959367
-0.95944
-0.959492
-0.959663
-0.959443
-0.959496
-0.959577
-0.959629
-0.959436
-0.960071
-0.960079
-0.960102
-0.960245
-0.960345
-0.960437
-0.960525
-0.960608
-0.960513
-0.960791
-0.960864
-0.960882
-0.960959
-0.960766
-0.960841
-0.960937
-0.960941
-0.960985
-0.961131
-0.961105
-0.961159
-0.961445
-0.961499
-0.961548
-0.961598
-0.961652
-0.961703
-0.961756
-0.96181
-0.961866
-0.961922
-0.96198
-0.962039
-0.962099
-0.96216
-0.962223
-0.962287
-0.962352
-0.962419
-0.962487
-0.962337
-0.96248
-0.962553
-0.962677
-0.962765
-0.96274
-0.962859
-0.962838
-0.962919
-0.962991
-0.962612
-0.962701
-0.962785
-0.962802
-0.962854
-0.962903
-0.962967
-0.963017
-0.963049
-0.963172
-0.963231
-0.963287
-0.963343
-0.9634
-0.963462
-0.96346
-0.963618