/*--------------------------------*- C++ -*----------------------------------*\
| =========                 |                                                 |
| \\      /  F ield         | OpenFOAM: The Open Source CFD Toolbox           |
|  \\    /   O peration     | Version:  2.4.0                                 |
|   \\  /    A nd           | Web:      www.OpenFOAM.org                      |
|    \\/     M anipulation  |                                                 |
\*---------------------------------------------------------------------------*/
FoamFile
{
    version     2.0;
    format      ascii;
    class       surfaceScalarField;
    location    "3.1";
    object      phi;
}
// * * * * * * * * * * * * * * * * * * * * * * * * * * * * * * * * * * * * * //

dimensions      [0 3 -1 0 0 0 0];

internalField   nonuniform List<scalar> 
15580
(
1.68506e-14
-2.26758e-12
3.8264e-14
-6.61747e-12
3.16332e-14
-1.07978e-11
-3.47796e-14
-1.48211e-11
-1.92506e-13
-1.86887e-11
-4.69533e-13
-2.24087e-11
-8.9702e-13
-2.59789e-11
-1.50122e-12
-2.9409e-11
-2.31625e-12
-3.26917e-11
-3.36813e-12
-3.58406e-11
-4.69766e-12
-3.88407e-11
-6.3311e-12
-4.1712e-11
-8.31978e-12
-4.44286e-11
-1.06892e-11
-4.70218e-11
-1.35053e-11
-4.94493e-11
-1.67895e-11
-5.1761e-11
-2.06248e-11
-5.38922e-11
-2.50207e-11
-5.5923e-11
-3.00862e-11
-5.77521e-11
-3.59178e-11
-5.93992e-11
-4.24529e-11
-6.1029e-11
-8.75614e-11
-6.23172e-11
-1.19752e-10
-6.26207e-11
-1.64286e-10
-2.78282e-11
-1.44328e-10
-8.85383e-11
-8.28665e-11
-5.43406e-11
-1.12347e-10
-2.69951e-11
-5.95273e-11
-3.5482e-11
6.19498e-12
-4.72167e-11
1.05575e-10
-7.4511e-11
2.11941e-10
-9.65747e-11
3.05662e-10
-1.1539e-10
3.92208e-10
-1.34763e-10
4.73062e-10
-1.53366e-10
5.44243e-10
-1.68818e-10
6.0667e-10
-1.84322e-10
6.60555e-10
-1.99351e-10
7.05996e-10
-2.13558e-10
7.43207e-10
-2.26868e-10
7.7214e-10
-2.39876e-10
7.93039e-10
-2.52204e-10
8.0706e-10
-2.63378e-10
8.16149e-10
-2.74094e-10
8.19924e-10
-2.83973e-10
8.18791e-10
-2.93239e-10
8.13251e-10
-3.01918e-10
8.0381e-10
-3.10039e-10
7.90954e-10
-3.17634e-10
7.75142e-10
-3.24734e-10
-3.31374e-10
7.568e-10
-2.12006e-13
-2.05557e-12
-7.79341e-13
-6.05013e-12
-1.66883e-12
-9.90836e-12
-2.86515e-12
-1.36247e-11
-4.35778e-12
-1.71961e-11
-6.13785e-12
-2.06286e-11
-8.20307e-12
-2.39136e-11
-1.0551e-11
-2.70611e-11
-1.31884e-11
-3.00543e-11
-1.61194e-11
-3.29096e-11
-1.93615e-11
-3.55986e-11
-2.29254e-11
-3.81481e-11
-2.68414e-11
-4.05127e-11
-3.11275e-11
-4.27357e-11
-3.58288e-11
-4.4748e-11
-4.09717e-11
-4.66181e-11
-4.66183e-11
-4.82457e-11
-5.28094e-11
-4.97319e-11
-5.96388e-11
-5.09227e-11
-7.15961e-11
-5.23819e-11
-1.31113e-10
-5.31347e-11
-1.45199e-10
-4.86857e-11
-1.48069e-10
-5.97508e-11
-1.13743e-10
-6.21543e-11
-1.4782e-10
-5.44608e-11
-1.21968e-10
-8.01924e-11
-6.18157e-11
-8.71479e-11
5.74106e-12
-1.03039e-10
7.70348e-11
-1.1851e-10
1.35732e-10
-1.33208e-10
1.8654e-10
-1.47383e-10
2.32191e-10
-1.61041e-10
2.71735e-10
-1.74307e-10
3.05358e-10
-1.86989e-10
3.35694e-10
-1.99154e-10
3.61798e-10
-2.10426e-10
3.83626e-10
-2.21179e-10
4.01277e-10
-2.31209e-10
4.15099e-10
-2.4069e-10
4.24812e-10
-2.49589e-10
4.30565e-10
-2.57957e-10
4.33099e-10
-2.65912e-10
4.3242e-10
-2.73415e-10
4.28975e-10
-2.80528e-10
4.22992e-10
-2.87257e-10
4.14701e-10
-2.93627e-10
4.04327e-10
-2.99665e-10
3.92089e-10
-3.05396e-10
3.78194e-10
-3.10839e-10
-3.16015e-10
3.62834e-10
-4.96788e-14
-2.00589e-12
-2.66341e-13
-5.83347e-12
-6.86274e-13
-9.48843e-12
-1.33248e-12
-1.29785e-11
-2.2262e-12
-1.63024e-11
-3.39194e-12
-1.94629e-11
-4.85009e-12
-2.24555e-11
-6.6269e-12
-2.52843e-11
-8.74082e-12
-2.79404e-11
-1.12202e-11
-3.04302e-11
-1.408e-11
-3.27388e-11
-1.73513e-11
-3.48768e-11
-2.1043e-11
-3.68211e-11
-2.51894e-11
-3.85893e-11
-2.97909e-11
-4.01465e-11
-3.48915e-11
-4.15175e-11
-4.0489e-11
-4.26482e-11
-4.66253e-11
-4.35955e-11
-7.1646e-11
-4.45629e-11
-1.17116e-10
-4.57359e-11
-1.20054e-10
-5.01962e-11
-1.12306e-10
-5.64343e-11
-1.12526e-10
-5.95307e-11
-9.74334e-11
-7.72466e-11
-6.22547e-11
-8.96395e-11
-3.81319e-11
-1.04315e-10
-5.965e-12
-1.19315e-10
2.41459e-11
-1.3315e-10
5.17568e-11
-1.46121e-10
7.68326e-11
-1.58284e-10
9.91555e-11
-1.69706e-10
1.186e-10
-1.80485e-10
1.34899e-10
-1.90606e-10
1.47989e-10
-2.00079e-10
1.57785e-10
-2.0895e-10
1.64659e-10
-2.173e-10
1.68632e-10
-2.25152e-10
1.70002e-10
-2.32578e-10
1.68907e-10
-2.39596e-10
1.65566e-10
-2.46248e-10
1.60176e-10
-2.52567e-10
1.52843e-10
-2.58578e-10
1.4374e-10
-2.64313e-10
1.33006e-10
-2.69794e-10
1.20789e-10
-2.7504e-10
1.07228e-10
-2.80066e-10
9.24517e-11
-2.84889e-10
7.6576e-11
-2.8952e-10
5.97067e-11
-2.9397e-10
-2.98247e-10
4.19392e-11
-1.26955e-13
-1.87894e-12
-5.08361e-13
-5.45207e-12
-1.15654e-12
-8.84025e-12
-2.09203e-12
-1.20431e-11
-3.3336e-12
-1.50608e-11
-4.90371e-12
-1.78928e-11
-6.82012e-12
-2.05391e-11
-9.10649e-12
-2.29979e-11
-1.17776e-11
-2.52693e-11
-1.48576e-11
-2.73502e-11
-1.83558e-11
-2.92406e-11
-2.22967e-11
-3.0936e-11
-2.66811e-11
-3.24366e-11
-3.15354e-11
-3.3735e-11
-3.68508e-11
-3.4831e-11
-4.26477e-11
-3.57205e-11
-4.8863e-11
-3.64329e-11
-8.64937e-11
-3.70904e-11
-1.26073e-10
-3.77283e-11
-1.32162e-10
-3.96461e-11
-1.35909e-10
-4.64491e-11
-1.29852e-10
-6.24915e-11
-1.10024e-10
-7.93592e-11
-9.32833e-11
-9.39871e-11
-7.46818e-11
-1.08241e-10
-5.77702e-11
-1.21227e-10
-4.38553e-11
-1.3323e-10
-3.26629e-11
-1.44342e-10
-2.41565e-11
-1.54628e-10
-1.82663e-11
-1.64174e-10
-1.49217e-11
-1.73051e-10
-1.40751e-11
-1.81332e-10
-1.55978e-11
-1.89083e-10
-1.9311e-11
-1.96366e-10
-2.50426e-11
-2.03219e-10
-3.26555e-11
-2.09687e-10
-4.19956e-11
-2.15812e-10
-5.29414e-11
-2.21632e-10
-6.53547e-11
-2.27182e-10
-7.91101e-11
-2.32492e-10
-9.40904e-11
-2.37587e-10
-1.10183e-10
-2.42486e-10
-1.27289e-10
-2.47207e-10
-1.45319e-10
-2.51764e-10
-1.6419e-10
-2.56169e-10
-1.83826e-10
-2.60431e-10
-2.04158e-10
-2.64556e-10
-2.25127e-10
-2.68551e-10
-2.46679e-10
-2.72418e-10
-2.76161e-10
-2.68766e-10
-2.01789e-13
-1.67715e-12
-7.97056e-13
-4.8568e-12
-1.77543e-12
-7.86188e-12
-3.12677e-12
-1.06917e-11
-4.84275e-12
-1.33448e-11
-6.91559e-12
-1.582e-11
-9.33909e-12
-1.81156e-11
-1.21065e-11
-2.02305e-11
-1.52128e-11
-2.2163e-11
-1.86511e-11
-2.39119e-11
-2.24162e-11
-2.54754e-11
-2.64999e-11
-2.68524e-11
-3.08957e-11
-2.80408e-11
-3.55921e-11
-2.90386e-11
-4.0583e-11
-2.98402e-11
-4.58613e-11
-3.04422e-11
-6.60431e-11
-3.08647e-11
-1.14635e-10
-3.13404e-11
-1.20862e-10
-3.15007e-11
-1.22696e-10
-3.78119e-11
-1.15444e-10
-5.37015e-11
-1.08648e-10
-6.92872e-11
-1.04689e-10
-8.3319e-11
-1.02432e-10
-9.62436e-11
-1.02508e-10
-1.08165e-10
-1.04611e-10
-1.19124e-10
-1.08651e-10
-1.2919e-10
-1.14551e-10
-1.38442e-10
-1.22222e-10
-1.46957e-10
-1.31582e-10
-1.54813e-10
-1.42548e-10
-1.62085e-10
-1.55035e-10
-1.68845e-10
-1.68962e-10
-1.75156e-10
-1.84248e-10
-1.8108e-10
-2.00797e-10
-1.8667e-10
-2.18513e-10
-1.91971e-10
-2.37303e-10
-1.97022e-10
-2.57077e-10
-2.01858e-10
-2.77753e-10
-2.06507e-10
-2.99254e-10
-2.10991e-10
-3.21512e-10
-2.15329e-10
-3.4446e-10
-2.19537e-10
-3.68043e-10
-2.23624e-10
-3.92206e-10
-2.276e-10
-4.16905e-10
-2.3147e-10
-4.42099e-10
-2.35237e-10
-4.6775e-10
-2.38905e-10
-4.93828e-10
-2.42473e-10
-5.20302e-10
-2.45944e-10
-2.49315e-10
-5.47147e-10
-1.82025e-13
-1.49512e-12
-7.08488e-13
-4.33034e-12
-1.56378e-12
-7.00659e-12
-2.73446e-12
-9.52103e-12
-4.20756e-12
-1.18717e-11
-5.97032e-12
-1.40572e-11
-8.0102e-12
-1.60757e-11
-1.03145e-11
-1.79262e-11
-1.28706e-11
-1.96069e-11
-1.56651e-11
-2.11175e-11
-1.86844e-11
-2.24561e-11
-2.19141e-11
-2.36226e-11
-2.53403e-11
-2.46146e-11
-2.89467e-11
-2.54322e-11
-3.2708e-11
-2.60789e-11
-3.70493e-11
-2.65762e-11
-1.06595e-10
-2.70119e-11
-1.10861e-10
-2.70742e-11
-1.14143e-10
-2.82191e-11
-1.11097e-10
-4.08579e-11
-1.10189e-10
-5.46091e-11
-1.12336e-10
-6.71404e-11
-1.17045e-10
-7.86098e-11
-1.24215e-10
-8.9074e-11
-1.33778e-10
-9.86015e-11
-1.45627e-10
-1.07275e-10
-1.59633e-10
-1.15184e-10
-1.75655e-10
-1.2242e-10
-1.93542e-10
-1.2907e-10
-2.13138e-10
-1.35217e-10
-2.34289e-10
-1.40934e-10
-2.56847e-10
-1.46287e-10
-2.8067e-10
-1.51334e-10
-3.05625e-10
-1.56125e-10
-3.31591e-10
-1.60704e-10
-3.58457e-10
-1.65105e-10
-3.86121e-10
-1.69358e-10
-4.14494e-10
-1.73485e-10
-4.43495e-10
-1.77506e-10
-4.73054e-10
-1.81432e-10
-5.0311e-10
-1.85273e-10
-5.3361e-10
-1.89036e-10
-5.6451e-10
-1.92725e-10
-5.95771e-10
-1.9634e-10
-6.27359e-10
-1.99881e-10
-6.59247e-10
-2.03349e-10
-6.91411e-10
-2.06741e-10
-7.23829e-10
-2.10056e-10
-7.56482e-10
-2.1329e-10
-2.16443e-10
-7.89355e-10
-1.06618e-13
-1.38851e-12
-4.24462e-13
-4.01249e-12
-9.51589e-13
-6.47946e-12
-1.68606e-12
-8.78656e-12
-2.62547e-12
-1.09323e-11
-3.7675e-12
-1.29152e-11
-5.10944e-12
-1.47337e-11
-6.649e-12
-1.63866e-11
-8.38359e-12
-1.78723e-11
-1.03114e-11
-1.91897e-11
-1.24303e-11
-2.03372e-11
-1.47395e-11
-2.13134e-11
-1.72381e-11
-2.2116e-11
-1.99261e-11
-2.27442e-11
-2.2801e-11
-2.32039e-11
-3.53687e-11
-2.35181e-11
-8.70556e-11
-2.37566e-11
-9.03604e-11
-2.37694e-11
-8.99005e-11
-2.8679e-11
-9.14668e-11
-3.92916e-11
-9.69765e-11
-4.90995e-11
-1.06057e-10
-5.806e-11
-1.18483e-10
-6.61841e-11
-1.34018e-10
-7.35388e-11
-1.52409e-10
-8.02106e-11
-1.73395e-10
-8.62889e-11
-1.96718e-10
-9.18609e-11
-2.22129e-10
-9.70086e-11
-2.49393e-10
-1.01806e-10
-2.7829e-10
-1.06321e-10
-3.08615e-10
-1.10608e-10
-3.40185e-10
-1.14717e-10
-3.7283e-10
-1.18688e-10
-4.06402e-10
-1.22554e-10
-4.40766e-10
-1.26339e-10
-4.75808e-10
-1.30063e-10
-5.11427e-10
-1.33739e-10
-5.47537e-10
-1.37376e-10
-5.84063e-10
-1.40979e-10
-6.20946e-10
-1.44549e-10
-6.58134e-10
-1.48086e-10
-6.95584e-10
-1.51586e-10
-7.33263e-10
-1.55046e-10
-7.71141e-10
-1.58461e-10
-8.09196e-10
-1.61826e-10
-8.47409e-10
-1.65136e-10
-8.85764e-10
-1.68386e-10
-9.24247e-10
-1.71572e-10
-9.62847e-10
-1.7469e-10
-1.77736e-10
-1.00155e-09
-4.1343e-14
-1.34716e-12
-1.81221e-13
-3.87262e-12
-4.27361e-13
-6.23332e-12
-7.83099e-13
-8.43082e-12
-1.25107e-12
-1.04643e-11
-1.83327e-12
-1.2333e-11
-2.53128e-12
-1.40357e-11
-3.34634e-12
-1.55715e-11
-4.27956e-12
-1.69391e-11
-5.33198e-12
-1.81373e-11
-6.50443e-12
-1.91648e-11
-7.79711e-12
-2.00207e-11
-9.21094e-12
-2.07022e-11
-1.07552e-11
-2.11999e-11
-1.2461e-11
-2.14981e-11
-4.03985e-11
-2.16077e-11
-7.64711e-11
-2.17934e-11
-7.8484e-11
-2.17565e-11
-7.98615e-11
-2.73015e-11
-8.6114e-11
-3.30391e-11
-9.70078e-11
-3.82057e-11
-1.12176e-10
-4.28914e-11
-1.31214e-10
-4.7146e-11
-1.53723e-10
-5.10306e-11
-1.79319e-10
-5.46144e-11
-2.07642e-10
-5.79657e-11
-2.38356e-10
-6.11471e-11
-2.71151e-10
-6.42134e-11
-3.05746e-10
-6.72113e-11
-3.41887e-10
-7.01793e-11
-3.79348e-10
-7.31475e-11
-4.17926e-10
-7.61387e-11
-4.57446e-10
-7.91686e-11
-4.97753e-10
-8.22467e-11
-5.38715e-10
-8.53772e-11
-5.80218e-10
-8.85598e-11
-6.22166e-10
-9.17903e-11
-6.64481e-10
-9.5062e-11
-7.07094e-10
-9.83656e-11
-7.49952e-10
-1.01691e-10
-7.93011e-10
-1.05027e-10
-8.36235e-10
-1.08362e-10
-8.79595e-10
-1.11686e-10
-9.23069e-10
-1.14987e-10
-9.66639e-10
-1.18257e-10
-1.01029e-09
-1.21486e-10
-1.05401e-09
-1.24668e-10
-1.09778e-09
-1.27796e-10
-1.14161e-09
-1.30866e-10
-1.33872e-10
-1.18547e-09
-5.80281e-14
-1.28914e-12
-2.13798e-13
-3.71685e-12
-4.55174e-13
-5.99194e-12
-7.73126e-13
-8.11287e-12
-1.15854e-12
-1.00789e-11
-1.60228e-12
-1.18892e-11
-2.09465e-12
-1.35434e-11
-2.62569e-12
-1.50405e-11
-3.18434e-12
-1.63805e-11
-3.75911e-12
-1.75625e-11
-4.33737e-12
-1.85865e-11
-4.90687e-12
-1.94512e-11
-5.45174e-12
-2.01573e-11
-5.94212e-12
-2.07096e-11
-6.31618e-12
-2.1124e-11
-9.44378e-11
-2.14207e-11
-9.96732e-11
-2.14241e-11
-1.00016e-10
-2.1414e-11
-1.05338e-10
-2.19793e-11
-1.15809e-10
-2.25683e-11
-1.31025e-10
-2.29895e-11
-1.50598e-10
-2.33182e-11
-1.74114e-10
-2.36299e-11
-2.01155e-10
-2.39901e-11
-2.31317e-10
-2.4452e-11
-2.64224e-10
-2.50593e-11
-2.99524e-10
-2.5847e-11
-3.36896e-10
-2.68408e-11
-3.7605e-10
-2.80577e-11
-4.16723e-10
-2.95065e-11
-4.58682e-10
-3.11887e-11
-5.01721e-10
-3.30991e-11
-5.45662e-10
-3.52273e-11
-5.90351e-10
-3.75584e-11
-6.35654e-10
-4.00739e-11
-6.8146e-10
-4.27533e-11
-7.27677e-10
-4.5574e-11
-7.74225e-10
-4.85134e-11
-8.21043e-10
-5.15483e-11
-8.68077e-10
-5.46568e-11
-9.15286e-10
-5.78177e-11
-9.62636e-10
-6.10117e-11
-1.0101e-09
-6.42212e-11
-1.05766e-09
-6.74305e-11
-1.10529e-09
-7.06261e-11
-1.15298e-09
-7.37964e-11
-1.20071e-09
-7.69316e-11
-1.24849e-09
-8.0024e-11
-1.29628e-09
-8.30672e-11
-8.60565e-11
-1.3441e-09
-2.84317e-14
-1.2607e-12
-1.04095e-13
-3.64118e-12
-2.19847e-13
-5.87619e-12
-3.69934e-13
-7.96279e-12
-5.49237e-13
-9.89962e-12
-7.52901e-13
-1.16856e-11
-9.76511e-13
-1.33198e-11
-1.21562e-12
-1.48014e-11
-1.4661e-12
-1.613e-11
-1.72348e-12
-1.73051e-11
-1.9833e-12
-1.83267e-11
-2.23979e-12
-1.91947e-11
-2.48722e-12
-1.99099e-11
-2.72412e-12
-2.04727e-11
-3.0133e-12
-2.08821e-11
-6.91341e-11
-2.1142e-11
-6.93186e-11
-2.12396e-11
-7.30032e-11
-1.77295e-11
-8.28765e-11
-1.21059e-11
-9.83688e-11
-7.07607e-12
-1.18876e-10
-2.48249e-12
-1.43863e-10
1.66905e-12
-1.72833e-10
5.34045e-12
-2.05311e-10
8.4879e-12
-2.40856e-10
1.10922e-11
-2.7906e-10
1.31454e-11
-3.19557e-10
1.46498e-11
-3.62014e-10
1.56162e-11
-4.06135e-10
1.60629e-11
-4.51656e-10
1.60152e-11
-4.98349e-10
1.55038e-11
-5.46012e-10
1.45636e-11
-5.94472e-10
1.32329e-11
-6.43582e-10
1.15519e-11
-6.93218e-10
9.56181e-12
-7.43275e-10
7.30353e-12
-7.93666e-10
4.81707e-12
-8.4432e-10
2.14046e-12
-8.95176e-10
-6.9188e-13
-9.46193e-10
-3.63989e-12
-9.97329e-10
-6.68105e-12
-1.04855e-09
-9.78629e-12
-1.09984e-09
-1.2932e-11
-1.15118e-09
-1.60978e-11
-1.20254e-09
-1.92667e-11
-1.25391e-09
-2.24242e-11
-1.30528e-09
-2.55588e-11
-1.35664e-09
-2.8661e-11
-1.40799e-09
-3.17237e-11
-3.47412e-11
-1.4593e-09
6.76104e-14
-1.32831e-12
2.54009e-13
-3.82758e-12
5.45879e-13
-6.16806e-12
9.31622e-13
-8.34853e-12
1.3997e-12
-1.03677e-11
1.93876e-12
-1.22246e-11
2.53729e-12
-1.39183e-11
3.18392e-12
-1.5448e-11
3.86681e-12
-1.68129e-11
4.57422e-12
-1.80125e-11
5.29367e-12
-1.90461e-11
6.01265e-12
-1.99137e-11
6.71714e-12
-2.06144e-11
7.39195e-12
-2.11475e-11
8.01997e-12
-2.15101e-11
-5.77025e-11
-2.17178e-11
-5.71383e-11
-2.18038e-11
-6.45387e-11
-1.03291e-11
-7.78558e-11
1.21115e-12
-9.68002e-11
1.18683e-11
-1.20838e-10
2.15549e-11
-1.49396e-10
3.02275e-11
-1.81929e-10
3.78737e-11
-2.17939e-10
4.44974e-11
-2.56965e-10
5.01188e-11
-2.98591e-10
5.47715e-11
-3.42441e-10
5.84991e-11
-3.88177e-10
6.13527e-11
-4.35504e-10
6.33894e-11
-4.84159e-10
6.46706e-11
-5.33916e-10
6.52609e-11
-5.84579e-10
6.52264e-11
-6.3598e-10
6.46334e-11
-6.87975e-10
6.35475e-11
-7.40446e-10
6.20323e-11
-7.93291e-10
6.01487e-11
-8.46427e-10
5.79536e-11
-8.99787e-10
5.55001e-11
-9.53315e-10
5.28364e-11
-1.00696e-09
5.0006e-11
-1.06069e-09
4.70475e-11
-1.11447e-09
4.39946e-11
-1.16828e-09
4.08762e-11
-1.22209e-09
3.77172e-11
-1.2759e-09
3.45379e-11
-1.32968e-09
3.13553e-11
-1.38342e-09
2.81832e-11
-1.43711e-09
2.50323e-11
-1.49075e-09
2.19111e-11
1.88259e-11
-1.54432e-09
1.6265e-13
-1.49096e-12
6.26943e-13
-4.29187e-12
1.36713e-12
-6.90825e-12
2.35693e-12
-9.33833e-12
3.57118e-12
-1.15819e-11
4.98555e-12
-1.3639e-11
6.57666e-12
-1.55094e-11
8.32173e-12
-1.71931e-11
1.01989e-11
-1.86901e-11
1.21868e-11
-2.00003e-11
1.42646e-11
-2.1124e-11
1.64121e-11
-2.20612e-11
1.86096e-11
-2.28119e-11
2.08384e-11
-2.33763e-11
2.3084e-11
-2.37557e-11
-4.70299e-11
-2.39774e-11
-4.4793e-11
-2.40407e-11
-5.06351e-11
-4.487e-12
-6.33255e-11
1.39016e-11
-8.21797e-11
3.07225e-11
-1.06568e-10
4.59433e-11
-1.35883e-10
5.9543e-11
-1.69534e-10
7.1524e-11
-2.06959e-10
8.19228e-11
-2.47644e-10
9.08033e-11
-2.91119e-10
9.82463e-11
-3.36962e-10
1.04343e-10
-3.848e-10
1.0919e-10
-4.343e-10
1.1289e-10
-4.85175e-10
1.15546e-10
-5.37174e-10
1.1726e-10
-5.90082e-10
1.18134e-10
-6.43715e-10
1.18267e-10
-6.9792e-10
1.17752e-10
-7.52566e-10
1.16678e-10
-8.07546e-10
1.15128e-10
-8.62769e-10
1.13177e-10
-9.18164e-10
1.10895e-10
-9.7367e-10
1.08342e-10
-1.02924e-09
1.05575e-10
-1.08483e-09
1.02639e-10
-1.14041e-09
9.95782e-11
-1.19596e-09
9.64258e-11
-1.25146e-09
9.32118e-11
-1.30688e-09
8.99604e-11
-1.36222e-09
8.66918e-11
-1.41746e-09
8.34218e-11
-1.47259e-09
8.01631e-11
-1.5276e-09
7.69256e-11
7.37166e-11
-1.58249e-09
2.17069e-13
-1.70803e-12
8.27063e-13
-4.90187e-12
1.79886e-12
-7.88005e-12
3.10634e-12
-1.06458e-11
4.72286e-12
-1.31985e-11
6.62177e-12
-1.55379e-11
8.7762e-12
-1.76638e-11
1.11596e-11
-1.95765e-11
1.37453e-11
-2.12758e-11
1.65072e-11
-2.27623e-11
1.94195e-11
-2.40362e-11
2.24573e-11
-2.5099e-11
2.55978e-11
-2.59524e-11
2.88197e-11
-2.65982e-11
3.21038e-11
-2.70399e-11
-3.89907e-11
-2.7278e-11
-3.56336e-11
-2.73977e-11
-3.29977e-11
-7.12298e-12
-4.024e-11
2.11439e-11
-5.58521e-11
4.63346e-11
-7.87095e-11
6.88006e-11
-1.07772e-10
8.86059e-11
-1.42112e-10
1.05864e-10
-1.80915e-10
1.20725e-10
-2.23467e-10
1.33356e-10
-2.69149e-10
1.43929e-10
-3.17421e-10
1.52614e-10
-3.67813e-10
1.59583e-10
-4.19923e-10
1.64999e-10
-4.73402e-10
1.69025e-10
-5.27958e-10
1.71815e-10
-5.83341e-10
1.73517e-10
-6.39342e-10
1.74268e-10
-6.95789e-10
1.74199e-10
-7.52538e-10
1.73428e-10
-8.09475e-10
1.72064e-10
-8.66503e-10
1.70206e-10
-9.23549e-10
1.67941e-10
-9.80553e-10
1.65346e-10
-1.03747e-09
1.62489e-10
-1.09426e-09
1.59428e-10
-1.15089e-09
1.56214e-10
-1.20735e-09
1.52887e-10
-1.26362e-09
1.49482e-10
-1.31969e-09
1.46029e-10
-1.37555e-09
1.42549e-10
-1.43119e-09
1.39062e-10
-1.48661e-09
1.35582e-10
-1.5418e-09
1.32121e-10
1.28686e-10
-1.59677e-09
3.69295e-13
-2.07733e-12
1.45914e-12
-5.99171e-12
3.21599e-12
-9.6369e-12
5.57073e-12
-1.30005e-11
8.45787e-12
-1.60856e-11
1.18126e-11
-1.88927e-11
1.55713e-11
-2.14225e-11
1.96674e-11
-2.36726e-11
2.40333e-11
-2.56416e-11
2.85947e-11
-2.73236e-11
3.32742e-11
-2.87158e-11
3.79841e-11
-2.98089e-11
4.26478e-11
-3.0616e-11
4.72021e-11
-3.11526e-11
5.16353e-11
-3.14731e-11
-2.089e-11
-3.16875e-11
-1.66867e-11
-3.1601e-11
-2.34929e-12
-2.14604e-11
-1.37351e-12
2.01682e-11
-1.23535e-11
5.73146e-11
-3.33467e-11
8.97937e-11
-6.26338e-11
1.17893e-10
-9.87069e-11
1.41937e-10
-1.40262e-10
1.6228e-10
-1.86189e-10
1.79283e-10
-2.35559e-10
1.93298e-10
-2.876e-10
2.04655e-10
-3.41678e-10
2.1366e-10
-3.97274e-10
2.20595e-10
-4.53966e-10
2.25718e-10
-5.11414e-10
2.29263e-10
-5.69342e-10
2.31445e-10
-6.27532e-10
2.32458e-10
-6.8581e-10
2.32477e-10
-7.44042e-10
2.3166e-10
-8.02123e-10
2.30146e-10
-8.59976e-10
2.28058e-10
-9.17541e-10
2.25506e-10
-9.74777e-10
2.22582e-10
-1.03166e-09
2.19368e-10
-1.08816e-09
2.15931e-10
-1.14427e-09
2.1233e-10
-1.2e-09
2.08612e-10
-1.25533e-09
2.04816e-10
-1.31028e-09
2.00975e-10
-1.36484e-09
1.97113e-10
-1.41903e-09
1.93252e-10
-1.47286e-09
1.89405e-10
-1.52632e-09
1.85586e-10
1.81803e-10
-1.57944e-09
4.84616e-13
-2.56195e-12
1.76173e-12
-7.26883e-12
3.77343e-12
-1.16486e-11
6.52173e-12
-1.57488e-11
1.00053e-11
-1.95692e-11
1.42271e-11
-2.31145e-11
1.91813e-11
-2.63767e-11
2.48697e-11
-2.93611e-11
3.128e-11
-3.20519e-11
3.84369e-11
-3.44806e-11
4.63637e-11
-3.66425e-11
5.51082e-11
-3.85535e-11
6.33953e-11
-3.89031e-11
7.13131e-11
-3.90703e-11
7.06478e-11
-3.82656e-11
1.39331e-11
-3.72578e-11
7.89555e-12
-2.55635e-11
-1.19667e-11
-1.59815e-12
-3.84518e-11
4.66533e-11
-7.07644e-11
8.96272e-11
-1.082e-10
1.27229e-10
-1.49958e-10
1.59651e-10
-1.95245e-10
1.87224e-10
-2.43331e-10
2.10365e-10
-2.93572e-10
2.29524e-10
-3.45418e-10
2.45144e-10
-3.98407e-10
2.57644e-10
-4.52157e-10
2.6741e-10
-5.06357e-10
2.74796e-10
-5.60761e-10
2.80122e-10
-6.15174e-10
2.83676e-10
-6.69448e-10
2.85718e-10
-7.23469e-10
2.8648e-10
-7.77157e-10
2.86165e-10
-8.30454e-10
2.84957e-10
-8.83322e-10
2.83013e-10
-9.35738e-10
2.80474e-10
-9.87689e-10
2.77458e-10
-1.03917e-09
2.74067e-10
-1.0902e-09
2.7039e-10
-1.14077e-09
2.66499e-10
-1.19089e-09
2.62455e-10
-1.24059e-09
2.58308e-10
-1.28987e-09
2.54098e-10
-1.33875e-09
2.49858e-10
-1.38725e-09
2.45614e-10
-1.43539e-09
2.41385e-10
-1.48317e-09
2.37187e-10
-1.53061e-09
2.33031e-10
2.28926e-10
-1.57774e-09
-1.34213e-13
-2.42773e-12
-7.73741e-14
-7.32567e-12
4.88688e-13
-1.22147e-11
1.83491e-12
-1.70951e-11
4.20233e-12
-2.19366e-11
7.87277e-12
-2.6785e-11
1.30884e-11
-3.15923e-11
2.0187e-11
-3.64596e-11
2.94382e-11
-4.1303e-11
4.14269e-11
-4.64693e-11
5.37879e-11
-4.90036e-11
6.8503e-11
-5.32685e-11
7.47099e-11
-5.88134e-11
3.97663e-11
-5.04089e-11
-5.04796e-11
2.12137e-11
-8.03423e-11
-7.39511e-12
-1.2938e-10
2.3474e-11
-2.06188e-10
7.52101e-11
-2.7766e-10
1.18126e-10
-3.43998e-10
1.55965e-10
-4.05701e-10
1.88933e-10
-4.63386e-10
2.17336e-10
-5.17662e-10
2.415e-10
-5.69074e-10
2.61777e-10
-6.1808e-10
2.7853e-10
-6.65058e-10
2.92122e-10
-7.10315e-10
3.02901e-10
-7.54104e-10
3.11199e-10
-7.96633e-10
3.17325e-10
-8.38079e-10
3.21568e-10
-8.78594e-10
3.24191e-10
-9.18309e-10
3.25433e-10
-9.57338e-10
3.25509e-10
-9.95783e-10
3.2461e-10
-1.03373e-09
3.22905e-10
-1.07126e-09
3.20542e-10
-1.10844e-09
3.1765e-10
-1.14532e-09
3.14339e-10
-1.18195e-09
3.10704e-10
-1.21839e-09
3.06823e-10
-1.25465e-09
3.02765e-10
-1.29078e-09
2.98584e-10
-1.3268e-09
2.94325e-10
-1.36272e-09
2.90024e-10
-1.39857e-09
2.8571e-10
-1.43437e-09
2.81406e-10
-1.47011e-09
2.7713e-10
-1.50582e-09
2.72894e-10
-1.54149e-09
2.68709e-10
2.6458e-10
-1.57715e-09
1.74948e-13
-2.60268e-12
9.68299e-13
-8.11902e-12
2.7215e-12
-1.39679e-11
5.82226e-12
-2.01958e-11
1.06835e-11
-2.67979e-11
1.7758e-11
-3.38594e-11
2.75493e-11
-4.13836e-11
3.81612e-11
-4.70716e-11
5.03372e-11
-5.3479e-11
5.42941e-11
-5.88318e-11
1.288e-11
-9.08346e-11
-7.09989e-11
1.34866e-11
-4.52362e-11
-1.03182e-10
-2.69018e-10
1.73104e-10
-3.81237e-10
1.33433e-10
-5.28317e-10
1.39685e-10
-6.64156e-10
1.59313e-10
-7.68925e-10
1.79979e-10
-8.53056e-10
2.02257e-10
-9.21431e-10
2.2434e-10
-9.77512e-10
2.45014e-10
-1.02385e-09
2.63676e-10
-1.06244e-09
2.80086e-10
-1.09486e-09
2.94196e-10
-1.12239e-09
3.06064e-10
-1.14608e-09
3.15813e-10
-1.16678e-09
3.23605e-10
-1.1852e-09
3.29619e-10
-1.20192e-09
3.34042e-10
-1.21741e-09
3.37058e-10
-1.23206e-09
3.38845e-10
-1.2462e-09
3.3957e-10
-1.26008e-09
3.39388e-10
-1.27391e-09
3.38438e-10
-1.28785e-09
3.36846e-10
-1.30203e-09
3.34726e-10
-1.31656e-09
3.32174e-10
-1.3315e-09
3.29277e-10
-1.3469e-09
3.26109e-10
-1.36281e-09
3.22732e-10
-1.37924e-09
3.192e-10
-1.39622e-09
3.15557e-10
-1.41373e-09
3.11839e-10
-1.43178e-09
3.08077e-10
-1.45037e-09
3.04295e-10
-1.46947e-09
3.00511e-10
-1.48909e-09
2.96742e-10
-1.50919e-09
2.92998e-10
-1.52977e-09
2.89288e-10
2.85619e-10
-1.55081e-09
3.44443e-13
-2.94712e-12
1.61578e-12
-9.39036e-12
4.0082e-12
-1.63603e-11
7.56824e-12
-2.37559e-11
1.25308e-11
-3.17605e-11
1.78118e-11
-3.91404e-11
2.34596e-11
-4.70314e-11
-3.04956e-12
-6.68396e-11
-6.41879e-11
-4.0035e-11
-1.76481e-10
8.9966e-12
-2.27205e-10
-4.0586e-11
-6.41171e-10
4.26617e-10
-1.03366e-09
2.89308e-10
-1.12884e-09
2.68287e-10
-1.2901e-09
2.94684e-10
-1.43037e-09
2.79957e-10
-1.52365e-09
2.52596e-10
-1.58517e-09
2.415e-10
-1.62299e-09
2.40073e-10
-1.64315e-09
2.44498e-10
-1.65031e-09
2.52179e-10
-1.64798e-09
2.61348e-10
-1.63877e-09
2.70872e-10
-1.62464e-09
2.80063e-10
-1.6071e-09
2.88526e-10
-1.58734e-09
2.96055e-10
-1.5663e-09
3.0256e-10
-1.54471e-09
3.08026e-10
-1.52315e-09
3.12485e-10
-1.50209e-09
3.15997e-10
-1.48188e-09
3.18636e-10
-1.46279e-09
3.20486e-10
-1.44504e-09
3.2163e-10
-1.42875e-09
3.22154e-10
-1.41404e-09
3.22136e-10
-1.40097e-09
3.2165e-10
-1.38956e-09
3.20764e-10
-1.37982e-09
3.19539e-10
-1.37174e-09
3.1803e-10
-1.36529e-09
3.16285e-10
-1.36044e-09
3.14346e-10
-1.35713e-09
3.12248e-10
-1.35531e-09
3.10023e-10
-1.35493e-09
3.07696e-10
-1.35593e-09
3.05291e-10
-1.35824e-09
3.02825e-10
-1.36181e-09
3.00313e-10
-1.36659e-09
2.97769e-10
-1.3725e-09
2.95202e-10
2.9262e-10
-1.3795e-09
-9.24244e-14
-2.8547e-12
-9.98013e-13
-8.48477e-12
-3.086e-12
-1.42723e-11
-6.62487e-12
-2.0217e-11
-1.1761e-11
-2.66243e-11
-2.20985e-11
-3.69375e-11
-2.20845e-10
-3.99592e-11
-3.23261e-10
6.75431e-13
-3.61061e-10
-2.8863e-12
-5.85152e-10
2.33088e-10
-8.23203e-10
1.97464e-10
-6.92661e-10
2.96076e-10
-8.71563e-10
4.6821e-10
-1.02413e-09
4.20855e-10
-1.11003e-09
3.80581e-10
-1.17095e-09
3.40884e-10
-1.22901e-09
3.1065e-10
-1.27731e-09
2.89807e-10
-1.31401e-09
2.76766e-10
-1.33926e-09
2.69755e-10
-1.35422e-09
2.67134e-10
-1.36039e-09
2.67518e-10
-1.35933e-09
2.69816e-10
-1.35251e-09
2.73244e-10
-1.34123e-09
2.77243e-10
-1.3266e-09
2.81424e-10
-1.30956e-09
2.85522e-10
-1.2909e-09
2.89367e-10
-1.27127e-09
2.92856e-10
-1.25121e-09
2.9593e-10
-1.23114e-09
2.98565e-10
-1.21141e-09
3.00757e-10
-1.19229e-09
3.02514e-10
-1.174e-09
3.03859e-10
-1.15668e-09
3.04817e-10
-1.14045e-09
3.0542e-10
-1.12538e-09
3.05702e-10
-1.11154e-09
3.05697e-10
-1.09895e-09
3.05438e-10
-1.08762e-09
3.04956e-10
-1.07755e-09
3.0428e-10
-1.06874e-09
3.03436e-10
-1.06117e-09
3.02446e-10
-1.0548e-09
3.01333e-10
-1.04963e-09
3.00114e-10
-1.04561e-09
2.98805e-10
-1.04271e-09
2.9742e-10
-1.04091e-09
2.9597e-10
-1.04018e-09
2.94466e-10
2.92914e-10
-1.04047e-09
-2.4941e-12
-9.91779e-12
-2.25916e-11
-4.09056e-11
-7.73967e-11
-2.49831e-10
-2.85161e-10
-2.50315e-10
-2.53586e-10
-6.38805e-11
6.8122e-11
2.29082e-10
4.80121e-10
5.76929e-10
5.55116e-10
4.63222e-10
3.42185e-10
2.16438e-10
9.89779e-11
-2.09839e-12
-8.31613e-11
-1.4441e-10
-1.88545e-10
-2.1907e-10
-2.39306e-10
-2.51997e-10
-2.59317e-10
-2.62943e-10
-2.64115e-10
-2.63729e-10
-2.62432e-10
-2.60694e-10
-2.58868e-10
-2.57214e-10
-2.55926e-10
-2.55147e-10
-2.54984e-10
-2.55509e-10
-2.5677e-10
-2.58795e-10
-2.61592e-10
-2.65161e-10
-2.6949e-10
-2.74563e-10
-2.80356e-10
-2.86844e-10
-2.93998e-10
-3.01792e-10
-3.10197e-10
-3.19186e-10
7.36324e-10
-3.37584e-10
7.14072e-10
-3.43393e-10
6.90367e-10
-3.48827e-10
6.65493e-10
-3.53913e-10
6.39702e-10
-3.58674e-10
6.13211e-10
-3.63129e-10
5.86208e-10
-3.67298e-10
5.58852e-10
-3.71196e-10
5.31278e-10
-3.74836e-10
5.03599e-10
-3.78232e-10
4.7591e-10
-3.81393e-10
4.48287e-10
-3.84329e-10
4.20795e-10
-3.87048e-10
3.93485e-10
-3.89558e-10
3.664e-10
-3.91864e-10
3.39573e-10
-3.93973e-10
3.13032e-10
-3.9589e-10
2.86799e-10
-3.9762e-10
2.60893e-10
-3.99168e-10
2.35327e-10
-4.00538e-10
2.10116e-10
-4.01734e-10
1.8527e-10
-4.0276e-10
1.60798e-10
-4.03621e-10
1.36709e-10
-4.04319e-10
1.1301e-10
-4.04859e-10
8.97098e-11
-4.05245e-10
6.68151e-11
-4.0548e-10
4.43331e-11
-4.05568e-10
2.22708e-11
-4.05512e-10
6.35441e-13
-4.05316e-10
-2.05659e-11
-4.04983e-10
-4.1326e-11
-4.04518e-10
-6.16377e-11
-4.03922e-10
-8.14937e-11
-4.032e-10
-1.00887e-10
-4.02355e-10
-1.1981e-10
-4.01391e-10
-1.38255e-10
-4.00311e-10
-1.56216e-10
-3.99118e-10
-1.73685e-10
-3.97816e-10
-1.90655e-10
-3.96408e-10
-2.0712e-10
-3.94899e-10
-2.23072e-10
-3.93292e-10
-2.38506e-10
-3.91591e-10
-2.53415e-10
-3.89801e-10
-2.67793e-10
-3.87924e-10
-2.81636e-10
-3.85966e-10
-2.9494e-10
-3.83931e-10
-3.077e-10
-3.81823e-10
-3.19914e-10
-3.79646e-10
-3.77405e-10
-3.31588e-10
3.46188e-10
-3.20938e-10
3.28417e-10
-3.25622e-10
3.09669e-10
-3.30079e-10
2.90074e-10
-3.34318e-10
2.69749e-10
-3.38349e-10
2.48797e-10
-3.42177e-10
2.27309e-10
-3.4581e-10
2.05366e-10
-3.49253e-10
1.83039e-10
-3.5251e-10
1.60392e-10
-3.55584e-10
1.3748e-10
-3.58481e-10
1.14355e-10
-3.61203e-10
9.10599e-11
-3.63754e-10
6.76373e-11
-3.66135e-10
4.41243e-11
-3.68351e-10
2.05552e-11
-3.70404e-10
-3.03812e-12
-3.72297e-10
-2.66259e-11
-3.74033e-10
-5.01803e-11
-3.75614e-10
-7.36748e-11
-3.77044e-10
-9.70843e-11
-3.78325e-10
-1.20385e-10
-3.7946e-10
-1.43553e-10
-3.80452e-10
-1.66568e-10
-3.81304e-10
-1.89408e-10
-3.8202e-10
-2.12053e-10
-3.82601e-10
-2.34483e-10
-3.8305e-10
-2.5668e-10
-3.83371e-10
-2.78625e-10
-3.83566e-10
-3.00302e-10
-3.83639e-10
-3.21694e-10
-3.83591e-10
-3.42785e-10
-3.83427e-10
-3.6356e-10
-3.83148e-10
-3.84003e-10
-3.82757e-10
-4.04101e-10
-3.82257e-10
-4.2384e-10
-3.81652e-10
-4.43207e-10
-3.80944e-10
-4.62189e-10
-3.80135e-10
-4.80775e-10
-3.7923e-10
-4.98953e-10
-3.7823e-10
-5.16713e-10
-3.77139e-10
-5.34045e-10
-3.7596e-10
-5.50939e-10
-3.74697e-10
-5.67388e-10
-3.73352e-10
-5.83382e-10
-3.7193e-10
-5.98916e-10
-3.70432e-10
-6.13984e-10
-3.68863e-10
-6.2858e-10
-3.67226e-10
-6.42703e-10
-3.65524e-10
-3.63762e-10
-6.56345e-10
2.33595e-11
-3.02358e-10
4.04575e-12
-3.06308e-10
-1.59313e-11
-3.10102e-10
-3.65072e-11
-3.13743e-10
-5.76237e-11
-3.17232e-10
-7.92273e-11
-3.20574e-10
-1.01269e-10
-3.23768e-10
-1.23704e-10
-3.26818e-10
-1.4649e-10
-3.29724e-10
-1.69588e-10
-3.32487e-10
-1.9296e-10
-3.35109e-10
-2.16573e-10
-3.37591e-10
-2.40392e-10
-3.39935e-10
-2.64386e-10
-3.42141e-10
-2.88524e-10
-3.44213e-10
-3.12777e-10
-3.46151e-10
-3.37117e-10
-3.47957e-10
-3.61517e-10
-3.49633e-10
-3.85949e-10
-3.51181e-10
-4.10389e-10
-3.52604e-10
-4.34812e-10
-3.53902e-10
-4.59193e-10
-3.55078e-10
-4.8351e-10
-3.56135e-10
-5.07741e-10
-3.57074e-10
-5.31863e-10
-3.57897e-10
-5.55856e-10
-3.58607e-10
-5.797e-10
-3.59206e-10
-6.03375e-10
-3.59696e-10
-6.26863e-10
-3.60079e-10
-6.50145e-10
-3.60357e-10
-6.73205e-10
-3.60532e-10
-6.96025e-10
-3.60606e-10
-7.1859e-10
-3.60582e-10
-7.40885e-10
-3.60462e-10
-7.62894e-10
-3.60248e-10
-7.84604e-10
-3.59942e-10
-8.06001e-10
-3.59547e-10
-8.27072e-10
-3.59064e-10
-8.47806e-10
-3.58496e-10
-8.6819e-10
-3.57845e-10
-8.88215e-10
-3.57114e-10
-9.0787e-10
-3.56306e-10
-9.27146e-10
-3.55421e-10
-9.46034e-10
-3.54464e-10
-9.64527e-10
-3.53437e-10
-9.82619e-10
-3.52341e-10
-1.0003e-09
-3.51179e-10
-1.01757e-09
-3.49955e-10
-1.03443e-09
-3.4867e-10
-3.47327e-10
-1.05086e-09
-2.91344e-10
-2.7978e-10
-3.14375e-10
-2.83277e-10
-3.37824e-10
-2.86653e-10
-3.61658e-10
-2.89908e-10
-3.85848e-10
-2.93043e-10
-4.10365e-10
-2.96057e-10
-4.35183e-10
-2.9895e-10
-4.60277e-10
-3.01724e-10
-4.85622e-10
-3.04378e-10
-5.11195e-10
-3.06914e-10
-5.36972e-10
-3.09332e-10
-5.62929e-10
-3.11633e-10
-5.89046e-10
-3.13818e-10
-6.15299e-10
-3.15889e-10
-6.41666e-10
-3.17846e-10
-6.68126e-10
-3.19691e-10
-6.94657e-10
-3.21426e-10
-7.21239e-10
-3.23052e-10
-7.4785e-10
-3.2457e-10
-7.7447e-10
-3.25984e-10
-8.01079e-10
-3.27293e-10
-8.27658e-10
-3.285e-10
-8.54187e-10
-3.29606e-10
-8.80648e-10
-3.30613e-10
-9.07022e-10
-3.31523e-10
-9.33292e-10
-3.32338e-10
-9.5944e-10
-3.33058e-10
-9.8545e-10
-3.33686e-10
-1.0113e-09