/*--------------------------------*- C++ -*----------------------------------*\
| =========                 |                                                 |
| \\      /  F ield         | OpenFOAM: The Open Source CFD Toolbox           |
|  \\    /   O peration     | Version:  2.4.0                                 |
|   \\  /    A nd           | Web:      www.OpenFOAM.org                      |
|    \\/     M anipulation  |                                                 |
\*---------------------------------------------------------------------------*/
FoamFile
{
    version     2.0;
    format      ascii;
    class       volScalarField;
    location    "0.016";
    object      p_rgh;
}
// * * * * * * * * * * * * * * * * * * * * * * * * * * * * * * * * * * * * * //

dimensions      [1 -1 -2 0 0 0 0];

internalField   nonuniform List<scalar> 
125
(
-0.00360301
-0.00359338
-0.00358371
-0.003574
-0.00356426
-0.00355448
-0.00354467
-0.00353482
-0.00352493
-0.00351501
-0.00350505
-0.00349506
-0.00348503
-0.00347496
-0.00346485
-0.00345471
-0.00344453
-0.00343432
-0.00342406
-0.00341377
-0.00340344
-0.00339308
-0.00338267
-0.00337223
-0.00336175
-0.00335123
-0.00334067
-0.00333007
-0.00331944
-0.00330876
-0.00329805
-0.0032873
-0.00327651
-0.00326567
-0.0032548
-0.00324389
-0.00323294
-0.00322195
-0.00321092
-0.00319984
-0.00318873
-0.00317758
-0.00316638
-0.00315515
-0.00314387
-0.00313255
-0.00312119
-0.00310979
-0.00309835
-0.00308687
-0.00307534
-0.00306377
-0.00305216
-0.0030405
-0.00302881
-0.00301707
-0.00300528
-0.00299346
-0.00298159
-0.00296968
-0.00295772
-0.00294572
-0.00293367
-0.00292159
-0.00290945
-0.00289728
-0.00288505
-0.00287279
-0.00286048
-0.00284812
-0.00283572
-0.00282327
-0.00281078
-0.00279824
-0.00278565
-0.00277302
-0.00276034
-0.00274762
-0.00273485
-0.00272203
-0.00270916
-0.00269625
-0.00268329
-0.00267029
-0.00265723
-0.00264413
-0.00263098
-0.00261778
-0.00260453
-0.00259124
-0.00257789
-0.0025645
-0.00255106
-0.00253757
-0.00252402
-0.00251043
-0.00249679
-0.0024831
-0.00246936
-0.00245557
-0.00244173
-0.00242783
-0.00241389
-0.00239989
-0.00238585
-0.00237175
-0.0023576
-0.0023434
-0.00232914
-0.00231484
-0.00230048
-0.00228607
-0.0022716
-0.00225709
-0.00224252
-0.00222789
-0.00221321
-0.00219848
-0.0021837
-0.00216886
-0.00215396
-0.00213901
-0.00212401
-0.00210895
-0.00209383
)
;

boundaryField
{
    BotWall
    {
        type            fixedFluxPressure;
        gradient        nonuniform 0();
        value           nonuniform 0();
    }
    FreeStream
    {
        type            totalPressure;
        rho             rho;
        psi             none;
        gamma           1;
        p0              nonuniform 0();
        value           nonuniform 0();
    }
    FrontNBack
    {
        type            empty;
    }
    LeftSide
    {
        type            symmetryPlane;
    }
    RightSide
    {
        type            symmetryPlane;
    }
    procBoundary10to7
    {
        type            processor;
        value           nonuniform List<scalar> 
50
(
-0.00277145
-0.00275878
-0.00274606
-0.0027333
-0.00272049
-0.00270764
-0.00269473
-0.00268178
-0.00266878
-0.00265574
-0.00264264
-0.0026295
-0.00261631
-0.00260308
-0.00258979
-0.00257645
-0.00256307
-0.00254963
-0.00253615
-0.00252262
-0.00250904
-0.0024954
-0.00248172
-0.00246799
-0.00245421
-0.00244037
-0.00242649
-0.00241255
-0.00239857
-0.00238453
-0.00237044
-0.0023563
-0.00234211
-0.00232786
-0.00231356
-0.00229921
-0.00228481
-0.00227035
-0.00225585
-0.00224128
-0.00222667
-0.002212
-0.00219728
-0.0021825
-0.00216767
-0.00215278
-0.00213784
-0.00212284
-0.00210779
-0.00209269
)
;
    }
    procBoundary10to8
    {
        type            processor;
        value           nonuniform List<scalar> 
75
(
-0.00360083
-0.00359121
-0.00358154
-0.00357185
-0.00356211
-0.00355234
-0.00354254
-0.0035327
-0.00352282
-0.00351291
-0.00350296
-0.00349297
-0.00348295
-0.00347289
-0.00346279
-0.00345266
-0.00344249
-0.00343228
-0.00342204
-0.00341175
-0.00340143
-0.00339107
-0.00338068
-0.00337024
-0.00335977
-0.00334926
-0.00333871
-0.00332812
-0.00331749
-0.00330683
-0.00329612
-0.00328538
-0.00327459
-0.00326377
-0.00325291
-0.003242
-0.00323106
-0.00322008
-0.00320905
-0.00319799
-0.00318688
-0.00317574
-0.00316455
-0.00315332
-0.00314206
-0.00313075
-0.00311939
-0.003108
-0.00309657
-0.00308509
-0.00307357
-0.00306201
-0.00305041
-0.00303876
-0.00302707
-0.00301534
-0.00300357
-0.00299175
-0.00297989
-0.00296798
-0.00295603
-0.00294404
-0.00293201
-0.00291992
-0.0029078
-0.00289563
-0.00288342
-0.00287116
-0.00285885
-0.00284651
-0.00283411
-0.00282167
-0.00280919
-0.00279665
-0.00278407
)
;
    }
    procBoundary10to9
    {
        type            processor;
        value           uniform -0.00207866;
    }
    procBoundary10to11
    {
        type            processor;
        value           uniform -0.00361261;
    }
}


// ************************************************************************* //
