/*--------------------------------*- C++ -*----------------------------------*\
| =========                 |                                                 |
| \\      /  F ield         | OpenFOAM: The Open Source CFD Toolbox           |
|  \\    /   O peration     | Version:  2.4.0                                 |
|   \\  /    A nd           | Web:      www.OpenFOAM.org                      |
|    \\/     M anipulation  |                                                 |
\*---------------------------------------------------------------------------*/
FoamFile
{
    version     2.0;
    format      ascii;
    class       volVectorField;
    location    "0.016";
    object      U;
}
// * * * * * * * * * * * * * * * * * * * * * * * * * * * * * * * * * * * * * //

dimensions      [0 1 -1 0 0 0 0];

internalField   nonuniform List<vector> 
125
(
(6.85275e-06 -0.0165804 0)
(6.75057e-06 -0.0165804 0)
(6.64896e-06 -0.0165803 0)
(6.5479e-06 -0.0165803 0)
(6.4474e-06 -0.0165803 0)
(6.34745e-06 -0.0165803 0)
(6.24806e-06 -0.0165803 0)
(6.14921e-06 -0.0165803 0)
(6.05092e-06 -0.0165803 0)
(5.95317e-06 -0.0165803 0)
(5.85596e-06 -0.0165803 0)
(5.7593e-06 -0.0165803 0)
(5.66318e-06 -0.0165803 0)
(5.5676e-06 -0.0165803 0)
(5.47256e-06 -0.0165803 0)
(5.37805e-06 -0.0165803 0)
(5.28408e-06 -0.0165803 0)
(5.19063e-06 -0.0165803 0)
(5.09772e-06 -0.0165803 0)
(5.00533e-06 -0.0165803 0)
(4.91346e-06 -0.0165803 0)
(4.82211e-06 -0.0165803 0)
(4.73128e-06 -0.0165803 0)
(4.64096e-06 -0.0165803 0)
(4.55115e-06 -0.0165803 0)
(4.46185e-06 -0.0165803 0)
(4.37304e-06 -0.0165803 0)
(4.28474e-06 -0.0165803 0)
(4.19693e-06 -0.0165803 0)
(4.10961e-06 -0.0165803 0)
(4.02277e-06 -0.0165803 0)
(3.93641e-06 -0.0165803 0)
(3.85053e-06 -0.0165803 0)
(3.76512e-06 -0.0165803 0)
(3.68017e-06 -0.0165803 0)
(3.59568e-06 -0.0165803 0)
(3.51164e-06 -0.0165803 0)
(3.42805e-06 -0.0165803 0)
(3.3449e-06 -0.0165803 0)
(3.26219e-06 -0.0165803 0)
(3.17991e-06 -0.0165803 0)
(3.09804e-06 -0.0165803 0)
(3.0166e-06 -0.0165803 0)
(2.93556e-06 -0.0165803 0)
(2.85492e-06 -0.0165803 0)
(2.77467e-06 -0.0165803 0)
(2.69481e-06 -0.0165803 0)
(2.61534e-06 -0.0165803 0)
(2.53623e-06 -0.0165803 0)
(2.45748e-06 -0.0165803 0)
(2.37909e-06 -0.0165803 0)
(2.30105e-06 -0.0165803 0)
(2.22334e-06 -0.0165803 0)
(2.14597e-06 -0.0165803 0)
(2.06892e-06 -0.0165803 0)
(1.99218e-06 -0.0165803 0)
(1.91574e-06 -0.0165803 0)
(1.8396e-06 -0.0165803 0)
(1.76375e-06 -0.0165803 0)
(1.68817e-06 -0.0165803 0)
(1.61286e-06 -0.0165803 0)
(1.53782e-06 -0.0165804 0)
(1.46302e-06 -0.0165804 0)
(1.38846e-06 -0.0165804 0)
(1.31413e-06 -0.0165804 0)
(1.24003e-06 -0.0165804 0)
(1.16614e-06 -0.0165804 0)
(1.09245e-06 -0.0165804 0)
(1.01896e-06 -0.0165804 0)
(9.45654e-07 -0.0165804 0)
(8.72525e-07 -0.0165804 0)
(7.99563e-07 -0.0165804 0)
(7.26759e-07 -0.0165804 0)
(6.54106e-07 -0.0165804 0)
(5.81595e-07 -0.0165804 0)
(5.09217e-07 -0.0165804 0)
(4.36964e-07 -0.0165804 0)
(3.64829e-07 -0.0165805 0)
(2.92803e-07 -0.0165805 0)
(2.2088e-07 -0.0165805 0)
(1.49052e-07 -0.0165805 0)
(7.73128e-08 -0.0165805 0)
(5.65612e-09 -0.0165805 0)
(-6.59238e-08 -0.0165805 0)
(-1.37432e-07 -0.0165805 0)
(-2.08874e-07 -0.0165805 0)
(-2.80253e-07 -0.0165805 0)
(-3.51573e-07 -0.0165805 0)
(-4.22837e-07 -0.0165805 0)
(-4.94047e-07 -0.0165806 0)
(-5.65205e-07 -0.0165806 0)
(-6.36312e-07 -0.0165806 0)
(-7.07367e-07 -0.0165806 0)
(-7.7837e-07 -0.0165806 0)
(-8.49319e-07 -0.0165806 0)
(-9.20211e-07 -0.0165806 0)
(-9.91044e-07 -0.0165806 0)
(-1.06181e-06 -0.0165806 0)
(-1.13251e-06 -0.0165806 0)
(-1.20313e-06 -0.0165807 0)
(-1.27367e-06 -0.0165807 0)
(-1.34411e-06 -0.0165807 0)
(-1.41445e-06 -0.0165807 0)
(-1.48468e-06 -0.0165807 0)
(-1.55479e-06 -0.0165807 0)
(-1.62475e-06 -0.0165807 0)
(-1.69457e-06 -0.0165807 0)
(-1.76423e-06 -0.0165807 0)
(-1.8337e-06 -0.0165808 0)
(-1.90299e-06 -0.0165808 0)
(-1.97206e-06 -0.0165808 0)
(-2.0409e-06 -0.0165808 0)
(-2.1095e-06 -0.0165808 0)
(-2.17785e-06 -0.0165808 0)
(-2.24591e-06 -0.0165808 0)
(-2.31369e-06 -0.0165808 0)
(-2.38116e-06 -0.0165808 0)
(-2.4483e-06 -0.0165809 0)
(-2.51511e-06 -0.0165809 0)
(-2.58158e-06 -0.0165809 0)
(-2.64768e-06 -0.0165809 0)
(-2.71341e-06 -0.0165809 0)
(-2.77877e-06 -0.0165809 0)
(-2.84374e-06 -0.0165809 0)
(-2.90833e-06 -0.0165809 0)
)
;

boundaryField
{
    BotWall
    {
        type            fixedValue;
        value           nonuniform 0();
    }
    FreeStream
    {
        type            zeroGradient;
    }
    FrontNBack
    {
        type            empty;
    }
    LeftSide
    {
        type            symmetryPlane;
    }
    RightSide
    {
        type            symmetryPlane;
    }
    procBoundary10to7
    {
        type            processor;
        value           nonuniform List<vector> 
50
(
(-2.04779e-06 -0.0165812 0)
(-2.00288e-06 -0.0165812 0)
(-1.95745e-06 -0.0165812 0)
(-1.91148e-06 -0.0165812 0)
(-1.86495e-06 -0.0165812 0)
(-1.81783e-06 -0.0165812 0)
(-1.77012e-06 -0.0165812 0)
(-1.72178e-06 -0.0165812 0)
(-1.67281e-06 -0.0165812 0)
(-1.62318e-06 -0.0165812 0)
(-1.57289e-06 -0.0165812 0)
(-1.52191e-06 -0.0165812 0)
(-1.47024e-06 -0.0165812 0)
(-1.41786e-06 -0.0165812 0)
(-1.36477e-06 -0.0165812 0)
(-1.31096e-06 -0.0165811 0)
(-1.25642e-06 -0.0165811 0)
(-1.20115e-06 -0.0165811 0)
(-1.14514e-06 -0.0165811 0)
(-1.0884e-06 -0.0165811 0)
(-1.03093e-06 -0.0165811 0)
(-9.72723e-07 -0.0165811 0)
(-9.13795e-07 -0.0165811 0)
(-8.5415e-07 -0.0165811 0)
(-7.93799e-07 -0.016581 0)
(-7.32755e-07 -0.016581 0)
(-6.71031e-07 -0.016581 0)
(-6.08644e-07 -0.016581 0)
(-5.45614e-07 -0.016581 0)
(-4.81962e-07 -0.016581 0)
(-4.1771e-07 -0.016581 0)
(-3.52885e-07 -0.0165809 0)
(-2.87513e-07 -0.0165809 0)
(-2.21624e-07 -0.0165809 0)
(-1.55249e-07 -0.0165809 0)
(-8.84197e-08 -0.0165808 0)
(-2.11703e-08 -0.0165808 0)
(4.64642e-08 -0.0165808 0)
(1.14448e-07 -0.0165808 0)
(1.82744e-07 -0.0165808 0)
(2.51317e-07 -0.0165807 0)
(3.20128e-07 -0.0165807 0)
(3.89141e-07 -0.0165807 0)
(4.5832e-07 -0.0165806 0)
(5.2763e-07 -0.0165806 0)
(5.97037e-07 -0.0165806 0)
(6.66507e-07 -0.0165805 0)
(7.36012e-07 -0.0165805 0)
(8.05522e-07 -0.0165805 0)
(8.75011e-07 -0.0165804 0)
)
;
    }
    procBoundary10to8
    {
        type            processor;
        value           nonuniform List<vector> 
75
(
(-5.67334e-06 -0.0165797 0)
(-5.6029e-06 -0.0165798 0)
(-5.53344e-06 -0.0165798 0)
(-5.46494e-06 -0.0165798 0)
(-5.3974e-06 -0.0165799 0)
(-5.3308e-06 -0.0165799 0)
(-5.26513e-06 -0.01658 0)
(-5.20038e-06 -0.01658 0)
(-5.13653e-06 -0.01658 0)
(-5.07358e-06 -0.0165801 0)
(-5.01151e-06 -0.0165801 0)
(-4.9503e-06 -0.0165801 0)
(-4.88995e-06 -0.0165801 0)
(-4.83043e-06 -0.0165802 0)
(-4.77175e-06 -0.0165802 0)
(-4.71387e-06 -0.0165802 0)
(-4.6568e-06 -0.0165803 0)
(-4.60051e-06 -0.0165803 0)
(-4.54499e-06 -0.0165803 0)
(-4.49022e-06 -0.0165803 0)
(-4.4362e-06 -0.0165804 0)
(-4.38289e-06 -0.0165804 0)
(-4.3303e-06 -0.0165804 0)
(-4.2784e-06 -0.0165805 0)
(-4.22718e-06 -0.0165805 0)
(-4.17662e-06 -0.0165805 0)
(-4.12671e-06 -0.0165805 0)
(-4.07742e-06 -0.0165806 0)
(-4.02874e-06 -0.0165806 0)
(-3.98065e-06 -0.0165806 0)
(-3.93314e-06 -0.0165806 0)
(-3.88619e-06 -0.0165806 0)
(-3.83978e-06 -0.0165807 0)
(-3.79388e-06 -0.0165807 0)
(-3.74849e-06 -0.0165807 0)
(-3.70358e-06 -0.0165807 0)
(-3.65914e-06 -0.0165807 0)
(-3.61513e-06 -0.0165808 0)
(-3.57156e-06 -0.0165808 0)
(-3.52838e-06 -0.0165808 0)
(-3.48559e-06 -0.0165808 0)
(-3.44315e-06 -0.0165808 0)
(-3.40106e-06 -0.0165809 0)
(-3.35929e-06 -0.0165809 0)
(-3.31781e-06 -0.0165809 0)
(-3.27661e-06 -0.0165809 0)
(-3.23566e-06 -0.0165809 0)
(-3.19494e-06 -0.0165809 0)
(-3.15443e-06 -0.016581 0)
(-3.11409e-06 -0.016581 0)
(-3.07392e-06 -0.016581 0)
(-3.03388e-06 -0.016581 0)
(-2.99396e-06 -0.016581 0)
(-2.95411e-06 -0.016581 0)
(-2.91434e-06 -0.016581 0)
(-2.87459e-06 -0.016581 0)
(-2.83486e-06 -0.0165811 0)
(-2.79512e-06 -0.0165811 0)
(-2.75533e-06 -0.0165811 0)
(-2.71548e-06 -0.0165811 0)
(-2.67554e-06 -0.0165811 0)
(-2.63548e-06 -0.0165811 0)
(-2.59528e-06 -0.0165811 0)
(-2.55491e-06 -0.0165811 0)
(-2.51434e-06 -0.0165811 0)
(-2.47355e-06 -0.0165811 0)
(-2.43251e-06 -0.0165811 0)
(-2.3912e-06 -0.0165812 0)
(-2.34959e-06 -0.0165812 0)
(-2.30766e-06 -0.0165812 0)
(-2.26537e-06 -0.0165812 0)
(-2.2227e-06 -0.0165812 0)
(-2.17964e-06 -0.0165812 0)
(-2.13615e-06 -0.0165812 0)
(-2.09221e-06 -0.0165812 0)
)
;
    }
    procBoundary10to9
    {
        type            processor;
        value           uniform (-2.97253e-06 -0.0165809 0);
    }
    procBoundary10to11
    {
        type            processor;
        value           uniform (6.95548e-06 -0.0165804 0);
    }
}


// ************************************************************************* //
