/*--------------------------------*- C++ -*----------------------------------*\
| =========                 |                                                 |
| \\      /  F ield         | OpenFOAM: The Open Source CFD Toolbox           |
|  \\    /   O peration     | Version:  2.4.0                                 |
|   \\  /    A nd           | Web:      www.OpenFOAM.org                      |
|    \\/     M anipulation  |                                                 |
\*---------------------------------------------------------------------------*/
FoamFile
{
    version     2.0;
    format      ascii;
    class       volScalarField;
    location    "2.8";
    object      p_rgh;
}
// * * * * * * * * * * * * * * * * * * * * * * * * * * * * * * * * * * * * * //

dimensions      [1 -1 -2 0 0 0 0];

internalField   nonuniform List<scalar> 
125
(
-9.42747e-06
-9.42876e-06
-9.42621e-06
-9.42778e-06
-9.42845e-06
-6.35003e-06
-6.34773e-06
-6.34512e-06
-6.34673e-06
-6.35095e-06
-7.67196e-06
-7.66904e-06
-7.66634e-06
-7.66801e-06
-7.67284e-06
-8.47186e-06
-8.46934e-06
-8.46665e-06
-8.46832e-06
-8.4727e-06
-8.58408e-06
-8.58183e-06
-8.5792e-06
-8.58083e-06
-8.58487e-06
-8.52342e-06
-8.52125e-06
-8.51867e-06
-8.52027e-06
-8.52418e-06
-8.48411e-06
-8.48196e-06
-8.47943e-06
-8.481e-06
-8.48484e-06
-8.4721e-06
-8.46998e-06
-8.4675e-06
-8.46904e-06
-8.47281e-06
-8.46683e-06
-8.46474e-06
-8.46231e-06
-8.46383e-06
-8.46751e-06
-8.4606e-06
-8.45856e-06
-8.45617e-06
-8.45766e-06
-8.46125e-06
-8.4532e-06
-8.4512e-06
-8.44886e-06
-8.45032e-06
-8.45384e-06
-8.44547e-06
-8.4435e-06
-8.44121e-06
-8.44264e-06
-8.44607e-06
-8.43769e-06
-8.43576e-06
-8.43351e-06
-8.43492e-06
-8.43827e-06
-8.42987e-06
-8.42798e-06
-8.42578e-06
-8.42716e-06
-8.43043e-06
-8.42199e-06
-8.42014e-06
-8.41798e-06
-8.41933e-06
-8.42253e-06
-8.41402e-06
-8.41221e-06
-8.4101e-06
-8.41142e-06
-8.41455e-06
-8.40598e-06
-8.4042e-06
-8.40214e-06
-8.40343e-06
-8.40648e-06
-8.39785e-06
-8.39611e-06
-8.39409e-06
-8.39536e-06
-8.39833e-06
-8.38964e-06
-8.38794e-06
-8.38596e-06
-8.3872e-06
-8.3901e-06
-8.38134e-06
-8.37968e-06
-8.37775e-06
-8.37895e-06
-8.38178e-06
-8.37296e-06
-8.37134e-06
-8.36945e-06
-8.37063e-06
-8.37338e-06
-8.36449e-06
-8.36291e-06
-8.36106e-06
-8.36221e-06
-8.3649e-06
-8.35594e-06
-8.35439e-06
-8.35259e-06
-8.35371e-06
-8.35633e-06
-8.34731e-06
-8.3458e-06
-8.34404e-06
-8.34513e-06
-8.34768e-06
-8.33861e-06
-8.33713e-06
-8.33541e-06
-8.33648e-06
-8.33896e-06
)
;

boundaryField
{
    BotWall
    {
        type            fixedFluxPressure;
        gradient        nonuniform 0();
        value           nonuniform 0();
    }
    FreeStream
    {
        type            totalPressure;
        rho             rho;
        psi             none;
        gamma           1;
        p0              nonuniform 0();
        value           nonuniform 0();
    }
    FrontNBack
    {
        type            empty;
    }
    LeftSide
    {
        type            symmetryPlane;
    }
    RightSide
    {
        type            symmetryPlane;
    }
    procBoundary1to0
    {
        type            processor;
        value           nonuniform List<scalar> 5(-2.97749e-05 -2.97796e-05 -2.97762e-05 -2.97783e-05 -2.97761e-05);
    }
    procBoundary1to2
    {
        type            processor;
        value           nonuniform List<scalar> 5(-8.32983e-06 -8.32838e-06 -8.32671e-06 -8.32775e-06 -8.33017e-06);
    }
}


// ************************************************************************* //
