/*--------------------------------*- C++ -*----------------------------------*\
| =========                 |                                                 |
| \\      /  F ield         | OpenFOAM: The Open Source CFD Toolbox           |
|  \\    /   O peration     | Version:  2.4.0                                 |
|   \\  /    A nd           | Web:      www.OpenFOAM.org                      |
|    \\/     M anipulation  |                                                 |
\*---------------------------------------------------------------------------*/
FoamFile
{
    version     2.0;
    format      ascii;
    class       volScalarField;
    location    "0.008";
    object      T;
}
// * * * * * * * * * * * * * * * * * * * * * * * * * * * * * * * * * * * * * //

dimensions      [0 0 0 1 0 0 0];

internalField   nonuniform List<scalar> 
125
(
293.59
294.774
295.971
297.852
297.851
297.85
297.85
297.85
297.851
297.853
297.855
297.857
297.86
297.863
297.867
297.871
297.875
297.879
297.884
297.889
297.894
297.899
297.904
297.908
297.913
297.918
297.923
297.928
297.932
297.937
297.941
297.945
297.949
297.953
297.956
297.96
297.963
297.966
297.968
297.971
297.973
297.976
297.978
297.979
297.981
297.983
297.984
297.986
297.987
297.988
297.989
297.99
297.991
297.991
297.992
297.993
297.993
297.994
297.994
297.995
297.995
297.995
297.996
297.996
297.996
297.996
297.997
297.997
297.997
297.997
297.997
297.998
297.998
297.998
297.998
297.998
297.998
297.998
297.998
297.999
297.999
297.999
297.999
297.999
297.999
297.999
297.999
297.999
297.999
297.999
297.999
297.999
297.999
297.999
297.999
298
298
298
298
298
298
298
298
298
298
298
298
298
298
298
298
298
298
298
298
298
298
298
298
298
298
298
298
298
298
)
;

boundaryField
{
    BotWall
    {
        type            fixedValue;
        value           uniform 293;
    }
    FreeStream
    {
        type            fixedValue;
        value           nonuniform 0();
    }
    FrontNBack
    {
        type            empty;
    }
    LeftSide
    {
        type            symmetryPlane;
    }
    RightSide
    {
        type            symmetryPlane;
    }
    procBoundary11to8
    {
        type            processor;
        value           nonuniform List<scalar> 
50
(
297.998
297.998
297.998
297.998
297.999
297.999
297.999
297.999
297.999
297.999
297.999
297.999
297.999
297.999
297.999
297.999
297.999
297.999
297.999
297.999
298
298
298
298
298
298
298
298
298
298
298
298
298
298
298
298
298
298
298
298
298
298
298
298
298
298
298
298
298
298
)
;
    }
    procBoundary11to9
    {
        type            processor;
        value           nonuniform List<scalar> 
75
(
293.588
294.77
295.965
297.848
297.847
297.846
297.846
297.847
297.848
297.849
297.851
297.854
297.857
297.86
297.864
297.868
297.873
297.877
297.882
297.887
297.892
297.897
297.903
297.908
297.913
297.918
297.923
297.928
297.932
297.937
297.941
297.945
297.949
297.953
297.957
297.96
297.963
297.966
297.969
297.971
297.974
297.976
297.978
297.98
297.982
297.983
297.985
297.986
297.987
297.988
297.989
297.99
297.991
297.991
297.992
297.993
297.993
297.994
297.994
297.995
297.995
297.995
297.996
297.996
297.996
297.996
297.997
297.997
297.997
297.997
297.997
297.998
297.998
297.998
297.998
)
;
    }
    procBoundary11to10
    {
        type            processor;
        value           uniform 298;
    }
}


// ************************************************************************* //
