/*--------------------------------*- C++ -*----------------------------------*\
| =========                 |                                                 |
| \\      /  F ield         | OpenFOAM: The Open Source CFD Toolbox           |
|  \\    /   O peration     | Version:  2.4.0                                 |
|   \\  /    A nd           | Web:      www.OpenFOAM.org                      |
|    \\/     M anipulation  |                                                 |
\*---------------------------------------------------------------------------*/
FoamFile
{
    version     2.0;
    format      ascii;
    class       volScalarField;
    location    "1.5";
    object      p;
}
// * * * * * * * * * * * * * * * * * * * * * * * * * * * * * * * * * * * * * //

dimensions      [1 -1 -2 0 0 0 0];

internalField   nonuniform List<scalar> 
8000
(
0.294244
0.288525
0.283378
0.279311
0.275955
0.273075
0.270593
0.268471
0.266676
0.265173
0.263935
0.262935
0.262158
0.261588
0.261219
0.261042
0.261059
0.261272
0.2617
0.262367
0.263299
0.264365
0.265168
0.265741
0.269968
0.288988
0.322139
0.271207
-0.146061
-0.891445
-0.163785
-0.00564906
-0.00522504
-0.00525519
-0.00528412
-0.00529215
-0.00529285
-0.00529336
-0.0052945
-0.00529578
-0.00529705
-0.00529838
-0.00529977
-0.00530118
-0.00530255
-0.00530388
-0.00530518
-0.00530645
-0.0053077
-0.00530893
0.0512229
0.0464956
0.0411072
0.0362954
0.0321641
0.0285862
0.0254933
0.0228621
0.020684
0.0189474
0.0176452
0.0167681
0.0163141
0.0162773
0.016661
0.0174622
0.0186888
0.0203404
0.0224379
0.0249991
0.0280412
0.0314079
0.0347074
0.0380761
0.0455834
0.0678243
0.101004
0.0428641
-0.373625
-1.03513
-0.10052
-0.0160544
-0.0157987
-0.0158526
-0.0158831
-0.0158912
-0.0158939
-0.0158974
-0.0159017
-0.0159062
-0.0159108
-0.0159154
-0.0159202
-0.015925
-0.0159298
-0.0159345
-0.0159392
-0.0159439
-0.0159485
-0.0159531
0.118162
0.115636
0.113061
0.110683
0.108408
0.106175
0.103971
0.101798
0.0996566
0.0975451
0.0954615
0.0934025
0.091367
0.0893513
0.0873548
0.0853731
0.0834058
0.0814481
0.0795069
0.0775893
0.0756923
0.0736677
0.0711736
0.0683836
0.0688537
0.081327
0.100796
0.0370716
-0.330769
-0.877287
-0.0668241
-0.0266371
-0.02638
-0.0264436
-0.0264762
-0.0264852
-0.0264895
-0.026495
-0.0265016
-0.0265085
-0.0265156
-0.0265229
-0.0265304
-0.026538
-0.0265456
-0.0265532
-0.0265608
-0.0265684
-0.0265759
-0.0265834
-0.0223526
-0.0237718
-0.0254643
-0.0271247
-0.0287229
-0.0302841
-0.031818
-0.0333255
-0.0348038
-0.0362536
-0.0376732
-0.0390652
-0.0404278
-0.0417652
-0.043075
-0.0443636
-0.0456281
-0.0468765
-0.0480992
-0.0492987
-0.0504819
-0.0517902
-0.0534509
-0.0551054
-0.0535621
-0.042887
-0.0329931
-0.104749
-0.406053
-0.699113
-0.0430454
-0.0370938
-0.0369119
-0.0369841
-0.0370253
-0.0370443
-0.0370584
-0.0370731
-0.0370882
-0.0371031
-0.0371178
-0.0371322
-0.0371464
-0.0371603
-0.0371738
-0.037187
-0.0371999
-0.0372126
-0.0372249
-0.037237
-0.0698147
-0.069621
-0.0695225
-0.0696434
-0.0699917
-0.0705544
-0.0713222
-0.072293
-0.0734638
-0.0748353
-0.0764051
-0.0781755
-0.0801447
-0.0823178
-0.0846928
-0.0872783
-0.0900718
-0.093085
-0.0963094
-0.0997555
-0.103437
-0.107495
-0.112085
-0.116709
-0.118364
-0.112987
-0.114235
-0.198379
-0.464711
-0.581358
-0.0491698
-0.0475985
-0.0475452
-0.047611
-0.047652
-0.0476767
-0.0476977
-0.0477186
-0.0477392
-0.0477591
-0.0477783
-0.047797
-0.0478151
-0.0478326
-0.0478495
-0.0478658
-0.0478817
-0.0478971
-0.0479121
-0.0479266
-0.11196
-0.111748
-0.111648
-0.111735
-0.111999
-0.112426
-0.113007
-0.113742
-0.114625
-0.115658
-0.116839
-0.118169
-0.119647
-0.121278
-0.12306
-0.125003
-0.127104
-0.129377
-0.13181
-0.134421
-0.137244
-0.140451
-0.144105
-0.14722
-0.146176
-0.139307
-0.152329
-0.276066
-0.547305
-0.404617
-0.0588677
-0.0583216
-0.0583806
-0.0584285
-0.0584517
-0.0584671
-0.0584824
-0.0584984
-0.0585143
-0.0585301
-0.0585456
-0.0585611
-0.0585763
-0.0585913
-0.058606
-0.0586206
-0.0586348
-0.0586489
-0.0586628
-0.0586765
-0.111145
-0.112075
-0.113143
-0.114186
-0.115202
-0.11621
-0.117216
-0.118219
-0.119218
-0.12021
-0.121195
-0.12217
-0.123132
-0.124077
-0.125003
-0.125904
-0.126778
-0.12761
-0.128377
-0.129073
-0.129855
-0.131177
-0.132965
-0.130977
-0.113411
-0.0824333
-0.146436
-0.606206
-1.38359
-0.264562
-0.0696269
-0.0692251
-0.0693037
-0.0693417
-0.0693496
-0.069352
-0.0693564
-0.0693626
-0.0693696
-0.0693771
-0.0693852
-0.0693938
-0.0694028
-0.0694121
-0.0694216
-0.0694314
-0.0694414
-0.0694516
-0.0694619
-0.0694724
-0.0870278
-0.089443
-0.09195
-0.0941637
-0.0961265
-0.0979006
-0.0995065
-0.100944
-0.102215
-0.103316
-0.10425
-0.105014
-0.105607
-0.106024
-0.106265
-0.106319
-0.106187
-0.105849
-0.105289
-0.104499
-0.103632
-0.103028
-0.102434
-0.097923
-0.0803629
-0.0566133
-0.125563
-0.51727
-1.0576
-0.109066
-0.0801964
-0.0799364
-0.0800088
-0.080046
-0.0800582
-0.0800656
-0.0800746
-0.0800849
-0.0800958
-0.0801069
-0.0801184
-0.0801301
-0.0801421
-0.0801541
-0.0801662
-0.0801785
-0.0801908
-0.0802031
-0.0802155
-0.0802278
-0.156309
-0.157601
-0.159109
-0.160609
-0.1621
-0.163608
-0.165144
-0.166711
-0.168309
-0.169939
-0.171605
-0.173305
-0.175043
-0.176819
-0.178637
-0.180495
-0.182399
-0.184339
-0.186313
-0.188332
-0.190534
-0.193155
-0.195794
-0.195125
-0.185079
-0.176372
-0.253342
-0.566542
-0.840991
-0.0951426
-0.0907453
-0.0905896
-0.0906671
-0.0907128
-0.0907364
-0.0907551
-0.0907742
-0.0907935
-0.0908124
-0.0908309
-0.0908491
-0.0908668
-0.0908842
-0.0909012
-0.0909178
-0.0909341
-0.09095
-0.0909657
-0.0909811
-0.0909962
-0.187606
-0.187823
-0.18818
-0.188693
-0.189362
-0.190184
-0.191156
-0.192276
-0.193544
-0.194958
-0.196521
-0.198232
-0.200097
-0.202114
-0.204292
-0.206631
-0.209141
-0.211816
-0.214667
-0.217713
-0.221109
-0.225007
-0.228802
-0.229204
-0.222256
-0.224376
-0.319086
-0.602428
-0.65548
-0.102492
-0.101412
-0.101408
-0.10147
-0.101507
-0.10153
-0.10155
-0.101571
-0.101591
-0.101611
-0.10163
-0.101649
-0.101668
-0.101686
-0.101703
-0.10172
-0.101737
-0.101753
-0.101769
-0.101785
-0.101801
-0.193511
-0.193785
-0.194184
-0.19471
-0.195364
-0.196142
-0.197043
-0.198063
-0.199201
-0.200455
-0.201825
-0.203309
-0.204911
-0.206629
-0.20847
-0.21043
-0.212519
-0.214725
-0.217061
-0.219567
-0.222433
-0.225722
-0.228257
-0.225841
-0.216736
-0.231561
-0.376169
-0.687858
-0.479805
-0.112841
-0.112318
-0.112386
-0.11243
-0.112447
-0.112457
-0.112467
-0.112479
-0.112491
-0.112504
-0.112516
-0.112529
-0.112542
-0.112555
-0.112567
-0.11258
-0.112593
-0.112606
-0.112619
-0.112631
-0.112644
-0.181507
-0.182723
-0.18412
-0.185484
-0.18681
-0.188123
-0.189431
-0.190734
-0.192029
-0.193315
-0.194593
-0.195858
-0.197112
-0.198352
-0.199577
-0.200783
-0.201964
-0.2031
-0.204191
-0.205368
-0.207023
-0.209098
-0.208048
-0.193926
-0.168376
-0.221948
-0.607394
-1.26428
-0.331146
-0.123665
-0.123258
-0.123337
-0.123374
-0.123381
-0.123382
-0.123386
-0.123391
-0.123397
-0.123403
-0.12341
-0.123418
-0.123426
-0.123435
-0.123443
-0.123452
-0.123462
-0.123471
-0.123481
-0.123491
-0.123501
-0.139788
-0.142531
-0.145406
-0.147962
-0.150234
-0.152293
-0.154159
-0.155835
-0.157318
-0.15861
-0.159707
-0.160613
-0.16132
-0.16183
-0.162136
-0.162237
-0.162115
-0.161751
-0.161141
-0.160459
-0.160115
-0.15986
-0.15521
-0.135329
-0.107027
-0.183667
-0.639495
-1.28833
-0.180799
-0.134339
-0.134046
-0.134121
-0.134157
-0.134166
-0.13417
-0.134176
-0.134184
-0.134192
-0.134201
-0.13421
-0.134219
-0.134229
-0.134239
-0.13425
-0.13426
-0.134271
-0.134282
-0.134293
-0.134304
-0.134315
-0.179532
-0.181694
-0.184073
-0.186301
-0.18839
-0.190391
-0.192321
-0.194183
-0.195976
-0.197702
-0.199361
-0.200956
-0.202485
-0.203952
-0.205353
-0.206693
-0.20796
-0.209148
-0.210259
-0.211444
-0.212996
-0.214593
-0.212597
-0.199354
-0.183584
-0.257308
-0.611892
-1.02702
-0.153055
-0.144959
-0.144743
-0.144824
-0.144869
-0.144888
-0.144902
-0.144917
-0.144932
-0.144948
-0.144964
-0.144979
-0.144994
-0.145009
-0.145024
-0.145039
-0.145054
-0.145068
-0.145082
-0.145096
-0.145111
-0.145124
-0.224613
-0.225485
-0.226552
-0.227694
-0.228909
-0.23021
-0.231601
-0.233083
-0.234654
-0.236316
-0.238067
-0.239913
-0.241851
-0.243888
-0.246023
-0.248263
-0.250599
-0.253037
-0.255589
-0.258408
-0.26171
-0.265016
-0.26488
-0.255701
-0.250499
-0.336722
-0.652566
-0.859892
-0.157351
-0.155569
-0.155506
-0.155577
-0.15562
-0.155646
-0.155667
-0.155689
-0.15571
-0.155731
-0.155751
-0.155771
-0.15579
-0.155808
-0.155827
-0.155844
-0.155862
-0.155879
-0.155895
-0.155911
-0.155927
-0.155943
-0.235612
-0.236283
-0.237079
-0.237938
-0.23887
-0.239883
-0.240977
-0.242152
-0.243404
-0.244734
-0.246138
-0.247621
-0.249177
-0.250812
-0.252522
-0.254314
-0.256175
-0.258111
-0.260142
-0.262434
-0.265124
-0.267421
-0.265583
-0.255873
-0.259216
-0.370413
-0.678567
-0.687394
-0.167141
-0.166439
-0.166494
-0.166545
-0.166569
-0.166584
-0.166598
-0.166613
-0.166628
-0.166643
-0.166658
-0.166673
-0.166688
-0.166702
-0.166717
-0.166731
-0.166745
-0.166759
-0.166773
-0.166787
-0.166801
-0.166815
-0.248264
-0.248735
-0.249359
-0.250096
-0.250942
-0.251902
-0.252973
-0.254156
-0.255448
-0.256849
-0.258358
-0.259978
-0.261706
-0.26355
-0.265506
-0.267581
-0.269764
-0.272067
-0.274536
-0.277377
-0.280647
-0.282984
-0.27972
-0.269333
-0.287127
-0.450957
-0.791497
-0.532521
-0.177888
-0.177401
-0.177485
-0.177525
-0.177535
-0.177538
-0.177544
-0.177551
-0.177559
-0.177567
-0.177576
-0.177585
-0.177595
-0.177605
-0.177615
-0.177625
-0.177635
-0.177646
-0.177656
-0.177667
-0.177678
-0.17769
-0.232143
-0.233343
-0.234719
-0.236068
-0.237387
-0.2387
-0.240014
-0.241329
-0.242642
-0.243954
-0.245262
-0.246568
-0.247869
-0.249167
-0.250458
-0.25174
-0.252992
-0.254219
-0.255547
-0.257361
-0.259601
-0.258858
-0.245553
-0.221324
-0.273342
-0.644654
-1.27576
-0.390435
-0.188742
-0.188314
-0.188402
-0.188439
-0.188445
-0.188444
-0.188446
-0.18845
-0.188455
-0.188461
-0.188467
-0.188473
-0.18848
-0.188487
-0.188495
-0.188503
-0.188512
-0.18852
-0.188529
-0.188539
-0.188548
-0.188558
-0.191136
-0.193873
-0.196745
-0.199284
-0.201528
-0.203544
-0.205355
-0.20696
-0.208359
-0.20955
-0.210535
-0.211308
-0.21187
-0.212216
-0.212345
-0.212238
-0.211876
-0.211254
-0.210563
-0.210259
-0.210083
-0.205142
-0.183456
-0.152104
-0.235056
-0.735823
-1.45573
-0.244977
-0.1994
-0.199088
-0.19917
-0.199209
-0.199218
-0.199222
-0.199229
-0.199236
-0.199245
-0.199254
-0.199263
-0.199273
-0.199283
-0.199293
-0.199304
-0.199314
-0.199325
-0.199336
-0.199347
-0.199359
-0.19937
-0.199382
-0.226759
-0.228962
-0.231363
-0.233586
-0.23565
-0.237605
-0.239469
-0.241244
-0.242931
-0.244527
-0.246038
-0.247461
-0.248799
-0.250049
-0.251215
-0.252286
-0.253251
-0.254114
-0.255035
-0.256348
-0.257757
-0.255347
-0.240412
-0.221026
-0.296311
-0.684305
-1.17939
-0.217436
-0.209982
-0.209766
-0.209853
-0.209901
-0.209922
-0.209938
-0.209955
-0.209972
-0.20999
-0.210007
-0.210024
-0.21004
-0.210056
-0.210072
-0.210088
-0.210104
-0.210119
-0.210134
-0.210149
-0.210164
-0.210179
-0.210194
-0.00531015
-0.00531136
-0.00531256
-0.00531375
-0.00531494
-0.00531612
-0.0053173
-0.00531847
-0.00531965
-0.00532082
-0.00532199
-0.00532316
-0.00532433
-0.0053255
-0.00532667
-0.00532783
-0.00532899
-0.00533015
-0.00533131
-0.00533247
-0.00533363
-0.00533478
-0.00533593
-0.00533707
-0.00533822
-0.00533936
-0.00534049
-0.00534162
-0.00534275
-0.00534387
-0.00534499
-0.0053461
-0.00534721
-0.00534831
-0.00534941
-0.0053505
-0.00535159
-0.00535267
-0.00535374
-0.00535481
-0.00535588
-0.00535693
-0.00535799
-0.00535903
-0.00536007
-0.00536111
-0.00536214
-0.00536317
-0.00536419
-0.00536517
-0.0159577
-0.0159622
-0.0159667
-0.0159711
-0.0159755
-0.0159798
-0.0159841
-0.0159884
-0.0159926
-0.0159967
-0.0160008
-0.0160049
-0.0160089
-0.0160128
-0.0160167
-0.0160206
-0.0160244
-0.0160281
-0.0160318
-0.0160355
-0.0160391
-0.0160427
-0.0160462
-0.0160496
-0.0160531
-0.0160564
-0.0160598
-0.016063
-0.0160663
-0.0160695
-0.0160726
-0.0160757
-0.0160788
-0.0160818
-0.0160848
-0.0160878
-0.0160907
-0.0160936
-0.0160964
-0.0160992
-0.016102
-0.0161047
-0.0161074
-0.0161101
-0.0161127
-0.0161153
-0.0161179
-0.0161204
-0.0161229
-0.0161254
-0.0265909
-0.0265982
-0.0266056
-0.0266128
-0.02662
-0.0266272
-0.0266342
-0.0266412
-0.026648
-0.0266549
-0.0266616
-0.0266682
-0.0266748
-0.0266813
-0.0266877
-0.026694
-0.0267002
-0.0267064
-0.0267124
-0.0267184
-0.0267244
-0.0267302
-0.026736
-0.0267417
-0.0267473
-0.0267528
-0.0267583
-0.0267637
-0.0267691
-0.0267743
-0.0267795
-0.0267847
-0.0267898
-0.0267948
-0.0267997
-0.0268046
-0.0268095
-0.0268142
-0.026819
-0.0268236
-0.0268283
-0.0268328
-0.0268373
-0.0268418
-0.0268462
-0.0268505
-0.0268549
-0.0268591
-0.0268633
-0.0268675
-0.0372488
-0.0372604
-0.0372717
-0.0372828
-0.0372936
-0.0373043
-0.0373147
-0.037325
-0.037335
-0.0373448
-0.0373545
-0.037364
-0.0373733
-0.0373825
-0.0373915
-0.0374003
-0.037409
-0.0374176
-0.037426
-0.0374343
-0.0374424
-0.0374504
-0.0374583
-0.0374661
-0.0374737
-0.0374812
-0.0374887
-0.037496
-0.0375032
-0.0375103
-0.0375173
-0.0375242
-0.0375311
-0.0375378
-0.0375444
-0.037551
-0.0375574
-0.0375638
-0.0375701
-0.0375763
-0.0375825
-0.0375886
-0.0375945
-0.0376005
-0.0376063
-0.0376121
-0.0376178
-0.0376235
-0.037629
-0.0376345
-0.0479408
-0.0479546
-0.0479681
-0.0479812
-0.0479941
-0.0480066
-0.0480189
-0.0480309
-0.0480427
-0.0480543
-0.0480656
-0.0480767
-0.0480876
-0.0480984
-0.0481089
-0.0481193
-0.0481295
-0.0481395
-0.0481494
-0.0481591
-0.0481687
-0.0481781
-0.0481874
-0.0481966
-0.0482056
-0.0482145
-0.0482233
-0.048232
-0.0482406
-0.0482491
-0.0482574
-0.0482657
-0.0482738
-0.0482819
-0.0482899
-0.0482977
-0.0483055
-0.0483132
-0.0483208
-0.0483284
-0.0483358
-0.0483432
-0.0483505
-0.0483577
-0.0483648
-0.0483719
-0.0483789
-0.0483858
-0.0483927
-0.0483994
-0.0586899
-0.0587032
-0.0587163
-0.0587292
-0.0587419
-0.0587545
-0.0587669
-0.0587791
-0.0587912
-0.0588031
-0.0588149
-0.0588265
-0.058838
-0.0588493
-0.0588605
-0.0588716
-0.0588825
-0.0588933
-0.058904
-0.0589145
-0.058925
-0.0589353
-0.0589455
-0.0589556
-0.0589656
-0.0589754
-0.0589852
-0.0589949
-0.0590044
-0.0590139
-0.0590232
-0.0590325
-0.0590417
-0.0590507
-0.0590597
-0.0590686
-0.0590774
-0.0590861
-0.0590948
-0.0591033
-0.0591118
-0.0591202
-0.0591285
-0.0591367
-0.0591449
-0.059153
-0.059161
-0.0591689
-0.0591767
-0.0591845
-0.069483
-0.0694936
-0.0695044
-0.0695152
-0.069526
-0.0695369
-0.0695478
-0.0695587
-0.0695697
-0.0695806
-0.0695915
-0.0696023
-0.0696132
-0.069624
-0.0696348
-0.0696455
-0.0696562
-0.0696669
-0.0696775
-0.069688
-0.0696985
-0.0697089
-0.0697193
-0.0697296
-0.0697398
-0.06975
-0.0697601
-0.0697702
-0.0697801
-0.06979
-0.0697999
-0.0698097
-0.0698194
-0.069829
-0.0698386
-0.0698481
-0.0698575
-0.0698669
-0.0698762
-0.0698855
-0.0698946
-0.0699037
-0.0699128
-0.0699218
-0.0699307
-0.0699396
-0.0699483
-0.0699571
-0.0699657
-0.0699743
-0.0802402
-0.0802526
-0.080265
-0.0802774
-0.0802897
-0.080302
-0.0803143
-0.0803265
-0.0803387
-0.0803508
-0.0803628
-0.0803748
-0.0803868
-0.0803986
-0.0804104
-0.0804222
-0.0804338
-0.0804454
-0.0804569
-0.0804684
-0.0804797
-0.080491
-0.0805022
-0.0805134
-0.0805245
-0.0805354
-0.0805464
-0.0805572
-0.080568
-0.0805787
-0.0805893
-0.0805999
-0.0806103
-0.0806208
-0.0806311
-0.0806414
-0.0806516
-0.0806617
-0.0806717
-0.0806817
-0.0806917
-0.0807015
-0.0807113
-0.080721
-0.0807307
-0.0807403
-0.0807498
-0.0807593
-0.0807687
-0.080778
-0.0910111
-0.0910258
-0.0910402
-0.0910545
-0.0910686
-0.0910824
-0.0910961
-0.0911097
-0.0911231
-0.0911363
-0.0911494
-0.0911624
-0.0911752
-0.091188
-0.0912006
-0.091213
-0.0912254
-0.0912377
-0.0912499
-0.0912619
-0.0912739
-0.0912858
-0.0912975
-0.0913092
-0.0913209
-0.0913324
-0.0913438
-0.0913552
-0.0913665
-0.0913777
-0.0913888
-0.0913999
-0.0914109
-0.0914218
-0.0914326
-0.0914434
-0.0914541
-0.0914648
-0.0914754
-0.0914859
-0.0914964
-0.0915068
-0.0915171
-0.0915274
-0.0915376
-0.0915478
-0.0915579
-0.0915679
-0.0915779
-0.0915878
-0.101816
-0.101831
-0.101846
-0.10186
-0.101874
-0.101889
-0.101902
-0.101916
-0.10193
-0.101943
-0.101957
-0.10197
-0.101983
-0.101996
-0.102009
-0.102022
-0.102034
-0.102047
-0.102059
-0.102071
-0.102084
-0.102096
-0.102108
-0.10212
-0.102132
-0.102144
-0.102155
-0.102167
-0.102179
-0.10219
-0.102202
-0.102213
-0.102225
-0.102236
-0.102247
-0.102258
-0.102269
-0.10228
-0.102291
-0.102302
-0.102313
-0.102324
-0.102335
-0.102346
-0.102356
-0.102367
-0.102377
-0.102388
-0.102398
-0.102409
-0.112657
-0.11267
-0.112683
-0.112695
-0.112708
-0.11272
-0.112733
-0.112746
-0.112758
-0.112771
-0.112783
-0.112795
-0.112808
-0.11282
-0.112832
-0.112845
-0.112857
-0.112869
-0.112881
-0.112893
-0.112905
-0.112917
-0.112929
-0.112941
-0.112953
-0.112964
-0.112976
-0.112988
-0.113
-0.113011
-0.113023
-0.113034
-0.113046
-0.113057
-0.113069
-0.11308
-0.113091
-0.113103
-0.113114
-0.113125
-0.113136
-0.113147
-0.113158
-0.11317
-0.113181
-0.113191
-0.113202
-0.113213
-0.113224
-0.113235
-0.123512
-0.123522
-0.123533
-0.123544
-0.123555
-0.123566
-0.123577
-0.123588
-0.123599
-0.123611
-0.123622
-0.123633
-0.123645
-0.123656
-0.123668
-0.12368
-0.123691
-0.123703
-0.123714
-0.123726
-0.123738
-0.123749
-0.123761
-0.123773
-0.123784
-0.123796
-0.123808
-0.123819
-0.123831
-0.123843
-0.123854
-0.123866
-0.123877
-0.123889
-0.1239
-0.123912
-0.123923
-0.123935
-0.123946
-0.123957
-0.123969
-0.12398
-0.123991
-0.124003
-0.124014
-0.124025
-0.124036
-0.124047
-0.124059
-0.12407
-0.134326
-0.134338
-0.13435
-0.134361
-0.134373
-0.134385
-0.134397
-0.134409
-0.13442
-0.134432
-0.134444
-0.134456
-0.134468
-0.134481
-0.134493
-0.134505
-0.134517
-0.134529
-0.134541
-0.134553
-0.134565
-0.134577
-0.134589
-0.134601
-0.134613
-0.134625
-0.134637
-0.134649
-0.134661
-0.134673
-0.134685
-0.134697
-0.134709
-0.134721
-0.134732
-0.134744
-0.134756
-0.134768
-0.13478
-0.134791
-0.134803
-0.134815
-0.134826
-0.134838
-0.13485
-0.134861
-0.134873
-0.134884
-0.134896
-0.134907
-0.145138
-0.145152
-0.145166
-0.145179
-0.145193
-0.145206
-0.145219
-0.145233
-0.145246
-0.145259
-0.145272
-0.145285
-0.145298
-0.145311
-0.145323
-0.145336
-0.145349
-0.145362
-0.145374
-0.145387
-0.1454
-0.145412
-0.145425
-0.145437
-0.145449
-0.145462
-0.145474
-0.145487
-0.145499
-0.145511
-0.145523
-0.145536
-0.145548
-0.14556
-0.145572
-0.145584
-0.145596
-0.145608
-0.145621
-0.145633
-0.145645
-0.145657
-0.145669
-0.14568
-0.145692
-0.145704
-0.145716
-0.145728
-0.14574
-0.145751
-0.155959
-0.155974
-0.155989
-0.156004
-0.156018
-0.156033
-0.156047
-0.156061
-0.156076
-0.15609
-0.156103
-0.156117
-0.156131
-0.156144
-0.156158
-0.156171
-0.156184
-0.156198
-0.156211
-0.156224
-0.156237
-0.15625
-0.156263
-0.156276
-0.156288
-0.156301
-0.156314
-0.156327
-0.156339
-0.156352
-0.156365
-0.156377
-0.15639
-0.156402
-0.156415
-0.156427
-0.15644
-0.156452
-0.156464
-0.156477
-0.156489
-0.156501
-0.156514
-0.156526
-0.156538
-0.15655
-0.156563
-0.156575
-0.156587
-0.156599
-0.166828
-0.166842
-0.166855
-0.166868
-0.166882
-0.166895
-0.166908
-0.166921
-0.166934
-0.166948
-0.166961
-0.166974
-0.166986
-0.166999
-0.167012
-0.167025
-0.167038
-0.167051
-0.167064
-0.167076
-0.167089
-0.167102
-0.167114
-0.167127
-0.16714
-0.167152
-0.167165
-0.167178
-0.16719
-0.167203
-0.167216
-0.167228
-0.167241
-0.167253
-0.167266
-0.167278
-0.167291
-0.167303
-0.167316
-0.167328
-0.167341
-0.167353
-0.167366
-0.167378
-0.167391
-0.167403
-0.167415
-0.167428
-0.16744
-0.167453
-0.177701
-0.177712
-0.177724
-0.177735
-0.177747
-0.177759
-0.177771
-0.177783
-0.177795
-0.177807
-0.177819
-0.177831
-0.177843
-0.177855
-0.177868
-0.17788
-0.177892
-0.177905
-0.177917
-0.17793
-0.177942
-0.177955
-0.177967
-0.17798
-0.177992
-0.178005
-0.178017
-0.17803
-0.178042
-0.178055
-0.178068
-0.17808
-0.178093
-0.178106
-0.178118
-0.178131
-0.178144
-0.178156
-0.178169
-0.178182
-0.178194
-0.178207
-0.17822
-0.178232
-0.178245
-0.178258
-0.17827
-0.178283
-0.178296
-0.178308
-0.188568
-0.188578
-0.188589
-0.188599
-0.18861
-0.188621
-0.188632
-0.188643
-0.188654
-0.188666
-0.188677
-0.188689
-0.188701
-0.188712
-0.188724
-0.188736
-0.188748
-0.18876
-0.188773
-0.188785
-0.188797
-0.188809
-0.188822
-0.188834
-0.188847
-0.188859
-0.188872
-0.188884
-0.188897
-0.18891
-0.188922
-0.188935
-0.188948
-0.18896
-0.188973
-0.188986
-0.188999
-0.189012
-0.189025
-0.189037
-0.18905
-0.189063
-0.189076
-0.189089
-0.189102
-0.189115
-0.189128
-0.189141
-0.189154
-0.189167
-0.199393
-0.199405
-0.199417
-0.199429
-0.199441
-0.199453
-0.199465
-0.199478
-0.19949
-0.199503
-0.199515
-0.199528
-0.19954
-0.199553
-0.199565
-0.199578
-0.199591
-0.199604
-0.199617
-0.199629
-0.199642
-0.199655
-0.199668
-0.199681
-0.199694
-0.199707
-0.19972
-0.199733
-0.199746
-0.199759
-0.199772
-0.199786
-0.199799
-0.199812
-0.199825
-0.199838
-0.199852
-0.199865
-0.199878
-0.199891
-0.199905
-0.199918
-0.199931
-0.199945
-0.199958
-0.199971
-0.199985
-0.199998
-0.200012
-0.200025
-0.210208
-0.210222
-0.210237
-0.210251
-0.210265
-0.210279
-0.210293
-0.210307
-0.210321
-0.210335
-0.210348
-0.210362
-0.210376
-0.21039
-0.210403
-0.210417
-0.210431
-0.210444
-0.210458
-0.210471
-0.210485
-0.210499
-0.210512
-0.210526
-0.210539
-0.210553
-0.210567
-0.21058
-0.210594
-0.210607
-0.210621
-0.210635
-0.210648
-0.210662
-0.210675
-0.210689
-0.210703
-0.210717
-0.21073
-0.210744
-0.210758
-0.210771
-0.210785
-0.210799
-0.210813
-0.210827
-0.21084
-0.210854
-0.210868
-0.210882
-0.00536591
-0.00536646
-0.00536704
-0.00536761
-0.00536819
-0.00536876
-0.00536933
-0.0053699
-0.00537048
-0.00537105
-0.00537162
-0.00537219
-0.00537276
-0.00537333
-0.00537391
-0.00537448
-0.00537505
-0.00537562
-0.0053762
-0.00537677
-0.00537734
-0.00537791
-0.00537849
-0.00537906
-0.00537963
-0.0053802
-0.00538078
-0.00538135
-0.00538192
-0.0053825
-0.00538307
-0.00538364
-0.00538422
-0.00538479
-0.00538536
-0.00538594
-0.00538651
-0.00538708
-0.00538765
-0.00538823
-0.0053888
-0.00538937
-0.00538994
-0.00539051
-0.00539109
-0.00539166
-0.00539223
-0.0053928
-0.00539337
-0.00539394
-0.00539451
-0.00539508
-0.00539565
-0.00539622
-0.00539678
-0.00539735
-0.00539792
-0.00539849
-0.00539905
-0.00539962
-0.00540018
-0.00540075
-0.00540131
-0.00540187
-0.00540244
-0.005403
-0.00540356
-0.00540412
-0.00540468
-0.00540524
-0.0054058
-0.00540635
-0.00540691
-0.00540747
-0.00540802
-0.00540858
-0.00540913
-0.00540968
-0.00541023
-0.00541078
-0.00541133
-0.00541188
-0.00541243
-0.00541298
-0.00541352
-0.00541407
-0.00541461
-0.00541516
-0.0054157
-0.00541624
-0.00541678
-0.00541732
-0.00541785
-0.00541839
-0.00541893
-0.00541946
-0.00541999
-0.00542052
-0.00542106
-0.00542158
-0.00542211
-0.00542264
-0.00542317
-0.00542369
-0.00542421
-0.00542474
-0.00542526
-0.00542578
-0.0054263
-0.00542681
-0.00542733
-0.00542785
-0.00542836
-0.00542887
-0.00542938
-0.00542989
-0.0054304
-0.00543091
-0.00543142
-0.00543192
-0.00543242
-0.00543293
-0.00543343
-0.00543393
-0.00543443
-0.00543492
-0.00543542
-0.00543591
-0.00543641
-0.0054369
-0.00543739
-0.00543788
-0.00543837
-0.00543885
-0.00543934
-0.00543982
-0.00544031
-0.00544079
-0.00544127
-0.00544175
-0.00544223
-0.0054427
-0.00544318
-0.00544366
-0.00544413
-0.0054446
-0.00544507
-0.00544554
-0.00544601
-0.00544648
-0.00544694
-0.00544741
-0.00544787
-0.00544834
-0.0054488
-0.00544926
-0.00544972
-0.00545018
-0.00545064
-0.00545109
-0.00545155
-0.005452
-0.00545246
-0.00545291
-0.00545336
-0.00545381
-0.00545426
-0.00545471
-0.00545516
-0.00545561
-0.00545605
-0.0054565
-0.00545694
-0.00545739
-0.00545783
-0.00545827
-0.00545871
-0.00545915
-0.00545959
-0.00546003
-0.00546047
-0.0054609
-0.00546134
-0.00546178
-0.00546221
-0.00546264
-0.00546308
-0.00546351
-0.00546394
-0.00546437
-0.0054648
-0.00546523
-0.00546566
-0.00546609
-0.00546652
-0.00546694
-0.00546737
-0.00546779
-0.00546822
-0.00546864
-0.00546906
-0.00546948
-0.00546991
-0.00547033
-0.00547074
-0.00547116
-0.00547158
-0.005472
-0.00547241
-0.00547283
-0.00547324
-0.00547365
-0.00547407
-0.00547448
-0.00547489
-0.00547529
-0.0054757
-0.00547611
-0.00547651
-0.00547692
-0.00547732
-0.00547772
-0.00547812
-0.00547852
-0.00547891
-0.00547931
-0.0054797
-0.00548009
-0.00548048
-0.00548087
-0.00548126
-0.00548164
-0.00548203
-0.00548241
-0.00548279
-0.00548316
-0.00548354
-0.00548391
-0.00548428
-0.00548464
-0.00548501
-0.00548537
-0.00548573
-0.00548608
-0.00548643
-0.00548678
-0.00548713
-0.00548747
-0.00548781
-0.00548815
-0.00548848
-0.00548881
-0.00548914
-0.00548946
-0.00548978
-0.00549009
-0.0054904
-0.00549071
-0.00549101
-0.00549131
-0.0054916
-0.00549188
-0.00549217
-0.00549244
-0.00549271
-0.00549298
-0.00549324
-0.0054935
-0.00549375
-0.00549399
-0.00549423
-0.00549446
-0.00549468
-0.0054949
-0.00549512
-0.00549532
-0.00549552
-0.00549571
-0.00549589
-0.00549607
-0.00549624
-0.0054964
-0.00549656
-0.0054967
-0.00549684
-0.00549697
-0.00549709
-0.0054972
-0.0054973
-0.0054974
-0.00549748
-0.00549755
-0.00549762
-0.00549768
-0.00549772
-0.00549776
-0.00549778
-0.00549779
-0.0054978
-0.00549779
-0.0161273
-0.0161287
-0.0161301
-0.0161315
-0.0161329
-0.0161343
-0.0161357
-0.0161371
-0.0161385
-0.0161399
-0.0161413
-0.0161426
-0.016144
-0.0161454
-0.0161468
-0.0161481
-0.0161495
-0.0161509
-0.0161522
-0.0161536
-0.016155
-0.0161563
-0.0161577
-0.016159
-0.0161604
-0.0161617
-0.0161631
-0.0161644
-0.0161658
-0.0161671
-0.0161685
-0.0161698
-0.0161711
-0.0161725
-0.0161738
-0.0161751
-0.0161765
-0.0161778
-0.0161791
-0.0161805
-0.0161818
-0.0161831
-0.0161844
-0.0161858
-0.0161871
-0.0161884
-0.0161897
-0.016191
-0.0161924
-0.0161937
-0.016195
-0.0161963
-0.0161976
-0.0161989
-0.0162003
-0.0162016
-0.0162029
-0.0162042
-0.0162055
-0.0162068
-0.0162081
-0.0162094
-0.0162107
-0.016212
-0.0162133
-0.0162146
-0.0162159
-0.0162173
-0.0162186
-0.0162199
-0.0162212
-0.0162225
-0.0162238
-0.0162251
-0.0162264
-0.0162277
-0.016229
-0.0162303
-0.0162316
-0.0162329
-0.0162342
-0.0162355
-0.0162368
-0.0162381
-0.0162394
-0.0162407
-0.016242
-0.0162433
-0.0162446
-0.016246
-0.0162473
-0.0162486
-0.0162499
-0.0162512
-0.0162525
-0.0162538
-0.0162551
-0.0162564
-0.0162578
-0.0162591
-0.0162604
-0.0162617
-0.016263
-0.0162643
-0.0162657
-0.016267
-0.0162683
-0.0162696
-0.016271
-0.0162723
-0.0162736
-0.0162749
-0.0162763
-0.0162776
-0.0162789
-0.0162803
-0.0162816
-0.0162829
-0.0162843
-0.0162856
-0.016287
-0.0162883
-0.0162896
-0.016291
-0.0162923
-0.0162937
-0.016295
-0.0162964
-0.0162977
-0.0162991
-0.0163005
-0.0163018
-0.0163032
-0.0163045
-0.0163059
-0.0163073
-0.0163086
-0.01631
-0.0163114
-0.0163127
-0.0163141
-0.0163155
-0.0163169
-0.0163183
-0.0163196
-0.016321
-0.0163224
-0.0163238
-0.0163252
-0.0163266
-0.016328
-0.0163294
-0.0163307
-0.0163321
-0.0163335
-0.0163349
-0.0163363
-0.0163377
-0.0163391
-0.0163406
-0.016342
-0.0163434
-0.0163448
-0.0163462
-0.0163476
-0.016349
-0.0163504
-0.0163518
-0.0163533
-0.0163547
-0.0163561
-0.0163575
-0.0163589
-0.0163603
-0.0163618
-0.0163632
-0.0163646
-0.016366
-0.0163674
-0.0163689
-0.0163703
-0.0163717
-0.0163731
-0.0163746
-0.016376
-0.0163774
-0.0163788
-0.0163803
-0.0163817
-0.0163831
-0.0163845
-0.0163859
-0.0163874
-0.0163888
-0.0163902
-0.0163916
-0.016393
-0.0163944
-0.0163958
-0.0163973
-0.0163987
-0.0164001
-0.0164015
-0.0164029
-0.0164043
-0.0164057
-0.0164071
-0.0164085
-0.0164098
-0.0164112
-0.0164126
-0.016414
-0.0164154
-0.0164168
-0.0164181
-0.0164195
-0.0164208
-0.0164222
-0.0164236
-0.0164249
-0.0164263
-0.0164276
-0.0164289
-0.0164303
-0.0164316
-0.0164329
-0.0164342
-0.0164355
-0.0164368
-0.0164381
-0.0164394
-0.0164407
-0.0164419
-0.0164432
-0.0164444
-0.0164457
-0.0164469
-0.0164482
-0.0164494
-0.0164506
-0.0164518
-0.016453
-0.0164542
-0.0164554
-0.0164565
-0.0164577
-0.0164588
-0.0164599
-0.0164611
-0.0164622
-0.0164633
-0.0164643
-0.0164654
-0.0164665
-0.0164675
-0.0164685
-0.0164696
-0.0164706
-0.0164715
-0.0164725
-0.0164735
-0.0164744
-0.0164753
-0.0164762
-0.0164771
-0.016478
-0.0164788
-0.0164797
-0.0164805
-0.0164813
-0.0164821
-0.0164828
-0.0164835
-0.0164843
-0.016485
-0.0164856
-0.0164863
-0.0164869
-0.0164875
-0.0164881
-0.0164886
-0.0164892
-0.0164897
-0.0164902
-0.0164906
-0.016491
-0.0164914
-0.0164918
-0.0164922
-0.0164925
-0.0164928
-0.016493
-0.0164933
-0.0164935
-0.0164936
-0.0164938
-0.0164939
-0.016494
-0.016494
-0.016494
-0.0268707
-0.026873
-0.0268753
-0.0268777
-0.02688
-0.0268823
-0.0268847
-0.026887
-0.0268894
-0.0268917
-0.026894
-0.0268963
-0.0268987
-0.026901
-0.0269033
-0.0269057
-0.026908
-0.0269103
-0.0269127
-0.026915
-0.0269173
-0.0269196
-0.026922
-0.0269243
-0.0269266
-0.0269289
-0.0269313
-0.0269336
-0.0269359
-0.0269382
-0.0269406
-0.0269429
-0.0269452
-0.0269475
-0.0269498
-0.0269522
-0.0269545
-0.0269568
-0.0269591
-0.0269614
-0.0269637
-0.0269661
-0.0269684
-0.0269707
-0.026973
-0.0269753
-0.0269776
-0.0269799
-0.0269823
-0.0269846
-0.0269869
-0.0269892
-0.0269915
-0.0269938
-0.0269961
-0.0269984
-0.0270007
-0.0270031
-0.0270054
-0.0270077
-0.02701
-0.0270123
-0.0270146
-0.0270169
-0.0270192
-0.0270215
-0.0270238
-0.0270261
-0.0270284
-0.0270307
-0.027033
-0.0270353
-0.0270376
-0.0270399
-0.0270422
-0.0270446
-0.0270469
-0.0270492
-0.0270515
-0.0270538
-0.0270561
-0.0270584
-0.0270607
-0.027063
-0.0270653
-0.0270676
-0.0270699
-0.0270722
-0.0270745
-0.0270768
-0.0270791
-0.0270814
-0.0270837
-0.027086
-0.0270883
-0.0270906
-0.0270929
-0.0270952
-0.0270975
-0.0270998
-0.0271021
-0.0271045
-0.0271068
-0.0271091
-0.0271114
-0.0271137
-0.027116
-0.0271183
-0.0271206
-0.0271229
-0.0271252
-0.0271275
-0.0271298
-0.0271321
-0.0271345
-0.0271368
-0.0271391
-0.0271414
-0.0271437
-0.027146
-0.0271483
-0.0271506
-0.027153
-0.0271553
-0.0271576
-0.0271599
-0.0271622
-0.0271645
-0.0271669
-0.0271692
-0.0271715
-0.0271738
-0.0271761
-0.0271785
-0.0271808
-0.0271831
-0.0271854
-0.0271878
-0.0271901
-0.0271924
-0.0271947
-0.0271971
-0.0271994
-0.0272017
-0.027204
-0.0272064
-0.0272087
-0.027211
-0.0272134
-0.0272157
-0.027218
-0.0272204
-0.0272227
-0.027225
-0.0272274
-0.0272297
-0.0272321
-0.0272344
-0.0272367
-0.0272391
-0.0272414
-0.0272437
-0.0272461
-0.0272484
-0.0272508