/*--------------------------------*- C++ -*----------------------------------*\
| =========                 |                                                 |
| \\      /  F ield         | OpenFOAM: The Open Source CFD Toolbox           |
|  \\    /   O peration     | Version:  2.4.0                                 |
|   \\  /    A nd           | Web:      www.OpenFOAM.org                      |
|    \\/     M anipulation  |                                                 |
\*---------------------------------------------------------------------------*/
FoamFile
{
    version     2.0;
    format      ascii;
    class       volScalarField;
    location    "0.3";
    object      H;
}
// * * * * * * * * * * * * * * * * * * * * * * * * * * * * * * * * * * * * * //

dimensions      [0 2 -2 0 0 0 0];

internalField   nonuniform List<scalar> 
125
(
-60.2572
-60.2558
-60.2553
-60.2546
-60.2573
-59.824
-59.8226
-59.8221
-59.8215
-59.8241
-59.3266
-59.3252
-59.3248
-59.3241
-59.3267
-58.766
-58.7647
-58.7643
-58.7636
-58.7661
-58.1438
-58.1425
-58.1421
-58.1414
-58.1438
-57.4614
-57.4601
-57.4597
-57.4591
-57.4614
-56.7205
-56.7193
-56.7189
-56.7182
-56.7205
-55.923
-55.9219
-55.9215
-55.9208
-55.923
-55.0711
-55.07
-55.0696
-55.069
-55.071
-54.1668
-54.1658
-54.1654
-54.1648
-54.1667
-53.2127
-53.2118
-53.2114
-53.2108
-53.2126
-52.2113
-52.2104
-52.21
-52.2095
-52.2112
-51.1653
-51.1644
-51.1641
-51.1635
-51.1651
-50.0775
-50.0767
-50.0764
-50.0758
-50.0773
-48.9509
-48.9501
-48.9498
-48.9493
-48.9507
-47.7886
-47.7878
-47.7875
-47.787
-47.7883
-46.5937
-46.593
-46.5927
-46.5922
-46.5934
-45.3696
-45.3689
-45.3686
-45.3681
-45.3693
-44.1195
-44.1189
-44.1187
-44.1182
-44.1192
-42.847
-42.8465
-42.8462
-42.8457
-42.8467
-41.5555
-41.555
-41.5548
-41.5543
-41.5551
-40.2485
-40.248
-40.2478
-40.2473
-40.2481
-38.9294
-38.929
-38.9288
-38.9284
-38.929
-37.6019
-37.6015
-37.6013
-37.6009
-37.6015
-36.2694
-36.269
-36.2689
-36.2684
-36.269
)
;

boundaryField
{
    BotWall
    {
        type            zeroGradient;
    }
    FreeStream
    {
        type            zeroGradient;
    }
    FrontNBack
    {
        type            empty;
    }
    LeftSide
    {
        type            symmetryPlane;
    }
    RightSide
    {
        type            symmetryPlane;
    }
    procBoundary1to0
    {
        type            processor;
        value           nonuniform List<scalar> 5(-60.6127 -60.6113 -60.6108 -60.6101 -60.6129);
    }
    procBoundary1to2
    {
        type            processor;
        value           nonuniform List<scalar> 5(-34.9324 -34.932 -34.9319 -34.9315 -34.9319);
    }
}


// ************************************************************************* //
