/*--------------------------------*- C++ -*----------------------------------*\
| =========                 |                                                 |
| \\      /  F ield         | OpenFOAM: The Open Source CFD Toolbox           |
|  \\    /   O peration     | Version:  2.4.0                                 |
|   \\  /    A nd           | Web:      www.OpenFOAM.org                      |
|    \\/     M anipulation  |                                                 |
\*---------------------------------------------------------------------------*/
FoamFile
{
    version     2.0;
    format      ascii;
    class       volScalarField;
    location    "0.3";
    object      p;
}
// * * * * * * * * * * * * * * * * * * * * * * * * * * * * * * * * * * * * * //

dimensions      [1 -1 -2 0 0 0 0];

internalField   nonuniform List<scalar> 
125
(
-0.0144912
-0.0144911
-0.0144911
-0.0144911
-0.0144911
-0.0151424
-0.0151424
-0.0151424
-0.0151424
-0.0151424
-0.0158009
-0.0158009
-0.0158009
-0.0158009
-0.0158009
-0.0164668
-0.0164668
-0.0164668
-0.0164668
-0.0164668
-0.0171401
-0.0171401
-0.0171401
-0.0171401
-0.0171401
-0.0178209
-0.0178209
-0.0178209
-0.0178209
-0.0178209
-0.0185093
-0.0185093
-0.0185093
-0.0185093
-0.0185093
-0.0192054
-0.0192054
-0.0192054
-0.0192054
-0.0192054
-0.0199092
-0.0199092
-0.0199092
-0.0199092
-0.0199092
-0.0206209
-0.0206209
-0.0206209
-0.0206209
-0.0206209
-0.0213406
-0.0213406
-0.0213406
-0.0213406
-0.0213406
-0.0220683
-0.0220683
-0.0220683
-0.0220683
-0.0220683
-0.0228041
-0.0228041
-0.0228041
-0.0228041
-0.0228041
-0.0235481
-0.0235481
-0.0235481
-0.0235481
-0.0235481
-0.0243004
-0.0243004
-0.0243004
-0.0243004
-0.0243004
-0.0250611
-0.0250611
-0.0250611
-0.0250611
-0.0250611
-0.0258303
-0.0258303
-0.0258303
-0.0258303
-0.0258303
-0.0266081
-0.0266081
-0.0266081
-0.0266081
-0.0266081
-0.0273945
-0.0273945
-0.0273945
-0.0273945
-0.0273945
-0.0281898
-0.0281898
-0.0281898
-0.0281898
-0.0281898
-0.0289939
-0.0289939
-0.0289939
-0.0289939
-0.0289939
-0.029807
-0.029807
-0.029807
-0.029807
-0.029807
-0.0306291
-0.0306291
-0.0306291
-0.0306291
-0.0306291
-0.0314604
-0.0314604
-0.0314604
-0.0314604
-0.0314604
-0.032301
-0.032301
-0.032301
-0.032301
-0.032301
)
;

boundaryField
{
    BotWall
    {
        type            calculated;
        value           nonuniform 0();
    }
    FreeStream
    {
        type            calculated;
        value           nonuniform 0();
    }
    FrontNBack
    {
        type            empty;
    }
    LeftSide
    {
        type            symmetryPlane;
    }
    RightSide
    {
        type            symmetryPlane;
    }
    procBoundary1to0
    {
        type            processor;
        value           nonuniform List<scalar> 5(-0.0138471 -0.0138471 -0.0138471 -0.0138471 -0.0138471);
    }
    procBoundary1to2
    {
        type            processor;
        value           nonuniform List<scalar> 5(-0.033151 -0.033151 -0.033151 -0.033151 -0.033151);
    }
}


// ************************************************************************* //
