/*--------------------------------*- C++ -*----------------------------------*\
| =========                 |                                                 |
| \\      /  F ield         | OpenFOAM: The Open Source CFD Toolbox           |
|  \\    /   O peration     | Version:  2.4.0                                 |
|   \\  /    A nd           | Web:      www.OpenFOAM.org                      |
|    \\/     M anipulation  |                                                 |
\*---------------------------------------------------------------------------*/
FoamFile
{
    version     2.0;
    format      ascii;
    class       volScalarField;
    location    "1.3";
    object      T;
}
// * * * * * * * * * * * * * * * * * * * * * * * * * * * * * * * * * * * * * //

dimensions      [0 0 0 1 0 0 0];

internalField   nonuniform List<scalar> 
125
(
293.164
293.164
293.164
293.164
293.164
293.494
293.494
293.494
293.494
293.494
293.827
293.827
293.827
293.827
293.827
294.164
294.164
294.164
294.164
294.164
294.505
294.505
294.505
294.505
294.505
294.85
294.85
294.85
294.85
294.85
295.2
295.2
295.2
295.2
295.2
295.553
295.553
295.553
295.553
295.553
295.911
295.911
295.911
295.911
295.911
296.273
296.273
296.273
296.273
296.273
296.64
296.64
296.64
296.64
296.64
297.012
297.012
297.012
297.012
297.012
297.39
297.39
297.39
297.39
297.39
297.965
297.965
297.965
297.965
297.965
297.964
297.964
297.964
297.964
297.964
297.964
297.964
297.964
297.964
297.964
297.964
297.964
297.964
297.964
297.964
297.963
297.963
297.963
297.963
297.963
297.963
297.963
297.963
297.963
297.963
297.963
297.963
297.963
297.963
297.963
297.962
297.962
297.962
297.962
297.962
297.962
297.962
297.962
297.962
297.962
297.962
297.962
297.962
297.962
297.962
297.962
297.962
297.962
297.962
297.962
297.962
297.962
297.962
297.962
297.962
)
;

boundaryField
{
    BotWall
    {
        type            fixedValue;
        value           uniform 293;
    }
    FreeStream
    {
        type            fixedValue;
        value           nonuniform 0();
    }
    FrontNBack
    {
        type            empty;
    }
    LeftSide
    {
        type            symmetryPlane;
    }
    RightSide
    {
        type            symmetryPlane;
    }
    procBoundary0to1
    {
        type            processor;
        value           nonuniform List<scalar> 5(297.962 297.962 297.962 297.962 297.962);
    }
}


// ************************************************************************* //
