/*--------------------------------*- C++ -*----------------------------------*\
| =========                 |                                                 |
| \\      /  F ield         | OpenFOAM: The Open Source CFD Toolbox           |
|  \\    /   O peration     | Version:  2.4.0                                 |
|   \\  /    A nd           | Web:      www.OpenFOAM.org                      |
|    \\/     M anipulation  |                                                 |
\*---------------------------------------------------------------------------*/
FoamFile
{
    version     2.0;
    format      ascii;
    class       volScalarField;
    location    "3.5";
    object      alpha1;
}
// * * * * * * * * * * * * * * * * * * * * * * * * * * * * * * * * * * * * * //

dimensions      [0 0 0 0 0 0 0];

internalField   nonuniform List<scalar> 
8000
(
1
1
1
1
1
1
1
1
1
1
1
1
1
1
1
1
0.999999
0.999999
0.999999
0.999998
0.999998
0.999998
0.999998
0.975449
0.231895
0.00272897
3.25388e-05
4.12954e-06
2.73593e-06
2.23874e-06
1.85249e-06
1.52784e-06
1.22652e-06
1.05466e-06
9.005e-07
8.10083e-07
7.2401e-07
6.47913e-07
5.72462e-07
4.96589e-07
4.44334e-07
4.10264e-07
3.90649e-07
3.82893e-07
3.82573e-07
3.87684e-07
3.96347e-07
4.05912e-07
4.13604e-07
4.17562e-07
1
1
1
1
1
1
1
1
1
1
1
1
1
1
1
1
0.999999
0.999999
0.999999
0.999998
0.999998
0.999998
0.99902
0.413488
0.00627076
4.13014e-05
3.58188e-06
3.19738e-06
2.77794e-06
2.4063e-06
2.07762e-06
1.83213e-06
1.47163e-06
1.38439e-06
1.19209e-06
1.12204e-06
1.00604e-06
9.17184e-07
8.0033e-07
6.39556e-07
5.25031e-07
4.44616e-07
3.92842e-07
3.67788e-07
3.56278e-07
3.52068e-07
3.52775e-07
3.57284e-07
3.65351e-07
3.77442e-07
1
1
1
1
1
1
1
1
1
1
1
1
1
1
1
1
0.999999
0.999999
0.999999
0.999998
0.999998
0.999849
0.773132
0.0591612
0.000485611
9.63067e-06
4.1147e-06
3.22816e-06
2.83317e-06
2.46724e-06
2.15951e-06
2.02244e-06
1.51789e-06
1.67771e-06
1.43188e-06
1.48507e-06
1.32823e-06
1.31104e-06
1.18646e-06
8.92533e-07
6.87501e-07
5.33339e-07
4.23906e-07
3.69717e-07
3.43897e-07
3.31402e-07
3.24586e-07
3.18087e-07
3.09558e-07
2.98778e-07
1
1
1
1
1
1
1
1
1
1
1
1
1
1
1
1
0.999999
0.999999
0.999998
0.999998
0.999744
0.714036
0.0400827
0.000256865
5.6392e-06
4.15514e-06
3.69793e-06
3.21311e-06
3.06607e-06
2.54813e-06
2.1599e-06
2.19643e-06
1.30381e-06
1.97152e-06
1.48641e-06
1.85392e-06
1.54931e-06
1.76656e-06
1.74284e-06
1.24168e-06
9.34727e-07
6.85873e-07
4.88731e-07
3.89383e-07
3.41705e-07
3.19849e-07
3.12075e-07
3.07902e-07
3.01249e-07
2.9057e-07
1
1
1
1
1
1
1
1
1
1
1
1
1
1
1
0.999999
0.999999
0.999998
0.999998
0.999608
0.664092
0.0298289
0.000162612
4.81191e-06
4.33734e-06
4.08477e-06
3.814e-06
3.01978e-06
3.63938e-06
2.23307e-06
1.91509e-06
1.47629e-06
1.29835e-06
2.07278e-06
1.2202e-06
1.92556e-06
1.43973e-06
1.84496e-06
2.45133e-06
1.39574e-06
1.10243e-06
7.96745e-07
5.35849e-07
4.03919e-07
3.38705e-07
3.06428e-07
2.95085e-07
2.9193e-07
2.88335e-07
2.8122e-07
1
1
1
1
1
1
1
1
1
1
1
1
1
1
0.999999
0.999999
0.999998
0.999998
0.99961
0.675109
0.0290179
0.000114951
7.69461e-06
5.42057e-06
4.20087e-06
3.52313e-06
3.38748e-06
2.07655e-06
2.7949e-06
2.02083e-06
1.76104e-06
1.45339e-06
1.23923e-06
1.06731e-06
1.05763e-06
9.39456e-07
1.13217e-06
1.08539e-06
1.93561e-06
1.25927e-06
9.88726e-07
7.12953e-07
4.85821e-07
3.74408e-07
3.17882e-07
2.87636e-07
2.74922e-07
2.70058e-07
2.664e-07
2.6154e-07
1
1
1
1
1
1
1
1
1
1
1
1
1
1
0.999999
0.999999
0.999998
0.999989
0.946692
0.182579
0.000713041
6.55756e-05
2.20362e-05
8.05845e-06
2.63904e-06
2.06097e-06
1.62531e-06
1.4761e-06
1.24402e-06
1.30257e-06
1.32648e-06
1.23645e-06
1.12364e-06
1.3239e-06
9.17064e-07
9.34836e-07
9.11093e-07
8.46644e-07
5.86387e-07
8.26061e-07
6.36782e-07
4.77716e-07
3.65174e-07
3.11961e-07
2.81244e-07
2.62376e-07
2.51208e-07
2.43967e-07
2.3811e-07
2.32742e-07
1
1
1
1
1
1
1
1
1
1
1
1
1
1
1
0.999999
0.999999
0.999998
0.999807
0.395185
0.00360025
0.0147584
0.000423807
0.000262961
4.19123e-06
1.47524e-06
1.46635e-06
1.31255e-06
1.3084e-06
1.05906e-06
1.03556e-06
9.88391e-07
1.00857e-06
1.05957e-06
9.09968e-07
7.45114e-07
6.18457e-07
5.39171e-07
4.97972e-07
4.57531e-07
4.14576e-07
3.59097e-07
3.11345e-07
2.87188e-07
2.64748e-07
2.47778e-07
2.33864e-07
2.22797e-07
2.13931e-07
2.07009e-07
1
1
1
1
1
1
1
1
1
1
1
1
1
1
1
1
1
0.999999
0.999994
0.999417
0.998985
0.432375
0.0351898
0.0350833
0.000755617
0.000212518
0.000137085
3.98025e-06
2.73054e-06
1.12754e-06
1.15379e-06
9.93529e-07
1.78739e-06
2.77715e-06
7.23807e-07
7.22836e-07
7.23563e-07
7.3252e-07
7.31765e-07
7.45745e-07
7.54922e-07
6.38188e-07
4.38494e-07
4.13185e-07
3.57435e-07
3.18303e-07
2.83806e-07
2.5491e-07
2.30714e-07
2.10918e-07
1
1
1
1
1
1
1
1
1
1
1
1
1
1
1
1
1
1
0.999998
0.999999
0.999999
0.999686
0.998327
0.999221
0.471244
0.0591295
0.0341484
0.00863579
0.00310126
0.000297543
0.000453979
1.95932e-06
2.82586e-06
3.09549e-06
2.26634e-06
1.06131e-06
9.98185e-07
1.17484e-06
9.82905e-07
9.73777e-07
2.40789e-06
3.2821e-06
7.45221e-07
1.03749e-06
8.23383e-07
7.13944e-07
6.0551e-07
5.08432e-07
4.26103e-07
3.47167e-07
1
1
1
1
1
1
1
1
1
1
1
1
1
1
1
0.999999
0.999999
0.999999
0.999999
0.999999
0.999999
0.999999
0.999999
0.999999
0.999877
0.999133
0.999665
0.89387
0.423328
0.0674786
0.0437777
0.0124787
0.00142341
0.000626641
0.000223419
2.08596e-05
1.41292e-05
3.89392e-06
1.92196e-06
1.69893e-06
2.21627e-06
3.27788e-06
4.25843e-06
2.71876e-06
2.11402e-06
1.8834e-06
1.63828e-06
1.33218e-06
1.1575e-06
8.75105e-07
1
1
1
1
1
1
1
1
1
1
1
1
1
1
0.999999
0.999999
0.999998
0.999998
0.999997
0.999997
0.999997
0.999997
0.999997
0.999997
0.999997
0.999998
0.999998
0.999996
0.999893
0.995099
0.982928
0.842599
0.323541
0.0620043
0.0399434
0.00974708
0.00262005
0.00135539
0.00042881
0.000109183
2.43914e-05
4.32625e-06
4.27534e-06
5.97345e-06
4.47131e-06
3.95534e-06
4.05713e-06
2.8495e-06
2.96648e-06
2.14685e-06
1
1
1
1
1
1
1
1
1
1
1
1
1
1
0.999999
0.999998
0.999997
0.999996
0.999995
0.999995
0.999997
0.999997
0.999997
0.999997
0.999998
0.999998
0.999999
0.999999
0.999999
1
1
0.999994
0.999842
0.979134
0.920962
0.476128
0.119111
0.0641105
0.0262121
0.0100838
0.00374075
0.000919066
0.000132087
1.46961e-05
5.46319e-06
5.72226e-06
8.64486e-06
4.28966e-06
6.33971e-06
4.67995e-06
1
1
1
1
1
1
1
1
1
1
1
1
1
1
1
0.999998
0.999995
0.999994
0.999994
0.999994
0.999995
0.999997
0.999999
1
1
1
1
0.999998
0.999997
0.999996
0.999997
0.999998
0.999999
1
1
1.00001
0.985485
0.894477
0.585091
0.267477
0.130768
0.0554789
0.0161865
0.00325672
0.000416565
9.3654e-05
5.03203e-05
3.72053e-05
2.11639e-05
1.3556e-05
1
1
1
1
1
1
1
1
1
1
1
1
1
1
1
1
0.999996
0.999994
0.999993
0.999993
0.999994
0.999996
0.999998
0.999999
0.999999
1
1
1
0.999999
0.999999
0.999998
0.999996
0.999999
0.999997
1
0.999997
0.999998
0.999996
0.999231
0.96953
0.892933
0.644812
0.323575
0.130429
0.0316769
0.00469112
0.000828002
0.000341787
0.000217883
0.00013719
1
1
1
1
1
1
1
1
1.00001
1.00001
1.00001
1
1
1
1
1
0.999997
0.999995
0.999994
0.999993
0.999994
0.999996
0.999998
0.999999
0.999999
1
1
0.999999
0.999999
0.999998
0.999998
0.999998
0.999998
0.999998
0.999997
0.999999
0.999998
1
1
1
0.999997
1.00001
0.980066
0.856021
0.472437
0.164463
0.0328573
0.00311439
0.000628651
0.000365946
1
1
1
1
1
1
1
1
1.00001
1.00001
1.00001
1.00001
1.00001
1.00001
1
1
0.999998
0.999996
0.999995
0.999995
0.999995
0.999995
0.999997
0.999999
0.999999
0.999999
0.999999
0.999999
0.999999
0.999998
0.999998
0.999998
0.999998
0.999998
0.999998
0.999998
0.999997
0.999998
0.999999
0.999999
0.999998
0.999998
0.999998
0.99998
0.981114
0.837126
0.281722
0.0262384
0.00129105
0.000445977
1
1
1
1
1
0.999999
1
1.00001
1.00001
1.00001
1.00001
1.00001
1.00001
1.00001
1
0.999998
0.999997
0.999996
0.999995
0.999996
0.999996
0.999996
0.999998
0.999998
0.999998
0.999998
0.999998
0.999998
0.999998
0.999998
0.999998
0.999998
0.999999
0.999999
0.999999
0.999999
0.999994
0.999996
0.999997
0.999955
0.999994
0.999961
0.973077
0.882593
0.548189
0.121223
0.0104371
0.00119849
0.000610459
0.000399181
1
1
1
1
0.999999
0.999999
1.00001
1.00001
1.00001
1.00001
1.00001
1.00001
1.00001
1
0.999999
0.999997
0.999996
0.999996
0.999996
0.999996
0.999997
0.999997
0.999997
0.999997
0.999997
0.999997
0.999998
0.999998
0.999998
0.999998
0.999998
0.999998
0.999999
1
0.999999
0.999942
0.999965
0.999996
0.999968
0.99669
0.943027
0.826425
0.537748
0.147805
0.0187836
0.00212212
0.000720748
0.00043965
0.000272429
0.000153794
1
1
1
1
0.999999
0.999999
1.00001
1.00001
1.00001
1.00001
1.00001
1.00001
1
0.999999
0.999997
0.999996
0.999996
0.999997
0.999996
0.999997
0.999996
0.999996
0.999996
0.999996
0.999997
0.999997
0.999997
0.999997
0.999998
0.999998
0.999998
0.999998
0.999999
0.999999
0.999699
0.994588
0.99982
0.960706
0.855035
0.697466
0.380813
0.098571
0.0169153
0.00288032
0.000700455
0.000291409
0.000160139
9.48173e-05
5.40942e-05
2.869e-05
4.18052e-07
4.18272e-07
4.21267e-07
6.22379e-07
4.08807e-07
4.35079e-07
4.41049e-07
4.44477e-07
7.834e-07
4.65964e-07
4.6577e-07
4.48081e-07
4.5182e-07
6.51385e-07
3.34547e-07
3.33869e-07
3.22072e-07
2.9535e-07
2.9323e-07
2.71045e-07
2.44512e-07
2.13979e-07
1.80743e-07
1.525e-07
1.26623e-07
1.04086e-07
8.49823e-08
6.91443e-08
5.63883e-08
4.61761e-08
3.78366e-08
3.08424e-08
2.49824e-08
2.00665e-08
1.59639e-08
1.25861e-08
9.86109e-09
7.70532e-09
6.0292e-09
4.74346e-09
3.7654e-09
3.02338e-09
2.45998e-09
2.03238e-09
1.70987e-09
1.47037e-09
1.29761e-09
1.17923e-09
1.10572e-09
1.06943e-09
3.95492e-07
4.2419e-07
3.5389e-07
3.53746e-07
4.07517e-07
4.22578e-07
4.34792e-07
4.38668e-07
4.29231e-07
4.82248e-07
5.14842e-07
4.57229e-07
5.16786e-07
7.81822e-07
3.89124e-07
4.84958e-07
4.13665e-07
3.15529e-07
3.82746e-07
3.6987e-07
3.53174e-07
3.31127e-07
2.70099e-07
2.42246e-07
2.08699e-07
1.76286e-07
1.47798e-07
1.22426e-07
1.01469e-07
8.48168e-08
7.164e-08
6.01003e-08
5.01469e-08
4.14988e-08
3.39615e-08
2.74245e-08
2.19077e-08
1.73668e-08
1.37152e-08
1.08379e-08
8.60401e-09
6.87823e-09
5.53687e-09
4.48286e-09
3.64681e-09
2.97952e-09
2.44446e-09
2.01346e-09
1.66482e-09
1.38204e-09
2.86418e-07
5.54853e-07
3.41388e-07
3.40585e-07
3.69047e-07
3.94892e-07
4.28251e-07
4.70392e-07
4.23046e-07
4.69457e-07
4.61801e-07
4.46508e-07
4.50626e-07
7.79862e-07
3.91691e-07
4.19962e-07
4.10516e-07
4.41627e-07
4.46775e-07
4.30621e-07
4.07298e-07
6.37954e-07
2.84056e-07
3.27005e-07
3.01624e-07
2.57499e-07
2.29903e-07
1.95577e-07
1.64626e-07
1.37781e-07
1.21226e-07
1.04831e-07
9.01597e-08
7.69745e-08
6.51986e-08
5.41961e-08
4.44048e-08
3.59672e-08
2.8901e-08
2.31517e-08
1.86045e-08
1.50667e-08
1.23006e-08
1.01015e-08
8.32893e-09
6.88972e-09
5.71646e-09
4.75506e-09
3.96173e-09
3.30212e-09
2.76555e-07
2.61138e-07
3.99729e-07
2.4941e-07
2.88523e-07
2.94844e-07
3.06506e-07
6.27128e-07
2.78026e-07
4.23129e-07
3.95095e-07
4.78095e-07
4.38879e-07
3.55989e-07
4.18134e-07
4.32328e-07
4.31449e-07
4.70522e-07
5.01919e-07
4.37568e-07
4.55291e-07
4.56351e-07
7.88066e-07
3.32377e-07
4.65966e-07
2.62268e-07
3.21956e-07
2.9373e-07
2.66183e-07
1.99052e-07
1.90757e-07
1.71148e-07
1.51872e-07
1.32275e-07
1.174e-07
1.00826e-07
8.50042e-08
7.06628e-08
5.79622e-08
4.7116e-08
3.83136e-08
3.14716e-08
2.6146e-08
2.18716e-08
1.83635e-08
1.5457e-08
1.30473e-08
1.10456e-08
9.3736e-09
7.96444e-09
2.70293e-07
2.5681e-07
2.42759e-07
2.47631e-07
2.40001e-07
2.34083e-07
2.29785e-07
2.27258e-07
2.73646e-07
5.52816e-07
2.74281e-07
3.37219e-07
6.1468e-07
3.3276e-07
3.79794e-07
7.67472e-07
3.90309e-07
4.1026e-07
4.07982e-07
4.02407e-07
3.95096e-07
3.92105e-07
7.83918e-07
3.36002e-07
4.00666e-07
5.80769e-07
3.25623e-07
3.27342e-07
6.12845e-07
2.02889e-07
2.73369e-07
2.61625e-07
2.49939e-07
2.01105e-07
1.96014e-07
1.74633e-07
1.51129e-07
1.3006e-07
1.09363e-07
9.01384e-08
7.38355e-08
6.14634e-08
5.21255e-08
4.45692e-08
3.82335e-08
3.28326e-08
2.82452e-08
2.43648e-08
2.10848e-08
1.82933e-08
2.55118e-07
2.4778e-07
2.40549e-07
2.3418e-07
2.28947e-07
2.24898e-07
2.22224e-07
2.21376e-07
2.22797e-07
2.26379e-07
2.7192e-07
5.51875e-07
2.61155e-07
3.31246e-07
3.44084e-07
3.08708e-07
3.89888e-07
4.02731e-07
4.13588e-07
4.21906e-07
4.27633e-07
3.79224e-07
3.88245e-07
4.4287e-07
4.65144e-07
5.81035e-07
3.79908e-07
3.68247e-07
3.42029e-07
3.24313e-07
3.21366e-07
3.17274e-07
6.16391e-07
2.05837e-07
3.01179e-07
2.8822e-07
2.41884e-07
2.26061e-07
1.96614e-07
1.63371e-07
1.32589e-07
1.11545e-07
9.70368e-08
8.50418e-08
7.48076e-08
6.57491e-08
5.77564e-08
5.07693e-08
4.4767e-08
3.96013e-08
2.27719e-07
2.23113e-07
2.19018e-07
2.15427e-07
2.12291e-07
2.0966e-07
2.07774e-07
2.07001e-07
2.07675e-07
2.09926e-07
2.13601e-07
2.18349e-07
2.59117e-07
2.71336e-07
5.4958e-07
2.2567e-07
3.18055e-07
3.32952e-07
3.48614e-07
3.64504e-07
7.35414e-07
3.10951e-07
3.88835e-07
5.01495e-07
3.36547e-07
3.4552e-07
6.2581e-07
3.05349e-07
4.10405e-07
3.24838e-07
3.79079e-07
3.77449e-07
3.87275e-07
3.7661e-07
3.50081e-07
6.78592e-07
2.47609e-07
3.74696e-07
3.47992e-07
2.7843e-07
2.14384e-07
1.84108e-07
1.66088e-07
1.49106e-07
1.34988e-07
1.22106e-07
1.10013e-07
9.86324e-08
8.87272e-08
8.00858e-08
2.0183e-07
1.9795e-07
1.94973e-07
1.9258e-07
1.90559e-07
1.88821e-07
1.87386e-07
1.86337e-07
1.8576e-07
1.85693e-07
1.86106e-07
1.86916e-07
1.88031e-07
1.89414e-07
1.91173e-07
2.22367e-07
2.28059e-07
2.34468e-07
2.41575e-07
2.49194e-07
2.56997e-07
3.08935e-07
3.20658e-07
6.42205e-07
2.5486e-07
3.43082e-07
3.3955e-07
3.02136e-07
3.03196e-07
3.23918e-07
6.71181e-07
3.3721e-07
4.04074e-07
3.80494e-07
5.2887e-07
4.46526e-07
5.12084e-07
5.52267e-07
8.69696e-07
3.25429e-07
2.84496e-07
2.6949e-07
2.56959e-07
2.33309e-07
2.17924e-07
2.04713e-07
1.90548e-07
1.73315e-07
1.5969e-07
1.47518e-07
1.96174e-07
1.85264e-07
1.77279e-07
1.71505e-07
1.67403e-07
1.6457e-07
1.62736e-07
1.61721e-07
1.61404e-07
1.61699e-07
1.62533e-07
1.63847e-07
1.65583e-07
1.67704e-07
1.70203e-07
1.73108e-07
1.76479e-07
1.80375e-07
1.84823e-07
1.89784e-07
1.95148e-07
2.00781e-07
2.0658e-07
2.12458e-07
2.52002e-07
2.60616e-07
5.1989e-07
1.93016e-07
2.8368e-07
2.8793e-07
2.93504e-07
3.35885e-07
3.56963e-07
3.93209e-07
4.0041e-07
4.68548e-07
5.07904e-07
4.9402e-07
8.72139e-07
4.28675e-07
3.62478e-07
4.24264e-07
3.14711e-07
3.08491e-07
3.01859e-07
3.00945e-07
2.97447e-07
2.56044e-07
2.45388e-07
2.33442e-07
2.88895e-07
2.45255e-07
2.12747e-07
1.88642e-07
1.70959e-07
1.57992e-07
1.48547e-07
1.41794e-07
1.3707e-07
1.33922e-07
1.31953e-07
1.30902e-07
1.30555e-07
1.30747e-07
1.31358e-07
1.32316e-07
1.33586e-07
1.35163e-07
1.37061e-07
1.39288e-07
1.41833e-07
1.44644e-07
1.47632e-07
1.50697e-07
1.53786e-07
1.56939e-07
1.60272e-07
1.89284e-07
1.98023e-07
2.09374e-07
2.09023e-07
2.29736e-07
2.50892e-07
5.16136e-07
1.74324e-07
3.24112e-07
6.59607e-07
2.2502e-07
3.53111e-07
3.54045e-07
3.51601e-07
3.4746e-07
6.91808e-07
2.76469e-07
3.6597e-07
3.42287e-07
6.3677e-07
2.59307e-07
3.4655e-07
2.35825e-07
6.7738e-07
5.30605e-07
4.209e-07
3.38051e-07
2.76902e-07
2.31479e-07
1.97295e-07
1.71831e-07
1.52684e-07
1.38742e-07
1.28427e-07
1.20978e-07
1.15717e-07
1.12055e-07
1.09526e-07
1.07789e-07
1.06626e-07
1.05903e-07
1.05544e-07
1.05509e-07
1.0577e-07
1.06297e-07
1.07055e-07
1.07999e-07
1.09095e-07
1.10341e-07
1.1179e-07
1.13563e-07
1.1584e-07
2.25378e-07
9.29987e-08
1.2634e-07
1.30588e-07
1.35801e-07
1.65313e-07
1.73984e-07
1.81323e-07
2.1996e-07
2.22335e-07
2.20183e-07
2.15937e-07
2.13933e-07
2.18844e-07
2.74345e-07
3.05168e-07
6.18331e-07
1.82218e-07
2.97052e-07
2.01522e-07
2.37584e-07
1.62043e-06
1.24926e-06
9.76743e-07
7.61637e-07
5.98516e-07
4.77958e-07
3.84516e-07
3.13638e-07
2.56362e-07
2.14336e-07
1.81184e-07
1.55802e-07
1.37077e-07
1.23628e-07
1.14052e-07
1.07134e-07
1.01971e-07
9.79527e-08
9.46875e-08
9.19395e-08
8.95679e-08
8.74865e-08
8.56363e-08
8.39711e-08
8.24542e-08
8.10629e-08
7.97924e-08
7.86436e-08
7.76026e-08
7.6697e-08
8.9928e-08
9.14551e-08
9.3723e-08
9.69849e-08
1.01429e-07
1.07032e-07
1.13444e-07
1.20053e-07
1.26292e-07
1.3204e-07
1.37649e-07
1.43373e-07
1.48641e-07
1.5211e-07
1.52895e-07
1.52167e-07
1.76778e-07
1.74439e-07
1.99525e-07
2.04918e-07
3.35385e-06
2.56244e-06
2.06382e-06
1.66784e-06
1.30813e-06
1.05178e-06
8.48823e-07
6.99349e-07
5.53887e-07
4.53018e-07
3.65759e-07
2.9228e-07
2.34405e-07
1.91618e-07
1.61507e-07
1.40712e-07
1.26289e-07
1.15988e-07
1.08264e-07
1.02137e-07
9.70245e-08
9.25887e-08
8.86379e-08
8.5064e-08
8.18065e-08
7.88301e-08
7.61132e-08
7.36426e-08
7.1409e-08
6.9408e-08
6.76364e-08
6.60904e-08
6.4768e-08
6.36726e-08
6.28234e-08
6.22726e-08
6.21259e-08
6.25504e-08
6.37468e-08
6.58731e-08
6.89501e-08
7.28328e-08
7.73021e-08
8.22039e-08
8.74888e-08
9.31265e-08
9.9021e-08
1.04962e-07
1.10573e-07
1.15383e-07
8.23476e-06
5.40453e-06
4.14964e-06
3.78736e-06
2.89547e-06
2.28781e-06
1.85603e-06
1.64926e-06
1.27497e-06
1.07981e-06
8.94531e-07
7.09811e-07
5.44003e-07
4.10569e-07
3.13039e-07
2.45472e-07
2.00318e-07
1.70469e-07
1.50347e-07
1.36129e-07
1.25428e-07
1.16846e-07
1.09587e-07
1.0321e-07
9.7471e-08
9.22338e-08
8.74117e-08
8.29539e-08
7.88121e-08
7.49615e-08
7.13878e-08
6.80718e-08
6.50041e-08
6.21793e-08
5.95942e-08
5.72468e-08
5.51369e-08
5.32682e-08
5.16523e-08
5.03144e-08
4.92948e-08
4.86419e-08
4.83915e-08
4.85393e-08
4.90268e-08
4.97663e-08
5.0698e-08
5.18376e-08
5.32668e-08
5.5075e-08
7.80094e-05
3.97685e-05
1.80848e-05
7.6232e-06
5.76739e-06
3.88089e-06
3.04203e-06
3.15092e-06
2.33305e-06
2.08989e-06
1.8903e-06
1.60752e-06
1.2762e-06
9.60278e-07
7.03949e-07
5.12878e-07
3.80443e-07
2.93386e-07
2.3762e-07
2.01703e-07
1.77687e-07
1.6061e-07
1.47572e-07
1.3695e-07
1.27853e-07
1.19811e-07
1.12537e-07
1.05898e-07
9.97487e-08
9.40183e-08
8.87041e-08
8.37423e-08
7.90986e-08
7.47519e-08
7.06847e-08
6.68819e-08
6.33313e-08
6.00227e-08
5.69474e-08
5.4098e-08
5.14667e-08
4.90468e-08
4.68337e-08
4.48253e-08
4.30222e-08
4.14274e-08
4.00451e-08
3.88791e-08
3.793e-08
3.71902e-08
0.000229292
0.000129532
6.5627e-05
3.07945e-05
1.3146e-05
3.45312e-06
3.01588e-06
4.86041e-06
2.68429e-06
2.71203e-06
2.7133e-06
2.57438e-06
2.2693e-06
1.86005e-06
1.43282e-06
1.05458e-06
7.58233e-07
5.46959e-07
4.06483e-07
3.17018e-07
2.60702e-07
2.24429e-07
1.99767e-07
1.81749e-07
1.67584e-07
1.55797e-07
1.45538e-07
1.36427e-07
1.28131e-07
1.20401e-07
1.1333e-07
1.06788e-07
1.00667e-07
9.49269e-08
8.95363e-08
8.4468e-08
7.96991e-08
7.52095e-08
7.09827e-08
6.70057e-08
6.32651e-08
5.97476e-08
5.64413e-08
5.33359e-08
5.04229e-08
4.76966e-08
4.51551e-08
4.28027e-08
4.06569e-08
3.87744e-08
0.000290114
0.000181739
9.9112e-05
4.78751e-05
2.07704e-05
6.55619e-06
3.02014e-06
3.01996e-06
3.8741e-06
3.14109e-06
3.12148e-06
3.05815e-06
2.88119e-06
2.56992e-06
2.15536e-06
1.7028e-06
1.28007e-06
9.32341e-07
6.74465e-07
4.98064e-07
3.83848e-07
3.11653e-07
2.65497e-07
2.34615e-07
2.12498e-07
1.95467e-07
1.81513e-07
1.69539e-07
1.58933e-07
1.49338e-07
1.40536e-07
1.32389e-07
1.24801e-07
1.17704e-07
1.11045e-07
1.04785e-07
9.88919e-08
9.3337e-08
8.80972e-08
8.3153e-08
7.84876e-08
7.40844e-08
6.99281e-08
6.60042e-08
6.22996e-08
5.88026e-08
5.55034e-08
5.23936e-08
4.94668e-08
4.67295e-08
0.000240729
0.000130392
6.68481e-05
3.3532e-05
1.53167e-05
4.03415e-06
3.72541e-06
3.90458e-06
3.87121e-06
3.54318e-06
3.37293e-06
3.14475e-06
2.82524e-06
2.42443e-06
1.98451e-06
1.55709e-06
1.18381e-06
8.86355e-07
6.66681e-07
5.13669e-07
4.11009e-07
3.42979e-07
2.97204e-07
2.65137e-07
2.41373e-07
2.22687e-07
2.07212e-07
1.93871e-07
1.82033e-07
1.71315e-07
1.61477e-07
1.52361e-07
1.43859e-07
1.35891e-07
1.28402e-07
1.21346e-07
1.14687e-07
1.08396e-07
1.02449e-07
9.68244e-08
9.15027e-08
8.64675e-08
8.17032e-08
7.71955e-08
7.29313e-08
6.8898e-08
6.50839e-08
6.14781e-08
5.80701e-08
5.48503e-08
8.01581e-05
4.15958e-05
2.2743e-05
1.25498e-05
6.138e-06
3.46729e-06
3.89744e-06
3.403e-06
3.30313e-06
3.1918e-06
2.97877e-06
2.6566e-06
2.26127e-06
1.84486e-06
1.45611e-06
1.12681e-06
8.6864e-07
6.77828e-07
5.42409e-07
4.48292e-07
3.82879e-07
3.36481e-07
3.02346e-07
2.76068e-07
2.54892e-07
2.37126e-07
2.21732e-07
2.08064e-07
1.95708e-07
1.84394e-07
1.73934e-07
1.64199e-07
1.55094e-07
1.46547e-07
1.38504e-07
1.30921e-07
1.23761e-07
1.16997e-07
1.10601e-07
1.04551e-07
9.88285e-08
9.34145e-08
8.82926e-08
8.34476e-08
7.88653e-08
7.45321e-08
7.04356e-08
6.65636e-08
6.29046e-08
5.9448e-08
1.56862e-05
9.69858e-06
6.5101e-06
3.44435e-06
3.47805e-06
3.46352e-06
3.89829e-06
3.30113e-06
3.15808e-06
2.86485e-06
2.44286e-06
1.98443e-06
1.55979e-06
1.20645e-06
9.34859e-07
7.37422e-07
5.98396e-07
5.01288e-07
4.32526e-07
3.82335e-07
3.44213e-07
3.14031e-07
2.89213e-07
2.6815e-07
2.49821e-07
2.33559e-07
2.18916e-07
2.05582e-07
1.93335e-07
1.8201e-07
1.71487e-07
1.6167e-07
1.52485e-07
1.43871e-07
1.35779e-07
1.28168e-07
1.21002e-07
1.1425e-07
1.07885e-07
1.01884e-07
9.62232e-08
9.08834e-08
8.5846e-08
8.10939e-08
7.66111e-08
7.23826e-08
6.83945e-08
6.46335e-08
6.10872e-08
5.77438e-08
1.06393e-09
1.07444e-09
1.0908e-09
1.11225e-09
1.13799e-09
1.16724e-09
1.19922e-09
1.23314e-09
1.26828e-09
1.30394e-09
1.33949e-09
1.37435e-09
1.40806e-09
1.44021e-09
1.47051e-09
1.49878e-09
1.52492e-09
1.54893e-09
1.57091e-09
1.591e-09
1.60943e-09
1.62646e-09
1.64234e-09
1.65737e-09
1.67179e-09
1.6858e-09
1.69957e-09
1.71317e-09
1.72662e-09
1.73985e-09
1.75272e-09
1.76504e-09
1.77659e-09
1.78716e-09
1.79656e-09
1.80466e-09
1.81147e-09
1.81711e-09
1.82188e-09
1.82629e-09
1.83104e-09
1.837e-09
1.84527e-09
1.85707e-09
1.87372e-09
1.89664e-09
1.92725e-09
1.96692e-09
2.01694e-09
2.07849e-09
2.15259e-09
2.24009e-09
2.34164e-09
2.45777e-09
2.58884e-09
2.7351e-09
2.89674e-09
3.07395e-09
3.26695e-09
3.47611e-09
3.70198e-09
3.94539e-09
4.20756e-09
4.49019e-09
4.79557e-09
5.12672e-09
5.48751e-09
5.88285e-09
6.31878e-09
6.80268e-09
7.3434e-09
7.95141e-09
8.6389e-09
9.41987e-09
1.03101e-08
1.1327e-08
1.24894e-08
1.38171e-08
1.53302e-08
1.7048e-08
1.89877e-08
2.11629e-08
2.35812e-08
2.62428e-08
2.91378e-08
3.22445e-08
3.55289e-08
3.89446e-08
4.24354e-08
4.59401e-08
4.94007e-08
5.27743e-08
5.60475e-08
5.92534e-08
6.24857e-08
6.59032e-08
6.97168e-08
7.41486e-08
7.93622e-08
8.53776e-08
9.2008e-08
9.88771e-08
1.05579e-07
1.11913e-07
1.17584e-07
1.20873e-07
1.26694e-07
2.2992e-07
9.60366e-08
1.35029e-07
1.64474e-07
2.95822e-07
4.89296e-08
3.6167e-08
3.64006e-08
3.97081e-08
4.41839e-08
4.99668e-08
5.72633e-08
6.62107e-08
7.68148e-08
8.88415e-08
1.02024e-07
1.15739e-07
1.17589e-07
3.14389e-07
5.37343e-07
2.87873e-07
3.81754e-08
3.45681e-08
3.16605e-08
2.97849e-08
2.91435e-08
2.93517e-08
3.01126e-08
3.12298e-08
3.25863e-08
3.41117e-08
3.57587e-08
3.74914e-08
3.92783e-08
4.10902e-08
4.29006e-08
4.46875e-08
4.64364e-08
4.8145e-08
4.98286e-08
5.15255e-08
5.3304e-08
5.52698e-08
5.75726e-08
6.04132e-08
6.4046e-08
6.87726e-08
7.49164e-08
8.27557e-08
9.23659e-08
1.03303e-07
1.14562e-07
1.27304e-07
1.53056e-07
4.80727e-07
6.47805e-07
6.80991e-08
5.80465e-08
5.56733e-08
5.43415e-08
5.41732e-08
5.51442e-08
5.71029e-08
5.98948e-08
6.34601e-08
6.78221e-08
7.30625e-08
7.92978e-08
8.66082e-08
9.49077e-08
1.04953e-07
1.26412e-07
1.96016e-07
6.93691e-07
9.4043e-07
2.95793e-07
1.27551e-07
1.18523e-07
1.12758e-07
1.0962e-07
1.08213e-07
1.07775e-07
1.08201e-07
1.09941e-07
1.12113e-07
1.04474e-07
4.96862e-07
1.51224e-06
1.89842e-06
7.57209e-07
1.63037e-07
1.352e-07
1.19556e-07
1.10935e-07
1.06873e-07
1.05769e-07
1.06801e-07
1.09478e-07
1.142e-07
1.30224e-07
2.07894e-07
1.41768e-06
3.32783e-06
3.28378e-06
6.77244e-07
1.84966e-07
1.62225e-07
1.47657e-07
1.38135e-07
1.31861e-07
1.27944e-07
1.25938e-07
1.26095e-07
1.2841e-07
1.17423e-07
5.37773e-07
2.78401e-06
4.38915e-06
3.62138e-06
5.20806e-07
2.21263e-07
2.08632e-07
2.01948e-07
1.99605e-07
2.00243e-07
2.03495e-07
2.04859e-07
3.01796e-07
1.75768e-06
3.3052e-06
3.07722e-06
5.603e-07
2.06323e-07
1.74043e-07
1.5205e-07
1.37712e-07
1.2933e-07
1.24046e-07
1.09123e-07
1.09145e-06
8.00129e-06
2.0079e-05
2.29368e-05
6.59665e-06
4.01466e-07
2.56361e-07
2.49237e-07
2.45316e-07
2.42086e-07
2.37982e-07
2.3238e-07
2.2503e-07
2.15879e-07
2.05007e-07
1.92567e-07
1.78765e-07
1.63853e-07
1.48123e-07
1.31905e-07
1.15558e-07
9.94587e-08
8.39797e-08
6.94647e-08
5.62045e-08
4.44163e-08
3.42303e-08
2.56855e-08
1.87353e-08
1.3261e-08
9.09168e-09
6.02589e-09
3.85302e-09
2.37141e-09
1.40144e-09
7.93129e-10
4.2858e-10
2.20406e-10
1.07484e-10
4.95009e-11
2.14305e-11
8.67577e-12
3.26434e-12
1.13345e-12
3.60134e-13
1.03646e-13
2.66824e-14
6.04759e-15
1.18203e-15
1.93679e-16
2.55375e-17
2.54011e-18
1.69402e-19
5.68064e-21
1.15281e-09
1.05313e-09
9.6371e-10
8.83681e-10
8.12232e-10
7.48595e-10
6.92031e-10
6.41831e-10
5.97315e-10
5.57831e-10
5.22761e-10
4.91518e-10
4.63557e-10
4.38375e-10
4.15518e-10
3.94584e-10
3.75227e-10
3.57157e-10
3.40145e-10
3.24017e-10
3.08656e-10
2.93994e-10
2.8001e-10
2.66722e-10
2.54177e-10
2.42446e-10
2.31617e-10
2.21783e-10
2.13041e-10
2.05481e-10
1.99185e-10
1.94224e-10
1.90653e-10
1.88519e-10
1.87851e-10
1.88673e-10
1.90998e-10
1.94837e-10
2.00201e-10
2.07102e-10
2.15562e-10
2.25608e-10
2.37282e-10
2.50636e-10
2.65741e-10
2.82679e-10
3.01548e-10
3.22461e-10
3.45545e-10
3.70938e-10
3.98787e-10
4.29249e-10
4.62484e-10
4.98659e-10
5.37942e-10
5.80501e-10
6.26509e-10
6.76141e-10
7.29585e-10
7.87043e-10
8.48751e-10
9.14991e-10
9.8612e-10
1.0626e-09
1.14503e-09
1.23421e-09
1.3312e-09
1.4374e-09
1.55461e-09
1.68514e-09
1.83194e-09
1.99869e-09
2.18993e-09
2.41117e-09
2.66896e-09
2.97095e-09
3.32588e-09
3.74338e-09
4.23374e-09
4.80728e-09
5.47363e-09
6.2405e-09
7.11221e-09
8.08788e-09
9.15941e-09
1.03094e-08
1.15097e-08
1.272e-08
1.38887e-08
1.49545e-08
1.58502e-08
1.65085e-08
1.68691e-08
1.68866e-08
1.65378e-08
1.58269e-08
1.47879e-08
1.3483e-08
1.19962e-08
1.04242e-08
8.86448e-09
7.40389e-09
6.10909e-09
5.02116e-09
4.15504e-09
3.5033e-09
3.04119e-09
2.7359e-09
2.61605e-09
2.54114e-09
2.50527e-09
2.51042e-09
2.60153e-09
2.6773e-09
2.74217e-09
2.80706e-09
2.87883e-09
2.9614e-09
3.05773e-09
3.1706e-09
3.30287e-09
3.45735e-09
3.63663e-09
3.84296e-09
4.07818e-09
4.33712e-09
4.72413e-09
5.32373e-09
5.90395e-09
6.36749e-09
6.81147e-09
7.27392e-09
7.77051e-09
8.30839e-09
8.8898e-09
9.51307e-09
1.01728e-08
1.08596e-08
1.15604e-08
1.22579e-08
1.29313e-08
1.3557e-08
1.41093e-08
1.45618e-08
1.48896e-08
1.50704e-08
1.50873e-08
1.49301e-08
1.4597e-08
1.40955e-08
1.34427e-08
1.2665e-08
1.1796e-08
1.08751e-08
9.94457e-09
9.04627e-09
8.21902e-09
7.49557e-09
6.90009e-09
6.44682e-09
6.14475e-09
6.01589e-09
6.4131e-09
7.11448e-09
7.55068e-09
7.96676e-09
8.46497e-09
9.08551e-09
9.84665e-09
1.0759e-08
1.18309e-08
1.30705e-08
1.44853e-08
1.60822e-08
1.78646e-08
1.98301e-08
2.1966e-08
2.42447e-08
2.66245e-08
2.90877e-08
3.17411e-08
3.62069e-08
4.09504e-08
4.40456e-08
4.55956e-08
4.60538e-08
4.55605e-08
4.42049e-08
4.21143e-08
3.94773e-08
3.65378e-08
3.35691e-08
3.08273e-08
2.84799e-08
2.78291e-08
2.93072e-08
3.15404e-08
3.37993e-08
3.525e-08
3.62674e-08
3.69876e-08
3.74432e-08
3.76331e-08
3.75555e-08
3.72217e-08
3.66593e-08
3.59157e-08
3.50883e-08
3.44224e-08
3.55276e-08
3.78081e-08
4.05036e-08
4.25645e-08
4.35879e-08
4.41841e-08
4.46969e-08
4.53243e-08
4.61795e-08
4.73253e-08
4.87946e-08
5.06049e-08
5.27591e-08
5.51826e-08
5.92511e-08
6.64052e-08
7.47356e-08
8.55134e-08
9.60545e-08
1.06888e-07
1.1955e-07
1.34983e-07
1.5321e-07
1.73312e-07
1.8816e-07
2.78644e-07
1.57591e-07
6.77212e-08
3.79101e-08
2.58847e-08
1.97761e-08
1.56213e-08
1.24169e-08
9.78448e-09
7.58325e-09
5.7562e-09
4.27129e-09
3.10197e-09
2.34416e-09
1.89234e-09
1.60217e-09
1.38591e-09
1.19643e-09
9.96634e-10
8.0216e-10
6.26331e-10
4.7558e-10
3.51668e-10
2.53432e-10
1.78057e-10
1.21971e-10
8.14543e-11
5.30203e-11
3.36298e-11
2.0779e-11
1.25023e-11
7.32241e-12
4.17282e-12
2.31264e-12
1.2458e-12
6.51904e-13
3.3113e-13
1.63132e-13
7.78759e-14
3.59858e-14
1.60772e-14
6.93532e-15
2.8844e-15
1.15468e-15
4.44117e-16
1.63788e-16
5.77888e-17
1.94582e-17
6.23526e-18
1.89565e-18
5.44888e-19
1.47501e-19
3.7436e-20
8.86259e-21
1.9455e-21
3.93256e-22
7.2592e-23
1.21146e-23
1.80527e-24
2.36458e-25
2.66681e-26
2.51783e-27
1.91043e-28
1.09213e-29
4.18129e-31
8.04105e-33
2.74989e-09
2.49875e-09
2.26783e-09
2.05569e-09
1.86099e-09
1.68247e-09
1.51899e-09
1.36947e-09
1.2329e-09
1.10834e-09
9.94902e-10
8.91749e-10
7.98095e-10
7.13203e-10
6.3638e-10
5.66978e-10
5.04393e-10
4.48058e-10
3.97448e-10
3.52073e-10
3.11478e-10
2.75242e-10
2.42971e-10
2.14303e-10
1.88902e-10
1.66458e-10
1.46684e-10
1.29316e-10
1.14115e-10
1.00857e-10
8.93408e-11
7.93822e-11
7.08137e-11
6.34839e-11
5.72563e-11
5.20084e-11
4.76309e-11
4.40271e-11
4.11121e-11
3.88122e-11
3.70642e-11
3.58153e-11
3.50224e-11
3.46516e-11
3.46782e-11
3.50859e-11
3.58667e-11
3.70207e-11
3.85551e-11
4.04845e-11
4.28298e-11
4.56177e-11
4.88802e-11
5.26532e-11
5.69758e-11
6.18884e-11
6.74319e-11
7.36453e-11
8.05639e-11
8.82171e-11
9.6626e-11
1.05801e-10
1.15739e-10
1.26422e-10
1.37813e-10
1.49856e-10
1.62473e-10
1.75564e-10
1.89007e-10
2.02657e-10
2.16351e-10
2.29907e-10
2.43131e-10
2.5582e-10
2.67767e-10
2.78774e-10
2.8865e-10
2.97228e-10
3.04366e-10
3.09961e-10
3.13951e-10
3.16321e-10
3.17114e-10
3.16423e-10
3.144e-10
3.11247e-10
3.07214e-10
3.02593e-10
2.97701e-10
2.92873e-10
2.88445e-10
2.84741e-10
2.82052e-10
2.80628e-10
2.80658e-10
2.82267e-10
2.85501e-10
2.90336e-10
2.9667e-10
3.04341e-10
3.13131e-10
3.22787e-10
3.33035e-10
3.43592e-10
3.54187e-10
3.64565e-10
3.74498e-10
3.83785e-10
3.92253e-10
3.99759e-10
4.06178e-10
4.11409e-10
4.15364e-10
4.17976e-10
4.19187e-10
4.18957e-10
4.17262e-10
4.14091e-10
4.09452e-10
4.03371e-10
3.95889e-10
3.87067e-10
3.7698e-10
3.6572e-10
3.53393e-10
3.40115e-10
3.26014e-10
3.11225e-10
2.95887e-10
2.80141e-10
2.6413e-10
2.47992e-10
2.31862e-10
2.15868e-10
2.00131e-10
1.8476e-10
1.69853e-10
1.55497e-10
1.41764e-10
1.28714e-10
1.16394e-10
1.04836e-10
9.40612e-11
8.40765e-11
7.4879e-11
6.64554e-11
5.87835e-11
5.18338e-11
4.55704e-11
3.99529e-11
3.49376e-11
3.04788e-11
2.653e-11
2.30451e-11
1.99792e-11
1.72893e-11
1.4935e-11
1.28787e-11
1.10862e-11
9.52612e-12
8.17056e-12
6.99449e-12
5.97572e-12
5.09464e-12
4.33396e-12
3.67846e-12
3.11477e-12
2.63111e-12
2.21711e-12
1.86367e-12
1.56271e-12
1.30716e-12
1.09076e-12
9.0804e-13
7.5418e-13
6.24979e-13
5.16774e-13
4.2639e-13
3.51081e-13
2.88485e-13
2.36575e-13
1.93623e-13
1.58159e-13
1.28935e-13