/*--------------------------------*- C++ -*----------------------------------*\
| =========                 |                                                 |
| \\      /  F ield         | OpenFOAM: The Open Source CFD Toolbox           |
|  \\    /   O peration     | Version:  2.4.0                                 |
|   \\  /    A nd           | Web:      www.OpenFOAM.org                      |
|    \\/     M anipulation  |                                                 |
\*---------------------------------------------------------------------------*/
FoamFile
{
    version     2.0;
    format      ascii;
    class       volScalarField;
    location    "3.5";
    object      H;
}
// * * * * * * * * * * * * * * * * * * * * * * * * * * * * * * * * * * * * * //

dimensions      [0 2 -2 0 0 0 0];

internalField   nonuniform List<scalar> 
8000
(
-12000.2
-11539.7
-11076.7
-10609.9
-10138.1
-9660.46
-9176.33
-8685.13
-8186.49
-7680.19
-7166.17
-6644.53
-6115.59
-5579.82
-5037.93
-4490.81
-3939.63
-3385.91
-2831.56
-2278.56
-1727.13
-1171.18
-595.605
-5.5622
-2.40391
-1.63816
-1.51621
-1.64568
-1.83384
-2.00485
-2.12481
-2.18682
-2.19765
-2.1688
-2.11176
-2.03607
-1.94884
-1.85511
-1.75828
-1.66056
-1.56345
-1.46791
-1.37461
-1.28405
-1.19659
-1.11255
-1.03214
-0.95558
-0.882999
-0.8145
-12001.1
-11542.2
-11079.9
-10612.7
-10139.2
-9658.28
-9169.01
-8670.74
-8162.97
-7645.42
-7118
-6580.83
-6034.25
-5478.81
-4915.26
-4344.53
-3767.74
-3186.29
-2602.21
-2018.68
-1439.89
-866.716
-278.798
-4.58605
-3.79452
-3.41246
-3.30866
-3.185
-3.05157
-2.91561
-2.78134
-2.65113
-2.52613
-2.40665
-2.29239
-2.18271
-2.07681
-1.97393
-1.87342
-1.77484
-1.67795
-1.5827
-1.48922
-1.39772
-1.30852
-1.22195
-1.13835
-1.05804
-0.981297
-0.908337
-12000
-11538.6
-11073.6
-10602.9
-10124.8
-9638.03
-9141.37
-8633.98
-8115.23
-7584.75
-7042.45
-6488.46
-5923.22
-5347.42
-4761.99
-4168.07
-3566.71
-2958.65
-2344.42
-1726.12
-1111.92
-520.69
-5.62684
-5.24759
-3.94473
-3.67038
-3.44609
-3.23909
-3.05137
-2.88357
-2.73489
-2.60334
-2.48615
-2.38025
-2.28251
-2.19017
-2.1009
-2.01298
-1.92522
-1.837
-1.74811
-1.6587
-1.56914
-1.47992
-1.39164
-1.30489
-1.22023
-1.13817
-1.05915
-0.983547
-11993.2
-11518.1
-11038.1
-10551
-10054.6
-9547.29
-9027.83
-8495.23
-7948.88
-7388.46
-6814.02
-6225.88
-5624.74
-5011.55
-4387.51
-3753.77
-3111.21
-2460.74
-1805.5
-1155.36
-529.166
-6.02639
-5.50114
-4.18861
-3.90916
-3.66602
-3.44198
-3.23914
-3.05812
-2.898
-2.75682
-2.63181
-2.51974
-2.41754
-2.32211
-2.23103
-2.14223
-2.05432
-1.96637
-1.8779
-1.78886
-1.69942
-1.60994
-1.5209
-1.43283
-1.34627
-1.26172
-1.17967
-1.10053
-1.02466
-11983.4
-11488.1
-10987.2
-10477.7
-9957.09
-9423.65
-8875.89
-8312.81
-7733.79
-7138.65
-6527.58
-5901.17
-5260.38
-4606.43
-3940.57
-3263.78
-2577.14
-1884.19
-1195.62
-529.689
-6.31784
-5.67819
-4.40194
-4.12411
-3.87169
-3.63508
-3.41701
-3.21862
-3.03986
-2.87928
-2.7351
-2.60486
-2.48603
-2.3762
-2.27306
-2.1749
-2.08014
-1.9878
-1.89715
-1.8077
-1.71936
-1.6321
-1.54603
-1.46137
-1.37837
-1.29732
-1.21852
-1.14226
-1.06885
-0.998527
-11971.9
-11453.4
-10928.6
-10393.9
-9846.95
-9285.52
-8708.09
-8113.58
-7501.4
-6871.39
-6223.85
-5559.46
-4879.22
-4184.21
-3475.18
-2752.84
-2020.13
-1287.77
-576.801
-6.80102
-6.06833
-4.64262
-4.30404
-4.01056
-3.74446
-3.50336
-3.28358
-3.08283
-2.8997
-2.73247
-2.5797
-2.43972
-2.3108
-2.1913
-2.07972
-1.97476
-1.87538
-1.78072
-1.69018
-1.60317
-1.51941
-1.43895
-1.36157
-1.28703
-1.21521
-1.14605
-1.07954
-1.01575
-0.954734
-0.896595
-11963.6
-11429
-10889
-10340.3
-9780.41
-9207.03
-8618.31
-8012.78
-7389.33
-6747.16
-6085.69
-5404.64
-4704.04
-3984.55
-3247.39
-2492.18
-1708.79
-873.199
-8.45378
-4.85629
-3.1612
-2.73634
-2.60036
-2.59139
-2.6133
-2.62516
-2.60084
-2.53813
-2.44487
-2.33259
-2.21161
-2.08914
-1.96947
-1.85475
-1.74595
-1.64345
-1.54732
-1.45745
-1.37364
-1.29559
-1.22286
-1.15549
-1.09289
-1.03445
-0.979658
-0.928132
-0.879568
-0.833747
-0.790514
-0.749765
-11964
-11431.9
-10899.2
-10363.9
-9823.81
-9276.57
-8719.7
-8150.76
-7567.38
-6967.27
-6348.19
-5707.91
-5044.33
-4356.05
-3643.56
-2911.25
-2170.42
-1442.75
-755.835
-12.9285
-2.37305
-3.28112
-2.53471
-2.22525
-2.04176
-1.91225
-1.79627
-1.68436
-1.57786
-1.48037
-1.39517
-1.3203
-1.25331
-1.19173
-1.13394
-1.07919
-1.02729
-0.978333
-0.932458
-0.889754
-0.850193
-0.81364
-0.77988
-0.748661
-0.719718
-0.692806
-0.667706
-0.644237
-0.622254
-0.601641
-11976.9
-11472.8
-10973.3
-10478.7
-9988.51
-9500.92
-9013.75
-8524.25
-8029.23
-7525.05
-7007.76
-6473.27
-5917.76
-5338.05
-4732.24
-4095.71
-3422.66
-2705.43
-1930.91
-1072.84
-359.428
-9.72512
-0.904665
-0.539415
-0.536245
-0.624888
-0.689835
-0.714775
-0.710429
-0.693111
-0.671923
-0.652046
-0.635919
-0.62264
-0.611767
-0.602352
-0.59369
-0.585434
-0.577442
-0.569684
-0.562174
-0.554933
-0.54797
-0.5413
-0.534917
-0.528806
-0.522947
-0.517319
-0.511905
-0.506692
-11985.4
-11497.7
-11014.1
-10536.4
-10065.5
-9601.99
-9145.62
-8695.81
-8251.58
-7811.5
-7373.51
-6934.73
-6491.13
-6036.91
-5564.17
-5066.85
-4539.05
-3973.97
-3365.66
-2709.61
-2000.71
-1211.41
-373.983
-88.0181
-2.55397
-0.273317
-0.069138
-0.117362
-0.153659
-0.188213
-0.228199
-0.262355
-0.29303
-0.318625
-0.339665
-0.35699
-0.371556
-0.383588
-0.393749
-0.402528
-0.410255
-0.417173
-0.423433
-0.429205
-0.434554
-0.439535
-0.444179
-0.448508
-0.452536
-0.456276
-11979.4
-11478.8
-10980.2
-10484.9
-9994.55
-9510.39
-9033.7
-8565.62
-8107.1
-7658.74
-7221.54
-6795.44
-6380.02
-5974.14
-5575.88
-5182.07
-4788.23
-4388.28
-3975.15
-3540.95
-3079.5
-2587.01
-2062.25
-1495.29
-870.919
-243.47
-78.7993
-1.14462
-0.0583128
-0.0065768
-0.0625408
-0.0953614
-0.115097
-0.140536
-0.163643
-0.186256
-0.207816
-0.227844
-0.246624
-0.264438
-0.281145
-0.29703
-0.312271
-0.3269
-0.340972
-0.354488
-0.367446
-0.37984
-0.391669
-0.402937
-11962.4
-11427.1
-10891.8
-10357.5
-9825.35
-9297.11
-8774.76
-8260.46
-7756.4
-7264.72
-6787.39
-6326.12
-5882.23
-5456.6
-5049.61
-4661.09
-4290.28
-3935.8
-3595.7
-3267.42
-2947.77
-2632.97
-2318.64
-2000
-1672.57
-1337.45
-1001.47
-667.891
-329.088
-4.58894
-0.0835757
-0.013201
-0.00566966
-0.0239837
-0.0460306
-0.0664348
-0.086245
-0.108133
-0.12932
-0.15062
-0.1718
-0.192658
-0.21312
-0.23315
-0.252662
-0.271793
-0.290527
-0.308791
-0.326536
-0.343709
-11940.8
-11361.8
-10781.9
-10201.7
-9622.45
-9046.09
-8475.1
-7912.24
-7360.4
-6822.35
-6300.67
-5798.44
-5317.66
-4860.01
-4426.67
-4018.4
-3635.44
-3277.6
-2944.23
-2634.35
-2346.67
-2079.7
-1831.77
-1601.16
-1386.06
-1184.73
-995.435
-816.635
-647.122
-486.122
-332.306
-183.113
-40.2827
-0.580199
-0.0214515
-0.00445037
-0.0190288
-0.0377148
-0.0574992
-0.0769845
-0.0957127
-0.114559
-0.135545
-0.157759
-0.180188
-0.202599
-0.224887
-0.246869
-0.268475
-0.289555
-11922.4
-11306.7
-10690.4
-10073.9
-9458.92
-8847.71
-8243.1
-7648.31
-7066.69
-6501.61
-5956.26
-5433.46
-4935.62
-4464.67
-4021.95
-3608.28
-3223.93
-2868.72
-2542.01
-2242.82
-1969.92
-1721.9
-1497.24
-1294.37
-1111.69
-947.557
-800.278
-668.059
-550.244
-445.891
-353.541
-271.982
-199.997
-136.552
-81.2694
-36.2259
-0.446177
-0.0195634
-0.000649999
-0.0153647
-0.0332971
-0.0529605
-0.0727178
-0.0899252
-0.110068
-0.133589
-0.157673
-0.181759
-0.205666
-0.229366
-11914.4
-11282.9
-10651.2
-10020.4
-9392.34
-8769.41
-8154.6
-7551.13
-6962.34
-6391.58
-5841.97
-5316.32
-4817.02
-4345.97
-3904.55
-3493.57
-3113.3
-2763.54
-2443.62
-2152.52
-1888.9
-1651.17
-1437.62
-1246.42
-1075.72
-923.697
-788.614
-668.828
-562.818
-469.189
-386.662
-314.08
-250.398
-194.663
-145.932
-103.598
-66.9599
-33.9476
-0.385207
-0.0346061
-0.0184013
-0.0100303
-0.0215632
-0.0322177
-0.051577
-0.0709422
-0.0935105
-0.119246
-0.145502
-0.171713
-11906.4
-11259.5
-10613.8
-9970.76
-9332.75
-8702.39
-8082.69
-7476.8
-6887.91
-6319.17
-5773.44
-5253.28
-4760.79
-4297.64
-3864.94
-3463.29
-3092.75
-2752.91
-2442.94
-2161.64
-1907.53
-1678.92
-1473.95
-1290.71
-1127.28
-981.769
-852.362
-737.368
-635.227
-544.524
-463.994
-392.519
-329.122
-272.96
-223.303
-179.519
-141.047
-107.354
-77.8906
-52.1155
-29.9252
-12.5644
-0.147793
-0.0119365
-0.0255784
-0.0412437
-0.0618329
-0.0807124
-0.106571
-0.135428
-11899.9
-11240.6
-10584.3
-9933.49
-9290.71
-8658.8
-8040.7
-7439.34
-6857.64
-6298.32
-5763.8
-5256.17
-4777.09
-4327.78
-3909.07
-3521.16
-3163.78
-2836.26
-2537.56
-2266.31
-2020.92
-1799.6
-1600.49
-1421.65
-1261.18
-1117.23
-988.054
-872.018
-767.64
-673.585
-588.679
-511.901
-442.377
-379.37
-322.264
-270.549
-223.806
-181.683
-143.873
-110.107
-80.1225
-53.6733
-30.6941
-11.0044
-0.147627
-0.0928267
-0.0777142
-0.0856203
-0.100248
-0.129371
-11888.5
-11206.9
-10529.9
-9860.67
-9202.55
-8558.8
-7932.61
-7327.03
-6744.93
-6188.8
-5660.75
-5162.46
-4695.12
-4259.39
-3855.45
-3482.94
-3141.1
-2828.76
-2544.45
-2286.44
-2052.81
-1841.55
-1650.63
-1478.03
-1321.79
-1180.09
-1051.24
-933.719
-826.179
-727.458
-636.575
-552.727
-475.271
-403.707
-337.655
-276.825
-221.028
-170.19
-124.097
-82.8715
-46.5296
-14.2414
-0.186357
-0.00334925
-0.0139042
-0.0346041
-0.0679209
-0.104156
-0.145574
-0.186798
-11879.6
-11181.1
-10489
-9807.42
-9140.19
-8490.9
-7862.85
-7259.14
-6682.36
-6134.66
-5617.7
-5132.61
-4679.96
-4259.81
-3871.68
-3514.64
-3187.39
-2888.29
-2615.45
-2366.83
-2140.3
-1933.7
-1744.91
-1571.92
-1412.84
-1265.98
-1129.79
-1002.98
-884.415
-773.222
-668.729
-570.489
-478.257
-391.928
-311.491
-236.712
-167.511
-106.175
-48.782
-0.632292
-0.0112839
-0.0012416
-0.0150806
-0.039025
-0.0789885
-0.119556
-0.166639
-0.21475
-0.262096
-0.308673
-11874.9
-11167.6
-10468.5
-9782.46
-9113.79
-8466.32
-7843.32
-7247.73
-6681.68
-6146.88
-5644.38
-5174.67
-4737.67
-4332.76
-3958.86
-3614.5
-3297.9
-3007.03
-2739.71
-2493.7
-2266.75
-2056.68
-1861.43
-1679.11
-1508.01
-1346.66
-1193.77
-1048.33
-909.551
-776.915
-650.259
-529.86
-416.37
-310.477
-214.767
-125.252
-26.4202
-0.365364
-0.00879002
-0.000605682
-0.0307455
-0.0785179
-0.139155
-0.191866
-0.247784
-0.304882
-0.35999
-0.413161
-0.464851
-0.515498
-0.750135
-0.689912
-0.633795
-0.58171
-0.533539
-0.489142
-0.448344
-0.41095
-0.376753
-0.345526
-0.317054
-0.29111
-0.267475
-0.245937
-0.226294
-0.208361
-0.191962
-0.17694
-0.16315
-0.150464
-0.13877
-0.127968
-0.117971
-0.108703
-0.100101
-0.0921065
-0.0846724
-0.0777567
-0.0713229
-0.0653391
-0.0597772
-0.0546118
-0.0498201
-0.045381
-0.0412748
-0.0374828
-0.0339876
-0.0307722
-0.0278202
-0.0251159
-0.0226439
-0.0203894
-0.018338
-0.0164758
-0.0147895
-0.0132662
-0.0118935
-0.0106598
-0.00955386
-0.00856523
-0.839335
-0.774398
-0.713576
-0.656867
-0.604217
-0.555525
-0.510654
-0.469433
-0.431667
-0.397144
-0.365638
-0.336915
-0.310746
-0.286903
-0.265159
-0.245313
-0.227166
-0.210537
-0.195263
-0.181196
-0.168206
-0.156176
-0.145008
-0.134613
-0.124919
-0.11586
-0.107383
-0.0994423
-0.0919987
-0.0850188
-0.0784744
-0.0723405
-0.0665954
-0.0612196
-0.0561952
-0.051506
-0.0471362
-0.043071
-0.039296
-0.0357972
-0.0325606
-0.0295727
-0.02682
-0.0242893
-0.0219675
-0.0198418
-0.0178997
-0.0161291
-0.0145181
-0.0130554
-0.911635
-0.843629
-0.779652
-0.719781
-0.664017
-0.612306
-0.564548
-0.520598
-0.480278
-0.443387
-0.4097
-0.378983
-0.350995
-0.3255
-0.302256
-0.281045
-0.261653
-0.243883
-0.227553
-0.2125
-0.198579
-0.18566
-0.17363
-0.162393
-0.151865
-0.141976
-0.132666
-0.123886
-0.115594
-0.107756
-0.100345
-0.0933364
-0.0867104
-0.08045
-0.0745402
-0.0689676
-0.0637199
-0.0587854
-0.0541529
-0.0498114
-0.0457499
-0.0419575
-0.0384229
-0.0351352
-0.0320829
-0.0292548
-0.0266396
-0.024226
-0.0220027
-0.0199589
-0.952352
-0.883831
-0.819256
-0.758711
-0.702234
-0.649794
-0.601311
-0.556665
-0.515681
-0.478177
-0.443928
-0.412702
-0.384254
-0.358343
-0.334727
-0.313174
-0.293462
-0.275385
-0.258755
-0.243397
-0.229158
-0.215903
-0.203513
-0.19188
-0.180924
-0.170567
-0.160749
-0.15142
-0.142537
-0.134068
-0.125986
-0.11827
-0.110903
-0.103871
-0.0971645
-0.0907733
-0.0846895
-0.078906
-0.0734159
-0.0682125
-0.0632889
-0.058638
-0.0542526
-0.0501247
-0.0462461
-0.0426084
-0.0392027
-0.0360197
-0.0330499
-0.030284
-0.931522
-0.868017
-0.808144
-0.751987
-0.699577
-0.650894
-0.605871
-0.564396
-0.526321
-0.491466
-0.459623
-0.430579
-0.404104
-0.379959
-0.357922
-0.337771
-0.319287
-0.30228
-0.286565
-0.27198
-0.258378
-0.245629
-0.233625
-0.222265
-0.211474
-0.201181
-0.19133
-0.181878
-0.172789
-0.164032
-0.155589
-0.14744
-0.139575
-0.131985
-0.124664
-0.11761
-0.110818
-0.104288
-0.0980169
-0.0920045
-0.0862487
-0.0807477
-0.0754987
-0.0704988
-0.0657444
-0.0612311
-0.056954
-0.0529076
-0.0490861
-0.045483
-0.841422
-0.789295
-0.740274
-0.694388
-0.651634
-0.611971
-0.575321
-0.541577
-0.510597
-0.482221
-0.456267
-0.432543
-0.410845
-0.390979
-0.372747
-0.35596
-0.340442
-0.326029
-0.312571
-0.299936
-0.288005
-0.276676
-0.265862
-0.255489
-0.245495
-0.235829
-0.22645
-0.217328
-0.208437
-0.199759
-0.191282
-0.182997
-0.174902
-0.16699
-0.159266
-0.15173
-0.144386
-0.137237
-0.130288
-0.123543
-0.117006
-0.110679
-0.104567
-0.09867
-0.0929911
-0.0875306
-0.0822885
-0.0772641
-0.0724558
-0.0678616
-0.711429
-0.675453
-0.641792
-0.610397
-0.581209
-0.554155
-0.529144
-0.506074
-0.484824
-0.465264
-0.447258
-0.430661
-0.415332
-0.401129
-0.387916
-0.37556
-0.363946
-0.352962
-0.342507
-0.332494
-0.322847
-0.313495
-0.304387
-0.295476
-0.286722
-0.278098
-0.269581
-0.261151
-0.252802
-0.244524
-0.236315
-0.228175
-0.220107
-0.212116
-0.204207
-0.196391
-0.188672
-0.181062
-0.173567
-0.166199
-0.158964
-0.151871
-0.144929
-0.138144
-0.131523
-0.125072
-0.118797
-0.112703
-0.106793
-0.101072
-0.58231
-0.564188
-0.547215
-0.531335
-0.516494
-0.502636
-0.489701
-0.477626
-0.466342
-0.455777
-0.445859
-0.436512
-0.427664
-0.419241
-0.411175
-0.403402
-0.39586
-0.388494
-0.381255
-0.374101
-0.366992
-0.359899
-0.352793
-0.345656
-0.338466
-0.331218
-0.3239
-0.31651
-0.309047
-0.301513
-0.293914
-0.286251
-0.278537
-0.270778
-0.262986
-0.255169
-0.24734
-0.23951
-0.231693
-0.223895
-0.216134
-0.208418
-0.20076
-0.19317
-0.185659
-0.178239
-0.170919
-0.163708
-0.156617
-0.149653
-0.501671
-0.496834
-0.492177
-0.487693
-0.483374
-0.479211
-0.475191
-0.471295
-0.467505
-0.463798
-0.460148
-0.456531
-0.452917
-0.44928
-0.445593
-0.44183
-0.437966
-0.433978
-0.429847
-0.425554
-0.421083
-0.416422
-0.411561
-0.406493
-0.401211
-0.395714
-0.390004
-0.384074
-0.377938
-0.371596
-0.365057
-0.358328
-0.351419
-0.34434
-0.337102
-0.329717
-0.322196
-0.31455
-0.306795
-0.29894
-0.291001
-0.28299
-0.274919
-0.266803
-0.258653
-0.250484
-0.242308
-0.234139
-0.22599
-0.217874
-0.459743
-0.462951
-0.465914
-0.468645
-0.471156
-0.473455
-0.475548
-0.477439
-0.479126
-0.480606
-0.481873
-0.48292
-0.483737
-0.484312
-0.484635
-0.484693
-0.484474
-0.483966
-0.48316
-0.482044
-0.48061
-0.478851
-0.47676
-0.474332
-0.471565
-0.468456
-0.465006
-0.461215
-0.457086
-0.452624
-0.447832
-0.44272
-0.437296
-0.431569
-0.425544
-0.41924
-0.412664
-0.40582
-0.39873
-0.391399
-0.383841
-0.37607
-0.368101
-0.35994
-0.351608
-0.343116
-0.334479
-0.325708
-0.316827
-0.307847
-0.413654
-0.423839
-0.433512
-0.442695
-0.451413
-0.459687
-0.467537
-0.474978
-0.482025
-0.488687
-0.49497
-0.500877
-0.506409
-0.511565
-0.51634
-0.520731
-0.524731
-0.528334
-0.531533
-0.534321
-0.53669
-0.538634
-0.540146
-0.541222
-0.541855
-0.542041
-0.541778
-0.541063
-0.539894
-0.538272
-0.536195
-0.533667
-0.530691
-0.527269
-0.523408
-0.519112
-0.514389
-0.509246
-0.503692
-0.497735
-0.491387
-0.484661
-0.477569
-0.470124
-0.462339
-0.454232
-0.445809
-0.437097
-0.428106
-0.418858
-0.360298
-0.376297
-0.391711
-0.406553
-0.42084
-0.434592
-0.447826
-0.460561
-0.472813
-0.484595
-0.495916
-0.506785
-0.517206
-0.527182
-0.536711
-0.545792
-0.554421
-0.562593
-0.5703
-0.577537
-0.584295
-0.590565
-0.596339
-0.601607
-0.606361
-0.610592
-0.614293
-0.617454
-0.620069
-0.622131
-0.623634
-0.624574
-0.624944
-0.624744
-0.623971
-0.622624
-0.620704
-0.618212
-0.615152
-0.61153
-0.60735
-0.602622
-0.597353
-0.591555
-0.585239
-0.578418
-0.571106
-0.563317
-0.555068
-0.546375
-0.310109
-0.330137
-0.349642
-0.368635
-0.38713
-0.405145
-0.422696
-0.4398
-0.456466
-0.472706
-0.488524
-0.503924
-0.518906
-0.533468
-0.547606
-0.561312
-0.574579
-0.587395
-0.599751
-0.611633
-0.623029
-0.633924
-0.644304
-0.654154
-0.66346
-0.672205
-0.680376
-0.687958
-0.694936
-0.701296
-0.707025
-0.712111
-0.716542
-0.720306
-0.723395
-0.7258
-0.727514
-0.728531
-0.728847
-0.72846
-0.727367
-0.725572
-0.723074
-0.719881
-0.715996
-0.711429
-0.706189
-0.700288
-0.69374
-0.68656
-0.252807
-0.275957
-0.298769
-0.321246
-0.343392
-0.365223
-0.386749
-0.407973
-0.428893
-0.449508
-0.469809
-0.489789
-0.509435
-0.528736
-0.547675
-0.566239
-0.584408
-0.602166
-0.619493
-0.636371
-0.652778
-0.668695
-0.6841
-0.698973
-0.713292
-0.727036
-0.740183
-0.752713
-0.764606
-0.77584
-0.786396
-0.796255
-0.805398
-0.813808
-0.821468
-0.828363
-0.834479
-0.839803
-0.844323
-0.848029
-0.850914
-0.85297
-0.854193
-0.85458
-0.854128
-0.85284
-0.850718
-0.847765
-0.84399
-0.839399
-0.19783
-0.223865
-0.249815
-0.275668
-0.301421
-0.327025
-0.352481
-0.37778
-0.402896
-0.427828
-0.452555
-0.477057
-0.501315
-0.52531
-0.549002
-0.572367
-0.595386
-0.618037
-0.640298
-0.662144
-0.68355
-0.70449
-0.724937
-0.744866
-0.764248
-0.783057
-0.801265
-0.818844
-0.835768
-0.852009
-0.867541
-0.882336
-0.896369
-0.909616
-0.922053
-0.933658
-0.944409
-0.954287
-0.963274
-0.971353
-0.978508
-0.984728
-0.99
-0.994315
-0.997665
-1.00005
-1.00145
-1.00189
-1.00135
-0.999833
-0.164614
-0.193921
-0.223341
-0.252854
-0.282401
-0.311919
-0.341401
-0.370779
-0.399979
-0.429023
-0.457873
-0.486511
-0.514921
-0.543086
-0.57099
-0.598616
-0.625942
-0.652949
-0.67961
-0.705902
-0.731796
-0.757264
-0.782275
-0.8068
-0.830805
-0.854259
-0.877129
-0.89938
-0.920979
-0.941893
-0.962085
-0.981507
-1.00013
-1.01792
-1.03486
-1.0509
-1.06603
-1.08022
-1.09344
-1.10567
-1.11689
-1.12707
-1.13621
-1.14428
-1.15127
-1.15718
-1.16199
-1.16569
-1.16828
-1.16977
-0.160942
-0.193421
-0.226461
-0.259894
-0.293561
-0.327312
-0.361071
-0.394737
-0.428255
-0.461579
-0.494701
-0.527598
-0.560257
-0.592663
-0.624805
-0.656667
-0.688234
-0.719484
-0.750396
-0.780941
-0.811092
-0.840815
-0.870078
-0.898845
-0.92708
-0.954745
-0.9818
-1.00821
-1.03393
-1.05892
-1.08315
-1.10658
-1.12916
-1.15085
-1.17164
-1.19146
-1.21031
-1.22813
-1.24491
-1.26061
-1.2752
-1.28868
-1.301
-1.31216
-1.32214
-1.33093
-1.33851
-1.34488
-1.35003
-1.35395
-0.227356
-0.267373
-0.306973
-0.346167
-0.384932
-0.423256
-0.461222
-0.498777
-0.535943
-0.57275
-0.609231
-0.645399
-0.681264
-0.716829
-0.752093
-0.787046
-0.821676
-0.855963
-0.889885
-0.923412
-0.956514
-0.989156
-1.0213
-1.05291
-1.08394
-1.11435
-1.1441
-1.17315
-1.20144
-1.22894
-1.25561
-1.2814
-1.30626
-1.33017
-1.35308
-1.37495
-1.39576
-1.41546
-1.43402
-1.45143
-1.46765
-1.48266
-1.49645
-1.50899
-1.52027
-1.53029
-1.53902
-1.54647
-1.55264
-1.55752
-0.354666
-0.400178
-0.445199
-0.489689
-0.533641
-0.577109
-0.620068
-0.662477
-0.704375
-0.745776
-0.786694
-0.827141
-0.867124
-0.906643
-0.945693
-0.984262
-1.02234
-1.05989
-1.0969
-1.13334
-1.16918
-1.20437
-1.23889
-1.27268
-1.30572
-1.33796
-1.36936
-1.39987
-1.42945
-1.45807
-1.48567
-1.51223
-1.5377
-1.56206
-1.58525
-1.60727
-1.62807
-1.64764
-1.66594
-1.68297
-1.6987
-1.71312
-1.72621
-1.73798
-1.74842
-1.75753
-1.7653
-1.77173
-1.77685
-1.78064
-0.565506
-0.615163
-0.664387
-0.713208
-0.761669
-0.809706
-0.85731
-0.904411
-0.951003
-0.997043
-1.0425
-1.08734
-1.13154
-1.17507
-1.21789
-1.25996
-1.30127
-1.34175
-1.38139
-1.42013
-1.45794
-1.49478
-1.53061
-1.56539
-1.59908
-1.63164
-1.66304
-1.69323
-1.72219
-1.74989
-1.77629
-1.80138
-1.82512
-1.84749
-1.86849
-1.88808
-1.90627
-1.92305
-1.9384
-1.95233
-1.96484
-1.97594
-1.98562
-1.9939
-2.0008
-2.00632
-2.01048
-2.01331
-2.01483
-2.01504
-0.00783387
-0.00736099
-0.00692153
-0.006513
-0.00613316
-0.00578003
-0.00545181
-0.00514688
-0.00486374
-0.00460104
-0.00435752
-0.00413203
-0.00392348
-0.00373088
-0.0035533
-0.00338985
-0.00323972
-0.00310213
-0.00297636
-0.00286173
-0.00275759
-0.00266333
-0.00257837
-0.00250217
-0.00243422
-0.00237403
-0.00232115
-0.00227513
-0.00223558
-0.0022021
-0.00217433
-0.00215193
-0.00213458
-0.00212197
-0.00211381
-0.00210984
-0.00210981
-0.00211347
-0.00212061
-0.00213102
-0.0021445
-0.00216088
-0.00217997
-0.00220163
-0.00222571
-0.00225207
-0.00228058
-0.00231112
-0.00234359
-0.00237788
-0.0024139
-0.00245156
-0.00249078
-0.0025315
-0.00257363
-0.00261713
-0.00266193
-0.00270798
-0.00275525
-0.00280367
-0.00285322
-0.00290387
-0.00295557
-0.00300831
-0.00306205
-0.00311678
-0.00317248
-0.00322913
-0.00328671
-0.00334522
-0.00340464
-0.00346496
-0.00352618
-0.0035883
-0.0036513
-0.00371518
-0.00377994
-0.00384558
-0.00391211
-0.00397951
-0.0040478
-0.00411697
-0.00418702
-0.00425797
-0.0043298
-0.00440253
-0.00447616
-0.00455069
-0.00462612
-0.00470247
-0.00477971
-0.00485787
-0.00493694
-0.00501692
-0.00509779
-0.00517957
-0.00526223
-0.00534576
-0.00543016
-0.00551541
-0.00560147
-0.00568834
-0.00577599
-0.00586438
-0.00595348
-0.00604325
-0.00613366
-0.00622468
-0.00631621
-0.00640824
-0.00650067
-0.00659348
-0.00668655
-0.00677986
-0.0068733
-0.00696681
-0.00706033
-0.0071538
-0.00724718
-0.00734041
-0.00743345
-0.00752626
-0.00761877
-0.00771094
-0.00780272
-0.00789405
-0.00798487
-0.00807504
-0.00816446
-0.00825306
-0.00834072
-0.00842734
-0.0085129
-0.00859737
-0.00868074
-0.00876302
-0.00884423
-0.00892441
-0.00900361
-0.00908187
-0.00915928
-0.00923589
-0.00931179
-0.00938707
-0.00946181
-0.00953612
-0.00961009
-0.00968383
-0.00975743
-0.009831
-0.00990464
-0.00997845
-0.0100525
-0.010127
-0.0102018
-0.0102773
-0.0103533
-0.01043
-0.0105075
-0.0105858
-0.0106649
-0.0107449
-0.0108258
-0.0109075
-0.0109899
-0.011073
-0.0111567
-0.011241
-0.0113261
-0.011412
-0.0114989
-0.0115869
-0.0116762
-0.0117669
-0.0118592
-0.0119531
-0.0120489
-0.0121467
-0.0122465
-0.0123486
-0.0124529
-0.0125595
-0.0126682
-0.0127788
-0.012891
-0.0130046
-0.0131196
-0.0132359
-0.0133536
-0.0134726
-0.0135931
-0.0137152
-0.0138388
-0.0139642
-0.0140916
-0.0142206
-0.0143512
-0.014482
-0.0146125
-0.0147416
-0.0148689
-0.0149943
-0.0151175
-0.0152385
-0.0153575
-0.0154745
-0.0155899
-0.0157038
-0.0158166
-0.0159286
-0.0160391
-0.0161465
-0.0162479
-0.0163404
-0.0164221
-0.0164918
-0.0165488
-0.0165927
-0.0166237
-0.016642
-0.0166483
-0.0166434
-0.0166283
-0.0166045
-0.0165727
-0.0165326
-0.0164805
-0.016412
-0.0163228
-0.0162106
-0.0160737
-0.0159116
-0.0157241
-0.0155114
-0.0152742
-0.0150135
-0.0147301
-0.0144239
-0.0140942
-0.0137393
-0.0133589
-0.0129547
-0.0125305
-0.0120917
-0.0116453
-0.0111999
-0.0107656
-0.0103539
-0.00997514
-0.00963319
-0.00932432
-0.00902359
-0.00871414
-0.00838413
-0.00802893
-0.00764837
-0.00724503
-0.00682322
-0.00638818
-0.00594551
-0.00550079
-0.00505932
-0.00462589
-0.00420469
-0.00379929
-0.00341259
-0.00304684
-0.00270372
-0.00238434
-0.00208931
-0.00181883
-0.00157269
-0.0013504
-0.00115115
-0.000973939
-0.000817575
-0.000680726
-0.000561963
-0.000459792
-0.000372689
-0.000299131
-0.000237621
-0.000186713
-0.000145032
-0.000111289
-8.4296e-05
-6.29722e-05
-4.63491e-05
-3.35717e-05
-2.38967e-05
-1.66878e-05
-1.14089e-05
-7.61541e-06
-4.94528e-06
-3.10864e-06
-1.87777e-06
-1.07731e-06
-5.75106e-07
-2.73758e-07
-1.03202e-07
-0.0119647
-0.0112511
-0.0105804
-0.00994985
-0.0093571
-0.00879989
-0.00827618
-0.00778407
-0.0073218
-0.00688774
-0.00648037
-0.00609826
-0.00574006
-0.00540452
-0.00509044
-0.0047967
-0.00452223
-0.00426602
-0.0040271
-0.00380458
-0.00359757
-0.00340525
-0.00322683
-0.00306157
-0.00290874
-0.00276767
-0.00263771
-0.00251824
-0.00240867
-0.00230844
-0.00221703
-0.00213392
-0.00205863
-0.00199071
-0.00192973
-0.00187526
-0.00182693
-0.00178436
-0.0017472
-0.00171512
-0.00168782
-0.00166499
-0.00164637
-0.00163167
-0.00162067
-0.00161313
-0.00160883
-0.00160756
-0.00160913
-0.00161337
-0.00162011
-0.00162918
-0.00164045
-0.00165377
-0.00166901
-0.00168607
-0.00170482
-0.00172516
-0.00174701
-0.00177027
-0.00179485
-0.0018207
-0.00184773
-0.00187588
-0.0019051
-0.00193533
-0.00196652
-0.00199863
-0.00203162
-0.00206544
-0.00210007
-0.00213548
-0.00217164
-0.00220852
-0.0022461
-0.00228436
-0.00232328
-0.00236285
-0.00240305
-0.00244387
-0.00248529
-0.00252731
-0.00256992
-0.00261311
-0.00265686
-0.00270117
-0.00274604
-0.00279146
-0.00283741
-0.00288389
-0.0029309
-0.00297842
-0.00302645
-0.00307497
-0.00312398
-0.00317346
-0.00322339
-0.00327377
-0.00332458
-0.00337579
-0.00342738
-0.00347935
-0.00353166
-0.00358429
-0.00363721
-0.00369041
-0.00374384
-0.00379749
-0.00385132
-0.00390531
-0.00395941
-0.00401361
-0.00406786
-0.00412214
-0.00417641
-0.00423064
-0.00428478
-0.00433882
-0.00439271
-0.00444644
-0.00449996
-0.00455326
-0.0046063
-0.00465907
-0.00471153
-0.00476367
-0.00481547
-0.0048669
-0.00491795
-0.00496857
-0.00501877
-0.00506852
-0.00511781
-0.00516666
-0.00521505
-0.00526302
-0.00531057
-0.00535773
-0.00540452
-0.00545098
-0.00549713
-0.00554303
-0.0055887
-0.0056342
-0.00567957
-0.00572486
-0.00577011
-0.00581537
-0.00586069
-0.00590612
-0.0059517
-0.00599749
-0.00604352
-0.00608983
-0.00613648
-0.00618349
-0.0062309
-0.00627875
-0.00632708
-0.00637591
-0.00642528
-0.00647521
-0.00652574
-0.00657687
-0.00662861
-0.00668097
-0.00673396
-0.00678764
-0.00684202
-0.00689717
-0.00695311
-0.00700992
-0.00706762
-0.00712627
-0.00718591
-0.00724658
-0.00730831
-0.00737113
-0.00743504
-0.00750008
-0.00756622
-0.00763346
-0.00770172
-0.00777094
-0.00784101
-0.00791189
-0.00798349
-0.00805575
-0.0081286
-0.00820195
-0.00827574
-0.00834985
-0.00842421
-0.0084987
-0.00857321
-0.00864761
-0.0087216
-0.00879483
-0.00886699
-0.00893779
-0.00900701
-0.00907445
-0.00913994
-0.00920331
-0.00926436
-0.00932292
-0.00937876
-0.00943167
-0.00948138
-0.00952756
-0.00956975
-0.00960705
-0.00963853
-0.0096634
-0.00968108
-0.00969115
-0.00969331
-0.00968737
-0.00967317
-0.00965066
-0.00961977
-0.0095805
-0.00953281
-0.00947666
-0.0094119
-0.00933801
-0.0092538
-0.00915815
-0.00905025
-0.00892966
-0.0087962
-0.00864988
-0.0084909
-0.00831957
-0.00813631
-0.00794162
-0.00773591
-0.00751982
-0.00729382
-0.00705868
-0.00681557
-0.00656614
-0.00631236
-0.00605653
-0.00580109
-0.00554857
-0.00530143
-0.00506183
-0.00483133
-0.00461013
-0.00439506
-0.00418165
-0.00396671
-0.00374874
-0.00352754
-0.00330379
-0.00307877
-0.00285408
-0.0026315
-0.00241284
-0.00219984
-0.00199413
-0.00179712
-0.00161
-0.00143372
-0.00126896
-0.00111619
-0.000975602
-0.000847224
-0.000730875
-0.000626222
-0.000532801
-0.000450042
-0.000377295
-0.000313854
-0.000258975
-0.000211897
-0.000171858
-0.000138107
-0.000109919
-8.66039e-05
-6.75114e-05
-5.20405e-05
-3.96418e-05
-2.98195e-05
-2.21327e-05
-1.61941e-05
-1.16683e-05
-8.26909e-06
-5.75533e-06
-3.92722e-06
-2.62157e-06
-1.70731e-06
-1.08092e-06
-6.62082e-07
-3.89676e-07
-2.18123e-07
-1.14178e-07
-5.41744e-08
-2.16684e-08
-0.0184221
-0.0174071
-0.016444
-0.0155301
-0.0146628
-0.0138397
-0.0130587
-0.0123179
-0.0116152
-0.010949
-0.0103176
-0.00971934
-0.00915283
-0.00861661
-0.00810934
-0.00762973
-0.00717655
-0.00674861
-0.00634478
-0.00596397
-0.00560514
-0.00526728
-0.00494942
-0.00465064
-0.00437003
-0.00410673
-0.00385991
-0.00362876
-0.00341253
-0.00321047
-0.00302187
-0.00284605
-0.00268234
-0.00253012
-0.00238878
-0.00225774
-0.00213646
-0.00202438
-0.00192101
-0.00182586
-0.00173847
-0.00165838
-0.00158518
-0.00151846
-0.00145784
-0.00140295
-0.00135344
-0.00130899
-0.00126927
-0.001234
-0.00120289
-0.00117566
-0.00115208
-0.00113191
-0.0011149
-0.00110087
-0.0010896
-0.00108091
-0.00107462
-0.00107057
-0.0010686
-0.00106857
-0.00107033
-0.00107377
-0.00107877
-0.00108521
-0.00109299
-0.00110201
-0.0011122
-0.00112345
-0.00113571
-0.0011489
-0.00116295
-0.0011778
-0.0011934
-0.0012097
-0.00122664
-0.0012442
-0.00126232
-0.00128096
-0.00130011
-0.00131972
-0.00133976
-0.00136022
-0.00138106
-0.00140226
-0.00142381
-0.00144568
-0.00146785
-0.00149031
-0.00151304
-0.00153602
-0.00155925
-0.0015827
-0.00160636
-0.00163022
-0.00165426
-0.00167847
-0.00170284
-0.00172735
-0.00175199
-0.00177674
-0.00180159
-0.00182653
-0.00185154
-0.00187661
-0.00190171
-0.00192685
-0.00195199
-0.00197713
-0.00200225
-0.00202734
-0.00205238
-0.00207735
-0.00210225
-0.00212705
-0.00215175
-0.00217633
-0.00220078
-0.00222509
-0.00224924
-0.00227323
-0.00229705
-0.00232068
-0.00234413
-0.00236737
-0.00239041
-0.00241324
-0.00243585
-0.00245825
-0.00248043
-0.0025024
-0.00252415
-0.00254569
-0.00256702
-0.00258816
-0.00260911
-0.00262989
-0.0026505
-0.00267096
-0.00269129
-0.0027115
-0.00273161
-0.00275164
-0.0027716
-0.00279153
-0.00281143
-0.00283132
-0.00285123
-0.00287118
-0.00289119
-0.00291126
-0.00293143
-0.00295171
-0.00297212
-0.00299266
-0.00301337
-0.00303424
-0.0030553
-0.00307656
-0.00309802
-0.00311969
-0.0031416
-0.00316373
-0.00318611
-0.00320874
-0.00323163
-0.00325478
-0.0032782
-0.0033019
-0.00332587
-0.00335014
-0.00337468
-0.00339952
-0.00342463
-0.00345002
-0.00347568
-0.00350158
-0.00352772
-0.00355407
-0.00358059
-0.00360727
-0.00363405
-0.0036609
-0.00368777
-0.0037146
-0.00374135
-0.00376794
-0.00379431
-0.0038204
-0.00384612
-0.00387139
-0.00389614
-0.00392026
-0.00394367
-0.00396625
-0.00398789
-0.00400849
-0.00402791
-0.00404603
-0.00406274
-0.00407791
-0.00409141
-0.00410312
-0.0041129
-0.00412061
-0.00412612
-0.00412926
-0.00412989
-0.00412784
-0.00412293
-0.00411499
-0.00410384
-0.00408933
-0.00407129
-0.00404962
-0.0040242
-0.00399496
-0.00396183
-0.00392475
-0.00388369
-0.00383861
-0.00378947
-0.00373626
-0.00367894
-0.00361749
-0.00355187
-0.00348208
-0.00340814
-0.00333011
-0.00324812
-0.00316234
-0.00307299
-0.00298031
-0.00288459
-0.00278615
-0.00268534
-0.00258253
-0.00247814
-0.00237265
-0.00226655
-0.00216036
-0.00205462
-0.00194987
-0.0018466
-0.00174526
-0.0016462
-0.00154971
-0.00145594
-0.0013649
-0.00127645
-0.00119034
-0.00110641
-0.00102457
-0.000944911
-0.000867594
-0.000792867