/*--------------------------------*- C++ -*----------------------------------*\
| =========                 |                                                 |
| \\      /  F ield         | OpenFOAM: The Open Source CFD Toolbox           |
|  \\    /   O peration     | Version:  2.4.0                                 |
|   \\  /    A nd           | Web:      www.OpenFOAM.org                      |
|    \\/     M anipulation  |                                                 |
\*---------------------------------------------------------------------------*/
FoamFile
{
    version     2.0;
    format      ascii;
    class       surfaceScalarField;
    location    "0.012";
    object      phi;
}
// * * * * * * * * * * * * * * * * * * * * * * * * * * * * * * * * * * * * * //

dimensions      [0 3 -1 0 0 0 0];

internalField   nonuniform List<scalar> 
124
(
-4.46863e-09
-4.46862e-09
-4.46861e-09
-4.4686e-09
-4.46859e-09
-4.46858e-09
-4.46857e-09
-4.46856e-09
-4.46855e-09
-4.46854e-09
-4.46853e-09
-4.46853e-09
-4.46852e-09
-4.46851e-09
-4.4685e-09
-4.46849e-09
-4.46848e-09
-4.46847e-09
-4.46846e-09
-4.46845e-09
-4.46844e-09
-4.46844e-09
-4.46843e-09
-4.46842e-09
-4.46841e-09
-4.4684e-09
-4.46839e-09
-4.46838e-09
-4.46838e-09
-4.46837e-09
-4.46836e-09
-4.46835e-09
-4.46834e-09
-4.46834e-09
-4.46833e-09
-4.46832e-09
-4.46831e-09
-4.4683e-09
-4.4683e-09
-4.46829e-09
-4.46828e-09
-4.46827e-09
-4.46827e-09
-4.46826e-09
-4.46825e-09
-4.46824e-09
-4.46824e-09
-4.46823e-09
-4.46822e-09
-4.46822e-09
-4.46821e-09
-4.4682e-09
-4.4682e-09
-4.46819e-09
-4.46818e-09
-4.46818e-09
-4.46817e-09
-4.46816e-09
-4.46816e-09
-4.46815e-09
-4.46814e-09
-4.46814e-09
-4.46813e-09
-4.46813e-09
-4.46812e-09
-4.46811e-09
-4.46811e-09
-4.4681e-09
-4.4681e-09
-4.46809e-09
-4.46809e-09
-4.46808e-09
-4.46808e-09
-4.46807e-09
-4.46807e-09
-4.46806e-09
-4.46806e-09
-4.46805e-09
-4.46805e-09
-4.46804e-09
-4.46804e-09
-4.46804e-09
-4.46803e-09
-4.46803e-09
-4.46803e-09
-4.46802e-09
-4.46802e-09
-4.46802e-09
-4.46801e-09
-4.46801e-09
-4.46801e-09
-4.46801e-09
-4.46801e-09
-4.468e-09
-4.468e-09
-4.468e-09
-4.468e-09
-4.468e-09
-4.468e-09
-4.468e-09
-4.468e-09
-4.468e-09
-4.468e-09
-4.468e-09
-4.468e-09
-4.468e-09
-4.46801e-09
-4.46801e-09
-4.46801e-09
-4.46801e-09
-4.46801e-09
-4.46802e-09
-4.46802e-09
-4.46803e-09
-4.46803e-09
-4.46803e-09
-4.46804e-09
-4.46804e-09
-4.46805e-09
-4.46805e-09
-4.46806e-09
-4.46807e-09
-4.46807e-09
-4.46808e-09
)
;

boundaryField
{
    BotWall
    {
        type            calculated;
        value           nonuniform 0();
    }
    FreeStream
    {
        type            calculated;
        value           nonuniform 0();
    }
    FrontNBack
    {
        type            empty;
        value           nonuniform 0();
    }
    LeftSide
    {
        type            symmetryPlane;
        value           nonuniform 0();
    }
    RightSide
    {
        type            symmetryPlane;
        value           nonuniform 0();
    }
    procBoundary5to2
    {
        type            processor;
        value           nonuniform List<scalar> 
50
(
-2.59625e-15
-2.59084e-15
-2.58503e-15
-2.5788e-15
-2.57213e-15
-2.56499e-15
-2.55737e-15
-2.54922e-15
-2.54053e-15
-2.53127e-15
-2.52141e-15
-2.51091e-15
-2.49976e-15
-2.48792e-15
-2.47537e-15
-2.46207e-15
-2.44799e-15
-2.43311e-15
-2.4174e-15
-2.40083e-15
-2.38338e-15
-2.36502e-15
-2.34573e-15
-2.3255e-15
-2.30431e-15
-2.28215e-15
-2.259e-15
-2.23488e-15
-2.20977e-15
-2.18369e-15
-2.15666e-15
-2.12868e-15
-2.0998e-15
-2.07005e-15
-2.03947e-15
-2.00812e-15
-1.97605e-15
-1.94335e-15
-1.91007e-15
-1.87633e-15
-1.8422e-15
-1.80781e-15
-1.77325e-15
-1.73864e-15
-1.70412e-15
-1.66982e-15
-1.63586e-15
-1.60238e-15
-1.56952e-15
-1.53741e-15
)
;
    }
    procBoundary5to3
    {
        type            processor;
        value           nonuniform List<scalar> 
75
(
-2.40483e-15
-2.41832e-15
-2.43137e-15
-2.44397e-15
-2.45614e-15
-2.46788e-15
-2.47918e-15
-2.49005e-15
-2.50049e-15
-2.51052e-15
-2.52013e-15
-2.52933e-15
-2.53813e-15
-2.54653e-15
-2.55454e-15
-2.56216e-15
-2.56941e-15
-2.57629e-15
-2.5828e-15
-2.58896e-15
-2.59478e-15
-2.60026e-15
-2.60542e-15
-2.61025e-15
-2.61477e-15
-2.619e-15
-2.62294e-15
-2.62659e-15
-2.62998e-15
-2.6331e-15
-2.63598e-15
-2.63861e-15
-2.64101e-15
-2.64319e-15
-2.64516e-15
-2.64692e-15
-2.64849e-15
-2.64987e-15
-2.65107e-15
-2.6521e-15
-2.65297e-15
-2.65369e-15
-2.65426e-15
-2.65469e-15
-2.65498e-15
-2.65514e-15
-2.65517e-15
-2.65509e-15
-2.65489e-15
-2.65458e-15
-2.65415e-15
-2.65362e-15
-2.65297e-15
-2.65221e-15
-2.65134e-15
-2.65036e-15
-2.64926e-15
-2.64805e-15
-2.64671e-15
-2.64525e-15
-2.64365e-15
-2.6419e-15
-2.64001e-15
-2.63796e-15
-2.63574e-15
-2.63334e-15
-2.63075e-15
-2.62795e-15
-2.62493e-15
-2.62167e-15
-2.61817e-15
-2.6144e-15
-2.61034e-15
-2.60598e-15
-2.60129e-15
)
;
    }
    procBoundary5to4
    {
        type            processor;
        value           uniform -4.46809e-09;
    }
    procBoundary5to6
    {
        type            processor;
        value           uniform 4.46864e-09;
    }
    procBoundary5to7
    {
        type            processor;
        value           nonuniform List<scalar> 
75
(
-4.28841e-15
-4.2227e-15
-4.156e-15
-4.0882e-15
-4.01921e-15
-3.94893e-15
-3.87725e-15
-3.80407e-15
-3.72927e-15
-3.65276e-15
-3.5744e-15
-3.4941e-15
-3.41174e-15
-3.32719e-15
-3.24034e-15
-3.15107e-15
-3.05926e-15
-2.96479e-15
-2.86755e-15
-2.7674e-15
-2.66423e-15
-2.55793e-15
-2.44837e-15
-2.33544e-15
-2.21903e-15
-2.09901e-15
-1.97529e-15
-1.84774e-15
-1.71627e-15
-1.58078e-15
-1.44116e-15
-1.29732e-15
-1.14917e-15
-9.96631e-16
-8.39607e-16
-6.78025e-16
-5.11812e-16
-3.409e-16
-1.65227e-16
1.52595e-17
2.00443e-16
3.90518e-16
5.85506e-16
7.8542e-16
9.9026e-16
1.20002e-15
1.41467e-15
1.63418e-15
1.8585e-15
2.08755e-15
2.32123e-15
2.55945e-15
2.80207e-15
3.04892e-15
3.29984e-15
3.5546e-15
3.81298e-15
4.0747e-15
4.33947e-15
4.60696e-15
4.87682e-15
5.14864e-15
5.42201e-15
5.69646e-15
5.97153e-15
6.24668e-15
6.52139e-15
6.79509e-15
7.06719e-15
7.3371e-15
7.60419e-15
7.86786e-15
8.12747e-15
8.38242e-15
8.63207e-15
)
;
    }
    procBoundary5to8
    {
        type            processor;
        value           nonuniform List<scalar> 
50
(
-7.65637e-15
-7.573e-15
-7.49058e-15
-7.40912e-15
-7.32858e-15
-7.24897e-15
-7.17028e-15
-7.09248e-15
-7.01558e-15
-6.93956e-15
-6.8644e-15
-6.79009e-15
-6.71662e-15
-6.64397e-15
-6.57213e-15
-6.50107e-15
-6.4308e-15
-6.36127e-15
-6.29248e-15
-6.2244e-15
-6.15702e-15
-6.09031e-15
-6.02425e-15
-5.95881e-15
-5.89396e-15
-5.82969e-15
-5.76595e-15
-5.70273e-15
-5.63998e-15
-5.57767e-15
-5.51577e-15
-5.45424e-15
-5.39304e-15
-5.33212e-15
-5.27145e-15
-5.21097e-15
-5.15065e-15
-5.09042e-15
-5.03024e-15
-4.97004e-15
-4.90978e-15
-4.84938e-15
-4.78879e-15
-4.72794e-15
-4.66675e-15
-4.60516e-15
-4.54309e-15
-4.48046e-15
-4.4172e-15
-4.35321e-15
)
;
    }
}


// ************************************************************************* //
