/*--------------------------------*- C++ -*----------------------------------*\
| =========                 |                                                 |
| \\      /  F ield         | OpenFOAM: The Open Source CFD Toolbox           |
|  \\    /   O peration     | Version:  2.4.0                                 |
|   \\  /    A nd           | Web:      www.OpenFOAM.org                      |
|    \\/     M anipulation  |                                                 |
\*---------------------------------------------------------------------------*/
FoamFile
{
    version     2.0;
    format      ascii;
    class       volVectorField;
    location    "0.012";
    object      U;
}
// * * * * * * * * * * * * * * * * * * * * * * * * * * * * * * * * * * * * * //

dimensions      [0 1 -1 0 0 0 0];

internalField   nonuniform List<vector> 
125
(
(-4.03305e-06 -0.0223432 0)
(-3.96076e-06 -0.0223431 0)
(-3.88957e-06 -0.0223431 0)
(-3.81949e-06 -0.022343 0)
(-3.75048e-06 -0.022343 0)
(-3.68254e-06 -0.0223429 0)
(-3.61564e-06 -0.0223429 0)
(-3.54977e-06 -0.0223428 0)
(-3.48491e-06 -0.0223428 0)
(-3.42105e-06 -0.0223427 0)
(-3.35817e-06 -0.0223427 0)
(-3.29624e-06 -0.0223427 0)
(-3.23525e-06 -0.0223426 0)
(-3.17519e-06 -0.0223426 0)
(-3.11602e-06 -0.0223425 0)
(-3.05774e-06 -0.0223425 0)
(-3.00032e-06 -0.0223424 0)
(-2.94375e-06 -0.0223424 0)
(-2.888e-06 -0.0223423 0)
(-2.83305e-06 -0.0223423 0)
(-2.77888e-06 -0.0223422 0)
(-2.72547e-06 -0.0223422 0)
(-2.67279e-06 -0.0223422 0)
(-2.62083e-06 -0.0223421 0)
(-2.56956e-06 -0.0223421 0)
(-2.51895e-06 -0.022342 0)
(-2.46899e-06 -0.022342 0)
(-2.41964e-06 -0.0223419 0)
(-2.37088e-06 -0.0223419 0)
(-2.32268e-06 -0.0223419 0)
(-2.27502e-06 -0.0223418 0)
(-2.22786e-06 -0.0223418 0)
(-2.18119e-06 -0.0223417 0)
(-2.13496e-06 -0.0223417 0)
(-2.08914e-06 -0.0223417 0)
(-2.04372e-06 -0.0223416 0)
(-1.99864e-06 -0.0223416 0)
(-1.95389e-06 -0.0223415 0)
(-1.90942e-06 -0.0223415 0)
(-1.8652e-06 -0.0223415 0)
(-1.82119e-06 -0.0223414 0)
(-1.77735e-06 -0.0223414 0)
(-1.73366e-06 -0.0223414 0)
(-1.69006e-06 -0.0223413 0)
(-1.64652e-06 -0.0223413 0)
(-1.60299e-06 -0.0223412 0)
(-1.55943e-06 -0.0223412 0)
(-1.51581e-06 -0.0223412 0)
(-1.47206e-06 -0.0223411 0)
(-1.42816e-06 -0.0223411 0)
(-1.38405e-06 -0.0223411 0)
(-1.33968e-06 -0.022341 0)
(-1.29501e-06 -0.022341 0)
(-1.24998e-06 -0.022341 0)
(-1.20455e-06 -0.0223409 0)
(-1.15867e-06 -0.0223409 0)
(-1.11228e-06 -0.0223409 0)
(-1.06534e-06 -0.0223408 0)
(-1.01779e-06 -0.0223408 0)
(-9.69581e-07 -0.0223408 0)
(-9.20658e-07 -0.0223407 0)
(-8.7097e-07 -0.0223407 0)
(-8.20464e-07 -0.0223407 0)
(-7.69088e-07 -0.0223406 0)
(-7.1679e-07 -0.0223406 0)
(-6.63519e-07 -0.0223406 0)
(-6.09223e-07 -0.0223406 0)
(-5.53853e-07 -0.0223405 0)
(-4.97358e-07 -0.0223405 0)
(-4.3969e-07 -0.0223405 0)
(-3.80802e-07 -0.0223404 0)
(-3.20646e-07 -0.0223404 0)
(-2.59178e-07 -0.0223404 0)
(-1.96353e-07 -0.0223404 0)
(-1.32132e-07 -0.0223403 0)
(-6.64698e-08 -0.0223403 0)
(6.68825e-10 -0.0223403 0)
(6.93225e-08 -0.0223403 0)
(1.39525e-07 -0.0223403 0)
(2.11309e-07 -0.0223402 0)
(2.84705e-07 -0.0223402 0)
(3.59743e-07 -0.0223402 0)
(4.36446e-07 -0.0223402 0)
(5.1484e-07 -0.0223402 0)
(5.94944e-07 -0.0223401 0)
(6.76777e-07 -0.0223401 0)
(7.60353e-07 -0.0223401 0)
(8.45684e-07 -0.0223401 0)
(9.32778e-07 -0.0223401 0)
(1.02164e-06 -0.0223401 0)
(1.11227e-06 -0.0223401 0)
(1.20467e-06 -0.02234 0)
(1.29882e-06 -0.02234 0)
(1.39471e-06 -0.02234 0)
(1.49233e-06 -0.02234 0)
(1.59165e-06 -0.02234 0)
(1.69264e-06 -0.02234 0)
(1.79526e-06 -0.02234 0)
(1.89946e-06 -0.02234 0)
(2.0052e-06 -0.02234 0)
(2.11242e-06 -0.02234 0)
(2.22103e-06 -0.02234 0)
(2.33096e-06 -0.02234 0)
(2.44213e-06 -0.02234 0)
(2.55442e-06 -0.02234 0)
(2.66772e-06 -0.02234 0)
(2.78192e-06 -0.02234 0)
(2.89686e-06 -0.02234 0)
(3.01241e-06 -0.02234 0)
(3.12839e-06 -0.0223401 0)
(3.24464e-06 -0.0223401 0)
(3.36096e-06 -0.0223401 0)
(3.47715e-06 -0.0223401 0)
(3.593e-06 -0.0223401 0)
(3.7083e-06 -0.0223401 0)
(3.8228e-06 -0.0223402 0)
(3.93626e-06 -0.0223402 0)
(4.04843e-06 -0.0223402 0)
(4.15906e-06 -0.0223402 0)
(4.26789e-06 -0.0223403 0)
(4.37466e-06 -0.0223403 0)
(4.4791e-06 -0.0223403 0)
(4.58096e-06 -0.0223403 0)
(4.67998e-06 -0.0223404 0)
(4.77591e-06 -0.0223404 0)
)
;

boundaryField
{
    BotWall
    {
        type            fixedValue;
        value           nonuniform 0();
    }
    FreeStream
    {
        type            zeroGradient;
    }
    FrontNBack
    {
        type            empty;
    }
    LeftSide
    {
        type            symmetryPlane;
    }
    RightSide
    {
        type            symmetryPlane;
    }
    procBoundary5to2
    {
        type            processor;
        value           nonuniform List<vector> 
50
(
(2.54531e-06 -0.0223411 0)
(2.46392e-06 -0.0223411 0)
(2.38072e-06 -0.022341 0)
(2.29565e-06 -0.022341 0)
(2.20866e-06 -0.022341 0)
(2.1197e-06 -0.022341 0)
(2.02873e-06 -0.0223409 0)
(1.93569e-06 -0.0223409 0)
(1.84055e-06 -0.0223409 0)
(1.74325e-06 -0.0223409 0)
(1.64377e-06 -0.0223409 0)
(1.54207e-06 -0.0223408 0)
(1.43811e-06 -0.0223408 0)
(1.33187e-06 -0.0223408 0)
(1.22332e-06 -0.0223408 0)
(1.11244e-06 -0.0223408 0)
(9.99217e-07 -0.0223408 0)
(8.83638e-07 -0.0223407 0)
(7.65701e-07 -0.0223407 0)
(6.45407e-07 -0.0223407 0)
(5.22766e-07 -0.0223407 0)
(3.97798e-07 -0.0223407 0)
(2.70528e-07 -0.0223407 0)
(1.40994e-07 -0.0223407 0)
(9.24508e-09 -0.0223407 0)
(-1.2466e-07 -0.0223406 0)
(-2.60649e-07 -0.0223406 0)
(-3.98633e-07 -0.0223406 0)
(-5.38513e-07 -0.0223406 0)
(-6.8017e-07 -0.0223406 0)
(-8.23471e-07 -0.0223406 0)
(-9.68264e-07 -0.0223406 0)
(-1.11438e-06 -0.0223406 0)
(-1.26163e-06 -0.0223406 0)
(-1.4098e-06 -0.0223406 0)
(-1.55868e-06 -0.0223406 0)
(-1.70801e-06 -0.0223406 0)
(-1.85752e-06 -0.0223406 0)
(-2.00695e-06 -0.0223407 0)
(-2.15598e-06 -0.0223407 0)
(-2.3043e-06 -0.0223407 0)
(-2.45158e-06 -0.0223407 0)
(-2.59748e-06 -0.0223407 0)
(-2.74164e-06 -0.0223407 0)
(-2.8837e-06 -0.0223407 0)
(-3.02331e-06 -0.0223407 0)
(-3.16008e-06 -0.0223408 0)
(-3.29366e-06 -0.0223408 0)
(-3.42369e-06 -0.0223408 0)
(-3.54981e-06 -0.0223408 0)
)
;
    }
    procBoundary5to3
    {
        type            processor;
        value           nonuniform List<vector> 
75
(
(7.05825e-06 -0.0223435 0)
(6.99177e-06 -0.0223435 0)
(6.92578e-06 -0.0223434 0)
(6.86025e-06 -0.0223434 0)
(6.79518e-06 -0.0223434 0)
(6.73056e-06 -0.0223433 0)
(6.6664e-06 -0.0223433 0)
(6.60267e-06 -0.0223433 0)
(6.53938e-06 -0.0223432 0)
(6.47652e-06 -0.0223432 0)
(6.41409e-06 -0.0223431 0)
(6.35207e-06 -0.0223431 0)
(6.29046e-06 -0.0223431 0)
(6.22926e-06 -0.022343 0)
(6.16847e-06 -0.022343 0)
(6.10806e-06 -0.022343 0)
(6.04805e-06 -0.0223429 0)
(5.98842e-06 -0.0223429 0)
(5.92917e-06 -0.0223429 0)
(5.8703e-06 -0.0223428 0)
(5.81178e-06 -0.0223428 0)
(5.75363e-06 -0.0223428 0)
(5.69582e-06 -0.0223427 0)
(5.63836e-06 -0.0223427 0)
(5.58123e-06 -0.0223427 0)
(5.52442e-06 -0.0223426 0)
(5.46793e-06 -0.0223426 0)
(5.41174e-06 -0.0223426 0)
(5.35584e-06 -0.0223425 0)
(5.30023e-06 -0.0223425 0)
(5.24488e-06 -0.0223425 0)
(5.18978e-06 -0.0223424 0)
(5.13492e-06 -0.0223424 0)
(5.08028e-06 -0.0223424 0)
(5.02584e-06 -0.0223423 0)
(4.97158e-06 -0.0223423 0)
(4.91749e-06 -0.0223423 0)
(4.86353e-06 -0.0223422 0)
(4.8097e-06 -0.0223422 0)
(4.75596e-06 -0.0223422 0)
(4.70229e-06 -0.0223421 0)
(4.64865e-06 -0.0223421 0)
(4.59503e-06 -0.0223421 0)
(4.54138e-06 -0.022342 0)
(4.48768e-06 -0.022342 0)
(4.4339e-06 -0.022342 0)
(4.37999e-06 -0.0223419 0)
(4.32592e-06 -0.0223419 0)
(4.27165e-06 -0.0223419 0)
(4.21713e-06 -0.0223418 0)
(4.16233e-06 -0.0223418 0)
(4.1072e-06 -0.0223418 0)
(4.05169e-06 -0.0223417 0)
(3.99576e-06 -0.0223417 0)
(3.93936e-06 -0.0223417 0)
(3.88242e-06 -0.0223416 0)
(3.82491e-06 -0.0223416 0)
(3.76677e-06 -0.0223416 0)
(3.70794e-06 -0.0223416 0)
(3.64837e-06 -0.0223415 0)
(3.588e-06 -0.0223415 0)
(3.52676e-06 -0.0223415 0)
(3.46461e-06 -0.0223414 0)
(3.40148e-06 -0.0223414 0)
(3.3373e-06 -0.0223414 0)
(3.27203e-06 -0.0223414 0)
(3.2056e-06 -0.0223413 0)
(3.13794e-06 -0.0223413 0)
(3.06899e-06 -0.0223413 0)
(2.9987e-06 -0.0223412 0)
(2.92701e-06 -0.0223412 0)
(2.85384e-06 -0.0223412 0)
(2.77915e-06 -0.0223412 0)
(2.70287e-06 -0.0223411 0)
(2.62494e-06 -0.0223411 0)
)
;
    }
    procBoundary5to4
    {
        type            processor;
        value           uniform (4.86853e-06 -0.0223405 0);
    }
    procBoundary5to6
    {
        type            processor;
        value           uniform (-4.10648e-06 -0.0223432 0);
    }
    procBoundary5to7
    {
        type            processor;
        value           nonuniform List<vector> 
75
(
(-3.10461e-06 -0.0223378 0)
(-3.06387e-06 -0.0223378 0)
(-3.02295e-06 -0.0223378 0)
(-2.98183e-06 -0.0223378 0)
(-2.94045e-06 -0.0223378 0)
(-2.89878e-06 -0.0223378 0)
(-2.85676e-06 -0.0223378 0)
(-2.81436e-06 -0.0223379 0)
(-2.77153e-06 -0.0223379 0)
(-2.72822e-06 -0.0223379 0)
(-2.68439e-06 -0.0223379 0)
(-2.64e-06 -0.0223379 0)
(-2.59499e-06 -0.0223379 0)
(-2.54932e-06 -0.0223379 0)
(-2.50296e-06 -0.0223379 0)
(-2.45584e-06 -0.0223379 0)
(-2.40793e-06 -0.0223379 0)
(-2.35919e-06 -0.0223379 0)
(-2.30956e-06 -0.0223379 0)
(-2.25902e-06 -0.0223379 0)
(-2.20751e-06 -0.0223379 0)
(-2.155e-06 -0.0223379 0)
(-2.10144e-06 -0.0223379 0)
(-2.04681e-06 -0.0223379 0)
(-1.99105e-06 -0.0223379 0)
(-1.93415e-06 -0.0223379 0)
(-1.87606e-06 -0.0223379 0)
(-1.81675e-06 -0.0223379 0)
(-1.7562e-06 -0.0223379 0)
(-1.69437e-06 -0.0223379 0)
(-1.63125e-06 -0.0223379 0)
(-1.5668e-06 -0.0223379 0)
(-1.50102e-06 -0.0223379 0)
(-1.43387e-06 -0.0223379 0)
(-1.36534e-06 -0.0223379 0)
(-1.29543e-06 -0.0223379 0)
(-1.22411e-06 -0.0223379 0)
(-1.15139e-06 -0.0223379 0)
(-1.07726e-06 -0.0223378 0)
(-1.00171e-06 -0.0223378 0)
(-9.24759e-07 -0.0223378 0)
(-8.46401e-07 -0.0223378 0)
(-7.6665e-07 -0.0223378 0)
(-6.85521e-07 -0.0223378 0)
(-6.03034e-07 -0.0223377 0)
(-5.19211e-07 -0.0223377 0)
(-4.34085e-07 -0.0223377 0)
(-3.47687e-07 -0.0223377 0)
(-2.60061e-07 -0.0223377 0)
(-1.71253e-07 -0.0223376 0)
(-8.13187e-08 -0.0223376 0)
(9.68115e-09 -0.0223376 0)
(1.01676e-07 -0.0223376 0)
(1.94589e-07 -0.0223375 0)
(2.88334e-07 -0.0223375 0)
(3.82815e-07 -0.0223375 0)
(4.77928e-07 -0.0223374 0)
(5.73558e-07 -0.0223374 0)
(6.69583e-07 -0.0223374 0)
(7.65868e-07 -0.0223373 0)
(8.62271e-07 -0.0223373 0)
(9.58637e-07 -0.0223372 0)
(1.05481e-06 -0.0223372 0)
(1.1506e-06 -0.0223372 0)
(1.24585e-06 -0.0223371 0)
(1.34037e-06 -0.0223371 0)
(1.43395e-06 -0.022337 0)
(1.52641e-06 -0.022337 0)
(1.61754e-06 -0.0223369 0)
(1.70712e-06 -0.0223369 0)
(1.79497e-06 -0.0223368 0)
(1.88086e-06 -0.0223368 0)
(1.96459e-06 -0.0223367 0)
(2.04597e-06 -0.0223366 0)
(2.1248e-06 -0.0223366 0)
)
;
    }
    procBoundary5to8
    {
        type            processor;
        value           nonuniform List<vector> 
50
(
(-5.60407e-06 -0.0223364 0)
(-5.53639e-06 -0.0223364 0)
(-5.46969e-06 -0.0223365 0)
(-5.40396e-06 -0.0223365 0)
(-5.33917e-06 -0.0223365 0)
(-5.27532e-06 -0.0223366 0)
(-5.21239e-06 -0.0223366 0)
(-5.15037e-06 -0.0223366 0)
(-5.08925e-06 -0.0223367 0)
(-5.02901e-06 -0.0223367 0)
(-4.96964e-06 -0.0223368 0)
(-4.91112e-06 -0.0223368 0)
(-4.85345e-06 -0.0223368 0)
(-4.7966e-06 -0.0223369 0)
(-4.74055e-06 -0.0223369 0)
(-4.68531e-06 -0.0223369 0)
(-4.63085e-06 -0.022337 0)
(-4.57715e-06 -0.022337 0)
(-4.5242e-06 -0.022337 0)
(-4.47198e-06 -0.0223371 0)
(-4.42049e-06 -0.0223371 0)
(-4.36969e-06 -0.0223371 0)
(-4.31958e-06 -0.0223372 0)
(-4.27013e-06 -0.0223372 0)
(-4.22133e-06 -0.0223372 0)
(-4.17315e-06 -0.0223372 0)
(-4.12559e-06 -0.0223373 0)
(-4.07862e-06 -0.0223373 0)
(-4.03222e-06 -0.0223373 0)
(-3.98636e-06 -0.0223373 0)
(-3.94104e-06 -0.0223374 0)
(-3.89621e-06 -0.0223374 0)
(-3.85187e-06 -0.0223374 0)
(-3.80799e-06 -0.0223374 0)
(-3.76454e-06 -0.0223375 0)
(-3.72149e-06 -0.0223375 0)
(-3.67883e-06 -0.0223375 0)
(-3.63652e-06 -0.0223375 0)
(-3.59454e-06 -0.0223376 0)
(-3.55286e-06 -0.0223376 0)
(-3.51144e-06 -0.0223376 0)
(-3.47025e-06 -0.0223376 0)
(-3.42927e-06 -0.0223376 0)
(-3.38846e-06 -0.0223377 0)
(-3.34779e-06 -0.0223377 0)
(-3.30722e-06 -0.0223377 0)
(-3.26672e-06 -0.0223377 0)
(-3.22624e-06 -0.0223377 0)
(-3.18576e-06 -0.0223377 0)
(-3.14523e-06 -0.0223378 0)
)
;
    }
}


// ************************************************************************* //
