/*--------------------------------*- C++ -*----------------------------------*\
| =========                 |                                                 |
| \\      /  F ield         | OpenFOAM: The Open Source CFD Toolbox           |
|  \\    /   O peration     | Version:  2.4.0                                 |
|   \\  /    A nd           | Web:      www.OpenFOAM.org                      |
|    \\/     M anipulation  |                                                 |
\*---------------------------------------------------------------------------*/
FoamFile
{
    version     2.0;
    format      ascii;
    class       surfaceScalarField;
    location    "4.1";
    object      phi;
}
// * * * * * * * * * * * * * * * * * * * * * * * * * * * * * * * * * * * * * //

dimensions      [0 3 -1 0 0 0 0];

internalField   nonuniform List<scalar> 
220
(
1.55566e-17
-1.55567e-17
1.85396e-17
-2.9829e-18
-8.00661e-18
2.65461e-17
-2.0198e-17
1.21913e-17
-2.01979e-17
4.79795e-17
-6.35354e-17
5.60504e-17
-1.10524e-17
-2.42872e-17
1.06886e-16
-6.21194e-17
5.0025e-17
-8.23162e-17
8.18988e-17
-1.45433e-16
9.46671e-17
-2.38191e-17
-4.12364e-17
2.42791e-16
-1.05917e-16
1.14707e-16
-1.88232e-16
1.17278e-16
-2.6271e-16
1.34565e-16
-4.11044e-17
-5.89996e-17
4.36358e-16
-1.51603e-16
2.07313e-16
-3.39834e-16
1.54165e-16
-4.16873e-16
1.75784e-16
-6.27223e-17
-7.76113e-17
6.89756e-16
-1.99248e-16
3.28951e-16
-5.39081e-16
1.92647e-16
-6.09519e-16
2.18395e-16
-8.84689e-17
-9.71243e-17
1.00528e-15
-2.48976e-16
4.80805e-16
-7.88056e-16
2.32772e-16
-8.42289e-16
2.62443e-16
-1.18139e-16
-1.17572e-16
1.3853e-15
-3.00865e-16
6.641e-16
-1.08892e-15
2.74642e-16
-1.11693e-15
3.08005e-16
-1.515e-16
-1.39018e-16
1.83232e-15
-3.55056e-16
8.8014e-16
-1.44398e-15
3.18304e-16
-1.43523e-15
3.55129e-16
-1.88322e-16
-1.61498e-16
2.34895e-15
-4.1163e-16
1.13027e-15
-1.8556e-15
3.63878e-16
-1.79911e-15
4.03904e-16
-2.28347e-16
-1.85084e-16
2.93794e-15
-4.70749e-16
1.41594e-15
-2.32635e-15
4.11412e-16
-2.21052e-15
4.54381e-16
-2.71315e-16
-2.09813e-16
3.60214e-15
-5.32502e-16
1.73863e-15
-2.85885e-15
4.6104e-16
-2.67156e-15
5.06662e-16
-3.16935e-16
-2.35769e-16
4.34457e-15
-5.97075e-16
2.09994e-15
-3.45593e-15
5.12817e-16
-3.18437e-15
5.60804e-16
-3.64921e-16
-2.62991e-16
5.16837e-15
-6.64566e-16
2.50152e-15
-4.12049e-15
5.66891e-16
-3.75126e-15
6.16923e-16
-4.14952e-16
-2.91574e-16
6.07687e-15
-7.35182e-16
2.94512e-15
-4.85567e-15
6.23327e-16
-4.37459e-15
6.75088e-16
-4.66711e-16
-3.21567e-16
7.07352e-15
-8.09042e-16
3.4326e-15
-5.66471e-15
6.82292e-16
-5.05688e-15
7.35424e-16
-5.19842e-16
-3.53069e-16
8.16202e-15
-8.86385e-16
3.96592e-15
-6.5511e-15
7.43837e-16
-5.80072e-15
7.98005e-16
-5.74008e-16
-3.86134e-16
9.34616e-15
-9.67322e-16
4.54711e-15
-7.51842e-15
8.08102e-16
-6.60882e-15
8.62886e-16
-6.28791e-16
-4.20796e-16
1.06298e-14
-1.05207e-15
5.17838e-15
-8.57049e-15
8.7522e-16
-7.48404e-15
9.29925e-16
-6.83496e-16
-4.5708e-16
1.20168e-14
-1.14027e-15
5.86157e-15
-9.71075e-15
9.45434e-16
-8.42947e-15
1.00031e-15
-7.38373e-16
-4.96026e-16
1.35132e-14
-1.23279e-15
6.59833e-15
-1.09435e-14
1.02088e-15
-9.45035e-15
1.07232e-15
-7.89804e-16
-5.34689e-16
1.51202e-14
-1.33316e-15
7.3968e-15
-1.22767e-14
1.10105e-15
-1.58271e-14
1.16156e-15
-1.98301e-15
-5.84228e-16
1.6866e-14
-1.44867e-15
8.26124e-15
-2.05983e-14
1.1945e-15
-2.07684e-10
1.29304e-15
-2.07692e-10
-6.53514e-16
-2.07706e-10
-1.60922e-15
-2.07699e-10
-2.07682e-10
1.22401e-15
-2.07686e-10
1.27542e-15
-2.07692e-10
-6.48794e-16
-2.07704e-10
-1.6069e-15
-2.07698e-10
-2.07684e-10
1.21809e-15
1.27736e-15
-6.47972e-16
-1.60435e-15
)
;

boundaryField
{
    BotWall
    {
        type            calculated;
        value           nonuniform List<scalar> 5(-2.21828e-23 -4.23821e-23 9.27542e-23 8.79225e-23 -4.24844e-23);
    }
    FreeStream
    {
        type            calculated;
        value           nonuniform 0();
    }
    FrontNBack
    {
        type            empty;
        value           nonuniform 0();
    }
    LeftSide
    {
        type            symmetryPlane;
        value           uniform 0;
    }
    RightSide
    {
        type            symmetryPlane;
        value           uniform 0;
    }
    procBoundary0to1
    {
        type            processor;
        value           nonuniform List<scalar> 5(-2.07687e-10 -2.07692e-10 -2.07702e-10 -2.07697e-10 -2.07686e-10);
    }
}


// ************************************************************************* //
