/*--------------------------------*- C++ -*----------------------------------*\
| =========                 |                                                 |
| \\      /  F ield         | OpenFOAM: The Open Source CFD Toolbox           |
|  \\    /   O peration     | Version:  2.4.0                                 |
|   \\  /    A nd           | Web:      www.OpenFOAM.org                      |
|    \\/     M anipulation  |                                                 |
\*---------------------------------------------------------------------------*/
FoamFile
{
    version     2.0;
    format      ascii;
    class       surfaceScalarField;
    location    "2.3";
    object      phi;
}
// * * * * * * * * * * * * * * * * * * * * * * * * * * * * * * * * * * * * * //

dimensions      [0 3 -1 0 0 0 0];

internalField   nonuniform List<scalar> 
220
(
1.62284e-18
-1.62308e-18
1.38313e-18
2.39576e-19
-8.77943e-19
2.26096e-18
-2.00362e-18
1.12556e-18
-2.00356e-18
4.9646e-18
-6.58702e-18
4.21581e-18
9.89482e-19
-2.69369e-18
9.17203e-18
-6.12147e-18
4.55457e-18
-8.12413e-18
8.45284e-18
-1.50391e-17
7.1551e-18
2.28847e-18
-4.59672e-18
2.09255e-17
-1.0412e-17
1.03712e-17
-1.85352e-17
1.20687e-17
-2.71069e-17
1.01955e-17
4.16302e-18
-6.57904e-18
3.77019e-17
-1.48617e-17
1.86552e-17
-3.3396e-17
1.58492e-17
-4.29552e-17
1.33536e-17
6.66007e-18
-8.66004e-18
5.97173e-17
-1.95037e-17
2.95003e-17
-5.28988e-17
1.97629e-17
-6.27173e-17
1.66192e-17
9.80522e-18
-1.08249e-17
8.71632e-17
-2.43129e-17
4.29896e-17
-7.72108e-17
2.38618e-17
-8.65781e-17
2.00188e-17
1.36496e-17
-1.30996e-17
1.20283e-16
-2.93437e-17
5.9235e-17
-1.06554e-16
2.81032e-17
-1.1468e-16
2.35334e-17
1.82207e-17
-1.54651e-17
1.59284e-16
-3.4555e-17
7.83261e-17
-1.41108e-16
3.25497e-17
-1.47229e-16
2.71956e-17
2.3576e-17
-1.79529e-17
2.04434e-16
-4.00118e-17
1.00386e-16
-1.81119e-16
3.71517e-17
-1.8438e-16
3.09829e-17
2.9746e-17
-2.054e-17
2.55958e-16
-4.56659e-17
1.25513e-16
-2.26784e-16
4.19782e-17
-2.26357e-16
3.49308e-17
3.67945e-17
-2.32614e-17
3.14152e-16
-5.15901e-17
1.53843e-16
-2.78373e-16
4.69716e-17
-2.73328e-16
3.90149e-17
4.47522e-17
-2.60929e-17
3.79261e-16
-5.77295e-17
1.8548e-16
-3.36102e-16
5.21976e-17
-3.25525e-16
4.32717e-17
5.36789e-17
-2.90713e-17
4.51605e-16
-6.41498e-17
2.2056e-16
-4.00252e-16
5.76171e-17
-3.83142e-16
4.76736e-17
6.3623e-17
-3.21729e-17
5.31452e-16
-7.08065e-17
2.59194e-16
-4.71058e-16
6.3367e-17
-4.46508e-16
5.23253e-17
7.46651e-17
-3.54851e-17
6.19263e-16
-7.78591e-17
3.01568e-16
-5.48917e-16
6.95329e-17
-5.16041e-16
5.70623e-17
8.71359e-17
-3.88522e-17
7.15178e-16
-8.54458e-17
3.48162e-16
-6.34363e-16
7.60503e-17
-2.53641e-15
6.27158e-17
1.0047e-16
-4.27523e-17
8.20646e-16
-9.38941e-17
3.99304e-16
-3.11991e-15
8.45763e-17
-2.70861e-10
7.10453e-17
-2.70863e-10
-4.80393e-17
-2.70865e-10
-1.06332e-16
-2.70864e-10
-2.70861e-10
8.63367e-17
-2.70861e-10
7.08925e-17
-2.70863e-10
-4.8719e-17
-2.70865e-10
-1.06312e-16
-2.70864e-10
-2.70861e-10
8.74106e-17
-2.70861e-10
7.01042e-17
-2.70863e-10
-4.69055e-17
-2.70865e-10
-1.08809e-16
-2.70864e-10
-2.70861e-10
7.53543e-17
-2.70861e-10
6.52262e-17
-2.70863e-10
-4.29687e-17
-2.70865e-10
-9.5576e-17
-2.70864e-10
-2.70861e-10
6.82431e-17
-2.70861e-10
6.03705e-17
-2.70863e-10
-3.86011e-17
-2.70864e-10
-8.7987e-17
-2.70864e-10
-2.70861e-10
6.25506e-17
-2.70861e-10
5.60704e-17
-2.70863e-10
-3.4585e-17
-2.70864e-10
-8.21152e-17
-2.70864e-10
-2.70861e-10
5.64476e-17
-2.70862e-10
5.20598e-17
-2.70863e-10
-3.0827e-17
-2.70864e-10
-7.58711e-17
-2.70863e-10
-2.70861e-10
4.99951e-17
4.80785e-17
-2.71009e-17
-6.92716e-17
)
;

boundaryField
{
    BotWall
    {
        type            calculated;
        value           nonuniform List<scalar> 5(-1.38822e-23 -2.43387e-23 7.66631e-23 6.7148e-23 -2.416e-23);
    }
    FreeStream
    {
        type            calculated;
        value           nonuniform 0();
    }
    FrontNBack
    {
        type            empty;
        value           nonuniform 0();
    }
    LeftSide
    {
        type            symmetryPlane;
        value           uniform 0;
    }
    RightSide
    {
        type            symmetryPlane;
        value           uniform 0;
    }
    procBoundary0to1
    {
        type            processor;
        value           nonuniform List<scalar> 5(-2.70862e-10 -2.70863e-10 -2.70864e-10 -2.70863e-10 -2.70861e-10);
    }
}


// ************************************************************************* //
