/*--------------------------------*- C++ -*----------------------------------*\
| =========                 |                                                 |
| \\      /  F ield         | OpenFOAM: The Open Source CFD Toolbox           |
|  \\    /   O peration     | Version:  2.4.0                                 |
|   \\  /    A nd           | Web:      www.OpenFOAM.org                      |
|    \\/     M anipulation  |                                                 |
\*---------------------------------------------------------------------------*/
FoamFile
{
    version     2.0;
    format      ascii;
    class       volScalarField;
    location    "2.3";
    object      T;
}
// * * * * * * * * * * * * * * * * * * * * * * * * * * * * * * * * * * * * * //

dimensions      [0 0 0 1 0 0 0];

internalField   nonuniform List<scalar> 
125
(
293.125
293.125
293.125
293.125
293.125
293.378
293.378
293.378
293.378
293.378
293.632
293.632
293.632
293.632
293.632
293.89
293.89
293.89
293.89
293.89
294.151
294.151
294.151
294.151
294.151
294.415
294.415
294.415
294.415
294.415
294.682
294.682
294.682
294.682
294.682
294.951
294.951
294.951
294.951
294.951
295.224
295.224
295.224
295.224
295.224
295.501
295.501
295.501
295.501
295.501
295.78
295.78
295.78
295.78
295.78
296.063
296.063
296.063
296.063
296.063
296.35
296.35
296.35
296.35
296.35
296.64
296.64
296.64
296.64
296.64
296.933
296.933
296.933
296.933
296.933
297.231
297.231
297.231
297.231
297.231
297.532
297.532
297.532
297.532
297.532
297.978
297.978
297.978
297.978
297.978
297.978
297.978
297.978
297.978
297.978
297.977
297.977
297.977
297.977
297.977
297.977
297.977
297.977
297.977
297.977
297.977
297.977
297.977
297.977
297.977
297.977
297.977
297.977
297.977
297.977
297.976
297.976
297.977
297.977
297.976
297.976
297.976
297.976
297.976
297.976
)
;

boundaryField
{
    BotWall
    {
        type            fixedValue;
        value           uniform 293;
    }
    FreeStream
    {
        type            fixedValue;
        value           nonuniform 0();
    }
    FrontNBack
    {
        type            empty;
    }
    LeftSide
    {
        type            symmetryPlane;
    }
    RightSide
    {
        type            symmetryPlane;
    }
    procBoundary0to1
    {
        type            processor;
        value           nonuniform List<scalar> 5(297.976 297.976 297.976 297.976 297.976);
    }
}


// ************************************************************************* //
