/*--------------------------------*- C++ -*----------------------------------*\
| =========                 |                                                 |
| \\      /  F ield         | OpenFOAM: The Open Source CFD Toolbox           |
|  \\    /   O peration     | Version:  2.4.0                                 |
|   \\  /    A nd           | Web:      www.OpenFOAM.org                      |
|    \\/     M anipulation  |                                                 |
\*---------------------------------------------------------------------------*/
FoamFile
{
    version     2.0;
    format      ascii;
    class       volScalarField;
    location    "3.2";
    object      H;
}
// * * * * * * * * * * * * * * * * * * * * * * * * * * * * * * * * * * * * * //

dimensions      [0 2 -2 0 0 0 0];

internalField   nonuniform List<scalar> 
125
(
-54.0459
-54.0922
-54.1146
-54.1013
-54.0431
-50.9303
-50.9829
-51.0137
-50.9949
-50.9264
-47.8856
-47.9436
-47.9819
-47.9582
-47.8807
-44.9211
-44.9836
-45.0285
-45.0005
-44.9153
-42.0453
-42.1116
-42.1621
-42.1304
-42.0387
-39.2659
-39.3352
-39.3905
-39.3556
-39.2587
-36.5895
-36.6611
-36.7202
-36.6827
-36.5818
-34.0217
-34.0948
-34.1569
-34.1173
-34.0136
-31.5671
-31.6409
-31.7052
-31.6642
-31.5587
-29.2291
-29.3032
-29.3689
-29.3268
-29.2206
-27.0104
-27.084
-27.1504
-27.1078
-27.0019
-24.9124
-24.9849
-25.0514
-25.0087
-24.9039
-22.9356
-23.0066
-23.0724
-23.03
-22.9272
-21.0797
-21.1486
-21.2134
-21.1716
-21.0714
-19.3434
-19.4099
-19.473
-19.4322
-19.3353
-17.7245
-17.7883
-17.8494
-17.8099
-17.7168
-16.2203
-16.2811
-16.3398
-16.3018
-16.2129
-14.8273
-14.8848
-14.9408
-14.9045
-14.8203
-13.5414
-13.5955
-13.6485
-13.6141
-13.5347
-12.3579
-12.4084
-12.4584
-12.4259
-12.3516
-11.2717
-11.3187
-11.3654
-11.335
-11.2659
-10.2774
-10.3209
-10.3643
-10.336
-10.272
-9.36929
-9.40917
-9.44924
-9.42313
-9.36432
-8.54129
-8.57768
-8.61444
-8.59047
-8.53675
-7.78729
-7.82029
-7.85378
-7.83192
-7.78316
)
;

boundaryField
{
    BotWall
    {
        type            zeroGradient;
    }
    FreeStream
    {
        type            zeroGradient;
    }
    FrontNBack
    {
        type            empty;
    }
    LeftSide
    {
        type            symmetryPlane;
    }
    RightSide
    {
        type            symmetryPlane;
    }
    procBoundary2to1
    {
        type            processor;
        value           nonuniform List<scalar> 5(-57.2295 -57.2686 -57.2817 -57.2745 -57.2281);
    }
    procBoundary2to3
    {
        type            processor;
        value           nonuniform List<scalar> 5(-7.10579 -7.13553 -7.16587 -7.14606 -7.10206);
    }
}


// ************************************************************************* //
