/*--------------------------------*- C++ -*----------------------------------*\
| =========                 |                                                 |
| \\      /  F ield         | OpenFOAM: The Open Source CFD Toolbox           |
|  \\    /   O peration     | Version:  2.4.0                                 |
|   \\  /    A nd           | Web:      www.OpenFOAM.org                      |
|    \\/     M anipulation  |                                                 |
\*---------------------------------------------------------------------------*/
FoamFile
{
    version     2.0;
    format      ascii;
    class       volVectorField;
    location    "3.2";
    object      U;
}
// * * * * * * * * * * * * * * * * * * * * * * * * * * * * * * * * * * * * * //

dimensions      [0 1 -1 0 0 0 0];

internalField   nonuniform List<vector> 
125
(
(3.73411e-08 -0.00104008 0)
(1.15795e-07 -0.00104045 0)
(4.31284e-08 -0.00104084 0)
(-1.28203e-07 -0.00104059 0)
(-1.08678e-07 -0.00104002 0)
(4.50936e-08 -0.00104008 0)
(1.31662e-07 -0.00104045 0)
(4.56122e-08 -0.00104083 0)
(-1.45061e-07 -0.00104059 0)
(-1.19545e-07 -0.00104002 0)
(5.25705e-08 -0.00104008 0)
(1.46872e-07 -0.00104045 0)
(4.79212e-08 -0.00104083 0)
(-1.61194e-07 -0.00104058 0)
(-1.29853e-07 -0.00104002 0)
(5.97043e-08 -0.00104008 0)
(1.61284e-07 -0.00104045 0)
(5.00318e-08 -0.00104083 0)
(-1.76454e-07 -0.00104058 0)
(-1.39509e-07 -0.00104003 0)
(6.64345e-08 -0.00104009 0)
(1.7477e-07 -0.00104045 0)
(5.19233e-08 -0.00104082 0)
(-1.90705e-07 -0.00104058 0)
(-1.4843e-07 -0.00104003 0)
(7.27072e-08 -0.00104009 0)
(1.87219e-07 -0.00104044 0)
(5.35787e-08 -0.00104082 0)
(-2.03832e-07 -0.00104058 0)
(-1.56546e-07 -0.00104003 0)
(7.84763e-08 -0.00104009 0)
(1.98536e-07 -0.00104044 0)
(5.49837e-08 -0.00104081 0)
(-2.15733e-07 -0.00104057 0)
(-1.63798e-07 -0.00104004 0)
(8.37034e-08 -0.0010401 0)
(2.08642e-07 -0.00104044 0)
(5.61281e-08 -0.00104081 0)
(-2.26328e-07 -0.00104057 0)
(-1.7014e-07 -0.00104004 0)
(8.83582e-08 -0.0010401 0)
(2.17477e-07 -0.00104044 0)
(5.70047e-08 -0.0010408 0)
(-2.35553e-07 -0.00104057 0)
(-1.75536e-07 -0.00104005 0)
(9.24182e-08 -0.00104011 0)
(2.24997e-07 -0.00104044 0)
(5.76099e-08 -0.00104079 0)
(-2.43364e-07 -0.00104056 0)
(-1.79967e-07 -0.00104006 0)
(9.58692e-08 -0.00104011 0)
(2.31177e-07 -0.00104044 0)
(5.79436e-08 -0.00104079 0)
(-2.49736e-07 -0.00104056 0)
(-1.83422e-07 -0.00104006 0)
(9.87047e-08 -0.00104011 0)
(2.36007e-07 -0.00104044 0)
(5.80088e-08 -0.00104078 0)
(-2.5466e-07 -0.00104056 0)
(-1.85905e-07 -0.00104007 0)
(1.00925e-07 -0.00104012 0)
(2.39494e-07 -0.00104044 0)
(5.78115e-08 -0.00104077 0)
(-2.58146e-07 -0.00104056 0)
(-1.87429e-07 -0.00104007 0)
(1.0254e-07 -0.00104012 0)
(2.41662e-07 -0.00104044 0)
(5.73607e-08 -0.00104077 0)
(-2.6022e-07 -0.00104055 0)
(-1.88017e-07 -0.00104008 0)
(1.03562e-07 -0.00104013 0)
(2.42545e-07 -0.00104044 0)
(5.66679e-08 -0.00104076 0)
(-2.60923e-07 -0.00104055 0)
(-1.87704e-07 -0.00104009 0)
(1.04012e-07 -0.00104013 0)
(2.42194e-07 -0.00104044 0)
(5.57467e-08 -0.00104075 0)
(-2.60308e-07 -0.00104054 0)
(-1.86533e-07 -0.00104009 0)
(1.03917e-07 -0.00104014 0)
(2.4067e-07 -0.00104044 0)
(5.4613e-08 -0.00104075 0)
(-2.58443e-07 -0.00104054 0)
(-1.84551e-07 -0.0010401 0)
(1.03307e-07 -0.00104014 0)
(2.38042e-07 -0.00104044 0)
(5.32839e-08 -0.00104074 0)
(-2.55403e-07 -0.00104054 0)
(-1.81816e-07 -0.0010401 0)
(1.02215e-07 -0.00104015 0)
(2.34389e-07 -0.00104044 0)
(5.17782e-08 -0.00104073 0)
(-2.51276e-07 -0.00104053 0)
(-1.78389e-07 -0.00104011 0)
(1.0068e-07 -0.00104015 0)
(2.29797e-07 -0.00104044 0)
(5.01153e-08 -0.00104073 0)
(-2.46152e-07 -0.00104053 0)
(-1.74334e-07 -0.00104012 0)
(9.87422e-08 -0.00104016 0)
(2.24356e-07 -0.00104044 0)
(4.83155e-08 -0.00104072 0)
(-2.40131e-07 -0.00104053 0)
(-1.6972e-07 -0.00104012 0)
(9.64421e-08 -0.00104016 0)
(2.18159e-07 -0.00104044 0)
(4.63992e-08 -0.00104071 0)
(-2.33313e-07 -0.00104052 0)
(-1.64616e-07 -0.00104013 0)
(9.38231e-08 -0.00104017 0)
(2.11304e-07 -0.00104043 0)
(4.43871e-08 -0.0010407 0)
(-2.25801e-07 -0.00104052 0)
(-1.59093e-07 -0.00104013 0)
(9.09286e-08 -0.00104017 0)
(2.03887e-07 -0.00104043 0)
(4.22995e-08 -0.0010407 0)
(-2.17703e-07 -0.00104052 0)
(-1.53222e-07 -0.00104014 0)
(8.78023e-08 -0.00104018 0)
(1.96006e-07 -0.00104043 0)
(4.01561e-08 -0.00104069 0)
(-2.09119e-07 -0.00104052 0)
(-1.4707e-07 -0.00104015 0)
)
;

boundaryField
{
    BotWall
    {
        type            fixedValue;
        value           nonuniform 0();
    }
    FreeStream
    {
        type            zeroGradient;
    }
    FrontNBack
    {
        type            empty;
    }
    LeftSide
    {
        type            symmetryPlane;
    }
    RightSide
    {
        type            symmetryPlane;
    }
    procBoundary2to1
    {
        type            processor;
        value           nonuniform List<vector> 5((2.93859e-08 -0.00104008 0) (9.94244e-08 -0.00104045 0) (4.0496e-08 -0.00104084 0) (-1.10784e-07 -0.00104059 0) (-9.73545e-08 -0.00104001 0));
    }
    procBoundary2to3
    {
        type            processor;
        value           nonuniform List<vector> 5((8.44871e-08 -0.00104018 0) (1.87755e-07 -0.00104043 0) (3.79765e-08 -0.00104069 0) (-2.00155e-07 -0.00104051 0) (-1.40709e-07 -0.00104015 0));
    }
}


// ************************************************************************* //
