/*--------------------------------*- C++ -*----------------------------------*\
| =========                 |                                                 |
| \\      /  F ield         | OpenFOAM: The Open Source CFD Toolbox           |
|  \\    /   O peration     | Version:  2.4.0                                 |
|   \\  /    A nd           | Web:      www.OpenFOAM.org                      |
|    \\/     M anipulation  |                                                 |
\*---------------------------------------------------------------------------*/
FoamFile
{
    version     2.0;
    format      ascii;
    class       volScalarField;
    location    "3.6";
    object      H;
}
// * * * * * * * * * * * * * * * * * * * * * * * * * * * * * * * * * * * * * //

dimensions      [0 2 -2 0 0 0 0];

internalField   nonuniform List<scalar> 
500
(
-11982.5
-11982.5
-11982.5
-11982.5
-11982.5
-11484.7
-11484.7
-11484.8
-11484.7
-11484.7
-10981.5
-10981.6
-10981.7
-10981.6
-10981.5
-10473
-10473.2
-10473.2
-10473.2
-10473
-9959.21
-9959.43
-9959.51
-9959.45
-9959.2
-9440.24
-9440.5
-9440.59
-9440.52
-9440.22
-8916.1
-8916.4
-8916.5
-8916.42
-8916.09
-8386.83
-8387.16
-8387.27
-8387.18
-8386.82
-7852.45
-7852.8
-7852.9
-7852.82
-7852.44
-7312.95
-7313.31
-7313.41
-7313.32
-7312.93
-6768.3
-6768.65
-6768.74
-6768.67
-6768.28
-6218.43
-6218.76
-6218.84
-6218.78
-6218.41
-5663.24
-5663.55
-5663.6
-5663.57
-5663.23
-5102.61
-5102.88
-5102.9
-5102.89
-5102.59
-4536.35
-4536.57
-4536.55
-4536.57
-4536.33
-3964.23
-3964.39
-3964.34
-3964.39
-3964.22
-3386.01
-3386.09
-3385.99
-3386.09
-3386
-2801.36
-2801.36
-2801.21
-2801.35
-2801.35
-2209.94
-2209.85
-2209.64
-2209.83
-2209.93
-1611.36
-1611.16
-1610.89
-1611.13
-1611.35
-1005.18
-1004.87
-1004.54
-1004.84
-1005.18
-65.3376
-65.1271
-64.961
-65.109
-65.3384
-50.0942
-49.9309
-49.8016
-49.9168
-50.0946
-50.5281
-50.3677
-50.2399
-50.3537
-50.5282
-50.9245
-50.7672
-50.6409
-50.7532
-50.9243
-51.2823
-51.1283
-51.0036
-51.1144
-51.2819
-51.6005
-51.4497
-51.3269
-51.436
-51.5997
-51.8779
-51.7306
-51.6096
-51.717
-51.8769
-52.1137
-51.9699
-51.8509
-51.9564
-52.1124
-52.3068
-52.1667
-52.0497
-52.1534
-52.3053
-52.4564
-52.3201
-52.2052
-52.3069
-52.4547
-52.5617
-52.4293
-52.3166
-52.4163
-52.5597
-52.6219
-52.4935
-52.3831
-52.4806
-52.6197
-52.6364
-52.5121
-52.4041
-52.4994
-52.634
-52.6046
-52.4844
-52.379
-52.472
-52.6019
-52.526
-52.4101
-52.3072
-52.3978
-52.5231
-52.4002
-52.2886
-52.1884
-52.2766
-52.3971
-52.227
-52.1198
-52.0223
-52.108
-52.2237
-52.006
-51.9033
-51.8086
-51.8917
-52.0025
-51.7372
-51.639
-51.5472
-51.6277
-51.7335
-51.4207
-51.3271
-51.2382
-51.3161
-51.4168
-51.0565
-50.9676
-50.8817
-50.9568
-51.0525
-50.645
-50.5608
-50.478
-50.5503
-50.6409
-50.1865
-50.107
-50.0273
-50.0968
-50.1823
-49.6816
-49.6067
-49.5303
-49.5968
-49.6772
-49.1308
-49.0607
-48.9874
-49.0511
-49.1263
-48.535
-48.4696
-48.3995
-48.4603
-48.5304
-47.895
-47.8343
-47.7675
-47.8253
-47.8903
-47.2119
-47.1559
-47.0924
-47.1473
-47.2071
-46.4868
-46.4355
-46.3753
-46.4272
-46.482
-45.7211
-45.6745
-45.6176
-45.6665
-45.7162
-44.9162
-44.8741
-44.8205
-44.8665
-44.9113
-44.0737
-44.0361
-43.9858
-44.0288
-44.0687
-43.1951
-43.162
-43.1149
-43.155
-43.1902
-42.2825
-42.2537
-42.2098
-42.247
-42.2775
-41.3376
-41.313
-41.2724
-41.3067
-41.3326
-40.3625
-40.3421
-40.3046
-40.3361
-40.3575
-39.3593
-39.3429
-39.3086
-39.3373
-39.3544
-38.3304
-38.3179
-38.2866
-38.3126
-38.3255
-37.278
-37.2692
-37.2409
-37.2642
-37.2731
-36.2044
-36.1992
-36.1739
-36.1946
-36.1996
-35.1123
-35.1105
-35.088
-35.1062
-35.1076
-34.0041
-34.0056
-33.9858
-34.0016
-33.9994
-32.8824
-32.887
-32.8698
-32.8833
-32.8778
-31.7498
-31.7573
-31.7427
-31.7539
-31.7453
-30.6089
-30.6192
-30.607
-30.6161
-30.6046
-29.4625
-29.4753
-29.4654
-29.4724
-29.4582
-28.313
-28.3282
-28.3205
-28.3256
-28.3089
-27.1632
-27.1805
-27.1749
-27.1782
-27.1592
-26.0156
-26.0349
-26.0312
-26.0328
-26.0118
-24.8728
-24.8938
-24.8919
-24.8919
-24.8691
-23.7371
-23.7596
-23.7595
-23.758
-23.7335
-22.6111
-22.6349
-22.6363
-22.6335
-22.6076
-21.4969
-21.5218
-21.5246
-21.5206
-21.4936
-20.3967
-20.4225
-20.4267
-20.4216
-20.3936
-19.3127
-19.3392
-19.3444
-19.3384
-19.3097
-18.2466
-18.2736
-18.2799
-18.273
-18.2437
-17.2003
-17.2277
-17.2348
-17.2272
-17.1976
-16.1754
-16.2029
-16.2107
-16.2025
-16.1728
-15.1733
-15.2007
-15.2091
-15.2004
-15.1709
-14.1952
-14.2223
-14.2312
-14.2222
-14.1929
-13.2422
-13.2689
-13.2781
-13.2689
-13.24
-12.3151
-12.3412
-12.3507
-12.3413
-12.3131
-11.4145
-11.44
-11.4495
-11.4401
-11.4127
-10.541
-10.5655
-10.5751
-10.5657
-10.5392
-9.69457
-9.71813
-9.72758
-9.71836
-9.69298
-8.87532
-8.89775
-8.90699
-8.89802
-8.87387
-8.08297
-8.10416
-8.11309
-8.10445
-8.08164
-7.31704
-7.3369
-7.34543
-7.3372
-7.31584
-6.57685
-6.59526
-6.60331
-6.59557
-6.57577
-5.86146
-5.87835
-5.88585
-5.87866
-5.86049
-5.16974
-5.18503
-5.19192
-5.18533
-5.16889
-4.50033
-4.51396
-4.52017
-4.51424
-4.49959
-3.85169
-3.8636
-3.86908
-3.86385
-3.85105
-3.22204
-3.23218
-3.2369
-3.23241
-3.22151
-2.60944
-2.61778
-2.62169
-2.61798
-2.60901
-2.01177
-2.01828
-2.02134
-2.01843
-2.01144
-1.42672
-1.43138
-1.43358
-1.43149
-1.42649
-0.851845
-0.854645
-0.855972
-0.854712
-0.851705
-0.284554
-0.285492
-0.285937
-0.285515
-0.284507
)
;

boundaryField
{
    BotWall
    {
        type            zeroGradient;
    }
    FreeStream
    {
        type            zeroGradient;
    }
    FrontNBack
    {
        type            empty;
    }
    LeftSide
    {
        type            symmetryPlane;
    }
    RightSide
    {
        type            symmetryPlane;
    }
}


// ************************************************************************* //
