/*--------------------------------*- C++ -*----------------------------------*\
| =========                 |                                                 |
| \\      /  F ield         | OpenFOAM: The Open Source CFD Toolbox           |
|  \\    /   O peration     | Version:  2.4.0                                 |
|   \\  /    A nd           | Web:      www.OpenFOAM.org                      |
|    \\/     M anipulation  |                                                 |
\*---------------------------------------------------------------------------*/
FoamFile
{
    version     2.0;
    format      ascii;
    class       volScalarField;
    location    "3.6";
    object      p;
}
// * * * * * * * * * * * * * * * * * * * * * * * * * * * * * * * * * * * * * //

dimensions      [1 -1 -2 0 0 0 0];

internalField   nonuniform List<scalar> 
500
(
0.675678
0.675731
0.676204
0.675812
0.675673
0.645898
0.645953
0.646426
0.646034
0.645892
0.615744
0.615802
0.616274
0.615881
0.615738
0.585285
0.585346
0.58582
0.585425
0.585279
0.55445
0.554513
0.554988
0.554593
0.554444
0.523307
0.523374
0.523851
0.523454
0.523301
0.491779
0.491849
0.492327
0.491928
0.491773
0.459938
0.460011
0.460492
0.460091
0.459932
0.427697
0.427773
0.428255
0.427853
0.427691
0.395141
0.395221
0.395705
0.395301
0.395135
0.362203
0.362285
0.362772
0.362365
0.362197
0.329016
0.329102
0.329591
0.329182
0.329009
0.295376
0.295465
0.295957
0.295546
0.29537
0.260736
0.260828
0.261321
0.260909
0.26073
0.2239
0.223987
0.224477
0.224067
0.223893
0.187482
0.187566
0.188052
0.187646
0.187476
0.167936
0.168062
0.168583
0.168146
0.167929
0.1922
0.192512
0.193181
0.192649
0.192192
0.196914
0.197509
0.198276
0.197654
0.196904
-0.24587
-0.246131
-0.24619
-0.245959
-0.245875
-1.75593
-1.76028
-1.76415
-1.76071
-1.75591
-3.10044
-3.11113
-3.11917
-3.11201
-3.10037
-0.0172314
-0.0172311
-0.0172307
-0.0172311
-0.0172314
-0.0115166
-0.0115172
-0.0115176
-0.0115172
-0.0115166
-0.0132501
-0.01325
-0.01325
-0.01325
-0.0132501
-0.014404
-0.0144039
-0.0144038
-0.0144039
-0.014404
-0.0151125
-0.0151124
-0.0151124
-0.0151124
-0.0151125
-0.015732
-0.015732
-0.015732
-0.015732
-0.015732
-0.0163789
-0.0163789
-0.0163789
-0.0163789
-0.0163789
-0.0170505
-0.0170504
-0.0170504
-0.0170504
-0.0170505
-0.0177331
-0.0177331
-0.017733
-0.0177331
-0.0177331
-0.0184225
-0.0184225
-0.0184225
-0.0184225
-0.0184225
-0.0191189
-0.0191189
-0.0191189
-0.0191189
-0.0191189
-0.019823
-0.019823
-0.019823
-0.019823
-0.019823
-0.0205349
-0.0205349
-0.0205349
-0.0205349
-0.0205349
-0.0212549
-0.0212548
-0.0212548
-0.0212548
-0.0212549
-0.0219828
-0.0219828
-0.0219828
-0.0219828
-0.0219828
-0.0227189
-0.0227189
-0.0227189
-0.0227189
-0.0227189
-0.0234632
-0.0234632
-0.0234631
-0.0234632
-0.0234632
-0.0242158
-0.0242158
-0.0242157
-0.0242158
-0.0242158
-0.0249768
-0.0249768
-0.0249767
-0.0249768
-0.0249768
-0.0257463
-0.0257462
-0.0257462
-0.0257462
-0.0257463
-0.0265243
-0.0265243
-0.0265243
-0.0265243
-0.0265243
-0.0273111
-0.0273111
-0.0273111
-0.0273111
-0.0273111
-0.0281066
-0.0281066
-0.0281066
-0.0281066
-0.0281066
-0.028911
-0.028911
-0.028911
-0.028911
-0.028911
-0.0297244
-0.0297244
-0.0297244
-0.0297244
-0.0297244
-0.0305469
-0.0305469
-0.0305469
-0.0305469
-0.0305469
-0.0313785
-0.0313785
-0.0313785
-0.0313785
-0.0313785
-0.0322195
-0.0322194
-0.0322194
-0.0322194
-0.0322195
-0.0330698
-0.0330697
-0.0330697
-0.0330697
-0.0330698
-0.0339296
-0.0339295
-0.0339295
-0.0339295
-0.0339296
-0.0347989
-0.0347989
-0.0347989
-0.0347989
-0.0347989
-0.035678
-0.035678
-0.035678
-0.035678
-0.035678
-0.0365669
-0.0365669
-0.0365669
-0.0365669
-0.0365669
-0.0374658
-0.0374657
-0.0374657
-0.0374657
-0.0374658
-0.0383746
-0.0383746
-0.0383746
-0.0383746
-0.0383746
-0.0392936
-0.0392936
-0.0392936
-0.0392936
-0.0392936
-0.0402228
-0.0402228
-0.0402228
-0.0402228
-0.0402228
-0.0411625
-0.0411624
-0.0411624
-0.0411624
-0.0411625
-0.0421126
-0.0421125
-0.0421125
-0.0421125
-0.0421126
-0.0430733
-0.0430732
-0.0430732
-0.0430732
-0.0430733
-0.0440447
-0.0440447
-0.0440447
-0.0440447
-0.0440447
-0.045027
-0.0450269
-0.0450269
-0.0450269
-0.045027
-0.0460202
-0.0460202
-0.0460202
-0.0460202
-0.0460202
-0.0470245
-0.0470245
-0.0470245
-0.0470245
-0.0470245
-0.04804
-0.04804
-0.04804
-0.04804
-0.04804
-0.0490668
-0.0490668
-0.0490668
-0.0490668
-0.0490668
-0.0501051
-0.0501051
-0.0501051
-0.0501051
-0.0501051
-0.051155
-0.051155
-0.051155
-0.051155
-0.051155
-0.0522166
-0.0522166
-0.0522166
-0.0522166
-0.0522166
-0.0532901
-0.0532901
-0.0532901
-0.0532901
-0.0532901
-0.0543755
-0.0543755
-0.0543755
-0.0543755
-0.0543755
-0.0554731
-0.0554731
-0.0554731
-0.0554731
-0.0554731
-0.0565829
-0.0565829
-0.0565829
-0.0565829
-0.0565829
-0.057705
-0.057705
-0.057705
-0.057705
-0.057705
-0.0588397
-0.0588397
-0.0588397
-0.0588397
-0.0588397
-0.0599871
-0.0599871
-0.0599871
-0.0599871
-0.0599871
-0.0611473
-0.0611473
-0.0611472
-0.0611473
-0.0611473
-0.0623204
-0.0623204
-0.0623204
-0.0623204
-0.0623204
-0.0635066
-0.0635066
-0.0635066
-0.0635066
-0.0635066
-0.064706
-0.064706
-0.064706
-0.064706
-0.064706
-0.0659188
-0.0659188
-0.0659188
-0.0659188
-0.0659188
-0.0671452
-0.0671452
-0.0671452
-0.0671452
-0.0671452
-0.0683852
-0.0683852
-0.0683852
-0.0683852
-0.0683852
-0.0696391
-0.0696391
-0.0696391
-0.0696391
-0.0696391
-0.070907
-0.070907
-0.070907
-0.070907
-0.070907
-0.072189
-0.072189
-0.072189
-0.072189
-0.072189
-0.0734853
-0.0734853
-0.0734853
-0.0734853
-0.0734853
-0.0747961
-0.0747961
-0.0747961
-0.0747961
-0.0747961
-0.0761215
-0.0761215
-0.0761215
-0.0761215
-0.0761215
-0.0774617
-0.0774617
-0.0774617
-0.0774617
-0.0774617
-0.0788169
-0.0788169
-0.0788169
-0.0788169
-0.0788169
-0.0801872
-0.0801872
-0.0801871
-0.0801872
-0.0801872
-0.0815727
-0.0815727
-0.0815727
-0.0815727
-0.0815727
-0.0829738
-0.0829738
-0.0829738
-0.0829738
-0.0829738
-0.0843904
-0.0843904
-0.0843904
-0.0843904
-0.0843904
-0.0858229
-0.0858229
-0.0858229
-0.0858229
-0.0858229
-0.0872714
-0.0872714
-0.0872714
-0.0872714
-0.0872714
-0.088736
-0.088736
-0.088736
-0.088736
-0.088736
)
;

boundaryField
{
    BotWall
    {
        type            calculated;
        value           nonuniform List<scalar> 5(0.690498 0.690551 0.691025 0.690632 0.690494);
    }
    FreeStream
    {
        type            calculated;
        value           nonuniform List<scalar> 5(-0.0894724 -0.0894724 -0.0894724 -0.0894724 -0.0894724);
    }
    FrontNBack
    {
        type            empty;
    }
    LeftSide
    {
        type            symmetryPlane;
    }
    RightSide
    {
        type            symmetryPlane;
    }
}


// ************************************************************************* //
