/*--------------------------------*- C++ -*----------------------------------*\
| =========                 |                                                 |
| \\      /  F ield         | OpenFOAM: The Open Source CFD Toolbox           |
|  \\    /   O peration     | Version:  2.4.0                                 |
|   \\  /    A nd           | Web:      www.OpenFOAM.org                      |
|    \\/     M anipulation  |                                                 |
\*---------------------------------------------------------------------------*/
FoamFile
{
    version     2.0;
    format      ascii;
    class       volScalarField;
    location    "3.6";
    object      p_rgh;
}
// * * * * * * * * * * * * * * * * * * * * * * * * * * * * * * * * * * * * * //

dimensions      [1 -1 -2 0 0 0 0];

internalField   nonuniform List<scalar> 
500
(
0.690498
0.690551
0.691025
0.690632
0.690494
0.690524
0.69058
0.691052
0.69066
0.690518
0.690509
0.690566
0.691039
0.690646
0.690503
0.690525
0.690586
0.691059
0.690665
0.690519
0.690505
0.690568
0.691043
0.690647
0.690498
0.690521
0.690588
0.691065
0.690667
0.690515
0.6905
0.690569
0.691048
0.690648
0.690493
0.690516
0.690589
0.69107
0.690669
0.69051
0.690489
0.690565
0.691047
0.690645
0.690483
0.690506
0.690586
0.69107
0.690666
0.6905
0.690504
0.690587
0.691073
0.690667
0.690498
0.690621
0.690707
0.691197
0.690788
0.690615
0.690657
0.690747
0.691238
0.690827
0.690651
0.690069
0.690161
0.690653
0.690242
0.690063
0.687664
0.687751
0.688241
0.687832
0.687658
0.686062
0.686146
0.686632
0.686226
0.686056
0.70172
0.701846
0.702367
0.70193
0.701714
0.761581
0.761893
0.762562
0.76203
0.761573
0.80229
0.802885
0.803652
0.80303
0.80228
0.395902
0.39564
0.395581
0.395812
0.395896
-1.07735
-1.08171
-1.08558
-1.08214
-1.07733
-2.98798
-2.99828
-3.00602
-2.99913
-2.98791
-0.00475207
-0.00475178
-0.00475132
-0.00475173
-0.00475205
0.00159295
0.00159239
0.00159196
0.00159235
0.00159294
0.000496744
0.000496812
0.000496793
0.00049681
0.000496741
-1.27809e-05
-1.26707e-05
-1.26151e-05
-1.26647e-05
-1.27817e-05
-6.97431e-05
-6.96989e-05
-6.96648e-05
-6.96954e-05
-6.97435e-05
-3.04404e-05
-3.04178e-05
-3.03983e-05
-3.04159e-05
-3.04409e-05
-1.11783e-05
-1.11521e-05
-1.11351e-05
-1.11504e-05
-1.11788e-05
-9.13343e-06
-9.10331e-06
-9.0858e-06
-9.10151e-06
-9.13398e-06
-1.0638e-05
-1.06077e-05
-1.059e-05
-1.06059e-05
-1.06386e-05
-1.13394e-05
-1.131e-05
-1.12925e-05
-1.13082e-05
-1.13399e-05
-1.13553e-05
-1.13268e-05
-1.13097e-05
-1.1325e-05
-1.13558e-05
-1.12315e-05
-1.12035e-05
-1.11868e-05
-1.12018e-05
-1.12319e-05
-1.11394e-05
-1.1112e-05
-1.10956e-05
-1.11103e-05
-1.11399e-05
-1.1074e-05
-1.10471e-05
-1.10311e-05
-1.10454e-05
-1.10744e-05
-1.10133e-05
-1.0987e-05
-1.09713e-05
-1.09853e-05
-1.10138e-05
-1.09506e-05
-1.09248e-05
-1.09095e-05
-1.09232e-05
-1.09511e-05
-1.08862e-05
-1.08609e-05
-1.08459e-05
-1.08593e-05
-1.08866e-05
-1.08208e-05
-1.0796e-05
-1.07813e-05
-1.07945e-05
-1.08212e-05
-1.07547e-05
-1.07305e-05
-1.07161e-05
-1.0729e-05
-1.07551e-05
-1.06879e-05
-1.06642e-05
-1.06502e-05
-1.06627e-05
-1.06883e-05
-1.06204e-05
-1.05972e-05
-1.05835e-05
-1.05958e-05
-1.06208e-05
-1.05522e-05
-1.05295e-05
-1.05161e-05
-1.05281e-05
-1.05525e-05
-1.04832e-05
-1.0461e-05
-1.04479e-05
-1.04596e-05
-1.04835e-05
-1.04134e-05
-1.03918e-05
-1.03789e-05
-1.03904e-05
-1.04137e-05
-1.03429e-05
-1.03217e-05
-1.03092e-05
-1.03204e-05
-1.03432e-05
-1.02716e-05
-1.02509e-05
-1.02387e-05
-1.02496e-05
-1.02719e-05
-1.01994e-05
-1.01793e-05
-1.01674e-05
-1.0178e-05
-1.01997e-05
-1.01265e-05
-1.01069e-05
-1.00952e-05
-1.01056e-05
-1.01268e-05
-1.00528e-05
-1.00336e-05
-1.00223e-05
-1.00324e-05
-1.00531e-05
-9.97829e-06
-9.95956e-06
-9.94849e-06
-9.95837e-06
-9.97855e-06
-9.90294e-06
-9.88467e-06
-9.87388e-06
-9.88351e-06
-9.90318e-06
-9.82675e-06
-9.80895e-06
-9.79843e-06
-9.80781e-06
-9.82698e-06
-9.74971e-06
-9.73237e-06
-9.72213e-06
-9.73126e-06
-9.74994e-06
-9.67182e-06
-9.65493e-06
-9.64496e-06
-9.65385e-06
-9.67204e-06
-9.59307e-06
-9.57663e-06
-9.56692e-06
-9.57557e-06
-9.59328e-06
-9.51345e-06
-9.49744e-06
-9.488e-06
-9.49641e-06
-9.51364e-06
-9.43294e-06
-9.41737e-06
-9.40818e-06
-9.41637e-06
-9.43313e-06
-9.35154e-06
-9.33641e-06
-9.32747e-06
-9.33543e-06
-9.35172e-06
-9.26925e-06
-9.25453e-06
-9.24585e-06
-9.25358e-06
-9.26941e-06
-9.18603e-06
-9.17174e-06
-9.1633e-06
-9.17082e-06
-9.18619e-06
-9.1019e-06
-9.08802e-06
-9.07982e-06
-9.08712e-06
-9.10205e-06
-9.01683e-06
-9.00337e-06
-8.99541e-06
-9.00249e-06
-9.01697e-06
-8.93083e-06
-8.91776e-06
-8.91004e-06
-8.91691e-06
-8.93096e-06
-8.84386e-06
-8.8312e-06
-8.82371e-06
-8.83037e-06
-8.84399e-06
-8.75594e-06
-8.74367e-06
-8.7364e-06
-8.74286e-06
-8.75605e-06
-8.66704e-06
-8.65515e-06
-8.64811e-06
-8.65438e-06
-8.66715e-06
-8.57715e-06
-8.56565e-06
-8.55883e-06
-8.5649e-06
-8.57725e-06
-8.48627e-06
-8.47515e-06
-8.46854e-06
-8.47442e-06
-8.48636e-06
-8.39438e-06
-8.38363e-06
-8.37724e-06
-8.38292e-06
-8.39447e-06
-8.30147e-06
-8.29109e-06
-8.28491e-06
-8.29041e-06
-8.30155e-06
-8.20753e-06
-8.19751e-06
-8.19154e-06
-8.19685e-06
-8.20761e-06
-8.11255e-06
-8.10289e-06
-8.09712e-06
-8.10225e-06
-8.11262e-06
-8.01651e-06
-8.00721e-06
-8.00164e-06
-8.00659e-06
-8.01658e-06
-7.91941e-06
-7.91046e-06
-7.90509e-06
-7.90987e-06
-7.91947e-06
-7.82124e-06
-7.81262e-06
-7.80745e-06
-7.81205e-06
-7.82129e-06
-7.72197e-06
-7.7137e-06
-7.70872e-06
-7.71315e-06
-7.72202e-06
-7.62161e-06
-7.61367e-06
-7.60887e-06
-7.61314e-06
-7.62165e-06
-7.52012e-06
-7.51252e-06
-7.50791e-06
-7.51201e-06
-7.52016e-06
-7.41752e-06
-7.41024e-06
-7.40581e-06
-7.40975e-06
-7.41755e-06
-7.31377e-06
-7.30681e-06
-7.30257e-06
-7.30635e-06
-7.3138e-06
-7.20888e-06
-7.20223e-06
-7.19817e-06
-7.20179e-06
-7.2089e-06
-7.10282e-06
-7.09649e-06
-7.09259e-06
-7.09607e-06
-7.10284e-06
-6.99558e-06
-6.98956e-06
-6.98584e-06
-6.98916e-06
-6.9956e-06
-6.88715e-06
-6.88144e-06
-6.87789e-06
-6.88106e-06
-6.88717e-06
-6.77752e-06
-6.77211e-06
-6.76873e-06
-6.77175e-06
-6.77753e-06
-6.66667e-06
-6.66156e-06
-6.65834e-06
-6.66122e-06
-6.66668e-06
-6.55459e-06
-6.54977e-06
-6.54672e-06
-6.54946e-06
-6.5546e-06
-6.44126e-06
-6.43674e-06
-6.43385e-06
-6.43644e-06
-6.44127e-06
-6.32668e-06
-6.32245e-06
-6.31972e-06
-6.32217e-06
-6.32668e-06
-6.21082e-06
-6.20688e-06
-6.20431e-06
-6.20662e-06
-6.21083e-06
-6.09368e-06
-6.09002e-06
-6.08761e-06
-6.08978e-06
-6.09368e-06
-5.97523e-06
-5.97186e-06
-5.96961e-06
-5.97164e-06
-5.97523e-06
-5.85547e-06
-5.85238e-06
-5.85029e-06
-5.85218e-06
-5.85547e-06
-5.73437e-06
-5.73157e-06
-5.72963e-06
-5.73139e-06
-5.73438e-06
-5.61197e-06
-5.6094e-06
-5.60758e-06
-5.60923e-06
-5.61197e-06
-5.48825e-06
-5.48583e-06
-5.48409e-06
-5.48568e-06
-5.48826e-06
-5.36303e-06
-5.36093e-06
-5.35938e-06
-5.36081e-06
-5.36303e-06
-5.23546e-06
-5.23487e-06
-5.23431e-06
-5.23484e-06
-5.23544e-06
)
;

boundaryField
{
    BotWall
    {
        type            fixedFluxPressure;
        gradient        uniform 0;
        value           nonuniform List<scalar> 5(0.690498 0.690551 0.691025 0.690632 0.690494);
    }
    FreeStream
    {
        type            totalPressure;
        rho             rho;
        psi             none;
        gamma           1;
        p0              uniform 0;
        value           nonuniform List<scalar> 5(-5.17068e-06 -5.17167e-06 -5.17216e-06 -5.17174e-06 -5.17063e-06);
    }
    FrontNBack
    {
        type            empty;
    }
    LeftSide
    {
        type            symmetryPlane;
    }
    RightSide
    {
        type            symmetryPlane;
    }
}


// ************************************************************************* //
