/*--------------------------------*- C++ -*----------------------------------*\
| =========                 |                                                 |
| \\      /  F ield         | OpenFOAM: The Open Source CFD Toolbox           |
|  \\    /   O peration     | Version:  2.4.0                                 |
|   \\  /    A nd           | Web:      www.OpenFOAM.org                      |
|    \\/     M anipulation  |                                                 |
\*---------------------------------------------------------------------------*/
FoamFile
{
    version     2.0;
    format      ascii;
    class       surfaceScalarField;
    location    "3.6";
    object      phi;
}
// * * * * * * * * * * * * * * * * * * * * * * * * * * * * * * * * * * * * * //

dimensions      [0 3 -1 0 0 0 0];

internalField   nonuniform List<scalar> 
895
(
7.13236e-18
-7.13241e-18
3.99112e-18
3.14112e-18
-3.84371e-18
7.83473e-18
-7.04692e-18
3.20303e-18
-7.04701e-18
2.18528e-17
-2.8986e-17
1.25837e-17
1.24087e-17
-1.20516e-17
3.24681e-17
-2.16667e-17
1.28166e-17
-2.87149e-17
3.72688e-17
-6.62558e-17
2.17659e-17
2.791e-17
-2.0771e-17
7.50029e-17
-3.7027e-17
2.90708e-17
-6.5743e-17
5.3417e-17
-1.19674e-16
3.14743e-17
4.98511e-17
-2.9946e-17
1.36421e-16
-5.3152e-17
5.22751e-17
-1.18896e-16
7.03613e-17
-1.90036e-16
4.17585e-17
7.84522e-17
-3.962e-17
2.17797e-16
-7.0108e-17
8.27614e-17
-1.89005e-16
8.81068e-17
-2.78145e-16
5.26271e-17
1.1393e-16
-4.97978e-17
3.20219e-16
-8.79023e-17
1.20864e-16
-2.76909e-16
1.06737e-16
-3.84883e-16
6.41328e-17
1.56533e-16
-6.05271e-17
4.44877e-16
-1.06621e-16
1.66956e-16
-3.83531e-16
1.26248e-16
-5.11132e-16
7.62851e-17
2.06493e-16
-7.18119e-17
5.92971e-16
-1.26263e-16
2.21406e-16
-5.09796e-16
1.46739e-16
-6.57871e-16
8.9145e-17
2.64085e-16
-8.37081e-17
7.65822e-16
-1.46932e-16
2.84628e-16
-6.56729e-16
1.68201e-16
-8.26073e-16
1.0272e-16
3.29563e-16
-9.62178e-17
9.64758e-16
-1.68622e-16
3.5703e-16
-8.25352e-16
1.90748e-16
-1.01682e-15
1.17081e-16
4.03229e-16
-1.09405e-16
1.19124e-15
-1.91449e-16
4.39073e-16
-1.0168e-15
2.1437e-16
-1.23119e-15
1.32236e-16
4.85362e-16
-1.23272e-16
1.44675e-15
-2.15409e-16
5.31209e-16
-1.23221e-15
2.39195e-16
-1.47039e-15
1.48262e-16
5.76293e-16
-1.37889e-16
1.7329e-15
-2.40631e-16
6.33949e-16
-1.47284e-15
2.65212e-16
-1.7356e-15
1.65172e-16
6.76332e-16
-1.53262e-16
2.05133e-15
-2.67112e-16
7.47798e-16
-1.73996e-15
2.92561e-16
-2.02816e-15
1.83049e-16
7.85842e-16
-1.69468e-16
2.40384e-15
-2.94995e-16
8.73324e-16
-2.03495e-15
3.21226e-16
-2.34939e-15
2.01905e-16
9.05162e-16
-1.86508e-16
2.79225e-15
-3.2427e-16
1.01109e-15
-2.35922e-15
3.51331e-16
-2.70072e-15
2.21803e-16
1.03469e-15
-2.04444e-16
3.2185e-15
-3.55061e-16
1.1617e-15
-2.71428e-15
3.82868e-16
-3.08359e-15
2.42821e-16
1.17473e-15
-2.23412e-16
3.68473e-15
-3.87306e-16
1.32559e-15
-3.10159e-15
4.1609e-16
-3.49968e-15
2.65511e-16
1.32531e-15
-2.43194e-16
4.19344e-15
-4.21232e-16
1.50363e-15
-3.52282e-15
4.51798e-16
-3.95148e-15
2.88529e-16
1.48858e-15
-2.63667e-16
4.74563e-15
-4.58244e-16
1.69821e-15
-3.98107e-15
4.91193e-16
-1.60418e-14
3.17486e-16
1.66229e-15
-2.90016e-16
5.35313e-15
-4.99381e-16
1.90757e-15
-1.61785e-14
5.51223e-16
-2.12963e-10
3.59856e-16
-2.12998e-10
-3.2798e-16
-2.13016e-10
-5.63407e-16
-2.13e-10
-2.12962e-10
5.56905e-16
-2.12964e-10
3.59876e-16
-2.12997e-10
-3.28716e-16
-2.13015e-10
-5.66757e-16
-2.13e-10
-2.12963e-10
5.34015e-16
-2.12964e-10
3.47723e-16
-2.12997e-10
-3.16689e-16
-2.13014e-10
-5.43778e-16
-2.13e-10
-2.12963e-10
4.82026e-16
-2.12965e-10
3.14085e-16
-2.12997e-10
-2.85579e-16
-2.13014e-10
-4.89561e-16
-2.12999e-10
-2.12964e-10
4.39126e-16
-2.12965e-10
2.85067e-16
-2.12997e-10
-2.58517e-16
-2.13013e-10
-4.45288e-16
-2.12999e-10
-2.12964e-10
3.99763e-16
-2.12966e-10
2.58892e-16
-2.12997e-10
-2.34066e-16
-2.13013e-10
-4.04832e-16
-2.12999e-10
-2.12964e-10
3.60911e-16
-2.12966e-10
2.33644e-16
-2.12997e-10
-2.10507e-16
-2.13012e-10
-3.6491e-16
-2.12999e-10
-2.12965e-10
3.22461e-16
-2.12966e-10
2.08781e-16
-2.12997e-10
-1.8733e-16
-2.13012e-10
-3.25402e-16
-2.12999e-10
-2.12965e-10
2.84924e-16
-2.12967e-10
1.844e-16
-2.12996e-10
-1.64613e-16
-2.13012e-10
-2.86842e-16
-2.12999e-10
-2.12965e-10
2.48519e-16
-2.12967e-10
1.60656e-16
-2.12996e-10
-1.42501e-16
-2.13011e-10
-2.49463e-16
-2.12999e-10
-2.12966e-10
2.13292e-16
-2.12967e-10
1.37631e-16
-2.12996e-10
-1.21071e-16
-2.13011e-10
-2.13311e-16
-2.12998e-10
-2.12966e-10
1.7928e-16
-2.12967e-10
1.15373e-16
-2.12996e-10
-1.00366e-16
-2.13011e-10
-1.78423e-16
-2.12998e-10
-2.12966e-10
1.46542e-16
-2.12967e-10
9.39188e-17
-2.12996e-10
-8.04216e-17
-2.13011e-10
-1.44861e-16
-2.12998e-10
-2.12966e-10
1.15146e-16
-2.12967e-10
7.33125e-17
-2.12996e-10
-6.12776e-17
-2.13011e-10
-1.12693e-16
-2.12998e-10
-2.12966e-10
8.51583e-17
-2.12968e-10
5.35973e-17
-2.12996e-10
-4.29737e-17
-2.1301e-10
-8.19849e-17
-2.12998e-10
-2.12966e-10
5.66392e-17
-2.12968e-10
3.48152e-17
-2.12996e-10
-2.55483e-17
-2.1301e-10
-5.27994e-17
-2.12998e-10
-2.12966e-10
2.96464e-17
-2.12968e-10
1.70066e-17
-2.12996e-10
-9.03823e-18
-2.1301e-10
-2.51945e-17
-2.12998e-10
-2.12967e-10
4.23408e-18
-2.12968e-10
2.0932e-19
-2.12996e-10
6.5219e-18
-2.1301e-10
7.74906e-19
-2.12998e-10
-2.12967e-10
-1.95469e-17
-2.12968e-10
-1.5541e-17
-2.12996e-10
2.10997e-17
-2.1301e-10
2.50577e-17
-2.12998e-10
-2.12966e-10
-4.165e-17
-2.12968e-10
-3.02112e-17
-2.12996e-10
3.46653e-17
-2.1301e-10
4.76069e-17
-2.12998e-10
-2.12966e-10
-6.2033e-17
-2.12967e-10
-4.37714e-17
-2.12996e-10
4.71915e-17
-2.13011e-10
6.83801e-17
-2.12998e-10
-2.12966e-10
-8.06585e-17
-2.12967e-10
-5.61943e-17
-2.12996e-10
5.86539e-17
-2.13011e-10
8.73402e-17
-2.12998e-10
-2.12966e-10
-9.74945e-17
-2.12967e-10
-6.74565e-17
-2.12996e-10
6.90316e-17
-2.13011e-10
1.04455e-16
-2.12998e-10
-2.12966e-10
-1.12515e-16
-2.12967e-10
-7.7538e-17
-2.12996e-10
7.83068e-17
-2.13011e-10
1.19699e-16
-2.12998e-10
-2.12966e-10
-1.25698e-16
-2.12967e-10
-8.64227e-17
-2.12996e-10
8.64656e-17
-2.13011e-10
1.33052e-16
-2.12998e-10
-2.12966e-10
-1.37032e-16
-2.12967e-10
-9.40989e-17
-2.12996e-10
9.34978e-17
-2.13011e-10
1.445e-16
-2.12998e-10
-2.12966e-10
-1.46507e-16
-2.12967e-10
-1.00559e-16
-2.12996e-10
9.93973e-17
-2.13012e-10
1.54037e-16
-2.12999e-10
-2.12966e-10
-1.54123e-16
-2.12967e-10
-1.058e-16
-2.12996e-10
1.04162e-16
-2.13012e-10
1.61664e-16
-2.12999e-10
-2.12965e-10
-1.59888e-16
-2.12966e-10
-1.09823e-16
-2.12996e-10
1.07795e-16
-2.13012e-10
1.67387e-16
-2.12999e-10
-2.12965e-10
-1.63813e-16
-2.12966e-10
-1.12635e-16
-2.12996e-10
1.10302e-16
-2.13012e-10
1.71223e-16
-2.12999e-10
-2.12965e-10
-1.65921e-16
-2.12966e-10
-1.14248e-16
-2.12997e-10
1.11696e-16
-2.13012e-10
1.73194e-16
-2.12999e-10
-2.12965e-10
-1.66241e-16
-2.12966e-10
-1.14678e-16
-2.12997e-10
1.11993e-16
-2.13013e-10
1.7333e-16
-2.12999e-10
-2.12965e-10
-1.64809e-16
-2.12966e-10
-1.13947e-16
-2.12997e-10
1.11213e-16
-2.13013e-10
1.7167e-16
-2.12999e-10
-2.12965e-10
-1.61668e-16
-2.12966e-10
-1.12082e-16
-2.12997e-10
1.09381e-16
-2.13013e-10
1.68259e-16
-2.12999e-10
-2.12964e-10
-1.5687e-16
-2.12965e-10
-1.09114e-16
-2.12997e-10
1.06529e-16
-2.13013e-10
1.63153e-16
-2.12999e-10
-2.12964e-10
-1.50474e-16
-2.12965e-10
-1.0508e-16
-2.12997e-10
1.02691e-16
-2.13013e-10
1.5641e-16
-2.12999e-10
-2.12964e-10
-1.42546e-16
-2.12965e-10
-1.00021e-16
-2.12997e-10
9.79065e-17
-2.13014e-10
1.48101e-16
-2.12999e-10
-2.12964e-10
-1.33159e-16
-2.12965e-10
-9.39848e-17
-2.12997e-10
9.22181e-17
-2.13014e-10
1.383e-16
-2.12999e-10
-2.12964e-10
-1.2239e-16
-2.12965e-10
-8.70206e-17
-2.12997e-10
8.56737e-17
-2.13014e-10
1.27088e-16
-2.12999e-10
-2.12964e-10
-1.10326e-16
-2.12965e-10
-7.91834e-17
-2.12997e-10
7.83245e-17
-2.13014e-10
1.14554e-16
-2.12999e-10
-2.12964e-10
-9.70567e-17
-2.12965e-10
-7.05318e-17
-2.12997e-10
7.02251e-17
-2.13014e-10
1.00792e-16
-2.12999e-10
-2.12963e-10
-8.26775e-17
-2.12965e-10
-6.11275e-17
-2.12997e-10
6.14332e-17
-2.13014e-10
8.58981e-17
-2.12999e-10
-2.12963e-10
-6.72878e-17
-2.12965e-10
-5.10354e-17
-2.12997e-10
5.20091e-17
-2.13015e-10
6.9976e-17
-2.12999e-10
-2.12963e-10
-5.09903e-17
-2.12965e-10
-4.03225e-17
-2.12997e-10
4.20154e-17
-2.13015e-10
5.31311e-17
-2.12999e-10
-2.12963e-10
-3.38906e-17
-2.12965e-10
-2.90581e-17
-2.12997e-10
3.15163e-17
-2.13015e-10
3.54717e-17
-2.12999e-10
-2.12963e-10
-1.60956e-17
-2.12964e-10
-1.73126e-17
-2.12997e-10
2.05774e-17
-2.13015e-10
1.7108e-17
-2.12999e-10
-2.12963e-10
2.28652e-18
-2.12964e-10
-5.15722e-18
-2.12997e-10
9.26485e-18
-2.13015e-10
-1.84941e-18
-2.12999e-10
-2.12963e-10
2.1148e-17
-2.12965e-10
7.33661e-18
-2.12997e-10
-2.35527e-18
-2.13015e-10
-2.12898e-17
-2.12999e-10
-2.12963e-10
4.03823e-17
-2.12965e-10
2.00981e-17
-2.12997e-10
-1.42172e-17
-2.13015e-10
-4.11039e-17
-2.12999e-10
-2.12963e-10
5.98846e-17
-2.12965e-10
3.30575e-17
-2.12997e-10
-2.62565e-17
-2.13015e-10
-6.11846e-17
-2.12999e-10
-2.12963e-10
7.95534e-17
-2.12965e-10
4.61469e-17
-2.12997e-10
-3.84102e-17
-2.13015e-10
-8.14278e-17
-2.12999e-10
-2.12963e-10
9.92912e-17
-2.12965e-10
5.93011e-17
-2.12997e-10
-5.06179e-17
-2.13014e-10
-1.01734e-16
-2.12999e-10
-2.12964e-10
1.19005e-16
-2.12965e-10
7.24575e-17
-2.12997e-10
-6.2822e-17
-2.13014e-10
-1.22008e-16
-2.12999e-10
-2.12964e-10
1.38609e-16
-2.12965e-10
8.55576e-17
-2.12997e-10
-7.49681e-17
-2.13014e-10
-1.42162e-16
-2.12999e-10
-2.12964e-10
1.58022e-16
-2.12965e-10
9.85469e-17
-2.12997e-10
-8.7006e-17
-2.13014e-10
-1.62113e-16
-2.12999e-10
-2.12964e-10
1.77171e-16
-2.12965e-10
1.11375e-16
-2.12997e-10
-9.88898e-17
-2.13014e-10
-1.81787e-16
-2.12999e-10
-2.12964e-10
1.95992e-16
-2.12966e-10
1.23999e-16
-2.12997e-10
-1.10578e-16
-2.13014e-10
-2.01119e-16
-2.12999e-10
-2.12964e-10
2.14427e-16
-2.12966e-10
1.36377e-16
-2.12996e-10
-1.22035e-16
-2.13013e-10
-2.2005e-16
-2.12999e-10
-2.12965e-10
2.32429e-16
-2.12966e-10
1.48477e-16
-2.12996e-10
-1.33229e-16
-2.13013e-10
-2.38532e-16
-2.12999e-10
-2.12965e-10
2.49959e-16
-2.12966e-10
1.60271e-16
-2.12996e-10
-1.44135e-16
-2.13013e-10
-2.56525e-16
-2.12998e-10
-2.12965e-10
2.66986e-16
-2.12967e-10
1.71736e-16
-2.12996e-10
-1.54731e-16
-2.13012e-10
-2.73999e-16
-2.12998e-10
-2.12965e-10
2.83487e-16
-2.12967e-10
1.82855e-16
-2.12996e-10
-1.65004e-16
-2.13012e-10
-2.90931e-16
-2.12998e-10
-2.12966e-10
2.9945e-16
-2.12967e-10
1.93618e-16
-2.12996e-10
-1.74942e-16
-2.13012e-10
-3.07307e-16
-2.12998e-10
-2.12966e-10
3.14868e-16
-2.12967e-10
2.04017e-16
-2.12996e-10
-1.8454e-16
-2.13011e-10
-3.23122e-16
-2.12998e-10
-2.12966e-10
3.2974e-16
-2.12968e-10
2.1405e-16
-2.12996e-10
-1.93796e-16
-2.13011e-10
-3.38375e-16
-2.12998e-10
-2.12967e-10
3.44071e-16
-2.12968e-10
2.23719e-16
-2.12996e-10
-2.02711e-16
-2.1301e-10
-3.53073e-16
-2.12998e-10
-2.12967e-10
3.57871e-16
-2.12968e-10
2.33027e-16
-2.12996e-10
-2.11288e-16
-2.1301e-10
-3.67225e-16
-2.12997e-10
-2.12967e-10
3.7115e-16
-2.12969e-10
2.4198e-16
-2.12995e-10
-2.19534e-16
-2.1301e-10
-3.80842e-16
-2.12997e-10
-2.12968e-10
3.8392e-16
-2.12969e-10
2.50583e-16
-2.12995e-10
-2.27453e-16
-2.13009e-10
-3.93937e-16
-2.12997e-10
-2.12968e-10
3.9619e-16
-2.1297e-10
2.5884e-16
-2.12995e-10
-2.3505e-16
-2.13009e-10
-4.0652e-16
-2.12997e-10
-2.12968e-10
4.07967e-16
-2.1297e-10
2.66755e-16
-2.12995e-10
-2.42327e-16
-2.13008e-10
-4.18597e-16
-2.12997e-10
-2.12969e-10
4.19248e-16
-2.1297e-10
2.74325e-16
-2.12995e-10
-2.49283e-16
-2.13008e-10
-4.30167e-16
-2.12997e-10
-2.12969e-10
4.30024e-16
-2.12971e-10
2.81541e-16
-2.12995e-10
-2.5591e-16
-2.13007e-10
-4.4122e-16
-2.12996e-10
-2.1297e-10
4.40271e-16
-2.12971e-10
2.88388e-16
-2.12995e-10
-2.62195e-16
-2.13006e-10
-4.51732e-16
-2.12996e-10
-2.1297e-10
4.49949e-16
-2.12972e-10
2.94839e-16
-2.12994e-10
-2.68111e-16
-2.13006e-10
-4.61662e-16
-2.12996e-10
-2.12971e-10
4.58997e-16
-2.12972e-10
3.00853e-16
-2.12994e-10
-2.73621e-16
-2.13005e-10
-4.70945e-16
-2.12996e-10
-2.12971e-10
4.67344e-16
-2.12973e-10
3.06382e-16
-2.12994e-10
-2.78684e-16
-2.13005e-10
-4.79511e-16
-2.12996e-10
-2.12972e-10
4.74957e-16
-2.12973e-10
3.11408e-16
-2.12994e-10
-2.83279e-16
-2.13004e-10
-4.87327e-16
-2.12995e-10
-2.12972e-10
4.81799e-16
3.15859e-16
-2.87331e-16
-4.94373e-16
)
;

boundaryField
{
    BotWall
    {
        type            calculated;
        value           nonuniform List<scalar> 5(4.33995e-23 8.13944e-23 1.3177e-22 9.65691e-23 7.90281e-23);
    }
    FreeStream
    {
        type            calculated;
        value           nonuniform List<scalar> 5(-2.12974e-10 -2.12994e-10 -2.13004e-10 -2.12995e-10 -2.12973e-10);
    }
    FrontNBack
    {
        type            empty;
        value           nonuniform 0();
    }
    LeftSide
    {
        type            symmetryPlane;
        value           uniform 0;
    }
    RightSide
    {
        type            symmetryPlane;
        value           uniform 0;
    }
}


// ************************************************************************* //
