/*--------------------------------*- C++ -*----------------------------------*\
| =========                 |                                                 |
| \\      /  F ield         | OpenFOAM: The Open Source CFD Toolbox           |
|  \\    /   O peration     | Version:  2.4.0                                 |
|   \\  /    A nd           | Web:      www.OpenFOAM.org                      |
|    \\/     M anipulation  |                                                 |
\*---------------------------------------------------------------------------*/
FoamFile
{
    version     2.0;
    format      ascii;
    class       volVectorField;
    location    "3.6";
    object      U;
}
// * * * * * * * * * * * * * * * * * * * * * * * * * * * * * * * * * * * * * //

dimensions      [0 1 -1 0 0 0 0];

internalField   nonuniform List<vector> 
500
(
(2.19304e-09 -3.91718e-10 0)
(2.97527e-09 -3.91446e-10 0)
(4.10937e-11 -3.87937e-10 0)
(-2.93618e-09 -3.91501e-10 0)
(-2.19078e-09 -3.91569e-10 0)
(6.61652e-09 9.19429e-10 0)
(9.09052e-09 1.05068e-09 0)
(1.44033e-10 1.1003e-09 0)
(-8.97389e-09 1.05142e-09 0)
(-6.63111e-09 9.20239e-10 0)
(1.11092e-08 -1.92924e-09 0)
(1.54143e-08 -1.65937e-09 0)
(2.68609e-10 -1.50566e-09 0)
(-1.52208e-08 -1.65596e-09 0)
(-1.11628e-08 -1.9273e-09 0)
(1.5668e-08 1.91879e-09 0)
(2.19467e-08 2.6078e-09 0)
(4.1515e-10 2.92579e-09 0)
(-2.16775e-08 2.61601e-09 0)
(-1.57837e-08 1.92197e-09 0)
(2.03066e-08 -3.84143e-09 0)
(2.87068e-08 -2.85027e-09 0)
(5.84701e-10 -2.3014e-09 0)
(-2.83627e-08 -2.83418e-09 0)
(-2.05081e-08 -3.83682e-09 0)
(2.50172e-08 2.69481e-09 0)
(3.56912e-08 4.40852e-09 0)
(7.7794e-10 5.25452e-09 0)
(-3.52731e-08 4.43555e-09 0)
(-2.53291e-08 2.70051e-09 0)
(2.98185e-08 -6.26462e-09 0)
(4.29239e-08 -4.07104e-09 0)
(9.95742e-10 -2.85193e-09 0)
(-4.24329e-08 -4.02862e-09 0)
(-3.02664e-08 -6.25794e-09 0)
(3.46991e-08 3.27611e-09 0)
(5.03984e-08 6.51873e-09 0)
(1.23904e-09 8.18548e-09 0)
(-4.98354e-08 6.58064e-09 0)
(-3.53093e-08 3.28293e-09 0)
(3.96816e-08 -9.33549e-09 0)
(5.8143e-08 -5.41431e-09 0)
(1.50872e-09 -3.2134e-09 0)
(-5.75094e-08 -5.32694e-09 0)
(-4.04819e-08 -9.32895e-09 0)
(4.4752e-08 3.46881e-09 0)
(6.61494e-08 8.79048e-09 0)
(1.80581e-09 1.16093e-08 0)
(-6.54463e-08 8.90859e-09 0)
(-4.57711e-08 3.47367e-09 0)
(4.9936e-08 -1.32131e-08 0)
(7.44494e-08 -6.9906e-09 0)
(2.13125e-09 -3.45486e-09 0)
(-7.36784e-08 -6.83396e-09 0)
(-5.12038e-08 -1.32108e-08 0)
(5.52182e-08 5.18809e-09 0)
(8.30337e-08 1.31929e-08 0)
(2.48616e-09 1.75457e-08 0)
(-8.21962e-08 1.33953e-08 0)
(-5.67659e-08 5.18589e-09 0)
(6.06264e-08 -1.20336e-08 0)
(9.19374e-08 -2.86774e-09 0)
(2.87162e-09 2.4228e-09 0)
(-9.10351e-08 -2.60887e-09 0)
(-6.24866e-08 -1.20417e-08 0)
(6.61448e-08 9.72697e-09 0)
(1.01151e-07 2.10846e-08 0)
(3.28884e-09 2.74056e-08 0)
(-1.00186e-07 2.14071e-08 0)
(-6.83513e-08 9.71019e-09 0)
(7.18022e-08 -5.50036e-08 0)
(1.10711e-07 -4.23176e-08 0)
(3.73899e-09 -3.49282e-08 0)
(-1.09685e-07 -4.19294e-08 0)
(-7.43906e-08 -5.50303e-08 0)
(7.75814e-08 -1.39247e-07 0)
(1.20607e-07 -1.24306e-07 0)
(4.22326e-09 -1.15918e-07 0)
(-1.19522e-07 -1.23863e-07 0)
(-8.05885e-08 -1.39286e-07 0)
(8.35099e-08 -1.69704e-07 0)
(1.30872e-07 -1.53182e-07 0)
(4.74273e-09 -1.43491e-07 0)
(-1.29731e-07 -1.52652e-07 0)
(-8.69741e-08 -1.69757e-07 0)
(8.95789e-08 8.36828e-07 0)
(1.41511e-07 8.58992e-07 0)
(5.2995e-09 8.7234e-07 0)
(-1.40317e-07 8.59864e-07 0)
(-9.3541e-08 8.36741e-07 0)
(9.58566e-08 3.81169e-06 0)
(1.52633e-07 3.84549e-06 0)
(5.99362e-09 3.86803e-06 0)
(-1.51279e-07 3.84731e-06 0)
(-1.00348e-07 3.81152e-06 0)
(1.02383e-07 2.92326e-06 0)
(1.64168e-07 2.96529e-06 0)
(6.63906e-09 2.99134e-06 0)
(-1.62805e-07 2.96743e-06 0)
(-1.07508e-07 2.92301e-06 0)
(1.09152e-07 -1.72627e-05 0)
(1.76429e-07 -1.72667e-05 0)
(7.24907e-09 -1.7286e-05 0)
(-1.75107e-07 -1.72696e-05 0)
(-1.14926e-07 -1.72627e-05 0)
(1.17997e-07 -0.000135499 0)
(1.92095e-07 -0.000135818 0)
(8.0063e-09 -0.000136089 0)
(-1.9083e-07 -0.000135849 0)
(-1.24585e-07 -0.000135497 0)
(1.20776e-07 -0.000855283 0)
(1.97229e-07 -0.000855209 0)
(8.27297e-09 -0.000855137 0)
(-1.95982e-07 -0.000855203 0)
(-1.27649e-07 -0.000855279 0)
(1.13193e-07 -0.00194749 0)
(1.85657e-07 -0.00194755 0)
(7.89173e-09 -0.0019475 0)
(-1.84255e-07 -0.00194755 0)
(-1.19611e-07 -0.00194748 0)
(1.02148e-07 -0.00108384 0)
(1.67695e-07 -0.00108408 0)
(7.2098e-09 -0.0010842 0)
(-1.66193e-07 -0.0010841 0)
(-1.07865e-07 -0.00108383 0)
(9.21367e-08 -0.00101236 0)
(1.51096e-07 -0.00101254 0)
(6.56591e-09 -0.00101264 0)
(-1.4951e-07 -0.00101255 0)
(-9.72096e-08 -0.00101236 0)
(8.29102e-08 -0.0010396 0)
(1.35685e-07 -0.00103975 0)
(5.96487e-09 -0.00103984 0)
(-1.34022e-07 -0.00103976 0)
(-8.73907e-08 -0.0010396 0)
(7.41045e-08 -0.0010633 0)
(1.20973e-07 -0.00106345 0)
(5.39218e-09 -0.00106353 0)
(-1.19239e-07 -0.00106346 0)
(-7.80283e-08 -0.00106329 0)
(6.5629e-08 -0.00106718 0)
(1.06802e-07 -0.00106733 0)
(4.84061e-09 -0.00106741 0)
(-1.05005e-07 -0.00106734 0)
(-6.90249e-08 -0.00106718 0)
(5.75232e-08 -0.00106584 0)
(9.32112e-08 -0.00106599 0)
(4.31009e-09 -0.00106606 0)
(-9.13581e-08 -0.001066 0)
(-6.04196e-08 -0.00106583 0)
(4.98153e-08 -0.0010649 0)
(8.02414e-08 -0.00106505 0)
(3.80175e-09 -0.00106512 0)
(-7.83391e-08 -0.00106506 0)
(-5.22415e-08 -0.00106489 0)
(4.25106e-08 -0.00106474 0)
(6.79061e-08 -0.00106488 0)
(3.31632e-09 -0.00106496 0)
(-6.59613e-08 -0.00106489 0)
(-4.4496e-08 -0.00106473 0)
(3.56076e-08 -0.00106479 0)
(5.62091e-08 -0.00106494 0)
(2.85417e-09 -0.00106501 0)
(-5.42284e-08 -0.00106495 0)
(-3.71816e-08 -0.00106479 0)
(2.91059e-08 -0.00106483 0)
(4.51541e-08 -0.00106498 0)
(2.41559e-09 -0.00106505 0)
(-4.31439e-08 -0.00106499 0)
(-3.02976e-08 -0.00106483 0)
(2.30058e-08 -0.00106484 0)
(3.47453e-08 -0.00106498 0)
(2.00085e-09 -0.00106506 0)
(-3.27118e-08 -0.001065 0)
(-2.3844e-08 -0.00106484 0)
(1.73071e-08 -0.00106484 0)
(2.49861e-08 -0.00106498 0)
(1.61019e-09 -0.00106505 0)
(-2.29352e-08 -0.00106499 0)
(-1.78204e-08 -0.00106483 0)
(1.20089e-08 -0.00106484 0)
(1.58785e-08 -0.00106498 0)
(1.24379e-09 -0.00106505 0)
(-1.38159e-08 -0.00106499 0)
(-1.22255e-08 -0.00106483 0)
(7.10931e-09 -0.00106484 0)
(7.42289e-09 -0.00106498 0)
(9.01802e-10 -0.00106505 0)
(-5.35411e-09 -0.00106499 0)
(-7.05693e-09 -0.00106483 0)
(2.60563e-09 -0.00106484 0)
(-3.81576e-10 -0.00106498 0)
(5.84305e-10 -0.00106505 0)
(2.45135e-09 -0.00106499 0)
(-2.31163e-09 -0.00106483 0)
(-1.50561e-09 -0.00106484 0)
(-7.53726e-09 -0.00106498 0)
(2.9133e-10 -0.00106505 0)
(9.60309e-09 -0.00106499 0)
(2.01437e-09 -0.00106483 0)
(-5.22873e-09 -0.00106484 0)
(-1.4048e-08 -0.00106498 0)
(2.2851e-11 -0.00106505 0)
(1.61053e-08 -0.00106499 0)
(5.92594e-09 -0.00106483 0)
(-8.56889e-09 -0.00106484 0)
(-1.99193e-08 -0.00106498 0)
(-2.21222e-10 -0.00106505 0)
(2.19635e-08 -0.00106499 0)
(9.42888e-09 -0.00106483 0)
(-1.15322e-08 -0.00106484 0)
(-2.51581e-08 -0.00106498 0)
(-4.4104e-10 -0.00106505 0)
(2.71852e-08 -0.00106499 0)
(1.25299e-08 -0.00106483 0)
(-1.41254e-08 -0.00106484 0)
(-2.97729e-08 -0.00106498 0)
(-6.36819e-10 -0.00106505 0)
(3.17791e-08 -0.00106499 0)
(1.52366e-08 -0.00106483 0)
(-1.63566e-08 -0.00106484 0)
(-3.37741e-08 -0.00106498 0)
(-8.08842e-10 -0.00106505 0)
(3.57557e-08 -0.00106499 0)
(1.75576e-08 -0.00106483 0)
(-1.82343e-08 -0.00106484 0)
(-3.71735e-08 -0.00106498 0)
(-9.57457e-10 -0.00106506 0)
(3.91274e-08 -0.00106499 0)
(1.95024e-08 -0.00106483 0)
(-1.97681e-08 -0.00106484 0)
(-3.99845e-08 -0.00106498 0)
(-1.08308e-09 -0.00106506 0)
(4.19077e-08 -0.00106499 0)
(2.10814e-08 -0.00106483 0)
(-2.09686e-08 -0.00106483 0)
(-4.22224e-08 -0.00106498 0)
(-1.18621e-09 -0.00106506 0)
(4.41123e-08 -0.00106499 0)
(2.23061e-08 -0.00106483 0)
(-2.18469e-08 -0.00106483 0)
(-4.3904e-08 -0.00106498 0)
(-1.26738e-09 -0.00106506 0)
(4.5758e-08 -0.00106499 0)
(2.31886e-08 -0.00106483 0)
(-2.24153e-08 -0.00106483 0)
(-4.50474e-08 -0.00106498 0)
(-1.32723e-09 -0.00106506 0)
(4.68636e-08 -0.00106499 0)
(2.37422e-08 -0.00106483 0)
(-2.26867e-08 -0.00106483 0)
(-4.56727e-08 -0.00106498 0)
(-1.36644e-09 -0.00106506 0)
(4.74491e-08 -0.00106499 0)
(2.39808e-08 -0.00106483 0)
(-2.26749e-08 -0.00106483 0)
(-4.58012e-08 -0.00106498 0)
(-1.38576e-09 -0.00106506 0)
(4.75362e-08 -0.00106499 0)
(2.39191e-08 -0.00106483 0)
(-2.23941e-08 -0.00106483 0)
(-4.54555e-08 -0.00106498 0)
(-1.38602e-09 -0.00106506 0)
(4.7148e-08 -0.00106499 0)
(2.35727e-08 -0.00106482 0)
(-2.18595e-08 -0.00106483 0)
(-4.466e-08 -0.00106498 0)
(-1.36808e-09 -0.00106506 0)
(4.63087e-08 -0.00106499 0)
(2.29579e-08 -0.00106482 0)
(-2.10869e-08 -0.00106483 0)
(-4.34397e-08 -0.00106498 0)
(-1.33288e-09 -0.00106506 0)
(4.50439e-08 -0.00106499 0)
(2.20913e-08 -0.00106482 0)
(-2.00923e-08 -0.00106483 0)
(-4.18214e-08 -0.00106498 0)
(-1.28141e-09 -0.00106507 0)
(4.33804e-08 -0.00106499 0)
(2.09905e-08 -0.00106482 0)
(-1.88926e-08 -0.00106483 0)
(-3.98323e-08 -0.00106498 0)
(-1.21469e-09 -0.00106507 0)
(4.13459e-08 -0.001065 0)
(1.96733e-08 -0.00106482 0)
(-1.75048e-08 -0.00106483 0)
(-3.75008e-08 -0.00106498 0)
(-1.1338e-09 -0.00106507 0)
(3.89688e-08 -0.001065 0)
(1.81581e-08 -0.00106482 0)
(-1.59462e-08 -0.00106483 0)
(-3.48561e-08 -0.00106498 0)
(-1.03985e-09 -0.00106507 0)
(3.62785e-08 -0.001065 0)
(1.64633e-08 -0.00106482 0)
(-1.42346e-08 -0.00106483 0)
(-3.19278e-08 -0.00106498 0)
(-9.33984e-10 -0.00106507 0)
(3.33047e-08 -0.001065 0)
(1.46077e-08 -0.00106482 0)
(-1.23876e-08 -0.00106482 0)
(-2.87459e-08 -0.00106498 0)
(-8.17364e-10 -0.00106507 0)
(3.00778e-08 -0.001065 0)
(1.26104e-08 -0.00106482 0)
(-1.04229e-08 -0.00106482 0)
(-2.53406e-08 -0.00106498 0)
(-6.91173e-10 -0.00106507 0)
(2.66282e-08 -0.001065 0)
(1.04901e-08 -0.00106482 0)
(-8.35822e-09 -0.00106482 0)
(-2.17424e-08 -0.00106498 0)
(-5.56603e-10 -0.00106507 0)
(2.29862e-08 -0.001065 0)
(8.26565e-09 -0.00106482 0)
(-6.21094e-09 -0.00106482 0)
(-1.79814e-08 -0.00106498 0)
(-4.14845e-10 -0.00106507 0)
(1.91824e-08 -0.001065 0)
(5.9556e-09 -0.00106482 0)
(-3.99822e-09 -0.00106482 0)
(-1.40875e-08 -0.00106499 0)
(-2.67086e-10 -0.00106507 0)
(1.52465e-08 -0.001065 0)
(3.57817e-09 -0.00106482 0)
(-1.73677e-09 -0.00106482 0)
(-1.009e-08 -0.00106499 0)
(-1.14497e-10 -0.00106507 0)
(1.12081e-08 -0.001065 0)
(1.15111e-09 -0.00106482 0)
(5.57216e-10 -0.00106482 0)
(-6.01738e-09 -0.00106499 0)
(4.17749e-11 -0.00106507 0)
(7.09589e-09 -0.001065 0)
(-1.3084e-09 -0.00106482 0)
(2.86817e-09 -0.00106482 0)
(-1.89746e-09 -0.00106499 0)
(2.00614e-10 -0.00106507 0)
(2.93754e-09 -0.001065 0)
(-3.78387e-09 -0.00106482 0)
(5.18127e-09 -0.00106482 0)
(2.24324e-09 -0.00106499 0)
(3.60942e-10 -0.00106507 0)
(-1.24028e-09 -0.001065 0)
(-6.25959e-09 -0.00106482 0)
(7.48251e-09 -0.00106482 0)
(6.37944e-09 -0.00106498 0)
(5.21731e-10 -0.00106507 0)
(-5.41223e-09 -0.001065 0)
(-8.72075e-09 -0.00106482 0)
(9.75881e-09 -0.00106482 0)
(1.04873e-08 -0.00106498 0)
(6.82005e-10 -0.00106507 0)
(-9.55444e-09 -0.001065 0)
(-1.11535e-08 -0.00106482 0)
(1.19981e-08 -0.00106482 0)
(1.45447e-08 -0.00106498 0)
(8.4085e-10 -0.00106507 0)
(-1.36447e-08 -0.001065 0)
(-1.35452e-08 -0.00106482 0)
(1.41894e-08 -0.00106482 0)
(1.85311e-08 -0.00106498 0)
(9.97419e-10 -0.00106507 0)
(-1.76625e-08 -0.001065 0)
(-1.58841e-08 -0.00106482 0)
(1.63228e-08 -0.00106482 0)
(2.24279e-08 -0.00106498 0)
(1.15094e-09 -0.00106507 0)
(-2.15892e-08 -0.001065 0)
(-1.816e-08 -0.00106482 0)
(1.83898e-08 -0.00106482 0)
(2.62186e-08 -0.00106498 0)
(1.30072e-09 -0.00106507 0)
(-2.54083e-08 -0.001065 0)
(-2.03637e-08 -0.00106482 0)
(2.03827e-08 -0.00106483 0)
(2.98886e-08 -0.00106498 0)
(1.44613e-09 -0.00106507 0)
(-2.91052e-08 -0.00106499 0)
(-2.24875e-08 -0.00106482 0)
(2.22955e-08 -0.00106483 0)
(3.34255e-08 -0.00106498 0)
(1.58666e-09 -0.00106507 0)
(-3.26676e-08 -0.00106499 0)
(-2.45248e-08 -0.00106482 0)
(2.41232e-08 -0.00106483 0)
(3.68191e-08 -0.00106498 0)
(1.72186e-09 -0.00106507 0)
(-3.60851e-08 -0.00106499 0)
(-2.64706e-08 -0.00106482 0)
(2.58621e-08 -0.00106483 0)
(4.00611e-08 -0.00106498 0)
(1.85135e-09 -0.00106507 0)
(-3.93496e-08 -0.00106499 0)
(-2.8321e-08 -0.00106482 0)
(2.75097e-08 -0.00106483 0)
(4.31454e-08 -0.00106498 0)
(1.97487e-09 -0.00106507 0)
(-4.2455e-08 -0.00106499 0)
(-3.00734e-08 -0.00106482 0)
(2.90645e-08 -0.00106483 0)
(4.6068e-08 -0.00106498 0)
(2.09223e-09 -0.00106506 0)
(-4.53973e-08 -0.00106499 0)
(-3.17267e-08 -0.00106482 0)
(3.05264e-08 -0.00106483 0)
(4.88267e-08 -0.00106498 0)
(2.20329e-09 -0.00106506 0)
(-4.81744e-08 -0.00106499 0)
(-3.32804e-08 -0.00106483 0)
(3.18961e-08 -0.00106483 0)
(5.14212e-08 -0.00106498 0)
(2.30802e-09 -0.00106506 0)
(-5.07859e-08 -0.00106499 0)
(-3.47356e-08 -0.00106483 0)
(3.31751e-08 -0.00106483 0)
(5.38525e-08 -0.00106498 0)
(2.40643e-09 -0.00106506 0)
(-5.32331e-08 -0.00106499 0)
(-3.60941e-08 -0.00106483 0)
(3.43658e-08 -0.00106484 0)
(5.61234e-08 -0.00106498 0)
(2.49859e-09 -0.00106506 0)
(-5.55186e-08 -0.00106499 0)
(-3.73584e-08 -0.00106483 0)
(3.54711e-08 -0.00106484 0)
(5.82376e-08 -0.00106498 0)
(2.58462e-09 -0.00106506 0)
(-5.76462e-08 -0.00106499 0)
(-3.85318e-08 -0.00106483 0)
(3.64945e-08 -0.00106484 0)
(6.01996e-08 -0.00106498 0)
(2.66468e-09 -0.00106505 0)
(-5.96205e-08 -0.00106499 0)
(-3.9618e-08 -0.00106483 0)
(3.74397e-08 -0.00106484 0)
(6.20147e-08 -0.00106498 0)
(2.73895e-09 -0.00106505 0)
(-6.14469e-08 -0.00106499 0)
(-4.06211e-08 -0.00106484 0)
(3.83104e-08 -0.00106484 0)
(6.36884e-08 -0.00106498 0)
(2.80762e-09 -0.00106505 0)
(-6.31309e-08 -0.00106499 0)
(-4.1545e-08 -0.00106484 0)
(3.91103e-08 -0.00106485 0)
(6.52261e-08 -0.00106498 0)
(2.87087e-09 -0.00106505 0)
(-6.4678e-08 -0.00106499 0)
(-4.23937e-08 -0.00106484 0)
(3.98428e-08 -0.00106485 0)
(6.66329e-08 -0.00106498 0)
(2.92888e-09 -0.00106504 0)
(-6.60933e-08 -0.00106499 0)
(-4.31709e-08 -0.00106484 0)
(4.05105e-08 -0.00106485 0)
(6.7913e-08 -0.00106498 0)
(2.98179e-09 -0.00106504 0)
(-6.73809e-08 -0.00106498 0)
(-4.38794e-08 -0.00106484 0)
(4.11155e-08 -0.00106485 0)
(6.90694e-08 -0.00106497 0)
(3.02968e-09 -0.00106504 0)
(-6.85441e-08 -0.00106498 0)
(-4.45216e-08 -0.00106485 0)
(4.16589e-08 -0.00106485 0)
(7.01038e-08 -0.00106497 0)
(3.07259e-09 -0.00106504 0)
(-6.95844e-08 -0.00106498 0)
(-4.50984e-08 -0.00106485 0)
(4.21403e-08 -0.00106486 0)
(7.10156e-08 -0.00106497 0)
(3.11047e-09 -0.00106503 0)
(-7.05014e-08 -0.00106498 0)
(-4.56097e-08 -0.00106485 0)
(4.2558e-08 -0.00106486 0)
(7.1802e-08 -0.00106497 0)
(3.14318e-09 -0.00106503 0)
(-7.12922e-08 -0.00106498 0)
(-4.60535e-08 -0.00106485 0)
(4.29087e-08 -0.00106486 0)
(7.24576e-08 -0.00106497 0)
(3.17045e-09 -0.00106503 0)
(-7.19515e-08 -0.00106498 0)
(-4.64262e-08 -0.00106485 0)
(4.31883e-08 -0.00106486 0)
(7.29761e-08 -0.00106497 0)
(3.19201e-09 -0.00106502 0)
(-7.24729e-08 -0.00106498 0)
(-4.67234e-08 -0.00106486 0)
(4.33931e-08 -0.00106487 0)
(7.33518e-08 -0.00106497 0)
(3.20759e-09 -0.00106502 0)
(-7.28508e-08 -0.00106498 0)
(-4.69415e-08 -0.00106486 0)
(4.35158e-08 -0.00106487 0)
(7.35733e-08 -0.00106497 0)
(3.21668e-09 -0.00106502 0)
(-7.30737e-08 -0.00106498 0)
(-4.70725e-08 -0.00106486 0)
)
;

boundaryField
{
    BotWall
    {
        type            fixedValue;
        value           uniform (0 0 0);
    }
    FreeStream
    {
        type            zeroGradient;
    }
    FrontNBack
    {
        type            empty;
    }
    LeftSide
    {
        type            symmetryPlane;
    }
    RightSide
    {
        type            symmetryPlane;
    }
}


// ************************************************************************* //
