/*--------------------------------*- C++ -*----------------------------------*\
| =========                 |                                                 |
| \\      /  F ield         | OpenFOAM: The Open Source CFD Toolbox           |
|  \\    /   O peration     | Version:  2.4.0                                 |
|   \\  /    A nd           | Web:      www.OpenFOAM.org                      |
|    \\/     M anipulation  |                                                 |
\*---------------------------------------------------------------------------*/
FoamFile
{
    version     2.0;
    format      ascii;
    class       volScalarField;
    location    "0.5";
    object      H;
}
// * * * * * * * * * * * * * * * * * * * * * * * * * * * * * * * * * * * * * //

dimensions      [0 2 -2 0 0 0 0];

internalField   nonuniform List<scalar> 
125
(
-11582.5
-11582.5
-11582.5
-11582.5
-11582.5
-10279.8
-10279.8
-10279.8
-10279.8
-10279.8
-8961.67
-8961.66
-8961.66
-8961.66
-8961.67
-7627.1
-7627.09
-7627.09
-7627.09
-7627.1
-6275.22
-6275.21
-6275.21
-6275.21
-6275.22
-4905.1
-4905.09
-4905.09
-4905.08
-4905.1
-3515.8
-3515.79
-3515.78
-3515.78
-3515.8
-2106.36
-2106.35
-2106.34
-2106.34
-2106.37
-83.5256
-83.5223
-83.5213
-83.5203
-83.5266
-63.4268
-63.4242
-63.4235
-63.4227
-63.4276
-64.3945
-64.392
-64.3913
-64.3905
-64.3954
-65.2921
-65.2896
-65.2888
-65.2881
-65.2929
-66.1173
-66.1149
-66.1141
-66.1134
-66.1181
-66.8685
-66.866
-66.8653
-66.8645
-66.8693
-67.5438
-67.5414
-67.5406
-67.5399
-67.5446
-68.1417
-68.1393
-68.1385
-68.1378
-68.1424
-68.6606
-68.6582
-68.6575
-68.6568
-68.6613
-69.0993
-69.097
-69.0963
-69.0955
-69.1
-69.4567
-69.4544
-69.4537
-69.453
-69.4574
-69.7318
-69.7295
-69.7288
-69.7281
-69.7324
-69.9237
-69.9215
-69.9208
-69.9201
-69.9244
-70.0321
-70.0299
-70.0292
-70.0285
-70.0327
-70.0564
-70.0543
-70.0536
-70.0529
-70.057
-69.9966
-69.9945
-69.9938
-69.9932
-69.9972
-69.8527
-69.8506
-69.85
-69.8493
-69.8532
)
;

boundaryField
{
    BotWall
    {
        type            zeroGradient;
    }
    FreeStream
    {
        type            zeroGradient;
    }
    FrontNBack
    {
        type            empty;
    }
    LeftSide
    {
        type            symmetryPlane;
    }
    RightSide
    {
        type            symmetryPlane;
    }
    procBoundary0to1
    {
        type            processor;
        value           nonuniform List<scalar> 5(-69.6098 -69.6078 -69.6072 -69.6066 -69.6103);
    }
}


// ************************************************************************* //
