/*--------------------------------*- C++ -*----------------------------------*\
| =========                 |                                                 |
| \\      /  F ield         | OpenFOAM: The Open Source CFD Toolbox           |
|  \\    /   O peration     | Version:  2.4.0                                 |
|   \\  /    A nd           | Web:      www.OpenFOAM.org                      |
|    \\/     M anipulation  |                                                 |
\*---------------------------------------------------------------------------*/
FoamFile
{
    version     2.0;
    format      ascii;
    class       surfaceScalarField;
    location    "0.5";
    object      phi;
}
// * * * * * * * * * * * * * * * * * * * * * * * * * * * * * * * * * * * * * //

dimensions      [0 3 -1 0 0 0 0];

internalField   nonuniform List<scalar> 
220
(
6.38702e-19
-6.38995e-19
4.59377e-19
1.79523e-19
-2.93125e-19
7.5266e-19
-8.56684e-19
5.63599e-19
-8.56882e-19
1.9574e-18
-2.597e-18
1.39973e-18
7.36203e-19
-8.95294e-19
3.04632e-18
-2.62247e-18
2.2897e-18
-3.48011e-18
3.30418e-18
-5.90188e-18
2.3655e-18
1.67383e-18
-1.51521e-18
6.92563e-18
-4.43114e-18
5.20458e-18
-7.91195e-18
4.7023e-18
-1.06049e-17
3.37524e-18
2.99987e-18
-2.17211e-18
1.24717e-17
-6.30655e-18
9.33806e-18
-1.42191e-17
6.14176e-18
-1.67473e-17
4.41824e-18
4.72248e-18
-2.85757e-18
1.97464e-17
-8.23355e-18
1.47133e-17
-2.24531e-17
7.768e-18
-2.45158e-17
5.50679e-18
6.98305e-18
-3.5761e-18
2.88285e-17
-1.0368e-17
2.15046e-17
-3.28214e-17
9.5895e-18
-3.41056e-17
6.55199e-18
1.00202e-17
-4.23117e-18
3.96112e-17
-1.27442e-17
3.00174e-17
-4.55657e-17
1.12959e-17
-1.58702e-16
7.5414e-18
1.37743e-17
-4.72059e-18
5.18733e-17
-1.51736e-17
4.04712e-17
-2.12333e-16
1.22064e-17
-5.72971e-10
8.6652e-18
-5.72971e-10
-4.9467e-18
-5.72971e-10
-1.74385e-17
-5.72972e-10
-5.7297e-10
1.29565e-17
-5.72971e-10
9.32118e-18
-5.72971e-10
-5.94744e-18
-5.72971e-10
-1.76014e-17
-5.72972e-10
-5.7297e-10
1.85843e-17
-5.72971e-10
7.95346e-18
-5.72971e-10
-7.87007e-18
-5.72971e-10
-2.69682e-17
-5.72972e-10
-5.72971e-10
1.00368e-17
-5.72971e-10
7.09167e-18
-5.72971e-10
-1.0903e-17
-5.72971e-10
-2.12995e-17
-5.72972e-10
-5.72971e-10
7.94891e-18
-5.72971e-10
5.02549e-18
-5.72971e-10
-1.26193e-17
-5.72971e-10
-2.23153e-17
-5.72972e-10
-5.72971e-10
7.55071e-18
-5.72971e-10
3.08987e-18
-5.72971e-10
-1.44303e-17
-5.72971e-10
-2.51149e-17
-5.72972e-10
-5.72971e-10
6.46675e-18
-5.72971e-10
1.42128e-18
-5.72971e-10
-1.65213e-17
-5.72971e-10
-2.72351e-17
-5.72972e-10
-5.72971e-10
4.84375e-18
-5.72971e-10
-2.26018e-19
-5.72971e-10
-1.86521e-17
-5.72971e-10
-2.88045e-17
-5.72972e-10
-5.72971e-10
3.20296e-18
-5.72971e-10
-1.92741e-18
-5.72971e-10
-2.07398e-17
-5.72971e-10
-3.03451e-17
-5.72972e-10
-5.72971e-10
1.67901e-18
-5.72971e-10
-3.64963e-18
-5.72971e-10
-2.28112e-17
-5.72971e-10
-3.19906e-17
-5.72972e-10
-5.72971e-10
2.26149e-19
-5.72971e-10
-5.3626e-18
-5.72971e-10
-2.48912e-17
-5.72971e-10
-3.36917e-17
-5.72972e-10
-5.72971e-10
-1.19314e-18
-5.72971e-10
-7.0592e-18
-5.72971e-10
-2.69824e-17
-5.72971e-10
-3.54062e-17
-5.72972e-10
-5.72971e-10
-2.58254e-18
-5.72971e-10
-8.74004e-18
-5.72971e-10
-2.90794e-17
-5.72971e-10
-3.71258e-17
-5.72972e-10
-5.72971e-10
-3.93506e-18
-5.72971e-10
-1.04046e-17
-5.72971e-10
-3.11776e-17
-5.72971e-10
-3.88531e-17
-5.72972e-10
-5.72971e-10
-5.24536e-18
-5.72971e-10
-1.20504e-17
-5.72971e-10
-3.32743e-17
-5.72971e-10
-4.05886e-17
-5.72972e-10
-5.72971e-10
-6.5104e-18
-5.72971e-10
-1.36749e-17
-5.72971e-10
-3.53672e-17
-5.72971e-10
-4.23312e-17
-5.72972e-10
-5.72971e-10
-7.72809e-18
-1.52752e-17
-3.74538e-17
-4.40775e-17
)
;

boundaryField
{
    BotWall
    {
        type            calculated;
        value           nonuniform List<scalar> 5(1.40512e-25 -1.46274e-23 -6.45951e-23 -4.97913e-23 2.2854e-25);
    }
    FreeStream
    {
        type            calculated;
        value           nonuniform 0();
    }
    FrontNBack
    {
        type            empty;
        value           nonuniform 0();
    }
    LeftSide
    {
        type            symmetryPlane;
        value           uniform 0;
    }
    RightSide
    {
        type            symmetryPlane;
        value           uniform 0;
    }
    procBoundary0to1
    {
        type            processor;
        value           nonuniform List<scalar> 5(-5.72971e-10 -5.72971e-10 -5.72971e-10 -5.72972e-10 -5.72971e-10);
    }
}


// ************************************************************************* //
