/*--------------------------------*- C++ -*----------------------------------*\
| =========                 |                                                 |
| \\      /  F ield         | OpenFOAM: The Open Source CFD Toolbox           |
|  \\    /   O peration     | Version:  2.4.0                                 |
|   \\  /    A nd           | Web:      www.OpenFOAM.org                      |
|    \\/     M anipulation  |                                                 |
\*---------------------------------------------------------------------------*/
FoamFile
{
    version     2.0;
    format      ascii;
    class       volScalarField;
    location    "0.5";
    object      T;
}
// * * * * * * * * * * * * * * * * * * * * * * * * * * * * * * * * * * * * * //

dimensions      [0 0 0 1 0 0 0];

internalField   nonuniform List<scalar> 
125
(
293.265
293.265
293.265
293.265
293.265
293.797
293.797
293.797
293.797
293.797
294.336
294.336
294.336
294.336
294.336
294.882
294.882
294.882
294.882
294.882
295.434
295.435
295.435
295.435
295.434
295.995
295.995
295.995
295.995
295.995
296.563
296.563
296.563
296.563
296.563
297.139
297.139
297.139
297.139
297.139
297.965
297.965
297.965
297.965
297.965
297.965
297.965
297.965
297.965
297.965
297.965
297.965
297.965
297.965
297.965
297.964
297.964
297.964
297.964
297.964
297.964
297.964
297.964
297.964
297.964
297.963
297.963
297.963
297.963
297.963
297.963
297.963
297.963
297.963
297.963
297.963
297.963
297.963
297.963
297.963
297.962
297.962
297.962
297.962
297.962
297.962
297.962
297.962
297.962
297.962
297.962
297.962
297.962
297.962
297.962
297.962
297.962
297.962
297.962
297.962
297.962
297.962
297.962
297.962
297.962
297.961
297.962
297.962
297.962
297.961
297.961
297.961
297.961
297.961
297.961
297.962
297.962
297.962
297.962
297.962
297.962
297.962
297.962
297.962
297.962
)
;

boundaryField
{
    BotWall
    {
        type            fixedValue;
        value           uniform 293;
    }
    FreeStream
    {
        type            fixedValue;
        value           nonuniform 0();
    }
    FrontNBack
    {
        type            empty;
    }
    LeftSide
    {
        type            symmetryPlane;
    }
    RightSide
    {
        type            symmetryPlane;
    }
    procBoundary0to1
    {
        type            processor;
        value           nonuniform List<scalar> 5(297.962 297.962 297.962 297.962 297.962);
    }
}


// ************************************************************************* //
