/*--------------------------------*- C++ -*----------------------------------*\
| =========                 |                                                 |
| \\      /  F ield         | OpenFOAM: The Open Source CFD Toolbox           |
|  \\    /   O peration     | Version:  2.4.0                                 |
|   \\  /    A nd           | Web:      www.OpenFOAM.org                      |
|    \\/     M anipulation  |                                                 |
\*---------------------------------------------------------------------------*/
FoamFile
{
    version     2.0;
    format      ascii;
    class       volScalarField;
    location    "0.5";
    object      p_rgh;
}
// * * * * * * * * * * * * * * * * * * * * * * * * * * * * * * * * * * * * * //

dimensions      [1 -1 -2 0 0 0 0];

internalField   nonuniform List<scalar> 
8000
(
80.119
80.1147
80.11
80.1054
80.101
80.0967
80.0924
80.0881
80.0839
80.0798
80.0757
80.0716
80.0676
80.0636
80.0596
80.0557
80.0519
80.048
80.0441
80.0401
80.0366
80.0357
80.0385
80.0294
79.9535
79.7821
54.2146
4.3336
0.141193
0.00799452
0.000727872
0.000368959
0.000184964
7.74357e-05
1.76925e-05
-1.46081e-05
-3.15508e-05
-4.01071e-05
-4.42299e-05
-4.61259e-05
-4.70563e-05
-4.77167e-05
-4.8405e-05
-4.91641e-05
-4.99286e-05
-5.06682e-05
-5.13345e-05
-5.19473e-05
-5.25165e-05
-5.30718e-05
81.3938
81.3905
81.3868
81.3832
81.3796
81.376
81.3724
81.3689
81.3653
81.3616
81.358
81.3544
81.3507
81.3471
81.3434
81.3397
81.3361
81.3323
81.3282
81.3238
81.3212
81.3264
81.3385
81.3039
81.0714
80.6429
31.135
1.0769
0.0422802
0.00234257
0.000526352
0.000273466
0.000129193
4.68437e-05
1.89764e-06
-2.18716e-05
-3.40048e-05
-3.99508e-05
-4.27478e-05
-4.40589e-05
-4.48104e-05
-4.54647e-05
-4.62604e-05
-4.72143e-05
-4.81776e-05
-4.91897e-05
-5.00377e-05
-5.07825e-05
-5.14153e-05
-5.20955e-05
82.7062
82.7033
82.7001
82.697
82.694
82.6911
82.6881
82.6852
82.6823
82.6794
82.6765
82.6737
82.6708
82.6681
82.6653
82.6626
82.6599
82.6571
82.6542
82.6511
82.6497
82.6541
82.6618
82.6283
82.4468
77.5766
15.0284
0.335847
0.0152213
0.001054
0.000417032
0.000207563
9.26282e-05
2.83296e-05
-6.31284e-06
-2.44023e-05
-3.34687e-05
-3.7871e-05
-4.01907e-05
-4.16559e-05
-4.27856e-05
-4.36442e-05
-4.46112e-05
-4.58773e-05
-4.70551e-05
-4.88159e-05
-5.01341e-05
-5.12736e-05
-5.18911e-05
-5.2669e-05
83.9852
83.9827
83.98
83.9773
83.9747
83.9721
83.9696
83.967
83.9645
83.962
83.9595
83.957
83.9545
83.952
83.9496
83.9472
83.9448
83.9424
83.9398
83.9372
83.9362
83.94
83.9442
83.9083
83.7513
69.7654
6.42976
0.141297
0.00646883
0.000764363
0.000331988
0.000158049
6.54922e-05
1.49142e-05
-1.2005e-05
-2.58348e-05
-3.23886e-05
-3.53556e-05
-3.74594e-05
-3.93947e-05
-4.16495e-05
-4.27773e-05
-4.35061e-05
-4.44694e-05
-4.47374e-05
-4.83143e-05
-5.02154e-05
-5.28186e-05
-5.33144e-05
-5.38667e-05
85.2843
85.2825
85.2804
85.2783
85.2763
85.2743
85.2722
85.2701
85.2681
85.266
85.2639
85.2618
85.2596
85.2575
85.2553
85.2532
85.251
85.2487
85.2463
85.2438
85.2429
85.2464
85.2493
85.211
85.0585
64.9776
3.72971
0.083774
0.00388289
0.000746914
0.000272272
0.000122718
4.50542e-05
3.8231e-06
-1.81821e-05
-2.96196e-05
-3.48374e-05
-3.6547e-05
-3.88445e-05
-4.09322e-05
-4.69885e-05
-4.976e-05
-5.03546e-05
-4.44966e-05
-4.08388e-05
-5.5027e-05
-5.48273e-05
-6.15117e-05
-6.27418e-05
-6.00896e-05
86.5664
86.5647
86.5627
86.5609
86.559
86.5572
86.5555
86.5537
86.552
86.5503
86.5486
86.547
86.5454
86.5438
86.5423
86.5408
86.5394
86.5379
86.5363
86.5347
86.5348
86.5394
86.544
86.5083
86.3564
65.5848
3.30895
0.0719043
0.00326701
0.000758291
0.000264623
0.000126773
5.69893e-05
2.29514e-05
4.58053e-06
-5.41386e-06
-1.10917e-05
-1.06846e-05
-1.30503e-05
-1.05159e-05
-2.46787e-05
-2.99941e-05
-3.18068e-05
1.3366e-05
-1.05642e-05
-5.38677e-05
-4.06566e-05
-5.18702e-05
-5.26588e-05
9.21774e-06
87.8772
87.8754
87.8735
87.8717
87.87
87.8683
87.8668
87.8653
87.8638
87.8625
87.8612
87.86
87.8589
87.8579
87.8569
87.8561
87.8553
87.8546
87.8537
87.8528
87.8535
87.8597
87.8686
87.8391
87.6737
75.5288
4.72905
0.075512
0.00340097
0.000690687
0.00023814
8.97029e-05
1.61139e-05
-1.20831e-05
-3.01946e-05
-4.04204e-05
-5.2752e-05
-5.30256e-05
-6.14755e-05
-4.91981e-05
-8.29263e-05
-9.19686e-05
-9.85692e-05
-1.6191e-05
-0.000112494
-0.000176272
-5.49053e-05
-0.000100823
-0.000103309
-8.84362e-05
89.1363
89.1344
89.1322
89.1301
89.1281
89.1261
89.1241
89.1222
89.1203
89.1185
89.1167
89.1149
89.1132
89.1115
89.1099
89.1084
89.1069
89.1054
89.1036
89.1017
89.1016
89.1095
89.124
89.0889
88.8518
87.0726
17.6059
0.236374
0.00409304
0.000772229
0.000362651
0.000144897
5.583e-05
3.79024e-05
1.43015e-05
5.19093e-06
-1.10068e-05
-1.29792e-05
-3.53771e-05
5.95738e-06
-8.06172e-05
-8.09238e-05
-8.40283e-05
4.95601e-05
0.000100069
-0.000145184
-0.000127992
-0.000152798
-0.000156409
-8.02017e-05
90.4435
90.4392
90.4347
90.4306
90.4269
90.4235
90.4205
90.4177
90.4153
90.4132
90.4113
90.4098
90.4086
90.4077
90.4072
90.4069
90.407
90.4074
90.408
90.4087
90.4102
90.415
90.4246
90.4229
90.3478
90.1532
51.3805
3.43132
0.0964958
0.00136615
0.000502092
0.000133217
4.52682e-05
3.63755e-05
-7.07116e-06
-2.18444e-05
-3.69524e-05
-4.56793e-05
-9.89931e-05
-0.000123728
-0.00014142
-0.00014662
-0.000153484
-0.000160934
-0.000168444
-0.000169113
-0.000174328
-0.000175412
-0.000178962
-0.00018351
91.6961
91.6908
91.6853
91.6802
91.6756
91.6713
91.6673
91.6635
91.66
91.6568
91.6539
91.6512
91.6488
91.6466
91.6448
91.6432
91.6419
91.6409
91.6402
91.6394
91.6388
91.6403
91.6497
91.6651
91.6325
91.4099
84.7327
27.6824
2.48154
0.121267
0.00285681
0.00013461
0.000128898
0.000108689
4.37398e-05
1.8282e-05
5.54893e-06
-2.37558e-05
-9.8249e-05
-0.000124502
-0.000128452
-0.000134767
-0.000142735
-0.000150244
-0.000153345
-0.000166347
-0.000170232
-0.000176038
-0.000181351
-0.000185851
92.8126
92.807
92.8008
92.7951
92.7899
92.7851
92.7807
92.7766
92.7729
92.7695
92.7665
92.7638
92.7615
92.7596
92.758
92.7568
92.7559
92.7555
92.7555
92.7558
92.7563
92.7572
92.7606
92.7706
92.7818
92.7424
92.5478
78.7725
25.7524
3.52725
0.259447
0.00758419
0.000252564
0.000184288
9.38175e-05
2.51739e-05
1.47231e-05
-3.07817e-05
-7.26838e-05
-0.000115777
-0.000116677
-0.000120734
-0.000127925
-0.000136577
-0.000145845
-0.000152134
-0.000159317
-0.00016602
-0.000171115
-0.000174593
94.0606
94.058
94.0554
94.0529
94.0501
94.0471
94.0439
94.0404
94.0367
94.0327
94.0285
94.0241
94.0194
94.0144
94.0092
94.0038
93.998
93.992
93.9857
93.9791
93.9721
93.9646
93.9567
93.9503
93.9492
93.9482
93.8999
93.7097
83.0611
34.8789
7.03547
0.75113
0.0534785
0.00279156
0.000182847
0.000147421
0.00014694
3.2481e-05
9.39466e-06
-2.90534e-05
-2.28796e-05
-2.85359e-05
-3.63249e-05
-4.64061e-05
-5.82404e-05
-6.59483e-05
-7.35172e-05
-8.02329e-05
-8.46949e-05
-8.67689e-05
94.9164
94.9167
94.9158
94.9142
94.912
94.9093
94.9062
94.9025
94.8983
94.8936
94.8884
94.8827
94.8765
94.8697
94.8624
94.8546
94.8462
94.8372
94.8277
94.8176
94.807
94.7957
94.7835
94.7706
94.7587
94.752
94.7476
94.7011
94.5076
89.8102
52.249
15.9049
3.20383
0.405452
0.0259292
0.00172207
0.000233789
0.000174757
0.000184046
8.45745e-05
0.000111067
5.47424e-05
4.46261e-05
2.91841e-05
4.30657e-06
-5.73337e-06
-1.54439e-05
-2.54723e-05
-3.30184e-05
-3.51006e-05
96.5968
96.5959
96.5958
96.5957
96.5951
96.5941
96.5926
96.5906
96.5882
96.5854
96.5821
96.5783
96.5742
96.5695
96.5645
96.559
96.553
96.5466
96.5398
96.5325
96.5249
96.5168
96.5083
96.4993
96.4897
96.48
96.4716
96.4673
96.4601
96.4078
96.2208
79.1151
38.4159
11.7642
2.24969
0.311295
0.0194975
0.00149639
0.000666345
0.000645797
0.0010271
0.000377884
0.000378439
0.000362562
0.000287341
0.000267605
0.000250154
0.000227263
0.00020047
0.000189014
97.2967
97.3027
97.3071
97.3098
97.3112
97.3115
97.3108
97.309
97.3062
97.3024
97.2974
97.2915
97.2844
97.2763
97.2672
97.2569
97.2455
97.233
97.2194
97.2045
97.1885
97.1713
97.1527
97.1329
97.1117
97.0891
97.0652
97.0407
97.0155
96.9846
96.9317
96.7986
94.1669
69.4934
31.7762
10.8271
2.34311
0.333622
0.0329033
0.00177333
0.00121051
0.000541631
0.000456105
0.000678748
0.000230312
0.000238994
0.000247165
0.000239338
0.000186117
0.000171962
99.4507
99.4543
99.4594
99.4638
99.4671
99.4693
99.4705
99.4708
99.4702
99.4687
99.4663
99.463
99.4588
99.4537
99.4478
99.441
99.4333
99.4246
99.415
99.4044
99.3929
99.3802
99.3665
99.3516
99.3355
99.3181
99.2993
99.279
99.2571
99.2335
99.208
99.1815
99.1562
99.0922
95.73
75.2579
39.9674
15.334
4.4799
0.675811
0.110215
0.0104136
0.00458265
0.00134535
0.000478431
0.000430937
0.000515094
0.000750759
0.000373977
0.00037755
100.326
100.326
100.324
100.321
100.318
100.316
100.313
100.31
100.307
100.304
100.301
100.298
100.295
100.292
100.289
100.287
100.284
100.281
100.278
100.275
100.272
100.27
100.267
100.264
100.261
100.259
100.256
100.253
100.25
100.247
100.244
100.239
100.23
100.214
100.219
100.232
99.2941
86.4502
61.5532
28.3992
10.1956
2.62351
0.46642
0.127367
0.0240813
0.0135537
0.00478915
0.00186602
0.000602554
0.000418142
103.054
103.048
103.043
103.038
103.031
103.023
103.014
103.005
102.997
102.989
102.981
102.975
102.971
102.967
102.966
102.966
102.968
102.973
102.98
102.989
103.001
103.015
103.032
103.052
103.075
103.101
103.13
103.162
103.197
103.235
103.276
103.321
103.37
103.422
103.47
103.501
103.539
103.592
103.612
99.2555
89.5287
64.216
26.991
11.6745
3.7385
1.02302
0.334552
0.157965
0.0667517
0.00312577
103.202
103.227
103.244
103.252
103.254
103.252
103.247
103.241
103.234
103.227
103.22
103.213
103.208
103.205
103.203
103.204
103.207
103.213
103.222
103.234
103.249
103.268
103.289
103.315
103.344
103.376
103.412
103.451
103.494
103.541
103.591
103.644
103.701
103.76
103.823
103.889
103.955
104.015
104.06
104.088
104.129
104.076
102.304
95.7289
73.6645
34.8543
16.7149
6.03281
4.3495
0.336464
108.877
108.445
108.011
107.637
107.312
107.02
106.756
106.517
106.301
106.107
105.932
105.776
105.636
105.514
105.406
105.313
105.234
105.169
105.117
105.077
105.051
105.036
105.034
105.044
105.065
105.099
105.145
105.202
105.272
105.355
105.45
105.559
105.681
105.818
105.97
106.138
106.324
106.528
106.759
107.009
107.294
107.594
107.891
108.2
108.119
106.843
103.919
94.5108
117.621
50.6905
-5.35996e-05
-5.41071e-05
-5.45499e-05
-5.49308e-05
-5.52304e-05
-5.54983e-05
-5.57753e-05
-5.60646e-05
-5.62787e-05
-5.64428e-05
-5.65811e-05
-5.66999e-05
-5.67992e-05
-5.68744e-05
-5.69259e-05
-5.69609e-05
-5.69803e-05
-5.69955e-05
-5.69855e-05
-5.69588e-05
-5.69221e-05
-5.68772e-05
-5.68251e-05
-5.67665e-05
-5.67028e-05
-5.6635e-05
-5.65647e-05
-5.64929e-05
-5.64209e-05
-5.635e-05
-5.62813e-05
-5.62158e-05
-5.61545e-05
-5.6098e-05
-5.60474e-05
-5.60031e-05
-5.5966e-05
-5.59365e-05
-5.59153e-05
-5.59027e-05
-5.58993e-05
-5.59052e-05
-5.59208e-05
-5.59463e-05
-5.59817e-05
-5.60274e-05
-5.60826e-05
-5.61456e-05
-5.62161e-05
-5.63078e-05
-5.27775e-05
-5.35351e-05
-5.41508e-05
-5.47046e-05
-5.50535e-05
-5.52965e-05
-5.55659e-05
-5.604e-05
-5.63456e-05
-5.65218e-05
-5.66429e-05
-5.67362e-05
-5.68126e-05
-5.68525e-05
-5.68399e-05
-5.68069e-05
-5.6741e-05
-5.67488e-05
-5.66815e-05
-5.65645e-05
-5.64295e-05
-5.62835e-05
-5.61299e-05
-5.59665e-05
-5.57971e-05
-5.56197e-05
-5.54373e-05
-5.52493e-05
-5.5058e-05
-5.48667e-05
-5.46779e-05
-5.44933e-05
-5.43145e-05
-5.41428e-05
-5.39794e-05
-5.38254e-05
-5.36819e-05
-5.35496e-05
-5.34294e-05
-5.33219e-05
-5.32278e-05
-5.31474e-05
-5.30813e-05
-5.30295e-05
-5.29925e-05
-5.29704e-05
-5.29627e-05
-5.29677e-05
-5.29831e-05
-5.30171e-05
-5.34543e-05
-5.48448e-05
-5.57682e-05
-5.67789e-05
-5.73699e-05
-5.75424e-05
-5.75775e-05
-5.85307e-05
-5.91867e-05
-5.95045e-05
-5.9669e-05
-5.97553e-05
-5.98383e-05
-5.98849e-05
-5.97705e-05
-5.96215e-05
-5.93108e-05
-5.9533e-05
-5.95423e-05
-5.93767e-05
-5.91619e-05
-5.89249e-05
-5.86916e-05
-5.84508e-05
-5.82244e-05
-5.79946e-05
-5.77719e-05
-5.75393e-05
-5.72936e-05
-5.70421e-05
-5.67912e-05
-5.65452e-05
-5.63066e-05
-5.60768e-05
-5.58569e-05
-5.56476e-05
-5.54501e-05
-5.52654e-05
-5.50949e-05
-5.49402e-05
-5.48026e-05
-5.4683e-05
-5.45822e-05
-5.45005e-05
-5.44382e-05
-5.43953e-05
-5.43709e-05
-5.43626e-05
-5.43688e-05
-5.44055e-05
-5.38438e-05
-5.65357e-05
-5.77739e-05
-5.93748e-05
-6.06965e-05
-6.07107e-05
-5.99616e-05
-6.13506e-05
-6.27381e-05
-6.34061e-05
-6.37505e-05
-6.38323e-05
-6.38689e-05
-6.39599e-05
-6.35262e-05
-6.26205e-05
-6.14145e-05
-6.23052e-05
-6.26853e-05
-6.25007e-05
-6.21623e-05
-6.17117e-05
-6.1252e-05
-6.07569e-05
-6.03395e-05
-5.99532e-05
-5.96552e-05
-5.93792e-05
-5.90766e-05
-5.87498e-05
-5.84094e-05
-5.80706e-05
-5.77426e-05
-5.743e-05
-5.71349e-05
-5.68556e-05
-5.65889e-05
-5.63312e-05
-5.608e-05
-5.58341e-05
-5.55944e-05
-5.53632e-05
-5.51439e-05
-5.49404e-05
-5.47561e-05
-5.45934e-05
-5.44529e-05
-5.43324e-05
-5.42288e-05
-5.41546e-05
-5.92735e-05
-6.09617e-05
-6.37826e-05
-6.45317e-05
-6.61885e-05
-6.69243e-05
-6.52575e-05
-6.31382e-05
-6.69521e-05
-6.78962e-05
-6.85911e-05
-6.86351e-05
-6.85394e-05
-6.85973e-05
-6.75357e-05
-6.30525e-05
-6.11204e-05
-6.21269e-05
-6.35018e-05
-6.33963e-05
-6.3064e-05
-6.25032e-05
-6.17996e-05
-6.09325e-05
-6.0102e-05
-5.93894e-05
-5.89953e-05
-5.88569e-05
-5.8777e-05
-5.87282e-05
-5.86362e-05
-5.85432e-05
-5.84587e-05
-5.8406e-05
-5.8418e-05
-5.84872e-05
-5.86156e-05
-5.87789e-05
-5.89568e-05
-5.91358e-05
-5.93023e-05
-5.94447e-05
-5.95559e-05
-5.96341e-05
-5.9683e-05
-5.97105e-05
-5.97258e-05
-5.97368e-05
-5.97486e-05
-5.97833e-05
6.1315e-05
-0.000107948
-9.14906e-05
-0.000106331
-9.59723e-05
-0.000100133
-7.81273e-05
-0.000101379
-8.65884e-05
-9.77467e-05
-9.02724e-05
-9.44307e-05
-9.16333e-05
-9.14008e-05
-8.94025e-05
-7.4096e-05
-7.05679e-05
-8.09591e-05
-8.34013e-05
-8.28884e-05
-8.23244e-05
-8.16547e-05
-8.08429e-05
-7.95971e-05
-7.78556e-05
-7.60002e-05
-7.42538e-05
-7.41277e-05
-7.36136e-05
-7.38707e-05
-7.34605e-05
-7.32772e-05
-7.27725e-05
-7.2326e-05
-7.17954e-05
-7.14494e-05
-7.12579e-05
-7.11836e-05
-7.12456e-05
-7.14182e-05
-7.16555e-05
-7.19141e-05
-7.21536e-05
-7.23385e-05
-7.24432e-05
-7.24537e-05
-7.23688e-05
-7.21977e-05
-7.19537e-05
-7.1668e-05
-8.46057e-05
-9.78128e-05
-0.0001054
-0.000108288
-0.000112189
-0.000100656
-0.000106069
-0.000110504
-0.000120029
-0.000122771
-0.00012665
-0.000130311
-0.00013395
-0.000139083
-0.000149245
-0.000103952
9.37169e-05
-5.9098e-05
-6.24318e-05
-6.53755e-05
-6.83478e-05
-7.11152e-05
-7.38242e-05
-7.60252e-05
-7.26473e-05
-7.29037e-05
2.60317e-05
-7.5013e-05
-6.88214e-05
-7.79799e-05
-7.35073e-05
-8.00844e-05
-7.30514e-05
-8.01622e-05
-8.75337e-05
-8.82185e-05
-8.82476e-05
-8.90022e-05
-8.95527e-05
-9.02129e-05
-9.10304e-05
-9.19698e-05
-9.29699e-05
-9.39592e-05
-9.48648e-05
-9.56222e-05
-9.61838e-05
-9.65253e-05
-9.66369e-05
-9.65358e-05
-1.9544e-05
-0.000201016
-0.000202944
-0.000205569
-0.000205404
-0.000174182
-0.00012293
-0.00018142
-0.000190425
-0.000192467
-0.00019486
-0.000198261
-0.000199896
-0.000168218
-2.98632e-05
-0.000132444
-9.85738e-05
-8.03721e-05
-0.000166526
-0.000167562
-0.000168427
-0.00016979
-0.000171574
-0.000170334
-0.000151846
-0.000151784
-0.000152995
-0.000111261
-0.000155401
-0.000147237
-0.000153544
-0.000156883
-0.000157114
-0.000154975
-0.000152575
-0.000149952
-0.000147019
-0.000143829
-0.000141527
-0.000140554
-0.000139605
-0.000138815
-0.000138237
-0.000137826
-0.000137497
-0.00013715
-0.000136692
-0.00013605
-0.00013517
-0.000133985
-0.000186919
-0.000190577
-0.000192837
-0.000195577
-0.000198353
-0.000201302
-0.000205001
-0.000208258
-0.000211337
-0.000213888
-0.000216372
-0.000218753
-0.000220587
-0.000222181
-0.000224277
-0.000226129
-0.00022684
-0.000229421
-0.000230977
-0.000231819
-0.000232143
-0.00023229
-0.000232217
-0.000231653
-0.000230951
-0.000230555
-0.000229973
-0.000228763
-0.000226106
-0.000224622
-0.000222245
-0.000220554
-0.000217369
-0.000214366
-0.00020727
-0.000204108
-0.000196909
-0.000198125
-0.00019659
-0.000194977
-0.000193495
-0.000192158
-0.000190944
-0.000189806
-0.000188674
-0.000187466
-0.0001861
-0.000184516
-0.000182672
-0.000180536
-0.0001897
-0.000193165
-0.000196561
-0.000199933
-0.000203309
-0.000206702
-0.0002101
-0.000213527
-0.000216933
-0.000220254
-0.000223441
-0.000226472
-0.000229361
-0.000232032
-0.000234526
-0.000236844
-0.000238945
-0.000240827
-0.000242526
-0.00024394
-0.000245059
-0.000246003
-0.000246739
-0.000245714
-0.000246257
-0.000245961
-0.000232788
-0.000236778
-0.000238159
-0.000237228
-0.000232424
-0.000234547
-0.000222585
-0.000227832
-5.97966e-05
-0.000202082
-0.000194373
-0.000204241
-0.000202188
-0.000199967
-0.000198365
-0.000196937
-0.000195186
-0.00019308
-0.000190823
-0.000188522
-0.000186107
-0.000183473
-0.000180594
-0.000177444
-0.000177379
-0.000180027
-0.00018288
-0.000185954
-0.000189156
-0.000192436
-0.000195751
-0.000199062
-0.000202337
-0.000205547
-0.000208663
-0.000211659
-0.000214515
-0.000217218
-0.000219743
-0.000222067
-0.00022417
-0.000226017
-0.000227559
-0.000228737
-0.000229461
-0.000230438
-0.000231374
-0.000219801
-0.000223075
-0.00022389
-0.000175706
-0.000187466
-0.000203368
-0.000151652
-0.000229843
-0.000235421
-0.00023412
-0.000232406
-0.000230984
-0.000228422
-0.000227584
-0.000225501
-0.000223882
-0.00022165
-0.00021909
-0.00021631
-0.000213345
-0.000210253
-0.000207087
-0.000203876
-0.000200636
-0.000197385
-0.000194163
-0.000190989
-8.80884e-05
-8.94032e-05
-9.10492e-05
-9.29619e-05
-9.49969e-05
-9.71461e-05
-9.93887e-05
-0.000101697
-0.000104048
-0.000106421
-0.000108805
-0.000111191
-0.000113571
-0.000115931
-0.000118249
-0.000120492
-0.00012262
-0.000124573
-0.000126276
-0.000127595
-0.000128554
-0.000130826
-0.000133306
-0.000134652
-0.00013582
-0.000137081
-0.000138273
-0.000138777
-0.000139793
-0.000140523
-0.000140864
-0.000141162
-0.000141237
-0.000141042
-0.000140641
-0.0001401
-0.000139395
-0.000138556
-0.000137603
-0.000136546
-0.000135398
-0.000134165
-0.000132857
-0.000131479
-0.00013004
-0.000128547
-0.000127007
-0.000125424
-0.000123783
-0.000122043
-3.55005e-05
-3.55606e-05
-3.56819e-05
-3.60219e-05
-3.65442e-05
-3.72056e-05
-3.80149e-05
-3.8978e-05
-4.00983e-05
-4.138e-05
-4.28297e-05
-4.44517e-05
-4.62382e-05
-4.81675e-05
-5.02148e-05
-5.23591e-05
-5.45842e-05
-5.68765e-05
-5.92238e-05
-6.16136e-05
-6.40249e-05
-6.6418e-05
-6.88007e-05
-7.11711e-05
-7.35257e-05
-7.58299e-05
-7.80761e-05
-8.02968e-05
-8.24351e-05
-8.45064e-05
-8.65121e-05
-8.84156e-05
-9.01969e-05
-9.18706e-05
-9.34193e-05
-9.48422e-05
-9.61412e-05
-9.73158e-05
-9.83673e-05
-9.92973e-05
-0.000100109
-0.000100806
-0.000101392
-0.000101871
-0.000102248
-0.000102527
-0.000102711
-0.000102798
-0.000102799
-0.000102788
0.000182113
0.000176313
0.000171
0.000165927
0.000160947
0.00015603
0.000151172
0.000146353
0.000141553
0.00013675
0.00013193
0.000127079
0.000122188
0.000117251
0.000112265
0.000107232
0.000102155
9.70432e-05
9.1906e-05
8.67574e-05
8.16131e-05
7.6485e-05
7.13884e-05
6.63354e-05
6.13389e-05
5.6411e-05
5.15652e-05
4.68141e-05
4.21683e-05
3.76381e-05
3.32321e-05
2.89577e-05
2.48215e-05
2.08285e-05
1.69826e-05
1.32866e-05
9.74242e-06
6.35078e-06
3.11172e-06
2.44503e-08
-2.9125e-06
-5.70123e-06
-8.34431e-06
-1.08448e-05
-1.32062e-05
-1.5433e-05
-1.75306e-05
-1.95004e-05
-2.1326e-05
-2.29849e-05
0.000167767
0.000165096
0.000162429
0.000159644
0.000156743
0.000153469
0.000149849
0.00014594
0.000141769
0.000137354
0.000132709
0.00012785
0.000122794
0.000117559
0.000112164
0.000106632
0.000100986
9.52484e-05
8.94448e-05
8.35993e-05
7.77359e-05
7.18778e-05
6.60471e-05
6.02646e-05
5.45496e-05
4.892e-05
4.3392e-05
3.798e-05
3.26967e-05
2.75531e-05
2.25587e-05
1.77214e-05
1.30475e-05
8.54183e-06
4.20801e-06
4.83703e-08
-3.93586e-06
-7.74454e-06
-1.13785e-05
-1.48392e-05
-1.81292e-05
-2.12514e-05
-2.42093e-05
-2.7007e-05
-2.96494e-05
-3.21412e-05
-3.4483e-05
-3.66686e-05
-3.87052e-05
-4.07096e-05
0.000376664
0.00036714
0.000351517
0.00033469
0.000320296
0.000306708
0.000293618
0.000280984
0.000268821
0.00025713
0.000245892
0.000235084
0.00022468
0.00021466
0.000205
0.00019568
0.000186684
0.000177993
0.000169592
0.000161469
0.000153612
0.000146014
0.000138669
0.000131568
0.000124707
0.000118078
0.000111676
0.000105494
9.95278e-05
9.37721e-05
8.82219e-05
8.28722e-05
7.77177e-05
7.27531e-05
6.79727e-05
6.3371e-05
5.89425e-05
5.46825e-05
5.05874e-05
4.66533e-05
4.28769e-05
3.92543e-05
3.57815e-05
3.24543e-05
2.9268e-05
2.62171e-05
2.3295e-05
2.04994e-05
1.7851e-05
1.53876e-05
0.000534584
0.00060887
0.000551798
0.000466443
0.000394894
0.000335075
0.000284026
0.000239934
0.000201945
0.000169409
0.000141631
0.000117924
9.7662e-05
8.02964e-05
6.5357e-05
5.24446e-05
4.122e-05
3.13896e-05
2.27028e-05
1.50032e-05
8.26213e-06
2.17258e-06
-3.36948e-06
-8.41567e-06
-1.30168e-05
-1.72231e-05
-2.10783e-05
-2.46198e-05
-2.78788e-05
-3.08822e-05
-3.36531e-05
-3.62116e-05
-3.85747e-05
-4.0758e-05
-4.27796e-05
-4.46639e-05
-4.64307e-05
-4.80389e-05
-4.93941e-05
-5.06484e-05
-5.18216e-05
-5.29038e-05
-5.38928e-05
-5.47934e-05
-5.56119e-05
-5.63537e-05
-5.70187e-05
-5.75996e-05
-5.81091e-05
-5.86884e-05
0.0030399
0.000178735
4.27889e-05
-1.10046e-05
-2.74317e-05
-4.32926e-05
-5.8204e-05
-6.97865e-05
-7.77129e-05
-8.2477e-05
-8.46628e-05
-8.47873e-05
-8.33008e-05
-8.05969e-05
-7.70143e-05
-7.28365e-05
-6.8292e-05
-6.35517e-05
-5.87393e-05
-5.40005e-05
-4.95557e-05
-4.52907e-05
-4.12483e-05
-3.74869e-05
-3.40377e-05
-3.09098e-05
-2.81011e-05
-2.56027e-05
-2.34011e-05
-2.14798e-05
-1.982e-05
-1.8402e-05
-1.72059e-05
-1.62111e-05
-1.53935e-05
-1.47218e-05
-1.41696e-05
-1.37722e-05
-1.36194e-05
-1.3555e-05
-1.3556e-05
-1.3629e-05
-1.37734e-05
-1.39822e-05
-1.42474e-05
-1.45626e-05
-1.49249e-05
-1.53299e-05
-1.57448e-05
-1.60805e-05
0.314289
-0.00376967
-0.000552082
-0.000953664
-0.00114372
-0.00113387
-0.00106796
-0.00100406
-0.000947509
-0.000894121
-0.00084238
-0.000792502
-0.000744882
-0.000699711
-0.000657056
-0.000616921
-0.000579277
-0.000544058
-0.000511178
-0.00048053
-0.000452
-0.000425461
-0.000400788
-0.000377857
-0.00035655
-0.000336751
-0.000318352
-0.00030125
-0.000285348
-0.000270556
-0.000256792
-0.000243978
-0.000232042
-0.000220919
-0.000210547
-0.000200871
-0.000191838
-0.000183403
-0.000175522
-0.000168154
-0.000161263
-0.000154815
-0.000148779
-0.000143128
-0.000137834
-0.000132874
-0.00012822
-0.000123843
-0.000119746
-0.000116037
6.83508
0.396806
0.0110625
0.000510888
0.000495277
0.000414103
0.000303355
0.000215542
0.00015725
0.000117936
8.86834e-05
6.54229e-05
4.64602e-05
3.07498e-05
1.75447e-05
6.41155e-06
-2.95465e-06
-1.08191e-05
-1.74114e-05
-2.29254e-05
-2.75244e-05
-3.13469e-05
-3.45099e-05
-3.71128e-05
-3.92398e-05
-4.09625e-05
-4.2342e-05
-4.34301e-05
-4.42714e-05
-4.49036e-05
-4.53595e-05
-4.56668e-05
-4.58498e-05
-4.5929e-05
-4.59225e-05
-4.58458e-05
-4.57122e-05
-4.55335e-05
-4.53197e-05
-4.50797e-05
-4.4821e-05
-4.45504e-05
-4.42735e-05
-4.39953e-05
-4.37203e-05
-4.34525e-05
-4.31973e-05
-4.29593e-05
-4.2731e-05
-4.24687e-05
-5.64308e-05
-5.65471e-05
-5.66759e-05
-5.68063e-05
-5.69375e-05
-5.70706e-05
-5.7206e-05
-5.73439e-05
-5.74842e-05
-5.76268e-05
-5.77717e-05
-5.7919e-05
-5.80686e-05
-5.82205e-05
-5.83746e-05
-5.85311e-05
-5.86898e-05
-5.88507e-05
-5.90138e-05
-5.9179e-05
-5.93464e-05
-5.9516e-05
-5.96876e-05
-5.98612e-05
-6.00368e-05
-6.02144e-05
-6.0394e-05
-6.05754e-05
-6.07587e-05
-6.09438e-05
-6.11307e-05
-6.13192e-05
-6.15095e-05
-6.17014e-05
-6.18949e-05
-6.20899e-05
-6.22864e-05
-6.24844e-05
-6.26837e-05
-6.28844e-05
-6.30865e-05
-6.32898e-05
-6.34943e-05
-6.37e-05
-6.39067e-05
-6.41146e-05
-6.43235e-05
-6.45334e-05
-6.47442e-05
-6.4956e-05
-6.51686e-05
-6.53819e-05
-6.55961e-05
-6.5811e-05
-6.60266e-05
-6.62428e-05
-6.64597e-05
-6.66771e-05
-6.6895e-05
-6.71135e-05
-6.73324e-05
-6.75518e-05
-6.77715e-05
-6.79916e-05
-6.82121e-05
-6.84329e-05
-6.8654e-05
-6.88753e-05
-6.90968e-05
-6.93186e-05
-6.95405e-05
-6.97626e-05
-6.99849e-05
-7.02072e-05
-7.04297e-05
-7.06522e-05
-7.08748e-05
-7.10975e-05
-7.13202e-05
-7.15429e-05
-7.17656e-05
-7.19883e-05
-7.2211e-05
-7.24337e-05
-7.26563e-05
-7.28789e-05
-7.31014e-05
-7.33238e-05
-7.35462e-05
-7.37686e-05
-7.39908e-05
-7.4213e-05
-7.44351e-05
-7.46571e-05
-7.4879e-05
-7.51008e-05
-7.53225e-05
-7.55441e-05
-7.57657e-05
-7.59872e-05
-7.62085e-05
-7.64298e-05
-7.6651e-05
-7.68721e-05
-7.70932e-05
-7.73142e-05
-7.75351e-05
-7.77559e-05
-7.79767e-05
-7.81974e-05
-7.84181e-05
-7.86388e-05
-7.88594e-05
-7.908e-05
-7.93005e-05
-7.95211e-05
-7.97416e-05
-7.99621e-05
-8.01827e-05
-8.04032e-05
-8.06238e-05
-8.08444e-05
-8.10651e-05
-8.12858e-05
-8.15065e-05
-8.17273e-05
-8.19482e-05
-8.21692e-05
-8.23902e-05
-8.26114e-05
-8.28327e-05
-8.30541e-05
-8.32756e-05
-8.34972e-05
-8.3719e-05
-8.3941e-05
-8.41631e-05
-8.43854e-05
-8.46079e-05
-8.48305e-05
-8.50534e-05
-8.52765e-05
-8.54997e-05
-8.57233e-05
-8.5947e-05
-8.6171e-05
-8.63953e-05
-8.66198e-05
-8.68445e-05
-8.70696e-05
-8.72949e-05
-8.75206e-05
-8.77465e-05
-8.79728e-05
-8.81994e-05
-8.84263e-05
-8.86535e-05
-8.88811e-05
-8.91091e-05
-8.93374e-05
-8.95661e-05
-8.97951e-05
-9.00245e-05
-9.02544e-05
-9.04846e-05
-9.07152e-05
-9.09463e-05
-9.11777e-05
-9.14096e-05
-9.1642e-05
-9.18747e-05
-9.2108e-05
-9.23416e-05
-9.25758e-05
-9.28104e-05
-9.30455e-05
-9.32811e-05
-9.35172e-05
-9.37537e-05
-9.39908e-05
-9.42284e-05
-9.44665e-05
-9.47052e-05
-9.49444e-05
-9.51841e-05
-9.54244e-05
-9.56652e-05
-9.59066e-05
-9.61486e-05
-9.63911e-05
-9.66343e-05
-9.68781e-05
-9.71224e-05
-9.73674e-05
-9.7613e-05
-9.78593e-05
-9.81061e-05
-9.83537e-05
-9.86019e-05
-9.88508e-05
-9.91003e-05
-9.93506e-05
-9.96015e-05
-9.98532e-05
-0.000100106
-0.000100359
-0.000100613
-0.000100867
-0.000101123
-0.000101379
-0.000101636
-0.000101894
-0.000102153
-0.000102412
-0.000102672
-0.000102934
-0.000103196
-0.000103459
-0.000103723
-0.000103988
-0.000104254
-0.000104521
-0.000104789
-0.000105057
-0.000105327
-0.000105598
-0.00010587
-0.000106144
-0.000106418
-0.000106693
-0.00010697
-0.000107248
-0.000107527
-0.000107807
-0.000108089
-0.000108372
-0.000108656
-0.000108941
-0.000109228
-0.000109517
-0.000109807
-0.000110098
-0.000110391
-0.000110685
-0.000110981
-0.000111279
-0.000111578
-0.000111879
-0.000112182
-0.000112486
-0.000112793
-0.000113101
-0.000113411
-0.000113723
-0.000114037
-0.000114353
-0.000114671
-0.000114991
-0.000115313
-0.000115638
-0.000115965
-0.000116294
-0.000116626
-0.00011696
-0.000117296
-0.000117635
-0.000117977
-0.000118321
-0.000118668
-0.000119018
-0.000119371
-0.000119726
-0.000120085
-0.000120446
-0.000120811
-0.000121179
-0.00012155
-0.000121925
-0.000122303
-0.000122684
-0.000123069
-0.000123457
-0.00012385
-0.000124246
-0.000124646
-0.00012505
-0.000125458
-0.00012587
-0.000126287
-0.000126708
-0.000127133
-0.000127563
-0.000127998
-0.000128437
-0.000128882
-0.000129331
-0.000129786
-0.000130248
-0.000130714
-0.000131173
-5.30906e-05
-5.31843e-05
-5.32998e-05
-5.34185e-05
-5.35383e-05
-5.36605e-05
-5.3786e-05
-5.39147e-05
-5.40466e-05
-5.41817e-05
-5.432e-05
-5.44613e-05
-5.46058e-05
-5.47532e-05
-5.49037e-05
-5.50572e-05
-5.52136e-05
-5.53729e-05
-5.55351e-05
-5.57001e-05
-5.58678e-05
-5.60383e-05
-5.62114e-05
-5.63871e-05
-5.65654e-05
-5.67461e-05
-5.69293e-05
-5.71149e-05
-5.73029e-05
-5.74931e-05
-5.76855e-05
-5.788e-05
-5.80767e-05
-5.82754e-05
-5.8476e-05
-5.86786e-05
-5.8883e-05
-5.90892e-05
-5.92971e-05
-5.95067e-05
-5.97179e-05
-5.99307e-05
-6.0145e-05
-6.03606e-05
-6.05777e-05
-6.07961e-05
-6.10158e-05
-6.12367e-05
-6.14587e-05
-6.16819e-05
-6.19061e-05
-6.21314e-05
-6.23576e-05
-6.25847e-05
-6.28127e-05
-6.30416e-05
-6.32712e-05
-6.35016e-05
-6.37327e-05
-6.39645e-05
-6.41969e-05
-6.44299e-05
-6.46635e-05
-6.48976e-05
-6.51322e-05
-6.53673e-05
-6.56029e-05
-6.58388e-05
-6.60752e-05
-6.63119e-05
-6.6549e-05
-6.67864e-05
-6.70241e-05
-6.72621e-05
-6.75003e-05
-6.77388e-05
-6.79776e-05
-6.82165e-05
-6.84557e-05
-6.86951e-05
-6.89346e-05
-6.91743e-05
-6.94142e-05
-6.96542e-05
-6.98944e-05
-7.01347e-05
-7.03751e-05
-7.06156e-05
-7.08563e-05
-7.10971e-05
-7.13379e-05
-7.15789e-05
-7.182e-05
-7.20611e-05
-7.23024e-05
-7.25437e-05
-7.27851e-05
-7.30267e-05
-7.32682e-05
-7.35099e-05
-7.37517e-05
-7.39935e-05
-7.42354e-05
-7.44774e-05
-7.47195e-05
-7.49617e-05
-7.5204e-05
-7.54463e-05
-7.56887e-05
-7.59312e-05
-7.61738e-05
-7.64165e-05
-7.66592e-05
-7.69021e-05
-7.7145e-05
-7.73881e-05
-7.76312e-05
-7.78744e-05
-7.81178e-05
-7.83612e-05
-7.86047e-05
-7.88483e-05
-7.90921e-05
-7.93359e-05
-7.95798e-05
-7.98239e-05
-8.00681e-05
-8.03123e-05
-8.05567e-05
-8.08012e-05
-8.10458e-05
-8.12905e-05
-8.15354e-05
-8.17804e-05
-8.20254e-05
-8.22707e-05
-8.2516e-05
-8.27615e-05
-8.30071e-05
-8.32528e-05
-8.34987e-05
-8.37447e-05
-8.39909e-05
-8.42372e-05
-8.44836e-05
-8.47302e-05
-8.4977e-05
-8.52239e-05
-8.54709e-05
-8.57182e-05
-8.59656e-05
-8.62131e-05
-8.64608e-05
-8.67087e-05
-8.69568e-05
-8.72051e-05
-8.74535e-05
-8.77022e-05
-8.7951e-05
-8.82e-05
-8.84493e-05
-8.86987e-05
-8.89484e-05
-8.91983e-05
-8.94484e-05
-8.96987e-05
-8.99493e-05
-9.02002e-05
-9.04512e-05
-9.07026e-05
-9.09542e-05
-9.12061e-05
-9.14582e-05
-9.17107e-05
-9.19634e-05
-9.22165e-05
-9.24698e-05
-9.27235e-05
-9.29775e-05
-9.32318e-05
-9.34865e-05
-9.37416e-05
-9.3997e-05
-9.42527e-05
-9.45089e-05
-9.47655e-05
-9.50224e-05
-9.52798e-05
-9.55376e-05
-9.57959e-05
-9.60546e-05
-9.63137e-05
-9.65734e-05
-9.68335e-05
-9.70941e-05
-9.73552e-05
-9.76169e-05
-9.78791e-05
-9.81418e-05
-9.84052e-05
-9.86691e-05
-9.89335e-05
-9.91987e-05
-9.94644e-05
-9.97308e-05
-9.99978e-05
-0.000100265
-0.000100534
-0.000100803
-0.000101073
-0.000101343
-0.000101615
-0.000101887
-0.00010216
-0.000102433
-0.000102708
-0.000102983
-0.00010326
-0.000103537
-0.000103815
-0.000104094
-0.000104374
-0.000104655
-0.000104937
-0.00010522
-0.000105504
-0.000105789
-0.000106076
-0.000106363
-0.000106652
-0.000106941
-0.000107232
-0.000107524
-0.000107818
-0.000108113
-0.000108409
-0.000108706
-0.000109005
-0.000109305
-0.000109607
-0.00010991
-0.000110215
-0.000110521
-0.000110829
-0.000111139
-0.00011145
-0.000111763
-0.000112077
-0.000112394
-0.000112712
-0.000113032
-0.000113354
-0.000113678
-0.000114004
-0.000114332