/*--------------------------------*- C++ -*----------------------------------*\
| =========                 |                                                 |
| \\      /  F ield         | OpenFOAM: The Open Source CFD Toolbox           |
|  \\    /   O peration     | Version:  2.4.0                                 |
|   \\  /    A nd           | Web:      www.OpenFOAM.org                      |
|    \\/     M anipulation  |                                                 |
\*---------------------------------------------------------------------------*/
FoamFile
{
    version     2.0;
    format      ascii;
    class       volScalarField;
    location    "0.009";
    object      p_rgh;
}
// * * * * * * * * * * * * * * * * * * * * * * * * * * * * * * * * * * * * * //

dimensions      [1 -1 -2 0 0 0 0];

internalField   nonuniform List<scalar> 
125
(
-0.00897979
-0.00896231
-0.00894476
-0.00892714
-0.00890945
-0.0088917
-0.00887389
-0.00885601
-0.00883806
-0.00882005
-0.00880197
-0.00878383
-0.00876562
-0.00874735
-0.00872901
-0.0087106
-0.00869212
-0.00867358
-0.00865497
-0.00863629
-0.00861754
-0.00859872
-0.00857984
-0.00856088
-0.00854186
-0.00852277
-0.00850361
-0.00848438
-0.00846507
-0.0084457
-0.00842626
-0.00840674
-0.00838716
-0.0083675
-0.00834777
-0.00832797
-0.00830809
-0.00828815
-0.00826813
-0.00824804
-0.00822787
-0.00820763
-0.00818732
-0.00816693
-0.00814647
-0.00812593
-0.00810532
-0.00808463
-0.00806386
-0.00804302
-0.00802211
-0.00800112
-0.00798005
-0.0079589
-0.00793768
-0.00791638
-0.007895
-0.00787354
-0.007852
-0.00783039
-0.0078087
-0.00778692
-0.00776507
-0.00774314
-0.00772113
-0.00769903
-0.00767686
-0.0076546
-0.00763227
-0.00760985
-0.00758735
-0.00756476
-0.0075421
-0.00751935
-0.00749652
-0.0074736
-0.0074506
-0.00742752
-0.00740435
-0.0073811
-0.00735776
-0.00733434
-0.00731083
-0.00728723
-0.00726355
-0.00723978
-0.00721593
-0.00719198
-0.00716795
-0.00714383
-0.00711963
-0.00709533
-0.00707095
-0.00704647
-0.00702191
-0.00699726
-0.00697251
-0.00694768
-0.00692275
-0.00689774
-0.00687263
-0.00684743
-0.00682213
-0.00679675
-0.00677127
-0.0067457
-0.00672003
-0.00669427
-0.00666842
-0.00664247
-0.00661643
-0.00659029
-0.00656405
-0.00653772
-0.0065113
-0.00648477
-0.00645815
-0.00643143
-0.00640461
-0.0063777
-0.00635069
-0.00632357
-0.00629636
-0.00626904
-0.00624162
)
;

boundaryField
{
    BotWall
    {
        type            fixedFluxPressure;
        gradient        nonuniform 0();
        value           nonuniform 0();
    }
    FreeStream
    {
        type            totalPressure;
        rho             rho;
        psi             none;
        gamma           1;
        p0              nonuniform 0();
        value           nonuniform 0();
    }
    FrontNBack
    {
        type            empty;
    }
    LeftSide
    {
        type            symmetryPlane;
    }
    RightSide
    {
        type            symmetryPlane;
    }
    procBoundary1to0
    {
        type            processor;
        value           uniform -0.0062141;
    }
    procBoundary1to2
    {
        type            processor;
        value           uniform -0.0089972;
    }
    procBoundary1to3
    {
        type            processor;
        value           nonuniform List<scalar> 
75
(
-0.00801505
-0.0079941
-0.00797308
-0.00795197
-0.0079308
-0.00790954
-0.00788821
-0.0078668
-0.00784531
-0.00782374
-0.00780209
-0.00778036
-0.00775855
-0.00773667
-0.0077147
-0.00769265
-0.00767052
-0.00764831
-0.00762602
-0.00760364
-0.00758119
-0.00755865
-0.00753603
-0.00751332
-0.00749053
-0.00746766
-0.00744471
-0.00742167
-0.00739854
-0.00737533
-0.00735204
-0.00732866
-0.00730519
-0.00728164
-0.007258
-0.00723427
-0.00721046
-0.00718656
-0.00716257
-0.00713849
-0.00711433
-0.00709007
-0.00706573
-0.0070413
-0.00701678
-0.00699217
-0.00696746
-0.00694267
-0.00691779
-0.00689281
-0.00686774
-0.00684258
-0.00681733
-0.00679199
-0.00676655
-0.00674102
-0.00671539
-0.00668967
-0.00666386
-0.00663795
-0.00661195
-0.00658585
-0.00655965
-0.00653336
-0.00650697
-0.00648049
-0.00645391
-0.00642723
-0.00640045
-0.00637357
-0.0063466
-0.00631952
-0.00629235
-0.00626508
-0.0062377
)
;
    }
    procBoundary1to4
    {
        type            processor;
        value           nonuniform List<scalar> 
50
(
-0.00896923
-0.00895181
-0.00893433
-0.00891679
-0.00889918
-0.00888151
-0.00886377
-0.00884597
-0.0088281
-0.00881017
-0.00879216
-0.0087741
-0.00875596
-0.00873776
-0.0087195
-0.00870116
-0.00868276
-0.00866429
-0.00864575
-0.00862714
-0.00860847
-0.00858973
-0.00857091
-0.00855203
-0.00853308
-0.00851406
-0.00849497
-0.00847581
-0.00845657
-0.00843727
-0.0084179
-0.00839845
-0.00837893
-0.00835935
-0.00833968
-0.00831995
-0.00830015
-0.00828027
-0.00826032
-0.00824029
-0.00822019
-0.00820002
-0.00817977
-0.00815945
-0.00813905
-0.00811858
-0.00809803
-0.00807741
-0.0080567
-0.00803591
)
;
    }
}


// ************************************************************************* //
