/*--------------------------------*- C++ -*----------------------------------*\
| =========                 |                                                 |
| \\      /  F ield         | OpenFOAM: The Open Source CFD Toolbox           |
|  \\    /   O peration     | Version:  2.4.0                                 |
|   \\  /    A nd           | Web:      www.OpenFOAM.org                      |
|    \\/     M anipulation  |                                                 |
\*---------------------------------------------------------------------------*/
FoamFile
{
    version     2.0;
    format      ascii;
    class       volScalarField;
    location    "3.9";
    object      H;
}
// * * * * * * * * * * * * * * * * * * * * * * * * * * * * * * * * * * * * * //

dimensions      [0 2 -2 0 0 0 0];

internalField   nonuniform List<scalar> 
8000
(
-11676.9
-10564.2
-9435.16
-8286.45
-7121.3
-5949.25
-4784.98
-3642.8
-2514.71
-1331.53
-1.63446
-1.37757
-0.749544
-0.394423
-0.16616
-0.0581258
-0.0173871
-0.00454695
-0.00106494
-0.000235485
-5.87324e-05
-2.41002e-05
-1.72926e-05
-1.54753e-05
-1.45123e-05
-1.37103e-05
-1.29573e-05
-1.22334e-05
-1.15342e-05
-1.08585e-05
-1.02061e-05
-9.5774e-06
-8.9728e-06
-8.39282e-06
-7.83786e-06
-7.30818e-06
-6.80387e-06
-6.32484e-06
-5.87084e-06
-5.44147e-06
-5.03619e-06
-4.65436e-06
-4.29525e-06
-3.95807e-06
-3.64197e-06
-3.34612e-06
-3.06962e-06
-2.81163e-06
-2.57129e-06
-2.34774e-06
-11651.1
-10489.8
-9321.62
-8149.45
-6981.99
-5833.34
-4721.06
-3661.26
-2656.54
-1672.34
-626.802
-1.70301
-0.971992
-0.481914
-0.205294
-0.075692
-0.0240667
-0.00666192
-0.00163564
-0.000371164
-8.92735e-05
-3.23778e-05
-2.14143e-05
-1.89496e-05
-1.79438e-05
-1.71827e-05
-1.64677e-05
-1.57653e-05
-1.5069e-05
-1.43781e-05
-1.36933e-05
-1.30162e-05
-1.2349e-05
-1.16938e-05
-1.10525e-05
-1.04272e-05
-9.81955e-06
-9.23093e-06
-8.66256e-06
-8.11535e-06
-7.58998e-06
-7.08689e-06
-6.6063e-06
-6.14828e-06
-5.71272e-06
-5.29939e-06
-4.90797e-06
-4.53805e-06
-4.18913e-06
-3.86068e-06
-11626.5
-10418.6
-9211.05
-8010.37
-6827.74
-5677.45
-4574.42
-3529.9
-2543.85
-1593.32
-632.972
-1.39469
-0.853255
-0.487034
-0.228474
-0.0897324
-0.029896
-0.00859362
-0.00217707
-0.000504848
-0.00012048
-4.10449e-05
-2.57663e-05
-2.26759e-05
-2.17102e-05
-2.1087e-05
-2.05082e-05
-1.99227e-05
-1.93205e-05
-1.86996e-05
-1.80609e-05
-1.74067e-05
-1.67398e-05
-1.60638e-05
-1.53821e-05
-1.46984e-05
-1.4016e-05
-1.33381e-05
-1.26677e-05
-1.20076e-05
-1.13601e-05
-1.07273e-05
-1.0111e-05
-9.51265e-06
-8.93359e-06
-8.37479e-06
-7.83701e-06
-7.32086e-06
-6.82673e-06
-6.35488e-06
-11603.1
-10350.2
-9102.95
-7870.77
-6666.7
-5505.59
-4401.68
-3364.93
-2395.53
-1476.53
-574.143
-1.1553
-0.74693
-0.460521
-0.23842
-0.100962
-0.0356391
-0.0107298
-0.00282256
-0.00067256
-0.000160672
-5.19422e-05
-3.08738e-05
-2.6933e-05
-2.60433e-05
-2.56461e-05
-2.53028e-05
-2.49362e-05
-2.45297e-05
-2.40784e-05
-2.35816e-05
-2.30406e-05
-2.24584e-05
-2.18386e-05
-2.11856e-05
-2.0504e-05
-1.97985e-05
-1.9074e-05
-1.8335e-05
-1.75863e-05
-1.68321e-05
-1.60764e-05
-1.53231e-05
-1.45755e-05
-1.38369e-05
-1.311e-05
-1.23974e-05
-1.17012e-05
-1.10234e-05
-1.03656e-05
-11590.5
-10314.1
-9047.46
-7801.91
-6591.21
-5429.84
-4330.77
-3303.1
-2350.36
-1470.72
-662.201
-1.04278
-0.731501
-0.452616
-0.249752
-0.111989
-0.0415514
-0.0130858
-0.00358673
-0.000884658
-0.000214173
-6.64959e-05
-3.72489e-05
-3.20172e-05
-3.12205e-05
-3.11691e-05
-3.12084e-05
-3.12185e-05
-3.11705e-05
-3.10537e-05
-3.08626e-05
-3.05949e-05
-3.02505e-05
-2.98315e-05
-2.93414e-05
-2.87845e-05
-2.8166e-05
-2.74911e-05
-2.67657e-05
-2.59959e-05
-2.51876e-05
-2.43471e-05
-2.34804e-05
-2.25934e-05
-2.16918e-05
-2.0781e-05
-1.9866e-05
-1.89516e-05
-1.80421e-05
-1.71416e-05
-11580.4
-10285.1
-9003.14
-7747.34
-6532.15
-5371.95
-4278.9
-3260.93
-2321.08
-1460.1
-683.062
-0.962634
-0.732221
-0.446342
-0.266476
-0.129785
-0.0517768
-0.0173248
-0.0049881
-0.00127495
-0.000310737
-9.0693e-05
-4.62332e-05
-3.83171e-05
-3.74341e-05
-3.78197e-05
-3.84043e-05
-3.89843e-05
-3.95102e-05
-3.9961e-05
-4.03227e-05
-4.0584e-05
-4.07354e-05
-4.07706e-05
-4.06893e-05
-4.04933e-05
-4.01855e-05
-3.97696e-05
-3.92502e-05
-3.86325e-05
-3.79228e-05
-3.71279e-05
-3.62556e-05
-3.53139e-05
-3.43114e-05
-3.32563e-05
-3.21569e-05
-3.10213e-05
-2.98575e-05
-2.86731e-05
-11579.5
-10283.3
-9003.13
-7752.42
-6546.12
-5398.87
-4322.72
-3323.93
-2399.8
-1539.82
-737.538
-0.894904
-0.758968
-0.453444
-0.300583
-0.166847
-0.0764304
-0.0294994
-0.00982861
-0.00289772
-0.000786183
-0.000218528
-8.18424e-05
-5.25572e-05
-4.73581e-05
-4.71698e-05
-4.80151e-05
-4.91038e-05
-5.02665e-05
-5.14527e-05
-5.2639e-05
-5.38111e-05
-5.4908e-05
-5.58437e-05
-5.66093e-05
-5.72055e-05
-5.76334e-05
-5.78935e-05
-5.79858e-05
-5.79097e-05
-5.76641e-05
-5.72473e-05
-5.66648e-05
-5.59254e-05
-5.50391e-05
-5.40166e-05
-5.28693e-05
-5.16089e-05
-5.02475e-05
-4.87977e-05
-11585.4
-10301.6
-9034.91
-7798.98
-6608.93
-5479.66
-4423.89
-3449.17
-2553.67
-1723.13
-942.655
-246.837
-0.790649
-0.488131
-0.329743
-0.205756
-0.106385
-0.0464027
-0.0174787
-0.00580871
-0.00175065
-0.00050835
-0.000168683
-8.54526e-05
-6.78905e-05
-6.57371e-05
-6.69649e-05
-6.88955e-05
-7.09346e-05
-7.292e-05
-7.47803e-05
-7.64706e-05
-7.80266e-05
-7.95388e-05
-8.10046e-05
-8.2412e-05
-8.37519e-05
-8.50189e-05
-8.62104e-05
-8.73254e-05
-8.83646e-05
-8.91187e-05
-8.95505e-05
-8.96698e-05
-8.94915e-05
-8.90297e-05
-8.82969e-05
-8.73043e-05
-8.60614e-05
-8.4579e-05
-11599.1
-10342.6
-9102.89
-7892.8
-6726.25
-5616.8
-4576.17
-3612.66
-2730.23
-1929.49
-1213.77
-600.664
-0.960186
-0.710168
-0.445899
-0.281221
-0.167044
-0.0882875
-0.0383867
-0.0145813
-0.00502771
-0.00161497
-0.000515708
-0.000194074
-0.000109478
-9.12991e-05
-9.04447e-05
-9.38602e-05
-9.82951e-05
-0.000102984
-0.000107756
-0.000112567
-0.000117382
-0.00012214
-0.00012675
-0.000131105
-0.000135093
-0.000138616
-0.000141596
-0.000143981
-0.000145741
-0.000147178
-0.00014838
-0.000149368
-0.000150153
-0.000150748
-0.000151165
-0.00015142
-0.000151433
-0.000150822
-11619.7
-10404.2
-9204.18
-8031.23
-6897.83
-5816.09
-4796.14
-3844.41
-2962.39
-2146.86
-1392.38
-691.54
-0.837324
-0.726248
-0.450101
-0.317421
-0.212379
-0.131445
-0.0729494
-0.0358319
-0.0151833
-0.00558432
-0.00195247
-0.000683092
-0.000271925
-0.000150179
-0.000120111
-0.000117829
-0.00012403
-0.000133279
-0.000144172
-0.000156338
-0.000169552
-0.000183482
-0.000197666
-0.000211572
-0.000224702
-0.000236701
-0.000247413
-0.000256895
-0.000265348
-0.000273019
-0.00028008
-0.000286553
-0.000292291
-0.000297006
-0.000300344
-0.000301974
-0.000301812
-0.000300443
-11648.5
-10489.4
-9342.12
-8216.08
-7121.83
-6070.28
-5071.44
-4133.15
-3260.04
-2453.38
-1714.03
-1054.4
-514.502
-1.06614
-0.741915
-0.478987
-0.303127
-0.190209
-0.115088
-0.0652367
-0.0338832
-0.0159467
-0.00682205
-0.00262868
-0.000993632
-0.000408639
-0.000213448
-0.000156059
-0.000145777
-0.000151631
-0.000163553
-0.000178398
-0.000195131
-0.000213254
-0.000232332
-0.000251919
-0.000271616
-0.00029117
-0.000310552
-0.000329986
-0.000349912
-0.000370898
-0.000393509
-0.000418173
-0.000445063
-0.000474022
-0.000504536
-0.000535772
-0.000566655
-0.000595969
-11684.2
-10594.3
-9510.57
-8439.12
-7388.07
-6366.71
-5384.23
-4448.45
-3565.12
-2738.28
-1972.07
-1272.91
-646.462
-0.901516
-0.733624
-0.474879
-0.33946
-0.23215
-0.152451
-0.0954776
-0.0563445
-0.0310314
-0.015888
-0.00755805
-0.00338045
-0.00145368
-0.000627248
-0.000314183
-0.000206429
-0.00017679
-0.000176431
-0.00018736
-0.000203109
-0.000221312
-0.000240973
-0.000261524
-0.000282547
-0.000303727
-0.000324869
-0.000345914
-0.000366918
-0.000388008
-0.000409314
-0.000430901
-0.000452728
-0.000474639
-0.000496392
-0.00051772
-0.000538406
-0.000558345
-11724.2
-10712
-9698.62
-8686.34
-7680.27
-6687.82
-5717.42
-4777.07
-3873.4
-3011.71
-2196.82
-1433.02
-718.981
-0.895628
-0.761231
-0.491295
-0.36686
-0.262019
-0.181431
-0.121719
-0.0784549
-0.048175
-0.0280299
-0.0154258
-0.00805345
-0.00401801
-0.00194246
-0.000940306
-0.000485448
-0.000293158
-0.000221024
-0.000202625
-0.000206244
-0.000219071
-0.000235936
-0.000254688
-0.00027434
-0.000294353
-0.00031439
-0.000334227
-0.000353717
-0.000372769
-0.000391312
-0.000409285
-0.000426617
-0.000443243
-0.000459118
-0.000474253
-0.000488735
-0.000502747
-11767.1
-10837.5
-9898.39
-8947.22
-7985.57
-7018.52
-6053.47
-5098.77
-4162.91
-3254.66
-2383.53
-1558.26
-780.75
-1.02114
-0.847684
-0.558862
-0.419463
-0.300978
-0.21347
-0.150051
-0.103562
-0.0695147
-0.0450658
-0.0281057
-0.0168482
-0.00972808
-0.00543663
-0.0029664
-0.00160421
-0.000883141
-0.000517503
-0.000342075
-0.00026497
-0.000237302
-0.000233937
-0.00024235
-0.000256631
-0.000273443
-0.000291163
-0.000309065
-0.000326761
-0.000344015
-0.00036066
-0.000376563
-0.000391615
-0.000405733
-0.000418877
-0.00043107
-0.000442415
-0.000453113
-11814.8
-10977.6
-10121.7
-9239.91
-8329.71
-7393.27
-6436.08
-5465.66
-4490.98
-3523.07
-2576.25
-1666.84
-806.524
-1.18295
-0.937479
-0.643543
-0.489785
-0.358711
-0.261321
-0.191095
-0.139645
-0.101189
-0.0722144
-0.0505079
-0.0345127
-0.023007
-0.014965
-0.00951426
-0.00593162
-0.00364506
-0.00222538
-0.00136672
-0.00086078
-0.000571093
-0.000411167
-0.000327653
-0.000288407
-0.000274358
-0.000274336
-0.000281928
-0.000293497
-0.000306991
-0.000321254
-0.00033566
-0.000350008
-0.000363809
-0.000376599
-0.000388293
-0.000398844
-0.000408286
-11867.4
-11133.5
-10375.4
-9582.19
-8747.87
-7870.99
-6953.43
-5999.04
-5012.26
-3997.5
-2960.96
-1918.67
-911.972
-1.18611
-1.00755
-0.660315
-0.516464
-0.3978
-0.306765
-0.238194
-0.185587
-0.144458
-0.111948
-0.0861188
-0.0656098
-0.0494141
-0.0367451
-0.0269592
-0.0195122
-0.0139373
-0.00983466
-0.00686695
-0.004756
-0.00327851
-0.00226025
-0.0015689
-0.00110648
-0.000802035
-0.000605192
-0.000480772
-0.000404573
-0.000360152
-0.000336456
-0.000326126
-0.000324314
-0.000327798
-0.00033439
-0.000342651
-0.000351614
-0.000360622
-11919.2
-11289.6
-10637.9
-9952.88
-9226.93
-8455.25
-7635.42
-6766.59
-5848.8
-4882.94
-3872.15
-2827.21
-1777.38
-778.552
-1.19104
-0.0198978
-0.0630982
-0.106236
-0.138096
-0.153552
-0.15239
-0.140962
-0.125164
-0.108291
-0.0920195
-0.077134
-0.0639381
-0.0524849
-0.0426998
-0.0344473
-0.0275671
-0.0218924
-0.0172604
-0.0135177
-0.0105234
-0.0081508
-0.00628805
-0.00483843
-0.00371971
-0.0028631
-0.00221205
-0.00172071
-0.00135242
-0.00107823
-0.000875503
-0.000726737
-0.00061847
-0.000540434
-0.000484838
-0.000445798
-11960.5
-11416.6
-10858.8
-10279.4
-9671.39
-9029.14
-8347.64
-7622.58
-6849.95
-6026.02
-5147.8
-4214.59
-3230.32
-2202.32
-1124.5
-51.7536
-0.147816
-0.0114717
-0.0442615
-0.0634249
-0.0860535
-0.0965651
-0.100268
-0.0981469
-0.0923113
-0.0846788
-0.0764179
-0.0681896
-0.0603426
-0.0530508
-0.0463896
-0.0403786
-0.035005
-0.0302378
-0.0260359
-0.0223531
-0.0191416
-0.016354
-0.0139445
-0.0118699
-0.0100903
-0.00856866
-0.00727181
-0.00616973
-0.00523569
-0.00444602
-0.00377991
-0.00321913
-0.00274781
-0.00235221
-11983
-11487.4
-10987.2
-10478.9
-9958.34
-9420.97
-8861.51
-8274.32
-7653.55
-6993.1
-6286.82
-5528.94
-4715.19
-3844.22
-2917.9
-1936.73
-901.915
-71.0757
-0.164614
-0.0254846
-0.179883
-0.258628
-0.289953
-0.29666
-0.230939
-0.182254
-0.148239
-0.123808
-0.105552
-0.0913956
-0.0800653
-0.0707581
-0.062952
-0.0562967
-0.050548
-0.0455302
-0.0411136
-0.0371997
-0.0337126
-0.0305925
-0.0277914
-0.0252698
-0.0229952
-0.0209398
-0.0190799
-0.0173951
-0.0158677
-0.0144821
-0.0132245
-0.0120825
-11984.4
-11494.6
-11008.7
-10527.6
-10050.7
-9575.81
-9099.12
-8615.84
-8120.46
-7606.85
-7068.38
-6498.04
-5888.78
-5234.14
-4529.31
-3772.34
-2965.62
-2111.05
-1201.11
-280.177
-0.483615
-10.4898
-13.569
-15.8055
-8.77015
-5.31876
-3.46298
-2.3563
-1.66275
-1.21436
-0.916378
-0.712788
-0.569629
-0.465772
-0.388095
-0.328381
-0.281394
-0.243708
-0.213005
-0.18766
-0.166496
-0.148643
-0.133444
-0.120395
-0.109102
-0.0992627
-0.0906377
-0.0830273
-0.0762686
-0.0702306
-2.14018e-06
-1.94779e-06
-1.7698e-06
-1.60545e-06
-1.454e-06
-1.31472e-06
-1.18693e-06
-1.06992e-06
-9.63042e-07
-8.65637e-07
-7.77071e-07
-6.96729e-07
-6.24011e-07
-5.58338e-07
-4.99153e-07
-4.45919e-07
-3.98125e-07
-3.55285e-07
-3.1694e-07
-2.82656e-07
-2.52033e-07
-2.24694e-07
-2.00296e-07
-1.78523e-07
-1.59088e-07
-1.41732e-07
-1.26221e-07
-1.12348e-07
-9.99298e-08
-8.8803e-08
-7.88256e-08
-6.98727e-08
-6.18357e-08
-5.46197e-08
-4.8142e-08
-4.23303e-08
-3.71214e-08
-3.24591e-08
-2.82937e-08
-2.45806e-08
-2.12793e-08
-1.8353e-08
-1.57678e-08
-1.34924e-08
-1.14975e-08
-9.75582e-09
-8.2421e-09
-6.93249e-09
-5.8049e-09
-4.83882e-09
-3.55211e-06
-3.26283e-06
-2.99217e-06
-2.73947e-06
-2.50406e-06
-2.28524e-06
-2.08228e-06
-1.89448e-06
-1.72109e-06
-1.56139e-06
-1.41463e-06
-1.28008e-06
-1.157e-06
-1.04466e-06
-9.42333e-07
-8.49322e-07
-7.64936e-07
-6.88506e-07
-6.19389e-07
-5.56967e-07
-5.00654e-07
-4.49893e-07
-4.04164e-07
-3.62979e-07
-3.25889e-07
-2.92481e-07
-2.62375e-07
-2.3523e-07
-2.10737e-07
-1.88621e-07
-1.68637e-07
-1.50567e-07
-1.34221e-07
-1.19431e-07
-1.0605e-07
-9.39478e-08
-8.30119e-08
-7.31416e-08
-6.42477e-08
-5.625e-08
-4.90759e-08
-4.26591e-08
-3.69383e-08
-3.18561e-08
-2.73589e-08
-2.3396e-08
-1.99194e-08
-1.68837e-08
-1.42459e-08
-1.19654e-08
-5.90541e-06
-5.47832e-06
-5.07346e-06
-4.6906e-06
-4.32944e-06
-3.98955e-06
-3.67046e-06
-3.37162e-06
-3.09241e-06
-2.83219e-06
-2.59022e-06
-2.36576e-06
-2.15802e-06
-1.9662e-06
-1.78945e-06
-1.62694e-06
-1.47783e-06
-1.34126e-06
-1.21639e-06
-1.10242e-06
-9.98528e-07
-9.03943e-07
-8.17914e-07
-7.39727e-07
-6.68703e-07
-6.04203e-07
-5.45631e-07
-4.92433e-07
-4.44101e-07
-4.00169e-07
-3.60215e-07
-3.2386e-07
-2.90762e-07
-2.60621e-07
-2.33168e-07
-2.08166e-07
-1.85407e-07
-1.64705e-07
-1.45898e-07
-1.28839e-07
-1.13398e-07
-9.94539e-08
-8.68988e-08
-7.56304e-08
-6.55533e-08
-5.65768e-08
-4.86146e-08
-4.15838e-08
-3.54049e-08
-3.00017e-08
-9.72929e-06
-9.11555e-06
-8.52535e-06
-7.95939e-06
-7.41822e-06
-6.90217e-06
-6.41141e-06
-5.94594e-06
-5.50561e-06
-5.09013e-06
-4.69908e-06
-4.33193e-06
-3.98804e-06
-3.6667e-06
-3.36709e-06
-3.08835e-06
-2.82958e-06
-2.58982e-06
-2.3681e-06
-2.16344e-06
-1.97482e-06
-1.80126e-06
-1.64178e-06
-1.4954e-06
-1.3612e-06
-1.23825e-06
-1.12568e-06
-1.02267e-06
-9.28412e-07
-8.42171e-07
-7.63255e-07
-6.91022e-07
-6.24887e-07
-5.64315e-07
-5.08822e-07
-4.57975e-07
-4.11387e-07
-3.68713e-07
-3.29648e-07
-2.93919e-07
-2.61286e-07
-2.31532e-07
-2.04462e-07
-1.79896e-07
-1.57669e-07
-1.37628e-07
-1.19625e-07
-1.03518e-07
-8.91727e-08
-7.64556e-08
-1.62537e-05
-1.53818e-05
-1.45288e-05
-1.36974e-05
-1.28897e-05
-1.21078e-05
-1.13534e-05
-1.06276e-05
-9.93168e-06
-9.26627e-06
-8.63187e-06
-8.02872e-06
-7.45681e-06
-6.9159e-06
-6.40556e-06
-5.92521e-06
-5.47409e-06
-5.05131e-06
-4.65592e-06
-4.28684e-06
-3.94296e-06
-3.62312e-06
-3.32611e-06
-3.05075e-06
-2.79581e-06
-2.56009e-06
-2.3424e-06
-2.14157e-06
-1.95644e-06
-1.78591e-06
-1.6289e-06
-1.48439e-06
-1.3514e-06
-1.22901e-06
-1.11636e-06
-1.01267e-06
-9.1719e-07
-8.29273e-07
-7.48317e-07
-6.73785e-07
-6.05199e-07
-5.42135e-07
-4.84214e-07
-4.31101e-07
-3.82494e-07
-3.38118e-07
-2.97723e-07
-2.61072e-07
-2.27943e-07
-1.9812e-07
-2.74753e-05
-2.62712e-05
-2.5067e-05
-2.38688e-05
-2.2682e-05
-2.15118e-05
-2.03627e-05
-1.92388e-05
-1.81437e-05
-1.70807e-05
-1.60524e-05
-1.50611e-05
-1.41085e-05
-1.3196e-05
-1.23244e-05
-1.14943e-05
-1.07057e-05
-9.95832e-06
-9.25168e-06
-8.58493e-06
-7.95706e-06
-7.36687e-06
-6.81307e-06
-6.29427e-06
-5.80901e-06
-5.35583e-06
-4.93323e-06
-4.53971e-06
-4.17378e-06
-3.83393e-06
-3.51869e-06
-3.22658e-06
-2.95615e-06
-2.70597e-06
-2.47464e-06
-2.26083e-06
-2.06322e-06
-1.8806e-06
-1.71179e-06
-1.55573e-06
-1.41143e-06
-1.27797e-06
-1.15455e-06
-1.04045e-06
-9.3504e-07
-8.37752e-07
-7.48097e-07
-6.65641e-07
-5.89993e-07
-5.20799e-07
-4.72723e-05
-4.56841e-05
-4.40454e-05
-4.23679e-05
-4.06628e-05
-3.89405e-05
-3.72111e-05
-3.54837e-05
-3.37672e-05
-3.20696e-05
-3.03984e-05
-2.87603e-05
-2.71614e-05
-2.56071e-05
-2.41022e-05
-2.26503e-05
-2.12545e-05
-1.99171e-05
-1.86394e-05
-1.74221e-05
-1.6265e-05
-1.51676e-05
-1.41287e-05
-1.31467e-05
-1.22199e-05
-1.13463e-05
-1.05239e-05
-9.75081e-06
-9.02491e-06
-8.34429e-06
-7.70705e-06
-7.11132e-06
-6.55523e-06
-6.03692e-06
-5.55453e-06
-5.10616e-06
-4.68989e-06
-4.30377e-06
-3.94587e-06
-3.61424e-06
-3.30697e-06
-3.02221e-06
-2.75819e-06
-2.51325e-06
-2.28588e-06
-2.07471e-06
-1.87852e-06
-1.69626e-06
-1.52704e-06
-1.3701e-06
-8.28784e-05
-8.09831e-05
-7.89169e-05
-7.67028e-05
-7.43625e-05
-7.19168e-05
-6.9385e-05
-6.67856e-05
-6.41362e-05
-6.14534e-05
-5.87527e-05
-5.60492e-05
-5.3357e-05
-5.06898e-05
-4.80606e-05
-4.54818e-05
-4.29649e-05
-4.05202e-05
-3.81566e-05
-3.58815e-05
-3.37003e-05
-3.16164e-05
-2.96313e-05
-2.77448e-05
-2.59552e-05
-2.42596e-05
-2.26546e-05
-2.11362e-05
-1.97003e-05
-1.83431e-05
-1.70611e-05
-1.58509e-05
-1.47096e-05
-1.36348e-05
-1.26241e-05
-1.16753e-05
-1.07866e-05
-9.95576e-06
-9.18077e-06
-8.45933e-06
-7.78894e-06
-7.16687e-06
-6.59014e-06
-6.05562e-06
-5.56005e-06
-5.10017e-06
-4.67283e-06
-4.2751e-06
-3.90429e-06
-3.55807e-06
-0.000149604
-0.00014784
-0.000145598
-0.00014294
-0.000139923
-0.000136597
-0.000132999
-0.000129167
-0.00012514
-0.000120953
-0.000116637
-0.000112216
-0.000107713
-0.000103151
-9.85485e-05
-9.39287e-05
-8.9315e-05
-8.47339e-05
-8.02138e-05
-7.57839e-05
-7.14728e-05
-6.73062e-05
-6.33053e-05
-5.94854e-05
-5.58556e-05
-5.24189e-05
-4.91727e-05
-4.61104e-05
-4.32222e-05
-4.04969e-05
-3.79225e-05
-3.54872e-05
-3.31802e-05
-3.0992e-05
-2.89146e-05
-2.69416e-05
-2.50684e-05
-2.32918e-05
-2.161e-05
-2.00225e-05
-1.8529e-05
-1.71296e-05
-1.58237e-05
-1.46097e-05
-1.3485e-05
-1.24452e-05
-1.1485e-05
-1.05981e-05
-9.77763e-06
-9.01684e-06
-0.000297981
-0.000294554
-0.000290348
-0.000285576
-0.00028044
-0.000275101
-0.000269465
-0.000263162
-0.000256318
-0.000249081
-0.000241573
-0.000233886
-0.00022608
-0.000218184
-0.000210198
-0.000202098
-0.000193855
-0.000185442
-0.000176856
-0.000168125
-0.000159309
-0.000150495
-0.000141785
-0.000133283
-0.000125082
-0.000117259
-0.000109864
-0.000102927
-9.64546e-05
-9.04359e-05
-8.48484e-05
-7.96605e-05
-7.48355e-05
-7.03339e-05
-6.61152e-05
-6.21394e-05
-5.83689e-05
-5.477e-05
-5.1315e-05
-4.79845e-05
-4.47691e-05
-4.167e-05
-3.86968e-05
-3.58646e-05
-3.31896e-05
-3.06854e-05
-2.83604e-05
-2.62165e-05
-2.42494e-05
-2.24499e-05
-0.000622458
-0.000644943
-0.000662388
-0.000673939
-0.000678953
-0.000677067
-0.000668621
-0.000654579
-0.000635544
-0.000612419
-0.000586463
-0.000559186
-0.000532152
-0.000506735
-0.000483888
-0.000463984
-0.000446789
-0.000431574
-0.000417333
-0.000403026
-0.000387808
-0.000371241
-0.000353259
-0.000334109
-0.000314232
-0.000294145
-0.000274334
-0.000255192
-0.000236995
-0.000219919
-0.000204057
-0.000189461
-0.000176149
-0.000164116
-0.000153336
-0.000143757
-0.000135285
-0.000127778
-0.000121036
-0.000114819
-0.000108884
-0.000103029
-9.71279e-05
-9.11456e-05
-8.51219e-05
-7.91451e-05
-7.33216e-05
-6.77506e-05
-6.25093e-05
-5.76461e-05
-0.000577581
-0.000596306
-0.000614821
-0.000633472
-0.000652584
-0.000672406
-0.000693084
-0.00071465
-0.00073705
-0.000760185
-0.000783924
-0.000808098
-0.000832482
-0.000856784
-0.00088064
-0.000903652
-0.000925394
-0.000945451
-0.000963425
-0.000978949
-0.000991647
-0.00100105
-0.00100663
-0.00100779
-0.00100379
-0.000993726
-0.000976493
-0.000950868
-0.000915646
-0.00086993
-0.000813517
-0.000747308
-0.00067357
-0.000595952
-0.000519095
-0.000447886
-0.000386517
-0.000337632
-0.000301845
-0.000277801
-0.000262713
-0.000253192
-0.000246054
-0.000238896
-0.000230322
-0.000219872
-0.000207767
-0.00019459
-0.000181033
-0.000167713
-0.000516561
-0.000530524
-0.000545028
-0.000560473
-0.000577239
-0.000595655
-0.000615974
-0.000638362
-0.000662884
-0.000689511
-0.000718131
-0.000748572
-0.000780624
-0.000814048
-0.000848582
-0.00088393
-0.000919776
-0.000955779
-0.000991595
-0.00102686
-0.00106121
-0.00109429
-0.00112576
-0.00115529
-0.00118258
-0.00120734
-0.00122929
-0.00124818
-0.00126376
-0.00127582
-0.00128425
-0.00128911
-0.00129068
-0.00128949
-0.00128636
-0.00128224
-0.00127804
-0.00127444
-0.00127172
-0.00126965
-0.00126758
-0.00126449
-0.00125924
-0.00125075
-0.00123825
-0.00122132
-0.00119985
-0.00117377
-0.00114281
-0.0011064
-0.00046346
-0.00047384
-0.000484707
-0.00049655
-0.000509866
-0.000525119
-0.000542717
-0.000562985
-0.000586157
-0.000612364
-0.000641642
-0.000673933
-0.000709097
-0.000746928
-0.00078717
-0.000829539
-0.000873734
-0.000919436
-0.000966324
-0.00101407
-0.00106234
-0.00111076
-0.00115898
-0.00120661
-0.00125327
-0.00129858
-0.00134217
-0.00138369
-0.0014228
-0.00145918
-0.00149262
-0.00152294
-0.00155002
-0.0015738
-0.00159429
-0.00161159
-0.00162584
-0.00163722
-0.0016459
-0.00165207
-0.00165586
-0.00165735
-0.00165656
-0.0016535
-0.00164815
-0.00164055
-0.00163076
-0.00161893
-0.0016052
-0.00158968
-0.000416768
-0.00042458
-0.000432158
-0.000440067
-0.000448959
-0.000459523
-0.000472422
-0.000488244
-0.000507467
-0.000530433
-0.000557345
-0.000588276
-0.000623186
-0.000661938
-0.000704326
-0.000750087
-0.000798921
-0.000850501
-0.000904473
-0.000960476
-0.00101815
-0.00107713
-0.00113705
-0.00119752
-0.00125818
-0.00131865
-0.00137856
-0.00143754
-0.00149519
-0.00155117
-0.00160515
-0.00165683
-0.0017059
-0.00175212
-0.00179526
-0.00183516
-0.0018717
-0.0019048
-0.00193444
-0.00196064
-0.00198347
-0.00200303
-0.00201946
-0.00203291
-0.00204356
-0.0020516
-0.00205723
-0.00206065
-0.00206203
-0.0020615
-0.000369227
-0.000377148
-0.000384275
-0.000390745
-0.000396788
-0.000402854
-0.000409848
-0.000418749
-0.000430513
-0.000445974
-0.000465792
-0.00049042
-0.000520107
-0.000554922
-0.000594781
-0.00063948
-0.00068872
-0.000742131
-0.000799301
-0.000859778
-0.0009231
-0.000988807
-0.00105645
-0.00112559
-0.00119581
-0.00126672
-0.00133795
-0.00140914
-0.00147993
-0.00154997
-0.00161895
-0.00168658
-0.00175255
-0.00181656
-0.00187838
-0.00193776
-0.00199452
-0.00204848
-0.00209953
-0.00214756
-0.00219253
-0.00223443
-0.0022733
-0.00230922
-0.00234229
-0.00237264
-0.00240041
-0.00242577
-0.00244886
-0.00246981
-0.000418885
-0.000400775
-0.000388982
-0.00038167
-0.000377491
-0.000375494
-0.000375081
-0.00037596
-0.000378101
-0.000381729
-0.000387333
-0.00039569
-0.000407892
-0.000425315
-0.000449483
-0.000481754
-0.000521787
-0.000568597
-0.000622074
-0.000681669
-0.000746657
-0.000816269
-0.000889748
-0.000966378
-0.00104548
-0.00112642
-0.0012086
-0.00129149
-0.00137459
-0.00145745
-0.00153968
-0.00162096
-0.001701
-0.00177953
-0.00185635
-0.00193125
-0.00200408
-0.00207471
-0.00214303
-0.00220893
-0.00227242
-0.00233348
-0.00239211
-0.00244839
-0.00250239
-0.00255422
-0.002604
-0.00265189
-0.00269806
-0.00274265
-0.00202045
-0.00174236
-0.00150919
-0.00131355
-0.00114919
-0.00101093
-0.000894498
-0.000796481
-0.000714144
-0.000645346
-0.000588445
-0.00054221
-0.000505754
-0.000478489
-0.000460054
-0.000450234
-0.000448818
-0.000455764
-0.000471337
-0.000496099
-0.000530843
-0.000576371
-0.000633122
-0.000700768
-0.000778062
-0.000863089
-0.000953809
-0.00104788
-0.00114386
-0.00124165
-0.00134057
-0.00143988
-0.00153901
-0.0016374
-0.00173462
-0.0018303
-0.00192418
-0.00201608
-0.00210589
-0.00219356
-0.00227913
-0.00236269
-0.00244435
-0.00252428
-0.00260267
-0.00267973
-0.00275579
-0.00283114
-0.00290617
-0.00298134
-0.0110447
-0.0101008
-0.00924138
-0.00845804
-0.00774323
-0.00709016
-0.00649242
-0.00594361
-0.00543737
-0.00496754
-0.00452849
-0.00411533
-0.00372417
-0.0033523
-0.00299822
-0.0026617
-0.00234376
-0.00204671
-0.00177394
-0.00152949
-0.00131741
-0.00114095
-0.00100193
-0.000900368
-0.000834552
-0.000801535
-0.000797897
-0.00082037
-0.000866051
-0.000932083
-0.00101532
-0.00111229
-0.00121954
-0.00133408
-0.00145364
-0.00157657
-0.00170147
-0.00182725
-0.00195408
-0.00208149
-0.00220914
-0.00233687
-0.00246467
-0.00259271
-0.00272131
-0.0028509
-0.00298204
-0.00311535
-0.00325151
-0.0033914
-0.0648097
-0.0599208
-0.0554924
-0.0514658
-0.0477918
-0.0444303
-0.041349
-0.0385188
-0.0359142
-0.0335118
-0.0312895
-0.029226
-0.0273014
-0.0254972
-0.023797
-0.0221855
-0.0206475
-0.0191674
-0.0177291
-0.0163181
-0.0149238
-0.0135409
-0.0121702
-0.0108177
-0.0094931
-0.00820944
-0.00698331
-0.00583532
-0.00478905
-0.00386773
-0.00308979
-0.00246511
-0.00199345
-0.00166531
-0.00146436
-0.00137053
-0.00136259
-0.00142026
-0.00152573
-0.00166493
-0.00182794
-0.00200848
-0.00220269
-0.00240802
-0.00262256
-0.00284357
-0.0030707
-0.00330377
-0.00354225
-0.00378619
-4.02784e-09
-3.63872e-09
-3.29342e-09
-2.9774e-09
-2.68765e-09
-2.42229e-09
-2.17975e-09
-1.95856e-09
-1.75719e-09
-1.57415e-09
-1.40812e-09
-1.2578e-09
-1.12193e-09
-9.99385e-10
-8.8911e-10
-7.90074e-10
-7.01221e-10
-6.21723e-10
-5.50715e-10
-4.87401e-10
-4.31086e-10
-3.81105e-10
-3.36838e-10
-2.97672e-10
-2.63082e-10
-2.32595e-10
-2.05779e-10
-1.82251e-10
-1.61657e-10
-1.43651e-10
-1.27916e-10
-1.14206e-10
-1.02297e-10
-9.1904e-11
-8.29661e-11
-7.52203e-11
-6.84888e-11
-6.26387e-11
-5.76874e-11
-5.34467e-11
-4.97974e-11
-4.66482e-11
-4.39284e-11
-4.15772e-11
-3.9543e-11
-3.77825e-11
-3.62535e-11
-3.49225e-11
-3.37665e-11
-3.28794e-11
-3.21477e-11
-3.15347e-11
-3.10204e-11
-3.05912e-11
-3.02365e-11
-2.99481e-11
-2.97146e-11
-2.95252e-11
-2.93721e-11
-2.92493e-11
-2.91522e-11
-2.90766e-11
-2.90191e-11
-2.89765e-11
-2.89462e-11
-2.89259e-11
-2.89139e-11
-2.89087e-11
-2.89092e-11
-2.89142e-11
-2.89228e-11
-2.89344e-11
-2.89483e-11
-2.89641e-11
-2.89814e-11
-2.89997e-11
-2.90188e-11
-2.90386e-11
-2.90587e-11
-2.90792e-11
-2.90997e-11
-2.91203e-11
-2.91408e-11
-2.91613e-11
-2.91815e-11
-2.92016e-11
-2.92214e-11
-2.92409e-11
-2.92602e-11
-2.92792e-11
-2.92978e-11
-2.93161e-11
-2.9334e-11
-2.93517e-11
-2.93689e-11
-2.93858e-11
-2.94024e-11
-2.94186e-11
-2.94344e-11
-2.94499e-11
-2.94651e-11
-2.94798e-11
-2.94942e-11
-2.95083e-11
-2.9522e-11
-2.95354e-11
-2.95485e-11
-2.95611e-11
-2.95735e-11
-2.95855e-11
-2.95972e-11
-2.96086e-11
-2.96196e-11
-2.96303e-11
-2.96407e-11
-2.96508e-11
-2.96606e-11
-2.96701e-11
-2.96793e-11
-2.96882e-11
-2.96968e-11
-2.97052e-11
-2.97133e-11
-2.97211e-11
-2.97287e-11
-2.97361e-11
-2.97433e-11
-2.97502e-11
-2.97569e-11
-2.97634e-11
-2.97697e-11
-2.97758e-11
-2.97818e-11
-2.97876e-11
-2.97932e-11
-2.97986e-11
-2.98039e-11
-2.9809e-11
-2.9814e-11
-2.98189e-11
-2.98237e-11
-2.98284e-11
-2.98331e-11
-2.98376e-11
-2.98421e-11
-2.98466e-11
-2.98511e-11
-2.98555e-11
-2.98599e-11
-2.98644e-11
-2.98689e-11
-2.98734e-11
-2.98779e-11
-2.98825e-11
-2.98872e-11
-2.98919e-11
-2.98967e-11
-2.99015e-11
-2.99064e-11
-2.99114e-11
-2.99164e-11
-2.99215e-11
-2.99267e-11
-2.9932e-11
-2.99374e-11
-2.99429e-11
-2.99485e-11
-2.99542e-11
-2.996e-11
-2.99659e-11
-2.9972e-11
-2.99782e-11
-2.99845e-11
-2.99911e-11
-2.99977e-11
-3.00046e-11
-3.00117e-11
-3.0019e-11
-3.00266e-11
-3.00343e-11
-3.00424e-11
-3.00507e-11
-3.00593e-11
-3.00682e-11
-3.00773e-11
-3.00868e-11
-3.00965e-11
-3.01066e-11
-3.01169e-11
-3.01275e-11
-3.01384e-11
-3.01496e-11
-3.01611e-11
-3.01729e-11
-3.0185e-11
-3.01974e-11
-3.02102e-11
-3.02233e-11
-3.02368e-11
-3.02507e-11
-3.02651e-11
-3.02799e-11
-3.02951e-11
-3.03108e-11
-3.03271e-11
-3.03438e-11
-3.0361e-11
-3.03787e-11
-3.03969e-11
-3.04157e-11
-3.04349e-11
-3.04545e-11
-3.04747e-11
-3.04953e-11
-3.05163e-11
-3.05377e-11
-3.05594e-11
-3.05816e-11
-3.06041e-11
-3.06269e-11
-3.06501e-11
-3.06736e-11
-3.06974e-11
-3.07215e-11
-3.07459e-11
-3.07705e-11
-3.07954e-11
-3.08204e-11
-3.08454e-11
-3.08706e-11
-3.08958e-11
-3.09209e-11
-3.09459e-11
-3.09707e-11
-3.09953e-11
-3.10196e-11
-3.10435e-11
-3.10669e-11
-3.10899e-11
-3.11123e-11
-3.11341e-11
-3.11551e-11
-3.11754e-11
-3.11949e-11
-3.12136e-11
-3.12314e-11
-3.12483e-11
-3.12643e-11
-3.12793e-11
-3.12933e-11
-3.13064e-11
-3.13184e-11
-3.13295e-11
-3.13396e-11
-3.13488e-11
-3.13572e-11
-3.13647e-11
-3.13715e-11
-3.13776e-11
-3.13831e-11
-3.13881e-11
-3.13926e-11
-3.13966e-11
-3.14002e-11
-3.14035e-11
-3.14065e-11
-3.14093e-11
-3.14118e-11
-3.14141e-11
-3.14162e-11
-3.14182e-11
-3.142e-11
-3.14218e-11
-3.14234e-11
-3.14249e-11
-3.14264e-11
-3.14277e-11
-3.1429e-11
-3.14303e-11
-3.14314e-11
-3.14325e-11
-3.14336e-11
-3.14345e-11
-3.14355e-11
-3.14363e-11
-3.14372e-11
-3.14379e-11
-3.14386e-11
-3.14393e-11
-3.14399e-11
-3.14405e-11
-3.1441e-11
-3.14414e-11
-3.14418e-11
-3.14422e-11
-3.14425e-11
-3.14427e-11
-3.14429e-11
-3.1443e-11
-3.14431e-11
-1.00303e-08
-9.09804e-09
-8.26306e-09
-7.49454e-09
-6.78654e-09
-6.1354e-09
-5.53761e-09
-4.98977e-09
-4.48875e-09
-4.03134e-09
-3.61464e-09
-3.23566e-09
-2.8917e-09
-2.58015e-09
-2.29855e-09
-2.04443e-09
-1.81567e-09
-1.61011e-09
-1.42577e-09
-1.26074e-09
-1.11334e-09
-9.8194e-10
-8.65037e-10
-7.61253e-10
-6.69265e-10
-5.87941e-10
-5.16147e-10
-4.52889e-10
-3.97256e-10
-3.48452e-10
-3.05645e-10
-2.68246e-10
-2.35595e-10
-2.07128e-10
-1.82365e-10
-1.60879e-10
-1.42207e-10
-1.26072e-10
-1.12065e-10
-1.00011e-10
-8.9574e-11
-8.06438e-11
-7.29602e-11
-6.63267e-11
-6.05971e-11
-5.57657e-11
-5.1643e-11
-4.81094e-11
-4.50709e-11
-4.24584e-11
-4.02086e-11
-3.8269e-11
-3.65948e-11
-3.51431e-11
-3.38784e-11
-3.28802e-11
-3.20707e-11
-3.13968e-11
-3.08329e-11
-3.03622e-11
-2.99721e-11
-2.96521e-11
-2.93936e-11
-2.91851e-11
-2.90169e-11
-2.88822e-11
-2.87754e-11
-2.8692e-11
-2.86283e-11
-2.85808e-11
-2.85467e-11
-2.85234e-11
-2.85091e-11
-2.8502e-11
-2.85009e-11
-2.85045e-11
-2.8512e-11
-2.85225e-11
-2.85354e-11
-2.85502e-11
-2.85665e-11
-2.85838e-11
-2.8602e-11
-2.86207e-11
-2.86397e-11
-2.8659e-11
-2.86783e-11
-2.86977e-11
-2.87169e-11
-2.8736e-11
-2.87548e-11
-2.87734e-11
-2.87917e-11
-2.88097e-11
-2.88273e-11
-2.88446e-11
-2.88615e-11
-2.8878e-11
-2.88941e-11
-2.89099e-11
-2.89252e-11
-2.894e-11
-2.89545e-11
-2.89686e-11
-2.89822e-11
-2.89954e-11
-2.90082e-11
-2.90205e-11
-2.90324e-11
-2.90439e-11
-2.9055e-11
-2.90656e-11
-2.90758e-11
-2.90856e-11
-2.9095e-11
-2.9104e-11
-2.91126e-11
-2.91208e-11
-2.91285e-11