/*--------------------------------*- C++ -*----------------------------------*\
| =========                 |                                                 |
| \\      /  F ield         | OpenFOAM: The Open Source CFD Toolbox           |
|  \\    /   O peration     | Version:  2.4.0                                 |
|   \\  /    A nd           | Web:      www.OpenFOAM.org                      |
|    \\/     M anipulation  |                                                 |
\*---------------------------------------------------------------------------*/
FoamFile
{
    version     2.0;
    format      ascii;
    class       volVectorField;
    location    "3.9";
    object      U;
}
// * * * * * * * * * * * * * * * * * * * * * * * * * * * * * * * * * * * * * //

dimensions      [0 1 -1 0 0 0 0];

internalField   nonuniform List<vector> 
8000
(
(-1.65387e-06 -0.000483916 0)
(-1.05594e-05 -0.00137391 0)
(-2.6256e-05 -0.00218786 0)
(-4.77046e-05 -0.00292713 0)
(-7.41551e-05 -0.00359293 0)
(-0.000104623 -0.00418617 0)
(-0.000136091 -0.00470768 0)
(-0.00016323 -0.00515735 0)
(-0.000192453 -0.00553519 0)
(-0.000287773 -0.00584342 0)
(-0.000557892 -0.00610189 0)
(-0.000945115 -0.00653753 0)
(-0.00113983 -0.0126965 0)
(-0.00542056 -1.2473 0)
(-0.0785804 -1.85039 0)
(-0.114507 -2.0146 0)
(-0.155398 -2.05924 0)
(-0.194158 -2.08327 0)
(-0.232051 -2.10379 0)
(-0.268915 -2.12235 0)
(-0.30482 -2.13904 0)
(-0.339772 -2.15387 0)
(-0.373786 -2.16691 0)
(-0.40687 -2.17818 0)
(-0.439033 -2.18775 0)
(-0.470282 -2.19567 0)
(-0.500622 -2.20199 0)
(-0.530059 -2.20678 0)
(-0.558599 -2.2101 0)
(-0.586247 -2.21201 0)
(-0.613009 -2.21256 0)
(-0.638891 -2.21181 0)
(-0.663898 -2.20981 0)
(-0.688037 -2.20661 0)
(-0.711314 -2.20227 0)
(-0.733736 -2.19684 0)
(-0.755311 -2.19036 0)
(-0.776046 -2.18288 0)
(-0.795949 -2.17445 0)
(-0.815029 -2.16511 0)
(-0.833296 -2.15491 0)
(-0.850757 -2.14389 0)
(-0.867424 -2.13209 0)
(-0.883305 -2.11954 0)
(-0.898413 -2.10627 0)
(-0.912756 -2.09234 0)
(-0.926346 -2.07776 0)
(-0.939195 -2.06257 0)
(-0.951315 -2.0468 0)
(-0.962717 -2.03049 0)
(-5.94974e-07 -0.000389332 0)
(-9.37804e-06 -0.00111339 0)
(-2.74182e-05 -0.00178224 0)
(-5.41347e-05 -0.00239522 0)
(-8.85176e-05 -0.00295182 0)
(-0.00012936 -0.00345146 0)
(-0.000174087 -0.00389383 0)
(-0.000218313 -0.00427846 0)
(-0.0002649 -0.00460549 0)
(-0.000355739 -0.00487399 0)
(-0.000568852 -0.00508226 0)
(-0.000861487 -0.00530636 0)
(-0.00112062 -0.00608351 0)
(-0.00440811 -0.377589 0)
(-0.0584219 -1.04624 0)
(-0.0846568 -1.27607 0)
(-0.114866 -1.34496 0)
(-0.144994 -1.37899 0)
(-0.175392 -1.4079 0)
(-0.205963 -1.43575 0)
(-0.236629 -1.46274 0)
(-0.267307 -1.48879 0)
(-0.29792 -1.51385 0)
(-0.328398 -1.53786 0)
(-0.358677 -1.5608 0)
(-0.3887 -1.58263 0)
(-0.418413 -1.60334 0)
(-0.447769 -1.62291 0)
(-0.476727 -1.64135 0)
(-0.505249 -1.65866 0)
(-0.533301 -1.67485 0)
(-0.560852 -1.68992 0)
(-0.587878 -1.70389 0)
(-0.614353 -1.71677 0)
(-0.640258 -1.72858 0)
(-0.665573 -1.73934 0)
(-0.690283 -1.74907 0)
(-0.714375 -1.75778 0)
(-0.737835 -1.76551 0)
(-0.760655 -1.77227 0)
(-0.782826 -1.77809 0)
(-0.804341 -1.78299 0)
(-0.825193 -1.78699 0)
(-0.845378 -1.79012 0)
(-0.864894 -1.79239 0)
(-0.883736 -1.79382 0)
(-0.901905 -1.79445 0)
(-0.919398 -1.79428 0)
(-0.936218 -1.79333 0)
(-0.952363 -1.79163 0)
(-1.45861e-06 -0.000347098 0)
(-1.27625e-05 -0.000990404 0)
(-3.46908e-05 -0.00158346 0)
(-6.63919e-05 -0.0021267 0)
(-0.00010688 -0.00262052 0)
(-0.00015509 -0.00306519 0)
(-0.000208864 -0.00346111 0)
(-0.000264528 -0.00380845 0)
(-0.000324127 -0.00410788 0)
(-0.000420959 -0.0043593 0)
(-0.000619048 -0.00456304 0)
(-0.000882014 -0.00479044 0)
(-0.00113325 -0.00543475 0)
(-0.00248856 -0.184488 0)
(-0.0290847 -0.838606 0)
(-0.0609367 -1.05799 0)
(-0.0920564 -1.12473 0)
(-0.122732 -1.15668 0)
(-0.152992 -1.18297 0)
(-0.182947 -1.20822 0)
(-0.212596 -1.23283 0)
(-0.241944 -1.25675 0)
(-0.270992 -1.27996 0)
(-0.299737 -1.30244 0)
(-0.328173 -1.32417 0)
(-0.356295 -1.34513 0)
(-0.384091 -1.36531 0)
(-0.411551 -1.38468 0)
(-0.438665 -1.40325 0)
(-0.46542 -1.421 0)
(-0.491804 -1.43792 0)
(-0.517807 -1.45402 0)
(-0.543416 -1.46929 0)
(-0.568621 -1.48373 0)
(-0.593411 -1.49735 0)
(-0.617777 -1.51015 0)
(-0.641708 -1.52214 0)
(-0.665197 -1.53332 0)
(-0.688235 -1.54371 0)
(-0.710814 -1.55332 0)
(-0.732929 -1.56216 0)
(-0.754573 -1.57025 0)
(-0.77574 -1.57759 0)
(-0.796425 -1.58421 0)
(-0.816624 -1.59011 0)
(-0.836332 -1.59531 0)
(-0.855547 -1.59982 0)
(-0.874264 -1.60366 0)
(-0.892481 -1.60684 0)
(-0.910195 -1.60937 0)
(-1.25462e-06 -0.000246451 0)
(-1.37213e-05 -0.000705055 0)
(-3.87286e-05 -0.00112909 0)
(-7.55157e-05 -0.00151817 0)
(-0.000122961 -0.00187198 0)
(-0.000179878 -0.00219014 0)
(-0.000244092 -0.00247243 0)
(-0.000312074 -0.00271852 0)
(-0.000385877 -0.00292851 0)
(-0.000497104 -0.00310182 0)
(-0.000705668 -0.00323743 0)
(-0.000969631 -0.00336893 0)
(-0.00121035 -0.00369283 0)
(-0.00183252 -0.0486565 0)
(-0.0154879 -0.437654 0)
(-0.0450104 -0.607251 0)
(-0.0739434 -0.672051 0)
(-0.103222 -0.707987 0)
(-0.132447 -0.738604 0)
(-0.161672 -0.768419 0)
(-0.190843 -0.797845 0)
(-0.219925 -0.826817 0)
(-0.248885 -0.855276 0)
(-0.277694 -0.883186 0)
(-0.306327 -0.910521 0)
(-0.33476 -0.937256 0)
(-0.362969 -0.963371 0)
(-0.390933 -0.988846 0)
(-0.41863 -1.01366 0)
(-0.446043 -1.0378 0)
(-0.473153 -1.06126 0)
(-0.499942 -1.08401 0)
(-0.526395 -1.10605 0)
(-0.552496 -1.12737 0)
(-0.578232 -1.14796 0)
(-0.603591 -1.16782 0)
(-0.62856 -1.18694 0)
(-0.653128 -1.20532 0)
(-0.677287 -1.22296 0)
(-0.701027 -1.23986 0)
(-0.724341 -1.25603 0)
(-0.747222 -1.27147 0)
(-0.769664 -1.28619 0)
(-0.791662 -1.3002 0)
(-0.81321 -1.31349 0)
(-0.834305 -1.32609 0)
(-0.854944 -1.33799 0)
(-0.875123 -1.3492 0)
(-0.894841 -1.35974 0)
(-0.914096 -1.36961 0)
(-1.28124e-06 -0.000173852 0)
(-1.25646e-05 -0.000496105 0)
(-3.49442e-05 -0.000792964 0)
(-6.76991e-05 -0.00106434 0)
(-0.000109855 -0.00131014 0)
(-0.000160498 -0.00153024 0)
(-0.000218262 -0.00172457 0)
(-0.000280954 -0.00189308 0)
(-0.000348544 -0.00203591 0)
(-0.000435394 -0.0021528 0)
(-0.000573937 -0.00224224 0)
(-0.000762219 -0.00231302 0)
(-0.000975439 -0.00244067 0)
(-0.00121452 -0.0109215 0)
(-0.00675611 -0.20184 0)
(-0.0345576 -0.309382 0)
(-0.0619477 -0.357455 0)
(-0.0900832 -0.389165 0)
(-0.118068 -0.418077 0)
(-0.145941 -0.446782 0)
(-0.173688 -0.47547 0)
(-0.201306 -0.504045 0)
(-0.228793 -0.532419 0)
(-0.256145 -0.560535 0)
(-0.283358 -0.588357 0)
(-0.310424 -0.615858 0)
(-0.337336 -0.643013 0)
(-0.364085 -0.669797 0)
(-0.390659 -0.696186 0)
(-0.417049 -0.722156 0)
(-0.443241 -0.747684 0)
(-0.469222 -0.772747 0)
(-0.494982 -0.797326 0)
(-0.520505 -0.821399 0)
(-0.54578 -0.844948 0)
(-0.570795 -0.867956 0)
(-0.595538 -0.890406 0)
(-0.619996 -0.912284 0)
(-0.644158 -0.933579 0)
(-0.668016 -0.95428 0)
(-0.691558 -0.974378 0)
(-0.714775 -0.993869 0)
(-0.73766 -1.01275 0)
(-0.760205 -1.03101 0)
(-0.782402 -1.04865 0)
(-0.804244 -1.06568 0)
(-0.825727 -1.08208 0)
(-0.846845 -1.09786 0)
(-0.867593 -1.11303 0)
(-0.887967 -1.12758 0)
(-1.00595e-06 -9.69134e-05 0)
(-1.04962e-05 -0.000275982 0)
(-2.94535e-05 -0.000440031 0)
(-5.72886e-05 -0.000588689 0)
(-9.31576e-05 -0.000721582 0)
(-0.000136313 -0.000838359 0)
(-0.000185734 -0.000938659 0)
(-0.000239663 -0.00102221 0)
(-0.000297145 -0.00108869 0)
(-0.000366763 -0.00113774 0)
(-0.000474492 -0.00116831 0)
(-0.000638004 -0.00118037 0)
(-0.00084399 -0.00118064 0)
(-0.00109164 -0.000858889 0)
(-0.00268309 0.0172036 0)
(-0.0223165 0.0207331 0)
(-0.0474886 0.0015918 0)
(-0.0738765 -0.0269569 0)
(-0.100221 -0.0580705 0)
(-0.126439 -0.0895492 0)
(-0.152537 -0.120895 0)
(-0.178507 -0.152008 0)
(-0.204395 -0.182872 0)
(-0.230229 -0.213369 0)
(-0.255974 -0.243517 0)
(-0.281624 -0.273328 0)
(-0.307173 -0.302808 0)
(-0.332615 -0.331956 0)
(-0.357943 -0.360773 0)
(-0.38315 -0.389253 0)
(-0.408228 -0.417388 0)
(-0.433169 -0.445165 0)
(-0.457965 -0.472574 0)
(-0.482607 -0.499603 0)
(-0.507085 -0.526235 0)
(-0.531389 -0.552456 0)
(-0.555509 -0.578248 0)
(-0.579435 -0.603596 0)
(-0.603159 -0.628484 0)
(-0.626669 -0.652896 0)
(-0.649957 -0.676819 0)
(-0.673013 -0.700239 0)
(-0.695829 -0.723145 0)
(-0.718395 -0.745527 0)
(-0.740704 -0.767375 0)
(-0.762748 -0.788682 0)
(-0.784519 -0.80944 0)
(-0.80601 -0.829642 0)
(-0.827216 -0.849283 0)
(-0.848129 -0.868358 0)
(-6.82301e-07 -4.45749e-05 0)
(-6.69013e-06 -0.000126144 0)
(-1.85916e-05 -0.000199838 0)
(-3.59912e-05 -0.000265263 0)
(-5.8377e-05 -0.000322017 0)
(-8.53399e-05 -0.000369768 0)
(-0.000116201 -0.000408123 0)
(-0.000149169 -0.000436889 0)
(-0.000181846 -0.000455681 0)
(-0.000219782 -0.000464474 0)
(-0.000297753 -0.000462148 0)
(-0.000460009 -0.000446834 0)
(-0.000678718 -0.000390943 0)
(-0.000894398 0.000365039 0)
(-0.000666727 0.0956543 0)
(-0.00497588 0.24936 0)
(-0.0260452 0.286627 0)
(-0.0483018 0.273191 0)
(-0.0713764 0.244522 0)
(-0.0945827 0.212947 0)
(-0.117842 0.181338 0)
(-0.141142 0.150088 0)
(-0.164444 0.11915 0)
(-0.187698 0.0884755 0)
(-0.210924 0.0580277 0)
(-0.234111 0.0278061 0)
(-0.257248 -0.00218354 0)
(-0.28033 -0.0319351 0)
(-0.303345 -0.0614421 0)
(-0.326271 -0.0906959 0)
(-0.349087 -0.119687 0)
(-0.371811 -0.148412 0)
(-0.394477 -0.176869 0)
(-0.417077 -0.205046 0)
(-0.439598 -0.232935 0)
(-0.462033 -0.260523 0)
(-0.484379 -0.287795 0)
(-0.506634 -0.314736 0)
(-0.528793 -0.341333 0)
(-0.550852 -0.36757 0)
(-0.572809 -0.393435 0)
(-0.594659 -0.418915 0)
(-0.616396 -0.443999 0)
(-0.638014 -0.468674 0)
(-0.659508 -0.492929 0)
(-0.680869 -0.516752 0)
(-0.702091 -0.540132 0)
(-0.723166 -0.56306 0)
(-0.744088 -0.585526 0)
(-0.764849 -0.607522 0)
(-2.2438e-07 -1.71812e-05 0)
(-2.61455e-06 -4.74449e-05 0)
(-7.53229e-06 -7.33868e-05 0)
(-1.48947e-05 -9.46938e-05 0)
(-2.45595e-05 -0.000111054 0)
(-3.64436e-05 -0.000122212 0)
(-5.03436e-05 -0.000127872 0)
(-6.53487e-05 -0.000127912 0)
(-7.96815e-05 -0.000122152 0)
(-9.50066e-05 -0.000110847 0)
(-0.000131702 -9.31299e-05 0)
(-0.000227326 -6.69994e-05 0)
(-0.000360792 5.76357e-06 0)
(-0.000492848 0.000355541 0)
(-0.00026858 0.0467352 0)
(0.00537791 0.372567 0)
(-0.00440515 0.509455 0)
(-0.0205526 0.532111 0)
(-0.0395097 0.513761 0)
(-0.0591108 0.484993 0)
(-0.0788659 0.454483 0)
(-0.0986694 0.42388 0)
(-0.118486 0.393315 0)
(-0.138289 0.362741 0)
(-0.158062 0.332145 0)
(-0.177786 0.301547 0)
(-0.197446 0.270983 0)
(-0.217031 0.240497 0)
(-0.236534 0.210132 0)
(-0.255967 0.179927 0)
(-0.275344 0.14992 0)
(-0.294651 0.120144 0)
(-0.313856 0.0906667 0)
(-0.332964 0.0615522 0)
(-0.352006 0.0327938 0)
(-0.370996 0.00440347 0)
(-0.389953 -0.0236092 0)
(-0.408889 -0.0512366 0)
(-0.427797 -0.0784745 0)
(-0.446672 -0.105323 0)
(-0.465562 -0.131793 0)
(-0.484504 -0.157878 0)
(-0.503474 -0.18359 0)
(-0.522473 -0.208932 0)
(-0.541503 -0.233905 0)
(-0.560564 -0.258509 0)
(-0.579658 -0.282742 0)
(-0.598784 -0.306604 0)
(-0.61794 -0.330094 0)
(-0.637123 -0.35321 0)
(6.31818e-09 -1.14553e-05 0)
(2.5145e-08 -2.94257e-05 0)
(-6.36809e-09 -4.23371e-05 0)
(-1.34834e-07 -4.99455e-05 0)
(-4.115e-07 -5.20028e-05 0)
(-9.07625e-07 -4.82353e-05 0)
(-1.70361e-06 -3.83825e-05 0)
(-2.74677e-06 -2.2168e-05 0)
(-3.44115e-06 5.84134e-07 0)
(-2.70237e-06 3.01018e-05 0)
(-3.199e-06 6.69035e-05 0)
(-1.98204e-05 0.000112722 0)
(-9.2973e-05 0.000186684 0)
(-0.000243097 0.000361505 0)
(-0.000480233 0.0079126 0)
(0.00459165 0.324116 0)
(0.0160574 0.609162 0)
(0.00841268 0.717332 0)
(-0.00437748 0.728422 0)
(-0.0192529 0.706828 0)
(-0.0347367 0.677484 0)
(-0.0503217 0.646696 0)
(-0.0658693 0.615531 0)
(-0.0813416 0.584099 0)
(-0.0967179 0.552437 0)
(-0.111983 0.520616 0)
(-0.127126 0.488737 0)
(-0.142138 0.456906 0)
(-0.157017 0.425223 0)
(-0.171765 0.393773 0)
(-0.18639 0.362632 0)
(-0.200899 0.331874 0)
(-0.215306 0.301571 0)
(-0.229628 0.271788 0)
(-0.243884 0.242586 0)
(-0.258098 0.214009 0)
(-0.272286 0.186079 0)
(-0.286468 0.158788 0)
(-0.300669 0.132109 0)
(-0.314922 0.105999 0)
(-0.329217 0.0804155 0)
(-0.343516 0.0553743 0)
(-0.357883 0.0308473 0)
(-0.37235 0.00681664 0)
(-0.386948 -0.0167317 0)
(-0.401708 -0.0398118 0)
(-0.416648 -0.0624411 0)
(-0.431784 -0.0846414 0)
(-0.447139 -0.106444 0)
(-0.46274 -0.12789 0)
(1.62557e-07 -1.77768e-05 0)
(1.69464e-06 -4.76247e-05 0)
(4.74437e-06 -7.17112e-05 0)
(9.21761e-06 -8.98722e-05 0)
(1.49773e-05 -0.000101957 0)
(2.18664e-05 -0.000107784 0)
(2.96944e-05 -0.000107223 0)
(3.84808e-05 -0.000100071 0)
(4.94369e-05 -8.62928e-05 0)
(6.53907e-05 -6.57109e-05 0)
(8.3857e-05 -3.84957e-05 0)
(7.19797e-05 -4.13145e-06 0)
(-4.28904e-05 3.93623e-05 0)
(-0.000230647 0.000140151 0)
(-0.000367681 0.00112955 0)
(0.000815773 0.109179 0)
(0.0211446 0.531493 0)
(0.0245057 0.771518 0)
(0.0202965 0.859891 0)
(0.0115909 0.867915 0)
(0.000895857 0.845565 0)
(-0.0103434 0.815255 0)
(-0.0216269 0.783219 0)
(-0.0328385 0.750511 0)
(-0.0439478 0.717322 0)
(-0.0549373 0.683779 0)
(-0.0657906 0.650029 0)
(-0.0764938 0.616227 0)
(-0.0870356 0.582523 0)
(-0.097407 0.549062 0)
(-0.107604 0.515982 0)
(-0.117624 0.483426 0)
(-0.127473 0.451536 0)
(-0.137157 0.420433 0)
(-0.146688 0.390198 0)
(-0.156079 0.360845 0)
(-0.165341 0.332334 0)
(-0.174487 0.304598 0)
(-0.183523 0.277592 0)
(-0.192457 0.251317 0)
(-0.201298 0.225841 0)
(-0.210056 0.201273 0)
(-0.218748 0.177731 0)
(-0.227398 0.155295 0)
(-0.236036 0.133978 0)
(-0.244702 0.113721 0)
(-0.25344 0.0944118 0)
(-0.262311 0.0759043 0)
(-0.27137 0.0580579 0)
(-0.280638 0.0407823 0)
(2.01035e-07 -3.24633e-05 0)
(1.7918e-06 -8.91537e-05 0)
(4.84193e-06 -0.000137777 0)
(9.2043e-06 -0.000178401 0)
(1.47041e-05 -0.000211069 0)
(2.11926e-05 -0.000235802 0)
(2.85216e-05 -0.000252615 0)
(3.65423e-05 -0.000261509 0)
(4.52247e-05 -0.000262524 0)
(5.49738e-05 -0.000255785 0)
(6.64961e-05 -0.000241523 0)
(7.7354e-05 -0.000219646 0)
(7.59022e-05 -0.000188089 0)
(3.14875e-05 -0.000123375 0)
(-9.34073e-05 6.1489e-05 0)
(-0.000214765 0.011108 0)
(0.00915129 0.383543 0)
(0.0238563 0.712281 0)
(0.0282801 0.890891 0)
(0.0261561 0.955095 0)
(0.0203806 0.956755 0)
(0.0130053 0.932958 0)
(0.00513401 0.901348 0)
(-0.00281435 0.867661 0)
(-0.010721 0.833169 0)
(-0.0185501 0.798101 0)
(-0.0262855 0.762603 0)
(-0.0339124 0.726841 0)
(-0.0414156 0.690987 0)
(-0.048779 0.65521 0)
(-0.0559881 0.619675 0)
(-0.0630291 0.584554 0)
(-0.0698886 0.550028 0)
(-0.0765566 0.516256 0)
(-0.0830246 0.483363 0)
(-0.0892867 0.451411 0)
(-0.0953421 0.420389 0)
(-0.101194 0.39024 0)
(-0.106846 0.360896 0)
(-0.112304 0.332319 0)
(-0.117574 0.30452 0)
(-0.122656 0.277578 0)
(-0.12755 0.251628 0)
(-0.132256 0.226837 0)
(-0.136777 0.203371 0)
(-0.141121 0.181384 0)
(-0.145306 0.161006 0)
(-0.149363 0.142337 0)
(-0.153328 0.12544 0)
(-0.15724 0.110321 0)
(-2.64147e-08 -3.85219e-05 0)
(-2.01162e-07 -0.00010569 0)
(-5.29745e-07 -0.000163204 0)
(-9.93446e-07 -0.000211185 0)
(-1.56903e-06 -0.000249689 0)
(-2.23888e-06 -0.000278734 0)
(-3.01638e-06 -0.000298284 0)
(-3.94224e-06 -0.000308305 0)
(-4.922e-06 -0.000308688 0)
(-5.15249e-06 -0.000299378 0)
(-3.00034e-06 -0.000280108 0)
(-7.85899e-07 -0.000250785 0)
(-1.83988e-05 -0.000211153 0)
(-0.000106917 -0.00015641 0)
(-0.000271406 -4.70248e-05 0)
(-0.000489822 0.00255558 0)
(0.000860217 0.19644 0)
(0.0182879 0.571872 0)
(0.0265355 0.830015 0)
(0.0299836 0.964953 0)
(0.0291289 1.01098 0)
(0.0254039 1.00758 0)
(0.0202834 0.982664 0)
(0.0146622 0.950238 0)
(0.00890873 0.915451 0)
(0.00313902 0.879698 0)
(-0.00261922 0.843319 0)
(-0.00834952 0.806482 0)
(-0.0140304 0.769349 0)
(-0.0196478 0.732085 0)
(-0.025187 0.694857 0)
(-0.0306331 0.657833 0)
(-0.0359697 0.62119 0)
(-0.0411795 0.585096 0)
(-0.0462448 0.549699 0)
(-0.0511494 0.515112 0)
(-0.0558809 0.481396 0)
(-0.0604322 0.448568 0)
(-0.0648019 0.416621 0)
(-0.0689927 0.385544 0)
(-0.0730103 0.35535 0)
(-0.0768604 0.326086 0)
(-0.0805471 0.29784 0)
(-0.0840715 0.270735 0)
(-0.0874316 0.244911 0)
(-0.090624 0.220504 0)
(-0.093644 0.197629 0)
(-0.0964866 0.176374 0)
(-0.0991459 0.156786 0)
(-0.101619 0.138871 0)
(-2.64014e-07 -3.04301e-05 0)
(-2.60866e-06 -8.33331e-05 0)
(-7.18921e-06 -0.000128492 0)
(-1.37926e-05 -0.000166043 0)
(-2.21273e-05 -0.000196067 0)
(-3.19395e-05 -0.00021863 0)
(-4.30328e-05 -0.000233751 0)
(-5.52489e-05 -0.000241479 0)
(-6.82032e-05 -0.000241796 0)
(-8.05086e-05 -0.0002348 0)
(-8.97857e-05 -0.000220377 0)
(-9.94209e-05 -0.000198818 0)
(-0.000137598 -0.000170219 0)
(-0.000260068 -0.000134003 0)
(-0.000451505 -6.5735e-05 0)
(-0.000651551 0.00106634 0)
(-0.000676888 0.103561 0)
(0.00853023 0.444425 0)
(0.0187135 0.72639 0)
(0.0267517 0.914392 0)
(0.030895 1.01092 0)
(0.0313834 1.04092 0)
(0.0294115 1.03276 0)
(0.0261466 1.007 0)
(0.022316 0.974497 0)
(0.0182503 0.939605 0)
(0.0140614 0.903653 0)
(0.00978 0.867017 0)
(0.00542332 0.829887 0)
(0.00101563 0.792436 0)
(-0.00343349 0.754833 0)
(-0.00790403 0.717237 0)
(-0.0123636 0.679795 0)
(-0.0167966 0.642656 0)
(-0.0211841 0.60596 0)
(-0.0255057 0.56984 0)
(-0.0297428 0.5344 0)
(-0.0338794 0.499719 0)
(-0.0379015 0.465861 0)
(-0.0418001 0.432874 0)
(-0.0455685 0.400806 0)
(-0.0492016 0.369715 0)
(-0.0526948 0.339677 0)
(-0.0560419 0.310786 0)
(-0.0592353 0.283152 0)
(-0.0622668 0.25689 0)
(-0.0651287 0.232113 0)
(-0.067815 0.208925 0)
(-0.0703242 0.187405 0)
(-0.0726611 0.167616 0)
(-4.65089e-07 -6.71852e-06 0)
(-4.61044e-06 -1.62344e-05 0)
(-1.28678e-05 -2.19883e-05 0)
(-2.49728e-05 -2.41003e-05 0)
(-4.05413e-05 -2.26515e-05 0)
(-5.92463e-05 -1.77164e-05 0)
(-8.08235e-05 -9.34431e-06 0)
(-0.000105025 2.38024e-06 0)
(-0.000131305 1.74128e-05 0)
(-0.000158124 3.56176e-05 0)
(-0.000183411 5.70273e-05 0)
(-0.000212368 8.11584e-05 0)
(-0.000274092 0.000107353 0)
(-0.00041714 0.000135577 0)
(-0.000629421 0.000187013 0)
(-0.000886568 0.00122824 0)
(-0.00126767 0.0823239 0)
(0.00364132 0.344311 0)
(0.0152571 0.600446 0)
(0.0274035 0.811373 0)
(0.0371368 0.953215 0)
(0.0431141 1.02684 0)
(0.0454488 1.0489 0)
(0.0450776 1.0395 0)
(0.0430728 1.01441 0)
(0.0402371 0.982851 0)
(0.0370208 0.948975 0)
(0.033612 0.914128 0)
(0.0300607 0.878597 0)
(0.0263695 0.842456 0)
(0.0225338 0.805824 0)
(0.0185613 0.768881 0)
(0.0144736 0.73182 0)
(0.010297 0.694818 0)
(0.00606058 0.658022 0)
(0.0017947 0.621563 0)
(-0.00247361 0.585541 0)
(-0.00671885 0.550049 0)
(-0.0109187 0.515166 0)
(-0.0150536 0.480959 0)
(-0.0191052 0.447496 0)
(-0.023057 0.414842 0)
(-0.0268926 0.383073 0)
(-0.0305957 0.352277 0)
(-0.0341502 0.322565 0)
(-0.0375403 0.294067 0)
(-0.0407532 0.266935 0)
(-0.0437797 0.24133 0)
(-0.046617 0.217414 0)
(-0.0492694 0.195333 0)
(-7.05196e-07 2.44422e-05 0)
(-7.89172e-06 7.47695e-05 0)
(-2.24644e-05 0.000126068 0)
(-4.40829e-05 0.000177924 0)
(-7.21747e-05 0.000229989 0)
(-0.000106283 0.000281949 0)
(-0.000146057 0.000333503 0)
(-0.000191116 0.000384321 0)
(-0.000240595 0.000434072 0)
(-0.000292624 0.00048238 0)
(-0.000346248 0.000528959 0)
(-0.000412485 0.000573136 0)
(-0.000524819 0.000614018 0)
(-0.000706823 0.000652669 0)
(-0.000946062 0.000696067 0)
(-0.00132048 0.00156341 0)
(-0.00162415 0.0614872 0)
(0.00465896 0.232881 0)
(0.0176231 0.434731 0)
(0.033957 0.63876 0)
(0.0504787 0.812965 0)
(0.0644957 0.937875 0)
(0.0744824 1.01035 0)
(0.0801727 1.03889 0)
(0.0822072 1.03677 0)
(0.0816037 1.01651 0)
(0.0793395 0.987303 0)
(0.0761482 0.954557 0)
(0.0724876 0.920791 0)
(0.0685958 0.886811 0)
(0.0645694 0.85266 0)
(0.0604291 0.818188 0)
(0.0561652 0.783297 0)
(0.0517646 0.748003 0)
(0.047222 0.71241 0)
(0.0425443 0.67667 0)
(0.0377484 0.640944 0)
(0.0328593 0.60538 0)
(0.027906 0.570109 0)
(0.0229202 0.535239 0)
(0.0179336 0.500862 0)
(0.0129773 0.467057 0)
(0.00808209 0.433907 0)
(0.00327584 0.401503 0)
(-0.00141148 0.369971 0)
(-0.00594761 0.339463 0)
(-0.0103049 0.310168 0)
(-0.0144596 0.282319 0)
(-0.0183895 0.256151 0)
(-0.0220783 0.231884 0)
(-1.04492e-06 9.29984e-05 0)
(-9.45057e-06 0.000270806 0)
(-2.65797e-05 0.00044113 0)
(-5.25334e-05 0.000604447 0)
(-8.74053e-05 0.000761047 0)
(-0.000131509 0.000911039 0)
(-0.000185317 0.00105434 0)
(-0.000249351 0.00119058 0)
(-0.000323718 0.00131917 0)
(-0.000407605 0.00143912 0)
(-0.000500994 0.00154929 0)
(-0.000615386 0.00164797 0)
(-0.000786314 0.00173402 0)
(-0.00103637 0.00181402 0)
(-0.00134655 0.00192059 0)
(-0.00181938 0.00245416 0)
(-0.00266883 0.0193075 0)
(0.00322749 0.106855 0)
(0.0170772 0.236189 0)
(0.0369476 0.396338 0)
(0.0597653 0.567058 0)
(0.0827039 0.72543 0)
(0.103405 0.854226 0)
(0.120179 0.945321 0)
(0.132243 0.998938 0)
(0.139653 1.02077 0)
(0.143032 1.01882 0)
(0.14326 1.00101 0)
(0.141224 0.973846 0)
(0.137683 0.941932 0)
(0.133208 0.908131 0)
(0.128192 0.873945 0)
(0.12288 0.839984 0)
(0.117408 0.806358 0)
(0.111841 0.772956 0)
(0.1062 0.739614 0)
(0.100483 0.706203 0)
(0.0946831 0.672654 0)
(0.0887891 0.638956 0)
(0.0827966 0.605146 0)
(0.0767066 0.571289 0)
(0.0705271 0.537465 0)
(0.0642721 0.503766 0)
(0.0579616 0.470296 0)
(0.0516209 0.437173 0)
(0.0452818 0.404548 0)
(0.0389811 0.372601 0)
(0.0327612 0.341574 0)
(0.0266701 0.311763 0)
(0.020757 0.283503 0)
(6.67009e-07 0.00012656 0)
(2.4507e-06 0.000383878 0)
(3.20458e-06 0.00064706 0)
(1.07021e-06 0.000917283 0)
(-5.77197e-06 0.00119572 0)
(-1.91674e-05 0.00148368 0)
(-4.10141e-05 0.0017824 0)
(-7.33437e-05 0.00209303 0)
(-0.000118149 0.00241651 0)
(-0.000176766 0.00275367 0)
(-0.000249757 0.00310499 0)
(-0.000341422 0.00347107 0)
(-0.000477039 0.00385276 0)
(-0.000701495 0.00425366 0)
(-0.000998881 0.0047801 0)
(-0.00130608 0.00473764 0)
(-0.00173965 0.00106384 0)
(-0.000968784 -0.0135151 0)
(0.00758304 -0.0105843 0)
(0.021297 0.0974584 0)
(0.0410371 0.233776 0)
(0.0684338 0.385412 0)
(0.0980798 0.537538 0)
(0.127029 0.676582 0)
(0.153044 0.792919 0)
(0.174896 0.881716 0)
(0.19207 0.942363 0)
(0.204534 0.977296 0)
(0.21261 0.99067 0)
(0.216845 0.98724 0)
(0.217901 0.971573 0)
(0.216442 0.947594 0)
(0.213076 0.918408 0)
(0.208316 0.886293 0)
(0.20257 0.852804 0)
(0.19615 0.818918 0)
(0.189284 0.785185 0)
(0.18213 0.751866 0)
(0.174794 0.71904 0)
(0.167343 0.686683 0)
(0.159819 0.654726 0)
(0.152241 0.623087 0)
(0.144621 0.591694 0)
(0.136962 0.560494 0)
(0.129265 0.52946 0)
(0.121532 0.498601 0)
(0.113771 0.467961 0)
(0.105996 0.437634 0)
(0.0982301 0.407765 0)
(0.0905083 0.378563 0)
(1.31077e-06 7.34761e-05 0)
(1.19638e-05 0.000257629 0)
(3.16845e-05 0.000479711 0)
(5.87165e-05 0.00073942 0)
(9.12891e-05 0.00103723 0)
(0.00012776 0.00137455 0)
(0.000166734 0.00175305 0)
(0.00020685 0.00217486 0)
(0.000246695 0.00264228 0)
(0.000284746 0.00315805 0)
(0.000319962 0.00372496 0)
(0.000353355 0.00434652 0)
(0.000388221 0.00502628 0)
(0.000416358 0.00577094 0)
(0.000374756 0.00658812 0)
(0.000147588 0.00701727 0)
(-0.0002162 0.00776318 0)
(-0.000708973 0.00663533 0)
(-0.00167159 -0.00487613 0)
(-0.00227127 -0.000542428 0)
(0.00519477 -0.0746735 0)
(0.0180568 -0.00151661 0)
(0.0374721 0.10905 0)
(0.0635164 0.251318 0)
(0.092869 0.395305 0)
(0.124879 0.528632 0)
(0.157718 0.645249 0)
(0.189328 0.742179 0)
(0.218147 0.81837 0)
(0.243212 0.874296 0)
(0.264059 0.911564 0)
(0.280596 0.932471 0)
(0.292983 0.939614 0)
(0.301538 0.935592 0)
(0.306654 0.922818 0)
(0.308744 0.903407 0)
(0.308217 0.879131 0)
(0.305455 0.851422 0)
(0.300804 0.821404 0)
(0.294573 0.789932 0)
(0.287033 0.757637 0)
(0.278416 0.724976 0)
(0.268926 0.692263 0)
(0.258733 0.659711 0)
(0.247985 0.627454 0)
(0.236804 0.595567 0)
(0.225297 0.564094 0)
(0.213552 0.533067 0)
(0.201651 0.502522 0)
(0.189674 0.472507 0)
(7.65718e-07 -2.16393e-05 0)
(7.2334e-06 -1.11539e-05 0)
(2.07948e-05 5.32908e-05 0)
(4.1317e-05 0.000168066 0)
(6.93147e-05 0.000330016 0)
(0.000105227 0.000537866 0)
(0.000149756 0.000791124 0)
(0.000203675 0.00109005 0)
(0.000267808 0.00143516 0)
(0.000343084 0.00182715 0)
(0.000430438 0.00226706 0)
(0.000530993 0.00275607 0)
(0.000647173 0.00329567 0)
(0.000784902 0.00388726 0)
(0.0009499 0.00453363 0)
(0.00111819 0.00524143 0)
(0.00116336 0.00602702 0)
(0.000944229 0.00607134 0)
(0.000574238 0.00623085 0)
(6.94968e-05 0.00708197 0)
(-0.00147435 -0.00164146 0)
(-0.0023694 0.0067209 0)
(-0.00562465 -0.0025749 0)
(0.00406279 -0.00736441 0)
(0.0178736 0.0272334 0)
(0.0350169 0.0696215 0)
(0.0587265 0.1369 0)
(0.0866453 0.224087 0)
(0.117848 0.322019 0)
(0.151159 0.421392 0)
(0.185691 0.515141 0)
(0.220648 0.598946 0)
(0.255204 0.670767 0)
(0.28857 0.73015 0)
(0.320029 0.777548 0)
(0.348949 0.813872 0)
(0.374819 0.840212 0)
(0.39728 0.857688 0)
(0.416135 0.867369 0)
(0.431324 0.870246 0)
(0.442885 0.867223 0)
(0.450931 0.859118 0)
(0.455621 0.846662 0)
(0.457152 0.8305 0)
(0.455731 0.811202 0)
(0.451582 0.789299 0)
(0.444984 0.765259 0)
(0.436225 0.73945 0)
(0.425522 0.712154 0)
(0.413039 0.683604 0)
(2.8621e-08 -1.58118e-05 0)
(1.22561e-06 -2.19652e-06 0)
(5.16575e-06 5.00529e-05 0)
(1.30336e-05 0.000131644 0)
(2.61869e-05 0.000237529 0)
(4.59269e-05 0.00036664 0)
(7.35992e-05 0.000518899 0)
(0.000110555 0.000694489 0)
(0.000158213 0.00089317 0)
(0.000218042 0.00111428 0)
(0.000291673 0.00135704 0)
(0.000380663 0.00162031 0)
(0.000486899 0.00190299 0)
(0.000612178 0.00220328 0)
(0.000758779 0.00251966 0)
(0.000931993 0.00284974 0)
(0.00113504 0.0031952 0)
(0.00136015 0.00356323 0)
(0.00152401 0.00397014 0)
(0.00142611 0.00420286 0)
(0.00110693 0.00383286 0)
(0.00093341 0.00395806 0)
(0.00105023 0.00489242 0)
(0.000885586 -0.00317795 0)
(0.00122014 0.000519079 0)
(0.00274708 0.00171187 0)
(0.00666105 0.00590181 0)
(0.0136057 0.0100326 0)
(0.0238041 0.0152715 0)
(0.0378405 0.022523 0)
(0.0564587 0.0320331 0)
(0.0790968 0.0452877 0)
(0.10512 0.0660234 0)
(0.133939 0.0971645 0)
(0.16488 0.139854 0)
(0.197268 0.19289 0)
(0.230611 0.253321 0)
(0.264517 0.317746 0)
(0.298586 0.38316 0)
(0.332412 0.447191 0)
(0.365583 0.508041 0)
(0.397694 0.564404 0)
(0.428343 0.615482 0)
(0.457145 0.661006 0)
(0.48366 0.700845 0)
(0.507466 0.733974 0)
(0.528387 0.760076 0)
(0.546095 0.780577 0)
(0.560596 0.796806 0)
(0.571974 0.809191 0)
(-0.973415 -2.01366 0)
(-0.983421 -1.99635 0)
(-0.992749 -1.97858 0)
(-1.00141 -1.96038 0)
(-1.00942 -1.94177 0)
(-1.0168 -1.9228 0)
(-1.02355 -1.90347 0)
(-1.02969 -1.88383 0)
(-1.03524 -1.86389 0)
(-1.04022 -1.84368 0)
(-1.04463 -1.82323 0)
(-1.04849 -1.80255 0)
(-1.05182 -1.78168 0)
(-1.05463 -1.76063 0)
(-1.05694 -1.73943 0)
(-1.05877 -1.7181 0)
(-1.06013 -1.69665 0)
(-1.06103 -1.67511 0)
(-1.0615 -1.6535 0)
(-1.06155 -1.63183 0)
(-1.06119 -1.61013 0)
(-1.06045 -1.58841 0)
(-1.05933 -1.56669 0)
(-1.05785 -1.54498 0)
(-1.05604 -1.52331 0)
(-1.0539 -1.50169 0)
(-1.05145 -1.48013 0)
(-1.04871 -1.45865 0)
(-1.04568 -1.43727 0)
(-1.0424 -1.41599 0)
(-1.03887 -1.39484 0)
(-1.03511 -1.37382 0)
(-1.03113 -1.35296 0)
(-1.02694 -1.33225 0)
(-1.02257 -1.31171 0)
(-1.01802 -1.29136 0)
(-1.01331 -1.27119 0)
(-1.00846 -1.25122 0)
(-1.00347 -1.23146 0)
(-0.998358 -1.21192 0)
(-0.993139 -1.1926 0)
(-0.987825 -1.17351 0)
(-0.982426 -1.15466 0)
(-0.976953 -1.13605 0)
(-0.971421 -1.11769 0)
(-0.965848 -1.09958 0)
(-0.960236 -1.08173 0)
(-0.954567 -1.06414 0)
(-0.948839 -1.04681 0)
(-0.943161 -1.02975 0)
(-0.967838 -1.78919 0)
(-0.982643 -1.78604 0)
(-0.996783 -1.78218 0)
(-1.01026 -1.77765 0)
(-1.02308 -1.77245 0)
(-1.03526 -1.76661 0)
(-1.04678 -1.76014 0)
(-1.05767 -1.75308 0)
(-1.06793 -1.74543 0)
(-1.07756 -1.73721 0)
(-1.08658 -1.72845 0)
(-1.09499 -1.71916 0)
(-1.10281 -1.70937 0)
(-1.11004 -1.69909 0)
(-1.11669 -1.68833 0)
(-1.12277 -1.67713 0)
(-1.1283 -1.66549 0)
(-1.13328 -1.65344 0)
(-1.13772 -1.64099 0)
(-1.14165 -1.62815 0)
(-1.14506 -1.61495 0)
(-1.14798 -1.60141 0)
(-1.15041 -1.58753 0)
(-1.15236 -1.57335 0)
(-1.15386 -1.55887 0)
(-1.15491 -1.54411 0)
(-1.15552 -1.52909 0)
(-1.15572 -1.51383 0)
(-1.15551 -1.49834 0)
(-1.15491 -1.48264 0)
(-1.15393 -1.46676 0)
(-1.15258 -1.45069 0)
(-1.15088 -1.43447 0)
(-1.14885 -1.4181 0)
(-1.14649 -1.4016 0)
(-1.14383 -1.38499 0)
(-1.14087 -1.36828 0)
(-1.13764 -1.35148 0)
(-1.13414 -1.33461 0)
(-1.13039 -1.31769 0)
(-1.1264 -1.30072 0)
(-1.12218 -1.28372 0)
(-1.11776 -1.26671 0)
(-1.11314 -1.2497 0)
(-1.10833 -1.23269 0)
(-1.10335 -1.2157 0)
(-1.09822 -1.19875 0)
(-1.09295 -1.18184 0)
(-1.08758 -1.16499 0)
(-1.08204 -1.1482 0)
(-0.927404 -1.61126 0)
(-0.944108 -1.61253 0)
(-0.960303 -1.61319 0)
(-0.97599 -1.61325 0)
(-0.991167 -1.61273 0)
(-1.00584 -1.61162 0)
(-1.01999 -1.60996 0)
(-1.03364 -1.60776 0)
(-1.04679 -1.60501 0)
(-1.05942 -1.60175 0)
(-1.07155 -1.59797 0)
(-1.08318 -1.59371 0)
(-1.09431 -1.58895 0)
(-1.10494 -1.58373 0)
(-1.11507 -1.57805 0)
(-1.12472 -1.57193 0)
(-1.13387 -1.56537 0)
(-1.14254 -1.55839 0)
(-1.15074 -1.551 0)
(-1.15845 -1.54322 0)
(-1.1657 -1.53505 0)
(-1.17248 -1.52651 0)
(-1.17881 -1.51761 0)
(-1.18467 -1.50836 0)
(-1.19009 -1.49877 0)
(-1.19507 -1.48886 0)
(-1.19961 -1.47864 0)
(-1.20372 -1.46811 0)
(-1.20741 -1.45729 0)
(-1.21069 -1.4462 0)
(-1.21356 -1.43485 0)
(-1.21603 -1.42324 0)
(-1.21811 -1.41138 0)
(-1.2198 -1.39929 0)
(-1.22112 -1.38698 0)
(-1.22208 -1.37447 0)
(-1.22268 -1.36175 0)
(-1.22294 -1.34885 0)
(-1.22286 -1.33578 0)
(-1.22245 -1.32254 0)
(-1.22173 -1.30916 0)
(-1.22069 -1.29563 0)
(-1.21936 -1.28198 0)
(-1.21775 -1.26821 0)
(-1.21585 -1.25434 0)
(-1.2137 -1.24037 0)
(-1.21128 -1.22632 0)
(-1.20861 -1.21219 0)
(-1.20567 -1.19799 0)
(-1.20254 -1.18374 0)
(-0.932885 -1.37882 0)
(-0.951209 -1.38737 0)
(-0.969067 -1.39528 0)
(-0.986457 -1.40256 0)
(-1.00338 -1.40921 0)
(-1.01984 -1.41524 0)
(-1.03583 -1.42067 0)
(-1.05136 -1.4255 0)
(-1.06642 -1.42975 0)
(-1.08102 -1.43342 0)
(-1.09516 -1.43652 0)
(-1.10884 -1.43907 0)
(-1.12206 -1.44107 0)
(-1.13483 -1.44253 0)
(-1.14715 -1.44347 0)
(-1.15901 -1.44389 0)
(-1.17043 -1.4438 0)
(-1.18141 -1.44322 0)
(-1.19194 -1.44216 0)
(-1.20204 -1.44062 0)
(-1.2117 -1.43861 0)
(-1.22093 -1.43616 0)
(-1.22974 -1.43325 0)
(-1.23811 -1.42992 0)
(-1.24607 -1.42616 0)
(-1.25362 -1.42198 0)
(-1.26075 -1.41741 0)
(-1.26747 -1.41244 0)
(-1.27379 -1.40708 0)
(-1.2797 -1.40135 0)
(-1.28523 -1.39525 0)
(-1.29036 -1.38879 0)
(-1.29511 -1.38198 0)
(-1.29947 -1.37482 0)
(-1.30346 -1.36733 0)
(-1.30709 -1.35952 0)
(-1.31035 -1.35139 0)
(-1.31325 -1.34296 0)
(-1.31581 -1.33424 0)
(-1.31802 -1.32523 0)
(-1.31989 -1.31595 0)
(-1.32144 -1.3064 0)