/*--------------------------------*- C++ -*----------------------------------*\
| =========                 |                                                 |
| \\      /  F ield         | OpenFOAM: The Open Source CFD Toolbox           |
|  \\    /   O peration     | Version:  2.4.0                                 |
|   \\  /    A nd           | Web:      www.OpenFOAM.org                      |
|    \\/     M anipulation  |                                                 |
\*---------------------------------------------------------------------------*/
FoamFile
{
    version     2.0;
    format      ascii;
    class       volScalarField;
    location    "3.7";
    object      H;
}
// * * * * * * * * * * * * * * * * * * * * * * * * * * * * * * * * * * * * * //

dimensions      [0 2 -2 0 0 0 0];

internalField   nonuniform List<scalar> 
8000
(
-11964.1
-11433.9
-10908
-10388.7
-9877.81
-9376.62
-8885.74
-8405.43
-7935.4
-7475.12
-7023.74
-6580.3
-6143.73
-5713.02
-5287.24
-4865.69
-4447.9
-4033.76
-3623.52
-3217.79
-2817.56
-2424.11
-2038.89
-1663.55
-1298.71
-949.104
-608.665
-255.165
-2.69586
-4.53593
-4.68399
-4.12444
-3.61688
-3.08369
-2.54176
-2.25819
-2.03617
-1.85897
-1.72122
-1.61703
-1.54714
-1.50842
-1.49449
-1.50137
-1.52182
-1.55253
-1.59058
-1.6337
-1.68006
-1.72811
-11963.8
-11432.1
-10902.9
-10377.5
-9857.07
-9342.24
-8833.31
-8330.12
-7832.2
-7338.79
-6848.94
-6361.66
-5875.99
-5391.17
-4906.67
-4422.38
-3938.68
-3456.62
-2977.73
-2504.22
-2038.75
-1584.54
-1145.17
-728.864
-302.645
-3.21445
-0.0760943
-0.0279537
-0.232939
-0.526543
-0.809236
-0.930829
-1.11292
-1.21951
-1.32088
-1.40419
-1.46791
-1.51606
-1.55189
-1.5789
-1.60218
-1.62563
-1.65132
-1.68006
-1.71184
-1.74627
-1.7828
-1.82078
-1.85958
-1.8986
-11960.5
-11421.6
-10883.4
-10346.3
-9810.53
-9276.08
-8742.64
-8209.58
-7676.01
-7140.87
-6603.08
-6061.59
-5515.58
-4964.59
-4408.72
-3848.71
-3286.12
-2723.21
-2163.08
-1610.12
-1070.42
-529.041
-5.41591
-0.105459
-0.0343485
-0.155861
-0.310443
-0.404898
-0.554898
-0.699215
-0.837435
-0.966155
-1.08447
-1.19049
-1.28477
-1.36788
-1.44075
-1.50479
-1.56161
-1.61287
-1.66016
-1.7048
-1.74778
-1.78974
-1.83107
-1.87193
-1.91237
-1.95232
-1.99169
-2.03036
-11954.7
-11403.7
-10851.9
-10298.6
-9743.17
-9184.67
-8621.93
-8053.58
-7478.2
-6894.18
-6300.05
-5694.51
-5076.74
-4446.54
-3804.71
-3152.97
-2493.82
-1829.55
-1162.22
-485.037
-4.73126
-0.101668
-0.0144103
-0.203558
-0.363664
-0.496331
-0.636834
-0.773321
-0.902371
-1.02053
-1.1287
-1.22799
-1.31985
-1.40384
-1.48065
-1.55102
-1.61588
-1.67613
-1.73258
-1.78599
-1.83696
-1.88601
-1.93351
-1.97974
-2.02488
-2.06904
-2.11227
-2.15458
-2.19578
-2.23546
-11946.2
-11377.9
-10807.5
-10233.2
-9653.22
-9065.44
-8467.62
-7857.4
-7232.41
-6590.36
-5929.17
-5247.17
-4543.52
-3818.54
-3073.81
-2311.2
-1528.37
-710.819
-6.68412
-0.180418
-0.287849
-0.405312
-0.470931
-0.580648
-0.697433
-0.81115
-0.919842
-1.02443
-1.12791
-1.2278
-1.32309
-1.41294
-1.49713
-1.57578
-1.64927
-1.71812
-1.7829
-1.84418
-1.90249
-1.95829
-2.01198
-2.06389
-2.11426
-2.16326
-2.21087
-2.25698
-2.30139
-2.34384
-2.38401
-2.42208
-11933.3
-11338.4
-10738.7
-10131.1
-9512.7
-8880.22
-8230.65
-7561.05
-6868.66
-6150.99
-5405.47
-4629.95
-3825.91
-2994.02
-2134.65
-1248.39
-329.398
-5.25712
-3.64777
-2.21344
-1.44116
-1.11137
-0.993302
-0.97888
-1.01143
-1.06536
-1.12814
-1.1946
-1.263
-1.33226
-1.4017
-1.47047
-1.53828
-1.60501
-1.67063
-1.73518
-1.79881
-1.86167
-1.92408
-1.98633
-2.04881
-2.1112
-2.17316
-2.23416
-2.29397
-2.35217
-2.40841
-2.4622
-2.51323
-2.56105
-11912
-11273
-10625.9
-9966.33
-9290.34
-8594.55
-7876
-7132.23
-6361.59
-5563.51
-4738.69
-3888.16
-3008.92
-2084.32
-1082.07
-10.2853
-0.555082
-1.01468
-1.55535
-1.95221
-2.21207
-2.35159
-2.40895
-2.42335
-2.39976
-2.35092
-2.28976
-2.2269
-2.16995
-2.12347
-2.08963
-2.06896
-2.061
-2.0649
-2.0797
-2.10461
-2.1391
-2.18301
-2.23556
-2.29432
-2.357
-2.42196
-2.4878
-2.55329
-2.61734
-2.67893
-2.73719
-2.79126
-2.84045
-2.88418
-11884.7
-11190.8
-10488.1
-9771.77
-9038.13
-8284.21
-7507.94
-6708.23
-5885.32
-5041.2
-4179.94
-3307.11
-2426.95
-1535
-605.015
-13.0263
-9.31105
-8.491
-7.75181
-7.07953
-6.49823
-6.00327
-5.57349
-5.19796
-4.86756
-4.57812
-4.32751
-4.11405
-3.93593
-3.79103
-3.677
-3.5914
-3.53178
-3.49385
-3.47359
-3.46715
-3.47055
-3.47975
-3.49167
-3.50509
-3.51886
-3.53198
-3.54351
-3.55262
-3.55857
-3.56069
-3.55847
-3.55134
-3.53887
-3.52088
-11869.2
-11144.9
-10413.3
-9670.42
-8913.16
-8139.32
-7347.71
-6538.28
-5712.4
-4873.04
-4024.77
-3172.72
-2319.01
-1454.02
-541.121
-14.1772
-10.3583
-9.83454
-9.33416
-8.85225
-8.39752
-7.9745
-7.58915
-7.24131
-6.93053
-6.65506
-6.41182
-6.19805
-6.01038
-5.84451
-5.69712
-5.5643
-5.44258
-5.33013
-5.22519
-5.12629
-5.03225
-4.94169
-4.8535
-4.76668
-4.6804
-4.59394
-4.50673
-4.41829
-4.32827
-4.23641
-4.14257
-4.04666
-3.94869
-3.84872
-11865.3
-11133.9
-10396.5
-9649.63
-8890.91
-8118.51
-7331.45
-6529.7
-5714.36
-4888.02
-4054.93
-3221.17
-2394.06
-1580.63
-784.886
-12.6217
-9.29604
-8.95193
-8.67273
-8.4186
-8.18492
-7.9679
-7.76445
-7.57204
-7.38848
-7.21223
-7.04218
-6.87705
-6.71576
-6.55744
-6.40136
-6.2469
-6.09357
-5.94099
-5.78891
-5.63718
-5.4857
-5.33444
-5.1834
-5.03263
-4.88222
-4.73229
-4.58296
-4.43442
-4.28684
-4.1404
-3.99531
-3.85178
-3.71001
-3.57019
-11866.1
-11136.8
-10402.9
-9661.88
-8911.82
-8151.25
-7379.23
-6595.33
-5799.68
-4993.11
-4177.29
-3354.91
-2529.7
-1706.06
-888.579
-10.4789
-8.43475
-8.46047
-8.71869
-8.86818
-8.92637
-8.9085
-8.82821
-8.69762
-8.52735
-8.3266
-8.10315
-7.86349
-7.61322
-7.3571
-7.0986
-6.84038
-6.58443
-6.33224
-6.08488
-5.84307
-5.60731
-5.37791
-5.15503
-4.93872
-4.729
-4.52581
-4.32909
-4.13875
-3.95469
-3.77682
-3.60504
-3.43924
-3.27932
-3.12519
-11870
-11149.1
-10425.5
-9697.87
-8965.03
-8226.33
-7481.51
-6730.67
-5974.26
-5213.06
-4448.24
-3681.54
-2915.73
-2155.14
-1405.96
-677.113
-31.5851
-22.3732
-20.3197
-18.4863
-16.8516
-15.3964
-14.1018
-12.9503
-11.9256
-11.0129
-10.1985
-9.47054
-8.81795
-8.23103
-7.70165
-7.22264
-6.78729
-6.38978
-6.02504
-5.68876
-5.37725
-5.08739
-4.81658
-4.56262
-4.3237
-4.09831
-3.8852
-3.68333
-3.49184
-3.30999
-3.13717
-2.97285
-2.81656
-2.66789
-11873
-11158.6
-10442.9
-9725.31
-9005.2
-8282.29
-7556.51
-6828
-6097.07
-5364.15
-4629.63
-3893.82
-3156.82
-2418.5
-1677.81
-930.112
-12.6314
-10.0115
-9.70872
-9.69114
-9.57151
-9.36649
-9.09586
-8.77898
-8.43208
-8.06846
-7.69869
-7.33081
-6.97062
-6.62205
-6.28743
-5.96788
-5.66386
-5.37522
-5.10132
-4.8413
-4.59425
-4.35928
-4.13557
-3.92239
-3.71912
-3.52524
-3.34028
-3.16388
-2.99571
-2.83545
-2.68284
-2.53761
-2.3995
-2.26826
-11876.6
-11170
-10463.6
-9757.48
-9051.38
-8345.09
-7638.3
-6930.62
-6221.39
-5509.7
-4794.41
-4074.89
-3353.17
-2637.96
-1948.7
-1313.56
-751.919
-20.5121
-15.6502
-13.8514
-12.8102
-11.7856
-10.8019
-9.88459
-9.04768
-8.2969
-7.63163
-7.04671
-6.5342
-6.08481
-5.68901
-5.33784
-5.02326
-4.73847
-4.4779
-4.23711
-4.01264
-3.80185
-3.60281
-3.41408
-3.23466
-3.06381
-2.90102
-2.74587
-2.59808
-2.45739
-2.32355
-2.19635
-2.07555
-1.96091
-11882.8
-11189.4
-10498.3
-9810.1
-9125.4
-8444.37
-7767.12
-7093.74
-6424.26
-5758.61
-5096.36
-4436.25
-3775.42
-3108.7
-2429.79
-1740.04
-1074.27
-528.588
-15.5655
-12.0839
-9.21424
-8.14555
-7.29998
-6.59934
-6.03642
-5.59208
-5.24249
-4.96364
-4.73417
-4.53683
-4.35885
-4.19147
-4.0293
-3.86939
-3.71049
-3.55243
-3.39564
-3.24083
-3.08875
-2.94015
-2.79563
-2.65569
-2.52068
-2.39085
-2.26633
-2.14721
-2.03352
-1.92517
-1.82202
-1.72391
-11891.3
-11215.2
-10542.8
-9875.69
-9214.68
-8560.3
-7912.7
-7271.82
-6637.42
-6009.17
-5386.64
-4769.2
-4155.73
-3544.22
-2931.97
-2318.03
-1710.44
-1133.99
-617.649
-11.1565
-10.0782
-7.80374
-6.77648
-6.23245
-5.74357
-5.30796
-4.92714
-4.59815
-4.31521
-4.07121
-3.85875
-3.67093
-3.50174
-3.34632
-3.20094
-3.06291
-2.9304
-2.80229
-2.67795
-2.55708
-2.43962
-2.32561
-2.21518
-2.10842
-2.00543
-1.90628
-1.81098
-1.71953
-1.63187
-1.54798
-11900
-11241.6
-10587.4
-9939.2
-9298.37
-8665.73
-8041.75
-7426.57
-6820.14
-6222.23
-5632.46
-5050.35
-4475.21
-3906.17
-3342.42
-2783.94
-2232.84
-1693.44
-1167.46
-640.58
-8.21128
-7.84772
-6.47201
-5.24403
-4.91023
-4.62928
-4.36906
-4.13048
-3.91311
-3.71536
-3.53494
-3.36925
-3.21573
-3.07209
-2.93642
-2.80722
-2.68342
-2.56427
-2.44928
-2.33818
-2.23082
-2.12714
-2.0271
-1.9307
-1.83791
-1.74869
-1.66299
-1.58078
-1.50201
-1.42655
-11907.9
-11265.2
-10626.4
-9993.66
-9368.55
-8752.25
-8145.56
-7548.97
-6962.76
-6386.98
-5821.56
-5266.28
-4720.82
-4184.82
-3657.93
-3140.01
-2631.09
-2130.65
-1635.35
-1134.72
-605.916
-6.66914
-1.17684
-1.73779
-1.7411
-1.96752
-2.18561
-2.3616
-2.49532
-2.58844
-2.64407
-2.6663
-2.65972
-2.62911
-2.5791
-2.51399
-2.43761
-2.35328
-2.2638
-2.17145
-2.07805
-1.985
-1.89337
-1.80398
-1.71736
-1.63381
-1.55349
-1.47646
-1.40269
-1.3321
-11914.9
-11286
-10660.9
-10041.8
-9430.26
-8827.78
-8235.36
-7653.74
-7083.43
-6524.72
-5977.75
-5442.55
-4919.04
-4407.14
-3906.72
-3417.66
-2939.71
-2472.25
-2014.03
-1564.23
-1127.35
-721.234
-371.778
-5.93063
-5.57185
-4.22906
-3.7488
-3.48864
-3.26921
-3.08436
-2.92786
-2.79336
-2.675
-2.56781
-2.46786
-2.37231
-2.2793
-2.18778
-2.09735
-2.00799
-1.91996
-1.83363
-1.74939
-1.66759
-1.58847
-1.51221
-1.4389
-1.36853
-1.30104
-1.23635
-11921.9
-11307.2
-10696.2
-10091
-9493.34
-8904.45
-8325.32
-7756.65
-7198.91
-6652.43
-6117.43
-5594.06
-5082.41
-4582.57
-4094.64
-3618.73
-3154.94
-2703.32
-2263.83
-1836.63
-1423.64
-1031.62
-674.134
-363.164
-6.32661
-5.50064
-4.28667
-3.96764
-3.6766
-3.40807
-3.16396
-2.94424
-2.74763
-2.57211
-2.41527
-2.27464
-2.14788
-2.03287
-1.92779
-1.83112
-1.74158
-1.65813
-1.5799
-1.50618
-1.43636
-1.36995
-1.30652
-1.2457
-1.18721
-1.13081
-1.77662
-1.82462
-1.87134
-1.9162
-1.95878
-1.99879
-2.03604
-2.07041
-2.10187
-2.13042
-2.156
-2.17855
-2.19809
-2.21467
-2.22844
-2.23954
-2.24807
-2.25414
-2.25784
-2.25925
-2.25846
-2.25554
-2.25056
-2.24362
-2.23481
-2.22421
-2.2119
-2.19795
-2.18244
-2.16545
-2.14705
-2.12731
-2.10632
-2.08416
-2.06091
-2.03665
-2.01145
-1.98542
-1.95863
-1.93116
-1.90311
-1.87456
-1.84559
-1.81631
-1.78679
-1.75713
-1.72741
-1.69773
-1.66817
-1.63884
-1.93732
-1.97529
-2.01215
-2.04761
-2.08144
-2.11347
-2.14356
-2.1714
-2.19677
-2.2195
-2.23955
-2.25694
-2.2717
-2.28384
-2.29336
-2.30029
-2.30462
-2.3064
-2.30569
-2.30255
-2.29703
-2.28918
-2.27908
-2.26678
-2.25236
-2.23588
-2.21743
-2.19708
-2.17491
-2.15104
-2.12553
-2.09851
-2.07006
-2.04029
-2.00933
-1.97726
-1.94423
-1.91033
-1.87568
-1.84041
-1.80464
-1.76849
-1.73207
-1.69552
-1.65895
-1.62249
-1.58627
-1.55042
-1.51507
-1.48039
-2.06821
-2.10514
-2.14104
-2.17545
-2.20793
-2.23813
-2.26571
-2.29061
-2.31274
-2.33205
-2.34837
-2.36167
-2.37196
-2.37926
-2.38357
-2.38493
-2.38335
-2.37886
-2.37151
-2.36133
-2.34838
-2.33273
-2.31444
-2.29359
-2.27028
-2.2446
-2.21667
-2.18659
-2.1545
-2.12052
-2.0848
-2.04747
-2.00868
-1.96859
-1.92735
-1.88511
-1.84204
-1.7983
-1.75403
-1.70941
-1.66458
-1.61971
-1.57494
-1.53043
-1.48633
-1.4428
-1.39997
-1.35802
-1.31709
-1.27737
-2.2732
-2.30858
-2.34121
-2.37108
-2.39815
-2.42241
-2.44356
-2.46161
-2.47652
-2.4883
-2.49682
-2.50209
-2.50407
-2.50272
-2.49801
-2.48996
-2.47854
-2.46381
-2.4458
-2.42457
-2.4002
-2.37279
-2.34244
-2.30929
-2.27349
-2.23517
-2.19453
-2.15172
-2.10695
-2.06039
-2.01226
-1.96275
-1.91208
-1.86043
-1.80803
-1.75508
-1.70177
-1.6483
-1.59487
-1.54166
-1.48885
-1.43662
-1.38513
-1.33455
-1.28503
-1.23672
-1.18976
-1.14429
-1.10046
-1.05839
-2.45778
-2.49078
-2.52091
-2.54808
-2.57218
-2.59286
-2.61009
-2.6237
-2.6335
-2.63937
-2.64121
-2.6389
-2.63244
-2.62171
-2.6068
-2.58772
-2.56453
-2.53734
-2.50628
-2.4715
-2.43319
-2.39155
-2.3468
-2.29917
-2.24892
-2.1963
-2.14158
-2.08504
-2.02695
-1.96757
-1.90719
-1.84606
-1.78446
-1.72262
-1.66079
-1.59921
-1.53809
-1.47765
-1.41809
-1.35958
-1.30231
-1.24642
-1.19206
-1.13937
-1.08848
-1.03948
-0.992481
-0.947567
-0.90483
-0.864347
-2.60528
-2.64553
-2.68146
-2.71274
-2.73909
-2.76021
-2.77593
-2.78612
-2.79058
-2.7893
-2.78227
-2.76951
-2.75112
-2.72724
-2.69805
-2.66378
-2.62469
-2.58106
-2.53323
-2.48152
-2.42629
-2.36791
-2.30676
-2.24322
-2.17766
-2.11045
-2.04196
-1.97254
-1.90254
-1.83227
-1.76204
-1.69215
-1.62287
-1.55444
-1.4871
-1.42106
-1.35651
-1.29363
-1.23257
-1.17345
-1.11641
-1.06154
-1.00891
-0.958608
-0.910673
-0.865155
-0.822086
-0.781488
-0.743376
-0.707766
-2.92201
-2.95349
-2.97827
-2.99612
-3.00686
-3.0104
-3.00674
-2.99592
-2.97809
-2.95342
-2.92218
-2.88466
-2.84124
-2.7923
-2.73827
-2.67962
-2.61681
-2.55033
-2.48067
-2.40832
-2.33376
-2.25746
-2.17987
-2.10142
-2.02253
-1.94358
-1.86492
-1.7869
-1.70982
-1.63395
-1.55953
-1.4868
-1.41594
-1.34713
-1.2805
-1.21619
-1.15428
-1.09487
-1.03801
-0.983752
-0.932122
-0.883134
-0.836788
-0.793072
-0.751965
-0.713437
-0.677447
-0.643958
-0.612911
-0.584266
-3.49714
-3.46751
-3.43196
-3.39055
-3.3434
-3.2907
-3.23271
-3.16975
-3.10217
-3.03037
-2.95477
-2.87582
-2.79398
-2.70972
-2.6235
-2.53579
-2.44704
-2.35768
-2.26812
-2.17876
-2.08995
-2.00204
-1.91532
-1.83008
-1.74657
-1.665
-1.58557
-1.50844
-1.43375
-1.36161
-1.29213
-1.22536
-1.16137
-1.10018
-1.04181
-0.986276
-0.933559
-0.88364
-0.836487
-0.792058
-0.750304
-0.711168
-0.674587
-0.640492
-0.608811
-0.579463
-0.552372
-0.527457
-0.504642
-0.483839
-3.74689
-3.64336
-3.53835
-3.43211
-3.32489
-3.21699
-3.10871
-3.00034
-2.89219
-2.78456
-2.67773
-2.57199
-2.46758
-2.36476
-2.26376
-2.16478
-2.06801
-1.97361
-1.88174
-1.79252
-1.70605
-1.62243
-1.54173
-1.46399
-1.38926
-1.31755
-1.24888
-1.18323
-1.12061
-1.06097
-1.00429
-0.95053
-0.89963
-0.851538
-0.806193
-0.763529
-0.723475
-0.685957
-0.650899
-0.618221
-0.587838
-0.55967
-0.533631
-0.509635
-0.487597
-0.467428
-0.449043
-0.432357
-0.417283
-0.403742
-3.43253
-3.2972
-3.1644
-3.03427
-2.90698
-2.78266
-2.66142
-2.54339
-2.42864
-2.31727
-2.20932
-2.10485
-2.00388
-1.90645
-1.81256
-1.7222
-1.63537
-1.55203
-1.47216
-1.39572
-1.32266
-1.25292
-1.18645
-1.12318
-1.06305
-1.00598
-0.951896
-0.900729
-0.852395
-0.806814
-0.763905
-0.723587
-0.685774
-0.650384
-0.617333
-0.586537
-0.557912
-0.531373
-0.506838
-0.484223
-0.463444
-0.444418
-0.427064
-0.411299
-0.397042
-0.384213
-0.372733
-0.362522
-0.353505
-0.345606
-2.97674
-2.83387
-2.69647
-2.56444
-2.43766
-2.31601
-2.19938
-2.08766
-1.98071
-1.87842
-1.78067
-1.68731
-1.59824
-1.51331
-1.43242
-1.35542
-1.28221
-1.21265
-1.14663
-1.08403
-1.02473
-0.968631
-0.915608
-0.865559
-0.818378
-0.773962
-0.732212
-0.69303
-0.65632
-0.621989
-0.589945
-0.560101
-0.532369
-0.506663
-0.482899
-0.460996
-0.440872
-0.422447
-0.405644
-0.390383
-0.37659
-0.364188
-0.353102
-0.343259
-0.334584
-0.327007
-0.320456
-0.314861
-0.310153
-0.306265
-2.52647
-2.39196
-2.26404
-2.14242
-2.02683
-1.917
-1.81268
-1.71363
-1.61961
-1.53042
-1.44584
-1.36566
-1.28971
-1.21778
-1.14972
-1.08534
-1.0245
-0.96705
-0.912836
-0.861726
-0.813592
-0.768309
-0.725762
-0.685836
-0.648427
-0.61343
-0.580748
-0.550287
-0.521955
-0.495665
-0.471332
-0.448873
-0.428208
-0.409259
-0.391949
-0.376204
-0.36195
-0.349114
-0.337625
-0.327413
-0.318409
-0.310542
-0.303746
-0.297953
-0.293097
-0.28911
-0.28593
-0.28349
-0.281729
-0.280585
-2.14362
-2.02533
-1.91312
-1.80674
-1.70593
-1.61045
-1.52004
-1.43446
-1.3535
-1.27691
-1.2045
-1.13607
-1.07141
-1.01036
-0.95275
-0.898412
-0.847201
-0.798975
-0.753603
-0.71096
-0.670929
-0.6334
-0.598268
-0.565432
-0.5348
-0.506281
-0.479789
-0.455241
-0.432557
-0.41166
-0.392475
-0.37493
-0.358953
-0.344475
-0.331427
-0.319742
-0.309353
-0.300194
-0.292202
-0.28531
-0.279456
-0.274575
-0.270603
-0.267479
-0.265139
-0.263521
-0.262566
-0.262213
-0.262404
-0.263082
-1.8522
-1.74915
-1.65153
-1.55909
-1.47157
-1.38874
-1.31036
-1.23621
-1.16607
-1.09975
-1.03706
-0.977816
-0.921853
-0.869018
-0.819166
-0.772163
-0.727883
-0.68621
-0.647034
-0.610252
-0.575769
-0.543492
-0.513336
-0.485218
-0.45906
-0.434786
-0.412324
-0.391604
-0.372556
-0.355116
-0.339217
-0.324797
-0.311792
-0.300141
-0.289782
-0.280655
-0.272697
-0.265848
-0.260049
-0.255243
-0.251374
-0.248379
-0.246195
-0.244761
-0.244016
-0.243901
-0.244357
-0.245326
-0.246752
-0.248579
-1.63066
-1.54207
-1.45794
-1.37806
-1.30224
-1.23029
-1.16202
-1.09725
-1.03582
-0.977575
-0.922369
-0.87007
-0.820553
-0.773703
-0.729412
-0.687582
-0.648118
-0.610934
-0.575947
-0.54308
-0.512257
-0.483409
-0.456467
-0.431364
-0.408038
-0.386424
-0.366464
-0.348096
-0.331261
-0.315903
-0.301964
-0.289386
-0.278115
-0.268104
-0.2593
-0.251643
-0.245073
-0.239534
-0.234967
-0.231315
-0.228522
-0.226531
-0.225287
-0.224732
-0.224811
-0.225471
-0.226656
-0.228312
-0.230388
-0.232831
-1.46781
-1.39121
-1.31809
-1.24829
-1.1817
-1.11819
-1.05763
-0.99992
-0.944943
-0.892599
-0.842796
-0.795445
-0.750466
-0.707781
-0.66732
-0.629015
-0.592801
-0.558618
-0.526407
-0.496109
-0.467669
-0.441031
-0.416141
-0.392945
-0.371389
-0.351419
-0.332982
-0.316026
-0.300497
-0.286344
-0.273521
-0.261983
-0.251672
-0.242536
-0.234519
-0.227569
-0.221632
-0.216657
-0.212591
-0.209382
-0.206979
-0.205332
-0.204389
-0.2041
-0.204417
-0.20529
-0.20667
-0.208511
-0.210764
-0.213383
-1.3543
-1.28513
-1.21893
-1.15557
-1.09495
-1.03696
-0.981503
-0.928487
-0.877833
-0.829467
-0.783321
-0.739334
-0.697448
-0.657612
-0.619775
-0.583891
-0.549915
-0.5178
-0.487504
-0.45898
-0.432185
-0.407073
-0.383598
-0.361711
-0.341366
-0.322513
-0.305104
-0.289088
-0.274414
-0.261034
-0.248895
-0.23795
-0.22815
-0.219451
-0.2118
-0.205144
-0.199435
-0.194624
-0.190661
-0.1875
-0.185095
-0.183398
-0.182366
-0.181955
-0.182121
-0.182822
-0.184016
-0.185664
-0.187724
-0.190159
-1.26456
-1.19995
-1.13814
-1.07898
-1.02235
-0.968132
-0.91623
-0.86655
-0.819015
-0.773558
-0.730122
-0.688658
-0.649121
-0.611474
-0.575679
-0.541703
-0.509511
-0.479069
-0.450341
-0.423293
-0.397883
-0.374074
-0.351821
-0.331081
-0.311808
-0.293954
-0.277471
-0.262309
-0.248417
-0.235745
-0.224241
-0.213855
-0.204536
-0.196235
-0.188903
-0.182493
-0.17696
-0.172256
-0.168335
-0.165152
-0.162663
-0.160828
-0.159605
-0.158955
-0.158841
-0.159226
-0.160073
-0.16135
-0.163022
-0.165057
-1.17433
-1.11485
-1.05777
-1.00298
-0.950361
-0.899823
-0.851287
-0.804688
-0.759977
-0.717114
-0.676068
-0.636816
-0.599338
-0.563615
-0.529631
-0.497367
-0.466802
-0.437912
-0.410672
-0.385049
-0.36101
-0.338517
-0.317528
-0.297999
-0.279882
-0.263129
-0.247688
-0.233506
-0.220532
-0.20871
-0.197988
-0.188313
-0.179631
-0.171892
-0.165046
-0.159042
-0.153835
-0.149377
-0.145626
-0.142538
-0.140073
-0.138192
-0.136859
-0.136038
-0.135695
-0.135797
-0.136314
-0.137217
-0.138477
-0.140068
-1.07629
-1.02352
-0.972387
-0.922818
-0.874771
-0.828226
-0.78318
-0.739646
-0.697646
-0.657203
-0.618344
-0.581096
-0.545479
-0.511511
-0.479201
-0.448553
-0.419562
-0.392216
-0.366493
-0.342367
-0.319803
-0.298762
-0.279199
-0.261065
-0.244308
-0.228873
-0.214704
-0.201742
-0.18993
-0.179208
-0.169518
-0.160806
-0.153014
-0.14609
-0.139983
-0.13464
-0.130013
-0.126057
-0.122726
-0.11998
-0.117779
-0.116087
-0.114868
-0.114091
-0.113724
-0.113738
-0.114107
-0.114805
-0.115808
-0.117095
-1.61656
-1.60028
-1.58394
-1.56756
-1.55114
-1.53469
-1.51822
-1.50173
-1.48524
-1.46875
-1.45228
-1.43581
-1.41938
-1.403
-1.38664
-1.37035
-1.35414
-1.33799
-1.32194
-1.306
-1.29015
-1.27443
-1.25884
-1.24339
-1.22808
-1.21296
-1.19795
-1.18311
-1.16846
-1.15401
-1.13977
-1.12574
-1.11192
-1.09834
-1.08499
-1.07187
-1.05901
-1.04639
-1.03403
-1.02192
-1.01008
-0.998508
-0.987201
-0.976166
-0.965404
-0.954917
-0.944708
-0.934778
-0.925128
-0.915761
-0.906678
-0.897882
-0.889402
-0.881202
-0.873284
-0.865636
-0.858297
-0.851248
-0.844501
-0.838018
-0.831793
-0.82584
-0.820168
-0.814761
-0.809616
-0.804729
-0.800097
-0.795719
-0.791592
-0.787714
-0.784085
-0.780704
-0.77757
-0.774684
-0.772048
-0.769662
-0.767528
-0.76565
-0.764027
-0.762663
-0.761561
-0.760725
-0.760181
-0.759913
-0.759922
-0.760211
-0.760819
-0.761743
-0.762978
-0.764528
-0.766396
-0.768585
-0.7711
-0.773954
-0.77715
-0.780675
-0.784541
-0.788756
-0.79335
-0.798325
-0.803689
-0.80945
-0.81562
-0.822221
-0.829246
-0.836716
-0.844644
-0.853056
-0.861952
-0.871343
-0.88124
-0.891654
-0.902622
-0.914105
-0.926108
-0.938647
-0.951736
-0.965337
-0.979451
-0.993957
-1.00887
-1.02415
-1.03967
-1.05541
-1.07134
-1.08744
-1.10374
-1.12018
-1.13677
-1.15344
-1.17015
-1.18681
-1.20332
-1.21955
-1.23542
-1.25087
-1.26576
-1.28
-1.29349
-1.30614
-1.31785
-1.32852
-1.33806
-1.34639
-1.35341
-1.35905
-1.36323
-1.36588
-1.36692
-1.36631
-1.36397
-1.35988
-1.35397
-1.34624
-1.33664
-1.32516
-1.31181
-1.29658
-1.27948
-1.26053
-1.23978
-1.21727
-1.19304
-1.16717
-1.13973
-1.1108
-1.08048
-1.04888
-1.0161
-0.982271
-0.947516
-0.911973
-0.875781
-0.839083
-0.802026
-0.76476
-0.727433
-0.690194
-0.653188
-0.616557
-0.580438
-0.544962
-0.51025
-0.476416
-0.443566
-0.411793
-0.381178
-0.351794
-0.3237
-0.296941
-0.271553
-0.24756
-0.224973
-0.203792
-0.184008
-0.165601
-0.148543
-0.132798
-0.118323
-0.105069
-0.0929801
-0.0819995
-0.0720654
-0.0631143
-0.0550818
-0.0479026
-0.0415122
-0.0358471
-0.0308452
-0.026447
-0.0225952
-0.0192357
-0.0163174
-0.0137926
-0.011617
-0.0097499
-0.00815395
-0.00679522
-0.00564303
-0.00466985
-0.00385109
-0.00316493
-0.00259213
-0.00211579
-0.00172118
-0.0013955
-0.00112773
-0.000908372
-0.000729334
-0.000583732
-0.000465743
-0.000370464
-0.00029379
-0.000232298
-0.000183147
-0.000143988
-0.000112892
-8.82751e-05
-6.8849e-05
-5.35655e-05
-4.15774e-05
-3.22017e-05
-2.48906e-05
-1.92058e-05
-1.47982e-05
-1.13907e-05
-8.76411e-06
-6.74552e-06
-5.19911e-06
-4.01846e-06
-3.12051e-06
-2.44055e-06
-1.92835e-06
-1.5451e-06
-1.26079e-06
-1.05234e-06
-9.02102e-07
-7.96531e-07
-7.2531e-07
-6.80634e-07
-6.56585e-07
-6.48701e-07
-6.53639e-07
-6.68929e-07
-6.9271e-07
-7.23629e-07
-7.60722e-07
-8.03265e-07
-8.50778e-07
-9.02917e-07
-9.59456e-07
-1.02022e-06
-1.08507e-06
-1.15384e-06
-1.22626e-06
-1.30198e-06
-1.38055e-06
-1.46138e-06
-1.54362e-06
-1.6262e-06
-1.70776e-06
-1.78669e-06
-1.86122e-06
-1.92911e-06
-1.98744e-06
-2.03299e-06
-2.06262e-06
-2.0732e-06
-2.0617e-06
-2.02521e-06
-1.96123e-06
-1.86775e-06
-1.74347e-06
-1.58804e-06
-1.40224e-06
-1.18815e-06
-9.49275e-07
-6.90641e-07
-4.1876e-07
-1.41476e-07
-1.45438
-1.43529
-1.41625
-1.39727
-1.37836
-1.35953
-1.34079
-1.32215
-1.30363
-1.28524
-1.26698
-1.24886
-1.23091
-1.21312
-1.19547
-1.178
-1.16073
-1.14362
-1.12672
-1.11003
-1.09354
-1.07727
-1.06123
-1.04543
-1.02986
-1.01457
-0.999517
-0.984689
-0.970123
-0.955842
-0.941832
-0.928098
-0.914644
-0.90147
-0.888579
-0.875974
-0.863656
-0.851629
-0.839893
-0.82845
-0.817302
-0.806451
-0.795898
-0.785644
-0.77569
-0.766037
-0.756686
-0.747638
-0.738893
-0.730451
-0.722314
-0.714481
-0.706972
-0.699761
-0.692822
-0.686192
-0.679858
-0.673808
-0.668054
-0.662571
-0.65734
-0.652375
-0.647675
-0.643225
-0.639019
-0.635052
-0.63132
-0.627817
-0.62454
-0.621485
-0.618648
-0.616026
-0.613618
-0.61142
-0.609431
-0.607649
-0.606075
-0.604708
-0.603548
-0.602598
-0.601862
-0.601342
-0.601045
-0.601001
-0.601163
-0.601554
-0.602193
-0.603076
-0.604203
-0.605575
-0.607197
-0.609072
-0.611204
-0.613598
-0.61626
-0.619203
-0.622433
-0.625939
-0.629735
-0.633836
-0.638269
-0.643035
-0.648146
-0.653628
-0.659474
-0.665707
-0.672351
-0.679415
-0.686917
-0.694871
-0.703301
-0.712225
-0.721684
-0.731657
-0.742146
-0.75319
-0.764781
-0.776896
-0.78953
-0.802562
-0.816034
-0.830018
-0.84458
-0.859731
-0.875461
-0.891755
-0.90861
-0.925952
-0.943759
-0.962
-0.980592
-0.999457
-1.01852
-1.03772
-1.05694
-1.07604
-1.09497
-1.11365
-1.13197
-1.14982
-1.16711
-1.18368
-1.19942
-1.2143
-1.2282
-1.24101
-1.25265
-1.26301
-1.27203
-1.2796
-1.28567
-1.29015
-1.29298
-1.29411
-1.29348
-1.29105
-1.28677
-1.28063
-1.2726
-1.26265
-1.2508
-1.23703
-1.22136
-1.20381
-1.18442
-1.16323
-1.14029
-1.11567
-1.08944
-1.06169
-1.03252
-1.00203
-0.970342
-0.937576
-0.903868
-0.869355
-0.834183
-0.798502
-0.762462
-0.726219
-0.689925
-0.653733
-0.617791
-0.582244
-0.547231
-0.512883
-0.479323
-0.446665
-0.415011
-0.384453
-0.355071
-0.326931
-0.300091
-0.27459
-0.250461
-0.22772
-0.206375
-0.186419
-0.167838
-0.150606
-0.134692
-0.120052
-0.106641
-0.0944047
-0.0832855
-0.0732228
-0.0641531
-0.0560117
-0.0487332
-0.0422527
-0.0365061
-0.0314308
-0.0269665
-0.0230556
-0.019643
-0.0166774
-0.0141103
-0.0118971
-0.00999642
-0.00837062
-0.00698534
-0.00580958
-0.00481548
-0.00397817
-0.00327559
-0.00268827
-0.00219912
-0.00179322
-0.00145762
-0.00118115
-0.000954178
-0.000768499
-0.000617119
-0.000494119
-0.000394509
-0.000314105
-0.00024941
-0.00019752
-0.000156028
-0.000122951
-9.66615e-05
-7.58274e-05
-5.93645e-05
-4.6393e-05
-3.62015e-05
-2.82171e-05
-2.198e-05
-1.71223e-05
-1.33506e-05
-1.0432e-05
-8.18178e-06
-6.45411e-06
-5.13418e-06
-4.13187e-06
-3.37663e-06
-2.81344e-06
-2.39945e-06
-2.10149e-06
-1.89389e-06
-1.75689e-06
-1.67539e-06
-1.63778e-06
-1.63532e-06
-1.66135e-06
-1.71095e-06
-1.78037e-06
-1.86692e-06
-1.9686e-06
-2.08397e-06
-2.21199e-06
-2.35195e-06
-2.50334e-06
-2.66579e-06
-2.83904e-06
-3.0228e-06
-3.21667e-06
-3.4201e-06
-3.63214e-06
-3.85149e-06
-4.07621e-06
-4.30374e-06
-4.5306e-06
-4.75234e-06
-4.96361e-06
-5.1585e-06
-5.32975e-06
-5.46769e-06
-5.56135e-06
-5.6001e-06
-5.57342e-06
-5.47118e-06
-5.2841e-06
-5.00433e-06
-4.62627e-06
-4.14722e-06
-3.56832e-06
-2.89521e-06
-2.13857e-06
-1.31451e-06
-4.44449e-07
-1.24793
-1.22648
-1.20522
-1.18419
-1.16339
-1.14284
-1.12256
-1.10255
-1.08284
-1.06344
-1.04433
-1.02555
-1.0071
-0.988994
-0.971202
-0.953751
-0.936656
-0.919911
-0.90352
-0.887466
-0.871773
-0.856442
-0.841476
-0.826871
-0.812633
-0.798784
-0.785283
-0.772123
-0.759328
-0.746908
-0.734827
-0.7231
-0.71173
-0.70069
-0.689995
-0.679636
-0.669608
-0.659907
-0.650528
-0.641468
-0.632724
-0.624293
-0.616167
-0.608347
-0.60083
-0.593606
-0.586678
-0.580042
-0.573686
-0.567613
-0.561819
-0.556296
-0.551053
-0.546052
-0.541312
-0.536824
-0.532581
-0.528574
-0.524812
-0.521259
-0.517925
-0.514809
-0.5119
-0.509193
-0.50668
-0.504357
-0.502224
-0.500267
-0.498489
-0.496885
-0.49545
-0.494182
-0.493078
-0.492135
-0.491351
-0.490725
-0.490254
-0.48994
-0.489774
-0.489764
-0.489909
-0.490209
-0.490672
-0.49129
-0.492057
-0.49299
-0.494086
-0.495345
-0.49677
-0.498361
-0.500123
-0.502061
-0.504179
-0.506483
-0.508982
-0.51168
-0.51457
-0.517657
-0.520959
-0.524493
-0.528263
-0.53228
-0.536559
-0.541113
-0.545959
-0.551112
-0.55659
-0.562412
-0.568598
-0.575178
-0.582158
-0.589533
-0.597354
-0.605637
-0.614392
-0.623633
-0.633372
-0.643626
-0.654415
-0.665786
-0.67777
-0.690401
-0.703684
-0.717614
-0.732188
-0.747397
-0.763254
-0.779701
-0.796731
-0.814324
-0.832431
-0.851001
-0.869975
-0.889313
-0.90891
-0.92867
-0.948522
-0.968417
-0.988282
-1.008
-1.02751
-1.04663
-1.06527
-1.08332
-1.10074
-1.11741
-1.13323
-1.1481
-1.16193
-1.17461
-1.18606
-1.1962
-1.20495
-1.21223
-1.21797
-1.22212
-1.22461
-1.22538
-1.2244
-1.22162
-1.217
-1.21053
-1.20217
-1.19193
-1.17979
-1.16577
-1.14988
-1.13216
-1.11263
-1.09135
-1.06838
-1.0438
-1.01768
-0.990115
-0.961212
-0.931086
-0.89986
-0.867663
-0.834635
-0.800919
-0.766663
-0.732021
-0.697145
-0.66219
-0.627307
-0.592646
-0.558352
-0.524565
-0.491416
-0.459028
-0.427515
-0.39698
-0.367513
-0.339194
-0.312091
-0.286256
-0.261732
-0.238546
-0.216715
-0.196245
-0.177127
-0.159347
-0.142877
-0.127683
-0.113723
-0.100949
-0.0893084
-0.0787426
-0.0691915
-0.0605923
-0.0528815
-0.0459949
-0.0398691
-0.0344416
-0.0296521
-0.0254421
-0.0217562
-0.0185417
-0.0157492
-0.0133327
-0.0112496
-0.00946072
-0.00793033
-0.00662598
-0.0055184
-0.00458138
-0.00379152
-0.00312811
-0.00257288
-0.00210982
-0.00172496
-0.00140619
-0.00114305
-0.000926531
-0.000748964
-0.000603802
-0.000485503
-0.000389392
-0.000311543
-0.000248673
-0.000198048
-0.0001574
-0.000124855
-9.88708e-05
-7.81832e-05
-6.17587e-05
-4.87561e-05
-3.84926e-05
-3.04162e-05
-2.40817e-05
-1.91314e-05
-1.52789e-05
-1.22951e-05
-9.99778e-06
-8.24221e-06
-6.91379e-06
-5.92215e-06
-5.19612e-06
-4.68e-06
-4.33024e-06
-4.11298e-06
-4.00204e-06
-3.97727e-06
-4.02326e-06
-4.12833e-06
-4.28372e-06
-4.48289e-06
-4.72108e-06
-4.99483e-06
-5.30168e-06
-5.63986e-06
-6.00815e-06
-6.40562e-06
-6.83156e-06
-7.28533e-06
-7.76627e-06
-8.27349e-06
-8.80571e-06
-9.36096e-06
-9.9362e-06
-1.0527e-05
-1.11271e-05
-1.17281e-05
-1.23187e-05
-1.28843e-05
-1.34071e-05
-1.38674e-05
-1.42413e-05
-1.44962e-05
-1.45965e-05
-1.45077e-05
-1.41959e-05
-1.36293e-05
-1.27798e-05
-1.16258e-05
-1.01551e-05
-8.36792e-06
-6.27982e-06
-3.92427e-06
-1.354e-06
-1.02755
-1.00539
-0.983609
-0.962228
-0.941264
-0.920725
-0.900636
-0.880989
-0.861804
-0.843101
-0.82486
-0.807108
-0.789842
-0.773071
-0.756783
-0.740989
-0.725686
-0.710873
-0.696545
-0.682693
-0.669312
-0.656406
-0.643964
-0.631977
-0.620438
-0.609359
-0.598685
-0.588424
-0.578587
-0.569159
-0.560112
-0.551451
-0.543172
-0.535246
-0.527679
-0.520459
-0.51357
-0.507009
-0.500765
-0.494829
-0.489191
-0.483847
-0.478779
-0.473986
-0.46946
-0.465184
-0.461159
-0.457376
-0.45382
-0.450487
-0.447371
-0.444464
-0.441759
-0.439248
-0.436926
-0.434786
-0.432823
-0.43103
-0.429401
-0.427933
-0.42662
-0.425457
-0.42444
-0.423565
-0.422826
-0.422222
-0.421751
-0.421402
-0.421179
-0.421077
-0.421093
-0.421225
-0.42147
-0.421827
-0.422293
-0.422866
-0.423544
-0.42433
-0.425213
-0.426196
-0.427285
-0.428465
-0.429745
-0.431123
-0.432598
-0.434169
-0.435835
-0.437598
-0.439463
-0.441418
-0.443471
-0.445628
-0.447895
-0.450265
-0.452741
-0.455332
-0.458046
-0.4609
-0.463874
-0.466979
-0.470242
-0.473668
-0.477267
-0.481053
-0.485038
-0.489238
-0.493669
-0.49835
-0.503302
-0.508556
-0.514121
-0.519999
-0.526241
-0.532876
-0.539927
-0.547424
-0.555413
-0.563931
-0.573014
-0.582678
-0.592957
-0.603866
-0.615406
-0.627585
-0.640404
-0.653862
-0.66796
-0.682693
-0.697996
-0.713882
-0.73035
-0.747361
-0.764898
-0.782912
-0.801328
-0.820089
-0.839152
-0.858465
-0.877932
-0.89751
-0.917008
-0.936395
-0.955589
-0.974526