/*--------------------------------*- C++ -*----------------------------------*\
| =========                 |                                                 |
| \\      /  F ield         | OpenFOAM: The Open Source CFD Toolbox           |
|  \\    /   O peration     | Version:  2.4.0                                 |
|   \\  /    A nd           | Web:      www.OpenFOAM.org                      |
|    \\/     M anipulation  |                                                 |
\*---------------------------------------------------------------------------*/
FoamFile
{
    version     2.0;
    format      ascii;
    class       volScalarField;
    location    "3.7";
    object      p;
}
// * * * * * * * * * * * * * * * * * * * * * * * * * * * * * * * * * * * * * //

dimensions      [1 -1 -2 0 0 0 0];

internalField   nonuniform List<scalar> 
8000
(
0.50248
0.512265
0.523812
0.531756
0.535492
0.533539
0.526806
0.514579
0.497767
0.475221
0.446758
0.412447
0.37177
0.324903
0.271431
0.211882
0.146191
0.0750296
-0.0017007
-0.0811297
-0.162053
-0.24079
-0.318447
-0.397956
-0.455777
-0.526334
-0.866669
-2.06159
-6.78977
-10.6209
-10.5033
-6.38098
-3.8834
-1.16248
-0.362535
-0.299542
-0.315619
-0.314187
-0.316629
-0.31639
-0.316724
-0.317269
-0.317538
-0.317931
-0.318251
-0.318571
-0.318901
-0.319232
-0.31956
-0.319881
-1.24931
-1.23761
-1.22842
-1.22138
-1.21491
-1.20955
-1.2049
-1.20036
-1.19577
-1.19211
-1.18757
-1.18293
-1.17744
-1.17148
-1.1642
-1.15622
-1.14674
-1.1362
-1.12254
-1.10392
-1.07979
-1.06214
-1.07599
-1.54563
-3.16724
-7.67543
-10.4627
-9.79754
-7.3951
-1.1845
-0.258279
-0.378716
-0.363311
-0.347283
-0.346482
-0.345249
-0.345576
-0.346193
-0.346336
-0.346334
-0.346382
-0.346496
-0.346644
-0.346796
-0.34695
-0.347106
-0.347266
-0.347427
-0.347591
-0.347757
-0.288257
-0.284475
-0.277558
-0.268393
-0.257746
-0.245285
-0.231504
-0.215958
-0.198774
-0.180396
-0.160704
-0.139248
-0.116949
-0.0929634
-0.0690354
-0.0445104
-0.0198298
0.017659
0.0887434
0.175865
0.00799871
-1.4207
-4.76891
-9.87414
-8.02805
-3.25207
-2.72264
-0.403993
-0.387282
-0.384295
-0.378169
-0.373432
-0.373889
-0.374205
-0.374291
-0.374225
-0.374213
-0.374218
-0.37424
-0.374271
-0.374313
-0.374365
-0.374423
-0.374487
-0.374556
-0.37463
-0.374707
-0.374788
-0.374873
-0.374965
-1.19594
-1.19834
-1.20059
-1.19947
-1.19472
-1.18606
-1.17383
-1.15798
-1.13854
-1.11476
-1.08774
-1.05585
-1.02152
-0.983312
-0.938368
-0.862433
-0.73804
-0.673787
-1.19669
-3.35389
-8.1099
-10.9017
-5.40289
-1.69527
-0.315381
-0.41733
-0.388132
-0.400914
-0.401671
-0.40207
-0.401875
-0.401521
-0.401418
-0.401332
-0.401261
-0.401201
-0.401149
-0.401106
-0.401072
-0.401047
-0.401029
-0.401019
-0.401016
-0.401022
-0.401038
-0.401061
-0.401087
-0.401121
-0.401163
-0.401208
-1.22549
-1.22936
-1.22937
-1.22631
-1.22077
-1.21325
-1.20335
-1.19128
-1.17666
-1.15971
-1.14095
-1.12176
-1.09915
-1.05421
-0.951509
-0.853437
-1.24584
-3.07926
-7.5333
-7.30869
-0.826214
-0.474419
-0.490705
-0.440857
-0.427015
-0.428332
-0.42959
-0.429804
-0.429585
-0.429341
-0.429194
-0.429085
-0.428976
-0.428872
-0.428773
-0.42868
-0.428592
-0.428513
-0.428438
-0.428372
-0.428312
-0.428258
-0.428211
-0.428171
-0.428135
-0.428101
-0.428069
-0.427566
-0.428124
-0.42809
-3.94801
-3.93198
-3.92157
-3.91976
-3.92579
-3.93894
-3.95905
-3.9862
-4.02093
-4.06488
-4.11787
-4.16803
-4.17905
-4.15366
-4.40723
-5.85654
-8.6481
-5.08611
-1.42904
-0.473356
-0.454652
-0.44128
-0.449061
-0.451989
-0.451654
-0.451443
-0.451527
-0.451641
-0.451771
-0.451898
-0.452014
-0.452116
-0.452208
-0.45229
-0.452358
-0.452392
-0.452147
-0.452488
-0.452544
-0.452552
-0.452585
-0.452612
-0.452216
-0.452707
-0.452679
-0.452679
-0.452312
-0.45259
-0.452595
-0.452595
-3.41042
-3.41265
-3.41886
-3.43113
-3.44948
-3.47399
-3.50445
-3.54171
-3.58656
-3.63875
-3.68604
-3.70226
-3.70966
-4.00973
-5.28933
-6.89409
-1.82721
-0.499079
-0.465234
-0.462529
-0.469866
-0.470311
-0.469946
-0.470127
-0.470558
-0.470875
-0.471168
-0.471451
-0.471726
-0.471991
-0.472248
-0.472494
-0.472726
-0.47295
-0.473163
-0.473363
-0.473554
-0.473729
-0.473895
-0.473998
-0.474153
-0.474244
-0.474472
-0.474593
-0.474709
-0.47477
-0.474871
-0.474838
-0.475018
-0.475106
-2.25153
-2.27896
-2.30853
-2.33617
-2.36235
-2.38766
-2.41271
-2.4383
-2.46448
-2.48275
-2.4698
-2.4287
-2.57264
-3.49686
-5.06993
-2.00719
-0.496157
-0.492989
-0.493628
-0.493874
-0.493929
-0.493969
-0.494068
-0.494216
-0.494368
-0.494518
-0.494661
-0.494799
-0.494935
-0.495072
-0.495181
-0.495251
-0.495373
-0.49498
-0.495889
-0.496027
-0.496159
-0.496284
-0.496419
-0.496544
-0.496675
-0.496796
-0.496914
-0.497031
-0.497136
-0.497179
-0.49729
-0.497193
-0.497679
-0.497785
-1.8159
-1.83866
-1.86396
-1.88772
-1.9098
-1.93096
-1.95147
-1.97254
-1.99381
-2.00671
-1.98698
-1.9386
-2.08235
-3.03256
-4.64243
-1.55476
-0.52092
-0.519369
-0.519733
-0.519799
-0.519597
-0.519683
-0.519679
-0.519716
-0.51947
-0.519502
-0.51955
-0.519463
-0.51876
-0.519326
-0.519421
-0.519544
-0.519588
-0.51937
-0.519648
-0.519745
-0.51983
-0.519915
-0.520003
-0.520094
-0.520188
-0.520284
-0.520384
-0.520486
-0.520591
-0.520698
-0.520804
-0.520913
-0.521024
-0.521137
-1.15143
-1.17153
-1.19283
-1.21197
-1.22896
-1.24491
-1.25891
-1.2726
-1.28524
-1.29439
-1.28962
-1.26515
-1.29288
-1.63492
-2.4216
-1.81591
-0.545472
-0.543792
-0.543848
-0.543918
-0.543939
-0.543934
-0.543931
-0.543934
-0.543943
-0.54395
-0.54396
-0.543975
-0.543992
-0.544012
-0.544035
-0.544064
-0.544097
-0.544133
-0.544168
-0.544207
-0.544251
-0.544299
-0.54435
-0.544404
-0.544462
-0.544524
-0.544588
-0.544655
-0.544726
-0.544799
-0.544876
-0.544955
-0.545036
-0.54512
-0.861276
-0.877124
-0.893589
-0.907945
-0.920137
-0.931621
-0.940403
-0.949014
-0.956575
-0.962833
-0.959844
-0.931496
-0.899228
-1.06537
-1.83016
-2.65584
-0.578827
-0.56861
-0.568138
-0.568261
-0.568314
-0.568315
-0.568309
-0.568307
-0.568308
-0.568311
-0.568317
-0.568324
-0.568333
-0.568345
-0.56836
-0.568378
-0.568398
-0.568421
-0.568446
-0.568473
-0.568503
-0.568536
-0.568571
-0.56861
-0.568651
-0.568695
-0.568742
-0.568792
-0.568845
-0.5689
-0.568958
-0.569018
-0.569081
-0.569146
-0.973684
-0.978894
-0.984627
-0.989645
-0.9935
-0.998069
-1
-1.0029
-1.00497
-1.00701
-1.00557
-0.990764
-0.963117
-1.0082
-1.37369
-2.02622
-0.960659
-0.592941
-0.592122
-0.592302
-0.592366
-0.592372
-0.592369
-0.592371
-0.592377
-0.592383
-0.592391
-0.5924
-0.59241
-0.592422
-0.592435
-0.59245
-0.592466
-0.592484
-0.592504
-0.592526
-0.592549
-0.592575
-0.592603
-0.592632
-0.592664
-0.592698
-0.592734
-0.592773
-0.592813
-0.592856
-0.592901
-0.592948
-0.592998
-0.593049
-0.831774
-0.832712
-0.832811
-0.832364
-0.831002
-0.831268
-0.828501
-0.827251
-0.825059
-0.82351
-0.821883
-0.813526
-0.782552
-0.740712
-0.858981
-1.52982
-2.42872
-0.62696
-0.616422
-0.616126
-0.616202
-0.616265
-0.616283
-0.616297
-0.616311
-0.616325
-0.616339
-0.616352
-0.616364
-0.616377
-0.61639
-0.616403
-0.616417
-0.616431
-0.616446
-0.616461
-0.616478
-0.616496
-0.616515
-0.616536
-0.616558
-0.616582
-0.616608
-0.616635
-0.616664
-0.616695
-0.616728
-0.616763
-0.616799
-0.616838
-1.19781
-1.18436
-1.16956
-1.1554
-1.14135
-1.12962
-1.11663
-1.10442
-1.09251
-1.08112
-1.07122
-1.06241
-1.05046
-1.02722
-1.00678
-1.10514
-1.51118
-1.43313
-0.705562
-0.642177
-0.640145
-0.640354
-0.640401
-0.640387
-0.640378
-0.640367
-0.640353
-0.640336
-0.64032
-0.640304
-0.640288
-0.640274
-0.640261
-0.64025
-0.640241
-0.640235
-0.64023
-0.640228
-0.640228
-0.64023
-0.640235
-0.640243
-0.640253
-0.640266
-0.640281
-0.640298
-0.640318
-0.64034
-0.640365
-0.640391
-1.35403
-1.33111
-1.30775
-1.28807
-1.2712
-1.25892
-1.24721
-1.23758
-1.22966
-1.22302
-1.21607
-1.21006
-1.20394
-1.20866
-1.21385
-1.13029
-0.879307
-0.78691
-1.50153
-0.837761
-0.679081
-0.665714
-0.665288
-0.66512
-0.66493
-0.664742
-0.664578
-0.664436
-0.664311
-0.664203
-0.664109
-0.664028
-0.663958
-0.663898
-0.663847
-0.663804
-0.663769
-0.663741
-0.663718
-0.663702
-0.66369
-0.663683
-0.66368
-0.663681
-0.663686
-0.663694
-0.663705
-0.66372
-0.663737
-0.663757
-0.707553
-0.684003
-0.657694
-0.633202
-0.610686
-0.591195
-0.572001
-0.554414
-0.539313
-0.52687
-0.517469
-0.51253
-0.512801
-0.516368
-0.528677
-0.540143
-0.526973
-0.428481
-0.354035
-1.94534
-0.919856
-0.707447
-0.684913
-0.684946
-0.685161
-0.685323
-0.685464
-0.685589
-0.685699
-0.685797
-0.685884
-0.685962
-0.686032
-0.686095
-0.686152
-0.686205
-0.686253
-0.686298
-0.68634
-0.686381
-0.686419
-0.686457
-0.686493
-0.686529
-0.686564
-0.686599
-0.686634
-0.686669
-0.686704
-0.68674
-0.564111
-0.54987
-0.535838
-0.522894
-0.512971
-0.504217
-0.496349
-0.489498
-0.483384
-0.477918
-0.472291
-0.466892
-0.460498
-0.454636
-0.448234
-0.431816
-0.381943
-0.305354
-0.456494
-1.43025
-2.77511
-1.01343
-0.736181
-0.71082
-0.70982
-0.709806
-0.709747
-0.70968
-0.709622
-0.709576
-0.70954
-0.709512
-0.709491
-0.709476
-0.709468
-0.709464
-0.709465
-0.709471
-0.70948
-0.709493
-0.709508
-0.709527
-0.709548
-0.709571
-0.709597
-0.709625
-0.709654
-0.709685
-0.709718
-0.709752
0.843909
0.843843
0.846636
0.852678
0.859641
0.869094
0.880507
0.894319
0.909519
0.927028
0.946459
0.968164
0.991799
1.01757
1.0438
1.0707
1.10632
1.17887
1.29216
1.22615
0.2856
-2.74436
-1.22542
-0.685821
-0.726748
-0.731251
-0.731494
-0.731503
-0.731513
-0.731539
-0.731572
-0.731609
-0.731648
-0.731691
-0.731735
-0.731781
-0.731829
-0.731877
-0.731927
-0.731977
-0.732028
-0.73208
-0.732131
-0.732184
-0.732236
-0.732289
-0.732341
-0.732394
-0.732447
-0.7325
0.906321
0.909123
0.913039
0.918606
0.925197
0.934016
0.944402
0.956505
0.970065
0.985371
1.0019
1.02021
1.03955
1.06061
1.08254
1.10503
1.12757
1.15302
1.19065
1.24708
1.24848
1.06904
0.59547
-0.504663
-0.688194
-0.748882
-0.752196
-0.752577
-0.752747
-0.752941
-0.75313
-0.753306
-0.75347
-0.753625
-0.75377
-0.753907
-0.754036
-0.754159
-0.754275
-0.754386
-0.754491
-0.754592
-0.754689
-0.754783
-0.754873
-0.75496
-0.755044
-0.755126
-0.755206
-0.755283
1.28761
1.29431
1.30239
1.30982
1.31636
1.32274
1.32862
1.33396
1.3387
1.34287
1.34633
1.34908
1.35103
1.35221
1.35241
1.3519
1.34976
1.3466
1.34366
1.34246
1.34939
1.35489
1.34646
1.27636
-0.585094
-0.782647
-0.775622
-0.775756
-0.775936
-0.776092
-0.776237
-0.776375
-0.776509
-0.776638
-0.776762
-0.776882
-0.776997
-0.777109
-0.777216
-0.777321
-0.777422
-0.77752
-0.777615
-0.777708
-0.777798
-0.777886
-0.777972
-0.778057
-0.778139
-0.77822
-0.320197
-0.320507
-0.32081
-0.321108
-0.3214
-0.321688
-0.321968
-0.322243
-0.322512
-0.322776
-0.323034
-0.323287
-0.323535
-0.323779
-0.324019
-0.324255
-0.324489
-0.324719
-0.324947
-0.325172
-0.325395
-0.325615
-0.325834
-0.32605
-0.326265
-0.326479
-0.326692
-0.326903
-0.327114
-0.327325
-0.327535
-0.327745
-0.327955
-0.328165
-0.328375
-0.328586
-0.328798
-0.32901
-0.329224
-0.329438
-0.329654
-0.329871
-0.330089
-0.33031
-0.330531
-0.330755
-0.330981
-0.331208
-0.331437
-0.331668
-0.347923
-0.348094
-0.348269
-0.348443
-0.348618
-0.348794
-0.348971
-0.349148
-0.349325
-0.349499
-0.349677
-0.349855
-0.350033
-0.35021
-0.350389
-0.350566
-0.350744
-0.350923
-0.351101
-0.351279
-0.351456
-0.351634
-0.351812
-0.35199
-0.352168
-0.352346
-0.352525
-0.352704
-0.352884
-0.353064
-0.353245
-0.353427
-0.35361
-0.353794
-0.353978
-0.354165
-0.354352
-0.35454
-0.35473
-0.354922
-0.355115
-0.35531
-0.355506
-0.355704
-0.355904
-0.356106
-0.35631
-0.356515
-0.356721
-0.35693
-0.375062
-0.37516
-0.37526
-0.375362
-0.375464
-0.375553
-0.375686
-0.375795
-0.375887
-0.375934
-0.376101
-0.376223
-0.376345
-0.376469
-0.376595
-0.376722
-0.376852
-0.376984
-0.377117
-0.377252
-0.377388
-0.377527
-0.377667
-0.37781
-0.377954
-0.3781
-0.378249
-0.378399
-0.378552
-0.378707
-0.378864
-0.379023
-0.379185
-0.379349
-0.379516
-0.379684
-0.379855
-0.380029
-0.380205
-0.380384
-0.380565
-0.380749
-0.380935
-0.381124
-0.381315
-0.381508
-0.381705
-0.381903
-0.382104
-0.382307
-0.401259
-0.401317
-0.40138
-0.401426
-0.401552
-0.401578
-0.401681
-0.401732
-0.401718
-0.401493
-0.40184
-0.401933
-0.402031
-0.402134
-0.402236
-0.402341
-0.40245
-0.402559
-0.40267
-0.402783
-0.402899
-0.403017
-0.403138
-0.40326
-0.403385
-0.403513
-0.403643
-0.403775
-0.40391
-0.404047
-0.404186
-0.404329
-0.404473
-0.404621
-0.404771
-0.404923
-0.405079
-0.405237
-0.405399
-0.405563
-0.40573
-0.4059
-0.406073
-0.406249
-0.406428
-0.406611
-0.406797
-0.406986
-0.407178
-0.407375
-0.428099
-0.428092
-0.427986
-0.427987
-0.427382
-0.427868
-0.427886
-0.427904
-0.427926
-0.427952
-0.42799
-0.42797
-0.427796
-0.428063
-0.428068
-0.428113
-0.428295
-0.428351
-0.428411
-0.428475
-0.428542
-0.428614
-0.42869
-0.42877
-0.428854
-0.428942
-0.429034
-0.429129
-0.429229
-0.429332
-0.429439
-0.42955
-0.429664
-0.429782
-0.429904
-0.43003
-0.430159
-0.430291
-0.430427
-0.430566
-0.430708
-0.430854
-0.431003
-0.431155
-0.431311
-0.431469
-0.431499
-0.431756
-0.431932
-0.432111
-0.452597
-0.452601
-0.452589
-0.452548
-0.452406
-0.452532
-0.452463
-0.452432
-0.452668
-0.452668
-0.45269
-0.452751
-0.452778
-0.452808
-0.452841
-0.452878
-0.452919
-0.452965
-0.453014
-0.453068
-0.453125
-0.453187
-0.453253
-0.453322
-0.453396
-0.453474
-0.453556
-0.453642
-0.453731
-0.453824
-0.453921
-0.454022
-0.454126
-0.454234
-0.454346
-0.454461
-0.45458
-0.454701
-0.454826
-0.454954
-0.455036
-0.455171
-0.455309
-0.455377
-0.45557
-0.455728
-0.455882
-0.456033
-0.456186
-0.456159
-0.475215
-0.475294
-0.475429
-0.475504
-0.475575
-0.475646
-0.475717
-0.475783
-0.475852
-0.475921
-0.475992
-0.476064
-0.476137
-0.476211
-0.476287
-0.476364
-0.476442
-0.476523
-0.476605
-0.476689
-0.476775
-0.476862
-0.476952
-0.477044
-0.477139
-0.477235
-0.477334
-0.477435
-0.477538
-0.477643
-0.47775
-0.47786
-0.477973
-0.478087
-0.478204
-0.478323
-0.478444
-0.478567
-0.478692
-0.47882
-0.478949
-0.479081
-0.479214
-0.47935
-0.479489
-0.479629
-0.479771
-0.479772
-0.480019
-0.48016
-0.497891
-0.497998
-0.498106
-0.498215
-0.498324
-0.498432
-0.498541
-0.49865
-0.498759
-0.498868
-0.498978
-0.499088
-0.499199
-0.499309
-0.499421
-0.499533
-0.499645
-0.499758
-0.499872
-0.499986
-0.500101
-0.500217
-0.500333
-0.50045
-0.500568
-0.500686
-0.500805
-0.500925
-0.501046
-0.501168
-0.50129
-0.501414
-0.501538
-0.501664
-0.50179
-0.501917
-0.502045
-0.502174
-0.502304
-0.502435
-0.502567
-0.5027
-0.502834
-0.502969
-0.503026
-0.503225
-0.503372
-0.503512
-0.503522
-0.503759
-0.521251
-0.521365
-0.52148
-0.521596
-0.521712
-0.521829
-0.521946
-0.522064
-0.522183
-0.522301
-0.52242
-0.522539
-0.522659
-0.522778
-0.522898
-0.523019
-0.523139
-0.523259
-0.52338
-0.523501
-0.523623
-0.523744
-0.523866
-0.523989
-0.524111
-0.524234
-0.524357
-0.524481
-0.524605
-0.524729
-0.524854
-0.524979
-0.525105
-0.525232
-0.525359
-0.525487
-0.525615
-0.525744
-0.525874
-0.525973
-0.526125
-0.52626
-0.526396
-0.52653
-0.526664
-0.5268
-0.526936
-0.527073
-0.527211
-0.52735
-0.545207
-0.545295
-0.545386
-0.545478
-0.545573
-0.545669
-0.545767
-0.545866
-0.545967
-0.546069
-0.546172
-0.546277
-0.546382
-0.546489
-0.546596
-0.546705
-0.546814
-0.546924
-0.547035
-0.547147
-0.547259
-0.547372
-0.547485
-0.547599
-0.547714
-0.547829
-0.547945
-0.548061
-0.548178
-0.548295
-0.548413
-0.548532
-0.548651
-0.548771
-0.548891
-0.549012
-0.549134
-0.549256
-0.549378
-0.549502
-0.549627
-0.549752
-0.549878
-0.550005
-0.550132
-0.550261
-0.55039
-0.55052
-0.55065
-0.550782
-0.569214
-0.569284
-0.569356
-0.569431
-0.569507
-0.569585
-0.569665
-0.569747
-0.569831
-0.569916
-0.570003
-0.570091
-0.570181
-0.570272
-0.570364
-0.570457
-0.570551
-0.570647
-0.570744
-0.570841
-0.570939
-0.571039
-0.571139
-0.57124
-0.571342
-0.571445
-0.571548
-0.571652
-0.571757
-0.571863
-0.571969
-0.572077
-0.572185
-0.572293
-0.572403
-0.572514
-0.572625
-0.572737
-0.57285
-0.572964
-0.573079
-0.573195
-0.573312
-0.57343
-0.573549
-0.57367
-0.573791
-0.573914
-0.574038
-0.574163
-0.593103
-0.593158
-0.593216
-0.593275
-0.593336
-0.5934
-0.593465
-0.593531
-0.5936
-0.59367
-0.593741
-0.593814
-0.593889
-0.593964
-0.594041
-0.594119
-0.594199
-0.594279
-0.594361
-0.594444
-0.594527
-0.594612
-0.594698
-0.594784
-0.594872
-0.59496
-0.595049
-0.595139
-0.595229
-0.595321
-0.595413
-0.595506
-0.5956
-0.595695
-0.595791
-0.595887
-0.595984
-0.596082
-0.596181
-0.596281
-0.596382
-0.596484
-0.596587
-0.59669
-0.596795
-0.596901
-0.597008
-0.597116
-0.597225
-0.597335
-0.616878
-0.61692
-0.616965
-0.61701
-0.617058
-0.617108
-0.617159
-0.617211
-0.617266
-0.617322
-0.617379
-0.617438
-0.617498
-0.61756
-0.617622
-0.617686
-0.617752
-0.617818
-0.617885
-0.617954
-0.618023
-0.618094
-0.618165
-0.618237
-0.61831
-0.618384
-0.618459
-0.618535
-0.618611
-0.618688
-0.618766
-0.618844
-0.618924
-0.619004
-0.619085
-0.619166
-0.619249
-0.619332
-0.619416
-0.6195
-0.619586
-0.619672
-0.61976
-0.619848
-0.619937
-0.620027
-0.620119
-0.620211
-0.620304
-0.620399
-0.64042
-0.640451
-0.640484
-0.640519
-0.640556
-0.640594
-0.640634
-0.640676
-0.64072
-0.640765
-0.640812
-0.64086
-0.640909
-0.640959
-0.641011
-0.641064
-0.641118
-0.641173
-0.641229
-0.641286
-0.641344
-0.641403
-0.641463
-0.641524
-0.641585
-0.641647
-0.64171
-0.641774
-0.641838
-0.641903
-0.641969
-0.642035
-0.642102
-0.642169
-0.642238
-0.642307
-0.642376
-0.642446
-0.642517
-0.642589
-0.642661
-0.642734
-0.642807
-0.642882
-0.642957
-0.643033
-0.64311
-0.643187
-0.643266
-0.643345
-0.663779
-0.663803
-0.66383
-0.663858
-0.663889
-0.663921
-0.663955
-0.663991
-0.664028
-0.664066
-0.664106
-0.664148
-0.66419
-0.664234
-0.664279
-0.664325
-0.664371
-0.664419
-0.664468
-0.664517
-0.664568
-0.664619
-0.664671
-0.664723
-0.664777
-0.664831
-0.664885
-0.66494
-0.664996
-0.665052
-0.665109
-0.665167
-0.665225
-0.665283
-0.665342
-0.665402
-0.665462
-0.665523
-0.665584
-0.665646
-0.665708
-0.665771
-0.665835
-0.665899
-0.665964
-0.66603
-0.666097
-0.666164
-0.666231
-0.6663
-0.686776
-0.686812
-0.686849
-0.686887
-0.686925
-0.686964
-0.687004
-0.687044
-0.687085
-0.687126
-0.687168
-0.687211
-0.687254
-0.687298
-0.687342
-0.687387
-0.687433
-0.687479
-0.687526
-0.687573
-0.68762
-0.687668
-0.687717
-0.687766
-0.687815
-0.687864
-0.687914
-0.687965
-0.688015
-0.688066
-0.688117
-0.688169
-0.688221
-0.688273
-0.688325
-0.688378
-0.688431
-0.688484
-0.688537
-0.688591
-0.688645
-0.688699
-0.688753
-0.688808
-0.688863
-0.688918
-0.688973
-0.689029
-0.689084
-0.689138
-0.709787
-0.709824
-0.709861
-0.7099
-0.70994
-0.709981
-0.710022
-0.710065
-0.710108
-0.710152
-0.710196
-0.710241
-0.710287
-0.710333
-0.71038
-0.710427
-0.710475
-0.710523
-0.710571
-0.71062
-0.710669
-0.710719
-0.710769
-0.710819
-0.710869
-0.71092
-0.710971
-0.711022
-0.711073
-0.711125
-0.711176
-0.711228
-0.711281
-0.711333
-0.711385
-0.711438
-0.711491
-0.711544
-0.711597
-0.71165
-0.711704
-0.711757
-0.711811
-0.711865
-0.711919
-0.711973
-0.712027
-0.712081
-0.712136
-0.712191
-0.732554
-0.732607
-0.73266
-0.732713
-0.732767
-0.73282
-0.732873
-0.732927
-0.73298
-0.733034
-0.733087
-0.73314
-0.733194
-0.733247
-0.7333
-0.733353
-0.733407
-0.73346
-0.733513
-0.733566
-0.733619
-0.733672
-0.733725
-0.733778
-0.73383
-0.733883
-0.733936
-0.733988
-0.734041
-0.734093
-0.734146
-0.734198
-0.73425
-0.734302
-0.734354
-0.734407
-0.734459
-0.734511
-0.734562
-0.734614
-0.734666
-0.734718
-0.73477
-0.734822
-0.734874
-0.734926
-0.734977
-0.735029
-0.73508
-0.735132
-0.755359
-0.755433
-0.755506
-0.755577
-0.755647
-0.755716
-0.755784
-0.755851
-0.755917
-0.755982
-0.756046
-0.75611
-0.756174
-0.756236
-0.756298
-0.75636
-0.756421
-0.756482
-0.756542
-0.756602
-0.756662
-0.756721
-0.75678
-0.756839
-0.756897
-0.756955
-0.757013
-0.757071
-0.757129
-0.757186
-0.757243
-0.7573
-0.757357
-0.757414
-0.757471
-0.757527
-0.757584
-0.75764
-0.757696
-0.757753
-0.757809
-0.757865
-0.757922
-0.757978
-0.758035
-0.758091
-0.758148
-0.758204
-0.758261
-0.758317
-0.7783
-0.778377
-0.778454
-0.778529
-0.778604
-0.778677
-0.778749
-0.77882
-0.77889
-0.778959
-0.779027
-0.779095
-0.779162
-0.779228
-0.779293
-0.779358
-0.779422
-0.779486
-0.779548
-0.779611
-0.779673
-0.779734
-0.779795
-0.779856
-0.779916
-0.779975
-0.780034
-0.780093
-0.780152
-0.78021
-0.780268
-0.780325
-0.780383
-0.78044
-0.780496
-0.780553
-0.780609
-0.780665
-0.780721
-0.780777
-0.780832
-0.780888
-0.780943
-0.780998
-0.781053
-0.781108
-0.781163
-0.781218
-0.781273
-0.781328
-0.331852
-0.331986
-0.332124
-0.332263
-0.332402
-0.332543
-0.332685
-0.332828
-0.332973
-0.333118
-0.332959
-0.333112
-0.333242
-0.332859
-0.333378
-0.333416
-0.333566
-0.334101
-0.334203
-0.334361
-0.334795
-0.334962
-0.335133
-0.3353
-0.335468
-0.334557
-0.335026
-0.335247
-0.335423
-0.335599
-0.335768
-0.335949
-0.336102
-0.336309
-0.336493
-0.336677
-0.336862
-0.337048
-0.337235
-0.337423
-0.337613
-0.337805
-0.337997
-0.338192
-0.338388
-0.338585
-0.338784
-0.338985
-0.339187
-0.339392
-0.339598
-0.339807
-0.340017
-0.339732
-0.340086
-0.340313
-0.34031
-0.340524
-0.340736
-0.340678
-0.341431
-0.341651
-0.341869
-0.342089
-0.34231
-0.342532
-0.342754
-0.342977
-0.343201
-0.343426
-0.343652
-0.34388
-0.344108
-0.344337
-0.344568
-0.344799
-0.345032
-0.345264
-0.345496
-0.34573
-0.345966
-0.346204
-0.346444
-0.345964
-0.346326
-0.346598
-0.346841
-0.347083
-0.347324
-0.347566
-0.347806
-0.348045
-0.348286
-0.348536
-0.348755
-0.348983
-0.349538
-0.349767
-0.350005
-0.350247
-0.350493
-0.350736
-0.350988
-0.35123
-0.35144
-0.351869
-0.352113
-0.35236
-0.352609
-0.35286
-0.353113
-0.353372
-0.353619
-0.353659
-0.354362
-0.354618
-0.354846
-0.355144
-0.354422
-0.355255
-0.35552
-0.355775
-0.35603
-0.356282
-0.356534
-0.35679
-0.357034
-0.357206
-0.357827
-0.358078
-0.358324
-0.358826
-0.358786
-0.359054
-0.359117
-0.359383
-0.35975
-0.36003
-0.360302
-0.360577
-0.360855
-0.361134
-0.361415
-0.361696
-0.361979
-0.362263
-0.362548
-0.362834
-0.36312
-0.363407
-0.363695
-0.363984
-0.364272
-0.364562
-0.364851
-0.365141
-0.365432
-0.365722
-0.366013
-0.366304
-0.366596
-0.366887
-0.367179
-0.36747
-0.367762
-0.368053
-0.368345
-0.368638
-0.368929
-0.369194
-0.369514
-0.369806
-0.370098
-0.370389
-0.370681
-0.370973
-0.371265
-0.371556
-0.371848
-0.372139
-0.372431
-0.372722
-0.373013
-0.373304
-0.373595
-0.373885
-0.374176
-0.374466
-0.374756
-0.375045
-0.375335
-0.375624
-0.375913
-0.376201
-0.376489
-0.376777
-0.377064
-0.37735
-0.377637
-0.377922
-0.378207
-0.378492
-0.378776
-0.379059
-0.379342
-0.379623
-0.379904
-0.380184
-0.380463
-0.380742
-0.381019
-0.381295
-0.381571
-0.381845
-0.382118
-0.38239
-0.382661
-0.382931
-0.383199
-0.383466
-0.383731
-0.383996
-0.384259
-0.38452
-0.38478
-0.385038
-0.385295
-0.38555
-0.385803
-0.386055
-0.386305
-0.386553
-0.386799
-0.387044
-0.387286
-0.387527
-0.387766
-0.388002
-0.388237
-0.38847
-0.3887
-0.388928
-0.389154
-0.389378
-0.3896
-0.389819
-0.390036
-0.390251
-0.390463
-0.390673
-0.39088
-0.391084
-0.391287
-0.391486
-0.391683
-0.391877
-0.392069
-0.392257
-0.392443
-0.392626
-0.392806
-0.392983
-0.393158
-0.393329
-0.393497
-0.393662
-0.393824
-0.393983
-0.394139
-0.394291
-0.39444
-0.394585
-0.394728
-0.394866
-0.395002
-0.395133
-0.395261
-0.395386
-0.395507
-0.395624
-0.395737
-0.395846
-0.395952
-0.396053
-0.396151
-0.396244
-0.396334
-0.396419
-0.3965
-0.396577
-0.396649
-0.396717
-0.396781
-0.39684
-0.396895
-0.396945
-0.39699
-0.397031
-0.397067
-0.397097
-0.357093
-0.357211
-0.357332
-0.357453
-0.357575
-0.357699
-0.357816
-0.357942
-0.358059
-0.357802
-0.358213
-0.358328
-0.358665
-0.358067
-0.358653
-0.35833
-0.358474
-0.358965
-0.359042
-0.359183
-0.359563
-0.359704
-0.359848
-0.359994
-0.360135
-0.360278
-0.359967
-0.360831
-0.360986
-0.361139
-0.361292
-0.361446
-0.361603
-0.361761
-0.361919
-0.362078
-0.362236
-0.362396
-0.362556
-0.362717
-0.362878
-0.363039
-0.363203
-0.363365
-0.363528
-0.363692
-0.363856
-0.36402
-0.364185
-0.36435
-0.364515
-0.36468
-0.364843
-0.36432
-0.365596
-0.365767
-0.365935
-0.366108
-0.366282
-0.365996
-0.3668
-0.366986
-0.36717
-0.367361
-0.367553
-0.367746
-0.367942
-0.36814
-0.368341
-0.368544
-0.368749
-0.368956
-0.369166
-0.369377
-0.369588
-0.369805
-0.370008
-0.370236
-0.370458
-0.37068
-0.370904
-0.371131
-0.37136
-0.370268
-0.370975
-0.371245
-0.371478
-0.37171
-0.371942
-0.372174
-0.372408
-0.372632
-0.372875
-0.373104
-0.373337
-0.373574
-0.373774
-0.374001
-0.374632
-0.374865
-0.375095
-0.375327
-0.37556
-0.375417
-0.375782
-0.376045
-0.376275
-0.376505
-0.376734
-0.376962
-0.377187
-0.37743
-0.377645
-0.377617
-0.378634
-0.378866
-0.379102
-0.379422
-0.378591
-0.379169
-0.379448
-0.3797
-0.379953
-0.380208
-0.380465
-0.380726
-0.380281
-0.38078
-0.381039
-0.381296
-0.381555
-0.381819
-0.382085
-0.382352
-0.381868
-0.382722
-0.38299
-0.383196
-0.383452
-0.383709
-0.383621
-0.38387
-0.38433
-0.384568
-0.384834
-0.385083
-0.385344
-0.385594
-0.385845
-0.386096
-0.386349
-0.386602
-0.386857
-0.387113
-0.387369
-0.387626
-0.387884
-0.388143
-0.388403
-0.388663
-0.388924
-0.389185
-0.389447
-0.389709
-0.389972
-0.390235
-0.390499
-0.390763
-0.391025
-0.391289
-0.391535
-0.391823
-0.392088
-0.392353
-0.392619
-0.392885
-0.393151
-0.393417
-0.393683
-0.39395
-0.394216
-0.394483
-0.394749
-0.395016
-0.395283
-0.39555
-0.395817
-0.396084
-0.396351
-0.396618
-0.396885
-0.397152
-0.397419
-0.397685
-0.397952
-0.398218
-0.398485
-0.398751
-0.399017
-0.399282
-0.399548
-0.399813
-0.400078
-0.400342
-0.400606
-0.400869
-0.401132
-0.401395
-0.401656
-0.401918
-0.402178
-0.402438
-0.402697
-0.402955
-0.403212
-0.403469
-0.403724
-0.403979
-0.404233
-0.404485
-0.404737
-0.404987
-0.405236
-0.405484
-0.40573
-0.405976
-0.40622
-0.406462
-0.406703
-0.406943
-0.407181
-0.407418
-0.407653
-0.407886
-0.408118
-0.408348
-0.408576
-0.408802
-0.409027
-0.409249
-0.40947
-0.409689
-0.409906
-0.41012
-0.410333
-0.410544
-0.410752
-0.410958
-0.411162
-0.411364
-0.411563
-0.41176
-0.411955
-0.412147
-0.412337
-0.412524
-0.412709
-0.412891
-0.41307
-0.413247
-0.413421
-0.413592
-0.413761
-0.413926
-0.414089
-0.414249
-0.414405
-0.414559
-0.41471
-0.414857
-0.415001
-0.415142
-0.41528
-0.415414
-0.415546
-0.415673
-0.415797
-0.415918
-0.416035
-0.416148
-0.416258
-0.416364
-0.416466
-0.416565
-0.416659
-0.41675
-0.416836
-0.416919
-0.416997
-0.417071
-0.417141
-0.417206
-0.417268
-0.417324
-0.417376
-0.417424
-0.417467
-0.417505
-0.417538
-0.417566
-0.382466
-0.382578
-0.382694
-0.382804
-0.382922
-0.383017
-0.382765
-0.382909
-0.382941
-0.382616
-0.383076
-0.383166
-0.383462
-0.382867
-0.383414
-0.383543
-0.383716
-0.384019
-0.383739
-0.38424
-0.384372
-0.384503
-0.38464
-0.384775
-0.384911
-0.385044
-0.384864
-0.385865
-0.386005
-0.386145
-0.386291
-0.386391
-0.386533
-0.387033
-0.387188
-0.387346
-0.387483
-0.387629
-0.387818
-0.387977
-0.388134
-0.388234
-0.38841
-0.388583
-0.388659
-0.388842
-0.389021
-0.389037
-0.389392
-0.389583
-0.389773
-0.389964
-0.389389
-0.390117
-0.390319
-0.390518
-0.390718
-0.390921
-0.390386
-0.39095
-0.391163
-0.391361
-0.391551
-0.391658
-0.391865
-0.392055
-0.392064
-0.392442
-0.392643
-0.392845
-0.393047
-0.393247
-0.393447
-0.393647
-0.393845
-0.39404
-0.394237
-0.394217
-0.394623
-0.394814
-0.395007
-0.395198
-0.395389
-0.39532
-0.395994
-0.39618
-0.396364
-0.396556
-0.396737
-0.396926
-0.397112
-0.397296
-0.397483
-0.397672
-0.39786
-0.398015
-0.398144
-0.398902
-0.399088
-0.399273
-0.399461
-0.39965
-0.399836
-0.400023
-0.400209
-0.400395
-0.40058
-0.400763
-0.400947
-0.401128
-0.400683
-0.401629
-0.401795
-0.401973
-0.402148
-0.402318
-0.402484
-0.402648
-0.402715
-0.402985
-0.403804
-0.403965
-0.404128
-0.404293
-0.40446
-0.404629
-0.404123
-0.404507
-0.404666
-0.404831
-0.404998
-0.405169
-0.405337
-0.405508
-0.405629
-0.405792
-0.406644
-0.406819
-0.406975
-0.407167
-0.407381
-0.407249
-0.407466
-0.40768
-0.407873
-0.408087
-0.408304
-0.408524
-0.408742
-0.408962
-0.409182
-0.409403
-0.409626
-0.409849
-0.410073
-0.410299
-0.410525
-0.410752
-0.41098
-0.411209
-0.411438
-0.411669
-0.4119
-0.412132
-0.412365
-0.412598
-0.412832
-0.413067
-0.413303
-0.413538
-0.413775
-0.414009
-0.414239
-0.414451
-0.414719
-0.414957
-0.415197
-0.415436
-0.415676
-0.415917
-0.416157
-0.416398
-0.41664
-0.416881
-0.417124
-0.417366
-0.417609
-0.417852
-0.418095
-0.418338
-0.418582
-0.418826
-0.41907
-0.419315
-0.419559
-0.419804
-0.420049
-0.420294
-0.420539
-0.420784
-0.421029
-0.421274
-0.421519
-0.421764
-0.422009
-0.422253
-0.422498
-0.422742
-0.422986
-0.423229
-0.423472
-0.423715
-0.423957
-0.424199
-0.42444
-0.424681
-0.424921
-0.42516
-0.425399
-0.425636
-0.425873
-0.426109
-0.426344
-0.426578
-0.426811
-0.427043
-0.427274
-0.427504
-0.427732
-0.427959
-0.428185
-0.42841
-0.428633
-0.428855
-0.429075
-0.429294
-0.429511
-0.429727
-0.429941
-0.430153
-0.430364
-0.430573
-0.43078
-0.430985
-0.431189
-0.43139
-0.43159
-0.431787
-0.431983
-0.432176
-0.432367
-0.432556
-0.432743
-0.432928
-0.43311
-0.43329
-0.433467
-0.433642
-0.433815
-0.433985
-0.434152
-0.434317
-0.434479
-0.434639
-0.434796
-0.43495
-0.435101
-0.435249
-0.435394
-0.435536
-0.435676
-0.435812
-0.435945
-0.436074
-0.436201
-0.436324
-0.436444
-0.436561
-0.436674
-0.436783
-0.436889
-0.436992
-0.43709
-0.437185
-0.437276
-0.437364
-0.437447
-0.437527
-0.437602
-0.437674
-0.437741
-0.437804
-0.437863
-0.437918
-0.437968
-0.438014
-0.438056
-0.438093
-0.438126
-0.438153
-0.40753
-0.407639
-0.407752
-0.407849
-0.407978
-0.408094
-0.407867
-0.408165
-0.408124
-0.408235
-0.408671
-0.408787
-0.408907
-0.408768
-0.409093
-0.409223
-0.409384
-0.409524
-0.409376
-0.409665
-0.40981
-0.409973
-0.410142
-0.410292
-0.410442
-0.4094
-0.409928
-0.410098
-0.410213
-0.410369
-0.410897
-0.410967
-0.411122
-0.411631
-0.411749
-0.411908
-0.41224
-0.412402
-0.412565
-0.412734
-0.412866
-0.412813
-0.413035
-0.413197
-0.413188
-0.41337
-0.413536
-0.413404
-0.413708
-0.413889
-0.414069
-0.414247
-0.414422
-0.414607
-0.414794
-0.414979
-0.415136
-0.415322
-0.415517
-0.415705
-0.415896
-0.416072
-0.416242
-0.416339
-0.416535
-0.416724
-0.416724
-0.417104
-0.417302
-0.417501
-0.4177
-0.417901
-0.418103
-0.418306
-0.418509
-0.418714
-0.418914
-0.418814
-0.419142
-0.419162
-0.41937