/*--------------------------------*- C++ -*----------------------------------*\
| =========                 |                                                 |
| \\      /  F ield         | OpenFOAM: The Open Source CFD Toolbox           |
|  \\    /   O peration     | Version:  2.4.0                                 |
|   \\  /    A nd           | Web:      www.OpenFOAM.org                      |
|    \\/     M anipulation  |                                                 |
\*---------------------------------------------------------------------------*/
FoamFile
{
    version     2.0;
    format      ascii;
    class       volScalarField;
    location    "3.7";
    object      p_rgh;
}
// * * * * * * * * * * * * * * * * * * * * * * * * * * * * * * * * * * * * * //

dimensions      [1 -1 -2 0 0 0 0];

internalField   nonuniform List<scalar> 
8000
(
28.1846
28.1944
28.2059
28.2138
28.2175
28.2156
28.209
28.1967
28.1799
28.1574
28.1289
28.0945
28.0538
28.0069
27.9534
27.8939
27.8282
27.757
27.6803
27.6008
27.5199
27.4412
27.3635
27.284
27.2262
27.1556
26.8135
25.6095
19.7016
11.3268
6.71443
-3.18801
-2.18678
-0.307327
0.167054
0.183608
0.148911
0.147879
0.141989
0.142173
0.141809
0.141266
0.141002
0.140603
0.140282
0.139961
0.139629
0.139295
0.138966
0.138643
27.7831
27.7948
27.804
27.811
27.8175
27.8228
27.8275
27.8321
27.8367
27.8403
27.8448
27.8494
27.8549
27.8608
27.8681
27.8761
27.8856
27.8961
27.9098
27.9284
27.9525
27.9702
27.9563
27.4853
25.8522
19.5763
12.2565
3.73218
-4.38531
-0.236544
0.487478
0.116511
0.126293
0.134399
0.134504
0.135681
0.135339
0.134714
0.134568
0.134573
0.134518
0.134403
0.134255
0.134101
0.133945
0.133788
0.133627
0.133464
0.1333
0.133134
30.0945
30.0983
30.1052
30.1143
30.125
30.1374
30.1512
30.1668
30.184
30.2023
30.222
30.2434
30.2657
30.2897
30.3136
30.3381
30.3628
30.4003
30.4714
30.5585
30.3907
28.9548
25.5452
14.7152
5.00181
-1.47989
-1.24592
0.123265
0.128934
0.120661
0.125799
0.129853
0.12939
0.12907
0.128988
0.129055
0.129059
0.129053
0.12903
0.128998
0.128953
0.1289
0.12884
0.128775
0.128705
0.12863
0.128552
0.128471
0.128385
0.128293
30.5372
30.5348
30.5325
30.5336
30.5383
30.547
30.5592
30.5751
30.5945
30.6183
30.6453
30.6772
30.7115
30.7497
30.7946
30.8705
30.9949
31.0592
30.5363
28.3593
22.5424
8.29987
-3.08484
-0.618349
0.367962
0.119326
0.144578
0.124734
0.123976
0.123572
0.123767
0.124123
0.124223
0.124308
0.124378
0.124437
0.124487
0.124529
0.124562
0.124586
0.124603
0.124613
0.124615
0.124609
0.124594
0.124571
0.124546
0.124513
0.124473
0.124429
31.858
31.8541
31.8541
31.8571
31.8626
31.8701
31.88
31.8921
31.9067
31.9237
31.9424
31.9616
31.9842
32.0291
32.1318
32.2299
31.8375
29.9894
24.7404
4.76333
0.31638
0.597891
0.0704097
0.109971
0.121903
0.11969
0.118428
0.118209
0.118427
0.118669
0.118815
0.118923
0.119029
0.119133
0.119231
0.119323
0.119411
0.11949
0.119564
0.119631
0.119691
0.119747
0.119795
0.119836
0.119874
0.119912
0.119945
0.120479
0.119884
0.119941
30.4858
30.5019
30.5122
30.514
30.508
30.4948
30.4747
30.4475
30.4128
30.3688
30.3158
30.2656
30.2546
30.28
30.0264
28.5771
25.7296
10.3106
-0.358636
0.307371
0.125842
0.133239
0.121736
0.118399
0.118734
0.118945
0.118859
0.11874
0.118608
0.11848
0.118363
0.11826
0.118167
0.118084
0.118016
0.117979
0.118245
0.117884
0.117829
0.117818
0.117802
0.117769
0.118192
0.11767
0.117695
0.117695
0.118088
0.117791
0.117785
0.117782
32.3738
32.3715
32.3653
32.353
32.3346
32.3101
32.2796
32.2423
32.1975
32.1453
32.098
32.0818
32.0744
31.7743
30.4947
27.289
2.71613
0.112826
0.132796
0.130942
0.122965
0.122458
0.122824
0.122649
0.122197
0.121879
0.121584
0.1213
0.121024
0.120757
0.120499
0.120252
0.120019
0.119794
0.11958
0.11938
0.11919
0.119016
0.11885
0.118743
0.118597
0.118509
0.118273
0.118151
0.118035
0.11797
0.117888
0.11793
0.117743
0.117631
34.883
34.8556
34.826
34.7982
34.7721
34.7468
34.7217
34.6961
34.6699
34.6516
34.6646
34.7057
34.5617
33.6375
32.0231
9.14876
0.127029
0.122305
0.121651
0.12134
0.121244
0.121182
0.121069
0.120921
0.120766
0.120612
0.120465
0.120326
0.120189
0.12005
0.119939
0.119864
0.11978
0.12021
0.119245
0.119085
0.118957
0.118826
0.118691
0.118567
0.118436
0.118314
0.118194
0.118076
0.11797
0.117922
0.11783
0.117941
0.117427
0.117316
36.669
36.6462
36.6209
36.597
36.5749
36.5538
36.5333
36.5122
36.4909
36.478
36.4977
36.5461
36.4024
35.4522
33.7962
7.55819
0.118768
0.118157
0.117815
0.117754
0.117973
0.117827
0.117865
0.11778
0.118005
0.11801
0.117933
0.118011
0.118776
0.11817
0.118078
0.11796
0.117952
0.118192
0.117898
0.117748
0.117653
0.117562
0.117469
0.117376
0.11728
0.117182
0.117081
0.116978
0.116872
0.116763
0.116655
0.116546
0.116434
0.116321
38.6838
38.6637
38.6423
38.6231
38.6061
38.5902
38.5762
38.5625
38.5498
38.5407
38.5455
38.5699
38.5422
38.2002
37.4012
15.6489
0.121421
0.11604
0.11599
0.115918
0.115893
0.115898
0.115897
0.115895
0.115884
0.115875
0.115864
0.115848
0.11583
0.11581
0.115787
0.115757
0.115724
0.115688
0.115653
0.115614
0.11557
0.115522
0.115471
0.115416
0.115358
0.115297
0.115233
0.115165
0.115095
0.115021
0.114945
0.114866
0.114784
0.1147
40.3243
40.3084
40.2919
40.2774
40.2652
40.2538
40.2451
40.2364
40.2289
40.2226
40.2256
40.2539
40.2862
40.1199
39.3538
27.413
0.202858
0.113587
0.114059
0.113932
0.113878
0.113875
0.11388
0.113882
0.11388
0.113876
0.113871
0.113864
0.113854
0.113842
0.113827
0.11381
0.113789
0.113767
0.113742
0.113714
0.113684
0.113652
0.113616
0.113578
0.113536
0.113492
0.113445
0.113395
0.113343
0.113288
0.11323
0.113169
0.113106
0.113041
41.5622
41.557
41.5512
41.5461
41.5422
41.5377
41.5358
41.5329
41.5308
41.5288
41.5302
41.545
41.5726
41.5275
41.1619
40.4895
4.19741
0.111653
0.112451
0.112265
0.112198
0.112189
0.112189
0.112185
0.112179
0.112172
0.112164
0.112155
0.112144
0.112133
0.112119
0.112105
0.112088
0.11207
0.11205
0.112028
0.112005
0.111979
0.111952
0.111922
0.11189
0.111856
0.11182
0.111781
0.111741
0.111698
0.111653
0.111606
0.111557
0.111505
43.0545
43.0535
43.0534
43.0537
43.055
43.0548
43.0577
43.0589
43.0611
43.0627
43.0643
43.0726
43.1036
43.1453
43.0267
42.3564
24.3587
0.201807
0.110561
0.110848
0.110752
0.110675
0.110649
0.110631
0.110613
0.110597
0.110583
0.110569
0.110557
0.110544
0.110531
0.110518
0.110504
0.11049
0.110475
0.11046
0.110443
0.110425
0.110406
0.110385
0.110363
0.110339
0.110313
0.110286
0.110257
0.110226
0.110193
0.110158
0.110122
0.110083
44.0388
44.0522
44.067
44.0809
44.095
44.1068
44.12
44.1321
44.144
44.1554
44.1653
44.1741
44.186
44.2092
44.2294
44.1314
43.7257
10.7498
0.184122
0.108159
0.109258
0.108997
0.108918
0.108918
0.108918
0.108925
0.108937
0.108952
0.108968
0.108984
0.109
0.109014
0.109026
0.109037
0.109046
0.109053
0.109058
0.10906
0.10906
0.109058
0.109052
0.109045
0.109035
0.109022
0.109007
0.10899
0.10897
0.108948
0.108923
0.108896
45.2329
45.2558
45.2791
45.2986
45.3154
45.3279
45.3397
45.3493
45.3572
45.3639
45.3708
45.3768
45.3829
45.3782
45.3728
45.4565
45.7076
45.7904
12.4892
0.801286
0.116277
0.106258
0.106447
0.106574
0.106746
0.106923
0.10708
0.10722
0.107344
0.107452
0.107546
0.107627
0.107697
0.107757
0.107808
0.10785
0.107885
0.107914
0.107936
0.107953
0.107965
0.107972
0.107975
0.107974
0.107969
0.107961
0.107949
0.107935
0.107918
0.107898
47.2297
47.2533
47.2795
47.3038
47.3263
47.346
47.3652
47.3828
47.3979
47.4104
47.4198
47.4247
47.4244
47.4208
47.4085
47.397
47.4102
47.5088
47.5951
23.0406
3.55422
0.269667
0.11245
0.109148
0.10891
0.108724
0.108567
0.108435
0.108323
0.108224
0.108137
0.108059
0.10799
0.107927
0.107869
0.107817
0.107769
0.107723
0.107681
0.107641
0.107602
0.107565
0.107528
0.107493
0.107458
0.107423
0.107388
0.107353
0.107317
0.107282
48.7235
48.7378
48.7517
48.7645
48.7744
48.7833
48.7912
48.7981
48.8042
48.8097
48.8153
48.8207
48.8271
48.8329
48.8393
48.8557
48.9056
48.9823
48.8313
47.8528
35.4967
8.99626
0.851651
0.120402
0.106707
0.10668
0.106668
0.106716
0.106768
0.106813
0.106849
0.106877
0.106898
0.106912
0.106921
0.106924
0.106923
0.106918
0.106908
0.106896
0.10688
0.106861
0.10684
0.106817
0.106791
0.106764
0.106734
0.106703
0.106671
0.106636
51.4819
51.4818
51.4845
51.4904
51.4975
51.507
51.5184
51.5323
51.5475
51.565
51.5844
51.6061
51.6297
51.6555
51.6817
51.7086
51.7442
51.8168
51.9301
51.8641
50.9229
47.3842
15.8792
2.16736
0.168338
0.108354
0.107367
0.107274
0.107247
0.107218
0.107184
0.107147
0.107107
0.107065
0.10702
0.106974
0.106926
0.106878
0.106828
0.106778
0.106727
0.106675
0.106624
0.106571
0.106519
0.106466
0.106414
0.106361
0.106308
0.106255
52.8947
52.8974
52.9012
52.9068
52.9134
52.9223
52.9327
52.9448
52.9584
52.9737
52.9902
53.0085
53.0278
53.0489
53.0708
53.0933
53.1158
53.1413
53.1789
53.2353
53.2369
53.057
52.5951
29.4897
3.90908
0.238822
0.109674
0.108618
0.10839
0.108184
0.107993
0.107817
0.107652
0.107497
0.107352
0.107215
0.107086
0.106963
0.106847
0.106736
0.106631
0.106529
0.106432
0.106339
0.106249
0.106162
0.106078
0.105996
0.105916
0.105839
54.6263
54.633
54.6409
54.6484
54.6549
54.6614
54.6673
54.6726
54.6773
54.6815
54.685
54.6877
54.6897
54.6908
54.691
54.6905
54.6884
54.6852
54.6823
54.6811
54.688
54.6935
54.6854
54.623
23.8174
1.32392
0.114781
0.107799
0.107575
0.107403
0.107254
0.107114
0.10698
0.106851
0.106727
0.106607
0.106491
0.10638
0.106272
0.106168
0.106067
0.105969
0.105874
0.105781
0.10569
0.105602
0.105516
0.105432
0.105349
0.105268
0.138326
0.138016
0.137712
0.137414
0.137122
0.136835
0.136554
0.136279
0.136011
0.135748
0.13549
0.135237
0.134989
0.134746
0.134506
0.134269
0.134036
0.133805
0.133578
0.133352
0.13313
0.132909
0.13269
0.132474
0.132258
0.132044
0.131832
0.13162
0.131409
0.131198
0.130988
0.130778
0.130568
0.130358
0.130147
0.129936
0.129724
0.129512
0.129299
0.129084
0.128868
0.128651
0.128433
0.128213
0.127991
0.127767
0.127542
0.127314
0.127086
0.126855
0.132967
0.132796
0.132622
0.132448
0.132273
0.132097
0.131921
0.131745
0.131569
0.131395
0.131217
0.131039
0.130861
0.130685
0.130506
0.130329
0.130151
0.129972
0.129794
0.129615
0.129437
0.129259
0.129081
0.128903
0.128724
0.128546
0.128367
0.128187
0.128007
0.127827
0.127645
0.127463
0.12728
0.127096
0.126911
0.126725
0.126537
0.126349
0.126159
0.125967
0.125774
0.125579
0.125383
0.125185
0.124985
0.124783
0.12458
0.124375
0.124169
0.123961
0.128197
0.1281
0.128001
0.127902
0.127801
0.127713
0.127578
0.12747
0.127376
0.127334
0.127165
0.127041
0.126919
0.126795
0.126669
0.126541
0.126411
0.126279
0.126146
0.12601
0.125873
0.125734
0.125593
0.12545
0.125305
0.125158
0.125009
0.124858
0.124705
0.12455
0.124393
0.124233
0.124071
0.123907
0.12374
0.123571
0.1234
0.123227
0.123051
0.122872
0.122691
0.122507
0.122321
0.122133
0.121942
0.121749
0.121553
0.121355
0.121155
0.120952
0.124379
0.124321
0.124258
0.124221
0.12409
0.124068
0.123958
0.123905
0.123912
0.124157
0.123795
0.1237
0.123603
0.123498
0.123395
0.123291
0.123181
0.12307
0.122958
0.122844
0.122728
0.122609
0.122488
0.122365
0.122239
0.122112
0.121981
0.121849
0.121714
0.121576
0.121436
0.121294
0.121149
0.121001
0.120851
0.120699
0.120543
0.120385
0.120224
0.12006
0.119893
0.119723
0.11955
0.119375
0.119196
0.119013
0.11883
0.118641
0.118449
0.118254
0.119911
0.119922
0.120021
0.120019
0.120663
0.120147
0.120125
0.120106
0.12008
0.120052
0.120014
0.120031
0.120218
0.119936
0.119928
0.11989
0.119699
0.119643
0.119583
0.119518
0.11945
0.119377
0.119301
0.11922
0.119136
0.119048
0.118956
0.11886
0.11876
0.118657
0.118549
0.118438
0.118324
0.118206
0.118084
0.117959
0.11783
0.117698
0.117562
0.117423
0.117282
0.117136
0.116988
0.116835
0.116682
0.116522
0.116502
0.116239
0.116063
0.115886
0.117779
0.117774
0.117784
0.117822
0.117975
0.117839
0.117903
0.117952
0.1177
0.117699
0.117683
0.117619
0.11759
0.117558
0.117523
0.117484
0.117442
0.117396
0.117346
0.117291
0.117233
0.117171
0.117104
0.117034
0.11696
0.116882
0.1168
0.116714
0.116624
0.11653
0.116433
0.116333
0.116228
0.11612
0.116009
0.115894
0.115776
0.115654
0.11553
0.115402
0.115323
0.115186
0.115048
0.114985
0.114789
0.114632
0.114478
0.11433
0.114176
0.114216
0.117524
0.117448
0.117309
0.117234
0.11716
0.117087
0.117016
0.116947
0.116878
0.116808
0.116737
0.116666
0.116592
0.116517
0.116441
0.116363
0.116284
0.116203
0.11612
0.116036
0.115949
0.115861
0.11577
0.115678
0.115583
0.115487
0.115388
0.115287
0.115184
0.115079
0.114971
0.114861
0.114749
0.114634
0.114518
0.114399
0.114279
0.114156
0.114031
0.113904
0.113775
0.113644
0.113511
0.113375
0.113237
0.113099
0.112956
0.112966
0.112712
0.11257
0.11721
0.117102
0.116993
0.116883
0.116773
0.116664
0.116554
0.116444
0.116334
0.116224
0.116114
0.116003
0.115892
0.115781
0.115669
0.115557
0.115444
0.115331
0.115217
0.115102
0.114987
0.114871
0.114755
0.114638
0.11452
0.114402
0.114283
0.114163
0.114042
0.11392
0.113798
0.113674
0.11355
0.113425
0.113299
0.113172
0.113044
0.112916
0.112786
0.112655
0.112525
0.112392
0.112259
0.112124
0.112072
0.111869
0.111722
0.111583
0.111582
0.111337
0.116207
0.116092
0.115976
0.11586
0.115744
0.115627
0.115509
0.115391
0.115272
0.115154
0.115035
0.114915
0.114796
0.114676
0.114556
0.114436
0.114315
0.114195
0.114074
0.113953
0.113831
0.11371
0.113588
0.113466
0.113343
0.11322
0.113097
0.112974
0.11285
0.112726
0.112601
0.112475
0.11235
0.112223
0.112097
0.111969
0.111841
0.111712
0.111583
0.111487
0.111333
0.111199
0.111063
0.110929
0.110795
0.11066
0.110524
0.110391
0.110252
0.110114
0.114614
0.114525
0.114435
0.114342
0.114248
0.114152
0.114054
0.113955
0.113854
0.113752
0.113649
0.113544
0.113438
0.113332
0.113224
0.113116
0.113007
0.112896
0.112786
0.112674
0.112562
0.112449
0.112336
0.112222
0.112107
0.111992
0.111876
0.11176
0.111643
0.111526
0.111408
0.11129
0.111171
0.111052
0.110931
0.110811
0.110689
0.110568
0.110447
0.110323
0.110198
0.110073
0.109948
0.109822
0.109695
0.109566
0.10944
0.109311
0.109181
0.109049
0.112973
0.112903
0.112831
0.112757
0.11268
0.112602
0.112522
0.11244
0.112357
0.112271
0.112185
0.112096
0.112007
0.111916
0.111824
0.111731
0.111636
0.111541
0.111444
0.111347
0.111248
0.111149
0.111049
0.110948
0.110846
0.110743
0.11064
0.110536
0.110431
0.110326
0.110219
0.110112
0.110004
0.109896
0.109786
0.109676
0.109566
0.109454
0.109341
0.109227
0.109113
0.108998
0.108881
0.108764
0.108645
0.108526
0.108405
0.108283
0.10816
0.108036
0.111452
0.111396
0.111339
0.111279
0.111218
0.111155
0.11109
0.111023
0.110955
0.110885
0.110813
0.11074
0.110666
0.11059
0.110513
0.110435
0.110356
0.110275
0.110193
0.110111
0.110027
0.109943
0.109857
0.109771
0.109683
0.109595
0.109506
0.109416
0.109326
0.109234
0.109142
0.109049
0.108956
0.108861
0.108766
0.10867
0.108573
0.108475
0.108377
0.108277
0.108177
0.108076
0.107974
0.107871
0.107767
0.107662
0.107555
0.107448
0.10734
0.107233
0.110043
0.110001
0.109957
0.109911
0.109863
0.109814
0.109762
0.10971
0.109655
0.109599
0.109542
0.109483
0.109423
0.109362
0.109299
0.109235
0.10917
0.109103
0.109036
0.108967
0.108898
0.108828
0.108756
0.108684
0.108611
0.108537
0.108463
0.108387
0.108311
0.108234
0.108157
0.108078
0.107999
0.107919
0.107839
0.107758
0.107676
0.107593
0.10751
0.107425
0.10734
0.107255
0.107168
0.107081
0.106992
0.106902
0.106812
0.106721
0.10663
0.106538
0.108868
0.108837
0.108804
0.108769
0.108732
0.108694
0.108653
0.108611
0.108568
0.108523
0.108476
0.108428
0.108379
0.108329
0.108277
0.108224
0.10817
0.108115
0.108059
0.108002
0.107944
0.107885
0.107825
0.107765
0.107703
0.107641
0.107579
0.107515
0.107451
0.107386
0.107321
0.107255
0.107188
0.10712
0.107053
0.106984
0.106915
0.106845
0.106775
0.106704
0.106632
0.10656
0.106487
0.106413
0.106339
0.106263
0.106187
0.106111
0.106035
0.105958
0.107876
0.107852
0.107825
0.107796
0.107766
0.107734
0.1077
0.107664
0.107627
0.107588
0.107548
0.107507
0.107464
0.107421
0.107376
0.10733
0.107283
0.107236
0.107187
0.107137
0.107087
0.107036
0.106984
0.106932
0.106879
0.106825
0.10677
0.106715
0.10666
0.106603
0.106547
0.106489
0.106432
0.106373
0.106315
0.106255
0.106195
0.106135
0.106074
0.106013
0.105951
0.105889
0.105826
0.105762
0.105697
0.105632
0.105566
0.105501
0.105435
0.105366
0.107246
0.107209
0.107172
0.107134
0.107096
0.107057
0.107018
0.106978
0.106937
0.106895
0.106853
0.106811
0.106767
0.106724
0.106679
0.106634
0.106589
0.106543
0.106496
0.106449
0.106401
0.106353
0.106305
0.106256
0.106207
0.106158
0.106108
0.106058
0.106007
0.105956
0.105905
0.105854
0.105802
0.10575
0.105698
0.105646
0.105593
0.10554
0.105487
0.105434
0.105381
0.105327
0.105273
0.105219
0.105164
0.10511
0.105055
0.105
0.104945
0.104893
0.106601
0.106565
0.106527
0.106488
0.106448
0.106408
0.106366
0.106324
0.106281
0.106237
0.106192
0.106147
0.106101
0.106055
0.106009
0.105961
0.105914
0.105866
0.105817
0.105768
0.105719
0.10567
0.10562
0.10557
0.105519
0.105469
0.105418
0.105367
0.105316
0.105264
0.105213
0.105161
0.105109
0.105057
0.105004
0.104952
0.104899
0.104847
0.104794
0.104741
0.104688
0.104634
0.104581
0.104528
0.104474
0.10442
0.104366
0.104312
0.104258
0.104203
0.106202
0.106148
0.106095
0.106042
0.105988
0.105935
0.105882
0.105828
0.105775
0.105722
0.105668
0.105615
0.105562
0.105508
0.105455
0.105402
0.105349
0.105295
0.105242
0.105189
0.105136
0.105083
0.10503
0.104978
0.104925
0.104872
0.10482
0.104767
0.104715
0.104662
0.10461
0.104558
0.104506
0.104454
0.104402
0.10435
0.104298
0.104246
0.104194
0.104143
0.104091
0.104039
0.103988
0.103936
0.103884
0.103833
0.103781
0.10373
0.103679
0.103627
0.105763
0.105689
0.105616
0.105545
0.105475
0.105406
0.105338
0.105271
0.105205
0.10514
0.105075
0.105012
0.104948
0.104886
0.104824
0.104762
0.104701
0.10464
0.10458
0.10452
0.10446
0.104401
0.104342
0.104283
0.104225
0.104167
0.104109
0.104051
0.103994
0.103936
0.103879
0.103822
0.103765
0.103709
0.103652
0.103596
0.103539
0.103483
0.103427
0.103371
0.103314
0.103258
0.103202
0.103146
0.10309
0.103033
0.102977
0.102921
0.102864
0.102808
0.105189
0.105111
0.105035
0.104959
0.104885
0.104812
0.10474
0.104669
0.104599
0.10453
0.104461
0.104394
0.104327
0.104261
0.104196
0.104131
0.104067
0.104003
0.10394
0.103878
0.103816
0.103755
0.103694
0.103633
0.103573
0.103514
0.103454
0.103396
0.103337
0.103279
0.103221
0.103164
0.103107
0.10305
0.102993
0.102937
0.10288
0.102824
0.102769
0.102713
0.102658
0.102602
0.102547
0.102492
0.102437
0.102382
0.102327
0.102272
0.102218
0.102163
0.126672
0.126538
0.1264
0.126261
0.126122
0.125981
0.12584
0.125697
0.125553
0.125407
0.125576
0.125415
0.125284
0.125685
0.125155
0.125112
0.124977
0.12443
0.124327
0.124178
0.123734
0.123567
0.123397
0.12323
0.123062
0.124012
0.123534
0.123284
0.123107
0.122931
0.122762
0.12258
0.122428
0.12222
0.122037
0.121852
0.121668
0.121482
0.121295
0.121106
0.120917
0.120725
0.120533
0.120338
0.120143
0.119945
0.119746
0.119545
0.119343
0.119139
0.118933
0.118724
0.118555
0.118859
0.1185
0.118227
0.118222
0.118008
0.117831
0.1179
0.117125
0.116879
0.116661
0.11644
0.116219
0.115998
0.115776
0.115553
0.115329
0.115104
0.114878
0.11465
0.114422
0.114193
0.113962
0.113731
0.113498
0.113266
0.113034
0.1128
0.112564
0.112326
0.11212
0.112633
0.112266
0.11195
0.111689
0.111447
0.111205
0.110964
0.110724
0.110485
0.110244
0.110006
0.109828
0.109601
0.10903
0.108766
0.108525
0.108283
0.108037
0.107795
0.107543
0.10733
0.107121
0.106683
0.106418
0.106171
0.105922
0.105671
0.105418
0.10516
0.104962
0.104934
0.104207
0.103914
0.103684
0.103388
0.104164
0.103301
0.10301
0.102755
0.1025
0.102247
0.101996
0.101743
0.101542
0.101374
0.100731
0.100451
0.100205
0.0997177
0.0997787
0.0995112
0.0994225
0.099175
0.0988
0.098506
0.0982274
0.0979517
0.0976737
0.0973944
0.0971139
0.0968322
0.0965493
0.0962654
0.0959805
0.0956946
0.0954079
0.0951204
0.0948324
0.0945437
0.0942545
0.0939648
0.0936746
0.0933841
0.0930933
0.0928022
0.0925109
0.0922194
0.0919277
0.0916358
0.091344
0.0910522
0.0907604
0.0904691
0.090177
0.0898846
0.0895932
0.0893305
0.0890081
0.0887163
0.0884244
0.0881325
0.0878406
0.0875487
0.0872569
0.0869652
0.0866735
0.086382
0.0860905
0.0857991
0.0855079
0.0852168
0.0849259
0.0846352
0.0843447
0.0840544
0.0837643
0.0834745
0.0831851
0.0828959
0.0826071
0.0823187
0.0820306
0.0817429
0.0814557
0.081169
0.0808828
0.0805971
0.080312
0.0800274
0.0797436
0.0794604
0.0791779
0.0788962
0.0786152
0.0783352
0.0780559
0.0777776
0.0775003
0.0772239
0.0769486
0.0766743
0.0764012
0.0761292
0.0758584
0.0755888
0.0753205
0.0750536
0.0747879
0.0745237
0.0742609
0.0739996
0.0737397
0.0734815
0.0732248
0.0729697
0.0727163
0.0724646
0.0722147
0.0719665
0.0717202
0.0714757
0.0712331
0.0709924
0.0707537
0.070517
0.0702824
0.0700498
0.0698194
0.0695911
0.069365
0.0691411
0.0689195
0.0687002
0.0684833
0.0682687
0.0680565
0.0678468
0.0676396
0.0674349
0.0672328
0.0670333
0.0668365
0.0666423
0.0664509
0.0662622
0.0660763
0.0658933
0.0657131
0.0655359
0.0653617
0.0651904
0.0650222
0.0648571
0.0646952
0.0645364
0.0643808
0.0642286
0.0640796
0.063934
0.0637918
0.063653
0.0635177
0.063386
0.0632579
0.0631334
0.0630127
0.0628956
0.0627824
0.062673
0.0625675
0.0624659
0.0623684
0.0622749
0.0621855
0.0621003
0.0620193
0.0619426
0.0618702
0.0618021
0.0617385
0.0616794
0.0616249
0.0615749
0.0615295
0.0614888
0.0614529
0.0614223
0.123798
0.12368
0.12356
0.123439
0.123317
0.123194
0.123078
0.122953
0.122834
0.123104
0.122684
0.122567
0.122237
0.12286
0.122259
0.122566
0.122438
0.121934
0.121855
0.121724
0.121335
0.121194
0.12105
0.120904
0.120763
0.120657
0.120985
0.120096
0.119912
0.119758
0.119606
0.119452
0.119295
0.119137
0.118978
0.11882
0.118662
0.118502
0.118342
0.118181
0.11802
0.117858
0.117695
0.117533
0.11737
0.117206
0.117042
0.116878
0.116713
0.116547
0.116383
0.116218
0.116089
0.116641
0.115319
0.115132
0.114964
0.114791
0.114647
0.114952
0.114122
0.113911
0.113727
0.113536
0.113345
0.113151
0.112956
0.112757
0.112557
0.112354
0.112148
0.111941
0.111732
0.11152
0.111309
0.111093
0.110891
0.110662
0.11044
0.110217
0.109993
0.109767
0.109541
0.1107
0.109971
0.109661
0.109419
0.109187
0.108955
0.108722
0.10849
0.108266
0.108023
0.107794
0.107561
0.10734
0.107184
0.106958
0.106305
0.106035
0.105803
0.105571
0.105338
0.105504
0.105132
0.104853
0.104624
0.104394
0.104164
0.103937
0.103711
0.10347
0.103304
0.103346
0.102284
0.102031
0.101795
0.101479
0.102376
0.101779
0.101461
0.101197
0.100943
0.100688
0.100432
0.100175
0.100664
0.100151
0.0998589
0.0996
0.0993408
0.0990771
0.0988121
0.0985855
0.0991164
0.0982264
0.0979102
0.0977008
0.0974454
0.0971978
0.0973215
0.0970729
0.0965739
0.0963281
0.0960632
0.0958154
0.0955527
0.0953026
0.0950517
0.0947998
0.0945469
0.0942931
0.0940382
0.0937824
0.0935257
0.0932682
0.0930097
0.0927505
0.0924906
0.0922299
0.0919686
0.0917068
0.0914445
0.0911816
0.0909184
0.0906549
0.090391
0.090127
0.0898649
0.0896006
0.0893563
0.0890659
0.0888008
0.0885356
0.0882698
0.0880039
0.0877379
0.0874717
0.0872054
0.0869389
0.0866723
0.0864056
0.0861388
0.0858719
0.0856049
0.0853379
0.0850708
0.0848037
0.0845365
0.0842694
0.0840023
0.0837352
0.0834683
0.0832014
0.0829347
0.0826681
0.0824017
0.0821355
0.0818696
0.0816039
0.0813384
0.0810733
0.0808086
0.0805443
0.0802803
0.0800169
0.079754
0.0794916
0.0792298
0.0789686
0.0787081
0.0784484
0.0781893
0.0779311
0.0776738
0.0774173
0.0771617
0.0769071
0.0766536
0.076401
0.0761496
0.0758993
0.0756502
0.0754024
0.0751558
0.0749105
0.0746666
0.074424
0.0741829
0.0739433
0.0737051
0.0734686
0.0732336
0.0730003
0.0727686
0.0725387
0.0723105
0.0720841
0.0718596
0.0716369
0.0714162
0.0711974
0.0709806
0.0707658
0.0705531
0.0703426
0.0701341
0.0699279
0.0697239
0.0695222
0.0693228
0.0691258
0.0689311
0.0687389
0.0685492
0.068362
0.0681773
0.0679953
0.0678159
0.0676391
0.0674652
0.0672939
0.0671255
0.06696
0.0667973
0.0666376
0.0664809
0.0663273
0.0661767
0.0660292
0.065885
0.0657439
0.0656062
0.0654717
0.0653407
0.065213
0.0650889
0.0649682
0.0648512
0.0647377
0.064628
0.064522
0.0644198
0.0643214
0.0642269
0.0641364
0.0640499
0.0639675
0.0638892
0.0638151
0.0637453
0.0636798
0.0636186
0.0635619
0.0635098
0.0634623
0.0634195
0.0633815
0.0633485
0.0633206
0.120794
0.120682
0.120567
0.120456
0.120339
0.120243
0.120507
0.120354
0.120319
0.120661
0.120189
0.120098
0.119808
0.120428
0.119867
0.119721
0.119549
0.119253
0.119547
0.119033
0.118894
0.118762
0.11863
0.118491
0.118355
0.118267
0.118459
0.117425
0.117261
0.117134
0.116976
0.116874
0.116747
0.116233
0.116078
0.11592
0.115782
0.115638
0.115448
0.115288
0.115131
0.115034
0.114856
0.114682
0.114611
0.114423
0.114244
0.114235
0.113873
0.113683
0.113492
0.113301
0.11391
0.11316
0.112947
0.112749
0.112548
0.112345
0.112913
0.112334
0.112103
0.111904
0.111714
0.111611
0.1114
0.111209
0.111209
0.110823
0.110622
0.11042
0.110218
0.110018
0.109818
0.109618
0.10942
0.109224
0.109028
0.109058
0.108642
0.10845
0.108258
0.108066
0.107892
0.107974
0.107274
0.107084
0.1069
0.106709
0.106529
0.106339
0.106153
0.105968
0.105782
0.105594
0.105427
0.105311
0.105184
0.104395
0.104178
0.103992
0.103805
0.103616
0.103429
0.103243
0.103057
0.102871
0.102686
0.102503
0.102319
0.102168
0.102649
0.10166
0.10147
0.101292
0.101117
0.100946
0.100781
0.100627
0.100623
0.100346
0.0994823
0.0992991
0.0991361
0.0989705
0.0988036
0.0986347
0.099185
0.0987865
0.0986039
0.0984329
0.098265
0.0980942
0.0979266
0.0977995
0.0977264
0.097564
0.0966651
0.0964473
0.0962898
0.0960979
0.0959283
0.0960836
0.0958662
0.0956071
0.0953918
0.0951774
0.09496
0.0947406
0.0945217
0.0943021
0.0940815
0.09386
0.0936375
0.0934141
0.0931896
0.0929642
0.0927378
0.0925105
0.0922822
0.092053
0.0918229
0.0915919
0.0913602
0.0911277
0.0908944
0.0906604
0.0904259
0.0901907
0.0899549
0.0897188
0.0894822
0.0892476
0.0890165
0.088807
0.0885371
0.0882984
0.0880592
0.0878196
0.0875795
0.0873391
0.0870984
0.0868572
0.0866158
0.086374
0.0861318
0.0858893
0.0856465
0.0854034
0.08516
0.0849163
0.0846724
0.0844282
0.0841839
0.0839393
0.0836946
0.0834497
0.0832048
0.0829597
0.0827146
0.0824695
0.0822243
0.0819792
0.0817342
0.0814892
0.0812444
0.0809997
0.0807553
0.0805111
0.0802672
0.0800237
0.0797805
0.0795378
0.0792955
0.0790538
0.0788126
0.078572
0.0783321
0.0780929
0.0778544
0.0776168
0.0773799
0.077144
0.076909
0.076675
0.0764419
0.07621
0.0759792
0.0757495
0.075521
0.0752938
0.0750679
0.0748433
0.07462
0.0743982
0.0741779
0.073959
0.0737417
0.073526
0.0733119
0.0730996
0.0728889
0.0726799
0.0724728
0.0722676
0.0720642
0.0718627
0.0716632
0.0714657
0.0712703
0.0710769
0.0708857
0.0706967
0.0705099
0.0703254
0.0701431
0.0699633
0.0697858
0.0696107
0.0694382
0.0692681
0.0691007
0.0689358
0.0687736
0.0686141
0.0684574
0.0683035
0.0681524
0.0680042
0.0678589
0.0677167
0.0675775
0.0674414
0.0673084
0.0671786
0.067052
0.0669288
0.0668089
0.0666924
0.0665793
0.0664698
0.0663638
0.0662614
0.0661627
0.0660678
0.0659766
0.0658893
0.0658058
0.0657263
0.0656508
0.0655794
0.0655121
0.0654489
0.06539
0.0653354
0.065285
0.065239
0.0651974
0.0651601
0.0651274
0.0650997
0.118099
0.11799
0.117877
0.117778
0.117653
0.117534
0.117773
0.117469
0.117503
0.11741
0.116963
0.116846
0.116726
0.116875
0.116543
0.116413
0.116253
0.116119
0.116277
0.115983
0.115826
0.115662
0.115494
0.115345
0.115194
0.116284
0.115742
0.115536
0.115419
0.115282
0.114739
0.114665
0.114528
0.114004
0.113884
0.113733
0.113394
0.113232
0.113069
0.1129
0.112766
0.112828
0.112598
0.112435
0.112455
0.112263
0.112097
0.112243
0.111933
0.111745
0.111565
0.111387
0.111211
0.111026
0.11084
0.110657
0.110501
0.110315
0.110118
0.109929
0.109738
0.10956
0.10939
0.109298
0.109097
0.108907
0.108917
0.108528
0.108332
0.108132
0.107933
0.107732
0.10753
0.107327
0.107124
0.106919
0.106718
0.106835
0.1065
0.10647
0.106281
0.105761
0.105554
0.105343
0.105131
0.104918
0.104712
0.104523
0.104655
0.104293
0.104253
0.104031
0.10383
0.103777
0.103358
0.103386
0.103168
0.103302
0.103051
0.102406
0.102203
0.102006
0.10181
0.101621
0.101446
0.101259
0.101065
0.100897
0.100714
0.100563
0.100998
0.100064
0.099866
0.099692
0.0995184
0.099345
0.0991958
0.099251
0.0990832
0.0984264
0.0982352
0.0980683
0.0979019
0.0977354
0.0975687
0.0974043
0.0972479
0.0980629
0.0973814
0.097171
0.0970329
0.0968668
0.0967393
0.0966951
0.096544
0.0957625
0.0955458
0.0954061
0.095232
0.0962315
0.0954394
0.0956476
0.0954831
0.0953733
0.0957076
0.0945469
0.0943446
0.0941746
0.0940002
0.0938225
0.093642
0.0934588
0.0932729
0.0930844
0.0928937
0.0927007
0.0925056
0.0923086
0.0921098
0.0919093
0.0917071
0.0915035
0.0912985
0.0910922
0.0908846
0.090676
0.0904664
0.0902558
0.0900444
0.089832
0.0896218
0.0894164
0.0892208
0.088977
0.0887622
0.0885467
0.0883306
0.0881139
0.0878968
0.0876792
0.0874611
0.0872425
0.0870235
0.086804
0.086584
0.0863636
0.0861427
0.0859214
0.0856995
0.0854773
0.0852546
0.0850314
0.0848079
0.084584
0.0843597
0.0841351
0.0839101
0.0836849
0.0834593
0.0832336
0.0830076
0.0827814
0.0825551
0.0823286
0.0821021
0.0818754
0.0816487
0.0814221
0.0811955
0.0809689
0.0807426
0.0805164
0.0802904
0.0800647
0.0798393
0.0796143
0.0793897
0.0791656
0.078942
0.078719
0.0784965
0.0782747
0.0780536
0.0778333
0.0776138
0.0773951
0.0771773
0.0769604
0.0767446
0.0765297
0.076316
0.0761033
0.0758919
0.0756816
0.0754726
0.0752649
0.0750586
0.0748536
0.0746501
0.0744481
0.0742476
0.0740487
0.0738514
0.0736557
0.0734618
0.0732696
0.0730792
0.0728906
0.0727039
0.0725191
0.0723363
0.0721554
0.0719767
0.0718
0.0716255
0.0714532
0.0712831
0.0711153
0.0709498
0.0707866
0.0706259
0.0704677
0.0703119
0.0701587
0.0700081
0.0698602
0.069715
0.0695725
0.0694328
0.069296
0.0691621
0.0690311
0.0689032
0.0687782
0.0686565
0.0685378
0.0684224
0.0683103
0.0682015
0.068096
0.067994
0.0678955
0.0678006
0.0677093
0.0676216
0.0675376
0.0674574
0.0673811
0.0673086
0.0672401
0.0671756
0.0671151
0.0670587
0.0670064
0.0669583
0.0669144
0.0668747
0.0668393
0.0668083
0.0667821
0.115748
0.115658
0.115859
0.115469
0.115356
0.115231
0.115126
0.115279
0.114888
0.114744
0.114598
0.114484
0.11437
0.114256
0.114137
0.114016
0.114524
0.114185
0.114041
0.113916
0.113792
0.113655
0.113526
0.113407
0.113269
0.113092
0.112955
0.11284
0.112884
0.113198
0.112753
0.112763
0.112634
0.112102
0.111973
0.111828
0.111665
0.111516
0.111636
0.111461
0.111331
0.11167
0.111094
0.111004
0.110848