/*--------------------------------*- C++ -*----------------------------------*\
| =========                 |                                                 |
| \\      /  F ield         | OpenFOAM: The Open Source CFD Toolbox           |
|  \\    /   O peration     | Version:  2.4.0                                 |
|   \\  /    A nd           | Web:      www.OpenFOAM.org                      |
|    \\/     M anipulation  |                                                 |
\*---------------------------------------------------------------------------*/
FoamFile
{
    version     2.0;
    format      ascii;
    class       volVectorField;
    location    "3.7";
    object      U;
}
// * * * * * * * * * * * * * * * * * * * * * * * * * * * * * * * * * * * * * //

dimensions      [0 1 -1 0 0 0 0];

internalField   nonuniform List<vector> 
8000
(
(-1.44204e-07 -0.000183374 0)
(1.50745e-06 -0.000539567 0)
(5.38812e-06 -0.000884489 0)
(1.1687e-05 -0.00121647 0)
(2.01828e-05 -0.00153515 0)
(3.07398e-05 -0.00184173 0)
(4.31428e-05 -0.00213686 0)
(5.73644e-05 -0.00242099 0)
(7.31674e-05 -0.00269415 0)
(9.0587e-05 -0.00295655 0)
(0.000109336 -0.003208 0)
(0.000129491 -0.00344871 0)
(0.000150707 -0.00367832 0)
(0.000173094 -0.00389697 0)
(0.000196229 -0.00410413 0)
(0.000220253 -0.00429982 0)
(0.000244642 -0.00448336 0)
(0.000269568 -0.0046546 0)
(0.000294365 -0.00481276 0)
(0.00031923 -0.0049574 0)
(0.000343407 -0.00508782 0)
(0.000367104 -0.00520296 0)
(0.000389588 -0.00530235 0)
(0.000410346 -0.00538412 0)
(0.000428354 -0.00544956 0)
(0.000442275 -0.00550232 0)
(0.000440024 -0.00556747 0)
(0.000376274 -0.00550959 0)
(0.000204096 -0.00528309 0)
(-8.9234e-05 -0.00504644 0)
(-0.000402289 -0.00503763 0)
(-0.000597891 -0.00473742 0)
(-0.000738924 -0.00205431 0)
(-0.00135811 -0.000890453 0)
(-0.0018137 0.00017374 0)
(-0.00308226 -0.00454515 0)
(-0.00378812 -0.000632812 0)
(-0.00338055 0.0155915 0)
(-0.00507309 0.0135846 0)
(-0.00583113 0.028889 0)
(-0.00665287 0.0254828 0)
(-0.00701587 0.02416 0)
(-0.00714136 0.0219067 0)
(-0.00736667 0.0202943 0)
(-0.00746099 0.0189444 0)
(-0.0074692 0.0176949 0)
(-0.00738937 0.0165015 0)
(-0.00724454 0.0153778 0)
(-0.00706159 0.0142645 0)
(-0.00685231 0.0131436 0)
(5.28211e-07 -0.000189441 0)
(2.51423e-06 -0.000557929 0)
(6.03302e-06 -0.000916144 0)
(1.08157e-05 -0.00126257 0)
(1.69773e-05 -0.00159611 0)
(2.44854e-05 -0.00191758 0)
(3.35204e-05 -0.00222742 0)
(4.39926e-05 -0.00252623 0)
(5.61356e-05 -0.00281397 0)
(6.98255e-05 -0.00309103 0)
(8.53349e-05 -0.00335699 0)
(0.000102529 -0.00361222 0)
(0.000121687 -0.00385599 0)
(0.000142678 -0.00408867 0)
(0.000165761 -0.00430916 0)
(0.000190832 -0.00451788 0)
(0.000218065 -0.00471328 0)
(0.000247444 -0.00489585 0)
(0.000279022 -0.00506352 0)
(0.000313216 -0.00521672 0)
(0.000350117 -0.00535254 0)
(0.000390813 -0.00547209 0)
(0.000432433 -0.00557615 0)
(0.000456814 -0.0056822 0)
(0.000397664 -0.00566005 0)
(0.000218679 -0.00553247 0)
(-2.66595e-05 -0.00537288 0)
(-0.000202915 -0.00538259 0)
(-0.000342607 -0.00451811 0)
(-0.000978553 -0.000141123 0)
(-0.00176725 0.00152994 0)
(-0.00293994 -0.0090704 0)
(-0.00605922 0.0160643 0)
(-0.00485535 -0.00027322 0)
(-0.0051981 0.0110708 0)
(-0.00687564 0.0158527 0)
(-0.00788265 0.0175304 0)
(-0.00816137 0.0198541 0)
(-0.00833046 0.0210182 0)
(-0.0082861 0.02181 0)
(-0.00797416 0.0216136 0)
(-0.00764209 0.0207352 0)
(-0.00733451 0.0196531 0)
(-0.0070686 0.0183821 0)
(-0.00681441 0.0170422 0)
(-0.00656038 0.0156766 0)
(-0.00630178 0.0143057 0)
(-0.00603537 0.0129418 0)
(-0.00575881 0.0115882 0)
(-0.00547181 0.0102446 0)
(-1.86048e-07 -0.000200239 0)
(-3.19238e-07 -0.000587584 0)
(1.12495e-07 -0.000963469 0)
(1.35767e-06 -0.00132777 0)
(3.58492e-06 -0.0016811 0)
(7.14332e-06 -0.00202339 0)
(1.21371e-05 -0.00235629 0)
(1.89359e-05 -0.00267892 0)
(2.7631e-05 -0.0029932 0)
(3.85886e-05 -0.00329736 0)
(5.18824e-05 -0.0035938 0)
(6.78761e-05 -0.00387977 0)
(8.65976e-05 -0.00415841 0)
(0.000108411 -0.0044257 0)
(0.000133243 -0.00468584 0)
(0.000161361 -0.00493329 0)
(0.000192568 -0.00517347 0)
(0.000227366 -0.00539884 0)
(0.000267568 -0.00561597 0)
(0.0003163 -0.00581759 0)
(0.000367017 -0.00601879 0)
(0.000361581 -0.00623699 0)
(0.000166265 -0.00611144 0)
(-0.000183078 -0.00587693 0)
(-0.000443913 -0.00584354 0)
(-0.000521108 -0.00524837 0)
(-0.000837682 -0.00062139 0)
(-0.00168836 -0.00483835 0)
(-0.00681455 0.00745552 0)
(-0.00591511 0.00989445 0)
(-0.00205919 0.0313564 0)
(-0.00839654 0.0210206 0)
(-0.00770176 0.0216467 0)
(-0.00780899 0.0195383 0)
(-0.00831204 0.0189501 0)
(-0.00857565 0.0188917 0)
(-0.0086099 0.0188235 0)
(-0.00848378 0.0186098 0)
(-0.00825191 0.0182625 0)
(-0.00794565 0.0176978 0)
(-0.0075864 0.0169822 0)
(-0.00720807 0.01609 0)
(-0.00682405 0.0150503 0)
(-0.00643829 0.0138912 0)
(-0.00605346 0.0126453 0)
(-0.00566919 0.0113392 0)
(-0.00528448 0.00999363 0)
(-0.00489784 0.00862335 0)
(-0.00450783 0.00724309 0)
(-0.00411373 0.00586253 0)
(4.80976e-08 -0.000196244 0)
(-5.72985e-07 -0.00058029 0)
(-1.64987e-06 -0.00095645 0)
(-2.77612e-06 -0.00132577 0)
(-3.62468e-06 -0.00168771 0)
(-3.4911e-06 -0.00204422 0)
(-2.22072e-06 -0.00239413 0)
(9.56657e-07 -0.00273985 0)
(6.02178e-06 -0.00307885 0)
(1.38676e-05 -0.0034143 0)
(2.42829e-05 -0.00374202 0)
(3.83033e-05 -0.00406636 0)
(5.54483e-05 -0.00438098 0)
(7.67492e-05 -0.00469199 0)
(0.000101509 -0.00498996 0)
(0.000131868 -0.00528353 0)
(0.000170126 -0.00555843 0)
(0.000218941 -0.00582911 0)
(0.000254325 -0.00608021 0)
(0.000177403 -0.00634978 0)
(-6.53587e-05 -0.00631812 0)
(-0.000391596 -0.00628227 0)
(-0.000759695 -0.00583693 0)
(-0.00160874 0.00070354 0)
(-0.00332046 -0.00341559 0)
(-0.00576324 -0.00647226 0)
(-0.00760431 0.0321777 0)
(-0.00768643 0.0275809 0)
(-0.00889861 0.0319211 0)
(-0.00931951 0.0261926 0)
(-0.00965153 0.0235186 0)
(-0.0096922 0.0214957 0)
(-0.00954823 0.019882 0)
(-0.00939278 0.018707 0)
(-0.00922345 0.0177389 0)
(-0.00900176 0.0169128 0)
(-0.0087253 0.0161361 0)
(-0.00839927 0.0153287 0)
(-0.0080303 0.0144559 0)
(-0.00762672 0.0134993 0)
(-0.00719581 0.0124555 0)
(-0.00674304 0.011327 0)
(-0.0062739 0.0101207 0)
(-0.00579277 0.0088499 0)
(-0.00530314 0.00752826 0)
(-0.00480719 0.00616389 0)
(-0.00430622 0.00476628 0)
(-0.00380227 0.00334251 0)
(-0.0032962 0.00189258 0)
(-0.00278886 0.000434989 0)
(-4.01274e-07 -0.000183284 0)
(-1.62508e-06 -0.000550387 0)
(-3.16918e-06 -0.000918071 0)
(-4.84404e-06 -0.00128635 0)
(-6.4222e-06 -0.00165501 0)
(-7.97866e-06 -0.00202449 0)
(-9.36963e-06 -0.00239437 0)
(-1.07724e-05 -0.00276551 0)
(-1.20479e-05 -0.00313655 0)
(-1.34146e-05 -0.0035092 0)
(-1.47703e-05 -0.00388036 0)
(-1.64712e-05 -0.00425339 0)
(-1.8536e-05 -0.00462213 0)
(-2.05853e-05 -0.00499274 0)
(-1.93729e-05 -0.00535351 0)
(-1.13602e-05 -0.00571618 0)
(-1.11921e-05 -0.00606537 0)
(-0.000103306 -0.00643378 0)
(-0.000359733 -0.00645537 0)
(-0.000743636 -0.0064714 0)
(-0.00134442 -0.00579617 0)
(-0.00314111 0.00289099 0)
(-0.00461526 -0.00228933 0)
(-0.00978097 0.03903 0)
(-0.00689281 0.0320936 0)
(-0.00996171 0.029765 0)
(-0.00989249 0.033958 0)
(-0.00937061 0.0309736 0)
(-0.00925397 0.0278131 0)
(-0.00898776 0.0245422 0)
(-0.00873021 0.0215975 0)
(-0.00846417 0.0191773 0)
(-0.0082257 0.0171134 0)
(-0.00797066 0.0153387 0)
(-0.00768517 0.0137622 0)
(-0.00736382 0.0123171 0)
(-0.00700417 0.0109501 0)
(-0.00660668 0.00962467 0)
(-0.00617431 0.00830846 0)
(-0.00571072 0.00698721 0)
(-0.00522088 0.00564797 0)
(-0.00470959 0.00428732 0)
(-0.00418208 0.00290503 0)
(-0.00364121 0.00149919 0)
(-0.00309097 7.88781e-05 0)
(-0.00253381 -0.00135488 0)
(-0.00196992 -0.00279583 0)
(-0.0014087 -0.00422359 0)
(-0.000844805 -0.00566168 0)
(-0.000281143 -0.00709256 0)
(6.96723e-07 -0.00019031 0)
(4.06945e-06 -0.000567616 0)
(9.19649e-06 -0.000941084 0)
(1.51443e-05 -0.00130995 0)
(2.08108e-05 -0.00167378 0)
(2.53973e-05 -0.00203214 0)
(2.78375e-05 -0.00238473 0)
(2.74384e-05 -0.00273146 0)
(2.30319e-05 -0.00307168 0)
(1.39233e-05 -0.00340588 0)
(-1.37646e-06 -0.00373245 0)
(-2.31182e-05 -0.00405298 0)
(-5.06231e-05 -0.0043637 0)
(-7.91557e-05 -0.00466794 0)
(-0.000115317 -0.00495918 0)
(-0.000215018 -0.00524862 0)
(-0.000501756 -0.00549819 0)
(-0.000870341 -0.00582967 0)
(-0.0011748 -0.00546188 0)
(-0.00253556 0.00471101 0)
(-0.00327327 0.00563284 0)
(-0.00454232 0.0572124 0)
(-0.00289295 0.0426904 0)
(-0.00329721 0.0360493 0)
(-0.00324215 0.0311501 0)
(-0.00284385 0.0275718 0)
(-0.00212884 0.0249624 0)
(-0.00141934 0.0229114 0)
(-0.000816172 0.0210672 0)
(-0.000324215 0.0193207 0)
(6.91591e-05 0.0175729 0)
(0.000392265 0.0158078 0)
(0.000672806 0.0140274 0)
(0.000931894 0.0122405 0)
(0.00118468 0.0104558 0)
(0.00144253 0.0086871 0)
(0.00170992 0.00694097 0)
(0.00199226 0.00521059 0)
(0.00229324 0.00348722 0)
(0.00261077 0.00179919 0)
(0.00294454 0.000144832 0)
(0.00329455 -0.00147569 0)
(0.00365541 -0.0030603 0)
(0.00402434 -0.00462381 0)
(0.00440187 -0.00616937 0)
(0.00478222 -0.00768492 0)
(0.00515968 -0.00915678 0)
(0.00553374 -0.0105989 0)
(0.00590447 -0.0120164 0)
(0.0062674 -0.013382 0)
(1.17345e-07 -0.000221008 0)
(5.29803e-07 -0.00063976 0)
(5.00901e-07 -0.00103579 0)
(-7.41716e-07 -0.00140932 0)
(-3.77136e-06 -0.00176073 0)
(-9.54025e-06 -0.00208993 0)
(-1.84462e-05 -0.00239732 0)
(-3.1585e-05 -0.00268234 0)
(-4.92646e-05 -0.00294554 0)
(-7.28908e-05 -0.00318571 0)
(-0.000102204 -0.00340382 0)
(-0.000136709 -0.00359748 0)
(-0.000172896 -0.00376832 0)
(-0.00021979 -0.00391287 0)
(-0.000328926 -0.00403778 0)
(-0.000576787 -0.00414576 0)
(-0.000902581 -0.00423962 0)
(-0.00118248 -0.00436009 0)
(-0.00224874 0.01053 0)
(-0.00124718 0.0246962 0)
(-0.00037231 0.0194144 0)
(-0.000775746 0.0212142 0)
(0.000642035 0.0190998 0)
(0.00194823 0.0171959 0)
(0.00299494 0.0160828 0)
(0.00385234 0.0154643 0)
(0.0045877 0.0150628 0)
(0.00525194 0.0147201 0)
(0.00586442 0.0142849 0)
(0.00643225 0.0136678 0)
(0.00696177 0.0128249 0)
(0.00745678 0.0117602 0)
(0.00791958 0.0104974 0)
(0.00835069 0.00909283 0)
(0.00875344 0.00753821 0)
(0.00913279 0.0058973 0)
(0.00949203 0.00419782 0)
(0.00983217 0.00245724 0)
(0.0101529 0.000699855 0)
(0.0104558 -0.0010465 0)
(0.0107402 -0.00277295 0)
(0.0110055 -0.00446227 0)
(0.0112539 -0.00610137 0)
(0.0114845 -0.00769079 0)
(0.0116964 -0.00922407 0)
(0.0118911 -0.0107112 0)
(0.0120699 -0.012128 0)
(0.0122319 -0.0134802 0)
(0.0123755 -0.0147577 0)
(0.0125003 -0.0159776 0)
(-4.61131e-07 -0.000199643 0)
(-4.31137e-06 -0.000576023 0)
(-1.20444e-05 -0.000929487 0)
(-2.35334e-05 -0.00126 0)
(-3.86549e-05 -0.00156743 0)
(-5.72802e-05 -0.00185172 0)
(-7.94222e-05 -0.00211264 0)
(-0.000105044 -0.00235005 0)
(-0.000134306 -0.00256357 0)
(-0.00016696 -0.00275301 0)
(-0.000201565 -0.00291772 0)
(-0.000234846 -0.00305733 0)
(-0.000270196 -0.00317083 0)
(-0.000346264 -0.0032583 0)
(-0.000534503 -0.00332107 0)
(-0.00079672 -0.00338587 0)
(-0.00106007 -0.00343123 0)
(-0.00167722 -0.00196165 0)
(-0.00136627 0.00418447 0)
(-0.000587978 0.00575649 0)
(0.000145666 0.00646244 0)
(0.000970539 0.00686538 0)
(0.00179485 0.00718696 0)
(0.0025508 0.00736243 0)
(0.00324472 0.00738687 0)
(0.00390924 0.00725679 0)
(0.00456477 0.00697636 0)
(0.00522077 0.00653766 0)
(0.00587894 0.00595628 0)
(0.00653434 0.00525606 0)
(0.00717843 0.0044408 0)
(0.00780731 0.00355351 0)
(0.00840867 0.00258357 0)
(0.00897167 0.00156921 0)
(0.00950544 0.000423636 0)
(0.0100073 -0.000780704 0)
(0.0104645 -0.00200909 0)
(0.0108799 -0.00324244 0)
(0.0112558 -0.00446521 0)
(0.0115924 -0.00567896 0)
(0.0118909 -0.00687066 0)
(0.0121523 -0.00804271 0)
(0.0123788 -0.00918312 0)
(0.0125731 -0.010293 0)
(0.012737 -0.0113682 0)
(0.0128724 -0.0124377 0)
(0.0129809 -0.0134763 0)
(0.0130653 -0.0144784 0)
(0.0131299 -0.0154176 0)
(0.013176 -0.016336 0)
(-2.78165e-07 -0.000172038 0)
(-3.35081e-06 -0.000495887 0)
(-9.6937e-06 -0.000799337 0)
(-1.92108e-05 -0.00108224 0)
(-3.16776e-05 -0.00134444 0)
(-4.69184e-05 -0.00158582 0)
(-6.47641e-05 -0.00180621 0)
(-8.51278e-05 -0.00200552 0)
(-0.000107949 -0.00218355 0)
(-0.000132918 -0.00234024 0)
(-0.000158288 -0.00247535 0)
(-0.000180642 -0.00258895 0)
(-0.000203303 -0.00268086 0)
(-0.000266252 -0.00275098 0)
(-0.000442001 -0.0027971 0)
(-0.000694666 -0.00281867 0)
(-0.000951665 -0.00283259 0)
(-0.0014386 -0.00206441 0)
(-0.000914924 -0.00127363 0)
(-0.000556031 -0.00102853 0)
(-0.000203504 -0.000782089 0)
(0.000179974 -0.000640264 0)
(0.000592188 -0.00059736 0)
(0.00102224 -0.000643861 0)
(0.00147455 -0.000764108 0)
(0.00193378 -0.00100848 0)
(0.00239663 -0.00127648 0)
(0.00286617 -0.00165135 0)
(0.00332628 -0.00208043 0)
(0.0037767 -0.00251295 0)
(0.00421876 -0.00298686 0)
(0.00464875 -0.00352726 0)
(0.0050709 -0.00411067 0)
(0.00548239 -0.00474458 0)
(0.0058749 -0.00535929 0)
(0.00624332 -0.00601411 0)
(0.00658804 -0.0067118 0)
(0.00690743 -0.00744086 0)
(0.00720458 -0.00819624 0)
(0.00748002 -0.00897875 0)
(0.0077347 -0.00977049 0)
(0.00797013 -0.0105733 0)
(0.00818737 -0.0113828 0)
(0.00838765 -0.0121932 0)
(0.00857253 -0.0129971 0)
(0.00874261 -0.0138034 0)
(0.00889832 -0.0146045 0)
(0.00903987 -0.0154058 0)
(0.00916894 -0.0161829 0)
(0.00928762 -0.0169489 0)
(-3.2424e-07 -0.00015673 0)
(-3.18683e-06 -0.00045084 0)
(-8.86219e-06 -0.000725617 0)
(-1.71839e-05 -0.000981089 0)
(-2.78745e-05 -0.00121724 0)
(-4.07516e-05 -0.0014341 0)
(-5.55829e-05 -0.00163162 0)
(-7.22591e-05 -0.00180983 0)
(-9.05846e-05 -0.00196864 0)
(-0.000110444 -0.00210808 0)
(-0.000131007 -0.00222802 0)
(-0.000150715 -0.00232863 0)
(-0.000169427 -0.00240986 0)
(-0.000201249 -0.00247147 0)
(-0.00027965 -0.00251059 0)
(-0.000422297 -0.00252311 0)
(-0.000635642 -0.00253717 0)
(-0.0010856 -0.00241073 0)
(-0.000792067 -0.00235728 0)
(-0.000662184 -0.00256442 0)
(-0.000578837 -0.00272497 0)
(-0.000475797 -0.00293557 0)
(-0.00034144 -0.00319064 0)
(-0.000181881 -0.00348623 0)
(-1.47727e-06 -0.0038012 0)
(0.000194715 -0.0041873 0)
(0.000405007 -0.004556 0)
(0.000628743 -0.00498822 0)
(0.000861285 -0.00546254 0)
(0.00110246 -0.00594745 0)
(0.0013539 -0.00647591 0)
(0.00161072 -0.00710339 0)
(0.00186857 -0.00776421 0)
(0.00212482 -0.00845558 0)
(0.00238286 -0.00906041 0)
(0.00264534 -0.00968451 0)
(0.00290834 -0.0103268 0)
(0.00316932 -0.0109851 0)
(0.00342703 -0.0116568 0)
(0.00368052 -0.0123397 0)
(0.00392892 -0.0130309 0)
(0.00417155 -0.0137274 0)
(0.00440782 -0.0144266 0)
(0.00463725 -0.0151256 0)
(0.0048595 -0.0158218 0)
(0.00507429 -0.0165126 0)
(0.00528134 -0.0171963 0)
(0.00548041 -0.0178719 0)
(0.00567133 -0.0185372 0)
(0.00585398 -0.01919 0)
(-2.7355e-07 -0.000134155 0)
(-2.58652e-06 -0.0003871 0)
(-7.10274e-06 -0.000624441 0)
(-1.36463e-05 -0.000845974 0)
(-2.19643e-05 -0.00105152 0)
(-3.18657e-05 -0.00124093 0)
(-4.31442e-05 -0.00141407 0)
(-5.56572e-05 -0.00157081 0)
(-6.92488e-05 -0.00171104 0)
(-8.38568e-05 -0.00183465 0)
(-9.90339e-05 -0.00194154 0)
(-0.000113358 -0.00203168 0)
(-0.000124696 -0.00210505 0)
(-0.000139012 -0.00216152 0)
(-0.000187894 -0.00220006 0)
(-0.000328041 -0.00222011 0)
(-0.000553876 -0.00222895 0)
(-0.000873711 -0.00223913 0)
(-0.00095828 -0.00248544 0)
(-0.000703084 -0.0028731 0)
(-0.000650663 -0.00333897 0)
(-0.000613661 -0.00385062 0)
(-0.00055643 -0.00439298 0)
(-0.000476924 -0.00495798 0)
(-0.000380466 -0.00553829 0)
(-0.000269525 -0.006132 0)
(-0.000145095 -0.00673776 0)
(-8.03177e-06 -0.0073538 0)
(0.000140432 -0.00797957 0)
(0.000299015 -0.00861404 0)
(0.000466137 -0.00925642 0)
(0.000639555 -0.00990605 0)
(0.000817103 -0.0105617 0)
(0.000997602 -0.0112221 0)
(0.00118114 -0.0118858 0)
(0.00136813 -0.0125518 0)
(0.00155819 -0.0132192 0)
(0.00175042 -0.0138865 0)
(0.00194382 -0.0145525 0)
(0.00213743 -0.0152157 0)
(0.0023304 -0.0158748 0)
(0.00252194 -0.0165282 0)
(0.00271134 -0.0171747 0)
(0.00289797 -0.0178129 0)
(0.00308124 -0.0184414 0)
(0.00326066 -0.0190589 0)
(0.00343577 -0.0196642 0)
(0.00360614 -0.0202562 0)
(0.00377137 -0.0208338 0)
(0.00393113 -0.0213961 0)
(-4.24009e-08 -0.000126247 0)
(-7.42129e-07 -0.000364316 0)
(-2.19035e-06 -0.000587888 0)
(-4.32356e-06 -0.000796894 0)
(-7.03729e-06 -0.000991256 0)
(-1.02191e-05 -0.00117089 0)
(-1.37752e-05 -0.00133574 0)
(-1.75935e-05 -0.00148569 0)
(-2.16063e-05 -0.00162069 0)
(-2.5745e-05 -0.00174064 0)
(-2.98664e-05 -0.0018455 0)
(-3.32436e-05 -0.00193519 0)
(-3.44687e-05 -0.00200978 0)
(-3.46489e-05 -0.00206927 0)
(-4.95504e-05 -0.00211307 0)
(-0.000107391 -0.00213902 0)
(-0.000207212 -0.00214296 0)
(-0.000435867 -0.00216017 0)
(-0.000779626 -0.00252833 0)
(-0.000464912 -0.00306762 0)
(-0.00045314 -0.00366175 0)
(-0.000453726 -0.00430164 0)
(-0.000436862 -0.00497167 0)
(-0.000402009 -0.00566337 0)
(-0.000355461 -0.00637071 0)
(-0.000299278 -0.0070893 0)
(-0.000233806 -0.00781584 0)
(-0.00015927 -0.00854776 0)
(-7.61083e-05 -0.009283 0)
(1.51033e-05 -0.0100198 0)
(0.000113728 -0.0107567 0)
(0.000219094 -0.011492 0)
(0.000330516 -0.0122245 0)
(0.000447309 -0.0129527 0)
(0.000568804 -0.0136753 0)
(0.000694342 -0.0143911 0)
(0.000823278 -0.0150988 0)
(0.000954976 -0.0157976 0)
(0.00108882 -0.0164861 0)
(0.00122421 -0.0171635 0)
(0.00136057 -0.0178285 0)
(0.00149735 -0.0184803 0)
(0.00163401 -0.0191177 0)
(0.00177004 -0.0197399 0)
(0.00190495 -0.0203458 0)
(0.00203827 -0.0209345 0)
(0.00216955 -0.0215052 0)
(0.00229837 -0.0220572 0)
(0.00242431 -0.0225897 0)
(0.00254699 -0.023102 0)
(-8.04521e-08 -0.000123026 0)
(-2.94331e-07 -0.00035595 0)
(-5.1119e-07 -0.000575583 0)
(-6.79834e-07 -0.000781774 0)
(-6.59026e-07 -0.000974339 0)
(-4.5491e-07 -0.00115323 0)
(1.04574e-07 -0.00131835 0)
(9.90235e-07 -0.0014697 0)
(2.40836e-06 -0.00160715 0)
(4.2416e-06 -0.0017307 0)
(6.67174e-06 -0.00184022 0)
(9.73812e-06 -0.00193574 0)
(1.48814e-05 -0.00201718 0)
(2.39152e-05 -0.00208466 0)
(3.28878e-05 -0.0021379 0)
(1.49485e-05 -0.0021756 0)
(-9.59537e-05 -0.00219646 0)
(-0.00032253 -0.00220482 0)
(-0.000611553 -0.00198821 0)
(-0.000657202 -0.00273633 0)
(-0.00047672 -0.00352378 0)
(-0.000399027 -0.00432702 0)
(-0.000349464 -0.00515013 0)
(-0.000308916 -0.00598042 0)
(-0.000273123 -0.00681581 0)
(-0.000239682 -0.00765451 0)
(-0.000205838 -0.00849429 0)
(-0.000169285 -0.00933254 0)
(-0.000128543 -0.0101667 0)
(-8.2823e-05 -0.0109946 0)
(-3.18005e-05 -0.0118142 0)
(2.45602e-05 -0.012624 0)
(8.6118e-05 -0.0134226 0)
(0.000152626 -0.014209 0)
(0.000223774 -0.0149821 0)
(0.000299212 -0.0157412 0)
(0.000378558 -0.0164853 0)
(0.000461408 -0.0172138 0)
(0.00054734 -0.0179257 0)
(0.000635914 -0.0186201 0)
(0.000726678 -0.0192962 0)
(0.00081917 -0.0199532 0)
(0.000912922 -0.0205901 0)
(0.00100746 -0.0212062 0)
(0.00110232 -0.0218005 0)
(0.00119703 -0.0223724 0)
(0.00129114 -0.0229212 0)
(0.00138418 -0.0234462 0)
(0.00147572 -0.0239469 0)
(0.00156534 -0.0244229 0)
(2.04386e-07 -0.000124732 0)
(1.99525e-06 -0.000362108 0)
(5.54308e-06 -0.000586857 0)
(1.0804e-05 -0.000798749 0)
(1.75544e-05 -0.000997744 0)
(2.58627e-05 -0.0011839 0)
(3.54635e-05 -0.00135722 0)
(4.65682e-05 -0.00151767 0)
(5.88063e-05 -0.00166516 0)
(7.25071e-05 -0.0017997 0)
(8.71656e-05 -0.00192116 0)
(0.000103189 -0.00202962 0)
(0.000120177 -0.00212492 0)
(0.000139439 -0.00220742 0)
(0.000160909 -0.00227789 0)
(0.000181959 -0.00233658 0)
(0.000185439 -0.00238281 0)
(0.00013769 -0.0024174 0)
(-5.76371e-05 -0.0024389 0)
(-0.000206887 -0.00321659 0)
(-1.78167e-05 -0.00590585 0)
(1.80128e-05 -0.00593134 0)
(-4.38607e-05 -0.00621426 0)
(-5.19638e-05 -0.00665672 0)
(-5.58082e-05 -0.00723782 0)
(-5.77373e-05 -0.00792604 0)
(-5.76969e-05 -0.00869159 0)
(-5.50129e-05 -0.00950853 0)
(-4.94762e-05 -0.0103563 0)
(-4.09451e-05 -0.0112197 0)
(-2.9168e-05 -0.012088 0)
(-1.38056e-05 -0.0129538 0)
(5.49315e-06 -0.0138121 0)
(2.90313e-05 -0.0146594 0)
(5.70257e-05 -0.015493 0)
(8.95838e-05 -0.0163108 0)
(0.000126698 -0.017111 0)
(0.000168252 -0.0178919 0)
(0.000214028 -0.018652 0)
(0.000263722 -0.0193898 0)
(0.000316961 -0.020104 0)
(0.000373317 -0.0207933 0)
(0.000432319 -0.0214566 0)
(0.000493469 -0.0220929 0)
(0.000556251 -0.0227012 0)
(0.00062014 -0.0232808 0)
(0.000684612 -0.023831 0)
(0.000749148 -0.0243513 0)
(0.000813243 -0.0248413 0)
(0.000876406 -0.0253008 0)
(4.42336e-07 -0.000147081 0)
(3.93375e-06 -0.000424741 0)
(1.08257e-05 -0.000686179 0)
(2.08118e-05 -0.000931857 0)
(3.37159e-05 -0.00116215 0)
(4.9151e-05 -0.00137714 0)
(6.70938e-05 -0.00157701 0)
(8.71345e-05 -0.00176171 0)
(0.000109307 -0.00193141 0)
(0.000133131 -0.00208603 0)
(0.000158928 -0.00222579 0)
(0.000185687 -0.00235054 0)
(0.000214715 -0.0024605 0)
(0.000242832 -0.00255527 0)
(0.000271859 -0.0026353 0)
(0.00030486 -0.00270024 0)
(0.000347612 -0.0027505 0)
(0.000398617 -0.00278701 0)
(0.000410444 -0.00281469 0)
(0.000276546 -0.00284427 0)
(0.000178043 -0.00309488 0)
(-2.62077e-05 -0.00401807 0)
(-3.95822e-05 -0.00489867 0)
(-0.000124733 -0.0057884 0)
(-0.000223122 -0.00670422 0)
(-0.000298953 -0.00762153 0)
(-0.000354525 -0.00853541 0)
(-0.000395264 -0.00944581 0)
(-0.000424371 -0.0103538 0)
(-0.00044351 -0.0112606 0)
(-0.000453714 -0.0121669 0)
(-0.000455743 -0.0130718 0)
(-0.000450186 -0.0139735 0)
(-0.00043752 -0.0148692 0)
(-0.000418173 -0.0157556 0)
(-0.00039256 -0.016629 0)
(-0.000361114 -0.0174858 0)
(-0.000324296 -0.0183226 0)
(-0.000282598 -0.0191362 0)
(-0.000236543 -0.0199239 0)
(-0.000186682 -0.0206831 0)
(-0.000133585 -0.0214119 0)
(-7.78339e-05 -0.0221084 0)
(-2.00186e-05 -0.0227714 0)
(3.92737e-05 -0.0233996 0)
(9.94627e-05 -0.0239923 0)
(0.000159983 -0.0245487 0)
(0.000220289 -0.0250686 0)
(0.00027986 -0.0255518 0)
(0.0003382 -0.0259981 0)
(2.53722e-07 -0.00016995 0)
(3.41045e-06 -0.000491484 0)
(9.83906e-06 -0.00079476 0)
(1.95229e-05 -0.00107988 0)
(3.19848e-05 -0.00134687 0)
(4.71612e-05 -0.0015958 0)
(6.45868e-05 -0.0018267 0)
(8.43288e-05 -0.0020398 0)
(0.000105867 -0.00223516 0)
(0.0001293 -0.00241299 0)
(0.000154157 -0.00257325 0)
(0.000180391 -0.00271617 0)
(0.000207552 -0.00284159 0)
(0.000236064 -0.00294988 0)
(0.000263729 -0.00304064 0)
(0.000293234 -0.00311437 0)
(0.000320135 -0.00317018 0)
(0.000359857 -0.00320934 0)
(0.000420535 -0.00322894 0)
(0.000408154 -0.00323006 0)
(0.000245778 -0.00321602 0)
(0.000136368 -0.00323701 0)
(7.29702e-05 -0.00339478 0)
(2.45363e-05 -0.00397829 0)
(-7.42246e-05 -0.00511641 0)
(-0.000198113 -0.00628005 0)
(-0.000303473 -0.00743753 0)
(-0.000392838 -0.00858111 0)
(-0.000466327 -0.00970625 0)
(-0.000524723 -0.0108119 0)
(-0.000568404 -0.0118977 0)
(-0.000597954 -0.0129634 0)
(-0.000614256 -0.0140079 0)
(-0.000618385 -0.0150299 0)
(-0.0006115 -0.0160274 0)
(-0.000594782 -0.0169983 0)
(-0.000569391 -0.0179401 0)
(-0.000536449 -0.0188507 0)
(-0.000497025 -0.0197275 0)
(-0.000452132 -0.0205685 0)
(-0.000402725 -0.0213718 0)
(-0.000349704 -0.0221357 0)
(-0.000293912 -0.0228588 0)
(-0.000236142 -0.0235401 0)
(-0.000177134 -0.0241788 0)
(-0.000117579 -0.0247744 0)
(-5.81158e-05 -0.0253267 0)
(6.63921e-07 -0.0258357 0)
(5.82194e-05 -0.0263017 0)
(0.000114059 -0.0267251 0)
(3.68081e-07 -0.000192856 0)
(2.62944e-06 -0.000556157 0)
(6.94421e-06 -0.00089749 0)
(1.30408e-05 -0.00121718 0)
(2.09331e-05 -0.00151568 0)
(3.0349e-05 -0.0017932 0)
(4.14301e-05 -0.00205012 0)
(5.38381e-05 -0.00228646 0)
(6.77975e-05 -0.00250267 0)
(8.28516e-05 -0.00269831 0)
(9.93617e-05 -0.00287394 0)
(0.000116679 -0.00302834 0)
(0.000135407 -0.00316246 0)
(0.000154529 -0.00327362 0)
(0.000174667 -0.00336384 0)
(0.000195132 -0.00342752 0)
(0.000217702 -0.00346914 0)
(0.000246165 -0.00347708 0)
(0.0002717 -0.00346172 0)
(0.000249737 -0.00339928 0)
(0.000111807 -0.00329706 0)
(-9.77814e-05 -0.00329302 0)
(-0.00017694 -0.00332514 0)
(-0.000179013 -0.00343919 0)
(-0.000100167 -0.00389776 0)
(-0.000159626 -0.00505316 0)
(-0.000270681 -0.00627199 0)
(-0.00036042 -0.00753314 0)
(-0.000430759 -0.00880552 0)
(-0.000485824 -0.010076 0)
(-0.000526672 -0.0113348 0)
(-0.000553273 -0.0125735 0)
(-0.000566038 -0.0137852 0)
(-0.00056591 -0.0149639 0)
(-0.000554114 -0.0161049 0)
(-0.000531993 -0.0172044 0)
(-0.000500916 -0.0182595 0)
(-0.000462231 -0.0192676 0)
(-0.00041723 -0.020227 0)
(-0.000367129 -0.0211363 0)
(-0.00031306 -0.0219943 0)
(-0.000256067 -0.0228005 0)
(-0.000197106 -0.0235542 0)
(-0.000137049 -0.0242554 0)
(-7.66829e-05 -0.0249043 0)
(-1.67183e-05 -0.0255011 0)
(4.22118e-05 -0.0260465 0)
(9.95469e-05 -0.0265414 0)
(0.000154796 -0.0269867 0)
(0.000207534 -0.0273837 0)
(-1.92314e-07 -0.000195655 0)
(-6.30605e-07 -0.000565498 0)
(-9.48994e-07 -0.000914504 0)
(-9.08211e-07 -0.00124306 0)
(-3.5662e-07 -0.00155167 0)
(8.98853e-07 -0.00184006 0)
(2.89124e-06 -0.00210871 0)
(5.84057e-06 -0.00235709 0)
(9.70405e-06 -0.00258606 0)
(1.4754e-05 -0.00279465 0)
(2.08812e-05 -0.00298421 0)
(2.84786e-05 -0.00315294 0)
(3.73604e-05 -0.00330304 0)
(4.81288e-05 -0.00343122 0)
(6.04484e-05 -0.00354122 0)
(7.5017e-05 -0.00362696 0)
(9.1787e-05 -0.00369516 0)
(0.000113308 -0.00373437 0)
(0.000143651 -0.00375733 0)
(0.000181094 -0.00374082 0)
(0.000186382 -0.00370395 0)
(6.41753e-05 -0.00374282 0)
(-0.000118092 -0.00380079 0)
(-0.000180685 -0.00383135 0)
(-0.000163113 -0.00385692 0)
(-8.49114e-05 -0.00397032 0)
(-0.000108097 -0.00514653 0)
(-0.000230652 -0.00656474 0)
(-0.00030085 -0.00803801 0)
(-0.0003448 -0.00951533 0)
(-0.000371431 -0.0109759 0)
(-0.000383567 -0.0124051 0)
(-0.000382011 -0.0137916 0)
(-0.000367972 -0.0151268 0)
(-0.000343037 -0.0164048 0)
(-0.000308866 -0.0176217 0)
(-0.000267057 -0.018775 0)
(-0.000219111 -0.0198633 0)
(-0.000166425 -0.0208862 0)
(-0.000110284 -0.0218434 0)
(-5.18582e-05 -0.0227354 0)
(7.79529e-06 -0.0235626 0)
(6.77349e-05 -0.0243259 0)
(0.000127129 -0.0250264 0)
(0.000185252 -0.0256654 0)
(0.000241479 -0.0262443 0)
(0.000295282 -0.0267648 0)
(0.000346221 -0.0272287 0)
(0.000393937 -0.0276379 0)
(0.000438149 -0.0279947 0)
(5.34497e-08 -0.000191198 0)
(3.26705e-07 -0.000556676 0)
(9.41015e-07 -0.000904984 0)
(2.04494e-06 -0.00123589 0)
(3.70842e-06 -0.00154933 0)
(6.12325e-06 -0.00184501 0)
(9.32379e-06 -0.002123 0)
(1.35409e-05 -0.00238299 0)
(1.8749e-05 -0.00262531 0)
(2.52305e-05 -0.0028497 0)
(3.28861e-05 -0.00305678 0)
(4.20957e-05 -0.00324624 0)
(5.26505e-05 -0.0034191 0)
(6.50855e-05 -0.00357491 0)
(7.91317e-05 -0.00371524 0)
(9.52839e-05 -0.00383938 0)
(0.000113564 -0.00394976 0)
(0.000134077 -0.00404517 0)
(0.000158151 -0.00412942 0)
(0.000187001 -0.0042007 0)
(0.000217675 -0.00426327 0)
(0.000248893 -0.00431207 0)
(0.000262 -0.00435391 0)
(0.00022275 -0.00437861 0)
(0.000128823 -0.00439191 0)
(8.28116e-05 -0.00440267 0)
(0.000118861 -0.00447301 0)
(0.000138523 -0.00587895 0)
(6.61099e-05 -0.0075368 0)
(4.94258e-05 -0.00921896 0)
(4.60505e-05 -0.0108737 0)
(5.47482e-05 -0.0124779 0)
(7.37539e-05 -0.014018 0)
(0.000101725 -0.0154853 0)
(0.000137163 -0.0168743 0)
(0.000178549 -0.018182 0)
(0.000224433 -0.0194069 0)
(0.000273475 -0.0205491 0)
(0.000324453 -0.0216092 0)
(0.000376258 -0.0225887 0)
(0.000427903 -0.0234894 0)
(0.000478526 -0.0243133 0)
(0.000527385 -0.0250628 0)
(0.000573861 -0.0257405 0)
(0.000617446 -0.026349 0)
(0.00065774 -0.0268912 0)
(0.000694435 -0.02737 0)
(0.000727314 -0.0277883 0)
(0.000756232 -0.0281491 0)
(0.000781114 -0.0284555 0)
(2.89217e-08 -0.000195633 0)
(9.50301e-07 -0.000570737 0)
(2.98852e-06 -0.000929351 0)
(6.2001e-06 -0.00127118 0)
(1.05658e-05 -0.00159605 0)
(1.60748e-05 -0.00190395 0)
(2.27506e-05 -0.00219483 0)
(3.06021e-05 -0.00246871 0)
(3.96673e-05 -0.00272553 0)
(4.99486e-05 -0.00296539 0)
(6.14895e-05 -0.00318826 0)
(7.42579e-05 -0.00339433 0)
(8.83075e-05 -0.00358359 0)
(0.000103551 -0.00375636 0)
(0.000120026 -0.00391261 0)
(0.000137631 -0.00405278 0)
(0.000156252 -0.00417683 0)
(0.000175834 -0.0042853 0)
(0.000196199 -0.00437808 0)
(0.000216966 -0.00445591 0)
(0.00023897 -0.00451879 0)
(0.000259885 -0.00456759 0)
(0.000284862 -0.00460195 0)
(0.000312285 -0.0046213 0)
(0.000306222 -0.00462787 0)
(0.000230638 -0.00463622 0)
(0.000178622 -0.0046468 0)
(0.000187781 -0.00543778 0)
(0.000223473 -0.0072987 0)
(0.000238879 -0.0091541 0)
(0.000264295 -0.010955 0)
(0.000299716 -0.0126802 0)
(0.000342461 -0.0143186 0)
(0.000389367 -0.0158638 0)
(0.00043833 -0.0173122 0)
(0.000487871 -0.0186623 0)
(0.000536804 -0.0199139 0)
(0.000584157 -0.0210685 0)
(0.00062914 -0.0221282 0)
(0.000671132 -0.0230959 0)
(0.000709654 -0.023975 0)
(0.00074435 -0.0247692 0)
(0.000774963 -0.0254824 0)
(0.000801327 -0.0261185 0)
(0.000823347 -0.0266817 0)
(0.000840991 -0.0271758 0)
(0.000854278 -0.0276049 0)
(0.000863276 -0.0279727 0)
(0.000868087 -0.0282832 0)
(0.000868849 -0.0285398 0)
(-0.00662289 0.0120077 0)
(-0.00637937 0.0108561 0)
(-0.0061258 0.00969257 0)
(-0.00586448 0.00852203 0)
(-0.00559653 0.00735033 0)
(-0.00532237 0.0061827 0)
(-0.00504196 0.00502186 0)
(-0.00475509 0.00387053 0)
(-0.00446159 0.00273132 0)
(-0.00416129 0.00160551 0)
(-0.00385392 0.000493431 0)
(-0.00353921 -0.000602645 0)
(-0.00321697 -0.00168143 0)
(-0.00288779 -0.00274374 0)
(-0.0025518 -0.00378957 0)
(-0.00220886 -0.00481727 0)
(-0.00185907 -0.00582773 0)
(-0.00150257 -0.00682055 0)
(-0.00113958 -0.0077941 0)
(-0.000770443 -0.0087474 0)
(-0.000395535 -0.00967963 0)
(-1.52736e-05 -0.0105901 0)
(0.000369899 -0.011478 0)
(0.000759516 -0.0123426 0)
(0.0011531 -0.0131832 0)
(0.00155016 -0.0139991 0)
(0.0019502 -0.0147897 0)
(0.00235274 -0.0155545 0)
(0.0027573 -0.016293 0)
(0.0031634 -0.0170048 0)
(0.0035706 -0.0176894 0)
(0.00397848 -0.0183467 0)
(0.00438663 -0.0189764 0)
(0.00479469 -0.0195784 0)
(0.00520233 -0.0201526 0)
(0.00560924 -0.0206991 0)
(0.00601515 -0.0212179 0)
(0.00641981 -0.0217094 0)
(0.00682304 -0.0221736 0)
(0.00722464 -0.0226112 0)
(0.00762447 -0.0230223 0)
(0.0080224 -0.0234076 0)
(0.00841831 -0.0237677 0)
(0.00881208 -0.0241036 0)
(0.00920357 -0.0244159 0)
(0.00959264 -0.0247058 0)
(0.00997908 -0.0249745 0)
(0.0103626 -0.0252238 0)
(0.0107445 -0.0254582 0)
(0.011121 -0.0256897 0)
(-0.00517478 0.00891007 0)
(-0.00486855 0.00758513 0)
(-0.00455401 0.00627072 0)
(-0.00423181 0.00496571 0)
(-0.00390221 0.00367188 0)
(-0.0035651 0.00238992 0)
(-0.00321972 0.0011154 0)
(-0.00286548 -0.000146073 0)
(-0.00250276 -0.00138649 0)
(-0.0021324 -0.00261024 0)
(-0.00175431 -0.00382209 0)
(-0.00136852 -0.00501499 0)