/*--------------------------------*- C++ -*----------------------------------*\
| =========                 |                                                 |
| \\      /  F ield         | OpenFOAM: The Open Source CFD Toolbox           |
|  \\    /   O peration     | Version:  2.4.0                                 |
|   \\  /    A nd           | Web:      www.OpenFOAM.org                      |
|    \\/     M anipulation  |                                                 |
\*---------------------------------------------------------------------------*/
FoamFile
{
    version     2.0;
    format      ascii;
    class       surfaceScalarField;
    location    "1.7";
    object      phi;
}
// * * * * * * * * * * * * * * * * * * * * * * * * * * * * * * * * * * * * * //

dimensions      [0 3 -1 0 0 0 0];

internalField   nonuniform List<scalar> 
15580
(
-6.57699e-14
-2.00166e-12
-2.18672e-13
-5.87449e-12
-4.38092e-13
-9.60804e-12
-7.15526e-13
-1.31981e-11
-1.04354e-12
-1.6645e-11
-1.41564e-12
-1.99487e-11
-1.8261e-12
-2.31094e-11
-2.26992e-12
-2.61274e-11
-2.74265e-12
-2.90026e-11
-3.2403e-12
-3.17352e-11
-3.75929e-12
-3.43254e-11
-4.29634e-12
-3.67732e-11
-4.8484e-12
-3.90786e-11
-5.41261e-12
-4.12419e-11
-5.98619e-12
-4.32631e-11
-6.56641e-12
-4.51422e-11
-7.15054e-12
-4.68792e-11
-7.73576e-12
-4.84743e-11
-8.3191e-12
-4.99275e-11
-8.8974e-12
-5.12387e-11
-9.46719e-12
-5.24081e-11
-1.00247e-11
-5.34357e-11
-1.05656e-11
-5.43214e-11
-1.10855e-11
-5.50653e-11
-1.15795e-11
-5.56669e-11
-1.20409e-11
-5.61255e-11
-1.24553e-11
-5.64426e-11
-1.50793e-11
-5.66285e-11
-3.92559e-11
-5.67372e-11
-3.95413e-11
-5.67189e-11
-3.98172e-11
-5.66993e-11
-4.04016e-11
-5.63985e-11
-4.09471e-11
-5.61617e-11
-4.14646e-11
-5.58918e-11
-4.19869e-11
-5.56099e-11
-4.25222e-11
-5.5328e-11
-4.30676e-11
-5.5049e-11
-4.36197e-11
-5.47721e-11
-4.41759e-11
-5.44962e-11
-4.47347e-11
-5.42207e-11
-4.52946e-11
-5.3945e-11
-4.58546e-11
-5.36687e-11
-4.64138e-11
-5.33914e-11
-4.69714e-11
-5.31131e-11
-4.7527e-11
-5.28335e-11
-4.80799e-11
-5.25525e-11
-4.86298e-11
-5.227e-11
-4.91764e-11
-5.19859e-11
-4.97194e-11
-5.17002e-11
-5.14127e-11
-5.02586e-11
-2.78914e-14
-1.97377e-12
-1.22111e-13
-5.78027e-12
-2.81546e-13
-9.44861e-12
-4.99789e-13
-1.29799e-11
-7.71128e-13
-1.63736e-11
-1.09044e-12
-1.96294e-11
-1.45308e-12
-2.27468e-11
-1.85487e-12
-2.57256e-11
-2.29197e-12
-2.85655e-11
-2.76086e-12
-3.12663e-11
-3.25829e-12
-3.38279e-11
-3.78121e-12
-3.62502e-11
-4.32671e-12
-3.85331e-11
-4.89204e-12
-4.06766e-11
-5.47445e-12
-4.26807e-11
-6.07126e-12
-4.45453e-11
-6.67971e-12
-4.62708e-11
-7.29699e-12
-4.7857e-11
-7.92013e-12
-4.93043e-11
-8.54597e-12
-5.06129e-11
-9.17105e-12
-5.1783e-11
-9.79164e-12
-5.28151e-11
-1.04036e-11
-5.37095e-11
-1.10022e-11
-5.44666e-11
-1.15819e-11
-5.50872e-11
-1.21352e-11
-5.55722e-11
-1.26534e-11
-5.59245e-11
-1.81549e-11
-5.61471e-11
-4.0711e-11
-5.62536e-11
-4.11581e-11
-5.62717e-11
-4.16723e-11
-5.61851e-11
-4.21697e-11
-5.59011e-11
-4.27136e-11
-5.56177e-11
-4.32697e-11
-5.53357e-11
-4.38266e-11
-5.50531e-11
-4.43847e-11
-5.47699e-11
-4.49463e-11
-5.44874e-11
-4.55121e-11
-5.42062e-11
-4.60821e-11
-5.39263e-11
-4.66557e-11
-5.36471e-11
-4.72324e-11
-5.33682e-11
-4.78117e-11
-5.30894e-11
-4.83929e-11
-5.28103e-11
-4.89754e-11
-5.25306e-11
-4.95587e-11
-5.22502e-11
-5.01423e-11
-5.1969e-11
-5.07256e-11
-5.16867e-11
-5.13082e-11
-5.14033e-11
-5.18898e-11
-5.11186e-11
-5.08325e-11
-5.247e-11
-7.56739e-15
-1.9662e-12
-2.50844e-14
-5.76275e-12
-5.24809e-14
-9.42121e-12
-9.19151e-14
-1.29405e-11
-1.45087e-13
-1.63205e-11
-2.13333e-13
-1.95611e-11
-2.9772e-13
-2.26624e-11
-3.99096e-13
-2.56242e-11
-5.18174e-13
-2.84464e-11
-6.55555e-13
-3.11289e-11
-8.11831e-13
-3.36717e-11
-9.87574e-13
-3.60745e-11
-1.18346e-12
-3.83372e-11
-1.40024e-12
-4.04598e-11
-1.63887e-12
-4.2442e-11
-1.90047e-12
-4.42837e-11
-2.18653e-12
-4.59847e-11
-2.49876e-12
-4.75448e-11
-2.83945e-12
-4.89636e-11
-3.21114e-12
-5.02412e-11
-3.61726e-12
-5.13769e-11
-4.06152e-12
-5.23708e-11
-4.54886e-12
-5.32222e-11
-5.08476e-12
-5.39307e-11
-5.67682e-12
-5.44951e-11
-6.33322e-12
-5.49158e-11
-7.06095e-12
-5.51967e-11
-1.21235e-11
-5.53544e-11
-3.52427e-11
-5.54181e-11
-3.61447e-11
-5.53697e-11
-3.7097e-11
-5.52328e-11
-3.80143e-11
-5.49838e-11
-3.89107e-11
-5.47214e-11
-3.97908e-11
-5.44555e-11
-4.06544e-11
-5.41895e-11
-4.15e-11
-5.39243e-11
-4.23273e-11
-5.36601e-11
-4.31367e-11
-5.33968e-11
-4.39291e-11
-5.31339e-11
-4.47053e-11
-5.28709e-11
-4.54663e-11
-5.26073e-11
-4.62129e-11
-5.23428e-11
-4.69461e-11
-5.20771e-11
-4.76667e-11
-5.181e-11
-4.83755e-11
-5.15414e-11
-4.90732e-11
-5.12712e-11
-4.97605e-11
-5.09994e-11
-5.0438e-11
-5.07257e-11
-5.11063e-11
-5.04503e-11
-5.0173e-11
-5.17658e-11
-1.08848e-15
-1.96512e-12
-1.15004e-14
-5.75234e-12
-3.42397e-14
-9.39847e-12
-7.02099e-14
-1.29045e-11
-1.20174e-13
-1.62705e-11
-1.8477e-13
-1.94965e-11
-2.64535e-13
-2.25826e-11
-3.59921e-13
-2.55288e-11
-4.71319e-13
-2.8335e-11
-5.99078e-13
-3.10012e-11
-7.43523e-13
-3.35272e-11
-9.0498e-13
-3.5913e-11
-1.08379e-12
-3.81584e-11
-1.28035e-12
-4.02633e-11
-1.4951e-12
-4.22273e-11
-1.72858e-12
-4.40503e-11
-1.98145e-12
-4.57318e-11
-2.25452e-12
-4.72717e-11
-2.54877e-12
-4.86694e-11
-2.86542e-12
-4.99245e-11
-3.20595e-12
-5.10364e-11
-3.57219e-12
-5.20046e-11
-3.96602e-12
-5.28283e-11
-4.38911e-12
-5.35077e-11
-4.84378e-12
-5.40405e-11
-5.33959e-12
-5.442e-11
-5.90469e-12
-5.46316e-11
-1.70917e-11
-5.46786e-11
-3.43809e-11
-5.47687e-11
-3.5044e-11
-5.47066e-11
-3.58775e-11
-5.43994e-11
-3.67404e-11
-5.41208e-11
-3.76116e-11
-5.38502e-11
-3.84766e-11
-5.35905e-11
-3.93312e-11
-5.3335e-11
-4.01747e-11
-5.30808e-11
-4.10073e-11
-5.28275e-11
-4.18294e-11
-5.25747e-11
-4.26413e-11
-5.2322e-11
-4.34436e-11
-5.20686e-11
-4.42368e-11
-5.18141e-11
-4.50214e-11
-5.15582e-11
-4.57978e-11
-5.13006e-11
-4.65665e-11
-5.10413e-11
-4.73278e-11
-5.07801e-11
-4.80819e-11
-5.05171e-11
-4.88291e-11
-5.02522e-11
-4.95696e-11
-4.99853e-11
-5.03034e-11
-4.97164e-11
-4.94456e-11
-5.10308e-11
-1.69571e-14
-1.94816e-12
-6.31559e-14
-5.70614e-12
-1.35912e-13
-9.32571e-12
-2.33618e-13
-1.28068e-11
-3.54807e-13
-1.61493e-11
-4.98143e-13
-1.93532e-11
-6.62333e-13
-2.24184e-11
-8.46151e-13
-2.5345e-11
-1.04831e-12
-2.81329e-11
-1.26754e-12
-3.0782e-11
-1.50239e-12
-3.32924e-11
-1.7514e-12
-3.5664e-11
-2.01277e-12
-3.78971e-11
-2.28466e-12
-3.99914e-11
-2.56474e-12
-4.19472e-11
-2.85055e-12
-4.37644e-11
-3.13897e-12
-4.54434e-11
-3.42671e-12
-4.6984e-11
-3.70949e-12
-4.83866e-11
-3.98282e-12
-4.96512e-11
-4.24078e-12
-5.07784e-11
-4.47729e-12
-5.17681e-11
-4.68467e-12
-5.26209e-11
-4.85615e-12
-5.33362e-11
-4.98116e-12
-5.39154e-11
-5.03796e-12
-5.43632e-11
-4.97433e-12
-5.46953e-11
-5.97338e-11
-5.49331e-11
-6.00471e-11
-5.48999e-11
-5.98513e-11
-5.49024e-11
-5.95702e-11
-5.46805e-11
-5.92268e-11
-5.44642e-11
-5.88644e-11
-5.42126e-11
-5.85182e-11
-5.39367e-11
-5.82038e-11
-5.36493e-11
-5.79277e-11
-5.33569e-11
-5.76933e-11
-5.30619e-11
-5.75028e-11
-5.27652e-11
-5.73573e-11
-5.24675e-11
-5.72565e-11
-5.21694e-11
-5.71996e-11
-5.18709e-11
-5.71853e-11
-5.15725e-11
-5.72118e-11
-5.12741e-11
-5.72771e-11
-5.0976e-11
-5.73791e-11
-5.06782e-11
-5.75156e-11
-5.03806e-11
-5.76845e-11
-5.00833e-11
-5.78836e-11
-4.97862e-11
-5.81109e-11
-4.94892e-11
-4.91922e-11
-5.83643e-11
-2.16109e-14
-1.92655e-12
-8.14959e-14
-5.64625e-12
-1.76438e-13
-9.23077e-12
-3.04183e-13
-1.2679e-11
-4.62742e-13
-1.59907e-11
-6.50338e-13
-1.91656e-11
-8.65386e-13
-2.22034e-11
-1.10644e-12
-2.51039e-11
-1.3722e-12
-2.78671e-11
-1.66141e-12
-3.04927e-11
-1.97293e-12
-3.29808e-11
-2.30563e-12
-3.53313e-11
-2.65839e-12
-3.75443e-11
-3.03008e-12
-3.96197e-11
-3.41956e-12
-4.15577e-11
-3.82557e-12
-4.33584e-11
-4.24685e-12
-4.50221e-11
-4.68196e-12
-4.65489e-11
-5.12941e-12
-4.79392e-11
-5.58745e-12
-4.91932e-11
-6.05436e-12
-5.03115e-11
-6.52803e-12
-5.12944e-11
-7.00617e-12
-5.21428e-11
-7.48542e-12
-5.28569e-11
-7.96229e-12
-5.34386e-11
-8.4375e-12
-5.3888e-11
-9.40025e-12
-5.42046e-11
-4.00826e-11
-5.43956e-11
-4.05389e-11
-5.44436e-11
-4.09616e-11
-5.44797e-11
-4.15046e-11
-5.41374e-11
-4.20743e-11
-5.38946e-11
-4.26524e-11
-5.36345e-11
-4.32298e-11
-5.33594e-11
-4.38066e-11
-5.30725e-11
-4.43846e-11
-5.27789e-11
-4.4965e-11
-5.24814e-11
-4.55488e-11
-5.21815e-11
-4.61363e-11
-5.188e-11
-4.67282e-11
-5.15775e-11
-4.73245e-11
-5.12746e-11
-4.79256e-11
-5.09714e-11
-4.85314e-11
-5.06683e-11
-4.91418e-11
-5.03656e-11
-4.97567e-11
-5.00632e-11
-5.03759e-11
-4.97614e-11
-5.09991e-11
-4.94601e-11
-5.1626e-11
-4.91593e-11
-5.22561e-11
-4.8859e-11
-4.8559e-11
-5.28893e-11
6.48811e-16
-1.9272e-12
-3.07436e-15
-5.64253e-12
-1.42851e-14
-9.21956e-12
-3.47487e-14
-1.26586e-11
-6.60468e-14
-1.59594e-11
-1.09595e-13
-1.91221e-11
-1.66703e-13
-2.21463e-11
-2.38571e-13
-2.50321e-11
-3.26362e-13
-2.77793e-11
-4.31176e-13
-3.03879e-11
-5.54148e-13
-3.28579e-11
-6.96382e-13
-3.51891e-11
-8.59094e-13
-3.73816e-11
-1.0435e-12
-3.94353e-11
-1.25103e-12
-4.13502e-11
-1.48311e-12
-4.31263e-11
-1.74153e-12
-4.47637e-11
-2.02809e-12
-4.62623e-11
-2.34509e-12
-4.76222e-11
-2.69489e-12
-4.88434e-11
-3.08055e-12
-4.99259e-11
-3.50516e-12
-5.08698e-11
-3.97289e-12
-5.16751e-11
-4.48797e-12
-5.23418e-11
-5.05647e-12
-5.28701e-11
-5.68383e-12
-5.32606e-11
-7.32475e-12
-5.35145e-11
-3.60371e-11
-5.36565e-11
-3.68147e-11
-5.3666e-11
-3.76412e-11
-5.36532e-11
-3.84276e-11
-5.3351e-11
-3.92383e-11
-5.30839e-11
-4.00568e-11
-5.28161e-11
-4.08777e-11
-5.25384e-11
-4.16974e-11
-5.22528e-11
-4.2513e-11
-5.19633e-11
-4.33226e-11
-5.16718e-11
-4.41252e-11
-5.13789e-11
-4.49201e-11
-5.1085e-11
-4.57072e-11
-5.07904e-11
-4.64864e-11
-5.04953e-11
-4.72579e-11
-5.01999e-11
-4.80218e-11
-4.99044e-11
-4.87785e-11
-4.96089e-11
-4.95282e-11
-4.93136e-11
-5.02711e-11
-4.90185e-11
-5.10077e-11
-4.87236e-11
-5.17381e-11
-4.84289e-11
-5.24627e-11
-4.81344e-11
-4.784e-11
-5.31818e-11
1.30638e-15
-1.9285e-12
4.65865e-15
-5.64588e-12
8.24666e-15
-9.22315e-12
9.72579e-15
-1.26601e-11
6.87819e-15
-1.59566e-11
-2.4201e-15
-1.91128e-11
-2.01947e-14
-2.21285e-11
-4.84152e-14
-2.50039e-11
-8.89773e-14
-2.77387e-11
-1.43759e-13
-3.03331e-11
-2.14585e-13
-3.2787e-11
-3.03303e-13
-3.51004e-11
-4.11728e-13
-3.72732e-11
-5.41736e-13
-3.93053e-11
-6.95186e-13
-4.11968e-11
-8.74048e-13
-4.29475e-11
-1.08027e-12
-4.45575e-11
-1.31598e-12
-4.60266e-11
-1.58327e-12
-4.73549e-11
-1.88446e-12
-4.85422e-11
-2.22182e-12
-4.95885e-11
-2.59791e-12
-5.04937e-11
-3.01521e-12
-5.12578e-11
-3.47674e-12
-5.18803e-11
-3.98539e-12
-5.23614e-11
-4.54366e-12
-5.27024e-11
-7.12621e-12
-5.29076e-11
-3.40218e-11
-5.3011e-11
-3.4687e-11
-5.30008e-11
-3.55001e-11
-5.28401e-11
-3.62574e-11
-5.25937e-11
-3.70187e-11
-5.23226e-11
-3.77914e-11
-5.20433e-11
-3.85714e-11
-5.17584e-11
-3.93555e-11
-5.14688e-11
-4.01425e-11
-5.11763e-11
-4.09322e-11
-5.08821e-11
-4.17242e-11
-5.05869e-11
-4.25181e-11
-5.02912e-11
-4.33133e-11
-4.99952e-11
-4.41095e-11
-4.96991e-11
-4.49062e-11
-4.94032e-11
-4.57029e-11
-4.91077e-11
-4.6499e-11
-4.88127e-11
-4.72944e-11
-4.85183e-11
-4.80884e-11
-4.82244e-11
-4.88808e-11
-4.79312e-11
-4.96711e-11
-4.76385e-11
-5.04592e-11
-4.73463e-11
-4.70545e-11
-5.12446e-11
3.96212e-15
-1.93247e-12
1.23121e-14
-5.65423e-12
2.21005e-14
-9.23294e-12
3.07409e-14
-1.26687e-11
3.5772e-14
-1.59616e-11
3.48459e-14
-1.91118e-11
2.56938e-14
-2.21194e-11
6.12268e-15
-2.49843e-11
-2.60244e-14
-2.77066e-11
-7.28623e-14
-3.02863e-11
-1.36514e-13
-3.27234e-11
-2.19091e-13
-3.50178e-11
-3.22762e-13
-3.71695e-11
-4.49715e-13
-3.91783e-11
-6.02242e-13
-4.10442e-11
-7.8269e-13
-4.2767e-11
-9.93567e-13
-4.43466e-11
-1.23746e-12
-4.57827e-11
-1.5172e-12
-4.70751e-11
-1.83571e-12
-4.82237e-11
-2.19622e-12
-4.9228e-11
-2.60209e-12
-5.00879e-11
-3.05706e-12
-5.08028e-11
-3.56522e-12
-5.13721e-11
-4.13194e-12
-5.17947e-11
-4.76309e-12
-5.20712e-11
-1.04591e-11
-5.22106e-11
-3.39725e-11
-5.22677e-11
-3.47501e-11
-5.22232e-11
-3.55984e-11
-5.19918e-11
-3.64475e-11
-5.17446e-11
-3.72938e-11
-5.14763e-11
-3.81401e-11
-5.11971e-11
-3.89867e-11
-5.09117e-11
-3.98328e-11
-5.06227e-11
-4.06775e-11
-5.03316e-11
-4.15202e-11
-5.00393e-11
-4.23609e-11
-4.97463e-11
-4.31992e-11
-4.94529e-11
-4.40351e-11
-4.91593e-11
-4.48682e-11
-4.8866e-11
-4.56985e-11
-4.8573e-11
-4.65257e-11
-4.82805e-11
-4.73497e-11
-4.79887e-11
-4.81703e-11
-4.76977e-11
-4.89873e-11
-4.74074e-11
-4.98006e-11
-4.71179e-11
-5.061e-11
-4.68291e-11
-5.14153e-11
-4.65409e-11
-4.62533e-11
-5.22165e-11
-2.77502e-15
-1.92969e-12
-1.41104e-14
-5.6429e-12
-3.56816e-14
-9.21137e-12
-6.84797e-14
-1.26359e-11
-1.13422e-13
-1.59167e-11
-1.71349e-13
-1.90539e-11
-2.43053e-13
-2.20477e-11
-3.29262e-13
-2.48981e-11
-4.30679e-13
-2.76052e-11
-5.47946e-13
-3.0169e-11
-6.81703e-13
-3.25896e-11
-8.32529e-13
-3.4867e-11
-1.00102e-12
-3.7001e-11
-1.18772e-12
-3.89916e-11
-1.39321e-12
-4.08387e-11
-1.61798e-12
-4.25423e-11
-1.86262e-12
-4.4102e-11
-2.1276e-12
-4.55177e-11
-2.41351e-12
-4.67892e-11
-2.72083e-12
-4.79164e-11
-3.05018e-12
-4.88986e-11
-3.40194e-12
-4.97361e-11
-3.7766e-12
-5.04282e-11
-4.1744e-12
-5.09743e-11
-4.59752e-12
-5.13716e-11
-5.05145e-12
-5.16173e-11
-2.13495e-11
-5.17196e-11
-3.66575e-11
-5.17564e-11
-3.71788e-11
-5.17019e-11
-3.77492e-11
-5.14214e-11
-3.83401e-11
-5.11538e-11
-3.89534e-11
-5.08629e-11
-3.95892e-11
-5.05613e-11
-4.02462e-11
-5.02547e-11
-4.09226e-11
-4.99464e-11
-4.16162e-11
-4.96381e-11
-4.23246e-11
-4.93308e-11
-4.3046e-11
-4.90249e-11
-4.37782e-11
-4.87206e-11
-4.45196e-11
-4.8418e-11
-4.52684e-11
-4.81171e-11
-4.60235e-11
-4.78179e-11
-4.67836e-11
-4.75204e-11
-4.75477e-11
-4.72246e-11
-4.83151e-11
-4.69303e-11
-4.9085e-11
-4.66375e-11
-4.98569e-11
-4.63461e-11
-5.06302e-11
-4.60558e-11
-5.14044e-11
-4.57667e-11
-4.54786e-11
-5.21792e-11
-2.50422e-14
-1.90465e-12
-9.4026e-14
-5.57391e-12
-2.02828e-13
-9.10256e-12
-3.48473e-13
-1.24903e-11
-5.28271e-13
-1.57369e-11
-7.39782e-13
-1.88424e-11
-9.80754e-13
-2.18067e-11
-1.2491e-12
-2.46297e-11
-1.54283e-12
-2.73114e-11
-1.86005e-12
-2.98518e-11
-2.19888e-12
-3.22508e-11
-2.55748e-12
-3.45084e-11
-2.93394e-12
-3.66245e-11
-3.32631e-12
-3.85993e-11
-3.7325e-12
-4.04326e-11
-4.1503e-12
-4.21245e-11
-4.57729e-12
-4.3675e-11
-5.01085e-12
-4.50842e-11
-5.448e-12
-4.63521e-11
-5.88553e-12
-4.74788e-11
-6.31974e-12
-4.84644e-11
-6.74675e-12
-4.93091e-11
-7.16229e-12
-5.00126e-11
-7.56119e-12
-5.05754e-11
-7.93356e-12
-5.09992e-11
-8.4811e-12
-5.1289e-11
-4.44144e-11
-5.14586e-11
-4.47229e-11
-5.1448e-11
-4.49846e-11
-5.14402e-11
-4.52921e-11
-5.1114e-11
-4.56289e-11
-5.08169e-11
-4.5989e-11
-5.05028e-11
-4.63722e-11
-5.01781e-11
-4.67788e-11
-4.98481e-11
-4.72083e-11
-4.95169e-11
-4.76593e-11
-4.9187e-11
-4.81305e-11
-4.88596e-11
-4.86205e-11
-4.85349e-11
-4.91279e-11
-4.82133e-11
-4.96513e-11
-4.78946e-11
-5.01895e-11
-4.75789e-11
-5.07416e-11
-4.72659e-11
-5.13065e-11
-4.69555e-11
-5.18835e-11
-4.66476e-11
-5.24717e-11
-4.6342e-11
-5.30707e-11
-4.60386e-11
-5.36796e-11
-4.57371e-11
-5.42979e-11
-4.54375e-11
-5.4925e-11
-4.51396e-11
-4.48433e-11
-5.55602e-11
-2.10676e-14
-1.88358e-12
-8.15524e-14
-5.51343e-12
-1.791e-13
-9.00502e-12
-3.11611e-13
-1.23577e-11
-4.7713e-13
-1.55714e-11
-6.73831e-13
-1.86457e-11
-8.99988e-13
-2.15805e-11
-1.15398e-12
-2.43757e-11
-1.43424e-12
-2.70312e-11
-1.73928e-12
-2.95468e-11
-2.06765e-12
-3.19224e-11
-2.41795e-12
-3.41581e-11
-2.78877e-12
-3.62537e-11
-3.17873e-12
-3.82093e-11
-3.58641e-12
-4.00249e-11
-4.01043e-12
-4.17004e-11
-4.44928e-12
-4.32361e-11
-4.90153e-12
-4.46319e-11
-5.36555e-12
-4.5888e-11
-5.83981e-12
-4.70046e-11
-6.32253e-12
-4.79817e-11
-6.81199e-12
-4.88196e-11
-7.30598e-12
-4.95186e-11
-7.80241e-12
-5.0079e-11
-8.29997e-12
-5.05017e-11
-9.10905e-12
-5.0787e-11
-4.0998e-11
-5.09512e-11
-4.1475e-11
-5.09711e-11
-4.19376e-11
-5.09775e-11
-4.24512e-11
-5.06004e-11
-4.29759e-11
-5.02922e-11
-4.35102e-11
-4.99685e-11
-4.40555e-11
-4.96328e-11
-4.46125e-11
-4.92911e-11
-4.51809e-11
-4.89486e-11
-4.57602e-11
-4.86077e-11
-4.63502e-11
-4.82696e-11
-4.69506e-11
-4.79345e-11
-4.7561e-11
-4.76028e-11
-4.81812e-11
-4.72745e-11
-4.88107e-11
-4.69494e-11
-4.94491e-11
-4.66275e-11
-5.00959e-11
-4.63086e-11
-5.07509e-11
-4.59926e-11
-5.14135e-11
-4.56794e-11
-5.20833e-11
-4.53688e-11
-5.27598e-11
-4.50606e-11
-5.34427e-11
-4.47547e-11
-5.41313e-11
-4.44509e-11
-4.41492e-11
-5.48254e-11
-5.45215e-15
-1.87813e-12
-2.47694e-14
-5.49411e-12
-5.95432e-14
-8.97024e-12
-1.10622e-13
-1.23067e-11
-1.78705e-13
-1.55033e-11
-2.64362e-13
-1.856e-11
-3.68067e-13
-2.14768e-11
-4.9021e-13
-2.42536e-11
-6.3113e-13
-2.68903e-11
-7.91119e-13
-2.93868e-11
-9.70458e-13
-3.17431e-11
-1.16942e-12
-3.39591e-11
-1.38829e-12
-3.60348e-11
-1.6274e-12
-3.79702e-11
-1.88713e-12
-3.97651e-11
-2.16792e-12
-4.14197e-11
-2.47034e-12
-4.29337e-11
-2.79504e-12
-4.43072e-11
-3.14285e-12
-4.55402e-11
-3.51474e-12
-4.66327e-11
-3.91192e-12
-4.75845e-11
-4.3358e-12
-4.83958e-11
-4.78814e-12
-4.90663e-11
-5.27106e-12
-4.95961e-11
-5.78707e-12
-4.99857e-11
-7.21339e-12
-5.0236e-11
-3.75167e-11
-5.03716e-11
-3.81109e-11
-5.03769e-11
-3.87877e-11
-5.03007e-11
-3.94622e-11
-4.9926e-11
-4.01726e-11
-4.95818e-11
-4.09012e-11
-4.92399e-11
-4.16405e-11
-4.88934e-11
-4.23874e-11
-4.85442e-11
-4.314e-11
-4.81959e-11
-4.38971e-11
-4.78506e-11
-4.46577e-11
-4.75089e-11
-4.54213e-11
-4.7171e-11
-4.61874e-11
-4.68367e-11
-4.69558e-11
-4.65061e-11
-4.77261e-11
-4.6179e-11
-4.84983e-11
-4.58553e-11
-4.92719e-11
-4.5535e-11
-5.00469e-11
-4.52177e-11
-5.08229e-11
-4.49034e-11
-5.15998e-11
-4.45919e-11
-5.23774e-11
-4.4283e-11
-5.31555e-11
-4.39766e-11
-5.39338e-11
-4.36726e-11
-4.33709e-11
-5.47121e-11
-6.72161e-15
-1.87141e-12
-2.68349e-14
-5.474e-12
-6.08803e-14
-8.9362e-12
-1.0967e-13
-1.22579e-11
-1.73991e-13
-1.5439e-11
-2.5461e-13
-1.84794e-11
-3.5227e-13
-2.13792e-11
-4.67702e-13
-2.41382e-11
-6.01617e-13
-2.67564e-11
-7.54717e-13
-2.92337e-11
-9.27687e-13
-3.15701e-11
-1.12121e-12
-3.37656e-11
-1.33596e-12
-3.58201e-11
-1.5726e-12
-3.77336e-11
-1.83179e-12
-3.9506e-11
-2.1142e-12
-4.11372e-11
-2.42049e-12
-4.26274e-11
-2.75131e-12
-4.39764e-11
-3.10732e-12
-4.51842e-11
-3.48916e-12
-4.62508e-11
-3.89747e-12
-4.71762e-11
-4.33286e-12
-4.79604e-11
-4.79597e-12
-4.86032e-11
-5.28751e-12
-4.91046e-11
-5.80814e-12
-4.9465e-11
-8.28884e-12
-4.96864e-11
-3.70625e-11
-4.98017e-11
-3.76385e-11
-4.98008e-11
-3.83667e-11
-4.95725e-11
-3.9055e-11
-4.92377e-11
-3.97527e-11
-4.88841e-11
-4.04665e-11
-4.85261e-11
-4.11928e-11
-4.81671e-11
-4.19281e-11
-4.78089e-11
-4.26711e-11
-4.7453e-11
-4.34211e-11
-4.71006e-11
-4.41777e-11
-4.67523e-11
-4.49406e-11
-4.64081e-11
-4.57094e-11
-4.60679e-11
-4.64837e-11
-4.57318e-11
-4.7263e-11
-4.53997e-11
-4.80471e-11
-4.50713e-11
-4.88353e-11
-4.47467e-11
-4.96274e-11
-4.44256e-11
-5.04229e-11
-4.41079e-11
-5.12213e-11
-4.37934e-11
-5.20222e-11
-4.34821e-11
-5.28253e-11
-4.31736e-11
-5.363e-11
-4.28679e-11
-4.25648e-11
-5.44361e-11
-5.45402e-15
-1.86595e-12
-2.25366e-14
-5.45692e-12
-5.21389e-14
-8.90659e-12
-9.52322e-14
-1.22148e-11
-1.52809e-13
-1.53814e-11
-2.25867e-13
-1.84064e-11
-3.15416e-13
-2.12896e-11
-4.22468e-13
-2.40311e-11
-5.48044e-13
-2.66308e-11
-6.93163e-13
-2.90886e-11
-8.58852e-13
-3.14044e-11
-1.04613e-12
-3.35783e-11
-1.25603e-12
-3.56102e-11
-1.48956e-12
-3.75e-11
-1.74775e-12
-3.92478e-11
-2.03159e-12
-4.08534e-11
-2.34212e-12
-4.23169e-11
-2.68029e-12
-4.36382e-11
-3.04711e-12
-4.48174e-11
-3.44348e-12
-4.58545e-11
-3.87038e-12
-4.67493e-11
-4.32868e-12
-4.75021e-11
-4.81941e-12
-4.81124e-11
-5.34323e-12
-4.85807e-11
-5.89978e-12
-4.89085e-11
-1.04863e-11
-4.91004e-11
-3.70611e-11
-4.9188e-11
-3.7683e-11
-4.91789e-11
-3.83823e-11
-4.88732e-11
-3.90919e-11
-4.85281e-11
-3.98073e-11
-4.81687e-11
-4.05304e-11
-4.7803e-11
-4.12616e-11
-4.74359e-11
-4.20002e-11
-4.70703e-11
-4.27455e-11
-4.67077e-11
-4.34973e-11
-4.63488e-11
-4.42556e-11
-4.5994e-11
-4.50203e-11
-4.56434e-11
-4.57914e-11
-4.52969e-11
-4.65687e-11
-4.49545e-11
-4.73519e-11
-4.46164e-11
-4.81409e-11
-4.42823e-11
-4.89352e-11
-4.39523e-11
-4.97345e-11
-4.36263e-11
-5.05383e-11
-4.33041e-11
-5.13463e-11
-4.29855e-11
-5.21578e-11
-4.26705e-11
-5.29726e-11
-4.23588e-11
-5.37901e-11
-4.20504e-11
-4.17451e-11
-5.46098e-11
9.58473e-16
-1.86691e-12
8.69826e-16
-5.45683e-12
-2.81316e-15
-8.90291e-12
-1.23402e-14
-1.22053e-11
-2.97843e-14
-1.53639e-11
-5.70802e-14
-1.83791e-11
-9.60445e-14
-2.12507e-11
-1.48416e-13
-2.39787e-11
-2.15863e-13
-2.65633e-11
-3.0003e-13
-2.90044e-11
-4.02534e-13
-3.13019e-11
-5.25017e-13
-3.34558e-11
-6.69137e-13
-3.54661e-11
-8.36631e-13
-3.73325e-11
-1.02929e-12
-3.90551e-11
-1.24906e-12
-4.06336e-11
-1.49798e-12
-4.2068e-11
-1.77829e-12
-4.33579e-11
-2.09241e-12
-4.45033e-11
-2.44304e-12
-4.55038e-11
-2.83305e-12
-4.63593e-11
-3.26575e-12
-4.70694e-11
-3.74489e-12
-4.76333e-11
-4.27555e-12
-4.80501e-11
-4.86337e-12
-4.83207e-11
-1.23535e-11
-4.84547e-11
-3.59248e-11
-4.85028e-11
-3.6644e-11
-4.84598e-11
-3.74179e-11
-4.80993e-11
-3.82006e-11
-4.77454e-11
-3.89925e-11
-4.73768e-11
-3.97926e-11
-4.70029e-11
-4.06002e-11
-4.66283e-11
-4.14145e-11
-4.62559e-11
-4.2235e-11
-4.58872e-11
-4.30612e-11
-4.55226e-11
-4.38926e-11
-4.51626e-11
-4.47288e-11
-4.48071e-11
-4.55696e-11
-4.44562e-11
-4.64143e-11
-4.41098e-11
-4.72626e-11
-4.37681e-11
-4.81141e-11
-4.34309e-11
-4.89682e-11
-4.30982e-11
-4.98246e-11
-4.27699e-11
-5.06828e-11
-4.24459e-11
-5.15424e-11
-4.21259e-11
-5.24031e-11
-4.18098e-11
-5.32645e-11
-4.14974e-11
-5.41263e-11
-4.11886e-11
-4.08832e-11
-5.49882e-11
-5.42678e-15
-1.86148e-12
-2.40303e-14
-5.43822e-12
-5.69724e-14
-8.86997e-12
-1.04822e-13
-1.21574e-11
-1.68057e-13
-1.53007e-11
-2.47103e-13
-1.83e-11
-3.42318e-13
-2.11554e-11
-4.54031e-13
-2.3867e-11
-5.82514e-13
-2.64348e-11
-7.28036e-13
-2.88589e-11
-8.90812e-13
-3.11392e-11
-1.07108e-12
-3.32756e-11
-1.26903e-12
-3.52681e-11
-1.4849e-12
-3.71167e-11
-1.71887e-12
-3.88211e-11
-1.97122e-12
-4.03813e-11
-2.24215e-12
-4.1797e-11
-2.532e-12
-4.30681e-11
-2.84102e-12
-4.41943e-11
-3.16968e-12
-4.51752e-11
-3.51822e-12
-4.60108e-11
-3.88702e-12
-4.67006e-11
-4.27627e-12
-4.7244e-11
-4.68843e-12
-4.76379e-11
-5.13027e-12
-4.78788e-11
-2.29695e-11
-4.79734e-11
-3.90208e-11
-4.80133e-11
-3.95234e-11
-4.79572e-11
-4.00579e-11
-4.75648e-11
-4.06154e-11
-4.71878e-11
-4.12e-11
-4.67923e-11
-4.18115e-11
-4.63913e-11
-4.24488e-11
-4.5991e-11
-4.31097e-11
-4.5595e-11
-4.3792e-11
-4.52048e-11
-4.44935e-11
-4.48212e-11
-4.52121e-11
-4.4444e-11
-4.59458e-11
-4.40734e-11
-4.66931e-11
-4.37089e-11
-4.74524e-11
-4.33504e-11
-4.82227e-11
-4.29978e-11
-4.90028e-11
-4.26508e-11
-4.9792e-11
-4.23091e-11
-5.05893e-11
-4.19726e-11
-5.13941e-11
-4.16411e-11
-5.22057e-11
-4.13142e-11
-5.30236e-11
-4.0992e-11
-5.38471e-11
-4.0674e-11
-5.46756e-11
-4.03601e-11
-4.00502e-11
-5.55085e-11
-2.49373e-14
-1.83655e-12
-9.40505e-14
-5.36911e-12
-2.03258e-13
-8.76076e-12
-3.49402e-13
-1.20113e-11
-5.29588e-13
-1.51205e-11
-7.41118e-13
-1.80885e-11
-9.81473e-13
-2.09151e-11
-1.24823e-12
-2.36003e-11
-1.53908e-12
-2.6144e-11
-1.85172e-12
-2.85462e-11
-2.1839e-12
-3.0807e-11
-2.53329e-12
-3.29262e-11
-2.89755e-12
-3.49039e-11
-3.2742e-12
-3.674e-11
-3.66066e-12
-3.84347e-11
-4.05413e-12
-3.99878e-11
-4.45162e-12
-4.13995e-11
-4.84982e-12
-4.26699e-11
-5.24517e-12
-4.37989e-11
-5.63361e-12
-4.47867e-11
-6.01097e-12
-4.56334e-11
-6.37269e-12
-4.63388e-11
-6.71335e-12
-4.69034e-11
-7.02252e-12
-4.73288e-11
-7.30422e-12
-4.76202e-11
-4.65671e-11
-4.77895e-11
-4.68034e-11
-4.7777e-11
-4.69946e-11
-4.77659e-11
-4.72579e-11
-4.73015e-11
-4.75617e-11
-4.68841e-11
-4.78991e-11
-4.64549e-11
-4.8269e-11
-4.60214e-11
-4.86703e-11
-4.55897e-11
-4.9101e-11
-4.51644e-11
-4.95584e-11
-4.47474e-11
-5.00404e-11
-4.43392e-11
-5.05447e-11
-4.39397e-11
-5.10699e-11
-4.35482e-11
-5.16145e-11
-4.31643e-11
-5.21776e-11
-4.27874e-11
-5.27583e-11
-4.24171e-11
-5.3356e-11
-4.2053e-11
-5.39702e-11
-4.16949e-11
-5.46003e-11
-4.13425e-11
-5.52457e-11
-4.09956e-11
-5.59059e-11
-4.06541e-11
-5.65802e-11
-4.03177e-11
-5.72679e-11
-3.99862e-11
-5.79684e-11
-3.96597e-11
-3.93378e-11
-5.86808e-11
-2.29692e-14
-1.81358e-12
-8.83381e-14
-5.30374e-12
-1.93185e-13
-8.65591e-12
-3.34976e-13
-1.18695e-11
-5.11342e-13
-1.49442e-11
-7.20051e-13
-1.78798e-11
-9.58996e-13
-2.06761e-11
-1.22615e-12
-2.33331e-11
-1.51959e-12
-2.58506e-11
-1.83742e-12
-2.82284e-11
-2.17782e-12
-3.04666e-11
-2.53898e-12
-3.2565e-11
-2.91912e-12
-3.45237e-11
-3.31644e-12
-3.63427e-11
-3.72916e-12
-3.80219e-11
-4.15542e-12
-3.95615e-11
-4.5934e-12
-4.09616e-11
-5.04114e-12
-4.22221e-11
-5.49669e-12
-4.33434e-11
-5.95795e-12
-4.43255e-11
-6.42277e-12
-4.51686e-11
-6.88857e-12
-4.5873e-11
-7.35277e-12
-4.64392e-11
-7.81379e-12
-4.68677e-11
-8.35158e-12
-4.71591e-11
-4.28569e-11
-4.73263e-11
-4.32892e-11
-4.73447e-11
-4.37171e-11
-4.73381e-11
-4.41966e-11
-4.6822e-11
-4.46953e-11
-4.63853e-11
-4.52129e-11
-4.59373e-11
-4.57508e-11
-4.54835e-11
-4.6309e-11
-4.50315e-11
-4.68866e-11
-4.45868e-11
-4.74823e-11
-4.41517e-11
-4.80952e-11
-4.37263e-11
-4.87245e-11
-4.33103e-11
-4.93695e-11
-4.29032e-11
-5.00294e-11
-4.25044e-11
-5.07036e-11
-4.21132e-11
-5.13915e-11
-4.17292e-11
-5.20925e-11
-4.1352e-11
-5.2806e-11
-4.09814e-11
-5.35314e-11
-4.06171e-11
-5.42682e-11
-4.02589e-11
-5.50158e-11
-3.99065e-11
-5.57735e-11
-3.95599e-11
-5.65409e-11
-3.92189e-11
-5.73173e-11
-3.88833e-11
-3.85529e-11
-5.81022e-11
-7.50127e-15
-3.25232e-14
-7.62918e-14
-1.39338e-13
-2.22054e-13
-3.24729e-13
-4.47565e-13
-5.90707e-13
-7.54254e-13
-9.38285e-13
-1.14286e-12
-1.36808e-12
-1.61403e-12
-1.88089e-12
-2.16885e-12
-2.47825e-12
-2.80949e-12
-3.16312e-12
-3.53983e-12
-3.94054e-12
-4.36634e-12
-4.81865e-12
-5.29919e-12
-5.80998e-12
-6.96e-12
-3.97979e-11
-4.03781e-11
-4.10752e-11
-4.17638e-11
-4.24813e-11
-4.3212e-11
-4.39511e-11
-4.46978e-11
-4.54517e-11
-4.62128e-11
-4.69814e-11
-4.77574e-11
-4.85411e-11
-4.93325e-11
-5.01314e-11
-5.09378e-11
-5.17514e-11
-5.25718e-11
-5.33987e-11
-5.42318e-11
-5.50707e-11
-5.59151e-11
-5.67645e-11
-5.76186e-11
-5.84771e-11
-5.07939e-11
-5.11235e-11
-5.13251e-11
-5.08325e-11
-5.1852e-11
-5.05397e-11
-5.23747e-11
-5.02451e-11
-5.2893e-11
-4.99487e-11
-5.34069e-11
-4.96505e-11
-5.39163e-11
-4.93504e-11
-5.44211e-11
-4.90486e-11
-5.49214e-11
-4.87449e-11
-5.54172e-11
-4.84394e-11
-5.59083e-11
-4.81321e-11
-5.63947e-11
-4.7823e-11
-5.68764e-11
-4.7512e-11
-5.73534e-11
-4.71993e-11
-5.78257e-11
-4.68847e-11
-5.82931e-11
-4.65683e-11
-5.87557e-11
-4.62501e-11
-5.92135e-11
-4.59302e-11
-5.96663e-11
-4.56085e-11
-6.01142e-11
-4.5285e-11
-6.0557e-11
-4.49599e-11
-6.09949e-11
-4.46332e-11
-6.14276e-11
-4.43048e-11
-6.18551e-11
-4.39749e-11
-6.22775e-11
-4.36435e-11
-6.26946e-11
-4.33106e-11
-6.31064e-11
-4.29764e-11
-6.35129e-11
-4.26409e-11
-6.3914e-11
-4.23041e-11
-6.43096e-11
-4.19661e-11
-6.46997e-11
-4.16271e-11
-6.50842e-11
-4.1287e-11
-6.54631e-11
-4.09461e-11
-6.58363e-11
-4.06043e-11
-6.62039e-11
-4.02617e-11
-6.65656e-11
-3.99186e-11
-6.69216e-11
-3.95749e-11
-6.72717e-11
-3.92307e-11
-6.76159e-11
-3.88863e-11
-6.79542e-11
-3.85416e-11
-6.82865e-11
-3.81968e-11
-6.86128e-11
-3.7852e-11
-6.8933e-11
-3.75074e-11
-6.92472e-11
-3.71629e-11
-6.95553e-11
-3.68189e-11
-6.98573e-11
-3.64752e-11
-7.01531e-11
-3.61319e-11
-7.04427e-11
-3.57888e-11
-7.07262e-11
-3.54458e-11
-3.5104e-11
-7.10004e-11
-5.30485e-11
-5.0545e-11
-5.36249e-11
-5.02561e-11
-5.41991e-11
-4.99656e-11
-5.47707e-11
-4.96735e-11
-5.53396e-11
-4.93798e-11
-5.59056e-11
-4.90845e-11
-5.64683e-11
-4.87877e-11
-5.70278e-11
-4.84891e-11
-5.75837e-11
-4.8189e-11
-5.8136e-11
-4.78871e-11
-5.86845e-11
-4.75836e-11
-5.9229e-11
-4.72785e-11
-5.97694e-11
-4.69716e-11
-6.03055e-11
-4.66631e-11
-6.08373e-11
-4.63529e-11
-6.13645e-11
-4.60411e-11
-6.18871e-11
-4.57275e-11
-6.24048e-11
-4.54124e-11
-6.29177e-11
-4.50956e-11
-6.34255e-11
-4.47772e-11
-6.39282e-11
-4.44573e-11
-6.44256e-11
-4.41358e-11
-6.49175e-11
-4.38129e-11
-6.54039e-11
-4.34885e-11
-6.58846e-11
-4.31628e-11
-6.63595e-11
-4.28357e-11
-6.68285e-11
-4.25074e-11
-6.72915e-11
-4.21779e-11
-6.77484e-11
-4.18472e-11
-6.8199e-11
-4.15155e-11
-6.86432e-11
-4.11828e-11
-6.9081e-11
-4.08493e-11
-6.95122e-11
-4.05149e-11
-6.99368e-11
-4.01797e-11
-7.03545e-11
-3.9844e-11
-7.07654e-11
-3.95077e-11
-7.11694e-11
-3.91709e-11
-7.15663e-11
-3.88338e-11
-7.19561e-11
-3.84965e-11
-7.23387e-11
-3.8159e-11
-7.27141e-11
-3.78214e-11
-7.30821e-11
-3.7484e-11
-7.34428e-11
-3.71467e-11
-7.3796e-11
-3.68097e-11
-7.41417e-11
-3.64732e-11
-7.44799e-11
-3.6137e-11
-7.48105e-11
-3.58012e-11
-7.51336e-11
-3.54658e-11
-7.54491e-11
-3.51303e-11
-3.47937e-11
-7.57594e-11
-5.2417e-11
-4.98938e-11
-5.30603e-11
-4.96128e-11
-5.36961e-11
-4.93298e-11
-5.43246e-11
-4.9045e-11
-5.49461e-11
-4.87583e-11
-5.55609e-11
-4.84698e-11
-5.61691e-11
-4.81794e-11
-5.67709e-11
-4.78873e-11
-5.73666e-11
-4.75933e-11
-5.79561e-11
-4.72976e-11
-5.85397e-11
-4.7e-11
-5.91175e-11
-4.67008e-11
-5.96894e-11
-4.63997e-11
-6.02556e-11
-4.60969e-11
-6.0816e-11
-4.57925e-11
-6.13708e-11
-4.54863e-11
-6.192e-11
-4.51784e-11
-6.24634e-11
-4.48689e-11
-6.30013e-11
-4.45578e-11
-6.35334e-11
-4.42451e-11
-6.40599e-11
-4.39308e-11
-6.45806e-11
-4.36151e-11
-6.50956e-11
-4.32979e-11
-6.56047e-11
-4.29794e-11
-6.6108e-11
-4.26595e-11
-6.66053e-11
-4.23384e-11
-6.70967e-11
-4.2016e-11
-6.75821e-11
-4.16925e-11
-6.80614e-11
-4.1368e-11
-6.85345e-11
-4.10424e-11
-6.90014e-11
-4.0716e-11
-6.94619e-11
-4.03887e-11
-6.99162e-11
-4.00606e-11
-7.0364e-11
-3.97319e-11
-7.08052e-11
-3.94027e-11
-7.124e-11
-3.90729e-11
-7.16681e-11
-3.87428e-11
-7.20894e-11
-3.84124e-11
-7.25041e-11
-3.80818e-11
-7.29119e-11
-3.77512e-11
-7.33128e-11
-3.74205e-11
-7.37068e-11
-3.709e-11
-7.40937e-11
-3.67597e-11
-7.44737e-11
-3.64298e-11
-7.48465e-11
-3.61003e-11
-7.52122e-11
-3.57713e-11
-7.55708e-11
-3.54427e-11
-7.59222e-11
-3.51144e-11
-7.62664e-11
-3.47861e-11
-3.44582e-11
-7.66019e-11
-5.17519e-11
-4.91728e-11
-5.24666e-11
-4.8898e-11
-5.31751e-11
-4.86213e-11
-5.38774e-11
-4.83427e-11
-5.45735e-11
-4.80622e-11