/*--------------------------------*- C++ -*----------------------------------*\
| =========                 |                                                 |
| \\      /  F ield         | OpenFOAM: The Open Source CFD Toolbox           |
|  \\    /   O peration     | Version:  2.4.0                                 |
|   \\  /    A nd           | Web:      www.OpenFOAM.org                      |
|    \\/     M anipulation  |                                                 |
\*---------------------------------------------------------------------------*/
FoamFile
{
    version     2.0;
    format      ascii;
    class       volVectorField;
    location    "1.7";
    object      U;
}
// * * * * * * * * * * * * * * * * * * * * * * * * * * * * * * * * * * * * * //

dimensions      [0 1 -1 0 0 0 0];

internalField   nonuniform List<vector> 
8000
(
(-1.6408e-07 -0.000205458 0)
(-1.01525e-06 -0.000600844 0)
(-2.49776e-06 -0.000980876 0)
(-4.50109e-06 -0.00134571 0)
(-6.9406e-06 -0.00169546 0)
(-9.75367e-06 -0.00203025 0)
(-1.28955e-05 -0.00235018 0)
(-1.6321e-05 -0.00265531 0)
(-1.99969e-05 -0.00294573 0)
(-2.38845e-05 -0.0032215 0)
(-2.79597e-05 -0.00348265 0)
(-3.21882e-05 -0.00372924 0)
(-3.6553e-05 -0.0039613 0)
(-4.1021e-05 -0.00417884 0)
(-4.55808e-05 -0.0043819 0)
(-5.01978e-05 -0.00457047 0)
(-5.48654e-05 -0.00474457 0)
(-5.95435e-05 -0.00490419 0)
(-6.42288e-05 -0.00504932 0)
(-6.8872e-05 -0.00517994 0)
(-7.348e-05 -0.00529603 0)
(-7.80145e-05 -0.00539756 0)
(-8.25048e-05 -0.00548448 0)
(-8.67361e-05 -0.00555675 0)
(-9.01312e-05 -0.00561425 0)
(-9.20002e-05 -0.00565677 0)
(-9.59261e-05 -0.00568415 0)
(-0.000116001 -0.00569741 0)
(-0.000171768 -0.00570098 0)
(-0.000264385 -0.00570055 0)
(-0.000391143 -0.00569886 0)
(-0.000408125 -0.00568819 0)
(-0.000328205 -0.00566578 0)
(-0.000323209 -0.00563865 0)
(-0.000331044 -0.00561127 0)
(-0.000337882 -0.00558419 0)
(-0.000342607 -0.00555719 0)
(-0.000346843 -0.00553014 0)
(-0.00035118 -0.00550299 0)
(-0.000355628 -0.00547571 0)
(-0.000360112 -0.00544828 0)
(-0.000364597 -0.00542067 0)
(-0.000369076 -0.00539289 0)
(-0.000373545 -0.00536492 0)
(-0.000377998 -0.00533677 0)
(-0.000382433 -0.00530842 0)
(-0.000386845 -0.00527989 0)
(-0.000391232 -0.00525116 0)
(-0.000395591 -0.00522224 0)
(-0.00039992 -0.00519313 0)
(-1.67514e-08 -0.000196636 0)
(-4.89383e-07 -0.000576666 0)
(-1.49571e-06 -0.000943327 0)
(-3.01197e-06 -0.00129651 0)
(-4.98155e-06 -0.00163611 0)
(-7.35466e-06 -0.00196205 0)
(-1.00917e-05 -0.00227427 0)
(-1.31573e-05 -0.00257271 0)
(-1.65204e-05 -0.00285733 0)
(-2.01508e-05 -0.00312808 0)
(-2.40228e-05 -0.00338495 0)
(-2.81096e-05 -0.00362791 0)
(-3.23897e-05 -0.00385694 0)
(-3.68376e-05 -0.00407204 0)
(-4.14351e-05 -0.00427321 0)
(-4.6156e-05 -0.00446043 0)
(-5.09846e-05 -0.00463373 0)
(-5.58909e-05 -0.00479311 0)
(-6.08602e-05 -0.0049386 0)
(-6.5856e-05 -0.00507021 0)
(-7.08746e-05 -0.00518798 0)
(-7.58965e-05 -0.00529195 0)
(-8.09205e-05 -0.00538215 0)
(-8.56756e-05 -0.00545864 0)
(-8.94791e-05 -0.00552149 0)
(-9.20333e-05 -0.00557075 0)
(-9.88294e-05 -0.00560656 0)
(-0.000125681 -0.00562913 0)
(-0.000185241 -0.00564136 0)
(-0.000281852 -0.00564303 0)
(-0.00047301 -0.00563788 0)
(-0.00036504 -0.00560321 0)
(-0.000335804 -0.00557252 0)
(-0.000339011 -0.00554268 0)
(-0.000347217 -0.00551329 0)
(-0.000353003 -0.00548422 0)
(-0.000357508 -0.00545554 0)
(-0.000361872 -0.00542722 0)
(-0.000366363 -0.00539919 0)
(-0.000370937 -0.00537135 0)
(-0.000375545 -0.00534363 0)
(-0.000380173 -0.00531596 0)
(-0.000384816 -0.00528829 0)
(-0.000389472 -0.00526058 0)
(-0.000394136 -0.00523281 0)
(-0.000398804 -0.00520495 0)
(-0.000403472 -0.00517698 0)
(-0.000408137 -0.00514889 0)
(-0.000412795 -0.00512066 0)
(-0.000417442 -0.00509228 0)
(-2.29523e-08 -0.000197417 0)
(-1.12196e-07 -0.000578327 0)
(-2.86582e-07 -0.000945316 0)
(-5.51025e-07 -0.00129838 0)
(-9.1932e-07 -0.00163751 0)
(-1.40217e-06 -0.00196271 0)
(-2.01134e-06 -0.00227397 0)
(-2.7521e-06 -0.00257128 0)
(-3.63348e-06 -0.00285465 0)
(-4.65707e-06 -0.00312407 0)
(-5.83182e-06 -0.00337953 0)
(-7.15712e-06 -0.00362104 0)
(-8.64405e-06 -0.0038486 0)
(-1.02908e-05 -0.00406221 0)
(-1.2113e-05 -0.00426188 0)
(-1.41083e-05 -0.00444761 0)
(-1.62995e-05 -0.00461942 0)
(-1.86843e-05 -0.00477732 0)
(-2.12949e-05 -0.00492133 0)
(-2.413e-05 -0.00505147 0)
(-2.72444e-05 -0.00516777 0)
(-3.06605e-05 -0.00527026 0)
(-3.44505e-05 -0.00535899 0)
(-3.84322e-05 -0.005434 0)
(-4.21415e-05 -0.00549535 0)
(-4.54721e-05 -0.00554308 0)
(-5.34788e-05 -0.00557736 0)
(-7.86982e-05 -0.00559851 0)
(-0.000135138 -0.00560968 0)
(-0.000237998 -0.00561138 0)
(-0.000459008 -0.00560189 0)
(-0.00030924 -0.00557759 0)
(-0.000299258 -0.00555216 0)
(-0.000310162 -0.00552571 0)
(-0.000321362 -0.0054985 0)
(-0.000329016 -0.00547082 0)
(-0.000335521 -0.00544291 0)
(-0.000341908 -0.00541491 0)
(-0.000348281 -0.00538685 0)
(-0.000354561 -0.00535876 0)
(-0.000360714 -0.00533062 0)
(-0.000366744 -0.00530243 0)
(-0.000372662 -0.00527419 0)
(-0.000378475 -0.00524587 0)
(-0.000384191 -0.00521748 0)
(-0.000389816 -0.005189 0)
(-0.000395355 -0.00516042 0)
(-0.000400813 -0.00513175 0)
(-0.000406195 -0.00510296 0)
(-0.000411505 -0.00507405 0)
(9.61888e-09 -0.000196266 0)
(-3.01756e-08 -0.000574888 0)
(-1.58736e-07 -0.000939597 0)
(-3.90446e-07 -0.00129039 0)
(-7.33002e-07 -0.00162726 0)
(-1.18966e-06 -0.0019502 0)
(-1.76678e-06 -0.0022592 0)
(-2.46576e-06 -0.00255424 0)
(-3.29311e-06 -0.00283531 0)
(-4.24788e-06 -0.0031024 0)
(-5.33746e-06 -0.00335548 0)
(-6.55869e-06 -0.00359453 0)
(-7.92107e-06 -0.00381951 0)
(-9.41926e-06 -0.00403041 0)
(-1.10664e-05 -0.00422716 0)
(-1.28547e-05 -0.00440976 0)
(-1.48029e-05 -0.00457813 0)
(-1.68996e-05 -0.00473223 0)
(-1.91705e-05 -0.00487198 0)
(-2.16015e-05 -0.00499733 0)
(-2.42448e-05 -0.00510815 0)
(-2.71106e-05 -0.00520442 0)
(-3.02293e-05 -0.00528594 0)
(-3.32353e-05 -0.00535267 0)
(-3.54489e-05 -0.00540425 0)
(-3.74305e-05 -0.00544047 0)
(-4.80778e-05 -0.00546113 0)
(-8.38039e-05 -0.00546861 0)
(-0.000145651 -0.00547196 0)
(-0.000252593 -0.00546254 0)
(-0.000449359 -0.00543868 0)
(-0.000289746 -0.00541074 0)
(-0.000286902 -0.00538341 0)
(-0.000299991 -0.00535711 0)
(-0.000311147 -0.00533162 0)
(-0.000318491 -0.00530671 0)
(-0.000324913 -0.0052822 0)
(-0.00033137 -0.00525793 0)
(-0.000337883 -0.00523378 0)
(-0.000344351 -0.00520963 0)
(-0.000350738 -0.0051854 0)
(-0.000357049 -0.00516101 0)
(-0.000363292 -0.00513643 0)
(-0.000369472 -0.00511163 0)
(-0.000375591 -0.0050866 0)
(-0.000381652 -0.00506132 0)
(-0.000387657 -0.00503578 0)
(-0.000393607 -0.00500998 0)
(-0.000399504 -0.00498391 0)
(-0.000405349 -0.00495759 0)
(-3.16551e-08 -0.000196416 0)
(-2.74035e-07 -0.000575074 0)
(-7.44858e-07 -0.000939595 0)
(-1.4288e-06 -0.00129001 0)
(-2.30772e-06 -0.00162634 0)
(-3.36889e-06 -0.00194861 0)
(-4.60143e-06 -0.00225683 0)
(-5.99608e-06 -0.00255102 0)
(-7.54238e-06 -0.00283119 0)
(-9.23081e-06 -0.00309733 0)
(-1.10499e-05 -0.00334946 0)
(-1.29888e-05 -0.00358758 0)
(-1.50337e-05 -0.00381167 0)
(-1.71711e-05 -0.00402174 0)
(-1.93836e-05 -0.00421777 0)
(-2.16533e-05 -0.00439976 0)
(-2.39568e-05 -0.0045677 0)
(-2.62675e-05 -0.00472157 0)
(-2.85499e-05 -0.00486135 0)
(-3.07752e-05 -0.00498702 0)
(-3.2956e-05 -0.00509856 0)
(-3.51574e-05 -0.00519593 0)
(-3.71865e-05 -0.00527912 0)
(-3.7586e-05 -0.00534807 0)
(-3.3453e-05 -0.00540273 0)
(-2.81975e-05 -0.00544299 0)
(-5.85912e-05 -0.00546898 0)
(-0.000187938 -0.00548126 0)
(-0.00038108 -0.00548326 0)
(-0.00054222 -0.00547886 0)
(-0.000693809 -0.00545293 0)
(-0.000475861 -0.00542862 0)
(-0.000457507 -0.00540306 0)
(-0.000463519 -0.0053768 0)
(-0.000466682 -0.00535015 0)
(-0.000465059 -0.00532332 0)
(-0.000462623 -0.00529638 0)
(-0.000460703 -0.00526936 0)
(-0.00045933 -0.00524226 0)
(-0.000458361 -0.00521506 0)
(-0.000457741 -0.00518776 0)
(-0.00045746 -0.00516037 0)
(-0.000457512 -0.00513287 0)
(-0.000457883 -0.00510527 0)
(-0.000458556 -0.00507756 0)
(-0.000459514 -0.00504976 0)
(-0.00046074 -0.00502186 0)
(-0.000462216 -0.00499385 0)
(-0.000463926 -0.00496573 0)
(-0.000465852 -0.0049375 0)
(-3.82229e-08 -0.000193224 0)
(-3.5141e-07 -0.00056617 0)
(-9.64222e-07 -0.00092557 0)
(-1.85786e-06 -0.00127137 0)
(-3.00721e-06 -0.00160355 0)
(-4.39615e-06 -0.00192206 0)
(-6.00917e-06 -0.00222689 0)
(-7.8371e-06 -0.00251801 0)
(-9.8659e-06 -0.00279542 0)
(-1.20893e-05 -0.0030591 0)
(-1.44932e-05 -0.00330905 0)
(-1.7074e-05 -0.00354527 0)
(-1.9816e-05 -0.00376779 0)
(-2.27185e-05 -0.00397658 0)
(-2.57627e-05 -0.00417171 0)
(-2.89508e-05 -0.00435317 0)
(-3.22587e-05 -0.00452102 0)
(-3.56911e-05 -0.00467527 0)
(-3.92146e-05 -0.00481601 0)
(-4.2844e-05 -0.00494326 0)
(-4.65649e-05 -0.00505716 0)
(-5.04429e-05 -0.00515771 0)
(-5.43192e-05 -0.00524511 0)
(-5.75174e-05 -0.00531935 0)
(-5.8779e-05 -0.0053808 0)
(-6.07807e-05 -0.00542959 0)
(-8.11738e-05 -0.00546619 0)
(-0.000149603 -0.00549053 0)
(-0.000255633 -0.00549573 0)
(-0.000382544 -0.00550136 0)
(-0.000460827 -0.00547221 0)
(-0.000335852 -0.00544938 0)
(-0.000329681 -0.00542368 0)
(-0.000339708 -0.00539549 0)
(-0.000348015 -0.00536559 0)
(-0.000353144 -0.00533474 0)
(-0.000357538 -0.00530337 0)
(-0.000362053 -0.00527172 0)
(-0.000366717 -0.00523993 0)
(-0.000371443 -0.00520809 0)
(-0.000376201 -0.00517627 0)
(-0.000380992 -0.00514452 0)
(-0.000385819 -0.00511286 0)
(-0.000390684 -0.00508133 0)
(-0.000395585 -0.00504993 0)
(-0.000400522 -0.00501866 0)
(-0.000405492 -0.00498752 0)
(-0.000410493 -0.0049565 0)
(-0.000415522 -0.00492559 0)
(-0.000420576 -0.00489478 0)
(8.86878e-09 -0.000192353 0)
(2.45237e-09 -0.00056347 0)
(-5.31152e-08 -0.000920965 0)
(-1.76095e-07 -0.00126481 0)
(-3.79906e-07 -0.00159497 0)
(-6.76775e-07 -0.00191142 0)
(-1.07668e-06 -0.00221415 0)
(-1.59054e-06 -0.00250314 0)
(-2.22651e-06 -0.00277837 0)
(-2.99522e-06 -0.00303982 0)
(-3.90348e-06 -0.00328749 0)
(-4.96281e-06 -0.00352138 0)
(-6.17912e-06 -0.00374147 0)
(-7.56628e-06 -0.00394776 0)
(-9.12952e-06 -0.00414025 0)
(-1.0887e-05 -0.00431895 0)
(-1.28428e-05 -0.00448386 0)
(-1.5021e-05 -0.00463498 0)
(-1.74235e-05 -0.00477231 0)
(-2.00893e-05 -0.00489589 0)
(-2.30422e-05 -0.00500569 0)
(-2.63616e-05 -0.00510175 0)
(-2.99371e-05 -0.00518405 0)
(-3.32732e-05 -0.00525263 0)
(-3.56021e-05 -0.00530749 0)
(-3.9953e-05 -0.00534871 0)
(-5.96888e-05 -0.00537635 0)
(-0.000121024 -0.00539267 0)
(-0.000227713 -0.00539467 0)
(-0.000417698 -0.00539506 0)
(-0.000371524 -0.0053634 0)
(-0.000310827 -0.00533752 0)
(-0.000310856 -0.00531125 0)
(-0.000321484 -0.00528419 0)
(-0.000330294 -0.00525643 0)
(-0.000337103 -0.00522825 0)
(-0.000343441 -0.00519983 0)
(-0.000349805 -0.00517123 0)
(-0.000356185 -0.00514246 0)
(-0.00036252 -0.00511355 0)
(-0.000368789 -0.00508453 0)
(-0.000374992 -0.0050554 0)
(-0.000381133 -0.00502621 0)
(-0.000387215 -0.00499696 0)
(-0.00039324 -0.00496768 0)
(-0.00039921 -0.00493837 0)
(-0.000405127 -0.00490904 0)
(-0.000410995 -0.0048797 0)
(-0.000416814 -0.00485034 0)
(-0.000422588 -0.00482098 0)
(8.2194e-10 -0.000192912 0)
(2.32697e-08 -0.000564779 0)
(5.41868e-08 -0.000922692 0)
(7.81123e-08 -0.00126665 0)
(7.72993e-08 -0.00159667 0)
(3.24851e-08 -0.00191273 0)
(-7.12131e-08 -0.00221485 0)
(-2.52032e-07 -0.00250301 0)
(-5.22527e-07 -0.00277723 0)
(-9.01243e-07 -0.00303749 0)
(-1.39874e-06 -0.0032838 0)
(-2.03476e-06 -0.00351616 0)
(-2.81783e-06 -0.00373456 0)
(-3.76998e-06 -0.003939 0)
(-4.89745e-06 -0.00412948 0)
(-6.22595e-06 -0.00430599 0)
(-7.75853e-06 -0.00446855 0)
(-9.52547e-06 -0.00461713 0)
(-1.15252e-05 -0.00475176 0)
(-1.38015e-05 -0.00487241 0)
(-1.6368e-05 -0.00497909 0)
(-1.92913e-05 -0.0050718 0)
(-2.24272e-05 -0.00515053 0)
(-2.53253e-05 -0.00521527 0)
(-2.75073e-05 -0.00526603 0)
(-3.25723e-05 -0.00530284 0)
(-5.192e-05 -0.0053259 0)
(-0.000107886 -0.00533839 0)
(-0.000218294 -0.00533869 0)
(-0.000456888 -0.00533185 0)
(-0.000294612 -0.00530365 0)
(-0.000283907 -0.00527655 0)
(-0.000294373 -0.00524871 0)
(-0.00030502 -0.00522004 0)
(-0.000312093 -0.00519072 0)
(-0.00031817 -0.00516106 0)
(-0.00032431 -0.00513123 0)
(-0.000330606 -0.00510132 0)
(-0.000336959 -0.00507138 0)
(-0.000343323 -0.00504143 0)
(-0.000349691 -0.00501151 0)
(-0.000356063 -0.00498162 0)
(-0.000362437 -0.00495178 0)
(-0.000368809 -0.00492201 0)
(-0.000375176 -0.0048923 0)
(-0.000381534 -0.00486267 0)
(-0.00038788 -0.00483309 0)
(-0.000394212 -0.00480357 0)
(-0.000400526 -0.0047741 0)
(-0.000406821 -0.00474467 0)
(9.60805e-09 -0.000192881 0)
(6.19557e-08 -0.000564535 0)
(1.37598e-07 -0.000922074 0)
(2.15739e-07 -0.00126549 0)
(2.75705e-07 -0.00159479 0)
(2.964e-07 -0.00190996 0)
(2.61123e-07 -0.00221099 0)
(1.49867e-07 -0.00249789 0)
(-5.18525e-08 -0.00277066 0)
(-3.64652e-07 -0.00302928 0)
(-8.01021e-07 -0.00327375 0)
(-1.38332e-06 -0.00350406 0)
(-2.12192e-06 -0.00372022 0)
(-3.04242e-06 -0.00392221 0)
(-4.15273e-06 -0.00411003 0)
(-5.48355e-06 -0.00428366 0)
(-7.03913e-06 -0.00444311 0)
(-8.85693e-06 -0.00458835 0)
(-1.09368e-05 -0.00471939 0)
(-1.33358e-05 -0.00483621 0)
(-1.60684e-05 -0.0049388 0)
(-1.91978e-05 -0.00502714 0)
(-2.25086e-05 -0.00510123 0)
(-2.55424e-05 -0.00516102 0)
(-2.82988e-05 -0.00520647 0)
(-3.61998e-05 -0.00523764 0)
(-6.08944e-05 -0.00525516 0)
(-0.000115646 -0.00526357 0)
(-0.000230479 -0.0052615 0)
(-0.000464789 -0.00524096 0)
(-0.000285597 -0.00521564 0)
(-0.000283422 -0.00518897 0)
(-0.000297069 -0.00516137 0)
(-0.00030845 -0.00513316 0)
(-0.000315771 -0.00510455 0)
(-0.000322219 -0.0050757 0)
(-0.000328797 -0.00504668 0)
(-0.000335509 -0.00501755 0)
(-0.000342238 -0.00498834 0)
(-0.000348942 -0.00495907 0)
(-0.000355619 -0.00492977 0)
(-0.000362273 -0.00490047 0)
(-0.000368903 -0.00487118 0)
(-0.000375508 -0.00484193 0)
(-0.000382087 -0.00481272 0)
(-0.000388638 -0.00478356 0)
(-0.000395159 -0.00475446 0)
(-0.00040165 -0.00472541 0)
(-0.000408109 -0.00469641 0)
(-0.000414536 -0.00466746 0)
(4.41273e-11 -0.000193621 0)
(-5.0434e-08 -0.000566324 0)
(-1.77901e-07 -0.000924525 0)
(-3.93371e-07 -0.00126826 0)
(-7.02047e-07 -0.00159755 0)
(-1.11271e-06 -0.00191242 0)
(-1.6288e-06 -0.00221289 0)
(-2.26018e-06 -0.00249897 0)
(-3.00793e-06 -0.00277067 0)
(-3.88308e-06 -0.003028 0)
(-4.88392e-06 -0.00327095 0)
(-6.02348e-06 -0.00349951 0)
(-7.29677e-06 -0.00371369 0)
(-8.71985e-06 -0.00391347 0)
(-1.02836e-05 -0.00409884 0)
(-1.20084e-05 -0.00426977 0)
(-1.38789e-05 -0.00442623 0)
(-1.59202e-05 -0.00456821 0)
(-1.81114e-05 -0.00469566 0)
(-2.05061e-05 -0.00480856 0)
(-2.31095e-05 -0.00490684 0)
(-2.59304e-05 -0.00499047 0)
(-2.84716e-05 -0.00505937 0)
(-2.98434e-05 -0.00511345 0)
(-3.09635e-05 -0.00515251 0)
(-4.37761e-05 -0.00517665 0)
(-8.91406e-05 -0.00518709 0)
(-0.00016257 -0.00518988 0)
(-0.00028304 -0.00518315 0)
(-0.000476542 -0.00515808 0)
(-0.000301805 -0.00513323 0)
(-0.000297496 -0.0051062 0)
(-0.000309537 -0.00507799 0)
(-0.000319261 -0.0050491 0)
(-0.00032513 -0.00501986 0)
(-0.000330295 -0.00499045 0)
(-0.000335737 -0.00496096 0)
(-0.00034144 -0.00493145 0)
(-0.000347271 -0.00490195 0)
(-0.000353175 -0.00487249 0)
(-0.000359139 -0.00484309 0)
(-0.000365157 -0.00481377 0)
(-0.000371219 -0.00478455 0)
(-0.000377318 -0.00475543 0)
(-0.000383446 -0.00472642 0)
(-0.000389596 -0.00469751 0)
(-0.000395765 -0.0046687 0)
(-0.000401946 -0.00463998 0)
(-0.000408137 -0.00461134 0)
(-0.000414334 -0.00458277 0)
(-4.48405e-08 -0.000192095 0)
(-4.06666e-07 -0.000561933 0)
(-1.11143e-06 -0.000917433 0)
(-2.13266e-06 -0.00125861 0)
(-3.44086e-06 -0.00158548 0)
(-5.01079e-06 -0.00189806 0)
(-6.82575e-06 -0.00219634 0)
(-8.86629e-06 -0.00248034 0)
(-1.11194e-05 -0.00275006 0)
(-1.35658e-05 -0.00300551 0)
(-1.61951e-05 -0.00324668 0)
(-1.8987e-05 -0.00347357 0)
(-2.19329e-05 -0.00368619 0)
(-2.50102e-05 -0.00388453 0)
(-2.82115e-05 -0.00406858 0)
(-3.15092e-05 -0.00423834 0)
(-3.4896e-05 -0.0043938 0)
(-3.83341e-05 -0.00453496 0)
(-4.1823e-05 -0.00466179 0)
(-4.53529e-05 -0.0047743 0)
(-4.89835e-05 -0.00487247 0)
(-5.256e-05 -0.00495629 0)
(-5.51854e-05 -0.00502573 0)
(-5.51302e-05 -0.00508078 0)
(-5.5013e-05 -0.00512137 0)
(-7.79762e-05 -0.00514764 0)
(-0.000160724 -0.00516014 0)
(-0.000283444 -0.00516121 0)
(-0.000407023 -0.00515722 0)
(-0.000517125 -0.00512589 0)
(-0.000364667 -0.00509684 0)
(-0.000355664 -0.00506587 0)
(-0.000364972 -0.0050339 0)
(-0.000372428 -0.00500152 0)
(-0.000376352 -0.00496913 0)
(-0.000379596 -0.00493693 0)
(-0.000383125 -0.004905 0)
(-0.000386951 -0.00487337 0)
(-0.000390954 -0.00484204 0)
(-0.000395086 -0.00481101 0)
(-0.000399335 -0.00478026 0)
(-0.000403698 -0.00474976 0)
(-0.000408167 -0.00471951 0)
(-0.000412736 -0.00468947 0)
(-0.000417399 -0.00465965 0)
(-0.000422149 -0.00463001 0)
(-0.000426982 -0.00460055 0)
(-0.000431892 -0.00457123 0)
(-0.000436875 -0.00454206 0)
(-0.000441925 -0.00451301 0)
(-3.40401e-08 -0.000188928 0)
(-3.4607e-07 -0.000552988 0)
(-9.71409e-07 -0.000903215 0)
(-1.89357e-06 -0.00123957 0)
(-3.09046e-06 -0.00156203 0)
(-4.54298e-06 -0.00187055 0)
(-6.23831e-06 -0.00216513 0)
(-8.16146e-06 -0.00244574 0)
(-1.03022e-05 -0.00271236 0)
(-1.26455e-05 -0.00296499 0)
(-1.51831e-05 -0.00320363 0)
(-1.78992e-05 -0.00342825 0)
(-2.07881e-05 -0.00363887 0)
(-2.38321e-05 -0.00383548 0)
(-2.70281e-05 -0.0040181 0)
(-3.03548e-05 -0.00418672 0)
(-3.3812e-05 -0.00434137 0)
(-3.7371e-05 -0.00448206 0)
(-4.10417e-05 -0.00460882 0)
(-4.48167e-05 -0.00472166 0)
(-4.8755e-05 -0.00482063 0)
(-5.27152e-05 -0.00490575 0)
(-5.60242e-05 -0.00497708 0)
(-5.74567e-05 -0.00503467 0)
(-5.96315e-05 -0.00507867 0)
(-7.96964e-05 -0.00510916 0)
(-0.000148989 -0.00512722 0)
(-0.000259654 -0.00512967 0)
(-0.000404834 -0.00513107 0)
(-0.00046296 -0.0050965 0)
(-0.000343386 -0.00506647 0)
(-0.000336876 -0.00503479 0)
(-0.000346524 -0.00500186 0)
(-0.000354525 -0.00496821 0)
(-0.000359525 -0.00493436 0)
(-0.000363884 -0.00490057 0)
(-0.000368425 -0.004867 0)
(-0.000373168 -0.00483369 0)
(-0.000378021 -0.00480068 0)
(-0.000382949 -0.00476797 0)
(-0.00038795 -0.00473556 0)
(-0.000393021 -0.00470345 0)
(-0.000398163 -0.00467163 0)
(-0.000403372 -0.00464007 0)
(-0.000408643 -0.00460878 0)
(-0.000413973 -0.00457772 0)
(-0.000419359 -0.00454689 0)
(-0.000424798 -0.00451628 0)
(-0.000430285 -0.00448587 0)
(-0.000435817 -0.00445566 0)
(-4.10026e-09 -0.000187916 0)
(-9.45041e-08 -0.000549882 0)
(-3.05976e-07 -0.000897966 0)
(-6.46893e-07 -0.00123215 0)
(-1.1227e-06 -0.00155242 0)
(-1.73637e-06 -0.00185875 0)
(-2.49347e-06 -0.00215114 0)
(-3.39553e-06 -0.00242957 0)
(-4.44789e-06 -0.00269404 0)
(-5.65005e-06 -0.00294452 0)
(-7.00791e-06 -0.00318103 0)
(-8.5192e-06 -0.00340353 0)
(-1.01915e-05 -0.00361205 0)
(-1.20208e-05 -0.00380656 0)
(-1.40178e-05 -0.00398706 0)
(-1.61762e-05 -0.00415356 0)
(-1.85102e-05 -0.00430605 0)
(-2.10098e-05 -0.00444453 0)
(-2.37015e-05 -0.00456901 0)
(-2.65967e-05 -0.00467948 0)
(-2.97616e-05 -0.00477595 0)
(-3.30678e-05 -0.00485843 0)
(-3.59562e-05 -0.00492691 0)
(-3.75433e-05 -0.0049814 0)
(-4.08689e-05 -0.00502197 0)
(-6.02864e-05 -0.00504869 0)
(-0.000124246 -0.00506377 0)
(-0.000235962 -0.00506503 0)
(-0.000447879 -0.00506338 0)
(-0.000368091 -0.00502539 0)
(-0.000317251 -0.00499227 0)
(-0.000318167 -0.00495867 0)
(-0.000328213 -0.00492443 0)
(-0.000336155 -0.0048898 0)
(-0.000342341 -0.00485518 0)
(-0.000348216 -0.0048208 0)
(-0.00035421 -0.00478675 0)
(-0.000360301 -0.00475306 0)
(-0.000366427 -0.00471974 0)
(-0.000372569 -0.00468678 0)
(-0.000378724 -0.00465417 0)
(-0.000384894 -0.0046219 0)
(-0.000391078 -0.00458996 0)
(-0.000397272 -0.00455833 0)
(-0.000403477 -0.00452699 0)
(-0.000409689 -0.00449592 0)
(-0.000415908 -0.00446511 0)
(-0.000422131 -0.00443455 0)
(-0.000428357 -0.00440421 0)
(-0.000434584 -0.00437409 0)
(-1.08241e-08 -0.000187617 0)
(-1.10172e-07 -0.000548805 0)
(-3.22269e-07 -0.00089595 0)
(-6.51414e-07 -0.00122905 0)
(-1.10289e-06 -0.00154811 0)
(-1.68082e-06 -0.00185313 0)
(-2.39304e-06 -0.0021441 0)
(-3.24325e-06 -0.00242102 0)
(-4.24009e-06 -0.00268389 0)
(-5.3857e-06 -0.0029327 0)
(-6.68991e-06 -0.00316746 0)
(-8.15295e-06 -0.00338815 0)
(-9.7866e-06 -0.00359478 0)
(-1.15885e-05 -0.00378733 0)
(-1.35735e-05 -0.00396581 0)
(-1.57352e-05 -0.00413021 0)
(-1.80917e-05 -0.00428052 0)
(-2.06309e-05 -0.00441674 0)
(-2.33832e-05 -0.00453885 0)
(-2.63526e-05 -0.00464685 0)
(-2.95953e-05 -0.00474074 0)
(-3.29473e-05 -0.0048205 0)
(-3.58807e-05 -0.00488611 0)
(-3.77789e-05 -0.00493755 0)
(-4.23543e-05 -0.00497487 0)
(-6.2616e-05 -0.00499819 0)
(-0.000123172 -0.00501045 0)
(-0.00023789 -0.00501042 0)
(-0.000490928 -0.00499577 0)
(-0.000317083 -0.00495968 0)
(-0.000305356 -0.00492474 0)
(-0.000315726 -0.00488968 0)
(-0.000326192 -0.00485445 0)
(-0.000332888 -0.0048192 0)
(-0.000338576 -0.00478418 0)
(-0.000344371 -0.00474949 0)
(-0.000350366 -0.00471519 0)
(-0.000356454 -0.00468128 0)
(-0.000362588 -0.00464774 0)
(-0.000368762 -0.00461457 0)
(-0.000374977 -0.00458176 0)
(-0.000381231 -0.00454929 0)
(-0.000387522 -0.00451714 0)
(-0.000393844 -0.00448531 0)
(-0.000400195 -0.00445379 0)
(-0.000406571 -0.00442255 0)
(-0.000412969 -0.00439158 0)
(-0.000419386 -0.00436087 0)
(-0.000425818 -0.00433041 0)
(-0.000432262 -0.00430018 0)
(-7.64928e-09 -0.000186689 0)
(-9.05146e-08 -0.000546033 0)
(-2.72917e-07 -0.000891329 0)
(-5.6105e-07 -0.00122256 0)
(-9.62348e-07 -0.00153972 0)
(-1.48243e-06 -0.0018428 0)
(-2.13156e-06 -0.00213178 0)
(-2.91504e-06 -0.00240666 0)
(-3.84459e-06 -0.00266743 0)
(-4.92401e-06 -0.00291408 0)
(-6.16677e-06 -0.00314661 0)
(-7.57469e-06 -0.00336501 0)
(-9.16363e-06 -0.00356929 0)
(-1.09326e-05 -0.00375942 0)
(-1.29008e-05 -0.00393542 0)
(-1.50629e-05 -0.00409728 0)
(-1.74419e-05 -0.004245 0)
(-2.00264e-05 -0.00437859 0)
(-2.2854e-05 -0.00449804 0)
(-2.59287e-05 -0.00460335 0)
(-2.92981e-05 -0.00469454 0)
(-3.2749e-05 -0.00477161 0)
(-3.57494e-05 -0.00483456 0)
(-3.8043e-05 -0.00488339 0)
(-4.46092e-05 -0.00491818 0)
(-6.8279e-05 -0.00493916 0)
(-0.0001273 -0.00494976 0)
(-0.000246374 -0.00494976 0)
(-0.000499699 -0.00492185 0)
(-0.000307689 -0.0048875 0)
(-0.000303453 -0.00485196 0)
(-0.000316354 -0.00481573 0)
(-0.000327068 -0.00477925 0)
(-0.00033355 -0.00474282 0)
(-0.000339156 -0.00470665 0)
(-0.000344961 -0.00467085 0)
(-0.000350979 -0.00463548 0)
(-0.000357084 -0.00460054 0)
(-0.000363234 -0.00456604 0)
(-0.000369429 -0.00453198 0)
(-0.000375671 -0.00449835 0)
(-0.00038196 -0.00446515 0)
(-0.000388294 -0.00443236 0)
(-0.000394669 -0.00439996 0)
(-0.000401083 -0.00436794 0)
(-0.000407531 -0.00433629 0)
(-0.00041401 -0.00430497 0)
(-0.000420516 -0.00427398 0)
(-0.000427046 -0.0042433 0)
(-0.000433595 -0.00421291 0)
(4.28421e-09 -0.000186546 0)
(1.3129e-08 -0.000545413 0)
(1.73087e-09 -0.000890049 0)
(-4.67752e-08 -0.00122045 0)
(-1.50913e-07 -0.00153661 0)
(-3.25687e-07 -0.00183852 0)
(-5.87699e-07 -0.00212619 0)
(-9.48954e-07 -0.00239961 0)
(-1.42577e-06 -0.00265878 0)
(-2.02791e-06 -0.00290369 0)
(-2.77264e-06 -0.00313433 0)
(-3.66767e-06 -0.00335071 0)
(-4.73268e-06 -0.00355281 0)
(-5.97323e-06 -0.00374065 0)
(-7.4132e-06 -0.0039142 0)
(-9.05509e-06 -0.00407347 0)
(-1.09284e-05 -0.00421846 0)
(-1.30327e-05 -0.00434915 0)
(-1.54178e-05 -0.00446555 0)
(-1.81025e-05 -0.00456765 0)
(-2.1132e-05 -0.00465545 0)
(-2.42497e-05 -0.00472895 0)
(-2.69139e-05 -0.00478811 0)
(-2.93092e-05 -0.00483292 0)
(-3.80349e-05 -0.00486341 0)
(-6.62623e-05 -0.00488025 0)
(-0.000124542 -0.00488773 0)
(-0.000249309 -0.00488603 0)
(-0.000491288 -0.0048523 0)
(-0.000297836 -0.00481718 0)
(-0.000296142 -0.00478083 0)
(-0.00031024 -0.004744 0)
(-0.000321561 -0.00470714 0)
(-0.000328581 -0.00467048 0)
(-0.000334769 -0.00463416 0)
(-0.000341173 -0.00459822 0)
(-0.000347784 -0.00456266 0)
(-0.000354469 -0.00452751 0)
(-0.000361185 -0.00449274 0)
(-0.000367929 -0.00445836 0)
(-0.000374701 -0.00442438 0)
(-0.000381501 -0.0043908 0)
(-0.000388324 -0.00435762 0)
(-0.000395167 -0.00432483 0)
(-0.000402026 -0.00429242 0)
(-0.000408898 -0.00426039 0)
(-0.00041578 -0.00422872 0)
(-0.000422669 -0.0041974 0)
(-0.000429563 -0.00416642 0)
(-0.000436458 -0.00413575 0)
(-4.79217e-09 -0.000186845 0)
(-9.33164e-08 -0.000545966 0)
(-2.95401e-07 -0.000890548 0)
(-6.1632e-07 -0.00122062 0)
(-1.06053e-06 -0.0015362 0)
(-1.62817e-06 -0.0018373 0)
(-2.3256e-06 -0.00212395 0)
(-3.15142e-06 -0.00239615 0)
(-4.11323e-06 -0.0026539 0)
(-5.20688e-06 -0.00289721 0)
(-6.44186e-06 -0.00312607 0)
(-7.81092e-06 -0.00334047 0)
(-9.32658e-06 -0.00354041 0)
(-1.09778e-05 -0.00372587 0)
(-1.27813e-05 -0.00389683 0)
(-1.47202e-05 -0.00405326 0)
(-1.68161e-05 -0.00419514 0)
(-1.90475e-05 -0.00432243 0)
(-2.14659e-05 -0.00443511 0)
(-2.408e-05 -0.00453311 0)
(-2.68905e-05 -0.00461641 0)
(-2.93639e-05 -0.00468492 0)
(-3.05337e-05 -0.00473854 0)
(-3.14314e-05 -0.00477707 0)
(-4.50094e-05 -0.00480061 0)
(-9.36635e-05 -0.00481043 0)
(-0.000172079 -0.00481275 0)
(-0.000303374 -0.00480593 0)
(-0.000508417 -0.00476905 0)
(-0.000319251 -0.00473347 0)
(-0.000314587 -0.00469612 0)
(-0.000327093 -0.0046581 0)
(-0.000336974 -0.00461997 0)
(-0.000342721 -0.00458208 0)
(-0.000347751 -0.00454457 0)
(-0.000353107 -0.00450754 0)
(-0.00035877 -0.00447102 0)
(-0.000364596 -0.00443502 0)
(-0.00037053 -0.00439955 0)
(-0.00037656 -0.00436461 0)
(-0.00038268 -0.00433019 0)
(-0.000388884 -0.00429629 0)
(-0.000395162 -0.0042629 0)
(-0.00040151 -0.00422999 0)
(-0.00040792 -0.00419755 0)
(-0.000414387 -0.00416554 0)
(-0.000420906 -0.00413396 0)
(-0.000427472 -0.00410278 0)
(-0.000434081 -0.00407197 0)
(-0.000440728 -0.00404151 0)
(-4.37863e-08 -0.000185261 0)
(-4.06007e-07 -0.000541401 0)
(-1.11277e-06 -0.000883175 0)
(-2.13842e-06 -0.0012106 0)
(-3.44989e-06 -0.00152368 0)
(-5.02293e-06 -0.00182244 0)
(-6.83489e-06 -0.00210688 0)
(-8.86879e-06 -0.002377 0)
(-1.11029e-05 -0.00263281 0)
(-1.35225e-05 -0.00287431 0)
(-1.61051e-05 -0.0031015 0)
(-1.88375e-05 -0.00331437 0)
(-2.16952e-05 -0.00351294 0)
(-2.46663e-05 -0.00369718 0)
(-2.77216e-05 -0.00386711 0)
(-3.08493e-05 -0.0040227 0)
(-3.40097e-05 -0.00416396 0)
(-3.71978e-05 -0.00429086 0)
(-4.04071e-05 -0.00440341 0)
(-4.36948e-05 -0.00450158 0)
(-4.69178e-05 -0.00458538 0)
(-4.90805e-05 -0.00465476 0)
(-4.82706e-05 -0.00470971 0)
(-4.7118e-05 -0.00475016 0)
(-7.07628e-05 -0.00477624 0)
(-0.000160445 -0.00478846 0)
(-0.000294048 -0.00478951 0)
(-0.000427614 -0.00478548 0)
(-0.000544752 -0.0047421 0)
(-0.000379608 -0.00470201 0)
(-0.000370101 -0.00466045 0)
(-0.000379885 -0.00461842 0)
(-0.000387582 -0.00457658 0)
(-0.000391515 -0.00453534 0)
(-0.000394765 -0.00449488 0)
(-0.000398352 -0.00445524 0)
(-0.000402278 -0.0044164 0)
(-0.000406411 -0.00437832 0)
(-0.0004107 -0.00434096 0)
(-0.000415133 -0.00430426 0)
(-0.000419709 -0.0042682 0)
(-0.000424424 -0.00423274 0)
(-0.000429273 -0.00419785 0)
(-0.000434251 -0.0041635 0)
(-0.000439354 -0.00412968 0)
(-0.000444577 -0.00409635 0)
(-0.000449917 -0.00406352 0)
(-0.000455366 -0.00403114 0)
(-0.00046092 -0.00399921 0)
(-0.000466573 -0.00396772 0)
(-3.78371e-08 -0.000182106 0)
(-3.76594e-07 -0.000532507 0)
(-1.05039e-06 -0.000869062 0)
(-2.03993e-06 -0.00119174 0)
(-3.31771e-06 -0.00150051 0)
(-4.86317e-06 -0.00179534 0)
(-6.65755e-06 -0.00207622 0)
(-8.68646e-06 -0.00234314 0)
(-1.09319e-05 -0.00259608 0)
(-1.33816e-05 -0.00283503 0)
(-1.60171e-05 -0.00305999 0)
(-1.88282e-05 -0.00327096 0)
(-2.17954e-05 -0.00346793 0)
(-2.49111e-05 -0.00365092 0)
(-2.81522e-05 -0.00381993 0)
(-3.15144e-05 -0.00397497 0)
(-3.49664e-05 -0.00411607 0)
(-3.85144e-05 -0.00424324 0)
(-4.2153e-05 -0.0043565 0)
(-4.5938e-05 -0.00445589 0)
(-4.97421e-05 -0.00454145 0)
(-5.28019e-05 -0.00461322 0)
(-5.37229e-05 -0.00467125 0)
(-5.50749e-05 -0.00471569 0)
(-7.5859e-05 -0.00474662 0)
(-0.00015072 -0.00476472 0)
(-0.000268497 -0.00476698 0)
(-0.000421866 -0.00476799 0)
(-0.000487336 -0.00471894 0)
(-0.000356909 -0.00467589 0)
(-0.000349794 -0.00463181 0)
(-0.000359831 -0.00458716 0)
(-0.00036808 -0.00454263 0)
(-0.00037315 -0.00449877 0)
(-0.000377591 -0.00445581 0)
(-0.00038228 -0.0044138 0)
(-0.000387231 -0.0043727 0)
(-0.000392339 -0.00433246 0)
(-0.000397566 -0.00429302 0)
(-0.000402904 -0.00425431 0)
(-0.000408354 -0.00421628 0)
(-0.00041391 -0.00417891 0)
(-0.00041957 -0.00414216 0)
(-0.000425326 -0.004106 0)
(-0.000431176 -0.00407043 0)
(-0.000437115 -0.00403541 0)
(-0.000443137 -0.00400095 0)
(-0.000449239 -0.00396702 0)
(-0.000455415 -0.00393361 0)
(-0.000461662 -0.00390071 0)
(-7.55827e-09 -0.000180747 0)
(-1.28092e-07 -0.000528441 0)
(-3.97593e-07 -0.000862314 0)
(-8.23285e-07 -0.00118234 0)
(-1.40549e-06 -0.00148851 0)
(-2.14722e-06 -0.0017808 0)
(-3.04836e-06 -0.00205918 0)
(-4.11276e-06 -0.00232366 0)
(-5.33844e-06 -0.00257421 0)
(-6.72969e-06 -0.00281083 0)
(-8.28266e-06 -0.00303351 0)
(-1.00032e-05 -0.00324223 0)
(-1.18858e-05 -0.003437 0)
(-1.3939e-05 -0.00361781 0)
(-1.61552e-05 -0.00378466 0)
(-1.85462e-05 -0.00393755 0)
(-2.11001e-05 -0.00407646 0)
(-2.38408e-05 -0.00420142 0)
(-2.67805e-05 -0.00431241 0)
(-2.99893e-05 -0.00440945 0)
(-3.33381e-05 -0.00449253 0)
(-3.62045e-05 -0.00456167 0)
(-3.75277e-05 -0.00461687 0)
(-4.0304e-05 -0.00465818 0)
(-6.05873e-05 -0.0046857 0)
(-0.000130039 -0.00470124 0)
(-0.000248023 -0.00470246 0)
(-0.000473281 -0.00469847 0)
(-0.000392047 -0.00464639 0)
(-0.000335824 -0.00460041 0)
(-0.000336197 -0.00455435 0)
(-0.000346522 -0.0045082 0)
(-0.000354632 -0.00446236 0)
(-0.000360843 -0.0044173 0)
(-0.000366726 -0.00437323 0)
(-0.00037276 -0.00433017 0)
(-0.00037893 -0.00428808 0)
(-0.000385176 -0.0042469 0)
(-0.000391479 -0.00420657 0)
(-0.000397841 -0.00416705 0)
(-0.000404263 -0.00412829 0)
(-0.000410743 -0.00409024 0)
(-0.000417279 -0.00405288 0)
(-0.00042387 -0.00401619 0)
(-0.00043051 -0.00398014 0)
(-0.000437199 -0.0039447 0)
(-0.000443933 -0.00390986 0)
(-0.000450709 -0.0038756 0)
(-0.000457523 -0.00384191 0)
(-0.000464375 -0.00380876 0)
(-0.000404218 -0.00516383 0)
(-0.000408484 -0.00513433 0)
(-0.000412717 -0.00510465 0)
(-0.000416915 -0.00507477 0)
(-0.000421079 -0.0050447 0)
(-0.000425208 -0.00501445 0)
(-0.000429301 -0.00498401 0)
(-0.000433359 -0.00495338 0)
(-0.000437379 -0.00492257 0)
(-0.000441364 -0.00489157 0)
(-0.000445311 -0.00486039 0)