/*--------------------------------*- C++ -*----------------------------------*\
| =========                 |                                                 |
| \\      /  F ield         | OpenFOAM: The Open Source CFD Toolbox           |
|  \\    /   O peration     | Version:  2.4.0                                 |
|   \\  /    A nd           | Web:      www.OpenFOAM.org                      |
|    \\/     M anipulation  |                                                 |
\*---------------------------------------------------------------------------*/
FoamFile
{
    version     2.0;
    format      ascii;
    class       volScalarField;
    location    "0.01";
    object      p_rgh;
}
// * * * * * * * * * * * * * * * * * * * * * * * * * * * * * * * * * * * * * //

dimensions      [1 -1 -2 0 0 0 0];

internalField   nonuniform List<scalar> 
125
(
-0.00842254
-0.00840898
-0.00839537
-0.00838171
-0.008368
-0.00835423
-0.00834042
-0.00832655
-0.00831264
-0.00829867
-0.00828466
-0.00827059
-0.00825647
-0.0082423
-0.00822807
-0.0082138
-0.00819947
-0.00818509
-0.00817066
-0.00815618
-0.00814164
-0.00812705
-0.00811241
-0.00809771
-0.00808296
-0.00806816
-0.0080533
-0.00803839
-0.00802342
-0.0080084
-0.00799332
-0.00797819
-0.007963
-0.00794776
-0.00793246
-0.0079171
-0.00790169
-0.00788623
-0.0078707
-0.00785512
-0.00783948
-0.00782379
-0.00780804
-0.00779223
-0.00777636
-0.00776043
-0.00774445
-0.00772841
-0.0077123
-0.00769614
-0.00767992
-0.00766365
-0.00764731
-0.00763091
-0.00761445
-0.00759793
-0.00758135
-0.00756471
-0.00754801
-0.00753125
-0.00751442
-0.00749754
-0.00748059
-0.00746358
-0.00744651
-0.00742937
-0.00741218
-0.00739492
-0.00737759
-0.00736021
-0.00734275
-0.00732524
-0.00730766
-0.00729002
-0.00727231
-0.00725453
-0.0072367
-0.00721879
-0.00720082
-0.00718279
-0.00716468
-0.00714652
-0.00712828
-0.00710998
-0.00709161
-0.00707317
-0.00705467
-0.0070361
-0.00701746
-0.00699875
-0.00697997
-0.00696112
-0.00694221
-0.00692322
-0.00690417
-0.00688504
-0.00686585
-0.00684658
-0.00682725
-0.00680784
-0.00678836
-0.00676881
-0.00674919
-0.0067295
-0.00670973
-0.00668989
-0.00666998
-0.00665
-0.00662994
-0.00660981
-0.0065896
-0.00656932
-0.00654897
-0.00652854
-0.00650803
-0.00648745
-0.0064668
-0.00644607
-0.00642526
-0.00640438
-0.00638342
-0.00636238
-0.00634126
-0.00632007
-0.00629879
)
;

boundaryField
{
    BotWall
    {
        type            fixedFluxPressure;
        gradient        nonuniform 0();
        value           nonuniform 0();
    }
    FreeStream
    {
        type            totalPressure;
        rho             rho;
        psi             none;
        gamma           1;
        p0              nonuniform 0();
        value           nonuniform 0();
    }
    FrontNBack
    {
        type            empty;
    }
    LeftSide
    {
        type            symmetryPlane;
    }
    RightSide
    {
        type            symmetryPlane;
    }
    procBoundary6to3
    {
        type            processor;
        value           nonuniform List<scalar> 
50
(
-0.00725768
-0.00723984
-0.00722193
-0.00720395
-0.00718591
-0.0071678
-0.00714963
-0.00713138
-0.00711308
-0.0070947
-0.00707626
-0.00705774
-0.00703916
-0.00702052
-0.0070018
-0.00698301
-0.00696416
-0.00694523
-0.00692624
-0.00690718
-0.00688804
-0.00686884
-0.00684956
-0.00683022
-0.0068108
-0.00679131
-0.00677175
-0.00675212
-0.00673241
-0.00671263
-0.00669278
-0.00667286
-0.00665286
-0.00663279
-0.00661265
-0.00659243
-0.00657214
-0.00655177
-0.00653133
-0.00651081
-0.00649022
-0.00646955
-0.0064488
-0.00642798
-0.00640708
-0.00638611
-0.00636506
-0.00634393
-0.00632272
-0.00630143
)
;
    }
    procBoundary6to4
    {
        type            processor;
        value           nonuniform List<scalar> 
75
(
-0.0084238
-0.00841028
-0.00839671
-0.00838309
-0.00836941
-0.00835569
-0.00834192
-0.0083281
-0.00831422
-0.0083003
-0.00828632
-0.00827229
-0.00825821
-0.00824408
-0.00822989
-0.00821566
-0.00820137
-0.00818702
-0.00817263
-0.00815818
-0.00814367
-0.00812912
-0.00811451
-0.00809984
-0.00808512
-0.00807035
-0.00805552
-0.00804064
-0.0080257
-0.00801071
-0.00799566
-0.00798056
-0.0079654
-0.00795018
-0.00793491
-0.00791958
-0.0079042
-0.00788876
-0.00787326
-0.0078577
-0.00784209
-0.00782642
-0.00781069
-0.0077949
-0.00777905
-0.00776315
-0.00774719
-0.00773116
-0.00771508
-0.00769894
-0.00768274
-0.00766648
-0.00765016
-0.00763378
-0.00761734
-0.00760084
-0.00758428
-0.00756765
-0.00755097
-0.00753422
-0.00751741
-0.00750054
-0.00748361
-0.00746662
-0.00744956
-0.00743244
-0.00741525
-0.00739801
-0.0073807
-0.00736332
-0.00734588
-0.00732838
-0.00731081
-0.00729317
-0.00727546
)
;
    }
    procBoundary6to5
    {
        type            processor;
        value           uniform -0.00627744;
    }
    procBoundary6to7
    {
        type            processor;
        value           uniform -0.00843603;
    }
    procBoundary6to8
    {
        type            processor;
        value           nonuniform List<scalar> 
75
(
-0.00767543
-0.00765918
-0.00764286
-0.00762647
-0.00761003
-0.00759353
-0.00757697
-0.00756034
-0.00754366
-0.00752691
-0.00751011
-0.00749324
-0.00747631
-0.00745931
-0.00744226
-0.00742514
-0.00740796
-0.00739071
-0.0073734
-0.00735603
-0.0073386
-0.0073211
-0.00730353
-0.0072859
-0.00726821
-0.00725045
-0.00723263
-0.00721474
-0.00719679
-0.00717877
-0.00716068
-0.00714252
-0.0071243
-0.00710602
-0.00708766
-0.00706924
-0.00705075
-0.00703219
-0.00701357
-0.00699487
-0.00697611
-0.00695728
-0.00693837
-0.0069194
-0.00690036
-0.00688125
-0.00686207
-0.00684282
-0.0068235
-0.0068041
-0.00678464
-0.0067651
-0.00674549
-0.00672581
-0.00670606
-0.00668623
-0.00666633
-0.00664636
-0.00662632
-0.0066062
-0.006586
-0.00656574
-0.00654539
-0.00652498
-0.00650449
-0.00648392
-0.00646328
-0.00644256
-0.00642176
-0.00640089
-0.00637994
-0.00635892
-0.00633781
-0.00631663
-0.00629537
)
;
    }
    procBoundary6to9
    {
        type            processor;
        value           nonuniform List<scalar> 
50
(
-0.00841561
-0.0084021
-0.00838855
-0.00837494
-0.00836128
-0.00834757
-0.00833382
-0.00832001
-0.00830615
-0.00829224
-0.00827828
-0.00826426
-0.0082502
-0.00823608
-0.00822191
-0.00820769
-0.00819342
-0.00817909
-0.00816471
-0.00815028
-0.00813579
-0.00812125
-0.00810666
-0.00809201
-0.00807731
-0.00806256
-0.00804775
-0.00803288
-0.00801797
-0.00800299
-0.00798796
-0.00797288
-0.00795774
-0.00794254
-0.00792729
-0.00791198
-0.00789662
-0.0078812
-0.00786572
-0.00785019
-0.00783459
-0.00781894
-0.00780324
-0.00778747
-0.00777165
-0.00775577
-0.00773983
-0.00772382
-0.00770776
-0.00769163
)
;
    }
}


// ************************************************************************* //
