/*--------------------------------*- C++ -*----------------------------------*\
| =========                 |                                                 |
| \\      /  F ield         | OpenFOAM: The Open Source CFD Toolbox           |
|  \\    /   O peration     | Version:  2.4.0                                 |
|   \\  /    A nd           | Web:      www.OpenFOAM.org                      |
|    \\/     M anipulation  |                                                 |
\*---------------------------------------------------------------------------*/
FoamFile
{
    version     2.0;
    format      ascii;
    class       volVectorField;
    location    "0.01";
    object      U;
}
// * * * * * * * * * * * * * * * * * * * * * * * * * * * * * * * * * * * * * //

dimensions      [0 1 -1 0 0 0 0];

internalField   nonuniform List<vector> 
125
(
(-2.79868e-05 -0.0210459 0)
(-2.8398e-05 -0.0210458 0)
(-2.87506e-05 -0.0210456 0)
(-2.9047e-05 -0.0210455 0)
(-2.92894e-05 -0.0210454 0)
(-2.94803e-05 -0.0210452 0)
(-2.96221e-05 -0.0210451 0)
(-2.97172e-05 -0.0210449 0)
(-2.97679e-05 -0.0210448 0)
(-2.97768e-05 -0.0210446 0)
(-2.97462e-05 -0.0210445 0)
(-2.96784e-05 -0.0210443 0)
(-2.95758e-05 -0.0210442 0)
(-2.94408e-05 -0.021044 0)
(-2.92756e-05 -0.0210439 0)
(-2.90825e-05 -0.0210437 0)
(-2.88635e-05 -0.0210436 0)
(-2.8621e-05 -0.0210434 0)
(-2.83569e-05 -0.0210433 0)
(-2.80732e-05 -0.0210431 0)
(-2.7772e-05 -0.021043 0)
(-2.7455e-05 -0.0210428 0)
(-2.71241e-05 -0.0210427 0)
(-2.6781e-05 -0.0210425 0)
(-2.64273e-05 -0.0210424 0)
(-2.60647e-05 -0.0210422 0)
(-2.56945e-05 -0.0210421 0)
(-2.53183e-05 -0.0210419 0)
(-2.49372e-05 -0.0210418 0)
(-2.45527e-05 -0.0210417 0)
(-2.41657e-05 -0.0210415 0)
(-2.37774e-05 -0.0210414 0)
(-2.33888e-05 -0.0210413 0)
(-2.30008e-05 -0.0210411 0)
(-2.26142e-05 -0.021041 0)
(-2.22298e-05 -0.0210409 0)
(-2.18483e-05 -0.0210407 0)
(-2.14702e-05 -0.0210406 0)
(-2.10961e-05 -0.0210405 0)
(-2.07266e-05 -0.0210404 0)
(-2.0362e-05 -0.0210402 0)
(-2.00026e-05 -0.0210401 0)
(-1.96489e-05 -0.02104 0)
(-1.93009e-05 -0.0210399 0)
(-1.89591e-05 -0.0210398 0)
(-1.86234e-05 -0.0210396 0)
(-1.8294e-05 -0.0210395 0)
(-1.79709e-05 -0.0210394 0)
(-1.76543e-05 -0.0210393 0)
(-1.73441e-05 -0.0210392 0)
(-1.70404e-05 -0.0210391 0)
(-1.67429e-05 -0.021039 0)
(-1.64518e-05 -0.0210389 0)
(-1.61669e-05 -0.0210388 0)
(-1.5888e-05 -0.0210387 0)
(-1.56151e-05 -0.0210386 0)
(-1.5348e-05 -0.0210385 0)
(-1.50866e-05 -0.0210384 0)
(-1.48307e-05 -0.0210383 0)
(-1.45802e-05 -0.0210382 0)
(-1.43349e-05 -0.0210381 0)
(-1.40947e-05 -0.021038 0)
(-1.38593e-05 -0.0210379 0)
(-1.36286e-05 -0.0210378 0)
(-1.34025e-05 -0.0210377 0)
(-1.31808e-05 -0.0210376 0)
(-1.29632e-05 -0.0210375 0)
(-1.27498e-05 -0.0210374 0)
(-1.25402e-05 -0.0210373 0)
(-1.23344e-05 -0.0210372 0)
(-1.21323e-05 -0.0210371 0)
(-1.19336e-05 -0.021037 0)
(-1.17383e-05 -0.0210369 0)
(-1.15463e-05 -0.0210369 0)
(-1.13574e-05 -0.0210368 0)
(-1.11715e-05 -0.0210367 0)
(-1.09885e-05 -0.0210366 0)
(-1.08084e-05 -0.0210365 0)
(-1.0631e-05 -0.0210364 0)
(-1.04562e-05 -0.0210364 0)
(-1.02841e-05 -0.0210363 0)
(-1.01144e-05 -0.0210362 0)
(-9.94717e-06 -0.0210361 0)
(-9.78231e-06 -0.021036 0)
(-9.61976e-06 -0.0210359 0)
(-9.45949e-06 -0.0210359 0)
(-9.30142e-06 -0.0210358 0)
(-9.14552e-06 -0.0210357 0)
(-8.99175e-06 -0.0210356 0)
(-8.84007e-06 -0.0210356 0)
(-8.69043e-06 -0.0210355 0)
(-8.54282e-06 -0.0210354 0)
(-8.3972e-06 -0.0210353 0)
(-8.25354e-06 -0.0210353 0)
(-8.11181e-06 -0.0210352 0)
(-7.972e-06 -0.0210351 0)
(-7.83407e-06 -0.021035 0)
(-7.69801e-06 -0.021035 0)
(-7.5638e-06 -0.0210349 0)
(-7.43141e-06 -0.0210348 0)
(-7.30084e-06 -0.0210348 0)
(-7.17207e-06 -0.0210347 0)
(-7.04507e-06 -0.0210346 0)
(-6.91984e-06 -0.0210345 0)
(-6.79635e-06 -0.0210345 0)
(-6.6746e-06 -0.0210344 0)
(-6.55458e-06 -0.0210343 0)
(-6.43625e-06 -0.0210343 0)
(-6.31962e-06 -0.0210342 0)
(-6.20468e-06 -0.0210341 0)
(-6.09139e-06 -0.0210341 0)
(-5.97976e-06 -0.021034 0)
(-5.86978e-06 -0.0210339 0)
(-5.76141e-06 -0.0210339 0)
(-5.65467e-06 -0.0210338 0)
(-5.54952e-06 -0.0210338 0)
(-5.44596e-06 -0.0210337 0)
(-5.34397e-06 -0.0210336 0)
(-5.24354e-06 -0.0210336 0)
(-5.14465e-06 -0.0210335 0)
(-5.04729e-06 -0.0210335 0)
(-4.95145e-06 -0.0210334 0)
(-4.85711e-06 -0.0210333 0)
(-4.76426e-06 -0.0210333 0)
(-4.67288e-06 -0.0210332 0)
)
;

boundaryField
{
    BotWall
    {
        type            fixedValue;
        value           nonuniform 0();
    }
    FreeStream
    {
        type            zeroGradient;
    }
    FrontNBack
    {
        type            empty;
    }
    LeftSide
    {
        type            symmetryPlane;
    }
    RightSide
    {
        type            symmetryPlane;
    }
    procBoundary6to3
    {
        type            processor;
        value           nonuniform List<vector> 
50
(
(1.32159e-05 -0.0210361 0)
(1.30738e-05 -0.021036 0)
(1.29348e-05 -0.021036 0)
(1.27985e-05 -0.0210359 0)
(1.26649e-05 -0.0210358 0)
(1.25339e-05 -0.0210358 0)
(1.24053e-05 -0.0210357 0)
(1.22789e-05 -0.0210357 0)
(1.21548e-05 -0.0210356 0)
(1.20327e-05 -0.0210355 0)
(1.19126e-05 -0.0210355 0)
(1.17944e-05 -0.0210354 0)
(1.16781e-05 -0.0210354 0)
(1.15634e-05 -0.0210353 0)
(1.14504e-05 -0.0210353 0)
(1.1339e-05 -0.0210352 0)
(1.12291e-05 -0.0210351 0)
(1.11207e-05 -0.0210351 0)
(1.10137e-05 -0.021035 0)
(1.0908e-05 -0.021035 0)
(1.08037e-05 -0.0210349 0)
(1.07006e-05 -0.0210349 0)
(1.05987e-05 -0.0210348 0)
(1.0498e-05 -0.0210348 0)
(1.03984e-05 -0.0210347 0)
(1.02999e-05 -0.0210347 0)
(1.02025e-05 -0.0210346 0)
(1.0106e-05 -0.0210346 0)
(1.00106e-05 -0.0210345 0)
(9.91615e-06 -0.0210345 0)
(9.82262e-06 -0.0210344 0)
(9.72999e-06 -0.0210344 0)
(9.63824e-06 -0.0210343 0)
(9.54734e-06 -0.0210343 0)
(9.45727e-06 -0.0210342 0)
(9.36801e-06 -0.0210342 0)
(9.27953e-06 -0.0210341 0)
(9.19182e-06 -0.0210341 0)
(9.10485e-06 -0.021034 0)
(9.0186e-06 -0.021034 0)
(8.93306e-06 -0.021034 0)
(8.84821e-06 -0.0210339 0)
(8.76403e-06 -0.0210339 0)
(8.68051e-06 -0.0210338 0)
(8.59763e-06 -0.0210338 0)
(8.51537e-06 -0.0210337 0)
(8.43372e-06 -0.0210337 0)
(8.35267e-06 -0.0210336 0)
(8.27221e-06 -0.0210336 0)
(8.19232e-06 -0.0210336 0)
)
;
    }
    procBoundary6to4
    {
        type            processor;
        value           nonuniform List<vector> 
75
(
(3.11995e-05 -0.0210438 0)
(3.16298e-05 -0.0210437 0)
(3.19927e-05 -0.0210436 0)
(3.22911e-05 -0.0210435 0)
(3.25276e-05 -0.0210433 0)
(3.27052e-05 -0.0210432 0)
(3.28266e-05 -0.0210431 0)
(3.28947e-05 -0.0210429 0)
(3.29123e-05 -0.0210428 0)
(3.28825e-05 -0.0210427 0)
(3.2808e-05 -0.0210425 0)
(3.26916e-05 -0.0210424 0)
(3.25363e-05 -0.0210422 0)
(3.23448e-05 -0.0210421 0)
(3.21199e-05 -0.021042 0)
(3.18643e-05 -0.0210418 0)
(3.15806e-05 -0.0210417 0)
(3.12714e-05 -0.0210416 0)
(3.09392e-05 -0.0210414 0)
(3.05865e-05 -0.0210413 0)
(3.02156e-05 -0.0210412 0)
(2.98288e-05 -0.021041 0)
(2.94282e-05 -0.0210409 0)
(2.9016e-05 -0.0210408 0)
(2.85942e-05 -0.0210407 0)
(2.81645e-05 -0.0210405 0)
(2.77289e-05 -0.0210404 0)
(2.72889e-05 -0.0210403 0)
(2.68462e-05 -0.0210402 0)
(2.64021e-05 -0.0210401 0)
(2.59582e-05 -0.0210399 0)
(2.55155e-05 -0.0210398 0)
(2.50754e-05 -0.0210397 0)
(2.46387e-05 -0.0210396 0)
(2.42066e-05 -0.0210395 0)
(2.37798e-05 -0.0210394 0)
(2.33592e-05 -0.0210393 0)
(2.29453e-05 -0.0210392 0)
(2.25388e-05 -0.0210391 0)
(2.21402e-05 -0.021039 0)
(2.17499e-05 -0.0210389 0)
(2.13682e-05 -0.0210388 0)
(2.09955e-05 -0.0210387 0)
(2.0632e-05 -0.0210386 0)
(2.02778e-05 -0.0210385 0)
(1.9933e-05 -0.0210384 0)
(1.95976e-05 -0.0210383 0)
(1.92717e-05 -0.0210382 0)
(1.89553e-05 -0.0210381 0)
(1.86481e-05 -0.021038 0)
(1.83502e-05 -0.0210379 0)
(1.80613e-05 -0.0210379 0)
(1.77813e-05 -0.0210378 0)
(1.751e-05 -0.0210377 0)
(1.72471e-05 -0.0210376 0)
(1.69924e-05 -0.0210375 0)
(1.67458e-05 -0.0210374 0)
(1.65068e-05 -0.0210374 0)
(1.62752e-05 -0.0210373 0)
(1.60508e-05 -0.0210372 0)
(1.58333e-05 -0.0210371 0)
(1.56223e-05 -0.0210371 0)
(1.54177e-05 -0.021037 0)
(1.52192e-05 -0.0210369 0)
(1.50264e-05 -0.0210368 0)
(1.48391e-05 -0.0210368 0)
(1.4657e-05 -0.0210367 0)
(1.448e-05 -0.0210366 0)
(1.43077e-05 -0.0210366 0)
(1.41399e-05 -0.0210365 0)
(1.39764e-05 -0.0210364 0)
(1.3817e-05 -0.0210364 0)
(1.36614e-05 -0.0210363 0)
(1.35095e-05 -0.0210362 0)
(1.3361e-05 -0.0210362 0)
)
;
    }
    procBoundary6to5
    {
        type            processor;
        value           uniform (-4.58295e-06 -0.0210332 0);
    }
    procBoundary6to7
    {
        type            processor;
        value           uniform (-2.75147e-05 -0.0210461 0);
    }
    procBoundary6to8
    {
        type            processor;
        value           nonuniform List<vector> 
75
(
(-1.76359e-05 -0.0210195 0)
(-1.74005e-05 -0.0210196 0)
(-1.7168e-05 -0.0210197 0)
(-1.69387e-05 -0.0210198 0)
(-1.67123e-05 -0.0210199 0)
(-1.64891e-05 -0.0210201 0)
(-1.62689e-05 -0.0210202 0)
(-1.60518e-05 -0.0210203 0)
(-1.58378e-05 -0.0210204 0)
(-1.56268e-05 -0.0210205 0)
(-1.54188e-05 -0.0210206 0)
(-1.52137e-05 -0.0210207 0)
(-1.50116e-05 -0.0210208 0)
(-1.48123e-05 -0.0210209 0)
(-1.46158e-05 -0.021021 0)
(-1.44222e-05 -0.0210211 0)
(-1.42312e-05 -0.0210212 0)
(-1.40429e-05 -0.0210213 0)
(-1.38572e-05 -0.0210214 0)
(-1.36741e-05 -0.0210215 0)
(-1.34935e-05 -0.0210216 0)
(-1.33153e-05 -0.0210217 0)
(-1.31396e-05 -0.0210217 0)
(-1.29662e-05 -0.0210218 0)
(-1.27952e-05 -0.0210219 0)
(-1.26264e-05 -0.021022 0)
(-1.24598e-05 -0.0210221 0)
(-1.22955e-05 -0.0210222 0)
(-1.21333e-05 -0.0210223 0)
(-1.19732e-05 -0.0210224 0)
(-1.18152e-05 -0.0210225 0)
(-1.16592e-05 -0.0210225 0)
(-1.15052e-05 -0.0210226 0)
(-1.13532e-05 -0.0210227 0)
(-1.12032e-05 -0.0210228 0)
(-1.10551e-05 -0.0210229 0)
(-1.09089e-05 -0.0210229 0)
(-1.07646e-05 -0.021023 0)
(-1.06221e-05 -0.0210231 0)
(-1.04814e-05 -0.0210232 0)
(-1.03426e-05 -0.0210233 0)
(-1.02055e-05 -0.0210233 0)
(-1.00702e-05 -0.0210234 0)
(-9.93667e-06 -0.0210235 0)
(-9.80485e-06 -0.0210236 0)
(-9.67475e-06 -0.0210236 0)
(-9.54635e-06 -0.0210237 0)
(-9.41962e-06 -0.0210238 0)
(-9.29457e-06 -0.0210238 0)
(-9.17116e-06 -0.0210239 0)
(-9.04938e-06 -0.021024 0)
(-8.92923e-06 -0.021024 0)
(-8.81068e-06 -0.0210241 0)
(-8.69372e-06 -0.0210242 0)
(-8.57834e-06 -0.0210242 0)
(-8.46452e-06 -0.0210243 0)
(-8.35224e-06 -0.0210244 0)
(-8.2415e-06 -0.0210244 0)
(-8.13228e-06 -0.0210245 0)
(-8.02456e-06 -0.0210246 0)
(-7.91833e-06 -0.0210246 0)
(-7.81357e-06 -0.0210247 0)
(-7.71027e-06 -0.0210247 0)
(-7.60841e-06 -0.0210248 0)
(-7.50799e-06 -0.0210249 0)
(-7.40897e-06 -0.0210249 0)
(-7.31136e-06 -0.021025 0)
(-7.21513e-06 -0.021025 0)
(-7.12028e-06 -0.0210251 0)
(-7.02677e-06 -0.0210251 0)
(-6.93461e-06 -0.0210252 0)
(-6.84376e-06 -0.0210253 0)
(-6.75423e-06 -0.0210253 0)
(-6.66599e-06 -0.0210254 0)
(-6.57904e-06 -0.0210254 0)
)
;
    }
    procBoundary6to9
    {
        type            processor;
        value           nonuniform List<vector> 
50
(
(-2.30371e-05 -0.0210127 0)
(-2.34518e-05 -0.0210128 0)
(-2.38224e-05 -0.0210129 0)
(-2.41505e-05 -0.0210131 0)
(-2.44378e-05 -0.0210132 0)
(-2.4686e-05 -0.0210133 0)
(-2.48966e-05 -0.0210135 0)
(-2.50714e-05 -0.0210136 0)
(-2.52119e-05 -0.0210138 0)
(-2.53199e-05 -0.0210139 0)
(-2.53969e-05 -0.0210141 0)
(-2.54445e-05 -0.0210142 0)
(-2.54644e-05 -0.0210144 0)
(-2.54581e-05 -0.0210145 0)
(-2.54272e-05 -0.0210147 0)
(-2.53732e-05 -0.0210148 0)
(-2.52975e-05 -0.021015 0)
(-2.52017e-05 -0.0210151 0)
(-2.50872e-05 -0.0210153 0)
(-2.49553e-05 -0.0210154 0)
(-2.48074e-05 -0.0210156 0)
(-2.46447e-05 -0.0210157 0)
(-2.44687e-05 -0.0210158 0)
(-2.42803e-05 -0.021016 0)
(-2.40808e-05 -0.0210161 0)
(-2.38714e-05 -0.0210163 0)
(-2.3653e-05 -0.0210164 0)
(-2.34268e-05 -0.0210166 0)
(-2.31935e-05 -0.0210167 0)
(-2.29542e-05 -0.0210168 0)
(-2.27097e-05 -0.021017 0)
(-2.24609e-05 -0.0210171 0)
(-2.22084e-05 -0.0210173 0)
(-2.1953e-05 -0.0210174 0)
(-2.16953e-05 -0.0210175 0)
(-2.1436e-05 -0.0210177 0)
(-2.11756e-05 -0.0210178 0)
(-2.09146e-05 -0.0210179 0)
(-2.06536e-05 -0.021018 0)
(-2.03929e-05 -0.0210182 0)
(-2.01329e-05 -0.0210183 0)
(-1.98741e-05 -0.0210184 0)
(-1.96166e-05 -0.0210186 0)
(-1.93609e-05 -0.0210187 0)
(-1.91071e-05 -0.0210188 0)
(-1.88555e-05 -0.0210189 0)
(-1.86063e-05 -0.021019 0)
(-1.83596e-05 -0.0210192 0)
(-1.81156e-05 -0.0210193 0)
(-1.78743e-05 -0.0210194 0)
)
;
    }
}


// ************************************************************************* //
