/*--------------------------------*- C++ -*----------------------------------*\
| =========                 |                                                 |
| \\      /  F ield         | OpenFOAM: The Open Source CFD Toolbox           |
|  \\    /   O peration     | Version:  2.4.0                                 |
|   \\  /    A nd           | Web:      www.OpenFOAM.org                      |
|    \\/     M anipulation  |                                                 |
\*---------------------------------------------------------------------------*/
FoamFile
{
    version     2.0;
    format      ascii;
    class       surfaceScalarField;
    location    "0.5";
    object      phi;
}
// * * * * * * * * * * * * * * * * * * * * * * * * * * * * * * * * * * * * * //

dimensions      [0 3 -1 0 0 0 0];

internalField   nonuniform List<scalar> 
220
(
-1.96091e-17
-5.7297e-10
-4.30305e-17
-5.72971e-10
-7.89656e-17
-5.7297e-10
-7.91915e-17
-5.72971e-10
-5.72973e-10
-1.94411e-17
-5.7297e-10
-4.35179e-17
-5.72971e-10
-7.96556e-17
-5.7297e-10
-7.9586e-17
-5.72971e-10
-5.72973e-10
-1.92553e-17
-5.7297e-10
-4.39709e-17
-5.72971e-10
-8.02535e-17
-5.7297e-10
-7.98701e-17
-5.72971e-10
-5.72973e-10
-1.9056e-17
-5.7297e-10
-4.43916e-17
-5.72971e-10
-8.07577e-17
-5.7297e-10
-8.00405e-17
-5.72971e-10
-5.72973e-10
-1.88474e-17
-5.7297e-10
-4.47819e-17
-5.72971e-10
-8.1167e-17
-5.7297e-10
-8.00951e-17
-5.72971e-10
-5.72973e-10
-1.86337e-17
-5.7297e-10
-4.51437e-17
-5.72971e-10
-8.14807e-17
-5.7297e-10
-8.00322e-17
-5.72971e-10
-5.72973e-10
-1.8419e-17
-5.7297e-10
-4.5479e-17
-5.72971e-10
-8.16983e-17
-5.7297e-10
-7.98504e-17
-5.72971e-10
-5.72973e-10
-1.82072e-17
-5.7297e-10
-4.57897e-17
-5.72971e-10
-8.18197e-17
-5.7297e-10
-7.95493e-17
-5.72971e-10
-5.72973e-10
-1.80023e-17
-5.7297e-10
-4.60775e-17
-5.72971e-10
-8.18452e-17
-5.7297e-10
-7.91288e-17
-5.72971e-10
-5.72973e-10
-1.78078e-17
-5.7297e-10
-4.63444e-17
-5.72971e-10
-8.17756e-17
-5.7297e-10
-7.85896e-17
-5.72971e-10
-5.72973e-10
-1.7627e-17
-5.7297e-10
-4.6592e-17
-5.72971e-10
-8.1612e-17
-5.7297e-10
-7.7933e-17
-5.72971e-10
-5.72973e-10
-1.74631e-17
-5.7297e-10
-4.6822e-17
-5.72971e-10
-8.13558e-17
-5.7297e-10
-7.7161e-17
-5.72971e-10
-5.72974e-10
-1.73187e-17
-5.7297e-10
-4.70358e-17
-5.7297e-10
-8.10089e-17
-5.7297e-10
-7.62762e-17
-5.72971e-10
-5.72974e-10
-1.71963e-17
-5.7297e-10
-4.72348e-17
-5.7297e-10
-8.05737e-17
-5.7297e-10
-7.52819e-17
-5.72971e-10
-5.72974e-10
-1.70981e-17
-5.7297e-10
-4.74204e-17
-5.7297e-10
-8.00528e-17
-5.7297e-10
-7.4182e-17
-5.72972e-10
-5.72974e-10
-1.70257e-17
-5.7297e-10
-4.75936e-17
-5.7297e-10
-7.94494e-17
-5.7297e-10
-7.29813e-17
-5.72972e-10
-5.72974e-10
-1.69804e-17
-5.7297e-10
-4.77556e-17
-5.7297e-10
-7.87669e-17
-5.7297e-10
-7.16848e-17
-5.72972e-10
-5.72974e-10
-1.69633e-17
-5.7297e-10
-4.79072e-17
-5.7297e-10
-7.80091e-17
-5.7297e-10
-7.02986e-17
-5.72972e-10
-5.72974e-10
-1.69749e-17
-5.7297e-10
-4.80492e-17
-5.7297e-10
-7.71804e-17
-5.7297e-10
-6.88288e-17
-5.72972e-10
-5.72974e-10
-1.70153e-17
-5.7297e-10
-4.81824e-17
-5.7297e-10
-7.62854e-17
-5.7297e-10
-6.72825e-17
-5.72972e-10
-5.72974e-10
-1.70844e-17
-5.7297e-10
-4.83072e-17
-5.7297e-10
-7.53289e-17
-5.7297e-10
-6.56674e-17
-5.72972e-10
-5.72974e-10
-1.71816e-17
-5.7297e-10
-4.84243e-17
-5.7297e-10
-7.43159e-17
-5.7297e-10
-6.39923e-17
-5.72972e-10
-5.72974e-10
-1.73059e-17
-5.7297e-10
-4.8534e-17
-5.7297e-10
-7.32511e-17
-5.7297e-10
-6.22646e-17
-5.72972e-10
-5.72974e-10
-1.74562e-17
-5.7297e-10
-4.86368e-17
-5.7297e-10
-7.21418e-17
-5.7297e-10
-6.04911e-17
-5.72972e-10
-5.72974e-10
-1.7631e-17
-4.87324e-17
-7.09926e-17
-5.86834e-17
)
;

boundaryField
{
    BotWall
    {
        type            calculated;
        value           nonuniform 0();
    }
    FreeStream
    {
        type            calculated;
        value           nonuniform 0();
    }
    FrontNBack
    {
        type            empty;
        value           nonuniform 0();
    }
    LeftSide
    {
        type            symmetryPlane;
        value           uniform 0;
    }
    RightSide
    {
        type            symmetryPlane;
        value           uniform 0;
    }
    procBoundary2to1
    {
        type            processor;
        value           nonuniform List<scalar> 5(5.7297e-10 5.72971e-10 5.7297e-10 5.72971e-10 5.72973e-10);
    }
    procBoundary2to3
    {
        type            processor;
        value           nonuniform List<scalar> 5(-5.7297e-10 -5.7297e-10 -5.7297e-10 -5.72972e-10 -5.72974e-10);
    }
}


// ************************************************************************* //
