/*--------------------------------*- C++ -*----------------------------------*\
| =========                 |                                                 |
| \\      /  F ield         | OpenFOAM: The Open Source CFD Toolbox           |
|  \\    /   O peration     | Version:  2.4.0                                 |
|   \\  /    A nd           | Web:      www.OpenFOAM.org                      |
|    \\/     M anipulation  |                                                 |
\*---------------------------------------------------------------------------*/
FoamFile
{
    version     2.0;
    format      ascii;
    class       volVectorField;
    location    "0.5";
    object      U;
}
// * * * * * * * * * * * * * * * * * * * * * * * * * * * * * * * * * * * * * //

dimensions      [0 1 -1 0 0 0 0];

internalField   nonuniform List<vector> 
125
(
(-2.21049e-09 -0.00286485 0)
(-5.98884e-09 -0.00286485 0)
(-1.20204e-08 -0.00286485 0)
(-2.10303e-08 -0.00286486 0)
(-1.21126e-08 -0.00286486 0)
(-2.09364e-09 -0.00286485 0)
(-5.94556e-09 -0.00286485 0)
(-1.20667e-08 -0.00286485 0)
(-2.09049e-08 -0.00286486 0)
(-1.20354e-08 -0.00286486 0)
(-1.97591e-09 -0.00286485 0)
(-5.89839e-09 -0.00286485 0)
(-1.21006e-08 -0.00286485 0)
(-2.07518e-08 -0.00286486 0)
(-1.19412e-08 -0.00286486 0)
(-1.85828e-09 -0.00286485 0)
(-5.8483e-09 -0.00286485 0)
(-1.21225e-08 -0.00286485 0)
(-2.05714e-08 -0.00286486 0)
(-1.18299e-08 -0.00286486 0)
(-1.74169e-09 -0.00286485 0)
(-5.79618e-09 -0.00286485 0)
(-1.21326e-08 -0.00286485 0)
(-2.03643e-08 -0.00286486 0)
(-1.17014e-08 -0.00286486 0)
(-1.62703e-09 -0.00286485 0)
(-5.74292e-09 -0.00286485 0)
(-1.21314e-08 -0.00286485 0)
(-2.0131e-08 -0.00286486 0)
(-1.15561e-08 -0.00286487 0)
(-1.51511e-09 -0.00286485 0)
(-5.68931e-09 -0.00286485 0)
(-1.21191e-08 -0.00286485 0)
(-1.98724e-08 -0.00286486 0)
(-1.13941e-08 -0.00286487 0)
(-1.40672e-09 -0.00286485 0)
(-5.63611e-09 -0.00286485 0)
(-1.20961e-08 -0.00286485 0)
(-1.95892e-08 -0.00286486 0)
(-1.12159e-08 -0.00286487 0)
(-1.30255e-09 -0.00286485 0)
(-5.58399e-09 -0.00286485 0)
(-1.20628e-08 -0.00286485 0)
(-1.92825e-08 -0.00286486 0)
(-1.10218e-08 -0.00286487 0)
(-1.20321e-09 -0.00286485 0)
(-5.53357e-09 -0.00286485 0)
(-1.20196e-08 -0.00286485 0)
(-1.89534e-08 -0.00286486 0)
(-1.08126e-08 -0.00286487 0)
(-1.10926e-09 -0.00286485 0)
(-5.48538e-09 -0.00286485 0)
(-1.19668e-08 -0.00286485 0)
(-1.86029e-08 -0.00286486 0)
(-1.05888e-08 -0.00286487 0)
(-1.02117e-09 -0.00286485 0)
(-5.4399e-09 -0.00286485 0)
(-1.19049e-08 -0.00286485 0)
(-1.82326e-08 -0.00286486 0)
(-1.03514e-08 -0.00286487 0)
(-9.39308e-10 -0.00286485 0)
(-5.39752e-09 -0.00286485 0)
(-1.18341e-08 -0.00286485 0)
(-1.78436e-08 -0.00286486 0)
(-1.01011e-08 -0.00286487 0)
(-8.63992e-10 -0.00286485 0)
(-5.35854e-09 -0.00286485 0)
(-1.1755e-08 -0.00286485 0)
(-1.74375e-08 -0.00286486 0)
(-9.83883e-09 -0.00286487 0)
(-7.95439e-10 -0.00286485 0)
(-5.3232e-09 -0.00286485 0)
(-1.16679e-08 -0.00286485 0)
(-1.70158e-08 -0.00286486 0)
(-9.56576e-09 -0.00286487 0)
(-7.33787e-10 -0.00286485 0)
(-5.29166e-09 -0.00286485 0)
(-1.15732e-08 -0.00286485 0)
(-1.65801e-08 -0.00286486 0)
(-9.28294e-09 -0.00286487 0)
(-6.79094e-10 -0.00286485 0)
(-5.26402e-09 -0.00286485 0)
(-1.14714e-08 -0.00286485 0)
(-1.61321e-08 -0.00286486 0)
(-8.99156e-09 -0.00286487 0)
(-6.31339e-10 -0.00286485 0)
(-5.24028e-09 -0.00286485 0)
(-1.13628e-08 -0.00286485 0)
(-1.56735e-08 -0.00286486 0)
(-8.69282e-09 -0.00286487 0)
(-5.90429e-10 -0.00286485 0)
(-5.22041e-09 -0.00286485 0)
(-1.12479e-08 -0.00286485 0)
(-1.5206e-08 -0.00286486 0)
(-8.38802e-09 -0.00286487 0)
(-5.56196e-10 -0.00286485 0)
(-5.2043e-09 -0.00286485 0)
(-1.11272e-08 -0.00286485 0)
(-1.47314e-08 -0.00286486 0)
(-8.07845e-09 -0.00286487 0)
(-5.28408e-10 -0.00286485 0)
(-5.19177e-09 -0.00286485 0)
(-1.10011e-08 -0.00286485 0)
(-1.42516e-08 -0.00286486 0)
(-7.76548e-09 -0.00286487 0)
(-5.06771e-10 -0.00286485 0)
(-5.18262e-09 -0.00286485 0)
(-1.08701e-08 -0.00286485 0)
(-1.37684e-08 -0.00286486 0)
(-7.45047e-09 -0.00286487 0)
(-4.90938e-10 -0.00286485 0)
(-5.17657e-09 -0.00286485 0)
(-1.07346e-08 -0.00286485 0)
(-1.32834e-08 -0.00286486 0)
(-7.13455e-09 -0.00286487 0)
(-4.80515e-10 -0.00286485 0)
(-5.17333e-09 -0.00286485 0)
(-1.05952e-08 -0.00286485 0)
(-1.27984e-08 -0.00286486 0)
(-6.81912e-09 -0.00286487 0)
(-4.75082e-10 -0.00286485 0)
(-5.17254e-09 -0.00286485 0)
(-1.04524e-08 -0.00286485 0)
(-1.23152e-08 -0.00286486 0)
(-6.50542e-09 -0.00286487 0)
)
;

boundaryField
{
    BotWall
    {
        type            fixedValue;
        value           nonuniform 0();
    }
    FreeStream
    {
        type            zeroGradient;
    }
    FrontNBack
    {
        type            empty;
    }
    LeftSide
    {
        type            symmetryPlane;
    }
    RightSide
    {
        type            symmetryPlane;
    }
    procBoundary2to1
    {
        type            processor;
        value           nonuniform List<vector> 5((-2.32545e-09 -0.00286485 0) (-6.02722e-09 -0.00286485 0) (-1.19614e-08 -0.00286485 0) (-2.11278e-08 -0.00286486 0) (-1.21728e-08 -0.00286486 0));
    }
    procBoundary2to3
    {
        type            processor;
        value           nonuniform List<vector> 5((-4.7416e-10 -0.00286485 0) (-5.17385e-09 -0.00286485 0) (-1.03067e-08 -0.00286485 0) (-1.18358e-08 -0.00286486 0) (-6.19501e-09 -0.00286487 0));
    }
}


// ************************************************************************* //
