/*--------------------------------*- C++ -*----------------------------------*\
| =========                 |                                                 |
| \\      /  F ield         | OpenFOAM: The Open Source CFD Toolbox           |
|  \\    /   O peration     | Version:  2.4.0                                 |
|   \\  /    A nd           | Web:      www.OpenFOAM.org                      |
|    \\/     M anipulation  |                                                 |
\*---------------------------------------------------------------------------*/
FoamFile
{
    version     2.0;
    format      ascii;
    class       volScalarField;
    location    "0.013";
    object      p;
}
// * * * * * * * * * * * * * * * * * * * * * * * * * * * * * * * * * * * * * //

dimensions      [1 -1 -2 0 0 0 0];

internalField   nonuniform List<scalar> 
125
(
-0.0174587
-0.0230281
-0.0407127
-0.0808042
-0.292533
-0.0689795
-0.0387413
-0.0476508
-0.0535052
-0.0544797
-0.0542
-0.0540511
-0.0540888
-0.0541743
-0.0542546
-0.054328
-0.0543999
-0.0544722
-0.0545451
-0.0546183
-0.0546918
-0.0547656
-0.0548396
-0.0549139
-0.0549885
-0.0550633
-0.0551384
-0.0552138
-0.0552895
-0.0553654
-0.0554416
-0.0555181
-0.0555949
-0.055672
-0.0557494
-0.055827
-0.0559049
-0.0559831
-0.0560616
-0.0561404
-0.0562195
-0.0562989
-0.0563785
-0.0564585
-0.0565387
-0.0566192
-0.0567001
-0.0567812
-0.0568626
-0.0569443
-0.0570264
-0.0571087
-0.0571913
-0.0572743
-0.0573575
-0.057441
-0.0575249
-0.057609
-0.0576935
-0.0577782
-0.0578633
-0.0579487
-0.0580344
-0.0581204
-0.0582068
-0.0582934
-0.0583804
-0.0584677
-0.0585553
-0.0586432
-0.0587314
-0.05882
-0.0589089
-0.0589981
-0.0590876
-0.0591775
-0.0592677
-0.0593582
-0.0594491
-0.0595403
-0.0596318
-0.0597236
-0.0598158
-0.0599084
-0.0600012
-0.0600944
-0.060188
-0.0602819
-0.0603761
-0.0604707
-0.0605656
-0.0606609
-0.0607565
-0.0608524
-0.0609488
-0.0610454
-0.0611424
-0.0612398
-0.0613375
-0.0614356
-0.0615341
-0.0616329
-0.061732
-0.0618316
-0.0619314
-0.0620317
-0.0621323
-0.0622333
-0.0623347
-0.0624364
-0.0625385
-0.0626409
-0.0627438
-0.062847
-0.0629506
-0.0630546
-0.0631589
-0.0632636
-0.0633688
-0.0634743
-0.0635801
-0.0636864
-0.063793
-0.0639
-0.0640074
)
;

boundaryField
{
    BotWall
    {
        type            calculated;
        value           uniform -0.0125153;
    }
    FreeStream
    {
        type            calculated;
        value           nonuniform 0();
    }
    FrontNBack
    {
        type            empty;
    }
    LeftSide
    {
        type            symmetryPlane;
    }
    RightSide
    {
        type            symmetryPlane;
    }
    procBoundary11to8
    {
        type            processor;
        value           nonuniform List<scalar> 
50
(
-0.062386
-0.0624601
-0.0625345
-0.0626092
-0.0626842
-0.0627596
-0.0628353
-0.0629114
-0.0629878
-0.0630646
-0.0631417
-0.0632192
-0.0632971
-0.0633753
-0.0634538
-0.0635327
-0.063612
-0.0636916
-0.0637716
-0.063852
-0.0639327
-0.0640138
-0.0640953
-0.0641771
-0.0642594
-0.0643419
-0.0644249
-0.0645082
-0.064592
-0.0646761
-0.0647605
-0.0648454
-0.0649306
-0.0650163
-0.0651023
-0.0651887
-0.0652755
-0.0653627
-0.0654502
-0.0655382
-0.0656266
-0.0657153
-0.0658045
-0.0658941
-0.065984
-0.0660744
-0.0661652
-0.0662564
-0.0663479
-0.0664399
)
;
    }
    procBoundary11to9
    {
        type            processor;
        value           nonuniform List<scalar> 
75
(
-0.0218891
-0.0277791
-0.0447759
-0.0874928
-0.290815
-0.0723399
-0.0433275
-0.0521108
-0.0578183
-0.058744
-0.0584523
-0.0582924
-0.0583152
-0.0583843
-0.0584484
-0.0585056
-0.0585613
-0.0586176
-0.0586743
-0.0587314
-0.0587887
-0.0588463
-0.0589041
-0.0589623
-0.0590207
-0.0590793
-0.0591383
-0.0591975
-0.0592569
-0.0593167
-0.0593767
-0.059437
-0.0594976
-0.0595585
-0.0596197
-0.0596811
-0.0597428
-0.0598048
-0.0598671
-0.0599297
-0.0599926
-0.0600558
-0.0601192
-0.060183
-0.060247
-0.0603114
-0.060376
-0.060441
-0.0605062
-0.0605718
-0.0606376
-0.0607038
-0.0607702
-0.060837
-0.0609041
-0.0609715
-0.0610392
-0.0611072
-0.0611755
-0.0612441
-0.0613131
-0.0613824
-0.061452
-0.0615219
-0.0615921
-0.0616627
-0.0617335
-0.0618048
-0.0618763
-0.0619482
-0.0620204
-0.0620929
-0.0621657
-0.0622389
-0.0623123
)
;
    }
    procBoundary11to10
    {
        type            processor;
        value           uniform -0.0641151;
    }
}


// ************************************************************************* //
