/*--------------------------------*- C++ -*----------------------------------*\
| =========                 |                                                 |
| \\      /  F ield         | OpenFOAM: The Open Source CFD Toolbox           |
|  \\    /   O peration     | Version:  2.4.0                                 |
|   \\  /    A nd           | Web:      www.OpenFOAM.org                      |
|    \\/     M anipulation  |                                                 |
\*---------------------------------------------------------------------------*/
FoamFile
{
    version     2.0;
    format      ascii;
    class       surfaceScalarField;
    location    "0.013";
    object      phi;
}
// * * * * * * * * * * * * * * * * * * * * * * * * * * * * * * * * * * * * * //

dimensions      [0 3 -1 0 0 0 0];

internalField   nonuniform List<scalar> 
124
(
-2.31961e-19
9.13768e-17
2.8451e-16
5.64405e-16
-2.90961e-09
-2.90961e-09
-2.90961e-09
-2.90961e-09
-2.9096e-09
-2.9096e-09
-2.9096e-09
-2.90959e-09
-2.90959e-09
-2.90958e-09
-2.90958e-09
-2.90957e-09
-2.90956e-09
-2.90956e-09
-2.90955e-09
-2.90955e-09
-2.90954e-09
-2.90954e-09
-2.90953e-09
-2.90953e-09
-2.90952e-09
-2.90952e-09
-2.90952e-09
-2.90951e-09
-2.90951e-09
-2.90951e-09
-2.90951e-09
-2.9095e-09
-2.9095e-09
-2.9095e-09
-2.9095e-09
-2.9095e-09
-2.90949e-09
-2.90949e-09
-2.90949e-09
-2.90949e-09
-2.90948e-09
-2.90948e-09
-2.90948e-09
-2.90948e-09
-2.90947e-09
-2.90947e-09
-2.90947e-09
-2.90946e-09
-2.90946e-09
-2.90946e-09
-2.90945e-09
-2.90945e-09
-2.90945e-09
-2.90944e-09
-2.90944e-09
-2.90944e-09
-2.90943e-09
-2.90943e-09
-2.90943e-09
-2.90942e-09
-2.90942e-09
-2.90942e-09
-2.90941e-09
-2.90941e-09
-2.9094e-09
-2.9094e-09
-2.9094e-09
-2.90939e-09
-2.90939e-09
-2.90938e-09
-2.90938e-09
-2.90938e-09
-2.90937e-09
-2.90937e-09
-2.90936e-09
-2.90936e-09
-2.90936e-09
-2.90935e-09
-2.90935e-09
-2.90934e-09
-2.90934e-09
-2.90933e-09
-2.90933e-09
-2.90933e-09
-2.90932e-09
-2.90932e-09
-2.90931e-09
-2.90931e-09
-2.9093e-09
-2.9093e-09
-2.90929e-09
-2.90929e-09
-2.90929e-09
-2.90928e-09
-2.90928e-09
-2.90927e-09
-2.90927e-09
-2.90926e-09
-2.90926e-09
-2.90925e-09
-2.90925e-09
-2.90925e-09
-2.90924e-09
-2.90924e-09
-2.90923e-09
-2.90923e-09
-2.90922e-09
-2.90922e-09
-2.90921e-09
-2.90921e-09
-2.9092e-09
-2.9092e-09
-2.90919e-09
-2.90919e-09
-2.90919e-09
-2.90918e-09
-2.90918e-09
-2.90917e-09
-2.90917e-09
-2.90916e-09
-2.90916e-09
-2.90915e-09
-2.90915e-09
-2.90914e-09
)
;

boundaryField
{
    BotWall
    {
        type            calculated;
        value           uniform 1.6378e-22;
    }
    FreeStream
    {
        type            calculated;
        value           nonuniform 0();
    }
    FrontNBack
    {
        type            empty;
        value           nonuniform 0();
    }
    LeftSide
    {
        type            symmetryPlane;
        value           nonuniform 0();
    }
    RightSide
    {
        type            symmetryPlane;
        value           uniform 0;
    }
    procBoundary11to8
    {
        type            processor;
        value           nonuniform List<scalar> 
50
(
-4.15002e-15
-4.17327e-15
-4.19598e-15
-4.21815e-15
-4.23977e-15
-4.26083e-15
-4.28132e-15
-4.30123e-15
-4.32054e-15
-4.33926e-15
-4.35736e-15
-4.37484e-15
-4.3917e-15
-4.40792e-15
-4.42349e-15
-4.4384e-15
-4.45266e-15
-4.46624e-15
-4.47915e-15
-4.49138e-15
-4.50292e-15
-4.51376e-15
-4.5239e-15
-4.53334e-15
-4.54207e-15
-4.55008e-15
-4.55738e-15
-4.56396e-15
-4.56981e-15
-4.57494e-15
-4.57933e-15
-4.583e-15
-4.58594e-15
-4.58814e-15
-4.58961e-15
-4.59035e-15
-4.59036e-15
-4.58964e-15
-4.58819e-15
-4.58601e-15
-4.5831e-15
-4.57948e-15
-4.57513e-15
-4.57007e-15
-4.56429e-15
-4.55779e-15
-4.55058e-15
-4.54266e-15
-4.53402e-15
-4.52467e-15
)
;
    }
    procBoundary11to9
    {
        type            processor;
        value           nonuniform List<scalar> 
75
(
2.32437e-19
-9.16088e-17
-1.93134e-16
-2.20726e-16
-5.57449e-16
-3.72174e-16
-1.02534e-15
-1.88107e-15
-2.72713e-15
-3.50565e-15
-4.19818e-15
-4.79165e-15
-5.27373e-15
-5.63647e-15
-5.87773e-15
-6.00071e-15
-6.01301e-15
-5.92581e-15
-5.75298e-15
-5.5102e-15
-5.21412e-15
-4.8815e-15
-4.52848e-15
-4.16997e-15
-3.81911e-15
-3.48697e-15
-3.18236e-15
-2.91173e-15
-2.67932e-15
-2.48727e-15
-2.33598e-15
-2.22434e-15
-2.15008e-15
-2.11009e-15
-2.10065e-15
-2.11771e-15
-2.15707e-15
-2.21455e-15
-2.28614e-15
-2.36809e-15
-2.45702e-15
-2.54996e-15
-2.64438e-15
-2.73821e-15
-2.82983e-15
-2.918e-15
-3.0019e-15
-3.081e-15
-3.15505e-15
-3.22402e-15
-3.28806e-15
-3.34742e-15
-3.40246e-15
-3.45356e-15
-3.50114e-15
-3.54561e-15
-3.58736e-15
-3.62676e-15
-3.66414e-15
-3.69978e-15
-3.73395e-15
-3.76684e-15
-3.79865e-15
-3.8295e-15
-3.85953e-15
-3.88882e-15
-3.91743e-15
-3.94543e-15
-3.97286e-15
-3.99973e-15
-4.02606e-15
-4.05188e-15
-4.07718e-15
-4.10197e-15
-4.12625e-15
)
;
    }
    procBoundary11to10
    {
        type            processor;
        value           uniform -2.90914e-09;
    }
}


// ************************************************************************* //
