/*--------------------------------*- C++ -*----------------------------------*\
| =========                 |                                                 |
| \\      /  F ield         | OpenFOAM: The Open Source CFD Toolbox           |
|  \\    /   O peration     | Version:  2.4.0                                 |
|   \\  /    A nd           | Web:      www.OpenFOAM.org                      |
|    \\/     M anipulation  |                                                 |
\*---------------------------------------------------------------------------*/
FoamFile
{
    version     2.0;
    format      ascii;
    class       volScalarField;
    location    "0.013";
    object      T;
}
// * * * * * * * * * * * * * * * * * * * * * * * * * * * * * * * * * * * * * //

dimensions      [0 0 0 1 0 0 0];

internalField   nonuniform List<scalar> 
125
(
293.461
294.382
295.297
296.211
297.718
297.722
297.728
297.735
297.743
297.753
297.764
297.775
297.787
297.799
297.811
297.824
297.836
297.848
297.86
297.871
297.882
297.892
297.902
297.911
297.919
297.927
297.934
297.941
297.947
297.952
297.957
297.961
297.965
297.968
297.971
297.974
297.976
297.978
297.98
297.982
297.983
297.984
297.985
297.986
297.987
297.988
297.988
297.989
297.989
297.99
297.99
297.991
297.991
297.991
297.992
297.992
297.992
297.992
297.993
297.993
297.993
297.993
297.994
297.994
297.994
297.994
297.995
297.995
297.995
297.995
297.995
297.996
297.996
297.996
297.996
297.996
297.996
297.997
297.997
297.997
297.997
297.997
297.997
297.997
297.998
297.998
297.998
297.998
297.998
297.998
297.998
297.998
297.998
297.999
297.999
297.999
297.999
297.999
297.999
297.999
297.999
297.999
297.999
297.999
297.999
297.999
297.999
297.999
297.999
297.999
297.999
298
298
298
298
298
298
298
298
298
298
298
298
298
298
)
;

boundaryField
{
    BotWall
    {
        type            fixedValue;
        value           uniform 293;
    }
    FreeStream
    {
        type            fixedValue;
        value           nonuniform 0();
    }
    FrontNBack
    {
        type            empty;
    }
    LeftSide
    {
        type            symmetryPlane;
    }
    RightSide
    {
        type            symmetryPlane;
    }
    procBoundary11to8
    {
        type            processor;
        value           nonuniform List<scalar> 
50
(
297.996
297.996
297.997
297.997
297.997
297.997
297.997
297.997
297.997
297.998
297.998
297.998
297.998
297.998
297.998
297.998
297.998
297.998
297.999
297.999
297.999
297.999
297.999
297.999
297.999
297.999
297.999
297.999
297.999
297.999
297.999
297.999
297.999
297.999
297.999
297.999
298
298
298
298
298
298
298
298
298
298
298
298
298
298
)
;
    }
    procBoundary11to9
    {
        type            processor;
        value           nonuniform List<scalar> 
75
(
293.463
294.386
295.3
296.208
297.705
297.71
297.717
297.725
297.735
297.746
297.758
297.77
297.783
297.796
297.809
297.823
297.836
297.849
297.861
297.873
297.884
297.894
297.904
297.914
297.922
297.93
297.937
297.943
297.949
297.954
297.959
297.963
297.967
297.97
297.973
297.975
297.978
297.979
297.981
297.983
297.984
297.985
297.986
297.987
297.987
297.988
297.988
297.989
297.989
297.99
297.99
297.991
297.991
297.991
297.992
297.992
297.992
297.992
297.993
297.993
297.993
297.993
297.994
297.994
297.994
297.994
297.995
297.995
297.995
297.995
297.995
297.996
297.996
297.996
297.996
)
;
    }
    procBoundary11to10
    {
        type            processor;
        value           uniform 298;
    }
}


// ************************************************************************* //
