/*--------------------------------*- C++ -*----------------------------------*\
| =========                 |                                                 |
| \\      /  F ield         | OpenFOAM: The Open Source CFD Toolbox           |
|  \\    /   O peration     | Version:  2.4.0                                 |
|   \\  /    A nd           | Web:      www.OpenFOAM.org                      |
|    \\/     M anipulation  |                                                 |
\*---------------------------------------------------------------------------*/
FoamFile
{
    version     2.0;
    format      ascii;
    class       volScalarField;
    location    "0.9";
    object      p_rgh;
}
// * * * * * * * * * * * * * * * * * * * * * * * * * * * * * * * * * * * * * //

dimensions      [1 -1 -2 0 0 0 0];

internalField   nonuniform List<scalar> 
125
(
-0.000225835
-0.000225787
-0.000225788
-0.000225781
-0.000225852
-0.000224024
-0.000223978
-0.000223978
-0.000223971
-0.000224041
-0.00022219
-0.000222144
-0.000222145
-0.000222138
-0.000222206
-0.000220333
-0.000220288
-0.000220288
-0.000220281
-0.000220349
-0.000218454
-0.00021841
-0.000218411
-0.000218404
-0.00021847
-0.000216555
-0.000216512
-0.000216512
-0.000216505
-0.00021657
-0.000214635
-0.000214592
-0.000214593
-0.000214586
-0.00021465
-0.000212694
-0.000212652
-0.000212653
-0.000212645
-0.000212708
-0.000210731
-0.000210689
-0.00021069
-0.000210683
-0.000210745
-0.000208746
-0.000208705
-0.000208706
-0.000208699
-0.00020876
-0.000206739
-0.000206699
-0.0002067
-0.000206693
-0.000206753
-0.00020471
-0.000204671
-0.000204672
-0.000204665
-0.000204724
-0.000202658
-0.00020262
-0.000202621
-0.000202614
-0.000202672
-0.000200584
-0.000200546
-0.000200548
-0.000200541
-0.000200597
-0.000198486
-0.000198449
-0.000198451
-0.000198444
-0.0001985
-0.000196366
-0.000196329
-0.000196331
-0.000196324
-0.000196379
-0.000194221
-0.000194186
-0.000194187
-0.00019418
-0.000194234
-0.000192053
-0.000192018
-0.00019202
-0.000192013
-0.000192066
-0.000189861
-0.000189827
-0.000189828
-0.000189821
-0.000189873
-0.000187644
-0.000187611
-0.000187613
-0.000187606
-0.000187657
-0.000185403
-0.00018537
-0.000185372
-0.000185365
-0.000185415
-0.000183137
-0.000183105
-0.000183107
-0.0001831
-0.000183149
-0.000180846
-0.000180814
-0.000180816
-0.000180809
-0.000180857
-0.000178528
-0.000178497
-0.0001785
-0.000178493
-0.000178539
-0.000176185
-0.000176155
-0.000176157
-0.00017615
-0.000176194
)
;

boundaryField
{
    BotWall
    {
        type            fixedFluxPressure;
        gradient        nonuniform 0();
        value           nonuniform 0();
    }
    FreeStream
    {
        type            totalPressure;
        rho             rho;
        psi             none;
        gamma           1;
        p0              nonuniform 0();
        value           nonuniform 0();
    }
    FrontNBack
    {
        type            empty;
    }
    LeftSide
    {
        type            symmetryPlane;
    }
    RightSide
    {
        type            symmetryPlane;
    }
    procBoundary1to0
    {
        type            processor;
        value           nonuniform List<scalar> 5(-0.000227635 -0.000227587 -0.000227587 -0.00022758 -0.000227653);
    }
    procBoundary1to2
    {
        type            processor;
        value           nonuniform List<scalar> 5(-0.000173816 -0.000173786 -0.000173788 -0.000173782 -0.000173824);
    }
}


// ************************************************************************* //
