/*--------------------------------*- C++ -*----------------------------------*\
| =========                 |                                                 |
| \\      /  F ield         | OpenFOAM: The Open Source CFD Toolbox           |
|  \\    /   O peration     | Version:  2.4.0                                 |
|   \\  /    A nd           | Web:      www.OpenFOAM.org                      |
|    \\/     M anipulation  |                                                 |
\*---------------------------------------------------------------------------*/
FoamFile
{
    version     2.0;
    format      ascii;
    class       surfaceScalarField;
    location    "3.4";
    object      phi;
}
// * * * * * * * * * * * * * * * * * * * * * * * * * * * * * * * * * * * * * //

dimensions      [0 3 -1 0 0 0 0];

internalField   nonuniform List<scalar> 
220
(
5.5511e-18
-5.55038e-18
5.22755e-18
3.24484e-19
-2.5512e-18
7.78005e-18
-7.5061e-18
4.95584e-18
-7.50501e-18
1.72326e-17
-2.27841e-17
1.62867e-17
1.26787e-18
-8.13475e-18
3.21984e-17
-2.3356e-17
2.01743e-17
-3.08631e-17
2.96275e-17
-5.2413e-17
2.79989e-17
2.89367e-18
-1.42107e-17
7.44045e-17
-4.01983e-17
4.61588e-17
-7.10636e-17
4.27942e-17
-9.52087e-17
4.03619e-17
5.32295e-18
-2.07721e-17
1.35535e-16
-5.8068e-17
8.34515e-17
-1.29134e-16
5.67762e-17
-1.51986e-16
5.34105e-17
8.68541e-18
-2.78407e-17
2.16782e-16
-7.70044e-17
1.32612e-16
-2.0614e-16
7.163e-17
-2.23618e-16
6.719e-17
1.31221e-17
-3.54519e-17
3.1942e-16
-9.70871e-17
1.94244e-16
-3.0323e-16
8.73807e-17
-3.11001e-16
8.17282e-17
1.87712e-17
-4.36273e-17
4.44772e-16
-1.18361e-16
2.68974e-16
-4.21593e-16
1.04096e-16
-4.15099e-16
9.70748e-17
2.57894e-17
-5.24091e-17
5.94252e-16
-1.40914e-16
3.57476e-16
-5.62509e-16
1.21803e-16
-5.36904e-16
1.13261e-16
3.43289e-17
-6.182e-17
7.69329e-16
-1.64793e-16
4.60446e-16
-7.27304e-16
1.40581e-16
-6.77486e-16
1.30343e-16
4.45633e-17
-7.19074e-17
9.71575e-16
-1.90096e-16
5.78631e-16
-9.17402e-16
1.60458e-16
-8.37946e-16
1.48356e-16
5.66627e-17
-8.26962e-17
1.20262e-15
-2.16876e-16
7.12807e-16
-1.13428e-15
1.81524e-16
-1.01947e-15
1.67363e-16
7.08208e-17
-9.42402e-17
1.46422e-15
-2.45246e-16
8.63811e-16
-1.37953e-15
2.03812e-16
-1.22328e-15
1.87404e-16
8.72258e-17
-1.06567e-16
1.75819e-15
-2.75268e-16
1.03251e-15
-1.6548e-15
2.2742e-16
-1.45071e-15
2.08553e-16
1.06091e-16
-1.19735e-16
2.08648e-15
-3.07068e-16
1.21984e-15
-1.96187e-15
2.52377e-16
-1.70309e-15
2.30851e-16
1.27615e-16
-1.33776e-16
2.4511e-15
-3.40703e-16
1.42677e-15
-2.30257e-15
2.78761e-16
-1.98185e-15
2.54353e-16
1.5202e-16
-1.48746e-16
2.8542e-15
-3.76254e-16
1.65427e-15
-2.67883e-15
3.06627e-16
-2.28847e-15
2.79056e-16
1.79589e-16
-1.64671e-16
3.29792e-15
-4.13743e-16
1.90334e-15
-3.09257e-15
3.36274e-16
-2.62475e-15
3.05301e-16
2.10561e-16
-1.8184e-16
3.78506e-15
-4.53577e-16
2.17508e-15
-3.54615e-15
3.68419e-16
-2.99317e-15
3.32925e-16
2.46054e-16
-1.99765e-16
4.31775e-15
-4.96904e-16
2.47222e-15
-4.04305e-15
4.03575e-16
-4.02098e-15
3.66052e-16
2.83577e-16
-2.20746e-16
4.90454e-15
-5.47198e-16
2.79867e-15
-5.4097e-15
4.41872e-16
-2.31449e-10
4.08859e-16
-2.31453e-10
-2.45366e-16
-2.31458e-10
-6.1005e-16
-2.31456e-10
-2.31449e-10
4.4922e-16
-2.3145e-10
4.05738e-16
-2.31453e-10
-2.47601e-16
-2.31457e-10
-6.07533e-16
-2.31455e-10
-2.31449e-10
4.59434e-16
-2.3145e-10
4.06934e-16
-2.31453e-10
-2.45281e-16
-2.31457e-10
-6.0953e-16
-2.31455e-10
-2.3145e-10
4.39006e-16
-2.31451e-10
3.91177e-16
-2.31453e-10
-2.36918e-16
-2.31456e-10
-5.79529e-16
-2.31455e-10
-2.3145e-10
4.2363e-16
3.76836e-16
-2.28403e-16
-5.56932e-16
)
;

boundaryField
{
    BotWall
    {
        type            calculated;
        value           nonuniform List<scalar> 5(-2.73661e-23 4.61013e-23 3.78862e-22 3.08346e-22 -6.23715e-23);
    }
    FreeStream
    {
        type            calculated;
        value           nonuniform 0();
    }
    FrontNBack
    {
        type            empty;
        value           nonuniform 0();
    }
    LeftSide
    {
        type            symmetryPlane;
        value           uniform 0;
    }
    RightSide
    {
        type            symmetryPlane;
        value           uniform 0;
    }
    procBoundary0to1
    {
        type            processor;
        value           nonuniform List<scalar> 5(-2.31451e-10 -2.31453e-10 -2.31455e-10 -2.31454e-10 -2.31451e-10);
    }
}


// ************************************************************************* //
