/*--------------------------------*- C++ -*----------------------------------*\
| =========                 |                                                 |
| \\      /  F ield         | OpenFOAM: The Open Source CFD Toolbox           |
|  \\    /   O peration     | Version:  2.4.0                                 |
|   \\  /    A nd           | Web:      www.OpenFOAM.org                      |
|    \\/     M anipulation  |                                                 |
\*---------------------------------------------------------------------------*/
FoamFile
{
    version     2.0;
    format      ascii;
    class       volScalarField;
    location    "3.4";
    object      T;
}
// * * * * * * * * * * * * * * * * * * * * * * * * * * * * * * * * * * * * * //

dimensions      [0 0 0 1 0 0 0];

internalField   nonuniform List<scalar> 
125
(
293.107
293.107
293.107
293.107
293.107
293.324
293.324
293.324
293.324
293.324
293.542
293.542
293.542
293.542
293.542
293.763
293.763
293.763
293.763
293.763
293.987
293.987
293.987
293.987
293.987
294.213
294.213
294.213
294.213
294.213
294.442
294.442
294.442
294.442
294.442
294.673
294.673
294.673
294.673
294.673
294.907
294.907
294.907
294.907
294.907
295.144
295.144
295.144
295.144
295.144
295.383
295.384
295.384
295.384
295.383
295.626
295.626
295.626
295.626
295.626
295.871
295.871
295.871
295.871
295.871
296.119
296.119
296.119
296.119
296.119
296.37
296.37
296.37
296.37
296.37
296.624
296.624
296.624
296.624
296.624
296.881
296.882
296.882
296.882
296.881
297.142
297.142
297.142
297.142
297.142
297.405
297.405
297.405
297.405
297.405
297.672
297.672
297.672
297.672
297.672
297.993
297.993
297.993
297.993
297.993
297.993
297.993
297.993
297.993
297.993
297.993
297.993
297.993
297.993
297.993
297.993
297.993
297.993
297.993
297.993
297.993
297.993
297.993
297.993
297.993
)
;

boundaryField
{
    BotWall
    {
        type            fixedValue;
        value           uniform 293;
    }
    FreeStream
    {
        type            fixedValue;
        value           nonuniform 0();
    }
    FrontNBack
    {
        type            empty;
    }
    LeftSide
    {
        type            symmetryPlane;
    }
    RightSide
    {
        type            symmetryPlane;
    }
    procBoundary0to1
    {
        type            processor;
        value           nonuniform List<scalar> 5(297.992 297.993 297.993 297.993 297.992);
    }
}


// ************************************************************************* //
