/*--------------------------------*- C++ -*----------------------------------*\
| =========                 |                                                 |
| \\      /  F ield         | OpenFOAM: The Open Source CFD Toolbox           |
|  \\    /   O peration     | Version:  2.4.0                                 |
|   \\  /    A nd           | Web:      www.OpenFOAM.org                      |
|    \\/     M anipulation  |                                                 |
\*---------------------------------------------------------------------------*/
FoamFile
{
    version     2.0;
    format      ascii;
    class       volVectorField;
    location    "0.001";
    object      U;
}
// * * * * * * * * * * * * * * * * * * * * * * * * * * * * * * * * * * * * * //

dimensions      [0 1 -1 0 0 0 0];

internalField   nonuniform List<vector> 
125
(
(-1.62099e-05 -0.0334815 0)
(-1.60426e-05 -0.0334816 0)
(-1.58728e-05 -0.0334817 0)
(-1.57004e-05 -0.0334818 0)
(-1.55257e-05 -0.033482 0)
(-1.53487e-05 -0.0334821 0)
(-1.51694e-05 -0.0334822 0)
(-1.49881e-05 -0.0334823 0)
(-1.48047e-05 -0.0334824 0)
(-1.46193e-05 -0.0334825 0)
(-1.44321e-05 -0.0334826 0)
(-1.4243e-05 -0.0334827 0)
(-1.40522e-05 -0.0334828 0)
(-1.38597e-05 -0.0334829 0)
(-1.36656e-05 -0.033483 0)
(-1.34699e-05 -0.0334831 0)
(-1.32727e-05 -0.0334832 0)
(-1.30741e-05 -0.0334833 0)
(-1.28741e-05 -0.0334834 0)
(-1.26728e-05 -0.0334835 0)
(-1.24702e-05 -0.0334836 0)
(-1.22664e-05 -0.0334837 0)
(-1.20614e-05 -0.0334838 0)
(-1.18553e-05 -0.0334839 0)
(-1.16481e-05 -0.033484 0)
(-1.144e-05 -0.0334841 0)
(-1.12309e-05 -0.0334842 0)
(-1.1021e-05 -0.0334843 0)
(-1.08103e-05 -0.0334844 0)
(-1.0599e-05 -0.0334845 0)
(-1.03871e-05 -0.0334845 0)
(-1.01747e-05 -0.0334846 0)
(-9.96183e-06 -0.0334847 0)
(-9.74873e-06 -0.0334848 0)
(-9.53544e-06 -0.0334849 0)
(-9.3221e-06 -0.033485 0)
(-9.10881e-06 -0.0334851 0)
(-8.8957e-06 -0.0334852 0)
(-8.68289e-06 -0.0334853 0)
(-8.4705e-06 -0.0334854 0)
(-8.25865e-06 -0.0334855 0)
(-8.04746e-06 -0.0334856 0)
(-7.83705e-06 -0.0334857 0)
(-7.62753e-06 -0.0334858 0)
(-7.41901e-06 -0.0334858 0)
(-7.21161e-06 -0.0334859 0)
(-7.00544e-06 -0.033486 0)
(-6.80058e-06 -0.0334861 0)
(-6.59718e-06 -0.0334862 0)
(-6.39528e-06 -0.0334863 0)
(-6.19504e-06 -0.0334864 0)
(-5.99654e-06 -0.0334864 0)
(-5.79989e-06 -0.0334865 0)
(-5.6052e-06 -0.0334866 0)
(-5.41257e-06 -0.0334867 0)
(-5.22209e-06 -0.0334868 0)
(-5.03387e-06 -0.0334868 0)
(-4.848e-06 -0.0334869 0)
(-4.66458e-06 -0.033487 0)
(-4.48368e-06 -0.0334871 0)
(-4.3054e-06 -0.0334871 0)
(-4.12981e-06 -0.0334872 0)
(-3.95699e-06 -0.0334873 0)
(-3.787e-06 -0.0334874 0)
(-3.6199e-06 -0.0334874 0)
(-3.45571e-06 -0.0334875 0)
(-3.29449e-06 -0.0334876 0)
(-3.13626e-06 -0.0334876 0)
(-2.98102e-06 -0.0334877 0)
(-2.82877e-06 -0.0334878 0)
(-2.67951e-06 -0.0334878 0)
(-2.53321e-06 -0.0334879 0)
(-2.38987e-06 -0.033488 0)
(-2.24939e-06 -0.033488 0)
(-2.11181e-06 -0.0334881 0)
(-1.977e-06 -0.0334881 0)
(-1.84497e-06 -0.0334882 0)
(-1.71563e-06 -0.0334883 0)
(-1.58895e-06 -0.0334883 0)
(-1.46488e-06 -0.0334884 0)
(-1.34339e-06 -0.0334884 0)
(-1.22442e-06 -0.0334885 0)
(-1.10795e-06 -0.0334885 0)
(-9.93951e-07 -0.0334886 0)
(-8.82393e-07 -0.0334886 0)
(-7.73256e-07 -0.0334887 0)
(-6.66525e-07 -0.0334887 0)
(-5.62185e-07 -0.0334887 0)
(-4.60225e-07 -0.0334888 0)
(-3.60638e-07 -0.0334888 0)
(-2.63416e-07 -0.0334889 0)
(-1.68554e-07 -0.0334889 0)
(-7.6048e-08 -0.0334889 0)
(1.41063e-08 -0.033489 0)
(1.01912e-07 -0.033489 0)
(1.87372e-07 -0.033489 0)
(2.70489e-07 -0.0334891 0)
(3.51267e-07 -0.0334891 0)
(4.29706e-07 -0.0334891 0)
(5.05812e-07 -0.0334891 0)
(5.79585e-07 -0.0334892 0)
(6.51031e-07 -0.0334892 0)
(7.2015e-07 -0.0334892 0)
(7.86948e-07 -0.0334892 0)
(8.51426e-07 -0.0334892 0)
(9.1359e-07 -0.0334893 0)
(9.73442e-07 -0.0334893 0)
(1.03099e-06 -0.0334893 0)
(1.08623e-06 -0.0334893 0)
(1.13917e-06 -0.0334893 0)
(1.18982e-06 -0.0334893 0)
(1.23817e-06 -0.0334893 0)
(1.28425e-06 -0.0334893 0)
(1.32804e-06 -0.0334894 0)
(1.36956e-06 -0.0334894 0)
(1.40881e-06 -0.0334894 0)
(1.4458e-06 -0.0334894 0)
(1.48053e-06 -0.0334894 0)
(1.51301e-06 -0.0334894 0)
(1.54325e-06 -0.0334894 0)
(1.57126e-06 -0.0334894 0)
(1.59703e-06 -0.0334894 0)
(1.62059e-06 -0.0334894 0)
(1.64195e-06 -0.0334894 0)
(1.6611e-06 -0.0334894 0)
)
;

boundaryField
{
    BotWall
    {
        type            fixedValue;
        value           nonuniform 0();
    }
    FreeStream
    {
        type            zeroGradient;
    }
    FrontNBack
    {
        type            empty;
    }
    LeftSide
    {
        type            symmetryPlane;
    }
    RightSide
    {
        type            symmetryPlane;
    }
    procBoundary8to5
    {
        type            processor;
        value           nonuniform List<vector> 
50
(
(-3.75025e-06 -0.0334619 0)
(-3.61699e-06 -0.0334619 0)
(-3.48239e-06 -0.0334619 0)
(-3.34655e-06 -0.0334619 0)
(-3.20955e-06 -0.0334619 0)
(-3.07149e-06 -0.0334619 0)
(-2.9325e-06 -0.0334619 0)
(-2.79268e-06 -0.0334619 0)
(-2.65216e-06 -0.0334619 0)
(-2.5111e-06 -0.0334619 0)
(-2.36964e-06 -0.0334619 0)
(-2.22795e-06 -0.0334619 0)
(-2.08619e-06 -0.0334619 0)
(-1.94456e-06 -0.0334619 0)
(-1.80325e-06 -0.0334619 0)
(-1.66247e-06 -0.0334619 0)
(-1.52242e-06 -0.0334619 0)
(-1.38333e-06 -0.0334619 0)
(-1.24542e-06 -0.0334619 0)
(-1.10893e-06 -0.0334619 0)
(-9.74081e-07 -0.033462 0)
(-8.41117e-07 -0.033462 0)
(-7.1027e-07 -0.033462 0)
(-5.81773e-07 -0.033462 0)
(-4.55853e-07 -0.033462 0)
(-3.32732e-07 -0.033462 0)
(-2.12621e-07 -0.033462 0)
(-9.57249e-08 -0.033462 0)
(1.77681e-08 -0.0334621 0)
(1.27682e-07 -0.0334621 0)
(2.33857e-07 -0.0334621 0)
(3.3615e-07 -0.0334621 0)
(4.34438e-07 -0.0334621 0)
(5.28617e-07 -0.0334621 0)
(6.18606e-07 -0.0334621 0)
(7.04343e-07 -0.0334622 0)
(7.85792e-07 -0.0334622 0)
(8.62937e-07 -0.0334622 0)
(9.3579e-07 -0.0334622 0)
(1.00438e-06 -0.0334622 0)
(1.06877e-06 -0.0334622 0)
(1.12903e-06 -0.0334623 0)
(1.18526e-06 -0.0334623 0)
(1.23758e-06 -0.0334623 0)
(1.28614e-06 -0.0334623 0)
(1.33106e-06 -0.0334623 0)
(1.37252e-06 -0.0334623 0)
(1.41072e-06 -0.0334624 0)
(1.44576e-06 -0.0334624 0)
(1.47794e-06 -0.0334624 0)
)
;
    }
    procBoundary8to6
    {
        type            processor;
        value           nonuniform List<vector> 
75
(
(-6.79983e-06 -0.0334659 0)
(-6.90137e-06 -0.0334658 0)
(-6.99888e-06 -0.0334657 0)
(-7.09211e-06 -0.0334656 0)
(-7.18082e-06 -0.0334655 0)
(-7.26481e-06 -0.0334654 0)
(-7.3439e-06 -0.0334653 0)
(-7.41793e-06 -0.0334652 0)
(-7.48678e-06 -0.0334651 0)
(-7.55035e-06 -0.033465 0)
(-7.60857e-06 -0.0334649 0)
(-7.66138e-06 -0.0334648 0)
(-7.70877e-06 -0.0334648 0)
(-7.75075e-06 -0.0334647 0)
(-7.78734e-06 -0.0334646 0)
(-7.81859e-06 -0.0334645 0)
(-7.84459e-06 -0.0334644 0)
(-7.86543e-06 -0.0334643 0)
(-7.88123e-06 -0.0334643 0)
(-7.89211e-06 -0.0334642 0)
(-7.89822e-06 -0.0334641 0)
(-7.89969e-06 -0.033464 0)
(-7.89674e-06 -0.0334639 0)
(-7.88946e-06 -0.0334639 0)
(-7.8781e-06 -0.0334638 0)
(-7.86275e-06 -0.0334637 0)
(-7.84361e-06 -0.0334637 0)
(-7.82082e-06 -0.0334636 0)
(-7.79453e-06 -0.0334635 0)
(-7.76487e-06 -0.0334635 0)
(-7.73198e-06 -0.0334634 0)
(-7.69598e-06 -0.0334633 0)
(-7.65696e-06 -0.0334633 0)
(-7.61503e-06 -0.0334632 0)
(-7.57026e-06 -0.0334631 0)
(-7.52274e-06 -0.0334631 0)
(-7.47251e-06 -0.033463 0)
(-7.41964e-06 -0.033463 0)
(-7.36419e-06 -0.0334629 0)
(-7.30619e-06 -0.0334629 0)
(-7.24568e-06 -0.0334628 0)
(-7.1827e-06 -0.0334628 0)
(-7.11728e-06 -0.0334627 0)
(-7.04945e-06 -0.0334627 0)
(-6.97924e-06 -0.0334626 0)
(-6.90667e-06 -0.0334626 0)
(-6.83178e-06 -0.0334625 0)
(-6.75457e-06 -0.0334625 0)
(-6.67509e-06 -0.0334625 0)
(-6.59335e-06 -0.0334624 0)
(-6.50937e-06 -0.0334624 0)
(-6.42318e-06 -0.0334624 0)
(-6.33479e-06 -0.0334623 0)
(-6.24423e-06 -0.0334623 0)
(-6.15153e-06 -0.0334623 0)
(-6.05669e-06 -0.0334622 0)
(-5.95975e-06 -0.0334622 0)
(-5.86072e-06 -0.0334622 0)
(-5.75963e-06 -0.0334621 0)
(-5.65649e-06 -0.0334621 0)
(-5.55134e-06 -0.0334621 0)
(-5.44419e-06 -0.0334621 0)
(-5.33506e-06 -0.0334621 0)
(-5.22399e-06 -0.033462 0)
(-5.11098e-06 -0.033462 0)
(-4.99609e-06 -0.033462 0)
(-4.87932e-06 -0.033462 0)
(-4.76071e-06 -0.033462 0)
(-4.6403e-06 -0.033462 0)
(-4.51811e-06 -0.033462 0)
(-4.3942e-06 -0.0334619 0)
(-4.26859e-06 -0.0334619 0)
(-4.14134e-06 -0.0334619 0)
(-4.01249e-06 -0.0334619 0)
(-3.88211e-06 -0.0334619 0)
)
;
    }
    procBoundary8to7
    {
        type            processor;
        value           uniform (1.67807e-06 -0.0334894 0);
    }
    procBoundary8to9
    {
        type            processor;
        value           uniform (-1.63745e-05 -0.0334814 0);
    }
    procBoundary8to10
    {
        type            processor;
        value           nonuniform List<vector> 
75
(
(1.63376e-05 -0.0334685 0)
(1.61131e-05 -0.0334684 0)
(1.58883e-05 -0.0334684 0)
(1.56631e-05 -0.0334683 0)
(1.54376e-05 -0.0334683 0)
(1.52119e-05 -0.0334683 0)
(1.49859e-05 -0.0334682 0)
(1.47596e-05 -0.0334682 0)
(1.45331e-05 -0.0334682 0)
(1.43065e-05 -0.0334681 0)
(1.40795e-05 -0.0334681 0)
(1.38524e-05 -0.033468 0)
(1.3625e-05 -0.033468 0)
(1.33973e-05 -0.033468 0)
(1.31693e-05 -0.0334679 0)
(1.2941e-05 -0.0334679 0)
(1.27124e-05 -0.0334679 0)
(1.24835e-05 -0.0334678 0)
(1.22542e-05 -0.0334678 0)
(1.20245e-05 -0.0334678 0)
(1.17944e-05 -0.0334677 0)
(1.1564e-05 -0.0334677 0)
(1.13331e-05 -0.0334677 0)
(1.11018e-05 -0.0334676 0)
(1.08701e-05 -0.0334676 0)
(1.0638e-05 -0.0334675 0)
(1.04055e-05 -0.0334675 0)
(1.01727e-05 -0.0334675 0)
(9.93945e-06 -0.0334674 0)
(9.70593e-06 -0.0334674 0)
(9.47215e-06 -0.0334674 0)
(9.23815e-06 -0.0334673 0)
(9.004e-06 -0.0334673 0)
(8.76976e-06 -0.0334673 0)
(8.53553e-06 -0.0334672 0)
(8.30139e-06 -0.0334672 0)
(8.06744e-06 -0.0334672 0)
(7.83381e-06 -0.0334672 0)
(7.6006e-06 -0.0334671 0)
(7.36796e-06 -0.0334671 0)
(7.13602e-06 -0.0334671 0)
(6.90493e-06 -0.033467 0)
(6.67486e-06 -0.033467 0)
(6.44596e-06 -0.033467 0)
(6.21841e-06 -0.033467 0)
(5.99237e-06 -0.0334669 0)
(5.76802e-06 -0.0334669 0)
(5.54554e-06 -0.0334669 0)
(5.32509e-06 -0.0334668 0)
(5.10685e-06 -0.0334668 0)
(4.89098e-06 -0.0334668 0)
(4.67764e-06 -0.0334668 0)
(4.46698e-06 -0.0334668 0)
(4.25915e-06 -0.0334667 0)
(4.05428e-06 -0.0334667 0)
(3.85248e-06 -0.0334667 0)
(3.65386e-06 -0.0334667 0)
(3.45853e-06 -0.0334666 0)
(3.26655e-06 -0.0334666 0)
(3.07799e-06 -0.0334666 0)
(2.8929e-06 -0.0334666 0)
(2.71132e-06 -0.0334666 0)
(2.53327e-06 -0.0334665 0)
(2.35874e-06 -0.0334665 0)
(2.18774e-06 -0.0334665 0)
(2.02022e-06 -0.0334665 0)
(1.85615e-06 -0.0334665 0)
(1.69549e-06 -0.0334665 0)
(1.53816e-06 -0.0334665 0)
(1.3841e-06 -0.0334664 0)
(1.23323e-06 -0.0334664 0)
(1.08547e-06 -0.0334664 0)
(9.40692e-07 -0.0334664 0)
(7.98881e-07 -0.0334664 0)
(6.5985e-07 -0.0334664 0)
)
;
    }
    procBoundary8to11
    {
        type            processor;
        value           nonuniform List<vector> 
50
(
(2.69027e-05 -0.0334702 0)
(2.66693e-05 -0.0334701 0)
(2.64398e-05 -0.0334701 0)
(2.6214e-05 -0.0334701 0)
(2.59915e-05 -0.03347 0)
(2.57722e-05 -0.03347 0)
(2.55556e-05 -0.03347 0)
(2.53416e-05 -0.0334699 0)
(2.51299e-05 -0.0334699 0)
(2.49202e-05 -0.0334699 0)
(2.47123e-05 -0.0334698 0)
(2.4506e-05 -0.0334698 0)
(2.4301e-05 -0.0334698 0)
(2.40973e-05 -0.0334697 0)
(2.38945e-05 -0.0334697 0)
(2.36925e-05 -0.0334697 0)
(2.34912e-05 -0.0334696 0)
(2.32903e-05 -0.0334696 0)
(2.30897e-05 -0.0334696 0)
(2.28893e-05 -0.0334696 0)
(2.2689e-05 -0.0334695 0)
(2.24885e-05 -0.0334695 0)
(2.22878e-05 -0.0334695 0)
(2.20868e-05 -0.0334694 0)
(2.18854e-05 -0.0334694 0)
(2.16835e-05 -0.0334693 0)
(2.14809e-05 -0.0334693 0)
(2.12777e-05 -0.0334693 0)
(2.10736e-05 -0.0334692 0)
(2.08688e-05 -0.0334692 0)
(2.0663e-05 -0.0334692 0)
(2.04563e-05 -0.0334691 0)
(2.02486e-05 -0.0334691 0)
(2.00399e-05 -0.0334691 0)
(1.98301e-05 -0.033469 0)
(1.96192e-05 -0.033469 0)
(1.94072e-05 -0.033469 0)
(1.91941e-05 -0.0334689 0)
(1.89799e-05 -0.0334689 0)
(1.87646e-05 -0.0334689 0)
(1.85483e-05 -0.0334688 0)
(1.83309e-05 -0.0334688 0)
(1.81126e-05 -0.0334688 0)
(1.78933e-05 -0.0334687 0)
(1.76732e-05 -0.0334687 0)
(1.74522e-05 -0.0334686 0)
(1.72305e-05 -0.0334686 0)
(1.70081e-05 -0.0334686 0)
(1.67851e-05 -0.0334685 0)
(1.65616e-05 -0.0334685 0)
)
;
    }
}


// ************************************************************************* //
