/*--------------------------------*- C++ -*----------------------------------*\
| =========                 |                                                 |
| \\      /  F ield         | OpenFOAM: The Open Source CFD Toolbox           |
|  \\    /   O peration     | Version:  2.4.0                                 |
|   \\  /    A nd           | Web:      www.OpenFOAM.org                      |
|    \\/     M anipulation  |                                                 |
\*---------------------------------------------------------------------------*/
FoamFile
{
    version     2.0;
    format      ascii;
    class       volScalarField;
    location    "1";
    object      alpha1;
}
// * * * * * * * * * * * * * * * * * * * * * * * * * * * * * * * * * * * * * //

dimensions      [0 0 0 0 0 0 0];

internalField   nonuniform List<scalar> 
8000
(
1
1
1
1
1
1
1
1
1
1
1
1
1
1
1
1
1
1
1
1
1
0.999999
0.999998
0.999995
0.999986
0.999949
0.554071
0.0019245
6.32541e-06
3.43796e-06
2.246e-06
1.29675e-06
6.93996e-07
3.50156e-07
1.66592e-07
7.4721e-08
3.17626e-08
1.30567e-08
5.47473e-09
2.58854e-09
1.51891e-09
1.09367e-09
8.8193e-10
7.41362e-10
6.29527e-10
5.3449e-10
4.52484e-10
3.81709e-10
3.20859e-10
2.68791e-10
1
1
1
1
1
1
1
1
1
1
1
1
1
1
1
1
1
1
1
1
0.999999
0.999999
0.999997
0.999993
0.99998
0.999889
0.370658
0.00034133
3.82884e-06
3.15957e-06
1.97758e-06
1.11694e-06
5.88707e-07
2.93328e-07
1.3835e-07
6.20577e-08
2.69045e-08
1.17599e-08
5.62644e-09
3.23451e-09
2.27201e-09
1.81627e-09
1.53436e-09
1.31797e-09
1.13478e-09
9.75162e-10
8.35397e-10
7.13238e-10
6.06898e-10
5.14792e-10
1
1
1
1
1
1
1
1
1
1
1
1
1
1
1
1
1
1
1
1
0.999999
0.999999
0.999997
0.999992
0.999982
0.999642
0.183508
6.13742e-05
3.5053e-06
2.8361e-06
1.71608e-06
9.50976e-07
4.95236e-07
2.44848e-07
1.15482e-07
5.26684e-08
2.40275e-08
1.17251e-08
6.66693e-09
4.57792e-09
3.61654e-09
3.06066e-09
2.65401e-09
2.31427e-09
2.01665e-09
1.75295e-09
1.51913e-09
1.31225e-09
1.12992e-09
9.70101e-10
1
1
1
1
1
1
1
1
1
1
1
1
1
1
1
1
1
1
1
1
0.999999
0.999998
0.999996
0.999992
0.999993
0.965573
0.043949
1.25035e-05
3.40761e-06
2.4275e-06
1.42592e-06
7.77214e-07
4.01418e-07
1.98426e-07
9.50366e-08
4.53855e-08
2.28477e-08
1.30688e-08
8.8719e-09
6.94345e-09
5.87991e-09
5.13959e-09
4.53341e-09
4.0015e-09
3.52558e-09
3.09849e-09
2.71545e-09
2.37247e-09
2.06642e-09
1.79493e-09
1
1
1
1
1
1
1
1
1
1
1
1
1
1
1
1
1
1
1
1
0.999999
0.999998
0.999996
0.999991
0.99999
0.79511
0.00691344
4.84437e-06
3.1827e-06
2.10161e-06
1.20665e-06
6.49952e-07
3.34996e-07
1.67565e-07
8.33699e-08
4.3229e-08
2.49337e-08
1.67655e-08
1.29784e-08
1.09658e-08
9.64026e-09
8.5887e-09
7.66983e-09
6.84067e-09
6.0884e-09
5.4066e-09
4.78897e-09
4.22952e-09
3.72403e-09
3.27023e-09
1
1
1
1
1
1
1
1
1
1
1
1
1
1
1
1
1
1
1
1
0.999999
0.999998
0.999995
0.999989
0.999974
0.620349
0.00104464
3.0156e-06
2.93838e-06
1.84753e-06
1.04357e-06
5.59108e-07
2.90493e-07
1.49758e-07
7.96984e-08
4.63362e-08
3.08665e-08
2.35793e-08
1.98052e-08
1.746e-08
1.56849e-08
1.41572e-08
1.27705e-08
1.14965e-08
1.03288e-08
9.26242e-09
8.28816e-09
7.39583e-09
6.57899e-09
5.83643e-09
1
1
1
1
1
1
1
1
1
1
1
1
1
1
1
1
1
1
1
1
0.999999
0.999998
0.999994
0.999985
0.999943
0.471319
0.000158723
2.77578e-06
2.70235e-06
1.6446e-06
9.20732e-07
4.95585e-07
2.63724e-07
1.43615e-07
8.40899e-08
5.54739e-08
4.17087e-08
3.46721e-08
3.05261e-08
2.7577e-08
2.51267e-08
2.29123e-08
2.0852e-08
1.89331e-08
1.71606e-08
1.5533e-08
1.40362e-08
1.26505e-08
1.13639e-08
1.01778e-08
1
1
1
1
1
1
1
1
1
1
1
1
1
1
1
1
1
1
1
1
0.999999
0.999997
0.999993
0.999977
0.999874
0.319277
2.5576e-05
2.96883e-06
2.4556e-06
1.45985e-06
8.16535e-07
4.47502e-07
2.49137e-07
1.47184e-07
9.64865e-08
7.14967e-08
5.87061e-08
5.14284e-08
4.65566e-08
4.27208e-08
3.93404e-08
3.61877e-08
3.31987e-08
3.03826e-08
2.77659e-08
2.53566e-08
2.31312e-08
2.10501e-08
1.90875e-08
1.72486e-08
1
1
1
1
1
1
1
1
1
1
1
1
1
1
1
1
1
1
1
1
0.999999
0.999997
0.999992
0.999977
0.999668
0.168362
7.06882e-06
2.96921e-06
2.20637e-06
1.29471e-06
7.32654e-07
4.16828e-07
2.4884e-07
1.62574e-07
1.18953e-07
9.64029e-08
8.37863e-08
7.57152e-08
6.97178e-08
6.4678e-08
6.00787e-08
5.56934e-08
5.14671e-08
4.74419e-08
4.3687e-08
4.02327e-08
3.7039e-08
3.40253e-08
3.11328e-08
2.837e-08
1
1
1
1
1
1
1
1
1
1
1
1
1
1
1
1
1
1
1
0.999999
0.999999
0.999996
0.999991
0.999995
0.976787
0.0427683
2.77934e-06
2.76503e-06
1.88931e-06
1.11007e-06
6.48856e-07
3.94251e-07
2.59365e-07
1.8923e-07
1.5228e-07
1.31548e-07
1.18516e-07
1.09171e-07
1.01677e-07
9.513e-08
8.90228e-08
8.30932e-08
7.72874e-08
7.17035e-08
6.64887e-08
6.1716e-08
5.73175e-08
5.31352e-08
4.90431e-08
4.50455e-08
1
1
1
1
1
1
1
1
1
1
1
1
1
1
1
1
1
1
1
0.999999
0.999998
0.999996
0.999991
0.99999
0.808844
0.00668277
2.28174e-06
2.54226e-06
1.65332e-06
9.90867e-07
6.10827e-07
4.03645e-07
2.93298e-07
2.34162e-07
2.00813e-07
1.80012e-07
1.65365e-07
1.53976e-07
1.44488e-07
1.36085e-07
1.28161e-07
1.20343e-07
1.12552e-07
1.04979e-07
9.7915e-08
9.15236e-08
8.57001e-08
8.01494e-08
7.46088e-08
6.90458e-08
1
1
1
1
1
1
1
1
1
1
1
1
1
1
1
1
1
1
1
0.999999
0.999998
0.999995
0.999987
0.999949
0.59908
0.000938391
2.28066e-06
2.33188e-06
1.48418e-06
9.25684e-07
6.1217e-07
4.42021e-07
3.49573e-07
2.97254e-07
2.64831e-07
2.42198e-07
2.24769e-07
2.10593e-07
1.98666e-07
1.88131e-07
1.78148e-07
1.68128e-07
1.57941e-07
1.47918e-07
1.38602e-07
1.30328e-07
1.22953e-07
1.15969e-07
1.08873e-07
1.01519e-07
1
1
1
1
1
1
1
1
1
1
1
1
1
1
1
1
1
1
1
0.999999
0.999998
0.999994
0.999985
0.999848
0.386149
0.00013039
2.28024e-06
2.14827e-06
1.37491e-06
9.098e-07
6.5009e-07
5.07744e-07
4.27083e-07
3.77597e-07
3.43468e-07
3.17244e-07
2.95879e-07
2.78224e-07
2.63502e-07
2.50669e-07
2.38487e-07
2.26016e-07
2.1302e-07
2.0004e-07
1.88024e-07
1.77616e-07
1.68678e-07
1.60415e-07
1.51939e-07
1.42846e-07
1
1
1
1
1
1
1
1
1
1
1
1
1
1
1
1
1
1
1
0.999999
0.999997
0.999993
0.99999
0.998643
0.130117
1.51242e-05
2.34338e-06
1.90241e-06
1.26514e-06
9.07778e-07
7.03808e-07
5.87741e-07
5.16665e-07
4.68045e-07
4.30767e-07
4.00066e-07
3.74359e-07
3.53151e-07
3.35728e-07
3.20705e-07
3.06321e-07
2.91208e-07
2.75039e-07
2.58663e-07
2.43604e-07
2.30941e-07
2.20606e-07
2.11479e-07
2.02185e-07
1.91896e-07
1
1
1
1
1
1
1
1
1
1
1
1
1
1
1
1
1
1
0.999999
0.999998
0.999996
0.999993
0.999969
0.767458
0.0164672
3.37296e-06
2.23646e-06
1.6944e-06
1.20244e-06
9.37961e-07
7.78227e-07
6.80818e-07
6.14671e-07
5.64287e-07
5.2259e-07
4.87024e-07
4.571e-07
4.32716e-07
4.13014e-07
3.96148e-07
3.79724e-07
3.61895e-07
3.42275e-07
3.22116e-07
3.03689e-07
2.88639e-07
2.77153e-07
2.67749e-07
2.58542e-07
2.4825e-07
1
1
1
1
1
1
1
1
1
1
1
1
1
1
1
1
1
1
0.999999
0.999998
0.999996
0.999995
0.999577
0.359155
0.0014107
2.08662e-06
2.08411e-06
1.56801e-06
1.19892e-06
9.99897e-07
8.6889e-07
7.81468e-07
7.16031e-07
6.6243e-07
6.16458e-07
5.76906e-07
5.43813e-07
5.17364e-07
4.9625e-07
4.78307e-07
4.60468e-07
4.40278e-07
4.1747e-07
3.93694e-07
3.71889e-07
3.54272e-07
3.41828e-07
3.32535e-07
3.24135e-07
3.15702e-07
1
1
1
1
1
1
1
1
1
1
1
1
1
1
1
1
1
0.999999
0.999999
0.999997
0.999996
0.999987
0.869187
0.0533131
8.04552e-05
2.08783e-06
1.89811e-06
1.4831e-06
1.22089e-06
1.06834e-06
9.59074e-07
8.79113e-07
8.15075e-07
7.61031e-07
7.1453e-07
6.74611e-07
6.41119e-07
6.15772e-07
5.94546e-07
5.77033e-07
5.59807e-07
5.38264e-07
5.14279e-07
4.90277e-07
4.67281e-07
4.46596e-07
4.32643e-07
4.22324e-07
4.13141e-07
4.08116e-07
1
1
1
1
1
1
1
1
1
1
1
1
1
1
1
1
1
0.999999
0.999998
0.999997
0.999997
0.998909
0.300452
0.00229289
6.71281e-06
2.05916e-06
1.76033e-06
1.4581e-06
1.26761e-06
1.14406e-06
1.05175e-06
9.80318e-07
9.22045e-07
8.73582e-07
8.32796e-07
7.98256e-07
7.65976e-07
7.53279e-07
7.27771e-07
7.09064e-07
6.98738e-07
6.69712e-07
6.46095e-07
6.38131e-07
6.3104e-07
6.0935e-07
5.93059e-07
5.76884e-07
5.56113e-07
5.36518e-07
1
1
1
1
1
1
1
1
1
1
1
1
1
1
1
1
0.999999
0.999999
0.999998
0.999997
0.99963
0.561963
0.0156528
7.02595e-05
2.76511e-06
1.96096e-06
1.69671e-06
1.48527e-06
1.34266e-06
1.24216e-06
1.16569e-06
1.10566e-06
1.05624e-06
1.01544e-06
9.77198e-07
9.63749e-07
9.01162e-07
9.88397e-07
9.23305e-07
8.60515e-07
8.94079e-07
8.0095e-07
7.6537e-07
7.73735e-07
8.42858e-07
8.54859e-07
8.59861e-07
8.44575e-07
8.08336e-07
6.88728e-07
1
1
1
1
1
1
1
1
1
1
1
1
1
1
1
1
0.999999
0.999998
0.999998
0.999706
0.653067
0.0295981
0.000194935
4.3014e-06
2.24626e-06
1.92299e-06
1.72371e-06
1.56033e-06
1.44081e-06
1.35275e-06
1.27809e-06
1.22031e-06
1.16776e-06
1.12196e-06
9.78366e-07
1.4176e-06
8.73133e-07
1.232e-06
1.18288e-06
1.01486e-06
1.05859e-06
8.03489e-07
1.77535e-06
8.34215e-07
8.73216e-07
8.78279e-07
9.60333e-07
1.01379e-06
9.68035e-07
6.95194e-07
2.24448e-10
1.8683e-10
1.55017e-10
1.28182e-10
1.05607e-10
8.6675e-11
7.08571e-11
5.76973e-11
4.6798e-11
3.78118e-11
3.04352e-11
2.44052e-11
1.94949e-11
1.55109e-11
1.229e-11
9.69537e-12
7.61372e-12
5.95109e-12
4.62966e-12
3.58476e-12
2.76268e-12
2.11901e-12
1.6174e-12
1.2283e-12
9.27902e-13
6.97145e-13
5.20813e-13
3.86804e-13
2.85535e-13
2.09454e-13
1.5264e-13
1.10481e-13
7.94006e-14
5.66449e-14
4.01021e-14
2.81642e-14
1.96148e-14
1.35405e-14
9.26027e-15
6.27014e-15
4.20007e-15
2.78049e-15
1.8167e-15
1.16935e-15
7.39663e-16
4.58282e-16
2.76971e-16
1.62451e-16
9.19221e-17
4.98588e-17
4.35409e-10
3.67258e-10
3.08902e-10
2.59025e-10
2.16471e-10
1.80254e-10
1.49533e-10
1.23581e-10
1.01756e-10
8.34863e-11
6.82598e-11
5.56203e-11
4.51655e-11
3.65447e-11
2.94565e-11
2.3646e-11
1.88993e-11
1.50376e-11
1.19109e-11
9.39215e-12
7.37313e-12
5.76229e-12
4.48283e-12
3.47095e-12
2.67416e-12
2.04962e-12
1.56252e-12
1.18456e-12
8.92851e-13
6.68951e-13
4.98072e-13
3.68432e-13
2.70687e-13
1.97473e-13
1.43006e-13
1.02772e-13
7.32682e-14
5.17962e-14
3.62922e-14
2.51893e-14
1.73064e-14
1.17598e-14
7.89388e-15
5.22639e-15
3.40568e-15
2.17794e-15
1.36169e-15
8.28366e-16
4.87508e-16
2.75836e-16
8.30776e-10
7.0982e-10
6.05043e-10
5.14363e-10
4.35938e-10
3.68209e-10
3.09877e-10
2.59837e-10
2.1711e-10
1.80804e-10
1.50098e-10
1.24231e-10
1.02515e-10
8.43291e-11
6.91315e-11
5.64578e-11
4.59177e-11
3.71839e-11
2.99801e-11
2.40685e-11
1.92414e-11
1.53179e-11
1.21426e-11
9.58317e-12
7.52812e-12
5.88492e-12
4.57707e-12
3.54121e-12
2.72488e-12
2.08487e-12
1.58575e-12
1.19865e-12
9.00184e-13
6.71473e-13
4.97358e-13
3.65705e-13
2.66854e-13
1.93169e-13
1.38653e-13
9.86351e-14
6.9498e-14
4.84645e-14
3.34164e-14
2.27515e-14
1.52684e-14
1.00748e-14
6.51427e-15
4.10916e-15
2.51469e-15
1.48379e-15
1.55567e-09
1.34582e-09
1.16215e-09
1.00136e-09
8.60486e-10
7.37061e-10
6.29117e-10
5.35055e-10
4.53495e-10
3.83155e-10
3.22806e-10
2.71256e-10
2.27371e-10
1.90087e-10
1.58445e-10
1.31615e-10
1.08904e-10
8.97375e-11
7.36321e-11
6.01688e-11
4.8971e-11
3.97004e-11
3.20583e-11
2.57823e-11
2.06457e-11
1.64568e-11
1.30552e-11
1.03058e-11
8.09394e-12
6.32308e-12
4.91221e-12
3.79383e-12
2.91203e-12
2.22079e-12
1.68229e-12
1.26549e-12
9.45061e-13
7.00416e-13
5.14964e-13
3.75425e-13
2.71242e-13
1.94086e-13
1.37429e-13
9.61938e-14
6.64597e-14
4.52292e-14
3.0232e-14
1.97671e-14
1.25756e-14
7.73597e-15
2.86622e-09
2.50881e-09
2.19332e-09
1.9145e-09
1.66737e-09
1.44787e-09
1.25294e-09
1.08034e-09
9.28309e-10
7.95223e-10
6.79441e-10
5.79245e-10
4.92874e-10
4.18548e-10
3.54581e-10
2.99486e-10
2.52043e-10
2.11268e-10
1.76364e-10
1.46643e-10
1.21467e-10
1.0024e-10
8.24224e-11
6.75232e-11
5.50994e-11
4.47698e-11
3.62138e-11
2.91585e-11
2.33664e-11
1.86328e-11
1.47815e-11
1.16621e-11
9.14757e-12
7.13136e-12
5.52407e-12
4.25068e-12
3.2483e-12
2.46447e-12
1.8557e-12
1.38621e-12
1.02679e-12
7.53729e-13
5.47947e-13
3.94164e-13
2.80239e-13
1.96601e-13
1.35772e-13
9.19735e-14
6.08058e-14
3.89846e-14
5.16882e-09
4.57398e-09
4.04574e-09
3.57564e-09
3.15502e-09
2.77667e-09
2.43549e-09
2.12832e-09
1.85325e-09
1.6087e-09
1.39294e-09
1.20391e-09
1.03914e-09
8.95819e-10
7.70982e-10
6.61904e-10
5.66425e-10
4.82871e-10
4.10004e-10
3.46799e-10
2.92268e-10
2.45439e-10
2.05424e-10
1.7137e-10
1.42457e-10
1.17955e-10
9.72572e-11
7.98486e-11
6.52694e-11
5.3112e-11
4.30146e-11
3.46616e-11
2.77794e-11
2.21356e-11
1.75319e-11
1.37984e-11
1.0789e-11
8.3787e-12
6.46067e-12
4.94451e-12
3.7543e-12
2.82671e-12
2.10929e-12
1.55884e-12
1.13999e-12
8.23949e-13
5.87501e-13
4.12051e-13
2.82951e-13
1.89003e-13
9.10046e-09
8.13491e-09
7.27465e-09
6.50636e-09
5.81453e-09
5.18545e-09
4.60961e-09
4.08192e-09
3.60078e-09
3.16572e-09
2.77616e-09
2.43057e-09
2.12642e-09
1.85961e-09
1.62507e-09
1.41759e-09
1.23321e-09
1.06898e-09
9.23031e-10
7.94065e-10
6.8072e-10
5.81535e-10
4.95238e-10
4.20541e-10
3.56021e-10
3.00316e-10
2.52326e-10
2.1116e-10
1.76001e-10
1.46098e-10
1.20757e-10
9.93578e-11
8.13443e-11
6.6241e-11
5.36357e-11
4.3172e-11
3.45355e-11
2.74501e-11
2.16727e-11
1.69913e-11
1.32227e-11
1.02096e-11
7.81787e-12
5.93374e-12
4.46124e-12
3.31979e-12
2.442e-12
1.77175e-12
1.26281e-12
8.7849e-13
1.55595e-08
1.40379e-08
1.26815e-08
1.1471e-08
1.03788e-08
9.37778e-09
8.44855e-09
7.58088e-09
6.77384e-09
6.03e-09
5.35271e-09
4.74362e-09
4.20269e-09
3.72542e-09
3.30354e-09
2.92679e-09
2.58757e-09
2.28022e-09
2.00188e-09
1.7513e-09
1.52694e-09
1.32669e-09
1.14916e-09
9.9292e-10
8.55782e-10
7.35233e-10
6.29306e-10
5.36627e-10
4.55904e-10
3.85913e-10
3.2542e-10
2.73304e-10
2.28504e-10
1.90118e-10
1.57347e-10
1.29508e-10
1.05978e-10
8.62063e-11
6.96848e-11
5.59603e-11
4.46284e-11
3.5332e-11
2.77571e-11
2.16297e-11
1.67109e-11
1.27939e-11
9.69955e-12
7.27183e-12
5.3744e-12
3.8915e-12
2.57977e-08
2.3468e-08
2.13954e-08
1.95569e-08
1.79051e-08
1.63872e-08
1.4962e-08
1.3605e-08
1.23146e-08
1.10983e-08
9.96866e-09
8.9357e-09
8.00929e-09
7.18896e-09
6.46337e-09
5.8119e-09
5.21979e-09
4.67484e-09
4.1719e-09
3.71064e-09
3.29014e-09
2.90682e-09
2.55989e-09
2.24949e-09
1.97305e-09
1.72599e-09
1.50451e-09
1.30681e-09
1.1312e-09
9.76021e-10
8.39271e-10
7.19147e-10
6.13754e-10
5.21533e-10
4.41036e-10
3.71084e-10
3.10563e-10
2.58486e-10
2.139e-10
1.75925e-10
1.43761e-10
1.1668e-10
9.40237e-11
7.5199e-11
5.96732e-11
4.69696e-11
3.66622e-11
2.83631e-11
2.17069e-11
1.63469e-11
4.12623e-08
3.78114e-08
3.4751e-08
3.20663e-08
2.96836e-08
2.75051e-08
2.54474e-08
2.3451e-08
2.15066e-08
1.96258e-08
1.78364e-08
1.61639e-08
1.46447e-08
1.32953e-08
1.21068e-08
1.10393e-08
1.00658e-08
9.15822e-09
8.30463e-09
7.50734e-09
6.76871e-09
6.0802e-09
5.44204e-09
4.86085e-09
4.33648e-09
3.86134e-09
3.42678e-09
3.0309e-09
2.67211e-09
2.34923e-09
2.05904e-09
1.79922e-09
1.56653e-09
1.35875e-09
1.1734e-09
1.00878e-09
8.63052e-10
7.34764e-10
6.223e-10
5.2412e-10
4.38808e-10
3.65068e-10
3.01704e-10
2.47602e-10
2.01733e-10
1.63145e-10
1.30971e-10
1.04394e-10
8.25825e-11
6.45977e-11
6.36636e-08
5.86925e-08
5.42889e-08
5.04855e-08
4.71859e-08
4.42235e-08
4.1443e-08
3.87061e-08
3.59761e-08
3.3254e-08
3.05882e-08
2.80195e-08
2.56411e-08
2.35145e-08
2.16574e-08
1.99975e-08
1.84945e-08
1.70835e-08
1.57309e-08
1.44436e-08
1.32378e-08
1.20888e-08
1.09933e-08
9.97456e-09
9.04266e-09
8.19174e-09
7.39826e-09
6.66069e-09
5.97827e-09
5.3538e-09
4.78123e-09
4.25865e-09
3.7802e-09
3.3444e-09
2.94695e-09
2.58645e-09
2.26018e-09
1.96684e-09
1.70403e-09
1.46916e-09
1.25993e-09
1.07428e-09
9.10389e-10
7.66515e-10
6.41038e-10
5.32386e-10
4.39161e-10
3.60073e-10
2.9374e-10
2.38196e-10
9.41929e-08
8.72752e-08
8.11092e-08
7.58598e-08
7.14439e-08
6.76116e-08
6.41162e-08
6.06698e-08
5.71674e-08
5.35493e-08
4.98915e-08
4.62158e-08
4.27205e-08
3.95395e-08
3.67833e-08
3.43335e-08
3.2163e-08
3.01342e-08
2.81524e-08
2.62223e-08
2.44113e-08
2.26567e-08
2.0931e-08
1.92851e-08
1.77415e-08
1.63367e-08
1.50043e-08
1.37433e-08
1.25512e-08
1.1447e-08
1.04143e-08
9.45427e-09
8.55159e-09
7.71204e-09
6.92706e-09
6.19977e-09
5.52615e-09
4.90903e-09
4.34609e-09
3.83289e-09
3.36525e-09
2.93988e-09
2.55426e-09
2.20614e-09
1.89362e-09
1.6147e-09
1.36787e-09
1.15213e-09
9.66776e-10
8.10215e-10
1.33417e-07
1.24163e-07
1.15737e-07
1.0858e-07
1.02736e-07
9.78972e-08
9.37715e-08
8.98305e-08
8.58221e-08
8.14775e-08
7.69667e-08
7.2172e-08
6.74806e-08
6.30162e-08
5.91505e-08
5.56894e-08
5.27396e-08
5.00538e-08
4.73869e-08
4.46881e-08
4.21817e-08
3.97515e-08
3.73046e-08
3.49304e-08
3.2533e-08
3.04003e-08
2.83535e-08
2.63961e-08
2.45021e-08
2.27461e-08
2.1077e-08
1.95062e-08
1.7977e-08
1.65215e-08
1.51151e-08
1.37794e-08
1.25055e-08
1.13159e-08
1.02165e-08
9.20086e-09
8.26008e-09
7.38685e-09
6.57646e-09
5.82527e-09
5.13135e-09
4.4925e-09
3.90797e-09
3.37907e-09
2.90993e-09
2.50927e-09
1.8067e-07
1.68957e-07
1.57866e-07
1.48213e-07
1.40413e-07
1.34197e-07
1.29459e-07
1.25404e-07
1.21457e-07
1.16678e-07
1.11767e-07
1.06202e-07
1.0082e-07
9.50334e-08
9.00334e-08
8.53392e-08
8.14985e-08
7.81994e-08
7.49195e-08
7.13502e-08
6.80651e-08
6.49459e-08
6.1854e-08
5.90936e-08
5.55333e-08
5.2505e-08
4.95934e-08
4.68326e-08
4.40876e-08
4.15915e-08
3.92067e-08
3.69899e-08
3.47364e-08
3.25428e-08
3.0321e-08
2.81405e-08
2.59625e-08
2.3868e-08
2.19052e-08
2.00817e-08
1.83828e-08
1.67912e-08
1.52935e-08
1.38778e-08
1.25382e-08
1.1269e-08
1.00677e-08
8.93796e-09
7.8921e-09
6.96747e-09
2.3633e-07
2.22452e-07
2.08688e-07
1.95866e-07
1.85259e-07
1.76751e-07
1.71059e-07
1.67411e-07
1.64547e-07
1.58945e-07
1.53966e-07
1.48159e-07
1.4411e-07
1.36713e-07
1.31091e-07
1.2506e-07
1.20121e-07
1.16197e-07
1.12492e-07
1.07943e-07
1.03617e-07
9.95045e-08
9.56472e-08
9.42472e-08
8.90361e-08
8.47681e-08
8.07123e-08
7.70347e-08
7.32575e-08
6.99476e-08
6.68155e-08
6.41016e-08
6.12525e-08
5.84727e-08
5.54911e-08
5.24487e-08
4.9185e-08
4.58621e-08
4.26397e-08
3.96087e-08
3.67851e-08
3.41526e-08
3.16875e-08
2.93558e-08
2.71309e-08
2.49911e-08
2.29145e-08
2.08908e-08
1.89292e-08
1.70648e-08
3.06031e-07
2.90222e-07
2.74944e-07
2.58866e-07
2.44925e-07
2.32667e-07
2.24936e-07
2.22394e-07
2.23795e-07
2.14098e-07
2.07616e-07
2.00613e-07
2.05556e-07
1.92022e-07
1.87217e-07
1.8037e-07
1.74131e-07
1.69248e-07
1.65256e-07
1.59714e-07
1.5391e-07
1.47713e-07
1.40731e-07
1.45496e-07
1.38305e-07
1.31854e-07
1.25806e-07
1.20699e-07
1.15403e-07
1.10815e-07
1.06479e-07
1.03026e-07
9.9556e-08
9.63421e-08
9.28626e-08
8.92639e-08
8.51539e-08
8.06128e-08
7.58583e-08
7.11492e-08
6.66454e-08
6.2425e-08
5.85165e-08
5.48976e-08
5.15162e-08
4.83278e-08
4.52672e-08
4.2271e-08
3.93121e-08
3.63797e-08
4.12751e-07
3.90459e-07
3.7582e-07
3.57846e-07
3.42802e-07
3.2573e-07
3.12492e-07
3.08084e-07
3.29788e-07
3.0779e-07
2.93005e-07
2.68509e-07
3.21316e-07
2.74973e-07
2.7121e-07
2.6515e-07
2.58064e-07
2.5155e-07
2.4705e-07
2.40873e-07
2.33876e-07
2.25458e-07
2.06341e-07
2.23636e-07
2.1709e-07
2.07353e-07
1.97654e-07
1.8952e-07
1.81621e-07
1.74499e-07
1.67739e-07
1.61873e-07
1.56496e-07
1.51613e-07
1.4692e-07
1.42337e-07
1.3755e-07
1.32222e-07
1.26246e-07
1.19754e-07
1.13002e-07
1.06269e-07
9.97838e-08
9.37065e-08
8.80964e-08
8.29796e-08
7.83253e-08
7.40256e-08
6.99687e-08
6.60555e-08
6.16584e-07
5.65959e-07
5.44261e-07
5.20737e-07
5.10884e-07
4.95636e-07
4.74941e-07
4.3237e-07
5.20083e-07
4.99696e-07
4.73947e-07
3.25542e-07
5.82298e-07
4.26042e-07
4.02004e-07
3.94867e-07
3.87861e-07
3.7977e-07
3.73223e-07
3.66747e-07
3.59528e-07
3.52027e-07
3.26234e-07
3.36078e-07
3.37974e-07
3.29704e-07
3.1718e-07
3.04238e-07
2.92031e-07
2.80667e-07
2.70031e-07
2.60053e-07
2.50672e-07
2.41825e-07
2.33428e-07
2.25414e-07
2.17708e-07
2.10129e-07
2.02388e-07
1.94188e-07
1.85352e-07
1.75878e-07
1.6593e-07
1.55787e-07
1.45755e-07
1.3614e-07
1.27218e-07
1.19156e-07
1.11992e-07
1.05665e-07
9.08802e-07
8.88595e-07
8.24278e-07
7.64627e-07
7.21132e-07
7.1122e-07
7.05844e-07
6.71114e-07
6.37972e-07
7.79768e-07
7.66935e-07
4.12212e-07
1.30564e-06
6.3368e-07
6.00356e-07
5.77075e-07
5.59963e-07
5.45519e-07
5.33847e-07
5.24314e-07
5.1531e-07
5.08157e-07
4.79559e-07
5.15601e-07
5.02474e-07
4.88447e-07
4.74075e-07
4.60331e-07
4.46981e-07
4.33182e-07
4.18674e-07
4.04265e-07
3.9061e-07
3.77884e-07
3.65899e-07
3.54291e-07
3.42696e-07
3.3096e-07
3.19146e-07
3.07379e-07
2.95645e-07
2.83714e-07
2.71241e-07
2.5791e-07
2.43584e-07
2.28375e-07
2.12648e-07
1.96951e-07
1.81887e-07
1.67994e-07
1.47301e-06
1.06028e-06
1.04193e-06
9.4699e-07
8.16949e-07
9.80924e-07
7.99759e-07
7.89896e-07
4.66428e-07
1.69708e-06
8.9758e-07
8.85594e-07
8.38201e-07
7.9636e-07
7.87079e-07
7.56082e-07
7.28543e-07
7.01926e-07
6.81932e-07
6.61104e-07
6.34691e-07
6.25685e-07
4.8168e-07
1.18197e-06
5.95533e-07
5.90569e-07
5.83526e-07
5.77891e-07
5.75923e-07
5.79021e-07
5.72151e-07
5.58481e-07
5.42248e-07
5.25645e-07
5.10448e-07
4.97953e-07
4.87293e-07
4.76745e-07
4.65108e-07
4.52315e-07
4.38934e-07
4.25531e-07
4.12309e-07
3.9898e-07
3.8491e-07
3.69396e-07
3.51914e-07
3.32268e-07
3.10656e-07
2.87671e-07
2.57537e-17
1.86202e-17
1.33477e-17
9.4839e-18
6.67745e-18
4.65765e-18
3.2177e-18
2.20111e-18
1.49058e-18
9.99065e-19
6.6262e-19
4.34797e-19
2.82217e-19
1.8117e-19
1.15009e-19
7.21865e-20
4.47928e-20
2.74747e-20
1.66562e-20
9.97874e-21
5.90708e-21
3.45458e-21
1.99554e-21
1.13835e-21
6.41115e-22
3.56382e-22
1.95469e-22
1.05748e-22
5.64061e-23
2.96525e-23
1.53561e-23
7.83037e-24
3.92956e-24
1.93972e-24
9.41313e-25
4.48831e-25
2.10153e-25
9.65673e-26
4.35213e-26
1.92254e-26
8.31902e-27
3.52371e-27
1.46004e-27
5.91373e-28
2.3398e-28
9.03651e-29
3.40407e-29
1.2498e-29
4.46874e-30
1.55484e-30
5.26003e-31
1.72874e-31
5.515e-32
1.70632e-32
5.11559e-33
1.48479e-33
4.16854e-34
1.13098e-34
2.96267e-35
7.48629e-36
1.82307e-36
4.27467e-37
9.64164e-38
2.08982e-38
4.34851e-39
8.67808e-40
1.65944e-40
3.03791e-41
5.31887e-42
8.89566e-43
1.41946e-43
2.15843e-44
3.1241e-45
4.2986e-46
5.61525e-47
6.95504e-48
8.15678e-49
9.0446e-50
9.46688e-51
9.33828e-52
8.66685e-53
7.55332e-54
6.16694e-55
4.70659e-56
3.34964e-57
2.21732e-58
1.36137e-59
7.72746e-61
4.05497e-62
1.95617e-63
8.65202e-65
3.49234e-66
1.27721e-67
4.204e-69
1.23712e-70
3.22866e-72
7.39973e-74
1.47406e-75
2.53064e-77
3.69136e-79
4.49864e-81
4.44623e-83
3.4306e-85
2.00233e-87
8.87208e-90
2.90144e-92
7.08706e-95
1.15722e-97
8.73639e-101
5.15164e-105
0
0
0
0
0
0
0
0
0
0
0
0
0
0
0
0
0
0
0
0
0
0
0
0
0
0
0
0
0
0
0
0
0
0
0
0
0
0
0
0
0
0
0
0
0
0
0
0
0
0
0
0
0
0
0
0
0
0
0
0
0
0
0
0
0
0
0
0
0
0
0
0
0
0
0
0
0
0
0
0
0
0
0
0
0
0
0
0
0
0
0
0
0
0
0
0
0
0
0
0
0
0
0
0
0
0
0
0
0
0
0
0
0
0
0
0
0
0
0
0
0
0
0
0
0
0
0
0
0
0
0
0
0
0
0
0
0
0
0
0
0
0
0
0
0
0
0
0
0
0
0
0
0
0
0
0
0
0
0
0
0
0
0
0
0
0
0
0
0
0
0
0
0
0
0
0
0
0
0
0
0
0
0
0
0
0
0
0
0
0
1.49151e-16
1.09898e-16
8.03141e-17
5.81993e-17
4.18075e-17
2.97639e-17
2.09952e-17
1.46703e-17
1.01519e-17
6.95591e-18
4.71809e-18
3.16738e-18
2.10416e-18
1.38301e-18
8.99235e-19
5.78303e-19
3.67796e-19
2.31294e-19
1.43801e-19
8.83747e-20
5.36769e-20
3.22147e-20
1.91e-20
1.11846e-20
6.46683e-21
3.69076e-21
2.07848e-21
1.15456e-21
6.32352e-22
3.41336e-22
1.81505e-22
9.50318e-23
4.8967e-23
2.48179e-23
1.23656e-23
6.05356e-24
2.91003e-24
1.37283e-24
6.35186e-25
2.88053e-25
1.27953e-25
5.56342e-26
2.36619e-26
9.83705e-27
3.99462e-27
1.58328e-27
6.12046e-28
2.30576e-28
8.45873e-29
3.01929e-29
1.04774e-29
3.53176e-30
1.15542e-30
3.66544e-31
1.12659e-31
3.35173e-32
9.64375e-33
2.68102e-33
7.19501e-34
1.86223e-34
4.64416e-35
1.11498e-35
2.57454e-36
5.71162e-37
1.21621e-37
2.48329e-38
4.85762e-39
9.09518e-40
1.62834e-40
2.7842e-41
4.54098e-42
7.05629e-43
1.04349e-43
1.46664e-44
1.95662e-45
2.47456e-46
2.96276e-47
3.35324e-48
3.58189e-49
3.60533e-50
3.4141e-51
3.03544e-52
2.52825e-53
1.96849e-54
1.42928e-55
9.65406e-57
6.04941e-58
3.50542e-59
1.87766e-60
9.24675e-62
4.17466e-63
1.71968e-64
6.42075e-66
2.1589e-67
6.49508e-69
1.73521e-70
4.07893e-72
8.3602e-74
1.47972e-75
2.23116e-77
2.82734e-79
2.92666e-81
2.39694e-83
1.51271e-85
7.32699e-88
2.62305e-90
6.96035e-93
1.22212e-95
9.65126e-99
5.51757e-103
0
0
0
0
0
0
0
0
0
0
0
0
0
0
0
0
0
0
0
0
0
0
0
0
0
0
0
0
0
0
0
0
0
0
0
0
0
0
0
0
0
0
0
0
0
0
0
0
0
0
0
0
0
0
0
0
0
0
0
0
0
0
0
0
0
0
0
0
0
0
0
0
0
0
0
0
0
0
0
0
0
0
0
0
0
0
0
0
0
0
0
0
0
0
0
0
0
0
0
0
0
0
0
0
0
0
0
0
0
0
0
0
0
0
0
0
0
0
0
0
0
0
0
0
0
0
0
0
0
0
0
0
0
0
0
0
0
0
0
0
0
0
0
0
0
0
0
0
0
0
0
0
0
0
0
0
0
0
0
0
0
0
0
0
0
0
0
0
0
0
0
0
0
0
0
0
0
0
0
0
0
0
0
0
0
0
0
0
0
0
8.39352e-16
6.30329e-16
4.69674e-16
3.47151e-16
2.54459e-16
1.84923e-16
1.33207e-16
9.50885e-17
6.725e-17
4.71114e-17
3.26842e-17
2.24513e-17
1.5267e-17
1.02754e-17
6.8438e-18
4.51001e-18
2.94013e-18
1.89578e-18
1.20884e-18
7.62119e-19
4.74967e-19
2.92544e-19
1.78033e-19
1.07022e-19
6.35293e-20
3.72276e-20
2.15272e-20
1.22793e-20
6.90627e-21
3.8283e-21
2.09054e-21
1.12406e-21
5.94808e-22
3.09594e-22
1.58416e-22
7.96431e-23
3.93177e-23
1.90483e-23
9.05071e-24
4.21493e-24
1.92262e-24
8.58415e-25
3.74887e-25
1.60027e-25
6.672e-26
2.71496e-26
1.0774e-26
4.16642e-27
1.56879e-27
5.74683e-28
2.0464e-28
7.07756e-29
2.37536e-29
7.72943e-30
2.4364e-30
7.43265e-31
2.19248e-31
6.24776e-32
1.71834e-32
4.55701e-33
1.16422e-33
2.86286e-34
6.76951e-35
1.53764e-35
3.35162e-36
7.0039e-37
1.4019e-37
2.68529e-38
4.91718e-39
8.59732e-40
1.43354e-40
2.27686e-41
3.44081e-42
4.94104e-43
6.73335e-44
8.69707e-45
1.06329e-45
1.22865e-46
1.33976e-47
1.37647e-48
1.33043e-49
1.20722e-50
1.02623e-51
8.15544e-53
6.04442e-54
4.16847e-55
2.66779e-56
1.5794e-57
8.64236e-59
4.34837e-60
2.00574e-61
8.44118e-63
3.22155e-64
1.10806e-65
3.41341e-67
9.35038e-69
2.2582e-70
4.76983e-72
8.71842e-74
1.36164e-75
1.79927e-77
1.95658e-79
1.70282e-81
1.15721e-83
6.06033e-86
2.33898e-88
6.6558e-91
1.24583e-93
1.02635e-96
5.65254e-101
0
0
0
0
0
0
0
0
0
0
0
0
0
0
0
0
0
0
0
0
0
0
0
0
0
0
0
0
0
0
0
0
0
0
0
0
0
0
0
0
0
0
0
0
0
0
0
0
0
0
0
0
0
0
0
0
0
0
0
0
0
0
0
0
0
0
0
0
0
0
0
0
0
0
0
0
0
0
0
0
0
0
0
0
0
0
0
0
0
0
0
0
0
0
0
0
0
0
0
0
0
0
0
0
0
0
0
0
0
0
0
0
0
0
0
0
0
0
0
0
0
0
0
0
0
0
0
0
0
0
0
0
0
0
0
0
0
0
0
0
0
0
0
0
0
0
0
0
0
0
0
0
0
0
0
0
0
0
0
0
0
0
0
0
0
0
0
0
0
0
0
0
0
0
0
0
0
0
0
0
0
0
0
0
0
0
0
0
0
0
4.57527e-15
3.50215e-15
2.66093e-15
2.0063e-15
1.50075e-15
1.11345e-15
8.19163e-16
5.9746e-16
4.31903e-16
3.0939e-16
2.19572e-16
1.5435e-16
1.07451e-16
7.40632e-17
5.05362e-17
3.41293e-17
2.28084e-17
1.50807e-17
9.86326e-18
6.37965e-18
4.0799e-18
2.57912e-18
1.61118e-18
9.94343e-19
6.06052e-19
3.64681e-19
2.16562e-19
1.26866e-19
7.32847e-20
4.17248e-20
2.34036e-20
1.2926e-20
7.02615e-21
3.75672e-21
1.97469e-21
1.01987e-21
5.17228e-22
2.57427e-22
1.25657e-22
6.01168e-23
2.81707e-23
1.29209e-23
5.79659e-24
2.54171e-24
1.0885e-24
4.54931e-25
1.85413e-25
7.36321e-26
2.84688e-26
1.07074e-26
3.91424e-27
1.38957e-27
4.78638e-28
1.59822e-28
5.16868e-29
1.61749e-29
4.89349e-30
1.42993e-30
4.032e-31
1.09604e-31
2.86965e-32
7.23036e-33
1.75145e-33
4.07463e-34
9.09473e-35
1.94575e-35
3.98644e-36
7.81411e-37
1.46393e-37
2.61806e-38
4.4642e-39
7.24923e-40
1.11983e-40
1.64346e-41
2.28841e-42
3.01971e-43
3.77112e-44
4.45053e-45
4.95593e-46
5.19939e-47
5.13184e-48
4.75478e-49
4.12736e-50
3.34965e-51
2.53561e-52
1.78658e-53
1.16871e-54
7.07506e-56
3.95828e-57
2.03672e-58
9.60836e-60
4.13626e-61
1.61574e-62
5.69312e-64
1.79855e-65
5.05953e-67
1.25721e-68
2.73952e-70
5.17596e-72
8.38214e-74
1.15656e-75
1.32236e-77
1.22075e-79
8.87554e-82
4.97284e-84
2.04489e-86
6.18133e-89
1.22549e-91
1.05066e-94
5.53619e-99
0
0
0
0
0
0
0
0
0
0
0
0
0
0
0
0
0
0
0
0
0
0
0
0
0
0
0
0
0
0
0
0
0
0
0
0
0
0
0
0
0
0
0
0
0
0
0
0
0
0
0
0
0
0
0
0
0
0
0
0
0
0
0
0
0
0
0
0
0
0
0
0
0
0
0
0
0
0
0
0
0
0
0
0
0
0
0
0
0
0
0
0
0
0
0
0
0
0
0
0
0
0
0
0
0
0
0
0
0
0
0
0
0
0
0
0
0
0
0
0
0
0
0
0
0
0
0
0
0
0
0
0
0
0
0
0
0
0
0
0
0
0
0
0
0
0
0
0
0
0
0
0
0
0
0
0
0
0
0
0
0
0
0
0
0
0
0
0
0
0
0
0
0
0
0
0
0
0
0
0
0
0
0
0
0
0
0
0
0
0
2.40928e-14
1.87985e-14
1.45652e-14
1.12035e-14
8.55297e-15
6.47895e-15
4.86867e-15
3.62854e-15
2.68144e-15
1.96436e-15
1.42625e-15
1.02613e-15
7.31375e-16
5.16329e-16
3.6097e-16
2.49851e-16
1.71186e-16
1.16075e-16
7.78742e-17
5.16808e-17
3.39183e-17
2.20085e-17
1.41147e-17
8.94409e-18
5.59807e-18
3.45954e-18
2.11013e-18
1.26978e-18
7.53513e-19
4.40754e-19
2.54002e-19
1.44144e-19
8.051e-20
4.42348e-20
2.38945e-20
1.26823e-20
6.61017e-21
3.38119e-21
1.69627e-21
8.34071e-22
4.017e-22
1.89361e-22
8.7308e-23
3.93438e-23
1.73151e-23
7.43648e-24
3.11426e-24
1.27067e-24
5.04715e-25
1.94995e-25
7.32136e-26
2.66915e-26
9.4402e-27
3.23611e-27
1.07425e-27
3.45007e-28
1.07099e-28
3.21055e-29
9.2853e-30
2.58835e-30
6.94796e-31
1.79447e-31
4.45486e-32
1.06192e-32
2.4281e-33
5.3204e-34
1.11617e-34
2.23978e-35
4.29457e-36
7.85865e-37
1.37084e-37
2.27678e-38
3.59653e-39
5.39649e-40
7.68121e-41
1.03595e-41
1.3221e-42
1.59431e-43
1.81389e-44
1.9442e-45
1.96057e-46
1.85582e-47
1.64589e-48
1.36489e-49
1.05586e-50
7.60586e-52
5.08941e-53
3.15308e-54
1.8052e-55
9.50814e-57
4.59233e-58
2.02463e-59
8.10521e-61
2.92956e-62
9.50405e-64
2.74911e-65
7.03562e-67
1.58224e-68
3.09063e-70
5.19004e-72
7.47636e-74
8.97804e-76
8.75994e-78
6.76583e-80
4.01979e-82
1.74582e-84
5.5662e-87
1.16279e-89
1.03478e-92
5.1778e-97
0
0
0
0
0
0
0
0
0
0
0
0
0
0
0
0
0
0
0
0
0
0
0
0
0
0
0
0
0
0
0
0
0
0
0
0
0
0
0
0
0
0
0
0
0
0
0
0
0
0
0
0
0
0
0
0
0
0
0
0
0
0
0
0
0
0
0
0
0
0
0
0
0
0
0
0
0
0
0
0
0
0
0
0
0
0
0
0
0
0
0
0
0
0
0
0
0
0
0
0
0
0
0
0
0
0
0
0
0
0
0
0
0
0
0
0
0
0
0
0
0
0
0
0
0
0
0
0
0
0
0
0
0
0
0
0
0
0
0
0
0
0
0
0
0
0
0
0
0
0
0
0
0
0
0
0
0
0
0
0
0
0
0
0
0
0
0
0
0
0
0
0
0
0
0
0
0
0
0
0
0
0
0
0
0
0
0
0
0
0
1.21987e-13
9.70237e-14
7.66631e-14
6.01616e-14
4.68775e-14
3.62589e-14
2.78333e-14
2.11987e-14
1.60158e-14
1.2e-14
8.9148e-15
6.56505e-15
4.79143e-15
3.46494e-15
2.48219e-15
1.7611e-15
1.23721e-15
8.60419e-16
5.92211e-16
4.03301e-16
2.71675e-16
1.80971e-16
1.19171e-16
7.75508e-17
4.98547e-17
3.16492e-17
1.98327e-17
1.22626e-17
7.47772e-18
4.49512e-18
2.6625e-18
1.55308e-18
8.91713e-19
5.03675e-19
2.7972e-19
1.52648e-19
8.18073e-20
4.30284e-20
2.21973e-20
1.12238e-20
5.5587e-21
2.6946e-21
1.27757e-21
5.91999e-22
2.67895e-22
1.18297e-22
5.09328e-23
2.13636e-23
8.72247e-24
3.46353e-24
1.33639e-24
5.00606e-25
1.81895e-25
6.4048e-26
2.18351e-26
7.20052e-27
2.29471e-27
7.06057e-28
2.0955e-28
5.99317e-29
1.65022e-29
4.37101e-30
1.11262e-30
2.71881e-31
6.37142e-32
1.43054e-32
3.07453e-33
6.31879e-34
1.24056e-34
2.3239e-35
4.14896e-36
7.05131e-37
1.1396e-37
1.74914e-38
2.54636e-39
3.51191e-40
4.58277e-41
5.65001e-42
6.57148e-43
7.20017e-44
7.42239e-45
7.18194e-46
6.51125e-47
5.52032e-48
4.36659e-49
3.21758e-50
2.2038e-51
1.39832e-52
8.19894e-54