/*--------------------------------*- C++ -*----------------------------------*\
| =========                 |                                                 |
| \\      /  F ield         | OpenFOAM: The Open Source CFD Toolbox           |
|  \\    /   O peration     | Version:  2.4.0                                 |
|   \\  /    A nd           | Web:      www.OpenFOAM.org                      |
|    \\/     M anipulation  |                                                 |
\*---------------------------------------------------------------------------*/
FoamFile
{
    version     2.0;
    format      ascii;
    class       volScalarField;
    location    "1";
    object      H;
}
// * * * * * * * * * * * * * * * * * * * * * * * * * * * * * * * * * * * * * //

dimensions      [0 2 -2 0 0 0 0];

internalField   nonuniform List<scalar> 
8000
(
-11938.8
-11357.2
-10777.7
-10201.8
-9630.97
-9066.67
-8510.28
-7963.1
-7426.38
-6901.21
-6388.57
-5889.25
-5403.88
-4932.9
-4476.54
-4034.86
-3607.69
-3194.71
-2795.46
-2409.37
-2035.84
-1674.28
-1324.22
-985.323
-657.448
-340.6
-4.57612
-3.47256
-3.21575
-3.08357
-2.95688
-2.83551
-2.71929
-2.60804
-2.50154
-2.39954
-2.30181
-2.2081
-2.11819
-2.03188
-1.94895
-1.86925
-1.7926
-1.71887
-1.64793
-1.57965
-1.51393
-1.45066
-1.38976
-1.33113
-11938.7
-11356.9
-10777.2
-10201.3
-9630.54
-9066.32
-8510.02
-7962.93
-7426.22
-6900.95
-6388.07
-5888.33
-5402.34
-4930.53
-4473.16
-4030.31
-3601.87
-3187.61
-2787.15
-2400.02
-2025.65
-1663.46
-1312.86
-973.424
-645.036
-328.008
-5.87307
-4.29603
-4.038
-3.82354
-3.62287
-3.4354
-3.26032
-3.0968
-2.94394
-2.80085
-2.66666
-2.54055
-2.42175
-2.3096
-2.20348
-2.10287
-2.00733
-1.91646
-1.82993
-1.74746
-1.66878
-1.59367
-1.52194
-1.4534
-11938.6
-11356.7
-10776.9
-10200.8
-9629.78
-9065.32
-8508.73
-7961.27
-7424.09
-6898.25
-6384.65
-5884.03
-5396.99
-4923.95
-4465.13
-4020.59
-3590.18
-3173.56
-2770.22
-2379.4
-2000.1
-1631.05
-1270.77
-917.76
-570.55
-226.13
-6.92328
-4.96017
-4.59412
-4.27087
-3.98216
-3.72518
-3.49676
-3.29353
-3.11208
-2.94916
-2.80174
-2.66712
-2.54301
-2.42749
-2.31906
-2.21655
-2.11908
-2.02604
-1.93697
-1.85156
-1.76961
-1.69095
-1.61545
-1.54303
-11938.4
-11355.9
-10775.5
-10198.6
-9626.79
-9061.35
-8503.65
-7954.95
-7416.42
-6889.08
-6373.83
-5871.4
-5382.34
-4907.01
-4445.55
-3997.89
-3563.7
-3142.36
-2732.9
-2333.9
-1943.26
-1557.93
-1173.99
-787.549
-396.88
-3.75986
-3.49137
-2.72447
-2.64709
-2.5685
-2.49407
-2.42735
-2.36978
-2.32102
-2.2795
-2.24291
-2.20876
-2.17471
-2.13885
-2.09984
-2.0569
-2.00978
-1.95865
-1.90396
-1.84637
-1.78659
-1.72537
-1.66338
-1.60123
-1.53945
-11938
-11354.7
-10773.4
-10195.6
-9622.73
-9056.15
-8497.2
-7947.13
-7407.09
-6878.09
-6360.98
-5856.46
-5365
-4886.9
-4422.2
-3970.71
-3531.99
-3105.35
-2689.89
-2284.58
-1888.35
-1500.3
-1119.94
-747.361
-383.408
-4.06679
-3.30637
-2.92553
-2.8507
-2.77777
-2.70692
-2.63819
-2.57147
-2.50652
-2.44297
-2.38045
-2.31857
-2.257
-2.1955
-2.13391
-2.07216
-2.01027
-1.94832
-1.88643
-1.82477
-1.76351
-1.7028
-1.64283
-1.58372
-1.5256
-11937.7
-11353.9
-10772.2
-10194
-9620.67
-9053.68
-8494.28
-7943.69
-7403.01
-6873.22
-6355.12
-5849.36
-5356.42
-4876.55
-4409.84
-3956.19
-3515.32
-3086.82
-2670.2
-2264.92
-1870.46
-1486.36
-1112.29
-748.032
-393.513
-4.8985
-3.67488
-3.48133
-3.36519
-3.253
-3.14463
-3.03988
-2.93852
-2.84033
-2.74514
-2.65274
-2.56299
-2.47572
-2.39082
-2.30817
-2.22768
-2.14928
-2.07291
-1.9985
-1.92603
-1.85545
-1.78672
-1.71983
-1.65474
-1.59143
-11937.6
-11353.6
-10771.8
-10193.5
-9620.18
-9053.17
-8493.73
-7943.06
-7402.22
-6872.15
-6353.65
-5847.36
-5353.76
-4873.14
-4405.66
-3951.31
-3509.93
-3081.26
-2664.93
-2260.51
-1867.51
-1485.42
-1113.76
-752.039
-399.825
-6.01569
-4.42517
-4.24123
-4.07688
-3.91807
-3.76497
-3.61749
-3.47554
-3.33894
-3.20751
-3.08105
-2.95937
-2.84226
-2.72954
-2.62101
-2.5165
-2.41585
-2.31888
-2.22547
-2.13545
-2.04869
-1.96507
-1.88446
-1.80675
-1.73183
-11937.6
-11353.6
-10771.8
-10193.6
-9620.28
-9053.29
-8493.86
-7943.14
-7402.18
-6871.91
-6353.11
-5846.43
-5352.35
-4871.17
-4403.08
-3948.05
-3505.96
-3076.5
-2659.28
-2253.75
-1859.3
-1475.24
-1100.93
-736.076
-380.995
-7.62886
-5.55928
-5.2828
-5.02415
-4.78054
-4.55152
-4.33626
-4.1338
-3.94309
-3.76311
-3.59291
-3.43162
-3.27847
-3.1328
-2.99405
-2.86175
-2.73546
-2.61482
-2.49952
-2.38925
-2.28377
-2.18282
-2.08617
-1.99362
-1.90495
-11937.7
-11353.7
-10771.9
-10193.6
-9620.21
-9053.07
-8493.4
-7942.37
-7401
-6870.21
-6350.78
-5843.33
-5348.31
-4866
-4396.51
-3939.75
-3495.43
-3063.09
-2642.04
-2231.34
-1829.81
-1435.97
-1048.42
-666.437
-289.642
-9.48454
-6.75984
-6.24033
-5.78777
-5.39446
-5.05278
-4.75485
-4.49305
-4.26041
-4.05092
-3.85962
-3.68262
-3.51698
-3.36061
-3.21203
-3.07022
-2.93453
-2.80449
-2.67981
-2.56026
-2.44563
-2.33576
-2.23048
-2.12961
-2.03299
-11937.5
-11353.1
-10770.8
-10191.8
-9617.64
-9049.5
-8488.67
-7936.3
-7393.42
-6860.93
-6339.6
-5829.98
-5332.48
-4847.26
-4374.28
-3913.24
-3463.53
-3024.21
-2593.87
-2170.33
-1750.14
-1328.11
-897.892
-455.503
-4.28803
-3.95154
-3.06331
-2.96718
-2.89547
-2.8561
-2.84782
-2.8631
-2.89142
-2.92215
-2.94643
-2.95808
-2.95375
-2.93244
-2.8949
-2.843
-2.77915
-2.70589
-2.62569
-2.54069
-2.45275
-2.36335
-2.27367
-2.1846
-2.09679
-2.01071
-11937.1
-11351.9
-10768.6
-10188.5
-9613.01
-9043.37
-8480.82
-7926.48
-7381.37
-6846.35
-6322.1
-5809.14
-5307.75
-4817.97
-4339.59
-3872.12
-3414.79
-2966.59
-2526.37
-2092.98
-1665.59
-1244.02
-829.191
-423.393
-4.44325
-3.61664
-3.23613
-3.18392
-3.134
-3.08643
-3.04066
-2.99574
-2.95054
-2.90399
-2.85519
-2.80354
-2.74873
-2.69071
-2.62965
-2.56585
-2.49972
-2.43171
-2.36226
-2.2918
-2.22072
-2.14936
-2.07802
-2.00696
-1.93639
-1.86649
-11936.7
-11350.8
-10766.8
-10185.9
-9609.57
-9038.9
-8475.09
-7919.22
-7372.25
-6834.98
-6308.04
-5791.89
-5286.78
-4792.77
-4309.74
-3837.41
-3375.41
-2923.31
-2480.78
-2047.65
-1624.05
-1210.47
-807.865
-417.652
-5.32049
-3.98164
-3.77614
-3.64958
-3.5296
-3.41568
-3.30719
-3.20351
-3.10404
-3.00828
-2.91575
-2.82608
-2.73891
-2.65399
-2.57109
-2.49001
-2.41061
-2.33278
-2.2564
-2.18142
-2.10776
-2.03538
-1.96426
-1.89436
-1.82568
-1.75822
-11936.5
-11350
-10765.3
-10183.8
-9606.57
-9034.85
-8469.74
-7912.27
-7363.34
-6823.73
-6294.06
-5774.82
-5266.31
-4768.7
-4282.03
-3806.21
-3341.09
-2886.48
-2442.2
-2008.12
-1584.18
-1170.39
-767.124
-376.75
-6.53784
-4.72866
-4.44209
-4.20859
-4.00341
-3.81875
-3.64957
-3.49258
-3.34563
-3.20726
-3.07644
-2.95239
-2.83449
-2.72222
-2.61512
-2.51276
-2.41477
-2.32078
-2.23047
-2.14354
-2.05972
-1.97876
-1.90046
-1.82462
-1.75107
-1.67968
-11935.9
-11348.1
-10762
-10178.7
-9599.39
-9025.17
-8457.17
-7896.4
-7343.76
-6800.05
-6265.94
-5741.95
-5228.44
-4725.62
-4233.54
-3752.04
-3280.79
-2819.21
-2366.42
-1920.9
-1479.45
-1034.1
-563.776
-13.4015
-0.524281
-1.2818
-2.07405
-2.57587
-2.87572
-3.03629
-3.1017
-3.10297
-3.06181
-2.99334
-2.90806
-2.81312
-2.71339
-2.61207
-2.51126
-2.41223
-2.31574
-2.22218
-2.1317
-2.04431
-1.95991
-1.87839
-1.79957
-1.7233
-1.64943
-1.57783
-11934.7
-11344.4
-10755.5
-10169
-9586.05
-9007.67
-8434.99
-7869.02
-7310.69
-6760.82
-6220.09
-5689.02
-5167.92
-4656.93
-4155.88
-3664.32
-3181.46
-2706.2
-2237.35
-1774.11
-1316.95
-868.664
-435.18
-4.71655
-4.06445
-3.35856
-3.26049
-3.16807
-3.07796
-2.98862
-2.89949
-2.81056
-2.72208
-2.63437
-2.54774
-2.46244
-2.37865
-2.29649
-2.216
-2.13718
-2.06
-1.9844
-1.91033
-1.83771
-1.76651
-1.69665
-1.62812
-1.56088
-1.49492
-1.43022
-11933.1
-11339.8
-10747.5
-10157.4
-9570.26
-8987.27
-8409.42
-7837.71
-7273.05
-6716.25
-6167.96
-5628.69
-5098.74
-4578.24
-4067.1
-3565.11
-3071.97
-2587.39
-2111.3
-1644.1
-1186.89
-740.55
-300.999
-5.50599
-4.1057
-3.78253
-3.58041
-3.39281
-3.2198
-3.06084
-2.91501
-2.78116
-2.65805
-2.54438
-2.43889
-2.3404
-2.2478
-2.16012
-2.07655
-1.99637
-1.91902
-1.84407
-1.77117
-1.70008
-1.63061
-1.56266
-1.49615
-1.43102
-1.36726
-1.30485
-11931.1
-11333.5
-10736.8
-10141.7
-9549
-8959.8
-8375.03
-7795.68
-7222.64
-6656.75
-6098.69
-5549
-5008.05
-4476
-3952.79
-3438.07
-2931.05
-2430.35
-1933.95
-1439.98
-949.016
-468.688
-4.72251
-4.39265
-3.33798
-3.18495
-3.04186
-2.90446
-2.77406
-2.65172
-2.53804
-2.43309
-2.33652
-2.24755
-2.16522
-2.0884
-2.01599
-1.94696
-1.88041
-1.81563
-1.75207
-1.68935
-1.62726
-1.56568
-1.5046
-1.44406
-1.38416
-1.32499
-1.26665
-1.20924
-11928
-11324.2
-10720.7
-10118
-9516.99
-8918.47
-8323.41
-7732.79
-7147.55
-6568.55
-5996.51
-5432.02
-4875.43
-4326.9
-3786.4
-3253.81
-2729.15
-2212.81
-1705.25
-1204.95
-701.623
-158.974
-3.31969
-2.77881
-2.82269
-2.87867
-2.86921
-2.81809
-2.74172
-2.65122
-2.55396
-2.45476
-2.35662
-2.2613
-2.16974
-2.0823
-1.99902
-1.91971
-1.84407
-1.77177
-1.70248
-1.63588
-1.57168
-1.50965
-1.44957
-1.39129
-1.33465
-1.27954
-1.22588
-1.17358
-11923.8
-11311.2
-10698.3
-10085.3
-9472.89
-8861.75
-8252.84
-7647.13
-7045.63
-6449.28
-5858.89
-5275.11
-4698.36
-4128.76
-3566.15
-3010.13
-2460.63
-1918.84
-1388.28
-874.137
-377.417
-5.02219
-4.29749
-3.50759
-3.32855
-3.16154
-3.00276
-2.85287
-2.71227
-2.58107
-2.45916
-2.34621
-2.24175
-2.14519
-2.05586
-1.97305
-1.89604
-1.82413
-1.75664
-1.69302
-1.63284
-1.57561
-1.52092
-1.46842
-1.41783
-1.36891
-1.32147
-1.27534
-1.23042
-1.18658
-11917.6
-11292.2
-10665.6
-10037.5
-9408.42
-8778.97
-8150.08
-7522.84
-6898.35
-6277.7
-5661.83
-5051.49
-4447.16
-3848.95
-3256.57
-2669.62
-2088.56
-1516.53
-960.687
-429.174
-5.17827
-4.63758
-3.60866
-3.39027
-3.19397
-3.00818
-2.83424
-2.67299
-2.52473
-2.38935
-2.26633
-2.15492
-2.05411
-1.96319
-1.88097
-1.8063
-1.73801
-1.67518
-1.6169
-1.56244
-1.51119
-1.46262
-1.41637
-1.37203
-1.32944
-1.28839
-1.24874
-1.21037
-1.17319
-1.13709
-1.27468
-1.22034
-1.16803
-1.11768
-1.06921
-1.02257
-0.977683
-0.934495
-0.892949
-0.852991
-0.814568
-0.777631
-0.742133
-0.708027
-0.675269
-0.643816
-0.613628
-0.584662
-0.556881
-0.530245
-0.504716
-0.480259
-0.456838
-0.434416
-0.41296
-0.392437
-0.372812
-0.354055
-0.336133
-0.319016
-0.302674
-0.287077
-0.272198
-0.258009
-0.244482
-0.231592
-0.219313
-0.207621
-0.196491
-0.1859
-0.175825
-0.166246
-0.157141
-0.148489
-0.14027
-0.132467
-0.12506
-0.118032
-0.111366
-0.105045
-1.38789
-1.32525
-1.26535
-1.20804
-1.1532
-1.10072
-1.05048
-1.00238
-0.956325
-0.912223
-0.869987
-0.829537
-0.790797
-0.753695
-0.718164
-0.684141
-0.651565
-0.620378
-0.590527
-0.561958
-0.534623
-0.508474
-0.483466
-0.459553
-0.436696
-0.414852
-0.393983
-0.374052
-0.355021
-0.336855
-0.319522
-0.302987
-0.287219
-0.272187
-0.257862
-0.244215
-0.231218
-0.218845
-0.207069
-0.195865
-0.18521
-0.17508
-0.165452
-0.156304
-0.147617
-0.139368
-0.13154
-0.124112
-0.117068
-0.110388
-1.47358
-1.40702
-1.34324
-1.28215
-1.22365
-1.16764
-1.11402
-1.06269
-1.01356
-0.966526
-0.921501
-0.878398
-0.837135
-0.797635
-0.759823
-0.72363
-0.68899
-0.655838
-0.624117
-0.593769
-0.564739
-0.536977
-0.510433
-0.485059
-0.46081
-0.437642
-0.415513
-0.394382
-0.374211
-0.35496
-0.336595
-0.319079
-0.302379
-0.286461
-0.271295
-0.256848
-0.243093
-0.229999
-0.217539
-0.205688
-0.194417
-0.183704
-0.173524
-0.163854
-0.154671
-0.145954
-0.137683
-0.129837
-0.122397
-0.115344
-1.47845
-1.41856
-1.36002
-1.30302
-1.24768
-1.19406
-1.14221
-1.09214
-1.04384
-0.997287
-0.952457
-0.90931
-0.867803
-0.827894
-0.789537
-0.752687
-0.7173
-0.683331
-0.650737
-0.619474
-0.5895
-0.560774
-0.533255
-0.506903
-0.48168
-0.457546
-0.434464
-0.412397
-0.391309
-0.371165
-0.351931
-0.333572
-0.316056
-0.29935
-0.283424
-0.268247
-0.25379
-0.240023
-0.22692
-0.214452
-0.202594
-0.19132
-0.180606
-0.170428
-0.160763
-0.151588
-0.142883
-0.134626
-0.126798
-0.119379
-1.46858
-1.41275
-1.35818
-1.30491
-1.25299
-1.20244
-1.15329
-1.10553
-1.05919
-1.01425
-0.970705
-0.928551
-0.887776
-0.848362
-0.810295
-0.773554
-0.738118
-0.703967
-0.671075
-0.639418
-0.60897
-0.579703
-0.55159
-0.524602
-0.498709
-0.473882
-0.45009
-0.427304
-0.405492
-0.384625
-0.364672
-0.345603
-0.327388
-0.309998
-0.293403
-0.277575
-0.262486
-0.248108
-0.234414
-0.221378
-0.208974
-0.197177
-0.185963
-0.175307
-0.165186
-0.155579
-0.146462
-0.137816
-0.12962
-0.121853
-1.52988
-1.47005
-1.41193
-1.35549
-1.3007
-1.24756
-1.19602
-1.14607
-1.09768
-1.05084
-1.00551
-0.96167
-0.919297
-0.878365
-0.838846
-0.800716
-0.763946
-0.72851
-0.694378
-0.661523
-0.629914
-0.599523
-0.570319
-0.542272
-0.515351
-0.489527
-0.464767
-0.441042
-0.418321
-0.396573
-0.375768
-0.355876
-0.336866
-0.31871
-0.301378
-0.284842
-0.269073
-0.254044
-0.239728
-0.226097
-0.213126
-0.200789
-0.189062
-0.17792
-0.16734
-0.157298
-0.147772
-0.138741
-0.130183
-0.122078
-1.65959
-1.58993
-1.52276
-1.458
-1.39555
-1.33534
-1.2773
-1.22134
-1.16742
-1.11546
-1.0654
-1.01718
-0.970756
-0.926061
-0.883048
-0.841668
-0.801871
-0.763612
-0.726844
-0.691523
-0.657607
-0.625052
-0.593817
-0.563861
-0.535146
-0.507633
-0.481282
-0.456057
-0.431921
-0.408839
-0.386775
-0.365694
-0.345564
-0.32635
-0.30802
-0.290544
-0.273889
-0.258026
-0.242925
-0.228557
-0.214894
-0.201909
-0.189575
-0.177865
-0.166755
-0.15622
-0.146236
-0.136779
-0.127828
-0.11936
-1.81999
-1.73856
-1.66048
-1.5856
-1.51377
-1.44486
-1.37873
-1.31527
-1.25437
-1.1959
-1.13979
-1.08593
-1.03424
-0.984633
-0.937032
-0.891362
-0.847555
-0.805542
-0.76526
-0.726647
-0.689645
-0.654198
-0.62025
-0.587751
-0.556648
-0.526893
-0.498439
-0.47124
-0.445252
-0.420431
-0.396735
-0.374125
-0.352559
-0.332001
-0.312413
-0.293758
-0.276002
-0.25911
-0.243048
-0.227785
-0.213289
-0.19953
-0.186477
-0.174103
-0.162379
-0.151278
-0.140774
-0.130841
-0.121456
-0.112593
-1.94044
-1.85178
-1.76683
-1.68542
-1.60739
-1.53259
-1.46087
-1.39208
-1.32611
-1.26282
-1.2021
-1.14385
-1.08797
-1.03437
-0.982962
-0.933659
-0.886387
-0.841071
-0.797641
-0.756031
-0.716175
-0.678013
-0.641485
-0.606533
-0.573102
-0.541139
-0.510592
-0.481411
-0.453547
-0.426952
-0.401582
-0.377392
-0.354338
-0.332379
-0.311474
-0.291584
-0.27267
-0.254694
-0.237621
-0.221416
-0.206043
-0.191471
-0.177666
-0.164598
-0.152236
-0.14055
-0.129513
-0.119096
-0.109273
-0.100018
-1.92667
-1.84489
-1.76547
-1.68848
-1.61395
-1.54185
-1.47215
-1.40483
-1.33982
-1.27708
-1.21656
-1.1582
-1.10195
-1.04776
-0.995571
-0.94534
-0.897016
-0.85055
-0.805893
-0.762997
-0.721816
-0.6823
-0.644405
-0.608083
-0.573289
-0.539978
-0.508104
-0.477623
-0.448492
-0.420667
-0.394107
-0.368769
-0.344613
-0.321598
-0.299686
-0.278836
-0.259013
-0.240179
-0.222297
-0.205333
-0.189252
-0.17402
-0.159604
-0.145973
-0.133095
-0.120941
-0.109479
-0.0986819
-0.0885215
-0.0789705
-1.79743
-1.72931
-1.66227
-1.59637
-1.53172
-1.46836
-1.40636
-1.34577
-1.28662
-1.22896
-1.1728
-1.11818
-1.06511
-1.0136
-0.963648
-0.915267
-0.868451
-0.823191
-0.779476
-0.737293
-0.696623
-0.657447
-0.619741
-0.58348
-0.548638
-0.515186
-0.483095
-0.452334
-0.422872
-0.394676
-0.367714
-0.341953
-0.317359
-0.293898
-0.271539
-0.250247
-0.229989
-0.210733
-0.192446
-0.175095
-0.158649
-0.143076
-0.128346
-0.114429
-0.101293
-0.0889101
-0.0772514
-0.0662884
-0.0559938
-0.0463404
-1.69196
-1.62692
-1.56311
-1.50054
-1.43924
-1.37921
-1.32048
-1.26307
-1.20698
-1.15225
-1.09888
-1.04689
-0.996287
-0.947076
-0.899264
-0.852854
-0.807845
-0.764233
-0.722013
-0.681177
-0.641714
-0.603612
-0.566855
-0.531428
-0.497312
-0.464488
-0.432935
-0.402631
-0.373552
-0.345674
-0.318973
-0.293422
-0.268996
-0.245667
-0.223409
-0.202194
-0.181995
-0.162783
-0.144531
-0.127211
-0.110795
-0.0952548
-0.0805633
-0.0666927
-0.0536158
-0.0413056
-0.0297353
-0.0188786
-0.00870935
0.000798049
-1.61033
-1.54291
-1.47733
-1.41353
-1.35144
-1.29101
-1.23221
-1.17499
-1.11933
-1.0652
-1.01258
-0.961445
-0.91178
-0.863566
-0.816788
-0.771428
-0.727472
-0.684902
-0.643702
-0.603857
-0.565347
-0.528156
-0.492266
-0.457658
-0.424312
-0.392209
-0.361328
-0.331649
-0.30315
-0.27581
-0.249606
-0.224515
-0.200515
-0.177582
-0.155693
-0.134823
-0.114949
-0.0960466
-0.0780906
-0.0610567
-0.0449204
-0.029657
-0.0152417
-0.00164979
0.0111433
0.0231622
0.0344313
0.0449749
0.0548172
0.0639822
-1.50836
-1.44092
-1.37542
-1.31178
-1.24994
-1.18984
-1.13144
-1.07469
-1.01956
-0.966008
-0.914016
-0.863553
-0.814594
-0.767114
-0.721089
-0.676497
-0.633315
-0.591521
-0.551092
-0.512006
-0.474241
-0.437777
-0.402591
-0.368661
-0.335968
-0.304488
-0.274201
-0.245087
-0.217123
-0.190288
-0.164562
-0.139922
-0.116348
-0.0938186
-0.0723118
-0.0518063
-0.0322806
-0.013713
0.00391825
0.0206348
0.0364586
0.0514114
0.0655153
0.0787922
0.0912642
0.102953
0.113881
0.124071
0.133543
0.142321
-1.36681
-1.30467
-1.24383
-1.18429
-1.12609
-1.06921
-1.01369
-0.959532
-0.906738
-0.855313
-0.805259
-0.756571
-0.709245
-0.663272
-0.618641
-0.57534
-0.533353
-0.492666
-0.453262
-0.415124
-0.378232
-0.34257
-0.308117
-0.274857
-0.242769
-0.211835
-0.182038
-0.153357
-0.125776
-0.0992765
-0.07384
-0.049449
-0.0260856
-0.0037323
0.0176287
0.0380148
0.0574437
0.075933
0.0935002
0.110163
0.125939
0.140847
0.154904
0.168128
0.180539
0.192155
0.202994
0.213076
0.222419
0.231042
-1.24379
-1.18408
-1.12571
-1.0687
-1.01303
-0.958704
-0.905711
-0.854042
-0.803686
-0.754628
-0.706853
-0.660346
-0.615091
-0.571069
-0.528263
-0.486655
-0.446227
-0.406961
-0.36884
-0.331846
-0.295963
-0.261174
-0.227463
-0.194817
-0.163219
-0.132656
-0.103117
-0.0745871
-0.0470555
-0.0205102
0.00506043
0.0296675
0.0533221
0.0760349
0.0978166
0.118678
0.138628
0.157679
0.17584
0.193121
0.209526
0.22507
0.239765
0.253623
0.266659
0.278883
0.290312
0.300957
0.310833
0.319955
-1.15284
-1.09752
-1.04334
-0.990315
-0.938475
-0.887825
-0.838361
-0.790073
-0.742944
-0.696954
-0.652081
-0.608301
-0.565588
-0.523914
-0.483257
-0.443589
-0.404886
-0.367126
-0.330288
-0.294355
-0.259309
-0.225137
-0.191825
-0.159363
-0.127742
-0.0969561
-0.0670007
-0.0378903
-0.00961854
0.0178194
0.044427
0.0702065
0.095159
0.119285
0.142585
0.165057
0.186701
0.207515
0.2275
0.246653
0.264975
0.282465
0.299123
0.314951
0.329951
0.344124
0.357475
0.370008
0.381727
0.39264
-1.12257
-1.07278
-1.02417
-0.976664
-0.930223
-0.884791
-0.840317
-0.796754
-0.754093
-0.712301
-0.671338
-0.631159
-0.591732
-0.553015
-0.514979
-0.477591
-0.440823
-0.404654
-0.369066
-0.334045
-0.299581
-0.265665
-0.232293
-0.199463
-0.167175
-0.135435
-0.104246
-0.0736161
-0.0435529
-0.0140673
0.0148281
0.0431194
0.0707913
0.0978272
0.12421
0.149921
0.174943
0.199256
0.222842
0.245682
0.267758
0.289052
0.309549
0.329232
0.348087
0.366102
0.383265
0.399566
0.414997
0.429552
-1.14377
-1.1019
-1.0609
-1.02071
-0.981278
-0.94255
-0.90447
-0.866987
-0.830051
-0.79362
-0.75764
-0.722064
-0.686871
-0.651985
-0.617399
-0.583069
-0.548968
-0.515069
-0.481353
-0.447802
-0.414406
-0.381156
-0.348047
-0.315082
-0.282266
-0.249607
-0.217116
-0.184807
-0.1527
-0.120816
-0.0891812
-0.0578244
-0.0267767
0.00392859
0.034256
0.0641681
0.0936259
0.12259
0.151018
0.17887
0.206104
0.232679
0.258556
0.283694
0.308057
0.331608
0.354314
0.376143
0.397067
0.417061
-1.10205
-1.06793
-1.03472
-1.00235
-0.970745
-0.939854
-0.909593
-0.879898
-0.850683
-0.821905
-0.793432
-0.765237
-0.737241
-0.709375
-0.68158
-0.6538
-0.625978
-0.598064
-0.570011
-0.541778
-0.513328
-0.48463
-0.455658
-0.4264
-0.396827
-0.366948
-0.336761
-0.306273
-0.275498
-0.244457
-0.213177
-0.181689
-0.150031
-0.118246
-0.0863806
-0.0544863
-0.0226185
0.00916397
0.0407997
0.0722252
0.103375
0.134184
0.164584
0.19451
0.223894
0.252673
0.280782
0.30816
0.334749
0.360493
-0.100428
-0.0972896
-0.0942244
-0.091232
-0.0883112
-0.0854613
-0.0826811
-0.0799697
-0.0773261
-0.0747493
-0.0722383
-0.0697921
-0.0674096
-0.0650899
-0.0628319
-0.0606346
-0.0584971
-0.0564182
-0.0543969
-0.0524323
-0.0505233
-0.0486689
-0.046868
-0.0451197
-0.043423
-0.0417767
-0.04018
-0.0386319
-0.0371312
-0.0356771
-0.0342685
-0.0329045
-0.0315841
-0.0303063
-0.0290702
-0.0278747
-0.0267191
-0.0256022
-0.0245232
-0.0234812
-0.0224753
-0.0215045
-0.020568
-0.0196649
-0.0187942
-0.0179553
-0.0171471
-0.0163689
-0.0156199
-0.0148991
-0.0142059
-0.0135395
-0.0128989
-0.0122836
-0.0116927
-0.0111255
-0.0105813
-0.0100594
-0.00955895
-0.00907941
-0.00862007
-0.00818026
-0.00775934
-0.00735667
-0.00697163
-0.00660362
-0.00625204
-0.00591631
-0.00559587
-0.00529017
-0.00499866
-0.00472081
-0.00445612
-0.00420409
-0.00396423
-0.00373606
-0.00351913
-0.00331298
-0.00311719
-0.00293132
-0.00275498
-0.00258775
-0.00242926
-0.00227913
-0.002137
-0.00200252
-0.00187534
-0.00175515
-0.00164162
-0.00153445
-0.00143333
-0.001338
-0.00124817
-0.00116357
-0.00108396
-0.00100908
-0.000938698
-0.000872592
-0.000810541
-0.000752334
-0.000697772
-0.000646662
-0.000598819
-0.000554066
-0.000512234
-0.000473162
-0.000436694
-0.000402683
-0.000370989
-0.000341476
-0.000314016
-0.000288489
-0.000264776
-0.000242769
-0.000222361
-0.000203454
-0.000185953
-0.000169767
-0.000154813
-0.000141009
-0.00012828
-0.000116554
-0.000105761
-9.58399e-05
-8.67284e-05
-7.837e-05
-7.0711e-05
-6.3701e-05
-5.72927e-05
-5.14415e-05
-4.61058e-05
-4.12465e-05
-3.68268e-05
-3.28127e-05
-2.91721e-05
-2.58752e-05
-2.28941e-05
-2.02028e-05
-1.77773e-05
-1.55951e-05
-1.36353e-05
-1.18787e-05
-1.03073e-05
-8.90455e-06
-7.65516e-06
-6.54496e-06
-5.56094e-06
-4.69107e-06
-3.92433e-06
-3.25057e-06
-2.66049e-06
-2.14558e-06
-1.69805e-06
-1.31078e-06
-9.77288e-07
-6.91677e-07
-4.4858e-07
-2.43132e-07
-7.0927e-08
7.2017e-08
1.89292e-07
2.84133e-07
3.59444e-07
4.1783e-07
4.61618e-07
4.92887e-07
5.13483e-07
5.25047e-07
5.29029e-07
5.26706e-07
5.19201e-07
5.07499e-07
4.92457e-07
4.74817e-07
4.55223e-07
4.34226e-07
4.12297e-07
3.89834e-07
3.67173e-07
3.44593e-07
3.22323e-07
3.00549e-07
2.7942e-07
2.59051e-07
2.39528e-07
2.20913e-07
2.0325e-07
1.86561e-07
1.70855e-07
1.56129e-07
1.4237e-07
1.29556e-07
1.17657e-07
1.06641e-07
9.64708e-08
8.71056e-08
7.85036e-08
7.06221e-08
6.34175e-08
5.6847e-08
5.08679e-08
4.54387e-08
4.05193e-08
3.6071e-08
3.20567e-08
2.84414e-08
2.51919e-08
2.22765e-08
1.96659e-08
1.73327e-08
1.52512e-08
1.33978e-08
1.17501e-08
1.02885e-08
8.99383e-09
7.84929e-09
6.83907e-09
5.9492e-09
5.16657e-09
4.47936e-09
3.87737e-09
3.35072e-09
2.89082e-09
2.48968e-09
2.14037e-09
1.83726e-09
1.57409e-09
1.34606e-09
1.14957e-09
9.80019e-10
8.33546e-10
7.07423e-10
5.99733e-10
5.06885e-10
4.28085e-10
3.6072e-10
3.02426e-10
2.53568e-10
2.1236e-10
1.77358e-10
1.47406e-10
1.21454e-10
9.84876e-11
8.00914e-11
6.53094e-11
5.33438e-11
4.36822e-11
3.57732e-11
2.92672e-11
2.38844e-11
1.93989e-11
1.57366e-11
1.2754e-11
1.03224e-11
8.34149e-12
6.73046e-12
5.42195e-12
4.36065e-12
3.50117e-12
2.80628e-12
2.24539e-12
1.79344e-12
1.42991e-12
1.13802e-12
9.04074e-13
7.16905e-13
5.67438e-13
4.483e-13
3.53514e-13
2.78245e-13
2.18588e-13
1.71396e-13
1.34135e-13
1.04773e-13
8.16793e-14
6.35517e-14
4.93501e-14
3.8246e-14
2.9581e-14
2.28328e-14
1.75881e-14
1.35201e-14
1.03712e-14
7.93902e-15
6.0643e-15
4.62242e-15
3.51594e-15
2.66879e-15
2.02179e-15
1.52897e-15
1.15471e-15
8.71483e-16
6.58118e-16
4.98365e-16
3.79832e-16
2.93144e-16
2.31294e-16
1.8915e-16
1.63084e-16
1.50714e-16
-0.105512
-0.102196
-0.0989581
-0.0957973
-0.0927124
-0.0897025
-0.0867665
-0.0839034
-0.081112
-0.0783914
-0.0757404
-0.0731581
-0.0706433
-0.0681949
-0.065812
-0.0634933
-0.0612379
-0.0590446
-0.0569124
-0.0548402
-0.0528269
-0.0508714
-0.0489726
-0.0471296
-0.0453411
-0.0436062
-0.0419238
-0.0402927
-0.038712
-0.0371806
-0.0356975
-0.0342616
-0.0328718
-0.0315272
-0.0302267
-0.0289694
-0.0277541
-0.02658
-0.025446
-0.0243512
-0.0232946
-0.0222751
-0.021292
-0.0203442
-0.0194309
-0.018551
-0.0177038
-0.0168883
-0.0161036
-0.0153489
-0.0146233
-0.013926
-0.0132561
-0.0126129
-0.0119955
-0.0114032
-0.0108351
-0.0102906
-0.00976885
-0.00926913
-0.00879074
-0.00833296
-0.00789512
-0.00747654
-0.00707655
-0.00669452
-0.00632981
-0.0059818
-0.0056499
-0.00533351
-0.00503205
-0.00474498
-0.00447175
-0.00421182
-0.00396467
-0.00372981
-0.00350674
-0.00329499
-0.00309409
-0.0029036
-0.00272308
-0.0025521
-0.00239027
-0.00223717
-0.00209243
-0.00195567
-0.00182654
-0.00170468
-0.00158976
-0.00148146
-0.00137945
-0.00128345
-0.00119316
-0.0011083
-0.00102859
-0.000953788
-0.000883632
-0.000817886
-0.00075632
-0.000698712
-0.000644852
-0.000594535
-0.000547568
-0.000503764
-0.000462946
-0.000424944
-0.000389595
-0.000356744
-0.000326244
-0.000297954
-0.000271739
-0.000247473
-0.000225034
-0.000204307
-0.000185182
-0.000167556
-0.00015133
-0.000136412
-0.000122713
-0.00011015
-9.86448e-05
-8.81225e-05
-7.85134e-05
-6.97516e-05
-6.17751e-05
-5.45255e-05
-4.7948e-05
-4.19913e-05
-3.6607e-05
-3.17501e-05
-2.73784e-05
-2.34523e-05
-1.9935e-05
-1.67922e-05
-1.39919e-05
-1.15042e-05
-9.30147e-06
-7.35811e-06
-5.6503e-06
-4.15599e-06
-2.85483e-06
-1.72803e-06
-7.58245e-07
7.04573e-08
7.72736e-07
1.36204e-06
1.85068e-06
2.24992e-06
2.57005e-06
2.82042e-06
3.00956e-06
3.14519e-06
3.23429e-06
3.28321e-06
3.29761e-06
3.28263e-06
3.24285e-06
3.18236e-06
3.10481e-06
3.01345e-06
2.91114e-06
2.8004e-06
2.68345e-06
2.5622e-06
2.43834e-06
2.3133e-06
2.18832e-06
2.06444e-06
1.94254e-06
1.82334e-06
1.70745e-06
1.59532e-06
1.48734e-06
1.38377e-06
1.28483e-06
1.19063e-06
1.10125e-06
1.01669e-06
9.36937e-07
8.61916e-07
7.91532e-07
7.25664e-07
6.64169e-07
6.06889e-07
5.53653e-07
5.0428e-07
4.58587e-07
4.16384e-07
3.77481e-07
3.41689e-07
3.0882e-07
2.78693e-07
2.51127e-07
2.25951e-07
2.02996e-07
1.82104e-07
1.63122e-07
1.45903e-07
1.3031e-07
1.16214e-07
1.0349e-07
9.20249e-08
8.17102e-08
7.24455e-08
6.41373e-08
5.66986e-08
5.00491e-08
4.41145e-08
3.88263e-08
3.41215e-08
2.99424e-08
2.6236e-08
2.29542e-08
2.00529e-08
1.74919e-08
1.5235e-08
1.32492e-08
1.15047e-08
9.97459e-09
8.63467e-09
7.4632e-09
6.44064e-09
5.54948e-09
4.77409e-09
4.10052e-09
3.51634e-09
3.01055e-09
2.57331e-09
2.19597e-09
1.87087e-09
1.59125e-09
1.35111e-09
1.14526e-09
9.69068e-10
8.18537e-10
6.90184e-10
5.80855e-10
4.87964e-10
4.09181e-10
3.42394e-10
2.8595e-10
2.38339e-10
1.98204e-10
1.64515e-10
1.36288e-10
1.12641e-10
9.29877e-11
7.66482e-11
6.30563e-11
5.18627e-11
4.25813e-11
3.48736e-11
2.84696e-11
2.31473e-11
1.8722e-11
1.51278e-11
1.22034e-11
9.82559e-12
7.89599e-12
6.33321e-12
5.07011e-12
4.05127e-12
3.2311e-12
2.57215e-12
2.04376e-12
1.62087e-12
1.28308e-12
1.01377e-12
7.9948e-13
6.29292e-13
4.94391e-13
3.87668e-13
3.03402e-13
2.36995e-13
1.84765e-13
1.43766e-13
1.11646e-13
8.65313e-14
6.6933e-14
5.16698e-14
3.98066e-14
3.06046e-14
2.34813e-14
1.79786e-14
1.37366e-14
1.04736e-14
7.96906e-15
6.05112e-15
4.58595e-15
3.46958e-15
2.62151e-15
1.97952e-15
1.4957e-15
1.13331e-15
8.64328e-16
6.67543e-16
5.27103e-16
4.31394e-16
3.72217e-16
3.44183e-16
-0.110197
-0.106697
-0.10328
-0.0999448
-0.0966903
-0.0935154
-0.0904188
-0.0873996
-0.0844566
-0.0815886
-0.0787946
-0.0760734
-0.073424
-0.070845
-0.0683354
-0.0658941
-0.06352
-0.0612117
-0.0589683
-0.0567886
-0.0546714
-0.0526155
-0.0506199
-0.0486834
-0.0468048
-0.044983
-0.0432169
-0.0415053
-0.0398472
-0.0382414
-0.0366867
-0.0351821
-0.0337265
-0.0323188
-0.0309579
-0.0296427
-0.0283721
-0.0271452
-0.0259608
-0.0248178
-0.0237154
-0.0226523
-0.0216277
-0.0206406
-0.0196898
-0.0187746
-0.0178939
-0.0170467
-0.0162321
-0.0154492
-0.0146971
-0.0139749
-0.0132817
-0.0126166
-0.0119788
-0.0113675
-0.0107817
-0.0102208
-0.00968383
-0.0091701
-0.00867882
-0.00820925
-0.00776065
-0.00733229
-0.00692348
-0.00653353
-0.00616175
-0.00580749
-0.00547011
-0.00514898
-0.00484349
-0.00455304
-0.00427705
-0.00401495
-0.00376619
-0.00353024
-0.00330656
-0.00309467
-0.00289405
-0.00270424
-0.00252477
-0.00235519
-0.00219507
-0.00204398
-0.00190152
-0.00176728
-0.0016409
-0.00152199
-0.00141021
-0.0013052
-0.00120665
-0.00111422
-0.00102761
-0.000946527
-0.000870684
-0.000799807
-0.000733632
-0.000671909
-0.000614395
-0.000560857
-0.000511073
-0.000464831
-0.000421928
-0.000382168
-0.000345366
-0.000311345
-0.000279935
-0.000250976
-0.000224315
-0.000199805
-0.000177307
-0.000156691
-0.00013783
-0.000120608
-0.00010491
-9.06318e-05
-7.76723e-05
-6.59366e-05
-5.53352e-05
-4.57838e-05
-3.72028e-05
-2.95175e-05
-2.26576e-05
-1.65571e-05
-1.11541e-05
-6.39057e-06
-2.21237e-06
1.43122e-06
4.58749e-06
7.30053e-06
9.61139e-06
1.15582e-05
1.31764e-05
1.44988e-05
1.55557e-05
1.63753e-05
1.69834e-05
1.74039e-05
1.76586e-05
1.77677e-05
1.77495e-05
1.76209e-05
1.73971e-05
1.70922e-05
1.67186e-05
1.62879e-05
1.58103e-05
1.52952e-05
1.47507e-05
1.41843e-05
1.36025e-05
1.30112e-05
1.24155e-05
1.18198e-05
1.12281e-05
1.06437e-05
1.00694e-05
9.50767e-06
8.96054e-06
8.42965e-06
7.91633e-06
7.42161e-06
6.94627e-06
6.49085e-06
6.05569e-06
5.64095e-06
5.24661e-06
4.87254e-06
4.51848e-06
4.18407e-06
3.86886e-06
3.57235e-06
3.29394e-06
3.03303e-06
2.78895e-06
2.56102e-06
2.34855e-06
2.15081e-06
1.96709e-06
1.79667e-06
1.63885e-06
1.49292e-06
1.35819e-06
1.23401e-06
1.11971e-06
1.01467e-06
9.18288e-07
8.29974e-07
7.49174e-07
6.75358e-07
6.0802e-07
5.46679e-07
4.90884e-07
4.40204e-07
3.94237e-07
3.52605e-07
3.14953e-07
2.80948e-07
2.50281e-07
2.22664e-07
1.97828e-07
1.75527e-07
1.55529e-07
1.37623e-07
1.21612e-07
1.07317e-07
9.45718e-08
8.32251e-08
7.3138e-08
6.41836e-08
5.62465e-08
4.92212e-08
4.30122e-08
3.75327e-08
3.27042e-08
2.84556e-08
2.4723e-08
2.14485e-08
1.85803e-08
1.60717e-08
1.38811e-08
1.19711e-08
1.03082e-08
8.86278e-09
7.60836e-09
6.52138e-09
5.58098e-09
4.7687e-09
4.0682e-09
3.46507e-09
2.94661e-09
2.50167e-09
2.12044e-09
1.79437e-09
1.51589e-09
1.2785e-09
1.07646e-09
9.04784e-10
7.59183e-10
6.35898e-10
5.31686e-10
4.43777e-10
3.69733e-10
3.07435e-10
2.55218e-10
2.11468e-10
1.74918e-10
1.44387e-10
1.18901e-10
9.77384e-11
8.02197e-11
6.56977e-11
5.37599e-11
4.3954e-11
3.58308e-11
2.91048e-11
2.35373e-11
1.89507e-11
1.52403e-11
1.22326e-11
9.79853e-12
7.83316e-12
6.24969e-12
4.97662e-12
3.95522e-12
3.13743e-12
2.48397e-12
1.96287e-12
1.54814e-12
1.21871e-12
9.57552e-13
7.50922e-13
5.87752e-13
4.59155e-13
3.58002e-13
2.78594e-13
2.16378e-13
1.67727e-13
1.2976e-13
1.00189e-13
7.7202e-14
5.93697e-14
4.55639e-14
3.48971e-14
2.66727e-14
2.03447e-14
1.54864e-14
1.17649e-14
8.92086e-15
6.75309e-15
5.10559e-15
3.85786e-15