/*--------------------------------*- C++ -*----------------------------------*\
| =========                 |                                                 |
| \\      /  F ield         | OpenFOAM: The Open Source CFD Toolbox           |
|  \\    /   O peration     | Version:  2.4.0                                 |
|   \\  /    A nd           | Web:      www.OpenFOAM.org                      |
|    \\/     M anipulation  |                                                 |
\*---------------------------------------------------------------------------*/
FoamFile
{
    version     2.0;
    format      ascii;
    class       volScalarField;
    location    "1";
    object      p;
}
// * * * * * * * * * * * * * * * * * * * * * * * * * * * * * * * * * * * * * //

dimensions      [1 -1 -2 0 0 0 0];

internalField   nonuniform List<scalar> 
8000
(
-1.00859
-1.00949
-1.01065
-1.01193
-1.01333
-1.01486
-1.01652
-1.01831
-1.02024
-1.02229
-1.02448
-1.02681
-1.02928
-1.03189
-1.03465
-1.03755
-1.0406
-1.04382
-1.04736
-1.05137
-1.05529
-1.05597
-1.04936
-1.05054
-1.13954
-1.41535
-1.48669
-0.909625
-0.90685
-0.906696
-0.906741
-0.906761
-0.906762
-0.90676
-0.906759
-0.906759
-0.906758
-0.906758
-0.906758
-0.906757
-0.906757
-0.906757
-0.906757
-0.906757
-0.906757
-0.906757
-0.906757
-0.906757
-0.906757
-0.906757
-1.02603
-1.02637
-1.02687
-1.02754
-1.02838
-1.02939
-1.03058
-1.03192
-1.03343
-1.03511
-1.03694
-1.03893
-1.0411
-1.04342
-1.04592
-1.04859
-1.05144
-1.0545
-1.05794
-1.06184
-1.06525
-1.06452
-1.0576
-1.06954
-1.19266
-1.47355
-1.32069
-0.929959
-0.929122
-0.929111
-0.929144
-0.929154
-0.929154
-0.929152
-0.929151
-0.929151
-0.929151
-0.92915
-0.92915
-0.92915
-0.92915
-0.92915
-0.92915
-0.92915
-0.92915
-0.92915
-0.92915
-0.92915
-0.92915
-0.92915
-1.03215
-1.03327
-1.0346
-1.03595
-1.03731
-1.0387
-1.04013
-1.0416
-1.0431
-1.04464
-1.04621
-1.0478
-1.04943
-1.05109
-1.05277
-1.05446
-1.05616
-1.05796
-1.06015
-1.06271
-1.06312
-1.05417
-1.0366
-1.07442
-1.35021
-1.83277
-1.17895
-0.951902
-0.951466
-0.951522
-0.951552
-0.951556
-0.951553
-0.951551
-0.951551
-0.95155
-0.951549
-0.951548
-0.951548
-0.951547
-0.951547
-0.951547
-0.951547
-0.951546
-0.951546
-0.951546
-0.951546
-0.951546
-0.951545
-0.951545
-0.99432
-0.99699
-0.999798
-1.0023
-1.00453
-1.00656
-1.0084
-1.01006
-1.01154
-1.01283
-1.01393
-1.01484
-1.01557
-1.0161
-1.01643
-1.01653
-1.0164
-1.01621
-1.01636
-1.01665
-1.01274
-0.993894
-0.966074
-1.03885
-1.48397
-2.13598
-1.03578
-0.974143
-0.973846
-0.97391
-0.97394
-0.973943
-0.973941
-0.97394
-0.973939
-0.973939
-0.973939
-0.973939
-0.973939
-0.973939
-0.973939
-0.973939
-0.973939
-0.973939
-0.973939
-0.973939
-0.973939
-0.973939
-0.973939
-0.973939
-1.03007
-1.03239
-1.03491
-1.03724
-1.03939
-1.04142
-1.04335
-1.04518
-1.04692
-1.04856
-1.05009
-1.05154
-1.05288
-1.05412
-1.05526
-1.05628
-1.05718
-1.05811
-1.05935
-1.06063
-1.05848
-1.04529
-1.02846
-1.09555
-1.43705
-1.86742
-1.00654
-0.996507
-0.996253
-0.996314
-0.996341
-0.996343
-0.996341
-0.996339
-0.996339
-0.996338
-0.996338
-0.996338
-0.996337
-0.996337
-0.996337
-0.996337
-0.996337
-0.996337
-0.996337
-0.996337
-0.996337
-0.996337
-0.996336
-0.996336
-1.09428
-1.09512
-1.09617
-1.09731
-1.09854
-1.09987
-1.10129
-1.10282
-1.10445
-1.10617
-1.108
-1.10994
-1.11198
-1.11413
-1.11638
-1.11874
-1.12121
-1.12393
-1.12713
-1.13041
-1.13056
-1.12194
-1.11542
-1.19239
-1.49241
-1.7261
-1.02075
-1.01879
-1.01868
-1.01872
-1.01874
-1.01874
-1.01874
-1.01874
-1.01874
-1.01874
-1.01874
-1.01874
-1.01874
-1.01874
-1.01874
-1.01874
-1.01874
-1.01874
-1.01874
-1.01874
-1.01874
-1.01874
-1.01873
-1.01873
-1.10567
-1.10628
-1.107
-1.1078
-1.10868
-1.10966
-1.11073
-1.1119
-1.11315
-1.11449
-1.11592
-1.11744
-1.11904
-1.12073
-1.1225
-1.12435
-1.12629
-1.12848
-1.13105
-1.1334
-1.13221
-1.12345
-1.1235
-1.21625
-1.49894
-1.57357
-1.04179
-1.04107
-1.0411
-1.04114
-1.04115
-1.04114
-1.04114
-1.04114
-1.04114
-1.04114
-1.04114
-1.04114
-1.04114
-1.04114
-1.04114
-1.04114
-1.04114
-1.04114
-1.04114
-1.04114
-1.04114
-1.04114
-1.04114
-1.04114
-1.12715
-1.12752
-1.12804
-1.12872
-1.12953
-1.13048
-1.13157
-1.1328
-1.13415
-1.13565
-1.13727
-1.13904
-1.14093
-1.14297
-1.14513
-1.14744
-1.14992
-1.15275
-1.156
-1.15861
-1.15664
-1.14808
-1.16069
-1.29449
-1.59351
-1.43847
-1.06393
-1.06344
-1.06351
-1.06355
-1.06355
-1.06355
-1.06355
-1.06355
-1.06355
-1.06354
-1.06354
-1.06354
-1.06354
-1.06354
-1.06354
-1.06354
-1.06354
-1.06354
-1.06354
-1.06354
-1.06354
-1.06354
-1.06354
-1.06354
-1.1137
-1.11464
-1.11579
-1.11699
-1.11824
-1.11956
-1.12095
-1.12241
-1.12394
-1.12553
-1.12719
-1.12891
-1.13069
-1.13254
-1.13443
-1.13638
-1.13846
-1.14095
-1.14384
-1.14478
-1.13699
-1.12103
-1.15666
-1.41537
-1.87053
-1.31297
-1.08626
-1.08584
-1.08592
-1.08595
-1.08596
-1.08595
-1.08595
-1.08595
-1.08595
-1.08595
-1.08595
-1.08595
-1.08595
-1.08595
-1.08595
-1.08595
-1.08594
-1.08594
-1.08594
-1.08594
-1.08594
-1.08594
-1.08594
-1.08594
-1.06031
-1.06336
-1.06659
-1.06947
-1.07201
-1.07431
-1.07638
-1.07822
-1.07984
-1.08122
-1.08236
-1.08327
-1.08394
-1.08435
-1.08449
-1.08433
-1.08407
-1.08419
-1.08444
-1.08002
-1.05849
-1.02541
-1.10386
-1.60871
-2.38037
-1.17502
-1.10859
-1.10826
-1.10833
-1.10837
-1.10837
-1.10837
-1.10836
-1.10836
-1.10836
-1.10836
-1.10836
-1.10836
-1.10836
-1.10836
-1.10836
-1.10836
-1.10836
-1.10836
-1.10836
-1.10836
-1.10836
-1.10836
-1.10836
-1.10836
-1.06985
-1.07296
-1.07629
-1.07934
-1.08215
-1.08481
-1.08732
-1.0897
-1.09193
-1.09403
-1.09598
-1.09778
-1.09944
-1.10094
-1.10226
-1.10341
-1.10455
-1.10598
-1.1074
-1.10493
-1.09006
-1.07109
-1.1456
-1.52636
-2.02141
-1.14164
-1.13095
-1.13066
-1.13073
-1.13076
-1.13077
-1.13076
-1.13076
-1.13076
-1.13076
-1.13076
-1.13076
-1.13076
-1.13076
-1.13076
-1.13076
-1.13076
-1.13076
-1.13076
-1.13076
-1.13076
-1.13076
-1.13076
-1.13076
-1.13076
-1.15656
-1.15772
-1.15931
-1.16113
-1.16318
-1.16546
-1.16798
-1.17073
-1.17372
-1.17695
-1.18042
-1.18414
-1.18811
-1.19234
-1.19684
-1.20163
-1.20689
-1.21282
-1.21884
-1.22123
-1.21471
-1.21576
-1.31947
-1.65536
-1.83507
-1.15534
-1.15329
-1.15316
-1.15321
-1.15323
-1.15323
-1.15323
-1.15323
-1.15322
-1.15322
-1.15322
-1.15322
-1.15322
-1.15322
-1.15322
-1.15321
-1.15321
-1.15321
-1.15321
-1.15321
-1.15321
-1.15321
-1.1532
-1.1532
-1.1532
-1.12848
-1.12995
-1.13173
-1.13369
-1.13584
-1.13819
-1.14076
-1.14353
-1.1465
-1.14967
-1.15305
-1.15662
-1.1604
-1.16437
-1.16856
-1.173
-1.17794
-1.18345
-1.18818
-1.18716
-1.17807
-1.19575
-1.36328
-1.73438
-1.63623
-1.17617
-1.1755
-1.17554
-1.17558
-1.17559
-1.17559
-1.17559
-1.17559
-1.17559
-1.17559
-1.17559
-1.17559
-1.17559
-1.17559
-1.17559
-1.17559
-1.17559
-1.17559
-1.17559
-1.17559
-1.17559
-1.17559
-1.17559
-1.17558
-1.17558
-1.08853
-1.09342
-1.09874
-1.10358
-1.10793
-1.1119
-1.11552
-1.11879
-1.12171
-1.12426
-1.12643
-1.12822
-1.12957
-1.13047
-1.13086
-1.1311
-1.13206
-1.13361
-1.1269
-1.08782
-1.0215
-1.15286
-2.09907
-3.67881
-1.48394
-1.19858
-1.19804
-1.19814
-1.19818
-1.19818
-1.19817
-1.19816
-1.19815
-1.19815
-1.19814
-1.19814
-1.19813
-1.19813
-1.19812
-1.19812
-1.19811
-1.19811
-1.1981
-1.1981
-1.19809
-1.19809
-1.19808
-1.19808
-1.19808
-1.19807
-1.03037
-1.03657
-1.0431
-1.04911
-1.05473
-1.06011
-1.06529
-1.07026
-1.075
-1.07954
-1.08385
-1.08794
-1.09181
-1.09544
-1.09884
-1.10221
-1.10584
-1.10922
-1.10798
-1.09417
-1.08155
-1.17904
-1.58375
-2.04943
-1.24786
-1.2207
-1.22034
-1.22042
-1.22046
-1.22046
-1.22046
-1.22046
-1.22046
-1.22046
-1.22046
-1.22045
-1.22045
-1.22045
-1.22045
-1.22045
-1.22045
-1.22045
-1.22045
-1.22045
-1.22044
-1.22044
-1.22044
-1.22044
-1.22044
-1.22044
-1.25003
-1.25447
-1.26009
-1.266
-1.27209
-1.27842
-1.28503
-1.29192
-1.29908
-1.30651
-1.31422
-1.32221
-1.33048
-1.33901
-1.34796
-1.35771
-1.36834
-1.37667
-1.37309
-1.35695
-1.40994
-1.77694
-2.45454
-1.79072
-1.24566
-1.24311
-1.24295
-1.243
-1.24302
-1.24302
-1.24301
-1.24301
-1.24301
-1.243
-1.243
-1.243
-1.24299
-1.24299
-1.24298
-1.24298
-1.24298
-1.24297
-1.24297
-1.24296
-1.24296
-1.24295
-1.24295
-1.24294
-1.24294
-1.24293
-1.06498
-1.07403
-1.08367
-1.09262
-1.10106
-1.10918
-1.11704
-1.1246
-1.13187
-1.13883
-1.14549
-1.15182
-1.15782
-1.16348
-1.16903
-1.17484
-1.1805
-1.18103
-1.16619
-1.14754
-1.24741
-1.72432
-2.4185
-1.3571
-1.26578
-1.26527
-1.26533
-1.26537
-1.26538
-1.26537
-1.26537
-1.26537
-1.26537
-1.26537
-1.26537
-1.26536
-1.26536
-1.26536
-1.26536
-1.26535
-1.26535
-1.26535
-1.26535
-1.26534
-1.26534
-1.26534
-1.26533
-1.26533
-1.26532
-1.26532
-1.22894
-1.24056
-1.25358
-1.26595
-1.27762
-1.28884
-1.29967
-1.31012
-1.32013
-1.32972
-1.33884
-1.34748
-1.35556
-1.36345
-1.37189
-1.38094
-1.38274
-1.35556
-1.30152
-1.41756
-2.26086
-3.74253
-1.83597
-1.2919
-1.28818
-1.28799
-1.28804
-1.28806
-1.28806
-1.28805
-1.28804
-1.28803
-1.28802
-1.28801
-1.288
-1.28799
-1.28799
-1.28798
-1.28797
-1.28796
-1.28795
-1.28794
-1.28793
-1.28792
-1.28791
-1.28791
-1.2879
-1.28789
-1.28787
-1.28785
-1.24402
-1.26048
-1.27854
-1.29559
-1.31173
-1.32732
-1.34243
-1.35707
-1.3712
-1.38482
-1.3979
-1.41045
-1.42258
-1.43473
-1.44704
-1.45647
-1.45265
-1.43202
-1.47332
-1.83705
-2.60236
-2.09743
-1.33638
-1.31083
-1.31034
-1.31039
-1.31042
-1.31042
-1.31041
-1.31041
-1.3104
-1.31039
-1.31038
-1.31038
-1.31037
-1.31036
-1.31033
-1.31032
-1.31034
-1.31033
-1.31032
-1.31032
-1.3103
-1.3103
-1.3103
-1.31029
-1.31028
-1.31028
-1.31028
-1.31022
-1.42676
-1.45202
-1.47981
-1.50574
-1.52991
-1.55286
-1.57476
-1.59559
-1.61535
-1.63398
-1.65151
-1.66801
-1.68391
-1.69939
-1.71182
-1.71163
-1.69408
-1.72681
-2.04873
-2.77422
-2.39579
-1.38277
-1.33396
-1.33325
-1.33326
-1.3333
-1.3333
-1.33328
-1.33326
-1.33324
-1.33323
-1.33322
-1.3332
-1.33317
-1.33309
-1.33287
-1.33287
-1.33302
-1.33303
-1.3331
-1.33312
-1.33299
-1.33248
-1.33297
-1.33298
-1.33298
-1.33298
-1.33296
-1.33296
-1.33284
-0.906757
-0.906757
-0.906757
-0.906756
-0.906756
-0.906756
-0.906756
-0.906756
-0.906756
-0.906756
-0.906756
-0.906755
-0.906755
-0.906755
-0.906755
-0.906755
-0.906754
-0.906754
-0.906754
-0.906754
-0.906754
-0.906753
-0.906753
-0.906753
-0.906753
-0.906753
-0.906752
-0.906752
-0.906752
-0.906752
-0.906751
-0.906751
-0.906751
-0.906751
-0.90675
-0.90675
-0.90675
-0.906749
-0.906749
-0.906749
-0.906748
-0.906748
-0.906748
-0.906748
-0.906747
-0.906747
-0.906747
-0.906746
-0.906746
-0.906746
-0.92915
-0.929149
-0.929149
-0.929149
-0.929149
-0.929149
-0.929149
-0.929149
-0.929149
-0.929149
-0.929148
-0.929148
-0.929148
-0.929148
-0.929148
-0.929148
-0.929147
-0.929147
-0.929147
-0.929147
-0.929147
-0.929146
-0.929146
-0.929146
-0.929146
-0.929145
-0.929145
-0.929145
-0.929145
-0.929144
-0.929144
-0.929144
-0.929143
-0.929143
-0.929143
-0.929142
-0.929142
-0.929142
-0.929142
-0.929141
-0.929141
-0.929141
-0.92914
-0.92914
-0.92914
-0.929139
-0.929139
-0.929138
-0.929138
-0.929138
-0.951545
-0.951545
-0.951545
-0.951544
-0.951544
-0.951544
-0.951544
-0.951544
-0.951543
-0.951543
-0.951543
-0.951543
-0.951542
-0.951542
-0.951542
-0.951542
-0.951541
-0.951541
-0.951541
-0.951541
-0.95154
-0.95154
-0.95154
-0.95154
-0.951539
-0.951539
-0.951539
-0.951538
-0.951538
-0.951538
-0.951537
-0.951537
-0.951537
-0.951536
-0.951536
-0.951536
-0.951535
-0.951535
-0.951535
-0.951534
-0.951534
-0.951533
-0.951533
-0.951533
-0.951532
-0.951532
-0.951531
-0.951531
-0.951531
-0.95153
-0.973939
-0.973939
-0.973939
-0.973938
-0.973938
-0.973938
-0.973938
-0.973938
-0.973938
-0.973938
-0.973937
-0.973937
-0.973937
-0.973937
-0.973937
-0.973936
-0.973936
-0.973936
-0.973936
-0.973935
-0.973935
-0.973935
-0.973935
-0.973934
-0.973934
-0.973934
-0.973933
-0.973933
-0.973933
-0.973932
-0.973932
-0.973932
-0.973931
-0.973931
-0.97393
-0.97393
-0.97393
-0.973929
-0.973929
-0.973928
-0.973928
-0.973928
-0.973927
-0.973927
-0.973926
-0.973926
-0.973925
-0.973925
-0.973924
-0.973924
-0.996336
-0.996336
-0.996336
-0.996336
-0.996335
-0.996335
-0.996335
-0.996335
-0.996334
-0.996334
-0.996334
-0.996334
-0.996333
-0.996333
-0.996333
-0.996333
-0.996332
-0.996332
-0.996332
-0.996331
-0.996331
-0.996331
-0.99633
-0.99633
-0.996329
-0.996329
-0.996329
-0.996328
-0.996328
-0.996327
-0.996327
-0.996327
-0.996326
-0.996326
-0.996325
-0.996325
-0.996324
-0.996324
-0.996323
-0.996323
-0.996322
-0.996322
-0.996321
-0.996321
-0.99632
-0.99632
-0.996319
-0.996319
-0.996318
-0.996318
-1.01873
-1.01873
-1.01873
-1.01873
-1.01873
-1.01873
-1.01873
-1.01873
-1.01873
-1.01873
-1.01873
-1.01873
-1.01873
-1.01873
-1.01873
-1.01873
-1.01873
-1.01873
-1.01873
-1.01873
-1.01873
-1.01873
-1.01873
-1.01873
-1.01873
-1.01873
-1.01873
-1.01873
-1.01873
-1.01873
-1.01872
-1.01872
-1.01872
-1.01872
-1.01872
-1.01872
-1.01872
-1.01872
-1.01872
-1.01872
-1.01872
-1.01872
-1.01872
-1.01872
-1.01872
-1.01872
-1.01872
-1.01872
-1.01871
-1.01871
-1.04114
-1.04113
-1.04113
-1.04113
-1.04113
-1.04113
-1.04113
-1.04113
-1.04113
-1.04113
-1.04113
-1.04113
-1.04113
-1.04113
-1.04113
-1.04113
-1.04113
-1.04113
-1.04113
-1.04113
-1.04113
-1.04113
-1.04113
-1.04113
-1.04113
-1.04112
-1.04112
-1.04112
-1.04112
-1.04112
-1.04112
-1.04112
-1.04112
-1.04112
-1.04112
-1.04112
-1.04112
-1.04112
-1.04112
-1.04112
-1.04112
-1.04111
-1.04111
-1.04111
-1.04111
-1.04111
-1.04111
-1.04111
-1.04111
-1.04111
-1.06354
-1.06354
-1.06354
-1.06354
-1.06354
-1.06354
-1.06354
-1.06354
-1.06354
-1.06354
-1.06354
-1.06354
-1.06354
-1.06353
-1.06353
-1.06353
-1.06353
-1.06353
-1.06353
-1.06353
-1.06353
-1.06353
-1.06353
-1.06353
-1.06353
-1.06353
-1.06353
-1.06353
-1.06352
-1.06352
-1.06352
-1.06352
-1.06352
-1.06352
-1.06352
-1.06352
-1.06352
-1.06352
-1.06352
-1.06352
-1.06352
-1.06351
-1.06351
-1.06351
-1.06351
-1.06351
-1.06351
-1.06351
-1.06351
-1.06351
-1.08594
-1.08594
-1.08594
-1.08594
-1.08594
-1.08594
-1.08594
-1.08594
-1.08594
-1.08594
-1.08594
-1.08594
-1.08593
-1.08593
-1.08593
-1.08593
-1.08593
-1.08593
-1.08593
-1.08593
-1.08593
-1.08593
-1.08593
-1.08593
-1.08593
-1.08593
-1.08592
-1.08592
-1.08592
-1.08592
-1.08592
-1.08592
-1.08592
-1.08592
-1.08592
-1.08592
-1.08592
-1.08592
-1.08591
-1.08591
-1.08591
-1.08591
-1.08591
-1.08591
-1.08591
-1.08591
-1.08591
-1.08591
-1.0859
-1.0859
-1.10836
-1.10836
-1.10836
-1.10836
-1.10836
-1.10835
-1.10835
-1.10835
-1.10835
-1.10835
-1.10835
-1.10835
-1.10835
-1.10835
-1.10835
-1.10835
-1.10834
-1.10834
-1.10834
-1.10834
-1.10834
-1.10834
-1.10834
-1.10834
-1.10834
-1.10834
-1.10833
-1.10833
-1.10833
-1.10833
-1.10833
-1.10833
-1.10833
-1.10833
-1.10832
-1.10832
-1.10832
-1.10832
-1.10832
-1.10832
-1.10832
-1.10832
-1.10832
-1.10831
-1.10831
-1.10831
-1.10831
-1.10831
-1.10831
-1.10831
-1.13076
-1.13076
-1.13075
-1.13075
-1.13075
-1.13075
-1.13075
-1.13075
-1.13075
-1.13075
-1.13075
-1.13075
-1.13075
-1.13075
-1.13074
-1.13074
-1.13074
-1.13074
-1.13074
-1.13074
-1.13074
-1.13074
-1.13074
-1.13074
-1.13073
-1.13073
-1.13073
-1.13073
-1.13073
-1.13073
-1.13073
-1.13073
-1.13072
-1.13072
-1.13072
-1.13072
-1.13072
-1.13072
-1.13072
-1.13071
-1.13071
-1.13071
-1.13071
-1.13071
-1.13071
-1.13071
-1.13071
-1.1307
-1.1307
-1.1307
-1.1532
-1.1532
-1.1532
-1.15319
-1.15319
-1.15319
-1.15319
-1.15319
-1.15319
-1.15318
-1.15318
-1.15318
-1.15318
-1.15318
-1.15317
-1.15317
-1.15317
-1.15317
-1.15317
-1.15316
-1.15316
-1.15316
-1.15316
-1.15316
-1.15316
-1.15315
-1.15315
-1.15315
-1.15315
-1.15315
-1.15314
-1.15314
-1.15314
-1.15314
-1.15314
-1.15313
-1.15313
-1.15313
-1.15313
-1.15313
-1.15312
-1.15312
-1.15312
-1.15312
-1.15312
-1.15312
-1.15311
-1.15311
-1.15311
-1.15311
-1.17558
-1.17558
-1.17558
-1.17558
-1.17558
-1.17558
-1.17558
-1.17558
-1.17557
-1.17557
-1.17557
-1.17557
-1.17557
-1.17557
-1.17557
-1.17556
-1.17556
-1.17556
-1.17556
-1.17556
-1.17556
-1.17555
-1.17555
-1.17555
-1.17555
-1.17555
-1.17554
-1.17554
-1.17554
-1.17554
-1.17554
-1.17554
-1.17553
-1.17553
-1.17553
-1.17553
-1.17553
-1.17552
-1.17552
-1.17552
-1.17552
-1.17552
-1.17551
-1.17551
-1.17551
-1.17551
-1.17551
-1.1755
-1.1755
-1.1755
-1.19807
-1.19806
-1.19806
-1.19806
-1.19805
-1.19805
-1.19804
-1.19804
-1.19804
-1.19803
-1.19803
-1.19803
-1.19802
-1.19802
-1.19802
-1.19801
-1.19801
-1.19801
-1.198
-1.198
-1.198
-1.19799
-1.19799
-1.19799
-1.19798
-1.19798
-1.19798
-1.19797
-1.19797
-1.19797
-1.19796
-1.19796
-1.19796
-1.19795
-1.19795
-1.19795
-1.19794
-1.19794
-1.19794
-1.19794
-1.19793
-1.19793
-1.19793
-1.19793
-1.19792
-1.19792
-1.19792
-1.19791
-1.19791
-1.19791
-1.22043
-1.22043
-1.22043
-1.22043
-1.22042
-1.22042
-1.22042
-1.22042
-1.22041
-1.22041
-1.22041
-1.22041
-1.2204
-1.2204
-1.2204
-1.22039
-1.22039
-1.22039
-1.22039
-1.22038
-1.22038
-1.22038
-1.22037
-1.22037
-1.22037
-1.22036
-1.22036
-1.22036
-1.22036
-1.22035
-1.22035
-1.22035
-1.22034
-1.22034
-1.22034
-1.22033
-1.22033
-1.22033
-1.22033
-1.22032
-1.22032
-1.22032
-1.22031
-1.22031
-1.22031
-1.22031
-1.2203
-1.2203
-1.2203
-1.2203
-1.24293
-1.24292
-1.24292
-1.24291
-1.24291
-1.2429
-1.2429
-1.24289
-1.24289
-1.24288
-1.24288
-1.24287
-1.24287
-1.24286
-1.24286
-1.24285
-1.24285
-1.24284
-1.24284
-1.24283
-1.24283
-1.24282
-1.24281
-1.24281
-1.24281
-1.2428
-1.2428
-1.24279
-1.24279
-1.24278
-1.24278
-1.24277
-1.24277
-1.24276
-1.24276
-1.24275
-1.24275
-1.24275
-1.24274
-1.24274
-1.24273
-1.24273
-1.24273
-1.24272
-1.24272
-1.24272
-1.24271
-1.24271
-1.2427
-1.2427
-1.26532
-1.26531
-1.26531
-1.2653
-1.2653
-1.26529
-1.26529
-1.26528
-1.26527
-1.26527
-1.26526
-1.26525
-1.26524
-1.26525
-1.26524
-1.26523
-1.26523
-1.26522
-1.26521
-1.26521
-1.2652
-1.2652
-1.26519
-1.26518
-1.26518
-1.26518
-1.26517
-1.26517
-1.26516
-1.26516
-1.26515
-1.26515
-1.26514
-1.26514
-1.26513
-1.26513
-1.26512
-1.26512
-1.26512
-1.26511
-1.26511
-1.26511
-1.2651
-1.2651
-1.2651
-1.26509
-1.26509
-1.26508
-1.26508
-1.26508
-1.28783
-1.28784
-1.28783
-1.28782
-1.28781
-1.2878
-1.28778
-1.28776
-1.28776
-1.28775
-1.28775
-1.28767
-1.28767
-1.28773
-1.28772
-1.28771
-1.2877
-1.28769
-1.28768
-1.28767
-1.28766
-1.28765
-1.28763
-1.28763
-1.28762
-1.28761
-1.2876
-1.2876
-1.28759
-1.28758
-1.28757
-1.28757
-1.28756
-1.28755
-1.28755
-1.28754
-1.28754
-1.28753
-1.28753
-1.28752
-1.28752
-1.28751
-1.28751
-1.2875
-1.2875
-1.28749
-1.28749
-1.28748
-1.28748
-1.28748
-1.31029
-1.31029
-1.31032
-1.31031
-1.31031
-1.31031
-1.3103
-1.31029
-1.31027
-1.31021
-1.31021
-1.31005
-1.30962
-1.30996
-1.30995
-1.30995
-1.30995
-1.30995
-1.30994
-1.30994
-1.30994
-1.30993
-1.30992
-1.30992
-1.30993
-1.30992
-1.30992
-1.30992
-1.30992
-1.30991
-1.30991
-1.30991
-1.3099
-1.3099
-1.3099
-1.3099
-1.30989
-1.30989
-1.30989
-1.30988
-1.30988
-1.30988
-1.30987
-1.30987
-1.30987
-1.30987
-1.30986
-1.30986
-1.30985
-1.30985
-1.33249
-1.33272
-1.33272
-1.33273
-1.33268
-1.33268
-1.33277
-1.33277
-1.33262
-1.33202
-1.33243
-1.33243
-1.33243
-1.33244
-1.33244
-1.33244
-1.33245
-1.33245
-1.33245
-1.33245
-1.33246
-1.33245
-1.33239
-1.33204
-1.33233
-1.33233
-1.33233
-1.33233
-1.33233
-1.33233
-1.33232
-1.33232
-1.33232
-1.33232
-1.33231
-1.33231
-1.33231
-1.3323
-1.3323
-1.33229
-1.33229
-1.33229
-1.33228
-1.33228
-1.33227
-1.33227
-1.33227
-1.33226
-1.33226
-1.33226
-0.906745
-0.906745
-0.906745
-0.906745
-0.906745
-0.906744
-0.906744
-0.906744
-0.906744
-0.906744
-0.906743
-0.906743
-0.906743
-0.906743
-0.906743
-0.906742
-0.906742
-0.906742
-0.906742
-0.906742
-0.906741
-0.906741
-0.906741
-0.906741
-0.906741
-0.90674
-0.90674
-0.90674
-0.90674
-0.906739
-0.906739
-0.906739
-0.906739
-0.906738
-0.906738
-0.906738
-0.906738
-0.906737
-0.906737
-0.906737
-0.906737
-0.906736
-0.906736
-0.906736
-0.906735
-0.906735
-0.906735
-0.906735
-0.906734
-0.906734
-0.906734
-0.906733
-0.906733
-0.906733
-0.906733
-0.906732
-0.906732
-0.906732
-0.906731
-0.906731
-0.906731
-0.90673
-0.90673
-0.90673
-0.906729
-0.906729
-0.906729
-0.906728
-0.906728
-0.906728
-0.906727
-0.906727
-0.906727
-0.906726
-0.906726
-0.906726
-0.906725
-0.906725
-0.906724
-0.906724
-0.906724
-0.906723
-0.906723
-0.906723
-0.906722
-0.906722
-0.906721
-0.906721
-0.906721
-0.90672
-0.90672
-0.906719
-0.906719
-0.906719
-0.906718
-0.906718
-0.906717
-0.906717
-0.906716
-0.906716
-0.906716
-0.906715
-0.906715
-0.906714
-0.906714
-0.906713
-0.906713
-0.906712
-0.906712
-0.906711
-0.906711
-0.906711
-0.90671
-0.90671
-0.906709
-0.906709
-0.906708
-0.906708
-0.906707
-0.906707
-0.906706
-0.906706
-0.906705
-0.906705
-0.906704
-0.906704
-0.906703
-0.906703
-0.906702
-0.906702
-0.906701
-0.906701
-0.9067
-0.906699
-0.906699
-0.906698
-0.906698
-0.906697
-0.906697
-0.906696
-0.906696
-0.906695
-0.906695
-0.906694
-0.906693
-0.906693
-0.906692
-0.906692
-0.906691
-0.906691
-0.90669
-0.906689
-0.906689
-0.906688
-0.906688
-0.906687
-0.906686
-0.906686
-0.906685
-0.906685
-0.906684
-0.906683
-0.906683
-0.906682
-0.906682
-0.906681
-0.90668
-0.90668
-0.906679
-0.906679
-0.906678
-0.906677
-0.906677
-0.906676
-0.906675
-0.906675
-0.906674
-0.906674
-0.906673
-0.906672
-0.906672
-0.906671
-0.90667
-0.90667
-0.906669
-0.906668
-0.906668
-0.906667
-0.906667
-0.906666
-0.906665
-0.906665
-0.906664
-0.906663
-0.906663
-0.906662
-0.906661
-0.906661
-0.90666
-0.906659
-0.906659
-0.906658
-0.906657
-0.906657
-0.906656
-0.906655
-0.906655
-0.906654
-0.906654
-0.906653
-0.906652
-0.906652
-0.906651
-0.90665
-0.90665
-0.906649
-0.906648
-0.906648
-0.906647
-0.906646
-0.906646
-0.906645
-0.906645
-0.906644
-0.906643
-0.906643
-0.906642
-0.906641
-0.906641
-0.90664
-0.906639
-0.906639
-0.906638
-0.906638
-0.906637
-0.906636
-0.906636
-0.906635
-0.906635
-0.906634
-0.906633
-0.906633
-0.906632
-0.906632
-0.906631
-0.90663
-0.90663
-0.906629
-0.906629
-0.906628
-0.906628
-0.906627
-0.906626
-0.906626
-0.906625
-0.906625
-0.906624
-0.906624
-0.906623
-0.906623
-0.906622
-0.906622
-0.906621
-0.906621
-0.90662
-0.90662
-0.906619
-0.906619
-0.906618
-0.906618
-0.906617
-0.906617
-0.906616
-0.906616
-0.906616
-0.906615
-0.906615
-0.906614
-0.906614
-0.906614
-0.906613
-0.906613
-0.906612
-0.906612
-0.906612
-0.906611
-0.906611
-0.906611
-0.90661
-0.90661
-0.90661
-0.906609
-0.906609
-0.906609
-0.906609
-0.906608
-0.906608
-0.906608
-0.906608
-0.906608
-0.929137
-0.929137
-0.929137
-0.929137
-0.929137
-0.929136
-0.929136
-0.929136
-0.929136
-0.929136
-0.929135
-0.929135
-0.929135
-0.929135
-0.929134
-0.929134
-0.929134
-0.929134
-0.929134
-0.929133
-0.929133
-0.929133
-0.929133
-0.929132
-0.929132
-0.929132
-0.929132
-0.929131
-0.929131
-0.929131
-0.92913
-0.92913
-0.92913
-0.92913
-0.929129
-0.929129
-0.929129
-0.929129
-0.929128
-0.929128
-0.929128
-0.929127
-0.929127
-0.929127
-0.929126
-0.929126
-0.929126
-0.929125
-0.929125
-0.929125
-0.929125
-0.929124
-0.929124
-0.929124
-0.929123
-0.929123
-0.929122
-0.929122
-0.929122
-0.929121
-0.929121
-0.929121
-0.92912
-0.92912
-0.92912
-0.929119
-0.929119
-0.929119
-0.929118
-0.929118
-0.929117
-0.929117
-0.929117
-0.929116
-0.929116
-0.929115
-0.929115
-0.929115
-0.929114
-0.929114
-0.929113
-0.929113
-0.929113
-0.929112
-0.929112
-0.929111
-0.929111
-0.92911
-0.92911
-0.92911
-0.929109
-0.929109
-0.929108
-0.929108
-0.929107
-0.929107
-0.929106
-0.929106
-0.929105
-0.929105
-0.929104
-0.929104
-0.929103
-0.929103
-0.929102
-0.929102
-0.929102
-0.929101
-0.929101
-0.9291
-0.929099
-0.929099
-0.929098
-0.929098
-0.929097
-0.929097
-0.929096
-0.929096
-0.929095
-0.929095
-0.929094
-0.929094
-0.929093
-0.929093
-0.929092
-0.929092
-0.929091
-0.92909
-0.92909
-0.929089
-0.929089
-0.929088
-0.929088
-0.929087
-0.929086
-0.929086
-0.929085
-0.929085
-0.929084
-0.929083
-0.929083
-0.929082
-0.929082
-0.929081
-0.92908
-0.92908
-0.929079
-0.929079
-0.929078
-0.929077
-0.929077
-0.929076
-0.929076
-0.929075
-0.929074
-0.929074
-0.929073
-0.929072
-0.929072
-0.929071
-0.92907
-0.92907
-0.929069
-0.929069
-0.929068
-0.929067
-0.929067
-0.929066
-0.929065
-0.929065
-0.929064
-0.929063
-0.929063
-0.929062
-0.929061
-0.929061
-0.92906
-0.929059
-0.929059
-0.929058
-0.929057
-0.929057
-0.929056
-0.929055
-0.929055
-0.929054
-0.929053
-0.929052
-0.929052
-0.929051
-0.92905
-0.92905
-0.929049
-0.929048
-0.929048
-0.929047
-0.929046
-0.929046
-0.929045
-0.929044
-0.929044
-0.929043
-0.929042
-0.929041
-0.929041
-0.92904
-0.929039
-0.929039
-0.929038
-0.929037
-0.929037
-0.929036
-0.929035
-0.929035
-0.929034
-0.929033
-0.929033
-0.929032
-0.929031
-0.929031
-0.92903
-0.929029
-0.929028
-0.929028
-0.929027
-0.929026
-0.929026
-0.929025
-0.929024
-0.929024
-0.929023
-0.929023
-0.929022
-0.929021
-0.929021
-0.92902
-0.929019
-0.929019
-0.929018
-0.929017
-0.929017
-0.929016
-0.929015
-0.929015
-0.929014
-0.929014
-0.929013
-0.929012
-0.929012
-0.929011
-0.929011
-0.92901
-0.929009
-0.929009
-0.929008
-0.929008
-0.929007
-0.929007
-0.929006
-0.929006
-0.929005
-0.929004
-0.929004
-0.929003
-0.929003
-0.929002
-0.929002
-0.929001
-0.929001
-0.929
-0.929
-0.928999
-0.928999
-0.928999
-0.928998
-0.928998
-0.928997
-0.928997
-0.928996
-0.928996
-0.928996
-0.928995
-0.928995
-0.928994
-0.928994
-0.928994
-0.928993
-0.928993
-0.928993
-0.928992
-0.928992
-0.928992
-0.928991
-0.928991
-0.928991
-0.928991
-0.92899
-0.92899
-0.92899
-0.92899
-0.95153
-0.95153
-0.951529
-0.951529
-0.951529
-0.951529
-0.951529
-0.951528
-0.951528
-0.951528
-0.951528
-0.951527
-0.951527
-0.951527
-0.951527
-0.951526
-0.951526
-0.951526
-0.951526
-0.951525
-0.951525
-0.951525
-0.951524
-0.951524
-0.951524
-0.951524
-0.951523
-0.951523
-0.951523
-0.951522
-0.951522
-0.951522
-0.951522
-0.951521
-0.951521
-0.951521
-0.95152
-0.95152
-0.95152
-0.951519
-0.951519
-0.951519
-0.951518
-0.951518
-0.951518
-0.951517
-0.951517
-0.951517
-0.951516
-0.951516
-0.951516
-0.951515
-0.951515
-0.951514
-0.951514
-0.951514
-0.951513
-0.951513
-0.951513
-0.951512
-0.951512
-0.951511
-0.951511
-0.951511
-0.95151
-0.95151
-0.951509
-0.951509
-0.951509
-0.951508
-0.951508
-0.951507
-0.951507
-0.951506
-0.951506
-0.951506
-0.951505
-0.951505
-0.951504
-0.951504
-0.951503
-0.951503
-0.951502
-0.951502
-0.951502
-0.951501
-0.951501
-0.9515
-0.9515
-0.951499
-0.951499
-0.951498
-0.951498
-0.951497
-0.951497
-0.951496
-0.951496
-0.951495
-0.951495
-0.951494
-0.951494
-0.951493
-0.951493
-0.951492
-0.951491
-0.951491
-0.95149
-0.95149
-0.951489
-0.951489
-0.951488
-0.951488
-0.951487
-0.951487
-0.951486
-0.951485
-0.951485
-0.951484
-0.951484
-0.951483
-0.951483
-0.951482
-0.951481
-0.951481
-0.95148
-0.95148
-0.951479
-0.951478
-0.951478
-0.951477
-0.951477
-0.951476
-0.951475
-0.951475
-0.951474
-0.951473
-0.951473
-0.951472
-0.951472
-0.951471
-0.95147
-0.95147
-0.951469
-0.951468
-0.951468
-0.951467
-0.951466
-0.951466
-0.951465
-0.951464
-0.951464
-0.951463
-0.951462
-0.951462
-0.951461
-0.95146
-0.95146
-0.951459
-0.951458
-0.951458
-0.951457
-0.951456
-0.951455
-0.951455
-0.951454
-0.951453
-0.951453
-0.951452
-0.951451
-0.951451
-0.95145
-0.951449
-0.951448
-0.951448
-0.951447
-0.951446
-0.951446
-0.951445
-0.951444
-0.951443
-0.951443
-0.951442
-0.951441
-0.951441
-0.95144
-0.951439
-0.951438
-0.951438
-0.951437
-0.951436
-0.951435
-0.951435
-0.951434
-0.951433
-0.951433
-0.951432
-0.951431
-0.95143
-0.95143
-0.951429
-0.951428
-0.951427
-0.951427
-0.951426
-0.951425
-0.951424
-0.951424
-0.951423
-0.951422
-0.951422
-0.951421
-0.95142
-0.951419
-0.951419
-0.951418
-0.951417
-0.951416
-0.951416
-0.951415
-0.951414
-0.951414
-0.951413
-0.951412
-0.951411
-0.951411
-0.95141
-0.951409
-0.951409
-0.951408
-0.951407
-0.951407
-0.951406
-0.951405
-0.951405
-0.951404
-0.951403
-0.951402
-0.951402
-0.951401
-0.9514
-0.9514
-0.951399
-0.951398
-0.951398
-0.951397
-0.951397
-0.951396
-0.951395
-0.951395
-0.951394
-0.951393
-0.951393
-0.951392
-0.951392
-0.951391
-0.95139
-0.95139
-0.951389
-0.951389
-0.951388
-0.951387
-0.951387
-0.951386
-0.951386
-0.951385
-0.951385
-0.951384
-0.951384
-0.951383
-0.951383
-0.951382
-0.951382
-0.951381
-0.951381
-0.95138
-0.95138
-0.951379
-0.951379
-0.951378
-0.951378
-0.951378
-0.951377
-0.951377
-0.951376
-0.951376
-0.951376
-0.951375
-0.951375
-0.951375
-0.951374
-0.951374
-0.951374
-0.951373
-0.951373
-0.951373
-0.951372
-0.951372
-0.951372
-0.951372
-0.951371
-0.973924
-0.973923
-0.973923
-0.973923
-0.973923
-0.973922
-0.973922
-0.973922
-0.973922
-0.973921
-0.973921
-0.973921
-0.97392
-0.97392
-0.97392
-0.97392
-0.973919
-0.973919
-0.973919
-0.973918
-0.973918
-0.973918
-0.973917
-0.973917
-0.973917
-0.973916
-0.973916
-0.973916
-0.973915
-0.973915
-0.973915
-0.973914
-0.973914
-0.973914
-0.973913
-0.973913
-0.973913
-0.973912
-0.973912
-0.973912
-0.973911
-0.973911
-0.97391
-0.97391
-0.97391
-0.973909
-0.973909
-0.973909
-0.973908
-0.973908
-0.973907
-0.973907
-0.973907
-0.973906
-0.973906
-0.973905
-0.973905
-0.973904
-0.973904
-0.973904
-0.973903
-0.973903
-0.973902
-0.973902
-0.973901
-0.973901
-0.9739
-0.9739
-0.9739
-0.973899
-0.973899
-0.973898
-0.973898
-0.973897
-0.973897
-0.973896
-0.973896
-0.973895
-0.973895
-0.973894
-0.973894
-0.973893
-0.973893
-0.973892
-0.973892
-0.973891
-0.973891
-0.97389
-0.97389
-0.973889
-0.973888
-0.973888
-0.973887
-0.973887
-0.973886
-0.973886
-0.973885
-0.973885
-0.973884
-0.973883
-0.973883
-0.973882
-0.973882
-0.973881
-0.973881
-0.97388
-0.973879
-0.973879
-0.973878
-0.973878
-0.973877
-0.973876
-0.973876
-0.973875
-0.973875
-0.973874
-0.973873
-0.973873
-0.973872
-0.973871
-0.973871
-0.97387
-0.973869
-0.973869
-0.973868
-0.973868
-0.973867
-0.973866
-0.973866
-0.973865
-0.973864
-0.973864
-0.973863
-0.973862
-0.973862
-0.973861
-0.97386
-0.973859
-0.973859
-0.973858
-0.973857
-0.973857
-0.973856
-0.973855
-0.973855
-0.973854
-0.973853
-0.973852
-0.973852
-0.973851
-0.97385
-0.97385
-0.973849
-0.973848
-0.973847
-0.973847
-0.973846
-0.973845
-0.973844
-0.973844
-0.973843
-0.973842
-0.973842
-0.973841
-0.97384
-0.973839
-0.973839
-0.973838
-0.973837
-0.973836
-0.973836
-0.973835
-0.973834
-0.973833
-0.973832
-0.973832
-0.973831
-0.97383
-0.973829
-0.973829
-0.973828
-0.973827
-0.973826
-0.973826
-0.973825
-0.973824
-0.973823
-0.973822
-0.973822
-0.973821
-0.97382
-0.973819
-0.973819
-0.973818
-0.973817
-0.973816
-0.973816
-0.973815
-0.973814
-0.973813
-0.973812
-0.973812
-0.973811
-0.97381
-0.973809
-0.973809