/*--------------------------------*- C++ -*----------------------------------*\
| =========                 |                                                 |
| \\      /  F ield         | OpenFOAM: The Open Source CFD Toolbox           |
|  \\    /   O peration     | Version:  2.4.0                                 |
|   \\  /    A nd           | Web:      www.OpenFOAM.org                      |
|    \\/     M anipulation  |                                                 |
\*---------------------------------------------------------------------------*/
FoamFile
{
    version     2.0;
    format      ascii;
    class       volScalarField;
    location    "1";
    object      p_rgh;
}
// * * * * * * * * * * * * * * * * * * * * * * * * * * * * * * * * * * * * * //

dimensions      [1 -1 -2 0 0 0 0];

internalField   nonuniform List<scalar> 
8000
(
53.6804
53.6795
53.6784
53.6771
53.6757
53.6742
53.6725
53.6707
53.6688
53.6667
53.6645
53.6622
53.6598
53.6571
53.6544
53.6515
53.6484
53.6452
53.6417
53.6377
53.6337
53.633
53.6395
53.6382
53.5487
53.2709
29.2189
0.0997363
-0.000654786
-0.000655788
-0.000764348
-0.000835586
-0.000869673
-0.000886161
-0.000894884
-0.000899344
-0.000901283
-0.000901882
-0.000901913
-0.000901817
-0.000901762
-0.000901744
-0.000901732
-0.000901713
-0.000901684
-0.000901646
-0.000901599
-0.000901543
-0.000901479
-0.000901406
55.0134
55.013
55.0125
55.0118
55.011
55.01
55.0088
55.0075
55.0059
55.0043
55.0024
55.0004
54.9983
54.996
54.9935
54.9908
54.9879
54.9849
54.9814
54.9775
54.9741
54.9748
54.9816
54.9695
54.8456
54.5597
20.0349
0.017074
-0.000689032
-0.000715061
-0.000812413
-0.000870332
-0.000899046
-0.000913798
-0.000921599
-0.000925431
-0.000927015
-0.000927476
-0.000927501
-0.000927455
-0.00092745
-0.000927471
-0.000927493
-0.000927508
-0.000927511
-0.000927504
-0.000927486
-0.000927458
-0.000927418
-0.000927369
56.3576
56.3565
56.3551
56.3538
56.3524
56.351
56.3496
56.3481
56.3466
56.3451
56.3435
56.3419
56.3403
56.3386
56.337
56.3353
56.3336
56.3318
56.3296
56.327
56.3266
56.3355
56.3529
56.3149
56.0385
55.5368
10.1287
0.00215056
-0.000679194
-0.0007725
-0.000866152
-0.000913382
-0.000936397
-0.000948632
-0.000955018
-0.000957884
-0.000958799
-0.000958807
-0.000958514
-0.000958208
-0.000957957
-0.000957742
-0.000957542
-0.00095735
-0.00095716
-0.000956972
-0.000956784
-0.000956595
-0.000956406
-0.000956215
57.7458
57.7431
57.7403
57.7378
57.7355
57.7335
57.7317
57.73
57.7285
57.7272
57.7261
57.7252
57.7245
57.724
57.7236
57.7235
57.7237
57.7239
57.7237
57.7234
57.7273
57.7461
57.7738
57.7008
57.2557
54.6153
2.47598
-0.000465228
-0.000693631
-0.000814424
-0.000901964
-0.000942622
-0.000961947
-0.000972432
-0.000978102
-0.000980821
-0.000981907
-0.00098225
-0.000982358
-0.000982444
-0.000982546
-0.000982649
-0.00098274
-0.000982814
-0.000982869
-0.000982904
-0.000982922
-0.000982922
-0.000982905
-0.000982872
59.0603
59.058
59.0555
59.0532
59.051
59.049
59.0471
59.0452
59.0435
59.0419
59.0403
59.0389
59.0375
59.0363
59.0352
59.0341
59.0332
59.0323
59.0311
59.0298
59.0319
59.045
59.0617
58.9944
58.6528
46.115
0.397333
-0.000897871
-0.000742049
-0.00086712
-0.000947221
-0.000982385
-0.000998378
-0.00100683
-0.00101128
-0.00101328
-0.00101397
-0.00101409
-0.00101405
-0.00101401
-0.00101399
-0.00101398
-0.00101396
-0.00101393
-0.00101388
-0.00101382
-0.00101375
-0.00101366
-0.00101355
-0.00101344
60.3465
60.3456
60.3446
60.3435
60.3422
60.3409
60.3395
60.3379
60.3363
60.3346
60.3328
60.3308
60.3288
60.3266
60.3244
60.322
60.3196
60.3168
60.3136
60.3103
60.3102
60.3187
60.3251
60.2477
59.9468
36.775
0.060062
-0.000917071
-0.000809328
-0.000919285
-0.000986564
-0.00101694
-0.00103122
-0.00103869
-0.00104251
-0.00104422
-0.00104484
-0.00104502
-0.00104508
-0.00104514
-0.0010452
-0.00104527
-0.00104532
-0.00104535
-0.00104536
-0.00104535
-0.00104532
-0.00104527
-0.0010452
-0.00104511
61.6854
61.6848
61.6841
61.6833
61.6824
61.6815
61.6804
61.6792
61.678
61.6766
61.6752
61.6737
61.6721
61.6704
61.6686
61.6668
61.6648
61.6626
61.66
61.6577
61.6588
61.6675
61.6673
61.5739
61.2887
28.5709
0.00807235
-0.000843065
-0.000880859
-0.000980051
-0.00103239
-0.00105681
-0.00106926
-0.00107578
-0.00107889
-0.0010801
-0.00108041
-0.00108038
-0.00108028
-0.00108018
-0.0010801
-0.00108001
-0.00107991
-0.00107979
-0.00107966
-0.00107951
-0.00107934
-0.00107915
-0.00107895
-0.00107873
63.0143
63.0139
63.0134
63.0127
63.0119
63.011
63.0099
63.0087
63.0073
63.0058
63.0042
63.0024
63.0005
62.9985
62.9963
62.994
62.9915
62.9887
62.9854
62.9828
62.9847
62.9932
62.9803
62.8455
62.54
19.7636
0.000107105
-0.000824742
-0.000935242
-0.00103262
-0.00107657
-0.00109671
-0.00110747
-0.00111327
-0.00111604
-0.00111715
-0.0011175
-0.00111758
-0.0011176
-0.00111762
-0.00111763
-0.00111763
-0.00111761
-0.00111756
-0.00111747
-0.00111735
-0.00111721
-0.00111705
-0.00111686
-0.00111664
64.3781
64.3772
64.376
64.3748
64.3736
64.3722
64.3709
64.3694
64.3679
64.3663
64.3646
64.3629
64.3611
64.3593
64.3574
64.3554
64.3533
64.3508
64.348
64.347
64.3547
64.3706
64.3346
64.075
63.5999
10.6155
-0.00101913
-0.000855329
-0.000987021
-0.00107999
-0.00111858
-0.0011353
-0.00114408
-0.00114876
-0.00115091
-0.00115168
-0.00115186
-0.00115183
-0.00115178
-0.00115172
-0.00115168
-0.00115162
-0.00115155
-0.00115145
-0.00115132
-0.00115115
-0.00115096
-0.00115076
-0.00115053
-0.00115027
65.7818
65.7788
65.7756
65.7727
65.7701
65.7678
65.7658
65.7639
65.7623
65.7609
65.7598
65.7589
65.7582
65.7578
65.7577
65.7578
65.7581
65.758
65.7577
65.7621
65.7836
65.8165
65.7377
65.2331
62.9359
2.74351
-0.00124648
-0.000917163
-0.00105124
-0.00113658
-0.00117007
-0.00118388
-0.00119121
-0.00119535
-0.00119749
-0.00119852
-0.00119905
-0.00119938
-0.00119962
-0.00119983
-0.00119999
-0.00120012
-0.00120019
-0.0012002
-0.00120013
-0.00119999
-0.0011998
-0.00119956
-0.0011993
-0.00119899
67.1227
67.1195
67.1162
67.1132
67.1103
67.1077
67.1052
67.1028
67.1006
67.0985
67.0965
67.0947
67.0931
67.0916
67.0902
67.0891
67.088
67.0865
67.0851
67.0875
67.1023
67.1211
67.0463
66.6655
53.3516
0.436052
-0.00126862
-0.000968459
-0.00109671
-0.00117236
-0.00120074
-0.00121193
-0.0012179
-0.00122144
-0.00122345
-0.00122461
-0.00122538
-0.00122596
-0.00122644
-0.00122687
-0.00122726
-0.00122763
-0.00122795
-0.0012282
-0.00122834
-0.0012284
-0.00122839
-0.00122835
-0.00122828
-0.00122818
68.3863
68.3851
68.3835
68.3817
68.3797
68.3774
68.3749
68.3721
68.3691
68.3659
68.3624
68.3587
68.3547
68.3505
68.346
68.3412
68.336
68.33
68.324
68.3216
68.328
68.3267
68.2225
67.884
40.2885
0.0607286
-0.00124529
-0.00111208
-0.00121795
-0.00127683
-0.00129874
-0.00130711
-0.00131112
-0.00131313
-0.00131394
-0.0013141
-0.00131391
-0.0013135
-0.00131296
-0.00131233
-0.00131169
-0.00131105
-0.00131038
-0.00130962
-0.00130875
-0.00130776
-0.0013067
-0.00130562
-0.00130456
-0.00130349
69.7647
69.7632
69.7615
69.7595
69.7574
69.755
69.7524
69.7497
69.7467
69.7435
69.7401
69.7366
69.7328
69.7288
69.7246
69.7202
69.7153
69.7097
69.705
69.706
69.715
69.697
69.5289
69.1482
26.4599
0.0071764
-0.00108441
-0.00113352
-0.00122534
-0.00126713
-0.00128444
-0.00129346
-0.00129916
-0.001303
-0.00130575
-0.00130789
-0.00130961
-0.00131099
-0.0013121
-0.00131304
-0.00131391
-0.00131476
-0.00131555
-0.00131619
-0.00131662
-0.00131681
-0.00131685
-0.00131683
-0.0013168
-0.00131675
71.155
71.1501
71.1448
71.14
71.1356
71.1316
71.128
71.1247
71.1218
71.1193
71.1171
71.1153
71.114
71.1131
71.1127
71.1124
71.1115
71.1099
71.1166
71.1556
71.2218
71.0902
70.1437
68.4683
8.95706
-0.000885894
-0.00124727
-0.00137725
-0.00146749
-0.00149211
-0.00149586
-0.00149544
-0.00149381
-0.00149126
-0.00148811
-0.00148467
-0.00148102
-0.0014772
-0.00147327
-0.00146937
-0.00146565
-0.00146215
-0.00145881
-0.00145551
-0.0014521
-0.00144855
-0.00144492
-0.00144136
-0.00143795
-0.00143472
72.5635
72.5573
72.5508
72.5448
72.5392
72.5338
72.5286
72.5236
72.5189
72.5143
72.51
72.5059
72.5021
72.4984
72.495
72.4917
72.488
72.4847
72.4859
72.4996
72.5121
72.4143
72.0079
54.7142
1.16294
-0.00146244
-0.00118963
-0.00130539
-0.00137897
-0.00140263
-0.00141114
-0.0014164
-0.00142064
-0.00142398
-0.00142658
-0.00142857
-0.00142999
-0.00143086
-0.0014313
-0.00143152
-0.00143172
-0.00143199
-0.00143226
-0.00143236
-0.00143211
-0.00143142
-0.00143038
-0.0014292
-0.00142804
-0.00142696
73.6942
73.6898
73.6841
73.6782
73.6721
73.6658
73.6592
73.6523
73.6452
73.6377
73.63
73.622
73.6138
73.6052
73.5963
73.5865
73.5759
73.5675
73.5711
73.5871
73.534
73.1669
72.4585
25.9214
0.0996693
-0.00160316
-0.0014354
-0.00152242
-0.0015731
-0.001588
-0.00159269
-0.001595
-0.00159648
-0.00159717
-0.00159712
-0.00159638
-0.00159496
-0.00159287
-0.00159031
-0.00158753
-0.00158479
-0.0015822
-0.00157967
-0.00157696
-0.00157385
-0.00157019
-0.00156605
-0.00156174
-0.00155748
-0.00155334
75.2296
75.2205
75.2109
75.202
75.1935
75.1854
75.1775
75.17
75.1627
75.1557
75.1491
75.1428
75.1368
75.1311
75.1255
75.1197
75.1141
75.1135
75.1283
75.1469
75.0469
74.5693
64.0611
3.90675
0.00398244
-0.00139102
-0.00146246
-0.00153476
-0.0015619
-0.00157043
-0.00157602
-0.00158053
-0.00158406
-0.00158662
-0.00158835
-0.00158933
-0.00158958
-0.00158897
-0.00158801
-0.00158681
-0.00158564
-0.00158478
-0.00158383
-0.0015825
-0.00158077
-0.0015785
-0.00157558
-0.00157231
-0.00156843
-0.00156487
76.416
76.4044
76.3913
76.379
76.3673
76.3561
76.3453
76.3348
76.3248
76.3152
76.3061
76.2974
76.2894
76.2815
76.273
76.264
76.2622
76.2893
76.3433
76.2271
75.3838
73.8191
22.3923
0.169272
-0.00157427
-0.00174502
-0.00181404
-0.00185837
-0.00186906
-0.00186854
-0.0018664
-0.00186348
-0.00185962
-0.00185483
-0.00184928
-0.00184298
-0.00183586
-0.00182816
-0.00182123
-0.00181382
-0.00180584
-0.00179974
-0.00179141
-0.00178255
-0.00177439
-0.00176758
-0.00175944
-0.00175112
-0.00173775
-0.00172215
77.7512
77.7348
77.7167
77.6997
77.6835
77.668
77.6528
77.6382
77.6241
77.6105
77.5974
77.5848
77.5727
77.5605
77.5482
77.5388
77.5426
77.5632
77.5218
77.158
76.3641
42.8682
1.1881
0.00308472
-0.00166546
-0.00177667
-0.00183413
-0.00185167
-0.00185289
-0.00185133
-0.00184935
-0.00184659
-0.00184303
-0.00183873
-0.0018339
-0.00182662
-0.00180161
-0.00178202
-0.00180633
-0.00180532
-0.00179487
-0.00179606
-0.00178034
-0.00177803
-0.00177399
-0.00176511
-0.00175804
-0.00175906
-0.00175819
-0.00170846
78.9189
78.8936
78.8658
78.8399
78.8157
78.7928
78.7709
78.75
78.7303
78.7116
78.6941
78.6776
78.6617
78.6462
78.6338
78.6339
78.6515
78.6187
78.2967
77.5482
50.537
2.28674
0.0122683
-0.00209051
-0.00226137
-0.0023218
-0.00233468
-0.00232995
-0.00232166
-0.0023129
-0.00230437
-0.0022954
-0.00228715
-0.00225783
-0.00218996
-0.00193254
-0.00197528
-0.00209401
-0.00211233
-0.00219528
-0.00220721
-0.00210036
-0.00151265
-0.00207606
-0.00208969
-0.0020903
-0.00208294
-0.00205345
-0.00206217
-0.00195622
-0.000901325
-0.000901236
-0.000901139
-0.000901035
-0.000900924
-0.000900806
-0.000900681
-0.00090055
-0.000900412
-0.000900267
-0.000900116
-0.000899959
-0.000899796
-0.000899627
-0.000899452
-0.000899272
-0.000899086
-0.000898894
-0.000898696
-0.000898493
-0.000898285
-0.000898072
-0.000897853
-0.000897629
-0.0008974
-0.000897166
-0.000896927
-0.000896683
-0.000896434
-0.000896181
-0.000895922
-0.000895659
-0.000895392
-0.000895119
-0.000894843
-0.000894561
-0.000894276
-0.000893986
-0.000893692
-0.000893393
-0.00089309
-0.000892783
-0.000892472
-0.000892158
-0.000891839
-0.000891516
-0.000891189
-0.000890858
-0.000890525
-0.000890189
-0.00092731
-0.00092724
-0.000927162
-0.000927074
-0.000926977
-0.000926871
-0.000926756
-0.000926633
-0.000926502
-0.000926362
-0.000926215
-0.000926059
-0.000925896
-0.000925725
-0.000925547
-0.000925362
-0.000925169
-0.000924969
-0.000924763
-0.000924549
-0.000924329
-0.000924102
-0.000923869
-0.00092363
-0.000923384
-0.000923132
-0.000922874
-0.00092261
-0.000922341
-0.000922065
-0.000921784
-0.000921497
-0.000921205
-0.000920908
-0.000920605
-0.000920297
-0.000919983
-0.000919665
-0.000919342
-0.000919014
-0.000918681
-0.000918343
-0.000918001
-0.000917654
-0.000917303
-0.000916947
-0.000916587
-0.000916223
-0.000915855
-0.000915485
-0.000956022
-0.000955827
-0.00095563
-0.000955429
-0.000955226
-0.000955018
-0.000954808
-0.000954593
-0.000954374
-0.000954151
-0.000953923
-0.000953692
-0.000953455
-0.000953214
-0.000952968
-0.000952717
-0.000952461
-0.0009522
-0.000951934
-0.000951663
-0.000951387
-0.000951106
-0.00095082
-0.000950528
-0.000950232
-0.00094993
-0.000949623
-0.000949311
-0.000948994
-0.000948672
-0.000948344
-0.000948012
-0.000947674
-0.000947332
-0.000946984
-0.000946632
-0.000946275
-0.000945912
-0.000945546
-0.000945174
-0.000944797
-0.000944416
-0.000944031
-0.00094364
-0.000943245
-0.000942846
-0.000942443
-0.000942035
-0.000941624
-0.000941209
-0.000982824
-0.000982761
-0.000982683
-0.000982592
-0.000982488
-0.00098237
-0.000982241
-0.000982099
-0.000981946
-0.000981781
-0.000981605
-0.000981418
-0.00098122
-0.000981013
-0.000980795
-0.000980567
-0.00098033
-0.000980083
-0.000979827
-0.000979563
-0.000979289
-0.000979006
-0.000978716
-0.000978416
-0.000978109
-0.000977793
-0.00097747
-0.000977139
-0.0009768
-0.000976454
-0.000976101
-0.00097574
-0.000975373
-0.000974998
-0.000974617
-0.000974228
-0.000973834
-0.000973433
-0.000973025
-0.000972612
-0.000972192
-0.000971767
-0.000971335
-0.000970898
-0.000970455
-0.000970007
-0.000969553
-0.000969094
-0.000968632
-0.000968165
-0.0010133
-0.00101316
-0.001013
-0.00101284
-0.00101265
-0.00101246
-0.00101226
-0.00101204
-0.00101182
-0.00101158
-0.00101133
-0.00101107
-0.00101081
-0.00101053
-0.00101024
-0.00100994
-0.00100964
-0.00100932
-0.001009
-0.00100866
-0.00100832
-0.00100797
-0.00100761
-0.00100724
-0.00100687
-0.00100648
-0.00100609
-0.00100569
-0.00100529
-0.00100487
-0.00100445
-0.00100403
-0.00100359
-0.00100315
-0.0010027
-0.00100224
-0.00100178
-0.00100131
-0.00100084
-0.00100036
-0.000999869
-0.000999376
-0.000998877
-0.000998372
-0.000997862
-0.000997346
-0.000996825
-0.000996299
-0.000995769
-0.000995233
-0.001045
-0.00104488
-0.00104473
-0.00104458
-0.0010444
-0.00104421
-0.00104401
-0.00104379
-0.00104355
-0.0010433
-0.00104304
-0.00104276
-0.00104247
-0.00104216
-0.00104185
-0.00104152
-0.00104118
-0.00104082
-0.00104046
-0.00104008
-0.00103969
-0.00103929
-0.00103888
-0.00103846
-0.00103803
-0.00103759
-0.00103713
-0.00103667
-0.0010362
-0.00103572
-0.00103523
-0.00103474
-0.00103423
-0.00103371
-0.00103319
-0.00103266
-0.00103212
-0.00103157
-0.00103102
-0.00103046
-0.00102989
-0.00102931
-0.00102873
-0.00102814
-0.00102755
-0.00102694
-0.00102634
-0.00102572
-0.0010251
-0.00102448
-0.0010785
-0.00107824
-0.00107797
-0.00107769
-0.00107739
-0.00107708
-0.00107676
-0.00107642
-0.00107607
-0.00107571
-0.00107533
-0.00107495
-0.00107454
-0.00107413
-0.0010737
-0.00107326
-0.00107282
-0.00107235
-0.00107188
-0.0010714
-0.00107091
-0.0010704
-0.00106989
-0.00106936
-0.00106883
-0.00106828
-0.00106773
-0.00106717
-0.00106659
-0.00106601
-0.00106542
-0.00106482
-0.00106421
-0.0010636
-0.00106297
-0.00106234
-0.0010617
-0.00106105
-0.0010604
-0.00105974
-0.00105907
-0.00105839
-0.00105771
-0.00105702
-0.00105633
-0.00105563
-0.00105492
-0.00105421
-0.00105349
-0.00105277
-0.00111639
-0.00111612
-0.00111582
-0.0011155
-0.00111516
-0.00111479
-0.00111442
-0.00111402
-0.0011136
-0.00111316
-0.00111271
-0.00111223
-0.00111174
-0.00111123
-0.00111071
-0.00111017
-0.00110961
-0.00110904
-0.00110845
-0.00110785
-0.00110724
-0.00110661
-0.00110598
-0.00110532
-0.00110466
-0.00110398
-0.00110329
-0.00110259
-0.00110188
-0.00110116
-0.00110043
-0.00109969
-0.00109894
-0.00109818
-0.00109741
-0.00109663
-0.00109584
-0.00109504
-0.00109424
-0.00109343
-0.00109261
-0.00109179
-0.00109096
-0.00109012
-0.00108927
-0.00108842
-0.00108756
-0.0010867
-0.00108584
-0.00108497
-0.00114998
-0.00114966
-0.00114931
-0.00114893
-0.00114852
-0.0011481
-0.00114766
-0.0011472
-0.00114673
-0.00114623
-0.00114571
-0.00114516
-0.0011446
-0.00114401
-0.0011434
-0.00114278
-0.00114214
-0.00114148
-0.00114081
-0.00114012
-0.00113942
-0.0011387
-0.00113796
-0.00113721
-0.00113645
-0.00113567
-0.00113488
-0.00113407
-0.00113326
-0.00113243
-0.00113158
-0.00113073
-0.00112987
-0.00112899
-0.00112811
-0.00112721
-0.00112631
-0.00112539
-0.00112447
-0.00112354
-0.0011226
-0.00112165
-0.0011207
-0.00111974
-0.00111877
-0.00111779
-0.00111681
-0.00111582
-0.00111483
-0.00111383
-0.00119862
-0.00119818
-0.00119769
-0.00119714
-0.00119656
-0.00119594
-0.0011953
-0.00119464
-0.00119395
-0.00119323
-0.00119248
-0.0011917
-0.00119088
-0.00119003
-0.00118915
-0.00118825
-0.00118734
-0.0011864
-0.00118544
-0.00118447
-0.00118348
-0.00118247
-0.00118144
-0.0011804
-0.00117934
-0.00117826
-0.00117717
-0.00117607
-0.00117496
-0.00117384
-0.0011727
-0.00117155
-0.0011704
-0.00116923
-0.00116806
-0.00116687
-0.00116568
-0.00116449
-0.00116328
-0.00116207
-0.00116085
-0.00115963
-0.00115841
-0.00115718
-0.00115594
-0.0011547
-0.00115346
-0.00115221
-0.00115097
-0.00114973
-0.001228
-0.00122774
-0.00122739
-0.00122697
-0.00122649
-0.00122597
-0.00122543
-0.00122486
-0.00122427
-0.00122364
-0.00122298
-0.00122227
-0.00122151
-0.00122071
-0.00121986
-0.00121898
-0.00121808
-0.00121715
-0.0012162
-0.00121522
-0.00121421
-0.00121319
-0.00121213
-0.00121106
-0.00120996
-0.00120884
-0.0012077
-0.00120654
-0.00120536
-0.00120416
-0.00120295
-0.00120172
-0.00120048
-0.00119923
-0.00119796
-0.00119667
-0.00119538
-0.00119408
-0.00119276
-0.00119144
-0.0011901
-0.00118876
-0.00118741
-0.00118605
-0.00118469
-0.00118332
-0.00118194
-0.00118057
-0.00117919
-0.00117779
-0.00130236
-0.00130115
-0.00129984
-0.00129843
-0.00129696
-0.00129545
-0.00129393
-0.00129241
-0.0012909
-0.00128938
-0.00128784
-0.00128628
-0.00128468
-0.00128302
-0.00128133
-0.00127961
-0.00127788
-0.00127614
-0.0012744
-0.00127265
-0.00127088
-0.00126911
-0.00126733
-0.00126553
-0.00126372
-0.0012619
-0.00126008
-0.00125825
-0.00125642
-0.00125458
-0.00125273
-0.00125089
-0.00124904
-0.00124718
-0.00124533
-0.00124347
-0.00124162
-0.00123977
-0.00123791
-0.00123606
-0.00123421
-0.00123236
-0.00123052
-0.00122868
-0.00122684
-0.00122501
-0.00122318
-0.00122136
-0.00121956
-0.00121777
-0.00131663
-0.00131638
-0.00131596
-0.00131536
-0.0013146
-0.00131373
-0.0013128
-0.00131184
-0.00131088
-0.0013099
-0.00130888
-0.00130782
-0.00130669
-0.00130547
-0.00130415
-0.00130278
-0.00130134
-0.00129988
-0.00129841
-0.0012969
-0.00129535
-0.00129378
-0.00129219
-0.00129057
-0.00128892
-0.00128723
-0.00128551
-0.00128378
-0.00128203
-0.00128026
-0.00127847
-0.00127666
-0.00127484
-0.00127301
-0.00127117
-0.00126931
-0.00126745
-0.00126557
-0.00126368
-0.00126179
-0.00125989
-0.00125798
-0.00125607
-0.00125416
-0.00125225
-0.00125033
-0.00124842
-0.0012465
-0.0012446
-0.00124267
-0.00143159
-0.00142849
-0.00142533
-0.00142204
-0.00141863
-0.00141514
-0.00141162
-0.00140816
-0.0014048
-0.00140157
-0.00139837
-0.00139522
-0.00139206
-0.00138892
-0.00138573
-0.00138251
-0.00137926
-0.00137603
-0.00137287
-0.00136975
-0.00136662
-0.0013635
-0.00136041
-0.00135735
-0.00135436
-0.00135133
-0.00134831
-0.00134532
-0.00134234
-0.00133937
-0.00133642
-0.00133349
-0.0013306
-0.00132774
-0.0013249
-0.00132208
-0.00131929
-0.00131652
-0.00131375
-0.00131101
-0.00130829
-0.00130559
-0.00130291
-0.00130025
-0.00129762
-0.00129502
-0.00129243
-0.00128988
-0.00128735
-0.00128486
-0.00142593
-0.00142491
-0.0014237
-0.00142225
-0.00142049
-0.00141841
-0.00141606
-0.00141367
-0.00141134
-0.00140926
-0.00140696
-0.00140461
-0.00140214
-0.00139992
-0.00139742
-0.00139485
-0.00139215
-0.0013894
-0.0013867
-0.00138406
-0.00138135
-0.00137854
-0.00137569
-0.0013728
-0.00137031
-0.00136759
-0.0013648
-0.00136201
-0.00135923
-0.00135641
-0.00135358
-0.00135076
-0.00134799
-0.00134523
-0.00134251
-0.00133982
-0.00133715
-0.00133449
-0.00133183
-0.00132916
-0.0013265
-0.00132385
-0.00132121
-0.00131859
-0.00131598
-0.0013134
-0.00131084
-0.0013083
-0.00130578
-0.00130324
-0.00154935
-0.0015458
-0.00154192
-0.00153789
-0.00153357
-0.00152884
-0.00152341
-0.00151828
-0.00151304
-0.00150945
-0.00150451
-0.00149926
-0.00149362
-0.00149055
-0.0014856
-0.00148068
-0.00147575
-0.00147076
-0.00146586
-0.0014612
-0.00145657
-0.00145171
-0.00144632
-0.00144108
-0.00143755
-0.00143334
-0.00142884
-0.00142436
-0.00141995
-0.00141554
-0.00141115
-0.0014068
-0.00140254
-0.00139837
-0.0013943
-0.00139034
-0.00138649
-0.00138273
-0.00137902
-0.00137535
-0.00137172
-0.00136813
-0.00136458
-0.00136108
-0.00135764
-0.00135425
-0.00135092
-0.00134767
-0.00134447
-0.00134133
-0.00156035
-0.00156008
-0.00155688
-0.00155329
-0.00154925
-0.00154479
-0.00153771
-0.0015313
-0.00152086
-0.00152285
-0.00151647
-0.00150349
-0.00148836
-0.00150136
-0.00149471
-0.00148817
-0.00148233
-0.00147646
-0.0014707
-0.00146537
-0.00146044
-0.00145542
-0.00144676
-0.00144209
-0.00143889
-0.00143573
-0.00143137
-0.00142693
-0.00142261
-0.00141834
-0.00141413
-0.00140996
-0.00140586
-0.00140185
-0.00139793
-0.00139413
-0.00139047
-0.00138696
-0.00138356
-0.00138025
-0.00137699
-0.00137377
-0.00137057
-0.00136739
-0.00136423
-0.00136109
-0.00135797
-0.00135489
-0.00135184
-0.00134879
-0.00169023
-0.00170465
-0.00169718
-0.00168749
-0.00167754
-0.00166864
-0.0016573
-0.00163147
-0.00162563
-0.00162519
-0.00162203
-0.00155592
-0.00153368
-0.00160627
-0.0015972
-0.0015861
-0.00157589
-0.0015662
-0.00155659
-0.00154726
-0.00153856
-0.00153007
-0.00151902
-0.0015113
-0.00150234
-0.00149605
-0.00148951
-0.00148269
-0.00147594
-0.00146938
-0.00146304
-0.00145691
-0.00145096
-0.0014452
-0.00143964
-0.00143427
-0.0014291
-0.00142415
-0.00141944
-0.00141497
-0.00141073
-0.00140669
-0.0014028
-0.00139905
-0.0013954
-0.00139182
-0.0013883
-0.00138481
-0.00138134
-0.0013779
-0.00176055
-0.00176693
-0.00179491
-0.00179657
-0.00179442
-0.00179203
-0.00179016
-0.00177919
-0.00176512
-0.001693
-0.00169184
-0.00155579
-0.00106442
-0.00145106
-0.00145038
-0.00144838
-0.00144667
-0.00144482
-0.00144276
-0.00144055
-0.00143874
-0.00143648
-0.00142921
-0.00142702
-0.00142836
-0.00142894
-0.00142707
-0.00142508
-0.00142314
-0.00142131
-0.00141949
-0.00141767
-0.00141575
-0.00141376
-0.00141176
-0.00140976
-0.0014078
-0.00140586
-0.00140391
-0.00140193
-0.00139993
-0.00139794
-0.00139597
-0.00139401
-0.00139205
-0.00139003
-0.00138787
-0.00138552
-0.00138283
-0.00137984
-0.00155369
-0.00180664
-0.00181428
-0.00182822
-0.00179447
-0.0017773
-0.00187811
-0.00188081
-0.00175407
-0.00106512
-0.00153177
-0.00153733
-0.00154346
-0.00154985
-0.00155348
-0.0015595
-0.0015653
-0.00157
-0.00157376
-0.00157745
-0.00158201
-0.00158007
-0.00152379
-0.00111913
-0.00146089
-0.0014604
-0.00145956
-0.00145847
-0.00145696
-0.00145479
-0.00145444
-0.00145434
-0.00145347
-0.00145173
-0.00144937
-0.0014465
-0.00144331
-0.00144009
-0.00143701
-0.00143401
-0.00143101
-0.00142796
-0.00142487
-0.00142186
-0.00141904
-0.00141644
-0.00141409
-0.00141196
-0.0014099
-0.00140784
-0.000889932
-0.000889756
-0.000889577
-0.000889397
-0.000889216
-0.000889032
-0.000888846
-0.000888658
-0.000888468
-0.000888275
-0.000888081
-0.000887884
-0.000887685
-0.000887484
-0.00088728
-0.000887074
-0.000886866
-0.000886656
-0.000886443
-0.000886228
-0.000886011
-0.000885791
-0.000885569
-0.000885345
-0.000885118
-0.000884889
-0.000884658
-0.000884424
-0.000884188
-0.000883949
-0.000883708
-0.000883465
-0.000883219
-0.00088297
-0.000882719
-0.000882466
-0.00088221
-0.000881951
-0.00088169
-0.000881427
-0.00088116
-0.000880892
-0.00088062
-0.000880347
-0.00088007
-0.000879791
-0.000879509
-0.000879225
-0.000878938
-0.000878648
-0.000878356
-0.000878061
-0.000877764
-0.000877463
-0.00087716
-0.000876854
-0.000876546
-0.000876235
-0.000875921
-0.000875604
-0.000875284
-0.000874962
-0.000874637
-0.000874309
-0.000873978
-0.000873644
-0.000873308
-0.000872969
-0.000872627
-0.000872282
-0.000871934
-0.000871583
-0.00087123
-0.000870873
-0.000870514
-0.000870152
-0.000869786
-0.000869418
-0.000869047
-0.000868673
-0.000868296
-0.000867916
-0.000867533
-0.000867148
-0.000866759
-0.000866367
-0.000865972
-0.000865574
-0.000865174
-0.00086477
-0.000864363
-0.000863954
-0.000863541
-0.000863125
-0.000862706
-0.000862284
-0.00086186
-0.000861432
-0.000861001
-0.000860567
-0.00086013
-0.00085969
-0.000859247
-0.000858801
-0.000858352
-0.0008579
-0.000857445
-0.000856987
-0.000856526
-0.000856062
-0.000855595
-0.000855125
-0.000854652
-0.000854176
-0.000853697
-0.000853215
-0.00085273
-0.000852242
-0.000851751
-0.000851257
-0.00085076
-0.00085026
-0.000849758
-0.000849252
-0.000848744
-0.000848232
-0.000847718
-0.000847201
-0.000846681
-0.000846158
-0.000845632
-0.000845104
-0.000844573
-0.000844039
-0.000843502
-0.000842962
-0.00084242
-0.000841875
-0.000841328
-0.000840777
-0.000840224
-0.000839669
-0.000839111
-0.00083855
-0.000837987
-0.000837421
-0.000836852
-0.000836281
-0.000835708
-0.000835132
-0.000834554
-0.000833974
-0.000833391
-0.000832805
-0.000832218
-0.000831628
-0.000831036
-0.000830442
-0.000829845
-0.000829247
-0.000828646
-0.000828043
-0.000827439
-0.000826832
-0.000826223
-0.000825612
-0.000825
-0.000824385
-0.000823769
-0.000823151
-0.000822531
-0.00082191
-0.000821286
-0.000820662
-0.000820035
-0.000819407
-0.000818778
-0.000818147
-0.000817515
-0.000816881
-0.000816246
-0.00081561
-0.000814973
-0.000814334
-0.000813694
-0.000813054
-0.000812412
-0.000811769
-0.000811125
-0.000810481
-0.000809836
-0.00080919
-0.000808543
-0.000807895
-0.000807247
-0.000806599
-0.00080595
-0.000805301
-0.000804651
-0.000804001
-0.000803351
-0.0008027
-0.00080205
-0.000801399
-0.000800749
-0.000800099
-0.000799448
-0.000798798
-0.000798149
-0.0007975
-0.000796851
-0.000796202
-0.000795555
-0.000794908
-0.000794261
-0.000793616
-0.000792971
-0.000792328
-0.000791685
-0.000791044
-0.000790403
-0.000789764
-0.000789127
-0.00078849
-0.000787856
-0.000787223
-0.000786591
-0.000785962
-0.000785334
-0.000784708
-0.000784085
-0.000783463
-0.000782844
-0.000782227
-0.000781612
-0.000781
-0.000780391
-0.000779784
-0.00077918
-0.000778579
-0.00077798
-0.000777385
-0.000776794
-0.000776205
-0.00077562
-0.000775038
-0.00077446
-0.000773886
-0.000773315
-0.000772749
-0.000772186
-0.000771628
-0.000771073
-0.000770524
-0.000769978
-0.000769437
-0.000768901
-0.00076837
-0.000767844
-0.000767322
-0.000766806
-0.000766295
-0.00076579
-0.00076529
-0.000764796
-0.000764308
-0.000763825
-0.000763349
-0.000762878
-0.000762414
-0.000761956
-0.000761505
-0.000761061
-0.000760623
-0.000760193
-0.000759769
-0.000759353
-0.000758944
-0.000758543
-0.000758149
-0.000757763
-0.000757385
-0.000757015
-0.000756653
-0.0007563
-0.000755955
-0.000755619
-0.000755292
-0.000754974
-0.000754665
-0.000754365
-0.000754075
-0.000753794
-0.000753523
-0.000753262
-0.000753012
-0.000752771
-0.000752541
-0.000752322
-0.000752118
-0.000915202
-0.000915006
-0.000914806
-0.000914606
-0.000914403
-0.000914198
-0.000913991
-0.000913782
-0.00091357
-0.000913355
-0.000913138
-0.000912918
-0.000912696
-0.000912472
-0.000912245
-0.000912015
-0.000911783
-0.000911548
-0.000911311
-0.000911071
-0.000910829
-0.000910584
-0.000910336
-0.000910086
-0.000909833
-0.000909577
-0.000909319
-0.000909058
-0.000908795
-0.000908528
-0.00090826
-0.000907988
-0.000907714
-0.000907437
-0.000907157
-0.000906874
-0.000906589
-0.000906301
-0.00090601
-0.000905717
-0.00090542
-0.000905121
-0.000904819
-0.000904515
-0.000904207
-0.000903896
-0.000903583
-0.000903267
-0.000902948
-0.000902626
-0.000902301
-0.000901974
-0.000901643
-0.00090131
-0.000900973
-0.000900634
-0.000900292
-0.000899946
-0.000899598
-0.000899247
-0.000898893
-0.000898536
-0.000898176
-0.000897813
-0.000897447
-0.000897078
-0.000896706
-0.000896331
-0.000895953
-0.000895572
-0.000895188
-0.0008948
-0.00089441
-0.000894017
-0.000893621
-0.000893221
-0.000892819
-0.000892413
-0.000892005
-0.000891593
-0.000891178
-0.000890761
-0.00089034
-0.000889916
-0.000889489
-0.000889058
-0.000888625
-0.000888189
-0.000887749
-0.000887307
-0.000886861
-0.000886412
-0.00088596
-0.000885505
-0.000885047
-0.000884586
-0.000884121
-0.000883654
-0.000883183
-0.000882709
-0.000882233
-0.000881753
-0.00088127
-0.000880783
-0.000880294
-0.000879802
-0.000879307
-0.000878808
-0.000878307
-0.000877802
-0.000877294
-0.000876783
-0.00087627
-0.000875753
-0.000875233
-0.00087471
-0.000874184
-0.000873655
-0.000873123
-0.000872588
-0.000872051
-0.00087151
-0.000870966
-0.000870419
-0.000869869
-0.000869317
-0.000868761
-0.000868203
-0.000867641
-0.000867077
-0.00086651
-0.00086594
-0.000865368
-0.000864792
-0.000864214
-0.000863633
-0.000863049
-0.000862463
-0.000861873
-0.000861281
-0.000860687
-0.00086009
-0.00085949
-0.000858887
-0.000858282
-0.000857675
-0.000857065
-0.000856452
-0.000855837
-0.00085522
-0.0008546
-0.000853978
-0.000853353
-0.000852726
-0.000852097
-0.000851465
-0.000850831
-0.000850195
-0.000849557
-0.000848917
-0.000848274
-0.00084763
-0.000846983
-0.000846335
-0.000845684
-0.000845032
-0.000844378
-0.000843722
-0.000843064
-0.000842404
-0.000841743
-0.000841079
-0.000840415
-0.000839748
-0.00083908
-0.000838411
-0.00083774
-0.000837068
-0.000836394
-0.000835719
-0.000835043
-0.000834366
-0.000833687
-0.000833008
-0.000832327
-0.000831645
-0.000830963
-0.000830279
-0.000829595
-0.000828909
-0.000828224
-0.000827537
-0.00082685
-0.000826162
-0.000825474
-0.000824785
-0.000824096
-0.000823407
-0.000822718
-0.000822028
-0.000821338
-0.000820648
-0.000819959
-0.000819269
-0.000818579
-0.00081789
-0.000817201
-0.000816513
-0.000815825
-0.000815137
-0.00081445
-0.000813764
-0.000813079
-0.000812394
-0.00081171
-0.000811028
-0.000810346
-0.000809665
-0.000808986
-0.000808308
-0.000807632
-0.000806957
-0.000806283
-0.000805611
-0.000804941
-0.000804273
-0.000803607
-0.000802942
-0.00080228
-0.00080162
-0.000800962
-0.000800307
-0.000799654
-0.000799004
-0.000798356
-0.000797711
-0.000797069
-0.00079643
-0.000795794
-0.000795161
-0.000794532
-0.000793906
-0.000793283
-0.000792664
-0.000792048
-0.000791436
-0.000790829
-0.000790225
-0.000789625
-0.000789029
-0.000788438
-0.000787851