/*--------------------------------*- C++ -*----------------------------------*\
| =========                 |                                                 |
| \\      /  F ield         | OpenFOAM: The Open Source CFD Toolbox           |
|  \\    /   O peration     | Version:  2.4.0                                 |
|   \\  /    A nd           | Web:      www.OpenFOAM.org                      |
|    \\/     M anipulation  |                                                 |
\*---------------------------------------------------------------------------*/
FoamFile
{
    version     2.0;
    format      ascii;
    class       surfaceScalarField;
    location    "1";
    object      phi;
}
// * * * * * * * * * * * * * * * * * * * * * * * * * * * * * * * * * * * * * //

dimensions      [0 3 -1 0 0 0 0];

internalField   nonuniform List<scalar> 
15580
(
-5.59167e-15
-1.87919e-12
-2.66095e-14
-5.49679e-12
-6.57188e-14
-8.9739e-12
-1.24713e-13
-1.23106e-11
-2.05203e-13
-1.55067e-11
-3.08641e-13
-1.85621e-11
-4.36361e-13
-2.14767e-11
-5.8959e-13
-2.42503e-11
-7.69492e-13
-2.68828e-11
-9.77171e-13
-2.93742e-11
-1.21372e-12
-3.17242e-11
-1.48021e-12
-3.39328e-11
-1.77776e-12
-3.59999e-11
-2.1075e-12
-3.79254e-11
-2.47068e-12
-3.97092e-11
-2.86858e-12
-4.13512e-11
-3.30266e-12
-4.28514e-11
-3.77449e-12
-4.42096e-11
-4.28585e-12
-4.54258e-11
-4.83869e-12
-4.64999e-11
-5.43528e-12
-4.74318e-11
-6.07813e-12
-4.82214e-11
-6.77027e-12
-4.88686e-11
-7.51495e-12
-4.93733e-11
-8.31495e-12
-4.9737e-11
-1.14023e-11
-4.99644e-11
-3.28404e-11
-5.00847e-11
-3.37731e-11
-5.0085e-11
-3.47186e-11
-5.00969e-11
-3.57039e-11
-4.99881e-11
-3.6699e-11
-4.99548e-11
-3.76965e-11
-4.99408e-11
-3.86936e-11
-4.99343e-11
-3.96887e-11
-4.99298e-11
-4.068e-11
-4.99243e-11
-4.16663e-11
-4.99151e-11
-4.26465e-11
-4.99e-11
-4.36201e-11
-4.98773e-11
-4.45868e-11
-4.98458e-11
-4.55465e-11
-4.98048e-11
-4.64992e-11
-4.97541e-11
-4.74448e-11
-4.96934e-11
-4.83834e-11
-4.96228e-11
-4.9315e-11
-4.95424e-11
-5.02395e-11
-4.94524e-11
-5.1157e-11
-4.93529e-11
-5.20673e-11
-4.92441e-11
-5.29703e-11
-4.9126e-11
-5.38661e-11
-4.89988e-11
-4.88626e-11
-5.47544e-11
-1.48435e-15
-1.87771e-12
-8.12061e-15
-5.49016e-12
-2.2525e-14
-8.9595e-12
-4.73974e-14
-1.22857e-11
-8.521e-14
-1.54689e-11
-1.38251e-13
-1.85091e-11
-2.08651e-13
-2.14063e-11
-2.98419e-13
-2.41605e-11
-4.09462e-13
-2.67718e-11
-5.43627e-13
-2.924e-11
-7.02712e-13
-3.15651e-11
-8.88518e-13
-3.3747e-11
-1.10285e-12
-3.57856e-11
-1.34757e-12
-3.76807e-11
-1.62461e-12
-3.94322e-11
-1.93603e-12
-4.10398e-11
-2.284e-12
-4.25034e-11
-2.67091e-12
-4.38227e-11
-3.0993e-12
-4.49974e-11
-3.57204e-12
-4.60271e-11
-4.09216e-12
-4.69116e-11
-4.66308e-12
-4.76505e-11
-5.28865e-12
-4.8243e-11
-5.97426e-12
-4.86877e-11
-6.72719e-12
-4.89841e-11
-1.23614e-11
-4.9139e-11
-3.11241e-11
-4.92122e-11
-3.20304e-11
-4.91786e-11
-3.29869e-11
-4.91404e-11
-3.3933e-11
-4.9042e-11
-3.48962e-11
-4.89916e-11
-3.58705e-11
-4.89665e-11
-3.68521e-11
-4.89528e-11
-3.78384e-11
-4.89435e-11
-3.88277e-11
-4.8935e-11
-3.98185e-11
-4.89243e-11
-4.08095e-11
-4.89091e-11
-4.17993e-11
-4.88875e-11
-4.27868e-11
-4.88583e-11
-4.37711e-11
-4.88206e-11
-4.47513e-11
-4.87739e-11
-4.57266e-11
-4.87181e-11
-4.66962e-11
-4.86531e-11
-4.76595e-11
-4.85791e-11
-4.86159e-11
-4.84961e-11
-4.95648e-11
-4.8404e-11
-5.05057e-11
-4.83031e-11
-5.14383e-11
-4.81934e-11
-5.2362e-11
-4.8075e-11
-4.7948e-11
-5.32766e-11
-8.53335e-15
-1.86917e-12
-3.68278e-14
-5.46186e-12
-8.61527e-14
-8.91017e-12
-1.5708e-13
-1.22148e-11
-2.50133e-13
-1.53758e-11
-3.65806e-13
-1.83934e-11
-5.0454e-13
-2.12675e-11
-6.66751e-13
-2.39983e-11
-8.52798e-13
-2.65857e-11
-1.06303e-12
-2.90298e-11
-1.29771e-12
-3.13304e-11
-1.55713e-12
-3.34876e-11
-1.84148e-12
-3.55012e-11
-2.15096e-12
-3.73712e-11
-2.48566e-12
-3.90975e-11
-2.8457e-12
-4.06798e-11
-3.23108e-12
-4.2118e-11
-3.64181e-12
-4.34119e-11
-4.07775e-12
-4.45614e-11
-4.53881e-12
-4.55661e-11
-5.02461e-12
-4.64258e-11
-5.53488e-12
-4.71403e-11
-6.06895e-12
-4.77089e-11
-6.6269e-12
-4.81297e-11
-7.20931e-12
-4.84017e-11
-2.33645e-11
-4.85329e-11
-3.49233e-11
-4.85749e-11
-3.55655e-11
-4.85364e-11
-3.62653e-11
-4.84406e-11
-3.69469e-11
-4.83604e-11
-3.76386e-11
-4.82999e-11
-3.83479e-11
-4.82571e-11
-3.90754e-11
-4.82254e-11
-3.98195e-11
-4.81994e-11
-4.05792e-11
-4.81753e-11
-4.13534e-11
-4.81501e-11
-4.21407e-11
-4.81217e-11
-4.29398e-11
-4.80884e-11
-4.3749e-11
-4.8049e-11
-4.4567e-11
-4.80026e-11
-4.53922e-11
-4.79487e-11
-4.62232e-11
-4.78871e-11
-4.70584e-11
-4.78179e-11
-4.78966e-11
-4.77409e-11
-4.87365e-11
-4.76562e-11
-4.95769e-11
-4.75637e-11
-5.04167e-11
-4.74633e-11
-5.12551e-11
-4.73551e-11
-5.2091e-11
-4.72391e-11
-4.71153e-11
-5.29237e-11
-2.66614e-14
-1.84251e-12
-1.01114e-13
-5.38741e-12
-2.19651e-13
-8.79164e-12
-3.79591e-13
-1.20548e-11
-5.78509e-13
-1.51769e-11
-8.1418e-13
-1.81577e-11
-1.08455e-12
-2.09972e-11
-1.38768e-12
-2.36952e-11
-1.72174e-12
-2.62517e-11
-2.08493e-12
-2.86666e-11
-2.47549e-12
-3.09399e-11
-2.89164e-12
-3.30714e-11
-3.33155e-12
-3.50613e-11
-3.79328e-12
-3.69095e-11
-4.27481e-12
-3.86159e-11
-4.77393e-12
-4.01807e-11
-5.28825e-12
-4.16037e-11
-5.81509e-12
-4.28851e-11
-6.35155e-12
-4.4025e-11
-6.89431e-12
-4.50233e-11
-7.43988e-12
-4.58803e-11
-7.98436e-12
-4.65958e-11
-8.52303e-12
-4.71702e-11
-9.0477e-12
-4.76051e-11
-9.8695e-12
-4.79042e-11
-3.93573e-11
-4.80806e-11
-3.98462e-11
-4.80859e-11
-4.02941e-11
-4.80885e-11
-4.0783e-11
-4.79517e-11
-4.12869e-11
-4.78566e-11
-4.18024e-11
-4.77844e-11
-4.23312e-11
-4.77283e-11
-4.28747e-11
-4.76818e-11
-4.34335e-11
-4.76406e-11
-4.40073e-11
-4.76014e-11
-4.45959e-11
-4.75615e-11
-4.51986e-11
-4.7519e-11
-4.58147e-11
-4.74723e-11
-4.64434e-11
-4.74203e-11
-4.7084e-11
-4.7362e-11
-4.77354e-11
-4.72972e-11
-4.83967e-11
-4.72259e-11
-4.90667e-11
-4.71479e-11
-4.97444e-11
-4.70632e-11
-5.04289e-11
-4.69717e-11
-5.11192e-11
-4.68734e-11
-5.18143e-11
-4.67681e-11
-5.25134e-11
-4.6656e-11
-5.32155e-11
-4.6537e-11
-4.64111e-11
-5.39197e-11
-2.19279e-14
-1.82058e-12
-8.51861e-14
-5.32415e-12
-1.87752e-13
-8.68907e-12
-3.2791e-13
-1.19147e-11
-5.04076e-13
-1.50007e-11
-7.14768e-13
-1.7947e-11
-9.58607e-13
-2.07533e-11
-1.23429e-12
-2.34195e-11
-1.54058e-12
-2.59454e-11
-1.87629e-12
-2.83309e-11
-2.24029e-12
-3.05759e-11
-2.63145e-12
-3.26803e-11
-3.04871e-12
-3.46441e-11
-3.49094e-12
-3.64673e-11
-3.95707e-12
-3.81498e-11
-4.44597e-12
-3.96918e-11
-4.95653e-12
-4.10932e-11
-5.48755e-12
-4.23541e-11
-6.03789e-12
-4.34746e-11
-6.60623e-12
-4.4455e-11
-7.19132e-12
-4.52952e-11
-7.79158e-12
-4.59955e-11
-8.40558e-12
-4.65562e-11
-9.03255e-12
-4.69781e-11
-1.01026e-11
-4.72617e-11
-3.6707e-11
-4.74261e-11
-3.73452e-11
-4.74477e-11
-3.79692e-11
-4.74645e-11
-3.86361e-11
-4.72848e-11
-3.93017e-11
-4.7191e-11
-3.99659e-11
-4.71201e-11
-4.06305e-11
-4.70637e-11
-4.12962e-11
-4.70162e-11
-4.19631e-11
-4.69737e-11
-4.26314e-11
-4.69331e-11
-4.33013e-11
-4.68916e-11
-4.39734e-11
-4.6847e-11
-4.46479e-11
-4.67978e-11
-4.53253e-11
-4.67429e-11
-4.60056e-11
-4.66816e-11
-4.66889e-11
-4.66139e-11
-4.73749e-11
-4.65399e-11
-4.80632e-11
-4.64595e-11
-4.87536e-11
-4.63728e-11
-4.94456e-11
-4.62798e-11
-5.01386e-11
-4.61803e-11
-5.08324e-11
-4.60744e-11
-5.15263e-11
-4.59621e-11
-5.22197e-11
-4.58435e-11
-4.57185e-11
-5.29123e-11
-5.36814e-15
-1.81521e-12
-2.50957e-14
-5.30442e-12
-6.12812e-14
-8.65288e-12
-1.15207e-13
-1.18608e-11
-1.88009e-13
-1.49279e-11
-2.80703e-13
-1.78543e-11
-3.94202e-13
-2.06398e-11
-5.29339e-13
-2.32844e-11
-6.86887e-13
-2.57878e-11
-8.6757e-13
-2.81502e-11
-1.07209e-12
-3.03713e-11
-1.30112e-12
-3.24512e-11
-1.55536e-12
-3.43898e-11
-1.83553e-12
-3.61871e-11
-2.14235e-12
-3.7843e-11
-2.47663e-12
-3.93575e-11
-2.83925e-12
-4.07305e-11
-3.23115e-12
-4.19622e-11
-3.65342e-12
-4.30524e-11
-4.10725e-12
-4.40011e-11
-4.594e-12
-4.48084e-11
-5.11525e-12
-4.54743e-11
-5.67284e-12
-4.59986e-11
-6.26876e-12
-4.63822e-11
-8.04533e-12
-4.66264e-11
-3.32413e-11
-4.67579e-11
-3.39258e-11
-4.67632e-11
-3.4639e-11
-4.67512e-11
-3.53903e-11
-4.65336e-11
-3.61663e-11
-4.6415e-11
-3.69543e-11
-4.63321e-11
-3.775e-11
-4.6268e-11
-3.85511e-11
-4.62151e-11
-3.93554e-11
-4.61694e-11
-4.01611e-11
-4.61274e-11
-4.09668e-11
-4.60859e-11
-4.17714e-11
-4.60423e-11
-4.25744e-11
-4.59948e-11
-4.33753e-11
-4.59421e-11
-4.41734e-11
-4.58836e-11
-4.49681e-11
-4.58192e-11
-4.57588e-11
-4.57492e-11
-4.65449e-11
-4.56734e-11
-4.73261e-11
-4.55917e-11
-4.81017e-11
-4.55041e-11
-4.88714e-11
-4.54106e-11
-4.96348e-11
-4.5311e-11
-5.03915e-11
-4.52055e-11
-5.11411e-11
-4.50939e-11
-4.49764e-11
-5.18833e-11
-4.89577e-15
-1.81032e-12
-1.99223e-14
-5.2894e-12
-4.63491e-14
-8.62646e-12
-8.58543e-14
-1.18213e-11
-1.40047e-13
-1.48738e-11
-2.10484e-13
-1.77839e-11
-2.98664e-13
-2.05517e-11
-4.06051e-13
-2.3177e-11
-5.34067e-13
-2.56598e-11
-6.84113e-13
-2.80001e-11
-8.57562e-13
-3.01979e-11
-1.05579e-12
-3.2253e-11
-1.28014e-12
-3.41655e-11
-1.53199e-12
-3.59353e-11
-1.8127e-12
-3.75623e-11
-2.12368e-12
-3.90465e-11
-2.46634e-12
-4.03879e-11
-2.84214e-12
-4.15864e-11
-3.25252e-12
-4.2642e-11
-3.69906e-12
-4.35546e-11
-4.18329e-12
-4.43242e-11
-4.707e-12
-4.49506e-11
-5.27196e-12
-4.54337e-11
-5.87948e-12
-4.57747e-11
-9.00013e-12
-4.59776e-11
-3.27596e-11
-4.60773e-11
-3.34568e-11
-4.6066e-11
-3.42389e-11
-4.59691e-11
-3.49747e-11
-4.57978e-11
-3.57176e-11
-4.56721e-11
-3.64687e-11
-4.5581e-11
-3.72256e-11
-4.55111e-11
-3.79863e-11
-4.54543e-11
-3.87501e-11
-4.54056e-11
-3.95164e-11
-4.53611e-11
-4.02846e-11
-4.53177e-11
-4.10541e-11
-4.52728e-11
-4.18244e-11
-4.52245e-11
-4.25951e-11
-4.51714e-11
-4.33651e-11
-4.51135e-11
-4.41337e-11
-4.50507e-11
-4.48999e-11
-4.4983e-11
-4.56628e-11
-4.49104e-11
-4.64218e-11
-4.48328e-11
-4.71759e-11
-4.475e-11
-4.79246e-11
-4.46619e-11
-4.86672e-11
-4.45684e-11
-4.94031e-11
-4.44696e-11
-5.01317e-11
-4.43653e-11
-4.42556e-11
-5.08524e-11
-1.38711e-15
-1.80893e-12
-8.66623e-15
-5.28212e-12
-2.44297e-14
-8.61069e-12
-5.09266e-14
-1.17948e-11
-9.02699e-14
-1.48344e-11
-1.44457e-13
-1.77297e-11
-2.15402e-13
-2.04807e-11
-3.04946e-13
-2.30874e-11
-4.14892e-13
-2.55499e-11
-5.47001e-13
-2.7868e-11
-7.03043e-13
-3.00419e-11
-8.84779e-13
-3.20713e-11
-1.09403e-12
-3.39562e-11
-1.33263e-12
-3.56967e-11
-1.60254e-12
-3.72924e-11
-1.90578e-12
-3.87433e-11
-2.24452e-12
-4.00491e-11
-2.62105e-12
-4.12098e-11
-3.03789e-12
-4.22251e-11
-3.49769e-12
-4.30948e-11
-4.00343e-12
-4.38185e-11
-4.55845e-12
-4.43955e-11
-5.16702e-12
-4.48251e-11
-5.83347e-12
-4.51082e-11
-1.20398e-11
-4.52531e-11
-3.29648e-11
-4.53078e-11
-3.37647e-11
-4.5266e-11
-3.46463e-11
-4.50875e-11
-3.55046e-11
-4.49396e-11
-3.63509e-11
-4.48258e-11
-3.71906e-11
-4.47412e-11
-3.80239e-11
-4.46778e-11
-3.88501e-11
-4.46282e-11
-3.96689e-11
-4.45868e-11
-4.04806e-11
-4.45495e-11
-4.12855e-11
-4.45128e-11
-4.2084e-11
-4.44743e-11
-4.28764e-11
-4.4432e-11
-4.36628e-11
-4.43851e-11
-4.44426e-11
-4.43337e-11
-4.52154e-11
-4.42778e-11
-4.59807e-11
-4.42176e-11
-4.67381e-11
-4.41531e-11
-4.74869e-11
-4.4084e-11
-4.82267e-11
-4.40102e-11
-4.8957e-11
-4.39315e-11
-4.96775e-11
-4.38479e-11
-5.03876e-11
-4.37594e-11
-5.10869e-11
-4.3666e-11
-4.35675e-11
-5.17751e-11
-6.75115e-15
-1.80218e-12
-2.97923e-14
-5.25908e-12
-7.07145e-14
-8.56977e-12
-1.30471e-13
-1.1735e-11
-2.09902e-13
-1.4755e-11
-3.09731e-13
-1.76299e-11
-4.30604e-13
-2.03598e-11
-5.73069e-13
-2.2945e-11
-7.37622e-13
-2.53853e-11
-9.24674e-13
-2.7681e-11
-1.13462e-12
-2.98319e-11
-1.36775e-12
-3.18381e-11
-1.6244e-12
-3.36996e-11
-1.9048e-12
-3.54163e-11
-2.20922e-12
-3.69879e-11
-2.53785e-12
-3.84146e-11
-2.89098e-12
-3.9696e-11
-3.26875e-12
-4.08321e-11
-3.67151e-12
-4.18224e-11
-4.09934e-12
-4.2667e-11
-4.55244e-12
-4.33654e-11
-5.0308e-12
-4.39172e-11
-5.5365e-12
-4.43194e-11
-6.07541e-12
-4.45693e-11
-2.10667e-11
-4.46732e-11
-3.54858e-11
-4.47122e-11
-3.60966e-11
-4.46553e-11
-3.67714e-11
-4.44127e-11
-3.74643e-11
-4.42466e-11
-3.81723e-11
-4.41178e-11
-3.88926e-11
-4.4021e-11
-3.96222e-11
-4.39482e-11
-4.0358e-11
-4.38924e-11
-4.10971e-11
-4.38477e-11
-4.18372e-11
-4.38094e-11
-4.25764e-11
-4.37736e-11
-4.33133e-11
-4.37375e-11
-4.40463e-11
-4.36989e-11
-4.47742e-11
-4.36573e-11
-4.54956e-11
-4.36123e-11
-4.62095e-11
-4.35639e-11
-4.6915e-11
-4.35121e-11
-4.76113e-11
-4.34568e-11
-4.82978e-11
-4.33975e-11
-4.89739e-11
-4.33341e-11
-4.96392e-11
-4.32662e-11
-5.02933e-11
-4.31938e-11
-5.09358e-11
-4.31169e-11
-5.15663e-11
-4.30355e-11
-4.29495e-11
-5.21843e-11
-3.00993e-14
-1.77208e-12
-1.15052e-13
-5.17412e-12
-2.50742e-13
-8.43408e-12
-4.33853e-13
-1.15519e-11
-6.61384e-13
-1.45274e-11
-9.30596e-13
-1.73607e-11
-1.23893e-12
-2.00515e-11
-1.58399e-12
-2.25999e-11
-1.96345e-12
-2.50059e-11
-2.37504e-12
-2.72694e-11
-2.81649e-12
-2.93905e-11
-3.2855e-12
-3.13691e-11
-3.77966e-12
-3.32054e-11
-4.29644e-12
-3.48995e-11
-4.83309e-12
-3.64513e-11
-5.38669e-12
-3.7861e-11
-5.95394e-12
-3.91288e-11
-6.53125e-12
-4.02548e-11
-7.11456e-12
-4.12391e-11
-7.69957e-12
-4.2082e-11
-8.28157e-12
-4.27834e-11
-8.85488e-12
-4.33439e-11
-9.409e-12
-4.37653e-11
-1.00514e-11
-4.40532e-11
-4.39994e-11
-4.42216e-11
-4.45056e-11
-4.4206e-11
-4.49711e-11
-4.41898e-11
-4.5464e-11
-4.39198e-11
-4.59899e-11
-4.37206e-11
-4.65355e-11
-4.35722e-11
-4.70944e-11
-4.34621e-11
-4.76623e-11
-4.33803e-11
-4.82355e-11
-4.33191e-11
-4.88109e-11
-4.32723e-11
-4.93859e-11
-4.32344e-11
-4.99585e-11
-4.3201e-11
-5.05273e-11
-4.31687e-11
-5.10905e-11
-4.31357e-11
-5.1647e-11
-4.31008e-11
-5.21957e-11
-4.30636e-11
-5.27359e-11
-4.30237e-11
-5.32669e-11
-4.29811e-11
-5.37881e-11
-4.29355e-11
-5.42991e-11
-4.28866e-11
-5.47993e-11
-4.28338e-11
-5.52885e-11
-4.2777e-11
-5.57665e-11
-4.27158e-11
-5.62328e-11
-4.26506e-11
-5.66869e-11
-4.25814e-11
-4.25081e-11
-5.71283e-11
-3.03316e-14
-1.74175e-12
-1.15901e-13
-5.08855e-12
-2.53421e-13
-8.29656e-12
-4.40761e-13
-1.13646e-11
-6.75985e-13
-1.42922e-11
-9.57335e-13
-1.70793e-11
-1.28318e-12
-1.97257e-11
-1.65201e-12
-2.22311e-11
-2.0624e-12
-2.45955e-11
-2.51298e-12
-2.68188e-11
-3.00242e-12
-2.8901e-11
-3.52942e-12
-3.08421e-11
-4.09262e-12
-3.26422e-11
-4.69068e-12
-3.43014e-11
-5.32212e-12
-3.58198e-11
-5.98544e-12
-3.71977e-11
-6.67891e-12
-3.84353e-11
-7.40076e-12
-3.95329e-11
-8.14883e-12
-4.0491e-11
-8.92087e-12
-4.13099e-11
-9.71398e-12
-4.19903e-11
-1.05251e-11
-4.25327e-11
-1.13513e-11
-4.29391e-11
-1.2639e-11
-4.32121e-11
-4.23178e-11
-4.33767e-11
-4.31398e-11
-4.3384e-11
-4.39493e-11
-4.33804e-11
-4.48295e-11
-4.30396e-11
-4.5682e-11
-4.28681e-11
-4.65078e-11
-4.27464e-11
-4.73085e-11
-4.26614e-11
-4.80856e-11
-4.26032e-11
-4.884e-11
-4.25648e-11
-4.95726e-11
-4.25397e-11
-5.02846e-11
-4.25225e-11
-5.09766e-11
-4.2509e-11
-5.16489e-11
-4.24964e-11
-5.23014e-11
-4.24832e-11
-5.29342e-11
-4.24681e-11
-5.35472e-11
-4.24505e-11
-5.41405e-11
-4.24304e-11
-5.47137e-11
-4.24079e-11
-5.52666e-11
-4.23827e-11
-5.57987e-11
-4.23544e-11
-5.631e-11
-4.23226e-11
-5.68003e-11
-4.22866e-11
-5.72697e-11
-4.22465e-11
-5.7718e-11
-4.22023e-11
-5.81448e-11
-4.21545e-11
-4.21031e-11
-5.85499e-11
-5.84435e-15
-1.7359e-12
-3.14144e-14
-5.06298e-12
-8.16066e-14
-8.24637e-12
-1.59579e-13
-1.12866e-11
-2.68155e-13
-1.41836e-11
-4.09873e-13
-1.69376e-11
-5.87104e-13
-1.95484e-11
-8.02066e-13
-2.20161e-11
-1.05696e-12
-2.43406e-11
-1.35397e-12
-2.65218e-11
-1.6954e-12
-2.85596e-11
-2.08366e-12
-3.04539e-11
-2.52148e-12
-3.22044e-11
-3.01181e-12
-3.38111e-11
-3.55813e-12
-3.52735e-11
-4.16425e-12
-3.65916e-11
-4.83485e-12
-3.77647e-11
-5.575e-12
-3.87928e-11
-6.39107e-12
-3.96749e-11
-7.29024e-12
-4.04108e-11
-8.28195e-12
-4.09986e-11
-9.37539e-12
-4.14393e-11
-1.0576e-11
-4.17385e-11
-1.41029e-11
-4.19141e-11
-4.12602e-11
-4.19763e-11
-4.2738e-11
-4.19063e-11
-4.42635e-11
-4.18548e-11
-4.5681e-11
-4.16222e-11
-4.70698e-11
-4.14793e-11
-4.84149e-11
-4.14013e-11
-4.97121e-11
-4.13642e-11
-5.09592e-11
-4.13561e-11
-5.21549e-11
-4.1369e-11
-5.32988e-11
-4.13958e-11
-5.43908e-11
-4.14305e-11
-5.54308e-11
-4.14689e-11
-5.64189e-11
-4.15083e-11
-5.73554e-11
-4.15467e-11
-5.82408e-11
-4.15826e-11
-5.9076e-11
-4.16153e-11
-5.98618e-11
-4.16447e-11
-6.05986e-11
-4.16711e-11
-6.12868e-11
-4.16945e-11
-6.19269e-11
-4.17143e-11
-6.25197e-11
-4.17298e-11
-6.3066e-11
-4.17403e-11
-6.35668e-11
-4.17457e-11
-6.4023e-11
-4.17461e-11
-6.44353e-11
-4.17422e-11
-4.17342e-11
-6.48043e-11
-1.0961e-14
-1.72494e-12
-4.64391e-14
-5.02751e-12
-1.09413e-13
-8.1834e-12
-2.02839e-13
-1.11932e-11
-3.29258e-13
-1.40572e-11
-4.90873e-13
-1.6776e-11
-6.8959e-13
-1.93497e-11
-9.27075e-13
-2.17786e-11
-1.20479e-12
-2.40629e-11
-1.52405e-12
-2.62025e-11
-1.88605e-12
-2.81976e-11
-2.29191e-12
-3.0048e-11
-2.7427e-12
-3.17536e-11
-3.23954e-12
-3.33143e-11
-3.78356e-12
-3.47295e-11
-4.37602e-12
-3.59991e-11
-5.01836e-12
-3.71224e-11
-5.71223e-12
-3.80989e-11
-6.45916e-12
-3.8928e-11
-7.26022e-12
-3.96097e-11
-8.11697e-12
-4.01418e-11
-9.04013e-12
-4.05161e-11
-1.0064e-11
-4.07147e-11
-1.78315e-11
-4.07407e-11
-3.9685e-11
-4.08448e-11
-4.08466e-11
-4.07446e-11
-4.22885e-11
-4.04129e-11
-4.37804e-11
-4.01303e-11
-4.52885e-11
-3.99712e-11
-4.67921e-11
-3.98977e-11
-4.82748e-11
-3.98815e-11
-4.97273e-11
-3.99036e-11
-5.11436e-11
-3.99527e-11
-5.2519e-11
-4.00204e-11
-5.3849e-11
-4.01005e-11
-5.51293e-11
-4.01886e-11
-5.63565e-11
-4.02811e-11
-5.75278e-11
-4.03754e-11
-5.86412e-11
-4.04692e-11
-5.9695e-11
-4.05615e-11
-6.06878e-11
-4.06519e-11
-6.16181e-11
-4.07408e-11
-6.24849e-11
-4.08278e-11
-6.32871e-11
-4.0912e-11
-6.40244e-11
-4.09925e-11
-6.46965e-11
-4.10682e-11
-6.5304e-11
-4.11383e-11
-6.58472e-11
-4.12029e-11
-6.63266e-11
-4.12627e-11
-4.13182e-11
-6.67426e-11
-4.51274e-14
-1.67982e-12
-1.78775e-13
-4.89386e-12
-3.97153e-13
-7.96502e-12
-6.95746e-13
-1.08946e-11
-1.07042e-12
-1.36826e-11
-1.51739e-12
-1.6329e-11
-2.03298e-12
-1.88341e-11
-2.6137e-12
-2.11979e-11
-3.25592e-12
-2.34206e-11
-3.95608e-12
-2.55024e-11
-4.7102e-12
-2.74435e-11
-5.51423e-12
-2.9244e-11
-6.36342e-12
-3.09044e-11
-7.25286e-12
-3.24248e-11
-8.17648e-12
-3.38059e-11
-9.12802e-12
-3.50476e-11
-1.00994e-11
-3.6151e-11
-1.10825e-11
-3.71159e-11
-1.2067e-11
-3.79434e-11
-1.30443e-11
-3.86324e-11
-1.40004e-11
-3.91857e-11
-1.49054e-11
-3.96112e-11
-1.5686e-11
-3.9934e-11
-7.50648e-11
-4.01825e-11
-7.6501e-11
-4.01201e-11
-7.71726e-11
-4.0073e-11
-7.77144e-11
-3.98711e-11
-7.81635e-11
-3.96812e-11
-7.85802e-11
-3.95545e-11
-7.89949e-11
-3.94831e-11
-7.94171e-11
-3.94593e-11
-7.98465e-11
-3.94742e-11
-8.02803e-11
-3.95189e-11
-8.07147e-11
-3.95859e-11
-8.1145e-11
-3.96702e-11
-8.1566e-11
-3.97677e-11
-8.19721e-11
-3.9875e-11
-8.23584e-11
-3.99891e-11
-8.27198e-11
-4.01078e-11
-8.30517e-11
-4.02296e-11
-8.33493e-11
-4.03543e-11
-8.36079e-11
-4.04822e-11
-8.38232e-11
-4.06125e-11
-8.39912e-11
-4.0744e-11
-8.41085e-11
-4.08752e-11
-8.41722e-11
-4.10044e-11
-8.41803e-11
-4.11302e-11
-8.41315e-11
-4.12517e-11
-8.40243e-11
-4.13699e-11
-4.14853e-11
-8.38573e-11
-6.26141e-14
-1.6172e-12
-2.33954e-13
-4.72252e-12
-5.06612e-13
-7.69236e-12
-8.77642e-13
-1.05235e-11
-1.34427e-12
-1.32159e-11
-1.90385e-12
-1.57694e-11
-2.55386e-12
-1.81841e-11
-3.29187e-12
-2.04599e-11
-4.11554e-12
-2.2597e-11
-5.02256e-12
-2.45954e-11
-6.01071e-12
-2.64553e-11
-7.07773e-12
-2.8177e-11
-8.22145e-12
-2.97607e-11
-9.43959e-12
-3.12067e-11
-1.073e-11
-3.25155e-11
-1.20904e-11
-3.36872e-11
-1.35186e-11
-3.47228e-11
-1.50121e-11
-3.56223e-11
-1.65683e-11
-3.63872e-11
-1.81836e-11
-3.70171e-11
-1.98566e-11
-3.75126e-11
-2.15964e-11
-3.78714e-11
-2.47609e-11
-3.81011e-11
-5.57427e-11
-3.82872e-11
-5.75835e-11
-3.82793e-11
-5.94153e-11
-3.82413e-11
-6.15603e-11
-3.7726e-11
-6.37145e-11
-3.7527e-11
-6.58414e-11
-3.74276e-11
-6.79183e-11
-3.74062e-11
-6.99329e-11
-3.74447e-11
-7.18762e-11
-3.75309e-11
-7.37404e-11
-3.76547e-11
-7.55183e-11
-3.7808e-11
-7.72041e-11
-3.79844e-11
-7.87929e-11
-3.81789e-11
-8.02808e-11
-3.8387e-11
-8.16648e-11
-3.86052e-11
-8.29423e-11
-3.88303e-11
-8.41112e-11
-3.90607e-11
-8.51689e-11
-3.92966e-11
-8.6113e-11
-3.95381e-11
-8.6941e-11
-3.97845e-11
-8.76509e-11
-4.00341e-11
-8.82413e-11
-4.02848e-11
-8.87113e-11
-4.05344e-11
-8.9061e-11
-4.07805e-11
-8.92915e-11
-4.10213e-11
-8.94051e-11
-4.12563e-11
-4.14879e-11
-8.94025e-11
-2.74698e-14
-1.58973e-12
-1.33457e-13
-4.61653e-12
-3.2766e-13
-7.49816e-12
-6.12681e-13
-1.02385e-11
-9.90571e-13
-1.2838e-11
-1.4628e-12
-1.52972e-11
-2.03058e-12
-1.76163e-11
-2.69466e-12
-1.97958e-11
-3.45586e-12
-2.18358e-11
-4.31465e-12
-2.37366e-11
-5.27187e-12
-2.54981e-11
-6.32809e-12
-2.71207e-11
-7.48466e-12
-2.86041e-11
-8.74269e-12
-2.99486e-11
-1.01045e-11
-3.11536e-11
-1.15722e-11
-3.22195e-11
-1.31499e-11
-3.31452e-11
-1.48413e-11
-3.39309e-11
-1.66541e-11
-3.45745e-11
-1.85934e-11
-3.50778e-11
-2.06613e-11
-3.54448e-11
-2.28441e-11
-3.56886e-11
-4.34987e-11
-3.57979e-11
-6.22756e-11
-3.58224e-11
-6.48596e-11
-3.56952e-11
-6.76239e-11
-3.54771e-11
-7.03405e-11
-3.50094e-11
-7.31562e-11
-3.47113e-11
-7.60088e-11
-3.4575e-11
-7.88616e-11
-3.45533e-11
-8.16832e-11
-3.46231e-11
-8.44446e-11
-3.47695e-11
-8.71205e-11
-3.49788e-11
-8.96896e-11
-3.5239e-11
-9.21339e-11
-3.55401e-11
-9.44392e-11
-3.58736e-11
-9.65942e-11
-3.6232e-11
-9.85902e-11
-3.66092e-11
-1.0042e-10
-3.70001e-11
-1.02079e-10
-3.74023e-11
-1.03559e-10
-3.78166e-11
-1.04854e-10
-3.82425e-11
-1.05962e-10
-3.86772e-11
-1.06878e-10
-3.91178e-11
-1.07602e-10
-3.95612e-11
-1.08131e-10
-4.00051e-11
-1.08464e-10
-4.04476e-11
-1.08599e-10
-4.08863e-11
-1.08543e-10
-4.13117e-11
-4.17177e-11
-1.08314e-10
-8.96162e-14
-1.50012e-12
-3.3805e-13
-4.3681e-12
-7.36217e-13
-7.09999e-12
-1.28056e-12
-9.69417e-12
-1.96743e-12
-1.21512e-11
-2.79325e-12
-1.44714e-11
-3.7543e-12
-1.66553e-11
-4.84692e-12
-1.87032e-11
-6.06727e-12
-2.06154e-11
-7.41159e-12
-2.23922e-11
-8.87589e-12
-2.40338e-11
-1.04563e-11
-2.55403e-11
-1.21488e-11
-2.69117e-11
-1.39493e-11
-2.81481e-11
-1.58536e-11
-2.92493e-11
-1.78579e-11
-3.02152e-11
-1.99576e-11
-3.10455e-11
-2.2148e-11
-3.17404e-11
-2.44238e-11
-3.22988e-11
-2.67858e-11
-3.27157e-11
-2.92509e-11
-3.29797e-11
-3.24158e-11
-3.30942e-11
-6.77938e-11
-3.33304e-11
-7.03967e-11
-3.32194e-11
-7.30296e-11
-3.30623e-11
-7.61834e-11
-3.23233e-11
-7.93408e-11
-3.18519e-11
-8.24528e-11
-3.15993e-11
-8.5502e-11
-3.15258e-11
-8.84534e-11
-3.1602e-11
-9.12746e-11
-3.18018e-11
-9.39398e-11
-3.21044e-11
-9.64268e-11
-3.24918e-11
-9.87169e-11
-3.29488e-11
-1.00795e-10
-3.34617e-11
-1.02652e-10
-3.40172e-11
-1.04292e-10
-3.45915e-11
-1.05705e-10
-3.51966e-11
-1.06898e-10
-3.58071e-11
-1.07851e-10
-3.64492e-11
-1.08562e-10
-3.71059e-11
-1.09026e-10
-3.77783e-11
-1.09251e-10
-3.84523e-11
-1.0926e-10
-3.91086e-11
-1.09072e-10
-3.97493e-11
-1.08673e-10
-4.04038e-11
-1.08055e-10
-4.10656e-11
-1.07206e-10
-4.17358e-11
-1.06101e-10
-4.24167e-11
-4.29747e-11
-1.04844e-10
-1.01058e-13
-1.39906e-12
-4.09289e-13
-4.05987e-12
-9.22262e-13
-6.58702e-12
-1.63383e-12
-8.9826e-12
-2.53762e-12
-1.12474e-11
-3.62705e-12
-1.3382e-11
-4.89521e-12
-1.53871e-11
-6.335e-12
-1.72634e-11
-7.93887e-12
-1.90116e-11
-9.6991e-12
-2.0632e-11
-1.16074e-11
-2.21256e-11
-1.36552e-11
-2.34925e-11
-1.58333e-11
-2.47336e-11
-1.81324e-11
-2.58491e-11
-2.05417e-11
-2.68399e-11
-2.3051e-11
-2.7706e-11
-2.56481e-11
-2.84483e-11
-2.83226e-11
-2.9066e-11
-3.10604e-11
-2.95609e-11
-3.38393e-11
-2.99369e-11
-3.66054e-11
-3.02136e-11
-8.63749e-11
-3.05161e-11
-9.75854e-11
-3.05139e-11
-1.0042e-10
-3.03844e-11
-1.03435e-10
-3.00479e-11
-1.06245e-10
-2.95131e-11
-1.08855e-10
-2.92419e-11
-1.11177e-10
-2.92777e-11
-1.13148e-10
-2.95541e-11
-1.14721e-10
-3.00298e-11
-1.15848e-10
-3.06748e-11
-1.16489e-10
-3.1463e-11
-1.16608e-10
-3.23725e-11
-1.16188e-10
-3.33688e-11
-1.15215e-10
-3.44348e-11
-1.13692e-10
-3.55402e-11
-1.1164e-10
-3.66439e-11
-1.09209e-10
-3.76271e-11
-1.06277e-10
-3.87398e-11
-1.02859e-10
-3.98667e-11
-9.89719e-11
-4.0993e-11
-9.46205e-11
-4.21298e-11
-8.98857e-11
-4.31871e-11
-8.48858e-11
-4.41084e-11
-7.97291e-11
-4.4906e-11
-7.44333e-11
-4.56995e-11
-6.89378e-11
-4.65612e-11
-6.31686e-11
-4.7505e-11
-5.71003e-11
-4.8485e-11
-4.93812e-11
-5.06938e-11
-1.51377e-13
-1.24768e-12
-5.93272e-13
-3.61797e-12
-1.31651e-12
-5.86377e-12
-2.31309e-12
-7.98602e-12
-3.57443e-12
-9.98604e-12
-5.09142e-12
-1.1865e-11
-6.85457e-12
-1.3624e-11
-8.85402e-12
-1.5264e-11
-1.10797e-11
-1.67859e-11
-1.35212e-11
-1.81905e-11
-1.61682e-11
-1.94786e-11
-1.901e-11
-2.06506e-11
-2.20364e-11
-2.17073e-11
-2.52367e-11
-2.26487e-11
-2.86009e-11
-2.34757e-11
-3.21191e-11
-2.41878e-11
-3.57814e-11
-2.4786e-11
-3.95764e-11
-2.5271e-11
-4.3492e-11
-2.56452e-11
-4.75214e-11
-2.59075e-11
-6.75738e-11
-2.6145e-11
-9.46644e-11
-2.63401e-11
-9.88986e-11
-2.62797e-11
-1.02694e-10
-2.65893e-11
-1.05542e-10
-2.71998e-11
-1.06799e-10
-2.82554e-11
-1.06398e-10
-2.96432e-11
-1.04412e-10
-3.12639e-11
-1.00896e-10
-3.307e-11
-9.59039e-11
-3.50219e-11
-8.94947e-11
-3.7084e-11
-8.17322e-11
-3.92255e-11
-7.26832e-11
-4.14215e-11
-6.23572e-11
-4.36948e-11
-5.08742e-11
-4.59178e-11
-3.82709e-11
-4.81435e-11
-2.45053e-11
-5.04094e-11
-9.81055e-12
-5.23219e-11
5.80396e-12
-5.43543e-11
2.23115e-11
-5.63743e-11
3.95931e-11
-5.82746e-11
5.74878e-11
-6.00245e-11
7.59888e-11
-6.16881e-11
9.45486e-11
-6.26683e-11
1.13271e-10
-6.36279e-11
1.3204e-10
-6.44694e-11
1.50703e-10
-6.52237e-11
1.69091e-10
-6.58933e-11
1.87284e-10
-6.66781e-11
-6.71908e-11
2.05094e-10
-2.30491e-13
-9.10366e-13
-2.02358e-12
-3.55174e-12
-5.47612e-12
-7.77774e-12
-1.04376e-11
-1.34364e-11
-1.67553e-11
-2.03752e-11
-2.42776e-11
-2.8444e-11
-3.2857e-11
-3.74991e-11
-4.23543e-11
-4.74062e-11
-5.26389e-11
-5.80364e-11
-6.35938e-11
-8.1848e-11
-1.14759e-10
-1.2049e-10
-1.25037e-10
-1.26045e-10
-1.2276e-10
-1.155e-10
-1.04491e-10
-8.99283e-11
-7.2034e-11
-5.10619e-11
-2.7292e-11
-1.0253e-12
2.74181e-11
5.76308e-11
8.93163e-11
1.22083e-10
1.55905e-10
1.91107e-10
2.26984e-10
2.63281e-10
2.99636e-10
3.35659e-10
3.71125e-10
4.06489e-10
4.41374e-10
4.7561e-10
5.09045e-10
5.41368e-10
5.71831e-10
6.00764e-10
-5.5635e-11
-4.87177e-11
-5.65079e-11
-4.8564e-11
-5.73729e-11
-4.84019e-11
-5.82297e-11
-4.82314e-11
-5.90782e-11
-4.80527e-11
-5.99182e-11
-4.7866e-11
-6.07495e-11
-4.76713e-11
-6.15719e-11
-4.7469e-11
-6.23851e-11
-4.72591e-11
-6.31889e-11
-4.70419e-11
-6.39832e-11
-4.68175e-11
-6.47677e-11
-4.65862e-11
-6.55422e-11
-4.63481e-11
-6.63064e-11
-4.61035e-11
-6.70603e-11
-4.58526e-11
-6.78036e-11
-4.55956e-11
-6.8536e-11
-4.53327e-11
-6.92575e-11
-4.50642e-11
-6.99679e-11
-4.47903e-11
-7.06669e-11
-4.45112e-11
-7.13545e-11
-4.42273e-11
-7.20305e-11
-4.39387e-11
-7.26948e-11
-4.36457e-11
-7.33472e-11
-4.33486e-11
-7.39877e-11
-4.30477e-11
-7.46161e-11
-4.27431e-11
-7.52324e-11
-4.24352e-11
-7.58365e-11
-4.21242e-11
-7.64283e-11
-4.18104e-11
-7.70078e-11
-4.1494e-11
-7.75751e-11
-4.11753e-11
-7.81299e-11
-4.08546e-11
-7.86724e-11
-4.05321e-11
-7.92025e-11
-4.02081e-11
-7.97203e-11
-3.98829e-11
-8.02258e-11
-3.95566e-11
-8.0719e-11
-3.92295e-11
-8.11999e-11
-3.8902e-11
-8.16687e-11
-3.85741e-11
-8.21253e-11
-3.82462e-11
-8.25698e-11
-3.79185e-11
-8.30024e-11
-3.75913e-11
-8.34231e-11
-3.72649e-11
-8.3832e-11
-3.69396e-11
-8.42292e-11
-3.66158e-11
-8.46148e-11
-3.62938e-11
-8.49888e-11
-3.59741e-11
-8.53515e-11
-3.56575e-11
-8.57028e-11
-3.53445e-11
-3.50359e-11
-8.60428e-11
-5.41818e-11
-4.78125e-11
-5.50773e-11
-4.76686e-11
-5.59628e-11
-4.75164e-11
-5.68381e-11
-4.73561e-11
-5.7703e-11
-4.71878e-11
-5.85572e-11
-4.70117e-11
-5.94007e-11
-4.68279e-11
-6.02332e-11
-4.66365e-11
-6.10546e-11
-4.64377e-11
-6.18647e-11
-4.62318e-11
-6.26633e-11
-4.60189e-11
-6.34504e-11
-4.57991e-11
-6.42258e-11
-4.55727e-11
-6.49894e-11
-4.53399e-11
-6.5741e-11
-4.51009e-11
-6.64806e-11
-4.48559e-11
-6.72081e-11
-4.46052e-11
-6.79233e-11
-4.43489e-11
-6.86262e-11
-4.40874e-11
-6.93167e-11
-4.38207e-11
-6.99947e-11
-4.35493e-11
-7.06602e-11
-4.32732e-11
-7.13131e-11
-4.29929e-11
-7.19533e-11
-4.27084e-11
-7.25809e-11
-4.24201e-11
-7.31957e-11
-4.21282e-11
-7.37979e-11
-4.18331e-11
-7.43873e-11
-4.15348e-11
-7.49639e-11
-4.12337e-11
-7.55278e-11
-4.09301e-11
-7.6079e-11
-4.06241e-11
-7.66176e-11
-4.03161e-11
-7.71434e-11
-4.00063e-11
-7.76567e-11
-3.96949e-11
-7.81574e-11
-3.93822e-11
-7.86456e-11
-3.90684e-11
-7.91214e-11
-3.87538e-11
-7.95848e-11
-3.84385e-11
-8.0036e-11
-3.81229e-11
-8.0475e-11
-3.78072e-11
-8.09019e-11
-3.74916e-11
-8.13169e-11
-3.71764e-11
-8.172e-11
-3.68618e-11
-8.21113e-11
-3.65483e-11
-8.2491e-11
-3.62361e-11
-8.28592e-11
-3.59256e-11
-8.32159e-11
-3.56174e-11
-8.35614e-11
-3.5312e-11
-8.38956e-11
-3.50103e-11
-3.47128e-11
-8.42188e-11
-5.37524e-11
-4.69838e-11
-5.45764e-11
-4.68446e-11
-5.5395e-11
-4.66978e-11
-5.62076e-11
-4.65435e-11
-5.70136e-11
-4.63818e-11
-5.78125e-11
-4.62128e-11
-5.86038e-11
-4.60366e-11
-5.9387e-11
-4.58533e-11
-6.01616e-11
-4.56631e-11
-6.09274e-11
-4.5466e-11
-6.16838e-11
-4.52624e-11
-6.24306e-11
-4.50523e-11
-6.31675e-11
-4.48359e-11
-6.3894e-11
-4.46134e-11
-6.461e-11
-4.43849e-11
-6.53153e-11
-4.41507e-11
-6.60095e-11
-4.3911e-11
-6.66925e-11
-4.3666e-11
-6.7364e-11
-4.34158e-11
-6.8024e-11
-4.31608e-11
-6.86722e-11
-4.2901e-11
-6.93086e-11
-4.26369e-11
-6.99329e-11
-4.23685e-11
-7.05452e-11
-4.20961e-11
-7.11452e-11
-4.182e-11
-7.1733e-11
-4.15404e-11
-7.23085e-11
-4.12576e-11
-7.28717e-11
-4.09716e-11
-7.34224e-11
-4.0683e-11
-7.39608e-11
-4.03917e-11
-7.44867e-11
-4.00982e-11
-7.50003e-11
-3.98025e-11
-7.55015e-11
-3.95051e-11
-7.59904e-11
-3.9206e-11
-7.6467e-11
-3.89056e-11
-7.69314e-11
-3.8604e-11
-7.73836e-11
-3.83016e-11
-7.78237e-11
-3.79984e-11
-7.82518e-11
-3.76948e-11
-7.8668e-11
-3.7391e-11
-7.90724e-11
-3.70872e-11
-7.94652e-11
-3.67837e-11
-7.98463e-11
-3.64807e-11
-8.0216e-11
-3.61786e-11
-8.05743e-11
-3.58777e-11
-8.09215e-11
-3.55785e-11
-8.12575e-11
-3.52814e-11
-8.15826e-11
-3.4987e-11
-8.18968e-11
-3.4696e-11
-3.44093e-11
-8.22002e-11
-5.46252e-11
-4.62783e-11
-5.53311e-11
-4.61387e-11
-5.60366e-11
-4.59923e-11
-5.6741e-11
-4.58392e-11
-5.74433e-11
-4.56794e-11
-5.8143e-11
-4.55131e-11
-5.88392e-11
-4.53403e-11