/*--------------------------------*- C++ -*----------------------------------*\
| =========                 |                                                 |
| \\      /  F ield         | OpenFOAM: The Open Source CFD Toolbox           |
|  \\    /   O peration     | Version:  2.4.0                                 |
|   \\  /    A nd           | Web:      www.OpenFOAM.org                      |
|    \\/     M anipulation  |                                                 |
\*---------------------------------------------------------------------------*/
FoamFile
{
    version     2.0;
    format      ascii;
    class       volVectorField;
    location    "1";
    object      U;
}
// * * * * * * * * * * * * * * * * * * * * * * * * * * * * * * * * * * * * * //

dimensions      [0 1 -1 0 0 0 0];

internalField   nonuniform List<vector> 
8000
(
(-2.89736e-09 -0.000187853 0)
(-9.81223e-08 -0.000549726 0)
(-3.31848e-07 -0.000897736 0)
(-7.19879e-07 -0.00123185 0)
(-1.27521e-06 -0.00155205 0)
(-2.00785e-06 -0.0018583 0)
(-2.93048e-06 -0.00215059 0)
(-4.05122e-06 -0.00242889 0)
(-5.38228e-06 -0.00269318 0)
(-6.92943e-06 -0.00294346 0)
(-8.70536e-06 -0.00317969 0)
(-1.07139e-05 -0.00340189 0)
(-1.29695e-05 -0.00361002 0)
(-1.54743e-05 -0.0038041 0)
(-1.8246e-05 -0.00398411 0)
(-2.12846e-05 -0.00415004 0)
(-2.46121e-05 -0.00430191 0)
(-2.82257e-05 -0.0044397 0)
(-3.21609e-05 -0.00456343 0)
(-3.64311e-05 -0.0046731 0)
(-4.10918e-05 -0.00476872 0)
(-4.60061e-05 -0.0048503 0)
(-5.07475e-05 -0.00491786 0)
(-5.49418e-05 -0.00497139 0)
(-6.20384e-05 -0.00501099 0)
(-8.32627e-05 -0.00503688 0)
(-0.000134295 -0.00505214 0)
(-0.000219338 -0.00505428 0)
(-0.000339797 -0.00505618 0)
(-0.000363829 -0.00504719 0)
(-0.000292429 -0.00504439 0)
(-0.000291436 -0.0050433 0)
(-0.000302895 -0.00504287 0)
(-0.000313397 -0.00504249 0)
(-0.000321741 -0.00504187 0)
(-0.000329501 -0.00504076 0)
(-0.00033727 -0.00503898 0)
(-0.00034507 -0.00503636 0)
(-0.000352838 -0.00503283 0)
(-0.000360547 -0.00502833 0)
(-0.000368197 -0.00502282 0)
(-0.00037579 -0.00501631 0)
(-0.000383327 -0.00500881 0)
(-0.000390807 -0.00500032 0)
(-0.000398232 -0.00499087 0)
(-0.0004056 -0.00498046 0)
(-0.000412911 -0.00496912 0)
(-0.000420165 -0.00495685 0)
(-0.00042736 -0.00494366 0)
(-0.000434497 -0.00492958 0)
(-1.13194e-09 -0.000187901 0)
(-2.52738e-08 -0.000549506 0)
(-1.04088e-07 -0.000896917 0)
(-2.56061e-07 -0.00123014 0)
(-5.0244e-07 -0.00154916 0)
(-8.61029e-07 -0.00185399 0)
(-1.35116e-06 -0.00214461 0)
(-1.98726e-06 -0.00242104 0)
(-2.78756e-06 -0.00268325 0)
(-3.76374e-06 -0.00293124 0)
(-4.93437e-06 -0.00316501 0)
(-6.30882e-06 -0.00338454 0)
(-7.90752e-06 -0.00358982 0)
(-9.73776e-06 -0.00378084 0)
(-1.18236e-05 -0.00395759 0)
(-1.41698e-05 -0.00412006 0)
(-1.68055e-05 -0.00426822 0)
(-1.9733e-05 -0.00440206 0)
(-2.29987e-05 -0.00452156 0)
(-2.66216e-05 -0.00462671 0)
(-3.06511e-05 -0.00471747 0)
(-3.48914e-05 -0.00479382 0)
(-3.88924e-05 -0.00485571 0)
(-4.26876e-05 -0.00490307 0)
(-5.1366e-05 -0.00493593 0)
(-7.64741e-05 -0.00495492 0)
(-0.000127076 -0.00496449 0)
(-0.000214808 -0.00496295 0)
(-0.000373628 -0.00496206 0)
(-0.000301763 -0.0049512 0)
(-0.00027342 -0.00494672 0)
(-0.000278513 -0.00494465 0)
(-0.000289587 -0.00494374 0)
(-0.000298843 -0.00494325 0)
(-0.000306841 -0.00494281 0)
(-0.000314635 -0.0049421 0)
(-0.00032251 -0.00494088 0)
(-0.000330432 -0.00493896 0)
(-0.000338348 -0.00493621 0)
(-0.000346239 -0.00493254 0)
(-0.000354099 -0.0049279 0)
(-0.000361922 -0.00492228 0)
(-0.000369703 -0.00491567 0)
(-0.000377436 -0.0049081 0)
(-0.000385116 -0.00489956 0)
(-0.000392738 -0.00489008 0)
(-0.000400298 -0.00487966 0)
(-0.000407793 -0.00486831 0)
(-0.000415219 -0.00485606 0)
(-0.000422573 -0.00484292 0)
(-8.70695e-09 -0.000187698 0)
(-1.45523e-07 -0.000548612 0)
(-4.50066e-07 -0.000895072 0)
(-9.2857e-07 -0.0012271 0)
(-1.58412e-06 -0.00154471 0)
(-2.41775e-06 -0.00184792 0)
(-3.43524e-06 -0.00213674 0)
(-4.6374e-06 -0.00241117 0)
(-6.03074e-06 -0.00267121 0)
(-7.614e-06 -0.00291686 0)
(-9.39456e-06 -0.00314812 0)
(-1.13688e-05 -0.00336497 0)
(-1.35455e-05 -0.0035674 0)
(-1.59182e-05 -0.0037554 0)
(-1.84977e-05 -0.00392895 0)
(-2.12727e-05 -0.00408801 0)
(-2.42556e-05 -0.00423257 0)
(-2.74321e-05 -0.00436258 0)
(-3.08379e-05 -0.00447801 0)
(-3.44886e-05 -0.00457882 0)
(-3.83698e-05 -0.00466496 0)
(-4.2e-05 -0.00473636 0)
(-4.445e-05 -0.00479294 0)
(-4.66463e-05 -0.00483453 0)
(-6.04124e-05 -0.00486122 0)
(-0.000107273 -0.00487397 0)
(-0.000179922 -0.00487804 0)
(-0.00027198 -0.00487283 0)
(-0.000423771 -0.00486658 0)
(-0.000301468 -0.00485784 0)
(-0.000290932 -0.00485273 0)
(-0.000299786 -0.00484969 0)
(-0.000309236 -0.00484774 0)
(-0.000315867 -0.0048463 0)
(-0.000321724 -0.00484499 0)
(-0.00032772 -0.00484351 0)
(-0.00033394 -0.00484163 0)
(-0.000340295 -0.00483919 0)
(-0.000346736 -0.00483605 0)
(-0.000353249 -0.00483213 0)
(-0.000359825 -0.0048274 0)
(-0.000366452 -0.00482182 0)
(-0.00037312 -0.0048154 0)
(-0.000379816 -0.00480813 0)
(-0.00038653 -0.00480003 0)
(-0.000393253 -0.00479108 0)
(-0.000399976 -0.00478129 0)
(-0.000406691 -0.00477067 0)
(-0.00041339 -0.00475921 0)
(-0.000420066 -0.00474693 0)
(-4.64788e-08 -0.00018593 0)
(-4.34362e-07 -0.000543457 0)
(-1.19806e-06 -0.000886667 0)
(-2.31529e-06 -0.00121557 0)
(-3.7559e-06 -0.00153017 0)
(-5.49962e-06 -0.00183047 0)
(-7.52717e-06 -0.00211649 0)
(-9.82574e-06 -0.00238821 0)
(-1.23771e-05 -0.00264565 0)
(-1.51708e-05 -0.00288881 0)
(-1.8188e-05 -0.00311768 0)
(-2.14201e-05 -0.00333226 0)
(-2.48461e-05 -0.00353255 0)
(-2.84592e-05 -0.00371854 0)
(-3.22338e-05 -0.00389024 0)
(-3.61634e-05 -0.00404763 0)
(-4.02138e-05 -0.00419071 0)
(-4.43849e-05 -0.00431947 0)
(-4.86636e-05 -0.00443392 0)
(-5.31039e-05 -0.00453404 0)
(-5.75582e-05 -0.00461983 0)
(-6.12838e-05 -0.00469126 0)
(-6.2859e-05 -0.00474836 0)
(-6.45672e-05 -0.00479106 0)
(-8.58176e-05 -0.00481953 0)
(-0.000156486 -0.00483417 0)
(-0.000259591 -0.00483673 0)
(-0.000355232 -0.00483445 0)
(-0.000451981 -0.00482239 0)
(-0.000332231 -0.00481304 0)
(-0.000323889 -0.00480609 0)
(-0.00033264 -0.00480078 0)
(-0.000340569 -0.00479649 0)
(-0.000345561 -0.00479278 0)
(-0.000349882 -0.00478931 0)
(-0.000354393 -0.00478581 0)
(-0.000359136 -0.00478206 0)
(-0.000364021 -0.00477789 0)
(-0.000369008 -0.00477318 0)
(-0.000374088 -0.00476784 0)
(-0.000379257 -0.00476184 0)
(-0.00038451 -0.00475514 0)
(-0.000389837 -0.00474775 0)
(-0.00039523 -0.00473965 0)
(-0.000400681 -0.00473084 0)
(-0.000406182 -0.00472131 0)
(-0.000411725 -0.00471104 0)
(-0.000417304 -0.00470005 0)
(-0.00042291 -0.00468833 0)
(-0.000428537 -0.00467588 0)
(-3.53085e-08 -0.000182652 0)
(-3.60308e-07 -0.000534141 0)
(-1.01545e-06 -0.000871776 0)
(-1.98794e-06 -0.00119552 0)
(-3.25676e-06 -0.00150533 0)
(-4.80789e-06 -0.00180119 0)
(-6.6283e-06 -0.00208306 0)
(-8.70948e-06 -0.00235094 0)
(-1.1039e-05 -0.0026048 0)
(-1.36103e-05 -0.00284463 0)
(-1.64102e-05 -0.00307042 0)
(-1.94345e-05 -0.00328216 0)
(-2.26687e-05 -0.00347985 0)
(-2.6111e-05 -0.00366349 0)
(-2.97442e-05 -0.00383309 0)
(-3.35688e-05 -0.00398865 0)
(-3.7562e-05 -0.00413018 0)
(-4.1733e-05 -0.0042577 0)
(-4.60768e-05 -0.00437123 0)
(-5.06437e-05 -0.00447079 0)
(-5.53065e-05 -0.00455641 0)
(-5.9511e-05 -0.00462812 0)
(-6.22714e-05 -0.00468597 0)
(-6.59488e-05 -0.00473008 0)
(-8.48651e-05 -0.00476055 0)
(-0.000144206 -0.00477863 0)
(-0.000237705 -0.00478155 0)
(-0.000349464 -0.00478341 0)
(-0.000423487 -0.00476788 0)
(-0.000314662 -0.0047584 0)
(-0.000308927 -0.00475118 0)
(-0.000318823 -0.00474533 0)
(-0.000327533 -0.0047403 0)
(-0.000333377 -0.00473573 0)
(-0.000338512 -0.00473132 0)
(-0.000343734 -0.00472683 0)
(-0.000349081 -0.00472206 0)
(-0.000354474 -0.00471687 0)
(-0.000359887 -0.00471114 0)
(-0.000365318 -0.00470481 0)
(-0.000370773 -0.00469784 0)
(-0.00037625 -0.00469025 0)
(-0.000381748 -0.00468202 0)
(-0.000387264 -0.00467316 0)
(-0.000392794 -0.00466366 0)
(-0.000398335 -0.00465352 0)
(-0.000403883 -0.00464272 0)
(-0.000409435 -0.00463127 0)
(-0.000414985 -0.00461917 0)
(-0.00042053 -0.00460643 0)
(-3.10838e-09 -0.000181608 0)
(-9.40014e-08 -0.000530897 0)
(-3.11644e-07 -0.00086624 0)
(-6.69148e-07 -0.00118762 0)
(-1.17373e-06 -0.00149501 0)
(-1.83432e-06 -0.00178841 0)
(-2.65687e-06 -0.00206779 0)
(-3.65044e-06 -0.00233315 0)
(-4.8189e-06 -0.00258447 0)
(-6.17135e-06 -0.00282173 0)
(-7.7096e-06 -0.00304494 0)
(-9.44385e-06 -0.00325409 0)
(-1.13739e-05 -0.00344916 0)
(-1.35122e-05 -0.00363016 0)
(-1.58561e-05 -0.00379708 0)
(-1.84211e-05 -0.00394991 0)
(-2.12004e-05 -0.00408866 0)
(-2.42203e-05 -0.00421334 0)
(-2.74914e-05 -0.00432393 0)
(-3.10688e-05 -0.00442044 0)
(-3.4833e-05 -0.00450288 0)
(-3.83129e-05 -0.00457125 0)
(-4.08522e-05 -0.00462555 0)
(-4.53201e-05 -0.00466583 0)
(-6.37722e-05 -0.00469222 0)
(-0.000118502 -0.00470715 0)
(-0.000213221 -0.00470861 0)
(-0.000366684 -0.00470934 0)
(-0.000352243 -0.00468973 0)
(-0.000287622 -0.00467943 0)
(-0.000286323 -0.0046723 0)
(-0.000296397 -0.00466693 0)
(-0.000305128 -0.00466252 0)
(-0.000311873 -0.00465864 0)
(-0.000318158 -0.00465495 0)
(-0.000324515 -0.00465115 0)
(-0.000330946 -0.00464703 0)
(-0.000337384 -0.00464241 0)
(-0.000343804 -0.00463718 0)
(-0.000350201 -0.00463129 0)
(-0.000356573 -0.00462474 0)
(-0.000362916 -0.00461754 0)
(-0.000369224 -0.00460972 0)
(-0.000375494 -0.00460125 0)
(-0.000381722 -0.00459216 0)
(-0.000387905 -0.00458243 0)
(-0.000394038 -0.00457207 0)
(-0.000400119 -0.00456108 0)
(-0.000406145 -0.00454946 0)
(-0.000412113 -0.00453723 0)
(-8.14849e-09 -0.000181324 0)
(-7.98026e-08 -0.000529825 0)
(-2.4026e-07 -0.000864177 0)
(-5.00953e-07 -0.00118438 0)
(-8.72402e-07 -0.00149042 0)
(-1.36844e-06 -0.0017823 0)
(-1.9993e-06 -0.00206002 0)
(-2.77948e-06 -0.00232357 0)
(-3.71728e-06 -0.00257294 0)
(-4.82795e-06 -0.00280814 0)
(-6.11773e-06 -0.00302916 0)
(-7.60344e-06 -0.00323599 0)
(-9.28894e-06 -0.00342863 0)
(-1.11936e-05 -0.00360708 0)
(-1.3318e-05 -0.00377133 0)
(-1.56847e-05 -0.00392139 0)
(-1.82895e-05 -0.00405724 0)
(-2.1167e-05 -0.00417889 0)
(-2.43276e-05 -0.00428632 0)
(-2.78218e-05 -0.00437955 0)
(-3.1496e-05 -0.00445856 0)
(-3.48974e-05 -0.00452335 0)
(-3.76534e-05 -0.0045739 0)
(-4.34969e-05 -0.00461027 0)
(-6.36957e-05 -0.00463266 0)
(-0.000116409 -0.0046443 0)
(-0.000214734 -0.00464418 0)
(-0.000417173 -0.00463935 0)
(-0.000297767 -0.00461811 0)
(-0.000277502 -0.0046045 0)
(-0.000283993 -0.00459459 0)
(-0.000293886 -0.00458697 0)
(-0.000301077 -0.00458077 0)
(-0.000307125 -0.0045755 0)
(-0.000313097 -0.00457075 0)
(-0.000319192 -0.00456621 0)
(-0.000325345 -0.00456158 0)
(-0.000331512 -0.00455667 0)
(-0.000337679 -0.00455132 0)
(-0.000343843 -0.00454548 0)
(-0.000349999 -0.00453915 0)
(-0.00035614 -0.0045323 0)
(-0.000362258 -0.00452495 0)
(-0.000368347 -0.00451706 0)
(-0.000374401 -0.00450862 0)
(-0.000380414 -0.00449962 0)
(-0.00038638 -0.00449005 0)
(-0.000392296 -0.00447991 0)
(-0.000398155 -0.0044692 0)
(-0.000403953 -0.00445791 0)
(1.20953e-09 -0.000180819 0)
(-2.61646e-08 -0.00052817 0)
(-1.13078e-07 -0.000861229 0)
(-2.77933e-07 -0.00117999 0)
(-5.36883e-07 -0.00148444 0)
(-9.0755e-07 -0.00177459 0)
(-1.40376e-06 -0.00205043 0)
(-2.04279e-06 -0.00231194 0)
(-2.83629e-06 -0.00255914 0)
(-3.80208e-06 -0.002792 0)
(-4.94978e-06 -0.00301054 0)
(-6.299e-06 -0.00321474 0)
(-7.85727e-06 -0.00340459 0)
(-9.6475e-06 -0.0035801 0)
(-1.16743e-05 -0.00374125 0)
(-1.39651e-05 -0.00388805 0)
(-1.65216e-05 -0.00402048 0)
(-1.93881e-05 -0.00413854 0)
(-2.25838e-05 -0.00424223 0)
(-2.61524e-05 -0.00433153 0)
(-2.98768e-05 -0.00440646 0)
(-3.32634e-05 -0.00446696 0)
(-3.63802e-05 -0.00451302 0)
(-4.48414e-05 -0.00454469 0)
(-7.08417e-05 -0.00456256 0)
(-0.000124712 -0.00457087 0)
(-0.000226976 -0.00456905 0)
(-0.000436943 -0.00455582 0)
(-0.000283512 -0.00454076 0)
(-0.000277752 -0.00452981 0)
(-0.000289661 -0.00452166 0)
(-0.000300631 -0.00451535 0)
(-0.000307931 -0.00451022 0)
(-0.000314263 -0.00450578 0)
(-0.000320621 -0.00450165 0)
(-0.000327061 -0.00449755 0)
(-0.000333484 -0.00449321 0)
(-0.000339854 -0.00448848 0)
(-0.00034617 -0.00448325 0)
(-0.000352435 -0.00447752 0)
(-0.000358646 -0.00447131 0)
(-0.0003648 -0.00446463 0)
(-0.000370892 -0.00445749 0)
(-0.000376917 -0.00444987 0)
(-0.000382872 -0.00444176 0)
(-0.000388754 -0.00443315 0)
(-0.000394558 -0.00442403 0)
(-0.000400281 -0.00441442 0)
(-0.00040592 -0.00440429 0)
(-0.000411471 -0.00439365 0)
(-6.32199e-09 -0.000180976 0)
(-1.15801e-07 -0.000528265 0)
(-3.65541e-07 -0.00086092 0)
(-7.66134e-07 -0.00117897 0)
(-1.32086e-06 -0.00148244 0)
(-2.03754e-06 -0.00177136 0)
(-2.91811e-06 -0.00204572 0)
(-3.97174e-06 -0.00230555 0)
(-5.19728e-06 -0.00255085 0)
(-6.60485e-06 -0.00278161 0)
(-8.18979e-06 -0.00299784 0)
(-9.96427e-06 -0.00319953 0)
(-1.19197e-05 -0.00338667 0)
(-1.40714e-05 -0.00355925 0)
(-1.64051e-05 -0.00371724 0)
(-1.89397e-05 -0.00386062 0)
(-2.16566e-05 -0.00398937 0)
(-2.45998e-05 -0.00410346 0)
(-2.77771e-05 -0.00420283 0)
(-3.11907e-05 -0.00428746 0)
(-3.43801e-05 -0.00435727 0)
(-3.64921e-05 -0.00441219 0)
(-3.83578e-05 -0.00445202 0)
(-5.11047e-05 -0.00447687 0)
(-9.46587e-05 -0.00448785 0)
(-0.000164905 -0.0044907 0)
(-0.000271666 -0.00448417 0)
(-0.000452471 -0.00446238 0)
(-0.000297818 -0.00444646 0)
(-0.000292215 -0.00443459 0)
(-0.000303792 -0.00442592 0)
(-0.000313891 -0.00441953 0)
(-0.000320354 -0.00441469 0)
(-0.000325986 -0.00441082 0)
(-0.000331744 -0.00440744 0)
(-0.000337641 -0.00440418 0)
(-0.000343559 -0.00440078 0)
(-0.000349448 -0.00439703 0)
(-0.000355295 -0.00439287 0)
(-0.000361094 -0.0043883 0)
(-0.000366837 -0.00438332 0)
(-0.000372516 -0.00437795 0)
(-0.000378125 -0.00437217 0)
(-0.000383657 -0.00436596 0)
(-0.000389108 -0.0043593 0)
(-0.000394474 -0.00435217 0)
(-0.000399753 -0.00434457 0)
(-0.00040494 -0.00433648 0)
(-0.000410033 -0.00432792 0)
(-0.000415028 -0.00431887 0)
(-5.07419e-08 -0.000179278 0)
(-4.92242e-07 -0.000523289 0)
(-1.36621e-06 -0.000852783 0)
(-2.64465e-06 -0.00116778 0)
(-4.29454e-06 -0.00146831 0)
(-6.28676e-06 -0.00175438 0)
(-8.60284e-06 -0.00202601 0)
(-1.12201e-05 -0.00228321 0)
(-1.41239e-05 -0.00252598 0)
(-1.72912e-05 -0.00275435 0)
(-2.07096e-05 -0.0029683 0)
(-2.43543e-05 -0.00316785 0)
(-2.82144e-05 -0.00335299 0)
(-3.22607e-05 -0.00352373 0)
(-3.64827e-05 -0.00368007 0)
(-4.08404e-05 -0.00382201 0)
(-4.53311e-05 -0.00394952 0)
(-4.99396e-05 -0.00406263 0)
(-5.47187e-05 -0.00416131 0)
(-5.9524e-05 -0.00424556 0)
(-6.34856e-05 -0.00431535 0)
(-6.49678e-05 -0.00437069 0)
(-6.63504e-05 -0.00441149 0)
(-8.95888e-05 -0.00443791 0)
(-0.000169908 -0.00445044 0)
(-0.000287813 -0.00445135 0)
(-0.000398048 -0.00444688 0)
(-0.000509149 -0.00442184 0)
(-0.00036895 -0.00440418 0)
(-0.000360131 -0.00439044 0)
(-0.000370124 -0.0043799 0)
(-0.000378805 -0.00437181 0)
(-0.000384003 -0.00436553 0)
(-0.00038835 -0.00436051 0)
(-0.000392797 -0.00435626 0)
(-0.000397367 -0.00435238 0)
(-0.000401946 -0.00434857 0)
(-0.000406483 -0.00434463 0)
(-0.000410965 -0.00434046 0)
(-0.000415387 -0.00433604 0)
(-0.000419744 -0.00433135 0)
(-0.00042403 -0.00432636 0)
(-0.00042824 -0.00432106 0)
(-0.000432369 -0.00431541 0)
(-0.000436415 -0.00430937 0)
(-0.000440373 -0.00430291 0)
(-0.000444243 -0.00429602 0)
(-0.000448021 -0.00428871 0)
(-0.000451703 -0.00428097 0)
(-0.000455286 -0.00427281 0)
(-5.23599e-08 -0.000175113 0)
(-4.94425e-07 -0.000511498 0)
(-1.37621e-06 -0.000833996 0)
(-2.67714e-06 -0.00114256 0)
(-4.37261e-06 -0.00143714 0)
(-6.44237e-06 -0.00171771 0)
(-8.87505e-06 -0.00198425 0)
(-1.16558e-05 -0.00223674 0)
(-1.47765e-05 -0.00247516 0)
(-1.82218e-05 -0.0026995 0)
(-2.19861e-05 -0.00290976 0)
(-2.60526e-05 -0.00310595 0)
(-3.04186e-05 -0.00328807 0)
(-3.50636e-05 -0.00345614 0)
(-3.99873e-05 -0.00361016 0)
(-4.51614e-05 -0.00375018 0)
(-5.05953e-05 -0.00387621 0)
(-5.62775e-05 -0.0039883 0)
(-6.22624e-05 -0.00408649 0)
(-6.8399e-05 -0.00417082 0)
(-7.40618e-05 -0.00424136 0)
(-7.81487e-05 -0.00429819 0)
(-8.32502e-05 -0.00434147 0)
(-0.000105375 -0.00437142 0)
(-0.000172169 -0.00438924 0)
(-0.000275799 -0.00439083 0)
(-0.000401968 -0.00439111 0)
(-0.000488139 -0.00435732 0)
(-0.000365481 -0.0043356 0)
(-0.000359647 -0.00431979 0)
(-0.000371295 -0.00430831 0)
(-0.000381425 -0.00430001 0)
(-0.000388131 -0.00429406 0)
(-0.000393847 -0.00428974 0)
(-0.000399477 -0.00428643 0)
(-0.00040507 -0.00428365 0)
(-0.000410536 -0.00428107 0)
(-0.000415841 -0.00427846 0)
(-0.000420983 -0.0042757 0)
(-0.000425965 -0.00427273 0)
(-0.000430791 -0.00426952 0)
(-0.000435457 -0.00426605 0)
(-0.000439962 -0.0042623 0)
(-0.000444303 -0.00425822 0)
(-0.000448477 -0.00425378 0)
(-0.000452483 -0.00424894 0)
(-0.000456322 -0.00424368 0)
(-0.000459993 -0.00423801 0)
(-0.000463494 -0.00423197 0)
(-0.000466823 -0.00422556 0)
(1.74707e-09 -0.000173575 0)
(-1.07536e-07 -0.000506707 0)
(-4.00571e-07 -0.000825801 0)
(-9.05774e-07 -0.00113083 0)
(-1.64729e-06 -0.00142178 0)
(-2.64295e-06 -0.00169862 0)
(-3.91517e-06 -0.00196135 0)
(-5.47833e-06 -0.00220995 0)
(-7.35484e-06 -0.00244441 0)
(-9.55619e-06 -0.00266474 0)
(-1.21074e-05 -0.00287092 0)
(-1.50185e-05 -0.00306297 0)
(-1.83204e-05 -0.00324088 0)
(-2.20228e-05 -0.00340466 0)
(-2.61655e-05 -0.00355433 0)
(-3.07586e-05 -0.0036899 0)
(-3.58627e-05 -0.00381141 0)
(-4.15141e-05 -0.00391886 0)
(-4.78088e-05 -0.00401232 0)
(-5.46217e-05 -0.0040918 0)
(-6.14798e-05 -0.00415736 0)
(-6.79007e-05 -0.00420905 0)
(-7.78415e-05 -0.00424704 0)
(-0.000104936 -0.00427174 0)
(-0.000169297 -0.0042863 0)
(-0.000273527 -0.00428663 0)
(-0.000454392 -0.00428591 0)
(-0.000443876 -0.0042603 0)
(-0.000373451 -0.00424673 0)
(-0.000375085 -0.00423801 0)
(-0.000389796 -0.00423243 0)
(-0.000402678 -0.00422899 0)
(-0.000412843 -0.00422709 0)
(-0.000422027 -0.00422621 0)
(-0.000430866 -0.00422589 0)
(-0.000439378 -0.00422579 0)
(-0.000447497 -0.0042257 0)
(-0.000455199 -0.00422548 0)
(-0.000462486 -0.00422504 0)
(-0.000469367 -0.00422432 0)
(-0.000475849 -0.00422334 0)
(-0.000481938 -0.00422213 0)
(-0.000487637 -0.00422067 0)
(-0.000492949 -0.00421891 0)
(-0.00049788 -0.00421681 0)
(-0.000502434 -0.00421431 0)
(-0.000506621 -0.00421139 0)
(-0.000510447 -0.00420806 0)
(-0.00051392 -0.00420438 0)
(-0.000517044 -0.00420035 0)
(-1.52624e-08 -0.000173425 0)
(-1.82085e-07 -0.000505616 0)
(-5.65629e-07 -0.000823196 0)
(-1.18431e-06 -0.0011262 0)
(-2.06071e-06 -0.00141467 0)
(-3.20721e-06 -0.00168862 0)
(-4.64714e-06 -0.00194805 0)
(-6.38614e-06 -0.00219299 0)
(-8.44739e-06 -0.00242341 0)
(-1.08289e-05 -0.00263933 0)
(-1.35563e-05 -0.0028407 0)
(-1.662e-05 -0.00302751 0)
(-2.00511e-05 -0.00319971 0)
(-2.38315e-05 -0.00335726 0)
(-2.79998e-05 -0.00350007 0)
(-3.25294e-05 -0.00362811 0)
(-3.74842e-05 -0.00374123 0)
(-4.28542e-05 -0.00383939 0)
(-4.87049e-05 -0.00392237 0)
(-5.47187e-05 -0.00399013 0)
(-6.02969e-05 -0.00404224 0)
(-6.55235e-05 -0.00407844 0)
(-7.73501e-05 -0.0040985 0)
(-0.000111248 -0.00410514 0)
(-0.000175373 -0.00410793 0)
(-0.000277412 -0.00409475 0)
(-0.000489669 -0.00407676 0)
(-0.000365965 -0.00404827 0)
(-0.000350348 -0.00403279 0)
(-0.000363259 -0.00402561 0)
(-0.000379396 -0.00402414 0)
(-0.000392336 -0.00402653 0)
(-0.000403758 -0.00403157 0)
(-0.000414773 -0.00403833 0)
(-0.000425556 -0.0040461 0)
(-0.000436007 -0.00405439 0)
(-0.00044605 -0.00406285 0)
(-0.00045565 -0.00407122 0)
(-0.000464793 -0.00407929 0)
(-0.000473465 -0.00408697 0)
(-0.000481654 -0.00409425 0)
(-0.000489349 -0.00410116 0)
(-0.000496539 -0.00410768 0)
(-0.000503216 -0.00411376 0)
(-0.000509375 -0.00411932 0)
(-0.000515013 -0.00412429 0)
(-0.00052013 -0.00412863 0)
(-0.000524732 -0.00413236 0)
(-0.000528822 -0.00413556 0)
(-0.000532403 -0.00413828 0)
(-6.54906e-08 -0.000171575 0)
(-7.49842e-07 -0.000499916 0)
(-2.14101e-06 -0.000813529 0)
(-4.21359e-06 -0.00111248 0)
(-6.91447e-06 -0.00139684 0)
(-1.02114e-05 -0.00166665 0)
(-1.40666e-05 -0.00192196 0)
(-1.84617e-05 -0.00216281 0)
(-2.33573e-05 -0.00238923 0)
(-2.87384e-05 -0.00260124 0)
(-3.45587e-05 -0.00279886 0)
(-4.08062e-05 -0.00298212 0)
(-4.74224e-05 -0.00315103 0)
(-5.4394e-05 -0.00330558 0)
(-6.164e-05 -0.00344579 0)
(-6.9155e-05 -0.00357164 0)
(-7.68978e-05 -0.00368315 0)
(-8.49839e-05 -0.00378027 0)
(-9.31294e-05 -0.00386303 0)
(-9.97744e-05 -0.00393136 0)
(-0.000101531 -0.00398523 0)
(-0.000102177 -0.00402455 0)
(-0.000142288 -0.00404955 0)
(-0.000295086 -0.00406096 0)
(-0.000514424 -0.00406254 0)
(-0.000663167 -0.00405425 0)
(-0.000847336 -0.00402591 0)
(-0.000633362 -0.0040028 0)
(-0.000612949 -0.00398817 0)
(-0.000623537 -0.00398019 0)
(-0.000633143 -0.00397728 0)
(-0.00063763 -0.00397819 0)
(-0.00064076 -0.00398193 0)
(-0.000644006 -0.00398776 0)
(-0.000647434 -0.0039951 0)
(-0.000650862 -0.00400354 0)
(-0.00065419 -0.00401274 0)
(-0.000657371 -0.00402242 0)
(-0.000660371 -0.00403234 0)
(-0.000663153 -0.00404236 0)
(-0.00066568 -0.00405247 0)
(-0.000667914 -0.00406267 0)
(-0.000669817 -0.0040729 0)
(-0.000671358 -0.00408306 0)
(-0.000672505 -0.00409301 0)
(-0.000673233 -0.00410262 0)
(-0.000673524 -0.00411178 0)
(-0.000673364 -0.00412046 0)
(-0.000672743 -0.00412873 0)
(-0.000671649 -0.00413664 0)
(-1.18711e-07 -0.000163867 0)
(-1.00907e-06 -0.000478079 0)
(-2.76174e-06 -0.000778697 0)
(-5.33993e-06 -0.00106565 0)
(-8.69739e-06 -0.00133889 0)
(-1.281e-05 -0.00159837 0)
(-1.76515e-05 -0.00184408 0)
(-2.32106e-05 -0.002076 0)
(-2.9459e-05 -0.00229413 0)
(-3.63899e-05 -0.00249847 0)
(-4.39707e-05 -0.00268907 0)
(-5.22014e-05 -0.00286592 0)
(-6.10422e-05 -0.00302911 0)
(-7.05009e-05 -0.00317865 0)
(-8.05261e-05 -0.00331466 0)
(-9.11443e-05 -0.00343716 0)
(-0.000102318 -0.00354634 0)
(-0.000114123 -0.00364219 0)
(-0.000126332 -0.00372502 0)
(-0.000138308 -0.00379472 0)
(-0.000149043 -0.00385177 0)
(-0.000162174 -0.00389637 0)
(-0.000194743 -0.00393008 0)
(-0.000271506 -0.00395549 0)
(-0.00038446 -0.00395881 0)
(-0.000509284 -0.00396014 0)
(-0.000647204 -0.00392407 0)
(-0.000508403 -0.0039048 0)
(-0.000508035 -0.00389359 0)
(-0.000530162 -0.00388828 0)
(-0.000551164 -0.00388762 0)
(-0.000567821 -0.00389077 0)
(-0.000582823 -0.00389695 0)
(-0.000597227 -0.00390552 0)
(-0.000611061 -0.00391597 0)
(-0.000624177 -0.00392793 0)
(-0.000636498 -0.00394105 0)
(-0.000647993 -0.00395503 0)
(-0.000658643 -0.00396964 0)
(-0.000668433 -0.00398473 0)
(-0.000677344 -0.0040003 0)
(-0.000685357 -0.00401638 0)
(-0.000692449 -0.00403288 0)
(-0.000698604 -0.00404968 0)
(-0.000703808 -0.00406659 0)
(-0.00070805 -0.00408343 0)
(-0.000711327 -0.0041 0)
(-0.000713647 -0.00411619 0)
(-0.00071502 -0.00413206 0)
(-0.000715463 -0.00414771 0)
(-3.94326e-09 -0.000160774 0)
(-4.94868e-07 -0.000468198 0)
(-1.66961e-06 -0.00076153 0)
(-3.57655e-06 -0.0010408 0)
(-6.22419e-06 -0.00130603 0)
(-9.62397e-06 -0.00155725 0)
(-1.37808e-05 -0.00179447 0)
(-1.87085e-05 -0.00201772 0)
(-2.44062e-05 -0.00222701 0)
(-3.08874e-05 -0.00242235 0)
(-3.81471e-05 -0.00260376 0)
(-4.62028e-05 -0.00277126 0)
(-5.50467e-05 -0.00292484 0)
(-6.47031e-05 -0.00306453 0)
(-7.51673e-05 -0.0031903 0)
(-8.65024e-05 -0.00330219 0)
(-9.87577e-05 -0.00340016 0)
(-0.000111956 -0.00348426 0)
(-0.000125527 -0.00355442 0)
(-0.000138248 -0.00361063 0)
(-0.000151186 -0.00365275 0)
(-0.00017951 -0.00368114 0)
(-0.000254053 -0.00369697 0)
(-0.000361435 -0.00370671 0)
(-0.000471504 -0.00369982 0)
(-0.000627612 -0.00368972 0)
(-0.000654001 -0.00364553 0)
(-0.000579791 -0.00362398 0)
(-0.00058929 -0.00361522 0)
(-0.000616079 -0.00361585 0)
(-0.000642008 -0.00362362 0)
(-0.000664957 -0.00363709 0)
(-0.000686584 -0.00365505 0)
(-0.000707481 -0.00367653 0)
(-0.000727544 -0.00370075 0)
(-0.000746575 -0.00372709 0)
(-0.000764441 -0.00375502 0)
(-0.000781061 -0.00378409 0)
(-0.00079638 -0.00381393 0)
(-0.000810346 -0.00384436 0)
(-0.000822911 -0.00387539 0)
(-0.000834024 -0.0039071 0)
(-0.000843642 -0.00393938 0)
(-0.00085174 -0.003972 0)
(-0.000858305 -0.00400474 0)
(-0.00086332 -0.00403736 0)
(-0.000866766 -0.00406953 0)
(-0.000868634 -0.00410105 0)
(-0.000868939 -0.00413198 0)
(-0.00086778 -0.00416193 0)
(-1.65906e-07 -0.000155845 0)
(-1.44823e-06 -0.000453145 0)
(-4.00216e-06 -0.000736153 0)
(-7.77153e-06 -0.00100496 0)
(-1.27113e-05 -0.00125964 0)
(-1.87657e-05 -0.00150025 0)
(-2.59273e-05 -0.00172685 0)
(-3.41413e-05 -0.00193949 0)
(-4.34104e-05 -0.00213818 0)
(-5.36653e-05 -0.00232297 0)
(-6.49215e-05 -0.00249385 0)
(-7.70924e-05 -0.00265086 0)
(-9.02097e-05 -0.00279393 0)
(-0.000104163 -0.00292311 0)
(-0.000119014 -0.0030383 0)
(-0.000134658 -0.00313953 0)
(-0.000151233 -0.00322665 0)
(-0.000168426 -0.00329971 0)
(-0.000185561 -0.00335833 0)
(-0.000201192 -0.00340243 0)
(-0.00021887 -0.00343181 0)
(-0.000258569 -0.00344923 0)
(-0.000350833 -0.00346056 0)
(-0.000480956 -0.00345553 0)
(-0.000603331 -0.00343951 0)
(-0.000769602 -0.00339206 0)
(-0.000641732 -0.00333063 0)
(-0.000638909 -0.00329387 0)
(-0.000666348 -0.0032749 0)
(-0.000695214 -0.00327005 0)
(-0.000719547 -0.00327681 0)
(-0.000741407 -0.00329327 0)
(-0.000761872 -0.0033178 0)
(-0.000780966 -0.00334898 0)
(-0.000798469 -0.00338559 0)
(-0.000814233 -0.0034266 0)
(-0.000828211 -0.00347106 0)
(-0.000840432 -0.00351792 0)
(-0.000850883 -0.00356676 0)
(-0.000859472 -0.00361745 0)
(-0.000866133 -0.00366971 0)
(-0.000870829 -0.00372387 0)
(-0.000873558 -0.0037795 0)
(-0.000874465 -0.00383536 0)
(-0.00087374 -0.00389149 0)
(-0.000871411 -0.00394832 0)
(-0.000867373 -0.00400514 0)
(-0.000861486 -0.00406174 0)
(-0.000853625 -0.00411838 0)
(-0.000844117 -0.00416958 0)
(-1.36855e-07 -0.000145054 0)
(-1.6896e-06 -0.000421775 0)
(-4.92723e-06 -0.00068514 0)
(-9.83012e-06 -0.000935166 0)
(-1.63028e-05 -0.00117189 0)
(-2.42976e-05 -0.00139532 0)
(-3.37346e-05 -0.0016055 0)
(-4.45906e-05 -0.00180244 0)
(-5.67686e-05 -0.0019862 0)
(-7.02558e-05 -0.00215678 0)
(-8.49294e-05 -0.00231422 0)
(-0.000100791 -0.00245852 0)
(-0.00011768 -0.00258974 0)
(-0.000135629 -0.00270784 0)
(-0.000154488 -0.0028129 0)
(-0.000174438 -0.00290487 0)
(-0.000195094 -0.00298382 0)
(-0.000215206 -0.0030496 0)
(-0.000231472 -0.00310222 0)
(-0.000247157 -0.00314159 0)
(-0.000297223 -0.003169 0)
(-0.000452603 -0.00318689 0)
(-0.000657638 -0.00319848 0)
(-0.000788616 -0.00318975 0)
(-0.00092325 -0.00317437 0)
(-0.000952371 -0.00310762 0)
(-0.000869275 -0.00307038 0)
(-0.000873025 -0.00305629 0)
(-0.000894169 -0.0030607 0)
(-0.000911958 -0.00308033 0)
(-0.000923523 -0.00311282 0)
(-0.0009305 -0.0031561 0)
(-0.000933468 -0.00320829 0)
(-0.000932271 -0.00326775 0)
(-0.00092669 -0.00333305 0)
(-0.000916664 -0.00340275 0)
(-0.000902305 -0.00347473 0)
(-0.000884327 -0.00354243 0)
(-0.000862883 -0.00361759 0)
(-0.00083751 -0.00369492 0)
(-0.000808244 -0.00377296 0)
(-0.000775195 -0.00385309 0)
(-0.000738643 -0.00393311 0)
(-0.000699511 -0.00400659 0)
(-0.000658835 -0.00407674 0)
(-0.000617035 -0.00414778 0)
(-0.000573937 -0.00422267 0)
(-0.000528964 -0.00430078 0)
(-0.000481565 -0.00437936 0)
(-0.000431609 -0.00444349 0)
(-2.4105e-07 -0.0001342 0)
(-2.49095e-06 -0.00038936 0)
(-7.08751e-06 -0.000631417 0)
(-1.39731e-05 -0.000860501 0)
(-2.30248e-05 -0.00107673 0)
(-3.41634e-05 -0.00128021 0)
(-4.72994e-05 -0.00147106 0)
(-6.23748e-05 -0.00164937 0)
(-7.92896e-05 -0.00181524 0)
(-9.79861e-05 -0.00196876 0)
(-0.000118353 -0.00211003 0)
(-0.000140334 -0.00223911 0)
(-0.000163812 -0.00235613 0)
(-0.000188764 -0.00246112 0)
(-0.000215123 -0.00255424 0)
(-0.000242833 -0.0026355 0)
(-0.00027119 -0.00270505 0)
(-0.00029872 -0.00276276 0)
(-0.000325926 -0.00280899 0)
(-0.000367344 -0.00284482 0)
(-0.00045871 -0.00287319 0)
(-0.000586018 -0.00289646 0)
(-0.000713546 -0.00289821 0)
(-0.000852336 -0.0028876 0)
(-0.00101843 -0.00281991 0)
(-0.000875932 -0.00275587 0)
(-0.000847415 -0.00273972 0)
(-0.00084027 -0.00276068 0)
(-0.000823271 -0.00281172 0)
(-0.000790452 -0.00288778 0)
(-0.000744607 -0.00298491 0)
(-0.000687617 -0.00309988 0)
(-0.000620189 -0.00323015 0)
(-0.000542576 -0.00337397 0)
(-0.000455218 -0.00352305 0)
(-0.00035877 -0.00367482 0)
(-0.000253184 -0.00382594 0)
(-0.000139234 -0.00395542 0)
(-1.78599e-05 -0.00409741 0)
(0.000110856 -0.00424744 0)
(0.000246237 -0.00439854 0)
(0.000387285 -0.00454727 0)
(0.000533187 -0.00468819 0)
(0.000681737 -0.00478915 0)
(0.000831215 -0.00488178 0)
(0.000981325 -0.00497254 0)
(0.00113123 -0.00506941 0)
(0.00127965 -0.0051758 0)
(0.00142587 -0.00529593 0)
(0.00157002 -0.00540508 0)
(-3.49728e-07 -0.000115535 0)
(-3.8114e-06 -0.000334533 0)
(-1.08992e-05 -0.000541639 0)
(-2.14742e-05 -0.000737011 0)
(-3.53367e-05 -0.000920791 0)
(-5.22748e-05 -0.0010931 0)
(-7.21705e-05 -0.00125406 0)
(-9.48303e-05 -0.00140376 0)
(-0.000120154 -0.00154228 0)
(-0.000147929 -0.00166969 0)
(-0.000178071 -0.00178605 0)
(-0.000210355 -0.00189137 0)
(-0.000244744 -0.0019857 0)
(-0.000281053 -0.00206901 0)
(-0.000319248 -0.00214132 0)
(-0.000358577 -0.0022025 0)
(-0.000397696 -0.00225239 0)
(-0.000436661 -0.00229095 0)
(-0.000488157 -0.00231939 0)
(-0.000585629 -0.00234082 0)
(-0.000721459 -0.00235551 0)
(-0.000864781 -0.00236145 0)
(-0.00102013 -0.00235658 0)
(-0.00121295 -0.00243781 0)
(-0.00104703 -0.00268035 0)
(-0.000954758 -0.00295507 0)
(-0.00088004 -0.00324693 0)
(-0.000782836 -0.00354981 0)
(-0.000654473 -0.00385981 0)
(-0.000498516 -0.00417372 0)
(-0.000318741 -0.00448844 0)
(-0.00011786 -0.00480118 0)
(0.000101651 -0.00510951 0)
(0.000336777 -0.00541162 0)
(0.000585374 -0.00570158 0)
(0.000843014 -0.00598324 0)
(0.00110969 -0.00627672 0)
(0.00138677 -0.00656211 0)
(0.00167098 -0.00682977 0)
(0.00196055 -0.00708369 0)
(0.00225151 -0.00730889 0)
(0.00254248 -0.00749538 0)
(0.00282799 -0.00766002 0)
(0.00311045 -0.00778044 0)
(0.00339277 -0.00787753 0)
(0.00366957 -0.0079554 0)
(0.0039409 -0.00801692 0)
(0.00420433 -0.00805023 0)
(0.00445553 -0.00805765 0)
(0.00469411 -0.00805648 0)
(-0.000441573 -0.00491462 0)
(-0.000448587 -0.00489879 0)
(-0.000455539 -0.0048821 0)
(-0.000462427 -0.00486457 0)
(-0.000469248 -0.00484621 0)
(-0.000476003 -0.00482705 0)
(-0.000482689 -0.00480709 0)
(-0.000489304 -0.00478635 0)
(-0.000495846 -0.00476486 0)
(-0.000502315 -0.00474262 0)
(-0.000508708 -0.00471967 0)