/*--------------------------------*- C++ -*----------------------------------*\
| =========                 |                                                 |
| \\      /  F ield         | OpenFOAM: The Open Source CFD Toolbox           |
|  \\    /   O peration     | Version:  2.4.0                                 |
|   \\  /    A nd           | Web:      www.OpenFOAM.org                      |
|    \\/     M anipulation  |                                                 |
\*---------------------------------------------------------------------------*/
FoamFile
{
    version     2.0;
    format      ascii;
    class       volScalarField;
    location    "4.7";
    object      H;
}
// * * * * * * * * * * * * * * * * * * * * * * * * * * * * * * * * * * * * * //

dimensions      [0 2 -2 0 0 0 0];

internalField   nonuniform List<scalar> 
500
(
-12002.7
-12002.7
-12002.6
-12002.7
-12002.7
-11545.6
-11545.5
-11545.4
-11545.5
-11545.6
-11083.3
-11083.2
-11083
-11083.2
-11083.3
-10615.9
-10615.7
-10615.5
-10615.7
-10615.9
-10143.2
-10142.9
-10142.6
-10142.9
-10143.2
-9665.14
-9664.79
-9664.46
-9664.82
-9665.13
-9181.68
-9181.26
-9180.87
-9181.3
-9181.66
-8692.72
-8692.24
-8691.78
-8692.29
-8692.71
-8198.2
-8197.64
-8197.12
-8197.7
-8198.18
-7698.02
-7697.39
-7696.8
-7697.45
-7698
-7192.11
-7191.39
-7190.74
-7191.47
-7192.08
-6680.37
-6679.58
-6678.85
-6679.66
-6680.34
-6162.74
-6161.86
-6161.05
-6161.95
-6162.7
-5639.11
-5638.14
-5637.25
-5638.24
-5639.07
-5109.39
-5108.33
-5107.36
-5108.44
-5109.35
-4573.51
-4572.34
-4571.28
-4572.46
-4573.46
-4031.36
-4030.08
-4028.93
-4030.21
-4031.31
-3482.85
-3481.46
-3480.2
-3481.6
-3482.79
-2927.88
-2926.36
-2925
-2926.52
-2927.82
-2366.36
-2364.7
-2363.23
-2364.87
-2366.29
-1798.18
-1796.38
-1794.78
-1796.56
-1798.11
-1223.26
-1221.29
-1219.55
-1221.48
-1223.18
-641.472
-639.323
-637.438
-639.534
-641.384
-11.6974
-11.5885
-11.4948
-11.5991
-11.6929
-8.69379
-8.61302
-8.5436
-8.62083
-8.69045
-8.65957
-8.58054
-8.51291
-8.58813
-8.65635
-8.62401
-8.5467
-8.48083
-8.55407
-8.62091
-8.58706
-8.51146
-8.44732
-8.51861
-8.58409
-8.54869
-8.47478
-8.41234
-8.48172
-8.54583
-8.50885
-8.43661
-8.37585
-8.44335
-8.50611
-8.4675
-8.39691
-8.3378
-8.40345
-8.46487
-8.42459
-8.35564
-8.29815
-8.36198
-8.42207
-8.38008
-8.31275
-8.25685
-8.31889
-8.37767
-8.33392
-8.26819
-8.21386
-8.27415
-8.33162
-8.28608
-8.22193
-8.16913
-8.2277
-8.28388
-8.23649
-8.17391
-8.12261
-8.1795
-8.23439
-8.18513
-8.12409
-8.07427
-8.1295
-8.18312
-8.13193
-8.07241
-8.02404
-8.07765
-8.13001
-8.07685
-8.01884
-7.97189
-8.02391
-8.07503
-8.01984
-7.96332
-7.91777
-7.96822
-8.01811
-7.96086
-7.90581
-7.86163
-7.91055
-7.95922
-7.89986
-7.84626
-7.80342
-7.85084
-7.8983
-7.83679
-7.78462
-7.74309
-7.78904
-7.83531
-7.7716
-7.72084
-7.6806
-7.72511
-7.7702
-7.70425
-7.65487
-7.61589
-7.659
-7.70292
-7.63468
-7.58667
-7.54893
-7.59066
-7.63342
-7.56285
-7.51619
-7.47966
-7.52004
-7.56167
-7.48871
-7.44339
-7.40804
-7.4471
-7.4876
-7.41222
-7.36821
-7.33402
-7.37179
-7.41117
-7.33333
-7.29061
-7.25756
-7.29406
-7.33235
-7.252
-7.21055
-7.17861
-7.21387
-7.25107
-7.16817
-7.12798
-7.09712
-7.13118
-7.16731
-7.08182
-7.04286
-7.01306
-7.04594
-7.08102
-6.9929
-6.95514
-6.92639
-6.95811
-6.99214
-6.90136
-6.8648
-6.83705
-6.86765
-6.90066
-6.80717
-6.77178
-6.74503
-6.77453
-6.80652
-6.71029
-6.67606
-6.65027
-6.6787
-6.70969
-6.61069
-6.57759
-6.55275
-6.58013
-6.61014
-6.50833
-6.47635
-6.45243
-6.47878
-6.50782
-6.40319
-6.3723
-6.34928
-6.37463
-6.40272
-6.29523
-6.26541
-6.24328
-6.26765
-6.2948
-6.18443
-6.15567
-6.13439
-6.15782
-6.18403
-6.07076
-6.04304
-6.0226
-6.0451
-6.0704
-5.95421
-5.92751
-5.90789
-5.92948
-5.95389
-5.83476
-5.80906
-5.79024
-5.81095
-5.83447
-5.7124
-5.68768
-5.66964
-5.68948
-5.71214
-5.58711
-5.56336
-5.54608
-5.56508
-5.58688
-5.4589
-5.43609
-5.41955
-5.43774
-5.4587
-5.32776
-5.30588
-5.29007
-5.30745
-5.32759
-5.1937
-5.17273
-5.15762
-5.17423
-5.19355
-5.05673
-5.03665
-5.02222
-5.03808
-5.05659
-4.91685
-4.89765
-4.88389
-4.89901
-4.91674
-4.77409
-4.75575
-4.74265
-4.75704
-4.774
-4.62848
-4.61098
-4.59851
-4.6122
-4.6284
-4.48004
-4.46336
-4.45152
-4.46453
-4.47998
-4.32882
-4.31295
-4.30171
-4.31405
-4.32877
-4.17485
-4.15977
-4.14912
-4.16082
-4.17482
-4.01819
-4.00389
-3.99381
-4.00487
-4.01816
-3.85889
-3.84535
-3.83584
-3.84628
-3.85888
-3.69702
-3.68423
-3.67527
-3.68511
-3.69702
-3.53265
-3.5206
-3.51216
-3.52142
-3.53265
-3.36586
-3.35453
-3.34662
-3.3553
-3.36587
-3.19675
-3.18612
-3.17872
-3.18684
-3.19676
-3.0254
-3.01546
-3.00856
-3.01613
-3.02542
-2.85192
-2.84266
-2.83624
-2.84328
-2.85194
-2.67642
-2.66783
-2.66189
-2.66841
-2.67645
-2.49904
-2.4911
-2.48562
-2.49164
-2.49907
-2.31989
-2.3126
-2.30758
-2.31309
-2.31992
-2.13913
-2.13247
-2.12789
-2.13292
-2.13916
-1.9569
-1.95087
-1.94672
-1.95127
-1.95693
-1.77336
-1.76794
-1.76422
-1.7683
-1.77339
-1.58869
-1.58387
-1.58056
-1.58419
-1.58871
-1.40305
-1.39883
-1.39593
-1.39911
-1.40308
-1.21665
-1.21301
-1.21052
-1.21325
-1.21667
-1.02967
-1.02661
-1.02451
-1.02681
-1.02969
-0.842333
-0.83984
-0.838136
-0.840005
-0.842351
-0.654849
-0.652919
-0.651601
-0.653046
-0.654863
-0.467446
-0.466073
-0.465135
-0.466163
-0.467456
-0.280359
-0.279538
-0.278977
-0.279592
-0.280365
-0.0938333
-0.0935586
-0.0933712
-0.0935767
-0.0938354
)
;

boundaryField
{
    BotWall
    {
        type            zeroGradient;
    }
    FreeStream
    {
        type            zeroGradient;
    }
    FrontNBack
    {
        type            empty;
    }
    LeftSide
    {
        type            symmetryPlane;
    }
    RightSide
    {
        type            symmetryPlane;
    }
}


// ************************************************************************* //
