/*--------------------------------*- C++ -*----------------------------------*\
| =========                 |                                                 |
| \\      /  F ield         | OpenFOAM: The Open Source CFD Toolbox           |
|  \\    /   O peration     | Version:  2.4.0                                 |
|   \\  /    A nd           | Web:      www.OpenFOAM.org                      |
|    \\/     M anipulation  |                                                 |
\*---------------------------------------------------------------------------*/
FoamFile
{
    version     2.0;
    format      ascii;
    class       volScalarField;
    location    "4.7";
    object      p;
}
// * * * * * * * * * * * * * * * * * * * * * * * * * * * * * * * * * * * * * //

dimensions      [1 -1 -2 0 0 0 0];

internalField   nonuniform List<scalar> 
500
(
0.773196
0.777484
0.779449
0.777184
0.773395
0.743385
0.747683
0.749657
0.747383
0.743584
0.713234
0.717544
0.719527
0.717242
0.713433
0.682753
0.687076
0.68907
0.686773
0.682952
0.651924
0.656261
0.658266
0.655956
0.652123
0.620757
0.62511
0.627126
0.624803
0.620957
0.589235
0.593603
0.595632
0.593296
0.589435
0.557368
0.561754
0.563796
0.561445
0.55757
0.525138
0.529541
0.531597
0.529231
0.52534
0.492553
0.496975
0.499046
0.496664
0.492756
0.459585
0.464028
0.466113
0.463714
0.459789
0.426253
0.430717
0.432817
0.430402
0.426457
0.392602
0.397089
0.399205
0.396772
0.392808
0.358825
0.363336
0.365472
0.363017
0.359031
0.324799
0.329339
0.331497
0.329018
0.325006
0.28877
0.293335
0.295504
0.293012
0.288978
0.246318
0.250857
0.253007
0.250536
0.246526
0.199913
0.204375
0.206447
0.2041
0.200118
0.194642
0.199309
0.201415
0.198967
0.194853
0.341281
0.34724
0.350419
0.346897
0.341548
0.574393
0.58329
0.588963
0.582472
0.574787
-0.25381
-0.247357
-0.243443
-0.247982
-0.253509
-4.9293
-4.9547
-4.9772
-4.95222
-4.93032
-11.6479
-11.7392
-11.8203
-11.7301
-11.6517
-0.0174701
-0.0174675
-0.0174653
-0.0174677
-0.01747
-0.0133144
-0.0133161
-0.0133175
-0.0133159
-0.0133144
-0.0146419
-0.0146421
-0.0146422
-0.014642
-0.0146419
-0.0156852
-0.0156851
-0.0156849
-0.0156851
-0.0156852
-0.0164125
-0.0164123
-0.0164123
-0.0164124
-0.0164124
-0.0170617
-0.0170616
-0.0170616
-0.0170616
-0.0170617
-0.017728
-0.0177279
-0.0177279
-0.0177279
-0.017728
-0.0184145
-0.0184144
-0.0184144
-0.0184144
-0.0184145
-0.0191119
-0.0191118
-0.0191118
-0.0191118
-0.0191119
-0.0198166
-0.0198166
-0.0198165
-0.0198166
-0.0198166
-0.0205287
-0.0205287
-0.0205287
-0.0205287
-0.0205287
-0.0212487
-0.0212486
-0.0212486
-0.0212486
-0.0212487
-0.0219767
-0.0219766
-0.0219766
-0.0219766
-0.0219767
-0.0227128
-0.0227128
-0.0227127
-0.0227128
-0.0227128
-0.0234572
-0.0234571
-0.0234571
-0.0234571
-0.0234572
-0.0242098
-0.0242098
-0.0242097
-0.0242098
-0.0242098
-0.0249709
-0.0249708
-0.0249708
-0.0249708
-0.0249709
-0.0257404
-0.0257404
-0.0257404
-0.0257404
-0.0257404
-0.0265186
-0.0265185
-0.0265185
-0.0265185
-0.0265186
-0.0273054
-0.0273053
-0.0273053
-0.0273053
-0.0273054
-0.028101
-0.0281009
-0.0281009
-0.0281009
-0.028101
-0.0289055
-0.0289054
-0.0289054
-0.0289054
-0.0289055
-0.0297189
-0.0297189
-0.0297188
-0.0297189
-0.0297189
-0.0305414
-0.0305414
-0.0305414
-0.0305414
-0.0305414
-0.0313732
-0.0313731
-0.0313731
-0.0313731
-0.0313731
-0.0322141
-0.0322141
-0.0322141
-0.0322141
-0.0322141
-0.0330645
-0.0330645
-0.0330645
-0.0330645
-0.0330645
-0.0339244
-0.0339244
-0.0339243
-0.0339244
-0.0339244
-0.0347938
-0.0347938
-0.0347938
-0.0347938
-0.0347938
-0.035673
-0.035673
-0.035673
-0.035673
-0.035673
-0.036562
-0.036562
-0.0365619
-0.036562
-0.036562
-0.0374609
-0.0374608
-0.0374608
-0.0374608
-0.0374609
-0.0383698
-0.0383698
-0.0383698
-0.0383698
-0.0383698
-0.0392889
-0.0392888
-0.0392888
-0.0392888
-0.0392889
-0.0402182
-0.0402182
-0.0402181
-0.0402182
-0.0402182
-0.0411579
-0.0411579
-0.0411578
-0.0411579
-0.0411579
-0.0421081
-0.042108
-0.042108
-0.042108
-0.0421081
-0.0430688
-0.0430688
-0.0430688
-0.0430688
-0.0430688
-0.0440403
-0.0440403
-0.0440403
-0.0440403
-0.0440403
-0.0450227
-0.0450227
-0.0450226
-0.0450227
-0.0450227
-0.046016
-0.046016
-0.046016
-0.046016
-0.046016
-0.0470204
-0.0470204
-0.0470203
-0.0470204
-0.0470204
-0.048036
-0.048036
-0.0480359
-0.048036
-0.048036
-0.0490629
-0.0490629
-0.0490629
-0.0490629
-0.0490629
-0.0501013
-0.0501013
-0.0501013
-0.0501013
-0.0501013
-0.0511513
-0.0511513
-0.0511512
-0.0511513
-0.0511513
-0.052213
-0.0522129
-0.0522129
-0.052213
-0.052213
-0.0532865
-0.0532865
-0.0532865
-0.0532865
-0.0532865
-0.054372
-0.054372
-0.054372
-0.054372
-0.054372
-0.0554697
-0.0554696
-0.0554696
-0.0554696
-0.0554697
-0.0565795
-0.0565795
-0.0565795
-0.0565795
-0.0565795
-0.0577018
-0.0577018
-0.0577018
-0.0577018
-0.0577018
-0.0588366
-0.0588366
-0.0588366
-0.0588366
-0.0588366
-0.0599841
-0.059984
-0.059984
-0.059984
-0.0599841
-0.0611443
-0.0611443
-0.0611443
-0.0611443
-0.0611443
-0.0623175
-0.0623175
-0.0623175
-0.0623175
-0.0623175
-0.0635038
-0.0635038
-0.0635038
-0.0635038
-0.0635038
-0.0647033
-0.0647033
-0.0647033
-0.0647033
-0.0647033
-0.0659163
-0.0659163
-0.0659163
-0.0659163
-0.0659163
-0.0671427
-0.0671427
-0.0671427
-0.0671427
-0.0671427
-0.0683829
-0.0683829
-0.0683828
-0.0683829
-0.0683829
-0.0696368
-0.0696368
-0.0696368
-0.0696368
-0.0696368
-0.0709048
-0.0709048
-0.0709048
-0.0709048
-0.0709048
-0.0721869
-0.0721869
-0.0721869
-0.0721869
-0.0721869
-0.0734834
-0.0734834
-0.0734834
-0.0734834
-0.0734834
-0.0747943
-0.0747943
-0.0747943
-0.0747943
-0.0747943
-0.0761198
-0.0761198
-0.0761198
-0.0761198
-0.0761198
-0.0774601
-0.0774601
-0.0774601
-0.0774601
-0.0774601
-0.0788154
-0.0788154
-0.0788154
-0.0788154
-0.0788154
-0.0801858
-0.0801858
-0.0801858
-0.0801858
-0.0801858
-0.0815715
-0.0815714
-0.0815714
-0.0815714
-0.0815715
-0.0829726
-0.0829726
-0.0829726
-0.0829726
-0.0829726
-0.0843894
-0.0843894
-0.0843894
-0.0843894
-0.0843894
-0.085822
-0.085822
-0.085822
-0.085822
-0.085822
-0.0872706
-0.0872706
-0.0872706
-0.0872706
-0.0872706
-0.0887353
-0.0887353
-0.0887353
-0.0887353
-0.0887353
)
;

boundaryField
{
    BotWall
    {
        type            calculated;
        value           nonuniform List<scalar> 5(0.788017 0.792304 0.794269 0.792005 0.788216);
    }
    FreeStream
    {
        type            calculated;
        value           nonuniform List<scalar> 5(-0.0894717 -0.0894717 -0.0894717 -0.0894717 -0.0894717);
    }
    FrontNBack
    {
        type            empty;
    }
    LeftSide
    {
        type            symmetryPlane;
    }
    RightSide
    {
        type            symmetryPlane;
    }
}


// ************************************************************************* //
