/*--------------------------------*- C++ -*----------------------------------*\
| =========                 |                                                 |
| \\      /  F ield         | OpenFOAM: The Open Source CFD Toolbox           |
|  \\    /   O peration     | Version:  2.4.0                                 |
|   \\  /    A nd           | Web:      www.OpenFOAM.org                      |
|    \\/     M anipulation  |                                                 |
\*---------------------------------------------------------------------------*/
FoamFile
{
    version     2.0;
    format      ascii;
    class       volScalarField;
    location    "4.7";
    object      p_rgh;
}
// * * * * * * * * * * * * * * * * * * * * * * * * * * * * * * * * * * * * * //

dimensions      [1 -1 -2 0 0 0 0];

internalField   nonuniform List<scalar> 
500
(
0.788017
0.792304
0.794269
0.792005
0.788216
0.788012
0.79231
0.794283
0.792009
0.78821
0.787999
0.792309
0.794292
0.792007
0.788198
0.787993
0.792316
0.79431
0.792012
0.788192
0.787979
0.792316
0.794321
0.792011
0.788178
0.787971
0.792323
0.79434
0.792017
0.788171
0.787955
0.792323
0.794352
0.792016
0.788155
0.787947
0.792332
0.794374
0.792023
0.788148
0.78793
0.792333
0.794389
0.792023
0.788131
0.787918
0.79234
0.79441
0.792029
0.78812
0.787887
0.792329
0.794414
0.792016
0.78809
0.787859
0.792322
0.794423
0.792007
0.788063
0.787884
0.79237
0.794487
0.792053
0.788089
0.788158
0.792669
0.794805
0.79235
0.788364
0.788563
0.793103
0.795261
0.792782
0.788771
0.78735
0.791915
0.794084
0.791592
0.787558
0.780102
0.784642
0.786791
0.78432
0.78031
0.769295
0.773756
0.775828
0.773481
0.769499
0.800018
0.804685
0.80679
0.804342
0.800228
0.983053
0.989011
0.99219
0.988669
0.98332
1.25297
1.26186
1.26754
1.26105
1.25336
0.461976
0.468429
0.472343
0.467804
0.462278
-4.17589
-4.20128
-4.22379
-4.19881
-4.1769
-10.9822
-11.067
-11.1425
-11.0586
-10.9858
-0.00372328
-0.00372065
-0.00371851
-0.00372089
-0.00372318
0.00107682
0.00107509
0.00107373
0.00107524
0.00107675
0.000400854
0.000400675
0.000400493
0.000400695
0.000400846
1.63213e-05
1.64979e-05
1.66149e-05
1.64844e-05
1.63274e-05
-4.4721e-05
-4.46108e-05
-4.4525e-05
-4.46208e-05
-4.47164e-05
-2.03499e-05
-2.02984e-05
-2.02555e-05
-2.03035e-05
-2.03473e-05
-5.52592e-06
-5.48402e-06
-5.45216e-06
-5.48791e-06
-5.52389e-06
-3.29742e-06
-3.25205e-06
-3.21942e-06
-3.25602e-06
-3.29537e-06
-4.26749e-06
-4.2207e-06
-4.18702e-06
-4.22477e-06
-4.26541e-06
-4.85274e-06
-4.80674e-06
-4.77328e-06
-4.81078e-06
-4.85069e-06
-4.93572e-06
-4.8909e-06
-4.85812e-06
-4.89485e-06
-4.9337e-06
-4.89276e-06
-4.84897e-06
-4.81687e-06
-4.85284e-06
-4.89079e-06
-4.86555e-06
-4.82269e-06
-4.79122e-06
-4.82647e-06
-4.86363e-06
-4.85836e-06
-4.81639e-06
-4.78554e-06
-4.8201e-06
-4.85648e-06
-4.85609e-06
-4.81503e-06
-4.78478e-06
-4.81866e-06
-4.85426e-06
-4.85315e-06
-4.81299e-06
-4.78334e-06
-4.81654e-06
-4.85136e-06
-4.84938e-06
-4.81011e-06
-4.78106e-06
-4.81359e-06
-4.84763e-06
-4.84539e-06
-4.807e-06
-4.77854e-06
-4.81039e-06
-4.84367e-06
-4.84139e-06
-4.80387e-06
-4.77601e-06
-4.80719e-06
-4.83971e-06
-4.83739e-06
-4.80073e-06
-4.77346e-06
-4.80397e-06
-4.83575e-06
-4.83336e-06
-4.79756e-06
-4.77087e-06
-4.80073e-06
-4.83176e-06
-4.8293e-06
-4.79434e-06
-4.76823e-06
-4.79744e-06
-4.82774e-06
-4.82521e-06
-4.79108e-06
-4.76555e-06
-4.79411e-06
-4.82369e-06
-4.82108e-06
-4.78778e-06
-4.76282e-06
-4.79074e-06
-4.8196e-06
-4.81692e-06
-4.78444e-06
-4.76004e-06
-4.78732e-06
-4.81547e-06
-4.81272e-06
-4.78105e-06
-4.75722e-06
-4.78387e-06
-4.81131e-06
-4.80849e-06
-4.77762e-06
-4.75435e-06
-4.78037e-06
-4.80712e-06
-4.80423e-06
-4.77414e-06
-4.75143e-06
-4.77682e-06
-4.80289e-06
-4.79993e-06
-4.77062e-06
-4.74845e-06
-4.77324e-06
-4.79862e-06
-4.79559e-06
-4.76706e-06
-4.74543e-06
-4.7696e-06
-4.79432e-06
-4.79121e-06
-4.76345e-06
-4.74236e-06
-4.76593e-06
-4.78998e-06
-4.7868e-06
-4.75979e-06
-4.73924e-06
-4.76221e-06
-4.7856e-06
-4.78236e-06
-4.75609e-06
-4.73607e-06
-4.75844e-06
-4.78119e-06
-4.77787e-06
-4.75234e-06
-4.73285e-06
-4.75463e-06
-4.77674e-06
-4.77335e-06
-4.74854e-06
-4.72958e-06
-4.75077e-06
-4.77224e-06
-4.76878e-06
-4.7447e-06
-4.72625e-06
-4.74686e-06
-4.76771e-06
-4.76418e-06
-4.74081e-06
-4.72287e-06
-4.7429e-06
-4.76314e-06
-4.75954e-06
-4.73687e-06
-4.71944e-06
-4.7389e-06
-4.75853e-06
-4.75486e-06
-4.73287e-06
-4.71595e-06
-4.73485e-06
-4.75388e-06
-4.75013e-06
-4.72883e-06
-4.71241e-06
-4.73075e-06
-4.74919e-06
-4.74537e-06
-4.72474e-06
-4.70881e-06
-4.7266e-06
-4.74445e-06
-4.74056e-06
-4.7206e-06
-4.70516e-06
-4.7224e-06
-4.73967e-06
-4.73571e-06
-4.71641e-06
-4.70145e-06
-4.71815e-06
-4.73485e-06
-4.73082e-06
-4.71217e-06
-4.69769e-06
-4.71385e-06
-4.72999e-06
-4.72588e-06
-4.70787e-06
-4.69387e-06
-4.7095e-06
-4.72508e-06
-4.7209e-06
-4.70353e-06
-4.69e-06
-4.7051e-06
-4.72013e-06
-4.71587e-06
-4.69913e-06
-4.68607e-06
-4.70064e-06
-4.71513e-06
-4.7108e-06
-4.69467e-06
-4.68208e-06
-4.69613e-06
-4.71009e-06
-4.70568e-06
-4.69017e-06
-4.67803e-06
-4.69157e-06
-4.70499e-06
-4.70051e-06
-4.6856e-06
-4.67393e-06
-4.68696e-06
-4.69986e-06
-4.6953e-06
-4.68099e-06
-4.66976e-06
-4.68229e-06
-4.69467e-06
-4.69004e-06
-4.67632e-06
-4.66554e-06
-4.67756e-06
-4.68943e-06
-4.68472e-06
-4.67159e-06
-4.66125e-06
-4.67278e-06
-4.68415e-06
-4.67936e-06
-4.6668e-06
-4.65691e-06
-4.66795e-06
-4.67881e-06
-4.67395e-06
-4.66196e-06
-4.65251e-06
-4.66306e-06
-4.67343e-06
-4.66849e-06
-4.65707e-06
-4.64804e-06
-4.65811e-06
-4.66799e-06
-4.66297e-06
-4.65211e-06
-4.64352e-06
-4.6531e-06
-4.6625e-06
-4.6574e-06
-4.6471e-06
-4.63893e-06
-4.64804e-06
-4.65695e-06
-4.65178e-06
-4.64202e-06
-4.63428e-06
-4.64291e-06
-4.65136e-06
-4.6461e-06
-4.63689e-06
-4.62958e-06
-4.63773e-06
-4.6457e-06
-4.64037e-06
-4.6317e-06
-4.6248e-06
-4.63249e-06
-4.64e-06
-4.63458e-06
-4.62645e-06
-4.61997e-06
-4.62719e-06
-4.63423e-06
-4.62873e-06
-4.62113e-06
-4.61507e-06
-4.62183e-06
-4.62841e-06
-4.62282e-06
-4.61576e-06
-4.61011e-06
-4.6164e-06
-4.62253e-06
-4.61686e-06
-4.61032e-06
-4.60509e-06
-4.61092e-06
-4.61659e-06
-4.61083e-06
-4.60482e-06
-4.6e-06
-4.60537e-06
-4.61059e-06
-4.60475e-06
-4.59926e-06
-4.59485e-06
-4.59976e-06
-4.60453e-06
-4.5986e-06
-4.59363e-06
-4.58963e-06
-4.59409e-06
-4.5984e-06
-4.59239e-06
-4.58794e-06
-4.58435e-06
-4.58835e-06
-4.59221e-06
-4.58611e-06
-4.58218e-06
-4.57901e-06
-4.58255e-06
-4.58596e-06
-4.57977e-06
-4.57636e-06
-4.57359e-06
-4.57668e-06
-4.57965e-06
-4.57336e-06
-4.57048e-06
-4.56812e-06
-4.57074e-06
-4.57326e-06
-4.56685e-06
-4.56454e-06
-4.56263e-06
-4.56475e-06
-4.56678e-06
-4.56021e-06
-4.55855e-06
-4.55714e-06
-4.55871e-06
-4.56017e-06
-4.55363e-06
-4.55245e-06
-4.55142e-06
-4.55256e-06
-4.55361e-06
-4.54782e-06
-4.54596e-06
-4.54458e-06
-4.54609e-06
-4.54778e-06
)
;

boundaryField
{
    BotWall
    {
        type            fixedFluxPressure;
        gradient        uniform 0;
        value           nonuniform List<scalar> 5(0.788017 0.792304 0.794269 0.792005 0.788216);
    }
    FreeStream
    {
        type            totalPressure;
        rho             rho;
        psi             none;
        gamma           1;
        p0              uniform 0;
        value           nonuniform List<scalar> 5(-4.54549e-06 -4.54247e-06 -4.5404e-06 -4.54266e-06 -4.54541e-06);
    }
    FrontNBack
    {
        type            empty;
    }
    LeftSide
    {
        type            symmetryPlane;
    }
    RightSide
    {
        type            symmetryPlane;
    }
}


// ************************************************************************* //
