/*--------------------------------*- C++ -*----------------------------------*\
| =========                 |                                                 |
| \\      /  F ield         | OpenFOAM: The Open Source CFD Toolbox           |
|  \\    /   O peration     | Version:  2.4.0                                 |
|   \\  /    A nd           | Web:      www.OpenFOAM.org                      |
|    \\/     M anipulation  |                                                 |
\*---------------------------------------------------------------------------*/
FoamFile
{
    version     2.0;
    format      ascii;
    class       surfaceScalarField;
    location    "4.7";
    object      phi;
}
// * * * * * * * * * * * * * * * * * * * * * * * * * * * * * * * * * * * * * //

dimensions      [0 3 -1 0 0 0 0];

internalField   nonuniform List<scalar> 
895
(
2.91901e-17
-2.91898e-17
2.07102e-17
8.48045e-18
-2.25268e-17
4.32378e-17
-2.79436e-17
5.41745e-18
-2.79431e-17
9.3681e-17
-1.22867e-16
6.54607e-17
3.67079e-17
-7.12675e-17
1.79976e-16
-8.94208e-17
2.35788e-17
-1.17358e-16
1.6455e-16
-2.87412e-16
1.13993e-16
8.72732e-17
-1.24118e-16
4.18099e-16
-1.56846e-16
5.63146e-17
-2.74197e-16
2.41766e-16
-5.29173e-16
1.66402e-16
1.62646e-16
-1.81146e-16
7.65658e-16
-2.30236e-16
1.05414e-16
-5.04427e-16
3.25703e-16
-8.5487e-16
2.22919e-16
2.6544e-16
-2.42597e-16
1.23119e-15
-3.09942e-16
1.72768e-16
-8.14363e-16
4.1674e-16
-1.2716e-15
2.8377e-16
3.9842e-16
-3.08716e-16
1.82368e-15
-3.96316e-16
2.60378e-16
-1.21067e-15
5.15301e-16
-1.7869e-15
3.4921e-16
5.64521e-16
-3.79777e-16
2.55269e-15
-4.89753e-16
3.70363e-16
-1.70042e-15
6.21804e-16
-2.4087e-15
4.19493e-16
7.66841e-16
-4.56053e-16
3.42824e-15
-5.90641e-16
5.04961e-16
-2.29105e-15
7.36725e-16
-3.14541e-15
4.94905e-16
1.00867e-15
-5.37849e-16
4.46101e-15
-6.99426e-16
6.66547e-16
-2.99047e-15
8.60528e-16
-4.00593e-15
5.75726e-16
1.29348e-15
-6.25471e-16
5.66222e-15
-8.16537e-16
8.57623e-16
-3.807e-15
9.93749e-16
-4.99968e-15
6.62277e-16
1.62497e-15
-7.19261e-16
7.04377e-15
-9.42473e-16
1.08084e-15
-4.74947e-15
1.1369e-15
-6.13658e-15
7.5487e-16
2.00701e-15
-8.19559e-16
8.61821e-15
-1.07771e-15
1.33901e-15
-5.82718e-15
1.2906e-15
-7.42717e-15
8.53865e-16
2.44375e-15
-9.26749e-16
1.03988e-14
-1.22282e-15
1.63508e-15
-7.04999e-15
1.4554e-15
-8.88256e-15
9.5961e-16
2.93955e-15
-1.04121e-15
1.23997e-14
-1.37832e-15
1.9722e-15
-8.4283e-15
1.63199e-15
-1.05146e-14
1.07251e-15
3.49904e-15
-1.16337e-15
1.46356e-14
-1.54484e-15
2.35367e-15
-9.97313e-15
1.82102e-15
-1.23356e-14
1.19297e-15
4.12711e-15
-1.29367e-15
1.71222e-14
-1.72299e-15
2.783e-15
-1.16961e-14
2.02328e-15
-1.43588e-14
1.32144e-15
4.82895e-15
-1.43261e-15
1.98763e-14
-1.91349e-15
3.26388e-15
-1.36096e-14
2.23943e-15
-1.65983e-14
1.45844e-15
5.60995e-15
-1.58079e-15
2.29155e-14
-2.1169e-15
3.79998e-15
-1.57265e-14
2.46998e-15
-1.90682e-14
1.60435e-15
6.47558e-15
-1.73772e-15
2.62576e-14
-2.33382e-15
4.39609e-15
-1.80603e-14
2.71535e-15
-2.17836e-14
1.75748e-15
7.43346e-15
-1.90479e-15
2.99199e-14
-2.56468e-15
5.05598e-15
-2.0625e-14
2.97771e-15
-2.47613e-14
1.92368e-15
8.48749e-15
-2.08302e-15
3.39266e-14
-2.81162e-15
5.78458e-15
-2.34366e-14
3.26455e-15
-2.80258e-14
2.10191e-15
9.65014e-15
-2.27603e-15
3.83045e-14
-3.08153e-15
6.59008e-15
-2.65181e-14
3.59151e-15
-3.24347e-14
2.31522e-15
1.09264e-14
-2.50918e-15
4.31289e-14
-3.38455e-15
7.46545e-15
-3.06723e-14
3.9439e-15
-1.99616e-10
2.57719e-15
-1.99638e-10
-2.7974e-15
-1.9966e-10
-3.70249e-15
-1.99635e-10
-1.99617e-10
3.9679e-15
-1.9962e-10
2.53988e-15
-1.99636e-10
-2.75248e-15
-1.99655e-10
-3.74068e-15
-1.99634e-10
-1.99621e-10
3.91733e-15
-1.99624e-10
2.51554e-15
-1.99635e-10
-2.72706e-15
-1.99649e-10
-3.69157e-15
-1.99633e-10
-1.99625e-10
3.76988e-15
-1.99628e-10
2.41612e-15
-1.99634e-10
-2.6181e-15
-1.99644e-10
-3.55757e-15
-1.99632e-10
-1.99628e-10
3.63487e-15
-1.99631e-10
2.32853e-15
-1.99632e-10
-2.52274e-15
-1.9964e-10
-3.43312e-15
-1.99631e-10
-1.99632e-10
3.50885e-15
-1.99635e-10
2.24866e-15
-1.99631e-10
-2.43607e-15
-1.99635e-10
-3.31617e-15
-1.99631e-10
-1.99635e-10
3.38551e-15
-1.99638e-10
2.17096e-15
-1.9963e-10
-2.35177e-15
-1.9963e-10
-3.20156e-15
-1.9963e-10
-1.99638e-10
3.26285e-15
-1.99642e-10
2.09362e-15
-1.99629e-10
-2.26787e-15
-1.99626e-10
-3.08756e-15
-1.99629e-10
-1.99641e-10
3.14119e-15
-1.99645e-10
2.01678e-15
-1.99628e-10
-2.18452e-15
-1.99622e-10
-2.97443e-15
-1.99628e-10
-1.99644e-10
3.0209e-15
-1.99648e-10
1.94074e-15
-1.99626e-10
-2.10207e-15
-1.99618e-10
-2.8625e-15
-1.99627e-10
-1.99647e-10
2.9021e-15
-1.99651e-10
1.86561e-15
-1.99625e-10
-2.02063e-15
-1.99614e-10
-2.75186e-15
-1.99627e-10
-1.9965e-10
2.78483e-15
-1.99653e-10
1.79144e-15
-1.99624e-10
-1.94025e-15
-1.9961e-10
-2.64257e-15
-1.99626e-10
-1.99652e-10
2.66913e-15
-1.99656e-10
1.71825e-15
-1.99623e-10
-1.86095e-15
-1.99607e-10
-2.53465e-15
-1.99625e-10
-1.99655e-10
2.55505e-15
-1.99659e-10
1.64605e-15
-1.99623e-10
-1.78276e-15
-1.99603e-10
-2.42817e-15
-1.99625e-10
-1.99657e-10
2.44265e-15
-1.99661e-10
1.5749e-15
-1.99622e-10
-1.70572e-15
-1.996e-10
-2.32317e-15
-1.99624e-10
-1.9966e-10
2.33198e-15
-1.99663e-10
1.50483e-15
-1.99621e-10
-1.62987e-15
-1.99597e-10
-2.21971e-15
-1.99623e-10
-1.99662e-10
2.22309e-15
-1.99666e-10
1.43586e-15
-1.9962e-10
-1.55524e-15
-1.99594e-10
-2.11783e-15
-1.99623e-10
-1.99664e-10
2.11603e-15
-1.99668e-10
1.36803e-15
-1.99619e-10
-1.48186e-15
-1.99591e-10
-2.01759e-15
-1.99622e-10
-1.99666e-10
2.01086e-15
-1.9967e-10
1.30137e-15
-1.99619e-10
-1.40976e-15
-1.99588e-10
-1.91904e-15
-1.99622e-10
-1.99668e-10
1.9076e-15
-1.99672e-10
1.23591e-15
-1.99618e-10
-1.33898e-15
-1.99586e-10
-1.82221e-15
-1.99621e-10
-1.9967e-10
1.80632e-15
-1.99673e-10
1.17168e-15
-1.99617e-10
-1.26955e-15
-1.99583e-10
-1.72716e-15
-1.99621e-10
-1.99672e-10
1.70705e-15
-1.99675e-10
1.1087e-15
-1.99617e-10
-1.2015e-15
-1.99581e-10
-1.63393e-15
-1.9962e-10
-1.99673e-10
1.60984e-15
-1.99677e-10
1.04701e-15
-1.99616e-10
-1.13484e-15
-1.99579e-10
-1.54255e-15
-1.9962e-10
-1.99675e-10
1.51472e-15
-1.99678e-10
9.86618e-16
-1.99616e-10
-1.06962e-15
-1.99577e-10
-1.45307e-15
-1.9962e-10
-1.99676e-10
1.42173e-15
-1.9968e-10
9.27559e-16
-1.99615e-10
-1.00585e-15
-1.99575e-10
-1.36553e-15
-1.99619e-10
-1.99678e-10
1.3309e-15
-1.99681e-10
8.69853e-16
-1.99615e-10
-9.43553e-16
-1.99573e-10
-1.27996e-15
-1.99619e-10
-1.99679e-10
1.24228e-15
-1.99682e-10
8.13521e-16
-1.99614e-10
-8.82758e-16
-1.99571e-10
-1.19639e-15
-1.99619e-10
-1.9968e-10
1.15588e-15
-1.99683e-10
7.58583e-16
-1.99614e-10
-8.23483e-16
-1.9957e-10
-1.11485e-15
-1.99618e-10
-1.99681e-10
1.07174e-15
-1.99685e-10
7.05058e-16
-1.99613e-10
-7.65748e-16
-1.99568e-10
-1.03539e-15
-1.99618e-10
-1.99682e-10
9.89888e-16
-1.99686e-10
6.52964e-16
-1.99613e-10
-7.09568e-16
-1.99567e-10
-9.58017e-16
-1.99618e-10
-1.99683e-10
9.10343e-16
-1.99686e-10
6.02315e-16
-1.99613e-10
-6.54962e-16
-1.99565e-10
-8.82765e-16
-1.99618e-10
-1.99684e-10
8.33128e-16
-1.99687e-10
5.53126e-16
-1.99613e-10
-6.01942e-16
-1.99564e-10
-8.09657e-16
-1.99617e-10
-1.99685e-10
7.58264e-16
-1.99688e-10
5.0541e-16
-1.99612e-10
-5.50522e-16
-1.99563e-10
-7.38713e-16
-1.99617e-10
-1.99686e-10
6.85767e-16
-1.99689e-10
4.59178e-16
-1.99612e-10
-5.00713e-16
-1.99562e-10
-6.69952e-16
-1.99617e-10
-1.99686e-10
6.15651e-16
-1.99689e-10
4.14439e-16
-1.99612e-10
-4.52525e-16
-1.99561e-10
-6.03391e-16
-1.99617e-10
-1.99687e-10
5.47928e-16
-1.9969e-10
3.71203e-16
-1.99612e-10
-4.05965e-16
-1.99561e-10
-5.39044e-16
-1.99617e-10
-1.99687e-10
4.82608e-16
-1.9969e-10
3.29475e-16
-1.99612e-10
-3.61039e-16
-1.9956e-10
-4.76923e-16
-1.99617e-10
-1.99688e-10
4.19697e-16
-1.99691e-10
2.89259e-16
-1.99611e-10
-3.17752e-16
-1.99559e-10
-4.17037e-16
-1.99616e-10
-1.99688e-10
3.59199e-16
-1.99691e-10
2.5056e-16
-1.99611e-10
-2.76105e-16
-1.99559e-10
-3.59393e-16
-1.99616e-10
-1.99689e-10
3.01115e-16
-1.99691e-10
2.13378e-16
-1.99611e-10
-2.361e-16
-1.99558e-10
-3.03994e-16
-1.99616e-10
-1.99689e-10
2.45443e-16
-1.99692e-10
1.77712e-16
-1.99611e-10
-1.97736e-16
-1.99558e-10
-2.50842e-16
-1.99616e-10
-1.99689e-10
1.9218e-16
-1.99692e-10
1.43562e-16
-1.99611e-10
-1.61008e-16
-1.99558e-10
-1.99936e-16
-1.99616e-10
-1.99689e-10
1.41317e-16
-1.99692e-10
1.10921e-16
-1.99611e-10
-1.25913e-16
-1.99557e-10
-1.51271e-16
-1.99616e-10
-1.9969e-10
9.28436e-17
-1.99692e-10
7.97858e-17
-1.99611e-10
-9.24419e-17
-1.99557e-10
-1.0484e-16
-1.99616e-10
-1.9969e-10
4.67473e-17
-1.99692e-10
5.01471e-17
-1.99611e-10
-6.0587e-17
-1.99557e-10
-6.06343e-17
-1.99616e-10
-1.9969e-10
3.01128e-18
-1.99692e-10
2.19954e-17
-1.99611e-10
-3.03368e-17
-1.99557e-10
-1.86401e-17
-1.99616e-10
-1.9969e-10
-3.83845e-17
-1.99692e-10
-4.68111e-18
-1.99611e-10
-1.67792e-18
-1.99557e-10
2.11583e-17
-1.99616e-10
-1.9969e-10
-7.74627e-17
-1.99692e-10
-2.98963e-17
-1.99611e-10
2.54052e-17
-1.99557e-10
5.87799e-17
-1.99616e-10
-1.9969e-10
-1.1425e-16
-1.99692e-10
-5.3666e-17
-1.99611e-10
5.09299e-17
-1.99557e-10
9.42468e-17
-1.99616e-10
-1.9969e-10
-1.48775e-16
-1.99692e-10
-7.60081e-17
-1.99611e-10
7.49162e-17
-1.99557e-10
1.27585e-16
-1.99616e-10
-1.99689e-10
-1.81072e-16
-1.99692e-10
-9.6943e-17
-1.99611e-10
9.7386e-17
-1.99558e-10
1.58822e-16
-1.99616e-10
-1.99689e-10
-2.11178e-16
-1.99691e-10
-1.16493e-16
-1.99611e-10
1.18364e-16
-1.99558e-10
1.87992e-16
-1.99617e-10
-1.99689e-10
-2.39133e-16
-1.99691e-10
-1.34684e-16
-1.99612e-10
1.37878e-16
-1.99558e-10
2.1513e-16
-1.99617e-10
-1.99689e-10
-2.64982e-16
-1.99691e-10
-1.51542e-16
-1.99612e-10
1.55957e-16
-1.99558e-10
2.40277e-16
-1.99617e-10
-1.99689e-10
-2.88774e-16
-1.99691e-10
-1.67097e-16
-1.99612e-10
1.72633e-16
-1.99559e-10
2.63476e-16
-1.99617e-10
-1.99688e-10
-3.10563e-16
-1.9969e-10
-1.81383e-16
-1.99612e-10
1.87942e-16
-1.99559e-10
2.84775e-16
-1.99617e-10
-1.99688e-10
-3.30405e-16
-1.9969e-10
-1.94435e-16
-1.99612e-10
2.01923e-16
-1.9956e-10
3.04226e-16
-1.99617e-10
-1.99688e-10
-3.48364e-16
-1.9969e-10
-2.06291e-16
-1.99612e-10
2.14616e-16
-1.9956e-10
3.21888e-16
-1.99617e-10
-1.99687e-10
-3.64506e-16
-1.99689e-10
-2.16993e-16
-1.99612e-10
2.26067e-16
-1.9956e-10
3.37821e-16
-1.99617e-10
-1.99687e-10
-3.78906e-16
-1.99689e-10
-2.26586e-16
-1.99613e-10
2.36323e-16
-1.99561e-10
3.52093e-16
-1.99617e-10
-1.99687e-10
-3.91643e-16
-1.99688e-10
-2.35117e-16
-1.99613e-10
2.45437e-16
-1.99561e-10
3.64776e-16
-1.99617e-10
-1.99686e-10
-4.028e-16
-1.99688e-10
-2.42641e-16
-1.99613e-10
2.53465e-16
-1.99562e-10
3.75949e-16
-1.99618e-10
-1.99686e-10
-4.1247e-16
-1.99688e-10
-2.49212e-16
-1.99613e-10
2.60467e-16
-1.99562e-10
3.85696e-16
-1.99618e-10
-1.99686e-10
-4.20751e-16
-1.99687e-10
-2.54892e-16
-1.99613e-10
2.66509e-16
-1.99563e-10
3.9411e-16
-1.99618e-10
-1.99685e-10
-4.27751e-16
-1.99687e-10
-2.59746e-16
-1.99613e-10
2.7166e-16
-1.99563e-10
4.01289e-16
-1.99618e-10
-1.99685e-10
-4.33585e-16
-1.99686e-10
-2.63844e-16
-1.99613e-10
2.75996e-16
-1.99564e-10
4.0734e-16
-1.99618e-10
-1.99684e-10
-4.38376e-16
-1.99686e-10
-2.67263e-16
-1.99614e-10
2.796e-16
-1.99565e-10
4.12378e-16
-1.99618e-10
-1.99684e-10
-4.4226e-16
-1.99685e-10
-2.70085e-16
-1.99614e-10
2.82558e-16
-1.99565e-10
4.1653e-16
-1.99618e-10
-1.99684e-10
-4.45381e-16
-1.99685e-10
-2.72399e-16
-1.99614e-10
2.84967e-16
-1.99566e-10
4.19929e-16
-1.99618e-10
-1.99683e-10
-4.47898e-16
-1.99685e-10
-2.743e-16
-1.99614e-10
2.86929e-16
-1.99566e-10
4.22722e-16
-1.99619e-10
-1.99683e-10
-4.49981e-16
-1.99684e-10
-2.75894e-16
-1.99614e-10
2.88556e-16
-1.99567e-10
4.2507e-16
-1.99619e-10
-1.99682e-10
-4.51814e-16
-1.99684e-10
-2.77292e-16
-1.99615e-10
2.8997e-16
-1.99567e-10
4.27143e-16
-1.99619e-10
-1.99682e-10
-4.53599e-16
-1.99683e-10
-2.78615e-16
-1.99615e-10
2.913e-16
-1.99568e-10
4.29128e-16
-1.99619e-10
-1.99681e-10
-4.55548e-16
-1.99683e-10
-2.79993e-16
-1.99615e-10
2.92685e-16
-1.99568e-10
4.31223e-16
-1.99619e-10
-1.99681e-10
-4.57908e-16
-1.99682e-10
-2.81574e-16
-1.99615e-10
2.94285e-16
-1.99569e-10
4.3366e-16
-1.99619e-10
-1.99681e-10
-4.61008e-16
-1.99682e-10
-2.8356e-16
-1.99615e-10
2.96318e-16
-1.9957e-10
4.3674e-16
-1.99619e-10
-1.9968e-10
-4.65466e-16
-2.86414e-16
2.99299e-16
4.40999e-16
)
;

boundaryField
{
    BotWall
    {
        type            calculated;
        value           nonuniform List<scalar> 5(-2.30484e-22 -4.31051e-22 -6.55962e-22 -5.22613e-22 -4.13398e-22);
    }
    FreeStream
    {
        type            calculated;
        value           nonuniform List<scalar> 5(-1.99681e-10 -1.99615e-10 -1.9957e-10 -1.9962e-10 -1.9968e-10);
    }
    FrontNBack
    {
        type            empty;
        value           nonuniform 0();
    }
    LeftSide
    {
        type            symmetryPlane;
        value           uniform 0;
    }
    RightSide
    {
        type            symmetryPlane;
        value           uniform 0;
    }
}


// ************************************************************************* //
