/*--------------------------------*- C++ -*----------------------------------*\
| =========                 |                                                 |
| \\      /  F ield         | OpenFOAM: The Open Source CFD Toolbox           |
|  \\    /   O peration     | Version:  2.4.0                                 |
|   \\  /    A nd           | Web:      www.OpenFOAM.org                      |
|    \\/     M anipulation  |                                                 |
\*---------------------------------------------------------------------------*/
FoamFile
{
    version     2.0;
    format      ascii;
    class       volVectorField;
    location    "4.7";
    object      U;
}
// * * * * * * * * * * * * * * * * * * * * * * * * * * * * * * * * * * * * * //

dimensions      [0 1 -1 0 0 0 0];

internalField   nonuniform List<vector> 
500
(
(5.79828e-09 -1.01151e-10 0)
(1.60295e-08 -7.33789e-11 0)
(-7.74475e-10 -4.23635e-11 0)
(-1.58711e-08 -7.56468e-11 0)
(-4.94008e-09 -1.00375e-10 0)
(1.85353e-08 -1.07677e-10 0)
(4.98413e-08 2.95112e-10 0)
(-2.40749e-09 6.57933e-10 0)
(-4.93144e-08 2.62663e-10 0)
(-1.58256e-08 -9.43067e-11 0)
(3.25198e-08 -1.27845e-09 0)
(8.5657e-08 -7.15777e-11 0)
(-4.1371e-09 1.01468e-09 0)
(-8.47059e-08 -1.72025e-10 0)
(-2.78078e-08 -1.23608e-09 0)
(4.77934e-08 -1.4699e-09 0)
(1.23551e-07 1.08071e-09 0)
(-5.9676e-09 3.30829e-09 0)
(-1.22118e-07 8.70985e-10 0)
(-4.0922e-08 -1.37986e-09 0)
(6.44049e-08 -3.9728e-09 0)
(1.63607e-07 3.98695e-10 0)
(-7.90279e-09 4.2082e-09 0)
(-1.61633e-07 3.54162e-11 0)
(-5.52102e-08 -3.8151e-09 0)
(8.23988e-08 -4.43603e-09 0)
(2.05906e-07 2.41264e-09 0)
(-9.94708e-09 8.27131e-09 0)
(-2.03328e-07 1.84815e-09 0)
(-7.07092e-08 -4.18819e-09 0)
(1.0183e-07 -8.454e-09 0)
(2.50543e-07 1.40994e-09 0)
(-1.2105e-08 9.81799e-09 0)
(-2.47294e-07 5.92611e-10 0)
(-8.74666e-08 -8.09193e-09 0)
(1.22746e-07 -9.26051e-09 0)
(2.97602e-07 4.41492e-09 0)
(-1.43814e-08 1.59056e-08 0)
(-2.93616e-07 3.28895e-09 0)
(-1.05522e-07 -8.75701e-09 0)
(1.45208e-07 -1.49976e-08 0)
(3.4719e-07 3.10251e-09 0)
(-1.67813e-08 1.82463e-08 0)
(-3.42393e-07 1.60761e-09 0)
(-1.24927e-07 -1.43238e-08 0)
(1.69267e-07 -1.62166e-08 0)
(3.99398e-07 7.25847e-09 0)
(-1.931e-08 2.66622e-08 0)
(-3.93718e-07 5.3297e-09 0)
(-1.45725e-07 -1.53399e-08 0)
(1.94993e-07 -2.41155e-08 0)
(4.54344e-07 5.43334e-09 0)
(-2.19732e-08 2.97438e-08 0)
(-4.47701e-07 3.0009e-09 0)
(-1.67975e-07 -2.30016e-08 0)
(2.2244e-07 -2.64022e-08 0)
(5.12128e-07 1.03369e-08 0)
(-2.47767e-08 4.02389e-08 0)
(-5.04442e-07 7.32574e-09 0)
(-1.91722e-07 -2.50126e-08 0)
(2.51684e-07 -3.70262e-08 0)
(5.72879e-07 7.69783e-09 0)
(-2.77271e-08 4.39264e-08 0)
(-5.64064e-07 4.02626e-09 0)
(-2.17031e-07 -3.53206e-08 0)
(2.82788e-07 -3.59878e-08 0)
(6.36709e-07 1.80382e-08 0)
(-3.08307e-08 6.14071e-08 0)
(-6.26676e-07 1.36146e-08 0)
(-2.43953e-07 -3.39203e-08 0)
(3.15835e-07 -3.44625e-08 0)
(7.03759e-07 2.98506e-08 0)
(-3.40948e-08 8.12899e-08 0)
(-6.92414e-07 2.45782e-08 0)
(-2.72558e-07 -3.19826e-08 0)
(3.50893e-07 -2.40583e-08 0)
(7.74154e-07 5.21551e-08 0)
(-3.75267e-08 1.12557e-07 0)
(-7.614e-07 4.59349e-08 0)
(-3.02903e-07 -2.11078e-08 0)
(3.88058e-07 -1.27129e-07 0)
(8.4805e-07 -3.85741e-08 0)
(-4.11343e-08 3.12328e-08 0)
(-8.33784e-07 -4.58059e-08 0)
(-3.35069e-07 -1.23674e-07 0)
(4.27394e-07 -5.05333e-07 0)
(9.25565e-07 -4.05063e-07 0)
(-4.49249e-08 -3.26797e-07 0)
(-9.09681e-07 -4.13207e-07 0)
(-3.69106e-07 -5.01408e-07 0)
(4.68972e-07 -8.65547e-07 0)
(1.00681e-06 -7.53945e-07 0)
(-4.881e-08 -6.6796e-07 0)
(-9.8909e-07 -7.62915e-07 0)
(-4.0506e-07 -8.61173e-07 0)
(5.12846e-07 1.42797e-06 0)
(1.09173e-06 1.56897e-06 0)
(-5.31863e-08 1.67662e-06 0)
(-1.07239e-06 1.5576e-06 0)
(-4.43028e-07 1.43347e-06 0)
(5.59523e-07 1.12125e-05 0)
(1.18159e-06 1.14412e-05 0)
(-5.7458e-08 1.16214e-05 0)
(-1.16013e-06 1.14218e-05 0)
(-4.83391e-07 1.12215e-05 0)
(6.0983e-07 1.98458e-05 0)
(1.2771e-06 2.02305e-05 0)
(-6.2246e-08 2.05485e-05 0)
(-1.2536e-06 2.01957e-05 0)
(-5.26931e-07 1.98616e-05 0)
(6.64593e-07 -4.05336e-05 0)
(1.38025e-06 -4.05434e-05 0)
(-6.76127e-08 -4.05568e-05 0)
(-1.35452e-06 -4.05412e-05 0)
(-5.74137e-07 -4.05333e-05 0)
(7.17092e-07 -0.000299963 0)
(1.47881e-06 -0.00030075 0)
(-7.27445e-08 -0.000301439 0)
(-1.45097e-06 -0.000300672 0)
(-6.1931e-07 -0.000299995 0)
(7.24089e-07 -0.00072648 0)
(1.49193e-06 -0.000726183 0)
(-7.34366e-08 -0.000725966 0)
(-1.46379e-06 -0.000726207 0)
(-6.25327e-07 -0.000726469 0)
(7.04686e-07 -0.00167722 0)
(1.45017e-06 -0.00167665 0)
(-7.11704e-08 -0.00167621 0)
(-1.42313e-06 -0.0016767 0)
(-6.09467e-07 -0.0016772 0)
(6.72563e-07 -0.00103746 0)
(1.38589e-06 -0.00103762 0)
(-6.78051e-08 -0.00103775 0)
(-1.3604e-06 -0.0010376 0)
(-5.82414e-07 -0.00103746 0)
(6.41374e-07 -0.000963984 0)
(1.32322e-06 -0.000964068 0)
(-6.45229e-08 -0.000964168 0)
(-1.29923e-06 -0.000964057 0)
(-5.56146e-07 -0.000963988 0)
(6.11745e-07 -0.000977904 0)
(1.26342e-06 -0.000977906 0)
(-6.13943e-08 -0.000977946 0)
(-1.24087e-06 -0.000977901 0)
(-5.31187e-07 -0.000977905 0)
(5.83206e-07 -0.000995976 0)
(1.20578e-06 -0.000995938 0)
(-5.83903e-08 -0.000995946 0)
(-1.18459e-06 -0.000995937 0)
(-5.07112e-07 -0.000995975 0)
(5.55426e-07 -0.000999757 0)
(1.14969e-06 -0.000999701 0)
(-5.5482e-08 -0.000999693 0)
(-1.12982e-06 -0.000999701 0)
(-4.83632e-07 -0.000999756 0)
(5.28375e-07 -0.000999026 0)
(1.0951e-06 -0.000998951 0)
(-5.26632e-08 -0.000998929 0)
(-1.0765e-06 -0.000998953 0)
(-4.60726e-07 -0.000999024 0)
(5.0208e-07 -0.000998322 0)
(1.04202e-06 -0.000998226 0)
(-4.99344e-08 -0.00099819 0)
(-1.02465e-06 -0.00099823 0)
(-4.38424e-07 -0.000998319 0)
(4.76548e-07 -0.000998181 0)
(9.90476e-07 -0.000998065 0)
(-4.72953e-08 -0.000998014 0)
(-9.74281e-07 -0.00099807 0)
(-4.16732e-07 -0.000998177 0)
(4.51772e-07 -0.000998227 0)
(9.40449e-07 -0.000998091 0)
(-4.47449e-08 -0.000998027 0)
(-9.25387e-07 -0.000998098 0)
(-3.95647e-07 -0.000998222 0)
(4.27744e-07 -0.00099827 0)
(8.91923e-07 -0.000998116 0)
(-4.22819e-08 -0.000998038 0)
(-8.77949e-07 -0.000998124 0)
(-3.75163e-07 -0.000998265 0)
(4.04456e-07 -0.00099829 0)
(8.44883e-07 -0.000998118 0)
(-3.99047e-08 -0.000998027 0)
(-8.31954e-07 -0.000998127 0)
(-3.55276e-07 -0.000998284 0)
(3.819e-07 -0.000998301 0)
(7.99313e-07 -0.000998112 0)
(-3.7612e-08 -0.000998009 0)
(-7.87385e-07 -0.000998123 0)
(-3.35982e-07 -0.000998294 0)
(3.60069e-07 -0.000998312 0)
(7.55197e-07 -0.000998106 0)
(-3.54024e-08 -0.000997991 0)
(-7.44228e-07 -0.000998118 0)
(-3.17276e-07 -0.000998304 0)
(3.38955e-07 -0.000998323 0)
(7.12519e-07 -0.000998102 0)
(-3.32745e-08 -0.000997976 0)
(-7.02467e-07 -0.000998115 0)
(-2.99154e-07 -0.000998315 0)
(3.18549e-07 -0.000998334 0)
(6.71261e-07 -0.000998098 0)
(-3.12268e-08 -0.000997961 0)
(-6.62085e-07 -0.000998113 0)
(-2.81609e-07 -0.000998325 0)
(2.98843e-07 -0.000998344 0)
(6.31405e-07 -0.000998095 0)
(-2.92579e-08 -0.000997947 0)
(-6.23066e-07 -0.00099811 0)
(-2.64638e-07 -0.000998335 0)
(2.79828e-07 -0.000998354 0)
(5.92933e-07 -0.000998091 0)
(-2.73662e-08 -0.000997934 0)
(-5.85392e-07 -0.000998108 0)
(-2.48232e-07 -0.000998345 0)
(2.61494e-07 -0.000998363 0)
(5.55826e-07 -0.000998088 0)
(-2.55503e-08 -0.000997922 0)
(-5.49045e-07 -0.000998105 0)
(-2.32388e-07 -0.000998354 0)
(2.43833e-07 -0.000998372 0)
(5.20065e-07 -0.000998085 0)
(-2.38086e-08 -0.00099791 0)
(-5.14007e-07 -0.000998103 0)
(-2.17098e-07 -0.000998362 0)
(2.26834e-07 -0.00099838 0)
(4.8563e-07 -0.000998082 0)
(-2.21397e-08 -0.000997899 0)
(-4.80258e-07 -0.000998101 0)
(-2.02357e-07 -0.00099837 0)
(2.10487e-07 -0.000998388 0)
(4.525e-07 -0.000998079 0)
(-2.05419e-08 -0.000997888 0)
(-4.47779e-07 -0.000998099 0)
(-1.88156e-07 -0.000998377 0)
(1.94783e-07 -0.000998395 0)
(4.20655e-07 -0.000998077 0)
(-1.90138e-08 -0.000997878 0)
(-4.16551e-07 -0.000998097 0)
(-1.74489e-07 -0.000998384 0)
(1.7971e-07 -0.000998402 0)
(3.90073e-07 -0.000998074 0)
(-1.75536e-08 -0.000997869 0)
(-3.86552e-07 -0.000998095 0)
(-1.61349e-07 -0.000998391 0)
(1.65259e-07 -0.000998409 0)
(3.60733e-07 -0.000998072 0)
(-1.616e-08 -0.00099786 0)
(-3.57763e-07 -0.000998094 0)
(-1.48729e-07 -0.000998397 0)
(1.51418e-07 -0.000998415 0)
(3.32613e-07 -0.00099807 0)
(-1.48312e-08 -0.000997852 0)
(-3.30162e-07 -0.000998092 0)
(-1.36619e-07 -0.000998403 0)
(1.38177e-07 -0.00099842 0)
(3.0569e-07 -0.000998068 0)
(-1.35658e-08 -0.000997844 0)
(-3.03727e-07 -0.000998091 0)
(-1.25014e-07 -0.000998408 0)
(1.25524e-07 -0.000998425 0)
(2.79941e-07 -0.000998066 0)
(-1.2362e-08 -0.000997837 0)
(-2.78437e-07 -0.00099809 0)
(-1.13903e-07 -0.000998413 0)
(1.13447e-07 -0.00099843 0)
(2.55345e-07 -0.000998065 0)
(-1.12184e-08 -0.00099783 0)
(-2.54269e-07 -0.000998088 0)
(-1.03279e-07 -0.000998418 0)
(1.01935e-07 -0.000998434 0)
(2.31876e-07 -0.000998063 0)
(-1.01333e-08 -0.000997824 0)
(-2.31202e-07 -0.000998087 0)
(-9.31334e-08 -0.000998422 0)
(9.09765e-08 -0.000998438 0)
(2.09511e-07 -0.000998062 0)
(-9.10516e-09 -0.000997819 0)
(-2.09211e-07 -0.000998086 0)
(-8.34571e-08 -0.000998426 0)
(8.05593e-08 -0.000998442 0)
(1.88227e-07 -0.000998061 0)
(-8.13234e-09 -0.000997814 0)
(-1.88275e-07 -0.000998085 0)
(-7.4241e-08 -0.00099843 0)
(7.06712e-08 -0.000998445 0)
(1.67999e-07 -0.00099806 0)
(-7.21327e-09 -0.000997809 0)
(-1.68369e-07 -0.000998085 0)
(-6.5476e-08 -0.000998433 0)
(6.13001e-08 -0.000998448 0)
(1.48802e-07 -0.000998059 0)
(-6.34637e-09 -0.000997805 0)
(-1.4947e-07 -0.000998084 0)
(-5.71527e-08 -0.000998436 0)
(5.24336e-08 -0.000998451 0)
(1.30611e-07 -0.000998058 0)
(-5.53005e-09 -0.000997802 0)
(-1.31554e-07 -0.000998083 0)
(-4.92615e-08 -0.000998438 0)
(4.40592e-08 -0.000998453 0)
(1.13403e-07 -0.000998057 0)
(-4.76275e-09 -0.000997798 0)
(-1.14597e-07 -0.000998083 0)
(-4.17928e-08 -0.00099844 0)
(3.61644e-08 -0.000998455 0)
(9.71503e-08 -0.000998057 0)
(-4.04291e-09 -0.000997795 0)
(-9.85742e-08 -0.000998082 0)
(-3.47368e-08 -0.000998442 0)
(2.87365e-08 -0.000998457 0)
(8.18292e-08 -0.000998056 0)
(-3.36896e-09 -0.000997793 0)
(-8.34622e-08 -0.000998082 0)
(-2.80833e-08 -0.000998444 0)
(2.17626e-08 -0.000998458 0)
(6.74138e-08 -0.000998056 0)
(-2.73936e-09 -0.000997791 0)
(-6.92357e-08 -0.000998082 0)
(-2.18223e-08 -0.000998445 0)
(1.52299e-08 -0.000998459 0)
(5.38784e-08 -0.000998056 0)
(-2.15257e-09 -0.000997789 0)
(-5.58701e-08 -0.000998081 0)
(-1.59436e-08 -0.000998446 0)
(9.12546e-09 -0.00099846 0)
(4.11973e-08 -0.000998055 0)
(-1.60707e-09 -0.000997788 0)
(-4.33405e-08 -0.000998081 0)
(-1.04367e-08 -0.000998447 0)
(3.43624e-09 -0.00099846 0)
(2.93445e-08 -0.000998055 0)
(-1.10135e-09 -0.000997787 0)
(-3.16217e-08 -0.000998081 0)
(-5.29108e-09 -0.000998448 0)
(-1.85085e-09 -0.000998461 0)
(1.82942e-08 -0.000998055 0)
(-6.33912e-10 -0.000997786 0)
(-2.06888e-08 -0.000998081 0)
(-4.96202e-10 -0.000998448 0)
(-6.74896e-09 -0.000998461 0)
(8.02024e-09 -0.000998055 0)
(-2.03262e-10 -0.000997786 0)
(-1.05164e-08 -0.000998081 0)
(3.95867e-09 -0.000998449 0)
(-1.12713e-08 -0.000998461 0)
(-1.5035e-09 -0.000998055 0)
(1.92069e-10 -0.000997786 0)
(-1.0792e-09 -0.000998081 0)
(8.08437e-09 -0.000998449 0)
(-1.54311e-08 -0.00099846 0)
(-1.03032e-08 -0.000998056 0)
(5.5354e-10 -0.000997786 0)
(7.64811e-09 -0.000998081 0)
(1.18918e-08 -0.000998448 0)
(-1.92418e-08 -0.00099846 0)
(-1.84051e-08 -0.000998056 0)
(8.82595e-10 -0.000997786 0)
(1.5691e-08 -0.000998082 0)
(1.5392e-08 -0.000998448 0)
(-2.27166e-08 -0.000998459 0)
(-2.58356e-08 -0.000998056 0)
(1.18067e-09 -0.000997787 0)
(2.3075e-08 -0.000998082 0)
(1.8596e-08 -0.000998447 0)
(-2.5869e-08 -0.000998458 0)
(-3.26209e-08 -0.000998057 0)
(1.44917e-09 -0.000997788 0)
(2.98257e-08 -0.000998082 0)
(2.15151e-08 -0.000998447 0)
(-2.87124e-08 -0.000998458 0)
(-3.87876e-08 -0.000998057 0)
(1.68951e-09 -0.000997789 0)
(3.59687e-08 -0.000998082 0)
(2.41604e-08 -0.000998446 0)
(-3.12603e-08 -0.000998456 0)
(-4.43619e-08 -0.000998058 0)
(1.90307e-09 -0.00099779 0)
(4.15297e-08 -0.000998083 0)
(2.65435e-08 -0.000998445 0)
(-3.35263e-08 -0.000998455 0)
(-4.93705e-08 -0.000998058 0)
(2.09124e-09 -0.000997792 0)
(4.65344e-08 -0.000998083 0)
(2.86757e-08 -0.000998444 0)
(-3.5524e-08 -0.000998454 0)
(-5.384e-08 -0.000998059 0)
(2.25537e-09 -0.000997793 0)
(5.10088e-08 -0.000998084 0)
(3.05685e-08 -0.000998442 0)
(-3.7267e-08 -0.000998452 0)
(-5.77968e-08 -0.000998059 0)
(2.39683e-09 -0.000997795 0)
(5.49785e-08 -0.000998084 0)
(3.22337e-08 -0.000998441 0)
(-3.87691e-08 -0.000998451 0)
(-6.12678e-08 -0.00099806 0)
(2.51696e-09 -0.000997797 0)
(5.84698e-08 -0.000998085 0)
(3.36829e-08 -0.00099844 0)
(-4.00442e-08 -0.000998449 0)
(-6.42798e-08 -0.000998061 0)
(2.6171e-09 -0.000997799 0)
(6.15086e-08 -0.000998085 0)
(3.4928e-08 -0.000998438 0)
(-4.11061e-08 -0.000998447 0)
(-6.68597e-08 -0.000998061 0)
(2.69858e-09 -0.000997801 0)
(6.41211e-08 -0.000998086 0)
(3.59811e-08 -0.000998436 0)
(-4.19689e-08 -0.000998445 0)
(-6.90346e-08 -0.000998062 0)
(2.76273e-09 -0.000997803 0)
(6.63338e-08 -0.000998086 0)
(3.68541e-08 -0.000998435 0)
(-4.26468e-08 -0.000998443 0)
(-7.08318e-08 -0.000998063 0)
(2.81089e-09 -0.000997806 0)
(6.81732e-08 -0.000998087 0)
(3.75593e-08 -0.000998433 0)
(-4.3154e-08 -0.000998441 0)
(-7.22787e-08 -0.000998064 0)
(2.84437e-09 -0.000997808 0)
(6.96661e-08 -0.000998087 0)
(3.81093e-08 -0.000998431 0)
(-4.35052e-08 -0.000998439 0)
(-7.34031e-08 -0.000998065 0)
(2.86453e-09 -0.000997811 0)
(7.08394e-08 -0.000998088 0)
(3.85165e-08 -0.000998429 0)
(-4.37149e-08 -0.000998437 0)
(-7.4233e-08 -0.000998065 0)
(2.87269e-09 -0.000997813 0)
(7.17206e-08 -0.000998089 0)
(3.87938e-08 -0.000998427 0)
(-4.37983e-08 -0.000998435 0)
(-7.47968e-08 -0.000998066 0)
(2.87023e-09 -0.000997816 0)
(7.23373e-08 -0.000998089 0)
(3.89542e-08 -0.000998425 0)
(-4.37704e-08 -0.000998433 0)
(-7.51235e-08 -0.000998067 0)
(2.85851e-09 -0.000997819 0)
(7.27177e-08 -0.00099809 0)
(3.9011e-08 -0.000998423 0)
(-4.3647e-08 -0.000998431 0)
(-7.52423e-08 -0.000998068 0)
(2.83893e-09 -0.000997821 0)
(7.28903e-08 -0.000998091 0)
(3.89779e-08 -0.000998421 0)
(-4.3444e-08 -0.000998429 0)
(-7.51831e-08 -0.000998069 0)
(2.81293e-09 -0.000997824 0)
(7.28844e-08 -0.000998091 0)
(3.88688e-08 -0.000998419 0)
(-4.31777e-08 -0.000998426 0)
(-7.49767e-08 -0.00099807 0)
(2.78197e-09 -0.000997827 0)
(7.27298e-08 -0.000998092 0)
(3.86979e-08 -0.000998417 0)
(-4.2865e-08 -0.000998424 0)
(-7.46543e-08 -0.00099807 0)
(2.74756e-09 -0.00099783 0)
(7.24572e-08 -0.000998093 0)
(3.84801e-08 -0.000998415 0)
(-4.25235e-08 -0.000998422 0)
(-7.42484e-08 -0.000998071 0)
(2.71126e-09 -0.000997832 0)
(7.20979e-08 -0.000998093 0)
(3.82306e-08 -0.000998413 0)
(-4.21713e-08 -0.00099842 0)
(-7.37921e-08 -0.000998072 0)
(2.67468e-09 -0.000997835 0)
(7.16846e-08 -0.000998094 0)
(3.79652e-08 -0.00099841 0)
(-4.18269e-08 -0.000998417 0)
(-7.33199e-08 -0.000998073 0)
(2.63951e-09 -0.000997838 0)
(7.12506e-08 -0.000998095 0)
(3.77001e-08 -0.000998408 0)
(-4.15102e-08 -0.000998415 0)
(-7.28675e-08 -0.000998074 0)
(2.60754e-09 -0.000997841 0)
(7.08307e-08 -0.000998095 0)
(3.74525e-08 -0.000998406 0)
(-4.12428e-08 -0.000998413 0)
(-7.2474e-08 -0.000998075 0)
(2.58068e-09 -0.000997844 0)
(7.0463e-08 -0.000998096 0)
(3.72411e-08 -0.000998404 0)
(-4.105e-08 -0.00099841 0)
(-7.21843e-08 -0.000998076 0)
(2.56114e-09 -0.000997847 0)
(7.01915e-08 -0.000998097 0)
(3.70881e-08 -0.000998402 0)
(-4.09564e-08 -0.000998408 0)
(-7.20421e-08 -0.000998077 0)
(2.55111e-09 -0.00099785 0)
(7.00583e-08 -0.000998097 0)
(3.70146e-08 -0.0009984 0)
)
;

boundaryField
{
    BotWall
    {
        type            fixedValue;
        value           uniform (0 0 0);
    }
    FreeStream
    {
        type            zeroGradient;
    }
    FrontNBack
    {
        type            empty;
    }
    LeftSide
    {
        type            symmetryPlane;
    }
    RightSide
    {
        type            symmetryPlane;
    }
}


// ************************************************************************* //
