/*--------------------------------*- C++ -*----------------------------------*\
| =========                 |                                                 |
| \\      /  F ield         | OpenFOAM: The Open Source CFD Toolbox           |
|  \\    /   O peration     | Version:  2.4.0                                 |
|   \\  /    A nd           | Web:      www.OpenFOAM.org                      |
|    \\/     M anipulation  |                                                 |
\*---------------------------------------------------------------------------*/
FoamFile
{
    version     2.0;
    format      ascii;
    class       volScalarField;
    location    "1.6";
    object      H;
}
// * * * * * * * * * * * * * * * * * * * * * * * * * * * * * * * * * * * * * //

dimensions      [0 2 -2 0 0 0 0];

internalField   nonuniform List<scalar> 
125
(
-13.2823
-13.282
-13.2817
-13.2818
-13.2823
-12.7688
-12.7685
-12.7682
-12.7684
-12.7688
-12.248
-12.2477
-12.2475
-12.2476
-12.248
-11.7206
-11.7203
-11.7201
-11.7202
-11.7206
-11.1872
-11.1869
-11.1867
-11.1868
-11.1872
-10.6484
-10.6481
-10.6479
-10.648
-10.6483
-10.1048
-10.1045
-10.1043
-10.1044
-10.1047
-9.55705
-9.55682
-9.55665
-9.55675
-9.55704
-9.00588
-9.00567
-9.00551
-9.0056
-9.00587
-8.45191
-8.45171
-8.45157
-8.45165
-8.4519
-7.89581
-7.89563
-7.89549
-7.89557
-7.89579
-7.33823
-7.33807
-7.33794
-7.33802
-7.33822
-6.77986
-6.77971
-6.7796
-6.77966
-6.77985
-6.22136
-6.22123
-6.22112
-6.22118
-6.22135
-5.6634
-5.66328
-5.66319
-5.66324
-5.6634
-5.10666
-5.10655
-5.10646
-5.10651
-5.10665
-4.55178
-4.55169
-4.55162
-4.55166
-4.55178
-3.99945
-3.99937
-3.99931
-3.99934
-3.99945
-3.45033
-3.45026
-3.4502
-3.45023
-3.45032
-2.90506
-2.905
-2.90496
-2.90498
-2.90506
-2.36432
-2.36427
-2.36423
-2.36426
-2.36432
-1.82875
-1.82871
-1.82869
-1.8287
-1.82875
-1.29901
-1.29899
-1.29897
-1.29898
-1.29901
-0.775758
-0.775742
-0.775731
-0.775737
-0.775757
-0.259641
-0.259636
-0.259632
-0.259634
-0.259641
)
;

boundaryField
{
    BotWall
    {
        type            zeroGradient;
    }
    FreeStream
    {
        type            zeroGradient;
    }
    FrontNBack
    {
        type            empty;
    }
    LeftSide
    {
        type            symmetryPlane;
    }
    RightSide
    {
        type            symmetryPlane;
    }
    procBoundary3to2
    {
        type            processor;
        value           nonuniform List<scalar> 5(-13.7871 -13.7867 -13.7864 -13.7866 -13.7871);
    }
}


// ************************************************************************* //
