/*--------------------------------*- C++ -*----------------------------------*\
| =========                 |                                                 |
| \\      /  F ield         | OpenFOAM: The Open Source CFD Toolbox           |
|  \\    /   O peration     | Version:  2.4.0                                 |
|   \\  /    A nd           | Web:      www.OpenFOAM.org                      |
|    \\/     M anipulation  |                                                 |
\*---------------------------------------------------------------------------*/
FoamFile
{
    version     2.0;
    format      ascii;
    class       volScalarField;
    location    "1.6";
    object      p_rgh;
}
// * * * * * * * * * * * * * * * * * * * * * * * * * * * * * * * * * * * * * //

dimensions      [1 -1 -2 0 0 0 0];

internalField   nonuniform List<scalar> 
125
(
-1.38399e-05
-1.38397e-05
-1.38397e-05
-1.38397e-05
-1.38399e-05
-1.38056e-05
-1.38054e-05
-1.38054e-05
-1.38055e-05
-1.38056e-05
-1.3771e-05
-1.37708e-05
-1.37708e-05
-1.37708e-05
-1.3771e-05
-1.37359e-05
-1.37358e-05
-1.37358e-05
-1.37358e-05
-1.3736e-05
-1.37005e-05
-1.37004e-05
-1.37004e-05
-1.37004e-05
-1.37005e-05
-1.36648e-05
-1.36646e-05
-1.36646e-05
-1.36647e-05
-1.36648e-05
-1.36286e-05
-1.36285e-05
-1.36284e-05
-1.36285e-05
-1.36286e-05
-1.3592e-05
-1.35919e-05
-1.35919e-05
-1.35919e-05
-1.3592e-05
-1.3555e-05
-1.35549e-05
-1.35549e-05
-1.35549e-05
-1.3555e-05
-1.35176e-05
-1.35175e-05
-1.35175e-05
-1.35175e-05
-1.35176e-05
-1.34798e-05
-1.34797e-05
-1.34797e-05
-1.34797e-05
-1.34798e-05
-1.34416e-05
-1.34415e-05
-1.34415e-05
-1.34415e-05
-1.34416e-05
-1.34029e-05
-1.34029e-05
-1.34028e-05
-1.34029e-05
-1.34029e-05
-1.33638e-05
-1.33638e-05
-1.33638e-05
-1.33638e-05
-1.33639e-05
-1.33243e-05
-1.33243e-05
-1.33243e-05
-1.33243e-05
-1.33243e-05
-1.32844e-05
-1.32844e-05
-1.32844e-05
-1.32844e-05
-1.32844e-05
-1.3244e-05
-1.3244e-05
-1.3244e-05
-1.3244e-05
-1.3244e-05
-1.32032e-05
-1.32032e-05
-1.32032e-05
-1.32032e-05
-1.32032e-05
-1.31619e-05
-1.31619e-05
-1.31619e-05
-1.31619e-05
-1.31619e-05
-1.31201e-05
-1.31201e-05
-1.31202e-05
-1.31201e-05
-1.31202e-05
-1.30779e-05
-1.3078e-05
-1.3078e-05
-1.30779e-05
-1.3078e-05
-1.30353e-05
-1.30353e-05
-1.30353e-05
-1.30353e-05
-1.30353e-05
-1.29921e-05
-1.29922e-05
-1.29922e-05
-1.29921e-05
-1.29921e-05
-1.29485e-05
-1.29485e-05
-1.29486e-05
-1.29485e-05
-1.29485e-05
-1.29044e-05
-1.29044e-05
-1.29045e-05
-1.29044e-05
-1.29044e-05
)
;

boundaryField
{
    BotWall
    {
        type            fixedFluxPressure;
        gradient        nonuniform 0();
        value           nonuniform 0();
    }
    FreeStream
    {
        type            totalPressure;
        rho             rho;
        psi             none;
        gamma           1;
        p0              uniform 0;
        value           nonuniform List<scalar> 5(-1.28822e-05 -1.28823e-05 -1.28823e-05 -1.28822e-05 -1.28822e-05);
    }
    FrontNBack
    {
        type            empty;
    }
    LeftSide
    {
        type            symmetryPlane;
    }
    RightSide
    {
        type            symmetryPlane;
    }
    procBoundary3to2
    {
        type            processor;
        value           nonuniform List<scalar> 5(-1.38738e-05 -1.38736e-05 -1.38736e-05 -1.38736e-05 -1.38739e-05);
    }
}


// ************************************************************************* //
