/*--------------------------------*- C++ -*----------------------------------*\
| =========                 |                                                 |
| \\      /  F ield         | OpenFOAM: The Open Source CFD Toolbox           |
|  \\    /   O peration     | Version:  2.4.0                                 |
|   \\  /    A nd           | Web:      www.OpenFOAM.org                      |
|    \\/     M anipulation  |                                                 |
\*---------------------------------------------------------------------------*/
FoamFile
{
    version     2.0;
    format      ascii;
    class       volScalarField;
    location    "0.003";
    object      H;
}
// * * * * * * * * * * * * * * * * * * * * * * * * * * * * * * * * * * * * * //

dimensions      [0 2 -2 0 0 0 0];

internalField   nonuniform List<scalar> 
125
(
-0.0136338
-0.0114991
-0.00967818
-0.00812836
-0.00681214
-0.00569678
-0.00475371
-0.00395809
-0.00328838
-0.00272593
-0.00225463
-0.00186062
-0.00153199
-0.00125851
-0.00103148
-0.000843439
-0.000688067
-0.000559996
-0.000454681
-0.00036829
-0.000297596
-0.000239888
-0.000192898
-0.000154731
-0.000123808
-9.88176e-05
-7.86729e-05
-6.24761e-05
-4.94871e-05
-3.90978e-05
-3.08095e-05
-2.42149e-05
-1.89818e-05
-1.48403e-05
-1.15714e-05
-8.99833e-06
-6.97848e-06
-5.3973e-06
-4.16289e-06
-3.20196e-06
-2.45598e-06
-1.87851e-06
-1.43278e-06
-1.08967e-06
-8.26389e-07
-6.24903e-07
-4.71163e-07
-3.54218e-07
-2.65519e-07
-1.98425e-07
-1.47847e-07
-1.0985e-07
-8.13405e-08
-6.00784e-08
-4.42209e-08
-3.24439e-08
-2.37451e-08
-1.73097e-08
-1.2582e-08
-9.12568e-09
-6.58555e-09
-4.74233e-09
-3.40775e-09
-2.43363e-09
-1.73804e-09
-1.2237e-09
-8.8583e-10
-5.93129e-10
-4.62682e-10
-2.63559e-10
-2.29395e-10
-1.60133e-10
-9.83601e-11
-3.91189e-11
-6.5103e-11
-4.09956e-11
-6.05026e-11
-4.01882e-11
1.60525e-12
7.92113e-13
-5.25656e-14
-2.51915e-14
-1.0014e-15
1.86833e-17
-7.29453e-17
-1.38626e-17
-7.94642e-19
-1.86561e-19
-6.68155e-20
-9.14917e-21
-7.89963e-22
-1.8432e-22
-4.42798e-23
-5.98608e-24
-7.06024e-25
-1.3642e-25
-2.63629e-26
-3.85651e-27
-5.47647e-28
-9.15933e-29
-1.52893e-29
-2.37377e-30
-3.70745e-31
-5.85274e-32
-9.03167e-33
-1.40789e-33
-2.24305e-34
-3.48439e-35
-5.25341e-36
-8.04425e-37
-1.25501e-37
-1.92073e-38
-2.87333e-39
-4.3164e-40
-6.53615e-41
-9.79384e-42
-1.44682e-42
-2.13077e-43
-3.13741e-44
-4.58835e-45
-6.64965e-46
-9.58222e-47
-1.37485e-47
-1.95642e-48
-2.62541e-49
)
;

boundaryField
{
    BotWall
    {
        type            zeroGradient;
    }
    FreeStream
    {
        type            zeroGradient;
    }
    FrontNBack
    {
        type            empty;
    }
    LeftSide
    {
        type            symmetryPlane;
    }
    RightSide
    {
        type            symmetryPlane;
    }
    procBoundary3to0
    {
        type            processor;
        value           nonuniform List<scalar> 
50
(
-4.10246e-11
-5.11329e-11
-4.03924e-11
-2.74703e-12
3.72659e-13
-6.54068e-14
-3.23644e-14
-2.94082e-15
-1.59036e-16
-8.74871e-17
-1.99014e-17
-2.00419e-18
-2.8676e-19
-8.232e-20
-1.43762e-20
-1.5517e-21
-2.31435e-22
-5.53241e-23
-9.78281e-24
-1.23316e-24
-1.70539e-25
-3.24678e-26
-5.76121e-27
-8.30904e-28
-1.15882e-28
-1.85217e-29
-3.07211e-30
-4.68614e-31
-6.77126e-32
-1.00446e-32
-1.53769e-33
-2.31479e-34
-3.3759e-35
-4.87539e-36
-7.08005e-37
-1.02595e-37
-1.467e-38
-2.0706e-39
-2.90331e-40
-4.05279e-41
-5.61362e-42
-7.69461e-43
-1.04509e-43
-1.40973e-44
-1.88758e-45
-2.50382e-46
-3.29049e-47
-4.29147e-48
-5.55463e-49
-7.12397e-50
)
;
    }
    procBoundary3to1
    {
        type            processor;
        value           nonuniform List<scalar> 
75
(
-0.0139311
-0.01175
-0.00988961
-0.00830613
-0.0069613
-0.00582166
-0.00485803
-0.00404506
-0.00336073
-0.00278598
-0.00230436
-0.00190172
-0.00156587
-0.00128638
-0.00105435
-0.000862166
-0.000703366
-0.000572464
-0.000464819
-0.000376513
-0.00030425
-0.00024526
-0.000197224
-0.000158206
-0.000126592
-0.000101043
-8.04469e-05
-6.38868e-05
-5.06061e-05
-3.99831e-05
-3.15081e-05
-2.47648e-05
-1.94134e-05
-1.51782e-05
-1.18352e-05
-9.20375e-06
-7.13801e-06
-5.52084e-06
-4.2583e-06
-3.27544e-06
-2.51242e-06
-1.92171e-06
-1.46577e-06
-1.11481e-06
-8.45464e-07
-6.39354e-07
-4.82054e-07
-3.62427e-07
-2.7168e-07
-2.03025e-07
-1.51296e-07
-1.12384e-07
-8.3257e-08
-6.14706e-08
-4.5244e-08
-3.32069e-08
-2.4302e-08
-1.77161e-08
-1.28817e-08
-9.3347e-09
-6.74213e-09
-4.86424e-09
-3.47743e-09
-2.48481e-09
-1.77399e-09
-1.26171e-09
-8.89919e-10
-6.23883e-10
-4.62508e-10
-2.75928e-10
-2.37605e-10
-1.64234e-10
-1.00635e-10
-4.68782e-11
-6.20795e-11
)
;
    }
    procBoundary3to2
    {
        type            processor;
        value           uniform -1.45198e-56;
    }
    procBoundary3to4
    {
        type            processor;
        value           uniform -0.0161313;
    }
    procBoundary3to5
    {
        type            processor;
        value           nonuniform List<scalar> 
75
(
-1.47256e-07
-1.09381e-07
-8.10284e-08
-5.98275e-08
-4.40418e-08
-3.23158e-08
-2.36288e-08
-1.72593e-08
-1.2537e-08
-9.08859e-09
-6.55584e-09
-4.71812e-09
-3.39902e-09
-2.42956e-09
-1.72099e-09
-1.22165e-09
-8.76541e-10
-5.88843e-10
-4.58386e-10
-2.70281e-10
-2.42338e-10
-1.45676e-10
-9.51181e-11
-5.03012e-11
-6.12363e-11
-4.51418e-11
-5.01019e-11
-4.39894e-11
2.33726e-12
8.31821e-13
-5.06932e-14
-2.29712e-14
-8.59022e-16
4.2448e-17
-5.94384e-17
-1.34647e-17
-1.2017e-18
-2.15004e-19
-6.23642e-20
-1.01684e-20
-1.31851e-21
-2.50253e-22
-4.87495e-23
-7.38495e-24
-1.13692e-24
-2.05293e-25
-3.41865e-26
-5.11112e-27
-8.24982e-28
-1.40787e-28
-2.20081e-29
-3.28796e-30
-5.25796e-31
-8.56806e-32
-1.30733e-32
-1.94381e-33
-3.01234e-34
-4.72168e-35
-7.122e-36
-1.05186e-36
-1.5785e-37
-2.38948e-38
-3.55555e-39
-5.20308e-40
-7.61672e-41
-1.11973e-41
-1.6359e-42
-2.36231e-43
-3.39144e-44
-4.86851e-45
-6.96886e-46
-9.89623e-47
-1.39554e-47
-1.9623e-48
-2.75133e-49
)
;
    }
    procBoundary3to6
    {
        type            processor;
        value           nonuniform List<scalar> 
50
(
-0.0135745
-0.0114493
-0.00963651
-0.00809354
-0.0067831
-0.00567261
-0.00473363
-0.00394145
-0.00327462
-0.00271457
-0.00224528
-0.00185294
-0.00152568
-0.00125336
-0.00102727
-0.000840007
-0.000685277
-0.000557733
-0.00045285
-0.000366811
-0.000296404
-0.00023893
-0.00019213
-0.000154116
-0.000123317
-9.84267e-05
-7.83623e-05
-6.22298e-05
-4.92924e-05
-3.89441e-05
-3.06886e-05
-2.412e-05
-1.89075e-05
-1.47822e-05
-1.15262e-05
-8.96318e-06
-6.95121e-06
-5.37622e-06
-4.14664e-06
-3.18946e-06
-2.44639e-06
-1.87116e-06
-1.42716e-06
-1.08542e-06
-8.23156e-07
-6.22432e-07
-4.69312e-07
-3.52818e-07
-2.64448e-07
-1.97645e-07
)
;
    }
}


// ************************************************************************* //
