/*--------------------------------*- C++ -*----------------------------------*\
| =========                 |                                                 |
| \\      /  F ield         | OpenFOAM: The Open Source CFD Toolbox           |
|  \\    /   O peration     | Version:  2.4.0                                 |
|   \\  /    A nd           | Web:      www.OpenFOAM.org                      |
|    \\/     M anipulation  |                                                 |
\*---------------------------------------------------------------------------*/
FoamFile
{
    version     2.0;
    format      ascii;
    class       volScalarField;
    location    "0.003";
    object      p_rgh;
}
// * * * * * * * * * * * * * * * * * * * * * * * * * * * * * * * * * * * * * //

dimensions      [1 -1 -2 0 0 0 0];

internalField   nonuniform List<scalar> 
125
(
-0.127416
-0.126761
-0.126107
-0.125455
-0.124804
-0.124156
-0.123509
-0.122864
-0.122221
-0.12158
-0.120941
-0.120304
-0.119668
-0.119034
-0.118402
-0.117772
-0.117144
-0.116517
-0.115892
-0.115269
-0.114647
-0.114028
-0.11341
-0.112793
-0.112178
-0.111565
-0.110954
-0.110344
-0.109736
-0.109129
-0.108524
-0.10792
-0.107318
-0.106717
-0.106118
-0.105521
-0.104925
-0.10433
-0.103737
-0.103145
-0.102554
-0.101965
-0.101378
-0.100791
-0.100206
-0.0996226
-0.0990401
-0.098459
-0.097879
-0.0973004
-0.0967229
-0.0961466
-0.0955715
-0.0949975
-0.0944247
-0.093853
-0.0932824
-0.0927129
-0.0921445
-0.091577
-0.0910106
-0.0904453
-0.0898808
-0.0893174
-0.0887549
-0.0881933
-0.0876326
-0.0870728
-0.0865138
-0.0859557
-0.0853984
-0.0848419
-0.0842862
-0.0837312
-0.083177
-0.0826235
-0.0820707
-0.0815185
-0.080967
-0.0804162
-0.0798659
-0.0793163
-0.0787672
-0.0782186
-0.0776706
-0.0771231
-0.0765761
-0.0760296
-0.0754834
-0.0749377
-0.0743924
-0.0738475
-0.073303
-0.0727587
-0.0722148
-0.0716712
-0.0711279
-0.0705848
-0.0700419
-0.0694992
-0.0689568
-0.0684144
-0.0678723
-0.0673302
-0.0667882
-0.0662464
-0.0657045
-0.0651627
-0.0646209
-0.0640791
-0.0635373
-0.0629954
-0.0624534
-0.0619113
-0.0613691
-0.0608268
-0.0602843
-0.0597416
-0.0591987
-0.0586556
-0.0581122
-0.0575684
-0.057024
-0.0564791
-0.0559335
)
;

boundaryField
{
    BotWall
    {
        type            fixedFluxPressure;
        gradient        nonuniform 0();
        value           nonuniform 0();
    }
    FreeStream
    {
        type            totalPressure;
        rho             rho;
        psi             none;
        gamma           1;
        p0              nonuniform 0();
        value           nonuniform 0();
    }
    FrontNBack
    {
        type            empty;
    }
    LeftSide
    {
        type            symmetryPlane;
    }
    RightSide
    {
        type            symmetryPlane;
    }
    procBoundary3to0
    {
        type            processor;
        value           nonuniform List<scalar> 
50
(
-0.0657126
-0.0654209
-0.0651268
-0.0648304
-0.0645317
-0.0642307
-0.0639274
-0.0636218
-0.0633139
-0.0630037
-0.0626911
-0.0623763
-0.0620591
-0.0617396
-0.0614178
-0.0610937
-0.0607673
-0.0604386
-0.0601076
-0.0597743
-0.0594387
-0.0591007
-0.0587605
-0.058418
-0.0580732
-0.0577261
-0.0573767
-0.057025
-0.0566711
-0.0563148
-0.0559563
-0.0555954
-0.0552323
-0.0548669
-0.0544993
-0.0541293
-0.0537571
-0.0533826
-0.0530059
-0.0526268
-0.0522455
-0.0518619
-0.0514761
-0.051088
-0.0506976
-0.050305
-0.0499101
-0.0495129
-0.0491135
-0.0487118
)
;
    }
    procBoundary3to1
    {
        type            processor;
        value           nonuniform List<scalar> 
75
(
-0.0807239
-0.0806116
-0.080497
-0.0803801
-0.0802608
-0.0801391
-0.080015
-0.0798886
-0.0797598
-0.0796287
-0.0794951
-0.0793592
-0.0792209
-0.0790803
-0.0789372
-0.0787918
-0.078644
-0.0784939
-0.0783413
-0.0781864
-0.078029
-0.0778693
-0.0777073
-0.0775428
-0.0773759
-0.0772067
-0.0770351
-0.0768611
-0.0766847
-0.076506
-0.0763248
-0.0761413
-0.0759554
-0.0757671
-0.0755764
-0.0753833
-0.0751879
-0.0749901
-0.0747899
-0.0745873
-0.0743823
-0.074175
-0.0739653
-0.0737532
-0.0735387
-0.0733218
-0.0731026
-0.072881
-0.072657
-0.0724307
-0.0722019
-0.0719709
-0.0717374
-0.0715016
-0.0712634
-0.0710228
-0.0707799
-0.0705346
-0.070287
-0.0700369
-0.0697846
-0.0695298
-0.0692728
-0.0690133
-0.0687515
-0.0684874
-0.0682209
-0.067952
-0.0676808
-0.0674073
-0.0671314
-0.066853
-0.066572
-0.0662882
-0.0660017
)
;
    }
    procBoundary3to2
    {
        type            processor;
        value           uniform -0.0553874;
    }
    procBoundary3to4
    {
        type            processor;
        value           uniform -0.128073;
    }
    procBoundary3to5
    {
        type            processor;
        value           nonuniform List<scalar> 
75
(
-0.0697735
-0.0696062
-0.0694353
-0.0692608
-0.069083
-0.0689017
-0.0687169
-0.0685287
-0.068337
-0.0681419
-0.0679434
-0.0677415
-0.0675362
-0.0673275
-0.0671155
-0.0669001
-0.0666813
-0.0664592
-0.0662338
-0.0660051
-0.0657731
-0.0655378
-0.0652992
-0.0650573
-0.0648123
-0.064564
-0.0643124
-0.0640577
-0.0637998
-0.0635387
-0.0632744
-0.0630069
-0.0627364
-0.0624626
-0.0621858
-0.0619059
-0.0616228
-0.0613367
-0.0610475
-0.0607553
-0.06046
-0.0601617
-0.0598603
-0.059556
-0.0592486
-0.0589383
-0.058625
-0.0583087
-0.0579895
-0.0576673
-0.0573422
-0.0570142
-0.0566833
-0.0563495
-0.0560129
-0.0556733
-0.0553309
-0.0549857
-0.0546376
-0.0542867
-0.053933
-0.0535765
-0.0532172
-0.0528552
-0.0524903
-0.0521227
-0.0517524
-0.0513793
-0.0510035
-0.050625
-0.0502437
-0.0498598
-0.0494732
-0.0490839
-0.048692
)
;
    }
    procBoundary3to6
    {
        type            processor;
        value           nonuniform List<scalar> 
50
(
-0.0733076
-0.0733321
-0.0733525
-0.0733689
-0.0733814
-0.0733899
-0.0733944
-0.0733949
-0.0733914
-0.0733841
-0.0733727
-0.0733574
-0.0733382
-0.073315
-0.073288
-0.073257
-0.0732221
-0.0731833
-0.0731406
-0.073094
-0.0730436
-0.0729893
-0.0729311
-0.0728691
-0.0728032
-0.0727336
-0.0726601
-0.0725828
-0.0725017
-0.0724168
-0.0723281
-0.0722357
-0.0721395
-0.0720395
-0.0719358
-0.0718284
-0.0717173
-0.0716025
-0.071484
-0.0713618
-0.0712359
-0.0711064
-0.0709732
-0.0708364
-0.070696
-0.0705519
-0.0704041
-0.0702524
-0.0700967
-0.069937
)
;
    }
}


// ************************************************************************* //
