/*--------------------------------*- C++ -*----------------------------------*\
| =========                 |                                                 |
| \\      /  F ield         | OpenFOAM: The Open Source CFD Toolbox           |
|  \\    /   O peration     | Version:  2.4.0                                 |
|   \\  /    A nd           | Web:      www.OpenFOAM.org                      |
|    \\/     M anipulation  |                                                 |
\*---------------------------------------------------------------------------*/
FoamFile
{
    version     2.0;
    format      ascii;
    class       volScalarField;
    location    "0.009";
    object      p;
}
// * * * * * * * * * * * * * * * * * * * * * * * * * * * * * * * * * * * * * //

dimensions      [1 -1 -2 0 0 0 0];

internalField   nonuniform List<scalar> 
125
(
-0.0397154
-0.039975
-0.0402355
-0.0404969
-0.0407593
-0.0410227
-0.0412871
-0.0415524
-0.0418187
-0.042086
-0.0423543
-0.0426236
-0.0428938
-0.0431651
-0.0434373
-0.0437106
-0.0439848
-0.0442601
-0.0445364
-0.0448137
-0.045092
-0.0453714
-0.0456517
-0.0459331
-0.0462156
-0.0464991
-0.0467836
-0.0470691
-0.0473558
-0.0476435
-0.0479322
-0.048222
-0.0485129
-0.0488048
-0.0490978
-0.0493919
-0.0496871
-0.0499834
-0.0502807
-0.0505792
-0.0508787
-0.0511794
-0.0514811
-0.051784
-0.052088
-0.0523931
-0.0526993
-0.0530067
-0.0533151
-0.0536248
-0.0539355
-0.0542474
-0.0545605
-0.0548747
-0.05519
-0.0555066
-0.0558243
-0.0561431
-0.0564632
-0.0567844
-0.0571068
-0.0574303
-0.0577551
-0.0580811
-0.0584083
-0.0587366
-0.0590662
-0.059397
-0.059729
-0.0600623
-0.0603967
-0.0607324
-0.0610693
-0.0614075
-0.0617469
-0.0620876
-0.0624295
-0.0627727
-0.0631171
-0.0634628
-0.0638098
-0.0641581
-0.0645076
-0.0648585
-0.0652106
-0.065564
-0.0659187
-0.0662747
-0.0666321
-0.0669907
-0.0673507
-0.067712
-0.0680746
-0.0684386
-0.0688039
-0.0691705
-0.0695385
-0.0699079
-0.0702786
-0.0706507
-0.0710241
-0.0713989
-0.0717751
-0.0721527
-0.0725317
-0.0729121
-0.0732938
-0.073677
-0.0740616
-0.0744476
-0.074835
-0.0752239
-0.0756141
-0.0760059
-0.076399
-0.0767936
-0.0771897
-0.0775872
-0.0779862
-0.0783867
-0.0787886
-0.079192
-0.0795969
-0.0800032
-0.0804111
)
;

boundaryField
{
    BotWall
    {
        type            calculated;
        value           nonuniform 0();
    }
    FreeStream
    {
        type            calculated;
        value           nonuniform 0();
    }
    FrontNBack
    {
        type            empty;
    }
    LeftSide
    {
        type            symmetryPlane;
    }
    RightSide
    {
        type            symmetryPlane;
    }
    procBoundary5to2
    {
        type            processor;
        value           nonuniform List<scalar> 
50
(
-0.0620894
-0.0624313
-0.0627744
-0.0631189
-0.0634645
-0.0638115
-0.0641597
-0.0645093
-0.0648601
-0.0652122
-0.0655656
-0.0659203
-0.0662763
-0.0666336
-0.0669922
-0.0673522
-0.0677134
-0.068076
-0.06844
-0.0688053
-0.0691719
-0.0695399
-0.0699092
-0.0702799
-0.0706519
-0.0710254
-0.0714001
-0.0717763
-0.0721539
-0.0725328
-0.0729132
-0.0732949
-0.0736781
-0.0740627
-0.0744486
-0.074836
-0.0752249
-0.0756151
-0.0760068
-0.0763999
-0.0767945
-0.0771906
-0.0775881
-0.077987
-0.0783874
-0.0787893
-0.0791927
-0.0795976
-0.080004
-0.0804118
)
;
    }
    procBoundary5to3
    {
        type            processor;
        value           nonuniform List<scalar> 
75
(
-0.039719
-0.0399785
-0.040239
-0.0405004
-0.0407628
-0.0410262
-0.0412905
-0.0415559
-0.0418222
-0.0420894
-0.0423577
-0.0426269
-0.0428972
-0.0431684
-0.0434406
-0.0437139
-0.0439881
-0.0442633
-0.0445396
-0.0448169
-0.0450952
-0.0453745
-0.0456549
-0.0459362
-0.0462187
-0.0465021
-0.0467866
-0.0470722
-0.0473588
-0.0476464
-0.0479351
-0.0482249
-0.0485158
-0.0488077
-0.0491007
-0.0493948
-0.0496899
-0.0499861
-0.0502835
-0.0505819
-0.0508814
-0.0511821
-0.0514838
-0.0517866
-0.0520906
-0.0523957
-0.0527019
-0.0530092
-0.0533177
-0.0536273
-0.053938
-0.0542499
-0.0545629
-0.0548771
-0.0551924
-0.0555089
-0.0558266
-0.0561454
-0.0564654
-0.0567866
-0.057109
-0.0574325
-0.0577573
-0.0580832
-0.0584104
-0.0587387
-0.0590683
-0.059399
-0.059731
-0.0600642
-0.0603987
-0.0607343
-0.0610712
-0.0614094
-0.0617487
)
;
    }
    procBoundary5to4
    {
        type            processor;
        value           uniform -0.0808205;
    }
    procBoundary5to6
    {
        type            processor;
        value           uniform -0.0394568;
    }
    procBoundary5to7
    {
        type            processor;
        value           nonuniform List<scalar> 
75
(
-0.0539338
-0.0542457
-0.0545588
-0.054873
-0.0551884
-0.0555049
-0.0558226
-0.0561415
-0.0564615
-0.0567828
-0.0571052
-0.0574288
-0.0577535
-0.0580795
-0.0584067
-0.0587351
-0.0590647
-0.0593955
-0.0597275
-0.0600608
-0.0603952
-0.0607309
-0.0610679
-0.0614061
-0.0617455
-0.0620862
-0.0624281
-0.0627713
-0.0631157
-0.0634614
-0.0638084
-0.0641567
-0.0645063
-0.0648571
-0.0652092
-0.0655626
-0.0659174
-0.0662734
-0.0666307
-0.0669894
-0.0673494
-0.0677107
-0.0680733
-0.0684373
-0.0688026
-0.0691692
-0.0695372
-0.0699066
-0.0702773
-0.0706494
-0.0710228
-0.0713976
-0.0717738
-0.0721514
-0.0725304
-0.0729108
-0.0732925
-0.0736757
-0.0740603
-0.0744463
-0.0748337
-0.0752226
-0.0756128
-0.0760046
-0.0763977
-0.0767923
-0.0771884
-0.0775859
-0.0779849
-0.0783853
-0.0787872
-0.0791906
-0.0795955
-0.0800019
-0.0804098
)
;
    }
    procBoundary5to8
    {
        type            processor;
        value           nonuniform List<scalar> 
50
(
-0.0397125
-0.039972
-0.0402326
-0.0404941
-0.0407565
-0.04102
-0.0412843
-0.0415497
-0.0418161
-0.0420834
-0.0423517
-0.042621
-0.0428913
-0.0431625
-0.0434348
-0.0437081
-0.0439824
-0.0442577
-0.044534
-0.0448113
-0.0450897
-0.045369
-0.0456494
-0.0459309
-0.0462133
-0.0464968
-0.0467814
-0.047067
-0.0473536
-0.0476413
-0.0479301
-0.0482199
-0.0485108
-0.0488028
-0.0490958
-0.0493899
-0.0496851
-0.0499814
-0.0502788
-0.0505772
-0.0508768
-0.0511775
-0.0514793
-0.0517821
-0.0520861
-0.0523913
-0.0526975
-0.0530049
-0.0533134
-0.053623
)
;
    }
}


// ************************************************************************* //
