/*--------------------------------*- C++ -*----------------------------------*\
| =========                 |                                                 |
| \\      /  F ield         | OpenFOAM: The Open Source CFD Toolbox           |
|  \\    /   O peration     | Version:  2.4.0                                 |
|   \\  /    A nd           | Web:      www.OpenFOAM.org                      |
|    \\/     M anipulation  |                                                 |
\*---------------------------------------------------------------------------*/
FoamFile
{
    version     2.0;
    format      ascii;
    class       surfaceScalarField;
    location    "0.009";
    object      phi;
}
// * * * * * * * * * * * * * * * * * * * * * * * * * * * * * * * * * * * * * //

dimensions      [0 3 -1 0 0 0 0];

internalField   nonuniform List<scalar> 
124
(
-4.04768e-09
-4.04766e-09
-4.04765e-09
-4.04764e-09
-4.04763e-09
-4.04762e-09
-4.0476e-09
-4.04759e-09
-4.04758e-09
-4.04757e-09
-4.04756e-09
-4.04754e-09
-4.04753e-09
-4.04752e-09
-4.04751e-09
-4.0475e-09
-4.04749e-09
-4.04748e-09
-4.04746e-09
-4.04745e-09
-4.04744e-09
-4.04743e-09
-4.04742e-09
-4.04741e-09
-4.0474e-09
-4.04739e-09
-4.04738e-09
-4.04737e-09
-4.04736e-09
-4.04735e-09
-4.04734e-09
-4.04733e-09
-4.04732e-09
-4.04731e-09
-4.0473e-09
-4.04729e-09
-4.04728e-09
-4.04727e-09
-4.04726e-09
-4.04725e-09
-4.04724e-09
-4.04723e-09
-4.04722e-09
-4.04722e-09
-4.04721e-09
-4.0472e-09
-4.04719e-09
-4.04718e-09
-4.04717e-09
-4.04716e-09
-4.04715e-09
-4.04715e-09
-4.04714e-09
-4.04713e-09
-4.04712e-09
-4.04711e-09
-4.0471e-09
-4.0471e-09
-4.04709e-09
-4.04708e-09
-4.04707e-09
-4.04707e-09
-4.04706e-09
-4.04705e-09
-4.04704e-09
-4.04703e-09
-4.04703e-09
-4.04702e-09
-4.04701e-09
-4.04701e-09
-4.047e-09
-4.04699e-09
-4.04698e-09
-4.04698e-09
-4.04697e-09
-4.04696e-09
-4.04696e-09
-4.04695e-09
-4.04694e-09
-4.04694e-09
-4.04693e-09
-4.04693e-09
-4.04692e-09
-4.04691e-09
-4.04691e-09
-4.0469e-09
-4.0469e-09
-4.04689e-09
-4.04688e-09
-4.04688e-09
-4.04687e-09
-4.04687e-09
-4.04686e-09
-4.04686e-09
-4.04686e-09
-4.04685e-09
-4.04685e-09
-4.04684e-09
-4.04684e-09
-4.04684e-09
-4.04683e-09
-4.04683e-09
-4.04683e-09
-4.04682e-09
-4.04682e-09
-4.04682e-09
-4.04682e-09
-4.04682e-09
-4.04682e-09
-4.04681e-09
-4.04681e-09
-4.04681e-09
-4.04681e-09
-4.04681e-09
-4.04681e-09
-4.04681e-09
-4.04682e-09
-4.04682e-09
-4.04682e-09
-4.04682e-09
-4.04682e-09
-4.04683e-09
-4.04683e-09
-4.04683e-09
)
;

boundaryField
{
    BotWall
    {
        type            calculated;
        value           nonuniform 0();
    }
    FreeStream
    {
        type            calculated;
        value           nonuniform 0();
    }
    FrontNBack
    {
        type            empty;
        value           nonuniform 0();
    }
    LeftSide
    {
        type            symmetryPlane;
        value           nonuniform 0();
    }
    RightSide
    {
        type            symmetryPlane;
        value           nonuniform 0();
    }
    procBoundary5to2
    {
        type            processor;
        value           nonuniform List<scalar> 
50
(
-3.18262e-15
-3.17619e-15
-3.16973e-15
-3.16322e-15
-3.15664e-15
-3.14995e-15
-3.14313e-15
-3.13613e-15
-3.12893e-15
-3.12148e-15
-3.11374e-15
-3.10568e-15
-3.09723e-15
-3.08837e-15
-3.07905e-15
-3.06922e-15
-3.05885e-15
-3.04789e-15
-3.03631e-15
-3.02407e-15
-3.01114e-15
-2.9975e-15
-2.98312e-15
-2.96799e-15
-2.95209e-15
-2.93541e-15
-2.91796e-15
-2.89973e-15
-2.88073e-15
-2.86096e-15
-2.84042e-15
-2.81913e-15
-2.79707e-15
-2.77425e-15
-2.75065e-15
-2.72623e-15
-2.70096e-15
-2.67476e-15
-2.64754e-15
-2.61919e-15
-2.58957e-15
-2.55849e-15
-2.52577e-15
-2.49118e-15
-2.45446e-15
-2.41534e-15
-2.37355e-15
-2.32882e-15
-2.28087e-15
-2.2295e-15
)
;
    }
    procBoundary5to3
    {
        type            processor;
        value           nonuniform List<scalar> 
75
(
-3.09673e-15
-3.11758e-15
-3.13773e-15
-3.15717e-15
-3.1759e-15
-3.19392e-15
-3.21122e-15
-3.22781e-15
-3.24368e-15
-3.25883e-15
-3.27326e-15
-3.28698e-15
-3.29998e-15
-3.31227e-15
-3.32385e-15
-3.33473e-15
-3.34491e-15
-3.3544e-15
-3.3632e-15
-3.37133e-15
-3.37878e-15
-3.38558e-15
-3.39172e-15
-3.39721e-15
-3.40207e-15
-3.40632e-15
-3.40995e-15
-3.41299e-15
-3.41545e-15
-3.41733e-15
-3.41866e-15
-3.41945e-15
-3.41971e-15
-3.41946e-15
-3.41872e-15
-3.41749e-15
-3.4158e-15
-3.41366e-15
-3.41109e-15
-3.40811e-15
-3.40474e-15
-3.40099e-15
-3.39688e-15
-3.39244e-15
-3.38768e-15
-3.38262e-15
-3.37728e-15
-3.37169e-15
-3.36585e-15
-3.3598e-15
-3.35355e-15
-3.34713e-15
-3.34054e-15
-3.33381e-15
-3.32697e-15
-3.32003e-15
-3.31301e-15
-3.30593e-15
-3.2988e-15
-3.29166e-15
-3.2845e-15
-3.27735e-15
-3.27022e-15
-3.26312e-15
-3.25607e-15
-3.24907e-15
-3.24213e-15
-3.23526e-15
-3.22846e-15
-3.22173e-15
-3.21507e-15
-3.20848e-15
-3.20195e-15
-3.19548e-15
-3.18904e-15
)
;
    }
    procBoundary5to4
    {
        type            processor;
        value           uniform -4.04684e-09;
    }
    procBoundary5to6
    {
        type            processor;
        value           uniform 4.04769e-09;
    }
    procBoundary5to7
    {
        type            processor;
        value           nonuniform List<scalar> 
75
(
-5.16161e-15
-5.09722e-15
-5.03342e-15
-4.97018e-15
-4.90745e-15
-4.84517e-15
-4.7833e-15
-4.72177e-15
-4.66052e-15
-4.59948e-15
-4.53858e-15
-4.47772e-15
-4.41681e-15
-4.35577e-15
-4.29448e-15
-4.23282e-15
-4.17067e-15
-4.10789e-15
-4.04435e-15
-3.97989e-15
-3.91434e-15
-3.84754e-15
-3.77929e-15
-3.70939e-15
-3.63766e-15
-3.56386e-15
-3.48777e-15
-3.40915e-15
-3.32777e-15
-3.24337e-15
-3.1557e-15
-3.06449e-15
-2.96948e-15
-2.8704e-15
-2.76698e-15
-2.65895e-15
-2.54605e-15
-2.42802e-15
-2.3046e-15
-2.17557e-15
-2.04069e-15
-1.89976e-15
-1.75258e-15
-1.59901e-15
-1.43889e-15
-1.27211e-15
-1.09859e-15
-9.18271e-16
-7.31144e-16
-5.37216e-16
-3.36539e-16
-1.29188e-16
8.47305e-17
3.05088e-16
5.31734e-16
7.64506e-16
1.00324e-15
1.24776e-15
1.49793e-15
1.75363e-15
2.01476e-15
2.28131e-15
2.5533e-15
2.83085e-15
3.11416e-15
3.40353e-15
3.69933e-15
4.00206e-15
4.31228e-15
4.63064e-15
4.95783e-15
5.29455e-15
5.64148e-15
5.99925e-15
6.36834e-15
)
;
    }
    procBoundary5to8
    {
        type            processor;
        value           nonuniform List<scalar> 
50
(
-9.6184e-15
-9.49967e-15
-9.38231e-15
-9.26633e-15
-9.1517e-15
-9.03844e-15
-8.92652e-15
-8.81594e-15
-8.70669e-15
-8.59877e-15
-8.49215e-15
-8.38684e-15
-8.28283e-15
-8.18009e-15
-8.07863e-15
-7.97842e-15
-7.87947e-15
-7.78175e-15
-7.68525e-15
-7.58997e-15
-7.49589e-15
-7.40299e-15
-7.31127e-15
-7.22071e-15
-7.1313e-15
-7.04303e-15
-6.95587e-15
-6.86982e-15
-6.78487e-15
-6.701e-15
-6.61819e-15
-6.53643e-15
-6.45572e-15
-6.37602e-15
-6.29734e-15
-6.21965e-15
-6.14293e-15
-6.06718e-15
-5.99238e-15
-5.9185e-15
-5.84554e-15
-5.77347e-15
-5.70228e-15
-5.63194e-15
-5.56244e-15
-5.49375e-15
-5.42585e-15
-5.35871e-15
-5.29232e-15
-5.22663e-15
)
;
    }
}


// ************************************************************************* //
