/*--------------------------------*- C++ -*----------------------------------*\
| =========                 |                                                 |
| \\      /  F ield         | OpenFOAM: The Open Source CFD Toolbox           |
|  \\    /   O peration     | Version:  2.4.0                                 |
|   \\  /    A nd           | Web:      www.OpenFOAM.org                      |
|    \\/     M anipulation  |                                                 |
\*---------------------------------------------------------------------------*/
FoamFile
{
    version     2.0;
    format      ascii;
    class       volScalarField;
    location    "3.3";
    object      H;
}
// * * * * * * * * * * * * * * * * * * * * * * * * * * * * * * * * * * * * * //

dimensions      [0 2 -2 0 0 0 0];

internalField   nonuniform List<scalar> 
500
(
-11970.3
-11970.3
-11970.3
-11970.3
-11970.3
-11448.1
-11448.1
-11448.1
-11448.1
-11448.1
-10920
-10919.9
-10919.9
-10919.9
-10920
-10385.9
-10385.8
-10385.8
-10385.8
-10385.9
-9845.7
-9845.65
-9845.61
-9845.65
-9845.7
-9299.35
-9299.29
-9299.25
-9299.29
-9299.35
-8746.72
-8746.65
-8746.59
-8746.65
-8746.72
-8187.68
-8187.6
-8187.54
-8187.6
-8187.68
-7622.13
-7622.04
-7621.96
-7622.04
-7622.13
-7049.94
-7049.84
-7049.75
-7049.83
-7049.94
-6470.99
-6470.87
-6470.77
-6470.86
-6470.99
-5885.14
-5885
-5884.89
-5885
-5885.14
-5292.25
-5292.1
-5291.98
-5292.1
-5292.25
-4692.2
-4692.03
-4691.89
-4692.02
-4692.2
-4084.82
-4084.63
-4084.48
-4084.62
-4084.82
-3469.97
-3469.76
-3469.6
-3469.75
-3469.97
-2847.49
-2847.26
-2847.08
-2847.25
-2847.49
-2217.21
-2216.96
-2216.77
-2216.95
-2217.22
-1578.98
-1578.71
-1578.5
-1578.7
-1578.99
-932.628
-932.323
-932.097
-932.312
-932.632
-32.6271
-32.5715
-32.5319
-32.5694
-32.6279
-24.6171
-24.575
-24.545
-24.5734
-24.6177
-24.8574
-24.8157
-24.7861
-24.8141
-24.8579
-25.0885
-25.0472
-25.018
-25.0457
-25.089
-25.31
-25.2692
-25.2403
-25.2678
-25.3106
-25.5216
-25.4813
-25.4527
-25.4799
-25.5222
-25.7229
-25.683
-25.6548
-25.6816
-25.7234
-25.9134
-25.8739
-25.8461
-25.8726
-25.9138
-26.0927
-26.0537
-26.0262
-26.0524
-26.0931
-26.2604
-26.2219
-26.1948
-26.2207
-26.2608
-26.4161
-26.3782
-26.3514
-26.377
-26.4166
-26.5595
-26.5221
-26.4957
-26.5209
-26.5599
-26.6901
-26.6531
-26.6271
-26.652
-26.6905
-26.8075
-26.7711
-26.7454
-26.77
-26.8079
-26.9114
-26.8754
-26.8502
-26.8744
-26.9117
-27.0012
-26.9658
-26.941
-26.9648
-27.0016
-27.0768
-27.0419
-27.0175
-27.0409
-27.0771
-27.1376
-27.1033
-27.0793
-27.1023
-27.138
-27.1834
-27.1496
-27.126
-27.1487
-27.1837
-27.2138
-27.1806
-27.1573
-27.1796
-27.214
-27.2283
-27.1957
-27.1728
-27.1948
-27.2286
-27.2268
-27.1948
-27.1723
-27.1939
-27.2271
-27.2089
-27.1774
-27.1554
-27.1766
-27.2091
-27.1742
-27.1433
-27.1217
-27.1425
-27.1745
-27.1226
-27.0923
-27.0711
-27.0915
-27.1228
-27.0536
-27.0239
-27.0032
-27.0232
-27.0538
-26.9671
-26.9381
-26.9177
-26.9373
-26.9673
-26.8629
-26.8344
-26.8145
-26.8337
-26.8631
-26.7407
-26.7128
-26.6934
-26.7122
-26.7409
-26.6003
-26.5731
-26.554
-26.5724
-26.6004
-26.4416
-26.4149
-26.3964
-26.4143
-26.4417
-26.2643
-26.2384
-26.2202
-26.2378
-26.2645
-26.0685
-26.0432
-26.0255
-26.0426
-26.0686
-25.854
-25.8293
-25.8121
-25.8288
-25.8541
-25.6207
-25.5967
-25.5799
-25.5961
-25.6208
-25.3686
-25.3452
-25.3289
-25.3447
-25.3687
-25.0977
-25.075
-25.0591
-25.0745
-25.0978
-24.808
-24.7859
-24.7705
-24.7854
-24.8081
-24.4995
-24.4781
-24.4632
-24.4777
-24.4996
-24.1724
-24.1517
-24.1372
-24.1513
-24.1725
-23.8268
-23.8067
-23.7926
-23.8063
-23.8269
-23.4628
-23.4433
-23.4297
-23.4429
-23.4628
-23.0805
-23.0617
-23.0486
-23.0613
-23.0806
-22.6803
-22.6621
-22.6494
-22.6617
-22.6803
-22.2622
-22.2447
-22.2325
-22.2444
-22.2623
-21.8267
-21.8099
-21.7981
-21.8096
-21.8268
-21.3741
-21.3579
-21.3465
-21.3576
-21.3741
-20.9046
-20.889
-20.8781
-20.8887
-20.9046
-20.4187
-20.4037
-20.3933
-20.4035
-20.4187
-19.9167
-19.9024
-19.8924
-19.9021
-19.9167
-19.3991
-19.3855
-19.3759
-19.3852
-19.3991
-18.8664
-18.8534
-18.8442
-18.8531
-18.8664
-18.3191
-18.3067
-18.2979
-18.3064
-18.3191
-17.7577
-17.7458
-17.7375
-17.7456
-17.7577
-17.1827
-17.1714
-17.1635
-17.1712
-17.1827
-16.5947
-16.584
-16.5765
-16.5838
-16.5947
-15.9944
-15.9843
-15.9771
-15.9841
-15.9944
-15.3823
-15.3727
-15.366
-15.3725
-15.3822
-14.759
-14.75
-14.7437
-14.7499
-14.759
-14.1253
-14.1169
-14.1109
-14.1167
-14.1253
-13.4819
-13.4739
-13.4683
-13.4738
-13.4818
-12.8293
-12.8218
-12.8166
-12.8217
-12.8293
-12.1683
-12.1614
-12.1564
-12.1612
-12.1683
-11.4996
-11.4932
-11.4886
-11.4931
-11.4996
-10.824
-10.818
-10.8138
-10.8179
-10.824
-10.1421
-10.1366
-10.1327
-10.1365
-10.1421
-9.45466
-9.44961
-9.44601
-9.44952
-9.45465
-8.76245
-8.75784
-8.75455
-8.75776
-8.76244
-8.06619
-8.06201
-8.05902
-8.06193
-8.06618
-7.3666
-7.36283
-7.36013
-7.36276
-7.36659
-6.66442
-6.66105
-6.65864
-6.66099
-6.66441
-5.96037
-5.9574
-5.95526
-5.95734
-5.96036
-5.2552
-5.2526
-5.25073
-5.25255
-5.25519
-4.54961
-4.54739
-4.54579
-4.54734
-4.5496
-3.84435
-3.84249
-3.84114
-3.84245
-3.84434
-3.14014
-3.13863
-3.13754
-3.1386
-3.14013
-2.4377
-2.43654
-2.4357
-2.43651
-2.4377
-1.73778
-1.73695
-1.73635
-1.73693
-1.73778
-1.0411
-1.04061
-1.04025
-1.0406
-1.0411
-0.348418
-0.348253
-0.348134
-0.34825
-0.348418
)
;

boundaryField
{
    BotWall
    {
        type            zeroGradient;
    }
    FreeStream
    {
        type            zeroGradient;
    }
    FrontNBack
    {
        type            empty;
    }
    LeftSide
    {
        type            symmetryPlane;
    }
    RightSide
    {
        type            symmetryPlane;
    }
}


// ************************************************************************* //
