/*--------------------------------*- C++ -*----------------------------------*\
| =========                 |                                                 |
| \\      /  F ield         | OpenFOAM: The Open Source CFD Toolbox           |
|  \\    /   O peration     | Version:  2.4.0                                 |
|   \\  /    A nd           | Web:      www.OpenFOAM.org                      |
|    \\/     M anipulation  |                                                 |
\*---------------------------------------------------------------------------*/
FoamFile
{
    version     2.0;
    format      ascii;
    class       volScalarField;
    location    "3.3";
    object      p;
}
// * * * * * * * * * * * * * * * * * * * * * * * * * * * * * * * * * * * * * //

dimensions      [1 -1 -2 0 0 0 0];

internalField   nonuniform List<scalar> 
500
(
0.645894
0.646123
0.646378
0.646051
0.645889
0.616058
0.616289
0.616547
0.616218
0.616052
0.585929
0.586161
0.586418
0.58609
0.585923
0.555438
0.555672
0.55593
0.5556
0.555431
0.524636
0.524873
0.525134
0.524802
0.52463
0.493461
0.4937
0.493962
0.493629
0.493454
0.461967
0.462208
0.462472
0.462138
0.46196
0.430083
0.430327
0.430592
0.430256
0.430076
0.397877
0.398124
0.398391
0.398054
0.397871
0.365325
0.365574
0.365843
0.365504
0.365318
0.33259
0.332843
0.333114
0.332773
0.332583
0.299449
0.299704
0.299978
0.299635
0.299442
0.26475
0.265007
0.265281
0.264937
0.264743
0.22601
0.226262
0.226535
0.226193
0.226003
0.186977
0.187225
0.187493
0.187156
0.18697
0.178847
0.179137
0.179424
0.179069
0.178839
0.261477
0.261944
0.262342
0.261882
0.261468
0.341477
0.34217
0.342743
0.34214
0.341463
-0.385183
-0.385218
-0.385063
-0.385271
-0.385191
-3.35171
-3.35556
-3.35822
-3.3557
-3.35166
-6.56336
-6.573
-6.57996
-6.57339
-6.56322
-0.0167041
-0.0167033
-0.0167029
-0.0167033
-0.0167041
-0.01095
-0.0109506
-0.0109509
-0.0109506
-0.01095
-0.0125935
-0.0125936
-0.0125936
-0.0125936
-0.0125935
-0.0137425
-0.0137425
-0.0137424
-0.0137425
-0.0137425
-0.0144544
-0.0144544
-0.0144544
-0.0144544
-0.0144544
-0.0150695
-0.0150695
-0.0150695
-0.0150695
-0.0150695
-0.0157088
-0.0157088
-0.0157088
-0.0157088
-0.0157088
-0.0163726
-0.0163726
-0.0163726
-0.0163726
-0.0163726
-0.0170476
-0.0170476
-0.0170476
-0.0170476
-0.0170476
-0.0177295
-0.0177295
-0.0177295
-0.0177295
-0.0177295
-0.0184183
-0.0184183
-0.0184183
-0.0184183
-0.0184183
-0.0191147
-0.0191147
-0.0191147
-0.0191147
-0.0191147
-0.0198188
-0.0198188
-0.0198188
-0.0198188
-0.0198188
-0.0205308
-0.0205308
-0.0205308
-0.0205308
-0.0205308
-0.0212508
-0.0212508
-0.0212508
-0.0212508
-0.0212508
-0.0219788
-0.0219788
-0.0219788
-0.0219788
-0.0219788
-0.0227149
-0.0227149
-0.0227149
-0.0227149
-0.0227149
-0.0234593
-0.0234593
-0.0234593
-0.0234593
-0.0234593
-0.0242119
-0.0242119
-0.0242119
-0.0242119
-0.0242119
-0.024973
-0.024973
-0.024973
-0.024973
-0.024973
-0.0257425
-0.0257425
-0.0257425
-0.0257425
-0.0257425
-0.0265206
-0.0265206
-0.0265206
-0.0265206
-0.0265206
-0.0273075
-0.0273075
-0.0273075
-0.0273075
-0.0273075
-0.0281031
-0.028103
-0.028103
-0.028103
-0.0281031
-0.0289075
-0.0289075
-0.0289075
-0.0289075
-0.0289075
-0.029721
-0.029721
-0.029721
-0.029721
-0.029721
-0.0305435
-0.0305435
-0.0305435
-0.0305435
-0.0305435
-0.0313752
-0.0313752
-0.0313752
-0.0313752
-0.0313752
-0.0322162
-0.0322162
-0.0322162
-0.0322162
-0.0322162
-0.0330665
-0.0330665
-0.0330665
-0.0330665
-0.0330665
-0.0339264
-0.0339264
-0.0339264
-0.0339264
-0.0339264
-0.0347959
-0.0347958
-0.0347958
-0.0347958
-0.0347959
-0.035675
-0.035675
-0.035675
-0.035675
-0.035675
-0.036564
-0.036564
-0.036564
-0.036564
-0.036564
-0.0374629
-0.0374629
-0.0374629
-0.0374629
-0.0374629
-0.0383718
-0.0383718
-0.0383718
-0.0383718
-0.0383718
-0.0392908
-0.0392908
-0.0392908
-0.0392908
-0.0392908
-0.0402201
-0.0402201
-0.0402201
-0.0402201
-0.0402201
-0.0411598
-0.0411598
-0.0411598
-0.0411598
-0.0411598
-0.04211
-0.04211
-0.04211
-0.04211
-0.04211
-0.0430708
-0.0430708
-0.0430708
-0.0430708
-0.0430708
-0.0440423
-0.0440423
-0.0440423
-0.0440423
-0.0440423
-0.0450246
-0.0450246
-0.0450246
-0.0450246
-0.0450246
-0.0460179
-0.0460179
-0.0460179
-0.0460179
-0.0460179
-0.0470223
-0.0470223
-0.0470223
-0.0470223
-0.0470223
-0.0480379
-0.0480379
-0.0480378
-0.0480378
-0.0480379
-0.0490648
-0.0490648
-0.0490648
-0.0490648
-0.0490648
-0.0501032
-0.0501031
-0.0501031
-0.0501031
-0.0501032
-0.0511531
-0.0511531
-0.0511531
-0.0511531
-0.0511531
-0.0522148
-0.0522148
-0.0522148
-0.0522148
-0.0522148
-0.0532883
-0.0532883
-0.0532883
-0.0532883
-0.0532883
-0.0543738
-0.0543738
-0.0543738
-0.0543738
-0.0543738
-0.0554715
-0.0554715
-0.0554715
-0.0554715
-0.0554715
-0.0565813
-0.0565813
-0.0565813
-0.0565813
-0.0565813
-0.0577036
-0.0577036
-0.0577036
-0.0577036
-0.0577036
-0.0588384
-0.0588384
-0.0588384
-0.0588384
-0.0588384
-0.0599858
-0.0599858
-0.0599858
-0.0599858
-0.0599858
-0.0611461
-0.0611461
-0.0611461
-0.0611461
-0.0611461
-0.0623193
-0.0623193
-0.0623192
-0.0623193
-0.0623193
-0.0635055
-0.0635055
-0.0635055
-0.0635055
-0.0635055
-0.0647051
-0.0647051
-0.0647051
-0.0647051
-0.0647051
-0.065918
-0.065918
-0.065918
-0.065918
-0.065918
-0.0671444
-0.0671444
-0.0671444
-0.0671444
-0.0671444
-0.0683845
-0.0683845
-0.0683845
-0.0683845
-0.0683845
-0.0696385
-0.0696385
-0.0696385
-0.0696385
-0.0696385
-0.0709065
-0.0709065
-0.0709065
-0.0709065
-0.0709065
-0.0721886
-0.0721886
-0.0721886
-0.0721886
-0.0721886
-0.073485
-0.073485
-0.073485
-0.073485
-0.073485
-0.0747959
-0.0747959
-0.0747959
-0.0747959
-0.0747959
-0.0761214
-0.0761214
-0.0761214
-0.0761214
-0.0761214
-0.0774617
-0.0774617
-0.0774617
-0.0774617
-0.0774617
-0.0788169
-0.0788169
-0.0788169
-0.0788169
-0.0788169
-0.0801873
-0.0801873
-0.0801873
-0.0801873
-0.0801873
-0.081573
-0.081573
-0.081573
-0.081573
-0.081573
-0.0829741
-0.0829741
-0.0829741
-0.0829741
-0.0829741
-0.0843909
-0.0843909
-0.0843909
-0.0843909
-0.0843909
-0.0858235
-0.0858235
-0.0858235
-0.0858235
-0.0858235
-0.087272
-0.087272
-0.087272
-0.087272
-0.087272
-0.0887368
-0.0887368
-0.0887368
-0.0887368
-0.0887368
)
;

boundaryField
{
    BotWall
    {
        type            calculated;
        value           nonuniform List<scalar> 5(0.660714 0.660943 0.661198 0.660872 0.660709);
    }
    FreeStream
    {
        type            calculated;
        value           nonuniform List<scalar> 5(-0.0894732 -0.0894732 -0.0894732 -0.0894732 -0.0894732);
    }
    FrontNBack
    {
        type            empty;
    }
    LeftSide
    {
        type            symmetryPlane;
    }
    RightSide
    {
        type            symmetryPlane;
    }
}


// ************************************************************************* //
