/*--------------------------------*- C++ -*----------------------------------*\
| =========                 |                                                 |
| \\      /  F ield         | OpenFOAM: The Open Source CFD Toolbox           |
|  \\    /   O peration     | Version:  2.4.0                                 |
|   \\  /    A nd           | Web:      www.OpenFOAM.org                      |
|    \\/     M anipulation  |                                                 |
\*---------------------------------------------------------------------------*/
FoamFile
{
    version     2.0;
    format      ascii;
    class       volScalarField;
    location    "3.3";
    object      p_rgh;
}
// * * * * * * * * * * * * * * * * * * * * * * * * * * * * * * * * * * * * * //

dimensions      [1 -1 -2 0 0 0 0];

internalField   nonuniform List<scalar> 
500
(
0.660714
0.660943
0.661198
0.660872
0.660709
0.660684
0.660916
0.661173
0.660844
0.660678
0.660694
0.660926
0.661183
0.660855
0.660688
0.660677
0.660912
0.66117
0.66084
0.660671
0.660691
0.660928
0.661188
0.660857
0.660685
0.660674
0.660913
0.661175
0.660842
0.660668
0.660687
0.660929
0.661192
0.660858
0.66068
0.660661
0.660905
0.66117
0.660834
0.660654
0.660669
0.660916
0.661183
0.660846
0.660662
0.66069
0.660939
0.661208
0.660869
0.660683
0.660892
0.661144
0.661416
0.661075
0.660885
0.661054
0.66131
0.661583
0.661241
0.661047
0.660031
0.660288
0.660563
0.660219
0.660024
0.655343
0.655595
0.655867
0.655526
0.655336
0.650741
0.650989
0.651257
0.65092
0.650734
0.677427
0.677717
0.678004
0.677649
0.677419
0.795261
0.795729
0.796127
0.795666
0.795252
0.910858
0.911552
0.912124
0.911522
0.910844
0.220193
0.220157
0.220313
0.220104
0.220185
-2.70994
-2.71379
-2.71645
-2.71393
-2.70989
-6.33581
-6.34505
-6.35172
-6.34542
-6.33567
-0.00484795
-0.0048472
-0.00484676
-0.00484718
-0.00484796
0.00152938
0.00152878
0.00152847
0.00152877
0.00152938
0.000516043
0.000516032
0.000515991
0.00051603
0.000516043
4.28752e-06
4.35841e-06
4.38197e-06
4.35999e-06
4.28698e-06
-6.32148e-05
-6.31939e-05
-6.31795e-05
-6.31928e-05
-6.32152e-05
-2.67489e-05
-2.67495e-05
-2.67448e-05
-2.67489e-05
-2.6749e-05
-7.26478e-06
-7.2634e-06
-7.26087e-06
-7.26287e-06
-7.26491e-06
-4.8502e-06
-4.84499e-06
-4.84214e-06
-4.84445e-06
-4.85033e-06
-6.29391e-06
-6.28794e-06
-6.28478e-06
-6.28738e-06
-6.29405e-06
-7.0561e-06
-7.05056e-06
-7.04739e-06
-7.05001e-06
-7.05623e-06
-7.13897e-06
-7.13378e-06
-7.13069e-06
-7.13324e-06
-7.1391e-06
-7.07031e-06
-7.06526e-06
-7.06226e-06
-7.06473e-06
-7.07042e-06
-7.02924e-06
-7.02429e-06
-7.02135e-06
-7.02376e-06
-7.02935e-06
-7.01511e-06
-7.01025e-06
-7.00738e-06
-7.00973e-06
-7.01521e-06
-7.00681e-06
-7.00206e-06
-6.99925e-06
-7.00155e-06
-7.00691e-06
-6.99727e-06
-6.99262e-06
-6.98988e-06
-6.99212e-06
-6.99737e-06
-6.98653e-06
-6.98199e-06
-6.9793e-06
-6.98149e-06
-6.98662e-06
-6.97544e-06
-6.97099e-06
-6.96837e-06
-6.9705e-06
-6.97552e-06
-6.96426e-06
-6.95992e-06
-6.95735e-06
-6.95943e-06
-6.96434e-06
-6.95301e-06
-6.94876e-06
-6.94625e-06
-6.94828e-06
-6.95308e-06
-6.94164e-06
-6.93748e-06
-6.93503e-06
-6.93701e-06
-6.94171e-06
-6.93013e-06
-6.92607e-06
-6.92368e-06
-6.92562e-06
-6.9302e-06
-6.9185e-06
-6.91453e-06
-6.9122e-06
-6.91408e-06
-6.91856e-06
-6.90674e-06
-6.90286e-06
-6.90058e-06
-6.90242e-06
-6.9068e-06
-6.89485e-06
-6.89106e-06
-6.88883e-06
-6.89063e-06
-6.8949e-06
-6.88283e-06
-6.87912e-06
-6.87695e-06
-6.8787e-06
-6.88288e-06
-6.87067e-06
-6.86705e-06
-6.86493e-06
-6.86664e-06
-6.87071e-06
-6.85837e-06
-6.85484e-06
-6.85277e-06
-6.85444e-06
-6.85842e-06
-6.84595e-06
-6.8425e-06
-6.84048e-06
-6.8421e-06
-6.84599e-06
-6.83338e-06
-6.83002e-06
-6.82804e-06
-6.82963e-06
-6.83342e-06
-6.82067e-06
-6.81739e-06
-6.81547e-06
-6.81701e-06
-6.82071e-06
-6.80783e-06
-6.80462e-06
-6.80275e-06
-6.80426e-06
-6.80786e-06
-6.79484e-06
-6.79172e-06
-6.78989e-06
-6.79136e-06
-6.79487e-06
-6.78171e-06
-6.77866e-06
-6.77688e-06
-6.77831e-06
-6.78173e-06
-6.76843e-06
-6.76546e-06
-6.76373e-06
-6.76512e-06
-6.76845e-06
-6.75501e-06
-6.75212e-06
-6.75043e-06
-6.75178e-06
-6.75503e-06
-6.74143e-06
-6.73862e-06
-6.73698e-06
-6.7383e-06
-6.74145e-06
-6.72771e-06
-6.72498e-06
-6.72338e-06
-6.72466e-06
-6.72773e-06
-6.71384e-06
-6.71118e-06
-6.70962e-06
-6.71087e-06
-6.71386e-06
-6.69982e-06
-6.69723e-06
-6.69572e-06
-6.69693e-06
-6.69983e-06
-6.68564e-06
-6.68312e-06
-6.68165e-06
-6.68283e-06
-6.68565e-06
-6.6713e-06
-6.66886e-06
-6.66743e-06
-6.66858e-06
-6.67132e-06
-6.65681e-06
-6.65444e-06
-6.65305e-06
-6.65416e-06
-6.65682e-06
-6.64216e-06
-6.63986e-06
-6.63851e-06
-6.63959e-06
-6.64217e-06
-6.62735e-06
-6.62511e-06
-6.62381e-06
-6.62486e-06
-6.62736e-06
-6.61237e-06
-6.61021e-06
-6.60895e-06
-6.60996e-06
-6.61238e-06
-6.59724e-06
-6.59514e-06
-6.59392e-06
-6.5949e-06
-6.59724e-06
-6.58193e-06
-6.5799e-06
-6.57872e-06
-6.57967e-06
-6.58194e-06
-6.56646e-06
-6.56449e-06
-6.56335e-06
-6.56427e-06
-6.56646e-06
-6.55081e-06
-6.54892e-06
-6.54781e-06
-6.5487e-06
-6.55082e-06
-6.535e-06
-6.53317e-06
-6.5321e-06
-6.53296e-06
-6.535e-06
-6.51901e-06
-6.51725e-06
-6.51622e-06
-6.51705e-06
-6.51901e-06
-6.50285e-06
-6.50115e-06
-6.50016e-06
-6.50096e-06
-6.50285e-06
-6.48651e-06
-6.48487e-06
-6.48392e-06
-6.48469e-06
-6.48651e-06
-6.46999e-06
-6.46842e-06
-6.4675e-06
-6.46824e-06
-6.46999e-06
-6.45329e-06
-6.45178e-06
-6.4509e-06
-6.45161e-06
-6.45329e-06
-6.4364e-06
-6.43496e-06
-6.43412e-06
-6.4348e-06
-6.4364e-06
-6.41933e-06
-6.41795e-06
-6.41715e-06
-6.4178e-06
-6.41933e-06
-6.40208e-06
-6.40076e-06
-6.39999e-06
-6.40062e-06
-6.40208e-06
-6.38463e-06
-6.38338e-06
-6.38265e-06
-6.38324e-06
-6.38463e-06
-6.36699e-06
-6.3658e-06
-6.36511e-06
-6.36567e-06
-6.36699e-06
-6.34916e-06
-6.34803e-06
-6.34737e-06
-6.34791e-06
-6.34916e-06
-6.33113e-06
-6.33007e-06
-6.32945e-06
-6.32995e-06
-6.33113e-06
-6.31291e-06
-6.31191e-06
-6.31132e-06
-6.3118e-06
-6.31291e-06
-6.29448e-06
-6.29354e-06
-6.29299e-06
-6.29344e-06
-6.29448e-06
-6.27585e-06
-6.27498e-06
-6.27446e-06
-6.27488e-06
-6.27585e-06
-6.25702e-06
-6.25621e-06
-6.25573e-06
-6.25612e-06
-6.25702e-06
-6.23798e-06
-6.23723e-06
-6.23678e-06
-6.23715e-06
-6.23798e-06
-6.21873e-06
-6.21804e-06
-6.21763e-06
-6.21797e-06
-6.21873e-06
-6.19927e-06
-6.19865e-06
-6.19827e-06
-6.19858e-06
-6.19927e-06
-6.1796e-06
-6.17903e-06
-6.17869e-06
-6.17897e-06
-6.17959e-06
-6.1597e-06
-6.15921e-06
-6.1589e-06
-6.15915e-06
-6.1597e-06
-6.13959e-06
-6.13916e-06
-6.13889e-06
-6.13911e-06
-6.13959e-06
-6.11926e-06
-6.11889e-06
-6.11866e-06
-6.11885e-06
-6.11926e-06
-6.0987e-06
-6.0984e-06
-6.0982e-06
-6.09836e-06
-6.0987e-06
-6.07792e-06
-6.07768e-06
-6.07752e-06
-6.07765e-06
-6.07791e-06
-6.0569e-06
-6.05673e-06
-6.0566e-06
-6.05671e-06
-6.0569e-06
-6.03566e-06
-6.03555e-06
-6.03546e-06
-6.03554e-06
-6.03565e-06
-6.01419e-06
-6.01415e-06
-6.01411e-06
-6.01414e-06
-6.01418e-06
)
;

boundaryField
{
    BotWall
    {
        type            fixedFluxPressure;
        gradient        uniform 0;
        value           nonuniform List<scalar> 5(0.660714 0.660943 0.661198 0.660872 0.660709);
    }
    FreeStream
    {
        type            totalPressure;
        rho             rho;
        psi             none;
        gamma           1;
        p0              uniform 0;
        value           nonuniform List<scalar> 5(-6.00339e-06 -6.0034e-06 -6.00338e-06 -6.00337e-06 -6.00339e-06);
    }
    FrontNBack
    {
        type            empty;
    }
    LeftSide
    {
        type            symmetryPlane;
    }
    RightSide
    {
        type            symmetryPlane;
    }
}


// ************************************************************************* //
