/*--------------------------------*- C++ -*----------------------------------*\
| =========                 |                                                 |
| \\      /  F ield         | OpenFOAM: The Open Source CFD Toolbox           |
|  \\    /   O peration     | Version:  2.4.0                                 |
|   \\  /    A nd           | Web:      www.OpenFOAM.org                      |
|    \\/     M anipulation  |                                                 |
\*---------------------------------------------------------------------------*/
FoamFile
{
    version     2.0;
    format      ascii;
    class       surfaceScalarField;
    location    "3.3";
    object      phi;
}
// * * * * * * * * * * * * * * * * * * * * * * * * * * * * * * * * * * * * * //

dimensions      [0 3 -1 0 0 0 0];

internalField   nonuniform List<scalar> 
895
(
5.54226e-18
-5.54303e-18
3.70935e-18
1.83162e-18
-2.97294e-18
6.68017e-18
-5.8828e-18
2.90806e-18
-5.88441e-18
1.71623e-17
-2.27191e-17
1.15441e-17
7.42661e-18
-9.37658e-18
2.7568e-17
-1.81433e-17
1.16487e-17
-2.40468e-17
2.94427e-17
-5.21782e-17
1.98276e-17
1.70156e-17
-1.62432e-17
6.36027e-17
-3.10534e-17
2.64309e-17
-5.51198e-17
4.24208e-17
-9.46172e-17
2.85521e-17
3.08561e-17
-2.35589e-17
1.15675e-16
-4.46635e-17
4.75062e-17
-9.98033e-17
5.61097e-17
-1.50746e-16
3.77311e-17
4.92052e-17
-3.13383e-17
1.84705e-16
-5.89849e-17
7.51226e-17
-1.58808e-16
7.05746e-17
-2.21341e-16
4.73999e-17
7.23495e-17
-3.96185e-17
2.71683e-16
-7.40827e-17
1.09556e-16
-2.32911e-16
8.58251e-17
-3.07187e-16
5.75688e-17
1.00575e-16
-4.84121e-17
3.77623e-16
-8.99667e-17
1.5108e-16
-3.22898e-16
1.01937e-16
-4.09145e-16
6.82804e-17
1.34201e-16
-5.77634e-17
5.03626e-16
-1.06713e-16
2e-16
-4.29631e-16
1.18917e-16
-5.28083e-16
7.95436e-17
1.73545e-16
-6.76839e-17
6.50814e-16
-1.24329e-16
2.56616e-16
-5.53979e-16
1.36854e-16
-6.64958e-16
9.14073e-17
2.18962e-16
-7.82246e-17
8.20407e-16
-1.42903e-16
3.21265e-16
-6.96901e-16
1.55754e-16
-8.20731e-16
1.03881e-16
2.70806e-16
-8.93983e-17
1.01365e-15
-1.62441e-16
3.94281e-16
-8.59359e-16
1.75714e-16
-9.96465e-16
1.17021e-16
3.29472e-16
-1.01262e-16
1.2319e-15
-1.83041e-16
4.76034e-16
-1.04242e-15
1.96748e-16
-1.19323e-15
1.30837e-16
3.95358e-16
-1.1383e-16
1.47653e-15
-2.04716e-16
5.66896e-16
-1.24715e-15
2.18961e-16
-1.41221e-15
1.45391e-16
4.68904e-16
-1.27167e-16
1.74906e-15
-2.27572e-16
6.67279e-16
-1.47473e-15
2.42357e-16
-1.65458e-15
1.60694e-16
5.50546e-16
-1.41287e-16
2.05101e-15
-2.51614e-16
7.77587e-16
-1.72636e-15
2.67021e-16
-1.92162e-15
1.76797e-16
6.40753e-16
-1.56244e-16
2.38403e-15
-2.76924e-16
8.98251e-16
-2.00329e-15
2.9297e-16
-2.2146e-15
1.93694e-16
7.40014e-16
-1.72041e-16
2.74975e-15
-3.03515e-16
1.02971e-15
-2.30681e-15
3.20501e-16
-2.53511e-15
2.11715e-16
8.48789e-16
-1.89038e-16
3.15049e-15
-3.31663e-16
1.17233e-15
-2.63848e-15
3.50357e-16
-2.88547e-15
2.30655e-16
9.68486e-16
-2.066e-16
3.58774e-15
-3.62128e-16
1.32785e-15
-3.00061e-15
3.83648e-16
-5.94064e-15
2.52947e-16
1.09919e-15
-2.27958e-16
4.06864e-15
-3.96328e-16
1.49622e-15
-6.17304e-15
4.29006e-16
-2.29477e-10
2.84323e-16
-2.29482e-10
-2.57705e-16
-2.29486e-10
-4.43598e-16
-2.29482e-10
-2.29476e-10
4.32282e-16
-2.29477e-10
2.84154e-16
-2.29482e-10
-2.57808e-16
-2.29486e-10
-4.46042e-16
-2.29482e-10
-2.29477e-10
4.36402e-16
-2.29477e-10
2.84997e-16
-2.29482e-10
-2.58757e-16
-2.29485e-10
-4.50045e-16
-2.29482e-10
-2.29477e-10
4.09952e-16
-2.29478e-10
2.70722e-16
-2.29482e-10
-2.45337e-16
-2.29485e-10
-4.22465e-16
-2.29482e-10
-2.29478e-10
3.90348e-16
-2.29478e-10
2.57938e-16
-2.29482e-10
-2.33241e-16
-2.29484e-10
-4.01999e-16
-2.29482e-10
-2.29478e-10
3.7369e-16
-2.29479e-10
2.46626e-16
-2.29482e-10
-2.22536e-16
-2.29484e-10
-3.8461e-16
-2.29482e-10
-2.29479e-10
3.57064e-16
-2.29479e-10
2.35822e-16
-2.29481e-10
-2.12327e-16
-2.29483e-10
-3.67279e-16
-2.29481e-10
-2.29479e-10
3.40116e-16
-2.29479e-10
2.25042e-16
-2.29481e-10
-2.02143e-16
-2.29483e-10
-3.49633e-16
-2.29481e-10
-2.29479e-10
3.23223e-16
-2.2948e-10
2.14263e-16
-2.29481e-10
-1.91958e-16
-2.29482e-10
-3.32056e-16
-2.29481e-10
-2.2948e-10
3.06548e-16
-2.2948e-10
2.03558e-16
-2.29481e-10
-1.81844e-16
-2.29482e-10
-3.14715e-16
-2.29481e-10
-2.2948e-10
2.90092e-16
-2.2948e-10
1.9297e-16
-2.29481e-10
-1.71842e-16
-2.29482e-10
-2.97611e-16
-2.29481e-10
-2.2948e-10
2.7384e-16
-2.2948e-10
1.8251e-16
-2.29481e-10
-1.61962e-16
-2.29481e-10
-2.8073e-16
-2.29481e-10
-2.29481e-10
2.57799e-16
-2.29481e-10
1.72183e-16
-2.29481e-10
-1.5221e-16
-2.29481e-10
-2.64077e-16
-2.29481e-10
-2.29481e-10
2.41984e-16
-2.29481e-10
1.61995e-16
-2.29481e-10
-1.42593e-16
-2.29481e-10
-2.4767e-16
-2.29481e-10
-2.29481e-10
2.26411e-16
-2.29481e-10
1.51955e-16
-2.29481e-10
-1.33119e-16
-2.2948e-10
-2.31523e-16
-2.2948e-10
-2.29481e-10
2.11094e-16
-2.29481e-10
1.42073e-16
-2.29481e-10
-1.23798e-16
-2.2948e-10
-2.15651e-16
-2.2948e-10
-2.29481e-10
1.96046e-16
-2.29482e-10
1.32358e-16
-2.29481e-10
-1.14639e-16
-2.2948e-10
-2.00067e-16
-2.2948e-10
-2.29482e-10
1.81282e-16
-2.29482e-10
1.22818e-16
-2.29481e-10
-1.0565e-16
-2.2948e-10
-1.84786e-16
-2.2948e-10
-2.29482e-10
1.66814e-16
-2.29482e-10
1.13463e-16
-2.2948e-10
-9.68404e-17
-2.29479e-10
-1.69821e-16
-2.2948e-10
-2.29482e-10
1.52657e-16
-2.29482e-10
1.04301e-16
-2.2948e-10
-8.8219e-17
-2.29479e-10
-1.55185e-16
-2.2948e-10
-2.29482e-10
1.38824e-16
-2.29482e-10
9.53418e-17
-2.2948e-10
-7.97945e-17
-2.29479e-10
-1.40891e-16
-2.2948e-10
-2.29482e-10
1.25327e-16
-2.29482e-10
8.65929e-17
-2.2948e-10
-7.15753e-17
-2.29479e-10
-1.26953e-16
-2.2948e-10
-2.29482e-10
1.12179e-16
-2.29482e-10
7.80632e-17
-2.2948e-10
-6.35698e-17
-2.29479e-10
-1.13384e-16
-2.2948e-10
-2.29483e-10
9.93937e-17
-2.29483e-10
6.97609e-17
-2.2948e-10
-5.57863e-17
-2.29479e-10
-1.00196e-16
-2.2948e-10
-2.29483e-10
8.69827e-17
-2.29483e-10
6.16941e-17
-2.2948e-10
-4.82329e-17
-2.29479e-10
-8.74009e-17
-2.2948e-10
-2.29483e-10
7.49581e-17
-2.29483e-10
5.38708e-17
-2.2948e-10
-4.09174e-17
-2.29478e-10
-7.50114e-17
-2.2948e-10
-2.29483e-10
6.33316e-17
-2.29483e-10
4.62986e-17
-2.2948e-10
-3.38474e-17
-2.29478e-10
-6.30386e-17
-2.2948e-10
-2.29483e-10
5.21142e-17
-2.29483e-10
3.8985e-17
-2.2948e-10
-2.70302e-17
-2.29478e-10
-5.14937e-17
-2.2948e-10
-2.29483e-10
4.13167e-17
-2.29483e-10
3.19369e-17
-2.2948e-10
-2.04729e-17
-2.29478e-10
-4.03871e-17
-2.2948e-10
-2.29483e-10
3.09494e-17
-2.29483e-10
2.51613e-17
-2.2948e-10
-1.41822e-17
-2.29478e-10
-2.9729e-17
-2.2948e-10
-2.29483e-10
2.10218e-17
-2.29483e-10
1.86646e-17
-2.2948e-10
-8.16448e-18
-2.29478e-10
-1.95288e-17
-2.2948e-10
-2.29483e-10
1.15431e-17
-2.29483e-10
1.24529e-17
-2.2948e-10
-2.42568e-18
-2.29478e-10
-9.79548e-18
-2.2948e-10
-2.29483e-10
2.52166e-18
-2.29483e-10
6.53172e-18
-2.2948e-10
3.02861e-18
-2.29478e-10
-5.37187e-19
-2.2948e-10
-2.29483e-10
-6.03469e-18
-2.29483e-10
9.06414e-19
-2.2948e-10
8.19325e-18
-2.29478e-10
8.23854e-18
-2.2948e-10
-2.29483e-10
-1.4119e-17
-2.29483e-10
-4.41829e-18
-2.2948e-10
1.30636e-17
-2.29478e-10
1.65249e-17
-2.2948e-10
-2.29483e-10
-2.17249e-17
-2.29483e-10
-9.43812e-18
-2.2948e-10
1.76355e-17
-2.29478e-10
2.4316e-17
-2.2948e-10
-2.29483e-10
-2.88471e-17
-2.29483e-10
-1.41493e-17
-2.2948e-10
2.19053e-17
-2.29478e-10
3.16066e-17
-2.2948e-10
-2.29483e-10
-3.54809e-17
-2.29483e-10
-1.85488e-17
-2.2948e-10
2.58699e-17
-2.29478e-10
3.83925e-17
-2.2948e-10
-2.29483e-10
-4.16228e-17
-2.29483e-10
-2.26338e-17
-2.2948e-10
2.9527e-17
-2.29478e-10
4.46705e-17
-2.2948e-10
-2.29483e-10
-4.72701e-17
-2.29483e-10
-2.64025e-17
-2.2948e-10
3.28747e-17
-2.29478e-10
5.04381e-17
-2.2948e-10
-2.29483e-10
-5.24211e-17
-2.29483e-10
-2.98536e-17
-2.2948e-10
3.59117e-17
-2.29478e-10
5.56942e-17
-2.2948e-10
-2.29483e-10
-5.70753e-17
-2.29483e-10
-3.29864e-17
-2.2948e-10
3.86378e-17
-2.29479e-10
6.04384e-17
-2.2948e-10
-2.29483e-10
-6.12332e-17
-2.29483e-10
-3.58009e-17
-2.2948e-10
4.1053e-17
-2.29479e-10
6.46718e-17
-2.2948e-10
-2.29483e-10
-6.48963e-17
-2.29483e-10
-3.82981e-17
-2.2948e-10
4.31583e-17
-2.29479e-10
6.83963e-17
-2.2948e-10
-2.29483e-10
-6.80677e-17
-2.29482e-10
-4.04794e-17
-2.2948e-10
4.49556e-17
-2.29479e-10
7.16154e-17
-2.2948e-10
-2.29483e-10
-7.07514e-17
-2.29482e-10
-4.23474e-17
-2.2948e-10
4.64474e-17
-2.29479e-10
7.43335e-17
-2.2948e-10
-2.29482e-10
-7.29527e-17
-2.29482e-10
-4.39051e-17
-2.2948e-10
4.7637e-17
-2.29479e-10
7.65565e-17
-2.2948e-10
-2.29482e-10
-7.46783e-17
-2.29482e-10
-4.51566e-17
-2.2948e-10
4.85288e-17
-2.29479e-10
7.82916e-17
-2.2948e-10
-2.29482e-10
-7.59364e-17
-2.29482e-10
-4.61069e-17
-2.29481e-10
4.91279e-17
-2.29479e-10
7.95472e-17
-2.2948e-10
-2.29482e-10
-7.67363e-17
-2.29482e-10
-4.67618e-17
-2.29481e-10
4.94402e-17
-2.29479e-10
8.03334e-17
-2.2948e-10
-2.29482e-10
-7.70888e-17
-2.29482e-10
-4.7128e-17
-2.29481e-10
4.94727e-17
-2.29479e-10
8.06616e-17
-2.2948e-10
-2.29482e-10
-7.70064e-17
-2.29482e-10
-4.72132e-17
-2.29481e-10
4.92334e-17
-2.29479e-10
8.05445e-17
-2.2948e-10
-2.29482e-10
-7.65027e-17
-2.29482e-10
-4.70261e-17
-2.29481e-10
4.8731e-17
-2.2948e-10
7.99965e-17
-2.2948e-10
-2.29482e-10
-7.55932e-17
-2.29482e-10
-4.65763e-17
-2.29481e-10
4.79754e-17
-2.2948e-10
7.90336e-17
-2.2948e-10
-2.29482e-10
-7.42947e-17
-2.29482e-10
-4.58743e-17
-2.29481e-10
4.69773e-17
-2.2948e-10
7.76732e-17
-2.2948e-10
-2.29482e-10
-7.26255e-17
-2.29482e-10
-4.49319e-17
-2.29481e-10
4.57487e-17
-2.2948e-10
7.59343e-17
-2.2948e-10
-2.29482e-10
-7.06057e-17
-2.29482e-10
-4.37616e-17
-2.29481e-10
4.43024e-17
-2.2948e-10
7.38374e-17
-2.2948e-10
-2.29482e-10
-6.82568e-17
-2.29482e-10
-4.23772e-17
-2.29481e-10
4.26522e-17
-2.2948e-10
7.14049e-17
-2.2948e-10
-2.29481e-10
-6.56022e-17
-2.29481e-10
-4.07933e-17
-2.29481e-10
4.0813e-17
-2.2948e-10
6.86607e-17
-2.2948e-10
-2.29481e-10
-6.26667e-17
-2.29481e-10
-3.90258e-17
-2.29481e-10
3.88008e-17
-2.2948e-10
6.56302e-17
-2.2948e-10
-2.29481e-10
-5.94767e-17
-2.29481e-10
-3.70916e-17
-2.29481e-10
3.66326e-17
-2.2948e-10
6.23406e-17
-2.2948e-10
-2.29481e-10
-5.60606e-17
-2.29481e-10
-3.50084e-17
-2.29481e-10
3.43265e-17
-2.2948e-10
5.8821e-17
-2.2948e-10
-2.29481e-10
-5.24481e-17
-2.29481e-10
-3.27954e-17
-2.29481e-10
3.19016e-17
-2.2948e-10
5.51018e-17
-2.2948e-10
-2.29481e-10
-4.86709e-17
-2.29481e-10
-3.04727e-17
-2.29481e-10
2.93782e-17
-2.2948e-10
5.12155e-17
-2.2948e-10
-2.29481e-10
-4.47622e-17
-2.29481e-10
-2.80615e-17
-2.29481e-10
2.67775e-17
-2.2948e-10
4.7196e-17
-2.2948e-10
-2.29481e-10
-4.0757e-17
-2.29481e-10
-2.55841e-17
-2.29481e-10
2.4122e-17
-2.29481e-10
4.30793e-17
-2.2948e-10
-2.29481e-10
-3.66921e-17
-2.29481e-10
-2.30638e-17
-2.29481e-10
2.1435e-17
-2.29481e-10
3.89028e-17
-2.2948e-10
-2.29481e-10
-3.2606e-17
-2.29481e-10
-2.05254e-17
-2.29481e-10
1.87411e-17
-2.29481e-10
3.47059e-17
-2.2948e-10
-2.29481e-10
-2.85388e-17
-2.29481e-10
-1.79944e-17
-2.29481e-10
1.60661e-17
-2.29481e-10
3.053e-17
-2.2948e-10
-2.29481e-10
-2.45327e-17
-2.29481e-10
-1.54976e-17
-2.29481e-10
1.34365e-17
-2.29481e-10
2.64178e-17
-2.29481e-10
-2.29481e-10
-2.06315e-17
-2.29481e-10
-1.30631e-17
-2.29481e-10
1.08803e-17
-2.29481e-10
2.24144e-17
-2.29481e-10
-2.29481e-10
-1.68809e-17
-2.29481e-10
-1.07199e-17
-2.29481e-10
8.42649e-18
-2.29481e-10
1.85665e-17
-2.29481e-10
-2.29481e-10
-1.33283e-17
-2.29481e-10
-8.49838e-18
-2.29481e-10
6.10507e-18
-2.29481e-10
1.49228e-17
-2.29481e-10
-2.29481e-10
-1.00232e-17
-2.29481e-10
-6.42998e-18
-2.29481e-10
3.94728e-18
-2.29481e-10
1.15339e-17
-2.29481e-10
-2.29481e-10
-7.01684e-18
-2.29481e-10
-4.54743e-18
-2.29481e-10
1.98547e-18
-2.29481e-10
8.4526e-18
-2.29481e-10
-2.29481e-10
-4.36262e-18
-2.29481e-10
-2.88468e-18
-2.29481e-10
2.53193e-19
-2.29481e-10
5.73349e-18
-2.29481e-10
-2.29481e-10
-2.11579e-18
-2.29481e-10
-1.47699e-18
-2.29481e-10
-1.21475e-18
-2.29481e-10
3.43344e-18
-2.29481e-10
-2.29481e-10
-3.33614e-19
-2.29481e-10
-3.60864e-19
-2.29481e-10
-2.38247e-18
-2.29481e-10
1.61138e-18
-2.29481e-10
-2.29481e-10
9.24779e-19
-2.29481e-10
4.26485e-19
-2.29481e-10
-3.21395e-18
-2.29481e-10
3.28963e-19
-2.29481e-10
-2.29481e-10
1.59701e-18
8.4196e-19
-3.6707e-18
-3.44008e-19
)
;

boundaryField
{
    BotWall
    {
        type            calculated;
        value           nonuniform List<scalar> 5(6.56698e-22 1.16228e-21 1.85435e-21 1.4715e-21 1.17919e-21);
    }
    FreeStream
    {
        type            calculated;
        value           nonuniform List<scalar> 5(-2.29481e-10 -2.29481e-10 -2.29481e-10 -2.29481e-10 -2.29481e-10);
    }
    FrontNBack
    {
        type            empty;
        value           nonuniform 0();
    }
    LeftSide
    {
        type            symmetryPlane;
        value           uniform 0;
    }
    RightSide
    {
        type            symmetryPlane;
        value           uniform 0;
    }
}


// ************************************************************************* //
