/*--------------------------------*- C++ -*----------------------------------*\
| =========                 |                                                 |
| \\      /  F ield         | OpenFOAM: The Open Source CFD Toolbox           |
|  \\    /   O peration     | Version:  2.4.0                                 |
|   \\  /    A nd           | Web:      www.OpenFOAM.org                      |
|    \\/     M anipulation  |                                                 |
\*---------------------------------------------------------------------------*/
FoamFile
{
    version     2.0;
    format      ascii;
    class       volVectorField;
    location    "3.3";
    object      U;
}
// * * * * * * * * * * * * * * * * * * * * * * * * * * * * * * * * * * * * * //

dimensions      [0 1 -1 0 0 0 0];

internalField   nonuniform List<vector> 
500
(
(1.56036e-09 3.14195e-10 0)
(2.49641e-09 3.28194e-10 0)
(2.57941e-10 3.32188e-10 0)
(-2.48697e-09 3.29333e-10 0)
(-1.80106e-09 3.13834e-10 0)
(4.7577e-09 -8.8159e-10 0)
(7.64046e-09 -8.23447e-10 0)
(7.58934e-10 -7.7234e-10 0)
(-7.61337e-09 -8.12418e-10 0)
(-5.46611e-09 -8.85103e-10 0)
(8.05017e-09 1.24507e-09 0)
(1.29675e-08 1.50514e-09 0)
(1.2473e-09 1.65773e-09 0)
(-1.29245e-08 1.53688e-09 0)
(-9.21533e-09 1.23516e-09 0)
(1.1447e-08 -2.31121e-09 0)
(1.84897e-08 -1.88998e-09 0)
(1.72277e-09 -1.5757e-09 0)
(-1.84329e-08 -1.82745e-09 0)
(-1.30582e-08 -2.33074e-09 0)
(1.49454e-08 1.96673e-09 0)
(2.42074e-08 2.81442e-09 0)
(2.18515e-09 3.34914e-09 0)
(-2.41387e-08 2.9186e-09 0)
(-1.69915e-08 1.93434e-09 0)
(1.85589e-08 -4.08375e-09 0)
(3.01377e-08 -2.9425e-09 0)
(2.6342e-09 -2.12051e-09 0)
(-3.00591e-08 -2.78727e-09 0)
(-2.10288e-08 -4.13204e-09 0)
(2.22822e-08 2.56511e-09 0)
(3.62787e-08 4.37662e-09 0)
(3.06957e-09 5.54977e-09 0)
(-3.61924e-08 4.59385e-09 0)
(-2.51647e-08 2.49758e-09 0)
(2.6132e-08 -6.39914e-09 0)
(4.26506e-08 -4.14255e-09 0)
(3.49104e-09 -2.54297e-09 0)
(-4.25591e-08 -3.85444e-09 0)
(-2.9416e-08 -6.48884e-09 0)
(3.01009e-08 2.57896e-09 0)
(4.92501e-08 5.77249e-09 0)
(3.89824e-09 7.86873e-09 0)
(-4.91561e-08 6.1427e-09 0)
(-3.37753e-08 2.46363e-09 0)
(3.42083e-08 -9.60901e-09 0)
(5.61003e-08 -5.79652e-09 0)
(4.29094e-09 -3.11736e-09 0)
(-5.60067e-08 -5.33552e-09 0)
(-3.82621e-08 -9.75274e-09 0)
(3.84459e-08 5.28383e-09 0)
(6.31972e-08 1.03273e-08 0)
(4.66869e-09 1.3673e-08 0)
(-6.31071e-08 1.08916e-08 0)
(-4.28679e-08 5.1082e-09 0)
(4.28348e-08 -1.94051e-09 0)
(7.05664e-08 3.93892e-09 0)
(5.03131e-09 8.04788e-09 0)
(-7.04831e-08 4.61328e-09 0)
(-4.7614e-08 -2.15108e-09 0)
(4.73669e-08 1.72514e-08 0)
(7.82043e-08 2.46856e-08 0)
(5.37826e-09 2.96399e-08 0)
(-7.81315e-08 2.54806e-08 0)
(-5.2492e-08 1.70018e-08 0)
(5.20639e-08 -6.88003e-08 0)
(8.61375e-08 -6.04276e-08 0)
(5.70936e-09 -5.4574e-08 0)
(-8.6079e-08 -5.95072e-08 0)
(-5.75239e-08 -6.90902e-08 0)
(5.69166e-08 -2.71962e-07 0)
(9.43609e-08 -2.62052e-07 0)
(6.02401e-09 -2.55376e-07 0)
(-9.43206e-08 -2.61004e-07 0)
(-6.27001e-08 -2.72292e-07 0)
(6.1945e-08 -3.72834e-07 0)
(1.02898e-07 -3.61741e-07 0)
(6.32191e-09 -3.5414e-07 0)
(-1.0288e-07 -3.60559e-07 0)
(-6.80408e-08 -3.73206e-07 0)
(6.71496e-08 1.37017e-06 0)
(1.11756e-07 1.38604e-06 0)
(6.6025e-09 1.39615e-06 0)
(-1.11766e-07 1.38745e-06 0)
(-7.35461e-08 1.36972e-06 0)
(7.25908e-08 7.30877e-06 0)
(1.21025e-07 7.33494e-06 0)
(6.86699e-09 7.35218e-06 0)
(-1.21067e-07 7.33684e-06 0)
(-7.92786e-08 7.30816e-06 0)
(7.83232e-08 8.19293e-06 0)
(1.30764e-07 8.22832e-06 0)
(7.16835e-09 8.25332e-06 0)
(-1.30785e-07 8.23074e-06 0)
(-8.52875e-08 8.19209e-06 0)
(8.43094e-08 -3.00664e-05 0)
(1.41029e-07 -3.00812e-05 0)
(7.38861e-09 -3.00884e-05 0)
(-1.41131e-07 -3.00805e-05 0)
(-9.15724e-08 -3.00668e-05 0)
(9.14318e-08 -0.000237047 0)
(1.53264e-07 -0.000237258 0)
(7.65861e-09 -0.000237406 0)
(-1.5347e-07 -0.000237265 0)
(-9.90678e-08 -0.000237045 0)
(9.32488e-08 -0.000877989 0)
(1.5635e-07 -0.000877892 0)
(7.71927e-09 -0.000877834 0)
(-1.56577e-07 -0.000877889 0)
(-1.00967e-07 -0.00087799 0)
(9.18335e-08 -0.00202262 0)
(1.53941e-07 -0.00202248 0)
(7.50176e-09 -0.00202239 0)
(-1.54099e-07 -0.00202248 0)
(-9.92516e-08 -0.00202262 0)
(8.63204e-08 -0.00117981 0)
(1.45259e-07 -0.00117989 0)
(7.18762e-09 -0.00117993 0)
(-1.45314e-07 -0.00117989 0)
(-9.33093e-08 -0.00117981 0)
(8.13255e-08 -0.00109871 0)
(1.37165e-07 -0.00109875 0)
(6.88191e-09 -0.00109878 0)
(-1.37121e-07 -0.00109875 0)
(-8.79005e-08 -0.00109871 0)
(7.67968e-08 -0.00112189 0)
(1.29716e-07 -0.00112191 0)
(6.59024e-09 -0.00112192 0)
(-1.29581e-07 -0.00112191 0)
(-8.29807e-08 -0.00112189 0)
(7.24476e-08 -0.00114531 0)
(1.22564e-07 -0.00114532 0)
(6.30929e-09 -0.00114533 0)
(-1.22343e-07 -0.00114532 0)
(-7.82584e-08 -0.00114531 0)
(6.81751e-08 -0.00114959 0)
(1.15556e-07 -0.0011496 0)
(6.03643e-09 -0.00114961 0)
(-1.15254e-07 -0.0011496 0)
(-7.3627e-08 -0.00114959 0)
(6.40032e-08 -0.00114841 0)
(1.08709e-07 -0.00114842 0)
(5.77118e-09 -0.00114843 0)
(-1.0833e-07 -0.00114842 0)
(-6.91098e-08 -0.00114841 0)
(5.99544e-08 -0.00114748 0)
(1.02048e-07 -0.00114749 0)
(5.51356e-09 -0.0011475 0)
(-1.01597e-07 -0.00114749 0)
(-6.47291e-08 -0.00114748 0)
(5.6032e-08 -0.00114731 0)
(9.55818e-08 -0.00114731 0)
(5.26357e-09 -0.00114732 0)
(-9.50633e-08 -0.00114731 0)
(-6.04883e-08 -0.00114731 0)
(5.22336e-08 -0.00114736 0)
(8.93072e-08 -0.00114736 0)
(5.02109e-09 -0.00114737 0)
(-8.87255e-08 -0.00114736 0)
(-5.63844e-08 -0.00114736 0)
(4.85575e-08 -0.0011474 0)
(8.32236e-08 -0.0011474 0)
(4.78599e-09 -0.0011474 0)
(-8.25831e-08 -0.0011474 0)
(-5.24156e-08 -0.0011474 0)
(4.50033e-08 -0.00114741 0)
(7.73311e-08 -0.00114741 0)
(4.55814e-09 -0.00114741 0)
(-7.6636e-08 -0.00114741 0)
(-4.85812e-08 -0.00114741 0)
(4.15709e-08 -0.00114741 0)
(7.16302e-08 -0.00114741 0)
(4.3374e-09 -0.0011474 0)
(-7.08846e-08 -0.0011474 0)
(-4.48808e-08 -0.00114741 0)
(3.82599e-08 -0.00114741 0)
(6.61209e-08 -0.0011474 0)
(4.12365e-09 -0.0011474 0)
(-6.5329e-08 -0.0011474 0)
(-4.13137e-08 -0.00114741 0)
(3.50698e-08 -0.00114741 0)
(6.08034e-08 -0.0011474 0)
(3.91676e-09 -0.0011474 0)
(-5.99691e-08 -0.0011474 0)
(-3.78792e-08 -0.00114741 0)
(3.20002e-08 -0.00114741 0)
(5.56775e-08 -0.0011474 0)
(3.7166e-09 -0.0011474 0)
(-5.48046e-08 -0.0011474 0)
(-3.45765e-08 -0.00114741 0)
(2.90504e-08 -0.00114741 0)
(5.07429e-08 -0.0011474 0)
(3.52304e-09 -0.0011474 0)
(-4.98353e-08 -0.0011474 0)
(-3.14046e-08 -0.00114741 0)
(2.62197e-08 -0.00114741 0)
(4.59992e-08 -0.0011474 0)
(3.33595e-09 -0.0011474 0)
(-4.50606e-08 -0.0011474 0)
(-2.83626e-08 -0.00114741 0)
(2.35074e-08 -0.00114741 0)
(4.14458e-08 -0.0011474 0)
(3.1552e-09 -0.0011474 0)
(-4.04798e-08 -0.0011474 0)
(-2.54494e-08 -0.00114741 0)
(2.09127e-08 -0.00114741 0)
(3.70822e-08 -0.0011474 0)
(2.98067e-09 -0.00114739 0)
(-3.60923e-08 -0.0011474 0)
(-2.2664e-08 -0.00114741 0)
(1.84346e-08 -0.00114741 0)
(3.29074e-08 -0.0011474 0)
(2.81222e-09 -0.00114739 0)
(-3.18971e-08 -0.0011474 0)
(-2.00052e-08 -0.00114741 0)
(1.60721e-08 -0.00114741 0)
(2.89206e-08 -0.0011474 0)
(2.64974e-09 -0.00114739 0)
(-2.78931e-08 -0.0011474 0)
(-1.74716e-08 -0.00114741 0)
(1.38243e-08 -0.00114741 0)
(2.51205e-08 -0.0011474 0)
(2.49308e-09 -0.00114739 0)
(-2.40791e-08 -0.0011474 0)
(-1.5062e-08 -0.00114741 0)
(1.169e-08 -0.00114741 0)
(2.15059e-08 -0.0011474 0)
(2.34212e-09 -0.00114739 0)
(-2.04537e-08 -0.0011474 0)
(-1.27749e-08 -0.00114741 0)
(9.66783e-09 -0.00114741 0)
(1.80753e-08 -0.0011474 0)
(2.19675e-09 -0.00114739 0)
(-1.70153e-08 -0.0011474 0)
(-1.06088e-08 -0.00114741 0)
(7.75662e-09 -0.00114741 0)
(1.48272e-08 -0.0011474 0)
(2.05682e-09 -0.00114739 0)
(-1.37623e-08 -0.0011474 0)
(-8.56215e-09 -0.00114741 0)
(5.95493e-09 -0.00114741 0)
(1.17597e-08 -0.0011474 0)
(1.92223e-09 -0.00114739 0)
(-1.06927e-08 -0.0011474 0)
(-6.63324e-09 -0.00114741 0)
(4.26128e-09 -0.00114741 0)
(8.87088e-09 -0.0011474 0)
(1.79285e-09 -0.00114739 0)
(-7.80446e-09 -0.0011474 0)
(-4.82034e-09 -0.00114741 0)
(2.67409e-09 -0.00114741 0)
(6.15865e-09 -0.0011474 0)
(1.66856e-09 -0.00114739 0)
(-5.09538e-09 -0.0011474 0)
(-3.12157e-09 -0.00114742 0)
(1.19169e-09 -0.00114741 0)
(3.6207e-09 -0.0011474 0)
(1.54923e-09 -0.00114739 0)
(-2.56305e-09 -0.0011474 0)
(-1.53503e-09 -0.00114742 0)
(-1.87671e-10 -0.00114741 0)
(1.25455e-09 -0.0011474 0)
(1.43475e-09 -0.00114739 0)
(-2.0487e-10 -0.0011474 0)
(-5.86793e-11 -0.00114742 0)
(-1.46584e-09 -0.00114741 0)
(-9.42457e-10 -0.0011474 0)
(1.32501e-09 -0.00114739 0)
(1.98193e-09 -0.0011474 0)
(1.30958e-09 -0.00114742 0)
(-2.64476e-09 -0.00114741 0)
(-2.97316e-09 -0.0011474 0)
(1.21989e-09 -0.00114739 0)
(4.00029e-09 -0.0011474 0)
(2.57196e-09 -0.00114742 0)
(-3.72645e-09 -0.00114741 0)
(-4.84056e-09 -0.0011474 0)
(1.11927e-09 -0.00114739 0)
(5.85335e-09 -0.0011474 0)
(3.73073e-09 -0.00114742 0)
(-4.71306e-09 -0.00114741 0)
(-6.54788e-09 -0.0011474 0)
(1.02305e-09 -0.00114739 0)
(7.54442e-09 -0.0011474 0)
(4.78828e-09 -0.00114741 0)
(-5.60679e-09 -0.00114741 0)
(-8.09849e-09 -0.0011474 0)
(9.31111e-10 -0.00114739 0)
(9.077e-09 -0.0011474 0)
(5.74706e-09 -0.00114741 0)
(-6.40995e-09 -0.00114741 0)
(-9.49597e-09 -0.0011474 0)
(8.43348e-10 -0.00114739 0)
(1.04548e-08 -0.0011474 0)
(6.60965e-09 -0.00114741 0)
(-7.12495e-09 -0.00114741 0)
(-1.0744e-08 -0.0011474 0)
(7.59653e-10 -0.00114739 0)
(1.16816e-08 -0.0011474 0)
(7.37867e-09 -0.00114741 0)
(-7.75428e-09 -0.00114741 0)
(-1.18467e-08 -0.0011474 0)
(6.79922e-10 -0.00114739 0)
(1.27615e-08 -0.0011474 0)
(8.05686e-09 -0.00114741 0)
(-8.30053e-09 -0.00114741 0)
(-1.28079e-08 -0.0011474 0)
(6.04052e-10 -0.00114739 0)
(1.36988e-08 -0.0011474 0)
(8.64704e-09 -0.00114741 0)
(-8.76636e-09 -0.00114741 0)
(-1.36322e-08 -0.0011474 0)
(5.3194e-10 -0.00114739 0)
(1.44978e-08 -0.0011474 0)
(9.15211e-09 -0.00114741 0)
(-9.15456e-09 -0.00114741 0)
(-1.43238e-08 -0.0011474 0)
(4.63486e-10 -0.00114739 0)
(1.51631e-08 -0.0011474 0)
(9.57507e-09 -0.00114741 0)
(-9.46795e-09 -0.00114741 0)
(-1.48875e-08 -0.0011474 0)
(3.98593e-10 -0.00114739 0)
(1.56994e-08 -0.0011474 0)
(9.91897e-09 -0.00114741 0)
(-9.70949e-09 -0.00114741 0)
(-1.5328e-08 -0.0011474 0)
(3.37163e-10 -0.00114739 0)
(1.61118e-08 -0.0011474 0)
(1.0187e-08 -0.00114741 0)
(-9.88218e-09 -0.00114741 0)
(-1.56503e-08 -0.0011474 0)
(2.791e-10 -0.00114739 0)
(1.64052e-08 -0.0011474 0)
(1.03823e-08 -0.00114741 0)
(-9.98912e-09 -0.00114741 0)
(-1.58596e-08 -0.0011474 0)
(2.2431e-10 -0.00114739 0)
(1.65849e-08 -0.0011474 0)
(1.05083e-08 -0.00114741 0)
(-1.00335e-08 -0.00114741 0)
(-1.59611e-08 -0.0011474 0)
(1.72701e-10 -0.0011474 0)
(1.66562e-08 -0.0011474 0)
(1.05683e-08 -0.00114741 0)
(-1.00185e-08 -0.00114741 0)
(-1.59604e-08 -0.0011474 0)
(1.24181e-10 -0.0011474 0)
(1.66249e-08 -0.0011474 0)
(1.05657e-08 -0.00114741 0)
(-9.94757e-09 -0.00114741 0)
(-1.58629e-08 -0.0011474 0)
(7.86594e-11 -0.0011474 0)
(1.64965e-08 -0.0011474 0)
(1.05041e-08 -0.00114741 0)
(-9.824e-09 -0.00114741 0)
(-1.56743e-08 -0.0011474 0)
(3.60467e-11 -0.0011474 0)
(1.62768e-08 -0.0011474 0)
(1.03871e-08 -0.00114741 0)
(-9.65128e-09 -0.00114741 0)
(-1.54006e-08 -0.0011474 0)
(-3.74568e-12 -0.0011474 0)
(1.59719e-08 -0.0011474 0)
(1.02184e-08 -0.00114741 0)
(-9.43291e-09 -0.00114741 0)
(-1.50478e-08 -0.0011474 0)
(-4.08055e-11 -0.0011474 0)
(1.55877e-08 -0.0011474 0)
(1.00015e-08 -0.00114741 0)
(-9.17248e-09 -0.00114741 0)
(-1.46218e-08 -0.0011474 0)
(-7.52199e-11 -0.0011474 0)
(1.51305e-08 -0.0011474 0)
(9.74026e-09 -0.00114741 0)
(-8.87361e-09 -0.00114741 0)
(-1.4129e-08 -0.0011474 0)
(-1.07076e-10 -0.0011474 0)
(1.46066e-08 -0.0011474 0)
(9.43852e-09 -0.00114741 0)
(-8.53998e-09 -0.00114741 0)
(-1.35756e-08 -0.0011474 0)
(-1.36459e-10 -0.0011474 0)
(1.40224e-08 -0.0011474 0)
(9.1001e-09 -0.00114741 0)
(-8.17531e-09 -0.00114741 0)
(-1.29679e-08 -0.0011474 0)
(-1.63457e-10 -0.0011474 0)
(1.33844e-08 -0.0011474 0)
(8.72889e-09 -0.00114741 0)
(-7.78337e-09 -0.00114741 0)
(-1.23126e-08 -0.0011474 0)
(-1.88155e-10 -0.0011474 0)
(1.26991e-08 -0.0011474 0)
(8.32883e-09 -0.00114741 0)
(-7.36796e-09 -0.00114741 0)
(-1.16161e-08 -0.0011474 0)
(-2.1064e-10 -0.0011474 0)
(1.19732e-08 -0.0011474 0)
(7.90389e-09 -0.00114741 0)
(-6.93291e-09 -0.00114741 0)
(-1.08851e-08 -0.0011474 0)
(-2.31e-10 -0.0011474 0)
(1.12133e-08 -0.0011474 0)
(7.45805e-09 -0.00114741 0)
(-6.48209e-09 -0.00114741 0)
(-1.01262e-08 -0.0011474 0)
(-2.49322e-10 -0.0011474 0)
(1.04263e-08 -0.0011474 0)
(6.99536e-09 -0.00114741 0)
(-6.01938e-09 -0.00114741 0)
(-9.34619e-09 -0.0011474 0)
(-2.65695e-10 -0.0011474 0)
(9.61895e-09 -0.0011474 0)
(6.51985e-09 -0.00114741 0)
(-5.54871e-09 -0.00114741 0)
(-8.5518e-09 -0.0011474 0)
(-2.8021e-10 -0.0011474 0)
(8.79809e-09 -0.0011474 0)
(6.03559e-09 -0.00114741 0)
(-5.07399e-09 -0.00114741 0)
(-7.74983e-09 -0.0011474 0)
(-2.92957e-10 -0.0011474 0)
(7.97061e-09 -0.0011474 0)
(5.54667e-09 -0.00114741 0)
(-4.59917e-09 -0.00114741 0)
(-6.94711e-09 -0.0011474 0)
(-3.04031e-10 -0.0011474 0)
(7.1434e-09 -0.0011474 0)
(5.0572e-09 -0.00114741 0)
(-4.1282e-09 -0.00114741 0)
(-6.15048e-09 -0.0011474 0)
(-3.13529e-10 -0.0011474 0)
(6.32338e-09 -0.0011474 0)
(4.57127e-09 -0.00114741 0)
(-3.66505e-09 -0.00114741 0)
(-5.36678e-09 -0.0011474 0)
(-3.21547e-10 -0.0011474 0)
(5.51747e-09 -0.0011474 0)
(4.09302e-09 -0.0011474 0)
(-3.21368e-09 -0.0011474 0)
(-4.60287e-09 -0.0011474 0)
(-3.28189e-10 -0.0011474 0)
(4.73258e-09 -0.0011474 0)
(3.62657e-09 -0.0011474 0)
(-2.77807e-09 -0.0011474 0)
(-3.86558e-09 -0.0011474 0)
(-3.3356e-10 -0.0011474 0)
(3.97564e-09 -0.0011474 0)
(3.17606e-09 -0.0011474 0)
(-2.3622e-09 -0.0011474 0)
(-3.16174e-09 -0.0011474 0)
(-3.37769e-10 -0.0011474 0)
(3.25355e-09 -0.0011474 0)
(2.74563e-09 -0.0011474 0)
(-1.97003e-09 -0.0011474 0)
(-2.49817e-09 -0.0011474 0)
(-3.4093e-10 -0.0011474 0)
(2.5732e-09 -0.0011474 0)
(2.33944e-09 -0.0011474 0)
(-1.60554e-09 -0.0011474 0)
(-1.88166e-09 -0.00114741 0)
(-3.43164e-10 -0.0011474 0)
(1.94144e-09 -0.0011474 0)
(1.96163e-09 -0.0011474 0)
(-1.27271e-09 -0.0011474 0)
(-1.31898e-09 -0.00114741 0)
(-3.44597e-10 -0.0011474 0)
(1.36513e-09 -0.0011474 0)
(1.61638e-09 -0.0011474 0)
(-9.7552e-10 -0.0011474 0)
(-8.16853e-10 -0.00114741 0)
(-3.4536e-10 -0.0011474 0)
(8.51077e-10 -0.0011474 0)
(1.30784e-09 -0.0011474 0)
(-7.17944e-10 -0.0011474 0)
(-3.81991e-10 -0.00114741 0)
(-3.45595e-10 -0.0011474 0)
(4.06057e-10 -0.0011474 0)
(1.04022e-09 -0.0011474 0)
(-5.03964e-10 -0.0011474 0)
(-2.10566e-11 -0.00114741 0)
(-3.45451e-10 -0.0011474 0)
(3.68223e-11 -0.0011474 0)
(8.17717e-10 -0.0011474 0)
(-3.37562e-10 -0.0011474 0)
(2.59339e-10 -0.00114741 0)
(-3.45095e-10 -0.0011474 0)
(-2.49929e-10 -0.0011474 0)
(6.44551e-10 -0.0011474 0)
(-2.22722e-10 -0.0011474 0)
(4.52643e-10 -0.00114741 0)
(-3.44723e-10 -0.0011474 0)
(-4.47547e-10 -0.0011474 0)
(5.24993e-10 -0.0011474 0)
(-1.63376e-10 -0.0011474 0)
(5.52453e-10 -0.00114741 0)
(-3.4453e-10 -0.0011474 0)
(-5.49532e-10 -0.0011474 0)
(4.63266e-10 -0.0011474 0)
)
;

boundaryField
{
    BotWall
    {
        type            fixedValue;
        value           uniform (0 0 0);
    }
    FreeStream
    {
        type            zeroGradient;
    }
    FrontNBack
    {
        type            empty;
    }
    LeftSide
    {
        type            symmetryPlane;
    }
    RightSide
    {
        type            symmetryPlane;
    }
}


// ************************************************************************* //
