/*--------------------------------*- C++ -*----------------------------------*\
| =========                 |                                                 |
| \\      /  F ield         | OpenFOAM: The Open Source CFD Toolbox           |
|  \\    /   O peration     | Version:  2.4.0                                 |
|   \\  /    A nd           | Web:      www.OpenFOAM.org                      |
|    \\/     M anipulation  |                                                 |
\*---------------------------------------------------------------------------*/
FoamFile
{
    version     2.0;
    format      ascii;
    class       volScalarField;
    location    "0.016";
    object      H;
}
// * * * * * * * * * * * * * * * * * * * * * * * * * * * * * * * * * * * * * //

dimensions      [0 2 -2 0 0 0 0];

internalField   nonuniform List<scalar> 
125
(
-0.0913228
-0.0843157
-0.077798
-0.071739
-0.0661096
-0.0608827
-0.0560325
-0.0515347
-0.0473664
-0.0435059
-0.0399329
-0.0366283
-0.033574
-0.0307529
-0.0281492
-0.0257477
-0.0235345
-0.0214961
-0.0196201
-0.017895
-0.0163097
-0.014854
-0.0135183
-0.0122936
-0.0111717
-0.0101446
-0.00920501
-0.00834624
-0.0075619
-0.00684611
-0.00619339
-0.00559864
-0.00505716
-0.00456455
-0.00411677
-0.00371006
-0.00334095
-0.00300623
-0.00270295
-0.00242837
-0.00217997
-0.00195545
-0.00175267
-0.00156967
-0.00140467
-0.00125601
-0.00112218
-0.00100181
-0.000893632
-0.000796489
-0.000709329
-0.000631191
-0.000561199
-0.000498558
-0.000442542
-0.000392493
-0.000347813
-0.00030796
-0.000272443
-0.000240818
-0.000212681
-0.00018767
-0.000165458
-0.000145747
-0.000128272
-0.000112793
-9.90934e-05
-8.69801e-05
-7.62788e-05
-6.68335e-05
-5.85043e-05
-5.11661e-05
-4.47068e-05
-3.90265e-05
-3.40359e-05
-2.96553e-05
-2.58139e-05
-2.24484e-05
-1.95027e-05
-1.69269e-05
-1.46769e-05
-1.27133e-05
-1.10013e-05
-9.5102e-06
-8.21284e-06
-7.08513e-06
-6.10595e-06
-5.25656e-06
-4.52055e-06
-3.88345e-06
-3.33255e-06
-2.85671e-06
-2.44612e-06
-2.09223e-06
-1.78755e-06
-1.52553e-06
-1.30044e-06
-1.10729e-06
-9.41749e-07
-8.00024e-07
-6.78823e-07
-5.75317e-07
-4.86971e-07
-4.11756e-07
-3.47703e-07
-2.93269e-07
-2.47033e-07
-2.07843e-07
-1.74646e-07
-1.46566e-07
-1.22853e-07
-1.02828e-07
-8.59738e-08
-7.17703e-08
-5.98513e-08
-4.98323e-08
-4.14466e-08
-3.44197e-08
-2.85413e-08
-2.36454e-08
-1.95489e-08
-1.61527e-08
-1.33194e-08
-1.09674e-08
-9.02557e-09
)
;

boundaryField
{
    BotWall
    {
        type            zeroGradient;
    }
    FreeStream
    {
        type            zeroGradient;
    }
    FrontNBack
    {
        type            empty;
    }
    LeftSide
    {
        type            symmetryPlane;
    }
    RightSide
    {
        type            symmetryPlane;
    }
    procBoundary5to2
    {
        type            processor;
        value           nonuniform List<scalar> 
50
(
-2.9596e-05
-2.5762e-05
-2.24031e-05
-1.94632e-05
-1.68926e-05
-1.4647e-05
-1.26872e-05
-1.09787e-05
-9.49059e-06
-8.19581e-06
-7.07042e-06
-6.09317e-06
-5.24555e-06
-4.51103e-06
-3.87524e-06
-3.32547e-06
-2.85061e-06
-2.44088e-06
-2.08774e-06
-1.78369e-06
-1.52222e-06
-1.2976e-06
-1.10487e-06
-9.39677e-07
-7.9825e-07
-6.77309e-07
-5.74027e-07
-4.85921e-07
-4.1082e-07
-3.46909e-07
-2.92595e-07
-2.46471e-07
-2.07367e-07
-1.74228e-07
-1.46252e-07
-1.22553e-07
-1.02591e-07
-8.57638e-08
-7.16015e-08
-5.97028e-08
-4.97191e-08
-4.13409e-08
-3.43314e-08
-2.84769e-08
-2.35779e-08
-1.95081e-08
-1.61066e-08
-1.32912e-08
-1.09348e-08
-8.99583e-09
)
;
    }
    procBoundary5to3
    {
        type            processor;
        value           nonuniform List<scalar> 
75
(
-0.0912187
-0.0842192
-0.0777085
-0.0716559
-0.0660327
-0.0608115
-0.0559665
-0.0514736
-0.0473098
-0.0434536
-0.0398846
-0.0365837
-0.0335328
-0.0307149
-0.0281141
-0.0257154
-0.0235047
-0.0214687
-0.0195949
-0.0178718
-0.0162884
-0.0148344
-0.0135003
-0.0122772
-0.0111566
-0.0101308
-0.0091924
-0.00833472
-0.00755138
-0.00683651
-0.00618464
-0.00559067
-0.00504991
-0.00455796
-0.00411078
-0.00370463
-0.00333602
-0.00300177
-0.00269891
-0.00242471
-0.00217667
-0.00195247
-0.00174998
-0.00156725
-0.00140249
-0.00125405
-0.00112042
-0.00100023
-0.000892215
-0.000795219
-0.000708192
-0.000630174
-0.000560291
-0.000497747
-0.000441819
-0.000391849
-0.000347239
-0.00030745
-0.000271989
-0.000240414
-0.000212323
-0.000187353
-0.000165176
-0.000145497
-0.000128051
-0.000112597
-9.89199e-05
-8.68265e-05
-7.61428e-05
-6.6713e-05
-5.83974e-05
-5.10712e-05
-4.46225e-05
-3.89514e-05
-3.39688e-05
)
;
    }
    procBoundary5to4
    {
        type            processor;
        value           uniform -7.4094e-09;
    }
    procBoundary5to6
    {
        type            processor;
        value           uniform -0.0988529;
    }
    procBoundary5to7
    {
        type            processor;
        value           nonuniform List<scalar> 
75
(
-0.000696962
-0.000620092
-0.000551248
-0.000489644
-0.000434565
-0.000385361
-0.000341443
-0.000302276
-0.000267376
-0.000236304
-0.000208665
-0.000184101
-0.000162288
-0.000142935
-0.000125779
-0.000110585
-9.71405e-05
-8.52541e-05
-7.47548e-05
-6.54892e-05
-5.73196e-05
-5.0123e-05
-4.37894e-05
-3.82204e-05
-3.33282e-05
-2.90347e-05
-2.52701e-05
-2.19724e-05
-1.90865e-05
-1.65634e-05
-1.43596e-05
-1.24367e-05
-1.07604e-05
-9.30064e-06
-8.03069e-06
-6.92699e-06
-5.96877e-06
-5.1377e-06
-4.41769e-06
-3.7945e-06
-3.25575e-06
-2.79042e-06
-2.389e-06
-2.04306e-06
-1.74527e-06
-1.48921e-06
-1.26927e-06
-1.08058e-06
-9.1889e-07
-7.80473e-07
-6.62117e-07
-5.61088e-07
-4.74855e-07
-4.01426e-07
-3.38921e-07
-2.8581e-07
-2.40718e-07
-2.025e-07
-1.70122e-07
-1.42743e-07
-1.19631e-07
-1.00118e-07
-8.36857e-08
-6.98605e-08
-5.82394e-08
-4.84799e-08
-4.03136e-08
-3.34724e-08
-2.77647e-08
-2.29862e-08
-1.90046e-08
-1.56934e-08
-1.29472e-08
-1.06534e-08
-8.76352e-09
)
;
    }
    procBoundary5to8
    {
        type            processor;
        value           nonuniform List<scalar> 
50
(
-0.0904858
-0.0835333
-0.0770668
-0.0710557
-0.0654714
-0.0602868
-0.0554762
-0.0510157
-0.0468824
-0.0430548
-0.0395127
-0.0362371
-0.03321
-0.0304146
-0.0278349
-0.025456
-0.0232638
-0.0212452
-0.0193878
-0.01768
-0.0161109
-0.0146703
-0.0133488
-0.0121373
-0.0110277
-0.010012
-0.00908314
-0.00823427
-0.00745913
-0.00675187
-0.00610704
-0.00551961
-0.00498489
-0.00449853
-0.00405651
-0.00365511
-0.00329089
-0.00296067
-0.00266152
-0.00239073
-0.00214581
-0.00192447
-0.0017246
-0.00154426
-0.00138169
-0.00123524
-0.00110343
-0.000984889
-0.000878373
-0.000782739
)
;
    }
}


// ************************************************************************* //
