/*--------------------------------*- C++ -*----------------------------------*\
| =========                 |                                                 |
| \\      /  F ield         | OpenFOAM: The Open Source CFD Toolbox           |
|  \\    /   O peration     | Version:  2.4.0                                 |
|   \\  /    A nd           | Web:      www.OpenFOAM.org                      |
|    \\/     M anipulation  |                                                 |
\*---------------------------------------------------------------------------*/
FoamFile
{
    version     2.0;
    format      ascii;
    class       volScalarField;
    location    "0.016";
    object      p_rgh;
}
// * * * * * * * * * * * * * * * * * * * * * * * * * * * * * * * * * * * * * //

dimensions      [1 -1 -2 0 0 0 0];

internalField   nonuniform List<scalar> 
125
(
-0.00334756
-0.00333701
-0.00332643
-0.00331581
-0.00330515
-0.00329445
-0.00328372
-0.00327294
-0.00326213
-0.00325127
-0.00324038
-0.00322944
-0.00321847
-0.00320745
-0.0031964
-0.0031853
-0.00317417
-0.00316299
-0.00315178
-0.00314052
-0.00312922
-0.00311788
-0.0031065
-0.00309507
-0.00308361
-0.0030721
-0.00306055
-0.00304896
-0.00303732
-0.00302565
-0.00301393
-0.00300216
-0.00299036
-0.00297851
-0.00296662
-0.00295468
-0.0029427
-0.00293068
-0.00291861
-0.0029065
-0.00289435
-0.00288215
-0.0028699
-0.00285761
-0.00284528
-0.0028329
-0.00282047
-0.002808
-0.00279549
-0.00278293
-0.00277032
-0.00275766
-0.00274496
-0.00273222
-0.00271942
-0.00270658
-0.0026937
-0.00268076
-0.00266778
-0.00265475
-0.00264167
-0.00262855
-0.00261538
-0.00260215
-0.00258888
-0.00257557
-0.0025622
-0.00254878
-0.00253532
-0.0025218
-0.00250824
-0.00249462
-0.00248096
-0.00246725
-0.00245348
-0.00243967
-0.0024258
-0.00241189
-0.00239792
-0.0023839
-0.00236983
-0.00235571
-0.00234154
-0.00232732
-0.00231304
-0.00229871
-0.00228433
-0.00226989
-0.00225541
-0.00224087
-0.00222627
-0.00221162
-0.00219692
-0.00218217
-0.00216736
-0.0021525
-0.00213758
-0.00212261
-0.00210758
-0.0020925
-0.00207736
-0.00206217
-0.00204692
-0.00203161
-0.00201625
-0.00200083
-0.00198536
-0.00196983
-0.00195424
-0.0019386
-0.00192289
-0.00190713
-0.00189132
-0.00187544
-0.00185951
-0.00184351
-0.00182746
-0.00181135
-0.00179518
-0.00177895
-0.00176267
-0.00174632
-0.00172991
-0.00171344
-0.00169691
)
;

boundaryField
{
    BotWall
    {
        type            fixedFluxPressure;
        gradient        nonuniform 0();
        value           nonuniform 0();
    }
    FreeStream
    {
        type            totalPressure;
        rho             rho;
        psi             none;
        gamma           1;
        p0              nonuniform 0();
        value           nonuniform 0();
    }
    FrontNBack
    {
        type            empty;
    }
    LeftSide
    {
        type            symmetryPlane;
    }
    RightSide
    {
        type            symmetryPlane;
    }
    procBoundary5to2
    {
        type            processor;
        value           nonuniform List<scalar> 
50
(
-0.00243661
-0.00242278
-0.0024089
-0.00239497
-0.00238099
-0.00236696
-0.00235288
-0.00233874
-0.00232455
-0.00231031
-0.00229602
-0.00228168
-0.00226728
-0.00225284
-0.00223833
-0.00222378
-0.00220917
-0.00219451
-0.00217979
-0.00216502
-0.0021502
-0.00213532
-0.00212038
-0.00210539
-0.00209035
-0.00207525
-0.0020601
-0.00204489
-0.00202962
-0.0020143
-0.00199892
-0.00198349
-0.00196799
-0.00195245
-0.00193684
-0.00192118
-0.00190546
-0.00188968
-0.00187384
-0.00185795
-0.001842
-0.00182599
-0.00180992
-0.00179379
-0.0017776
-0.00176135
-0.00174504
-0.00172868
-0.00171225
-0.00169576
)
;
    }
    procBoundary5to3
    {
        type            processor;
        value           nonuniform List<scalar> 
75
(
-0.00334213
-0.00333162
-0.00332106
-0.00331047
-0.00329984
-0.00328918
-0.00327847
-0.00326772
-0.00325694
-0.00324611
-0.00323525
-0.00322434
-0.0032134
-0.00320241
-0.00319139
-0.00318032
-0.00316922
-0.00315807
-0.00314689
-0.00313566
-0.00312439
-0.00311308
-0.00310173
-0.00309033
-0.0030789
-0.00306742
-0.0030559
-0.00304434
-0.00303274
-0.00302109
-0.00300941
-0.00299767
-0.0029859
-0.00297408
-0.00296222
-0.00295032
-0.00293837
-0.00292638
-0.00291434
-0.00290226
-0.00289014
-0.00287797
-0.00286576
-0.0028535
-0.0028412
-0.00282885
-0.00281646
-0.00280402
-0.00279154
-0.00277901
-0.00276643
-0.00275381
-0.00274114
-0.00272843
-0.00271567
-0.00270286
-0.00269001
-0.00267711
-0.00266416
-0.00265116
-0.00263812
-0.00262502
-0.00261188
-0.0025987
-0.00258546
-0.00257217
-0.00255884
-0.00254546
-0.00253203
-0.00251854
-0.00250501
-0.00249143
-0.0024778
-0.00246412
-0.00245039
)
;
    }
    procBoundary5to4
    {
        type            processor;
        value           uniform -0.00168032;
    }
    procBoundary5to6
    {
        type            processor;
        value           uniform -0.00335806;
    }
    procBoundary5to7
    {
        type            processor;
        value           nonuniform List<scalar> 
75
(
-0.00277145
-0.00275878
-0.00274606
-0.0027333
-0.00272049
-0.00270764
-0.00269473
-0.00268178
-0.00266878
-0.00265574
-0.00264264
-0.0026295
-0.00261631
-0.00260308
-0.00258979
-0.00257645
-0.00256307
-0.00254963
-0.00253615
-0.00252262
-0.00250904
-0.0024954
-0.00248172
-0.00246799
-0.00245421
-0.00244037
-0.00242649
-0.00241255
-0.00239857
-0.00238453
-0.00237044
-0.0023563
-0.00234211
-0.00232786
-0.00231356
-0.00229921
-0.00228481
-0.00227035
-0.00225585
-0.00224128
-0.00222667
-0.002212
-0.00219728
-0.0021825
-0.00216767
-0.00215278
-0.00213784
-0.00212284
-0.00210779
-0.00209269
-0.00207753
-0.00206231
-0.00204704
-0.00203171
-0.00201632
-0.00200088
-0.00198538
-0.00196982
-0.00195421
-0.00193854
-0.00192281
-0.00190702
-0.00189118
-0.00187528
-0.00185932
-0.0018433
-0.00182722
-0.00181108
-0.00179488
-0.00177863
-0.00176231
-0.00174593
-0.0017295
-0.001713
-0.00169644
)
;
    }
    procBoundary5to8
    {
        type            processor;
        value           nonuniform List<scalar> 
50
(
-0.00334926
-0.00333871
-0.00332812
-0.00331749
-0.00330683
-0.00329612
-0.00328538
-0.00327459
-0.00326377
-0.00325291
-0.003242
-0.00323106
-0.00322008
-0.00320905
-0.00319799
-0.00318688
-0.00317574
-0.00316455
-0.00315332
-0.00314206
-0.00313075
-0.00311939
-0.003108
-0.00309657
-0.00308509
-0.00307357
-0.00306201
-0.00305041
-0.00303876
-0.00302707
-0.00301534
-0.00300357
-0.00299175
-0.00297989
-0.00296798
-0.00295603
-0.00294404
-0.00293201
-0.00291992
-0.0029078
-0.00289563
-0.00288342
-0.00287116
-0.00285885
-0.00284651
-0.00283411
-0.00282167
-0.00280919
-0.00279665
-0.00278407
)
;
    }
}


// ************************************************************************* //
