/*--------------------------------*- C++ -*----------------------------------*\
| =========                 |                                                 |
| \\      /  F ield         | OpenFOAM: The Open Source CFD Toolbox           |
|  \\    /   O peration     | Version:  2.4.0                                 |
|   \\  /    A nd           | Web:      www.OpenFOAM.org                      |
|    \\/     M anipulation  |                                                 |
\*---------------------------------------------------------------------------*/
FoamFile
{
    version     2.0;
    format      ascii;
    class       volScalarField;
    location    "0.1";
    object      p_rgh;
}
// * * * * * * * * * * * * * * * * * * * * * * * * * * * * * * * * * * * * * //

dimensions      [1 -1 -2 0 0 0 0];

internalField   nonuniform List<scalar> 
125
(
-0.000415239
-0.000415244
-0.000415242
-0.000415252
-0.000415262
-0.000413636
-0.000413641
-0.00041364
-0.000413649
-0.000413659
-0.000412015
-0.00041202
-0.000412019
-0.000412029
-0.000412038
-0.000410376
-0.000410381
-0.00041038
-0.000410389
-0.000410399
-0.000408718
-0.000408723
-0.000408723
-0.000408732
-0.000408741
-0.000407042
-0.000407047
-0.000407047
-0.000407056
-0.000407065
-0.000405348
-0.000405353
-0.000405353
-0.000405362
-0.000405371
-0.000403634
-0.000403639
-0.000403639
-0.000403649
-0.000403657
-0.000401902
-0.000401907
-0.000401907
-0.000401916
-0.000401925
-0.00040015
-0.000400155
-0.000400156
-0.000400165
-0.000400173
-0.000398379
-0.000398383
-0.000398385
-0.000398393
-0.000398402
-0.000396588
-0.000396592
-0.000396594
-0.000396603
-0.000396611
-0.000394777
-0.000394781
-0.000394783
-0.000394792
-0.000394801
-0.000392946
-0.00039295
-0.000392952
-0.000392961
-0.00039297
-0.000391094
-0.000391099
-0.000391101
-0.00039111
-0.000391119
-0.000389222
-0.000389227
-0.00038923
-0.000389238
-0.000389247
-0.00038733
-0.000387334
-0.000387337
-0.000387346
-0.000387354
-0.000385416
-0.00038542
-0.000385424
-0.000385432
-0.000385441
-0.000383481
-0.000383485
-0.000383489
-0.000383497
-0.000383506
-0.000381524
-0.000381529
-0.000381532
-0.000381541
-0.000381549
-0.000379545
-0.00037955
-0.000379554
-0.000379562
-0.000379571
-0.000377545
-0.00037755
-0.000377554
-0.000377562
-0.000377571
-0.000375522
-0.000375527
-0.000375531
-0.00037554
-0.000375548
-0.000373477
-0.000373481
-0.000373486
-0.000373494
-0.000373503
-0.000371408
-0.000371413
-0.000371418
-0.000371426
-0.000371435
)
;

boundaryField
{
    BotWall
    {
        type            fixedFluxPressure;
        gradient        nonuniform 0();
        value           nonuniform 0();
    }
    FreeStream
    {
        type            totalPressure;
        rho             rho;
        psi             none;
        gamma           1;
        p0              nonuniform 0();
        value           nonuniform 0();
    }
    FrontNBack
    {
        type            empty;
    }
    LeftSide
    {
        type            symmetryPlane;
    }
    RightSide
    {
        type            symmetryPlane;
    }
    procBoundary1to0
    {
        type            processor;
        value           nonuniform List<scalar> 5(-0.000416823 -0.000416828 -0.000416826 -0.000416836 -0.000416846);
    }
    procBoundary1to2
    {
        type            processor;
        value           nonuniform List<scalar> 5(-0.000369317 -0.000369321 -0.000369327 -0.000369335 -0.000369343);
    }
}


// ************************************************************************* //
