/*--------------------------------*- C++ -*----------------------------------*\
| =========                 |                                                 |
| \\      /  F ield         | OpenFOAM: The Open Source CFD Toolbox           |
|  \\    /   O peration     | Version:  2.4.0                                 |
|   \\  /    A nd           | Web:      www.OpenFOAM.org                      |
|    \\/     M anipulation  |                                                 |
\*---------------------------------------------------------------------------*/
FoamFile
{
    version     2.0;
    format      ascii;
    class       volScalarField;
    location    "0.016";
    object      H;
}
// * * * * * * * * * * * * * * * * * * * * * * * * * * * * * * * * * * * * * //

dimensions      [0 2 -2 0 0 0 0];

internalField   nonuniform List<scalar> 
125
(
-10972
-8449.82
-5913.82
-3360.86
-87.849
-65.9299
-66.4539
-66.8991
-67.2661
-67.5556
-67.7684
-67.9054
-67.9678
-67.9568
-67.8739
-67.7204
-67.498
-67.2084
-66.8535
-66.4351
-65.9553
-65.4162
-64.82
-64.169
-63.4655
-62.712
-61.9108
-61.0646
-60.1759
-59.2472
-58.2812
-57.2805
-56.2477
-55.1856
-54.0967
-52.9837
-51.8492
-50.6958
-49.5261
-48.3426
-47.1478
-45.9441
-44.734
-43.5196
-42.3033
-41.0873
-39.8736
-38.6644
-37.4614
-36.2667
-35.082
-33.9089
-32.7491
-31.6041
-30.4752
-29.3637
-28.2709
-27.1979
-26.1457
-25.1152
-24.1071
-23.1224
-22.1615
-21.2251
-20.3136
-19.4273
-18.5666
-17.7316
-16.9225
-16.1394
-15.3822
-14.6509
-13.9454
-13.2653
-12.6105
-6.6854e-07
-5.66565e-07
-4.79509e-07
-4.05388e-07
-3.42294e-07
-2.88669e-07
-2.43144e-07
-2.04545e-07
-1.71853e-07
-1.44215e-07
-1.20862e-07
-1.01152e-07
-8.45536e-08
-7.05946e-08
-5.88586e-08
-4.89954e-08
-4.07502e-08
-3.38348e-08
-2.80604e-08
-2.32345e-08
-1.92124e-08
-1.58715e-08
-1.30866e-08
-1.07771e-08
-8.85135e-09
-7.29158e-09
-5.95508e-09
-4.88666e-09
-3.98894e-09
-3.26787e-09
-2.64888e-09
-2.15142e-09
-1.76944e-09
-1.39587e-09
-1.18058e-09
-9.25842e-10
-7.78514e-10
-6.05662e-10
-4.66859e-10
-3.63922e-10
-3.66117e-10
-2.55026e-10
-1.79488e-10
-1.59501e-10
-1.52153e-10
-6.7275e-11
-5.1686e-11
-5.26412e-11
-5.12436e-11
-5.21065e-11
)
;

boundaryField
{
    BotWall
    {
        type            zeroGradient;
    }
    FreeStream
    {
        type            zeroGradient;
    }
    FrontNBack
    {
        type            empty;
    }
    LeftSide
    {
        type            symmetryPlane;
    }
    RightSide
    {
        type            symmetryPlane;
    }
    procBoundary9to6
    {
        type            processor;
        value           nonuniform List<scalar> 
50
(
-61.9177
-61.1346
-60.3075
-59.4387
-58.5307
-57.5862
-56.6076
-55.5975
-54.5585
-53.493
-52.4038
-51.2933
-50.1641
-49.0186
-47.8593
-46.6886
-45.5089
-44.3224
-43.1315
-41.9383
-40.745
-39.5537
-38.3662
-37.1846
-36.0105
-34.8459
-33.6923
-32.5512
-31.4243
-30.3127
-29.2179
-28.141
-27.0831
-26.0453
-25.0283
-24.0332
-23.0605
-22.111
-21.1852
-20.2835
-19.4063
-18.5541
-17.7269
-16.9249
-16.1482
-15.3969
-14.6708
-13.9699
-13.2939
-12.6428
)
;
    }
    procBoundary9to7
    {
        type            processor;
        value           nonuniform List<scalar> 
75
(
-10970.5
-8445.38
-5906.45
-3350.6
-86.6134
-64.9897
-65.5039
-65.9414
-66.3027
-66.5884
-66.7995
-66.9367
-67.0012
-66.9942
-66.917
-66.7711
-66.5579
-66.2792
-65.9367
-65.5322
-65.0678
-64.5454
-63.9671
-63.3353
-62.652
-6.62117e-07
-5.61088e-07
-4.74855e-07
-4.01426e-07
-3.38921e-07
-2.8581e-07
-2.40718e-07
-2.025e-07
-1.70122e-07
-1.42743e-07
-1.19631e-07
-1.00118e-07
-8.36857e-08
-6.98605e-08
-5.82394e-08
-4.84799e-08
-4.03136e-08
-3.34724e-08
-2.77647e-08
-2.29862e-08
-1.90046e-08
-1.56934e-08
-1.29472e-08
-1.06534e-08
-8.76352e-09
-7.20022e-09
-5.89935e-09
-4.81998e-09
-3.95349e-09
-3.20973e-09
-2.63954e-09
-2.12658e-09
-1.74201e-09
-1.39444e-09
-1.15074e-09
-9.10748e-10
-7.79392e-10
-5.91216e-10
-4.689e-10
-3.6102e-10
-3.51496e-10
-2.60187e-10
-1.74216e-10
-1.55801e-10
-1.5632e-10
-6.45244e-11
-4.92839e-11
-5.56128e-11
-4.80854e-11
-5.86388e-11
)
;
    }
    procBoundary9to8
    {
        type            processor;
        value           uniform -11.9807;
    }
    procBoundary9to10
    {
        type            processor;
        value           uniform -7.88015e-07;
    }
    procBoundary9to11
    {
        type            processor;
        value           nonuniform List<scalar> 
75
(
-10971.3
-8447.83
-5910.51
-3356.25
-87.2902
-65.5037
-66.0215
-66.4614
-66.824
-67.11
-67.3203
-67.4558
-67.5175
-67.5068
-67.4249
-67.2734
-67.0537
-66.7676
-66.417
-66.0036
-65.5295
-64.9967
-64.4075
-63.7641
-63.0687
-62.3238
-61.5317
-60.695
-59.8162
-58.8978
-57.9423
-56.9525
-55.9308
-54.88
-53.8025
-52.7011
-51.5783
-50.4366
-49.2786
-48.1068
-46.9236
-45.7314
-44.5327
-43.3296
-42.1244
-40.9193
-39.7163
-38.5175
-37.3248
-36.14
-34.9649
-33.8011
-32.6503
-31.5139
-30.3933
-29.2899
-28.2047
-27.1389
-26.0936
-25.0696
-24.0678
-23.0889
-22.1335
-21.2021
-20.2954
-19.4135
-18.5569
-17.7257
-16.9201
-16.1401
-15.3858
-14.6571
-13.9538
-13.2758
-12.6228
)
;
    }
}


// ************************************************************************* //
