/*--------------------------------*- C++ -*----------------------------------*\
| =========                 |                                                 |
| \\      /  F ield         | OpenFOAM: The Open Source CFD Toolbox           |
|  \\    /   O peration     | Version:  2.4.0                                 |
|   \\  /    A nd           | Web:      www.OpenFOAM.org                      |
|    \\/     M anipulation  |                                                 |
\*---------------------------------------------------------------------------*/
FoamFile
{
    version     2.0;
    format      ascii;
    class       volScalarField;
    location    "0.016";
    object      p_rgh;
}
// * * * * * * * * * * * * * * * * * * * * * * * * * * * * * * * * * * * * * //

dimensions      [1 -1 -2 0 0 0 0];

internalField   nonuniform List<scalar> 
125
(
0.0349486
0.0575978
-0.00211913
0.187942
-0.830126
-0.107127
0.0302135
0.0114241
-0.00296712
-0.0058129
-0.00510469
-0.00454936
-0.00443854
-0.00445992
-0.00447475
-0.00447229
-0.00446476
-0.0044575
-0.00445088
-0.00444443
-0.00443794
-0.00443141
-0.00442484
-0.00441825
-0.00441163
-0.00440499
-0.00439833
-0.00439164
-0.00438493
-0.00437819
-0.00437143
-0.00436464
-0.00435783
-0.00435099
-0.00434413
-0.00433724
-0.00433033
-0.00432339
-0.00431643
-0.00430944
-0.00430242
-0.00429538
-0.00428831
-0.00428122
-0.0042741
-0.00426696
-0.00425978
-0.00425259
-0.00424536
-0.00423811
-0.00423083
-0.00422353
-0.0042162
-0.00420884
-0.00420146
-0.00419404
-0.0041866
-0.00417914
-0.00417164
-0.00416412
-0.00415657
-0.00414899
-0.00414139
-0.00413376
-0.0041261
-0.00411841
-0.00411069
-0.00410294
-0.00409517
-0.00408737
-0.00407953
-0.00407167
-0.00406378
-0.00405586
-0.00404791
-0.00207866
-0.00206343
-0.00204815
-0.00203282
-0.00201742
-0.00200197
-0.00198647
-0.0019709
-0.00195528
-0.0019396
-0.00192387
-0.00190808
-0.00189223
-0.00187632
-0.00186035
-0.00184432
-0.00182824
-0.00181209
-0.00179589
-0.00177963
-0.0017633
-0.00174692
-0.00173048
-0.00171397
-0.00169741
-0.00168078
-0.0016641
-0.00164735
-0.00163054
-0.00161367
-0.00159674
-0.00157974
-0.00156269
-0.00154556
-0.00152838
-0.00151114
-0.00149383
-0.00147645
-0.00145902
-0.00144152
-0.00142395
-0.00140632
-0.00138862
-0.00137086
-0.00135304
-0.00133515
-0.00131719
-0.00129918
-0.00128108
-0.00126286
)
;

boundaryField
{
    BotWall
    {
        type            fixedFluxPressure;
        gradient        uniform 0;
        value           uniform 0.0349486;
    }
    FreeStream
    {
        type            totalPressure;
        rho             rho;
        psi             none;
        gamma           1;
        p0              uniform 0;
        value           uniform -0.00125371;
    }
    FrontNBack
    {
        type            empty;
    }
    LeftSide
    {
        type            symmetryPlane;
    }
    RightSide
    {
        type            symmetryPlane;
    }
    procBoundary9to6
    {
        type            processor;
        value           nonuniform List<scalar> 
50
(
-0.00440394
-0.00439726
-0.00439055
-0.00438381
-0.00437705
-0.00437026
-0.00436345
-0.00435661
-0.00434975
-0.00434286
-0.00433595
-0.00432902
-0.00432206
-0.00431507
-0.00430806
-0.00430102
-0.00429396
-0.00428687
-0.00427976
-0.00427262
-0.00426545
-0.00425826
-0.00425104
-0.0042438
-0.00423653
-0.00422923
-0.00422191
-0.00421456
-0.00420718
-0.00419977
-0.00419234
-0.00418489
-0.0041774
-0.00416989
-0.00416235
-0.00415478
-0.00414719
-0.00413957
-0.00413192
-0.00412424
-0.00411654
-0.0041088
-0.00410104
-0.00409325
-0.00408543
-0.00407759
-0.00406971
-0.00406181
-0.00405388
-0.00404592
)
;
    }
    procBoundary9to7
    {
        type            processor;
        value           nonuniform List<scalar> 
75
(
0.0357744
0.0584741
-0.00179792
0.190774
-0.839468
-0.108191
0.0304807
0.0115301
-0.00295851
-0.00582138
-0.00510756
-0.00454856
-0.00443715
-0.00445875
-0.00447371
-0.00447128
-0.00446375
-0.00445648
-0.00444986
-0.00444341
-0.00443692
-0.00443039
-0.00442382
-0.00441722
-0.00441059
-0.00207753
-0.00206231
-0.00204704
-0.00203171
-0.00201632
-0.00200088
-0.00198538
-0.00196982
-0.00195421
-0.00193854
-0.00192281
-0.00190702
-0.00189118
-0.00187528
-0.00185932
-0.0018433
-0.00182722
-0.00181108
-0.00179488
-0.00177863
-0.00176231
-0.00174593
-0.0017295
-0.001713
-0.00169644
-0.00167982
-0.00166314
-0.0016464
-0.0016296
-0.00161274
-0.00159581
-0.00157882
-0.00156177
-0.00154465
-0.00152748
-0.00151024
-0.00149293
-0.00147557
-0.00145813
-0.00144064
-0.00142308
-0.00140545
-0.00138776
-0.00137001
-0.00135219
-0.0013343
-0.00131635
-0.00129832
-0.00128023
-0.00126212
)
;
    }
    procBoundary9to8
    {
        type            processor;
        value           uniform -0.00403992;
    }
    procBoundary9to10
    {
        type            processor;
        value           uniform -0.00209383;
    }
    procBoundary9to11
    {
        type            processor;
        value           nonuniform List<scalar> 
75
(
0.035113
0.0578859
-0.002082
0.18919
-0.834334
-0.107608
0.0303311
0.011469
-0.00296597
-0.00581935
-0.0051086
-0.00455162
-0.00444054
-0.00446202
-0.0044769
-0.00447444
-0.00446691
-0.00445964
-0.00445301
-0.00444656
-0.00444007
-0.00443353
-0.00442695
-0.00442036
-0.00441374
-0.00440709
-0.00440043
-0.00439373
-0.00438702
-0.00438028
-0.00437351
-0.00436672
-0.0043599
-0.00435306
-0.00434619
-0.0043393
-0.00433238
-0.00432544
-0.00431847
-0.00431148
-0.00430446
-0.00429742
-0.00429034
-0.00428325
-0.00427612
-0.00426897
-0.0042618
-0.0042546
-0.00424737
-0.00424011
-0.00423283
-0.00422552
-0.00421819
-0.00421082
-0.00420344
-0.00419602
-0.00418858
-0.0041811
-0.00417361
-0.00416608
-0.00415853
-0.00415094
-0.00414333
-0.0041357
-0.00412803
-0.00412034
-0.00411262
-0.00410486
-0.00409709
-0.00408928
-0.00408144
-0.00407358
-0.00406568
-0.00405776
-0.00404981
)
;
    }
}


// ************************************************************************* //
