/*--------------------------------*- C++ -*----------------------------------*\
| =========                 |                                                 |
| \\      /  F ield         | OpenFOAM: The Open Source CFD Toolbox           |
|  \\    /   O peration     | Version:  2.4.0                                 |
|   \\  /    A nd           | Web:      www.OpenFOAM.org                      |
|    \\/     M anipulation  |                                                 |
\*---------------------------------------------------------------------------*/
FoamFile
{
    version     2.0;
    format      ascii;
    class       volScalarField;
    location    "0.002";
    object      H;
}
// * * * * * * * * * * * * * * * * * * * * * * * * * * * * * * * * * * * * * //

dimensions      [0 2 -2 0 0 0 0];

internalField   nonuniform List<scalar> 
1500
(
-8874.47
-8873.86
-8859
-8876.38
-8871.39
-236.127
-235.803
-231.421
-236.74
-235.306
-175.65
-175.537
-172.378
-176.132
-175.026
-173.591
-173.721
-170.639
-174.203
-173.023
-171.225
-171.473
-168.438
-171.956
-170.722
-168.587
-168.889
-165.919
-169.419
-168.149
-165.677
-166.013
-163.117
-166.596
-165.3
-162.503
-162.866
-160.047
-163.495
-162.182
-159.077
-159.46
-156.724
-160.129
-158.807
-155.415
-155.814
-153.162
-156.513
-155.19
-151.532
-151.942
-149.378
-152.664
-151.345
-147.447
-147.864
-145.391
-148.6
-147.292
-143.179
-143.6
-141.219
-144.342
-143.05
-138.748
-139.169
-136.882
-139.911
-138.639
-134.175
-134.593
-132.402
-135.329
-134.081
-129.481
-129.894
-127.799
-130.619
-129.4
-124.689
-125.094
-123.097
-125.804
-124.617
-119.822
-120.216
-118.316
-120.907
-119.755
-114.9
-115.281
-113.479
-115.951
-114.838
-109.946
-110.313
-108.608
-110.959
-109.887
-104.981
-105.332
-103.724
-105.952
-104.924
-100.025
-100.359
-98.8463
-100.952
-99.9694
-95.0986
-95.415
-93.9952
-95.9803
-95.0438
-90.2197
-90.5179
-89.189
-91.0547
-90.1658
-85.4059
-85.6858
-84.4451
-86.1937
-85.3529
-80.6736
-80.935
-79.7795
-81.4142
-80.6215
-76.0377
-76.2808
-75.2073
-76.7313
-75.9867
-71.5116
-71.7369
-70.742
-72.1592
-71.4619
-67.1077
-67.3156
-66.3956
-67.7101
-67.0595
-62.8366
-63.0277
-62.1789
-63.3952
-62.7901
-58.7075
-58.8826
-58.1011
-59.2239
-58.6629
-54.7284
-54.8881
-54.1703
-55.2042
-54.6858
-50.9056
-51.0509
-50.3929
-51.3427
-50.8652
-47.2442
-47.376
-46.774
-47.6446
-47.2061
-43.748
-43.8671
-43.3175
-44.1136
-43.7121
-40.4195
-40.5268
-40.026
-40.7524
-40.3859
-37.2598
-37.3563
-36.9008
-37.5621
-37.2286
-34.2693
-34.3557
-33.9422
-34.543
-34.2403
-31.447
-31.5242
-31.1496
-31.6941
-31.4202
-28.791
-28.8599
-28.521
-29.0136
-28.7664
-26.2988
-26.3601
-26.0541
-26.4987
-26.2763
-23.9668
-24.0212
-23.7454
-24.1458
-23.9462
-21.7908
-21.839
-21.5908
-21.9508
-21.7721
-19.7661
-19.8087
-19.5858
-19.9087
-19.7492
-17.8875
-17.9251
-17.7252
-18.0142
-17.8723
-16.1492
-16.1823
-16.0035
-16.2616
-16.1355
-14.5453
-14.5743
-14.4146
-14.6447
-14.533
-13.0694
-13.0949
-12.9524
-13.1572
-13.0584
-11.7151
-11.7374
-11.6105
-11.7924
-11.7053
-10.4758
-10.4953
-10.3826
-10.5437
-10.4671
-9.34487
-9.36192
-9.26188
-9.40439
-9.33714
-8.31568
-8.33054
-8.24196
-8.36774
-8.30884
-7.38166
-7.39461
-7.31631
-7.4271
-7.37564
-6.53637
-6.54762
-6.47855
-6.57593
-6.53107
-5.77348
-5.78326
-5.72244
-5.80786
-5.76883
-5.08688
-5.09536
-5.04191
-5.11669
-5.08281
-4.47065
-4.47799
-4.43112
-4.49645
-4.4671
-3.91912
-3.92547
-3.88445
-3.9414
-3.91603
-3.42688
-3.43236
-3.39653
-3.44608
-3.42419
-2.98877
-2.99351
-2.96227
-3.00529
-2.98644
-2.59995
-2.60403
-2.57685
-2.61412
-2.59793
-2.25583
-2.25934
-2.23576
-2.26798
-2.25409
-1.95214
-1.95515
-1.93473
-1.96252
-1.95064
-1.68489
-1.68747
-1.66982
-1.69375
-1.6836
-1.45037
-1.45258
-1.43737
-1.45791
-1.44927
-1.24516
-1.24705
-1.23397
-1.25157
-1.24422
-1.06612
-1.06773
-1.0565
-1.07155
-1.06532
-0.910355
-0.911728
-0.902116
-0.914952
-0.909669
-0.775232
-0.7764
-0.768191
-0.779114
-0.774649
-0.658357
-0.659347
-0.652355
-0.661628
-0.657862
-0.55756
-0.558398
-0.552457
-0.560311
-0.557142
-0.470884
-0.471593
-0.466557
-0.473193
-0.470531
-0.396571
-0.397168
-0.392912
-0.398504
-0.396274
-0.333045
-0.333548
-0.329959
-0.334661
-0.332796
-0.278904
-0.279326
-0.276308
-0.28025
-0.278695
-0.232897
-0.23325
-0.230719
-0.234017
-0.232723
-0.193921
-0.194216
-0.192099
-0.19485
-0.193776
-0.161001
-0.161247
-0.159481
-0.16177
-0.16088
-0.13328
-0.133485
-0.132016
-0.133916
-0.13318
-0.110009
-0.110178
-0.10896
-0.110533
-0.109926
-0.0905332
-0.0906732
-0.0896659
-0.0909634
-0.0904649
-0.074284
-0.0743994
-0.0735687
-0.0746367
-0.0742279
-0.0607691
-0.0608639
-0.0601809
-0.0610575
-0.0607231
-0.0495633
-0.049641
-0.0490811
-0.0497985
-0.0495257
-0.0403014
-0.0403649
-0.0399072
-0.0404927
-0.0402708
-0.0326704
-0.0327221
-0.0323491
-0.0328255
-0.0326454
-0.0264029
-0.0264449
-0.0261418
-0.0265284
-0.0263827
-0.0212718
-0.0213058
-0.0210604
-0.0213731
-0.0212555
-0.0170846
-0.0171121
-0.0169138
-0.0171661
-0.0170715
-0.0136787
-0.0137008
-0.0135412
-0.013744
-0.0136681
-0.0109172
-0.0109349
-0.0108069
-0.0109695
-0.0109088
-0.00868562
-0.00869977
-0.00859735
-0.0087273
-0.00867888
-0.00688813
-0.00689941
-0.00681774
-0.00692127
-0.00688277
-0.00544509
-0.00545405
-0.00538914
-0.00547135
-0.00544084
-0.00429046
-0.00429754
-0.00424612
-0.00431121
-0.0042871
-0.00336967
-0.00337526
-0.00333466
-0.00338602
-0.00336703
-0.00263784
-0.00264224
-0.00261028
-0.00265068
-0.00263577
-0.00205816
-0.0020616
-0.00203654
-0.00206821
-0.00205654
-0.00160055
-0.00160324
-0.00158364
-0.00160839
-0.00159929
-0.00124055
-0.00124264
-0.00122737
-0.00124664
-0.00123956
-0.000958295
-0.000959915
-0.000948058
-0.000963019
-0.000957532
-0.000737771
-0.000739022
-0.000729846
-0.00074142
-0.000737181
-0.000566071
-0.000567034
-0.000559957
-0.00056888
-0.000565618
-0.000432853
-0.000433592
-0.000428153
-0.000435008
-0.000432505
-0.000329854
-0.000330418
-0.000326253
-0.000331502
-0.000329588
-0.0002505
-0.000250929
-0.00024775
-0.000251755
-0.000250298
-0.000189579
-0.000189905
-0.000187487
-0.000190532
-0.000189425
-0.000142976
-0.000143222
-0.00014139
-0.000143697
-0.00014286
-0.000107453
-0.000107638
-0.000106254
-0.000107997
-0.000107365
-8.04725e-05
-8.06117e-05
-7.95705e-05
-8.08812e-05
-8.04071e-05
-6.00548e-05
-6.01588e-05
-5.93782e-05
-6.03607e-05
-6.00059e-05
-4.46593e-05
-4.47367e-05
-4.41535e-05
-4.48875e-05
-4.46228e-05
-3.30927e-05
-3.31501e-05
-3.27161e-05
-3.32623e-05
-3.30656e-05
-2.44346e-05
-2.4477e-05
-2.41551e-05
-2.45601e-05
-2.44145e-05
-1.79773e-05
-1.80085e-05
-1.77706e-05
-1.80699e-05
-1.79625e-05
-1.3179e-05
-1.32019e-05
-1.30268e-05
-1.32471e-05
-1.31682e-05
-9.62675e-06
-9.64347e-06
-9.51504e-06
-9.67661e-06
-9.61882e-06
-7.00661e-06
-7.0188e-06
-6.92494e-06
-7.04301e-06
-7.00085e-06
-5.08123e-06
-5.09003e-06
-5.02169e-06
-5.10762e-06
-5.07702e-06
-3.67156e-06
-3.67793e-06
-3.62838e-06
-3.69071e-06
-3.66855e-06
-2.64337e-06
-2.64797e-06
-2.61211e-06
-2.65719e-06
-2.64117e-06
-1.89619e-06
-1.89948e-06
-1.87371e-06
-1.90613e-06
-1.89464e-06
-1.3553e-06
-1.35764e-06
-1.33915e-06
-1.36239e-06
-1.35416e-06
-9.65153e-07
-9.66809e-07
-9.53595e-07
-9.7022e-07
-9.64357e-07
-6.8481e-07
-6.86008e-07
-6.76591e-07
-6.88418e-07
-6.84247e-07
-4.84143e-07
-4.84979e-07
-4.78303e-07
-4.86699e-07
-4.83752e-07
-3.41039e-07
-3.41602e-07
-3.36901e-07
-3.42827e-07
-3.40762e-07
-2.39343e-07
-2.39758e-07
-2.36435e-07
-2.40608e-07
-2.39136e-07
-1.67381e-07
-1.67662e-07
-1.65315e-07
-1.68255e-07
-1.67244e-07
-1.1662e-07
-1.16809e-07
-1.15192e-07
-1.17237e-07
-1.16499e-07
-8.09483e-08
-8.11047e-08
-7.9977e-08
-8.1388e-08
-8.09079e-08
-5.59914e-08
-5.60997e-08
-5.5308e-08
-5.6289e-08
-5.59712e-08
-3.86143e-08
-3.86681e-08
-3.81129e-08
-3.88044e-08
-3.85607e-08
-2.65086e-08
-2.65462e-08
-2.61862e-08
-2.66415e-08
-2.64745e-08
-1.81405e-08
-1.81743e-08
-1.79242e-08
-1.8248e-08
-1.81281e-08
-1.23635e-08
-1.23835e-08
-1.22063e-08
-1.24341e-08
-1.23681e-08
-8.40714e-09
-8.42294e-09
-8.29885e-09
-8.44495e-09
-8.39353e-09
-5.67817e-09
-5.69467e-09
-5.62195e-09
-5.72217e-09
-5.69027e-09
-3.84717e-09
-3.85112e-09
-3.79179e-09
-3.86239e-09
-3.83268e-09
-2.57871e-09
-2.58495e-09
-2.55106e-09
-2.59612e-09
-2.57486e-09
-1.73025e-09
-1.72044e-09
-1.70698e-09
-1.72546e-09
-1.72819e-09
-1.15778e-09
-1.16144e-09
-1.12883e-09
-1.16467e-09
-1.14814e-09
-7.63293e-10
-7.83556e-10
-7.69015e-10
-7.83697e-10
-7.83691e-10
-4.84749e-10
-4.74765e-10
-4.73012e-10
-4.7804e-10
-4.769e-10
-3.48845e-10
-3.4787e-10
-3.40686e-10
-3.52846e-10
-3.45258e-10
-2.22053e-10
-2.19298e-10
-2.17549e-10
-2.19719e-10
-2.16837e-10
-1.4745e-10
-1.52181e-10
-1.43939e-10
-1.44467e-10
-1.50327e-10
-8.38112e-11
-8.11973e-11
-8.15823e-11
-8.87126e-11
-8.12684e-11
-4.08605e-11
-4.08884e-11
-5.3268e-11
-4.05318e-11
-4.76099e-11
-5.90197e-11
-6.09966e-11
-5.89912e-11
-6.4255e-11
-5.87311e-11
-4.82641e-11
-4.61313e-11
-3.97396e-11
-4.51177e-11
-4.49764e-11
-4.93157e-11
-5.00152e-11
-4.87959e-11
-4.8012e-11
-4.88295e-11
-3.4783e-12
-3.00693e-12
-3.3421e-12
-3.47352e-12
-3.23273e-12
4.7766e-13
5.17469e-13
4.53619e-13
4.85517e-13
4.69204e-13
-6.18572e-14
-8.55623e-14
-6.54365e-14
-6.21712e-14
-7.08484e-14
-4.32133e-14
-4.25634e-14
-4.13914e-14
-4.58206e-14
-4.20739e-14
-5.17313e-15
-3.07208e-15
-4.54135e-15
-5.75997e-15
-4.47676e-15
-3.00467e-16
-2.51557e-17
-2.3492e-16
-3.33285e-16
-2.17069e-16
-1.15109e-16
-1.36278e-16
-1.17162e-16
-1.24268e-16
-1.18359e-16
-3.40208e-17
-3.55742e-17
-3.41197e-17
-3.95118e-17
-3.51307e-17
-5.14001e-18
-2.77204e-18
-4.61134e-18
-6.20031e-18
-4.78775e-18
-7.48242e-19
-1.94641e-19
-5.92234e-19
-8.37407e-19
-6.05906e-19
-1.6191e-19
-1.17013e-19
-1.45291e-19
-1.78925e-19
-1.46125e-19
-3.19485e-20
-2.87242e-20
-3.19817e-20
-3.92092e-20
-3.24256e-20
-5.21545e-21
-3.38461e-21
-5.0986e-21
-6.76284e-21
-5.29177e-21
-9.27857e-22
-3.72325e-22
-8.05198e-22
-1.10474e-21
-8.57796e-22
-1.80674e-22
-8.79084e-23
-1.55452e-22
-2.0247e-22
-1.6559e-22
-3.16422e-23
-1.9582e-23
-2.98317e-23
-3.80615e-23
-3.14032e-23
-5.19852e-24
-3.14488e-24
-5.16668e-24
-6.7707e-24
-5.43267e-24
-9.33045e-25
-4.72946e-25
-8.88348e-25
-1.17543e-24
-9.46355e-25
-1.74265e-25
-8.24408e-26
-1.59422e-25
-2.04955e-25
-1.71856e-25
-3.01619e-26
-1.50694e-26
-2.84212e-26
-3.57471e-26
-3.06594e-26
-4.9745e-27
-2.661e-27
-4.93696e-27
-6.23193e-27
-5.30106e-27
-8.52982e-28
-4.64536e-28
-8.56957e-28
-1.0818e-27
-9.18711e-28
-1.50939e-28
-8.01397e-29
-1.49538e-28
-1.84876e-28
-1.60674e-28
-2.59811e-29
-1.36456e-29
-2.58571e-29
-3.12542e-29
-2.78249e-29
-4.33307e-30
-2.37319e-30
-4.42206e-30
-5.30547e-30
-4.75379e-30
-7.2368e-31
-4.22411e-31
-7.53667e-31
-9.01041e-31
-8.08684e-31
-1.22145e-31
-7.38183e-32
-1.28091e-31
-1.50913e-31
-1.37241e-31
-2.05105e-32
-1.25301e-32
-2.16255e-32
-2.49721e-32
-2.31402e-32
-3.4016e-33
-2.12954e-33
-3.6242e-33
-4.13299e-33
-3.87324e-33
-5.60274e-34
-3.67505e-34
-6.0363e-34
-6.84201e-34
-6.44695e-34
-9.20485e-35
-6.31395e-35
-9.99672e-35
-1.12213e-34
-1.06762e-34
-1.50725e-35
-1.06531e-35
-1.64648e-35
-1.82056e-35
-1.75811e-35
-2.4561e-36
-1.78083e-36
-2.69639e-36
-2.94169e-36
-2.87786e-36
-3.98126e-37
-2.97796e-37
-4.3871e-37
-4.74507e-37
-4.68235e-37
-6.42074e-38
-4.96445e-38
-7.09054e-38
-7.60945e-38
-7.57637e-38
-1.03088e-38
-8.20057e-39
-1.13948e-38
-1.21032e-38
-1.21985e-38
-1.64846e-39
-1.3431e-39
-1.82169e-39
-1.91338e-39
-1.95365e-39
-2.62447e-40
-2.18776e-40
-2.8952e-40
-3.01256e-40
-3.11e-40
-4.15818e-41
-3.54435e-41
-4.5717e-41
-4.72073e-41
-4.92196e-41
-6.55726e-42
-5.70287e-42
-7.17612e-42
-7.35307e-42
-7.75047e-42
-1.02954e-42
-9.11285e-43
-1.12044e-42
-1.13853e-42
-1.2144e-42
-1.60918e-43
-1.44723e-43
-1.73979e-43
-1.75365e-43
-1.89218e-43
-2.50307e-44
-2.28422e-44
-2.68544e-44
-2.68772e-44
-2.93111e-44
-3.87453e-45
-3.58179e-45
-4.12058e-45
-4.09817e-45
-4.51613e-45
-5.96884e-46
-5.58057e-46
-6.28803e-46
-6.21579e-46
-6.92289e-46
-9.15079e-47
-8.64242e-47
-9.54417e-47
-9.3781e-47
-1.05558e-46
-1.39584e-47
-1.33035e-47
-1.44051e-47
-1.40765e-47
-1.60051e-47
-2.11817e-48
-2.03502e-48
-2.16166e-48
-2.10228e-48
-2.41339e-48
-3.19765e-49
-3.09359e-49
-3.2258e-49
-3.12412e-49
-3.61976e-49
-4.80212e-50
-4.67465e-50
-4.78794e-50
-4.61943e-50
-5.40021e-50
-7.17327e-51
-7.02203e-51
-7.06788e-51
-6.79608e-51
-8.01242e-51
-1.0657e-51
-1.04846e-51
-1.03751e-51
-9.94848e-52
-1.18228e-51
-1.57456e-52
-1.55595e-52
-1.51451e-52
-1.44918e-52
-1.73501e-52
-2.31352e-53
-2.29527e-53
-2.19883e-53
-2.10072e-53
-2.53236e-53
-3.38034e-54
-3.36588e-54
-3.17514e-54
-3.03027e-54
-3.67599e-54
-4.9112e-55
-4.90657e-55
-4.55978e-55
-4.34963e-55
-5.30681e-55
-7.09472e-56
-7.10964e-56
-6.51213e-56
-6.21288e-56
-7.61903e-56
-1.01903e-56
-1.02402e-56
-9.2497e-57
-8.83112e-57
-1.08787e-56
-1.45523e-57
-1.46614e-57
-1.30671e-57
-1.24916e-57
-1.54477e-57
-2.06615e-58
-2.08663e-58
-1.83596e-58
-1.75828e-58
-2.1815e-58
-2.91648e-59
-2.95193e-59
-2.56547e-59
-2.46272e-59
-3.06367e-59
-4.09276e-60
-4.15093e-60
-3.5653e-60
-3.43241e-60
-4.2788e-60
-5.70989e-61
-5.8018e-61
-4.92791e-61
-4.76029e-61
-5.94283e-61
-7.91934e-62
-8.06036e-62
-6.77437e-62
-6.5691e-62
-8.20826e-62
-1.09193e-62
-1.11304e-62
-9.262e-63
-9.01987e-63
-1.12743e-62
-1.49672e-63
-1.52766e-63
-1.25942e-63
-1.23226e-63
-1.53994e-63
-2.03951e-64
-2.08396e-64
-1.7032e-64
-1.67493e-64
-2.09165e-64
-2.76277e-65
-2.82552e-65
-2.29085e-65
-2.26502e-65
-2.82513e-65
-3.72048e-66
-3.80755e-66
-3.06448e-66
-3.04722e-66
-3.79444e-66
-4.98064e-67
-5.09947e-67
-4.07703e-67
-4.07825e-67
-5.06769e-67
-6.6283e-68
-6.78782e-68
-5.39455e-68
-5.42955e-68
-6.73004e-68
-8.769e-69
-8.97964e-69
-7.09888e-69
-7.1904e-69
-8.88719e-69
-1.15326e-69
-1.18061e-69
-9.2906e-70
-9.47154e-70
-1.16693e-69
-1.50776e-70
-1.54265e-70
-1.20924e-70
-1.24092e-70
-1.52352e-70
-1.95959e-71
-2.00329e-71
-1.56528e-71
-1.61698e-71
-1.97774e-71
-2.53177e-72
-2.58542e-72
-2.01501e-72
-2.09547e-72
-2.55269e-72
-3.25168e-73
-3.31611e-73
-2.57967e-73
-2.70053e-73
-3.27589e-73
-4.15161e-74
-4.22705e-74
-3.28432e-74
-3.46093e-74
-4.17978e-74
-5.26923e-75
-5.35496e-75
-4.15829e-75
-4.41051e-75
-5.30228e-75
-6.64811e-76
-6.74198e-76
-5.23561e-76
-5.58881e-76
-6.68727e-76
-8.33814e-77
-8.43594e-77
-6.55534e-77
-7.04151e-77
-8.38501e-77
-1.03958e-77
-1.04905e-77
-8.16191e-78
-8.82084e-78
-1.04525e-77
-1.28843e-78
-1.29652e-78
-1.01053e-78
-1.09859e-78
-1.29535e-78
-1.58737e-79
-1.59253e-79
-1.24411e-79
-1.36027e-79
-1.59589e-79
-1.94404e-80
-1.94411e-80
-1.52306e-80
-1.67442e-80
-1.95458e-80
-2.3667e-81
-2.35879e-81
-1.854e-81
-2.04899e-81
-2.37976e-81
-2.8641e-82
-2.84443e-82
-2.24406e-82
-2.49251e-82
-2.88029e-82
-3.44539e-83
-3.40912e-83
-2.70071e-83
-3.01401e-83
-3.46542e-83
-4.11994e-84
-4.06106e-84
-3.23174e-84
-3.62286e-84
-4.14461e-84
-4.89716e-85
-4.80829e-85
-3.84504e-85
-4.32859e-85
-4.92736e-85
-5.78623e-86
-5.6585e-86
-4.54844e-86
-5.14068e-86
-5.82293e-86
-6.79584e-87
-6.61877e-87
-5.34949e-87
-6.06827e-87
-6.84006e-87
-7.93387e-88
-7.69529e-88
-6.25525e-88
-7.11987e-88
-7.98662e-88
-9.20701e-89
-8.89303e-89
-7.27193e-89
-8.30299e-89
-9.26929e-89
-1.06204e-89
-1.02154e-89
-8.40468e-90
-9.6238e-90
-1.06931e-89
-1.21774e-90
-1.16641e-90
-9.6572e-91
-1.10867e-90
-1.22613e-90
-1.38788e-91
-1.32386e-91
-1.10314e-91
-1.26939e-91
-1.39743e-91
-1.57229e-92
-1.49358e-92
-1.25273e-92
-1.44452e-92
-1.58304e-92
-1.7705e-93
-1.675e-93
-1.41422e-93
-1.63374e-93
-1.78242e-93
-1.9817e-94
-1.86728e-94
-1.58712e-94
-1.83641e-94
-1.99473e-94
-2.20475e-95
-2.06926e-95
-1.77061e-95
-2.05153e-95
-2.21877e-95
-2.43813e-96
-2.27946e-96
-1.96361e-96
-2.27777e-96
-2.45296e-96
-2.67997e-97
-2.49611e-97
-2.16469e-97
-2.51338e-97
-2.69536e-97
-2.92801e-98
-2.71715e-98
-2.37213e-98
-2.75629e-98
-2.94367e-98
-3.1797e-99
-2.94024e-99
-2.58393e-99
-3.00403e-99
-3.19524e-99
-3.43216e-100
-3.1628e-100
-2.79778e-100
-3.25385e-100
-3.44714e-100
-3.68225e-101
-3.38205e-101
-3.01114e-101
-3.5027e-101
-3.69617e-101
-3.92666e-102
-3.59509e-102
-3.22128e-102
-3.74728e-102
-3.93898e-102
-4.16191e-103
-3.7989e-103
-3.4253e-103
-3.98417e-103
-4.17205e-103
-4.3845e-104
-3.99048e-104
-3.62025e-104
-4.20983e-104
-4.39186e-104
-4.59095e-105
-4.16685e-105
-3.80311e-105
-4.42076e-105
-4.59493e-105
-4.7779e-106
-4.32518e-106
-3.97098e-106
-4.61351e-106
-4.77792e-106
-4.9422e-107
-4.46284e-107
-4.12104e-107
-4.78484e-107
-4.93771e-107
-5.08099e-108
-4.57748e-108
-4.25073e-108
-4.93175e-108
-5.07152e-108
-5.19181e-109
-4.66708e-109
-4.35772e-109
-5.05164e-109
-5.17694e-109
-5.27262e-110
-4.73002e-110
-4.44009e-110
-5.14231e-110
-5.25206e-110
-5.32192e-111
-4.76513e-111
-4.49629e-111
-5.20207e-111
-5.29547e-111
-5.33876e-112
-4.77173e-112
-4.52525e-112
-5.22978e-112
-5.30634e-112
-5.32277e-113
-4.74965e-113
-4.52637e-113
-5.2249e-113
-5.28443e-113
-5.27418e-114
-4.69921e-114
-4.4996e-114
-5.18747e-114
-5.23013e-114
-5.19385e-115
-4.62126e-115
-4.44536e-115
-5.11815e-115
-5.14439e-115
-5.08317e-116
-4.51712e-116
-4.3646e-116
-5.0182e-116
-5.02874e-116
-4.94408e-117
-4.38856e-117
-4.25875e-117
-4.88941e-117
-4.88523e-117
-4.77899e-118
-4.23775e-118
-4.12967e-118
-4.73406e-118
-4.71637e-118
-4.59074e-119
-4.06719e-119
-3.97959e-119
-4.55488e-119
-4.52505e-119
-4.38246e-120
-3.87965e-120
-3.81107e-120
-4.35493e-120
-4.31448e-120
-4.15754e-121
-3.67808e-121
-3.6269e-121
-4.13754e-121
-4.08807e-121
-3.91952e-122
-3.46558e-122
-3.43004e-122
-3.90621e-122
-3.84936e-122
-3.67198e-123
-3.24525e-123
-3.22354e-123
-3.66451e-123
-3.60193e-123
-3.41847e-124
-3.02016e-124
-3.01046e-124
-3.41601e-124
-3.3493e-124
-3.16245e-125
-2.79328e-125
-2.79379e-125
-3.16416e-125
-3.09484e-125
-2.90714e-126
-2.56741e-126
-2.57638e-126
-2.91227e-126
-2.84174e-126
-2.65556e-127
-2.34512e-127
-2.36089e-127
-2.66337e-127
-2.5929e-127
-2.41037e-128
-2.12871e-128
-2.14975e-128
-2.4202e-128
-2.35093e-128
-2.17393e-129
-1.92019e-129
-1.9451e-129
-2.18519e-129
-2.11807e-129
-1.94819e-130
-1.72123e-130
-1.74876e-130
-1.96036e-130
-1.89618e-130
-1.73476e-131
-1.53318e-131
-1.56225e-131
-1.74738e-131
-1.68677e-131
-1.53482e-132
-1.35707e-132
-1.38675e-132
-1.54753e-132
-1.49094e-132
-1.34923e-133
-1.1936e-133
-1.2231e-133
-1.36171e-133
-1.30945e-133
-1.17845e-134
-1.04317e-134
-1.07188e-134
-1.19046e-134
-1.14271e-134
-1.02265e-135
-9.05911e-136
-9.33334e-136
-1.03402e-135
-9.90816e-136
-8.81727e-137
-7.81705e-137
-8.07484e-137
-8.9232e-137
-8.53608e-137
-7.553e-138
-6.70225e-138
-6.94113e-138
-7.65034e-138
-7.30675e-138
-6.42804e-139
-5.70969e-139
-5.92817e-139
-6.51637e-139
-6.21421e-139
-5.43506e-140
-4.83295e-140
-5.03037e-140
-5.51428e-140
-5.25093e-140
-4.56564e-141
-4.06467e-141
-4.24105e-141
-4.63592e-141
-4.4084e-141
-3.81947e-142
-3.40482e-142
-3.56129e-142
-3.88137e-142
-3.68596e-142
-3.8053e-143
-3.39986e-143
-3.56983e-143
-3.87136e-143
-3.6699e-143
)
;

boundaryField
{
    BotWall
    {
        type            zeroGradient;
    }
    FreeStream
    {
        type            zeroGradient;
    }
    FrontNBack
    {
        type            empty;
    }
    LeftSide
    {
        type            symmetryPlane;
    }
    RightSide
    {
        type            symmetryPlane;
    }
}


// ************************************************************************* //
