/*--------------------------------*- C++ -*----------------------------------*\
| =========                 |                                                 |
| \\      /  F ield         | OpenFOAM: The Open Source CFD Toolbox           |
|  \\    /   O peration     | Version:  2.4.0                                 |
|   \\  /    A nd           | Web:      www.OpenFOAM.org                      |
|    \\/     M anipulation  |                                                 |
\*---------------------------------------------------------------------------*/
FoamFile
{
    version     2.0;
    format      ascii;
    class       volScalarField;
    location    "0.002";
    object      p;
}
// * * * * * * * * * * * * * * * * * * * * * * * * * * * * * * * * * * * * * //

dimensions      [1 -1 -2 0 0 0 0];

internalField   nonuniform List<scalar> 
1500
(
0.364283
2912.27
1.56831
1.31763
2903.25
-2.39323
-0.841508
-1.29387
-1.4481
-2.0647
-0.402
1.11825
0.718954
0.517508
-0.0739182
-0.0329368
1.4767
1.08771
0.878989
0.293434
-0.0793583
1.42201
1.03554
0.827731
0.2451
-0.11401
1.37892
0.995423
0.78803
0.208544
-0.118561
1.36579
0.985751
0.77832
0.202125
-0.114078
1.36174
0.985276
0.777647
0.204765
-0.110038
1.35728
0.984352
0.776543
0.206966
-0.107121
1.35171
0.982289
0.77433
0.208048
-0.104535
1.34583
0.979893
0.771798
0.208804
-0.101944
1.33999
0.977507
0.769283
0.209571
-0.0993231
1.33419
0.975151
0.766806
0.210369
-0.0967015
1.3284
0.972795
0.764338
0.211171
-0.0940927
1.32263
0.970427
0.761866
0.211962
-0.0914986
1.31686
0.968046
0.759391
0.212744
-0.0889187
1.3111
0.965653
0.756913
0.213516
-0.0863526
1.30535
0.96325
0.754434
0.214279
-0.0838005
1.29961
0.960836
0.751952
0.215033
-0.0812624
1.29387
0.958411
0.749468
0.215779
-0.0787386
1.28815
0.955976
0.746984
0.216515
-0.076229
1.28243
0.95353
0.744499
0.217243
-0.0737338
1.27672
0.951072
0.742015
0.217961
-0.0712531
1.27101
0.948602
0.739531
0.21867
-0.0687869
1.26531
0.94612
0.737047
0.21937
-0.0663354
1.25962
0.943627
0.734565
0.22006
-0.0638986
1.25394
0.941121
0.732083
0.220741
-0.0614766
1.24826
0.938604
0.729601
0.221413
-0.0590696
1.24259
0.936074
0.727121
0.222075
-0.0566775
1.23693
0.933532
0.724641
0.222727
-0.0543006
1.23128
0.930978
0.722162
0.22337
-0.0519389
1.22563
0.928412
0.719684
0.224003
-0.0495924
1.21999
0.925833
0.717207
0.224627
-0.0472613
1.21436
0.923243
0.714731
0.22524
-0.0449457
1.20874
0.92064
0.712255
0.225844
-0.0426456
1.20313
0.918025
0.70978
0.226438
-0.0403612
1.19752
0.915398
0.707306
0.227022
-0.0380924
1.19192
0.912759
0.704833
0.227596
-0.0358395
1.18633
0.910107
0.70236
0.22816
-0.0336025
1.18075
0.907444
0.699888
0.228714
-0.0313815
1.17517
0.904768
0.697416
0.229258
-0.0291765
1.16961
0.90208
0.694945
0.229791
-0.0269877
1.16405
0.89938
0.692475
0.230315
-0.024815
1.1585
0.896669
0.690005
0.230828
-0.0226585
1.15296
0.893945
0.687535
0.231331
-0.020518
1.14742
0.891209
0.685066
0.231823
-0.0183935
1.1419
0.888462
0.682597
0.232305
-0.0162851
1.13638
0.885702
0.680128
0.232777
-0.0141926
1.13087
0.882931
0.677659
0.233238
-0.0121161
1.12537
0.880147
0.675191
0.233689
-0.0100555
1.11987
0.877352
0.672723
0.234129
-0.00801079
1.11438
0.874546
0.670254
0.234558
-0.00598199
1.1089
0.871727
0.667786
0.234977
-0.00396906
1.10343
0.868897
0.665318
0.235384
-0.001972
1.09797
0.866055
0.662849
0.235782
9.20678e-06
1.09251
0.863202
0.660381
0.236168
0.00197456
1.08706
0.860337
0.657912
0.236543
0.00392407
1.08161
0.857461
0.655443
0.236908
0.00585774
1.07618
0.854573
0.652973
0.237261
0.00777556
1.07075
0.851674
0.650504
0.237604
0.00967753
1.06532
0.848764
0.648033
0.237935
0.0115637
1.05991
0.845842
0.645563
0.238255
0.0134339
1.0545
0.842909
0.643092
0.238564
0.0152883
1.0491
0.839965
0.64062
0.238862
0.0171268
1.0437
0.837009
0.638147
0.239148
0.0189494
1.03832
0.834042
0.635674
0.239423
0.0207561
1.03293
0.831065
0.6332
0.239687
0.0225469
1.02756
0.828076
0.630726
0.239939
0.0243217
1.02219
0.825076
0.62825
0.24018
0.0260806
1.01683
0.822065
0.625774
0.240409
0.0278234
1.01147
0.819044
0.623297
0.240626
0.0295503
1.00613
0.816011
0.620818
0.240832
0.0312611
1.00078
0.812968
0.618339
0.241026
0.0329558
0.995449
0.809914
0.615858
0.241208
0.0346345
0.99012
0.806849
0.613377
0.241379
0.036297
0.984798
0.803774
0.610894
0.241538
0.0379433
0.979482
0.800688
0.60841
0.241684
0.0395735
0.974172
0.797591
0.605924
0.241819
0.0411874
0.968869
0.794484
0.603437
0.241941
0.0427851
0.963572
0.791367
0.600949
0.242052
0.0443664
0.958281
0.788239
0.598459
0.24215
0.0459314
0.952996
0.785102
0.595967
0.242236
0.04748
0.947718
0.781954
0.593473
0.24231
0.0490122
0.942446
0.778796
0.590977
0.242372
0.0505279
0.93718
0.775629
0.588479
0.242421
0.0520271
0.93192
0.772452
0.585979
0.242457
0.0535097
0.926666
0.769265
0.583477
0.242481
0.0549757
0.921419
0.766069
0.580972
0.242493
0.0564251
0.916178
0.762863
0.578465
0.242492
0.0578577
0.910942
0.759648
0.575955
0.242478
0.0592736
0.905713
0.756424
0.573442
0.242451
0.0606726
0.90049
0.753191
0.570927
0.242412
0.0620548
0.895273
0.749948
0.568409
0.242359
0.0634201
0.890062
0.746697
0.565888
0.242294
0.0647684
0.884857
0.743437
0.563364
0.242216
0.0660996
0.879658
0.740167
0.560837
0.242124
0.0674138
0.874465
0.736889
0.558307
0.24202
0.0687108
0.869278
0.733602
0.555774
0.241902
0.0699906
0.864097
0.730307
0.553238
0.241772
0.0712531
0.858922
0.727003
0.550698
0.241627
0.0724983
0.853753
0.72369
0.548155
0.24147
0.0737261
0.84859
0.720369
0.545608
0.241299
0.0749365
0.843432
0.717039
0.543058
0.241115
0.0761293
0.838281
0.713701
0.540505
0.240918
0.0773046
0.833136
0.710354
0.537947
0.240706
0.0784622
0.827996
0.706999
0.535386
0.240482
0.0796021
0.822863
0.703636
0.532822
0.240243
0.0807242
0.817735
0.700264
0.530253
0.239991
0.0818285
0.812613
0.696885
0.527681
0.239726
0.0829148
0.807497
0.693497
0.525105
0.239446
0.0839832
0.802387
0.690101
0.522525
0.239153
0.0850336
0.797283
0.686697
0.51994
0.238846
0.0860658
0.792185
0.683285
0.517352
0.238525
0.0870798
0.787092
0.679865
0.514759
0.23819
0.0880755
0.782006
0.676438
0.512163
0.237841
0.089053
0.776925
0.673002
0.509562
0.237477
0.090012
0.77185
0.669558
0.506957
0.2371
0.0909526
0.766781
0.666107
0.504347
0.236709
0.0918746
0.761718
0.662647
0.501733
0.236303
0.092778
0.756661
0.65918
0.499115
0.235884
0.0936627
0.751609
0.655705
0.496492
0.23545
0.0945286
0.746563
0.652223
0.493865
0.235001
0.0953758
0.741523
0.648732
0.491233
0.234538
0.096204
0.736489
0.645234
0.488597
0.234061
0.0970132
0.731461
0.641728
0.485955
0.23357
0.0978033
0.726439
0.638215
0.48331
0.233063
0.0985744
0.721422
0.634694
0.480659
0.232543
0.0993262
0.716411
0.631165
0.478004
0.232008
0.100059
0.711406
0.627628
0.475344
0.231458
0.100772
0.706407
0.624084
0.472679
0.230893
0.101466
0.701414
0.620533
0.470009
0.230314
0.10214
0.696426
0.616974
0.467334
0.22972
0.102795
0.691444
0.613407
0.464654
0.229111
0.10343
0.686468
0.609833
0.461969
0.228487
0.104045
0.681497
0.606251
0.459279
0.227849
0.104641
0.676533
0.602662
0.456584
0.227195
0.105216
0.671574
0.599065
0.453884
0.226527
0.105772
0.666621
0.595461
0.451178
0.225843
0.106308
0.661673
0.59185
0.448467
0.225145
0.106823
0.656732
0.588231
0.445751
0.224432
0.107319
0.651796
0.584604
0.44303
0.223703
0.107794
0.646865
0.580971
0.440303
0.222959
0.108249
0.641941
0.57733
0.43757
0.2222
0.108683
0.637022
0.573681
0.434832
0.221426
0.109097
0.632109
0.570025
0.432089
0.220637
0.10949
0.627201
0.566362
0.42934
0.219832
0.109863
0.622299
0.562692
0.426585
0.219012
0.110215
0.617403
0.559014
0.423824
0.218176
0.110547
0.612512
0.555329
0.421058
0.217326
0.110858
0.607627
0.551637
0.418286
0.216459
0.111147
0.602748
0.547937
0.415508
0.215578
0.111416
0.597874
0.54423
0.412724
0.21468
0.111664
0.593005
0.540516
0.409934
0.213768
0.111891
0.588143
0.536795
0.407138
0.212839
0.112096
0.583285
0.533066
0.404336
0.211895
0.11228
0.578434
0.52933
0.401528
0.210936
0.112443
0.573587
0.525587
0.398713
0.20996
0.112585
0.568746
0.521837
0.395893
0.208969
0.112705
0.563911
0.51808
0.393066
0.207963
0.112804
0.559081
0.514315
0.390233
0.20694
0.112881
0.554256
0.510543
0.387393
0.205902
0.112937
0.549437
0.506764
0.384547
0.204848
0.112971
0.544623
0.502978
0.381695
0.203778
0.112983
0.539815
0.499185
0.378836
0.202692
0.112973
0.535011
0.495384
0.37597
0.20159
0.112942
0.530213
0.491577
0.373098
0.200473
0.112889
0.52542
0.487762
0.370219
0.199339
0.112813
0.520633
0.48394
0.367333
0.19819
0.112716
0.51585
0.480111
0.364441
0.197024
0.112597
0.511072
0.476274
0.361541
0.195842
0.112456
0.5063
0.472431
0.358635
0.194644
0.112292
0.501532
0.46858
0.355722
0.193431
0.112107
0.49677
0.464722
0.352802
0.192201
0.111899
0.492012
0.460857
0.349874
0.190954
0.111669
0.487259
0.456985
0.34694
0.189692
0.111416
0.482511
0.453105
0.343998
0.188414
0.111141
0.477768
0.449219
0.341049
0.187119
0.110843
0.47303
0.445325
0.338093
0.185808
0.110522
0.468297
0.441424
0.335129
0.184481
0.110179
0.46357
0.437516
0.332159
0.183137
0.109812
0.458847
0.433601
0.32918
0.181777
0.109422
0.45413
0.429678
0.326194
0.180401
0.109009
0.449417
0.425748
0.323201
0.179008
0.108572
0.44471
0.421811
0.320199
0.177599
0.108112
0.440009
0.417867
0.317191
0.176174
0.107628
0.435312
0.413916
0.314174
0.174732
0.10712
0.43062
0.409957
0.311149
0.173274
0.106589
0.425934
0.405991
0.308117
0.1718
0.106034
0.421252
0.402017
0.305077
0.170309
0.105455
0.416576
0.398037
0.302029
0.168801
0.104852
0.411905
0.394049
0.298973
0.167277
0.104225
0.407238
0.390054
0.295908
0.165736
0.103575
0.402577
0.386051
0.292836
0.164179
0.1029
0.397921
0.382041
0.289755
0.162606
0.102201
0.393269
0.378024
0.286666
0.161016
0.101477
0.388622
0.373999
0.283569
0.159409
0.10073
0.38398
0.369967
0.280463
0.157785
0.0999584
0.379342
0.365927
0.277349
0.156145
0.0991626
0.37471
0.36188
0.274227
0.154489
0.0983425
0.370081
0.357825
0.271095
0.152816
0.0974981
0.365457
0.353763
0.267956
0.151126
0.0966294
0.360838
0.349694
0.264807
0.149419
0.0957364
0.356222
0.345616
0.26165
0.147696
0.0948191
0.351611
0.341532
0.258484
0.145957
0.0938776
0.347004
0.337439
0.255309
0.1442
0.0929117
0.342401
0.333339
0.252125
0.142427
0.0919215
0.337801
0.329231
0.248933
0.140637
0.090907
0.333206
0.325116
0.245731
0.138831
0.0898682
0.328614
0.320992
0.24252
0.137008
0.0888051
0.324026
0.316861
0.2393
0.135168
0.0877178
0.319441
0.312722
0.236071
0.133311
0.0866062
0.314859
0.308576
0.232832
0.131438
0.0854704
0.310281
0.304421
0.229585
0.129548
0.0843105
0.305706
0.300258
0.226327
0.127641
0.0831263
0.301133
0.296088
0.223061
0.125718
0.0819181
0.296564
0.291909
0.219784
0.123778
0.0806857
0.291997
0.287723
0.216499
0.121821
0.0794292
0.287433
0.283528
0.213203
0.119847
0.0781488
0.282871
0.279325
0.209898
0.117857
0.0768443
0.278312
0.275114
0.206583
0.11585
0.0755159
0.273755
0.270894
0.203258
0.113826
0.0741636
0.269199
0.266667
0.199924
0.111786
0.0727874
0.264646
0.26243
0.196579
0.109729
0.0713874
0.260094
0.258186
0.193225
0.107655
0.0699637
0.255544
0.253933
0.18986
0.105565
0.0685163
0.250996
0.249672
0.186485
0.103458
0.0670453
0.246448
0.245402
0.1831
0.101334
0.0655507
0.241902
0.241123
0.179705
0.0991934
0.0640326
0.237357
0.236836
0.176299
0.0970363
0.0624911
0.232812
0.232539
0.172883
0.0948626
0.0609261
0.228268
0.228235
0.169457
0.0926722
0.0593379
0.223725
0.223921
0.16602
0.0904652
0.0577264
0.219182
0.219598
0.162572
0.0882416
0.0560918
0.214638
0.215266
0.159114
0.0860015
0.0544342
0.210095
0.210925
0.155645
0.0837447
0.0527535
0.205552
0.206575
0.152165
0.0814714
0.0510499
0.201008
0.202216
0.148675
0.0791816
0.0493234
0.196464
0.197847
0.145173
0.0768753
0.0475743
0.191918
0.19347
0.141661
0.0745524
0.0458025
0.187372
0.189082
0.138137
0.0722131
0.0440081
0.182825
0.184685
0.134603
0.0698573
0.0421912
0.178276
0.180279
0.131057
0.0674851
0.040352
0.173726
0.175862
0.1275
0.0650964
0.0384905
0.169174
0.171436
0.123932
0.0626914
0.0366069
0.16462
0.167
0.120352
0.0602701
0.0347012
0.160064
0.162554
0.116761
0.0578324
0.0327735
0.155506
0.158098
0.113158
0.0553784
0.030824
0.150945
0.153632
0.109544
0.0529081
0.0288528
0.146381
0.149156
0.105918
0.0504216
0.0268599
0.141815
0.144669
0.102281
0.0479188
0.0248456
0.137245
0.140172
0.0986314
0.0453999
0.0228099
0.132672
0.135664
0.0949702
0.0428649
0.0207529
0.128095
0.131146
0.0912972
0.0403138
0.0186748
0.123515
0.126617
0.0876121
0.0377466
0.0165756
0.11893
0.122077
0.083915
0.0351633
0.0144556
0.114341
0.117526
0.0802058
0.0325641
0.0123149
0.109748
0.112964
0.0764844
0.029949
0.0101535
0.10515
0.108391
0.0727507
0.0273179
0.00797174
0.100547
0.103806
0.0690047
0.024671
0.00576961
0.0959386
0.09921
0.0652463
0.0220083
0.00354731
0.091325
0.0946025
0.0614754
0.0193298
0.00130498
0.0867058
0.0899832
0.057692
0.0166356
-0.000957221
0.0820807
0.0853522
0.0538959
0.0139257
-0.00323914
0.0774494
0.0807092
0.0500872
0.0112003
-0.00554063
0.0728117
0.0760542
0.0462657
0.00845927
-0.00786151
0.0681674
0.0713869
0.0424314
0.00570277
-0.0102016
0.0635162
0.0667073
0.0385841
0.00293084
-0.0125608
0.0588579
0.0620152
0.0347239
0.00014353
-0.0149389
0.0541921
0.0573105
0.0308506
-0.00265909
-0.0173357
0.0495186
0.052593
0.0269642
-0.00547696
-0.019751
0.0448372
0.0478626
0.0230646
-0.00831001
-0.0221847
0.0401475
0.0431192
0.0191517
-0.0111582
-0.0246365
0.0354494
0.0383625
0.0152255
-0.0140214
-0.0271063
0.0307424
0.0335924
0.0112858
-0.0168996
-0.0295939
0.0260264
0.0288089
0.00733263
-0.0197926
-0.032099
0.0213011
0.0240116
0.00336587
-0.0227005
-0.0346215
0.016566
0.0192004
-0.000614543
-0.0256232
-0.0371611
0.0118211
0.0143752
-0.00460869
-0.0285605
-0.0397177
0.00706586
0.00953585
-0.00861666
-0.0315124
-0.042291
0.00230009
0.00468209
-0.0126385
-0.0344788
-0.0448807
-0.00247655
-0.000186234
-0.0166743
-0.0374596
-0.0474868
-0.00726438
-0.00506929
-0.0207242
-0.0404547
-0.0501088
-0.0120637
-0.00996727
-0.0247882
-0.043464
-0.0527466
-0.0168749
-0.0148803
-0.0288664
-0.0464875
-0.0553999
-0.0216982
-0.0198087
-0.032959
-0.0495249
-0.0580684
-0.0265341
-0.0247526
-0.0370659
-0.0525763
-0.060752
-0.0313828
-0.0297121
-0.0411873
-0.0556415
-0.0634503
-0.0362446
-0.0346876
-0.0453233
-0.0587204
-0.0661631
-0.0411201
-0.0396791
-0.0494739
-0.0618129
-0.0688901
-0.0460094
-0.0446869
-0.0536393
-0.0649188
-0.0716311
-0.050913
-0.0497112
-0.0578195
-0.0680381
-0.0743856
-0.0558313
-0.0547523
-0.0620146
-0.0711707
-0.0771535
-0.0607645
-0.0598102
-0.0662248
-0.0743163
-0.0799344
-0.0657132
-0.0648853
-0.07045
-0.0774748
-0.0827281
-0.0706776
-0.0699779
-0.0746905
-0.0806461
-0.0855342
-0.0756581
-0.0750881
-0.0789463
-0.0838302
-0.0883525
-0.0806553
-0.0802163
-0.0832176
-0.0870269
-0.0911829
-0.0856701
-0.0853633
-0.087505
-0.0902365
-0.0940239
-0.0907012
-0.0905277
-0.091807
-0.0934574
-0.0968886
-0.095776
-0.0957385
-0.0961465
-0.0967053
)
;

boundaryField
{
    BotWall
    {
        type            calculated;
        value           nonuniform List<scalar> 5(0.369226 2912.27 1.57325 1.32258 2903.26);
    }
    FreeStream
    {
        type            calculated;
        value           nonuniform List<scalar> 5(-0.0983308 -0.0983317 -0.0983634 -0.0983319 -0.0983406);
    }
    FrontNBack
    {
        type            empty;
    }
    LeftSide
    {
        type            symmetryPlane;
    }
    RightSide
    {
        type            symmetryPlane;
    }
}


// ************************************************************************* //
