/*--------------------------------*- C++ -*----------------------------------*\
| =========                 |                                                 |
| \\      /  F ield         | OpenFOAM: The Open Source CFD Toolbox           |
|  \\    /   O peration     | Version:  2.4.0                                 |
|   \\  /    A nd           | Web:      www.OpenFOAM.org                      |
|    \\/     M anipulation  |                                                 |
\*---------------------------------------------------------------------------*/
FoamFile
{
    version     2.0;
    format      ascii;
    class       volScalarField;
    location    "0.002";
    object      p_rgh;
}
// * * * * * * * * * * * * * * * * * * * * * * * * * * * * * * * * * * * * * //

dimensions      [1 -1 -2 0 0 0 0];

internalField   nonuniform List<scalar> 
1500
(
0.369226
2912.27
1.57325
1.32258
2903.26
-2.38625
-0.834526
-1.28672
-1.44116
-2.0577
-0.40159
1.11866
0.719364
0.517919
-0.0735075
-0.0323609
1.47727
1.08829
0.879565
0.294009
-0.0786166
1.42275
1.03628
0.828473
0.245842
-0.113101
1.37982
0.996332
0.788938
0.209452
-0.117485
1.36687
0.986827
0.779396
0.2032
-0.112835
1.36299
0.986519
0.77889
0.206008
-0.108627
1.35869
0.985763
0.777954
0.208378
-0.105541
1.35329
0.983869
0.77591
0.209629
-0.102785
1.34758
0.981643
0.773548
0.210554
-0.100024
1.34191
0.979427
0.771203
0.211491
-0.0972321
1.33628
0.977242
0.768897
0.21246
-0.0944391
1.33067
0.975057
0.7666
0.213433
-0.0916581
1.32506
0.972861
0.764301
0.214397
-0.0888913
1.31947
0.970653
0.761998
0.215351
-0.086138
1.31388
0.968434
0.759694
0.216296
-0.083398
1.30831
0.966204
0.757388
0.217234
-0.0806712
1.30274
0.963965
0.755081
0.218163
-0.0779579
1.29718
0.961715
0.752773
0.219083
-0.0752581
1.29163
0.959456
0.750464
0.219996
-0.072572
1.28609
0.957187
0.748156
0.2209
-0.0698995
1.28055
0.954906
0.745849
0.221795
-0.0672409
1.27502
0.952614
0.743543
0.222682
-0.0645962
1.2695
0.950311
0.741238
0.22356
-0.0619655
1.26399
0.947997
0.738934
0.22443
-0.0593488
1.25849
0.945671
0.736632
0.225291
-0.0567464
1.25299
0.943334
0.734332
0.226143
-0.0541582
1.2475
0.940985
0.732032
0.226986
-0.0515843
1.24203
0.938625
0.729734
0.22782
-0.0490248
1.23655
0.936254
0.727438
0.228646
-0.0464799
1.23109
0.933871
0.725143
0.229462
-0.0439496
1.22564
0.931476
0.72285
0.230269
-0.041434
1.22019
0.92907
0.720558
0.231068
-0.0389332
1.21475
0.926653
0.718268
0.231857
-0.0364472
1.20933
0.924224
0.715979
0.232636
-0.0339762
1.20391
0.921783
0.713691
0.233407
-0.0315202
1.19849
0.919331
0.711405
0.234168
-0.0290793
1.19309
0.916867
0.70912
0.23492
-0.0266536
1.1877
0.914393
0.706837
0.235663
-0.0242433
1.18231
0.911906
0.704555
0.236396
-0.0218483
1.17694
0.909409
0.702274
0.23712
-0.0194687
1.17157
0.906899
0.699994
0.237834
-0.0171046
1.16621
0.904379
0.697715
0.238538
-0.0147559
1.16086
0.901847
0.695438
0.239233
-0.0124226
1.15552
0.899305
0.693161
0.239919
-0.0101045
1.15019
0.896751
0.690886
0.240594
-0.00780182
1.14486
0.894185
0.688611
0.24126
-0.00551436
1.13955
0.891609
0.686338
0.241916
-0.00324212
1.13424
0.889021
0.684065
0.242563
-0.000985092
1.12894
0.886423
0.681793
0.243199
0.00125675
1.12365
0.883813
0.679522
0.243825
0.00348343
1.11837
0.881193
0.677252
0.244442
0.00569497
1.1131
0.878561
0.674982
0.245048
0.00789137
1.10783
0.875919
0.672713
0.245645
0.0100726
1.10257
0.873266
0.670444
0.246231
0.0122388
1.09732
0.870602
0.668176
0.246807
0.0143899
1.09208
0.867927
0.665909
0.247373
0.0165258
1.08684
0.865241
0.663641
0.247929
0.0186467
1.08162
0.862545
0.661375
0.248475
0.0207524
1.0764
0.859839
0.659108
0.24901
0.0228431
1.07119
0.857121
0.656842
0.249534
0.0249186
1.06599
0.854394
0.654576
0.250049
0.026979
1.06079
0.851655
0.652311
0.250552
0.0290243
1.0556
0.848907
0.650045
0.251046
0.0310545
1.05042
0.846147
0.647779
0.251528
0.0330695
1.04525
0.843378
0.645514
0.252
0.0350694
1.04008
0.840598
0.643248
0.252461
0.0370541
1.03492
0.837809
0.640983
0.252912
0.0390235
1.02977
0.835008
0.638717
0.253352
0.0409778
1.02463
0.832198
0.636451
0.253781
0.0429168
1.01949
0.829378
0.634185
0.254199
0.0448406
1.01436
0.826548
0.631918
0.254606
0.0467491
1.00924
0.823707
0.629652
0.255002
0.0486423
1.00413
0.820857
0.627385
0.255387
0.0505201
0.999021
0.817997
0.625117
0.255761
0.0523826
0.993921
0.815127
0.622849
0.256123
0.0542297
0.988828
0.812248
0.62058
0.256475
0.0560613
0.983743
0.809358
0.618311
0.256815
0.0578775
0.978664
0.806459
0.616041
0.257144
0.0596781
0.973592
0.803551
0.613771
0.257462
0.0614633
0.968528
0.800633
0.611499
0.257768
0.0632328
0.963471
0.797707
0.609226
0.258063
0.0649867
0.95842
0.794771
0.606952
0.258346
0.066725
0.953377
0.791826
0.604676
0.258618
0.0684476
0.948341
0.788872
0.6024
0.258878
0.0701544
0.943311
0.78591
0.600122
0.259126
0.0718455
0.938289
0.782939
0.597842
0.259363
0.0735207
0.933273
0.779959
0.59556
0.259587
0.07518
0.928265
0.776971
0.593277
0.2598
0.0768234
0.923263
0.773974
0.590992
0.260001
0.0784508
0.918268
0.770969
0.588705
0.26019
0.0800622
0.91328
0.767956
0.586416
0.260367
0.0816575
0.908299
0.764934
0.584125
0.260531
0.0832367
0.903325
0.761905
0.581832
0.260684
0.0847997
0.898358
0.758867
0.579537
0.260824
0.0863465
0.893398
0.755822
0.57724
0.260953
0.0878769
0.888444
0.752769
0.57494
0.261068
0.089391
0.883497
0.749707
0.572638
0.261172
0.0908887
0.878557
0.746638
0.570333
0.261263
0.09237
0.873624
0.743561
0.568026
0.261342
0.0938347
0.868698
0.740477
0.565717
0.261408
0.0952828
0.863779
0.737385
0.563404
0.261462
0.0967143
0.858866
0.734286
0.56109
0.261503
0.0981291
0.85396
0.731178
0.558772
0.261531
0.0995272
0.849061
0.728064
0.556451
0.261547
0.100908
0.844169
0.724942
0.554128
0.26155
0.102273
0.839283
0.721813
0.551802
0.26154
0.10362
0.834405
0.718676
0.549473
0.261517
0.10495
0.829533
0.715533
0.54714
0.261482
0.106264
0.824667
0.712382
0.544805
0.261433
0.10756
0.819809
0.709223
0.542466
0.261372
0.108839
0.814958
0.706058
0.540125
0.261297
0.1101
0.810113
0.702886
0.53778
0.26121
0.111344
0.805275
0.699707
0.535432
0.261109
0.112571
0.800443
0.69652
0.53308
0.260996
0.113781
0.795619
0.693327
0.530725
0.260869
0.114973
0.790801
0.690127
0.528367
0.260729
0.116147
0.78599
0.68692
0.526005
0.260575
0.117303
0.781186
0.683706
0.52364
0.260409
0.118442
0.776388
0.680485
0.521271
0.260229
0.119563
0.771598
0.677257
0.518899
0.260035
0.120666
0.766814
0.674022
0.516523
0.259829
0.121751
0.762036
0.670781
0.514144
0.259608
0.122818
0.757266
0.667533
0.51176
0.259374
0.123867
0.752502
0.664278
0.509373
0.259127
0.124898
0.747745
0.661017
0.506982
0.258866
0.12591
0.742995
0.657749
0.504588
0.258591
0.126904
0.738252
0.654474
0.502189
0.258303
0.12788
0.733515
0.651192
0.499787
0.258001
0.128837
0.728785
0.647904
0.497381
0.257686
0.129776
0.724062
0.64461
0.49497
0.257356
0.130696
0.719346
0.641309
0.492556
0.257013
0.131598
0.714636
0.638001
0.490137
0.256655
0.132481
0.709933
0.634687
0.487715
0.256284
0.133345
0.705237
0.631366
0.485288
0.255899
0.13419
0.700547
0.628039
0.482857
0.2555
0.135016
0.695865
0.624705
0.480422
0.255087
0.135823
0.691189
0.621365
0.477983
0.25466
0.136611
0.686519
0.618018
0.475539
0.254219
0.13738
0.681857
0.614666
0.473091
0.253764
0.138129
0.677201
0.611306
0.470638
0.253295
0.138859
0.672552
0.607941
0.468181
0.252811
0.13957
0.667909
0.604569
0.46572
0.252313
0.140262
0.663274
0.60119
0.463254
0.251801
0.140934
0.658644
0.597806
0.460783
0.251275
0.141586
0.654022
0.594415
0.458308
0.250735
0.142219
0.649406
0.591017
0.455828
0.25018
0.142832
0.644797
0.587614
0.453343
0.249611
0.143425
0.640195
0.584204
0.450853
0.249027
0.143999
0.635599
0.580788
0.448359
0.248429
0.144552
0.63101
0.577366
0.44586
0.247816
0.145085
0.626427
0.573938
0.443355
0.247189
0.145599
0.621851
0.570503
0.440846
0.246548
0.146092
0.617282
0.567063
0.438332
0.245892
0.146565
0.612719
0.563616
0.435813
0.245221
0.147018
0.608162
0.560163
0.433288
0.244536
0.147451
0.603613
0.556703
0.430759
0.243836
0.147863
0.599069
0.553238
0.428224
0.243121
0.148255
0.594533
0.549767
0.425684
0.242392
0.148627
0.590002
0.546289
0.423139
0.241648
0.148978
0.585478
0.542806
0.420588
0.240889
0.149308
0.580961
0.539316
0.418032
0.240115
0.149618
0.57645
0.53582
0.415471
0.239327
0.149907
0.571945
0.532318
0.412904
0.238524
0.150175
0.567447
0.52881
0.410331
0.237706
0.150423
0.562955
0.525296
0.407753
0.236873
0.150649
0.558469
0.521776
0.405169
0.236026
0.150855
0.553989
0.51825
0.40258
0.235163
0.15104
0.549516
0.514717
0.399985
0.234285
0.151204
0.545048
0.511179
0.397384
0.233393
0.151347
0.540587
0.507635
0.394777
0.232485
0.151469
0.536132
0.504085
0.392164
0.231563
0.15157
0.531683
0.500528
0.389545
0.230626
0.15165
0.52724
0.496966
0.386921
0.229673
0.151708
0.522803
0.493397
0.38429
0.228705
0.151745
0.518372
0.489823
0.381653
0.227723
0.15176
0.513947
0.486242
0.37901
0.226725
0.151754
0.509529
0.482656
0.376361
0.225712
0.151726
0.505117
0.479063
0.373706
0.224684
0.151676
0.500711
0.475464
0.371044
0.223641
0.151604
0.496311
0.47186
0.368376
0.222583
0.151509
0.491918
0.468249
0.365701
0.221509
0.151393
0.487531
0.464632
0.36302
0.22042
0.151254
0.483151
0.461009
0.360333
0.219316
0.151093
0.478777
0.45738
0.357639
0.218197
0.150909
0.474409
0.453745
0.354938
0.217063
0.150703
0.470047
0.450104
0.352231
0.215913
0.150474
0.465692
0.446457
0.349517
0.214748
0.150222
0.461343
0.442804
0.346796
0.213568
0.149948
0.457
0.439145
0.344068
0.212373
0.149651
0.452664
0.435479
0.341334
0.211162
0.149331
0.448333
0.431807
0.338592
0.209936
0.148988
0.444009
0.42813
0.335844
0.208694
0.148623
0.439691
0.424446
0.333088
0.207438
0.148234
0.435379
0.420756
0.330326
0.206165
0.147823
0.431072
0.417059
0.327556
0.204878
0.147388
0.426772
0.413357
0.324779
0.203575
0.146931
0.422478
0.409648
0.321995
0.202257
0.14645
0.418189
0.405933
0.319203
0.200923
0.145946
0.413906
0.402212
0.316404
0.199574
0.14542
0.409628
0.398484
0.313598
0.19821
0.14487
0.405356
0.39475
0.310784
0.19683
0.144298
0.401089
0.39101
0.307963
0.195435
0.143702
0.396828
0.387264
0.305134
0.194025
0.143083
0.392572
0.383511
0.302297
0.192599
0.142441
0.388321
0.379751
0.299453
0.191157
0.141777
0.384076
0.375985
0.296601
0.189701
0.141089
0.379835
0.372213
0.293741
0.188228
0.140378
0.375599
0.368434
0.290873
0.186741
0.139644
0.371368
0.364649
0.287998
0.185238
0.138888
0.367141
0.360857
0.285114
0.183719
0.138108
0.362919
0.357059
0.282222
0.182186
0.137306
0.358701
0.353254
0.279323
0.180637
0.13648
0.354488
0.349442
0.276415
0.179072
0.135632
0.350278
0.345624
0.273499
0.177492
0.134761
0.346073
0.341798
0.270574
0.175897
0.133868
0.341872
0.337966
0.267642
0.174286
0.132952
0.337674
0.334128
0.264701
0.17266
0.132013
0.33348
0.330282
0.261751
0.171018
0.131051
0.32929
0.326429
0.258794
0.169362
0.130067
0.325103
0.32257
0.255827
0.167689
0.12906
0.320919
0.318703
0.252852
0.166002
0.128031
0.316738
0.31483
0.249868
0.164299
0.12698
0.31256
0.310949
0.246876
0.162581
0.125906
0.308385
0.307061
0.243875
0.160847
0.12481
0.304213
0.303166
0.240865
0.159099
0.123692
0.300043
0.299264
0.237846
0.157334
0.122551
0.295876
0.295354
0.234818
0.155555
0.121389
0.29171
0.291437
0.231781
0.153761
0.120205
0.287547
0.287513
0.228735
0.151951
0.118998
0.283385
0.283581
0.22568
0.150126
0.11777
0.279225
0.279642
0.222616
0.148286
0.116521
0.275067
0.275695
0.219543
0.14643
0.115249
0.27091
0.27174
0.21646
0.14456
0.113956
0.266754
0.267778
0.213368
0.142674
0.112641
0.2626
0.263808
0.210266
0.140773
0.111306
0.258446
0.25983
0.207155
0.138857
0.109948
0.254292
0.255844
0.204035
0.136926
0.10857
0.25014
0.251849
0.200905
0.13498
0.10717
0.245987
0.247847
0.197765
0.133019
0.10575
0.241835
0.243837
0.194615
0.131044
0.104308
0.237682
0.239818
0.191456
0.129053
0.102846
0.233529
0.235792
0.188287
0.127047
0.101363
0.229376
0.231756
0.185108
0.125026
0.0998594
0.225222
0.227713
0.181919
0.122991
0.0983353
0.221068
0.22366
0.17872
0.12094
0.0967909
0.216912
0.219599
0.175511
0.118875
0.0952263
0.212755
0.215529
0.172292
0.116795
0.0936415
0.208596
0.211451
0.169062
0.1147
0.0920367
0.204436
0.207363
0.165823
0.112591
0.0904121
0.200274
0.203267
0.162572
0.110467
0.0887677
0.19611
0.199161
0.159312
0.108329
0.0871037
0.191943
0.195046
0.156041
0.106176
0.0854202
0.187775
0.190921
0.15276
0.104008
0.0837174
0.183603
0.186788
0.149468
0.101826
0.0819954
0.179428
0.182644
0.146165
0.0996295
0.0802543
0.175251
0.178491
0.142851
0.0974187
0.0784943
0.171069
0.174329
0.139527
0.0951936
0.0767156
0.166885
0.170156
0.136192
0.0929542
0.0749182
0.162696
0.165973
0.132846
0.0907006
0.0731023
0.158503
0.161781
0.129489
0.0884329
0.0712682
0.154306
0.157578
0.126121
0.0861511
0.0694159
0.150104
0.153364
0.122742
0.0838553
0.0675456
0.145898
0.14914
0.119352
0.0815455
0.0656575
0.141686
0.144906
0.11595
0.0792218
0.0637518
0.13747
0.140661
0.112538
0.0768843
0.0618286
0.133247
0.136405
0.109113
0.0745329
0.0598881
0.129019
0.132137
0.105678
0.0721679
0.0579305
0.124785
0.127859
0.10223
0.0697892
0.055956
0.120544
0.12357
0.0987716
0.067397
0.0539648
0.116297
0.119269
0.0953012
0.0649913
0.051957
0.112043
0.114956
0.091819
0.0625722
0.049933
0.107782
0.110632
0.0883251
0.0601397
0.0478927
0.103513
0.106295
0.0848192
0.057694
0.0458366
0.0992366
0.101947
0.0813015
0.0552351
0.0437647
0.0949523
0.0975867
0.0777717
0.0527631
0.0416774
0.0906596
0.0932138
0.0742298
0.050278
0.0395748
0.0863584
0.0888284
0.0706759
0.0477801
0.0374572
0.0820482
0.0844302
0.0671096
0.0452694
0.0353247
0.0777289
0.0800192
0.0635311
0.0427459
0.0331777
0.0734001
0.0755952
0.0599403
0.0402098
0.0310164
0.0690615
0.0711579
0.0563369
0.0376611
0.028841
0.0647127
0.0667072
0.0527211
0.0351001
0.0266518
0.0603534
0.0622429
0.0490927
0.0325267
0.024449
0.0559834
0.0577648
0.0454515
0.0299411
0.0222329
0.0516022
0.0532728
0.0417976
0.0273434
0.0200038
0.0472095
0.0487666
0.0381309
0.0247338
0.017762
0.0428051
0.044246
0.0344512
0.0221123
0.0155077
0.0383884
0.0397109
0.0307586
0.019479
0.0132412
0.0339593
0.035161
0.0270528
0.0168341
0.0109629
0.0295172
0.0305962
0.0233338
0.0141778
0.00867289
0.0250619
0.0260162
0.0196016
0.0115101
0.00637165
0.0205929
0.0214207
0.0158561
0.00883129
0.00405945
0.01611
0.0168097
0.0120971
0.0061414
0.0017366
0.0116127
0.0121827
0.00832449
0.00344059
-0.000596684
0.00710048
0.00753948
0.00453817
0.000728903
-0.00294031
0.00257253
0.00287928
0.000737584
-0.00199389
-0.00529273
-0.00197003
-0.0017965
-0.00307584
-0.00472622
-0.00766708
-0.00655445
-0.00651692
-0.0069249
-0.00748375
)
;

boundaryField
{
    BotWall
    {
        type            fixedFluxPressure;
        gradient        uniform 0;
        value           nonuniform List<scalar> 5(0.369226 2912.27 1.57325 1.32258 2903.26);
    }
    FreeStream
    {
        type            totalPressure;
        rho             rho;
        psi             none;
        gamma           1;
        p0              uniform 0;
        value           nonuniform List<scalar> 5(-0.00886355 -0.00886452 -0.00889623 -0.00886468 -0.00887335);
    }
    FrontNBack
    {
        type            empty;
    }
    LeftSide
    {
        type            symmetryPlane;
    }
    RightSide
    {
        type            symmetryPlane;
    }
}


// ************************************************************************* //
