/*--------------------------------*- C++ -*----------------------------------*\
| =========                 |                                                 |
| \\      /  F ield         | OpenFOAM: The Open Source CFD Toolbox           |
|  \\    /   O peration     | Version:  2.4.0                                 |
|   \\  /    A nd           | Web:      www.OpenFOAM.org                      |
|    \\/     M anipulation  |                                                 |
\*---------------------------------------------------------------------------*/
FoamFile
{
    version     2.0;
    format      ascii;
    class       surfaceScalarField;
    location    "0.002";
    object      phi;
}
// * * * * * * * * * * * * * * * * * * * * * * * * * * * * * * * * * * * * * //

dimensions      [0 3 -1 0 0 0 0];

internalField   nonuniform List<scalar> 
2695
(
-5.4547e-13
2.61532e-12
9.95938e-12
4.72481e-11
-1.17099e-12
3.76383e-12
-7.982e-12
5.04475e-12
-4.83816e-12
1.41193e-12
-8.83791e-09
1.77164e-12
-8.75219e-09
1.39968e-12
-8.84144e-09
1.37188e-12
-8.79252e-09
-8.8276e-09
1.05131e-12
-8.83896e-09
1.53033e-12
-8.75267e-09
1.47913e-12
-8.84139e-09
1.71389e-12
-8.79276e-09
-8.82588e-09
7.01634e-13
-8.83966e-09
1.16287e-12
-8.75313e-09
5.08346e-13
-8.84074e-09
5.1858e-13
-8.79277e-09
-8.82537e-09
6.58256e-13
-8.84032e-09
7.23351e-13
-8.75319e-09
-1.95823e-13
-8.83982e-09
2.48679e-14
-8.79299e-09
-8.82534e-09
5.49369e-13
-8.84087e-09
3.72427e-13
-8.75302e-09
-4.75695e-13
-8.83897e-09
-1.09251e-13
-8.79335e-09
-8.82545e-09
4.04448e-13
-8.84127e-09
1.29569e-13
-8.75274e-09
-5.39391e-13
-8.8383e-09
-1.08416e-13
-8.79378e-09
-8.82556e-09
2.5971e-13
-8.84153e-09
-2.02034e-14
-8.75246e-09
-5.15794e-13
-8.8378e-09
-7.83454e-14
-8.79422e-09
-8.82564e-09
1.30032e-13
-8.84166e-09
-9.98815e-14
-8.75223e-09
-4.61044e-13
-8.83744e-09
-4.86785e-14
-8.79463e-09
-8.82569e-09
2.22936e-14
-8.84168e-09
-1.31e-13
-8.75208e-09
-3.97793e-13
-8.83718e-09
-2.58751e-14
-8.79501e-09
-8.82571e-09
-5.80206e-14
-8.84163e-09
-1.3131e-13
-8.75201e-09
-3.34945e-13
-8.83697e-09
-9.40274e-15
-8.79533e-09
-8.82572e-09
-1.09946e-13
-8.84152e-09
-1.12852e-13
-8.752e-09
-2.76195e-13
-8.83681e-09
2.99148e-15
-8.79561e-09
-8.82572e-09
-1.40582e-13
-8.84138e-09
-8.46235e-14
-8.75206e-09
-2.23166e-13
-8.83667e-09
1.3103e-14
-8.79585e-09
-8.82571e-09
-1.7263e-13
-8.8412e-09
-5.2773e-14
-8.75218e-09
-1.76523e-13
-8.83655e-09
2.2207e-14
-8.79604e-09
-8.82568e-09
-1.94284e-13
-8.84101e-09
-1.9478e-14
-8.75235e-09
-1.36389e-13
-8.83643e-09
3.09243e-14
-8.79621e-09
-8.82565e-09
-2.08458e-13
-8.8408e-09
1.19036e-14
-8.75257e-09
-1.02538e-13
-8.83632e-09
3.93692e-14
-8.79635e-09
-8.82561e-09
-2.17399e-13
-8.84058e-09
3.92243e-14
-8.75283e-09
-7.43563e-14
-8.8362e-09
4.72424e-14
-8.79648e-09
-8.82557e-09
-2.2277e-13
-8.84036e-09
5.89638e-14
-8.75311e-09
-5.18763e-14
-8.83609e-09
5.43597e-14
-8.79658e-09
-8.82551e-09
-2.25769e-13
-8.84013e-09
6.96141e-14
-8.75341e-09
-3.45571e-14
-8.83599e-09
6.06084e-14
-8.79668e-09
-8.82545e-09
-2.27238e-13
-8.83991e-09
7.71373e-14
-8.75371e-09
-2.24464e-14
-8.83589e-09
6.59515e-14
-8.79677e-09
-8.82538e-09
-2.27758e-13
-8.83968e-09
8.47929e-14
-8.75402e-09
-1.54166e-14
-8.83579e-09
7.03018e-14
-8.79685e-09
-8.82531e-09
-2.27719e-13
-8.83945e-09
9.05968e-14
-8.75434e-09
-1.1032e-14
-8.83569e-09
7.38158e-14
-8.79694e-09
-8.82524e-09
-2.27372e-13
-8.83922e-09
9.46963e-14
-8.75467e-09
-3.77974e-15
-8.83559e-09
7.67222e-14
-8.79702e-09
-8.82516e-09
-2.26872e-13
-8.839e-09
9.74763e-14
-8.75499e-09
1.92736e-15
-8.83549e-09
7.9123e-14
-8.79709e-09
-8.82508e-09
-2.26309e-13
-8.83877e-09
9.92735e-14
-8.75532e-09
6.43005e-15
-8.8354e-09
8.11097e-14
-8.79717e-09
-8.825e-09
-2.25728e-13
-8.83855e-09
1.00368e-13
-8.75564e-09
9.99753e-15
-8.83531e-09
8.27582e-14
-8.79724e-09
-8.82492e-09
-2.25148e-13
-8.83832e-09
1.00975e-13
-8.75597e-09
1.28384e-14
-8.83522e-09
8.41288e-14
-8.79731e-09
-8.82484e-09
-2.24573e-13
-8.8381e-09
1.01262e-13
-8.75629e-09
1.51121e-14
-8.83513e-09
8.52672e-14
-8.79738e-09
-8.82475e-09
-2.23998e-13
-8.83787e-09
1.01355e-13
-8.75662e-09
1.69392e-14
-8.83505e-09
8.62081e-14
-8.79745e-09
-8.82467e-09
-2.23414e-13
-8.83765e-09
1.0134e-13
-8.75694e-09
1.84109e-14
-8.83497e-09
8.69775e-14
-8.79752e-09
-8.82458e-09
-2.22814e-13
-8.83743e-09
1.01276e-13
-8.75727e-09
1.9596e-14
-8.83489e-09
8.75955e-14
-8.79759e-09
-8.82449e-09
-2.22191e-13
-8.8372e-09
1.012e-13
-8.75759e-09
2.05474e-14
-8.8348e-09
8.80783e-14
-8.79766e-09
-8.8244e-09
-2.21543e-13
-8.83698e-09
1.01137e-13
-8.75791e-09
2.13059e-14
-8.83472e-09
8.84398e-14
-8.79772e-09
-8.82431e-09
-2.20865e-13
-8.83676e-09
1.01099e-13
-8.75824e-09
2.19041e-14
-8.83465e-09
8.86923e-14
-8.79779e-09
-8.82423e-09
-2.20158e-13
-8.83654e-09
1.01091e-13
-8.75856e-09
2.23681e-14
-8.83457e-09
8.88473e-14
-8.79786e-09
-8.82414e-09
-2.19423e-13
-8.83632e-09
1.01115e-13
-8.75888e-09
2.27197e-14
-8.83449e-09
8.89154e-14
-8.79792e-09
-8.82405e-09
-2.18662e-13
-8.8361e-09
1.01169e-13
-8.7592e-09
2.29768e-14
-8.83441e-09
8.8907e-14
-8.79799e-09
-8.82396e-09
-2.17879e-13
-8.83589e-09
1.0125e-13
-8.75952e-09
2.31548e-14
-8.83433e-09
8.88315e-14
-8.79805e-09
-8.82387e-09
-2.17074e-13
-8.83567e-09
1.01354e-13
-8.75983e-09
2.32667e-14
-8.83425e-09
8.8698e-14
-8.79812e-09
-8.82378e-09
-2.16253e-13
-8.83545e-09
1.01476e-13
-8.76015e-09
2.33235e-14
-8.83418e-09
8.85145e-14
-8.79818e-09
-8.82369e-09
-2.15418e-13
-8.83524e-09
1.01613e-13
-8.76047e-09
2.33348e-14
-8.8341e-09
8.82886e-14
-8.79825e-09
-8.8236e-09
-2.14571e-13
-8.83502e-09
1.01759e-13
-8.76079e-09
2.33084e-14
-8.83402e-09
8.80267e-14
-8.79831e-09
-8.82352e-09
-2.13714e-13
-8.83481e-09
1.01914e-13
-8.7611e-09
2.32512e-14
-8.83394e-09
8.77346e-14
-8.79838e-09
-8.82343e-09
-2.1285e-13
-8.8346e-09
1.02072e-13
-8.76142e-09
2.31688e-14
-8.83386e-09
8.74173e-14
-8.79844e-09
-8.82334e-09
-2.1198e-13
-8.83438e-09
1.02232e-13
-8.76173e-09
2.30658e-14
-8.83378e-09
8.7079e-14
-8.79851e-09
-8.82325e-09
-2.11105e-13
-8.83417e-09
1.02391e-13
-8.76204e-09
2.29462e-14
-8.8337e-09
8.67234e-14
-8.79857e-09
-8.82317e-09
-2.10226e-13
-8.83396e-09
1.02549e-13
-8.76236e-09
2.28131e-14
-8.83362e-09
8.63535e-14
-8.79863e-09
-8.82308e-09
-2.09344e-13
-8.83375e-09
1.02703e-13
-8.76267e-09
2.26692e-14
-8.83354e-09
8.59719e-14
-8.7987e-09
-8.823e-09
-2.08458e-13
-8.83354e-09
1.02854e-13
-8.76298e-09
2.25165e-14
-8.83346e-09
8.55805e-14
-8.79876e-09
-8.82291e-09
-2.0757e-13
-8.83334e-09
1.02999e-13
-8.76329e-09
2.23567e-14
-8.83338e-09
8.51812e-14
-8.79882e-09
-8.82282e-09
-2.06679e-13
-8.83313e-09
1.0314e-13
-8.7636e-09
2.21913e-14
-8.8333e-09
8.47752e-14
-8.79889e-09
-8.82274e-09
-2.05786e-13
-8.83292e-09
1.03274e-13
-8.76391e-09
2.20213e-14
-8.83322e-09
8.43637e-14
-8.79895e-09
-8.82266e-09
-2.04889e-13
-8.83272e-09
1.03403e-13
-8.76422e-09
2.18475e-14
-8.83314e-09
8.39476e-14
-8.79901e-09
-8.82257e-09
-2.0399e-13
-8.83252e-09
1.03526e-13
-8.76453e-09
2.16708e-14
-8.83306e-09
8.35275e-14
-8.79907e-09
-8.82249e-09
-2.03089e-13
-8.83231e-09
1.03642e-13
-8.76483e-09
2.14917e-14
-8.83297e-09
8.31041e-14
-8.79913e-09
-8.8224e-09
-2.02184e-13
-8.83211e-09
1.03752e-13
-8.76514e-09
2.13106e-14
-8.83289e-09
8.26777e-14
-8.7992e-09
-8.82232e-09
-2.01276e-13
-8.83191e-09
1.03856e-13
-8.76544e-09
2.1128e-14
-8.83281e-09
8.22487e-14
-8.79926e-09
-8.82224e-09
-2.00366e-13
-8.83171e-09
1.03954e-13
-8.76575e-09
2.09441e-14
-8.83273e-09
8.18173e-14
-8.79932e-09
-8.82216e-09
-1.99452e-13
-8.83151e-09
1.04046e-13
-8.76605e-09
2.07591e-14
-8.83264e-09
8.13837e-14
-8.79938e-09
-8.82208e-09
-1.98535e-13
-8.83131e-09
1.04131e-13
-8.76635e-09
2.05734e-14
-8.83256e-09
8.09481e-14
-8.79944e-09
-8.822e-09
-1.97615e-13
-8.83111e-09
1.0421e-13
-8.76666e-09
2.0387e-14
-8.83248e-09
8.05105e-14
-8.7995e-09
-8.82192e-09
-1.96691e-13
-8.83092e-09
1.04283e-13
-8.76696e-09
2.02e-14
-8.83239e-09
8.00711e-14
-8.79956e-09
-8.82183e-09
-1.95765e-13
-8.83072e-09
1.0435e-13
-8.76726e-09
2.00127e-14
-8.83231e-09
7.96299e-14
-8.79962e-09
-8.82176e-09
-1.94836e-13
-8.83053e-09
1.04411e-13
-8.76756e-09
1.98251e-14
-8.83222e-09
7.91869e-14
-8.79968e-09
-8.82168e-09
-1.93903e-13
-8.83033e-09
1.04465e-13
-8.76785e-09
1.96373e-14
-8.83214e-09
7.87422e-14
-8.79974e-09
-8.8216e-09
-1.92967e-13
-8.83014e-09
1.04513e-13
-8.76815e-09
1.94494e-14
-8.83205e-09
7.82958e-14
-8.7998e-09
-8.82152e-09
-1.92028e-13
-8.82995e-09
1.04555e-13
-8.76845e-09
1.92614e-14
-8.83197e-09
7.78476e-14
-8.79985e-09
-8.82144e-09
-1.91087e-13
-8.82976e-09
1.0459e-13
-8.76874e-09
1.90734e-14
-8.83188e-09
7.73978e-14
-8.79991e-09
-8.82136e-09
-1.90142e-13
-8.82957e-09
1.0462e-13
-8.76904e-09
1.88854e-14
-8.8318e-09
7.69464e-14
-8.79997e-09
-8.82129e-09
-1.89195e-13
-8.82938e-09
1.04643e-13
-8.76933e-09
1.86976e-14
-8.83171e-09
7.64933e-14
-8.80003e-09
-8.82121e-09
-1.88244e-13
-8.82919e-09
1.0466e-13
-8.76963e-09
1.85098e-14
-8.83162e-09
7.60386e-14
-8.80009e-09
-8.82113e-09
-1.87291e-13
-8.829e-09
1.0467e-13
-8.76992e-09
1.83222e-14
-8.83154e-09
7.5583e-14
-8.80014e-09
-8.82106e-09
-1.86335e-13
-8.82881e-09
1.04674e-13
-8.77021e-09
1.81347e-14
-8.83145e-09
7.51267e-14
-8.8002e-09
-8.82098e-09
-1.85377e-13
-8.82863e-09
1.04672e-13
-8.7705e-09
1.79475e-14
-8.83136e-09
7.46698e-14
-8.80026e-09
-8.82091e-09
-1.84415e-13
-8.82844e-09
1.04664e-13
-8.77079e-09
1.77605e-14
-8.83128e-09
7.42125e-14
-8.80031e-09
-8.82083e-09
-1.83452e-13
-8.82826e-09
1.04649e-13
-8.77108e-09
1.75738e-14
-8.83119e-09
7.37546e-14
-8.80037e-09
-8.82076e-09
-1.82486e-13
-8.82808e-09
1.04628e-13
-8.77136e-09
1.73873e-14
-8.8311e-09
7.32963e-14
-8.80043e-09
-8.82069e-09
-1.81517e-13
-8.8279e-09
1.04601e-13
-8.77165e-09
1.74512e-14
-8.83102e-09
7.28376e-14
-8.80048e-09
-8.82061e-09
-1.80546e-13
-8.82772e-09
1.04567e-13
-8.77193e-09
1.78977e-14
-8.83093e-09
7.22582e-14
-8.80054e-09
-8.82054e-09
-1.79573e-13
-8.82754e-09
1.04527e-13
-8.77222e-09
1.82847e-14
-8.83084e-09
7.16799e-14
-8.80059e-09
-8.82047e-09
-1.78597e-13
-8.82736e-09
1.04481e-13
-8.7725e-09
1.86178e-14
-8.83076e-09
7.11072e-14
-8.80064e-09
-8.8204e-09
-1.7762e-13
-8.82718e-09
1.04429e-13
-8.77278e-09
1.89018e-14
-8.83067e-09
7.05398e-14
-8.80069e-09
-8.82033e-09
-1.7664e-13
-8.827e-09
1.0437e-13
-8.77306e-09
1.91412e-14
-8.83059e-09
6.99776e-14
-8.80074e-09
-8.82026e-09
-1.75658e-13
-8.82683e-09
1.04304e-13
-8.77334e-09
1.93398e-14
-8.8305e-09
6.94203e-14
-8.80079e-09
-8.82019e-09
-1.74674e-13
-8.82665e-09
1.04233e-13
-8.77362e-09
1.95011e-14
-8.83042e-09
6.8869e-14
-8.80084e-09
-8.82012e-09
-1.73688e-13
-8.82648e-09
1.04155e-13
-8.7739e-09
1.96284e-14
-8.83033e-09
6.83265e-14
-8.80089e-09
-8.82005e-09
-1.727e-13
-8.82631e-09
1.0407e-13
-8.77418e-09
1.97244e-14
-8.83025e-09
6.77922e-14
-8.80094e-09
-8.81998e-09
-1.7171e-13
-8.82614e-09
1.0398e-13
-8.77445e-09
1.97918e-14
-8.83016e-09
6.72655e-14
-8.80099e-09
-8.81992e-09
-1.70718e-13
-8.82596e-09
1.03883e-13
-8.77473e-09
1.98329e-14
-8.83008e-09
6.67458e-14
-8.80103e-09
-8.81985e-09
-1.69725e-13
-8.8258e-09
1.03779e-13
-8.775e-09
1.98499e-14
-8.83e-09
6.62327e-14
-8.80108e-09
-8.81978e-09
-1.6873e-13
-8.82563e-09
1.0367e-13
-8.77527e-09
1.98448e-14
-8.82991e-09
6.57256e-14
-8.80113e-09
-8.81972e-09
-1.67733e-13
-8.82546e-09
1.03554e-13
-8.77554e-09
1.98192e-14
-8.82983e-09
6.52244e-14
-8.80117e-09
-8.81965e-09
-1.66735e-13
-8.82529e-09
1.03431e-13
-8.77582e-09
1.97749e-14
-8.82974e-09
6.47286e-14
-8.80122e-09
-8.81959e-09
-1.65735e-13
-8.82513e-09
1.03302e-13
-8.77608e-09
1.97134e-14
-8.82966e-09
6.42379e-14
-8.80126e-09
-8.81952e-09
-1.64734e-13
-8.82496e-09
1.03167e-13
-8.77635e-09
1.9636e-14
-8.82958e-09
6.37521e-14
-8.80131e-09
-8.81946e-09
-1.63731e-13
-8.8248e-09
1.03026e-13
-8.77662e-09
1.9544e-14
-8.82949e-09
6.32709e-14
-8.80135e-09
-8.8194e-09
-1.62727e-13
-8.82464e-09
1.02878e-13
-8.77688e-09
1.94387e-14
-8.82941e-09
6.27942e-14
-8.80139e-09
-8.81933e-09
-1.61722e-13
-8.82447e-09
1.02724e-13
-8.77715e-09
1.93211e-14
-8.82933e-09
6.23218e-14
-8.80144e-09
-8.81927e-09
-1.60716e-13
-8.82431e-09
1.02563e-13
-8.77741e-09
1.91922e-14
-8.82924e-09
6.18534e-14
-8.80148e-09
-8.81921e-09
-1.59708e-13
-8.82415e-09
1.02397e-13
-8.77767e-09
1.9053e-14
-8.82916e-09
6.13889e-14
-8.80152e-09
-8.81915e-09
-1.58699e-13
-8.82399e-09
1.02224e-13
-8.77794e-09
1.89043e-14
-8.82908e-09
6.09283e-14
-8.80156e-09
-8.81909e-09
-1.57689e-13
-8.82384e-09
1.02044e-13
-8.77819e-09
1.8747e-14
-8.82899e-09
6.04713e-14
-8.8016e-09
-8.81903e-09
-1.56678e-13
-8.82368e-09
1.01859e-13
-8.77845e-09
1.85817e-14
-8.82891e-09
6.00178e-14
-8.80165e-09
-8.81897e-09
-1.55666e-13
-8.82352e-09
1.01667e-13
-8.77871e-09
1.84093e-14
-8.82883e-09
5.95678e-14
-8.80169e-09
-8.81891e-09
-1.54654e-13
-8.82337e-09
1.01469e-13
-8.77897e-09
1.82304e-14
-8.82874e-09
5.91211e-14
-8.80173e-09
-8.81885e-09
-1.5364e-13
-8.82322e-09
1.01265e-13
-8.77922e-09
1.80455e-14
-8.82866e-09
5.86776e-14
-8.80177e-09
-8.81879e-09
-1.52626e-13
-8.82306e-09
1.01054e-13
-8.77948e-09
1.78553e-14
-8.82858e-09
5.82373e-14
-8.80181e-09
-8.81873e-09
-1.51611e-13
-8.82291e-09
1.00838e-13
-8.77973e-09
1.76603e-14
-8.82849e-09
5.78001e-14
-8.80185e-09
-8.81867e-09
-1.50595e-13
-8.82276e-09
1.00615e-13
-8.77998e-09
1.74611e-14
-8.82841e-09
5.73659e-14
-8.80189e-09
-8.81862e-09
-1.49579e-13
-8.82261e-09
1.00386e-13
-8.78023e-09
1.7258e-14
-8.82833e-09
5.69346e-14
-8.80193e-09
-8.81856e-09
-1.48562e-13
-8.82246e-09
1.00151e-13
-8.78048e-09
1.70515e-14
-8.82825e-09
5.65062e-14
-8.80197e-09
-8.8185e-09
-1.47545e-13
-8.82232e-09
9.99093e-14
-8.78073e-09
1.68421e-14
-8.82816e-09
5.60807e-14
-8.80201e-09
-8.81845e-09
-1.46527e-13
-8.82217e-09
9.96619e-14
-8.78097e-09
1.66302e-14
-8.82808e-09
5.56579e-14
-8.80205e-09
-8.81839e-09
-1.45509e-13
-8.82202e-09
9.94083e-14
-8.78122e-09
1.6416e-14
-8.828e-09
5.52379e-14
-8.80208e-09
-8.81834e-09
-1.44491e-13
-8.82188e-09
9.91487e-14
-8.78146e-09
1.62269e-14
-8.82791e-09
5.48205e-14
-8.80212e-09
-8.81828e-09
-1.43473e-13
-8.82174e-09
9.88831e-14
-8.7817e-09
1.60532e-14
-8.82783e-09
5.44057e-14
-8.80216e-09
-8.81823e-09
-1.42454e-13
-8.82159e-09
9.86114e-14
-8.78194e-09
1.58802e-14
-8.82775e-09
5.39936e-14
-8.8022e-09
-8.81817e-09
-1.41435e-13
-8.82145e-09
9.83338e-14
-8.78218e-09
1.57081e-14
-8.82767e-09
5.35841e-14
-8.80224e-09
-8.81812e-09
-1.40416e-13
-8.82131e-09
9.80502e-14
-8.78242e-09
1.55367e-14
-8.82758e-09
5.31771e-14
-8.80228e-09
-8.81807e-09
-1.39398e-13
-8.82117e-09
9.77606e-14
-8.78266e-09
1.53663e-14
-8.8275e-09
5.27726e-14
-8.80231e-09
-8.81801e-09
-1.38379e-13
-8.82103e-09
9.74653e-14
-8.78289e-09
1.51967e-14
-8.82742e-09
5.23707e-14
-8.80235e-09
-8.81796e-09
-1.37361e-13
-8.8209e-09
9.7164e-14
-8.78313e-09
1.5028e-14
-8.82734e-09
5.19712e-14
-8.80239e-09
-8.81791e-09
-1.36342e-13
-8.82076e-09
9.6857e-14
-8.78336e-09
1.48603e-14
-8.82725e-09
5.15742e-14
-8.80242e-09
-8.81786e-09
-1.35324e-13
-8.82062e-09
9.65442e-14
-8.78359e-09
1.46935e-14
-8.82717e-09
5.11796e-14
-8.80246e-09
-8.81781e-09
-1.34306e-13
-8.82049e-09
9.62257e-14
-8.78382e-09
1.45276e-14
-8.82709e-09
5.07875e-14
-8.8025e-09
-8.81776e-09
-1.33289e-13
-8.82036e-09
9.59014e-14
-8.78405e-09
1.43628e-14
-8.82701e-09
5.03977e-14
-8.80253e-09
-8.81771e-09
-1.32272e-13
-8.82022e-09
9.55716e-14
-8.78428e-09
1.41989e-14
-8.82693e-09
5.00104e-14
-8.80257e-09
-8.81766e-09
-1.31256e-13
-8.82009e-09
9.52361e-14
-8.78451e-09
1.40361e-14
-8.82685e-09
4.96255e-14
-8.8026e-09
-8.81761e-09
-1.3024e-13
-8.81996e-09
9.4895e-14
-8.78473e-09
1.38743e-14
-8.82677e-09
4.92429e-14
-8.80264e-09
-8.81756e-09
-1.29225e-13
-8.81983e-09
9.45484e-14
-8.78496e-09
1.37134e-14
-8.82668e-09
4.88626e-14
-8.80267e-09
-8.81751e-09
-1.2821e-13
-8.81971e-09
9.41964e-14
-8.78518e-09
1.35537e-14
-8.8266e-09
4.84847e-14
-8.80271e-09
-8.81746e-09
-1.27197e-13
-8.81958e-09
9.38388e-14
-8.7854e-09
1.33949e-14
-8.82652e-09
4.81091e-14
-8.80274e-09
-8.81741e-09
-1.26184e-13
-8.81945e-09
9.34759e-14
-8.78562e-09
1.32372e-14
-8.82644e-09
4.77359e-14
-8.80278e-09
-8.81736e-09
-1.25172e-13
-8.81933e-09
9.31076e-14
-8.78584e-09
1.30805e-14
-8.82636e-09
4.73649e-14
-8.80281e-09
-8.81732e-09
-1.24161e-13
-8.8192e-09
9.2734e-14
-8.78606e-09
1.29249e-14
-8.82628e-09
4.69962e-14
-8.80285e-09
-8.81727e-09
-1.23151e-13
-8.81908e-09
9.23551e-14
-8.78627e-09
1.27703e-14
-8.8262e-09
4.66298e-14
-8.80288e-09
-8.81722e-09
-1.22142e-13
-8.81896e-09
9.1971e-14
-8.78649e-09
1.26189e-14
-8.82612e-09
4.62657e-14
-8.80291e-09
-8.81718e-09
-1.21134e-13
-8.81884e-09
9.15817e-14
-8.7867e-09
1.24748e-14
-8.82605e-09
4.59038e-14
-8.80295e-09
-8.81713e-09
-1.20127e-13
-8.81872e-09
9.11872e-14
-8.78691e-09
1.23277e-14
-8.82597e-09
4.55442e-14
-8.80298e-09
-8.81709e-09
-1.19122e-13
-8.8186e-09
9.07877e-14
-8.78712e-09
1.21788e-14
-8.82589e-09
4.51868e-14
-8.80301e-09
-8.81704e-09
-1.18117e-13
-8.81848e-09
9.03831e-14
-8.78733e-09
1.2029e-14
-8.82581e-09
4.48316e-14
-8.80305e-09
-8.81699e-09
-1.17115e-13
-8.81836e-09
8.99735e-14
-8.78753e-09
1.1879e-14
-8.82573e-09
4.44787e-14
-8.80308e-09
-8.81695e-09
-1.16113e-13
-8.81825e-09
8.9559e-14
-8.78774e-09
1.17293e-14
-8.82565e-09
4.41279e-14
-8.80311e-09
-8.81691e-09
-1.15113e-13
-8.81813e-09
8.91396e-14
-8.78794e-09
1.15802e-14
-8.82558e-09
4.37793e-14
-8.80314e-09
-8.81686e-09
-1.14115e-13
-8.81802e-09
8.87154e-14
-8.78815e-09
1.14322e-14
-8.8255e-09
4.34329e-14
-8.80318e-09
-8.81682e-09
-1.13118e-13
-8.8179e-09
8.82863e-14
-8.78835e-09
1.12853e-14
-8.82542e-09
4.30887e-14
-8.80321e-09
-8.81678e-09
-1.12123e-13
-8.81779e-09
8.78525e-14
-8.78855e-09
1.11399e-14
-8.82534e-09
4.27466e-14
-8.80324e-09
-8.81673e-09
-1.11129e-13
-8.81768e-09
8.7414e-14
-8.78875e-09
1.0996e-14
-8.82527e-09
4.24066e-14
-8.80327e-09
-8.81669e-09
-1.10138e-13
-8.81757e-09
8.69709e-14
-8.78894e-09
1.0854e-14
-8.82519e-09
4.20688e-14
-8.8033e-09
-8.81665e-09
-1.09148e-13
-8.81746e-09
8.65232e-14
-8.78914e-09
1.07138e-14
-8.82512e-09
4.17331e-14
-8.80333e-09
-8.81661e-09
-1.0816e-13
-8.81735e-09
8.60709e-14
-8.78933e-09
1.05753e-14
-8.82504e-09
4.14e-14
-8.80336e-09
-8.81657e-09
-1.07174e-13
-8.81725e-09
8.56142e-14
-8.78953e-09
1.04384e-14
-8.82497e-09
4.1069e-14
-8.80339e-09
-8.81652e-09
-1.06189e-13
-8.81714e-09
8.5153e-14
-8.78972e-09
1.0303e-14
-8.82489e-09
4.07401e-14
-8.80342e-09
-8.81648e-09
-1.05207e-13
-8.81703e-09
8.46875e-14
-8.78991e-09
1.01689e-14
-8.82482e-09
4.04133e-14
-8.80346e-09
-8.81644e-09
-1.04227e-13
-8.81693e-09
8.42176e-14
-8.7901e-09
1.00362e-14
-8.82474e-09
4.00885e-14
-8.80349e-09
-8.8164e-09
-1.03249e-13
-8.81683e-09
8.37435e-14
-8.79028e-09
9.90457e-15
-8.82467e-09
3.97659e-14
-8.80352e-09
-8.81636e-09
-1.02274e-13
-8.81672e-09
8.32652e-14
-8.79047e-09
9.77405e-15
-8.82459e-09
3.94453e-14
-8.80354e-09
-8.81632e-09
-1.013e-13
-8.81662e-09
8.27828e-14
-8.79065e-09
9.64453e-15
-8.82452e-09
3.91267e-14
-8.80357e-09
-8.81629e-09
-1.00329e-13
-8.81652e-09
8.22962e-14
-8.79084e-09
9.51594e-15
-8.82445e-09
3.88101e-14
-8.8036e-09
-8.81625e-09
-9.93598e-14
-8.81642e-09
8.18057e-14
-8.79102e-09
9.3882e-15
-8.82438e-09
3.84956e-14
-8.80363e-09
-8.81621e-09
-9.83932e-14
-8.81633e-09
8.13111e-14
-8.7912e-09
9.26124e-15
-8.8243e-09
3.8183e-14
-8.80366e-09
-8.81617e-09
-9.74291e-14
-8.81623e-09
8.08127e-14
-8.79138e-09
9.135e-15
-8.82423e-09
3.78724e-14
-8.80369e-09
-8.81613e-09
-9.64674e-14
-8.81613e-09
8.03104e-14
-8.79155e-09
9.00941e-15
-8.82416e-09
3.75638e-14
-8.80372e-09
-8.81609e-09
-9.55082e-14
-8.81604e-09
7.98044e-14
-8.79173e-09
8.88441e-15
-8.82409e-09
3.72571e-14
-8.80375e-09
-8.81606e-09
-9.45516e-14
-8.81594e-09
7.92946e-14
-8.7919e-09
8.75994e-15
-8.82402e-09
3.69523e-14
-8.80378e-09
-8.81602e-09
-9.35976e-14
-8.81585e-09
7.87811e-14
-8.79207e-09
8.63595e-15
-8.82395e-09
3.66494e-14
-8.8038e-09
-8.81598e-09
-9.26462e-14
-8.81575e-09
7.8264e-14
-8.79224e-09
8.51238e-15
-8.82388e-09
3.63483e-14
-8.80383e-09
-8.81595e-09
-9.16975e-14
-8.81566e-09
7.77434e-14
-8.79241e-09
8.38918e-15
-8.82381e-09
3.60492e-14
-8.80386e-09
-8.81591e-09
-9.07515e-14
-8.81557e-09
7.72193e-14
-8.79258e-09
8.26629e-15
-8.82374e-09
3.57518e-14
-8.80389e-09
-8.81588e-09
-8.98082e-14
-8.81548e-09
7.66918e-14
-8.79275e-09
8.14367e-15
-8.82367e-09
3.54563e-14
-8.80391e-09
-8.81584e-09
-8.88678e-14
-8.81539e-09
7.61609e-14
-8.79291e-09
8.02126e-15
-8.82361e-09
3.51626e-14
-8.80394e-09
-8.8158e-09
-8.79301e-14
-8.81531e-09
7.56267e-14
-8.79308e-09
7.89902e-15
-8.82354e-09
3.48706e-14
-8.80397e-09
-8.81577e-09
-8.69953e-14
-8.81522e-09
7.50892e-14
-8.79324e-09
7.7769e-15
-8.82347e-09
3.45803e-14
-8.80399e-09
-8.81574e-09
-8.63048e-14
-8.81513e-09
7.45486e-14
-8.7934e-09
7.65485e-15
-8.8234e-09
3.42918e-14
-8.80402e-09
-8.8157e-09
-8.59987e-14
-8.81505e-09
7.40049e-14
-8.79356e-09
7.53282e-15
-8.82334e-09
3.40049e-14
-8.80405e-09
-8.81567e-09
-8.56525e-14
-8.81496e-09
7.34582e-14
-8.79372e-09
7.41467e-15
-8.82327e-09
3.37197e-14
-8.80407e-09
-8.81563e-09
-8.52691e-14
-8.81488e-09
7.29086e-14
-8.79388e-09
7.30072e-15
-8.82321e-09
3.34362e-14
-8.8041e-09
-8.8156e-09
-8.48509e-14
-8.81479e-09
7.23562e-14
-8.79403e-09
7.18773e-15
-8.82314e-09
3.31542e-14
-8.80413e-09
-8.81557e-09
-8.44004e-14
-8.81471e-09
7.18011e-14
-8.79419e-09
7.0757e-15
-8.82308e-09
3.28738e-14
-8.80415e-09
-8.81553e-09
-8.39199e-14
-8.81462e-09
7.12434e-14
-8.79435e-09
6.96463e-15
-8.82301e-09
3.25949e-14
-8.80418e-09
-8.8155e-09
-8.34113e-14
-8.81454e-09
7.06833e-14
-8.7945e-09
6.85452e-15
-8.82295e-09
3.23176e-14
-8.8042e-09
-8.81547e-09
-8.28767e-14
-8.81446e-09
7.01207e-14
-8.79465e-09
6.74537e-15
-8.82288e-09
3.20417e-14
-8.80423e-09
-8.81544e-09
-8.23178e-14
-8.81437e-09
6.95558e-14
-8.7948e-09
6.63717e-15
-8.82282e-09
3.17673e-14
-8.80425e-09
-8.8154e-09
-8.17363e-14
-8.81429e-09
6.89887e-14
-8.79496e-09
6.52994e-15
-8.82276e-09
3.14943e-14
-8.80428e-09
-8.81537e-09
-8.11338e-14
-8.81421e-09
6.84195e-14
-8.7951e-09
6.42366e-15
-8.8227e-09
3.12226e-14
-8.8043e-09
-8.81534e-09
-8.05119e-14
-8.81413e-09
6.78483e-14
-8.79525e-09
6.31833e-15
-8.82263e-09
3.09523e-14
-8.80433e-09
-8.81531e-09
-7.98718e-14
-8.81405e-09
6.72751e-14
-8.7954e-09
6.21396e-15
-8.82257e-09
3.06834e-14
-8.80435e-09
-8.81528e-09
-7.92149e-14
-8.81397e-09
6.67001e-14
-8.79555e-09
6.11054e-15
-8.82251e-09
3.04157e-14
-8.80438e-09
-8.81525e-09
-7.85424e-14
-8.81389e-09
6.61234e-14
-8.79569e-09
6.00806e-15
-8.82245e-09
3.01493e-14
-8.8044e-09
-8.81522e-09
-7.78555e-14
-8.81381e-09
6.5545e-14
-8.79583e-09
5.90653e-15
-8.82239e-09
2.9884e-14
-8.80442e-09
-8.81519e-09
-7.71553e-14
-8.81374e-09
6.4965e-14
-8.79598e-09
5.80595e-15
-8.82233e-09
2.962e-14
-8.80445e-09
-8.81516e-09
-7.64427e-14
-8.81366e-09
6.43835e-14
-8.79612e-09
5.7063e-15
-8.82228e-09
2.9357e-14
-8.80447e-09
-8.81513e-09
-7.57188e-14
-8.81359e-09
6.38006e-14
-8.79626e-09
5.60759e-15
-8.82222e-09
2.90952e-14
-8.8045e-09
-8.8151e-09
-7.49845e-14
-8.81351e-09
6.32164e-14
-8.7964e-09
5.50981e-15
-8.82216e-09
2.88344e-14
-8.80452e-09
-8.81507e-09
-7.42406e-14
-8.81344e-09
6.2631e-14
-8.79653e-09
5.41296e-15
-8.8221e-09
2.85746e-14
-8.80454e-09
-8.81504e-09
-7.34879e-14
-8.81336e-09
6.20444e-14
-8.79667e-09
5.31703e-15
-8.82205e-09
2.83157e-14
-8.80457e-09
-8.81502e-09
-7.27272e-14
-8.81329e-09
6.14568e-14
-8.7968e-09
5.22202e-15
-8.82199e-09
2.80578e-14
-8.80459e-09
-8.81499e-09
-7.19592e-14
-8.81322e-09
6.08682e-14
-8.79693e-09
5.12793e-15
-8.82193e-09
2.78008e-14
-8.80461e-09
-8.81496e-09
-7.11846e-14
-8.81315e-09
6.02786e-14
-8.79707e-09
5.03475e-15
-8.82188e-09
2.75446e-14
-8.80463e-09
-8.81493e-09
-7.0404e-14
-8.81308e-09
5.96883e-14
-8.7972e-09
4.94247e-15
-8.82182e-09
2.72892e-14
-8.80466e-09
-8.81491e-09
-6.9618e-14
-8.81301e-09
5.90972e-14
-8.79732e-09
4.85108e-15
-8.82177e-09
2.70345e-14
-8.80468e-09
-8.81488e-09
-6.88273e-14
-8.81294e-09
5.85055e-14
-8.79745e-09
4.76059e-15
-8.82172e-09
2.67805e-14
-8.8047e-09
-8.81485e-09
-6.80323e-14
-8.81287e-09
5.79132e-14
-8.79758e-09
4.67098e-15
-8.82166e-09
2.65271e-14
-8.80472e-09
-8.81483e-09
-6.72335e-14
-8.8128e-09
5.73203e-14
-8.7977e-09
4.58225e-15
-8.82161e-09
2.62743e-14
-8.80474e-09
-8.8148e-09
-6.64315e-14
-8.81274e-09
5.67271e-14
-8.79783e-09
4.49439e-15
-8.82156e-09
2.60221e-14
-8.80476e-09
-8.81477e-09
-6.56266e-14
-8.81267e-09
5.61335e-14
-8.79795e-09
4.40738e-15
-8.82151e-09
2.57703e-14
-8.80479e-09
-8.81475e-09
-6.48194e-14
-8.81261e-09
5.55396e-14
-8.79807e-09
4.32122e-15
-8.82145e-09
2.5519e-14
-8.80481e-09
-8.81472e-09
-6.40102e-14
-8.81254e-09
5.49455e-14
-8.79819e-09
4.2359e-15
-8.8214e-09
2.52681e-14
-8.80483e-09
-8.8147e-09
-6.31994e-14
-8.81248e-09
5.43513e-14
-8.7983e-09
4.15141e-15
-8.82135e-09
2.50175e-14
-8.80485e-09
-8.81467e-09
-6.23874e-14
-8.81242e-09
5.3757e-14
-8.79842e-09
4.06774e-15
-8.8213e-09
2.47671e-14
-8.80487e-09
-8.81465e-09
-6.15744e-14
-8.81235e-09
5.31627e-14
-8.79854e-09
3.98487e-15
-8.82125e-09
2.4517e-14
-8.80489e-09
-8.81462e-09
-6.07609e-14
-8.81229e-09
5.25685e-14
-8.79865e-09
3.9028e-15
-8.82121e-09
2.4267e-14
-8.80491e-09
-8.8146e-09
-5.99471e-14
-8.81223e-09
5.19745e-14
-8.79876e-09
3.8215e-15
-8.82116e-09
2.40171e-14
-8.80493e-09
-8.81457e-09
-5.91333e-14
-8.81218e-09
5.13807e-14
-8.79887e-09
3.74097e-15
-8.82111e-09
2.37672e-14
-8.80495e-09
-8.81455e-09
-5.83198e-14
-8.81212e-09
5.07872e-14
-8.79898e-09
3.6612e-15
-8.82106e-09
2.35173e-14
-8.80497e-09
-8.81453e-09
-5.75068e-14
-8.81206e-09
5.0194e-14
-8.79909e-09
3.58215e-15
-8.82102e-09
2.32673e-14
-8.80499e-09
-8.8145e-09
-5.66945e-14
-8.812e-09
4.96013e-14
-8.79919e-09
3.50383e-15
-8.82097e-09
2.30171e-14
-8.80501e-09
-8.81448e-09
-5.58832e-14
-8.81195e-09
4.9009e-14
-8.7993e-09
3.42621e-15
-8.82093e-09
2.27667e-14
-8.80503e-09
-8.81446e-09
-5.5073e-14
-8.81189e-09
4.84173e-14
-8.7994e-09
3.34928e-15
-8.82088e-09
2.2516e-14
-8.80505e-09
-8.81443e-09
-5.42641e-14
-8.81184e-09
4.78262e-14
-8.7995e-09
3.27301e-15
-8.82084e-09
2.2265e-14
-8.80507e-09
-8.81441e-09
-5.34567e-14
-8.81178e-09
4.72358e-14
-8.79961e-09
3.1974e-15
-8.82079e-09
2.20135e-14
-8.80509e-09
-8.81439e-09
-5.2651e-14
-8.81173e-09
4.66462e-14
-8.7997e-09
3.12241e-15
-8.82075e-09
2.17615e-14
-8.80511e-09
-8.81437e-09
-5.18471e-14
-8.81168e-09
4.60573e-14
-8.7998e-09
3.04802e-15
-8.8207e-09
2.15089e-14
-8.80512e-09
-8.81435e-09
-5.10452e-14
-8.81163e-09
4.54693e-14
-8.7999e-09
2.97422e-15
-8.82066e-09
2.12557e-14
-8.80514e-09
-8.81433e-09
-5.02452e-14
-8.81158e-09
4.48821e-14
-8.79999e-09
2.90098e-15
-8.82062e-09
2.10017e-14
-8.80516e-09
-8.81431e-09
-4.94475e-14
-8.81153e-09
4.4296e-14
-8.80009e-09
2.82828e-15
-8.82058e-09
2.0747e-14
-8.80518e-09
-8.81428e-09
-4.86519e-14
-8.81148e-09
4.37109e-14
-8.80018e-09
2.75609e-15
-8.82054e-09
2.04913e-14
-8.8052e-09
-8.81426e-09
-4.78587e-14
-8.81143e-09
4.31268e-14
-8.80027e-09
2.68438e-15
-8.8205e-09
2.02347e-14
-8.80521e-09
-8.81424e-09
-4.70679e-14
-8.81139e-09
4.25439e-14
-8.80036e-09
2.61313e-15
-8.82046e-09
1.99771e-14
-8.80523e-09
-8.81422e-09
-4.62795e-14
-8.81134e-09
4.19622e-14
-8.80045e-09
2.5423e-15
-8.82042e-09
1.97183e-14
-8.80525e-09
-8.8142e-09
-4.54936e-14
-8.81129e-09
4.13817e-14
-8.80054e-09
2.47187e-15
-8.82038e-09
1.94582e-14
-8.80526e-09
-8.81418e-09
-4.47102e-14
-8.81125e-09
4.08025e-14
-8.80062e-09
2.40179e-15
-8.82034e-09
1.91969e-14
-8.80528e-09
-8.81417e-09
-4.39293e-14
-8.8112e-09
4.02246e-14
-8.80071e-09
2.33203e-15
-8.8203e-09
1.89341e-14
-8.8053e-09
-8.81415e-09
-4.3151e-14
-8.81116e-09
3.96481e-14
-8.80079e-09
2.26255e-15
-8.82027e-09
1.86698e-14
-8.80531e-09
-8.81413e-09
-4.23752e-14
-8.81112e-09
3.90731e-14
-8.80087e-09
2.1933e-15
-8.82023e-09
1.84039e-14
-8.80533e-09
-8.81411e-09
-4.16019e-14
-8.81108e-09
3.84995e-14
-8.80095e-09
2.12425e-15
-8.82019e-09
1.81363e-14
-8.80535e-09
-8.81409e-09
-4.08311e-14
-8.81104e-09
3.79276e-14
-8.80103e-09
2.05534e-15
-8.82016e-09
1.78668e-14
-8.80536e-09
-8.81407e-09
-4.00627e-14
-8.811e-09
3.73572e-14
-8.80111e-09
1.9865e-15
-8.82012e-09
1.75953e-14
-8.80538e-09
-8.81406e-09
-3.92967e-14
-8.81096e-09
3.67885e-14
-8.80118e-09
1.91769e-15
-8.82009e-09
1.73217e-14
-8.80539e-09
-8.81404e-09
-3.8533e-14
-8.81092e-09
3.62216e-14
-8.80126e-09
1.84884e-15
-8.82005e-09
1.70459e-14
-8.80541e-09
-8.81402e-09
-3.77714e-14
-8.81088e-09
3.56564e-14
-8.80133e-09
1.77987e-15
-8.82002e-09
1.67676e-14
-8.80542e-09
-8.814e-09
-3.70119e-14
-8.81084e-09
3.50931e-14
-8.8014e-09
1.7107e-15
-8.81998e-09
1.64868e-14
-8.80544e-09
-8.81399e-09
-3.62543e-14
-8.81081e-09
3.45318e-14
-8.80147e-09
1.64125e-15
-8.81995e-09
1.62033e-14
-8.80545e-09
-8.81397e-09
-3.54985e-14
-8.81077e-09
3.39725e-14
-8.80154e-09
1.57141e-15
-8.81992e-09
1.59168e-14
-8.80547e-09
-8.81396e-09
-3.47442e-14
-8.81074e-09
3.34153e-14
-8.80161e-09
1.50108e-15
-8.81989e-09
1.56273e-14
-8.80548e-09
-8.81394e-09
-3.39914e-14
-8.8107e-09
3.28604e-14
-8.80168e-09
1.43015e-15
-8.81986e-09
1.53344e-14
-8.8055e-09
-8.81393e-09
-3.32397e-14
-8.81067e-09
3.23078e-14
-8.80174e-09
1.35852e-15
-8.81982e-09
1.50379e-14
-8.80551e-09
-8.81391e-09
-3.24889e-14
-8.81064e-09
3.17575e-14
-8.80181e-09
1.28613e-15
-8.81979e-09
1.47377e-14
-8.80552e-09
-8.8139e-09
-3.17387e-14
-8.81061e-09
3.12099e-14
-8.80187e-09
1.21284e-15
-8.81976e-09
1.44334e-14
-8.80554e-09
-8.81388e-09
-3.09889e-14
-8.81058e-09
3.06649e-14
-8.80193e-09
1.13846e-15
-8.81973e-09
1.41248e-14
-8.80555e-09
-8.81387e-09
-3.02391e-14
-8.81054e-09
3.01227e-14
-8.80199e-09
1.06282e-15
-8.81971e-09
1.38116e-14
-8.80556e-09
-8.81385e-09
-2.94889e-14
-8.81052e-09
2.95835e-14
-8.80205e-09
9.85719e-16
-8.81968e-09
1.34934e-14
-8.80557e-09
-8.81384e-09
-2.8738e-14
-8.81049e-09
2.90475e-14
-8.80211e-09
9.06958e-16
-8.81965e-09
1.317e-14
-8.80559e-09
-8.81383e-09
-2.7986e-14
-8.81046e-09
2.85146e-14
-8.80217e-09
8.26322e-16
-8.81962e-09
1.2841e-14
-8.8056e-09
-8.81381e-09
-2.72325e-14
-8.81043e-09
2.79853e-14
-8.80222e-09
7.43592e-16
-8.81959e-09
1.25061e-14
-8.80561e-09
-8.8138e-09
-2.64771e-14
-8.8104e-09
2.74595e-14
-8.80227e-09
6.58542e-16
-8.81957e-09
1.21649e-14
-8.80562e-09
-8.81379e-09
-2.57193e-14
-8.81038e-09
2.69375e-14
-8.80233e-09
5.70943e-16
-8.81954e-09
1.18171e-14
-8.80563e-09
-8.81378e-09
-2.49586e-14
-8.81035e-09
2.64194e-14
-8.80238e-09
4.80565e-16
-8.81952e-09