/*--------------------------------*- C++ -*----------------------------------*\
| =========                 |                                                 |
| \\      /  F ield         | OpenFOAM: The Open Source CFD Toolbox           |
|  \\    /   O peration     | Version:  2.4.0                                 |
|   \\  /    A nd           | Web:      www.OpenFOAM.org                      |
|    \\/     M anipulation  |                                                 |
\*---------------------------------------------------------------------------*/
FoamFile
{
    version     2.0;
    format      ascii;
    class       volVectorField;
    location    "0.002";
    object      U;
}
// * * * * * * * * * * * * * * * * * * * * * * * * * * * * * * * * * * * * * //

dimensions      [0 1 -1 0 0 0 0];

internalField   nonuniform List<vector> 
1500
(
(0.00172256 0.00186971 0)
(0.00553803 0.00204787 0)
(0.00229941 0.00188397 0)
(-0.004847 0.00182427 0)
(-0.00333869 0.00179368 0)
(0.000787693 -0.00639132 0)
(0.00230108 -0.00621328 0)
(0.00154279 -0.00646991 0)
(0.00151177 -0.00635589 0)
(0.00147029 -0.00638308 0)
(0.00060602 -0.0474539 0)
(0.00187443 -0.046849 0)
(0.00133566 -0.0472378 0)
(0.00187989 -0.0471698 0)
(0.00179834 -0.0473604 0)
(0.000304578 -0.0593913 0)
(0.00154758 -0.0589282 0)
(0.000749104 -0.0596274 0)
(0.000290307 -0.0590961 0)
(0.000774195 -0.0593406 0)
(0.000450112 -0.0459133 0)
(0.00130349 -0.0454821 0)
(1.29628e-05 -0.0459361 0)
(-0.000419489 -0.0456773 0)
(0.000415335 -0.0458422 0)
(0.000513666 -0.0434958 0)
(0.00100131 -0.0430599 0)
(-0.000409248 -0.0434788 0)
(-0.000592379 -0.0432605 0)
(0.000301211 -0.0434185 0)
(0.000491527 -0.0437327 0)
(0.000709383 -0.0432903 0)
(-0.000587836 -0.0437127 0)
(-0.000545692 -0.043496 0)
(0.000257835 -0.0436539 0)
(0.000421212 -0.0441393 0)
(0.00046807 -0.0436949 0)
(-0.000630576 -0.0441214 0)
(-0.000448853 -0.0439023 0)
(0.000227097 -0.0440601 0)
(0.000325953 -0.0442372 0)
(0.000285193 -0.0437908 0)
(-0.000601121 -0.0442175 0)
(-0.000358818 -0.0440012 0)
(0.000200561 -0.0441574 0)
(0.000223205 -0.0442257 0)
(0.000157096 -0.043778 0)
(-0.000534371 -0.0442039 0)
(-0.000289149 -0.0439914 0)
(0.000178517 -0.0441458 0)
(0.000125277 -0.0442108 0)
(7.4355e-05 -0.0437625 0)
(-0.00045089 -0.0441877 0)
(-0.000238169 -0.0439783 0)
(0.000161484 -0.044131 0)
(3.94416e-05 -0.0442068 0)
(2.54572e-05 -0.0437588 0)
(-0.000363749 -0.0441833 0)
(-0.000200508 -0.0439763 0)
(0.000149123 -0.0441275 0)
(-3.11712e-05 -0.0442066 0)
(-4.56883e-07 -0.0437594 0)
(-0.000281139 -0.044183 0)
(-0.000171226 -0.0439781 0)
(0.000140594 -0.0441279 0)
(-8.63132e-05 -0.0442064 0)
(-1.2111e-05 -0.0437604 0)
(-0.000207637 -0.0441829 0)
(-0.000146928 -0.0439797 0)
(0.00013492 -0.0441284 0)
(-0.000127431 -0.0442056 0)
(-1.57328e-05 -0.0437613 0)
(-0.000145183 -0.0441825 0)
(-0.000125706 -0.0439807 0)
(0.000131189 -0.0441284 0)
(-0.000156752 -0.0442046 0)
(-1.53593e-05 -0.0437623 0)
(-9.39523e-05 -0.0441819 0)
(-0.00010669 -0.0439815 0)
(0.00012865 -0.0441282 0)
(-0.000176679 -0.0442035 0)
(-1.33897e-05 -0.0437635 0)
(-5.3081e-05 -0.0441813 0)
(-8.95902e-05 -0.0439821 0)
(0.000126745 -0.044128 0)
(-0.000189445 -0.0442024 0)
(-1.11265e-05 -0.0437648 0)
(-2.12093e-05 -0.0441807 0)
(-7.43544e-05 -0.0439827 0)
(0.000125103 -0.0441277 0)
(-0.000196953 -0.0442012 0)
(-9.19762e-06 -0.0437663 0)
(3.16822e-06 -0.0441802 0)
(-6.09674e-05 -0.0439832 0)
(0.000123513 -0.0441274 0)
(-0.000200732 -0.0442001 0)
(-7.84422e-06 -0.0437678 0)
(2.14972e-05 -0.0441797 0)
(-4.93676e-05 -0.0439836 0)
(0.000121884 -0.0441271 0)
(-0.000201964 -0.044199 0)
(-7.09953e-06 -0.0437693 0)
(3.50628e-05 -0.0441792 0)
(-3.94316e-05 -0.043984 0)
(0.0001202 -0.0441268 0)
(-0.000201525 -0.0441978 0)
(-6.89424e-06 -0.0437709 0)
(4.49518e-05 -0.0441787 0)
(-3.09915e-05 -0.0439845 0)
(0.000118491 -0.0441264 0)
(-0.000200049 -0.0441967 0)
(-7.11598e-06 -0.0437725 0)
(5.20518e-05 -0.0441782 0)
(-2.38607e-05 -0.0439849 0)
(0.0001168 -0.044126 0)
(-0.000197975 -0.0441956 0)
(-7.6422e-06 -0.0437741 0)
(5.70681e-05 -0.0441777 0)
(-1.78546e-05 -0.0439853 0)
(0.00011517 -0.0441256 0)
(-0.000195602 -0.0441944 0)
(-8.35767e-06 -0.0437758 0)
(6.05489e-05 -0.0441772 0)
(-1.28048e-05 -0.0439857 0)
(0.000113634 -0.0441252 0)
(-0.000193121 -0.0441933 0)
(-9.16313e-06 -0.0437774 0)
(6.29115e-05 -0.0441768 0)
(-8.56496e-06 -0.043986 0)
(0.00011221 -0.0441248 0)
(-0.00019065 -0.0441922 0)
(-9.97872e-06 -0.043779 0)
(6.44681e-05 -0.0441763 0)
(-5.01201e-06 -0.0439864 0)
(0.000110907 -0.0441244 0)
(-0.000188254 -0.044191 0)
(-1.07443e-05 -0.0437807 0)
(6.54487e-05 -0.0441759 0)
(-2.04418e-06 -0.0439867 0)
(0.000109723 -0.044124 0)
(-0.000185966 -0.0441899 0)
(-1.14177e-05 -0.0437823 0)
(6.602e-05 -0.0441755 0)
(4.22363e-07 -0.0439871 0)
(0.000108648 -0.0441235 0)
(-0.000183797 -0.0441888 0)
(-1.19724e-05 -0.0437839 0)
(6.63013e-05 -0.044175 0)
(2.45706e-06 -0.0439874 0)
(0.000107672 -0.0441231 0)
(-0.000181746 -0.0441877 0)
(-1.23947e-05 -0.0437855 0)
(6.63771e-05 -0.0441746 0)
(4.11816e-06 -0.0439878 0)
(0.000106778 -0.0441227 0)
(-0.000179805 -0.0441866 0)
(-1.26806e-05 -0.0437871 0)
(6.63072e-05 -0.0441742 0)
(5.45534e-06 -0.0439881 0)
(0.000105954 -0.0441222 0)
(-0.000177961 -0.0441855 0)
(-1.28333e-05 -0.0437888 0)
(6.6133e-05 -0.0441738 0)
(6.51164e-06 -0.0439884 0)
(0.000105186 -0.0441218 0)
(-0.000176204 -0.0441844 0)
(-1.28612e-05 -0.0437904 0)
(6.5884e-05 -0.0441734 0)
(7.32485e-06 -0.0439888 0)
(0.000104462 -0.0441213 0)
(-0.000174521 -0.0441833 0)
(-1.27757e-05 -0.043792 0)
(6.55808e-05 -0.044173 0)
(7.92848e-06 -0.0439891 0)
(0.000103771 -0.0441209 0)
(-0.000172903 -0.0441822 0)
(-1.25899e-05 -0.0437936 0)
(6.52378e-05 -0.0441726 0)
(8.35234e-06 -0.0439894 0)
(0.000103105 -0.0441205 0)
(-0.000171339 -0.0441811 0)
(-1.23175e-05 -0.0437952 0)
(6.48658e-05 -0.0441722 0)
(8.623e-06 -0.0439898 0)
(0.000102458 -0.04412 0)
(-0.000169822 -0.04418 0)
(-1.1972e-05 -0.0437968 0)
(6.44722e-05 -0.0441719 0)
(8.76402e-06 -0.0439901 0)
(0.000101823 -0.0441196 0)
(-0.000168345 -0.0441789 0)
(-1.1566e-05 -0.0437984 0)
(6.40629e-05 -0.0441715 0)
(8.79619e-06 -0.0439904 0)
(0.000101197 -0.0441191 0)
(-0.000166903 -0.0441778 0)
(-1.11111e-05 -0.0438 0)
(6.36419e-05 -0.0441711 0)
(8.73771e-06 -0.0439908 0)
(0.000100575 -0.0441187 0)
(-0.000165491 -0.0441767 0)
(-1.06177e-05 -0.0438016 0)
(6.32125e-05 -0.0441707 0)
(8.60439e-06 -0.0439911 0)
(9.99567e-05 -0.0441182 0)
(-0.000164105 -0.0441756 0)
(-1.00945e-05 -0.0438031 0)
(6.2777e-05 -0.0441703 0)
(8.40982e-06 -0.0439914 0)
(9.93392e-05 -0.0441178 0)
(-0.000162742 -0.0441746 0)
(-9.54918e-06 -0.0438047 0)
(6.23374e-05 -0.0441699 0)
(8.16562e-06 -0.0439917 0)
(9.87216e-05 -0.0441174 0)
(-0.000161399 -0.0441735 0)
(-8.98796e-06 -0.0438063 0)
(6.18948e-05 -0.0441695 0)
(7.88157e-06 -0.0439921 0)
(9.81033e-05 -0.0441169 0)
(-0.000160074 -0.0441724 0)
(-8.41597e-06 -0.0438079 0)
(6.14505e-05 -0.0441691 0)
(7.56592e-06 -0.0439924 0)
(9.74841e-05 -0.0441165 0)
(-0.000158765 -0.0441714 0)
(-7.8373e-06 -0.0438094 0)
(6.10051e-05 -0.0441687 0)
(7.22548e-06 -0.0439927 0)
(9.68638e-05 -0.0441161 0)
(-0.00015747 -0.0441703 0)
(-7.25519e-06 -0.043811 0)
(6.05592e-05 -0.0441683 0)
(6.86591e-06 -0.043993 0)
(9.62427e-05 -0.0441156 0)
(-0.000156188 -0.0441693 0)
(-6.67213e-06 -0.0438126 0)
(6.01133e-05 -0.0441679 0)
(6.49183e-06 -0.0439933 0)
(9.5621e-05 -0.0441152 0)
(-0.000154917 -0.0441682 0)
(-6.09001e-06 -0.0438141 0)
(5.96676e-05 -0.0441675 0)
(6.10701e-06 -0.0439936 0)
(9.49991e-05 -0.0441148 0)
(-0.000153658 -0.0441672 0)
(-5.51024e-06 -0.0438157 0)
(5.92223e-05 -0.0441671 0)
(5.71452e-06 -0.043994 0)
(9.43772e-05 -0.0441143 0)
(-0.000152407 -0.0441662 0)
(-4.93384e-06 -0.0438172 0)
(5.87777e-05 -0.0441667 0)
(5.31683e-06 -0.0439943 0)
(9.37559e-05 -0.0441139 0)
(-0.000151166 -0.0441651 0)
(-4.36155e-06 -0.0438188 0)
(5.83338e-05 -0.0441663 0)
(4.91591e-06 -0.0439946 0)
(9.31354e-05 -0.0441135 0)
(-0.000149933 -0.0441641 0)
(-3.79388e-06 -0.0438203 0)
(5.78908e-05 -0.0441659 0)
(4.51337e-06 -0.0439949 0)
(9.25161e-05 -0.0441131 0)
(-0.000148708 -0.0441631 0)
(-3.23117e-06 -0.0438219 0)
(5.74486e-05 -0.0441655 0)
(4.11048e-06 -0.0439952 0)
(9.18984e-05 -0.0441126 0)
(-0.000147491 -0.0441621 0)
(-2.67366e-06 -0.0438234 0)
(5.70074e-05 -0.0441651 0)
(3.70825e-06 -0.0439955 0)
(9.12825e-05 -0.0441122 0)
(-0.00014628 -0.0441611 0)
(-2.1215e-06 -0.0438249 0)
(5.65672e-05 -0.0441647 0)
(3.30752e-06 -0.0439958 0)
(9.06687e-05 -0.0441118 0)
(-0.000145076 -0.04416 0)
(-1.5748e-06 -0.0438265 0)
(5.6128e-05 -0.0441643 0)
(2.90892e-06 -0.0439961 0)
(9.00572e-05 -0.0441114 0)
(-0.000143879 -0.044159 0)
(-1.03362e-06 -0.043828 0)
(5.56899e-05 -0.0441638 0)
(2.51299e-06 -0.0439964 0)
(8.94481e-05 -0.044111 0)
(-0.000142687 -0.044158 0)
(-4.98002e-07 -0.0438295 0)
(5.52529e-05 -0.0441634 0)
(2.12016e-06 -0.0439967 0)
(8.88416e-05 -0.0441106 0)
(-0.000141502 -0.044157 0)
(3.20085e-08 -0.043831 0)
(5.4817e-05 -0.044163 0)
(1.73075e-06 -0.043997 0)
(8.82379e-05 -0.0441102 0)
(-0.000140323 -0.0441561 0)
(5.56382e-07 -0.0438325 0)
(5.43823e-05 -0.0441626 0)
(1.34506e-06 -0.0439973 0)
(8.76369e-05 -0.0441098 0)
(-0.00013915 -0.0441551 0)
(1.07509e-06 -0.043834 0)
(5.39488e-05 -0.0441622 0)
(9.63293e-07 -0.0439976 0)
(8.70388e-05 -0.0441094 0)
(-0.000137983 -0.0441541 0)
(1.5881e-06 -0.0438355 0)
(5.35164e-05 -0.0441617 0)
(5.85649e-07 -0.0439979 0)
(8.64435e-05 -0.044109 0)
(-0.000136821 -0.0441531 0)
(2.09537e-06 -0.043837 0)
(5.30853e-05 -0.0441613 0)
(2.12272e-07 -0.0439982 0)
(8.58513e-05 -0.0441086 0)
(-0.000135665 -0.0441521 0)
(2.59689e-06 -0.0438385 0)
(5.26554e-05 -0.0441609 0)
(-1.56714e-07 -0.0439985 0)
(8.5262e-05 -0.0441082 0)
(-0.000134514 -0.0441512 0)
(3.09262e-06 -0.04384 0)
(5.22268e-05 -0.0441605 0)
(-5.2121e-07 -0.0439988 0)
(8.46756e-05 -0.0441078 0)
(-0.000133369 -0.0441502 0)
(3.58252e-06 -0.0438415 0)
(5.17995e-05 -0.0441601 0)
(-8.81133e-07 -0.0439991 0)
(8.40923e-05 -0.0441074 0)
(-0.00013223 -0.0441493 0)
(4.06657e-06 -0.043843 0)
(5.13734e-05 -0.0441596 0)
(-1.23642e-06 -0.0439994 0)
(8.35119e-05 -0.044107 0)
(-0.000131096 -0.0441483 0)
(4.54474e-06 -0.0438445 0)
(5.09487e-05 -0.0441592 0)
(-1.58701e-06 -0.0439997 0)
(8.29346e-05 -0.0441066 0)
(-0.000129968 -0.0441474 0)
(5.017e-06 -0.0438459 0)
(5.05253e-05 -0.0441588 0)
(-1.93286e-06 -0.044 0)
(8.23602e-05 -0.0441062 0)
(-0.000128846 -0.0441464 0)
(5.48335e-06 -0.0438474 0)
(5.01032e-05 -0.0441583 0)
(-2.27395e-06 -0.0440003 0)
(8.17888e-05 -0.0441059 0)
(-0.000127729 -0.0441455 0)
(5.94374e-06 -0.0438489 0)
(4.96824e-05 -0.0441579 0)
(-2.61025e-06 -0.0440006 0)
(8.12204e-05 -0.0441055 0)
(-0.000126617 -0.0441445 0)
(6.39819e-06 -0.0438503 0)
(4.92631e-05 -0.0441575 0)
(-2.94173e-06 -0.0440009 0)
(8.0655e-05 -0.0441051 0)
(-0.000125511 -0.0441436 0)
(6.84666e-06 -0.0438518 0)
(4.88451e-05 -0.044157 0)
(-3.26839e-06 -0.0440011 0)
(8.00926e-05 -0.0441047 0)
(-0.000124411 -0.0441427 0)
(7.28915e-06 -0.0438532 0)
(4.84285e-05 -0.0441566 0)
(-3.59023e-06 -0.0440014 0)
(7.95331e-05 -0.0441044 0)
(-0.000123317 -0.0441418 0)
(7.72567e-06 -0.0438547 0)
(4.80133e-05 -0.0441562 0)
(-3.90722e-06 -0.0440017 0)
(7.89766e-05 -0.044104 0)
(-0.000122228 -0.0441408 0)
(8.1562e-06 -0.0438561 0)
(4.75995e-05 -0.0441557 0)
(-4.21939e-06 -0.044002 0)
(7.84231e-05 -0.0441036 0)
(-0.000121144 -0.0441399 0)
(8.58075e-06 -0.0438575 0)
(4.71872e-05 -0.0441553 0)
(-4.52673e-06 -0.0440023 0)
(7.78725e-05 -0.0441033 0)
(-0.000120067 -0.044139 0)
(8.99931e-06 -0.043859 0)
(4.67763e-05 -0.0441549 0)
(-4.82924e-06 -0.0440025 0)
(7.73249e-05 -0.0441029 0)
(-0.000118994 -0.0441381 0)
(9.41188e-06 -0.0438604 0)
(4.6367e-05 -0.0441544 0)
(-5.12693e-06 -0.0440028 0)
(7.67802e-05 -0.0441025 0)
(-0.000117928 -0.0441372 0)
(9.81847e-06 -0.0438618 0)
(4.59591e-05 -0.044154 0)
(-5.4198e-06 -0.0440031 0)
(7.62385e-05 -0.0441022 0)
(-0.000116867 -0.0441363 0)
(1.02191e-05 -0.0438632 0)
(4.55527e-05 -0.0441536 0)
(-5.70786e-06 -0.0440033 0)
(7.56996e-05 -0.0441018 0)
(-0.000115812 -0.0441355 0)
(1.06137e-05 -0.0438646 0)
(4.51479e-05 -0.0441531 0)
(-5.99112e-06 -0.0440036 0)
(7.51636e-05 -0.0441015 0)
(-0.000114763 -0.0441346 0)
(1.10023e-05 -0.043866 0)
(4.47447e-05 -0.0441527 0)
(-6.26958e-06 -0.0440038 0)
(7.46305e-05 -0.0441011 0)
(-0.000113719 -0.0441337 0)
(1.13849e-05 -0.0438674 0)
(4.43431e-05 -0.0441523 0)
(-6.54327e-06 -0.0440041 0)
(7.41002e-05 -0.0441008 0)
(-0.000112681 -0.0441328 0)
(1.17616e-05 -0.0438688 0)
(4.39431e-05 -0.0441519 0)
(-6.81219e-06 -0.0440043 0)
(7.35728e-05 -0.0441004 0)
(-0.000111649 -0.044132 0)
(1.21323e-05 -0.0438702 0)
(4.35448e-05 -0.0441515 0)
(-7.07636e-06 -0.0440046 0)
(7.30481e-05 -0.0441001 0)
(-0.000110623 -0.0441311 0)
(1.24971e-05 -0.0438716 0)
(4.31481e-05 -0.044151 0)
(-7.3358e-06 -0.0440048 0)
(7.25263e-05 -0.0440998 0)
(-0.000109602 -0.0441303 0)
(1.28559e-05 -0.043873 0)
(4.2753e-05 -0.0441506 0)
(-7.59052e-06 -0.0440051 0)
(7.20073e-05 -0.0440994 0)
(-0.000108587 -0.0441294 0)
(1.32088e-05 -0.0438743 0)
(4.23597e-05 -0.0441502 0)
(-7.84054e-06 -0.0440053 0)
(7.14911e-05 -0.0440991 0)
(-0.000107578 -0.0441286 0)
(1.35558e-05 -0.0438757 0)
(4.19681e-05 -0.0441498 0)
(-8.08589e-06 -0.0440055 0)
(7.09776e-05 -0.0440988 0)
(-0.000106575 -0.0441277 0)
(1.38969e-05 -0.043877 0)
(4.15782e-05 -0.0441494 0)
(-8.32657e-06 -0.0440057 0)
(7.04669e-05 -0.0440984 0)
(-0.000105577 -0.0441269 0)
(1.42321e-05 -0.0438784 0)
(4.11901e-05 -0.0441489 0)
(-8.56261e-06 -0.044006 0)
(6.9959e-05 -0.0440981 0)
(-0.000104586 -0.044126 0)
(1.45615e-05 -0.0438797 0)
(4.08037e-05 -0.0441485 0)
(-8.79404e-06 -0.0440062 0)
(6.94537e-05 -0.0440978 0)
(-0.0001036 -0.0441252 0)
(1.4885e-05 -0.0438811 0)
(4.04191e-05 -0.0441481 0)
(-9.02087e-06 -0.0440064 0)
(6.89512e-05 -0.0440975 0)
(-0.00010262 -0.0441244 0)
(1.52026e-05 -0.0438824 0)
(4.00363e-05 -0.0441477 0)
(-9.24312e-06 -0.0440066 0)
(6.84514e-05 -0.0440971 0)
(-0.000101645 -0.0441236 0)
(1.55145e-05 -0.0438838 0)
(3.96553e-05 -0.0441473 0)
(-9.46082e-06 -0.0440069 0)
(6.79543e-05 -0.0440968 0)
(-0.000100677 -0.0441228 0)
(1.58206e-05 -0.0438851 0)
(3.92762e-05 -0.0441468 0)
(-9.67399e-06 -0.0440071 0)
(6.74599e-05 -0.0440965 0)
(-9.97144e-05 -0.044122 0)
(1.61209e-05 -0.0438864 0)
(3.88988e-05 -0.0441464 0)
(-9.88265e-06 -0.0440073 0)
(6.69682e-05 -0.0440962 0)
(-9.87575e-05 -0.0441212 0)
(1.64154e-05 -0.0438877 0)
(3.85233e-05 -0.044146 0)
(-1.00868e-05 -0.0440075 0)
(6.64791e-05 -0.0440959 0)
(-9.78066e-05 -0.0441204 0)
(1.67042e-05 -0.043889 0)
(3.81497e-05 -0.0441456 0)
(-1.02866e-05 -0.0440077 0)
(6.59927e-05 -0.0440956 0)
(-9.68614e-05 -0.0441196 0)
(1.69873e-05 -0.0438903 0)
(3.77779e-05 -0.0441452 0)
(-1.04818e-05 -0.0440079 0)
(6.55089e-05 -0.0440953 0)
(-9.59221e-05 -0.0441188 0)
(1.72647e-05 -0.0438916 0)
(3.74081e-05 -0.0441448 0)
(-1.06727e-05 -0.0440081 0)
(6.50277e-05 -0.044095 0)
(-9.49887e-05 -0.044118 0)
(1.75364e-05 -0.0438929 0)
(3.70401e-05 -0.0441443 0)
(-1.08592e-05 -0.0440083 0)
(6.45492e-05 -0.0440947 0)
(-9.4061e-05 -0.0441172 0)
(1.78025e-05 -0.0438942 0)
(3.6674e-05 -0.0441439 0)
(-1.10414e-05 -0.0440085 0)
(6.40732e-05 -0.0440944 0)
(-9.31393e-05 -0.0441165 0)
(1.8063e-05 -0.0438955 0)
(3.63098e-05 -0.0441435 0)
(-1.12192e-05 -0.0440087 0)
(6.35999e-05 -0.0440941 0)
(-9.22233e-05 -0.0441157 0)
(1.83179e-05 -0.0438967 0)
(3.59476e-05 -0.0441431 0)
(-1.13927e-05 -0.0440089 0)
(6.31291e-05 -0.0440938 0)
(-9.13132e-05 -0.0441149 0)
(1.85672e-05 -0.043898 0)
(3.55873e-05 -0.0441427 0)
(-1.15619e-05 -0.0440091 0)
(6.26609e-05 -0.0440935 0)
(-9.0409e-05 -0.0441142 0)
(1.88109e-05 -0.0438993 0)
(3.52289e-05 -0.0441423 0)
(-1.17269e-05 -0.0440093 0)
(6.21952e-05 -0.0440932 0)
(-8.95105e-05 -0.0441134 0)
(1.90491e-05 -0.0439005 0)
(3.48725e-05 -0.0441418 0)
(-1.18876e-05 -0.0440095 0)
(6.17321e-05 -0.0440929 0)
(-8.86179e-05 -0.0441127 0)
(1.92819e-05 -0.0439018 0)
(3.4518e-05 -0.0441414 0)
(-1.20442e-05 -0.0440097 0)
(6.12716e-05 -0.0440927 0)
(-8.77312e-05 -0.0441119 0)
(1.95091e-05 -0.043903 0)
(3.41655e-05 -0.044141 0)
(-1.21966e-05 -0.0440099 0)
(6.08135e-05 -0.0440924 0)
(-8.68502e-05 -0.0441112 0)
(1.97309e-05 -0.0439042 0)
(3.3815e-05 -0.0441406 0)
(-1.23448e-05 -0.0440101 0)
(6.0358e-05 -0.0440921 0)
(-8.59751e-05 -0.0441105 0)
(1.99473e-05 -0.0439055 0)
(3.34665e-05 -0.0441402 0)
(-1.2489e-05 -0.0440103 0)
(5.99049e-05 -0.0440918 0)
(-8.51058e-05 -0.0441098 0)
(2.01583e-05 -0.0439067 0)
(3.31199e-05 -0.0441398 0)
(-1.2629e-05 -0.0440105 0)
(5.94544e-05 -0.0440915 0)
(-8.42424e-05 -0.044109 0)
(2.03639e-05 -0.0439079 0)
(3.27754e-05 -0.0441394 0)
(-1.2765e-05 -0.0440107 0)
(5.90063e-05 -0.0440913 0)
(-8.33847e-05 -0.0441083 0)
(2.05642e-05 -0.0439091 0)
(3.24328e-05 -0.0441389 0)
(-1.2897e-05 -0.0440109 0)
(5.85606e-05 -0.044091 0)
(-8.25328e-05 -0.0441076 0)
(2.07592e-05 -0.0439103 0)
(3.20923e-05 -0.0441385 0)
(-1.3025e-05 -0.0440111 0)
(5.81174e-05 -0.0440907 0)
(-8.16867e-05 -0.0441069 0)
(2.09489e-05 -0.0439115 0)
(3.17538e-05 -0.0441381 0)
(-1.3149e-05 -0.0440113 0)
(5.76766e-05 -0.0440905 0)
(-8.08465e-05 -0.0441062 0)
(2.11333e-05 -0.0439127 0)
(3.14173e-05 -0.0441377 0)
(-1.3269e-05 -0.0440115 0)
(5.72383e-05 -0.0440902 0)
(-8.00119e-05 -0.0441055 0)
(2.13125e-05 -0.0439139 0)
(3.10828e-05 -0.0441373 0)
(-1.33852e-05 -0.0440117 0)
(5.68023e-05 -0.0440899 0)
(-7.91832e-05 -0.0441048 0)
(2.14865e-05 -0.0439151 0)
(3.07504e-05 -0.0441369 0)
(-1.34975e-05 -0.0440118 0)
(5.63688e-05 -0.0440897 0)
(-7.83602e-05 -0.0441041 0)
(2.16553e-05 -0.0439162 0)
(3.042e-05 -0.0441365 0)
(-1.36059e-05 -0.044012 0)
(5.59376e-05 -0.0440894 0)
(-7.7543e-05 -0.0441035 0)
(2.1819e-05 -0.0439174 0)
(3.00916e-05 -0.0441361 0)
(-1.37105e-05 -0.0440122 0)
(5.55087e-05 -0.0440892 0)
(-7.67315e-05 -0.0441028 0)
(2.19776e-05 -0.0439185 0)
(2.97653e-05 -0.0441357 0)
(-1.38113e-05 -0.0440124 0)
(5.50822e-05 -0.0440889 0)
(-7.59258e-05 -0.0441021 0)
(2.21311e-05 -0.0439197 0)
(2.94411e-05 -0.0441352 0)
(-1.39084e-05 -0.0440126 0)
(5.46581e-05 -0.0440887 0)
(-7.51257e-05 -0.0441015 0)
(2.22795e-05 -0.0439208 0)
(2.91189e-05 -0.0441348 0)
(-1.40017e-05 -0.0440128 0)
(5.42362e-05 -0.0440884 0)
(-7.43314e-05 -0.0441008 0)
(2.2423e-05 -0.043922 0)
(2.87988e-05 -0.0441344 0)
(-1.40913e-05 -0.0440129 0)
(5.38167e-05 -0.0440882 0)
(-7.35428e-05 -0.0441001 0)
(2.25614e-05 -0.0439231 0)
(2.84808e-05 -0.044134 0)
(-1.41772e-05 -0.0440131 0)
(5.33994e-05 -0.0440879 0)
(-7.27598e-05 -0.0440995 0)
(2.26949e-05 -0.0439242 0)
(2.81648e-05 -0.0441336 0)
(-1.42595e-05 -0.0440133 0)
(5.29844e-05 -0.0440877 0)
(-7.19825e-05 -0.0440988 0)
(2.28234e-05 -0.0439253 0)
(2.78509e-05 -0.0441332 0)
(-1.43382e-05 -0.0440135 0)
(5.25716e-05 -0.0440874 0)
(-7.12109e-05 -0.0440982 0)
(2.29471e-05 -0.0439265 0)
(2.75391e-05 -0.0441328 0)
(-1.44133e-05 -0.0440136 0)
(5.21611e-05 -0.0440872 0)
(-7.04449e-05 -0.0440976 0)
(2.30658e-05 -0.0439276 0)
(2.72294e-05 -0.0441324 0)
(-1.44849e-05 -0.0440138 0)
(5.17528e-05 -0.0440869 0)
(-6.96846e-05 -0.0440969 0)
(2.31798e-05 -0.0439286 0)
(2.69217e-05 -0.044132 0)
(-1.45529e-05 -0.044014 0)
(5.13467e-05 -0.0440867 0)
(-6.89298e-05 -0.0440963 0)
(2.32889e-05 -0.0439297 0)
(2.66161e-05 -0.0441316 0)
(-1.46175e-05 -0.0440141 0)
(5.09428e-05 -0.0440865 0)
(-6.81807e-05 -0.0440957 0)
(2.33933e-05 -0.0439308 0)
(2.63127e-05 -0.0441312 0)
(-1.46786e-05 -0.0440143 0)
(5.0541e-05 -0.0440862 0)
(-6.74371e-05 -0.0440951 0)
(2.34929e-05 -0.0439319 0)
(2.60113e-05 -0.0441308 0)
(-1.47363e-05 -0.0440145 0)
(5.01414e-05 -0.044086 0)
(-6.66991e-05 -0.0440945 0)
(2.35879e-05 -0.043933 0)
(2.5712e-05 -0.0441304 0)
(-1.47906e-05 -0.0440147 0)
(4.9744e-05 -0.0440858 0)
(-6.59666e-05 -0.0440939 0)
(2.36781e-05 -0.043934 0)
(2.54148e-05 -0.04413 0)
(-1.48415e-05 -0.0440148 0)
(4.93487e-05 -0.0440855 0)
(-6.52396e-05 -0.0440933 0)
(2.37637e-05 -0.0439351 0)
(2.51197e-05 -0.0441296 0)
(-1.48891e-05 -0.044015 0)
(4.89554e-05 -0.0440853 0)
(-6.45182e-05 -0.0440927 0)
(2.38447e-05 -0.0439361 0)
(2.48266e-05 -0.0441292 0)
(-1.49334e-05 -0.0440152 0)
(4.85643e-05 -0.0440851 0)
(-6.38022e-05 -0.0440921 0)
(2.39212e-05 -0.0439372 0)
(2.45357e-05 -0.0441289 0)
(-1.49745e-05 -0.0440153 0)
(4.81752e-05 -0.0440849 0)
(-6.30917e-05 -0.0440915 0)
(2.39931e-05 -0.0439382 0)
(2.42469e-05 -0.0441285 0)
(-1.50123e-05 -0.0440155 0)
(4.77882e-05 -0.0440846 0)
(-6.23867e-05 -0.0440909 0)
(2.40605e-05 -0.0439392 0)
(2.39601e-05 -0.0441281 0)
(-1.50469e-05 -0.0440156 0)
(4.74031e-05 -0.0440844 0)
(-6.1687e-05 -0.0440904 0)
(2.41234e-05 -0.0439402 0)
(2.36755e-05 -0.0441277 0)
(-1.50784e-05 -0.0440158 0)
(4.70202e-05 -0.0440842 0)
(-6.09928e-05 -0.0440898 0)
(2.41819e-05 -0.0439412 0)
(2.3393e-05 -0.0441273 0)
(-1.51067e-05 -0.044016 0)
(4.66392e-05 -0.044084 0)
(-6.03039e-05 -0.0440892 0)
(2.42361e-05 -0.0439422 0)
(2.31125e-05 -0.0441269 0)
(-1.51319e-05 -0.0440161 0)
(4.62602e-05 -0.0440838 0)
(-5.96205e-05 -0.0440887 0)
(2.42858e-05 -0.0439432 0)
(2.28341e-05 -0.0441265 0)
(-1.51541e-05 -0.0440163 0)
(4.58831e-05 -0.0440836 0)
(-5.89423e-05 -0.0440881 0)
(2.43312e-05 -0.0439442 0)
(2.25578e-05 -0.0441262 0)
(-1.51732e-05 -0.0440164 0)
(4.5508e-05 -0.0440833 0)
(-5.82695e-05 -0.0440876 0)
(2.43724e-05 -0.0439452 0)
(2.22837e-05 -0.0441258 0)
(-1.51893e-05 -0.0440166 0)
(4.51348e-05 -0.0440831 0)
(-5.76019e-05 -0.044087 0)
(2.44092e-05 -0.0439462 0)
(2.20115e-05 -0.0441254 0)
(-1.52024e-05 -0.0440167 0)
(4.47635e-05 -0.0440829 0)
(-5.69396e-05 -0.0440865 0)
(2.44419e-05 -0.0439472 0)
(2.17415e-05 -0.044125 0)
(-1.52126e-05 -0.0440169 0)
(4.43941e-05 -0.0440827 0)
(-5.62826e-05 -0.044086 0)
(2.44703e-05 -0.0439481 0)
(2.14736e-05 -0.0441246 0)
(-1.52199e-05 -0.044017 0)
(4.40266e-05 -0.0440825 0)
(-5.56307e-05 -0.0440854 0)
(2.44947e-05 -0.0439491 0)
(2.12077e-05 -0.0441243 0)
(-1.52244e-05 -0.0440172 0)
(4.36609e-05 -0.0440823 0)
(-5.49841e-05 -0.0440849 0)
(2.45149e-05 -0.04395 0)
(2.09439e-05 -0.0441239 0)
(-1.5226e-05 -0.0440174 0)
(4.3297e-05 -0.0440821 0)
(-5.43426e-05 -0.0440844 0)
(2.4531e-05 -0.043951 0)
(2.06822e-05 -0.0441235 0)
(-1.52248e-05 -0.0440175 0)
(4.2935e-05 -0.0440819 0)
(-5.37062e-05 -0.0440839 0)
(2.45431e-05 -0.0439519 0)
(2.04225e-05 -0.0441232 0)
(-1.52208e-05 -0.0440176 0)
(4.25747e-05 -0.0440817 0)
(-5.3075e-05 -0.0440834 0)
(2.45512e-05 -0.0439528 0)
(2.01649e-05 -0.0441228 0)
(-1.52141e-05 -0.0440178 0)
(4.22162e-05 -0.0440815 0)
(-5.24488e-05 -0.0440829 0)
(2.45554e-05 -0.0439537 0)
(1.99094e-05 -0.0441224 0)
(-1.52047e-05 -0.0440179 0)
(4.18595e-05 -0.0440813 0)
(-5.18277e-05 -0.0440824 0)
(2.45556e-05 -0.0439546 0)
(1.96559e-05 -0.0441221 0)
(-1.51926e-05 -0.0440181 0)
(4.15045e-05 -0.0440811 0)
(-5.12116e-05 -0.0440819 0)
(2.45519e-05 -0.0439555 0)
(1.94045e-05 -0.0441217 0)
(-1.51779e-05 -0.0440182 0)
(4.11512e-05 -0.0440809 0)
(-5.06004e-05 -0.0440814 0)
(2.45444e-05 -0.0439564 0)
(1.91551e-05 -0.0441213 0)
(-1.51606e-05 -0.0440184 0)
(4.07996e-05 -0.0440808 0)
(-4.99943e-05 -0.0440809 0)
(2.4533e-05 -0.0439573 0)
(1.89077e-05 -0.044121 0)
(-1.51407e-05 -0.0440185 0)
(4.04496e-05 -0.0440806 0)
(-4.93931e-05 -0.0440804 0)
(2.45179e-05 -0.0439582 0)
(1.86624e-05 -0.0441206 0)
(-1.51182e-05 -0.0440187 0)
(4.01013e-05 -0.0440804 0)
(-4.87968e-05 -0.0440799 0)
(2.4499e-05 -0.0439591 0)
(1.84191e-05 -0.0441203 0)
(-1.50933e-05 -0.0440188 0)
(3.97547e-05 -0.0440802 0)
(-4.82053e-05 -0.0440795 0)
(2.44765e-05 -0.0439599 0)
(1.81779e-05 -0.0441199 0)
(-1.50659e-05 -0.0440189 0)
(3.94096e-05 -0.04408 0)
(-4.76187e-05 -0.044079 0)
(2.44503e-05 -0.0439608 0)
(1.79386e-05 -0.0441196 0)
(-1.50361e-05 -0.0440191 0)
(3.90662e-05 -0.0440798 0)
(-4.70369e-05 -0.0440785 0)
(2.44204e-05 -0.0439616 0)
(1.77014e-05 -0.0441192 0)
(-1.50039e-05 -0.0440192 0)
(3.87243e-05 -0.0440796 0)
(-4.64599e-05 -0.0440781 0)
(2.4387e-05 -0.0439625 0)
(1.74661e-05 -0.0441189 0)
(-1.49693e-05 -0.0440194 0)
(3.83839e-05 -0.0440795 0)
(-4.58876e-05 -0.0440776 0)
(2.435e-05 -0.0439633 0)
(1.72329e-05 -0.0441185 0)
(-1.49324e-05 -0.0440195 0)
(3.80451e-05 -0.0440793 0)
(-4.532e-05 -0.0440772 0)
(2.43096e-05 -0.0439642 0)
(1.70016e-05 -0.0441182 0)
(-1.48932e-05 -0.0440196 0)
(3.77077e-05 -0.0440791 0)
(-4.47571e-05 -0.0440767 0)
(2.42656e-05 -0.043965 0)
(1.67724e-05 -0.0441179 0)
(-1.48517e-05 -0.0440198 0)
(3.73719e-05 -0.0440789 0)
(-4.41988e-05 -0.0440763 0)
(2.42183e-05 -0.0439658 0)
(1.65451e-05 -0.0441175 0)
(-1.48081e-05 -0.0440199 0)
(3.70375e-05 -0.0440788 0)
(-4.36451e-05 -0.0440759 0)
(2.41675e-05 -0.0439666 0)
(1.63197e-05 -0.0441172 0)
(-1.47622e-05 -0.04402 0)
(3.67046e-05 -0.0440786 0)
(-4.3096e-05 -0.0440754 0)
(2.41134e-05 -0.0439674 0)
(1.60963e-05 -0.0441168 0)
(-1.47141e-05 -0.0440202 0)
(3.6373e-05 -0.0440784 0)
(-4.25515e-05 -0.044075 0)
(2.4056e-05 -0.0439682 0)
(1.58749e-05 -0.0441165 0)
(-1.46639e-05 -0.0440203 0)
(3.60429e-05 -0.0440782 0)
(-4.20115e-05 -0.0440746 0)
(2.39952e-05 -0.043969 0)
(1.56555e-05 -0.0441162 0)
(-1.46117e-05 -0.0440204 0)
(3.57141e-05 -0.0440781 0)
(-4.14761e-05 -0.0440742 0)
(2.39312e-05 -0.0439698 0)
(1.5438e-05 -0.0441159 0)
(-1.45574e-05 -0.0440206 0)
(3.53867e-05 -0.0440779 0)
(-4.09452e-05 -0.0440737 0)
(2.3864e-05 -0.0439706 0)
(1.52225e-05 -0.0441155 0)
(-1.4501e-05 -0.0440207 0)
(3.50607e-05 -0.0440778 0)
(-4.04189e-05 -0.0440733 0)
(2.37935e-05 -0.0439713 0)
(1.50089e-05 -0.0441152 0)
(-1.44427e-05 -0.0440208 0)
(3.47359e-05 -0.0440776 0)
(-3.9897e-05 -0.0440729 0)
(2.37198e-05 -0.0439721 0)
(1.47974e-05 -0.0441149 0)
(-1.43824e-05 -0.044021 0)
(3.44124e-05 -0.0440774 0)
(-3.93796e-05 -0.0440725 0)
(2.3643e-05 -0.0439729 0)
(1.45878e-05 -0.0441146 0)
(-1.43202e-05 -0.0440211 0)
(3.40902e-05 -0.0440773 0)
(-3.88666e-05 -0.0440721 0)
(2.35631e-05 -0.0439736 0)
(1.43802e-05 -0.0441143 0)
(-1.42562e-05 -0.0440212 0)
(3.37692e-05 -0.0440771 0)
(-3.83581e-05 -0.0440717 0)
(2.348e-05 -0.0439744 0)
(1.41745e-05 -0.0441139 0)
(-1.41902e-05 -0.0440213 0)
(3.34495e-05 -0.0440769 0)
(-3.7854e-05 -0.0440713 0)
(2.33939e-05 -0.0439752 0)
(1.39709e-05 -0.0441136 0)
(-1.41225e-05 -0.0440215 0)
(3.31309e-05 -0.0440768 0)
(-3.73543e-05 -0.0440709 0)
(2.33048e-05 -0.0439759 0)
(1.37692e-05 -0.0441133 0)
(-1.40529e-05 -0.0440216 0)
(3.28135e-05 -0.0440766 0)
(-3.6859e-05 -0.0440705 0)
(2.32127e-05 -0.0439766 0)
(1.35694e-05 -0.044113 0)
(-1.39817e-05 -0.0440217 0)
(3.24973e-05 -0.0440765 0)
(-3.6368e-05 -0.0440701 0)
(2.31176e-05 -0.0439774 0)
(1.33716e-05 -0.0441127 0)
(-1.39087e-05 -0.0440218 0)
(3.21822e-05 -0.0440763 0)
(-3.58813e-05 -0.0440697 0)
(2.30195e-05 -0.0439781 0)
(1.31758e-05 -0.0441124 0)
(-1.3834e-05 -0.0440219 0)
(3.18682e-05 -0.0440762 0)
(-3.53988e-05 -0.0440693 0)
(2.29186e-05 -0.0439788 0)
(1.29818e-05 -0.0441121 0)
(-1.37577e-05 -0.0440221 0)
(3.15553e-05 -0.044076 0)
(-3.49207e-05 -0.0440689 0)
(2.28149e-05 -0.0439795 0)
(1.27899e-05 -0.0441118 0)
(-1.36797e-05 -0.0440222 0)
(3.12434e-05 -0.0440759 0)
(-3.44467e-05 -0.0440685 0)
(2.27083e-05 -0.0439802 0)
(1.25998e-05 -0.0441115 0)
(-1.36002e-05 -0.0440223 0)
(3.09326e-05 -0.0440757 0)
(-3.39769e-05 -0.0440681 0)
(2.25989e-05 -0.0439809 0)
(1.24117e-05 -0.0441112 0)
(-1.35192e-05 -0.0440224 0)
(3.06228e-05 -0.0440756 0)
(-3.35112e-05 -0.0440677 0)
(2.24867e-05 -0.0439816 0)
(1.22255e-05 -0.0441109 0)
(-1.34366e-05 -0.0440225 0)
(3.0314e-05 -0.0440754 0)
(-3.30497e-05 -0.0440674 0)
(2.23719e-05 -0.0439823 0)
(1.20412e-05 -0.0441107 0)
(-1.33526e-05 -0.0440227 0)
(3.00061e-05 -0.0440753 0)
(-3.25922e-05 -0.044067 0)
(2.22544e-05 -0.043983 0)
(1.18588e-05 -0.0441104 0)
(-1.32671e-05 -0.0440228 0)
(2.96992e-05 -0.0440752 0)
(-3.21388e-05 -0.0440666 0)
(2.21342e-05 -0.0439837 0)
(1.16782e-05 -0.0441101 0)
(-1.31802e-05 -0.0440229 0)
(2.93932e-05 -0.044075 0)
(-3.16893e-05 -0.0440663 0)
(2.20114e-05 -0.0439843 0)
(1.14996e-05 -0.0441098 0)
(-1.3092e-05 -0.044023 0)
(2.90881e-05 -0.0440749 0)
(-3.12439e-05 -0.0440659 0)
(2.1886e-05 -0.043985 0)
(1.13228e-05 -0.0441095 0)
(-1.30024e-05 -0.0440231 0)
(2.87839e-05 -0.0440747 0)
(-3.08023e-05 -0.0440656 0)
(2.17582e-05 -0.0439857 0)
(1.11478e-05 -0.0441093 0)
(-1.29115e-05 -0.0440232 0)
(2.84805e-05 -0.0440746 0)
(-3.03646e-05 -0.0440652 0)
(2.16278e-05 -0.0439863 0)
(1.09747e-05 -0.044109 0)
(-1.28193e-05 -0.0440233 0)
(2.81779e-05 -0.0440745 0)
(-2.99308e-05 -0.0440649 0)
(2.1495e-05 -0.0439869 0)
(1.08035e-05 -0.0441087 0)
(-1.27259e-05 -0.0440234 0)
(2.78761e-05 -0.0440743 0)
(-2.95008e-05 -0.0440645 0)
(2.13597e-05 -0.0439876 0)
(1.0634e-05 -0.0441084 0)
(-1.26312e-05 -0.0440236 0)
(2.75751e-05 -0.0440742 0)
(-2.90745e-05 -0.0440642 0)
(2.12221e-05 -0.0439882 0)
(1.04664e-05 -0.0441082 0)
(-1.25354e-05 -0.0440237 0)
(2.72749e-05 -0.0440741 0)
(-2.8652e-05 -0.0440638 0)
(2.10821e-05 -0.0439888 0)
(1.03005e-05 -0.0441079 0)
(-1.24385e-05 -0.0440238 0)
(2.69753e-05 -0.0440739 0)
(-2.82331e-05 -0.0440635 0)
(2.09398e-05 -0.0439894 0)
(1.01364e-05 -0.0441077 0)
(-1.23405e-05 -0.0440239 0)
(2.66765e-05 -0.0440738 0)
(-2.78178e-05 -0.0440632 0)
(2.07953e-05 -0.04399 0)
(9.97412e-06 -0.0441074 0)
(-1.22414e-05 -0.044024 0)
(2.63783e-05 -0.0440737 0)
(-2.74062e-05 -0.0440629 0)
(2.06485e-05 -0.0439906 0)
(9.81355e-06 -0.0441071 0)
(-1.21412e-05 -0.0440241 0)
(2.60808e-05 -0.0440735 0)
(-2.69981e-05 -0.0440626 0)
(2.04996e-05 -0.0439912 0)
(9.65472e-06 -0.0441069 0)
(-1.20401e-05 -0.0440242 0)
(2.57839e-05 -0.0440734 0)
(-2.65934e-05 -0.0440622 0)
(2.03485e-05 -0.0439918 0)
(9.49761e-06 -0.0441066 0)
(-1.1938e-05 -0.0440243 0)
(2.54876e-05 -0.0440733 0)
(-2.61923e-05 -0.0440619 0)
(2.01953e-05 -0.0439924 0)
(9.34221e-06 -0.0441064 0)
(-1.18349e-05 -0.0440244 0)
(2.51919e-05 -0.0440732 0)
(-2.57945e-05 -0.0440616 0)
(2.00401e-05 -0.043993 0)
(9.18851e-06 -0.0441062 0)
(-1.17309e-05 -0.0440245 0)
(2.48967e-05 -0.044073 0)
(-2.54001e-05 -0.0440613 0)
(1.98828e-05 -0.0439935 0)
(9.03647e-06 -0.0441059 0)
(-1.16261e-05 -0.0440246 0)
(2.46021e-05 -0.0440729 0)
(-2.5009e-05 -0.044061 0)
(1.97235e-05 -0.0439941 0)
(8.8861e-06 -0.0441057 0)
(-1.15204e-05 -0.0440247 0)
(2.43079e-05 -0.0440728 0)
(-2.46211e-05 -0.0440607 0)