/*--------------------------------*- C++ -*----------------------------------*\
| =========                 |                                                 |
| \\      /  F ield         | OpenFOAM: The Open Source CFD Toolbox           |
|  \\    /   O peration     | Version:  2.4.0                                 |
|   \\  /    A nd           | Web:      www.OpenFOAM.org                      |
|    \\/     M anipulation  |                                                 |
\*---------------------------------------------------------------------------*/
FoamFile
{
    version     2.0;
    format      ascii;
    class       volScalarField;
    location    "0.006";
    object      alpha1;
}
// * * * * * * * * * * * * * * * * * * * * * * * * * * * * * * * * * * * * * //

dimensions      [0 0 0 0 0 0 0];

internalField   nonuniform List<scalar> 
125
(
1
1
0.680952
9.23493e-89
1.21589e-94
1.72223e-100
2.44099e-106
3.16804e-112
3.60534e-118
3.55402e-124
3.03286e-130
2.24449e-136
1.44173e-142
8.0278e-149
3.85939e-155
1.5904e-161
5.55535e-168
1.6183e-174
3.84002e-181
7.1687e-188
9.97486e-195
9.43129e-202
5.01374e-209
8.42724e-217
0
0
0
0
0
0
0
0
0
0
0
0
0
0
0
0
0
0
0
0
0
0
0
0
0
0
0
0
0
0
0
0
0
0
0
0
0
0
0
0
0
0
0
0
0
0
0
0
0
0
0
0
0
0
0
0
0
0
0
0
0
0
0
0
0
0
0
0
0
0
0
0
0
0
0
0
0
0
0
0
0
0
0
0
0
0
0
0
0
0
0
0
0
0
0
0
0
0
0
0
0
)
;

boundaryField
{
    BotWall
    {
        type            fixedValue;
        value           uniform 1;
    }
    FreeStream
    {
        type            inletOutlet;
        inletValue      uniform 0;
        value           uniform 0;
    }
    FrontNBack
    {
        type            empty;
    }
    LeftSide
    {
        type            symmetryPlane;
    }
    RightSide
    {
        type            symmetryPlane;
    }
    procBoundary4to1
    {
        type            processor;
        value           uniform 0;
    }
    procBoundary4to2
    {
        type            processor;
        value           nonuniform List<scalar> 
75
(
1
1
0.665823
5.03567e-92
9.76411e-98
1.80354e-103
3.07822e-109
4.56749e-115
5.76176e-121
6.15831e-127
5.58854e-133
4.33272e-139
2.88091e-145
1.6452e-151
8.05366e-158
3.36058e-164
1.18364e-170
3.46547e-177
8.24445e-184
1.54025e-190
2.14193e-197
2.02206e-204
1.07253e-211
1.79785e-219
0
0
0
0
0
0
0
0
0
0
0
0
0
0
0
0
0
0
0
0
0
0
0
0
0
0
0
0
0
0
0
0
0
0
0
0
0
0
0
0
0
0
0
0
0
0
0
0
0
0
0
)
;
    }
    procBoundary4to3
    {
        type            processor;
        value           uniform 0;
    }
    procBoundary4to5
    {
        type            processor;
        value           uniform 0;
    }
    procBoundary4to6
    {
        type            processor;
        value           uniform 0;
    }
    procBoundary4to7
    {
        type            processor;
        value           nonuniform List<scalar> 
50
(
1
1
0.681757
3.30132e-91
2.54141e-97
2.37406e-103
2.6403e-109
2.97517e-115
3.08113e-121
2.8369e-127
2.29191e-133
1.62263e-139
1.00268e-145
5.39296e-152
2.51488e-158
1.00899e-164
3.44344e-171
9.83297e-178
2.29177e-184
4.20909e-191
5.77024e-198
5.37928e-205
2.82125e-212
4.68145e-220
0
0
0
0
0
0
0
0
0
0
0
0
0
0
0
0
0
0
0
0
0
0
0
0
0
0
)
;
    }
}


// ************************************************************************* //
