/*--------------------------------*- C++ -*----------------------------------*\
| =========                 |                                                 |
| \\      /  F ield         | OpenFOAM: The Open Source CFD Toolbox           |
|  \\    /   O peration     | Version:  2.4.0                                 |
|   \\  /    A nd           | Web:      www.OpenFOAM.org                      |
|    \\/     M anipulation  |                                                 |
\*---------------------------------------------------------------------------*/
FoamFile
{
    version     2.0;
    format      ascii;
    class       surfaceScalarField;
    location    "0.006";
    object      phi;
}
// * * * * * * * * * * * * * * * * * * * * * * * * * * * * * * * * * * * * * //

dimensions      [0 3 -1 0 0 0 0];

internalField   nonuniform List<scalar> 
123
(
5.42756e-16
2.08881e-15
-5.96956e-09
-5.96956e-09
-5.96955e-09
-5.96954e-09
-5.96953e-09
-5.96951e-09
-5.96948e-09
-5.96946e-09
-5.96943e-09
-5.9694e-09
-5.96936e-09
-5.96933e-09
-5.96929e-09
-5.96925e-09
-5.9692e-09
-5.96916e-09
-5.96911e-09
-5.96907e-09
-5.96902e-09
-5.96897e-09
-5.96892e-09
-5.96886e-09
-5.96881e-09
-5.96876e-09
-5.96871e-09
-5.96865e-09
-5.9686e-09
-5.96854e-09
-5.96849e-09
-5.96843e-09
-5.96838e-09
-5.96832e-09
-5.96827e-09
-5.96822e-09
-5.96816e-09
-5.96811e-09
-5.96805e-09
-5.968e-09
-5.96795e-09
-5.9679e-09
-5.96784e-09
-5.96779e-09
-5.96774e-09
-5.96769e-09
-5.96764e-09
-5.96759e-09
-5.96754e-09
-5.96749e-09
-5.96745e-09
-5.9674e-09
-5.96735e-09
-5.96731e-09
-5.96726e-09
-5.96722e-09
-5.96717e-09
-5.96713e-09
-5.96708e-09
-5.96704e-09
-5.967e-09
-5.96696e-09
-5.96691e-09
-5.96687e-09
-5.96683e-09
-5.96679e-09
-5.96675e-09
-5.96671e-09
-5.96667e-09
-5.96663e-09
-5.96659e-09
-5.96656e-09
-5.96652e-09
-5.96648e-09
-5.96644e-09
-5.96641e-09
-5.96637e-09
-5.96633e-09
-5.9663e-09
-5.96626e-09
-5.96623e-09
-5.96619e-09
-5.96616e-09
-5.96612e-09
-5.96609e-09
-5.96605e-09
-5.96602e-09
-5.96598e-09
-5.96595e-09
-5.96592e-09
-5.96588e-09
-5.96585e-09
-5.96582e-09
-5.96578e-09
-5.96575e-09
-5.96572e-09
-5.96569e-09
-5.96566e-09
-5.96562e-09
-5.96254e-09
-5.96254e-09
-5.96254e-09
-5.96254e-09
-5.96254e-09
-5.96254e-09
-5.96254e-09
-5.96254e-09
-5.96255e-09
-5.96255e-09
-5.96256e-09
-5.96256e-09
-5.96257e-09
-5.96257e-09
-5.96258e-09
-5.96258e-09
-5.96259e-09
-5.9626e-09
-5.96261e-09
-5.96261e-09
-5.96262e-09
-5.96263e-09
-5.96264e-09
-5.96264e-09
)
;

boundaryField
{
    BotWall
    {
        type            calculated;
        value           uniform -1.09273e-20;
    }
    FreeStream
    {
        type            calculated;
        value           uniform -5.96265e-09;
    }
    FrontNBack
    {
        type            empty;
        value           nonuniform 0();
    }
    LeftSide
    {
        type            symmetryPlane;
        value           nonuniform 0();
    }
    RightSide
    {
        type            symmetryPlane;
        value           nonuniform 0();
    }
    procBoundary4to1
    {
        type            processor;
        value           nonuniform List<scalar> 
50
(
-5.08373e-14
-5.02692e-14
-4.97038e-14
-4.9143e-14
-4.85883e-14
-4.80412e-14
-4.75029e-14
-4.69744e-14
-4.64567e-14
-4.59506e-14
-4.54566e-14
-4.49754e-14
-4.45072e-14
-4.40524e-14
-4.36111e-14
-4.31834e-14
-4.27693e-14
-4.23687e-14
-4.19814e-14
-4.16072e-14
-4.12459e-14
-4.08971e-14
-4.05605e-14
-4.02356e-14
-3.99222e-14
-3.96196e-14
-3.93275e-14
-3.90455e-14
-3.8773e-14
-3.85095e-14
-3.82547e-14
-3.80081e-14
-3.77691e-14
-3.75374e-14
-3.73125e-14
-3.7094e-14
-3.68815e-14
-3.66746e-14
-3.64729e-14
-3.62762e-14
-3.6084e-14
-3.58961e-14
-3.57122e-14
-3.55319e-14
-3.53551e-14
-3.51815e-14
-3.50108e-14
-3.4843e-14
-3.46777e-14
-3.45148e-14
)
;
    }
    procBoundary4to2
    {
        type            processor;
        value           nonuniform List<scalar> 
75
(
-6.04577e-16
-1.72456e-15
-3.96074e-15
-4.60927e-15
-8.23115e-15
-1.26585e-14
-1.68478e-14
-2.07349e-14
-2.43581e-14
-2.77515e-14
-3.09257e-14
-3.38857e-14
-3.66372e-14
-3.91868e-14
-4.15412e-14
-4.37074e-14
-4.5692e-14
-4.75019e-14
-4.91438e-14
-5.06246e-14
-5.19512e-14
-5.31303e-14
-5.41688e-14
-5.50734e-14
-5.58508e-14
-5.65077e-14
-5.70508e-14
-5.74864e-14
-5.78212e-14
-5.80614e-14
-5.82131e-14
-5.82826e-14
-5.82758e-14
-5.81985e-14
-5.80563e-14
-5.78548e-14
-5.75991e-14
-5.72945e-14
-5.69459e-14
-5.6558e-14
-5.61353e-14
-5.56821e-14
-5.52026e-14
-5.47006e-14
-5.41797e-14
-5.36435e-14
-5.30952e-14
-5.25377e-14
-5.19738e-14
-5.14063e-14
-3.23351e-15
-3.14053e-15
-3.04563e-15
-2.94956e-15
-2.85313e-15
-2.75718e-15
-2.6626e-15
-2.57027e-15
-2.48105e-15
-2.39576e-15
-2.31519e-15
-2.24001e-15
-2.17081e-15
-2.10808e-15
-2.05216e-15
-2.00329e-15
-1.96153e-15
-1.92685e-15
-1.89905e-15
-1.87783e-15
-1.86276e-15
-1.85334e-15
-1.84897e-15
-1.84897e-15
-1.85107e-15
)
;
    }
    procBoundary4to3
    {
        type            processor;
        value           uniform -5.96559e-09;
    }
    procBoundary4to5
    {
        type            processor;
        value           uniform 5.96254e-09;
    }
    procBoundary4to6
    {
        type            processor;
        value           nonuniform List<scalar> 
75
(
3.5255e-15
3.55498e-15
3.57741e-15
3.59322e-15
3.60284e-15
3.60667e-15
3.60515e-15
3.59869e-15
3.58769e-15
3.57256e-15
3.55369e-15
3.53146e-15
3.50625e-15
3.47841e-15
3.44831e-15
3.41626e-15
3.38261e-15
3.34765e-15
3.31169e-15
3.27499e-15
3.23783e-15
3.20045e-15
3.16309e-15
3.12595e-15
3.08924e-15
3.05315e-15
3.01784e-15
2.98348e-15
2.9502e-15
2.91815e-15
2.88742e-15
2.85812e-15
2.83034e-15
2.80415e-15
2.77962e-15
2.75681e-15
2.73576e-15
2.71649e-15
2.69905e-15
2.68344e-15
2.66968e-15
2.65777e-15
2.64771e-15
2.6395e-15
2.63311e-15
2.62854e-15
2.62577e-15
2.62476e-15
2.62551e-15
2.62797e-15
2.63212e-15
2.63793e-15
2.64536e-15
2.65438e-15
2.66496e-15
2.67705e-15
2.69063e-15
2.70565e-15
2.72209e-15
2.73992e-15
2.75909e-15
2.77957e-15
2.80133e-15
2.82435e-15
2.84858e-15
2.87399e-15
2.90057e-15
2.92826e-15
2.95705e-15
2.9869e-15
3.01779e-15
3.04969e-15
3.08257e-15
3.11641e-15
3.15117e-15
)
;
    }
    procBoundary4to7
    {
        type            processor;
        value           nonuniform List<scalar> 
50
(
6.18365e-17
1.78508e-16
3.42462e-16
3.9925e-16
6.13894e-16
8.68112e-16
1.11506e-15
1.3489e-15
1.56845e-15
1.77477e-15
1.96837e-15
2.14947e-15
2.31825e-15
2.47494e-15
2.61981e-15
2.75313e-15
2.8752e-15
2.98635e-15
3.08692e-15
3.17725e-15
3.25771e-15
3.32868e-15
3.39054e-15
3.44369e-15
3.48854e-15
1.14251e-15
1.69575e-15
2.25631e-15
2.82054e-15
3.38456e-15
3.94438e-15
4.49592e-15
5.03514e-15
5.5581e-15
6.06102e-15
6.54045e-15
6.99326e-15
7.41675e-15
7.80873e-15
8.16751e-15
8.492e-15
8.78167e-15
9.03659e-15
9.25737e-15
9.44516e-15
9.6016e-15
9.72868e-15
9.82879e-15
9.90487e-15
9.94785e-15
)
;
    }
}


// ************************************************************************* //
