/*--------------------------------*- C++ -*----------------------------------*\
| =========                 |                                                 |
| \\      /  F ield         | OpenFOAM: The Open Source CFD Toolbox           |
|  \\    /   O peration     | Version:  2.4.0                                 |
|   \\  /    A nd           | Web:      www.OpenFOAM.org                      |
|    \\/     M anipulation  |                                                 |
\*---------------------------------------------------------------------------*/
FoamFile
{
    version     2.0;
    format      ascii;
    class       volVectorField;
    location    "0.006";
    object      U;
}
// * * * * * * * * * * * * * * * * * * * * * * * * * * * * * * * * * * * * * //

dimensions      [0 1 -1 0 0 0 0];

internalField   nonuniform List<vector> 
125
(
(7.0533e-07 -0.000408329 0)
(2.09293e-06 0.0016104 0)
(4.02815e-06 -0.00486784 0)
(5.09723e-06 -0.0303652 0)
(1.02411e-05 -0.0419994 0)
(1.56236e-05 -0.0311178 0)
(2.07225e-05 -0.0292848 0)
(2.54852e-05 -0.0294698 0)
(2.99097e-05 -0.0297938 0)
(3.40176e-05 -0.0298711 0)
(3.78242e-05 -0.0298613 0)
(4.13412e-05 -0.029849 0)
(4.45798e-05 -0.029846 0)
(4.75509e-05 -0.0298462 0)
(5.02656e-05 -0.0298465 0)
(5.27348e-05 -0.0298464 0)
(5.49693e-05 -0.0298461 0)
(5.69799e-05 -0.0298459 0)
(5.87768e-05 -0.0298457 0)
(6.03706e-05 -0.0298454 0)
(6.17714e-05 -0.0298452 0)
(6.29892e-05 -0.029845 0)
(6.40339e-05 -0.0298447 0)
(6.49151e-05 -0.0298445 0)
(6.56423e-05 -0.0298442 0)
(6.62248e-05 -0.0298439 0)
(6.66717e-05 -0.0298437 0)
(6.69918e-05 -0.0298434 0)
(6.71937e-05 -0.0298431 0)
(6.72859e-05 -0.0298428 0)
(6.72763e-05 -0.0298426 0)
(6.71729e-05 -0.0298423 0)
(6.69833e-05 -0.029842 0)
(6.67149e-05 -0.0298418 0)
(6.63746e-05 -0.0298415 0)
(6.59693e-05 -0.0298412 0)
(6.55055e-05 -0.0298409 0)
(6.49892e-05 -0.0298407 0)
(6.44265e-05 -0.0298404 0)
(6.38229e-05 -0.0298401 0)
(6.31838e-05 -0.0298399 0)
(6.2514e-05 -0.0298396 0)
(6.18184e-05 -0.0298393 0)
(6.11014e-05 -0.0298391 0)
(6.03669e-05 -0.0298388 0)
(5.9619e-05 -0.0298386 0)
(5.88612e-05 -0.0298383 0)
(5.80967e-05 -0.0298381 0)
(5.73285e-05 -0.0298378 0)
(5.65594e-05 -0.0298376 0)
(5.5792e-05 -0.0298374 0)
(5.50284e-05 -0.0298371 0)
(5.42706e-05 -0.0298369 0)
(5.35205e-05 -0.0298366 0)
(5.27797e-05 -0.0298364 0)
(5.20495e-05 -0.0298362 0)
(5.13312e-05 -0.029836 0)
(5.06257e-05 -0.0298357 0)
(4.99338e-05 -0.0298355 0)
(4.92563e-05 -0.0298353 0)
(4.85937e-05 -0.0298351 0)
(4.79464e-05 -0.0298349 0)
(4.73147e-05 -0.0298347 0)
(4.66986e-05 -0.0298345 0)
(4.60984e-05 -0.0298343 0)
(4.55139e-05 -0.0298341 0)
(4.4945e-05 -0.0298339 0)
(4.43915e-05 -0.0298337 0)
(4.38532e-05 -0.0298335 0)
(4.33298e-05 -0.0298333 0)
(4.28208e-05 -0.0298331 0)
(4.2326e-05 -0.0298329 0)
(4.18448e-05 -0.0298327 0)
(4.13768e-05 -0.0298325 0)
(4.09216e-05 -0.0298323 0)
(4.04786e-05 -0.0298321 0)
(4.00473e-05 -0.0298319 0)
(3.96272e-05 -0.0298318 0)
(3.92179e-05 -0.0298316 0)
(3.88188e-05 -0.0298314 0)
(3.84294e-05 -0.0298312 0)
(3.80492e-05 -0.029831 0)
(3.76779e-05 -0.0298309 0)
(3.73148e-05 -0.0298307 0)
(3.69596e-05 -0.0298305 0)
(3.66118e-05 -0.0298303 0)
(3.6271e-05 -0.0298302 0)
(3.59369e-05 -0.02983 0)
(3.56091e-05 -0.0298298 0)
(3.52872e-05 -0.0298297 0)
(3.49708e-05 -0.0298295 0)
(3.46598e-05 -0.0298293 0)
(3.43538e-05 -0.0298292 0)
(3.40525e-05 -0.029829 0)
(3.37556e-05 -0.0298288 0)
(3.3463e-05 -0.0298287 0)
(3.31744e-05 -0.0298285 0)
(3.28897e-05 -0.0298284 0)
(3.26086e-05 -0.0298282 0)
(3.23309e-05 -0.029828 0)
(1.40748e-06 -0.0298127 0)
(1.64959e-06 -0.0298127 0)
(1.89306e-06 -0.0298127 0)
(2.13631e-06 -0.0298127 0)
(2.37766e-06 -0.0298127 0)
(2.6154e-06 -0.0298127 0)
(2.84781e-06 -0.0298127 0)
(3.07319e-06 -0.0298127 0)
(3.28994e-06 -0.0298127 0)
(3.49652e-06 -0.0298127 0)
(3.69155e-06 -0.0298128 0)
(3.87384e-06 -0.0298128 0)
(4.04237e-06 -0.0298128 0)
(4.19635e-06 -0.0298128 0)
(4.33523e-06 -0.0298129 0)
(4.45869e-06 -0.0298129 0)
(4.56669e-06 -0.0298129 0)
(4.6594e-06 -0.029813 0)
(4.73724e-06 -0.029813 0)
(4.80084e-06 -0.029813 0)
(4.85102e-06 -0.0298131 0)
(4.88877e-06 -0.0298131 0)
(4.91519e-06 -0.0298132 0)
(4.93156e-06 -0.0298132 0)
(4.9392e-06 -0.0298132 0)
)
;

boundaryField
{
    BotWall
    {
        type            fixedValue;
        value           uniform (0 0 0);
    }
    FreeStream
    {
        type            zeroGradient;
    }
    FrontNBack
    {
        type            empty;
    }
    LeftSide
    {
        type            symmetryPlane;
    }
    RightSide
    {
        type            symmetryPlane;
    }
    procBoundary4to1
    {
        type            processor;
        value           nonuniform List<vector> 
50
(
(3.66583e-05 -0.0297631 0)
(3.60534e-05 -0.0297633 0)
(3.54564e-05 -0.0297636 0)
(3.48687e-05 -0.0297638 0)
(3.42913e-05 -0.029764 0)
(3.37252e-05 -0.0297643 0)
(3.31712e-05 -0.0297645 0)
(3.26301e-05 -0.0297648 0)
(3.21024e-05 -0.029765 0)
(3.15885e-05 -0.0297652 0)
(3.10886e-05 -0.0297655 0)
(3.06032e-05 -0.0297657 0)
(3.01321e-05 -0.0297659 0)
(2.96755e-05 -0.0297661 0)
(2.92334e-05 -0.0297663 0)
(2.88054e-05 -0.0297666 0)
(2.83916e-05 -0.0297668 0)
(2.79916e-05 -0.029767 0)
(2.76052e-05 -0.0297672 0)
(2.72319e-05 -0.0297674 0)
(2.68714e-05 -0.0297676 0)
(2.65234e-05 -0.0297678 0)
(2.61874e-05 -0.029768 0)
(2.58629e-05 -0.0297682 0)
(2.55495e-05 -0.0297684 0)
(2.52468e-05 -0.0297686 0)
(2.49542e-05 -0.0297688 0)
(2.46713e-05 -0.029769 0)
(2.43976e-05 -0.0297692 0)
(2.41327e-05 -0.0297694 0)
(2.38761e-05 -0.0297696 0)
(2.36274e-05 -0.0297698 0)
(2.33861e-05 -0.02977 0)
(2.31519e-05 -0.0297702 0)
(2.29243e-05 -0.0297704 0)
(2.2703e-05 -0.0297705 0)
(2.24876e-05 -0.0297707 0)
(2.22777e-05 -0.0297709 0)
(2.20731e-05 -0.0297711 0)
(2.18733e-05 -0.0297713 0)
(2.16782e-05 -0.0297715 0)
(2.14875e-05 -0.0297716 0)
(2.13008e-05 -0.0297718 0)
(2.11181e-05 -0.029772 0)
(2.09389e-05 -0.0297722 0)
(2.07632e-05 -0.0297723 0)
(2.05908e-05 -0.0297725 0)
(2.04214e-05 -0.0297727 0)
(2.0255e-05 -0.0297729 0)
(2.00914e-05 -0.029773 0)
)
;
    }
    procBoundary4to2
    {
        type            processor;
        value           nonuniform List<vector> 
75
(
(6.24377e-07 -0.000402956 0)
(1.85697e-06 0.00158363 0)
(3.61537e-06 -0.00482581 0)
(4.44212e-06 -0.0303608 0)
(7.9157e-06 -0.0417587 0)
(1.17024e-05 -0.031015 0)
(1.53015e-05 -0.0291957 0)
(1.86597e-05 -0.0293782 0)
(2.17716e-05 -0.0296989 0)
(2.46545e-05 -0.0297758 0)
(2.73198e-05 -0.0297665 0)
(2.97757e-05 -0.0297547 0)
(3.20297e-05 -0.029752 0)
(3.40894e-05 -0.0297525 0)
(3.59625e-05 -0.0297532 0)
(3.76569e-05 -0.0297535 0)
(3.91802e-05 -0.0297537 0)
(4.054e-05 -0.0297539 0)
(4.17439e-05 -0.0297542 0)
(4.27994e-05 -0.0297544 0)
(4.37138e-05 -0.0297547 0)
(4.44946e-05 -0.029755 0)
(4.51489e-05 -0.0297552 0)
(4.56839e-05 -0.0297555 0)
(4.61065e-05 -0.0297558 0)
(4.64237e-05 -0.0297561 0)
(4.66423e-05 -0.0297563 0)
(4.67688e-05 -0.0297566 0)
(4.68096e-05 -0.0297569 0)
(4.67712e-05 -0.0297572 0)
(4.66595e-05 -0.0297575 0)
(4.64806e-05 -0.0297578 0)
(4.62401e-05 -0.0297581 0)
(4.59436e-05 -0.0297584 0)
(4.55965e-05 -0.0297587 0)
(4.52038e-05 -0.0297589 0)
(4.47705e-05 -0.0297592 0)
(4.43013e-05 -0.0297595 0)
(4.38006e-05 -0.0297598 0)
(4.32727e-05 -0.0297601 0)
(4.27217e-05 -0.0297604 0)
(4.21512e-05 -0.0297607 0)
(4.15649e-05 -0.0297609 0)
(4.09661e-05 -0.0297612 0)
(4.03579e-05 -0.0297615 0)
(3.97432e-05 -0.0297617 0)
(3.91246e-05 -0.029762 0)
(3.85047e-05 -0.0297623 0)
(3.78857e-05 -0.0297625 0)
(3.72696e-05 -0.0297628 0)
(1.16253e-06 -0.0298118 0)
(8.37435e-07 -0.0298118 0)
(5.1003e-07 -0.0298118 0)
(1.82514e-07 -0.0298118 0)
(-1.42802e-07 -0.0298118 0)
(-4.63539e-07 -0.0298118 0)
(-7.77302e-07 -0.0298118 0)
(-1.08173e-06 -0.0298118 0)
(-1.37456e-06 -0.0298118 0)
(-1.65365e-06 -0.0298118 0)
(-1.91709e-06 -0.0298118 0)
(-2.16317e-06 -0.0298118 0)
(-2.39049e-06 -0.0298118 0)
(-2.59795e-06 -0.0298118 0)
(-2.78477e-06 -0.0298118 0)
(-2.95055e-06 -0.0298119 0)
(-3.09522e-06 -0.0298119 0)
(-3.21907e-06 -0.0298119 0)
(-3.32271e-06 -0.0298119 0)
(-3.40706e-06 -0.029812 0)
(-3.4733e-06 -0.029812 0)
(-3.52285e-06 -0.029812 0)
(-3.55732e-06 -0.029812 0)
(-3.57847e-06 -0.0298121 0)
(-3.58818e-06 -0.029812 0)
)
;
    }
    procBoundary4to3
    {
        type            processor;
        value           uniform (3.20566e-05 -0.0298279 0);
    }
    procBoundary4to5
    {
        type            processor;
        value           uniform (1.16824e-06 -0.0298127 0);
    }
    procBoundary4to6
    {
        type            processor;
        value           nonuniform List<vector> 
75
(
(-5.92061e-05 -0.0298489 0)
(-5.96202e-05 -0.0298486 0)
(-5.99218e-05 -0.0298483 0)
(-6.01184e-05 -0.029848 0)
(-6.02176e-05 -0.0298477 0)
(-6.02265e-05 -0.0298474 0)
(-6.01519e-05 -0.0298471 0)
(-6.00006e-05 -0.0298468 0)
(-5.97791e-05 -0.0298466 0)
(-5.94934e-05 -0.0298463 0)
(-5.91496e-05 -0.029846 0)
(-5.87533e-05 -0.0298457 0)
(-5.831e-05 -0.0298454 0)
(-5.78246e-05 -0.0298451 0)
(-5.73023e-05 -0.0298448 0)
(-5.67475e-05 -0.0298445 0)
(-5.61646e-05 -0.0298442 0)
(-5.55577e-05 -0.029844 0)
(-5.49307e-05 -0.0298437 0)
(-5.42872e-05 -0.0298434 0)
(-5.36304e-05 -0.0298431 0)
(-5.29635e-05 -0.0298428 0)
(-5.22893e-05 -0.0298426 0)
(-5.16105e-05 -0.0298423 0)
(-5.09294e-05 -0.029842 0)
(-5.02481e-05 -0.0298417 0)
(-4.95688e-05 -0.0298415 0)
(-4.88931e-05 -0.0298412 0)
(-4.82225e-05 -0.029841 0)
(-4.75585e-05 -0.0298407 0)
(-4.69023e-05 -0.0298404 0)
(-4.62549e-05 -0.0298402 0)
(-4.56172e-05 -0.0298399 0)
(-4.49899e-05 -0.0298397 0)
(-4.43737e-05 -0.0298394 0)
(-4.3769e-05 -0.0298392 0)
(-4.31761e-05 -0.029839 0)
(-4.25953e-05 -0.0298387 0)
(-4.20267e-05 -0.0298385 0)
(-4.14705e-05 -0.0298383 0)
(-4.09266e-05 -0.029838 0)
(-4.03949e-05 -0.0298378 0)
(-3.98753e-05 -0.0298376 0)
(-3.93675e-05 -0.0298373 0)
(-3.88713e-05 -0.0298371 0)
(-3.83863e-05 -0.0298369 0)
(-3.79124e-05 -0.0298367 0)
(-3.7449e-05 -0.0298364 0)
(-3.69959e-05 -0.0298362 0)
(-3.65526e-05 -0.029836 0)
(-3.61187e-05 -0.0298358 0)
(-3.56937e-05 -0.0298356 0)
(-3.52774e-05 -0.0298354 0)
(-3.48692e-05 -0.0298352 0)
(-3.44687e-05 -0.0298349 0)
(-3.40755e-05 -0.0298347 0)
(-3.36893e-05 -0.0298345 0)
(-3.33096e-05 -0.0298343 0)
(-3.2936e-05 -0.0298341 0)
(-3.25682e-05 -0.0298339 0)
(-3.22059e-05 -0.0298337 0)
(-3.18486e-05 -0.0298335 0)
(-3.14961e-05 -0.0298333 0)
(-3.11481e-05 -0.0298331 0)
(-3.08044e-05 -0.0298329 0)
(-3.04646e-05 -0.0298327 0)
(-3.01285e-05 -0.0298325 0)
(-2.97958e-05 -0.0298324 0)
(-2.94665e-05 -0.0298322 0)
(-2.91403e-05 -0.029832 0)
(-2.88169e-05 -0.0298318 0)
(-2.84964e-05 -0.0298316 0)
(-2.81785e-05 -0.0298314 0)
(-2.7863e-05 -0.0298312 0)
(-2.755e-05 -0.029831 0)
)
;
    }
    procBoundary4to7
    {
        type            processor;
        value           nonuniform List<vector> 
50
(
(-5.77113e-07 -0.000408612 0)
(-1.7153e-06 0.00161182 0)
(-3.29885e-06 -0.00487007 0)
(-4.2364e-06 -0.0303654 0)
(-8.92672e-06 -0.0420121 0)
(-1.37691e-05 -0.0311233 0)
(-1.83471e-05 -0.0292895 0)
(-2.26205e-05 -0.0294747 0)
(-2.65897e-05 -0.0297988 0)
(-3.02736e-05 -0.0298762 0)
(-3.36862e-05 -0.0298664 0)
(-3.68385e-05 -0.0298541 0)
(-3.97408e-05 -0.029851 0)
(-4.24032e-05 -0.0298512 0)
(-4.48362e-05 -0.0298515 0)
(-4.70497e-05 -0.0298514 0)
(-4.90537e-05 -0.0298512 0)
(-5.08578e-05 -0.0298509 0)
(-5.24717e-05 -0.0298507 0)
(-5.39046e-05 -0.0298505 0)
(-5.51658e-05 -0.0298502 0)
(-5.62644e-05 -0.0298499 0)
(-5.72092e-05 -0.0298497 0)
(-5.80087e-05 -0.0298494 0)
(-5.86716e-05 -0.0298491 0)
(-4.81908e-07 -0.0298018 0)
(-2.88373e-07 -0.0298018 0)
(-9.37349e-08 -0.0298018 0)
(1.00712e-07 -0.0298017 0)
(2.93619e-07 -0.0298017 0)
(4.83605e-07 -0.0298017 0)
(6.69288e-07 -0.0298016 0)
(8.49312e-07 -0.0298016 0)
(1.02238e-06 -0.0298015 0)
(1.18727e-06 -0.0298015 0)
(1.3429e-06 -0.0298014 0)
(1.48829e-06 -0.0298014 0)
(1.62266e-06 -0.0298013 0)
(1.74537e-06 -0.0298013 0)
(1.85599e-06 -0.0298012 0)
(1.9543e-06 -0.0298011 0)
(2.04024e-06 -0.0298011 0)
(2.11398e-06 -0.029801 0)
(2.17586e-06 -0.0298009 0)
(2.22639e-06 -0.0298009 0)
(2.26623e-06 -0.0298008 0)
(2.29618e-06 -0.0298007 0)
(2.31711e-06 -0.0298007 0)
(2.33003e-06 -0.0298006 0)
(2.33595e-06 -0.0298005 0)
)
;
    }
}


// ************************************************************************* //
