/*--------------------------------*- C++ -*----------------------------------*\
| =========                 |                                                 |
| \\      /  F ield         | OpenFOAM: The Open Source CFD Toolbox           |
|  \\    /   O peration     | Version:  2.4.0                                 |
|   \\  /    A nd           | Web:      www.OpenFOAM.org                      |
|    \\/     M anipulation  |                                                 |
\*---------------------------------------------------------------------------*/
FoamFile
{
    version     2.0;
    format      ascii;
    class       volScalarField;
    location    "0.2";
    object      H;
}
// * * * * * * * * * * * * * * * * * * * * * * * * * * * * * * * * * * * * * //

dimensions      [0 2 -2 0 0 0 0];

internalField   nonuniform List<scalar> 
8000
(
-11629.3
-10436.9
-9271.53
-8149.62
-7085.88
-6092.5
-5178.8
-4351.02
-3612.34
-2963.05
-2400.87
-1921.38
-1518.49
-1185
-913.034
-694.516
-521.522
-386.574
-282.841
-204.261
-145.596
-102.431
-71.1246
-48.7439
-32.9711
-22.0123
-14.5053
-9.43459
-6.0572
-3.83872
-2.40151
-1.48315
-0.904294
-0.54435
-0.323531
-0.189866
-0.110027
-0.0629647
-0.0355852
-0.019863
-0.010951
-0.0059638
-0.0032083
-0.00170492
-0.000894722
-0.000463039
-0.000234883
-0.000113734
-4.60411e-05
-4.25051e-07
-11629.3
-10436.9
-9271.52
-8149.6
-7085.85
-6092.47
-5178.76
-4350.98
-3612.3
-2963.01
-2400.84
-1921.34
-1518.46
-1184.97
-913.01
-694.496
-521.505
-386.56
-282.83
-204.252
-145.589
-102.425
-71.1207
-48.741
-32.9691
-22.0109
-14.5042
-9.43388
-6.05671
-3.8384
-2.4013
-1.48301
-0.904205
-0.544295
-0.323497
-0.189845
-0.110014
-0.062957
-0.0355807
-0.0198604
-0.0109495
-0.00596296
-0.00320783
-0.00170466
-0.000894581
-0.000462963
-0.000234842
-0.000113712
-4.60277e-05
-4.2485e-07
-11629.3
-10436.9
-9271.51
-8149.58
-7085.83
-6092.44
-5178.74
-4350.95
-3612.27
-2962.98
-2400.81
-1921.32
-1518.44
-1184.95
-912.992
-694.48
-521.492
-386.549
-282.821
-204.245
-145.584
-102.421
-71.1177
-48.7389
-32.9675
-22.0098
-14.5035
-9.43335
-6.05635
-3.83816
-2.40114
-1.48291
-0.90414
-0.544254
-0.323471
-0.18983
-0.110005
-0.0629515
-0.0355774
-0.0198585
-0.0109484
-0.00596234
-0.00320749
-0.00170447
-0.000894477
-0.000462907
-0.000234812
-0.000113696
-4.60182e-05
-4.24596e-07
-11629.3
-10436.9
-9271.5
-8149.58
-7085.82
-6092.44
-5178.72
-4350.94
-3612.26
-2962.97
-2400.8
-1921.31
-1518.43
-1184.94
-912.986
-694.475
-521.488
-386.546
-282.819
-204.243
-145.583
-102.42
-71.117
-48.7384
-32.9672
-22.0095
-14.5033
-9.43325
-6.05629
-3.83812
-2.40112
-1.4829
-0.904131
-0.544249
-0.323468
-0.189828
-0.110004
-0.062951
-0.0355772
-0.0198584
-0.0109483
-0.00596231
-0.00320747
-0.00170446
-0.000894473
-0.000462905
-0.000234811
-0.000113694
-4.6015e-05
-4.24491e-07
-11629.3
-10436.9
-9271.5
-8149.57
-7085.82
-6092.43
-5178.72
-4350.94
-3612.26
-2962.97
-2400.79
-1921.3
-1518.43
-1184.94
-912.984
-694.474
-521.487
-386.546
-282.818
-204.243
-145.583
-102.42
-71.117
-48.7383
-32.9672
-22.0095
-14.5033
-9.43326
-6.0563
-3.83813
-2.40112
-1.4829
-0.904135
-0.544251
-0.32347
-0.189829
-0.110005
-0.0629515
-0.0355775
-0.0198586
-0.0109485
-0.00596237
-0.0032075
-0.00170448
-0.000894482
-0.000462909
-0.000234812
-0.000113693
-4.60125e-05
-4.24365e-07
-11629.3
-10436.9
-9271.5
-8149.58
-7085.82
-6092.43
-5178.72
-4350.94
-3612.26
-2962.97
-2400.8
-1921.31
-1518.43
-1184.95
-912.987
-694.477
-521.489
-386.548
-282.82
-204.245
-145.584
-102.421
-71.1176
-48.7389
-32.9675
-22.0098
-14.5035
-9.4334
-6.0564
-3.83819
-2.40117
-1.48293
-0.904154
-0.544264
-0.323478
-0.189834
-0.110008
-0.0629532
-0.0355785
-0.0198592
-0.0109488
-0.00596256
-0.00320761
-0.00170454
-0.000894515
-0.000462927
-0.000234821
-0.000113697
-4.6012e-05
-4.24313e-07
-11629.3
-10436.9
-9271.51
-8149.58
-7085.83
-6092.44
-5178.73
-4350.94
-3612.27
-2962.98
-2400.8
-1921.31
-1518.43
-1184.95
-912.991
-694.48
-521.492
-386.55
-282.822
-204.246
-145.585
-102.422
-71.1184
-48.7394
-32.968
-22.0101
-14.5037
-9.43356
-6.0565
-3.83827
-2.40122
-1.48296
-0.904175
-0.544277
-0.323486
-0.189839
-0.110011
-0.0629551
-0.0355796
-0.0198598
-0.0109492
-0.00596277
-0.00320773
-0.00170461
-0.00089455
-0.000462945
-0.00023483
-0.0001137
-4.60118e-05
-4.24332e-07
-11629.3
-10436.9
-9271.51
-8149.58
-7085.83
-6092.44
-5178.74
-4350.95
-3612.27
-2962.99
-2400.81
-1921.32
-1518.44
-1184.96
-912.996
-694.484
-521.496
-386.553
-282.824
-204.248
-145.587
-102.423
-71.1193
-48.7401
-32.9685
-22.0105
-14.504
-9.43374
-6.05663
-3.83835
-2.40127
-1.483
-0.904198
-0.544292
-0.323496
-0.189845
-0.110014
-0.0629572
-0.0355808
-0.0198605
-0.0109496
-0.005963
-0.00320786
-0.00170468
-0.000894588
-0.000462965
-0.00023484
-0.000113705
-4.60122e-05
-4.24279e-07
-11629.3
-10436.9
-9271.51
-8149.59
-7085.84
-6092.45
-5178.74
-4350.96
-3612.28
-2962.99
-2400.82
-1921.33
-1518.45
-1184.96
-913.001
-694.488
-521.499
-386.556
-282.827
-204.25
-145.588
-102.425
-71.1202
-48.7408
-32.9689
-22.0108
-14.5042
-9.4339
-6.05674
-3.83842
-2.40132
-1.48303
-0.90422
-0.544305
-0.323504
-0.18985
-0.110017
-0.062959
-0.0355819
-0.0198612
-0.0109499
-0.00596321
-0.00320798
-0.00170474
-0.000894623
-0.000462983
-0.000234849
-0.000113709
-4.60126e-05
-4.24218e-07
-11629.3
-10436.9
-9271.51
-8149.59
-7085.84
-6092.46
-5178.75
-4350.97
-3612.29
-2963
-2400.82
-1921.33
-1518.45
-1184.97
-913.005
-694.492
-521.503
-386.559
-282.829
-204.252
-145.589
-102.426
-71.121
-48.7413
-32.9694
-22.0111
-14.5044
-9.43405
-6.05684
-3.83849
-2.40137
-1.48306
-0.904239
-0.544317
-0.323512
-0.189855
-0.11002
-0.0629607
-0.0355829
-0.0198617
-0.0109503
-0.0059634
-0.00320808
-0.0017048
-0.000894654
-0.000463
-0.000234858
-0.000113713
-4.60132e-05
-4.24219e-07
-11629.3
-10436.9
-9271.52
-8149.59
-7085.85
-6092.46
-5178.75
-4350.97
-3612.29
-2963.01
-2400.83
-1921.34
-1518.46
-1184.97
-913.009
-694.495
-521.505
-386.561
-282.831
-204.253
-145.591
-102.426
-71.1216
-48.7418
-32.9697
-22.0114
-14.5046
-9.43417
-6.05693
-3.83855
-2.40141
-1.48309
-0.904255
-0.544327
-0.323518
-0.189858
-0.110022
-0.0629621
-0.0355837
-0.0198622
-0.0109505
-0.00596355
-0.00320816
-0.00170485
-0.000894679
-0.000463013
-0.000234864
-0.000113716
-4.60137e-05
-4.24127e-07
-11629.3
-10436.9
-9271.52
-8149.6
-7085.85
-6092.46
-5178.76
-4350.98
-3612.3
-2963.01
-2400.83
-1921.34
-1518.46
-1184.97
-913.012
-694.498
-521.508
-386.563
-282.832
-204.254
-145.591
-102.427
-71.1222
-48.7422
-32.97
-22.0116
-14.5048
-9.43428
-6.057
-3.8386
-2.40144
-1.48311
-0.904268
-0.544336
-0.323523
-0.189862
-0.110024
-0.0629632
-0.0355844
-0.0198626
-0.0109508
-0.00596368
-0.00320823
-0.00170488
-0.0008947
-0.000463024
-0.00023487
-0.000113718
-4.60143e-05
-4.24083e-07
-11629.3
-10436.9
-9271.52
-8149.6
-7085.85
-6092.47
-5178.76
-4350.98
-3612.3
-2963.01
-2400.84
-1921.34
-1518.46
-1184.98
-913.015
-694.5
-521.509
-386.564
-282.833
-204.255
-145.592
-102.428
-71.1226
-48.7425
-32.9702
-22.0117
-14.5049
-9.43436
-6.05705
-3.83864
-2.40146
-1.48312
-0.904278
-0.544342
-0.323527
-0.189864
-0.110026
-0.0629642
-0.035585
-0.0198629
-0.010951
-0.00596378
-0.0032083
-0.00170492
-0.000894718
-0.000463034
-0.000234875
-0.000113721
-4.60151e-05
-4.24185e-07
-11629.3
-10436.9
-9271.52
-8149.6
-7085.85
-6092.47
-5178.76
-4350.98
-3612.3
-2963.02
-2400.84
-1921.35
-1518.47
-1184.98
-913.016
-694.502
-521.511
-386.565
-282.834
-204.256
-145.593
-102.428
-71.1229
-48.7428
-32.9704
-22.0119
-14.505
-9.43443
-6.0571
-3.83867
-2.40148
-1.48314
-0.904288
-0.544348
-0.323531
-0.189867
-0.110027
-0.0629651
-0.0355855
-0.0198632
-0.0109511
-0.00596388
-0.00320835
-0.00170495
-0.000894735
-0.000463043
-0.00023488
-0.000113723
-4.6016e-05
-4.24084e-07
-11629.3
-10436.9
-9271.52
-8149.6
-7085.86
-6092.47
-5178.77
-4350.98
-3612.31
-2963.02
-2400.84
-1921.35
-1518.47
-1184.98
-913.018
-694.503
-521.512
-386.566
-282.835
-204.257
-145.593
-102.428
-71.1232
-48.743
-32.9706
-22.012
-14.5051
-9.43448
-6.05714
-3.83869
-2.4015
-1.48315
-0.904294
-0.544353
-0.323534
-0.189868
-0.110028
-0.0629657
-0.0355859
-0.0198634
-0.0109513
-0.00596395
-0.00320839
-0.00170497
-0.000894746
-0.000463049
-0.000234883
-0.000113725
-4.60166e-05
-4.24099e-07
-11629.3
-10436.9
-9271.52
-8149.6
-7085.86
-6092.47
-5178.77
-4350.98
-3612.31
-2963.02
-2400.84
-1921.35
-1518.47
-1184.98
-913.019
-694.503
-521.512
-386.567
-282.835
-204.257
-145.593
-102.429
-71.1233
-48.7431
-32.9706
-22.012
-14.5051
-9.43451
-6.05715
-3.8387
-2.40151
-1.48315
-0.904298
-0.544355
-0.323535
-0.189869
-0.110029
-0.0629659
-0.035586
-0.0198635
-0.0109513
-0.00596398
-0.00320841
-0.00170498
-0.000894751
-0.000463052
-0.000234885
-0.000113725
-4.60169e-05
-4.24152e-07
-11629.3
-10436.9
-9271.52
-8149.6
-7085.86
-6092.47
-5178.77
-4350.99
-3612.31
-2963.02
-2400.84
-1921.35
-1518.47
-1184.98
-913.019
-694.504
-521.512
-386.567
-282.836
-204.257
-145.594
-102.429
-71.1234
-48.7431
-32.9707
-22.0121
-14.5051
-9.43451
-6.05716
-3.83871
-2.40151
-1.48315
-0.904298
-0.544355
-0.323535
-0.189869
-0.110029
-0.062966
-0.035586
-0.0198635
-0.0109513
-0.00596398
-0.00320841
-0.00170498
-0.000894751
-0.000463052
-0.000234885
-0.000113725
-4.60169e-05
-4.24212e-07
-11629.3
-10436.9
-9271.52
-8149.6
-7085.86
-6092.47
-5178.77
-4350.99
-3612.31
-2963.02
-2400.84
-1921.35
-1518.47
-1184.98
-913.019
-694.504
-521.512
-386.567
-282.836
-204.257
-145.593
-102.429
-71.1233
-48.7431
-32.9706
-22.012
-14.5051
-9.4345
-6.05715
-3.8387
-2.40151
-1.48315
-0.904297
-0.544354
-0.323534
-0.189869
-0.110029
-0.0629658
-0.0355859
-0.0198635
-0.0109513
-0.00596396
-0.0032084
-0.00170497
-0.000894748
-0.00046305
-0.000234884
-0.000113725
-4.60167e-05
-4.24103e-07
-11629.3
-10436.9
-9271.52
-8149.6
-7085.86
-6092.47
-5178.77
-4350.99
-3612.31
-2963.02
-2400.84
-1921.35
-1518.47
-1184.98
-913.019
-694.503
-521.512
-386.567
-282.835
-204.257
-145.593
-102.429
-71.1233
-48.743
-32.9706
-22.012
-14.5051
-9.43449
-6.05714
-3.83869
-2.4015
-1.48315
-0.904294
-0.544352
-0.323534
-0.189868
-0.110028
-0.0629656
-0.0355858
-0.0198634
-0.0109512
-0.00596394
-0.00320838
-0.00170496
-0.000894743
-0.000463048
-0.000234882
-0.000113724
-4.60164e-05
-4.2413e-07
-11629.3
-10436.9
-9271.52
-8149.6
-7085.86
-6092.47
-5178.77
-4350.99
-3612.31
-2963.02
-2400.84
-1921.35
-1518.47
-1184.98
-913.018
-694.503
-521.512
-386.566
-282.835
-204.257
-145.593
-102.428
-71.1232
-48.743
-32.9705
-22.012
-14.5051
-9.43447
-6.05713
-3.83869
-2.4015
-1.48315
-0.904292
-0.544351
-0.323532
-0.189867
-0.110028
-0.0629653
-0.0355857
-0.0198633
-0.0109512
-0.00596391
-0.00320836
-0.00170495
-0.000894738
-0.000463045
-0.000234881
-0.000113723
-4.60161e-05
-4.24166e-07
-9.58153e-08
-7.94173e-08
-6.63058e-08
-5.53772e-08
-4.61548e-08
-3.84376e-08
-3.20065e-08
-2.66299e-08
-2.2089e-08
-1.83478e-08
-1.5236e-08
-1.26357e-08
-1.0441e-08
-8.63453e-09
-7.14241e-09
-5.90259e-09
-4.86066e-09
-4.00286e-09
-3.29602e-09
-2.71765e-09
-2.235e-09
-1.82853e-09
-1.50447e-09
-1.2277e-09
-9.95278e-10
-8.18196e-10
-6.69296e-10
-5.67351e-10
-4.68791e-10
-3.5705e-10
-2.8815e-10
-2.55117e-10
-1.85354e-10
-1.60837e-10
-1.58302e-10
-1.17338e-10
-4.67232e-11
-6.9747e-11
-4.22919e-11
-5.2657e-11
-5.08123e-11
-5.75525e-11
-3.29209e-11
-6.01668e-11
-3.90143e-11
-1.17901e-11
1.00198e-12
2.24122e-12
8.00305e-13
3.22182e-14
-9.67252e-08
-8.05117e-08
-6.71985e-08
-5.60299e-08
-4.66719e-08
-3.8856e-08
-3.23093e-08
-2.68683e-08
-2.2285e-08
-1.85306e-08
-1.53443e-08
-1.27198e-08
-1.05114e-08
-8.70507e-09
-7.1792e-09
-5.94516e-09
-4.89196e-09
-4.02092e-09
-3.31073e-09
-2.73954e-09
-2.24266e-09
-1.83685e-09
-1.50522e-09
-1.23483e-09
-9.95991e-10
-8.25404e-10
-6.75676e-10
-5.77086e-10
-4.4867e-10
-3.77065e-10
-2.75783e-10
-2.64275e-10
-1.90727e-10
-1.60447e-10
-1.55178e-10
-1.16502e-10
-5.43072e-11
-4.58745e-11
-6.92189e-11
-4.83098e-11
-5.20468e-11
-5.01509e-11
-4.89239e-11
-4.89916e-11
-3.94212e-11
-1.179e-11
8.92964e-13
2.18425e-12
8.11164e-13
4.83657e-14
-9.69982e-08
-8.09186e-08
-6.75771e-08
-5.62909e-08
-4.69044e-08
-3.90507e-08
-3.2478e-08
-2.69997e-08
-2.23929e-08
-1.86208e-08
-1.54315e-08
-1.27615e-08
-1.059e-08
-8.74206e-09
-7.22247e-09
-5.97458e-09
-4.90999e-09
-4.05966e-09
-3.33537e-09
-2.74886e-09
-2.24387e-09
-1.84878e-09
-1.51835e-09
-1.24844e-09
-9.96369e-10
-8.36745e-10
-6.84801e-10
-5.65662e-10
-4.71066e-10
-3.66874e-10
-2.87787e-10
-2.59283e-10
-1.95103e-10
-1.51876e-10
-1.55953e-10
-1.26657e-10
-5.12949e-11
-5.01799e-11
-5.42897e-11
-6.52788e-11
-3.50712e-11
-5.64874e-11
-3.88445e-11
-5.01384e-11
-4.79205e-11
-1.38614e-11
5.3049e-13
2.31483e-12
9.17301e-13
7.0422e-14
-9.70629e-08
-8.10338e-08
-6.76769e-08
-5.63859e-08
-4.69855e-08
-3.91138e-08
-3.25415e-08
-2.70385e-08
-2.2476e-08
-1.86542e-08
-1.54619e-08
-1.28049e-08
-1.05998e-08
-8.77321e-09
-7.23909e-09
-5.97104e-09
-4.93872e-09
-4.06974e-09
-3.35569e-09
-2.74726e-09
-2.26848e-09
-1.85918e-09
-1.50676e-09
-1.25421e-09
-9.99213e-10
-8.44486e-10
-6.79855e-10
-5.67506e-10
-4.63859e-10
-3.7823e-10
-2.89134e-10
-2.56169e-10
-2.07843e-10
-1.4216e-10
-1.59551e-10
-1.26416e-10
-4.99784e-11
-6.08199e-11
-5.53634e-11
-4.75334e-11
-5.43632e-11
-5.79187e-11
-3.26915e-11
-5.91807e-11
-4.15959e-11
-1.23737e-11
8.14328e-13
2.25381e-12
8.69067e-13
6.36439e-14
-9.71452e-08
-8.11667e-08
-6.77512e-08
-5.64614e-08
-4.7033e-08
-3.91806e-08
-3.25811e-08
-2.70832e-08
-2.25048e-08
-1.86749e-08
-1.5482e-08
-1.28447e-08
-1.06069e-08
-8.7753e-09
-7.2601e-09
-6.00387e-09
-4.93123e-09
-4.07927e-09
-3.36363e-09
-2.75471e-09
-2.25742e-09
-1.87329e-09
-1.51667e-09
-1.25947e-09
-1.00124e-09
-8.4771e-10
-6.85912e-10
-5.6719e-10
-4.72082e-10
-3.60742e-10
-3.0235e-10
-2.53424e-10
-2.0567e-10
-1.43321e-10
-1.6032e-10
-1.2596e-10
-5.46398e-11
-5.71836e-11
-6.51984e-11
-4.36948e-11
-5.76013e-11
-3.56241e-11
-4.81869e-11
-4.9281e-11
-4.67459e-11
-1.45004e-11
3.05194e-13
2.35132e-12
9.72573e-13
8.57918e-14
-9.7145e-08
-8.1166e-08
-6.77627e-08
-5.64731e-08
-4.70467e-08
-3.91946e-08
-3.26077e-08
-2.70913e-08
-2.24969e-08
-1.86935e-08
-1.54975e-08
-1.28458e-08
-1.06211e-08
-8.78971e-09
-7.27285e-09
-5.99583e-09
-4.94314e-09
-4.08582e-09
-3.36861e-09
-2.75079e-09
-2.25983e-09
-1.86255e-09
-1.52298e-09
-1.26345e-09
-1.00688e-09
-8.5258e-10
-6.70722e-10
-5.80501e-10
-4.70618e-10
-3.66873e-10
-2.93287e-10
-2.56274e-10
-2.01657e-10
-1.51636e-10
-1.65202e-10
-1.25451e-10
-6.13125e-11
-4.96527e-11
-4.26233e-11
-6.19288e-11
-5.90841e-11
-3.66566e-11
-4.69412e-11
-4.87439e-11
-4.68808e-11
-1.43396e-11
3.08895e-13
2.2586e-12
9.22289e-13
7.97604e-14
-9.72025e-08
-8.11469e-08
-6.77694e-08
-5.64677e-08
-4.7053e-08
-3.91877e-08
-3.2608e-08
-2.7101e-08
-2.24997e-08
-1.86912e-08
-1.54992e-08
-1.2835e-08
-1.06299e-08
-8.7947e-09
-7.26049e-09
-6.00809e-09
-4.93781e-09
-4.09677e-09
-3.35102e-09
-2.76574e-09
-2.2664e-09
-1.86141e-09
-1.52279e-09
-1.26903e-09
-9.99473e-10
-8.51295e-10
-6.71472e-10
-5.80226e-10
-4.72303e-10
-3.68403e-10
-2.93347e-10
-2.66363e-10
-1.96137e-10
-1.66518e-10
-1.44247e-10
-1.25644e-10
-5.69751e-11
-5.1767e-11
-5.55135e-11
-5.08105e-11
-5.8449e-11
-4.85938e-11
-4.4758e-11
-4.98458e-11
-4.20272e-11
-1.36449e-11
-3.78204e-17
2.00758e-12
8.9285e-13
1.17132e-13
-9.71821e-08
-8.114e-08
-6.7746e-08
-5.64731e-08
-4.70416e-08
-3.9181e-08
-3.26102e-08
-2.70996e-08
-2.24882e-08
-1.86931e-08
-1.55061e-08
-1.28304e-08
-1.06324e-08
-8.7915e-09
-7.26112e-09
-6.01066e-09
-4.94887e-09
-4.07267e-09
-3.37777e-09
-2.74351e-09
-2.27111e-09
-1.86526e-09
-1.52369e-09
-1.26546e-09
-9.99807e-10
-8.55071e-10
-6.81009e-10
-5.67697e-10
-4.66353e-10
-3.65744e-10
-2.99721e-10
-2.68082e-10
-2.03317e-10
-1.42826e-10
-1.60321e-10
-1.2241e-10
-6.13487e-11
-4.26223e-11
-6.56495e-11
-4.70331e-11
-6.06213e-11
-4.74097e-11
-4.10495e-11
-5.23765e-11
-4.23395e-11
-1.39797e-11
2.16785e-14
2.06311e-12
9.03524e-13
1.11983e-13
-9.71521e-08
-8.11367e-08
-6.77285e-08
-5.64609e-08
-4.70427e-08
-3.91864e-08
-3.25944e-08
-2.70978e-08
-2.24893e-08
-1.86933e-08
-1.55038e-08
-1.28293e-08
-1.06318e-08
-8.79267e-09
-7.26175e-09
-6.00923e-09
-4.93942e-09
-4.09758e-09
-3.35028e-09
-2.76308e-09
-2.26622e-09
-1.87048e-09
-1.51227e-09
-1.27011e-09
-1.00057e-09
-8.51968e-10
-6.8364e-10
-5.67731e-10
-4.63855e-10
-3.76506e-10
-2.91885e-10
-2.63272e-10
-1.94511e-10
-1.58892e-10
-1.57544e-10
-1.23914e-10
-4.92493e-11
-5.75743e-11
-6.60022e-11
-4.07099e-11
-5.82075e-11
-3.78046e-11
-6.04035e-11
-3.88067e-11
-4.8412e-11
-1.4072e-11
2.76809e-13
2.29636e-12
9.58367e-13
9.13615e-14
-9.71709e-08
-8.11415e-08
-6.77245e-08
-5.64729e-08
-4.70382e-08
-3.91841e-08
-3.25936e-08
-2.70911e-08
-2.25036e-08
-1.86859e-08
-1.54959e-08
-1.2848e-08
-1.06244e-08
-8.79127e-09
-7.27337e-09
-5.99582e-09
-4.94439e-09
-4.09998e-09
-3.35183e-09
-2.76241e-09
-2.26111e-09
-1.86306e-09
-1.52354e-09
-1.26312e-09
-1.00741e-09
-8.55464e-10
-6.71461e-10
-5.8058e-10
-4.70877e-10
-3.67985e-10
-2.88202e-10
-2.67414e-10
-1.98691e-10
-1.51088e-10
-1.50099e-10
-1.34663e-10
-5.73758e-11
-4.3032e-11
-6.59861e-11
-4.57445e-11
-6.03542e-11
-4.58961e-11
-4.04195e-11
-6.06071e-11
-3.96509e-11
-1.25538e-11
7.22316e-13
2.32728e-12
9.07932e-13
6.63432e-14
-9.71159e-08
-8.11113e-08
-6.77069e-08
-5.64697e-08
-4.70401e-08
-3.91743e-08
-3.25918e-08
-2.70977e-08
-2.24997e-08
-1.86915e-08
-1.54981e-08
-1.28358e-08
-1.0633e-08
-8.79466e-09
-7.2631e-09
-6.01071e-09
-4.93924e-09
-4.09721e-09
-3.35165e-09
-2.76781e-09
-2.26841e-09
-1.8666e-09
-1.51065e-09
-1.26545e-09
-1.00433e-09
-8.54477e-10
-6.77743e-10
-5.74929e-10
-4.72685e-10
-3.67441e-10
-2.8751e-10
-2.72385e-10
-1.97168e-10
-1.52406e-10
-1.55174e-10
-1.22776e-10
-6.10542e-11
-5.57439e-11
-4.49002e-11
-6.56062e-11
-3.60793e-11
-5.76964e-11
-5.37108e-11
-4.19295e-11
-4.39994e-11
-1.45355e-11
2.15011e-13
2.3413e-12
9.77042e-13
8.95913e-14
-9.70903e-08
-8.11104e-08
-6.76807e-08
-5.64617e-08
-4.703e-08
-3.91711e-08
-3.25911e-08
-2.70963e-08
-2.24991e-08
-1.86941e-08
-1.55027e-08
-1.28396e-08
-1.06354e-08
-8.79468e-09
-7.25965e-09
-6.01296e-09
-4.94941e-09
-4.09391e-09
-3.35463e-09
-2.75387e-09
-2.27025e-09
-1.87561e-09
-1.52431e-09
-1.26729e-09
-1.00007e-09
-8.53725e-10
-6.72721e-10
-5.76409e-10
-4.77036e-10
-3.67196e-10
-2.905e-10
-2.63952e-10
-2.00912e-10
-1.48923e-10
-1.61781e-10
-1.28239e-10
-5.6345e-11
-5.53307e-11
-5.34567e-11
-4.22027e-11
-5.5539e-11
-4.70003e-11
-4.73716e-11
-4.92562e-11
-4.46797e-11
-1.49435e-11
-2.17806e-14
2.24721e-12
9.72628e-13
1.05309e-13
-9.7135e-08
-8.10615e-08
-6.76682e-08
-5.64382e-08
-4.70147e-08
-3.9154e-08
-3.2586e-08
-2.70927e-08
-2.24953e-08
-1.86932e-08
-1.55041e-08
-1.28308e-08
-1.06463e-08
-8.79133e-09
-7.26754e-09
-6.00616e-09
-4.94874e-09
-4.09869e-09
-3.35603e-09
-2.75667e-09
-2.27822e-09
-1.86849e-09
-1.51485e-09
-1.27657e-09
-1.00509e-09
-8.48601e-10
-6.79877e-10
-5.77305e-10
-4.71526e-10
-3.6313e-10
-2.94855e-10
-2.68607e-10
-1.91652e-10
-1.64566e-10
-1.42163e-10
-1.34528e-10
-4.80544e-11
-5.81423e-11
-5.69116e-11
-6.14638e-11
-3.85635e-11
-5.86852e-11
-3.82467e-11
-4.85797e-11
-4.79883e-11
-1.39257e-11
5.95291e-13
2.3944e-12
9.4677e-13
6.6499e-14
-9.69689e-08
-8.09644e-08
-6.75973e-08
-5.63821e-08
-4.69848e-08
-3.91159e-08
-3.25805e-08
-2.70633e-08
-2.25032e-08
-1.86721e-08
-1.54876e-08
-1.28368e-08
-1.0627e-08
-8.79078e-09
-7.27567e-09
-5.99982e-09
-4.95722e-09
-4.08492e-09
-3.35842e-09
-2.75588e-09
-2.27934e-09
-1.87093e-09
-1.5134e-09
-1.26987e-09
-1.00871e-09
-8.49667e-10
-6.79606e-10
-5.77647e-10
-4.70725e-10
-3.67239e-10
-2.96624e-10
-2.58046e-10
-2.05269e-10
-1.42316e-10
-1.65331e-10
-1.30736e-10
-5.62643e-11
-4.98856e-11
-5.35083e-11
-5.4085e-11
-4.59847e-11
-4.79123e-11
-4.92628e-11
-4.94826e-11
-4.53506e-11
-1.43083e-11
3.86465e-13
2.32951e-12
9.34455e-13
7.19186e-14
-9.69547e-08
-8.0913e-08
-6.75607e-08
-5.63542e-08
-4.69379e-08
-3.91071e-08
-3.25109e-08
-2.70512e-08
-2.2493e-08
-1.86599e-08
-1.54731e-08
-1.28339e-08
-1.06031e-08
-8.78121e-09
-7.27266e-09
-5.99538e-09
-4.93806e-09
-4.09419e-09
-3.35786e-09
-2.75149e-09
-2.27481e-09
-1.86459e-09
-1.524e-09
-1.26195e-09
-1.00446e-09
-8.56694e-10
-6.72581e-10
-5.73772e-10
-4.71979e-10
-3.6799e-10
-2.88152e-10
-2.6895e-10
-1.90897e-10
-1.69155e-10
-1.42031e-10
-1.34329e-10
-4.85216e-11
-6.97021e-11
-3.43814e-11
-6.69857e-11
-3.95635e-11
-5.97746e-11
-5.33956e-11
-4.11028e-11
-4.35886e-11
-1.43423e-11
2.4744e-13
2.30019e-12
9.44572e-13
8.12987e-14
-9.69515e-08
-8.09027e-08
-6.75639e-08
-5.62979e-08
-4.69117e-08
-3.90776e-08
-3.25223e-08
-2.70289e-08
-2.24478e-08
-1.86625e-08
-1.54463e-08
-1.28265e-08
-1.06078e-08
-8.7671e-09
-7.25915e-09
-5.99442e-09
-4.93211e-09
-4.08537e-09
-3.36197e-09
-2.75566e-09
-2.26121e-09
-1.86173e-09
-1.52243e-09
-1.26379e-09
-1.00606e-09
-8.48912e-10
-6.69693e-10
-5.80631e-10
-4.70985e-10
-3.68202e-10
-2.87595e-10
-2.68475e-10
-1.91348e-10
-1.66771e-10
-1.41442e-10
-1.35445e-10
-5.76758e-11
-5.01963e-11
-4.38792e-11
-6.48682e-11
-4.91643e-11
-4.61198e-11
-4.40273e-11
-5.09725e-11
-4.56574e-11
-1.44992e-11
2.64761e-13
2.26869e-12
9.25539e-13
8.00124e-14
-9.69976e-08
-8.08862e-08
-6.75324e-08
-5.63017e-08
-4.6905e-08
-3.90651e-08
-3.25136e-08
-2.70234e-08
-2.24249e-08
-1.86489e-08
-1.54623e-08
-1.28109e-08
-1.05909e-08
-8.77561e-09
-7.25142e-09
-5.98949e-09
-4.92548e-09
-4.07442e-09
-3.36621e-09
-2.74665e-09
-2.26443e-09
-1.86826e-09
-1.51588e-09
-1.25992e-09
-1.00337e-09
-8.39937e-10
-6.86875e-10
-5.66447e-10
-4.73028e-10
-3.68086e-10
-2.90969e-10
-2.67883e-10
-2.04087e-10
-1.42802e-10
-1.60328e-10
-1.20741e-10
-6.06237e-11
-5.56637e-11
-4.6443e-11
-6.70321e-11
-3.99759e-11
-5.82211e-11
-3.83872e-11
-5.91299e-11
-3.85107e-11
-1.24944e-11
5.74041e-13
2.25458e-12
8.93853e-13
6.98549e-14
-9.69322e-08
-8.08882e-08
-6.75361e-08
-5.63001e-08
-4.69021e-08
-3.9063e-08
-3.2523e-08
-2.7019e-08
-2.24199e-08
-1.86425e-08
-1.54519e-08
-1.28101e-08
-1.05943e-08
-8.77465e-09
-7.25308e-09
-5.98463e-09
-4.92285e-09
-4.07531e-09
-3.36227e-09
-2.74375e-09
-2.26894e-09
-1.8662e-09
-1.51453e-09
-1.25806e-09
-1.00017e-09
-8.47061e-10
-6.73913e-10
-5.77768e-10
-4.74354e-10
-3.63135e-10
-2.89489e-10
-2.63689e-10
-2.01104e-10
-1.46166e-10
-1.6236e-10
-1.23728e-10
-5.05215e-11
-6.35046e-11
-4.5637e-11
-6.27711e-11
-3.92011e-11
-5.96062e-11
-5.26257e-11
-3.74934e-11
-4.67915e-11
-1.27681e-11
7.14328e-13
2.27864e-12
8.68461e-13
4.85112e-14
-9.69464e-08
-8.0904e-08
-6.75672e-08
-5.63006e-08
-4.69045e-08
-3.9081e-08
-3.25149e-08
-2.70211e-08
-2.24288e-08
-1.86455e-08
-1.54538e-08
-1.28109e-08
-1.05933e-08
-8.77252e-09
-7.24597e-09
-5.97183e-09
-4.93731e-09
-4.06609e-09
-3.36495e-09
-2.7458e-09
-2.26817e-09
-1.86316e-09
-1.51123e-09
-1.25622e-09
-9.99389e-10
-8.45218e-10
-6.86765e-10
-5.67879e-10
-4.65002e-10
-3.77044e-10
-2.8919e-10
-2.53416e-10
-1.9858e-10
-1.65822e-10
-1.43502e-10
-1.2266e-10
-5.99285e-11
-5.62453e-11
-5.52295e-11
-5.00995e-11
-6.06544e-11
-3.88518e-11
-5.80879e-11
-3.71961e-11
-4.76929e-11
-1.31923e-11
6.51712e-13
2.29156e-12
8.86409e-13
5.81028e-14
-9.70124e-08
-8.09426e-08
-6.75682e-08
-5.63227e-08
-4.69145e-08
-3.90836e-08
-3.25221e-08
-2.70246e-08
-2.24311e-08
-1.86489e-08
-1.54535e-08
-1.28105e-08
-1.05931e-08
-8.77231e-09
-7.24735e-09
-5.97604e-09
-4.94072e-09
-4.06211e-09
-3.36164e-09
-2.74874e-09
-2.26799e-09
-1.85988e-09
-1.51202e-09
-1.25981e-09
-1.00194e-09
-8.46469e-10
-6.78779e-10
-5.6734e-10
-4.70313e-10
-3.6125e-10
-2.96579e-10
-2.58973e-10
-1.99846e-10
-1.59594e-10
-1.52075e-10
-1.28791e-10
-5.48674e-11
-4.81759e-11
-5.60898e-11
-6.63908e-11
-3.9185e-11
-5.91913e-11
-3.85562e-11
-4.63074e-11
-4.57466e-11
-1.3117e-11
4.78646e-13
2.14874e-12
8.45805e-13
5.99543e-14
-7.1029e-14
-6.55539e-14
-3.63245e-14
-1.10924e-14
2.18934e-15
5.70967e-15
4.34022e-15
1.87126e-15
1.07945e-16
-6.19699e-16
-6.46917e-16
-3.99733e-16
-1.51454e-16
-2.57511e-18
5.13728e-17
5.05174e-17
3.09724e-17
1.26549e-17
1.83708e-18
-2.34226e-18
-2.76881e-18
-1.84068e-18
-8.48071e-19
-2.19774e-19
5.40449e-20
1.14822e-19
8.84626e-20
4.65989e-20
1.64454e-20
1.37901e-21
-3.51232e-21
-3.5987e-21
-2.27134e-21
-1.03641e-21
-2.87307e-22
4.43277e-23
1.30844e-22
1.11063e-22
6.46785e-23
2.60512e-23
3.7119e-24
-5.11963e-24
-6.13865e-24
-4.1169e-24
-1.82939e-24
-3.3989e-25
2.90867e-25
3.79562e-25
2.51253e-25
1.04193e-25
1.25799e-26
-2.21434e-26
-2.35997e-26
-1.37515e-26
-4.60454e-27
2.89258e-28
1.67226e-27
1.341e-27
6.28998e-28
1.24474e-28
-8.49623e-29
-1.07982e-28
-6.41209e-29
-2.08546e-29
1.76434e-30
7.51056e-30
5.55137e-30
2.29278e-30
2.41464e-31
-4.59693e-31
-4.303e-31
-2.08212e-31
-4.23734e-32
2.47272e-32
3.06374e-32
1.66898e-32
4.40517e-33
-1.14556e-33
-2.02961e-33
-1.21062e-33
-3.66116e-34
4.41404e-35
1.2611e-34
8.02131e-35
2.60069e-35
-1.40071e-36
-7.40659e-36
-4.8696e-36
-1.61047e-36
4.85579e-38
4.14163e-37
2.7078e-37
8.70927e-38
-3.62521e-39
-2.21088e-38
-1.37348e-38
-4.06576e-39
3.75949e-40
1.11905e-39
6.29029e-40
1.58686e-40
-3.25561e-41
-5.27372e-41
-2.54955e-41
-4.76145e-42
2.2263e-42
2.24878e-42
8.81332e-43
7.83134e-44
-1.21947e-43
-8.34761e-44
-2.41087e-44
1.89365e-45
5.36368e-45
2.55327e-45
4.20018e-46
-2.20126e-46
-1.85815e-46
-5.82445e-47
1.32801e-48
1.01856e-47
4.80841e-48
7.21084e-49
-4.07151e-49
-3.04324e-49
-8.03198e-50
8.5964e-51
1.57829e-50
5.83392e-51
3.20014e-52
-6.84213e-52
-3.39292e-52
-5.04797e-53
2.45852e-53
1.68614e-53
3.66322e-54
-6.94232e-55
-7.38602e-55
-2.0252e-55
1.22776e-56
2.90558e-56
9.45152e-57
1.15194e-58
-1.0404e-57
-3.87765e-58
-2.25923e-59
3.42968e-59
1.42797e-59
1.26293e-60
-1.05223e-60
-4.77889e-61
-5.13601e-62
3.03754e-62
1.46495e-62
1.72251e-63
-8.33782e-64
-4.13371e-64
-4.95166e-65
2.19454e-65
1.07617e-65
1.23192e-66
-5.55939e-67
-2.58351e-67
-2.62649e-68
1.35142e-68
5.69594e-69
4.62109e-70
-3.12055e-70
-1.14376e-70
-5.97583e-72
6.73871e-72
2.06338e-72
2.77367e-74
-1.33598e-73
-3.27454e-74
1.28751e-75
2.38455e-75
4.4173e-76
-5.16646e-77
-3.75445e-77
-4.73465e-78
1.20802e-78
5.09547e-79
3.29043e-80
-2.1336e-80
-5.77737e-81
3.93502e-83
3.01216e-82
5.17754e-83
-5.6126e-84
-3.43158e-84
-3.16693e-85
1.04078e-85
3.1008e-86
3.99935e-88
-1.25928e-87
-2.0975e-88
1.97453e-89
1.12695e-89
8.64479e-91
-3.05872e-91
-7.48493e-92
8.61792e-94
2.77458e-93
3.36382e-94
-5.05147e-95
-1.75752e-95
-5.59404e-97
4.87455e-97
7.5983e-98
-5.73742e-99
-2.90768e-99
-1.66128e-100
6.32595e-101
1.15241e-101
-4.54727e-103
-3.50598e-103
-2.48773e-104
6.2291e-105
1.23451e-105
-2.67628e-107
-3.13832e-107
-2.38371e-108
4.74513e-109
9.54697e-110
-1.42209e-111
-2.10366e-111
-1.55182e-112
2.82041e-113
5.37532e-114
-8.4549e-116
-1.05729e-115
-6.9719e-117
1.30272e-117
2.20463e-118
-4.93418e-120
-3.96734e-120
-2.14447e-121
4.61197e-122
6.55248e-123
-2.22973e-124
-1.10261e-124
-4.35438e-126
1.22947e-126
1.3968e-127
-7.1061e-129
-2.24672e-129
-5.21166e-131
2.4265e-131
2.09993e-132
-1.57074e-133
-3.31753e-134
-1.82158e-136
3.49508e-136
2.16233e-137
-2.41392e-138
-3.50201e-139
4.93463e-141
3.63058e-141
1.43313e-142
-2.59095e-143
-2.59637e-144
9.66631e-146
2.69041e-146
5.00293e-148
-1.94774e-148
-1.31476e-149
8.98242e-151
1.40548e-151
-2.88906e-154
-1.0258e-153
-4.29591e-155
5.18804e-156
5.09268e-157
-1.25476e-158
-3.77466e-159
-7.60736e-161
1.99205e-161
1.2447e-162
-6.67865e-164
-9.63795e-165
1.45333e-168
5.21041e-167
1.92877e-168
-1.97456e-169
-1.68363e-170
3.67515e-172
9.35817e-173
1.53571e-174
-3.74465e-175
-1.95276e-176
9.76312e-178
1.15165e-178
-2.9678e-181
-4.75798e-181
-1.3934e-182
1.3993e-183
9.5807e-185
-2.21782e-186
-4.1562e-187
-6.28168e-14
-6.21993e-14
-3.58968e-14
-1.18565e-14
1.27132e-15
5.05161e-15
3.99018e-15
1.73703e-15
8.5058e-17
-6.01823e-16
-6.23168e-16
-3.82119e-16
-1.41316e-16
2.12339e-18
5.29141e-17
5.05454e-17
3.04691e-17
1.21194e-17
1.46154e-18
-2.53627e-18
-2.8324e-18
-1.8368e-18
-8.22966e-19
-1.97222e-19
6.70037e-20
1.19611e-19
8.87962e-20
4.54564e-20
1.53529e-20
7.722e-22
-3.71604e-21
-3.60075e-21
-2.21889e-21
-9.94765e-22
-2.68808e-22
4.76966e-23
1.28725e-22
1.08761e-22
6.36545e-23
2.59849e-23
3.9744e-24
-4.90013e-24
-6.05495e-24
-4.12597e-24
-1.86787e-24
-3.70773e-25
2.76972e-25
3.7796e-25
2.5464e-25
1.07779e-25
1.46362e-26
-2.15177e-26
-2.37306e-26
-1.40743e-26
-4.84476e-27
1.85314e-28
1.66048e-27
1.36475e-27
6.53321e-28
1.37647e-28
-8.15842e-29
-1.09371e-28
-6.63952e-29
-2.23354e-29
1.24321e-30
7.5451e-30
5.74612e-30
2.44471e-30
3.06865e-31
-4.52769e-31
-4.44758e-31
-2.2218e-31
-4.93863e-32
2.32253e-32
3.1503e-32
1.78202e-32
5.0515e-33
-9.59478e-34
-2.06645e-33
-1.29093e-33
-4.17673e-34
2.66555e-35
1.2671e-34
8.52806e-35
2.96083e-35
-5.80646e-38
-7.34334e-36
-5.16024e-36
-1.83368e-36
-3.84768e-38
4.06881e-37
2.86375e-37
9.95024e-38
1.20763e-39
-2.16834e-38
-1.45365e-38
-4.68778e-39
1.45775e-40
1.10461e-39
6.68658e-40
1.86679e-40
-2.32843e-41
-5.27137e-41
-2.73378e-41
-5.87463e-42
1.92251e-42
2.28349e-42
9.58786e-43
1.16263e-43
-1.14635e-43
-8.62259e-44
-2.69228e-44
8.40865e-46
5.28126e-45
2.68754e-45
5.03992e-46
-1.98749e-46
-1.88445e-46
-6.29475e-47
-5.90403e-49
9.96882e-48
4.99246e-48
8.403e-49
-3.78189e-49
-3.07986e-49
-8.60298e-50
6.55173e-51
1.56541e-50
6.04858e-51
4.28144e-52
-6.66184e-52
-3.45338e-52
-5.51407e-53
2.34454e-53
1.69598e-53
3.83237e-54
-6.40727e-55
-7.37123e-55
-2.07741e-55
1.02149e-56
2.88515e-56
9.58702e-57
1.82971e-58
-1.02991e-57
-3.90549e-58
-2.45172e-59
3.38925e-59
1.43135e-59
1.31016e-60
-1.03889e-60
-4.77361e-61
-5.23485e-62
2.9973e-62
1.45936e-62
1.7397e-63
-8.22195e-64
-4.10868e-64
-4.97604e-65
2.16194e-65
1.06765e-65
1.23519e-66
-5.46999e-67
-2.55929e-67
-2.63447e-68
1.32806e-68
5.63729e-69
4.65479e-70
-3.06402e-70
-1.13169e-70
-6.10529e-72
6.6153e-72
2.04277e-72
3.16936e-74
-1.31217e-73
-3.24693e-74
1.18982e-75
2.34474e-75
4.39337e-76
-4.96756e-77
-3.69799e-77
-4.73761e-78
1.17428e-78
5.03003e-79
3.35182e-80
-2.08591e-80
-5.72032e-81
2.49043e-83
2.95658e-82
5.15056e-83
-5.38738e-84
-3.37974e-84
-3.18463e-85
1.01405e-85
3.06498e-86
4.59514e-88
-1.23451e-87
-2.08405e-88
1.89356e-89
1.10945e-89
8.70451e-91
-2.98309e-91
-7.40005e-92
7.03396e-94
2.72258e-93
3.34933e-94
-4.89308e-95
-1.73217e-95
-5.78809e-97
4.76959e-97
7.52996e-98
-5.50053e-99
-2.85936e-99
-1.67391e-100
6.17453e-101
1.13895e-101
-4.28577e-103
-3.44212e-103
-2.48743e-104
6.06836e-105