/*--------------------------------*- C++ -*----------------------------------*\
| =========                 |                                                 |
| \\      /  F ield         | OpenFOAM: The Open Source CFD Toolbox           |
|  \\    /   O peration     | Version:  2.4.0                                 |
|   \\  /    A nd           | Web:      www.OpenFOAM.org                      |
|    \\/     M anipulation  |                                                 |
\*---------------------------------------------------------------------------*/
FoamFile
{
    version     2.0;
    format      ascii;
    class       volScalarField;
    location    "0.2";
    object      p_rgh;
}
// * * * * * * * * * * * * * * * * * * * * * * * * * * * * * * * * * * * * * //

dimensions      [1 -1 -2 0 0 0 0];

internalField   nonuniform List<scalar> 
8000
(
0.664108
0.663953
0.66366
0.663551
0.663553
0.663556
0.663559
0.663561
0.663563
0.663564
0.663565
0.663566
0.663566
0.663567
0.663566
0.663567
0.663567
0.663567
0.663565
0.663564
0.663564
0.663563
0.663563
0.66356
0.663559
0.663557
0.663556
0.663555
0.663554
0.663553
0.663551
0.66355
0.663548
0.663548
0.663546
0.663544
0.663542
0.663541
0.663539
0.663537
0.663535
0.663534
0.663532
0.66353
0.663527
0.663525
0.663524
0.663524
0.663509
0.661684
1.99203
1.99203
1.99205
1.99203
1.99203
1.99204
1.99204
1.99204
1.99204
1.99204
1.99205
1.99205
1.99205
1.99205
1.99205
1.99205
1.99205
1.99205
1.99206
1.99205
1.99205
1.99205
1.99205
1.99204
1.99204
1.99204
1.99204
1.99204
1.99204
1.99203
1.99203
1.99203
1.99203
1.99203
1.99202
1.99202
1.99202
1.99201
1.99201
1.99201
1.992
1.992
1.992
1.99199
1.99199
1.99199
1.99198
1.99198
1.99196
1.9877
3.31983
3.31983
3.31983
3.31983
3.31983
3.31983
3.31983
3.31983
3.31983
3.31983
3.31983
3.31983
3.31984
3.31984
3.31984
3.31984
3.31984
3.31985
3.31985
3.31985
3.31985
3.31985
3.31986
3.31986
3.31986
3.31986
3.31987
3.31987
3.31988
3.31988
3.31988
3.31989
3.31989
3.3199
3.3199
3.31991
3.31991
3.31992
3.31993
3.31993
3.31994
3.31995
3.31996
3.31996
3.31997
3.31998
3.32
3.32001
3.32001
3.31397
4.64807
4.64807
4.64807
4.64807
4.64807
4.64807
4.64807
4.64807
4.64807
4.64807
4.64807
4.64807
4.64807
4.64807
4.64807
4.64807
4.64807
4.64807
4.64807
4.64807
4.64807
4.64807
4.64807
4.64807
4.64807
4.64807
4.64807
4.64807
4.64807
4.64807
4.64807
4.64807
4.64807
4.64807
4.64807
4.64807
4.64807
4.64807
4.64807
4.64807
4.64807
4.64807
4.64807
4.64807
4.64807
4.64807
4.64807
4.64808
4.64806
4.64108
5.97602
5.97602
5.97602
5.97602
5.97602
5.97601
5.97601
5.97601
5.97601
5.97601
5.97601
5.97601
5.97601
5.97601
5.97601
5.97601
5.97601
5.97602
5.97602
5.97602
5.97602
5.97602
5.97602
5.97602
5.97603
5.97603
5.97603
5.97603
5.97603
5.97604
5.97604
5.97604
5.97605
5.97605
5.97605
5.97605
5.97606
5.97606
5.97607
5.97607
5.97607
5.97608
5.97608
5.97609
5.97609
5.9761
5.9761
5.97611
5.9761
5.96886
7.30412
7.30412
7.30411
7.30411
7.30411
7.30411
7.30411
7.30411
7.30411
7.30411
7.30411
7.30411
7.30411
7.30411
7.30411
7.30411
7.30411
7.30411
7.30411
7.3041
7.3041
7.3041
7.3041
7.3041
7.3041
7.30411
7.30411
7.30411
7.30411
7.30411
7.30411
7.30411
7.30411
7.30411
7.30411
7.30411
7.30411
7.30411
7.30411
7.30411
7.30411
7.30411
7.30412
7.30412
7.30412
7.30412
7.30412
7.30413
7.30412
7.29713
8.6321
8.6321
8.6321
8.63209
8.63209
8.63209
8.63209
8.63209
8.63209
8.63209
8.63209
8.63209
8.63209
8.63209
8.63209
8.63209
8.63209
8.63209
8.63209
8.63209
8.63209
8.63209
8.63209
8.63209
8.63209
8.63209
8.63209
8.63209
8.63209
8.63209
8.6321
8.6321
8.6321
8.6321
8.6321
8.6321
8.6321
8.63211
8.63211
8.63211
8.63211
8.63211
8.63212
8.63212
8.63212
8.63212
8.63213
8.63213
8.63212
8.6258
9.96013
9.96013
9.96012
9.96012
9.96012
9.96012
9.96012
9.96012
9.96012
9.96012
9.96012
9.96012
9.96012
9.96012
9.96012
9.96012
9.96012
9.96012
9.96011
9.96011
9.96011
9.96011
9.96011
9.96011
9.96011
9.96011
9.96011
9.96011
9.96011
9.96012
9.96012
9.96012
9.96012
9.96012
9.96012
9.96012
9.96012
9.96012
9.96012
9.96012
9.96012
9.96012
9.96012
9.96012
9.96012
9.96012
9.96013
9.96013
9.96012
9.9548
11.2881
11.2881
11.2881
11.2881
11.2881
11.2881
11.2881
11.2881
11.2881
11.2881
11.2881
11.2881
11.2881
11.2881
11.2881
11.2881
11.2881
11.2881
11.2881
11.2881
11.2881
11.2881
11.2881
11.2881
11.2881
11.2881
11.2881
11.2881
11.2881
11.2881
11.2881
11.2881
11.2881
11.2881
11.2881
11.2881
11.2881
11.2881
11.2881
11.2881
11.2881
11.2881
11.2881
11.2881
11.2881
11.2881
11.2881
11.2881
11.2881
11.2839
12.6161
12.6161
12.6161
12.6161
12.6161
12.6161
12.6161
12.6161
12.6161
12.6161
12.6161
12.6161
12.6161
12.6161
12.6161
12.6161
12.6161
12.6161
12.6161
12.6161
12.6161
12.6161
12.6161
12.6161
12.6161
12.6161
12.6161
12.6161
12.6161
12.6161
12.6161
12.6161
12.6161
12.6161
12.6161
12.6161
12.6161
12.6161
12.6161
12.6161
12.6161
12.6161
12.6161
12.6161
12.6161
12.6161
12.6161
12.6161
12.6161
12.613
13.9441
13.9441
13.9441
13.9441
13.9441
13.9441
13.9441
13.9441
13.9441
13.9441
13.9441
13.9441
13.9441
13.9441
13.9441
13.9441
13.9441
13.9441
13.9441
13.9441
13.9441
13.9441
13.9441
13.9441
13.9441
13.9441
13.9441
13.9441
13.9441
13.9441
13.9441
13.9441
13.9441
13.9441
13.9441
13.9441
13.9441
13.9441
13.9441
13.9441
13.9441
13.9441
13.9441
13.9441
13.9441
13.9441
13.9441
13.9441
13.9441
13.942
15.2721
15.2721
15.2721
15.2721
15.2721
15.2721
15.2721
15.2721
15.2721
15.2721
15.2721
15.2721
15.2721
15.2721
15.2721
15.2721
15.2721
15.2721
15.2721
15.2721
15.2721
15.2721
15.2721
15.2721
15.2721
15.2721
15.2721
15.2721
15.2721
15.2721
15.2721
15.2721
15.2721
15.2721
15.2721
15.2721
15.2721
15.2721
15.2721
15.2721
15.2721
15.2721
15.2721
15.2721
15.2721
15.2721
15.2721
15.2721
15.2721
15.2709
16.6001
16.6001
16.6001
16.6001
16.6001
16.6001
16.6001
16.6001
16.6001
16.6001
16.6001
16.6001
16.6001
16.6001
16.6001
16.6001
16.6001
16.6001
16.6001
16.6
16.6
16.6
16.6
16.6
16.6
16.6
16.6
16.6
16.6
16.6
16.6
16.6
16.6
16.6
16.6
16.6
16.6
16.6
16.6
16.6
16.6
16.6
16.6
16.6
16.6
16.6
16.6
16.6
16.6
16.5993
17.928
17.928
17.928
17.928
17.928
17.928
17.928
17.928
17.928
17.928
17.928
17.928
17.928
17.928
17.928
17.928
17.928
17.928
17.928
17.928
17.928
17.928
17.928
17.928
17.928
17.928
17.928
17.928
17.928
17.928
17.928
17.928
17.928
17.928
17.928
17.928
17.928
17.928
17.928
17.928
17.928
17.928
17.928
17.928
17.928
17.928
17.928
17.928
17.928
17.9275
19.256
19.256
19.256
19.256
19.256
19.256
19.256
19.256
19.256
19.256
19.256
19.256
19.256
19.256
19.256
19.256
19.256
19.256
19.256
19.256
19.256
19.256
19.256
19.256
19.256
19.256
19.256
19.256
19.256
19.256
19.256
19.256
19.256
19.256
19.256
19.256
19.256
19.256
19.256
19.256
19.256
19.256
19.256
19.256
19.256
19.256
19.256
19.256
19.256
19.2555
20.584
20.584
20.584
20.584
20.584
20.584
20.584
20.584
20.584
20.584
20.584
20.584
20.584
20.584
20.584
20.584
20.584
20.584
20.584
20.584
20.584
20.584
20.584
20.584
20.584
20.584
20.584
20.584
20.584
20.584
20.584
20.584
20.584
20.584
20.584
20.584
20.584
20.584
20.584
20.584
20.584
20.584
20.584
20.584
20.584
20.584
20.584
20.584
20.584
20.5836
21.912
21.912
21.912
21.912
21.912
21.912
21.912
21.912
21.912
21.912
21.912
21.912
21.912
21.912
21.912
21.912
21.912
21.912
21.912
21.912
21.912
21.912
21.912
21.912
21.912
21.912
21.912
21.912
21.912
21.912
21.912
21.912
21.912
21.912
21.912
21.912
21.912
21.912
21.912
21.912
21.912
21.912
21.912
21.912
21.912
21.912
21.912
21.912
21.912
21.9115
23.24
23.24
23.24
23.24
23.24
23.24
23.24
23.24
23.24
23.24
23.24
23.24
23.24
23.24
23.24
23.24
23.24
23.24
23.24
23.24
23.24
23.24
23.24
23.24
23.24
23.24
23.24
23.24
23.24
23.24
23.24
23.24
23.24
23.24
23.24
23.24
23.24
23.24
23.24
23.24
23.24
23.24
23.24
23.24
23.24
23.24
23.24
23.24
23.24
23.2395
24.568
24.568
24.568
24.568
24.568
24.568
24.568
24.568
24.568
24.568
24.568
24.568
24.568
24.568
24.568
24.568
24.568
24.568
24.568
24.568
24.568
24.568
24.568
24.568
24.568
24.568
24.568
24.568
24.568
24.568
24.568
24.568
24.568
24.568
24.568
24.568
24.568
24.568
24.568
24.568
24.568
24.568
24.568
24.568
24.568
24.568
24.568
24.568
24.568
24.5674
25.896
25.896
25.896
25.896
25.896
25.896
25.896
25.896
25.896
25.896
25.896
25.896
25.896
25.896
25.896
25.896
25.896
25.896
25.896
25.896
25.896
25.896
25.896
25.896
25.896
25.896
25.896
25.896
25.896
25.896
25.896
25.896
25.896
25.896
25.896
25.896
25.896
25.896
25.896
25.896
25.896
25.896
25.896
25.896
25.896
25.896
25.896
25.896
25.896
25.8953
0.000312292
1.09495e-05
1.30239e-05
1.31868e-05
1.30481e-05
1.28844e-05
1.27354e-05
1.25809e-05
1.24123e-05
1.22317e-05
1.20428e-05
1.18487e-05
1.16521e-05
1.14551e-05
1.12596e-05
1.10673e-05
1.08795e-05
1.06975e-05
1.05221e-05
1.03541e-05
1.01939e-05
1.00419e-05
9.8983e-06
9.76325e-06
9.63672e-06
9.5186e-06
9.40874e-06
9.30691e-06
9.21285e-06
9.12626e-06
9.04683e-06
8.97421e-06
8.90807e-06
8.84805e-06
8.7938e-06
8.74498e-06
8.70125e-06
8.66229e-06
8.62778e-06
8.59741e-06
8.5709e-06
8.54797e-06
8.52835e-06
8.5118e-06
8.49809e-06
8.487e-06
8.47839e-06
8.47207e-06
8.46748e-06
8.46325e-06
0.000359594
1.57279e-05
1.87481e-05
1.97343e-05
2.01099e-05
2.03794e-05
2.06874e-05
2.10165e-05
2.13447e-05
2.16655e-05
2.19785e-05
2.22838e-05
2.25807e-05
2.28685e-05
2.31465e-05
2.34144e-05
2.36719e-05
2.39186e-05
2.41546e-05
2.43799e-05
2.45945e-05
2.47987e-05
2.49926e-05
2.51765e-05
2.53508e-05
2.55157e-05
2.56717e-05
2.58192e-05
2.59585e-05
2.609e-05
2.62142e-05
2.63314e-05
2.6442e-05
2.65464e-05
2.6645e-05
2.6738e-05
2.68259e-05
2.69088e-05
2.69872e-05
2.70612e-05
2.71312e-05
2.71974e-05
2.726e-05
2.73192e-05
2.73753e-05
2.74284e-05
2.74786e-05
2.75261e-05
2.7571e-05
2.76144e-05
0.000248306
3.79224e-05
3.98708e-05
4.08779e-05
4.139e-05
4.17496e-05
4.21034e-05
4.24558e-05
4.27925e-05
4.31079e-05
4.34023e-05
4.36766e-05
4.39316e-05
4.41677e-05
4.43858e-05
4.45864e-05
4.47706e-05
4.4939e-05
4.50927e-05
4.52325e-05
4.53593e-05
4.5474e-05
4.55776e-05
4.56708e-05
4.57546e-05
4.58297e-05
4.58969e-05
4.59569e-05
4.60104e-05
4.6058e-05
4.61005e-05
4.61382e-05
4.61717e-05
4.62014e-05
4.62279e-05
4.62515e-05
4.62726e-05
4.62914e-05
4.63082e-05
4.63234e-05
4.63372e-05
4.63497e-05
4.63611e-05
4.63717e-05
4.63815e-05
4.63906e-05
4.63993e-05
4.64075e-05
4.64152e-05
4.64229e-05
0.000213824
5.50015e-05
5.64825e-05
5.74023e-05
5.79325e-05
5.83309e-05
5.87191e-05
5.9104e-05
5.94747e-05
5.9827e-05
6.01607e-05
6.04768e-05
6.07758e-05
6.10583e-05
6.13248e-05
6.15761e-05
6.18128e-05
6.20355e-05
6.2245e-05
6.24419e-05
6.26269e-05
6.28007e-05
6.2964e-05
6.31174e-05
6.32614e-05
6.33968e-05
6.35239e-05
6.36434e-05
6.37558e-05
6.38616e-05
6.39611e-05
6.40548e-05
6.41432e-05
6.42265e-05
6.43051e-05
6.43794e-05
6.44496e-05
6.4516e-05
6.45789e-05
6.46385e-05
6.46951e-05
6.47487e-05
6.47998e-05
6.48483e-05
6.48944e-05
6.49384e-05
6.49804e-05
6.50204e-05
6.50584e-05
6.50946e-05
0.000107277
7.81136e-05
7.88377e-05
7.9444e-05
7.98338e-05
8.01392e-05
8.04306e-05
8.07142e-05
8.09845e-05
8.12387e-05
8.1477e-05
8.17e-05
8.19083e-05
8.21025e-05
8.22833e-05
8.24511e-05
8.26068e-05
8.27511e-05
8.28845e-05
8.30077e-05
8.31215e-05
8.32263e-05
8.33229e-05
8.34118e-05
8.34935e-05
8.35687e-05
8.36376e-05
8.37009e-05
8.3759e-05
8.38123e-05
8.38611e-05
8.39059e-05
8.39469e-05
8.39846e-05
8.40191e-05
8.40508e-05
8.40799e-05
8.41066e-05
8.41311e-05
8.41538e-05
8.41746e-05
8.41938e-05
8.42116e-05
8.42281e-05
8.42434e-05
8.42577e-05
8.4271e-05
8.42833e-05
8.42949e-05
8.43061e-05
0.00014041
0.00010295
0.000102894
0.000102854
0.000102836
0.000102829
0.000102827
0.000102829
0.000102835
0.000102843
0.000102854
0.000102867
0.000102881
0.000102896
0.000102911
0.000102927
0.000102944
0.00010296
0.000102976
0.000102992
0.000103008
0.000103024
0.000103039
0.000103053
0.000103068
0.000103081
0.000103094
0.000103107
0.000103119
0.000103131
0.000103142
0.000103153
0.000103164
0.000103174
0.000103184
0.000103193
0.000103202
0.000103211
0.000103219
0.000103228
0.000103236
0.000103243
0.000103251
0.000103259
0.000103266
0.000103273
0.00010328
0.000103287
0.000103294
0.000103301
0.000175921
0.000122291
0.000122234
0.000122188
0.000122167
0.000122157
0.000122151
0.000122148
0.000122148
0.000122151
0.000122157
0.000122164
0.000122172
0.000122182
0.000122193
0.000122204
0.000122215
0.000122227
0.000122238
0.00012225
0.00012226
0.000122271
0.000122281
0.00012229
0.000122299
0.000122307
0.000122314
0.000122321
0.000122327
0.000122333
0.000122337
0.000122341
0.000122345
0.000122348
0.00012235
0.000122352
0.000122353
0.000122354
0.000122355
0.000122355
0.000122355
0.000122354
0.000122353
0.000122353
0.000122351
0.00012235
0.000122349
0.000122347
0.000122346
0.000122344
0.000214629
0.000141963
0.000141923
0.000141886
0.000141868
0.000141857
0.000141847
0.000141837
0.000141826
0.000141816
0.000141806
0.000141796
0.000141786
0.000141776
0.000141766
0.000141756
0.000141746
0.000141735
0.000141725
0.000141714
0.000141704
0.000141693
0.000141681
0.00014167
0.000141659
0.000141647
0.000141635
0.000141623
0.000141611
0.000141599
0.000141587
0.000141574
0.000141562
0.00014155
0.000141537
0.000141525
0.000141513
0.000141501
0.000141489
0.000141477
0.000141465
0.000141454
0.000141443
0.000141432
0.000141421
0.00014141
0.0001414
0.00014139
0.00014138
0.000141371
0.000256196
0.000161207
0.000161165
0.000161124
0.000161104
0.000161091
0.000161078
0.000161064
0.00016105
0.000161035
0.00016102
0.000161004
0.000160988
0.000160972
0.000160955
0.000160938
0.00016092
0.000160903
0.000160885
0.000160866
0.000160847
0.000160828
0.000160809
0.000160789
0.000160769
0.000160749
0.000160729
0.000160709
0.000160689
0.000160668
0.000160648
0.000160627
0.000160607
0.000160586
0.000160566
0.000160546
0.000160526
0.000160506
0.000160487
0.000160467
0.000160448
0.000160429
0.000160411
0.000160393
0.000160375
0.000160357
0.00016034
0.000160324
0.000160307
0.000160291
0.000303891
0.000180681
0.000180622
0.000180564
0.000180535
0.000180515
0.000180494
0.000180471
0.000180447
0.000180421
0.000180394
0.000180367
0.000180338
0.000180309
0.000180279
0.000180247
0.000180216
0.000180183
0.00018015
0.000180117
0.000180083
0.000180048
0.000180014
0.000179979
0.000179944
0.000179909
0.000179874
0.000179839
0.000179804
0.00017977
0.000179735
0.000179701
0.000179667
0.000179634
0.000179601
0.000179569
0.000179537
0.000179506
0.000179475
0.000179445
0.000179415
0.000179386
0.000179358
0.00017933
0.000179303
0.000179277
0.000179252
0.000179227
0.000179203
0.00017918
0.000365238
0.000200247
0.000200155
0.000200064
0.000200019
0.000199989
0.000199955
0.000199918
0.000199877
0.000199834
0.000199789
0.000199742
0.000199694
0.000199644
0.000199593
0.00019954
0.000199487
0.000199432
0.000199377
0.000199322
0.000199266
0.00019921
0.000199154
0.000199098
0.000199043
0.000198988
0.000198933
0.000198879
0.000198825
0.000198773
0.000198721
0.00019867
0.000198619
0.00019857
0.000198522
0.000198475
0.000198429
0.000198384
0.00019834
0.000198297
0.000198256
0.000198216
0.000198177
0.000198139
0.000198102
0.000198066
0.000198032
0.000197999
0.000197967
0.000197936
0.000455533
0.000220111
0.00021988
0.000219664
0.00021955
0.000219469
0.000219388
0.000219303
0.000219216
0.000219129
0.000219042
0.000218955
0.000218867
0.00021878
0.000218693
0.000218606
0.000218519
0.000218434
0.000218348
0.000218264
0.000218181
0.000218099
0.000218018
0.000217939
0.000217861
0.000217785
0.00021771
0.000217637
0.000217566
0.000217497
0.000217429
0.000217364
0.0002173
0.000217238
0.000217178
0.00021712
0.000217064
0.000217009
0.000216957
0.000216906
0.000216857
0.00021681
0.000216765
0.000216721
0.00021668
0.000216639
0.000216601
0.000216564
0.000216529
0.000216495
0.000649889
0.000240762
0.000240211
0.000239718
0.000239439
0.000239235
0.000239038
0.000238841
0.00023865
0.000238467
0.000238292
0.000238124
0.000237962
0.000237806
0.000237655
0.000237511
0.000237371
0.000237236
0.000237106
0.000236981
0.00023686
0.000236744
0.000236632
0.000236524
0.00023642
0.000236319
0.000236223
0.00023613
0.000236041
0.000235956
0.000235873
0.000235794
0.000235719
0.000235646
0.000235577
0.00023551
0.000235446
0.000235385
0.000235327
0.000235271
0.000235218
0.000235167
0.000235119
0.000235072
0.000235028
0.000234987
0.000234947
0.000234909
0.000234874
0.00023484
0.00109937
0.000256988
0.000256569
0.000256145
0.000255924
0.00025577
0.00025562
0.000255469
0.000255324
0.000255187
0.000255057
0.000254934
0.000254816
0.000254705
0.000254599
0.000254499
0.000254403
0.000254312
0.000254225
0.000254142
0.000254063
0.000253988
0.000253916
0.000253847
0.000253781
0.000253718
0.000253658
0.000253601
0.000253546
0.000253494
0.000253443
0.000253396
0.00025335
0.000253306
0.000253265
0.000253225
0.000253187
0.000253151
0.000253117
0.000253084
0.000253053
0.000253024
0.000252996
0.000252969
0.000252944
0.00025292
0.000252898
0.000252877
0.000252857
0.000252838
0.00140192
0.000271201
0.000271271
0.000271133
0.000271085
0.000271063
0.000271038
0.00027101
0.000270981
0.000270953
0.000270926
0.000270901
0.000270877
0.000270855
0.000270834
0.000270814
0.000270796
0.00027078
0.000270764
0.00027075
0.000270736
0.000270724
0.000270713
0.000270702
0.000270693
0.000270684
0.000270675
0.000270668
0.000270661
0.000270655
0.000270649
0.000270643
0.000270638
0.000270634
0.00027063
0.000270626
0.000270623
0.00027062
0.000270617
0.000270615
0.000270613
0.000270611
0.00027061
0.000270609
0.000270609
0.000270609
0.000270609
0.000270609
0.00027061
0.000270611
0.00163779
0.000288051
0.000288308
0.000288259
0.000288246
0.000288242
0.000288236
0.000288228
0.000288219
0.000288211
0.000288203
0.000288197
0.000288191
0.000288186
0.000288182
0.00028818
0.000288179
0.000288179
0.000288181
0.000288183
0.000288187
0.000288191
0.000288197
0.000288203
0.00028821
0.000288218
0.000288226
0.000288235
0.000288245
0.000288255
0.000288265
0.000288276
0.000288287
0.000288298
0.000288309
0.000288321
0.000288332
0.000288344
0.000288356
0.000288368
0.00028838
0.000288392
0.000288404
0.000288416
0.000288428
0.00028844
0.000288453
0.000288465
0.000288477
0.000288489
0.00177846
0.000304858
0.00030523
0.000305249
0.000305265
0.000305281
0.000305296
0.000305311
0.000305326
0.000305341
0.000305356
0.000305373
0.00030539
0.000305407
0.000305426
0.000305445
0.000305465
0.000305486
0.000305508
0.00030553
0.000305553
0.000305577
0.000305601
0.000305626
0.000305651
0.000305676
0.000305702
0.000305728
0.000305754
0.000305781
0.000305807
0.000305833
0.000305859
0.000305885
0.000305911
0.000305937
0.000305963
0.000305988
0.000306013
0.000306038
0.000306063
0.000306088
0.000306112
0.000306136
0.000306159
0.000306183
0.000306206
0.000306229
0.000306251
0.000306273
0.00184364
0.000322491
0.00032292
0.000322981
0.000323014
0.000323041
0.000323067
0.000323094
0.000323121
0.000323148
0.000323175
0.000323202
0.000323229
0.000323256
0.000323283
0.00032331
0.000323338
0.000323366
0.000323394
0.000323422
0.000323451
0.00032348
0.000323509
0.000323537
0.000323566
0.000323596
0.000323625
0.000323653
0.000323682
0.000323711
0.00032374
0.000323768
0.000323797
0.000323825
0.000323853
0.00032388
0.000323908
0.000323935
0.000323962
0.000323989
0.000324015
0.000324041
0.000324067
0.000324093
0.000324118
0.000324143
0.000324168
0.000324193
0.000324217
0.000324242
0.00185343
0.000340215
0.000340663
0.000340754
0.000340803
0.000340839
0.000340876
0.000340915
0.000340953
0.00034099
0.000341027
0.000341064
0.0003411
0.000341135
0.000341171
0.000341206
0.00034124
0.000341274
0.000341308
0.000341342
0.000341375
0.000341408
0.00034144
0.000341472
0.000341504
0.000341535
0.000341566
0.000341596
0.000341626
0.000341656
0.000341685
0.000341714
0.000341743
0.000341771
0.000341798
0.000341826
0.000341853
0.000341879
0.000341906
0.000341932
0.000341957
0.000341983
0.000342008
0.000342032
0.000342057
0.000342081
0.000342105
0.000342129
0.000342152
0.000342176
0.00182243
0.000358269
0.000358711
0.000358826
0.000358888
0.000358936
0.000358983
0.000359031
0.000359078
0.000359124
0.000359169
0.000359212
0.000359254
0.000359295
0.000359335
0.000359373
0.00035941
0.000359447
0.000359482
0.000359516
0.000359549
0.000359581
0.000359612
0.000359642
0.000359671
0.000359699
0.000359727
0.000359754
0.000359779
0.000359805
0.000359829
0.000359853
0.000359876
0.000359899
0.000359921
0.000359943
0.000359964
0.000359985
0.000360005
0.000360026
0.000360045
0.000360065
0.000360084
0.000360103
0.000360122
0.000360141
0.00036016
0.000360178
0.000360196
0.000360215
8.45943e-06
8.45942e-06
8.46149e-06
8.46419e-06
8.46718e-06
8.47051e-06
8.47421e-06
8.47829e-06
8.48272e-06
8.48749e-06
8.49259e-06
8.498e-06
8.5037e-06
8.50969e-06
8.51595e-06
8.52247e-06
8.52924e-06
8.53625e-06
8.54348e-06
8.55093e-06
8.55859e-06
8.56643e-06
8.57447e-06
8.58267e-06
8.59105e-06
8.59958e-06
8.60826e-06
8.61708e-06
8.62603e-06
8.6351e-06
8.64429e-06
8.65359e-06
8.66299e-06
8.67249e-06
8.68207e-06
8.69173e-06
8.70147e-06
8.71128e-06
8.72114e-06
8.73107e-06
8.74104e-06
8.75107e-06
8.76113e-06
8.77123e-06
8.78135e-06
8.79151e-06
8.80168e-06
8.81187e-06
8.82207e-06
8.83228e-06
8.84249e-06
8.85271e-06
8.86291e-06
8.87312e-06
8.88331e-06
8.89348e-06
8.90364e-06
8.91377e-06
8.92389e-06
8.93397e-06
8.94402e-06
8.95404e-06
8.96403e-06
8.97398e-06
8.98388e-06
8.99374e-06
9.00356e-06
9.01333e-06
9.02304e-06
9.03271e-06
9.04232e-06
9.05188e-06
9.06137e-06
9.07081e-06
9.08019e-06
9.0895e-06
9.09875e-06
9.10793e-06
9.11704e-06
9.12609e-06
9.13506e-06
9.14397e-06
9.1528e-06
9.16155e-06
9.17024e-06
9.17884e-06
9.18737e-06
9.19582e-06
9.2042e-06
9.21249e-06
9.22071e-06
9.22884e-06
9.2369e-06
9.24487e-06
9.25276e-06
9.26057e-06
9.2683e-06
9.27594e-06
9.2835e-06
9.29098e-06
9.29837e-06
9.30568e-06
9.3129e-06
9.32004e-06
9.3271e-06
9.33407e-06
9.34096e-06
9.34776e-06
9.35448e-06
9.36112e-06
9.36767e-06
9.37414e-06
9.38052e-06
9.38683e-06
9.39305e-06
9.39919e-06
9.40525e-06
9.41123e-06
9.41712e-06
9.42294e-06
9.42868e-06
9.43434e-06
9.43992e-06
9.44542e-06
9.45084e-06
9.45619e-06
9.46146e-06
9.46666e-06
9.47179e-06
9.47684e-06
9.48181e-06
9.48672e-06
9.49156e-06
9.49632e-06
9.50102e-06
9.50564e-06
9.5102e-06
9.5147e-06
9.51912e-06
9.52349e-06
9.52779e-06
9.53203e-06
9.5362e-06
9.54032e-06
9.54438e-06
9.54838e-06
9.55232e-06
9.5562e-06
9.56004e-06
9.56381e-06
9.56754e-06
9.57122e-06
9.57484e-06
9.57842e-06
9.58195e-06
9.58543e-06
9.58887e-06
9.59226e-06
9.59561e-06
9.59892e-06
9.6022e-06
9.60543e-06
9.60862e-06
9.61178e-06
9.61491e-06
9.618e-06
9.62106e-06
9.62409e-06
9.62709e-06
9.63007e-06
9.63301e-06
9.63593e-06
9.63883e-06
9.64171e-06
9.64456e-06
9.6474e-06
9.65022e-06
9.65302e-06
9.65581e-06
9.65858e-06
9.66134e-06
9.66409e-06
9.66682e-06
9.66955e-06
9.67228e-06
9.67499e-06
9.67771e-06
9.68042e-06
9.68313e-06
9.68584e-06
9.68855e-06
9.69126e-06
9.69397e-06
9.69669e-06
9.69942e-06
9.70216e-06
9.7049e-06
9.70765e-06
9.71042e-06
9.7132e-06
9.71599e-06
9.7188e-06
9.72162e-06
9.72446e-06
9.72733e-06
9.73021e-06
9.73311e-06
9.73603e-06
9.73898e-06
9.74195e-06
9.74495e-06
9.74798e-06
9.75103e-06
9.75411e-06
9.75723e-06
9.76037e-06
9.76355e-06
9.76676e-06
9.77e-06
9.77328e-06
9.77659e-06
9.77995e-06
9.78334e-06
9.78677e-06
9.79024e-06
9.79375e-06
9.7973e-06
9.80089e-06
9.80453e-06
9.80821e-06
9.81194e-06
9.81571e-06
9.81953e-06
9.82339e-06
9.82731e-06
9.83127e-06
9.83528e-06
9.83935e-06
9.84346e-06
9.84762e-06
9.85184e-06
9.85611e-06
9.86044e-06
9.86481e-06
9.86925e-06
9.87373e-06
9.87828e-06
9.88288e-06
9.88753e-06
9.89225e-06
9.89702e-06
9.90185e-06
9.90674e-06
9.91169e-06
9.9167e-06
9.92178e-06
9.92691e-06
9.9321e-06
9.93736e-06
9.94268e-06
9.94806e-06
9.9535e-06
9.95901e-06
9.96459e-06
9.97023e-06
9.97593e-06
9.9817e-06
9.98754e-06
9.99344e-06
9.99942e-06
1.00055e-05
1.00116e-05
1.00177e-05
1.0024e-05
1.00303e-05
1.00367e-05
1.00432e-05
1.00497e-05
1.00563e-05
1.0063e-05
1.00697e-05
1.00766e-05
1.00835e-05
1.00905e-05
1.00975e-05
1.01047e-05
1.01119e-05
1.01192e-05
1.01266e-05
1.01341e-05
1.01417e-05
1.01493e-05
1.0157e-05
1.01648e-05
1.01728e-05
1.01807e-05
1.01888e-05
1.0197e-05
1.02052e-05
1.02133e-05
2.76481e-05
2.76712e-05
2.76936e-05
2.77154e-05
2.77366e-05
2.77573e-05
2.77775e-05
2.77972e-05
2.78164e-05
2.78352e-05
2.78535e-05
2.78713e-05
2.78888e-05
2.79057e-05
2.79223e-05
2.79384e-05
2.79542e-05
2.79695e-05
2.79844e-05
2.79989e-05
2.80131e-05
2.80268e-05
2.80402e-05
2.80532e-05
2.80659e-05
2.80782e-05
2.80902e-05
2.81018e-05
2.81131e-05
2.8124e-05
2.81346e-05
2.8145e-05
2.81549e-05
2.81646e-05
2.8174e-05
2.81831e-05
2.81919e-05
2.82004e-05
2.82086e-05
2.82166e-05
2.82243e-05
2.82317e-05
2.82389e-05
2.82458e-05
2.82524e-05
2.82589e-05
2.8265e-05
2.8271e-05
2.82767e-05
2.82822e-05
2.82875e-05
2.82926e-05
2.82975e-05
2.83022e-05
2.83067e-05
2.8311e-05
2.83151e-05
2.8319e-05
2.83228e-05
2.83264e-05
2.83298e-05
2.83331e-05
2.83362e-05
2.83392e-05
2.8342e-05
2.83447e-05
2.83472e-05
2.83497e-05
2.8352e-05
2.83542e-05
2.83562e-05
2.83582e-05
2.836e-05
2.83618e-05
2.83635e-05
2.8365e-05
2.83665e-05
2.83679e-05
2.83692e-05
2.83705e-05
2.83717e-05
2.83728e-05
2.83738e-05
2.83749e-05
2.83758e-05
2.83767e-05
2.83776e-05
2.83784e-05
2.83792e-05
2.83799e-05
2.83806e-05
2.83813e-05
2.8382e-05
2.83827e-05
2.83833e-05
2.8384e-05
2.83846e-05
2.83852e-05
2.83859e-05
2.83865e-05
2.83871e-05
2.83878e-05
2.83885e-05
2.83891e-05
2.83898e-05
2.83906e-05
2.83913e-05
2.83921e-05
2.83929e-05
2.83938e-05
2.83946e-05
2.83956e-05
2.83965e-05
2.83975e-05
2.83986e-05
2.83997e-05
2.84009e-05
2.84021e-05
2.84034e-05
2.84047e-05
2.84061e-05
2.84076e-05
2.84091e-05
2.84107e-05
2.84124e-05
2.84141e-05
2.84159e-05
2.84178e-05
2.84198e-05
2.84219e-05
2.8424e-05
2.84262e-05
2.84285e-05
2.84309e-05
2.84334e-05
2.8436e-05
2.84386e-05
2.84414e-05
2.84442e-05
2.84472e-05
2.84502e-05
2.84534e-05
2.84566e-05
2.846e-05
2.84634e-05
2.8467e-05
2.84706e-05
2.84744e-05
2.84783e-05
2.84822e-05
2.84863e-05
2.84905e-05
2.84949e-05
2.84993e-05
2.85038e-05
2.85085e-05
2.85132e-05
2.85181e-05
2.85231e-05
2.85283e-05
2.85335e-05
2.85388e-05
2.85443e-05
2.85499e-05
2.85556e-05
2.85615e-05
2.85674e-05
2.85735e-05
2.85797e-05
2.85861e-05
2.85925e-05
2.85991e-05
2.86058e-05
2.86127e-05
2.86196e-05
2.86267e-05
2.86339e-05
2.86413e-05
2.86487e-05
2.86564e-05
2.86641e-05
2.86719e-05
2.86799e-05
2.86881e-05
2.86963e-05
2.87047e-05
2.87132e-05
2.87219e-05
2.87307e-05
2.87396e-05
2.87486e-05
2.87578e-05
2.87671e-05
2.87766e-05
2.87862e-05
2.87959e-05
2.88058e-05
2.88158e-05
2.88259e-05
2.88362e-05
2.88466e-05
2.88571e-05
2.88678e-05
2.88787e-05
2.88896e-05
2.89007e-05
2.8912e-05
2.89234e-05
2.89349e-05
2.89466e-05
2.89584e-05
2.89703e-05
2.89824e-05
2.89947e-05
2.90071e-05
2.90196e-05
2.90323e-05
2.90451e-05
2.9058e-05
2.90712e-05
2.90844e-05
2.90978e-05
2.91114e-05
2.91251e-05
2.91389e-05
2.91529e-05
2.91671e-05
2.91814e-05
2.91958e-05
2.92105e-05
2.92252e-05
2.92401e-05
2.92552e-05
2.92704e-05
2.92858e-05
2.93013e-05
2.9317e-05
2.93329e-05
2.93489e-05
2.9365e-05
2.93813e-05
2.93978e-05
2.94145e-05
2.94313e-05
2.94482e-05
2.94653e-05
2.94826e-05
2.95001e-05
2.95177e-05
2.95355e-05
2.95534e-05
2.95715e-05
2.95898e-05
2.96082e-05
2.96268e-05
2.96456e-05
2.96645e-05
2.96836e-05
2.97029e-05
2.97223e-05
2.97419e-05
2.97617e-05
2.97816e-05
2.98017e-05
2.9822e-05
2.98425e-05
2.98631e-05
2.98839e-05
2.99048e-05
2.9926e-05
2.99473e-05
2.99688e-05
2.99904e-05
3.00122e-05
3.00342e-05
3.00564e-05
3.00787e-05
3.01012e-05
3.01239e-05
3.01467e-05
3.01697e-05
3.01929e-05
3.02162e-05
3.02397e-05
3.02634e-05
3.02873e-05
3.03113e-05
3.03354e-05
3.03598e-05
3.03843e-05
3.04089e-05
3.04338e-05
3.04588e-05
3.04839e-05
3.05092e-05
3.05347e-05
3.05604e-05
3.05863e-05
3.06122e-05
3.06378e-05
4.64294e-05
4.64344e-05
4.64396e-05
4.64447e-05
4.64498e-05
4.64548e-05
4.64599e-05
4.64649e-05
4.647e-05
4.6475e-05
4.648e-05
4.64851e-05
4.64902e-05
4.64953e-05
4.65004e-05
4.65055e-05
4.65107e-05
4.65159e-05
4.65212e-05
4.65265e-05
4.65318e-05
4.65372e-05
4.65426e-05
4.65481e-05
4.65536e-05
4.65591e-05
4.65647e-05
4.65704e-05
4.65761e-05
4.65818e-05
4.65876e-05
4.65934e-05
4.65993e-05
4.66053e-05
4.66112e-05
4.66173e-05
4.66233e-05
4.66295e-05
4.66356e-05
4.66418e-05
4.66481e-05
4.66544e-05
4.66608e-05
4.66671e-05
4.66736e-05
4.668e-05
4.66866e-05
4.66931e-05
4.66997e-05
4.67063e-05
4.6713e-05
4.67197e-05
4.67264e-05
4.67332e-05
4.674e-05
4.67469e-05
4.67537e-05
4.67606e-05
4.67676e-05
4.67745e-05
4.67815e-05
4.67886e-05
4.67956e-05
4.68027e-05
4.68098e-05
4.68169e-05
4.68241e-05
4.68313e-05
4.68385e-05
4.68457e-05
4.68529e-05
4.68602e-05
4.68675e-05
4.68748e-05
4.68822e-05
4.68895e-05
4.68969e-05
4.69043e-05
4.69117e-05
4.69191e-05
4.69266e-05
4.6934e-05
4.69415e-05
4.6949e-05
4.69565e-05
4.69641e-05
4.69716e-05
4.69792e-05
4.69868e-05
4.69944e-05
4.7002e-05
4.70097e-05
4.70173e-05
4.7025e-05
4.70327e-05
4.70404e-05
4.70481e-05
4.70559e-05
4.70636e-05
4.70714e-05
4.70792e-05
4.70871e-05
4.70949e-05
4.71028e-05
4.71106e-05
4.71185e-05
4.71265e-05
4.71344e-05
4.71424e-05
4.71504e-05
4.71584e-05
4.71664e-05
4.71745e-05
4.71826e-05
4.71907e-05
4.71988e-05
4.7207e-05
4.72152e-05
4.72235e-05
4.72317e-05
4.724e-05
4.72484e-05
4.72567e-05
4.72651e-05
4.72736e-05
4.72821e-05
4.72906e-05
4.72991e-05
4.73078e-05
4.73164e-05
4.73251e-05
4.73338e-05
4.73426e-05
4.73515e-05
4.73603e-05
4.73693e-05
4.73783e-05
4.73873e-05
4.73964e-05
4.74056e-05
4.74148e-05
4.74241e-05
4.74334e-05
4.74428e-05
4.74523e-05
4.74619e-05
4.74715e-05
4.74812e-05
4.74909e-05
4.75008e-05
4.75107e-05
4.75207e-05
4.75308e-05
4.75409e-05
4.75512e-05
4.75615e-05
4.7572e-05
4.75825e-05
4.75931e-05
4.76038e-05
4.76146e-05
4.76255e-05
4.76366e-05
4.76477e-05
4.76589e-05
4.76702e-05
4.76817e-05
4.76932e-05
4.77049e-05
4.77167e-05
4.77286e-05
4.77407e-05
4.77529e-05
4.77651e-05
4.77776e-05
4.77901e-05
4.78028e-05
4.78157e-05
4.78286e-05
4.78417e-05
4.7855e-05
4.78684e-05
4.78819e-05
4.78957e-05
4.79095e-05
4.79235e-05
4.79377e-05
4.7952e-05
4.79665e-05
4.79812e-05
4.7996e-05
4.8011e-05
4.80262e-05
4.80416e-05
4.80571e-05
4.80728e-05
4.80887e-05
4.81048e-05
4.8121e-05
4.81375e-05
4.81541e-05
4.8171e-05
4.8188e-05
4.82052e-05
4.82227e-05
4.82403e-05
4.82582e-05
4.82762e-05
4.82945e-05
4.8313e-05
4.83317e-05
4.83506e-05
4.83697e-05
4.8389e-05
4.84086e-05
4.84284e-05
4.84485e-05