/*--------------------------------*- C++ -*----------------------------------*\
| =========                 |                                                 |
| \\      /  F ield         | OpenFOAM: The Open Source CFD Toolbox           |
|  \\    /   O peration     | Version:  2.4.0                                 |
|   \\  /    A nd           | Web:      www.OpenFOAM.org                      |
|    \\/     M anipulation  |                                                 |
\*---------------------------------------------------------------------------*/
FoamFile
{
    version     2.0;
    format      ascii;
    class       surfaceScalarField;
    location    "0.2";
    object      phi;
}
// * * * * * * * * * * * * * * * * * * * * * * * * * * * * * * * * * * * * * //

dimensions      [0 3 -1 0 0 0 0];

internalField   nonuniform List<scalar> 
15580
(
3.17692e-17
-3.42795e-12
1.84711e-16
-1.01432e-11
4.80376e-16
-1.67178e-11
8.69836e-16
-2.31521e-11
1.32338e-15
-2.94461e-11
1.84045e-15
-3.56001e-11
2.41119e-15
-4.16143e-11
3.02709e-15
-4.74888e-11
3.68098e-15
-5.32238e-11
4.36716e-15
-5.88196e-11
5.08054e-15
-6.42762e-11
5.817e-15
-6.95938e-11
6.57277e-15
-7.47727e-11
7.34504e-15
-7.9813e-11
8.13087e-15
-8.47148e-11
8.92857e-15
-8.94784e-11
9.73654e-15
-9.41038e-11
1.0553e-14
-9.85913e-11
1.13767e-14
-1.02941e-10
1.22077e-14
-1.07153e-10
1.30442e-14
-1.11228e-10
1.38869e-14
-1.15165e-10
1.47343e-14
-1.18965e-10
1.55872e-14
-1.22628e-10
1.64445e-14
-1.26154e-10
1.73076e-14
-1.29543e-10
1.81751e-14
-1.32796e-10
1.90489e-14
-1.35912e-10
1.99273e-14
-1.38891e-10
2.08131e-14
-1.41735e-10
2.17036e-14
-1.44442e-10
2.26027e-14
-1.47013e-10
2.3507e-14
-1.49448e-10
2.44213e-14
-1.51747e-10
2.53406e-14
-1.53911e-10
2.62712e-14
-1.55939e-10
2.72062e-14
-1.57831e-10
2.81538e-14
-1.59587e-10
2.91045e-14
-1.61209e-10
3.00689e-14
-1.62694e-10
3.1034e-14
-1.64045e-10
3.20135e-14
-1.6526e-10
3.299e-14
-1.6634e-10
3.39806e-14
-1.67285e-10
3.49632e-14
-1.68094e-10
3.59579e-14
-1.68769e-10
3.69374e-14
-1.69308e-10
3.79251e-14
-1.69713e-10
3.88892e-14
-1.69982e-10
-1.70117e-10
3.98665e-14
2.63871e-17
-3.42798e-12
9.70123e-17
-1.01432e-11
2.17066e-16
-1.67179e-11
4.11516e-16
-2.31522e-11
6.81241e-16
-2.94463e-11
1.00888e-15
-3.56004e-11
1.38589e-15
-4.16146e-11
1.80586e-15
-4.74892e-11
2.26297e-15
-5.32243e-11
2.75211e-15
-5.882e-11
3.26869e-15
-6.42767e-11
3.80891e-15
-6.95944e-11
4.36921e-15
-7.47733e-11
4.94671e-15
-7.98136e-11
5.53945e-15
-8.47154e-11
6.14555e-15
-8.9479e-11
6.76227e-15
-9.41044e-11
7.38798e-15
-9.85919e-11
8.02087e-15
-1.02942e-10
8.66225e-15
-1.07154e-10
9.31152e-15
-1.11228e-10
9.9666e-15
-1.15165e-10
1.0627e-14
-1.18965e-10
1.12938e-14
-1.22628e-10
1.19664e-14
-1.26154e-10
1.26459e-14
-1.29544e-10
1.33316e-14
-1.32796e-10
1.40253e-14
-1.35912e-10
1.4726e-14
-1.38892e-10
1.54361e-14
-1.41735e-10
1.61543e-14
-1.44443e-10
1.68841e-14
-1.47014e-10
1.7623e-14
-1.49449e-10
1.83757e-14
-1.51748e-10
1.91388e-14
-1.53912e-10
1.99184e-14
-1.55939e-10
2.07098e-14
-1.57832e-10
2.15203e-14
-1.59588e-10
2.23432e-14
-1.61209e-10
2.31882e-14
-1.62695e-10
2.40457e-14
-1.64046e-10
2.4928e-14
-1.65261e-10
2.58223e-14
-1.66341e-10
2.67439e-14
-1.67286e-10
2.76758e-14
-1.68095e-10
2.8637e-14
-1.6877e-10
2.96058e-14
-1.69309e-10
3.06048e-14
-1.69714e-10
3.16077e-14
-1.69983e-10
-1.70118e-10
3.26037e-14
1.59059e-17
-3.428e-12
3.90534e-17
-1.01433e-11
6.19762e-17
-1.6718e-11
8.50021e-17
-2.31523e-11
1.14953e-16
-2.94464e-11
1.54341e-16
-3.56004e-11
2.00925e-16
-4.16147e-11
2.55063e-16
-4.74892e-11
3.16728e-16
-5.32243e-11
3.85852e-16
-5.88201e-11
4.62061e-16
-6.42768e-11
5.44859e-16
-6.95944e-11
6.33716e-16
-7.47734e-11
7.28075e-16
-7.98137e-11
8.27947e-16
-8.47155e-11
9.3274e-16
-8.94791e-11
1.04058e-15
-9.41045e-11
1.15254e-15
-9.8592e-11
1.26891e-15
-1.02942e-10
1.38778e-15
-1.07154e-10
1.50877e-15
-1.11228e-10
1.6332e-15
-1.15166e-10
1.76109e-15
-1.18966e-10
1.89226e-15
-1.22629e-10
2.02716e-15
-1.26155e-10
2.16587e-15
-1.29544e-10
2.30908e-15
-1.32796e-10
2.45693e-15
-1.35913e-10
2.61043e-15
-1.38892e-10
2.76981e-15
-1.41736e-10
2.93644e-15
-1.44443e-10
3.11066e-15
-1.47014e-10
3.29418e-15
-1.49449e-10
3.48745e-15
-1.51748e-10
3.69274e-15
-1.53912e-10
3.91068e-15
-1.5594e-10
4.14409e-15
-1.57832e-10
4.39364e-15
-1.59588e-10
4.66279e-15
-1.6121e-10
4.95236e-15
-1.62696e-10
5.26658e-15
-1.64046e-10
5.60651e-15
-1.65261e-10
5.97731e-15
-1.66341e-10
6.38042e-15
-1.67286e-10
6.82205e-15
-1.68096e-10
7.30424e-15
-1.6877e-10
7.83449e-15
-1.6931e-10
8.41572e-15
-1.69714e-10
9.05638e-15
-1.69984e-10
-1.70118e-10
9.73462e-15
-1.1611e-17
-3.42798e-12
-3.13274e-17
-1.01432e-11
-5.43071e-17
-1.67179e-11
-7.99717e-17
-2.31522e-11
-1.08494e-16
-2.94463e-11
-1.39031e-16
-3.56004e-11
-1.68238e-16
-4.16147e-11
-1.96357e-16
-4.74892e-11
-2.23096e-16
-5.32243e-11
-2.48325e-16
-5.88201e-11
-2.71731e-16
-6.42767e-11
-2.92957e-16
-6.95944e-11
-3.11536e-16
-7.47733e-11
-3.26859e-16
-7.98136e-11
-3.39612e-16
-8.47155e-11
-3.49711e-16
-8.94791e-11
-3.54926e-16
-9.41045e-11
-3.55151e-16
-9.8592e-11
-3.49982e-16
-1.02942e-10
-3.39398e-16
-1.07154e-10
-3.2275e-16
-1.11228e-10
-2.98632e-16
-1.15166e-10
-2.662e-16
-1.18966e-10
-2.24573e-16
-1.22629e-10
-1.72963e-16
-1.26155e-10
-1.10291e-16
-1.29544e-10
-3.56583e-17
-1.32797e-10
5.2175e-17
-1.35913e-10
1.54226e-16
-1.38892e-10
2.71938e-16
-1.41736e-10
4.06455e-16
-1.44443e-10
5.5944e-16
-1.47014e-10
7.32166e-16
-1.49449e-10
9.26543e-16
-1.51749e-10
1.14399e-15
-1.53912e-10
1.38669e-15
-1.5594e-10
1.65621e-15
-1.57832e-10
1.95503e-15
-1.59589e-10
2.28483e-15
-1.6121e-10
2.64844e-15
-1.62696e-10
3.04769e-15
-1.64046e-10
3.48575e-15
-1.65262e-10
3.96464e-15
-1.66342e-10
4.48792e-15
-1.67287e-10
5.05776e-15
-1.68096e-10
5.67817e-15
-1.68771e-10
6.35146e-15
-1.69311e-10
7.08212e-15
-1.69715e-10
7.87295e-15
-1.69985e-10
-1.70119e-10
8.70752e-15
-9.41152e-18
-3.42797e-12
-4.38491e-17
-1.01432e-11
-1.03595e-16
-1.67179e-11
-1.86167e-16
-2.31522e-11
-2.89062e-16
-2.94462e-11
-4.09664e-16
-3.56003e-11
-5.45638e-16
-4.16145e-11
-6.94604e-16
-4.74891e-11
-8.54692e-16
-5.32241e-11
-1.02423e-15
-5.88199e-11
-1.20164e-15
-6.42766e-11
-1.38544e-15
-6.95942e-11
-1.5742e-15
-7.47731e-11
-1.76668e-15
-7.98134e-11
-1.96158e-15
-8.47153e-11
-2.15755e-15
-8.94789e-11
-2.3533e-15
-9.41043e-11
-2.5474e-15
-9.85918e-11
-2.73867e-15
-1.02942e-10
-2.92588e-15
-1.07154e-10
-3.10777e-15
-1.11228e-10
-3.28306e-15
-1.15165e-10
-3.45037e-15
-1.18965e-10
-3.60843e-15
-1.22628e-10
-3.75592e-15
-1.26155e-10
-3.89153e-15
-1.29544e-10
-4.0139e-15
-1.32796e-10
-4.12169e-15
-1.35913e-10
-4.21346e-15
-1.38892e-10
-4.28784e-15
-1.41736e-10
-4.34331e-15
-1.44443e-10
-4.37843e-15
-1.47014e-10
-4.39164e-15
-1.49449e-10
-4.38142e-15
-1.51749e-10
-4.34614e-15
-1.53912e-10
-4.28423e-15
-1.5594e-10
-4.19399e-15
-1.57832e-10
-4.07381e-15
-1.59589e-10
-3.92191e-15
-1.6121e-10
-3.73667e-15
-1.62696e-10
-3.51626e-15
-1.64047e-10
-3.25904e-15
-1.65262e-10
-2.96318e-15
-1.66342e-10
-2.62705e-15
-1.67287e-10
-2.24883e-15
-1.68097e-10
-1.82693e-15
-1.68771e-10
-1.35963e-15
-1.69311e-10
-8.45412e-16
-1.69716e-10
-2.82924e-16
-1.69985e-10
-1.7012e-10
3.07156e-16
-1.42742e-17
-3.42796e-12
-5.04431e-17
-1.01432e-11
-1.05536e-16
-1.67178e-11
-1.78352e-16
-2.31521e-11
-2.67645e-16
-2.94462e-11
-3.72136e-16
-3.56002e-11
-4.90533e-16
-4.16144e-11
-6.21533e-16
-4.74889e-11
-7.63835e-16
-5.3224e-11
-9.16141e-16
-5.88198e-11
-1.07716e-15
-6.42764e-11
-1.24559e-15
-6.95941e-11
-1.42016e-15
-7.4773e-11
-1.59959e-15
-7.98133e-11
-1.78261e-15
-8.47151e-11
-1.96794e-15
-8.94787e-11
-2.15431e-15
-9.41041e-11
-2.34046e-15
-9.85916e-11
-2.52512e-15
-1.02941e-10
-2.70704e-15
-1.07153e-10
-2.88496e-15
-1.11228e-10
-3.0576e-15
-1.15165e-10
-3.22371e-15
-1.18965e-10
-3.38202e-15
-1.22628e-10
-3.53127e-15
-1.26154e-10
-3.67018e-15
-1.29544e-10
-3.79749e-15
-1.32796e-10
-3.91192e-15
-1.35912e-10
-4.01219e-15
-1.38892e-10
-4.09702e-15
-1.41736e-10
-4.16512e-15
-1.44443e-10
-4.21519e-15
-1.47014e-10
-4.24595e-15
-1.49449e-10
-4.25607e-15
-1.51749e-10
-4.24428e-15
-1.53912e-10
-4.20925e-15
-1.5594e-10
-4.14967e-15
-1.57832e-10
-4.06423e-15
-1.59589e-10
-3.95161e-15
-1.6121e-10
-3.81049e-15
-1.62696e-10
-3.63955e-15
-1.64047e-10
-3.43747e-15
-1.65262e-10
-3.20293e-15
-1.66342e-10
-2.93461e-15
-1.67287e-10
-2.63117e-15
-1.68097e-10
-2.29131e-15
-1.68772e-10
-1.91368e-15
-1.69311e-10
-1.49698e-15
-1.69716e-10
-1.0398e-15
-1.69986e-10
-1.7012e-10
-5.59696e-16
-1.05478e-17
-3.42795e-12
-4.38038e-17
-1.01431e-11
-9.9185e-17
-1.67178e-11
-1.75065e-16
-2.3152e-11
-2.69867e-16
-2.94461e-11
-3.82055e-16
-3.56001e-11
-5.10126e-16
-4.16143e-11
-6.52611e-16
-4.74888e-11
-8.08066e-16
-5.32238e-11
-9.75076e-16
-5.88196e-11
-1.15225e-15
-6.42762e-11
-1.33821e-15
-6.95939e-11
-1.53162e-15
-7.47728e-11
-1.73112e-15
-7.98131e-11
-1.93541e-15
-8.47149e-11
-2.14317e-15
-8.94785e-11
-2.3531e-15
-9.41039e-11
-2.56394e-15
-9.85914e-11
-2.77439e-15
-1.02941e-10
-2.9832e-15
-1.07153e-10
-3.1891e-15
-1.11228e-10
-3.39087e-15
-1.15165e-10
-3.58724e-15
-1.18965e-10
-3.777e-15
-1.22628e-10
-3.95892e-15
-1.26154e-10
-4.13178e-15
-1.29543e-10
-4.29438e-15
-1.32796e-10
-4.44552e-15
-1.35912e-10
-4.584e-15
-1.38892e-10
-4.70866e-15
-1.41735e-10
-4.81831e-15
-1.44443e-10
-4.9118e-15
-1.47014e-10
-4.98798e-15
-1.49449e-10
-5.04572e-15
-1.51748e-10
-5.0839e-15
-1.53912e-10
-5.10143e-15
-1.5594e-10
-5.09721e-15
-1.57832e-10
-5.0702e-15
-1.59589e-10
-5.01934e-15
-1.6121e-10
-4.94366e-15
-1.62696e-10
-4.84215e-15
-1.64047e-10
-4.71388e-15
-1.65262e-10
-4.55793e-15
-1.66342e-10
-4.37347e-15
-1.67287e-10
-4.15964e-15
-1.68097e-10
-3.91573e-15
-1.68772e-10
-3.64098e-15
-1.69312e-10
-3.33482e-15
-1.69716e-10
-2.9967e-15
-1.69986e-10
-1.70121e-10
-2.64352e-15
-1.01752e-17
-3.42794e-12
-3.79091e-17
-1.01431e-11
-8.17196e-17
-1.67177e-11
-1.40745e-16
-2.3152e-11
-2.14089e-16
-2.9446e-11
-3.00832e-16
-3.56e-11
-4.00031e-16
-4.16142e-11
-5.10727e-16
-4.74887e-11
-6.31944e-16
-5.32237e-11
-7.62694e-16
-5.88195e-11
-9.0198e-16
-6.42761e-11
-1.0488e-15
-6.95937e-11
-1.20213e-15
-7.47726e-11
-1.36095e-15
-7.98129e-11
-1.52425e-15
-8.47147e-11
-1.69101e-15
-8.94783e-11
-1.86018e-15
-9.41038e-11
-2.03075e-15
-9.85913e-11
-2.20169e-15
-1.02941e-10
-2.37198e-15
-1.07153e-10
-2.54058e-15
-1.11228e-10
-2.70648e-15
-1.15165e-10
-2.86867e-15
-1.18965e-10
-3.02612e-15
-1.22628e-10
-3.17783e-15
-1.26154e-10
-3.3228e-15
-1.29543e-10
-3.46003e-15
-1.32796e-10
-3.58853e-15
-1.35912e-10
-3.70732e-15
-1.38892e-10
-3.81542e-15
-1.41735e-10
-3.91187e-15
-1.44443e-10
-3.99572e-15
-1.47014e-10
-4.06601e-15
-1.49449e-10
-4.12183e-15
-1.51748e-10
-4.16224e-15
-1.53912e-10
-4.18633e-15
-1.5594e-10
-4.19322e-15
-1.57832e-10
-4.18201e-15
-1.59589e-10
-4.15184e-15
-1.6121e-10
-4.10187e-15
-1.62696e-10
-4.03124e-15
-1.64047e-10
-3.93915e-15
-1.65262e-10
-3.82477e-15
-1.66343e-10
-3.68734e-15
-1.67288e-10
-3.52606e-15
-1.68097e-10
-3.34019e-15
-1.68772e-10
-3.12896e-15
-1.69312e-10
-2.89169e-15
-1.69717e-10
-2.6276e-15
-1.69986e-10
-1.70121e-10
-2.35114e-15
-7.10483e-18
-3.42793e-12
-2.87669e-17
-1.01431e-11
-6.45282e-17
-1.67177e-11
-1.13538e-16
-2.31519e-11
-1.74949e-16
-2.94459e-11
-2.47916e-16
-3.55999e-11
-3.31592e-16
-4.16141e-11
-4.25132e-16
-4.74886e-11
-5.27685e-16
-5.32236e-11
-6.38405e-16
-5.88194e-11
-7.5644e-16
-6.4276e-11
-8.80938e-16
-6.95936e-11
-1.01105e-15
-7.47725e-11
-1.14591e-15
-7.98128e-11
-1.28468e-15
-8.47146e-11
-1.42649e-15
-8.94782e-11
-1.5705e-15
-9.41036e-11
-1.71585e-15
-9.85911e-11
-1.86168e-15
-1.02941e-10
-2.00715e-15
-1.07153e-10
-2.15141e-15
-1.11227e-10
-2.2936e-15
-1.15165e-10
-2.4329e-15
-1.18965e-10
-2.56847e-15
-1.22628e-10
-2.69946e-15
-1.26154e-10
-2.82506e-15
-1.29543e-10
-2.94444e-15
-1.32796e-10
-3.05679e-15
-1.35912e-10
-3.16132e-15
-1.38892e-10
-3.25722e-15
-1.41735e-10
-3.34371e-15
-1.44443e-10
-3.42002e-15
-1.47014e-10
-3.48539e-15
-1.49449e-10
-3.53907e-15
-1.51748e-10
-3.58032e-15
-1.53912e-10
-3.60844e-15
-1.5594e-10
-3.62271e-15
-1.57832e-10
-3.62246e-15
-1.59589e-10
-3.60702e-15
-1.6121e-10
-3.57576e-15
-1.62696e-10
-3.52805e-15
-1.64047e-10
-3.4633e-15
-1.65262e-10
-3.38092e-15
-1.66343e-10
-3.28041e-15
-1.67288e-10
-3.16121e-15
-1.68098e-10
-3.02289e-15
-1.68772e-10
-2.86496e-15
-1.69312e-10
-2.68707e-15
-1.69717e-10
-2.4888e-15
-1.69987e-10
-1.70121e-10
-2.28294e-15
-5.5593e-18
-3.42793e-12
-2.11322e-17
-1.01431e-11
-4.60636e-17
-1.67177e-11
-7.99043e-17
-2.31519e-11
-1.22182e-16
-2.94459e-11
-1.72403e-16
-3.55999e-11
-2.30057e-16
-4.1614e-11
-2.94617e-16
-4.74885e-11
-3.6554e-16
-5.32236e-11
-4.42271e-16
-5.88193e-11
-5.24242e-16
-6.42759e-11
-6.10875e-16
-6.95935e-11
-7.01583e-16
-7.47724e-11
-7.9577e-16
-7.98127e-11
-8.92833e-16
-8.47145e-11
-9.92163e-16
-8.94781e-11
-1.09315e-15
-9.41035e-11
-1.19516e-15
-9.8591e-11
-1.2976e-15
-1.02941e-10
-1.39982e-15
-1.07153e-10
-1.50121e-15
-1.11227e-10
-1.60113e-15
-1.15165e-10
-1.69898e-15
-1.18965e-10
-1.79411e-15
-1.22628e-10
-1.88591e-15
-1.26154e-10
-1.97377e-15
-1.29543e-10
-2.05706e-15
-1.32796e-10
-2.13518e-15
-1.35912e-10
-2.20752e-15
-1.38892e-10
-2.27348e-15
-1.41735e-10
-2.33247e-15
-1.44442e-10
-2.38392e-15
-1.47014e-10
-2.42723e-15
-1.49449e-10
-2.46186e-15
-1.51748e-10
-2.48724e-15
-1.53912e-10
-2.50283e-15
-1.5594e-10
-2.5081e-15
-1.57832e-10
-2.50254e-15
-1.59589e-10
-2.48563e-15
-1.6121e-10
-2.4569e-15
-1.62696e-10
-2.41586e-15
-1.64047e-10
-2.36207e-15
-1.65262e-10
-2.29507e-15
-1.66343e-10
-2.21446e-15
-1.67288e-10
-2.11981e-15
-1.68098e-10
-2.01078e-15
-1.68772e-10
-1.88695e-15
-1.69312e-10
-1.74805e-15
-1.69717e-10
-1.59368e-15
-1.69987e-10
-1.70121e-10
-1.43443e-15
-3.45534e-18
-3.42792e-12
-1.38928e-17
-1.01431e-11
-3.1089e-17
-1.67176e-11
-5.46732e-17
-2.31518e-11
-8.42709e-17
-2.94459e-11
-1.19503e-16
-3.55998e-11
-1.59985e-16
-4.1614e-11
-2.05326e-16
-4.74885e-11
-2.55133e-16
-5.32235e-11
-3.09003e-16
-5.88192e-11
-3.66531e-16
-6.42758e-11
-4.27306e-16
-6.95935e-11
-4.90912e-16
-7.47723e-11
-5.56929e-16
-7.98126e-11
-6.24933e-16
-8.47144e-11
-6.94497e-16
-8.9478e-11
-7.65189e-16
-9.41034e-11
-8.36578e-16
-9.85909e-11
-9.08228e-16
-1.02941e-10
-9.79702e-16
-1.07153e-10
-1.05056e-15
-1.11227e-10
-1.12038e-15
-1.15165e-10
-1.1887e-15
-1.18965e-10
-1.2551e-15
-1.22628e-10
-1.31915e-15
-1.26154e-10
-1.3804e-15
-1.29543e-10
-1.43844e-15
-1.32796e-10
-1.49282e-15
-1.35912e-10
-1.54314e-15
-1.38892e-10
-1.58898e-15
-1.41735e-10
-1.62991e-15
-1.44442e-10
-1.66553e-15
-1.47014e-10
-1.69544e-15
-1.49449e-10
-1.71925e-15
-1.51748e-10
-1.73655e-15
-1.53912e-10
-1.74698e-15
-1.5594e-10
-1.75014e-15
-1.57832e-10
-1.74568e-15
-1.59589e-10
-1.73321e-15
-1.6121e-10
-1.7124e-15
-1.62696e-10
-1.68287e-15
-1.64047e-10
-1.64429e-15
-1.65263e-10
-1.5963e-15
-1.66343e-10
-1.53858e-15
-1.67288e-10
-1.47075e-15
-1.68098e-10
-1.39251e-15
-1.68773e-10
-1.30344e-15
-1.69312e-10
-1.20325e-15
-1.69717e-10
-1.09151e-15
-1.69987e-10
-1.70121e-10
-9.76803e-16
-1.92774e-18
-3.42792e-12
-7.31098e-18
-1.01431e-11
-1.59315e-17
-1.67176e-11
-2.76509e-17
-2.31518e-11
-4.2317e-17
-2.94458e-11
-5.97648e-17
-3.55998e-11
-7.98179e-17
-4.1614e-11
-1.02289e-16
-4.74885e-11
-1.2698e-16
-5.32235e-11
-1.53685e-16
-5.88192e-11
-1.82188e-16
-6.42758e-11
-2.12264e-16
-6.95934e-11
-2.43684e-16
-7.47723e-11
-2.76208e-16
-7.98126e-11
-3.09593e-16
-8.47144e-11
-3.43589e-16
-8.9478e-11
-3.77943e-16
-9.41034e-11
-4.12395e-16
-9.85909e-11
-4.46684e-16
-1.02941e-10
-4.80543e-16
-1.07153e-10
-5.13706e-16
-1.11227e-10
-5.45904e-16
-1.15165e-10
-5.76865e-16
-1.18965e-10
-6.06318e-16
-1.22628e-10
-6.33992e-16
-1.26154e-10
-6.59617e-16
-1.29543e-10
-6.82921e-16
-1.32796e-10
-7.03637e-16
-1.35912e-10
-7.21497e-16
-1.38892e-10
-7.36239e-16
-1.41735e-10
-7.47599e-16
-1.44442e-10
-7.55321e-16
-1.47014e-10
-7.59147e-16
-1.49449e-10
-7.58831e-16
-1.51748e-10
-7.54118e-16
-1.53912e-10
-7.44776e-16
-1.5594e-10
-7.30554e-16
-1.57832e-10
-7.11235e-16
-1.59589e-10
-6.86566e-16
-1.6121e-10
-6.56357e-16
-1.62696e-10
-6.20341e-16
-1.64047e-10
-5.78365e-16
-1.65263e-10
-5.30139e-16
-1.66343e-10
-4.75565e-16
-1.67288e-10
-4.14302e-16
-1.68098e-10
-3.46343e-16
-1.68773e-10
-2.71262e-16
-1.69312e-10
-1.89196e-16
-1.69717e-10
-9.95734e-17
-1.69987e-10
-1.70122e-10
-9.6321e-18
3.58368e-20
-3.42792e-12
-9.43459e-20
-1.01431e-11
-4.83588e-19
-1.67176e-11
-1.14382e-18
-2.31518e-11
-2.07171e-18
-2.94458e-11
-3.24981e-18
-3.55998e-11
-4.64704e-18
-4.1614e-11
-6.21976e-18
-4.74885e-11
-7.91218e-18
-5.32235e-11
-9.65769e-18
-5.88192e-11
-1.1379e-17
-6.42758e-11
-1.29896e-17
-6.95934e-11
-1.43939e-17
-7.47723e-11
-1.54888e-17
-7.98126e-11
-1.6163e-17
-8.47144e-11
-1.63e-17
-8.9478e-11
-1.57763e-17
-9.41034e-11
-1.44648e-17
-9.85909e-11
-1.22324e-17
-1.02941e-10
-8.94501e-18
-1.07153e-10
-4.46294e-18
-1.11227e-10
1.35157e-18
-1.15165e-10
8.64201e-18
-1.18965e-10
1.75461e-17
-1.22628e-10
2.82083e-17
-1.26154e-10
4.07621e-17
-1.29543e-10
5.535e-17
-1.32796e-10
7.2097e-17
-1.35912e-10
9.11404e-17
-1.38892e-10
1.12592e-16
-1.41735e-10
1.3658e-16
-1.44442e-10
1.63197e-16
-1.47014e-10
1.92562e-16
-1.49449e-10
2.24737e-16
-1.51748e-10
2.5983e-16
-1.53912e-10
2.97864e-16
-1.5594e-10
3.38933e-16
-1.57832e-10
3.83009e-16
-1.59589e-10
4.30171e-16
-1.61211e-10
4.8032e-16
-1.62697e-10
5.33525e-16
-1.64047e-10
5.89587e-16
-1.65263e-10
6.4857e-16
-1.66343e-10
7.10138e-16
-1.67288e-10
7.74365e-16
-1.68098e-10
8.40719e-16
-1.68773e-10
9.09308e-16
-1.69312e-10
9.79321e-16
-1.69717e-10
1.05093e-15
-1.69987e-10
-1.70122e-10
1.11773e-15
1.34365e-18
-3.42792e-12
5.28126e-18
-1.01431e-11
1.16681e-17
-1.67176e-11
2.03454e-17
-2.31518e-11
3.11738e-17
-2.94458e-11
4.40311e-17
-3.55998e-11
5.88117e-17
-4.1614e-11
7.54251e-17
-4.74885e-11
9.37954e-17
-5.32235e-11
1.1386e-16
-5.88192e-11
1.35568e-16
-6.42758e-11
1.58881e-16
-6.95935e-11
1.8377e-16
-7.47723e-11
2.10216e-16
-7.98126e-11
2.38209e-16
-8.47144e-11
2.67746e-16
-8.9478e-11
2.9883e-16
-9.41034e-11
3.31472e-16
-9.85909e-11
3.65685e-16
-1.02941e-10
4.01489e-16
-1.07153e-10
4.38905e-16
-1.11227e-10
4.77956e-16
-1.15165e-10
5.18668e-16
-1.18965e-10
5.61065e-16
-1.22628e-10
6.05172e-16
-1.26154e-10
6.51009e-16
-1.29543e-10
6.986e-16
-1.32796e-10
7.47955e-16
-1.35912e-10
7.9909e-16
-1.38892e-10
8.52004e-16
-1.41735e-10
9.06699e-16
-1.44442e-10
9.63158e-16
-1.47014e-10
1.02136e-15
-1.49449e-10
1.08128e-15
-1.51748e-10
1.14286e-15
-1.53912e-10
1.20605e-15
-1.5594e-10
1.27078e-15
-1.57832e-10
1.33693e-15
-1.59589e-10
1.40442e-15
-1.61211e-10
1.4731e-15
-1.62697e-10
1.54283e-15
-1.64047e-10
1.61342e-15
-1.65263e-10
1.68468e-15
-1.66343e-10
1.75637e-15
-1.67288e-10
1.82824e-15
-1.68098e-10
1.90001e-15
-1.68773e-10
1.97136e-15
-1.69313e-10
2.04196e-15
-1.69717e-10
2.11141e-15
-1.69987e-10
-1.70122e-10
2.17509e-15
2.24293e-18
-3.42793e-12
8.66424e-18
-1.01431e-11
1.90186e-17
-1.67177e-11
3.31006e-17
-2.31519e-11
5.0719e-17
-2.94459e-11
7.16956e-17
-3.55999e-11
9.58647e-17
-4.1614e-11
1.23073e-16
-4.74885e-11
1.53177e-16
-5.32235e-11
1.86045e-16
-5.88192e-11
2.21557e-16
-6.42758e-11
2.596e-16
-6.95935e-11
3.0007e-16
-7.47724e-11
3.42873e-16
-7.98126e-11
3.87919e-16
-8.47145e-11
4.35129e-16
-8.9478e-11
4.84427e-16
-9.41035e-11
5.35743e-16
-9.8591e-11
5.89013e-16
-1.02941e-10
6.44176e-16
-1.07153e-10
7.01174e-16
-1.11227e-10
7.59953e-16
-1.15165e-10
8.20458e-16
-1.18965e-10
8.82641e-16
-1.22628e-10
9.46447e-16
-1.26154e-10
1.01183e-15
-1.29543e-10
1.07873e-15
-1.32796e-10
1.14711e-15
-1.35912e-10
1.21689e-15
-1.38892e-10
1.28804e-15
-1.41735e-10
1.36049e-15
-1.44443e-10
1.43417e-15
-1.47014e-10
1.50901e-15
-1.49449e-10
1.58495e-15
-1.51748e-10
1.66189e-15
-1.53912e-10
1.73978e-15
-1.5594e-10
1.81849e-15
-1.57832e-10
1.89797e-15
-1.59589e-10
1.97808e-15
-1.61211e-10
2.05874e-15
-1.62697e-10
2.1398e-15
-1.64047e-10
2.22121e-15
-1.65263e-10
2.30275e-15
-1.66343e-10
2.3844e-15
-1.67288e-10
2.4659e-15
-1.68098e-10
2.54727e-15
-1.68773e-10
2.62819e-15
-1.69313e-10
2.70874e-15
-1.69717e-10
2.78853e-15
-1.69987e-10
-1.70122e-10
2.86405e-15
2.46364e-18
-3.42793e-12
9.65073e-18
-1.01431e-11
2.1348e-17
-1.67177e-11
3.73438e-17
-2.31519e-11
5.74366e-17
-2.94459e-11
8.1434e-17
-3.55999e-11
1.09153e-16
-4.1614e-11
1.40417e-16
-4.74885e-11
1.75061e-16
-5.32236e-11
2.12925e-16
-5.88193e-11
2.53858e-16
-6.42759e-11
2.97713e-16
-6.95935e-11
3.44354e-16
-7.47724e-11
3.93647e-16
-7.98127e-11
4.45467e-16
-8.47145e-11
4.99692e-16
-8.94781e-11
5.56206e-16
-9.41035e-11
6.14897e-16
-9.85911e-11
6.75658e-16
-1.02941e-10
7.38385e-16
-1.07153e-10
8.02977e-16
-1.11227e-10
8.69338e-16
-1.15165e-10
9.37372e-16
-1.18965e-10
1.00699e-15
-1.22628e-10
1.07809e-15
-1.26154e-10
1.1506e-15
-1.29543e-10
1.22441e-15
-1.32796e-10
1.29946e-15
-1.35912e-10
1.37564e-15
-1.38892e-10
1.45287e-15
-1.41735e-10
1.53106e-15
-1.44443e-10
1.61014e-15
-1.47014e-10
1.69e-15
-1.49449e-10
1.77057e-15
-1.51749e-10
1.85175e-15
-1.53912e-10
1.93345e-15
-1.5594e-10
2.01557e-15
-1.57833e-10
2.09804e-15
-1.59589e-10
2.18075e-15
-1.61211e-10
2.26361e-15
-1.62697e-10
2.3465e-15
-1.64047e-10
2.42936e-15
-1.65263e-10
2.51205e-15
-1.66343e-10
2.5945e-15
-1.67288e-10
2.67656e-15
-1.68098e-10
2.75818e-15
-1.68773e-10
2.83919e-15
-1.69313e-10
2.91955e-15
-1.69717e-10
2.99905e-15
-1.69987e-10
-1.70122e-10
3.07418e-15
2.28884e-18
-3.42793e-12
8.97681e-18
-1.01431e-11
1.98937e-17
-1.67177e-11
3.48768e-17
-2.31519e-11
5.37667e-17
-2.94459e-11
7.64066e-17
-3.55999e-11
1.02643e-16
-4.16141e-11
1.32326e-16
-4.74886e-11
1.65307e-16
-5.32236e-11
2.01444e-16
-5.88193e-11
2.40597e-16
-6.42759e-11
2.82627e-16
-6.95936e-11
3.27401e-16
-7.47725e-11
3.74789e-16
-7.98127e-11
4.24663e-16
-8.47146e-11
4.76899e-16
-8.94781e-11
5.31376e-16
-9.41036e-11
5.87975e-16
-9.85911e-11
6.46581e-16
-1.02941e-10
7.07082e-16
-1.07153e-10
7.69365e-16
-1.11228e-10
8.33325e-16
-1.15165e-10
8.98853e-16
-1.18965e-10
9.65848e-16
-1.22628e-10
1.03421e-15
-1.26154e-10
1.10383e-15
-1.29543e-10
1.17462e-15
-1.32796e-10
1.24649e-15
-1.35912e-10
1.31932e-15
-1.38892e-10
1.39305e-15
-1.41735e-10
1.46756e-15
-1.44443e-10
1.54278e-15
-1.47014e-10
1.6186e-15
-1.49449e-10
1.69496e-15
-1.51749e-10
1.77175e-15
-1.53912e-10
1.8489e-15
-1.5594e-10
1.92632e-15
-1.57833e-10
2.00393e-15
-1.59589e-10
2.08164e-15
-1.61211e-10
2.15939e-15
-1.62697e-10
2.23707e-15
-1.64048e-10
2.31465e-15
-1.65263e-10
2.39202e-15
-1.66343e-10
2.46913e-15
-1.67288e-10
2.54588e-15
-1.68098e-10
2.62226e-15
-1.68773e-10
2.69812e-15
-1.69313e-10
2.77351e-15
-1.69717e-10
2.84824e-15
-1.69987e-10
-1.70122e-10
2.91898e-15
1.94305e-18
-3.42793e-12
7.65979e-18
-1.01431e-11
1.70336e-17
-1.67177e-11
2.99462e-17
-2.31519e-11
4.62802e-17
-2.94459e-11
6.59183e-17
-3.55999e-11
8.87439e-17
-4.16141e-11
1.14641e-16
-4.74886e-11
1.43495e-16
-5.32236e-11
1.75191e-16
-5.88194e-11
2.09616e-16
-6.4276e-11
2.4666e-16
-6.95936e-11
2.86212e-16
-7.47725e-11
3.28162e-16
-7.98128e-11
3.72403e-16
-8.47146e-11
4.1883e-16
-8.94782e-11
4.67337e-16
-9.41037e-11
5.17822e-16
-9.85912e-11
5.70183e-16
-1.02941e-10
6.24319e-16
-1.07153e-10
6.80134e-16
-1.11228e-10
7.37529e-16
-1.15165e-10
7.96409e-16
-1.18965e-10
8.5668e-16
-1.22628e-10
9.1825e-16
-1.26154e-10
9.81028e-16
-1.29543e-10
1.04492e-15
-1.32796e-10
1.10985e-15
-1.35912e-10
1.17572e-15
-1.38892e-10
1.24244e-15
-1.41735e-10
1.30994e-15
-1.44443e-10
1.37813e-15
-1.47014e-10
1.44692e-15
-1.49449e-10
1.51625e-15
-1.51749e-10
1.58601e-15
-1.53912e-10
1.65615e-15
-1.5594e-10
1.72658e-15
-1.57833e-10
1.79723e-15
-1.59589e-10
1.868e-15
-1.61211e-10
1.93886e-15
-1.62697e-10
2.00969e-15
-1.64048e-10
2.08046e-15
-1.65263e-10
2.15106e-15
-1.66343e-10
2.22147e-15
-1.67288e-10
2.29155e-15
-1.68098e-10
2.36132e-15
-1.68773e-10
2.43062e-15
-1.69313e-10
2.49948e-15
-1.69718e-10
2.56773e-15
-1.69987e-10
-1.70122e-10
2.63213e-15
1.48257e-18
-3.42793e-12
5.86454e-18
-1.01431e-11
1.30807e-17
-1.67177e-11
2.30656e-17
-2.31519e-11
3.57525e-17
-2.94459e-11
5.10725e-17
-3.55999e-11
6.89552e-17
-4.16141e-11
8.9329e-17
-4.74886e-11
1.12121e-16
-5.32236e-11
1.37259e-16
-5.88194e-11
1.64666e-16
-6.4276e-11
1.9427e-16
-6.95937e-11
2.25995e-16
-7.47725e-11
2.59765e-16
-7.98128e-11
2.95506e-16
-8.47147e-11
3.3314e-16
-8.94782e-11
3.72594e-16
-9.41037e-11
4.13792e-16
-9.85912e-11
4.56658e-16
-1.02941e-10
5.01119e-16
-1.07153e-10
5.47099e-16
-1.11228e-10
5.94526e-16
-1.15165e-10
6.43324e-16
-1.18965e-10
6.93422e-16
-1.22628e-10
7.44747e-16
-1.26154e-10
7.97227e-16
-1.29543e-10
8.50789e-16
-1.32796e-10
9.05363e-16
-1.35912e-10
9.60878e-16
-1.38892e-10
1.01726e-15
-1.41736e-10
1.07445e-15
-1.44443e-10
1.13237e-15
-1.47014e-10
1.19094e-15
-1.49449e-10
1.25011e-15
-1.51749e-10
1.30979e-15
-1.53912e-10
1.36994e-15
-1.5594e-10
1.43045e-15
-1.57833e-10
1.49128e-15
-1.5959e-10
1.55235e-15
-1.61211e-10
1.61359e-15
-1.62697e-10
1.67491e-15
-1.64048e-10
1.73627e-15
-1.65263e-10
1.79755e-15
-1.66343e-10
1.85871e-15
-1.67288e-10
1.91964e-15
-1.68098e-10
1.9803e-15
-1.68773e-10
2.04054e-15
-1.69313e-10
2.10036e-15
-1.69718e-10
2.15955e-15
-1.69987e-10
-1.70122e-10
2.21491e-15
9.28541e-19
3.71029e-18
8.33957e-18
1.48063e-17
2.30969e-17
3.31941e-17
4.50771e-17
5.87226e-17
7.4104e-17
9.11927e-17
1.09957e-16
1.30365e-16
1.5238e-16
1.75965e-16
2.01083e-16
2.27693e-16
2.55754e-16
2.85224e-16
3.16059e-16
3.48215e-16
3.81646e-16
4.16308e-16
4.52153e-16
4.89134e-16
5.27203e-16
5.66312e-16
6.06411e-16
6.47453e-16
6.89385e-16
7.3216e-16
7.75723e-16
8.20026e-16
8.65013e-16
9.10635e-16
9.56833e-16
1.00356e-15
1.05075e-15
1.09835e-15
1.1463e-15
1.19455e-15
1.24303e-15
1.29168e-15
1.34042e-15
1.38921e-15
1.43794e-15
1.48659e-15
1.53502e-15
1.58324e-15
1.63104e-15
1.67525e-15
4.06554e-14
-1.70113e-10
-5.5423e-13
-1.68385e-10
-1.15158e-12
-1.62388e-10
-1.72564e-12
-1.56509e-10
-2.26728e-12
-1.50747e-10
-2.77047e-12
-1.45106e-10
-3.23143e-12
-1.39593e-10
-3.64812e-12
-1.34209e-10
-4.01989e-12
-1.2896e-10
-4.34711e-12
-1.23847e-10
-4.63097e-12
-1.18874e-10
-4.87323e-12
-1.14042e-10
-5.07606e-12
-1.09353e-10
-5.2419e-12
-1.04808e-10
-5.37336e-12
-1.00409e-10
-5.47313e-12
-9.61549e-11
-5.54391e-12
-9.20472e-11
-5.58837e-12
-8.80853e-11
-5.6091e-12
-8.42687e-11
-5.60857e-12
-8.05967e-11
-5.58916e-12
-7.70683e-11
-5.55308e-12
-7.3682e-11
-5.5024e-12
-7.04362e-11
-5.43905e-12
-6.7329e-11
-5.36482e-12
-6.43582e-11
-5.28132e-12
-6.15215e-11
-5.19004e-12
-5.88162e-11
-5.09234e-12
-5.62396e-11
-4.98943e-12
-5.37886e-11
-4.8824e-12
-5.14601e-11
-4.77224e-12
-4.92507e-11
-4.65981e-12
-4.71569e-11
-4.54588e-12
-4.51754e-11
-4.43114e-12
-4.33023e-11
-4.31618e-12
-4.1534e-11
-4.20153e-12
-3.98666e-11
-4.08762e-12
-3.82964e-11
-3.97485e-12
-3.68194e-11
-3.86355e-12
-3.54319e-11
-3.75399e-12
-3.41299e-11
-3.64643e-12
-3.29096e-11
-3.54104e-12
-3.17672e-11
-3.43799e-12
-3.06988e-11
-3.3374e-12
-2.97009e-11
-3.23938e-12
-2.87696e-11
-3.14401e-12
-2.79014e-11
-3.05133e-12
-2.70928e-11
-2.96138e-12
-2.63403e-11
-2.8742e-12
-2.56407e-11
-2.49905e-11
-2.79e-12
3.35558e-14
-1.70114e-10
-1.22773e-12
-1.67124e-10
-2.36631e-12
-1.61249e-10
-3.38998e-12
-1.55485e-10
-4.30052e-12
-1.49836e-10
-5.10147e-12
-1.44305e-10
-5.7977e-12
-1.38896e-10
-6.395e-12
-1.33612e-10
-6.89972e-12
-1.28455e-10
-7.31857e-12
-1.23428e-10
-7.65841e-12
-1.18534e-10
-7.9261e-12
-1.13774e-10
-8.12835e-12
-1.0915e-10
-8.27168e-12
-1.04665e-10
-8.36228e-12
-1.00318e-10
-8.40602e-12
-9.61112e-11
-8.4084e-12
-9.20448e-11
-8.37454e-12
-8.81192e-11
-8.30916e-12
-8.43341e-11
-8.21662e-12
-8.06893e-11
-8.10087e-12
-7.7184e-11
-7.96553e-12
-7.38173e-11
-7.81387e-12
-7.05878e-11
-7.64882e-12
-6.7494e-11
-7.47301e-12
-6.4534e-11
-7.28881e-12
-6.17057e-11
-7.09829e-12
-5.90068e-11
-6.90331e-12
-5.64346e-11
-6.70548e-12
-5.39864e-11
-6.50623e-12
-5.16593e-11
-6.30678e-12
-4.94501e-11
-6.1082e-12
-4.73555e-11
-5.9114e-12
-4.53722e-11
-5.71716e-12
-4.34965e-11
-5.52613e-12
-4.1725e-11
-5.33885e-12
-4.00539e-11
-5.15578e-12
-3.84794e-11
-4.97726e-12
-3.69979e-11
-4.80358e-12
-3.56055e-11
-4.63497e-12
-3.42985e-11
-4.47157e-12
-3.3073e-11
-4.3135e-12
-3.19252e-11
-4.16082e-12
-3.08515e-11
-4.01356e-12
-2.98481e-11
-3.87171e-12
-2.89114e-11
-3.73524e-12
-2.80379e-11
-3.60409e-12
-2.72239e-11
-3.4782e-12
-2.64662e-11
-3.35747e-12
-2.57614e-11
-2.51062e-11
-3.2417e-12
1.04446e-14
-1.70115e-10
-1.02999e-12
-1.66083e-10
-1.92766e-12
-1.60352e-10
-2.69258e-12
-1.5472e-10
-3.33697e-12
-1.49192e-10
-3.87282e-12
-1.4377e-10
-4.31174e-12
-1.38457e-10
-4.66481e-12
-1.33259e-10
-4.94243e-12
-1.28177e-10
-5.15421e-12
-1.23216e-10
-5.30892e-12
-1.18379e-10
-5.41452e-12
-1.13668e-10
-5.47814e-12
-1.09087e-10
-5.50614e-12
-1.04637e-10
-5.50413e-12
-1.0032e-10
-5.47707e-12
-9.61383e-11
-5.42927e-12
-9.20926e-11
-5.36451e-12
-8.81839e-11
-5.28602e-12
-8.44126e-11
-5.19663e-12
-8.07787e-11
-5.09874e-12
-7.72819e-11
-4.99442e-12
-7.39216e-11
-4.88541e-12
-7.06968e-11
-4.77319e-12
-6.76062e-11
-4.65903e-12
-6.46482e-11
-4.54396e-12
-6.18208e-11
-4.42887e-12
-5.91219e-11
-4.31447e-12
-5.6549e-11
-4.20136e-12
-5.40995e-11
-4.09001e-12
-5.17707e-11
-3.98083e-12
-4.95593e-11
-3.87411e-12
-4.74622e-11
-3.7701e-12
-4.54762e-11
-3.66897e-12
-4.35977e-11
-3.57085e-12
-4.18231e-11
-3.47583e-12
-4.01489e-11
-3.38396e-12
-3.85713e-11
-3.29527e-12
-3.70866e-11
-3.20976e-12
-3.56911e-11
-3.12741e-12
-3.43808e-11
-3.04818e-12
-3.31522e-11
-2.97203e-12
-3.20014e-11
-2.8989e-12
-3.09246e-11
-2.82872e-12
-2.99183e-11
-2.76143e-12
-2.89787e-11
-2.69694e-12
-2.81024e-11
-2.6352e-12
-2.72857e-11
-2.57611e-12
-2.65253e-11
-2.51961e-12
-2.58179e-11
-2.51602e-11
-2.46559e-12
9.57534e-15
-1.70116e-10
-8.05113e-13
-1.65269e-10
-1.47924e-12
-1.59678e-10
-2.03178e-12
-1.54168e-10
-2.47967e-12
-1.48744e-10
-2.83813e-12
-1.43411e-10
-3.12064e-12
-1.38175e-10
-3.33902e-12
-1.3304e-10
-3.50359e-12
-1.28013e-10
-3.62325e-12
-1.23097e-10
-3.70568e-12
-1.18297e-10
-3.75742e-12
-1.13617e-10
-3.78406e-12
-1.0906e-10
-3.79033e-12
-1.0463e-10
-3.78021e-12
-1.0033e-10
-3.75706e-12
-9.61614e-11
-3.72366e-12
-9.2126e-11
-3.68234e-12
-8.82252e-11
-3.63503e-12
-8.44599e-11
-3.58329e-12
-8.08304e-11
-3.52842e-12
-7.73368e-11
-3.47147e-12
-7.39786e-11
-3.41328e-12
-7.0755e-11
-3.35453e-12
-6.7665e-11
-3.29574e-12
-6.4707e-11
-3.23734e-12