/*--------------------------------*- C++ -*----------------------------------*\
| =========                 |                                                 |
| \\      /  F ield         | OpenFOAM: The Open Source CFD Toolbox           |
|  \\    /   O peration     | Version:  2.4.0                                 |
|   \\  /    A nd           | Web:      www.OpenFOAM.org                      |
|    \\/     M anipulation  |                                                 |
\*---------------------------------------------------------------------------*/
FoamFile
{
    version     2.0;
    format      ascii;
    class       volScalarField;
    location    "0.001";
    object      alpha1;
}
// * * * * * * * * * * * * * * * * * * * * * * * * * * * * * * * * * * * * * //

dimensions      [0 0 0 0 0 0 0];

internalField   nonuniform List<scalar> 
125
(
1
0.0485969
1.38628e-42
1.29485e-48
1.21024e-54
1.21892e-60
1.23034e-66
1.13883e-72
9.25669e-79
6.5266e-85
3.98918e-91
2.11743e-97
9.76851e-104
3.91181e-110
1.3543e-116
4.02434e-123
1.01498e-129
2.13761e-136
3.67185e-143
4.96851e-150
5.01738e-157
3.44724e-164
1.33331e-171
1.63252e-179
0
0
0
0
0
0
0
0
0
0
0
0
0
0
0
0
0
0
0
0
0
0
0
0
0
0
0
0
0
0
0
0
0
0
0
0
0
0
0
0
0
0
0
0
0
0
0
0
0
0
0
0
0
0
0
0
0
0
0
0
0
0
0
0
0
0
0
0
0
0
0
0
0
0
0
0
0
0
0
0
0
0
0
0
0
0
0
0
0
0
0
0
0
0
0
0
0
0
0
0
0
)
;

boundaryField
{
    BotWall
    {
        type            fixedValue;
        value           uniform 1;
    }
    FreeStream
    {
        type            inletOutlet;
        inletValue      uniform 0;
        value           uniform 0;
    }
    FrontNBack
    {
        type            empty;
    }
    LeftSide
    {
        type            symmetryPlane;
    }
    RightSide
    {
        type            symmetryPlane;
    }
    procBoundary4to1
    {
        type            processor;
        value           uniform 0;
    }
    procBoundary4to2
    {
        type            processor;
        value           nonuniform List<scalar> 
75
(
1
0.0485965
1.13126e-47
4.75956e-57
1.61493e-63
5.32113e-70
1.37701e-126
3.29783e-126
6.92639e-126
1.24973e-125
1.88333e-125
2.27565e-125
2.06694e-125
1.25442e-125
3.81513e-126
2.74914e-132
1.12958e-138
3.33891e-145
7.42855e-152
1.23743e-158
1.55701e-165
1.31997e-172
9.07561e-180
3.2285e-187
0
0
0
0
0
0
0
0
0
0
0
0
0
0
0
0
0
0
0
0
0
0
0
0
0
0
0
0
0
0
0
0
0
0
0
0
0
0
0
0
0
0
0
0
0
0
0
0
0
0
0
)
;
    }
    procBoundary4to3
    {
        type            processor;
        value           uniform 0;
    }
    procBoundary4to5
    {
        type            processor;
        value           uniform 0;
    }
    procBoundary4to6
    {
        type            processor;
        value           uniform 0;
    }
    procBoundary4to7
    {
        type            processor;
        value           nonuniform List<scalar> 
50
(
1
0.0485967
3.98073e-47
4.07014e-53
4.68254e-59
5.35995e-65
5.90795e-71
5.81568e-77
4.93367e-83
3.58243e-89
2.23349e-95
1.20082e-101
5.58219e-108
2.24373e-114
7.77395e-121
2.30659e-127
5.79858e-134
1.21559e-140
2.07621e-147
2.79105e-154
2.79816e-161
1.90755e-168
7.31719e-176
8.88208e-184
0
0
0
0
0
0
0
0
0
0
0
0
0
0
0
0
0
0
0
0
0
0
0
0
0
0
)
;
    }
}


// ************************************************************************* //
