/*--------------------------------*- C++ -*----------------------------------*\
| =========                 |                                                 |
| \\      /  F ield         | OpenFOAM: The Open Source CFD Toolbox           |
|  \\    /   O peration     | Version:  2.4.0                                 |
|   \\  /    A nd           | Web:      www.OpenFOAM.org                      |
|    \\/     M anipulation  |                                                 |
\*---------------------------------------------------------------------------*/
FoamFile
{
    version     2.0;
    format      ascii;
    class       volScalarField;
    location    "4.9";
    object      p_rgh;
}
// * * * * * * * * * * * * * * * * * * * * * * * * * * * * * * * * * * * * * //

dimensions      [1 -1 -2 0 0 0 0];

internalField   nonuniform List<scalar> 
125
(
-4.54815e-06
-4.53952e-06
-4.52033e-06
-4.52732e-06
-4.54622e-06
-4.52885e-06
-4.52058e-06
-4.50219e-06
-4.50889e-06
-4.52699e-06
-4.50934e-06
-4.50142e-06
-4.48383e-06
-4.49023e-06
-4.50754e-06
-4.48962e-06
-4.48205e-06
-4.46525e-06
-4.47136e-06
-4.48787e-06
-4.46969e-06
-4.46247e-06
-4.44646e-06
-4.45226e-06
-4.468e-06
-4.44955e-06
-4.44267e-06
-4.42744e-06
-4.43296e-06
-4.44791e-06
-4.42919e-06
-4.42266e-06
-4.40821e-06
-4.41343e-06
-4.4276e-06
-4.40863e-06
-4.40243e-06
-4.38876e-06
-4.39369e-06
-4.40709e-06
-4.38784e-06
-4.38198e-06
-4.36908e-06
-4.37373e-06
-4.38636e-06
-4.36684e-06
-4.36131e-06
-4.34917e-06
-4.35354e-06
-4.36541e-06
-4.34562e-06
-4.34042e-06
-4.32904e-06
-4.33313e-06
-4.34424e-06
-4.32417e-06
-4.3193e-06
-4.30867e-06
-4.3125e-06
-4.32284e-06
-4.30249e-06
-4.29795e-06
-4.28808e-06
-4.29163e-06
-4.30122e-06
-4.28058e-06
-4.27636e-06
-4.26724e-06
-4.27054e-06
-4.27937e-06
-4.25844e-06
-4.25454e-06
-4.24618e-06
-4.24921e-06
-4.25728e-06
-4.23607e-06
-4.23249e-06
-4.22487e-06
-4.22765e-06
-4.23496e-06
-4.21345e-06
-4.21019e-06
-4.20332e-06
-4.20584e-06
-4.2124e-06
-4.19059e-06
-4.18765e-06
-4.18153e-06
-4.1838e-06
-4.1896e-06
-4.16749e-06
-4.16487e-06
-4.1595e-06
-4.16151e-06
-4.16655e-06
-4.14413e-06
-4.14184e-06
-4.13722e-06
-4.13898e-06
-4.14326e-06
-4.12053e-06
-4.11855e-06
-4.11468e-06
-4.1162e-06
-4.11971e-06
-4.09668e-06
-4.09501e-06
-4.09189e-06
-4.09316e-06
-4.09591e-06
-4.07259e-06
-4.0712e-06
-4.06881e-06
-4.06986e-06
-4.07186e-06
-4.0482e-06
-4.04714e-06
-4.04554e-06
-4.04633e-06
-4.04753e-06
-4.02322e-06
-4.02294e-06
-4.02238e-06
-4.02259e-06
-4.02289e-06
)
;

boundaryField
{
    BotWall
    {
        type            fixedFluxPressure;
        gradient        nonuniform 0();
        value           nonuniform 0();
    }
    FreeStream
    {
        type            totalPressure;
        rho             rho;
        psi             none;
        gamma           1;
        p0              uniform 0;
        value           nonuniform List<scalar> 5(-4.01044e-06 -4.01084e-06 -4.01098e-06 -4.01069e-06 -4.01044e-06);
    }
    FrontNBack
    {
        type            empty;
    }
    LeftSide
    {
        type            symmetryPlane;
    }
    RightSide
    {
        type            symmetryPlane;
    }
    procBoundary3to2
    {
        type            processor;
        value           nonuniform List<scalar> 5(-4.56722e-06 -4.55823e-06 -4.53825e-06 -4.54549e-06 -4.56516e-06);
    }
}


// ************************************************************************* //
