/*--------------------------------*- C++ -*----------------------------------*\
| =========                 |                                                 |
| \\      /  F ield         | OpenFOAM: The Open Source CFD Toolbox           |
|  \\    /   O peration     | Version:  2.4.0                                 |
|   \\  /    A nd           | Web:      www.OpenFOAM.org                      |
|    \\/     M anipulation  |                                                 |
\*---------------------------------------------------------------------------*/
FoamFile
{
    version     2.0;
    format      ascii;
    class       surfaceScalarField;
    location    "4.9";
    object      phi;
}
// * * * * * * * * * * * * * * * * * * * * * * * * * * * * * * * * * * * * * //

dimensions      [0 3 -1 0 0 0 0];

internalField   nonuniform List<scalar> 
220
(
-3.50975e-16
-1.87563e-10
-3.21709e-16
-1.87572e-10
2.11678e-16
-1.87571e-10
5.32543e-16
-1.87564e-10
-1.87567e-10
-3.37982e-16
-1.87563e-10
-3.14077e-16
-1.87572e-10
2.04689e-16
-1.87571e-10
5.20566e-16
-1.87564e-10
-1.87567e-10
-3.22528e-16
-1.87563e-10
-3.03787e-16
-1.87572e-10
1.96692e-16
-1.87572e-10
5.05583e-16
-1.87565e-10
-1.87566e-10
-3.04756e-16
-1.87562e-10
-2.90983e-16
-1.87572e-10
1.87755e-16
-1.87572e-10
4.87777e-16
-1.87565e-10
-1.87566e-10
-2.84823e-16
-1.87562e-10
-2.75824e-16
-1.87572e-10
1.77954e-16
-1.87573e-10
4.67341e-16
-1.87565e-10
-1.87565e-10
-2.62902e-16
-1.87562e-10
-2.5848e-16
-1.87572e-10
1.67367e-16
-1.87573e-10
4.44484e-16
-1.87566e-10
-1.87565e-10
-2.39178e-16
-1.87562e-10
-2.39136e-16
-1.87572e-10
1.56079e-16
-1.87573e-10
4.1943e-16
-1.87566e-10
-1.87564e-10
-2.13854e-16
-1.87561e-10
-2.17992e-16
-1.87572e-10
1.44179e-16
-1.87574e-10
3.92419e-16
-1.87566e-10
-1.87564e-10
-1.87144e-16
-1.87561e-10
-1.9526e-16
-1.87572e-10
1.31763e-16
-1.87574e-10
3.63703e-16
-1.87566e-10
-1.87564e-10
-1.5928e-16
-1.87561e-10
-1.71169e-16
-1.87572e-10
1.18932e-16
-1.87574e-10
3.33554e-16
-1.87567e-10
-1.87563e-10
-1.30508e-16
-1.87561e-10
-1.45963e-16
-1.87572e-10
1.05792e-16
-1.87575e-10
3.02257e-16
-1.87567e-10
-1.87563e-10
-1.01089e-16
-1.87561e-10
-1.19899e-16
-1.87572e-10
9.24544e-17
-1.87575e-10
2.70118e-16
-1.87567e-10
-1.87563e-10
-7.13009e-17
-1.87561e-10
-9.32512e-17
-1.87571e-10
7.90387e-17
-1.87575e-10
2.37456e-16
-1.87567e-10
-1.87563e-10
-4.14366e-17
-1.87561e-10
-6.63098e-17
-1.87571e-10
6.56692e-17
-1.87575e-10
2.04611e-16
-1.87567e-10
-1.87562e-10
-1.18048e-17
-1.87561e-10
-3.93803e-17
-1.87571e-10
5.24768e-17
-1.87575e-10
1.71942e-16
-1.87567e-10
-1.87562e-10
1.727e-17
-1.87561e-10
-1.27843e-17
-1.87571e-10
3.95993e-17
-1.87575e-10
1.39827e-16
-1.87567e-10
-1.87562e-10
4.54473e-17
-1.87561e-10
1.31396e-17
-1.87571e-10
2.71814e-17
-1.87575e-10
1.08664e-16
-1.87567e-10
-1.87562e-10
7.23706e-17
-1.87561e-10
3.80365e-17
-1.87571e-10
1.53752e-17
-1.87575e-10
7.88731e-17
-1.87568e-10
-1.87562e-10
9.76676e-17
-1.87561e-10
6.15347e-17
-1.87571e-10
4.34014e-18
-1.87575e-10
5.08971e-17
-1.87568e-10
-1.87562e-10
1.2095e-16
-1.87561e-10
8.32449e-17
-1.87571e-10
-5.75602e-18
-1.87575e-10
2.52024e-17
-1.87568e-10
-1.87562e-10
1.41812e-16
-1.87561e-10
1.0276e-16
-1.87571e-10
-1.47365e-17
-1.87575e-10
2.2807e-18
-1.87568e-10
-1.87562e-10
1.59832e-16
-1.87561e-10
1.19653e-16
-1.87571e-10
-2.24141e-17
-1.87575e-10
-1.735e-17
-1.87568e-10
-1.87562e-10
1.74576e-16
-1.87561e-10
1.33484e-16
-1.87571e-10
-2.85943e-17
-1.87575e-10
-3.31459e-17
-1.87568e-10
-1.87562e-10
1.85618e-16
-1.87562e-10
1.43806e-16
-1.87571e-10
-3.30924e-17
-1.87575e-10
-4.45367e-17
-1.87568e-10
-1.87562e-10
1.92548e-16
1.50096e-16
-3.57063e-17
-5.08781e-17
)
;

boundaryField
{
    BotWall
    {
        type            calculated;
        value           nonuniform 0();
    }
    FreeStream
    {
        type            calculated;
        value           nonuniform List<scalar> 5(-1.87562e-10 -1.87571e-10 -1.87574e-10 -1.87568e-10 -1.87562e-10);
    }
    FrontNBack
    {
        type            empty;
        value           nonuniform 0();
    }
    LeftSide
    {
        type            symmetryPlane;
        value           uniform 0;
    }
    RightSide
    {
        type            symmetryPlane;
        value           uniform 0;
    }
    procBoundary3to2
    {
        type            processor;
        value           nonuniform List<scalar> 5(1.87564e-10 1.87571e-10 1.8757e-10 1.87564e-10 1.87568e-10);
    }
}


// ************************************************************************* //
