/*--------------------------------*- C++ -*----------------------------------*\
| =========                 |                                                 |
| \\      /  F ield         | OpenFOAM: The Open Source CFD Toolbox           |
|  \\    /   O peration     | Version:  2.4.0                                 |
|   \\  /    A nd           | Web:      www.OpenFOAM.org                      |
|    \\/     M anipulation  |                                                 |
\*---------------------------------------------------------------------------*/
FoamFile
{
    version     2.0;
    format      ascii;
    class       volVectorField;
    location    "4.9";
    object      U;
}
// * * * * * * * * * * * * * * * * * * * * * * * * * * * * * * * * * * * * * //

dimensions      [0 1 -1 0 0 0 0];

internalField   nonuniform List<vector> 
125
(
(-3.58099e-08 -0.000937817 0)
(-7.55073e-08 -0.000937857 0)
(-2.60622e-08 -0.000937852 0)
(9.30589e-08 -0.00093782 0)
(7.53438e-08 -0.000937838 0)
(-3.374e-08 -0.000937816 0)
(-7.22739e-08 -0.000937858 0)
(-2.57852e-08 -0.000937854 0)
(8.98513e-08 -0.000937821 0)
(7.2942e-08 -0.000937835 0)
(-3.15272e-08 -0.000937814 0)
(-6.85233e-08 -0.000937858 0)
(-2.52669e-08 -0.000937857 0)
(8.61465e-08 -0.000937823 0)
(7.02094e-08 -0.000937833 0)
(-2.91885e-08 -0.000937812 0)
(-6.43061e-08 -0.000937858 0)
(-2.45273e-08 -0.000937859 0)
(8.1995e-08 -0.000937824 0)
(6.71803e-08 -0.00093783 0)
(-2.67415e-08 -0.000937811 0)
(-5.96744e-08 -0.000937858 0)
(-2.35863e-08 -0.000937862 0)
(7.74478e-08 -0.000937826 0)
(6.38893e-08 -0.000937828 0)
(-2.42044e-08 -0.00093781 0)
(-5.46811e-08 -0.000937858 0)
(-2.24644e-08 -0.000937864 0)
(7.25567e-08 -0.000937827 0)
(6.03716e-08 -0.000937825 0)
(-2.15957e-08 -0.000937808 0)
(-4.93802e-08 -0.000937858 0)
(-2.11823e-08 -0.000937866 0)
(6.73743e-08 -0.000937828 0)
(5.66627e-08 -0.000937823 0)
(-1.89347e-08 -0.000937807 0)
(-4.38266e-08 -0.000937858 0)
(-1.97612e-08 -0.000937868 0)
(6.19536e-08 -0.00093783 0)
(5.27985e-08 -0.000937821 0)
(-1.62412e-08 -0.000937806 0)
(-3.80763e-08 -0.000937858 0)
(-1.82225e-08 -0.00093787 0)
(5.63484e-08 -0.000937831 0)
(4.88151e-08 -0.000937819 0)
(-1.3535e-08 -0.000937805 0)
(-3.2186e-08 -0.000937858 0)
(-1.65879e-08 -0.000937871 0)
(5.06129e-08 -0.000937832 0)
(4.47491e-08 -0.000937818 0)
(-1.08368e-08 -0.000937805 0)
(-2.62129e-08 -0.000937858 0)
(-1.48794e-08 -0.000937872 0)
(4.48019e-08 -0.000937833 0)
(4.06377e-08 -0.000937816 0)
(-8.16744e-09 -0.000937804 0)
(-2.02154e-08 -0.000937858 0)
(-1.31194e-08 -0.000937874 0)
(3.89708e-08 -0.000937834 0)
(3.65182e-08 -0.000937815 0)
(-5.54795e-09 -0.000937804 0)
(-1.42521e-08 -0.000937858 0)
(-1.13304e-08 -0.000937875 0)
(3.31754e-08 -0.000937835 0)
(3.24284e-08 -0.000937813 0)
(-2.99977e-09 -0.000937803 0)
(-8.3825e-09 -0.000937857 0)
(-9.53535e-09 -0.000937875 0)
(2.74721e-08 -0.000937836 0)
(2.84066e-08 -0.000937812 0)
(-5.44499e-10 -0.000937803 0)
(-2.66632e-09 -0.000937857 0)
(-7.75722e-09 -0.000937876 0)
(2.19177e-08 -0.000937836 0)
(2.44914e-08 -0.000937811 0)
(1.7961e-09 -0.000937803 0)
(2.83613e-09 -0.000937857 0)
(-6.01941e-09 -0.000937876 0)
(1.65697e-08 -0.000937837 0)
(2.07222e-08 -0.000937811 0)
(4.00017e-09 -0.000937803 0)
(8.06421e-09 -0.000937857 0)
(-4.34549e-09 -0.000937876 0)
(1.14858e-08 -0.000937837 0)
(1.71386e-08 -0.00093781 0)
(6.04578e-09 -0.000937804 0)
(1.2957e-08 -0.000937857 0)
(-2.75928e-09 -0.000937876 0)
(6.72463e-09 -0.000937838 0)
(1.3781e-08 -0.000937809 0)
(7.91102e-09 -0.000937804 0)
(1.74533e-08 -0.000937857 0)
(-1.28484e-09 -0.000937876 0)
(2.34506e-09 -0.000937838 0)
(1.06904e-08 -0.000937809 0)
(9.57402e-09 -0.000937805 0)
(2.14918e-08 -0.000937856 0)
(5.35507e-11 -0.000937876 0)
(-1.59327e-09 -0.000937838 0)
(7.90866e-09 -0.000937809 0)
(1.1013e-08 -0.000937805 0)
(2.50109e-08 -0.000937856 0)
(1.23137e-09 -0.000937875 0)
(-5.03007e-09 -0.000937838 0)
(5.47829e-09 -0.000937809 0)
(1.22064e-08 -0.000937806 0)
(2.7949e-08 -0.000937856 0)
(2.22383e-09 -0.000937875 0)
(-7.90438e-09 -0.000937838 0)
(3.44287e-09 -0.000937809 0)
(1.31333e-08 -0.000937807 0)
(3.02455e-08 -0.000937856 0)
(3.00585e-09 -0.000937874 0)
(-1.01549e-08 -0.000937838 0)
(1.84686e-09 -0.000937809 0)
(1.3774e-08 -0.000937808 0)
(3.18407e-08 -0.000937856 0)
(3.55193e-09 -0.000937873 0)
(-1.17203e-08 -0.000937838 0)
(7.35701e-10 -0.000937809 0)
(1.4109e-08 -0.000937809 0)
(3.26758e-08 -0.000937855 0)
(3.83671e-09 -0.000937872 0)
(-1.25388e-08 -0.000937838 0)
(1.55629e-10 -0.000937809 0)
)
;

boundaryField
{
    BotWall
    {
        type            fixedValue;
        value           nonuniform 0();
    }
    FreeStream
    {
        type            zeroGradient;
    }
    FrontNBack
    {
        type            empty;
    }
    LeftSide
    {
        type            symmetryPlane;
    }
    RightSide
    {
        type            symmetryPlane;
    }
    procBoundary3to2
    {
        type            processor;
        value           nonuniform List<vector> 5((-3.77207e-08 -0.000937819 0) (-7.81737e-08 -0.000937857 0) (-2.60788e-08 -0.000937849 0) (9.57197e-08 -0.000937818 0) (7.7381e-08 -0.000937841 0));
    }
}


// ************************************************************************* //
