/*--------------------------------*- C++ -*----------------------------------*\
| =========                 |                                                 |
| \\      /  F ield         | OpenFOAM: The Open Source CFD Toolbox           |
|  \\    /   O peration     | Version:  2.4.0                                 |
|   \\  /    A nd           | Web:      www.OpenFOAM.org                      |
|    \\/     M anipulation  |                                                 |
\*---------------------------------------------------------------------------*/
FoamFile
{
    version     2.0;
    format      ascii;
    class       surfaceScalarField;
    location    "1.2";
    object      phi;
}
// * * * * * * * * * * * * * * * * * * * * * * * * * * * * * * * * * * * * * //

dimensions      [0 3 -1 0 0 0 0];

internalField   nonuniform List<scalar> 
220
(
6.67913e-19
-6.65481e-19
4.9141e-19
1.8065e-19
-3.5627e-19
8.53821e-19
-8.13717e-19
4.62546e-19
-8.104e-19
2.04715e-18
-2.71053e-18
1.49478e-18
7.36503e-19
-1.08602e-18
3.43954e-18
-2.49258e-18
1.87301e-18
-3.30016e-18
3.47368e-18
-6.18174e-18
2.52753e-18
1.68652e-18
-1.84074e-18
7.81308e-18
-4.22847e-18
4.26481e-18
-7.52581e-18
4.96268e-18
-1.11417e-17
3.59767e-18
3.05559e-18
-2.62887e-18
1.40451e-17
-6.0376e-18
7.67767e-18
-1.35607e-17
6.4981e-18
-1.7637e-17
4.69667e-18
4.86111e-18
-3.44238e-18
2.21895e-17
-7.90174e-18
1.21411e-17
-2.14598e-17
8.10496e-18
-2.57392e-17
5.83926e-18
7.1308e-18
-4.29288e-18
3.23269e-17
-9.85039e-18
1.77024e-17
-3.13077e-17
9.74935e-18
-3.54859e-17
7.01585e-18
9.86807e-18
-5.17053e-18
4.45181e-17
-1.1851e-17
2.43864e-17
-4.31566e-17
1.14497e-17
-4.69331e-17
8.24922e-18
1.3072e-17
-6.09883e-18
5.88704e-17
-1.39213e-17
3.22119e-17
-5.70761e-17
1.32127e-17
-6.01437e-17
9.53553e-18
1.67521e-17
-7.07494e-18
7.54845e-17
-1.60666e-17
4.12061e-17
-7.31413e-17
1.52438e-17
-7.53858e-17
1.0876e-17
2.11222e-17
-8.09651e-18
9.44597e-17
-1.84963e-17
5.16077e-17
-9.16367e-17
1.76539e-17
-9.30386e-17
1.21227e-17
2.66547e-17
-9.02276e-18
1.15607e-16
-2.13254e-17
6.39115e-17
-1.12962e-16
1.97839e-17
-1.63457e-16
1.33776e-17
3.30606e-17
-9.86373e-18
1.38848e-16
-2.4019e-17
7.80669e-17
-1.98452e-16
1.93058e-17
-3.95812e-10
1.51119e-17
-3.95812e-10
-1.09979e-17
-3.95812e-10
-2.44027e-17
-3.95812e-10
-3.95811e-10
2.106e-17
-3.95812e-10
1.51432e-17
-3.95812e-10
-1.12286e-17
-3.95812e-10
-2.58054e-17
-3.95812e-10
-3.95812e-10
2.73943e-17
-3.95812e-10
1.49484e-17
-3.95812e-10
-1.1613e-17
-3.95812e-10
-3.28928e-17
-3.95812e-10
-3.95812e-10
2.05358e-17
-3.95812e-10
1.50185e-17
-3.95812e-10
-1.24594e-17
-3.95812e-10
-2.66084e-17
-3.95812e-10
-3.95812e-10
1.87042e-17
-3.95812e-10
1.4032e-17
-3.95812e-10
-1.21895e-17
-3.95812e-10
-2.5391e-17
-3.95812e-10
-3.95812e-10
1.85573e-17
-3.95812e-10
1.30895e-17
-3.95812e-10
-1.19341e-17
-3.95812e-10
-2.58659e-17
-3.95812e-10
-3.95812e-10
1.79707e-17
-3.95812e-10
1.23712e-17
-3.95812e-10
-1.18929e-17
-3.95812e-10
-2.58755e-17
-3.95812e-10
-3.95812e-10
1.69299e-17
-3.95812e-10
1.16829e-17
-3.95812e-10
-1.18755e-17
-3.95812e-10
-2.53989e-17
-3.95812e-10
-3.95812e-10
1.58316e-17
-3.95812e-10
1.09513e-17
-3.95812e-10
-1.18067e-17
-3.95812e-10
-2.48348e-17
-3.95812e-10
-3.95812e-10
1.47987e-17
-3.95812e-10
1.01957e-17
-3.95812e-10
-1.17043e-17
-3.95812e-10
-2.43079e-17
-3.95812e-10
-3.95812e-10
1.38031e-17
-3.95812e-10
9.4385e-18
-3.95812e-10
-1.15894e-17
-3.95812e-10
-2.37904e-17
-3.95812e-10
-3.95812e-10
1.28147e-17
-3.95812e-10
8.68564e-18
-3.95812e-10
-1.14675e-17
-3.95812e-10
-2.32537e-17
-3.95812e-10
-3.95812e-10
1.18281e-17
7.93588e-18
-1.13359e-17
-2.26923e-17
)
;

boundaryField
{
    BotWall
    {
        type            calculated;
        value           nonuniform List<scalar> 5(-8.6433e-23 -2.03721e-22 -4.90741e-22 -3.92995e-22 -1.08502e-22);
    }
    FreeStream
    {
        type            calculated;
        value           nonuniform 0();
    }
    FrontNBack
    {
        type            empty;
        value           nonuniform 0();
    }
    LeftSide
    {
        type            symmetryPlane;
        value           uniform 0;
    }
    RightSide
    {
        type            symmetryPlane;
        value           uniform 0;
    }
    procBoundary0to1
    {
        type            processor;
        value           nonuniform List<scalar> 5(-3.95812e-10 -3.95812e-10 -3.95812e-10 -3.95812e-10 -3.95812e-10);
    }
}


// ************************************************************************* //
