/*--------------------------------*- C++ -*----------------------------------*\
| =========                 |                                                 |
| \\      /  F ield         | OpenFOAM: The Open Source CFD Toolbox           |
|  \\    /   O peration     | Version:  2.4.0                                 |
|   \\  /    A nd           | Web:      www.OpenFOAM.org                      |
|    \\/     M anipulation  |                                                 |
\*---------------------------------------------------------------------------*/
FoamFile
{
    version     2.0;
    format      ascii;
    class       volScalarField;
    location    "4.6";
    object      p;
}
// * * * * * * * * * * * * * * * * * * * * * * * * * * * * * * * * * * * * * //

dimensions      [1 -1 -2 0 0 0 0];

internalField   nonuniform List<scalar> 
8000
(
-3.03105
-3.12128
-3.20563
-3.23173
-3.20961
-3.45156
-4.79267
-6.93685
-2.10303
-0.685758
-0.679991
-0.680639
-0.680965
-0.681147
-0.681334
-0.681524
-0.681752
-0.682072
-0.682536
-0.68318
-0.684013
-0.685025
-0.686202
-0.687529
-0.688988
-0.690561
-0.692229
-0.693976
-0.695784
-0.697637
-0.69952
-0.70142
-0.703326
-0.705231
-0.707129
-0.709017
-0.710896
-0.712764
-0.714623
-0.716475
-0.718324
-0.72017
-0.722018
-0.72387
-0.725728
-0.727595
-0.729473
-0.731363
-0.733268
-0.735189
-4.63858
-4.75732
-4.84773
-4.90373
-5.19157
-6.4124
-8.24527
-4.2435
-0.840096
-0.707781
-0.675823
-0.72547
-0.724059
-0.723819
-0.724108
-0.724663
-0.725412
-0.726201
-0.726952
-0.72762
-0.728159
-0.728602
-0.728975
-0.729316
-0.729673
-0.730089
-0.730591
-0.731184
-0.731858
-0.732598
-0.733395
-0.734248
-0.735151
-0.736098
-0.737081
-0.738093
-0.73913
-0.740189
-0.741269
-0.742368
-0.743487
-0.744625
-0.745784
-0.746964
-0.748166
-0.749391
-0.75064
-0.751915
-0.753217
-0.754546
-13.7742
-13.6419
-13.5244
-13.4304
-13.3322
-13.3214
-13.9024
-15.7153
-14.3603
-4.79201
-2.68017
-0.94647
-0.854331
-0.790894
-0.7719
-0.761071
-0.758302
-0.756826
-0.756671
-0.757584
-0.758314
-0.758828
-0.759411
-0.76003
-0.760626
-0.76115
-0.761593
-0.76191
-0.76211
-0.762217
-0.762289
-0.76235
-0.762466
-0.762647
-0.762869
-0.763124
-0.763417
-0.76375
-0.764123
-0.764532
-0.764977
-0.765456
-0.765969
-0.766517
-0.767098
-0.767713
-0.768363
-0.769047
-0.769766
-0.77052
-10.2721
-10.0291
-9.77413
-9.55034
-9.34058
-9.12376
-8.91387
-8.94146
-9.71563
-10.978
-12.0951
-16.1576
-13.1281
-4.02117
-2.43834
-1.06124
-0.948263
-0.955846
-0.925187
-0.856877
-0.818061
-0.811128
-0.798727
-0.785247
-0.778708
-0.779172
-0.782111
-0.783596
-0.783667
-0.783562
-0.783846
-0.784203
-0.784415
-0.784407
-0.784205
-0.783919
-0.783599
-0.783315
-0.783069
-0.78285
-0.782661
-0.78251
-0.782398
-0.782329
-0.782304
-0.782324
-0.782389
-0.7825
-0.782655
-0.782856
-0.516019
-0.492825
-0.442731
-0.370637
-0.279481
-0.167599
-0.0305726
0.132516
0.284412
0.337756
0.381838
0.185267
0.149571
0.676368
1.05916
-8.13607
-8.29123
-7.8512
-8.07043
-5.82702
-2.07774
-1.02667
-0.841719
-0.84361
-0.853682
-0.841091
-0.821714
-0.816968
-0.799038
-0.790632
-0.788093
-0.788845
-0.793961
-0.795403
-0.795138
-0.794995
-0.795038
-0.794871
-0.794496
-0.793981
-0.793421
-0.792854
-0.792322
-0.791827
-0.791372
-0.790962
-0.790602
-0.790296
-0.790043
-0.789843
-2.90687
-2.88722
-2.87096
-2.85431
-2.83533
-2.81317
-2.78874
-2.76151
-2.73258
-2.70116
-2.66531
-2.61199
-2.54536
-2.48286
-2.41217
-2.39015
-2.37001
-2.32672
-2.18293
-1.91727
-2.08547
-6.53169
-7.76158
-7.05154
-8.46382
-7.72215
-2.78322
-0.869925
-0.403242
-0.450027
-0.645902
-0.849072
-0.897081
-0.836857
-0.804134
-0.792949
-0.792422
-0.793775
-0.79402
-0.794024
-0.794059
-0.793867
-0.793509
-0.793108
-0.792711
-0.792344
-0.792015
-0.79172
-0.791461
-0.79124
0.867488
0.884132
0.905533
0.926471
0.94573
0.963673
0.980163
0.995331
1.00867
1.02039
1.02988
1.03791
1.04348
1.04693
1.04759
1.05094
1.05887
1.08785
1.14939
1.24444
1.34977
1.47474
1.57714
1.64622
1.52571
1.15361
-0.812235
-4.29009
-7.71054
-8.273
-7.64998
-0.182654
0.368667
0.570484
-0.25039
-0.816624
-0.917721
-0.850203
-0.814022
-0.8045
-0.796999
-0.795181
-0.795043
-0.795124
-0.795003
-0.794767
-0.794513
-0.794259
-0.794029
-0.793822
1.82011
1.80826
1.79649
1.78868
1.78521
1.78568
1.78997
1.79798
1.80979
1.82531
1.84463
1.86763
1.89442
1.92483
1.95898
1.99672
2.03833
2.0837
2.13307
2.18579
2.24191
2.30281
2.37445
2.46424
2.57438
2.69802
2.83062
2.98044
3.02839
2.84455
2.31433
-2.56628
-5.52219
-7.44319
-7.91224
-3.28638
-0.421588
0.59028
-0.107799
-0.760239
-0.8278
-0.808705
-0.81115
-0.804803
-0.800672
-0.800259
-0.800577
-0.800689
-0.800638
-0.800531
3.18386
3.17224
3.16108
3.15273
3.14705
3.14368
3.14253
3.14357
3.14684
3.1523
3.16001
3.16992
3.18212
3.19657
3.21336
3.23247
3.25402
3.27795
3.30437
3.33311
3.36426
3.39748
3.43304
3.47055
3.51037
3.55204
3.59741
3.64914
3.70641
3.75106
3.79517
3.85855
3.94266
3.86965
3.35408
-0.432637
-1.7637
-6.32877
-7.58715
-5.70636
-1.31243
0.306806
-0.108286
-0.77821
-0.830738
-0.812786
-0.815743
-0.813525
-0.810538
-0.809941
3.94981
3.93193
3.914
3.89953
3.88835
3.88003
3.87439
3.87146
3.87122
3.87372
3.87889
3.88677
3.8973
3.91053
3.92637
3.94488
3.96595
3.98968
4.0159
4.04476
4.07603
4.10992
4.1461
4.18488
4.22577
4.26915
4.31432
4.36182
4.4108
4.46225
4.51589
4.57486
4.63683
4.69167
4.74264
4.79486
4.89818
4.94314
4.70313
1.90455
0.235326
-5.61236
-5.83582
-2.18753
-0.304293
-0.300373
-0.791582
-0.826261
-0.828344
-0.830584
4.06704
4.04659
4.02461
4.00547
3.98926
3.97549
3.96397
3.95469
3.94765
3.94283
3.94024
3.93986
3.94167
3.94566
3.95183
3.96016
3.97065
3.98326
3.99802
4.01489
4.03389
4.05496
4.07815
4.10339
4.13073
4.16009
4.19154
4.22499
4.26049
4.29799
4.33752
4.37894
4.42227
4.46782
4.51612
4.56808
4.62212
4.6729
4.72654
4.77715
4.85473
4.83771
4.23853
0.32329
-4.56593
-4.97705
-2.17663
-0.906353
-0.747202
-0.783609
4.3689
4.34343
4.3177
4.29596
4.27778
4.2625
4.24993
4.24007
4.23293
4.22851
4.2268
4.2278
4.2315
4.23791
4.24703
4.25886
4.27342
4.29072
4.31079
4.33362
4.35926
4.38773
4.41907
4.45329
4.49047
4.53062
4.57382
4.62009
4.66956
4.72221
4.77821
4.83748
4.90032
4.96662
5.03671
5.11037
5.18807
5.26974
5.35691
5.44959
5.54475
5.6302
5.70661
5.81568
5.95526
5.81521
0.699238
-2.85307
-2.11642
-1.11388
3.45928
3.43997
3.41868
3.39962
3.38296
3.36827
3.35535
3.3442
3.33481
3.32718
3.32131
3.31717
3.31476
3.31408
3.31511
3.31785
3.32229
3.32842
3.33625
3.34576
3.35696
3.36983
3.38439
3.40062
3.41853
3.43811
3.45937
3.48231
3.50694
3.53322
3.56121
3.59088
3.62227
3.65535
3.69018
3.7267
3.76502
3.80505
3.84691
3.89051
3.93595
3.98388
4.03524
4.08691
4.12761
4.16315
4.2051
4.11336
1.95785
0.179398
3.02175
3.00651
2.9911
2.97766
2.96582
2.9552
2.94569
2.93731
2.93007
2.92395
2.91895
2.91504
2.91223
2.9105
2.90983
2.91021
2.91162
2.91404
2.91746
2.92185
2.92721
2.93349
2.94068
2.94875
2.95767
2.96741
2.97795
2.98923
3.00123
3.0139
3.0272
3.04108
3.05549
3.07035
3.08563
3.10123
3.11711
3.13314
3.14927
3.16535
3.18134
3.19707
3.2125
3.22741
3.2413
3.25308
3.26511
3.28306
3.30839
3.23466
1.64269
1.63425
1.62433
1.61516
1.607
1.59967
1.59309
1.58723
1.58209
1.57768
1.57398
1.57099
1.56869
1.56709
1.56618
1.56595
1.56639
1.5675
1.56927
1.57169
1.57475
1.57844
1.58277
1.58771
1.59325
1.59939
1.60612
1.61342
1.62128
1.62969
1.63863
1.64809
1.65805
1.6685
1.67942
1.69079
1.70261
1.71483
1.72746
1.74046
1.75384
1.76755
1.7816
1.79596
1.81065
1.82556
1.84112
1.89409
1.88385
1.91466
0.974537
0.97176
0.969874
0.968532
0.967332
0.966161
0.965024
0.963933
0.962892
0.961902
0.960968
0.960095
0.959292
0.958567
0.957929
0.957388
0.956952
0.956633
0.95644
0.956382
0.956467
0.956705
0.957102
0.957666
0.958404
0.95932
0.960421
0.961709
0.963189
0.964863
0.966733
0.9688
0.971065
0.97353
0.976191
0.979049
0.982103
0.985353
0.988795
0.99243
0.996253
1.00027
1.00447
1.00886
1.01335
1.01791
1.02289
1.10407
1.10035
1.09317
-0.706168
-0.699187
-0.692991
-0.687762
-0.683028
-0.678618
-0.674537
-0.670815
-0.667459
-0.664467
-0.661829
-0.659534
-0.657568
-0.655916
-0.654561
-0.653486
-0.652671
-0.652098
-0.651749
-0.651605
-0.651649
-0.651863
-0.652231
-0.652738
-0.653368
-0.654107
-0.654944
-0.655865
-0.656861
-0.65792
-0.659035
-0.660198
-0.661401
-0.662639
-0.663905
-0.665195
-0.666506
-0.667833
-0.669173
-0.670522
-0.671874
-0.673224
-0.674577
-0.675972
-0.677442
-0.678728
-0.678715
-0.674516
-0.67349
-0.702737
-1.10378
-1.07878
-1.05142
-1.02916
-1.01228
-0.999649
-0.990468
-0.984297
-0.980792
-0.979634
-0.980529
-0.983207
-0.987427
-0.992973
-0.999649
-1.00728
-1.0157
-1.02478
-1.03437
-1.04437
-1.05467
-1.06518
-1.0758
-1.08648
-1.09714
-1.10773
-1.1182
-1.1285
-1.13859
-1.14847
-1.15809
-1.16744
-1.17653
-1.18534
-1.19388
-1.20216
-1.2102
-1.21803
-1.22569
-1.23321
-1.24064
-1.24807
-1.25559
-1.26334
-1.27121
-1.27836
-1.28398
-1.22155
-1.26022
-1.31662
-3.03892
-2.97454
-2.91507
-2.86961
-2.83486
-2.80772
-2.78678
-2.77123
-2.76039
-2.75362
-2.75035
-2.75009
-2.7524
-2.75694
-2.76337
-2.77141
-2.78084
-2.79143
-2.80301
-2.81542
-2.82853
-2.84223
-2.8564
-2.87098
-2.88589
-2.90108
-2.9165
-2.93212
-2.94793
-2.9639
-2.98004
-2.99636
-3.01288
-3.02963
-3.04667
-3.06404
-3.08184
-3.10014
-3.11906
-3.13873
-3.15932
-3.18106
-3.20416
-3.2285
-3.2539
-3.2811
-3.31781
-3.37877
-3.45001
-3.3472
0.961721
0.572181
0.181894
-0.153658
-0.446049
-0.709244
-0.949218
-1.16864
-1.36963
-1.55421
-1.72419
-1.88112
-2.02631
-2.16088
-2.28577
-2.40181
-2.50971
-2.61007
-2.70342
-2.7902
-2.87082
-2.9456
-3.01482
-3.07874
-3.13755
-3.19143
-3.24051
-3.28488
-3.32463
-3.35978
-3.39034
-3.41629
-3.43754
-3.454
-3.46551
-3.47185
-3.47278
-3.46795
-3.45695
-3.43928
-3.41432
-3.38137
-3.33966
-3.28819
-3.22482
-3.14517
-3.04615
-2.94732
-2.9191
-2.80324
-0.737128
-0.739086
-0.741064
-0.743065
-0.745089
-0.747137
-0.74921
-0.75131
-0.753437
-0.755593
-0.757778
-0.759993
-0.762239
-0.764516
-0.766826
-0.769168
-0.771544
-0.773954
-0.776398
-0.778877
-0.781391
-0.78394
-0.786524
-0.789144
-0.7918
-0.79449
-0.797216
-0.799977
-0.802774
-0.805604
-0.808469
-0.811367
-0.814299
-0.817263
-0.820258
-0.823285
-0.826341
-0.829427
-0.832541
-0.835682
-0.838849
-0.84204
-0.845255
-0.848492
-0.851749
-0.855025
-0.858319
-0.861628
-0.864947
-0.86828
-0.755903
-0.757289
-0.758706
-0.760153
-0.761631
-0.763142
-0.764685
-0.766261
-0.767872
-0.769516
-0.771196
-0.772911
-0.774662
-0.776449
-0.778273
-0.780133
-0.782031
-0.783966
-0.785939
-0.78795
-0.789999
-0.792086
-0.794211
-0.796374
-0.798575
-0.800815
-0.803092
-0.805406
-0.807758
-0.810147
-0.812573
-0.815035
-0.817533
-0.820065
-0.822633
-0.825234
-0.827869
-0.830536
-0.833235
-0.835964
-0.838724
-0.841512
-0.844328
-0.84717
-0.850038
-0.85293
-0.855846
-0.858782
-0.861733
-0.864707
-0.77131
-0.772136
-0.772999
-0.773899
-0.774836
-0.775811
-0.776824
-0.777875
-0.778965
-0.780093
-0.781261
-0.782469
-0.783715
-0.785002
-0.786329
-0.787696
-0.789103
-0.79055
-0.792038
-0.793566
-0.795135
-0.796744
-0.798393
-0.800083
-0.801813
-0.803583
-0.805392
-0.807242
-0.80913
-0.811058
-0.813024
-0.815029
-0.817071
-0.819151
-0.821268
-0.823421
-0.82561
-0.827834
-0.830092
-0.832384
-0.834709
-0.837066
-0.839454
-0.841872
-0.84432
-0.846797
-0.849301
-0.85183
-0.854379
-0.856956
-0.783102
-0.783393
-0.783728
-0.784108
-0.784532
-0.785
-0.785513
-0.78607
-0.786671
-0.787316
-0.788004
-0.788737
-0.789513
-0.790333
-0.791196
-0.792103
-0.793053
-0.794046
-0.795081
-0.79616
-0.797282
-0.798446
-0.799652
-0.8009
-0.80219
-0.803521
-0.804894
-0.806307
-0.807761
-0.809256
-0.81079
-0.812364
-0.813977
-0.815629
-0.817318
-0.819046
-0.82081
-0.822611
-0.824448
-0.82632
-0.828227
-0.830168
-0.832142
-0.834149
-0.836187
-0.838257
-0.840357
-0.842485
-0.844637
-0.84682
-0.789697
-0.789603
-0.789561
-0.78957
-0.789629
-0.789737
-0.789893
-0.790098
-0.790349
-0.790647
-0.790991
-0.791381
-0.791816
-0.792296
-0.79282
-0.793388
-0.794
-0.794655
-0.795353
-0.796093
-0.796876
-0.7977
-0.798566
-0.799474
-0.800422
-0.801411
-0.802439
-0.803508
-0.804616
-0.805764
-0.80695
-0.808174
-0.809437
-0.810737
-0.812074
-0.813447
-0.814857
-0.816303
-0.817783
-0.819299
-0.820848
-0.822431
-0.824048
-0.825696
-0.827376
-0.829088
-0.830831
-0.832602
-0.834399
-0.836226
-0.79106
-0.79092
-0.79082
-0.79076
-0.79074
-0.79076
-0.790818
-0.790915
-0.791051
-0.791226
-0.791438
-0.791688
-0.791976
-0.792301
-0.792664
-0.793064
-0.793501
-0.793974
-0.794485
-0.795032
-0.795615
-0.796235
-0.796891
-0.797582
-0.79831
-0.799072
-0.799871
-0.800704
-0.801572
-0.802475
-0.803412
-0.804384
-0.805389
-0.806428
-0.807501
-0.808607
-0.809745
-0.810916
-0.812119
-0.813354
-0.81462
-0.815917
-0.817245
-0.818603
-0.819991
-0.821408
-0.822854
-0.824328
-0.825827
-0.827355
-0.793648
-0.793503
-0.793388
-0.793302
-0.793246
-0.79322
-0.793223
-0.793257
-0.793321
-0.793416
-0.793541
-0.793697
-0.793884
-0.794102
-0.79435
-0.79463
-0.794941
-0.795282
-0.795655
-0.796059
-0.796494
-0.796959
-0.797456
-0.797984
-0.798542
-0.799131
-0.799751
-0.800401
-0.801082
-0.801793
-0.802535
-0.803306
-0.804108
-0.804939
-0.8058
-0.80669
-0.807609
-0.808558
-0.809535
-0.810541
-0.811575
-0.812637
-0.813727
-0.814844
-0.815989
-0.81716
-0.818358
-0.819583
-0.820832
-0.822107
-0.800404
-0.800256
-0.800118
-0.799982
-0.799864
-0.79977
-0.799698
-0.799651
-0.799629
-0.799634
-0.799666
-0.799724
-0.79981
-0.799924
-0.800065
-0.800233
-0.800429
-0.800653
-0.800904
-0.801183
-0.801489
-0.801823
-0.802185
-0.802573
-0.802989
-0.803433
-0.803903
-0.804401
-0.804926
-0.805478
-0.806056
-0.806661
-0.807293
-0.807952
-0.808637
-0.809348
-0.810085
-0.810848
-0.811637
-0.812452
-0.813292
-0.814158
-0.815048
-0.815964
-0.816904
-0.817869
-0.818858
-0.819871
-0.820908
-0.821968
-0.810139
-0.810249
-0.810193
-0.810128
-0.810057
-0.80998
-0.809917
-0.809856
-0.809811
-0.809784
-0.809776
-0.80979
-0.809826
-0.809885
-0.809966
-0.810071
-0.810199
-0.81035
-0.810525
-0.810723
-0.810945
-0.81119
-0.811459
-0.811751
-0.812067
-0.812406
-0.812768
-0.813154
-0.813563
-0.813995
-0.814451
-0.814929
-0.815431
-0.815956
-0.816503
-0.817074
-0.817667
-0.818283
-0.818921
-0.819583
-0.820266
-0.820972
-0.8217
-0.822451
-0.823223
-0.824018
-0.824834
-0.825673
-0.826534
-0.827415
-0.829171
-0.827489
-0.825758
-0.825101
-0.824968
-0.824997
-0.824963
-0.824937
-0.824914
-0.824904
-0.824893
-0.824893
-0.824906
-0.824934
-0.82498
-0.825042
-0.825123
-0.825223
-0.825341
-0.825479
-0.825635
-0.825811
-0.826007
-0.826222
-0.826457
-0.826711
-0.826985
-0.827279
-0.827592
-0.827926
-0.828278
-0.828651
-0.829044
-0.829456
-0.829888
-0.830339
-0.830811
-0.831302
-0.831813
-0.832344
-0.832895
-0.833465
-0.834055
-0.834665
-0.835295
-0.835944
-0.836613
-0.837303
-0.838013
-0.838742
-0.802179
-0.831754
-0.843737
-0.844878
-0.844696
-0.844579
-0.844218
-0.843938
-0.843816
-0.843843
-0.843914
-0.843938
-0.843964
-0.844
-0.844044
-0.844099
-0.844164
-0.84424
-0.844328
-0.84443
-0.844546
-0.844676
-0.84482
-0.84498
-0.845154
-0.845343
-0.845548
-0.845768
-0.846004
-0.846256
-0.846524
-0.846809
-0.84711
-0.847427
-0.847761
-0.848112
-0.84848
-0.848865
-0.849268
-0.849688
-0.850125
-0.85058
-0.851053
-0.851543
-0.852052
-0.852578
-0.853122
-0.853686
-0.854268
-0.854868
-0.754632
-0.787409
-0.83625
-0.857173
-0.864297
-0.866348
-0.866887
-0.867064
-0.867121
-0.867091
-0.866875
-0.866778
-0.866711
-0.866719
-0.866751
-0.866794
-0.866843
-0.866898
-0.866954
-0.867018
-0.867084
-0.867159
-0.867244
-0.867341
-0.867449
-0.867569
-0.867702
-0.867849
-0.868008
-0.868182
-0.868369
-0.868571
-0.868788
-0.869019
-0.869266
-0.869527
-0.869805
-0.870097
-0.870406
-0.87073
-0.871071
-0.871428
-0.871802
-0.872192
-0.872599
-0.873023
-0.873464
-0.873923
-0.874401
-0.874895
-0.434074
-0.460469
-0.67634
-0.842232
-0.883975
-0.889502
-0.890176
-0.890507
-0.890783
-0.890889
-0.891031
-0.891099
-0.89118
-0.891223
-0.891246
-0.891239
-0.891165
-0.891042
-0.89101
-0.890976
-0.890975
-0.891001
-0.891048
-0.891105
-0.891167
-0.891241
-0.891326
-0.891421
-0.891528
-0.891645
-0.891773
-0.891912
-0.892065
-0.892231
-0.89241
-0.892603
-0.89281
-0.893032
-0.893269
-0.893521
-0.893788
-0.894071
-0.894369
-0.894684
-0.895014
-0.895361
-0.895725
-0.896105
-0.896504
-0.896919
2.2225
1.24493
-0.151236
-0.803841
-0.908325
-0.915817
-0.91631
-0.915631
-0.916341
-0.916274
-0.916407
-0.916451
-0.916519
-0.916583
-0.916268
-0.916233
-0.916223
-0.916086
-0.913933
-0.914018
-0.914317
-0.914484
-0.914576
-0.914653
-0.914726
-0.914793
-0.914875
-0.914979
-0.915072
-0.915181
-0.915301
-0.915434
-0.915576
-0.915726
-0.915887
-0.91606
-0.916244
-0.916441
-0.916651
-0.916874
-0.91711
-0.91736
-0.917623
-0.917901
-0.918194
-0.918502
-0.918825
-0.919164
-0.919519
-0.91989
1.87447
1.4697
0.188196
-0.811261
-0.933772
-0.940025
-0.940258
-0.940244
-0.940191
-0.940161
-0.940135
-0.940048
-0.940068
-0.939989
-0.939978
-0.93995
-0.938411
-0.93893
-0.938607
-0.937345
-0.938827
-0.938941
-0.938902
-0.938848
-0.938809
-0.938812
-0.938725
-0.938679
-0.939699
-0.939791
-0.939817
-0.939871
-0.939918
-0.939987
-0.940069
-0.940166
-0.940275
-0.940395
-0.940527
-0.940674
-0.940832
-0.941007
-0.941199
-0.941407
-0.94163
-0.941868
-0.942123
-0.942395
-0.942683
-0.942989
1.06341
0.911936
-0.0273902
-0.86482
-0.961449
-0.964391
-0.964459
-0.964428
-0.964403
-0.964384
-0.964333
-0.96433
-0.964339
-0.96445
-0.964493
-0.964511
-0.964534
-0.964551
-0.964464
-0.964492
-0.96454
-0.96321
-0.963254
-0.963492
-0.963567
-0.963619
-0.96382
-0.964099
-0.963785
-0.963863
-0.963952
-0.963356
-0.963461
-0.963637
-0.963723
-0.963808
-0.963938
-0.964075
-0.964243
-0.964122
-0.964292
-0.964478
-0.964653
-0.964844
-0.965036
-0.965239
-0.965452
-0.965676
-0.96591
-0.966158
-0.765144
-0.833879
-0.854051
-0.970323
-0.987378
-0.987817
-0.987813
-0.987801
-0.987784
-0.987748
-0.987807
-0.987805
-0.98781
-0.987816
-0.987826
-0.98627
-0.987854
-0.987799
-0.987425
-0.985973
-0.987484
-0.987406
-0.987445
-0.986503
-0.987379
-0.987434
-0.987476
-0.987504
-0.987623
-0.986893
-0.986963
-0.987151
-0.987065
-0.987126
-0.987222
-0.987202
-0.987255
-0.987813
-0.987922
-0.988015
-0.988098
-0.98819
-0.98829
-0.988392
-0.988497
-0.988616
-0.988719
-0.988828
-0.988951
-0.989
-1.19705
-1.01114
-1.02431
-1.01216
-1.01063
-1.01048
-1.0105
-1.01049
-1.01048
-1.0105
-1.01049
-1.01047
-1.01046
-1.01046
-1.00874
-1.01078
-1.01077
-1.01077
-1.01075
-1.01068
-1.01078
-1.01078
-1.01004
-1.01102
-1.01124
-1.01143
-1.01145
-1.01147
-1.01062
-1.01195
-1.01202
-1.0122
-1.01224
-1.01229
-1.01234
-1.01241
-1.01239
-1.01202
-1.0125
-1.01245
-1.01285
-1.01287
-1.01254
-1.01261
-1.0131
-1.01327
-1.01342
-1.01295
-1.01335
-1.01196
-1.3871
-1.07699
-1.03587
-1.03351
-1.03359
-1.03361
-1.03361
-1.03362
-1.03362
-1.03361
-1.03286
-1.03296
-1.03352
-1.03351
-1.03298
-1.03385
-1.03382
-1.0339
-1.03393
-1.03395
-1.03394
-1.03401
-1.03394
-1.03404
-1.03408
-1.03412
-1.03416
-1.03412
-1.03416
-1.0341
-1.03426
-1.03415
-1.0342
-1.03464
-1.0347
-1.03479
-1.03497
-1.03501
-1.03495
-1.03532
-1.03516
-1.03532
-1.03547
-1.03424
-1.0351
-1.03523
-1.03522
-1.03546
-1.03551
-1.03558
-1.0672
-1.05687
-1.05663
-1.05654
-1.0565
-1.05649
-1.05648
-1.05649
-1.0565
-1.05651
-1.05651
-1.05656
-1.05659
-1.05661
-1.05666
-1.05665
-1.05676
-1.05681
-1.05633
-1.05698
-1.05703
-1.05706
-1.0571
-1.05715
-1.05721
-1.05726
-1.05733
-1.05736
-1.05737
-1.05753
-1.05756
-1.05761
-1.05761
-1.05782
-1.05791
-1.05749
-1.05819
-1.05831
-1.0584
-1.05851
-1.05859
-1.0587
-1.05878
-1.05892
-1.05892
-1.05908
-1.05926
-1.05937
-1.05761
-1.05872
-0.870859
-0.872673
-0.8745
-0.876339
-0.878189
-0.88005
-0.881921
-0.883804
-0.885696
-0.887583
-0.889512
-0.891437
-0.893368
-0.895308
-0.897256
-0.899212
-0.901176
-0.903147
-0.905126
-0.907111
-0.909102
-0.911099
-0.913104
-0.915112
-0.917124
-0.919252
-0.921272
-0.923298
-0.925328
-0.927362
-0.929399
-0.931436
-0.933474
-0.935517
-0.937568
-0.939615
-0.941637
-0.943712
-0.945766
-0.947819
-0.949869
-0.951903
-0.953888
-0.95612
-0.958164
-0.960208
-0.96225
-0.96429
-0.966328
-0.968364
-0.970351
-0.972411
-0.974438
-0.976465
-0.978488
-0.980506
-0.982485
-0.984491
-0.98655
-0.988549
-0.990547
-0.992649
-0.994635
-0.996619
-0.9986
-1.00058
-1.00255
-1.00452
-1.00648
-1.00844
-1.0104
-1.01235
-1.01417
-1.01624
-1.01817
-1.02009
-1.02211
-1.02401
-1.02597
-1.02786
-1.02976
-1.03165
-1.03353
-1.0354
-1.03726
-1.03917
-1.04101
-1.04285
-1.04468
-1.0465
-1.04831
-1.0501
-1.05189
-1.05366
-1.05542
-1.05717
-1.05891
-1.06066
-1.06235
-1.06403
-1.0657
-1.06734
-1.06897
-1.07057
-1.07215
-1.07371
-1.07524
-1.07675
-1.07823
-1.07967
-1.0811
-1.08248
-1.08382
-1.08514
-1.08643
-1.08763
-1.08889
-1.09005
-1.09117
-1.09225
-1.09328
-1.09425
-1.09519
-1.09613
-1.09695
-1.09772
-1.09844
-1.0991
-1.0997
-1.10024
-1.10071
-1.10114
-1.10149
-1.10177
-1.10202
-1.10217
-1.10226
-1.10227
-1.10222
-1.10209
-1.10189
-1.10161
-1.10125
-1.10084
-1.10033
-1.09974
-1.09908
-1.09834
-1.09752
-1.09661
-1.09563
-1.09457
-1.09343
-1.09222
-1.09095
-1.08957
-1.08812
-1.08659
-1.08498
-1.08329
-1.08153
-1.0797
-1.07777
-1.0758
-1.07374
-1.07162
-1.06944
-1.06716
-1.06483
-1.06247
-1.06002
-1.0575
-1.05493
-1.05229
-1.04959
-1.04689
-1.0441
-1.04126
-1.03837
-1.03544
-1.03246
-1.02941
-1.02639
-1.0233
-1.02017
-1.01702
-1.01383
-1.01062
-1.00737
-1.00411
-1.00083
-0.997547
-0.994223
-0.990924
-0.987604
-0.984278
-0.980953
-0.977624
-0.974303
-0.970988
-0.967688
-0.964348
-0.961114
-0.957858
-0.954624
-0.951415
-0.948233
-0.945082
-0.941963
-0.938881
-0.935838
-0.932836
-0.929878
-0.926968
-0.924107
-0.921299
-0.918547
-0.915851
-0.913217
-0.910645
-0.908138
-0.905699
-0.903331
-0.901035
-0.898815
-0.896671
-0.894607
-0.892625
-0.890726
-0.888913
-0.887187
-0.885552
-0.884007
-0.882556
-0.8812
-0.87994
-0.878778
-0.877716
-0.876755
-0.875896
-0.875141
-0.87449
-0.873945
-0.873508
-0.873178
-0.872957
-0.872847
-0.872847
-0.872959
-0.873183
-0.87352
-0.873971
-0.874535
-0.875214
-0.876008
-0.876917
-0.87794
-0.879079
-0.880333
-0.881702
-0.883186
-0.884784
-0.886496
-0.888321
-0.890259
-0.892308
-0.894469
-0.89674
-0.89912
-0.901608
-0.904203
-0.906904
-0.909709
-0.912618
-0.915628
-0.918739
-0.921949
-0.925256
-0.928657
-0.932151
-0.935736
-0.939409
-0.943168
-0.947009
-0.950931
-0.954929
-0.959001
-0.963146
-0.96736
-0.971636
-0.97597
-0.98036
-0.984813
-0.989337
-0.9939
-0.998432
-1.00295
-1.00772
-1.01307
-1.01843
-0.867017
-0.868647
-0.870292
-0.871949
-0.873618
-0.875301
-0.876995
-0.878702
-0.880422
-0.882153
-0.883895
-0.88565
-0.887416
-0.889192
-0.89098
-0.892779
-0.894588
-0.896407
-0.898236
-0.900074
-0.901923
-0.90378
-0.905646
-0.907524
-0.909233
-0.911117
-0.913023
-0.91493
-0.916843
-0.918753
-0.920672
-0.922601
-0.924511
-0.926478
-0.928423
-0.930368
-0.932316
-0.934268
-0.936222
-0.93818
-0.94014
-0.942101
-0.944063
-0.946029
-0.947996
-0.949964
-0.951932
-0.953899
-0.955867
-0.957833
-0.959799
-0.961764
-0.963724
-0.96569
-0.967651
-0.969567
-0.971576
-0.97353
-0.975478
-0.977426
-0.979372
-0.981313
-0.98325
-0.985183
-0.987111
-0.989034
-0.990953
-0.992866
-0.994774
-0.996679
-0.998573
-1.00043
-1.00249
-1.00437
-1.00624
-1.0081
-1.00996
-1.01181
-1.01366
-1.01549
-1.01732
-1.01914
-1.02095
-1.02275
-1.02454
-1.02633
-1.028
-1.02977
-1.03153
-1.03326
-1.03499
-1.0367
-1.03841
-1.0401
-1.04177
-1.04343
-1.04508
-1.04671
-1.04832
-1.04991
-1.05149
-1.05304
-1.05458
-1.0561
-1.0576
-1.05906
-1.06047
-1.06204
-1.06344
-1.06481
-1.06617
-1.06749
-1.06878
-1.07005
-1.07129
-1.07253
-1.07369
-1.07483
-1.07593
-1.077
-1.07803
-1.07902
-1.07997
-1.08088
-1.08176
-1.08259
-1.08337
-1.0841
-1.08481
-1.08546
-1.08606
-1.08661
-1.08712
-1.08757
-1.08797
-1.08831
-1.0886
-1.08884
-1.08901
-1.08911
-1.08924
-1.08924
-1.08918
-1.08907
-1.08889
-1.08864
-1.08834
-1.08797
-1.08753
-1.08703
-1.0865
-1.08587
-1.08518
-1.08443
-1.0836
-1.08271
-1.08176
-1.08074
-1.07966
-1.07851
-1.0773
-1.07602
-1.07468
-1.07328
-1.07177
-1.07026
-1.06868
-1.06703
-1.06532
-1.06356
-1.06174
-1.05986
-1.05793
-1.05595
-1.05392
-1.05183
-1.0497
-1.04752
-1.04529
-1.04303
-1.04071
-1.03834
-1.03602
-1.0336
-1.03114
-1.02865
-1.02613
-1.02358
-1.02101
-1.01841
-1.01579
-1.01316
-1.01047
-1.00788
-1.0052
-1.00252
-0.999828
-0.997138
-0.994446
-0.991758
-0.989073
-0.986396
-0.983729
-0.981075
-0.978436
-0.975816
-0.973217
-0.970641
-0.968091
-0.96557
-0.963081
-0.960626
-0.958207
-0.955828
-0.95349
-0.951197
-0.94895
-0.946752
-0.944606
-0.942513
-0.940476
-0.938498
-0.93658
-0.934724
-0.932933
-0.931208
-0.929551
-0.927965
-0.926451
-0.92501
-0.923646
-0.922358
-0.921149
-0.920019
-0.918972
-0.918008
-0.917127
-0.916333
-0.915625
-0.915005
-0.914474
-0.914034
-0.913684
-0.913426
-0.913261
-0.91319
-0.913213
-0.913331
-0.913544
-0.913853
-0.914259
-0.914761
-0.91536
-0.916056
-0.916849
-0.917739
-0.918726
-0.91981
-0.92099
-0.922266
-0.923637
-0.925104
-0.926665
-0.92832
-0.930068
-0.931908
-0.933839
-0.935861
-0.937973
-0.940173
-0.942461
-0.944835
-0.947295
-0.949839
-0.952466
-0.955175
-0.957963
-0.96083
-0.963774
-0.966792
-0.969884
-0.973046
-0.976276
-0.979574
-0.982935
-0.986359
-0.989842
-0.993382
-0.996979
-1.00063
-1.00432
-1.00807
-1.01186
-1.01572
-1.01961
-1.02346
-1.02729
-1.03136
-1.03595
-1.04058
-0.858965
-0.860387
-0.861824
-0.863274
-0.864738
-0.866214
-0.867704
-0.869208
-0.870724
-0.872254
-0.873796
-0.875351
-0.876919
-0.878499
-0.880091
-0.881695
-0.883312
-0.88494
-0.886579
-0.88823
-0.889892
-0.891565
-0.893249
-0.894942
-0.896644
-0.898309
-0.900127
-0.901863
-0.903606
-0.905343
-0.907108
-0.908881
-0.910646
-0.912452
-0.914248
-0.91605
-0.917859
-0.919674
-0.921497
-0.923326
-0.92516
-0.927
-0.928846
-0.930696
-0.932551
-0.93441
-0.936272
-0.938139
-0.940008
-0.94188
-0.943755
-0.945631
-0.94751
-0.949389
-0.951272
-0.95315
-0.954929
-0.957092
-0.958972
-0.960854
-0.962736
-0.964616
-0.966496
-0.968373
-0.970249
-0.972123
-0.973995
-0.975863
-0.977728
-0.979592
-0.98145
-0.983136
-0.98529
-0.987132
-0.988971
-0.990806
-0.992636
-0.994459
-0.996276
-0.998089
-0.999895
-1.00161
-1.0034
-1.00518
-1.00695
-1.00871
-1.01046
-1.01221
-1.01394
-1.01566
-1.01737
-1.01907
-1.02076
-1.02243
-1.0241
-1.02575
-1.02738
-1.02901
-1.03061
-1.0322
-1.03378
-1.03534
-1.03689
-1.03841
-1.03992
-1.04128
-1.04275
-1.0442
-1.04557
-1.04698
-1.04837
-1.04969
-1.05105
-1.05235
-1.05364
-1.05489
-1.05612
-1.05732
-1.0585
-1.05964
-1.06076
-1.06184
-1.06283
-1.06386
-1.06487
-1.06582
-1.06673
-1.0676
-1.06844
-1.06924
-1.07
-1.07072
-1.0714
-1.07204
-1.07264
-1.07319
-1.0737
-1.07416
-1.07457
-1.07491
-1.07534
-1.07561
-1.07584
-1.07602
-1.07615
-1.07623
-1.07626
-1.07619
-1.07611
-1.076
-1.07582
-1.07559
-1.07531
-1.07497
-1.07458
-1.07414
-1.07364
-1.07309
-1.07249
-1.07183
-1.07112
-1.07036
-1.06954
-1.06868
-1.06769
-1.0667
-1.0657
-1.06463
-1.0635
-1.06233
-1.06111
-1.05984
-1.05853
-1.05717
-1.05576
-1.05431
-1.05283
-1.05129
-1.04972
-1.04812
-1.04645
-1.04477
-1.04308
-1.04134
-1.03956
-1.03776
-1.03593
-1.03408
-1.0322
-1.0303
-1.02838
-1.02645
-1.0245
-1.02254
-1.02056
-1.01858
-1.01659
-1.0146
-1.01261
-1.01061
-1.00862
-1.00663
-1.00465
-1.00268
-1.00072
-0.998772
-0.996842
-0.994929
-0.993037
-0.991167
-0.989322
-0.987504
-0.985715
-0.983958
-0.982233
-0.980544
-0.978893
-0.977281
-0.97571
-0.974183
-0.972701
-0.971266
-0.96988
-0.968545
-0.967262
-0.966033
-0.964859
-0.963743
-0.962685
-0.961688
-0.960752
-0.959879
-0.95907
-0.958326
-0.957649
-0.957039
-0.956498
-0.956027
-0.955627
-0.955298
-0.955041
-0.954858
-0.954748
-0.954713
-0.954753
-0.954868
-0.955059
-0.955327
-0.95567
-0.95609
-0.956587
-0.957161
-0.957811
-0.958538
-0.959342
-0.960222
-0.961177
-0.962208
-0.963315
-0.964495
-0.96575
-0.967079
-0.96848
-0.969954
-0.971499
-0.973114
-0.9748
-0.976554
-0.978377
-0.980267
-0.982223
-0.984245
-0.986331
-0.988481
-0.990692
-0.992965
-0.995297
-0.997688
-1.00014
-1.00264
-1.0052
-1.00781
-1.01047
-1.01318
-1.01593
-1.01874
-1.02159
-1.02448
-1.02741
-1.03038
-1.03339
-1.03643
-1.03952
-1.04265
-1.04581
-1.04893
-1.05203
-1.05532
-1.05906
-1.06284
-0.848529
-0.84974
-0.850967
-0.852207
-0.853461
-0.854728
-0.856009
-0.857303
-0.858611
-0.859933
-0.861268
-0.862617
-0.863979
-0.865354
-0.866742
-0.868144
-0.869559
-0.870986
-0.872427
-0.87388
-0.875346
-0.876824
-0.878315
-0.879818
-0.881333
-0.882859
-0.884398
-0.885948
-0.887509
-0.889082
-0.890665
-0.89226
-0.893864
-0.89548
-0.897105
-0.89874
-0.900386
-0.90204
-0.903704
-0.905377
-0.907058
-0.908749
-0.910447
-0.912154
-0.913868
-0.915589
-0.917318
-0.919054
-0.920797
-0.922545
-0.9243
-0.926061
-0.927827
-0.929599
-0.931375
-0.933157
-0.934919
-0.936697
-0.938513
-0.940309
-0.942107
-0.943907
-0.945709
-0.947513
-0.949318
-0.951125
-0.952932
-0.954739
-0.956547
-0.958354
-0.960163
-0.961906
-0.9637
-0.965525
-0.967324
-0.96912
-0.970913
-0.972702
-0.974486
-0.976266
-0.978042
-0.979814
-0.981409
-0.98342
-0.985169
-0.986915
-0.988655
-0.990388
-0.992113
-0.99383
-0.995539
-0.99724
-0.998931
-1.00061
-1.00228
-1.00394
-1.00559
-1.00723
-1.00886
-1.01047
-1.01207
-1.01366
-1.01523
-1.01679
-1.01833
-1.01986
-1.02123
-1.02291
-1.02438
-1.02584
-1.0273
-1.02869
-1.03009
-1.03154
-1.0329
-1.03425
-1.03557
-1.03687
-1.03815
-1.0394
-1.04063
-1.04183
-1.04301
-1.0441
-1.04531
-1.04641
-1.04747
-1.04851
-1.04952
-1.0505
-1.05144
-1.05236
-1.05324
-1.05409
-1.05491
-1.05569
-1.05644
-1.05716
-1.05784
-1.05844
-1.05904
-1.05962
-1.06015
-1.06064
-1.06109
-1.0615
-1.06187
-1.0622
-1.06241
-1.06275
-1.06295
-1.06312
-1.06324
-1.06332
-1.06336
-1.06336
-1.06331
-1.06322
-1.06309
-1.06292
-1.06271
-1.06245
-1.06215
-1.06181
-1.0614
-1.06098
-1.06053
-1.06003
-1.05949
-1.05891
-1.05829
-1.05763
-1.05694
-1.05621
-1.05544
-1.05464
-1.05381
-1.05294
-1.05205
-1.05112
-1.05016
-1.04917
-1.04816
-1.04712
-1.04606
-1.04497
-1.04386
-1.04273
-1.04158
-1.04042
-1.03923
-1.03804
-1.03683
-1.0356
-1.03437
-1.03313
-1.03189
-1.03063
-1.02938
-1.02812
-1.02687
-1.02562
-1.02437
-1.02312
-1.02189
-1.02066
-1.01944
-1.01824
-1.01705
-1.01588
-1.01472
-1.01359
-1.01247
-1.01138
-1.01032
-1.00928
-1.00827
-1.00728
-1.00633
-1.00541
-1.00453
-1.00368
-1.00287
-1.0021
-1.00137