/*--------------------------------*- C++ -*----------------------------------*\
| =========                 |                                                 |
| \\      /  F ield         | OpenFOAM: The Open Source CFD Toolbox           |
|  \\    /   O peration     | Version:  2.4.0                                 |
|   \\  /    A nd           | Web:      www.OpenFOAM.org                      |
|    \\/     M anipulation  |                                                 |
\*---------------------------------------------------------------------------*/
FoamFile
{
    version     2.0;
    format      ascii;
    class       volVectorField;
    location    "4.6";
    object      U;
}
// * * * * * * * * * * * * * * * * * * * * * * * * * * * * * * * * * * * * * //

dimensions      [0 1 -1 0 0 0 0];

internalField   nonuniform List<vector> 
8000
(
(-1.26333e-06 4.49926e-05 0)
(-1.42714e-05 0.000128312 0)
(-3.96835e-05 0.000203859 0)
(-7.38415e-05 0.000270864 0)
(-0.000110697 0.000328607 0)
(-0.000153681 0.000376199 0)
(-0.000257725 0.000408964 0)
(-0.000514262 0.000420539 0)
(-0.000888449 0.000412977 0)
(-0.00136529 0.000339933 0)
(-0.00163322 -0.00473078 0)
(-0.00108998 -0.00850027 0)
(-0.00189981 -0.0135757 0)
(-0.00351975 -0.0198805 0)
(-0.00557092 -0.0268454 0)
(-0.00787226 -0.0345465 0)
(-0.0103378 -0.0429014 0)
(-0.0128761 -0.0516897 0)
(-0.0154204 -0.0606363 0)
(-0.0179186 -0.0695733 0)
(-0.0203233 -0.0784448 0)
(-0.0225932 -0.0871788 0)
(-0.0246845 -0.0956036 0)
(-0.0265788 -0.103511 0)
(-0.0282809 -0.110734 0)
(-0.0298028 -0.117176 0)
(-0.0311557 -0.12281 0)
(-0.0323434 -0.127656 0)
(-0.0333709 -0.131756 0)
(-0.0342501 -0.135176 0)
(-0.035 -0.138005 0)
(-0.0356414 -0.140333 0)
(-0.0361964 -0.142252 0)
(-0.0366869 -0.143851 0)
(-0.0371322 -0.145223 0)
(-0.0375488 -0.146445 0)
(-0.03795 -0.147579 0)
(-0.0383463 -0.148668 0)
(-0.0387459 -0.149742 0)
(-0.0391542 -0.15082 0)
(-0.0395744 -0.15191 0)
(-0.0400082 -0.153014 0)
(-0.040456 -0.154131 0)
(-0.0409179 -0.155253 0)
(-0.0413932 -0.156377 0)
(-0.0418813 -0.157494 0)
(-0.0423814 -0.1586 0)
(-0.0428931 -0.159689 0)
(-0.0434157 -0.160758 0)
(-0.0439488 -0.161805 0)
(-2.9268e-06 0.000174207 0)
(-2.18253e-05 0.000480262 0)
(-5.65973e-05 0.000744962 0)
(-0.000103733 0.000969052 0)
(-0.000167857 0.00115196 0)
(-0.000298145 0.00129307 0)
(-0.000569313 0.00139061 0)
(-0.000964726 0.00149456 0)
(-0.00144822 0.00178093 0)
(-0.00263532 -0.014768 0)
(-0.00111381 -0.00604798 0)
(-0.0016883 0.00368664 0)
(-0.0027929 0.00225393 0)
(-0.00382006 0.00435562 0)
(-0.0047635 0.00154689 0)
(-0.00644795 -0.00374261 0)
(-0.00924756 -0.0105819 0)
(-0.0129833 -0.0185826 0)
(-0.0171762 -0.0274255 0)
(-0.0213102 -0.0369367 0)
(-0.0250697 -0.0470483 0)
(-0.0284493 -0.0578512 0)
(-0.0314996 -0.0689005 0)
(-0.0342737 -0.0795327 0)
(-0.0368386 -0.089317 0)
(-0.0392039 -0.0981501 0)
(-0.041376 -0.106138 0)
(-0.0433241 -0.113391 0)
(-0.0450208 -0.119877 0)
(-0.0464495 -0.125499 0)
(-0.0476252 -0.13024 0)
(-0.0485762 -0.134154 0)
(-0.0493387 -0.137309 0)
(-0.0499405 -0.139805 0)
(-0.0504121 -0.14177 0)
(-0.0507843 -0.143328 0)
(-0.0510872 -0.144583 0)
(-0.0513487 -0.145618 0)
(-0.0515927 -0.14651 0)
(-0.0518375 -0.147321 0)
(-0.0520962 -0.148098 0)
(-0.0523775 -0.148868 0)
(-0.0526869 -0.149646 0)
(-0.0530273 -0.150439 0)
(-0.0533996 -0.151247 0)
(-0.0538038 -0.152066 0)
(-0.0542386 -0.152891 0)
(-0.0547026 -0.153717 0)
(-0.0551943 -0.154538 0)
(-0.0557121 -0.155348 0)
(3.75795e-06 0.000260264 0)
(2.74312e-05 0.000768165 0)
(6.83695e-05 0.00126818 0)
(0.000122531 0.00176996 0)
(0.00018788 0.00227339 0)
(0.000261737 0.00279276 0)
(0.000318219 0.00332643 0)
(0.000281755 0.00389982 0)
(4.70976e-05 0.0048188 0)
(-0.000815484 0.00882125 0)
(-0.0023204 0.00192087 0)
(-0.00221724 0.00937659 0)
(-0.00155506 0.00540804 0)
(-0.00297988 0.0146757 0)
(-0.000911799 0.0017519 0)
(-0.0034277 0.0261636 0)
(-0.00299474 0.0449163 0)
(-0.00340262 0.0542464 0)
(-0.00492969 0.0488427 0)
(-0.00679153 0.0328556 0)
(-0.00899405 0.0139662 0)
(-0.0111222 -0.0039328 0)
(-0.0139792 -0.0205345 0)
(-0.0175966 -0.0353277 0)
(-0.0216804 -0.0481681 0)
(-0.025932 -0.0596568 0)
(-0.0300359 -0.070535 0)
(-0.0339058 -0.0813114 0)
(-0.0374973 -0.0919322 0)
(-0.0407636 -0.101927 0)
(-0.0436499 -0.110809 0)
(-0.0461846 -0.118322 0)
(-0.0484169 -0.124625 0)
(-0.0503022 -0.129874 0)
(-0.0518468 -0.13415 0)
(-0.0530895 -0.137518 0)
(-0.0540848 -0.140065 0)
(-0.0548876 -0.14192 0)
(-0.055546 -0.143232 0)
(-0.0561026 -0.144152 0)
(-0.0565941 -0.14481 0)
(-0.0570506 -0.145305 0)
(-0.0574966 -0.145705 0)
(-0.0579497 -0.146062 0)
(-0.0584223 -0.146408 0)
(-0.0589217 -0.146763 0)
(-0.0594522 -0.147136 0)
(-0.0600156 -0.14753 0)
(-0.0606119 -0.147943 0)
(-0.0612405 -0.148371 0)
(4.21033e-06 -0.000126479 0)
(3.97239e-05 -0.000296988 0)
(0.000109638 -0.000389489 0)
(0.000211158 -0.000406282 0)
(0.000343623 -0.000351377 0)
(0.000503669 -0.00022413 0)
(0.000697303 -2.81996e-05 0)
(0.00091337 0.000240962 0)
(0.00110815 0.000587307 0)
(0.00123436 0.00108819 0)
(0.001272 0.000546078 0)
(0.00134473 0.000386508 0)
(0.00160577 0.000167185 0)
(0.00206956 0.00219627 0)
(0.00269617 0.00278651 0)
(0.00290198 0.00803988 0)
(0.00355493 0.00790873 0)
(0.00473045 0.0197184 0)
(0.00509335 0.0412008 0)
(0.00890086 0.0461009 0)
(-9.9931e-05 -0.00257603 0)
(0.00433891 -0.00117644 0)
(0.00585317 0.0118731 0)
(0.0025168 0.0189584 0)
(-0.000147566 0.0181237 0)
(-0.00423911 0.00910744 0)
(-0.00722104 -0.00498341 0)
(-0.0103544 -0.019381 0)
(-0.0140041 -0.0329897 0)
(-0.0185925 -0.0479501 0)
(-0.023204 -0.0628083 0)
(-0.0278603 -0.075161 0)
(-0.0322903 -0.086241 0)
(-0.0363918 -0.0970294 0)
(-0.0400084 -0.107047 0)
(-0.0431079 -0.115546 0)
(-0.0457601 -0.122262 0)
(-0.0480237 -0.127472 0)
(-0.0499208 -0.131424 0)
(-0.0514944 -0.134314 0)
(-0.0528028 -0.136332 0)
(-0.0539094 -0.137664 0)
(-0.0548736 -0.138481 0)
(-0.0557446 -0.138934 0)
(-0.0565609 -0.139158 0)
(-0.0573506 -0.139248 0)
(-0.0581345 -0.13927 0)
(-0.0589277 -0.139268 0)
(-0.0597396 -0.139269 0)
(-0.0605758 -0.139289 0)
(-1.43407e-06 -0.000205821 0)
(-2.33281e-06 -0.000564164 0)
(1.63529e-06 -0.000871981 0)
(1.2973e-05 -0.00113051 0)
(3.37259e-05 -0.00134335 0)
(6.57008e-05 -0.00151095 0)
(0.000111012 -0.00163822 0)
(0.000171869 -0.00172495 0)
(0.000249575 -0.00177703 0)
(0.000341008 -0.00178927 0)
(0.00043459 -0.00177256 0)
(0.000511514 -0.00170111 0)
(0.000574469 -0.00150387 0)
(0.000652936 -0.00110626 0)
(0.000752089 -0.000866082 0)
(0.000907543 -0.000581696 0)
(0.00127246 -0.000371783 0)
(0.00212741 -7.01849e-05 0)
(0.00393079 0.000398351 0)
(0.00689249 0.00201753 0)
(0.0092831 0.00815395 0)
(0.00886072 0.00669747 0)
(0.00820879 0.0154165 0)
(0.00800835 0.0245407 0)
(0.00807444 0.0345623 0)
(0.00790606 0.0386202 0)
(0.00524284 0.0166795 0)
(0.00613395 0.00254207 0)
(0.00625424 0.0080029 0)
(0.00399186 0.00991141 0)
(0.000230207 0.00702973 0)
(-0.0052722 -0.00217531 0)
(-0.00725612 -0.0146332 0)
(-0.0109176 -0.031446 0)
(-0.0157959 -0.0497193 0)
(-0.0206143 -0.065801 0)
(-0.0251758 -0.078938 0)
(-0.0294847 -0.0900101 0)
(-0.0333852 -0.0997963 0)
(-0.0367621 -0.108127 0)
(-0.0396235 -0.114635 0)
(-0.0420587 -0.119406 0)
(-0.0441378 -0.122753 0)
(-0.0459326 -0.12495 0)
(-0.0475112 -0.126304 0)
(-0.0489324 -0.127062 0)
(-0.0502428 -0.127387 0)
(-0.0514833 -0.127427 0)
(-0.0526839 -0.127299 0)
(-0.0538661 -0.127084 0)
(9.89169e-07 -0.000148589 0)
(4.2111e-06 -0.000423335 0)
(9.65303e-06 -0.000674572 0)
(1.74702e-05 -0.000901188 0)
(2.78371e-05 -0.00110283 0)
(4.14997e-05 -0.00127885 0)
(5.84919e-05 -0.00142982 0)
(7.95691e-05 -0.00155532 0)
(0.000104468 -0.001657 0)
(0.000133943 -0.00173429 0)
(0.000167502 -0.00178975 0)
(0.000206802 -0.00182105 0)
(0.000253379 -0.00183101 0)
(0.000311013 -0.00181618 0)
(0.000379001 -0.00178889 0)
(0.000455113 -0.00174497 0)
(0.000534755 -0.00165603 0)
(0.000618349 -0.00148265 0)
(0.000706273 -0.0011834 0)
(0.000804557 -0.000650111 0)
(0.000873036 5.00493e-05 0)
(0.000922197 0.000539417 0)
(0.00131259 0.00112796 0)
(0.00233369 0.00177829 0)
(0.0038327 0.00260474 0)
(0.00574257 0.00402196 0)
(0.00752288 0.00649587 0)
(0.00793955 0.00284011 0)
(0.00784812 0.0115642 0)
(0.00764772 0.0222887 0)
(0.00705142 0.0274435 0)
(0.00644793 0.0181716 0)
(0.00675263 0.00696156 0)
(0.00675082 0.00371921 0)
(0.00397793 0.00430871 0)
(5.96938e-05 0.00281084 0)
(-0.00326175 -0.00934477 0)
(-0.00618981 -0.0230151 0)
(-0.0104392 -0.0388937 0)
(-0.0150543 -0.0555025 0)
(-0.0193217 -0.0698464 0)
(-0.0232994 -0.0810153 0)
(-0.0268801 -0.0896715 0)
(-0.0300321 -0.0964206 0)
(-0.0327767 -0.101334 0)
(-0.0352021 -0.104823 0)
(-0.0373691 -0.107118 0)
(-0.0393356 -0.108507 0)
(-0.0411465 -0.109256 0)
(-0.0428439 -0.109565 0)
(-1.24885e-07 -0.000216011 0)
(1.76707e-06 -0.000609463 0)
(6.35889e-06 -0.000965705 0)
(1.383e-05 -0.00128597 0)
(2.40078e-05 -0.00157127 0)
(3.69234e-05 -0.00182256 0)
(5.23817e-05 -0.00204058 0)
(7.05209e-05 -0.00222607 0)
(9.10608e-05 -0.0023795 0)
(0.000114189 -0.00250148 0)
(0.000139486 -0.00259217 0)
(0.000167213 -0.00265206 0)
(0.000196835 -0.00268108 0)
(0.00022867 -0.00267979 0)
(0.000261888 -0.00264795 0)
(0.000296834 -0.002586 0)
(0.00033313 -0.00249289 0)
(0.00037297 -0.00236885 0)
(0.000419007 -0.00221303 0)
(0.00047716 -0.00202732 0)
(0.000551783 -0.00181533 0)
(0.000643673 -0.00158719 0)
(0.000751326 -0.00131396 0)
(0.000870119 -0.000960233 0)
(0.000986015 -0.000487107 0)
(0.00107271 0.000107266 0)
(0.00110364 0.000745112 0)
(0.00112884 0.00117349 0)
(0.0013801 0.00189846 0)
(0.0020403 0.00283924 0)
(0.00312148 0.00384573 0)
(0.00453123 0.00387199 0)
(0.00535801 0.00183599 0)
(0.00519627 0.0134898 0)
(0.0046307 0.0199332 0)
(0.00403565 0.0174113 0)
(0.00404029 0.00884036 0)
(0.00414385 0.00395498 0)
(0.00263427 0.00225866 0)
(-0.000345473 -0.000512175 0)
(-0.00350578 -0.0124736 0)
(-0.00618203 -0.0268439 0)
(-0.00962007 -0.0383478 0)
(-0.0135237 -0.051308 0)
(-0.0171489 -0.0621133 0)
(-0.0203742 -0.0698832 0)
(-0.0233813 -0.0758369 0)
(-0.0261138 -0.0803341 0)
(-0.0285872 -0.0835571 0)
(-0.0308417 -0.0857509 0)
(-1.45559e-07 -0.000187984 0)
(-2.07033e-06 -0.000537257 0)
(-5.68719e-06 -0.000859796 0)
(-1.06623e-05 -0.00115565 0)
(-1.64859e-05 -0.00142485 0)
(-2.27486e-05 -0.00166753 0)
(-2.90052e-05 -0.00188373 0)
(-3.49282e-05 -0.00207362 0)
(-4.00884e-05 -0.00223722 0)
(-4.41992e-05 -0.00237471 0)
(-4.68247e-05 -0.00248608 0)
(-4.77078e-05 -0.00257154 0)
(-4.63914e-05 -0.00263094 0)
(-4.26378e-05 -0.00266456 0)
(-3.5962e-05 -0.0026721 0)
(-2.61366e-05 -0.00265392 0)
(-1.26168e-05 -0.00260946 0)
(4.86081e-06 -0.00253933 0)
(2.69256e-05 -0.00244275 0)
(5.38244e-05 -0.00232093 0)
(8.61211e-05 -0.00217297 0)
(0.000123809 -0.00200103 0)
(0.000167743 -0.00180326 0)
(0.000219396 -0.00158263 0)
(0.000281806 -0.00133669 0)
(0.000357742 -0.00107043 0)
(0.000449739 -0.000780602 0)
(0.000557097 -0.000474144 0)
(0.000678926 -0.000114417 0)
(0.000802064 0.000330457 0)
(0.000891327 0.000729778 0)
(0.000944939 0.00104005 0)
(0.000991324 0.00136262 0)
(0.00124087 0.00217737 0)
(0.00191382 0.00286745 0)
(0.00293307 0.00350892 0)
(0.00382077 0.00134214 0)
(0.00395078 0.00738304 0)
(0.00363784 0.0141668 0)
(0.00298612 0.0152688 0)
(0.00254599 0.00714709 0)
(0.00246056 0.00182408 0)
(0.0012868 0.00104412 0)
(-0.00146501 -0.00273313 0)
(-0.00440369 -0.0202257 0)
(-0.00622558 -0.0268898 0)
(-0.0093445 -0.0349504 0)
(-0.0124694 -0.0434407 0)
(-0.0154673 -0.0504524 0)
(-0.0182047 -0.0556328 0)
(-2.50451e-07 -0.000184137 0)
(-2.11723e-06 -0.000527098 0)
(-5.53718e-06 -0.000845154 0)
(-1.02129e-05 -0.00113871 0)
(-1.57763e-05 -0.00140817 0)
(-2.19051e-05 -0.00165385 0)
(-2.82664e-05 -0.00187611 0)
(-3.45621e-05 -0.00207521 0)
(-4.04495e-05 -0.0022515 0)
(-4.56337e-05 -0.00240517 0)
(-4.97564e-05 -0.0025366 0)
(-5.25271e-05 -0.00264591 0)
(-5.35672e-05 -0.00273354 0)
(-5.25898e-05 -0.00279954 0)
(-4.91888e-05 -0.00284444 0)
(-4.30797e-05 -0.00286819 0)
(-3.38211e-05 -0.00287146 0)
(-2.11287e-05 -0.0028541 0)
(-4.52438e-06 -0.00281697 0)
(1.62672e-05 -0.00275973 0)
(4.17445e-05 -0.00268358 0)
(7.21529e-05 -0.00258788 0)
(0.000107995 -0.00247425 0)
(0.000149507 -0.00234166 0)
(0.00019719 -0.00219248 0)
(0.000251256 -0.00202522 0)
(0.000312163 -0.00184339 0)
(0.00038031 -0.00164465 0)
(0.000456555 -0.00143369 0)
(0.000541642 -0.00120675 0)
(0.000634883 -0.00097058 0)
(0.000736037 -0.00071772 0)
(0.000845749 -0.000446153 0)
(0.000966013 -0.000109557 0)
(0.00106664 0.000166413 0)
(0.00111671 0.000462086 0)
(0.00114036 0.00060798 0)
(0.00129957 0.00114588 0)
(0.00172573 0.00159801 0)
(0.0024312 0.0020206 0)
(0.00321576 0.00052689 0)
(0.00346422 0.00192251 0)
(0.00320011 0.00790911 0)
(0.00266421 0.00780184 0)
(0.00238315 0.00232315 0)
(0.00162355 0.00184398 0)
(3.83681e-05 0.000664427 0)
(-0.00162463 -0.00441203 0)
(-0.00378077 -0.0133537 0)
(-0.00566042 -0.0194641 0)
(-3.45185e-07 -0.000163463 0)
(-3.09752e-06 -0.000471389 0)
(-8.31401e-06 -0.000760355 0)
(-1.56546e-05 -0.00103045 0)
(-2.47274e-05 -0.00128177 0)
(-3.51551e-05 -0.00151443 0)
(-4.66275e-05 -0.00172855 0)
(-5.87968e-05 -0.00192429 0)
(-7.13743e-05 -0.00210178 0)
(-8.40084e-05 -0.0022612 0)
(-9.64307e-05 -0.00240268 0)
(-0.000108285 -0.00252644 0)
(-0.000119328 -0.0026326 0)
(-0.000129196 -0.00272142 0)
(-0.000137674 -0.00279299 0)
(-0.000144389 -0.00284761 0)
(-0.000149163 -0.00288535 0)
(-0.000151607 -0.00290658 0)
(-0.000151589 -0.00291132 0)
(-0.000148702 -0.00289998 0)
(-0.000142869 -0.00287258 0)
(-0.000133663 -0.00282958 0)
(-0.000121078 -0.00277093 0)
(-0.000104659 -0.00269719 0)
(-8.449e-05 -0.00260822 0)
(-6.0094e-05 -0.00250468 0)
(-3.16746e-05 -0.00238635 0)
(1.25416e-06 -0.00225396 0)
(3.83467e-05 -0.00210723 0)
(8.01065e-05 -0.00194698 0)
(0.000126065 -0.00177293 0)
(0.000176901 -0.00158578 0)
(0.000232286 -0.00138522 0)
(0.000293033 -0.00117192 0)
(0.000357555 -0.00094632 0)
(0.000425566 -0.000706936 0)
(0.000497113 -0.000447682 0)
(0.000576226 -0.000149432 0)
(0.000648443 0.000106417 0)
(0.00068736 0.000411716 0)
(0.000690437 0.000594627 0)
(0.000711798 0.00100739 0)
(0.000849236 0.00160344 0)
(0.00122239 0.0015738 0)
(0.00166618 0.000143266 0)
(0.00164195 0.00334909 0)
(0.00143891 0.00366929 0)
(0.00136486 0.00172181 0)
(0.00110186 0.000643681 0)
(0.000435797 -0.00119353 0)
(-2.68994e-07 -0.000147565 0)
(-3.18842e-06 -0.000426315 0)
(-9.02976e-06 -0.000688931 0)
(-1.75524e-05 -0.000935667 0)
(-2.83823e-05 -0.00116676 0)
(-4.11915e-05 -0.00138242 0)
(-5.56709e-05 -0.00158284 0)
(-7.15384e-05 -0.0017682 0)
(-8.84958e-05 -0.00193867 0)
(-0.000106272 -0.00209441 0)
(-0.000124575 -0.00223559 0)
(-0.000143147 -0.00236232 0)
(-0.000161702 -0.00247478 0)
(-0.000179997 -0.00257307 0)
(-0.000197752 -0.00265734 0)
(-0.000214739 -0.00272771 0)
(-0.000230682 -0.00278431 0)
(-0.000245369 -0.00282725 0)
(-0.00025853 -0.00285664 0)
(-0.000269966 -0.00287259 0)
(-0.000279414 -0.0028752 0)
(-0.000286688 -0.00286458 0)
(-0.00029153 -0.00284077 0)
(-0.00029377 -0.00280392 0)
(-0.000293155 -0.002754 0)
(-0.000289525 -0.00269117 0)
(-0.000282637 -0.00261531 0)
(-0.000272339 -0.00252665 0)
(-0.000258395 -0.00242488 0)
(-0.000240658 -0.00231036 0)
(-0.000218905 -0.00218248 0)
(-0.000192988 -0.00204183 0)
(-0.000162702 -0.00188735 0)
(-0.000127879 -0.00172007 0)
(-8.82977e-05 -0.00153822 0)
(-4.36787e-05 -0.00134339 0)
(6.3247e-06 -0.00113268 0)
(6.20259e-05 -0.000908767 0)
(0.000123155 -0.000667603 0)
(0.0001896 -0.000412429 0)
(0.000261786 -0.000131784 0)
(0.000339351 0.000175938 0)
(0.000406973 0.000461556 0)
(0.000465753 0.00059182 0)
(0.000502737 0.000745996 0)
(0.000543918 0.0011224 0)
(0.00072275 0.000633012 0)
(0.000974514 -0.000523137 0)
(0.00108186 0.000183095 0)
(0.00108281 -0.00042444 0)
(-5.16588e-07 -0.000121321 0)
(-4.38034e-06 -0.000352856 0)
(-1.17502e-05 -0.000573255 0)
(-2.22632e-05 -0.00078251 0)
(-3.55061e-05 -0.000980615 0)
(-5.11337e-05 -0.00116757 0)
(-6.88481e-05 -0.00134339 0)
(-8.83639e-05 -0.00150809 0)
(-0.000109405 -0.00166168 0)
(-0.000131703 -0.00180421 0)
(-0.000154995 -0.0019357 0)
(-0.000179028 -0.0020562 0)
(-0.000203553 -0.00216576 0)
(-0.00022833 -0.00226443 0)
(-0.000253118 -0.00235227 0)
(-0.000277689 -0.00242936 0)
(-0.000301807 -0.00249576 0)
(-0.000325252 -0.00255156 0)
(-0.000347791 -0.00259683 0)
(-0.000369212 -0.00263167 0)
(-0.000389278 -0.00265618 0)
(-0.000407784 -0.00267046 0)
(-0.000424486 -0.00267461 0)
(-0.000439182 -0.00266877 0)
(-0.000451616 -0.00265303 0)
(-0.000461588 -0.00262754 0)
(-0.000468819 -0.00259243 0)
(-0.000473112 -0.00254786 0)
(-0.000474156 -0.00249395 0)
(-0.000471749 -0.00243091 0)
(-0.000465542 -0.00235885 0)
(-0.00045532 -0.00227804 0)
(-0.000440681 -0.00218857 0)
(-0.00042139 -0.00209079 0)
(-0.000396978 -0.00198473 0)
(-0.000367179 -0.00187091 0)
(-0.000331444 -0.00174923 0)
(-0.000289449 -0.00162046 0)
(-0.000240514 -0.00148428 0)
(-0.000184082 -0.00134185 0)
(-0.000119415 -0.00119235 0)
(-4.61909e-05 -0.00103772 0)
(3.46337e-05 -0.000876398 0)
(0.000122722 -0.000709183 0)
(0.000220693 -0.000514219 0)
(0.000322667 -0.000391396 0)
(0.000396467 -0.000474315 0)
(0.000435302 -0.000564557 0)
(0.000468103 -0.000642887 0)
(0.000541739 -0.000905533 0)
(-2.13227e-07 -9.86788e-05 0)
(-2.88819e-06 -0.00028878 0)
(-8.36737e-06 -0.000471473 0)
(-1.64824e-05 -0.00064661 0)
(-2.69388e-05 -0.000814062 0)
(-3.94729e-05 -0.000973718 0)
(-5.38509e-05 -0.00112548 0)
(-6.98498e-05 -0.00126927 0)
(-8.72494e-05 -0.00140502 0)
(-0.000105833 -0.00153268 0)
(-0.000125386 -0.00165222 0)
(-0.000145701 -0.00176362 0)
(-0.000166569 -0.00186686 0)
(-0.000187788 -0.00196196 0)
(-0.000209158 -0.00204892 0)
(-0.000230481 -0.00212779 0)
(-0.00025156 -0.0021986 0)
(-0.000272203 -0.0022614 0)
(-0.000292217 -0.00231627 0)
(-0.000311413 -0.00236328 0)
(-0.0003296 -0.00240253 0)
(-0.000346594 -0.00243413 0)
(-0.000362204 -0.0024582 0)
(-0.000376248 -0.00247488 0)
(-0.000388536 -0.00248432 0)
(-0.000398887 -0.0024867 0)
(-0.00040711 -0.0024822 0)
(-0.000413027 -0.00247106 0)
(-0.000416442 -0.00245347 0)
(-0.00041718 -0.00242975 0)
(-0.000415041 -0.00240013 0)
(-0.000409854 -0.00236499 0)
(-0.00040141 -0.00232461 0)
(-0.000389545 -0.00227947 0)
(-0.00037404 -0.0022299 0)
(-0.000354741 -0.0021765 0)
(-0.000331416 -0.00211965 0)
(-0.000303924 -0.00206012 0)
(-0.000272023 -0.00199834 0)
(-0.000235589 -0.0019353 0)
(-0.000194374 -0.00187148 0)
(-0.000148241 -0.0018082 0)
(-9.68511e-05 -0.00174589 0)
(-4.00569e-05 -0.0016862 0)
(2.20605e-05 -0.00162939 0)
(8.83444e-05 -0.00157808 0)
(0.000157055 -0.00153144 0)
(0.000222193 -0.00152106 0)
(0.000268213 -0.00153554 0)
(0.000298982 -0.00159311 0)
(-3.30563e-07 -8.16047e-05 0)
(-2.61781e-06 -0.000240049 0)
(-6.97563e-06 -0.000393569 0)
(-1.32116e-05 -0.000542007 0)
(-2.1119e-05 -0.000685228 0)
(-3.05271e-05 -0.000823109 0)
(-4.12823e-05 -0.000955542 0)
(-5.32337e-05 -0.00108243 0)
(-6.62275e-05 -0.00120369 0)
(-8.01111e-05 -0.00131926 0)
(-9.47309e-05 -0.00142908 0)
(-0.000109936 -0.0015331 0)
(-0.000125574 -0.00163129 0)
(-0.000141495 -0.00172364 0)
(-0.000157551 -0.00181014 0)
(-0.000173592 -0.00189079 0)
(-0.000189472 -0.00196562 0)
(-0.000205046 -0.00203466 0)
(-0.000220167 -0.00209794 0)
(-0.000234695 -0.00215552 0)
(-0.000248485 -0.00220747 0)
(-0.000261401 -0.00225386 0)
(-0.000273301 -0.00229479 0)
(-0.000284053 -0.00233036 0)
(-0.000293519 -0.00236067 0)
(-0.000301572 -0.00238587 0)
(-0.000308079 -0.00240607 0)
(-0.000312921 -0.00242144 0)
(-0.000315971 -0.00243214 0)
(-0.000317119 -0.00243834 0)
(-0.000316246 -0.00244023 0)
(-0.000313257 -0.00243802 0)
(-0.000308042 -0.00243191 0)
(-0.000300523 -0.00242213 0)
(-0.000290608 -0.00240891 0)
(-0.00027824 -0.00239251 0)
(-0.000263347 -0.00237318 0)
(-0.000245905 -0.00235121 0)
(-0.000225866 -0.00232683 0)
(-0.000203249 -0.0023004 0)
(-0.000178044 -0.00227212 0)
(-0.000150318 -0.00224241 0)
(-0.000120117 -0.0022114 0)
(-8.75478e-05 -0.00217961 0)
(-5.2769e-05 -0.00214707 0)
(-1.60044e-05 -0.00211436 0)
(2.24313e-05 -0.00208125 0)
(6.21397e-05 -0.0020483 0)
(0.00010409 -0.00201425 0)
(0.000144153 -0.00202712 0)
(-2.94429e-08 -7.13445e-05 0)
(-1.11607e-06 -0.000210526 0)
(-3.48275e-06 -0.000346086 0)
(-7.0915e-06 -0.0004779 0)
(-1.18188e-05 -0.000605855 0)
(-1.7548e-05 -0.000729853 0)
(-2.41764e-05 -0.000849802 0)
(-3.16066e-05 -0.000965622 0)
(-3.97429e-05 -0.00107724 0)
(-4.84903e-05 -0.0011846 0)
(-5.77552e-05 -0.00128763 0)
(-6.74452e-05 -0.00138632 0)
(-7.74692e-05 -0.00148061 0)
(-8.77369e-05 -0.00157051 0)
(-9.81593e-05 -0.00165598 0)
(-0.000108648 -0.00173705 0)
(-0.000119116 -0.00181372 0)
(-0.000129476 -0.00188601 0)
(-0.000139643 -0.00195395 0)
(-0.000149532 -0.0020176 0)
(-0.00015906 -0.00207701 0)
(-0.000168144 -0.00213223 0)
(-0.000176703 -0.00218335 0)
(-0.000184657 -0.00223045 0)
(-0.000191928 -0.00227363 0)
(-0.000198438 -0.00231297 0)
(-0.000204113 -0.00234861 0)
(-0.00020888 -0.00238066 0)
(-0.000212668 -0.00240924 0)
(-0.00021541 -0.00243451 0)
(-0.000217039 -0.00245661 0)
(-0.000217495 -0.00247568 0)
(-0.000216717 -0.00249191 0)
(-0.000214652 -0.00250545 0)
(-0.000211247 -0.00251649 0)
(-0.000206458 -0.0025252 0)
(-0.000200241 -0.00253179 0)
(-0.00019256 -0.00253643 0)
(-0.000183381 -0.00253933 0)
(-0.000172682 -0.00254069 0)
(-0.000160438 -0.00254072 0)
(-0.000146638 -0.0025396 0)
(-0.000131269 -0.00253757 0)
(-0.000114333 -0.00253478 0)
(-9.58255e-05 -0.0025315 0)
(-7.57792e-05 -0.00252783 0)
(-5.41574e-05 -0.00252405 0)
(-3.0967e-05 -0.00252025 0)
(-6.22325e-06 -0.00251698 0)
(1.97564e-05 -0.00251369 0)
(-1.64599e-07 -6.30597e-05 0)
(-7.02819e-07 -0.000187219 0)
(-1.52749e-06 -0.000309182 0)
(-2.56204e-06 -0.000428718 0)
(-3.78375e-06 -0.000545623 0)
(-5.18761e-06 -0.00065972 0)
(-6.77092e-06 -0.000770849 0)
(-8.52921e-06 -0.00087887 0)
(-1.04563e-05 -0.00098366 0)
(-1.25448e-05 -0.00108511 0)
(-1.4786e-05 -0.00118314 0)
(-1.71697e-05 -0.00127767 0)
(-1.96836e-05 -0.00136864 0)
(-2.23138e-05 -0.00145602 0)
(-2.50441e-05 -0.00153976 0)
(-2.78567e-05 -0.00161986 0)
(-3.07314e-05 -0.0016963 0)
(-3.36464e-05 -0.00176911 0)
(-3.6578e-05 -0.00183829 0)
(-3.95007e-05 -0.00190388 0)
(-4.23878e-05 -0.00196591 0)
(-4.5211e-05 -0.00202444 0)
(-4.7941e-05 -0.00207952 0)
(-5.05476e-05 -0.00213122 0)
(-5.30001e-05 -0.00217961 0)
(-5.52671e-05 -0.00222479 0)
(-5.73177e-05 -0.00226682 0)
(-5.91206e-05 -0.00230582 0)
(-6.06458e-05 -0.00234188 0)
(-6.18629e-05 -0.00237512 0)
(-6.27443e-05 -0.00240564 0)
(-6.32619e-05 -0.00243356 0)
(-6.33912e-05 -0.00245902 0)
(-6.31079e-05 -0.00248214 0)
(-6.2392e-05 -0.00250305 0)
(-6.12237e-05 -0.00252189 0)
(-5.95885e-05 -0.00253879 0)
(-5.74721e-05 -0.00255391 0)
(-5.48665e-05 -0.00256739 0)
(-5.17635e-05 -0.00257937 0)
(-4.81621e-05 -0.00259 0)
(-4.40606e-05 -0.00259944 0)
(-3.94647e-05 -0.00260782 0)
(-3.43796e-05 -0.00261532 0)
(-2.88205e-05 -0.00262207 0)
(-2.28085e-05 -0.00262824 0)
(-1.63634e-05 -0.00263396 0)
(-9.42617e-06 -0.00263939 0)
(-1.78924e-06 -0.00264532 0)
(6.52957e-06 -0.00265139 0)
(2.55043e-07 -6.87034e-05 0)
(1.39547e-06 -0.000202801 0)
(3.3804e-06 -0.000333448 0)
(6.07233e-06 -0.000460486 0)
(9.37491e-06 -0.000583783 0)
(1.32086e-05 -0.000703234 0)
(1.74945e-05 -0.000818754 0)
(2.21498e-05 -0.000930279 0)
(2.70903e-05 -0.00103776 0)
(3.22335e-05 -0.00114118 0)
(3.75006e-05 -0.00124051 0)
(4.28174e-05 -0.00133576 0)
(4.81155e-05 -0.00142695 0)
(5.33326e-05 -0.0015141 0)
(5.8413e-05 -0.00159726 0)
(6.33079e-05 -0.00167649 0)
(6.79751e-05 -0.00175184 0)
(7.2379e-05 -0.00182338 0)
(7.64906e-05 -0.00189118 0)
(8.02869e-05 -0.00195535 0)
(8.37508e-05 -0.00201595 0)
(8.68703e-05 -0.0020731 0)
(8.96386e-05 -0.00212688 0)
(9.20532e-05 -0.00217741 0)
(9.41154e-05 -0.00222478 0)
(9.58301e-05 -0.0022691 0)
(9.72051e-05 -0.0023105 0)
(9.82505e-05 -0.00234907 0)
(9.89785e-05 -0.00238493 0)
(9.94025e-05 -0.0024182 0)
(9.95372e-05 -0.002449 0)
(9.93974e-05 -0.00247744 0)
(9.89986e-05 -0.00250363 0)
(9.83552e-05 -0.00252769 0)
(9.74819e-05 -0.00254975 0)
(9.63915e-05 -0.00256992 0)
(9.50964e-05 -0.00258831 0)
(9.36064e-05 -0.00260504 0)
(9.1931e-05 -0.00262023 0)
(9.00763e-05 -0.002634 0)
(8.80483e-05 -0.00264646 0)
(8.58493e-05 -0.00265773 0)
(8.34817e-05 -0.00266793 0)
(8.09419e-05 -0.00267717 0)
(7.82232e-05 -0.00268557 0)
(7.5319e-05 -0.00269325 0)
(7.22779e-05 -0.00270034 0)
(6.92614e-05 -0.00270694 0)
(6.62979e-05 -0.00271306 0)
(6.22105e-05 -0.00271902 0)
(2.08297e-07 -7.24453e-05 0)
(3.94674e-06 -0.000215003 0)
(1.1317e-05 -0.000354418 0)
(2.18391e-05 -0.00048999 0)
(3.47799e-05 -0.000621196 0)
(4.95099e-05 -0.000747651 0)
(6.55139e-05 -0.000869084 0)
(8.23538e-05 -0.000985315 0)
(9.96497e-05 -0.00109624 0)
(0.000117073 -0.00120183 0)
(0.000134344 -0.00130209 0)
(0.000151224 -0.00139707 0)
(0.000167515 -0.00148687 0)
(0.000183054 -0.0015716 0)
(0.000197708 -0.00165139 0)
(0.00021137 -0.0017264 0)
(0.000223961 -0.00179679 0)
(0.000235421 -0.00186274 0)
(0.000245708 -0.00192441 0)
(0.000254798 -0.00198198 0)
(0.000262682 -0.00203564 0)
(0.000269361 -0.00208555 0)
(0.000274848 -0.00213189 0)
(0.000279164 -0.00217484 0)
(0.000282339 -0.00221456 0)
(0.000284407 -0.0022512 0)
(0.000285408 -0.00228493 0)
(0.000285385 -0.0023159 0)
(0.000284385 -0.00234425 0)
(0.000282456 -0.00237012 0)
(0.000279647 -0.00239364 0)
(0.000276006 -0.00241494 0)
(0.000271583 -0.00243414 0)
(0.000266423 -0.00245135 0)
(0.000260572 -0.0024667 0)
(0.000254071 -0.00248029 0)
(0.000246962 -0.00249222 0)
(0.000239277 -0.00250259 0)
(0.000231049 -0.00251151 0)
(0.000222305 -0.00251909 0)
(0.000213064 -0.00252541 0)
(0.000203343 -0.00253058 0)
(0.000193148 -0.00253472 0)
(0.000182478 -0.00253794 0)
(0.000171326 -0.00254035 0)
(0.000159725 -0.00254209 0)
(0.000147797 -0.0025433 0)
(0.000135577 -0.00254416 0)
(0.000121924 -0.00254456 0)
(0.000103187 -0.00254557 0)
(1.93904e-06 -0.000132834 0)
(1.29214e-05 -0.000370227 0)
(3.11671e-05 -0.000584473 0)
(5.45754e-05 -0.000777736 0)
(8.12977e-05 -0.000951956 0)
(0.000109982 -0.00110888 0)
(0.000139616 -0.00125012 0)
(0.000169397 -0.00137714 0)
(0.000198689 -0.00149129 0)
(0.000226994 -0.00159382 0)
(0.000253932 -0.00168583 0)
(0.000279218 -0.00176836 0)
(0.000302648 -0.00184233 0)
(0.000324081 -0.0019086 0)
(0.000343431 -0.00196793 0)
(0.000360653 -0.00202102 0)
(0.000375737 -0.0020685 0)
(0.0003887 -0.00211094 0)
(0.00039958 -0.00214885 0)
(0.000408433 -0.00218271 0)
(0.000415324 -0.00221294 0)
(0.000420333 -0.00223991 0)
(0.00042354 -0.00226397 0)
(0.000425034 -0.00228541 0)
(0.000424902 -0.00230452 0)
(0.000423234 -0.00232153 0)
(0.000420117 -0.00233668 0)
(0.000415635 -0.00235014 0)
(0.000409869 -0.00236209 0)
(0.000402893 -0.00237268 0)
(0.000394774 -0.00238203 0)
(0.000385575 -0.00239026 0)
(0.000375341 -0.00239745 0)
(0.000364117 -0.00240369 0)
(0.000351921 -0.00240903 0)
(0.00033877 -0.00241352 0)
(0.00032465 -0.00241719 0)
(0.000309536 -0.00242005 0)
(0.000293368 -0.00242212 0)
(0.000276067 -0.00242337 0)
(0.000257508 -0.00242381 0)
(0.000237529 -0.00242339 0)
(0.000215915 -0.0024221 0)
(0.000192411 -0.00241985 0)
(0.000166694 -0.00241666 0)
(0.000138474 -0.00241241 0)
(0.00010691 -0.00240712 0)
(7.04616e-05 -0.00240065 0)
(2.62403e-05 -0.00239316 0)
(-2.03073e-05 -0.00238527 0)
(7.02149e-05 -0.000205483 0)
(0.000202987 -0.00055084 0)
(0.00031148 -0.00083843 0)
(0.000399777 -0.00107789 0)
(0.000471693 -0.00127717 0)
(0.000529911 -0.00144281 0)
(0.000576301 -0.0015803 0)
(0.000612424 -0.00169422 0)
(0.000639655 -0.00178842 0)
(0.000659196 -0.00186613 0)
(0.000672088 -0.00193006 0)
(0.000679229 -0.00198247 0)
(0.000681394 -0.00202528 0)
(0.000679254 -0.00206007 0)
(0.00067339 -0.00208818 0)
(0.000664305 -0.00211074 0)
(0.000652435 -0.00212869 0)
(0.000638158 -0.00214281 0)
(0.000621801 -0.00215375 0)
(0.000603649 -0.00216207 0)
(0.000583949 -0.00216821 0)
(0.000562915 -0.00217255 0)
(0.000540736 -0.0021754 0)
(0.000517573 -0.00217699 0)
(0.00049357 -0.00217753 0)
(0.000468853 -0.00217715 0)
(0.000443535 -0.00217596 0)
(0.000417715 -0.00217402 0)
(0.000391485 -0.00217136 0)
(0.000364931 -0.00216796 0)
(0.000338134 -0.00216376 0)
(0.000311171 -0.00215867 0)
(0.000284125 -0.00215255 0)
(0.000257077 -0.00214521 0)
(0.000230119 -0.00213638 0)
(0.000203345 -0.00212577 0)
(0.00017687 -0.00211296 0)
(0.000150817 -0.0020975 0)
(0.000125338 -0.00207875 0)
(0.000100603 -0.00205606 0)
(7.68216e-05 -0.00202849 0)
(5.42346e-05 -0.00199508 0)
(3.31305e-05 -0.00195444 0)
(1.38368e-05 -0.0019052 0)
(-3.2207e-06 -0.00184537 0)
(-1.73957e-05 -0.00177294 0)
(-2.7673e-05 -0.001685 0)
(-3.35145e-05 -0.00157857 0)
(-3.79568e-05 -0.00144953 0)
(-5.11085e-05 -0.00127975 0)
(-0.044492 -0.162826 0)
(-0.0450451 -0.16382 0)
(-0.0456079 -0.164787 0)
(-0.0461803 -0.165725 0)
(-0.0467621 -0.166634 0)
(-0.0473532 -0.167513 0)
(-0.0479535 -0.168363 0)
(-0.0485629 -0.169182 0)
(-0.0491812 -0.169972 0)
(-0.0498085 -0.17073 0)
(-0.0504445 -0.171457 0)
(-0.0510891 -0.172153 0)
(-0.0517422 -0.172816 0)
(-0.0524037 -0.173447 0)
(-0.0530733 -0.174044 0)
(-0.0537509 -0.174608 0)
(-0.0544363 -0.175136 0)
(-0.0551295 -0.175629 0)
(-0.05583 -0.176086 0)
(-0.0565379 -0.176505 0)
(-0.0572527 -0.176886 0)
(-0.0579744 -0.177228 0)
(-0.0587026 -0.177529 0)
(-0.059437 -0.17779 0)
(-0.0601775 -0.178009 0)
(-0.0609236 -0.178185 0)
(-0.061675 -0.178317 0)
(-0.0624313 -0.178405 0)
(-0.0631923 -0.178447 0)
(-0.0639575 -0.178443 0)
(-0.0647265 -0.178391 0)
(-0.0654988 -0.178291 0)
(-0.066274 -0.178142 0)
(-0.0670517 -0.177943 0)
(-0.0678314 -0.177693 0)
(-0.0686126 -0.177392 0)
(-0.0693947 -0.177039 0)
(-0.0701773 -0.176632 0)
(-0.0709598 -0.176172 0)
(-0.0717417 -0.175658 0)
(-0.0725225 -0.17509 0)
(-0.0733016 -0.174467 0)
(-0.0740785 -0.173788 0)
(-0.0748526 -0.173053 0)
(-0.0756235 -0.172262 0)
(-0.0763908 -0.171415 0)
(-0.077154 -0.17051 0)
(-0.0779122 -0.16955 0)
(-0.0786625 -0.168533 0)
(-0.0794104 -0.167462 0)
(-0.0562544 -0.156145 0)
(-0.0568199 -0.156924 0)
(-0.0574075 -0.157684 0)
(-0.058016 -0.158422 0)
(-0.0586447 -0.159138 0)
(-0.0592926 -0.159829 0)
(-0.0599591 -0.160497 0)
(-0.0606435 -0.161139 0)
(-0.061345 -0.161757 0)
(-0.0620633 -0.162348 0)
(-0.0627975 -0.162913 0)