/*--------------------------------*- C++ -*----------------------------------*\
| =========                 |                                                 |
| \\      /  F ield         | OpenFOAM: The Open Source CFD Toolbox           |
|  \\    /   O peration     | Version:  2.4.0                                 |
|   \\  /    A nd           | Web:      www.OpenFOAM.org                      |
|    \\/     M anipulation  |                                                 |
\*---------------------------------------------------------------------------*/
FoamFile
{
    version     2.0;
    format      ascii;
    class       volScalarField;
    location    "3.9";
    object      p;
}
// * * * * * * * * * * * * * * * * * * * * * * * * * * * * * * * * * * * * * //

dimensions      [1 -1 -2 0 0 0 0];

internalField   nonuniform List<scalar> 
8000
(
-3.66708
-3.6556
-3.64294
-3.6315
-3.62089
-3.61206
-3.60377
-3.59634
-3.58977
-3.58405
-3.57916
-3.57508
-3.57182
-3.56935
-3.56768
-3.5668
-3.5667
-3.56738
-3.56884
-3.57108
-3.57409
-3.57789
-3.58246
-3.58783
-3.59399
-3.60096
-3.60874
-3.61734
-3.62678
-3.63707
-3.64823
-3.66008
-3.67231
-3.68657
-3.70172
-3.71748
-3.73427
-3.75214
-3.77112
-3.79086
-3.81268
-3.83516
-3.8589
-3.88394
-3.90767
-3.93704
-3.96364
-3.99059
-4.02787
-4.10129
-3.59664
-3.59358
-3.59111
-3.58949
-3.58847
-3.58807
-3.58812
-3.58877
-3.58994
-3.59164
-3.59387
-3.59663
-3.5999
-3.60369
-3.60799
-3.61279
-3.61808
-3.62386
-3.63012
-3.63684
-3.64403
-3.65166
-3.65972
-3.66822
-3.67712
-3.68642
-3.69611
-3.70616
-3.71656
-3.72729
-3.73833
-3.74965
-3.76122
-3.77305
-3.78508
-3.7973
-3.80967
-3.8221
-3.83468
-3.84714
-3.86012
-3.87292
-3.88522
-3.89457
-3.9018
-3.90984
-3.94656
-4.09672
-4.39395
-4.94578
-2.94605
-2.95333
-2.96091
-2.96822
-2.97552
-2.98301
-2.99071
-2.99862
-3.00672
-3.015
-3.02348
-3.03214
-3.04098
-3.05
-3.05918
-3.06853
-3.07802
-3.08764
-3.09739
-3.10725
-3.11721
-3.12725
-3.13734
-3.14747
-3.15762
-3.16775
-3.17785
-3.18789
-3.19782
-3.20763
-3.21727
-3.2267
-3.23587
-3.24476
-3.25328
-3.26141
-3.26907
-3.27627
-3.28297
-3.28911
-3.29375
-3.29447
-3.28891
-3.2877
-3.34317
-3.66
-4.29303
-5.11403
-5.25826
-5.03665
-2.9011
-2.91397
-2.92957
-2.94536
-2.96114
-2.97715
-2.99349
-3.01016
-3.02714
-3.04443
-3.06202
-3.07991
-3.09808
-3.11653
-3.13526
-3.15426
-3.17351
-3.193
-3.21273
-3.23267
-3.25283
-3.27317
-3.29369
-3.31436
-3.33516
-3.35608
-3.37707
-3.39812
-3.41919
-3.44024
-3.46124
-3.48215
-3.5029
-3.52344
-3.54372
-3.56375
-3.58366
-3.6033
-3.62098
-3.63042
-3.62258
-3.61697
-3.77465
-4.60533
-6.00729
-6.20334
-5.82226
-5.54057
-4.33668
-2.3784
-2.06856
-2.0901
-2.1136
-2.13647
-2.15918
-2.18217
-2.20553
-2.22924
-2.25327
-2.27762
-2.30228
-2.32724
-2.35252
-2.37812
-2.40403
-2.43028
-2.45686
-2.48378
-2.51107
-2.53872
-2.56677
-2.59522
-2.62409
-2.65342
-2.68321
-2.71351
-2.74432
-2.77569
-2.80765
-2.84023
-2.87347
-2.90741
-2.94217
-2.97785
-3.01447
-3.05091
-3.08462
-3.11313
-3.14684
-3.2324
-3.61597
-4.4822
-5.57277
-6.66313
-6.98587
-5.79257
-2.45435
-0.348264
0.12415
-0.0462553
-2.03905
-2.06909
-2.1045
-2.1398
-2.17475
-2.20994
-2.2456
-2.28172
-2.3183
-2.35535
-2.39288
-2.43093
-2.46951
-2.50867
-2.54843
-2.58886
-2.62998
-2.67186
-2.71456
-2.75813
-2.80266
-2.84821
-2.89486
-2.94272
-2.99187
-3.04242
-3.09448
-3.14817
-3.20361
-3.26095
-3.32045
-3.38251
-3.44738
-3.51343
-3.57317
-3.61059
-3.63537
-3.90475
-5.14319
-7.49857
-8.34387
-9.07944
-8.15996
-3.34937
-0.00332942
0.967303
0.930863
0.725788
0.610942
0.569658
-0.857367
-0.905719
-0.958111
-1.00749
-1.05457
-1.10048
-1.14552
-1.18969
-1.23298
-1.2754
-1.317
-1.35779
-1.39782
-1.43711
-1.4757
-1.51363
-1.55093
-1.58764
-1.62381
-1.65947
-1.69467
-1.72945
-1.76387
-1.79799
-1.83184
-1.86551
-1.899
-1.93254
-1.96635
-2.0008
-2.03461
-2.06338
-2.07975
-2.09195
-2.17787
-2.75229
-4.26262
-6.92005
-9.55342
-10.5383
-4.25208
0.791464
1.92484
1.85143
1.53318
1.43777
1.42618
1.4306
1.42854
1.41508
-0.941162
-0.998104
-1.06194
-1.12204
-1.17836
-1.23215
-1.28386
-1.33353
-1.38113
-1.42665
-1.47012
-1.51153
-1.5509
-1.58821
-1.62346
-1.65664
-1.68773
-1.71669
-1.74351
-1.76814
-1.79055
-1.81068
-1.82848
-1.84386
-1.8567
-1.86703
-1.87531
-1.88266
-1.88767
-1.87661
-1.81634
-1.71807
-1.90462
-3.57006
-7.28373
-8.69421
-9.69918
-4.23588
1.50338
2.6778
2.62216
2.24746
2.24257
2.26044
2.26589
2.26313
2.23805
2.21668
2.18416
2.14332
-0.247815
-0.307837
-0.371879
-0.430838
-0.48562
-0.537641
-0.587288
-0.634542
-0.679358
-0.721727
-0.761648
-0.799116
-0.834116
-0.866628
-0.896623
-0.924066
-0.948916
-0.971123
-0.990631
-1.00738
-1.0213
-1.03227
-1.04014
-1.04486
-1.04708
-1.04872
-1.04893
-1.02799
-0.932389
-0.770675
-1.04005
-3.32097
-7.95297
-7.0484
-5.90938
0.201881
3.10531
3.23
2.88128
2.88846
2.90873
2.90902
2.8997
2.88418
2.87639
2.85511
2.84412
2.80953
2.77111
2.74691
-1.383
-1.43673
-1.49788
-1.55615
-1.61133
-1.66457
-1.71635
-1.7667
-1.8156
-1.86309
-1.90916
-1.95383
-1.99712
-2.03901
-2.07951
-2.11861
-2.15627
-2.19248
-2.2272
-2.26038
-2.29187
-2.32163
-2.35021
-2.3795
-2.40975
-2.42511
-2.37599
-2.25233
-2.45218
-4.22678
-7.95462
-5.35701
-2.25577
2.38948
3.45412
3.38524
3.26219
3.28421
3.28843
3.28542
3.28073
3.27327
3.26176
3.2608
3.24962
3.25558
3.23786
3.21491
3.20538
3.18459
-1.19891
-1.24472
-1.29362
-1.33984
-1.38447
-1.42863
-1.47263
-1.51648
-1.56019
-1.60378
-1.64729
-1.69072
-1.7341
-1.77742
-1.82067
-1.86383
-1.90688
-1.94976
-1.9924
-2.03473
-2.07687
-2.11939
-2.16236
-2.20077
-2.21829
-2.20891
-2.29467
-2.88794
-4.17502
-3.56916
-0.0868245
2.63124
3.46125
3.45676
3.43309
3.43922
3.43962
3.4384
3.43604
3.43336
3.4324
3.43039
3.42684
3.42193
3.42745
3.41622
3.41459
3.41196
3.40803
3.40072
-3.05403
-3.06358
-3.07885
-3.09778
-3.11979
-3.14495
-3.17335
-3.20505
-3.24007
-3.27842
-3.32012
-3.36519
-3.41362
-3.46544
-3.52065
-3.57926
-3.64125
-3.70655
-3.77519
-3.84765
-3.92528
-4.00769
-4.08187
-4.11289
-4.11123
-4.41102
-5.90181
-8.29118
-2.46185
2.37523
3.44497
3.48458
3.4782
3.47253
3.47111
3.4717
3.47201
3.47197
3.47171
3.4708
3.47013
3.46937
3.4674
3.467
3.46618
3.46626
3.46698
3.46854
3.47075
3.47675
-2.48456
-2.4531
-2.42106
-2.39806
-2.38476
-2.3802
-2.38393
-2.39584
-2.41596
-2.44431
-2.48093
-2.52588
-2.57928
-2.64126
-2.71199
-2.79166
-2.88051
-2.97881
-3.08704
-3.20593
-3.33565
-3.47269
-3.60799
-3.74844
-3.99621
-4.59355
-5.35418
-3.66494
2.12013
3.4814
3.55882
3.53439
3.50457
3.50348
3.50299
3.50379
3.50281
3.50308
3.50347
3.50391
3.50438
3.50499
3.50868
3.50759
3.50891
3.5101
3.51166
3.5139
3.51693
3.51812
-2.88884
-2.8297
-2.77472
-2.7334
-2.70395
-2.68453
-2.6746
-2.67414
-2.68314
-2.70158
-2.72949
-2.7669
-2.8139
-2.8706
-2.93716
-3.01378
-3.10069
-3.19818
-3.30653
-3.42615
-3.55755
-3.70148
-3.85809
-4.02463
-4.19431
-4.37575
-4.65893
-5.24773
-5.95991
-2.86985
2.77857
3.47809
3.41514
3.45444
3.44009
3.43746
3.43899
3.4401
3.44106
3.44185
3.44272
3.44362
3.4443
3.44511
3.44623
3.448
3.45143
3.45723
3.46481
3.4646
2.01179
1.99803
1.98766
1.98161
1.97885
1.97893
1.98184
1.98764
1.99641
2.00823
2.02317
2.04134
2.06286
2.08786
2.11651
2.14897
2.18544
2.22614
2.27131
2.32123
2.37621
2.43646
2.5019
2.5722
2.64979
2.74665
2.88104
3.00656
2.82326
1.55057
-0.270282
-4.06209
3.24325
2.68778
3.19757
3.31439
3.37509
3.37168
3.37111
3.36788
3.36264
3.39027
3.38763
3.38414
3.40183
3.39661
3.39287
3.42588
3.44823
3.4123
3.85116
3.8056
3.75932
3.72205
3.69358
3.67261
3.65867
3.65171
3.65177
3.65889
3.67313
3.69458
3.72335
3.75962
3.80358
3.85546
3.91552
3.98407
4.06145
4.14806
4.2443
4.35067
4.46763
4.59563
4.73522
4.88784
5.05699
5.24515
5.43491
5.56347
5.57728
4.90236
1.67442
-5.91617
-5.73881
-2.3267
2.07049
3.18385
3.35752
3.37086
3.34399
3.34207
3.34327
3.33252
3.33114
3.33025
3.31653
3.3144
3.35122
3.32356
4.77554
4.74143
4.70569
4.6758
4.65177
4.63267
4.61813
4.6081
4.60256
4.6015
4.6049
4.61276
4.62507
4.64184
4.6631
4.68887
4.71918
4.75407
4.79358
4.83776
4.88666
4.94035
4.99887
5.06231
5.1307
5.20405
5.28244
5.36654
5.45793
5.5562
5.64798
5.70518
5.74927
5.74851
5.49281
1.0477
-5.85354
-7.19735
0.0167348
-0.742879
3.21606
3.19368
3.23887
3.25062
3.21957
3.22216
3.20145
3.28493
3.22645
3.22232
5.61389
5.60196
5.59087
5.5804
5.5701
5.56023
5.55127
5.54368
5.53781
5.53397
5.53245
5.53348
5.53726
5.54397
5.55377
5.56677
5.58308
5.60277
5.6259
5.65248
5.68254
5.71605
5.75297
5.79325
5.83678
5.88347
5.93316
5.98565
6.0407
6.09814
6.15846
6.22336
6.29221
6.35078
6.37555
6.39159
6.407
6.40966
4.20845
2.59723
-5.09836
-6.64628
0.61959
0.23682
2.76157
2.98163
3.10031
3.11506
3.08193
3.0595
4.2622
4.29966
4.33023
4.35
4.36235
4.3698
4.37365
4.37476
4.37387
4.37165
4.36869
4.36548
4.36244
4.3599
4.35816
4.35744
4.35794
4.35978
4.36306
4.36785
4.37417
4.382
4.3913
4.40199
4.41397
4.42708
4.44115
4.45596
4.47125
4.48672
4.50205
4.51684
4.53061
4.54296
4.55417
4.5654
4.5759
4.58468
4.56112
4.53178
4.49482
4.58711
1.97754
-1.06371
-7.44773
-7.60772
1.17709
1.35306
2.97841
3.02724
8.76111
8.33477
7.90603
7.53794
7.21868
6.9334
6.67591
6.44366
6.23464
6.04693
5.8788
5.72877
5.59558
5.47821
5.37573
5.2874
5.21257
5.15068
5.10127
5.06397
5.03847
5.02453
5.02198
5.03073
5.05076
5.08212
5.12497
5.17955
5.24624
5.32552
5.41807
5.52471
5.64653
5.78486
5.94136
6.11803
6.31736
6.54246
6.79765
7.08902
7.42056
7.79283
8.17255
8.53464
9.67889
10.9405
9.58513
11.1979
2.6708
3.23896
-4.27146
-4.60375
-5.33653
-5.94936
-6.51669
-7.44151
-8.23555
-8.59558
-8.7507
-8.82618
-8.84865
-8.82956
-8.79459
-8.75994
-8.73196
-8.71376
-8.70411
-8.69947
-8.69352
-8.70074
-8.69454
-8.72101
-8.75795
-8.78277
-8.83379
-8.83252
-8.88437
-8.95446
-8.97989
-9.0936
-9.14918
-9.22947
-9.31955
-9.40894
-9.52201
-9.63588
-9.76491
-9.89715
-10.041
-10.188
-10.3537
-10.5312
-10.7065
-10.9041
-11.1007
-11.3128
-11.5319
-11.7681
-11.9837
-12.2504
-5.69322
-5.90087
-5.85028
-5.63464
-5.27628
-5.26969
-5.43454
-5.5361
-5.57763
-5.59537
-5.60435
-5.59918
-5.58384
-5.56661
-5.55267
-5.54585
-5.54435
-5.53842
-5.53261
-5.51638
-5.51387
-5.53897
-5.53594
-5.55101
-5.55419
-5.56486
-5.62154
-5.63659
-5.65445
-5.6769
-5.71364
-5.77489
-5.83215
-5.9042
-5.97665
-6.0612
-6.15859
-6.25468
-6.36263
-6.47298
-6.5938
-6.72418
-6.85055
-6.99567
-7.13794
-7.29383
-7.45328
-7.61442
-7.78807
-7.95691
-4.76143
-3.92624
-2.99403
-2.73837
-2.9271
-3.05998
-3.10721
-3.12229
-3.13301
-3.14098
-3.13794
-3.12562
-3.11009
-3.09512
-3.0828
-3.0743
-3.06622
-3.05437
-3.0452
-3.0263
-3.03232
-3.04044
-3.0412
-3.04945
-3.00163
-3.0151
-3.04835
-3.0537
-3.09193
-3.09671
-3.1204
-3.17131
-3.20111
-3.2639
-3.31165
-3.37317
-3.44032
-3.50881
-3.58868
-3.6688
-3.75544
-3.84936
-3.94064
-4.04474
-4.14386
-4.25545
-4.36564
-4.48225
-4.59433
-4.71614
-1.11702
-1.02285
-1.30148
-1.45843
-1.51416
-1.52206
-1.4952
-1.4811
-1.48255
-1.47517
-1.46259
-1.44573
-1.43117
-1.41923
-1.41047
-1.40171
-1.38906
-1.38076
-1.36343
-1.36269
-1.36591
-1.36075
-1.35465
-1.34192
-1.3274
-1.38629
-1.37818
-1.3877
-1.38373
-1.38975
-1.41483
-1.46807
-1.49197
-1.54383
-1.57591
-1.62419
-1.678
-1.73086
-1.79446
-1.85556
-1.92162
-1.99146
-2.06564
-2.14001
-2.21881
-2.29655
-2.37707
-2.46242
-2.5504
-2.63768
-0.245476
-0.344135
-0.386179
-0.392326
-0.385472
-0.380515
-0.380417
-0.359461
-0.361083
-0.353385
-0.345941
-0.339568
-0.343796
-0.34569
-0.347357
-0.346089
-0.353862
-0.348978
-0.354466
-0.364996
-0.361974
-0.366358
-0.364839
-0.357181
-0.392253
-0.414466
-0.435582
-0.452968
-0.447703
-0.449994
-0.476958
-0.509224
-0.530917
-0.57758
-0.602395
-0.6418
-0.686808
-0.731175
-0.780446
-0.829403
-0.882541
-0.938522
-0.996451
-1.05704
-1.1175
-1.1795
-1.24125
-1.303
-1.3675
-1.43307
0.560994
0.562092
0.556036
0.540763
0.522221
0.507217
0.4885
0.479372
0.452536
0.438558
0.416716
0.389854
0.361977
0.341821
0.314045
0.296511
0.275331
0.239897
0.210399
0.220262
0.169316
0.173319
0.124382
0.115356
0.102051
0.0940191
0.0911462
0.0682187
0.0165436
0.0158078
1.21034e-05
-0.0360442
-0.0469558
-0.0908861
-0.112901
-0.143456
-0.178271
-0.210273
-0.24808
-0.28648
-0.327445
-0.370558
-0.4185
-0.463795
-0.514186
-0.559723
-0.608639
-0.655362
-0.702145
-0.748926
1.3909
1.35923
1.32275
1.28393
1.24302
1.20174
1.15847
1.11367
1.06304
1.0095
0.952421
0.902901
0.849992
0.794131
0.769707
0.723095
0.670413
0.618213
0.590427
0.547351
0.522151
0.501319
0.479526
0.451397
0.449829
0.413499
0.405494
0.389766
0.34241
0.346679
0.296526
0.283219
0.264652
0.246778
0.223932
0.197385
0.177253
0.13949
0.111983
0.0793261
0.045141
0.013603
-0.0281689
-0.0633657
-0.101103
-0.134741
-0.172836
-0.208659
-0.244493
-0.279577
2.099
2.05394
2.00729
1.96489
1.91843
1.86719
1.81283
1.7544
1.68825
1.61872
1.55709
1.47552
1.42034
1.36473
1.30114
1.24364
1.18953
1.1408
1.09758
1.06656
1.05652
1.02013
0.990578
0.968967
0.924575
0.905806
0.887986
0.866136
0.840676
0.850556
0.782802
0.762468
0.736765
0.70888
0.67871
0.646841
0.619707
0.573038
0.541377
0.506153
0.47048
0.437481
0.39499
0.360716
0.323686
0.291067
0.255016
0.223749
0.191767
0.160808
2.70755
2.68165
2.64942
2.61099
2.56976
2.5269
2.48032
2.42315
2.35929
2.34568
2.21606
2.1731
2.11894
2.06342
2.01292
1.97878
1.93803
1.9053
1.88409
1.84786
1.81485
1.78886
1.76557
1.72173
1.69943
1.6752
1.64992
1.62398
1.59623
1.60091
1.51755
1.47741
1.43368
1.38696
1.33808
1.2966
1.24545
1.19479
1.14735
1.09645
1.04551
0.998621
0.943855
0.898645
0.852546
0.810675
0.768768
0.728597
0.69048
0.654319
3.17227
3.15503
3.13229
3.10754
3.08217
3.05581
3.02201
2.97502
2.999
2.95811
2.93947
2.91287
2.87889
2.84357
2.80642
2.80097
2.77044
2.731
2.71134
2.69298
2.67365
2.65489
2.63863
2.62866
2.5622
2.54338
2.51486
2.49078
2.48046
2.43756
2.38481
2.33194
2.2782
2.21959
2.15688
2.09249
2.02688
1.96834
1.88445
1.81613
1.74831
1.6813
1.6156
1.55159
1.48934
1.42903
1.37086
1.31688
1.26311
1.21319
3.3902
3.39523
3.3912
3.39167
3.40093
3.39629
3.38083
3.35964
3.3821
3.38323
3.40169
3.41319
3.41212
3.40868
3.4052
3.39968
3.38886
3.37695
3.3747
3.35214
3.3598
3.35965
3.3475
3.36352
3.29968
3.28608
3.27078
3.25167
3.23236
3.2106
3.19074
3.11743
3.0617
3.01323
2.9549
2.89757
2.83663
2.76523
2.69094
2.61564
2.54037
2.46455
2.38802
2.31115
2.23409
2.15876
2.0848
2.01249
1.94414
1.87556
3.48122
3.48838
3.49644
3.50352
3.50988
3.54656
3.55448
3.56944
3.58749
3.60368
3.6197
3.63603
3.64924
3.66318
3.67953
3.68572
3.7311
3.73664
3.73545
3.7374
3.76981
3.77474
3.78287
3.78289
3.77891
3.77234
3.76183
3.7471
3.73101
3.71659
3.70391
3.68388
3.64476
3.59754
3.55153
3.50604
3.45506
3.4052
3.35179
3.30084
3.23874
3.17066
3.10158
3.03222
2.96447
2.89154
2.82269
2.77344
2.68778
2.60984
3.57586
3.54496
3.54922
3.55625
3.56351
3.57065
3.57886
3.58522
3.59411
3.60511
3.61737
3.6301
3.64357
3.65732
3.67293
3.68845
3.70168
3.70499
3.7114
3.71698
3.72572
3.7024
3.71982
3.73721
3.75911
3.75184
3.76062
3.79314
3.7632
3.75726
3.75011
3.73826
3.72165
3.70861
3.69334
3.6722
3.64436
3.62606
3.59184
3.56498
3.54845
3.57116
3.50865
3.44596
3.39011
3.3451
3.30297
3.26448
3.22081
3.16826
3.4622
3.46183
3.47484
3.44882
3.45213
3.42962
3.44564
3.44517
3.50311
3.4849
3.48665
3.49019
3.49447
3.48123
3.48361
3.48675
3.48897
3.48942
3.49505
3.60628
3.5772
3.56868
3.56599
3.5665
3.56791
3.56859
3.57209
3.64633
3.64131
3.63463
3.6298
3.62783
3.62562
3.62117
3.6177
3.63297
3.61349
3.60429
3.59461
3.58426
3.57799
3.58479
3.59686
3.58673
3.49125
3.44662
3.43933
3.39134
3.38013
3.32794
3.41332
3.41598
3.41212
3.41154
3.40865
3.40779
3.41467
3.41723
3.40058
3.41764
3.4191
3.41406
3.41705
3.41961
3.40864
3.41233
3.42021
3.39185
3.42442
3.42592
3.39836
3.39762
3.3991
3.40323
3.40475
3.40702
3.41262
3.42396
3.43416
3.43799
3.43628
3.43035
3.42507
3.42215
3.42026
3.41835
3.4157
3.41257
3.4086
3.40303
3.39598
3.38857
3.39159
3.40916
3.45986
3.44088
3.39095
3.34779
3.3167
3.29694
3.32348
3.32296
3.32127
3.3194
3.31728
3.31238
3.3328
3.33675
3.32653
3.32559
3.31642
3.31288
3.32731
3.28761
3.30319
3.27582
3.27462
3.2741
3.24977
3.25031
3.24953
3.24806
3.24658
3.24589
3.24886
3.25797
3.2575
3.25219
3.24808
3.24485
3.24247
3.24011
3.23665
3.23335
3.22998
3.22669
3.22417
3.21863
3.21196
3.20688
3.20998
3.22513
3.23772
3.23454
3.22251
3.20994
3.19059
3.15298
3.11114
3.08236
3.21886
3.22118
3.20893
3.20694
3.20944
3.1921
3.19019
3.18785
3.19332
3.18959
3.18034
3.20051
3.17194
3.16963
3.16656
3.15823
3.15218
3.16657
3.12275
3.11896
3.08079
3.075
3.04585
3.05187
3.04338
3.03304
3.07902
3.06628
3.05723
3.05227
3.01061
3.00358
2.99233
3.00269
2.98278
3.00527
2.99413
2.98197
2.96968
2.95657
2.94334
2.93077
2.92236
2.99453
2.95086
2.92859
2.912
2.89773
2.89606
2.90176
3.06119
3.0638
3.0577
3.08639
3.07368
3.05309
3.06293
3.04959
3.04912
3.04989
3.04749
3.04216
3.03433
3.0248
3.02055
3.01538
3.00542
2.99701
2.9857
2.97879
2.97149
2.96375
2.95553
2.9479
2.94135
2.91477
2.92343
2.91752
2.94214
2.92175
2.9182
2.92083
2.89136
2.89905
2.87446
2.88211
2.84603
2.87988
2.82171
2.83483
2.81004
2.82321
2.80748
2.82588
2.81478
2.79463
2.80885
2.79713
2.79807
2.8011
3.00953
3.00421
3.00347
3.00037
2.99754
2.9966
2.99549
2.99489
2.99848
3.02776
2.99757
3.04262
3.03071
3.02567
3.03138
3.0308
3.02477
3.01198
2.99336
2.97939
2.97066
2.96322
2.95553
2.94696
2.93867
2.93166
2.92376
2.91387
2.9028
2.89062
2.8782
2.86729
2.85696
2.84537
2.83494
2.82426
2.81432
2.80602
2.79974
2.78843
2.76555
2.75592
2.75696
2.75004
2.72135
2.73722
2.7322
2.71328
2.71268
2.71176
3.06732
2.99301
2.98038
2.97829
2.97695
2.97493
2.97323
2.97262
2.97187
2.96991
2.96651
2.97907
2.97303
2.97421
2.97162
2.96857
2.96422
2.96795
2.9665
2.96271
2.95726
2.94599
2.93554
2.92769
2.92337
2.91056
2.93013
2.90681
2.8983
2.89102
2.88376
2.87625
2.86834
2.85986
2.85075
2.84181
2.83533
2.83584
2.85008
2.78566
2.7717
2.76066
2.7513
2.74144
2.73054
2.7204
2.71252
2.70677
2.69766
2.68618
-12.4263
-12.5584
-12.6998
-12.8446
-12.9929
-13.1446
-13.3001
-13.458
-13.6177
-13.7905
-13.9881
-14.1214
-14.388
-14.534
-14.6924
-14.8725
-15.061
-15.2509
-15.4443
-15.6567
-15.8956
-16.1127
-16.3745
-16.5462
-16.7332
-16.9453
-17.1655
-17.3866
-17.6087
-17.845
-18.1058
-18.371
-18.6206
-18.8627
-19.0898
-19.3005
-19.5236
-19.7629
-20.0044
-20.2461
-20.4891
-20.7328
-20.9764
-21.22
-21.4641
-21.7071
-21.9497
-22.2022
-22.4612
-22.7123
-22.9488
-23.1803
-23.4073
-23.6203
-23.8223
-24.0282
-24.2367
-24.4415
-24.6417
-24.8366
-25.026
-25.2088
-25.3837
-25.5507
-25.7114
-25.8588
-25.9859
-26.169
-26.2871
-26.4073
-26.5075
-26.597
-26.6774
-26.7523
-26.8209
-26.8808
-26.9258
-26.9547
-26.9704
-26.9735
-26.9651
-26.9463
-26.9103
-26.8548
-26.7719
-26.7815
-26.6961
-26.6069
-26.4892
-26.3615
-26.2291
-26.0869
-25.9355
-25.7807
-25.6162
-25.4318
-25.2295
-25.0165
-24.7914
-24.5512
-24.3004
-24.0484
-23.8139
-23.5604
-23.2899
-23.0046
-22.7099
-22.4051
-22.0908
-21.7665
-21.4362
-21.1059
-20.7738
-20.4382
-20.0918
-19.7367
-19.3823
-19.0216
-18.6501
-18.2723
-17.8917
-17.5059
-17.1115
-16.7119
-16.3109
-15.9078
-15.5048
-15.1045
-14.6942
-14.2836
-13.8635
-13.4353
-13.021
-12.6097
-12.189
-11.7734
-11.3643
-10.9615
-10.556
-10.1549
-9.75605
-9.36292
-8.97817
-8.59932
-8.22763
-7.86658
-7.51415
-7.1698
-6.83182
-6.5079
-6.18995
-5.88522
-5.59412
-5.3165
-5.0541
-4.80581
-4.56737
-4.34444
-4.12899
-3.93258
-3.75913
-3.58811
-3.43572
-3.28853
-3.16855
-3.05713
-2.95736
-2.86924
-2.79373
-2.73018
-2.67675
-2.63502
-2.60222
-2.57844
-2.56207
-2.55416
-2.55326
-2.55836
-2.56886
-2.58431
-2.60416
-2.62783
-2.65477
-2.68459
-2.71688
-2.75112
-2.78717
-2.8248
-2.86351
-2.90315
-2.94353
-2.9845
-3.0259
-3.06767
-3.10976
-3.15212
-3.19471
-3.23749
-3.28044
-3.32355
-3.36683
-3.41025
-3.45383
-3.49756
-3.54143
-3.58543
-3.62956
-3.67381
-3.71815
-3.76258
-3.80708
-3.85163
-3.89623
-3.94086
-3.98551
-4.03016
-4.0748
-4.11942
-4.16394
-4.20851
-4.25297
-4.29735
-4.34166
-4.38587
-4.42994
-4.47389
-4.51778
-4.56145
-4.60496
-4.64831
-4.69142
-4.73438
-4.77712
-4.81961
-4.86189
-4.90391
-4.94561
-4.98709
-5.02828
-5.06916
-5.10977
-5.15009
-5.19012
-5.22987
-5.26922
-5.30832
-5.34744
-5.386
-5.42433
-5.46245
-5.50037
-5.53788
-5.57535
-5.61285
-5.65002
-5.68709
-5.72409
-5.76116
-5.7983
-5.83483
-5.87232
-5.90923
-5.94633
-5.98372
-6.02126
-6.05906
-6.09719
-6.1358
-6.17528
-6.21539
-6.25391
-6.2969
-6.33687
-6.37931
-6.42147
-6.46381
-6.5071
-6.54984
-6.5935
-6.63721
-6.68058
-6.72423
-6.76902
-6.81319
-6.85475
-6.89962
-6.94081
-6.98233
-7.02283
-7.06093
-7.09533
-7.12535
-7.15058
-7.17064
-7.18521
-7.19466
-7.19947
-7.19821
-7.18933
-7.17744
-8.09584
-8.18368
-8.27183
-8.3707
-8.4757
-8.58212
-8.69133
-8.80682
-8.91488
-9.03072
-9.12287
-9.2713
-9.41349
-9.54946
-9.69205
-9.80019
-9.91573
-10.0457
-10.1811
-10.3162
-10.4557
-10.6114
-10.7829
-10.9566
-11.1386
-11.2544
-11.3877
-11.5401
-11.6954
-11.8514
-12.0088
-12.1696
-12.327
-12.4936
-12.6768
-12.876
-13.0667
-13.2538
-13.393
-13.5336
-13.6949
-13.8659
-14.0374
-14.2091
-14.3805
-14.5502
-14.7281
-14.9229
-15.1177
-15.3001
-15.4731
-15.6331
-15.7764
-15.9276
-16.0902
-16.2522
-16.4111
-16.5677
-16.7221
-16.874
-17.0226
-17.1676
-17.3088
-17.4451
-17.5763
-17.707
-17.8422
-17.9733
-18.0896
-18.1945
-18.2929
-18.3815
-18.4579
-18.5311
-18.6032
-18.6702
-18.7292
-18.7803
-18.8237
-18.8591
-18.8862
-18.9047
-18.9139
-18.9108
-18.9003
-18.8801
-18.8743
-18.8341
-18.7868
-18.7337
-18.6721
-18.6049
-18.5311
-18.4461
-18.3488
-18.2356
-18.1087
-17.9771
-17.8402
-17.6994
-17.5553
-17.4027
-17.2364
-17.0596
-16.8746
-16.6818
-16.4777
-16.2599
-16.0349
-15.8084
-15.5758
-15.3362
-15.0972
-14.8563
-14.6035
-14.3395
-14.0705
-13.7967
-13.5173
-13.2278
-12.9298
-12.6306
-12.3335
-12.0324
-11.7272
-11.4247
-11.1252
-10.8215
-10.5097
-10.1981
-9.87925
-9.5607
-9.25786
-8.94297
-8.6348
-8.32216
-8.01694
-7.71873
-7.41277
-7.11612
-6.82615
-6.54181
-6.26882
-6.00516
-5.74452
-5.48902
-5.2418
-5.00302
-4.77377
-4.54917
-4.33019
-4.12279
-3.93711
-3.76386
-3.59852
-3.43972
-3.29251
-3.15247
-3.02127
-2.91861
-2.81696
-2.72306
-2.63978
-2.56282
-2.49833
-2.44595
-2.40086
-2.36344
-2.334
-2.31155
-2.29584
-2.28829
-2.28566
-2.28876
-2.29647
-2.30917
-2.3261
-2.34656
-2.37088
-2.39788
-2.42796
-2.46042
-2.49495
-2.5313
-2.56937
-2.60883
-2.6495
-2.69142
-2.73413
-2.7776
-2.82174
-2.86647
-2.9117
-2.95733
-3.0033
-3.04954
-3.09598
-3.1426
-3.18935
-3.23623
-3.28322
-3.33032
-3.37751
-3.4248
-3.47216
-3.5196
-3.5671
-3.61464
-3.66221
-3.70979
-3.75738
-3.80496
-3.85251
-3.90003
-3.94751
-3.99492
-4.04226
-4.08952
-4.13669
-4.18354
-4.23058
-4.2774
-4.32401
-4.37051
-4.41686
-4.46296
-4.50892
-4.55476
-4.60025
-4.64554
-4.69062
-4.73538
-4.77992
-4.82413
-4.86809
-4.91174
-4.95508
-4.99812
-5.04083
-5.08322
-5.12527
-5.16705
-5.20844
-5.24967
-5.2907
-5.33143
-5.3719
-5.41282
-5.45281
-5.49255
-5.5323
-5.57218
-5.61189
-5.65168
-5.69154
-5.73144
-5.77138
-5.81133
-5.8522
-5.89339
-5.9351
-5.97598
-6.0186
-6.06181
-6.10491
-6.14898
-6.1944
-6.2409
-6.28857
-6.33815
-6.38915
-6.43998
-6.49347
-6.54672
-6.60157
-6.65824
-6.7166
-6.77735
-6.83876
-6.89424
-6.96089
-7.01795
-7.07851
-7.14142
-7.20299
-7.26188
-7.31934
-7.37067
-7.43463
-7.48743
-7.53515
-7.57365
-7.59792
-7.6097
-7.60424
-7.5804
-7.53937
-7.47857
-7.39708
-7.29301
-4.81659
-4.88947
-4.96176
-5.03286
-5.09778
-5.16296
-5.25404
-5.32129
-5.40013
-5.47272
-5.54497
-5.62199
-5.70289
-5.78822
-5.88029
-5.9624
-6.04864
-6.12705
-6.20388
-6.28838
-6.37829
-6.46784
-6.56124
-6.66589
-6.72758
-6.89207
-6.96413
-7.05866
-7.16115
-7.26384
-7.36739
-7.4614
-7.55788
-7.65848
-7.76006
-7.8632
-7.97634
-8.10256
-8.20614
-8.3078
-8.39283
-8.45428
-8.5603
-8.65366
-8.76352
-8.86346
-8.96161
-9.0655
-9.17324
-9.28052
-9.38901
-9.50391
-9.62112
-9.73027
-9.83032
-9.92755
-10.0222
-10.1086
-10.1907
-10.2788
-10.3703
-10.4593
-10.5454
-10.6291
-10.7104
-10.7896
-10.8676
-10.9463
-11.0252
-11.1057
-11.1868
-11.2573
-11.3166
-11.3646
-11.402
-11.4391
-11.4801
-11.5181
-11.5506
-11.5785
-11.6024
-11.6218
-11.6363
-11.6457
-11.6496
-11.6476
-11.6386
-11.6268
-11.6109
-11.5899
-11.5594
-11.5116
-11.4724
-11.4256
-11.3723
-11.355
-11.2809
-11.2055
-11.1264
-11.0458
-10.9629
-10.8714
-10.7697
-10.6607
-10.5464
-10.4273
-10.3034
-10.1742
-10.0368
-9.88841
-9.73175
-9.58715
-9.44311
-9.29417
-9.13416
-8.96771
-8.79883
-8.62389
-8.43814
-8.24689
-8.05874
-7.87086
-7.68
-7.49422
-7.31281
-7.12671
-6.93507
-6.74206
-6.54845
-6.35492
-6.16177
-5.96981
-5.77873
-5.58902
-5.40098
-5.21746
-5.03562
-4.84898
-4.66181
-4.48347
-4.31355
-4.15584
-4.01044
-3.86602
-3.72022
-3.57916
-3.44436
-3.31605
-3.19414
-3.07595
-2.96015
-2.84743
-2.76666
-2.6823
-2.60101
-2.52533
-2.45401
-2.38762
-2.34017
-2.2937
-2.25172
-2.21551
-2.18489
-2.15934
-2.13878
-2.12694
-2.11845
-2.11419
-2.11439
-2.11792
-2.12667
-2.1386
-2.15376
-2.1722
-2.1932
-2.21716
-2.24366
-2.27245
-2.30321
-2.3361
-2.37074
-2.4068
-2.44444
-2.48337
-2.52337
-2.56461
-2.60672
-2.64966
-2.69334
-2.73768
-2.7826
-2.828
-2.87381
-2.91997
-2.96641
-3.01311
-3.06003
-3.10715
-3.15446
-3.20196
-3.24963
-3.29743
-3.34542
-3.39354
-3.44178
-3.49013
-3.5385
-3.58704
-3.63565
-3.68423
-3.73289
-3.78152
-3.83019
-3.87883
-3.92745
-3.97603
-4.02455
-4.073
-4.12137
-4.16964
-4.21779
-4.26587
-4.31377
-4.36149
-4.40912
-4.45659
-4.50385
-4.55062
-4.59764
-4.64425
-4.69053
-4.73661
-4.78232
-4.82787
-4.87305
-4.91812
-4.96223
-5.00703
-5.05112
-5.09487
-5.13834
-5.18154
-5.22452
-5.26675
-5.3098
-5.35216
-5.39453
-5.43678
-5.47867
-5.52124
-5.5629
-5.60476
-5.64774
-5.69038
-5.7334
-5.77767
-5.82136
-5.8649
-5.91002
-5.95596
-6.00271
-6.05043
-6.09905
-6.14764
-6.20001
-6.24997
-6.30509
-6.35982
-6.41808
-6.47665
-6.53935
-6.60482
-6.67179
-6.74035
-6.81246
-6.88367
-6.95901
-7.03783
-7.11848
-7.19837
-7.28172
-7.36507
-7.4487
-7.5336
-7.62315
-7.7079
-7.79263
-7.87363
-7.95277
-8.03028
-8.09498
-8.14518
-8.1804
-8.19944
-8.20034
-8.17882
-8.12653
-8.04581
-7.94326
-7.80772
-2.70464
-2.74861
-2.79552
-2.84644
-2.89757
-2.94477
-2.99404
-3.04195
-3.08462
-3.1352
-3.18901
-3.24447
-3.29806
-3.35817
-3.4064
-3.45768
-3.51147
-3.56552
-3.61977
-3.67515
-3.73168
-3.7879
-3.84325
-3.89658
-3.95555
-4.01695
-4.07739
-4.13977
-4.19073
-4.24476
-4.30698
-4.35775
-4.4168
-4.47181
-4.52671
-4.58408
-4.64174
-4.69916
-4.76271
-4.79443
-4.8584
-4.90755
-4.95373
-5.0104
-5.07027
-5.13192
-5.19257
-5.25455
-5.3027
-5.35256
-5.40586
-5.45921
-5.51279
-5.57056
-5.63128
-5.65752
-5.76893
-5.80759
-5.85679
-5.90921
-5.96199
-6.00755
-6.05145
-6.08997
-6.12575
-6.16405
-6.2041
-6.24366
-6.28245
-6.32002
-6.33863
-6.4008
-6.42767
-6.46355
-6.502
-6.53272
-6.55591
-6.5728
-6.58483
-6.59291
-6.60139
-6.61256
-6.6216
-6.61599
-6.61873
-6.61973
-6.61732
-6.61317
-6.60644
-6.59687
-6.58507
-6.57088
-6.53591
-6.51448
-6.48964
-6.46025
-6.43217
-6.40192
-6.36626
-6.32386
-6.27523
-6.22278
-6.16552
-6.1077
-6.05065
-5.9915
-5.92751
-5.85944
-5.7892
-5.71752
-5.64294
-5.55053
-5.47109
-5.39304
-5.31097
-5.22378
-5.13449
-5.04357
-4.95073
-4.85714
-4.76145
-4.65912
-4.54506
-4.44236
-4.35312
-4.26615
-4.17426
-4.07647
-3.9786
-3.88177
-3.78571
-3.69041
-3.59603
-3.50277
-3.41084
-3.32051
-3.23198
-3.14522
-3.06055
-2.9762
-2.88895
-2.80179
-2.75474
-2.69405
-2.63046
-2.56802
-2.50888
-2.45315
-2.40086
-2.35186
-2.30577
-2.26298
-2.22655
-2.19271
-2.16235
-2.13472
-2.10961
-2.08748
-2.07679
-2.06482
-2.05514
-2.04865
-2.04524
-2.04468
-2.04694
-2.05268
-2.06083
-2.07167
-2.08477
-2.10038
-2.11826
-2.13821
-2.1603
-2.18418
-2.20979
-2.23759
-2.2668
-2.29748
-2.32962
-2.36307
-2.39785
-2.43375
-2.47079
-2.50876
-2.54771
-2.58744
-2.62791
-2.66907
-2.71085
-2.75318
-2.79601
-2.83929
-2.88296
-2.92707
-2.97152
-3.01632
-3.06146
-3.10694
-3.15273
-3.19883
-3.24522
-3.2918
-3.33875
-3.38585
-3.43321
-3.48078
-3.52846
-3.57636
-3.62446
-3.67262
-3.72089
-3.76928
-3.81771
-3.86617
-3.91454
-3.96349
-4.01211
-4.06068
-4.10928
-4.15786
-4.20639
-4.25487
-4.30328
-4.35163
-4.39959
-4.44773
-4.49519
-4.54323
-4.59024
-4.63834
-4.68523
-4.73222
-4.77906
-4.82496
-4.87131
-4.9175
-4.96313
-5.00857
-5.05453
-5.09933
-5.14386
-5.18827
-5.23263
-5.27676
-5.32078
-5.36553
-5.40929
-5.45322
-5.49744
-5.54159
-5.58552
-5.62997
-5.67558
-5.72093
-5.76674
-5.81308
-5.86011
-5.90798
-5.9564
-6.0034
-6.05407
-6.10695
-6.15946
-6.21387
-6.26869
-6.32506
-6.3834
-6.44438
-6.50721
-6.57166
-6.6375
-6.70731
-6.77948
-6.8535
-6.92701
-7.00265
-7.08078
-7.16258
-7.24506
-7.32893
-7.41267
-7.49491
-7.57552
-7.65271
-7.72591
-7.79653
-7.86424
-7.92489
-7.97953
-8.03153
-8.0787
-8.11548
-8.13626
-8.14019
-8.12607
-8.08851
-8.02752
-7.94489
-7.84577
-7.70014
-1.47782
-1.51251
-1.54584
-1.57919
-1.61355
-1.64892
-1.685
-1.71657
-1.75136
-1.78484
-1.81837
-1.85294
-1.8883
-1.92425
-1.96059
-1.99558
-2.03026
-2.06372
-2.097
-2.13107
-2.16661
-2.2022
-2.2337
-2.26832
-2.30171
-2.33359
-2.36957
-2.40554
-2.43815
-2.47208
-2.5047
-2.53592
-2.56891
-2.60642
-2.64074
-2.67388
-2.71042
-2.74127
-2.77272
-2.80547
-2.8396
-2.8739
-2.90694
-2.93867
-2.96945
-2.99917
-3.02856
-3.05947
-3.09225
-3.12422
-3.15589
-3.18628
-3.21614
-3.24489
-3.27214
-3.29988
-3.32843
-3.35614
-3.38377
-3.41189
-3.44106
-3.45132
-3.50236
-3.52036
-3.54795
-3.57295
-3.59623
-3.618
-3.63909
-3.6591
-3.67821
-3.69718
-3.71554
-3.73272
-3.74952
-3.76739
-3.78647
-3.80304
-3.80386
-3.84509
-3.85394
-3.87475
-3.88118
-3.8871
-3.89253
-3.89625
-3.89666
-3.89784
-3.8977
-3.89612
-3.8932
-3.8887
-3.88332
-3.87723
-3.86919
-3.85866
-3.84707
-3.83448
-3.82078
-3.80619
-3.7906
-3.77369
-3.75482
-3.73366
-3.709
-3.68192
-3.65254
-3.62244
-3.59216
-3.56186
-3.53004
-3.49734
-3.4625
-3.42411
-3.38746
-3.3498
-3.31062
-3.26993
-3.22867
-3.18737
-3.14601
-3.10466
-3.06349
-3.02146
-2.97768
-2.93276
-2.88953
-2.84962
-2.81089
-2.77054
-2.72913
-2.68807
-2.64752
-2.60752
-2.56817
-2.5296
-2.49193
-2.4554
-2.42038
-2.38712
-2.35506
-2.32386
-2.29203
-2.26903
-2.24528
-2.2224
-2.20051
-2.18013
-2.16145
-2.14455
-2.12949
-2.11627
-2.10486
-2.09525
-2.08753
-2.08156
-2.07776
-2.07613
-2.07647
-2.07846
-2.08211
-2.08754
-2.09471
-2.1036
-2.11417
-2.12639
-2.14021
-2.15551
-2.17273
-2.19124
-2.21114
-2.23249
-2.25517
-2.27895
-2.30443
-2.33099
-2.35867
-2.38747
-2.41735
-2.44818
-2.48006
-2.5128
-2.54638
-2.58076
-2.6159