/*--------------------------------*- C++ -*----------------------------------*\
| =========                 |                                                 |
| \\      /  F ield         | OpenFOAM: The Open Source CFD Toolbox           |
|  \\    /   O peration     | Version:  2.4.0                                 |
|   \\  /    A nd           | Web:      www.OpenFOAM.org                      |
|    \\/     M anipulation  |                                                 |
\*---------------------------------------------------------------------------*/
FoamFile
{
    version     2.0;
    format      ascii;
    class       volScalarField;
    location    "3.9";
    object      p_rgh;
}
// * * * * * * * * * * * * * * * * * * * * * * * * * * * * * * * * * * * * * //

dimensions      [1 -1 -2 0 0 0 0];

internalField   nonuniform List<scalar> 
8000
(
78.0289
78.0404
78.053
78.0645
78.0752
78.084
78.0923
78.0997
78.1063
78.112
78.1168
78.1209
78.1241
78.1266
78.1283
78.1291
78.1292
78.1285
78.1271
78.1248
78.1218
78.118
78.1134
78.1081
78.1019
78.0949
78.0871
78.0785
78.0691
78.0588
78.0476
78.0356
78.0232
78.009
77.9941
77.9783
77.9615
77.9437
77.9247
77.905
77.8831
77.8606
77.8368
77.8116
77.7875
77.7585
77.7322
77.7053
77.6678
77.5938
79.4497
79.4527
79.4552
79.4568
79.4579
79.4583
79.4582
79.4576
79.4564
79.4547
79.4524
79.4497
79.4464
79.4426
79.4383
79.4335
79.4282
79.4224
79.4162
79.4094
79.4023
79.3946
79.3865
79.3781
79.3691
79.3598
79.3501
79.3401
79.3297
79.3189
79.3079
79.2966
79.285
79.2732
79.2611
79.2489
79.2365
79.2241
79.2115
79.1991
79.186
79.1732
79.1609
79.1514
79.1443
79.1363
79.0996
78.9495
78.6513
77.6482
81.4506
81.4433
81.4357
81.4284
81.4211
81.4136
81.4059
81.398
81.3899
81.3816
81.3732
81.3645
81.3556
81.3466
81.3374
81.3281
81.3186
81.309
81.2992
81.2894
81.2794
81.2694
81.2593
81.2492
81.239
81.2289
81.2188
81.2087
81.1988
81.189
81.1793
81.1699
81.1607
81.1518
81.1433
81.1352
81.1275
81.1203
81.1135
81.1074
81.1027
81.102
81.1076
81.1088
81.0532
80.7364
80.101
77.7919
69.2959
54.9816
82.8459
82.833
82.8174
82.8016
82.7859
82.7698
82.7535
82.7368
82.7198
82.7026
82.685
82.6671
82.6489
82.6304
82.6117
82.5927
82.5735
82.554
82.5343
82.5143
82.4942
82.4738
82.4533
82.4326
82.4118
82.3909
82.3699
82.3489
82.3278
82.3067
82.2857
82.2648
82.2441
82.2235
82.2032
82.1832
82.1633
82.1436
82.1259
82.1164
82.1242
82.1299
81.9722
81.1408
79.7328
75.0257
62.8624
43.1989
18.1571
4.71645
85.0288
85.0073
84.9838
84.9609
84.9382
84.9152
84.8918
84.8681
84.8441
84.8197
84.7951
84.7701
84.7448
84.7192
84.6933
84.6671
84.6405
84.6136
84.5863
84.5586
84.5306
84.5021
84.4732
84.4439
84.4141
84.3838
84.353
84.3216
84.2897
84.2571
84.2239
84.1899
84.1551
84.1195
84.0828
84.0464
84.0126
83.9841
83.9504
83.8648
83.4811
82.6123
81.1319
69.9512
51.9219
24.5689
5.96689
2.75948
2.15781
1.62717
86.4087
86.3786
86.3432
86.3079
86.2729
86.2378
86.2021
86.166
86.1294
86.0923
86.0548
86.0168
85.9782
85.939
85.8992
85.8588
85.8177
85.7758
85.7331
85.6896
85.645
85.5995
85.5528
85.505
85.4558
85.4053
85.3532
85.2995
85.2441
85.1867
85.1272
85.0652
85.0003
84.9342
84.8744
84.837
84.8122
84.5428
83.3032
80.9379
73.9726
58.4537
32.1458
6.197
2.84684
2.85915
2.59843
2.27816
2.10677
2.04504
88.9407
88.8923
88.8399
88.7906
88.7435
88.6976
88.6525
88.6084
88.5651
88.5226
88.481
88.4402
88.4002
88.3609
88.3223
88.2844
88.2471
88.2104
88.1742
88.1386
88.1034
88.0686
88.0342
88
87.9662
87.9325
87.899
87.8655
87.8317
87.7972
87.7634
87.7346
87.7182
87.706
87.6201
87.0454
85.53
80.5264
65.058
39.0446
6.1249
3.51109
3.86219
3.53154
3.07943
2.93912
2.91854
2.92029
2.9171
2.90358
90.2072
90.1503
90.0865
90.0263
89.97
89.9162
89.8645
89.8149
89.7673
89.7217
89.6783
89.6369
89.5975
89.5602
89.5249
89.4917
89.4607
89.4317
89.4049
89.3802
89.3578
89.3377
89.3199
89.3045
89.2917
89.2814
89.2731
89.2657
89.2607
89.2717
89.332
89.4302
89.2436
87.5772
83.8468
73.4182
48.8164
10.571
4.30825
4.69789
4.32657
3.76902
3.75376
3.77153
3.77748
3.77658
3.74984
3.72763
3.69512
3.65625
92.2509
92.1909
92.1269
92.0679
92.0131
91.9611
91.9114
91.8642
91.8194
91.777
91.7371
91.6996
91.6646
91.6321
91.6021
91.5747
91.5498
91.5276
91.5081
91.4914
91.4774
91.4665
91.4586
91.4539
91.4517
91.45
91.4498
91.4707
91.5663
91.7279
91.4586
89.1761
84.5201
68.533
26.3615
4.49126
5.20499
5.02386
4.43217
4.42237
4.44173
4.4419
4.43259
4.41769
4.41216
4.39039
4.37761
4.34373
4.31119
4.28909
92.4661
92.4124
92.3512
92.2929
92.2378
92.1845
92.1327
92.0824
92.0335
91.986
91.9399
91.8953
91.852
91.8101
91.7696
91.7305
91.6928
91.6566
91.6219
91.5887
91.5572
91.5274
91.4989
91.4696
91.4393
91.424
91.473
91.5967
91.3967
89.6219
85.8726
66.6049
16.6102
5.04708
5.32126
5.05253
4.82507
4.84101
4.8437
4.84049
4.8358
4.82835
4.81884
4.82001
4.80843
4.81168
4.79432
4.77754
4.77007
4.74791
94.0005
93.9547
93.9058
93.8596
93.815
93.7708
93.7268
93.6829
93.6392
93.5956
93.5521
93.5087
93.4653
93.422
93.3788
93.3356
93.2925
93.2497
93.207
93.1647
93.1226
93.08
93.0371
92.9987
92.9811
92.9905
92.9047
92.3114
91.0191
79.1534
24.0036
5.16149
5.16062
5.07516
5.01634
5.01792
5.01746
5.01599
5.01386
5.01098
5.00985
5.00784
5.00453
5.0015
5.00886
4.99595
4.99215
4.98944
4.98551
4.97862
93.4957
93.4862
93.4709
93.452
93.43
93.4048
93.3764
93.3447
93.3097
93.2714
93.2297
93.1846
93.1362
93.0843
93.0291
92.9705
92.9085
92.8432
92.7746
92.7021
92.6245
92.5421
92.4679
92.4369
92.4385
92.1387
90.6478
88.2399
54.5007
7.23244
5.11699
5.10532
5.09256
5.08127
5.07587
5.07302
5.07213
5.07173
5.07147
5.07064
5.07031
5.06955
5.0673
5.06687
5.06619
5.06661
5.06749
5.06905
5.07116
5.07663
95.4156
95.447
95.4791
95.5021
95.5154
95.5199
95.5162
95.5043
95.4842
95.4558
95.4192
95.3742
95.3208
95.2589
95.1881
95.1085
95.0196
94.9213
94.8131
94.6942
94.5645
94.4274
94.2921
94.1517
93.9039
93.3065
92.5429
70.8472
9.28208
5.15284
5.1941
5.16967
5.1274
5.1263
5.12582
5.12686
5.1253
5.12521
5.12561
5.12604
5.12651
5.12712
5.13143
5.12996
5.13105
5.13223
5.13393
5.13614
5.13917
5.14279
96.3616
96.4208
96.4758
96.5171
96.5465
96.5659
96.5759
96.5763
96.5673
96.5489
96.521
96.4836
96.4366
96.3799
96.3133
96.2367
96.1498
96.0523
95.9439
95.8243
95.6929
95.549
95.3924
95.2258
95.0562
94.8747
94.5915
94.0024
93.2835
22.7339
5.94255
6.35286
5.11859
5.14577
5.08487
5.08208
5.08352
5.08461
5.08556
5.08636
5.08723
5.08828
5.0896
5.09121
5.09319
5.09613
5.10641
5.13113
5.13962
5.13941
102.613
102.599
102.588
102.582
102.58
102.58
102.583
102.588
102.597
102.609
102.624
102.642
102.664
102.689
102.717
102.75
102.786
102.827
102.872
102.922
102.977
103.037
103.103
103.173
103.251
103.347
103.482
103.607
103.424
102.145
100.324
40.0977
7.9482
8.35144
4.96512
5.04773
5.04259
5.03859
5.03799
5.03626
5.03841
5.0719
5.06926
5.0558
5.06952
5.06485
5.06869
5.11322
5.14027
5.08296
105.802
105.757
105.71
105.673
105.645
105.624
105.61
105.603
105.603
105.61
105.624
105.646
105.675
105.711
105.755
105.807
105.867
105.935
106.013
106.099
106.195
106.302
106.419
106.547
106.686
106.839
107.008
107.196
107.386
107.514
107.528
106.851
102.554
82.5439
17.0747
6.88285
5.68382
5.12976
5.11716
5.11141
5.04034
5.03842
5.04244
5.02686
5.02122
5.02033
5.00902
5.02124
5.06598
5.033
108.077
108.043
108.007
107.977
107.953
107.934
107.92
107.91
107.904
107.903
107.906
107.914
107.927
107.943
107.965
107.99
108.021
108.056
108.095
108.139
108.188
108.242
108.3
108.364
108.432
108.506
108.584
108.668
108.759
108.858
108.949
109.006
109.051
109.05
108.792
101.257
83.6045
28.4633
7.5576
8.01614
5.31967
5.56692
4.9921
5.0291
4.93614
4.9357
4.92063
5.0254
4.95428
4.94124
110.266
110.254
110.243
110.232
110.222
110.212
110.203
110.196
110.19
110.186
110.184
110.185
110.189
110.196
110.206
110.219
110.235
110.255
110.278
110.304
110.334
110.368
110.405
110.445
110.489
110.535
110.585
110.637
110.693
110.75
110.81
110.875
110.944
111.003
111.027
111.043
111.059
111.062
105.583
102.988
77.9375
25.4996
8.90625
8.63367
5.0851
5.05972
4.89996
4.89829
4.83164
4.79764
110.264
110.302
110.332
110.352
110.365
110.372
110.376
110.377
110.376
110.374
110.371
110.368
110.365
110.362
110.36
110.36
110.36
110.362
110.365
110.37
110.376
110.384
110.393
110.404
110.416
110.429
110.443
110.458
110.473
110.489
110.504
110.519
110.533
110.545
110.556
110.568
110.578
110.587
110.563
110.534
110.497
110.572
105.087
99.939
67.9714
18.6398
7.59357
8.11922
5.25543
4.84489
116.114
115.687
115.259
114.89
114.571
114.286
114.028
113.796
113.587
113.399
113.231
113.081
112.948
112.831
112.728
112.64
112.565
112.503
112.454
112.417
112.391
112.377
112.375
112.383
112.403
112.435
112.478
112.532
112.599
112.678
112.771
112.877
112.999
113.137
113.294
113.471
113.67
113.895
114.15
114.442
114.773
115.145
115.525
115.887
115.374
115.501
108.556
111.474
72.8717
15.5401
77.4242
76.9953
74.1972
64.867
43.3545
10.1315
-4.75572
-7.0334
-7.36892
-7.46979
-7.49511
-7.47608
-7.44111
-7.40646
-7.37817
-7.35867
-7.34676
-7.341
-7.33431
-7.34265
-7.33853
-7.36448
-7.39462
-7.41823
-7.47392
-7.47739
-7.52903
-7.59286
-7.61326
-7.73911
-7.7951
-7.87538
-7.96492
-8.0534
-8.16849
-8.28236
-8.41105
-8.54278
-8.68696
-8.83457
-9.0001
-9.17637
-9.35065
-9.55042
-9.7472
-9.95903
-10.1773
-10.4112
-10.6211
-10.8924
72.97
61.2586
42.5735
16.4606
-0.263207
-3.36924
-3.96535
-4.14082
-4.19728
-4.21853
-4.22849
-4.22334
-4.20799
-4.19076
-4.17656
-4.16829
-4.1632
-4.15674
-4.15093
-4.13684
-4.13544
-4.15612
-4.14851
-4.16418
-4.1753
-4.18733
-4.24163
-4.25011
-4.26516
-4.30004
-4.33717
-4.39835
-4.45397
-4.52685
-4.60075
-4.68531
-4.78203
-4.87793
-4.98682
-5.09717
-5.21794
-5.34729
-5.47259
-5.6197
-5.76202
-5.91771
-6.07649
-6.23742
-6.4106
-6.57605
35.0394
11.9818
1.60255
-0.585932
-1.35924
-1.62185
-1.69749
-1.71811
-1.73184
-1.74154
-1.73955
-1.7274
-1.71187
-1.69686
-1.68378
-1.67287
-1.66207
-1.65022
-1.64203
-1.62435
-1.62922
-1.63075
-1.63121
-1.64237
-1.60126
-1.61455
-1.63916
-1.64111
-1.68492
-1.69748
-1.72155
-1.77134
-1.79878
-1.86531
-1.91338
-1.97491
-2.04153
-2.10968
-2.1905
-2.27062
-2.35726
-2.45068
-2.54084
-2.64601
-2.74556
-2.85683
-2.9664
-3.08348
-3.19634
-3.31811
1.89145
0.954853
0.279463
0.00355216
-0.082764
-0.0980052
-0.0738151
-0.0555101
-0.0585741
-0.0530299
-0.0417062
-0.0251361
-0.0105788
0.00202917
0.0132178
0.0248212
0.037548
0.0448191
0.061318
0.0626208
0.0654467
0.0718019
0.0777429
0.0833756
0.0955325
0.043747
0.0571481
0.0474149
0.0409428
0.0315536
0.00640843
-0.0439637
-0.0664365
-0.122499
-0.155271
-0.203473
-0.25627
-0.308801
-0.373729
-0.435007
-0.501065
-0.570908
-0.644536
-0.71851
-0.797657
-0.876108
-0.95669
-1.04193
-1.12926
-1.21649
1.28158
1.1259
1.06488
1.05309
1.05845
1.06326
1.06335
1.08779
1.08485
1.09088
1.09731
1.1034
1.10016
1.10086
1.10215
1.1034
1.09365
1.09807
1.09277
1.0877
1.09314
1.08875
1.08473
1.09064
1.05925
1.04347
1.02235
1.00259
0.997026
0.993685
0.966996
0.937666
0.917049
0.866355
0.840614
0.801208
0.757201
0.713281
0.663593
0.613534
0.560374
0.504392
0.446461
0.386288
0.326127
0.264113
0.201676
0.139723
0.0752206
0.0100493
2.03039
2.03001
2.02322
2.00769
1.98889
1.97337
1.95465
1.94755
1.91955
1.90441
1.88249
1.8573
1.83293
1.81367
1.7847
1.76484
1.74368
1.71015
1.68644
1.70196
1.64375
1.64447
1.59953
1.59321
1.5799
1.568
1.56155
1.54653
1.48649
1.48231
1.46633
1.43229
1.4234
1.37483
1.35248
1.32192
1.28767
1.25658
1.2186
1.17911
1.13799
1.09552
1.04669
1.00137
0.95154
0.906279
0.856947
0.809783
0.762948
0.716169
2.87941
2.84821
2.81403
2.77521
2.73416
2.69131
2.64656
2.60145
2.55095
2.49818
2.4441
2.39786
2.34496
2.28582
2.25823
2.21177
2.16455
2.12221
2.0969
2.05174
2.01931
1.99477
1.97282
1.94469
1.94817
1.90859
1.896
1.8794
1.83681
1.84401
1.78563
1.77158
1.75275
1.73453
1.71168
1.68602
1.66725
1.62762
1.5998
1.56718
1.53369
1.50264
1.4594
1.42417
1.38661
1.35352
1.31507
1.27892
1.24309
1.2082
3.61519
3.56985
3.52229
3.47651
3.42868
3.37733
3.32297
3.26455
3.2004
3.13724
3.07603
2.98976
2.93102
2.87541
2.81308
2.76369
2.71873
2.66999
2.62662
2.58311
2.56984
2.5341
2.51193
2.49029
2.44101
2.41699
2.3991
2.37744
2.35722
2.37295
2.29598
2.27259
2.24689
2.219
2.1893
2.15918
2.13294
2.0835
2.05157
2.01638
1.98154
1.94893
1.905
1.87062
1.83396
1.80163
1.76507
1.73357
1.7016
1.67098
4.24753
4.21483
4.18194
4.14351
4.10227
4.05942
4.01283
3.95771
3.90211
3.89588
3.74978
3.70609
3.65196
3.60159
3.56331
3.53063
3.48894
3.44181
3.41797
3.38182
3.35486
3.33505
3.31175
3.26381
3.23311
3.2087
3.18341
3.1575
3.13437
3.14582
3.05385
3.00991
2.96618
2.91948
2.87209
2.83228
2.78108
2.72802
2.67991
2.62901
2.57894
2.53247
2.47637
2.43091
2.38494
2.34348
2.30158
2.26094
2.22266
2.1865
4.72842
4.71028
4.68737
4.66245
4.63706
4.6107
4.57765
4.53773
4.57549
4.53232
4.49498
4.46823
4.43425
4.40034
4.37342
4.37547
4.34494
4.29654
4.26762
4.24926
4.22992
4.2121
4.20202
4.19382
4.11936
4.09927
4.07163
4.05441
4.04792
4.00506
3.94527
3.88689
3.83307
3.77446
3.71188
3.64848
3.58428
3.52737
3.44053
3.37168
3.30379
3.23659
3.17041
3.10623
3.04397
2.98369
2.92586
2.87221
2.81826
2.76776
4.97236
4.97996
4.97583
4.9708
4.97819
4.97359
4.96271
4.95844
4.98773
4.98807
4.98551
4.99093
4.98986
4.98642
4.98294
4.97742
4.96937
4.96501
4.96318
4.9367
4.93847
4.93832
4.93095
4.95118
4.87811
4.86435
4.84905
4.83049
4.8153
4.79943
4.78184
4.70371
4.63989
4.59061
4.53356
4.47913
4.41886
4.34746
4.27033
4.19524
4.11924
4.04284
3.96631
3.8895
3.81206
3.7363
3.66231
3.5902
3.52212
3.45296
5.08121
5.08902
5.09661
5.10387
5.11585
5.158
5.1651
5.171
5.18739
5.20358
5.21968
5.23629
5.25189
5.27135
5.28769
5.29133
5.33139
5.33755
5.34497
5.36921
5.4054
5.40782
5.38994
5.38367
5.37957
5.37299
5.3625
5.34776
5.33169
5.32148
5.31766
5.29842
5.25894
5.20362
5.15432
5.1092
5.0595
5.01009
4.95798
4.90821
4.8461
4.77504
4.70354
4.63296
4.56483
4.49252
4.42668
4.38148
4.29384
4.21147
5.21119
5.17351
5.17217
5.17851
5.18577
5.19318
5.20271
5.21693
5.23294
5.24422
5.25647
5.2692
5.28268
5.29042
5.29781
5.31102
5.32424
5.32902
5.35027
5.37545
5.38418
5.35369
5.3541
5.36358
5.38374
5.37957
5.40077
5.43793
5.40191
5.38589
5.37575
5.36396
5.34854
5.33856
5.32329
5.30206
5.27076
5.24922
5.21571
5.19124
5.18613
5.21724
5.1513
5.07433
5.01316
4.96815
4.92666
4.89486
4.85255
4.79998
5.12858
5.11213
5.12289
5.10279
5.10616
5.07836
5.0919
5.09196
5.16219
5.14004
5.13492
5.13826
5.14703
5.13072
5.12933
5.13158
5.1338
5.13492
5.15506
5.28763
5.25324
5.22508
5.21242
5.21157
5.21298
5.21389
5.22577
5.31383
5.30809
5.28828
5.27553
5.27261
5.2704
5.26624
5.26328
5.2823
5.26034
5.24932
5.23964
5.22929
5.2249
5.24636
5.28054
5.27051
5.16334
5.09805
5.08548
5.04338
5.03435
4.97901
5.08192
5.08371
5.08129
5.07961
5.07747
5.07926
5.0913
5.09414
5.07259
5.08546
5.08692
5.08648
5.09677
5.09934
5.0859
5.08193
5.0887
5.0676
5.11133
5.11245
5.0749
5.06672
5.0671
5.07075
5.07258
5.0757
5.08377
5.10869
5.12359
5.12743
5.12571
5.1093
5.09771
5.09262
5.08926
5.08592
5.08311
5.07999
5.07602
5.07044
5.06339
5.057
5.06409
5.10836
5.16914
5.15016
5.08629
5.02276
4.9856
4.96435
5.01791
5.01305
5.01136
5.00951
5.00739
5.00435
5.03101
5.03612
5.01672
5.01578
5.0079
5.01189
5.02959
4.98154
4.99394
4.97186
4.97815
4.97764
4.94807
4.94149
4.9407
4.93924
4.93887
4.94444
4.96023
4.97066
4.97019
4.96033
4.94152
4.93586
4.93301
4.93048
4.92708
4.92443
4.92144
4.91877
4.91721
4.91089
4.90449
4.90067
4.90703
4.94249
4.96995
4.96677
4.95474
4.94217
4.92282
4.87149
4.80769
4.77269
4.93228
4.93365
4.92341
4.93323
4.93671
4.91645
4.9061
4.90349
4.90644
4.90283
4.89667
4.9223
4.88795
4.88292
4.8797
4.87199
4.87131
4.88974
4.83708
4.83303
4.80113
4.79535
4.76138
4.76496
4.75661
4.75132
4.80968
4.7957
4.77117
4.76567
4.73027
4.72388
4.7108
4.7166
4.70871
4.7383
4.72717
4.70418
4.68247
4.66935
4.65612
4.64404
4.64494
4.73407
4.68423
4.64325
4.62666
4.61315
4.62547
4.65573
4.79662
4.79888
4.795
4.83527
4.82017
4.79277
4.79986
4.78881
4.79419
4.80598
4.8038
4.79848
4.79065
4.76984
4.75718
4.75154
4.74414
4.73527
4.7211
4.71406
4.70675
4.69919
4.69414
4.69218
4.68564
4.65442
4.66032
4.65442
4.68597
4.66247
4.6548
4.65576
4.63117
4.64192
4.61293
4.61768
4.58767
4.63067
4.56047
4.57001
4.54886
4.56666
4.54877
4.56091
4.55033
4.53784
4.55743
4.54449
4.53403
4.535
4.78229
4.77195
4.77015
4.76456
4.75714
4.75594
4.75484
4.75529
4.77131
4.80653
4.77152
4.80337
4.79323
4.80174
4.81983
4.81927
4.81322
4.79764
4.76139
4.73748
4.72831
4.72087
4.71305
4.70447
4.69758
4.698
4.69126
4.68137
4.6703
4.65681
4.63751
4.62354
4.61297
4.6017
4.59112
4.58053
4.57159
4.5755
4.5792
4.56791
4.54262
4.51884
4.51332
4.50646
4.4838
4.50726
4.50226
4.47549
4.46929
4.46795
5.4668
4.85112
4.80262
4.78908
4.78027
4.77208
4.76533
4.76187
4.76027
4.75657
4.74971
4.75851
4.75343
4.75801
4.75507
4.75239
4.75315
4.76987
4.76843
4.76463
4.75918
4.74121
4.71911
4.70651
4.70192
4.69112
4.71606
4.68912
4.67793
4.66968
4.66204
4.65442
4.6465
4.63802
4.62894
4.62032
4.61861
4.63333
4.65222
4.57619
4.55224
4.539
4.52946
4.51961
4.50884
4.49969
4.5031
4.51318
4.50406
4.49232
-11.0729
-11.2051
-11.3466
-11.4914
-11.6397
-11.7914
-11.9469
-12.1048
-12.2644
-12.435
-12.6229
-12.7497
-13.025
-13.1798
-13.339
-13.5192
-13.7078
-13.8977
-14.0908
-14.2982
-14.525
-14.7398
-15.0075
-15.1921
-15.3798
-15.592
-15.8123
-16.0333
-16.2554
-16.4878
-16.7364
-16.9985
-17.248
-17.4902
-17.7278
-17.9464
-18.1698
-18.4094
-18.6511
-18.8929
-19.1359
-19.3796
-19.6232
-19.8665
-20.1102
-20.3531
-20.5953
-20.8394
-21.09
-21.341
-21.5775
-21.809
-22.0361
-22.2642
-22.4691
-22.6749
-22.8835
-23.0882
-23.2884
-23.4833
-23.6728
-23.8556
-24.0305
-24.1973
-24.3557
-24.4988
-24.6235
-24.8157
-24.9338
-25.0527
-25.1422
-25.2232
-25.3035
-25.3786
-25.4524
-25.5265
-25.5722
-25.6012
-25.6168
-25.6198
-25.6117
-25.5927
-25.554
-25.4921
-25.4061
-25.4253
-25.3421
-25.252
-25.1273
-24.9977
-24.8653
-24.7231
-24.5717
-24.4228
-24.2621
-24.0776
-23.8753
-23.6622
-23.4357
-23.1909
-22.9374
-22.6855
-22.4533
-22.2064
-21.9365
-21.6511
-21.3557
-21.0502
-20.7347
-20.4069
-20.0742
-19.7439
-19.4118
-19.0768
-18.734
-18.3764
-18.0244
-17.667
-17.2961
-16.9187
-16.5381
-16.1521
-15.755
-15.3515
-14.9504
-14.5473
-14.1448
-13.7499
-13.3405
-12.9293
-12.5064
-12.0765
-11.662
-11.2533
-10.8336
-10.4155
-10.0065
-9.60647
-9.20153
-8.80043
-8.39981
-8.00433
-7.61946
-7.2406
-6.86889
-6.50896
-6.1592
-5.81572
-5.47825
-5.15364
-4.83375
-4.5282
-4.2371
-3.95948
-3.69823
-3.45168
-3.21352
-2.98979
-2.77267
-2.57626
-2.40423
-2.23427
-2.08125
-1.93288
-1.81396
-1.70324
-1.60376
-1.51588
-1.44035
-1.37659
-1.32299
-1.28135
-1.24861
-1.22478
-1.20824
-1.20036
-1.19961
-1.20488
-1.21548
-1.23091
-1.25075
-1.27441
-1.30133
-1.33115
-1.36349
-1.39779
-1.43384
-1.47143
-1.51014
-1.54978
-1.59016
-1.63117
-1.67262
-1.71444
-1.75655
-1.79892
-1.84151
-1.88429
-1.92724
-1.97036
-2.01363
-2.05706
-2.10064
-2.14436
-2.18823
-2.23224
-2.27637
-2.32061
-2.36496
-2.40938
-2.45388
-2.49844
-2.54304
-2.58767
-2.63231
-2.67696
-2.7216
-2.76621
-2.81072
-2.8553
-2.89977
-2.94416
-2.98846
-3.03267
-3.07672
-3.12066
-3.16458
-3.20825
-3.25176
-3.29511
-3.33819
-3.38115
-3.42392
-3.46641
-3.50869
-3.55069
-3.59237
-3.63386
-3.67507
-3.71596
-3.75657
-3.79688
-3.8369
-3.87661
-3.91587
-3.95493
-3.9942
-4.0328
-4.07113
-4.10924
-4.1471
-4.18448
-4.22192
-4.25962
-4.29681
-4.33389
-4.37088
-4.40784
-4.44451
-4.48081
-4.51843
-4.55591
-4.59312
-4.63052
-4.66806
-4.70586
-4.744
-4.78259
-4.82185
-4.86125
-4.89913
-4.94346
-4.98363
-5.02575
-5.06735
-5.10969
-5.15339
-5.19658
-5.24023
-5.28391
-5.32732
-5.37096
-5.41531
-5.45825
-5.49909
-5.54625
-5.5876
-5.62912
-5.6696
-5.70769
-5.7421
-5.77214
-5.79738
-5.81745
-5.83202
-5.84146
-5.84627
-5.84501
-5.83614
-5.82425
-6.71494
-6.80598
-6.89618
-6.99509
-7.10012
-7.20655
-7.31561
-7.43017
-7.53713
-7.65309
-7.74704
-7.89308
-8.02942
-8.1649
-8.30944
-8.42414
-8.54007
-8.67013
-8.80551
-8.94064
-9.0796
-9.23062
-9.39365
-9.56809
-9.75476
-9.8787
-10.012
-10.1645
-10.3197
-10.4756
-10.6327
-10.7936
-10.9513
-11.1173
-11.2931
-11.4839
-11.6747
-11.8644
-12.0165
-12.1579
-12.3193
-12.4903
-12.6618
-12.8334
-13.0047
-13.1744
-13.3486
-13.5314
-13.7238
-13.9062
-14.0792
-14.2495
-14.4007
-14.552
-14.7146
-14.8766
-15.0355
-15.1921
-15.3465
-15.4984
-15.647
-15.792
-15.9332
-16.0696
-16.2006
-16.3269
-16.4482
-16.5763
-16.6927
-16.7976
-16.896
-16.9966
-17.0817
-17.1551
-17.2274
-17.2946
-17.3536
-17.4047
-17.4481
-17.4835
-17.5106
-17.529
-17.5375
-17.533
-17.5217
-17.5041
-17.4945
-17.4478
-17.4005
-17.3474
-17.2858
-17.2226
-17.1547
-17.0697
-16.9723
-16.8538
-16.7223
-16.5907
-16.4539
-16.3141
-16.1778
-16.0263
-15.8603
-15.6839
-15.499
-15.3061
-15.1006
-14.8776
-14.6505
-14.424
-14.1913
-13.9517
-13.7156
-13.4793
-13.227
-12.9633
-12.6947
-12.421
-12.1415
-11.8501
-11.5481
-11.2476
-10.9505
-10.6494
-10.3442
-10.0425
-9.74828
-9.44555
-9.13397
-8.82167
-8.50166
-8.18235
-7.88154
-7.5669
-7.25745
-6.94389
-6.64067
-6.34044
-6.03177
-5.73499
-5.44501
-5.16068
-4.88828
-4.62784
-4.3678
-4.11291
-3.86613
-3.62741
-3.39804
-3.17244
-2.95116
-2.74334
-2.55794
-2.38724
-2.22255
-2.06396
-1.91627
-1.7753
-1.64308
-1.54235
-1.44119
-1.34742
-1.26383
-1.18642
-1.12188
-1.07018
-1.02525
-0.987831
-0.958325
-0.935696
-0.919861
-0.912528
-0.909914
-0.912902
-0.920587
-0.933321
-0.950375
-0.970883
-0.995132
-1.0221
-1.05221
-1.08473
-1.11932
-1.15567
-1.19373
-1.23314
-1.2738
-1.31575
-1.35849
-1.40199
-1.44614
-1.49087
-1.53612
-1.58177
-1.62774
-1.67398
-1.72042
-1.76704
-1.81379
-1.86067
-1.90766
-1.95476
-2.00195
-2.04924
-2.0966
-2.14404
-2.19153
-2.23907
-2.28664
-2.33423
-2.38182
-2.4294
-2.47695
-2.52447
-2.57194
-2.61936
-2.6667
-2.71395
-2.7611
-2.80789
-2.85495
-2.90182
-2.94844
-2.99495
-3.04127
-3.08732
-3.13328
-3.17917
-3.22468
-3.26997
-3.31503
-3.35978
-3.40433
-3.44856
-3.4925
-3.53615
-3.57949
-3.62251
-3.66521
-3.70758
-3.74962
-3.7914
-3.83284
-3.87406
-3.91503
-3.9554
-3.99587
-4.03703
-4.07711
-4.11691
-4.15666
-4.19645
-4.23592
-4.27568
-4.31557
-4.35557
-4.3957
-4.43571
-4.47648
-4.5174
-4.55859
-4.59884
-4.64152
-4.68543
-4.72923
-4.7734
-4.81883
-4.86532
-4.91294
-4.96198
-5.01135
-5.06178
-5.11571
-5.17055
-5.22545
-5.28212
-5.34048
-5.40089
-5.46023
-5.51373
-5.58474
-5.64229
-5.70273
-5.76435
-5.82417
-5.88307
-5.94155
-5.9947
-6.05651
-6.10644
-6.15416
-6.19601
-6.22228
-6.2341
-6.22856
-6.20465
-6.16363
-6.10298
-6.02152
-5.91745
-3.41757
-3.48858
-3.56085
-3.63219
-3.69937
-3.7648
-3.85449
-3.92047
-3.99943
-4.0736
-4.14701
-4.22402
-4.30489
-4.38911
-4.47826
-4.55932
-4.64553
-4.72714
-4.8059
-4.89041
-4.98033
-5.06987
-5.16267
-5.26358
-5.32071
-5.49268
-5.5657
-5.66001
-5.7605
-5.86327
-5.96748
-6.06336
-6.15988
-6.26048
-6.36206
-6.4651
-6.57538
-6.69465
-6.79578
-6.89698
-6.99145
-7.05548
-7.16116
-7.25213
-7.36218
-7.4647
-7.56365
-7.66755
-7.77528
-7.88256
-7.99067
-8.10111
-8.21392
-8.32307
-8.42313
-8.52035
-8.61497
-8.70923
-8.79272
-8.88086
-8.97238
-9.06135
-9.14746
-9.23115
-9.31248
-9.39158
-9.46945
-9.54796
-9.62621
-9.6998
-9.76783
-9.8379
-9.89698
-9.9526
-10.0037
-10.0411
-10.0822
-10.1202
-10.1526
-10.1805
-10.2045
-10.2238
-10.2383
-10.2477
-10.2515
-10.2492
-10.2399
-10.2283
-10.2124
-10.1891
-10.1529
-10.1038
-10.0652
-10.0264
-9.97321
-9.9488
-9.87199
-9.79661
-9.71753
-9.64026
-9.56462
-9.47344
-9.37169
-9.26264
-9.14838
-9.02933
-8.90543
-8.77576
-8.63574
-8.48192
-8.32478
-8.18107
-8.0442
-7.8962
-7.73622
-7.56978
-7.40086
-7.22511
-7.03548
-6.84142
-6.65321
-6.46533
-6.27448
-6.09062
-5.91374
-5.72822
-5.53696
-5.34403
-5.15045
-4.9569
-4.76371
-4.57178
-4.38076
-4.19091
-4.00272
-3.81941
-3.6374
-3.44866
-3.25822
-3.07988
-2.90995
-2.75293
-2.61165
-2.468
-2.32226
-2.18122
-2.04642
-1.91811
-1.79617
-1.6776
-1.56053
-1.44641
-1.36792
-1.28428
-1.20304
-1.12719
-1.05522
-0.988081
-0.941756
-0.895748
-0.85379
-0.817578
-0.786883
-0.761135
-0.740368
-0.728895
-0.720477
-0.716214
-0.716357
-0.719754
-0.728625
-0.740617
-0.755786
-0.774169
-0.795118
-0.819083
-0.845648
-0.874436
-0.905136
-0.938046
-0.972747
-1.00885
-1.04648
-1.08537
-1.12535
-1.16661
-1.20874
-1.25171
-1.2954
-1.33975
-1.38467
-1.43007
-1.47588
-1.52204
-1.56849
-1.61518
-1.6621
-1.70922
-1.75654
-1.80403
-1.8517
-1.89949
-1.94749
-1.99561
-2.04386
-2.0922
-2.14054
-2.18909
-2.23771
-2.2863
-2.33496
-2.38357
-2.43224
-2.4809
-2.52952
-2.5781
-2.62662
-2.67507
-2.72343
-2.77162
-2.81976
-2.86784
-2.9158
-2.96355
-3.01117
-3.05862
-3.10584
-3.15251
-3.1996
-3.24628
-3.29258
-3.33866
-3.38429
-3.42984
-3.47507
-3.52009
-3.56399
-3.60893
-3.65313
-3.69688
-3.74035
-3.78355
-3.82645
-3.86844
-3.91167
-3.95402
-3.99636
-4.038
-4.07982
-4.12254
-4.16474
-4.20666
-4.24937
-4.29098
-4.334
-4.37856
-4.42292
-4.4668
-4.51182
-4.55742
-4.6037
-4.65105
-4.69924
-4.74743
-4.80052
-4.85135
-4.90584
-4.96004
-5.0186
-5.0781
-5.14062
-5.20542
-5.27144
-5.3398
-5.41263
-5.48451
-5.55952
-5.63661
-5.71553
-5.79422
-5.8777
-5.96258
-6.04927
-6.13448
-6.22284
-6.30704
-6.39262
-6.47425
-6.5537
-6.63023
-6.69159
-6.73993
-6.77514
-6.79418
-6.79564
-6.77725
-6.72723
-6.64718
-6.54477
-6.40896
-1.28394
-1.32824
-1.37516
-1.42579
-1.47589
-1.52272
-1.57198
-1.6209
-1.66408
-1.71463
-1.76737
-1.82171
-1.87532
-1.93649
-1.98604
-2.03735
-2.09114
-2.14519
-2.19944
-2.25448
-2.31036
-2.36654
-2.42191
-2.47539
-2.53405
-2.59315
-2.65369
-2.71695
-2.7699
-2.82395
-2.88578
-2.93555
-2.99469
-3.05088
-3.10634
-3.16371
-3.22137
-3.27875
-3.34033
-3.36731
-3.43158
-3.48643
-3.5329
-3.5896
-3.64842
-3.70713
-3.76786
-3.83086
-3.88222
-3.93223
-3.98552
-4.03887
-4.0923
-4.14883
-4.20584
-4.22831
-4.34789
-4.38721
-4.43636
-4.48677
-4.53615
-4.58126
-4.62517
-4.66706
-4.70541
-4.74373
-4.78378
-4.82324
-4.86137
-4.8969
-4.9128
-4.97861
-5.00683
-5.04269
-5.07724
-5.10166
-5.12472
-5.14155
-5.15775
-5.17239
-5.18105
-5.19214
-5.19993
-5.19247
-5.19528
-5.19854
-5.197
-5.19286
-5.18613
-5.17656
-5.16454
-5.14907
-5.11156
-5.09043
-5.06871
-5.03962
-5.01134
-4.98049
-4.94297
-4.89674
-4.84763
-4.79527
-4.73793
-4.6819
-4.6297
-4.57113
-4.50713
-4.43906
-4.36882
-4.29682
-4.22109
-4.12648
-4.04735
-3.97224
-3.89066
-3.80348
-3.71419
-3.62319
-3.52995
-3.43571
-3.33888
-3.23297
-3.11709
-3.0144
-2.92753
-2.84544
-2.75394
-2.65617
-2.5583
-2.46148
-2.36541
-2.27011
-2.17573
-2.08246
-1.99054
-1.90022
-1.81168
-1.72477
-1.63955
-1.55431
-1.46481
-1.37622
-1.33279
-1.27357
-1.21015
-1.14772
-1.08858
-1.03284
-0.980559
-0.931528
-0.885276
-0.842291
-0.806117
-0.772376
-0.742012
-0.714243
-0.688672
-0.666121
-0.656372
-0.644519
-0.634845
-0.628353
-0.624924
-0.624312
-0.626526
-0.632332
-0.640483
-0.651286
-0.664369
-0.679985
-0.69795
-0.717908
-0.739972
-0.76379
-0.789365
-0.817222
-0.846471
-0.877165
-0.909295
-0.942738
-0.977537
-1.01344
-1.05047
-1.08843
-1.12739
-1.16713
-1.20761
-1.24878
-1.29055
-1.33288
-1.37571
-1.41899
-1.46266
-1.50677
-1.55122
-1.59602
-1.64117
-1.68664
-1.73244
-1.77854
-1.82492
-1.87147
-1.91843
-1.96555
-2.01291
-2.06046
-2.10811
-2.156
-2.20414
-2.25232
-2.30059
-2.34897
-2.39737
-2.44574
-2.49406
-2.54311
-2.5918
-2.64039
-2.68898
-2.73754
-2.78604
-2.83448
-2.8829
-2.93115
-2.97902
-3.02716
-3.0748
-3.12277
-3.16957
-3.21788
-3.2649
-3.31189
-3.35855
-3.40423
-3.45079
-3.49688
-3.54221
-3.58765
-3.63387
-3.67894
-3.7235
-3.76792
-3.81218
-3.8557
-3.8997
-3.94466
-3.98874
-4.03267
-4.0768
-4.12027
-4.16345
-4.2079
-4.25378
-4.29985
-4.34591
-4.39228
-4.43931
-4.48713
-4.53393
-4.57992
-4.63059
-4.68503
-4.73778
-4.79212
-4.84491
-4.90113
-4.95948
-5.02104
-5.0855
-5.15083
-5.21693
-5.28645
-5.35812
-5.42995
-5.49975
-5.57538
-5.65374
-5.73888
-5.82332
-5.90739
-5.99086
-6.07324
-6.15368
-6.2302
-6.29927
-6.36891
-6.43662
-6.49727
-6.55191
-6.60512
-6.65617
-6.69464
-6.71562
-6.71957
-6.705
-6.66341
-6.59977
-6.51714
-6.41802
-6.27394
-0.0343238
-0.0690731
-0.103036
-0.136452
-0.170812
-0.206111
-0.241596
-0.272722
-0.307515
-0.341774
-0.375666
-0.410242
-0.445582
-0.481152
-0.516682
-0.551595
-0.58628
-0.620627
-0.654294
-0.688367
-0.72383
-0.758883
-0.789939
-0.824572
-0.858668
-0.890724
-0.926569
-0.961592
-0.993907
-1.02784
-1.06117
-1.09292
-1.12592
-1.16295
-1.19653
-1.22964
-1.2667
-1.29852
-1.33
-1.36275
-1.39644
-1.42944
-1.46209
-1.49381
-1.52461
-1.55595
-1.58579
-1.61672
-1.64931
-1.67991
-1.71075
-1.74114
-1.77101
-1.8
-1.82913
-1.85711
-1.88573
-1.91345
-1.94104
-1.96867
-1.99619
-2.00412
-2.05848
-2.07726
-2.10451
-2.12748
-2.15068
-2.17244
-2.19355
-2.21442
-2.2353
-2.25432
-2.27268
-2.28987
-2.30667
-2.3242
-2.34195
-2.35605
-2.35494
-2.40086
-2.4097
-2.4286
-2.43504
-2.44095
-2.44699
-2.45329
-2.45392
-2.45506
-2.45388
-2.45138
-2.44848
-2.44397
-2.43896
-2.43431
-2.42648
-2.41598
-2.40439
-2.3918
-2.37808
-2.36329
-2.34731
-2.33011
-2.31097
-2.28884
-2.26357
-2.23655
-2.20711
-2.17707
-2.14751
-2.11885
-2.08716
-2.05443
-2.01874
-1.9801
-1.9436
-1.90699
-1.86795
-1.82726
-1.78601
-1.74469
-1.7033
-1.66175
-1.62004
-1.57715
-1.53187
-1.4869
-1.44366
-1.40574
-1.3681
-1.32787
-1.28646
-1.2454
-1.20485
-1.16485
-1.12551
-1.08693
-1.04927
-1.01273
-0.977717
-0.944425
-0.912171
-0.880366
-0.84799
-0.825618
-0.802425
-0.779712
-0.757835
-0.737459
-0.718778
-0.701877
-0.686818
-0.673581
-0.662125
-0.652425
-0.644582
-0.638571
-0.634761
-0.633285
-0.633769
-0.6358
-0.639448
-0.644873
-0.65205
-0.660935
-0.671503
-0.683707
-0.697483
-0.712758
-0.73002
-0.748564
-0.768477
-0.789822
-0.812461
-0.836192
-0.861711
-0.888314
-0.915999
-0.944803
-0.97467
-1.00549
-1.03738
-1.07013
-1.10371
-1.1381
-1.17323
-1.20908
-1.24559
-1.28274
-1.32049
-1.35882
-1.39771
-1.43713
-1.47708
-1.5176
-1.55859
-1.60007
-1.64202
-1.68442
-1.72724
-1.7704
-1.81418
-1.85827
-1.90272
-1.94749
-1.99262
-2.03804
-2.08374
-2.12967
-2.17592
-2.22255
-2.26932
-2.31623
-2.36338
-2.41059
-2.45769
-2.50483
-2.55338
-2.60159
-2.64943
-2.69749
-2.74547
-2.79266
-2.84141
-2.88981
-2.93794
-2.98603
-3.0341
-3.08187
-3.12913
-3.17672
-3.22599
-3.27347
-3.32078
-3.36814
-3.414
-3.46095
-3.50707
-3.55391
-3.59963
-3.64362
-3.69214
-3.73844
-3.78383
-3.82928
-3.87471
-3.91992
-3.96393
-4.0089
-4.0563
-4.10079
-4.14691
-4.18953
-4.2372
-4.28602
-4.33363
-4.38154
-4.4299