/*--------------------------------*- C++ -*----------------------------------*\
| =========                 |                                                 |
| \\      /  F ield         | OpenFOAM: The Open Source CFD Toolbox           |
|  \\    /   O peration     | Version:  2.4.0                                 |
|   \\  /    A nd           | Web:      www.OpenFOAM.org                      |
|    \\/     M anipulation  |                                                 |
\*---------------------------------------------------------------------------*/
FoamFile
{
    version     2.0;
    format      ascii;
    class       surfaceScalarField;
    location    "3.9";
    object      phi;
}
// * * * * * * * * * * * * * * * * * * * * * * * * * * * * * * * * * * * * * //

dimensions      [0 3 -1 0 0 0 0];

internalField   nonuniform List<scalar> 
15580
(
1.03123e-13
-4.63541e-12
4.18186e-13
-1.37409e-11
9.38923e-13
-2.26716e-11
1.65287e-12
-3.14263e-11
2.54842e-12
-4.00067e-11
3.6154e-12
-4.84129e-11
4.84492e-12
-5.66452e-11
6.22959e-12
-6.47035e-11
7.76331e-12
-7.25878e-11
9.44115e-12
-8.02988e-11
1.12592e-11
-8.78374e-11
1.32144e-11
-9.52045e-11
1.53048e-11
-1.02401e-10
1.75287e-11
-1.0943e-10
1.98856e-11
-1.16291e-10
2.23753e-11
-1.22986e-10
2.49982e-11
-1.29519e-10
2.77551e-11
-1.35889e-10
3.06473e-11
-1.42101e-10
3.36763e-11
-1.48155e-10
3.68441e-11
-1.54054e-10
4.01525e-11
-1.59802e-10
4.36038e-11
-1.65399e-10
4.72005e-11
-1.70848e-10
5.09447e-11
-1.76153e-10
5.4839e-11
-1.81315e-10
5.88857e-11
-1.86337e-10
6.30871e-11
-1.91222e-10
6.74455e-11
-1.95972e-10
7.19629e-11
-2.00589e-10
7.66411e-11
-2.05076e-10
8.1482e-11
-2.09435e-10
8.64869e-11
-2.13668e-10
9.16593e-11
-2.17777e-10
9.70002e-11
-2.21764e-10
1.0251e-10
-2.25631e-10
1.08188e-10
-2.2938e-10
1.14035e-10
-2.33012e-10
1.20049e-10
-2.36528e-10
1.26232e-10
-2.39928e-10
1.32582e-10
-2.43214e-10
1.39098e-10
-2.46386e-10
1.45781e-10
-2.49442e-10
1.52629e-10
-2.52383e-10
1.59643e-10
-2.55207e-10
1.66827e-10
-2.57917e-10
1.74187e-10
-2.60515e-10
1.81717e-10
-2.62982e-10
1.89304e-10
-2.65212e-10
-2.67272e-10
1.96905e-10
4.45786e-14
-4.67999e-12
1.44528e-13
-1.38408e-11
2.85154e-13
-2.28123e-11
4.60368e-13
-3.16015e-11
6.64151e-13
-4.02104e-11
8.91016e-13
-4.86398e-11
1.13603e-12
-5.68902e-11
1.39492e-12
-6.49623e-11
1.664e-12
-7.28569e-11
1.9401e-12
-8.05749e-11
2.22044e-12
-8.81177e-11
2.50265e-12
-9.54867e-11
2.78465e-12
-1.02683e-10
3.06468e-12
-1.0971e-10
3.34119e-12
-1.16567e-10
3.61283e-12
-1.23258e-10
3.87842e-12
-1.29784e-10
4.13688e-12
-1.36148e-10
4.38725e-12
-1.42351e-10
4.62856e-12
-1.48396e-10
4.85989e-12
-1.54286e-10
5.0803e-12
-1.60022e-10
5.28881e-12
-1.65607e-10
5.48436e-12
-1.71044e-10
5.66584e-12
-1.76334e-10
5.83201e-12
-1.81481e-10
5.98155e-12
-1.86487e-10
6.11306e-12
-1.91354e-10
6.225e-12
-1.96084e-10
6.31579e-12
-2.0068e-10
6.38381e-12
-2.05144e-10
6.42743e-12
-2.09479e-10
6.44535e-12
-2.13686e-10
6.43612e-12
-2.17768e-10
6.39857e-12
-2.21727e-10
6.33155e-12
-2.25564e-10
6.2342e-12
-2.29283e-10
6.10613e-12
-2.32884e-10
5.94771e-12
-2.36369e-10
5.75989e-12
-2.3974e-10
5.54471e-12
-2.42999e-10
5.30492e-12
-2.46146e-10
5.04677e-12
-2.49184e-10
4.78491e-12
-2.52121e-10
4.54616e-12
-2.54969e-10
4.25131e-12
-2.57622e-10
3.78985e-12
-2.60053e-10
2.67142e-12
-2.62359e-10
-2.6895e-12
-2.64709e-10
-2.66242e-10
-6.84073e-12
-7.67956e-14
-4.60319e-12
-2.76096e-13
-1.36415e-11
-5.89317e-13
-2.2499e-11
-1.01926e-12
-3.11716e-11
-1.56878e-12
-3.96609e-11
-2.24051e-12
-4.79681e-11
-3.03683e-12
-5.60939e-11
-3.9598e-12
-6.40394e-11
-5.01123e-12
-7.18055e-11
-6.19272e-12
-7.93934e-11
-7.5057e-12
-8.68047e-11
-8.95148e-12
-9.40409e-11
-1.05313e-11
-1.01104e-10
-1.22463e-11
-1.07995e-10
-1.40977e-11
-1.14716e-10
-1.60868e-11
-1.21269e-10
-1.82146e-11
-1.27656e-10
-2.04827e-11
-1.3388e-10
-2.28926e-11
-1.39941e-10
-2.54458e-11
-1.45843e-10
-2.81444e-11
-1.51587e-10
-3.09904e-11
-1.57176e-10
-3.39863e-11
-1.62611e-10
-3.71346e-11
-1.67896e-10
-4.04382e-11
-1.73031e-10
-4.39006e-11
-1.78019e-10
-4.7525e-11
-1.82862e-10
-5.13154e-11
-1.87563e-10
-5.52758e-11
-1.92124e-10
-5.94104e-11
-1.96545e-10
-6.37234e-11
-2.00831e-10
-6.82194e-11
-2.04983e-10
-7.29026e-11
-2.09003e-10
-7.77772e-11
-2.12893e-10
-8.28469e-11
-2.16657e-10
-8.81151e-11
-2.20296e-10
-9.35843e-11
-2.23814e-10
-9.92567e-11
-2.27211e-10
-1.05133e-10
-2.30493e-10
-1.11211e-10
-2.33662e-10
-1.17485e-10
-2.36726e-10
-1.23939e-10
-2.39691e-10
-1.30553e-10
-2.4257e-10
-1.37608e-10
-2.45065e-10
-1.4517e-10
-2.47407e-10
-1.54113e-10
-2.49738e-10
-1.73995e-10
-2.51604e-10
-1.8775e-10
-2.52796e-10
-1.97829e-10
-2.54653e-10
-2.58497e-10
-2.05574e-10
-9.28509e-14
-4.51034e-12
-4.14669e-13
-1.33197e-11
-9.81293e-13
-2.19324e-11
-1.79556e-12
-3.03573e-11
-2.86023e-12
-3.85963e-11
-4.17774e-12
-4.66506e-11
-5.75013e-12
-5.45215e-11
-7.5791e-12
-6.22104e-11
-9.66599e-12
-6.97186e-11
-1.20119e-11
-7.70475e-11
-1.46177e-11
-8.41989e-11
-1.74843e-11
-9.11744e-11
-2.06122e-11
-9.79757e-11
-2.40023e-11
-1.04605e-10
-2.76551e-11
-1.11063e-10
-3.15714e-11
-1.17353e-10
-3.57522e-11
-1.23475e-10
-4.01985e-11
-1.29433e-10
-4.49117e-11
-1.35228e-10
-4.98933e-11
-1.40861e-10
-5.51451e-11
-1.46335e-10
-6.06695e-11
-1.51652e-10
-6.64689e-11
-1.56812e-10
-7.25462e-11
-1.61818e-10
-7.89047e-11
-1.66672e-10
-8.5548e-11
-1.71376e-10
-9.24801e-11
-1.7593e-10
-9.97052e-11
-1.80338e-10
-1.07228e-10
-1.84601e-10
-1.15052e-10
-1.88721e-10
-1.23184e-10
-1.927e-10
-1.31627e-10
-1.9654e-10
-1.40386e-10
-2.00244e-10
-1.49466e-10
-2.03814e-10
-1.5887e-10
-2.07253e-10
-1.68603e-10
-2.10564e-10
-1.78667e-10
-2.13749e-10
-1.89063e-10
-2.16815e-10
-1.9978e-10
-2.19776e-10
-2.10787e-10
-2.22655e-10
-2.22085e-10
-2.25428e-10
-2.34123e-10
-2.27653e-10
-2.4695e-10
-2.29743e-10
-2.63723e-10
-2.32045e-10
-3.07932e-10
-2.32464e-10
-3.28155e-10
-2.33229e-10
-3.44763e-10
-2.35024e-10
-3.61645e-10
-2.35914e-10
-3.47393e-10
-2.68905e-10
-3.73426e-10
-2.32464e-10
-2.05693e-13
-4.30465e-12
-7.83695e-13
-1.27417e-11
-1.72533e-12
-2.09908e-11
-3.0363e-12
-2.90464e-11
-4.72128e-12
-3.69113e-11
-6.78395e-12
-4.45879e-11
-9.22704e-12
-5.20784e-11
-1.20524e-11
-5.9385e-11
-1.52612e-11
-6.65098e-11
-1.88538e-11
-7.34549e-11
-2.28305e-11
-8.02223e-11
-2.71908e-11
-8.68141e-11
-3.19342e-11
-9.32323e-11
-3.70601e-11
-9.94787e-11
-4.25678e-11
-1.05555e-10
-4.84568e-11
-1.11464e-10
-5.4727e-11
-1.17205e-10
-6.13783e-11
-1.22782e-10
-6.84113e-11
-1.28195e-10
-7.58273e-11
-1.33445e-10
-8.36282e-11
-1.38534e-10
-9.18166e-11
-1.43463e-10
-1.00397e-10
-1.48232e-10
-1.09373e-10
-1.52842e-10
-1.18751e-10
-1.57294e-10
-1.2854e-10
-1.61587e-10
-1.38748e-10
-1.65722e-10
-1.49386e-10
-1.697e-10
-1.60468e-10
-1.7352e-10
-1.72007e-10
-1.77181e-10
-1.84023e-10
-1.80684e-10
-1.96534e-10
-1.84028e-10
-2.09565e-10
-1.87212e-10
-2.23142e-10
-1.90237e-10
-2.37295e-10
-1.931e-10
-2.52047e-10
-1.95811e-10
-2.6742e-10
-1.98376e-10
-2.83413e-10
-2.00823e-10
-3.00454e-10
-2.02736e-10
-3.18666e-10
-2.04444e-10
-3.3937e-10
-2.05832e-10
-3.7043e-10
-2.08619e-10
-4.08724e-10
-2.0791e-10
-4.33636e-10
-2.07241e-10
-4.70085e-10
-1.96037e-10
-5.12617e-10
-1.90697e-10
-3.85768e-10
-3.61874e-10
-9.88345e-11
-5.22847e-10
4.65764e-10
-8.33503e-10
-1.45094e-09
1.54328e-09
-2.34931e-13
-4.06972e-12
-1.00271e-12
-1.19739e-11
-2.32502e-12
-1.96685e-11
-4.20295e-12
-2.71684e-11
-6.63617e-12
-3.4478e-11
-9.62307e-12
-4.1601e-11
-1.31609e-11
-4.85406e-11
-1.72458e-11
-5.53001e-11
-2.18732e-11
-6.18823e-11
-2.70381e-11
-6.829e-11
-3.27347e-11
-7.45256e-11
-3.89573e-11
-8.05915e-11
-4.57e-11
-8.64896e-11
-5.29569e-11
-9.22218e-11
-6.07226e-11
-9.77896e-11
-6.89919e-11
-1.03194e-10
-7.77604e-11
-1.08437e-10
-8.70245e-11
-1.13518e-10
-9.67817e-11
-1.18438e-10
-1.07031e-10
-1.23196e-10
-1.17772e-10
-1.27793e-10
-1.29007e-10
-1.32228e-10
-1.40741e-10
-1.36498e-10
-1.5298e-10
-1.40603e-10
-1.65734e-10
-1.4454e-10
-1.79016e-10
-1.48305e-10
-1.92842e-10
-1.51897e-10
-2.07232e-10
-1.55309e-10
-2.22213e-10
-1.58539e-10
-2.37814e-10
-1.61579e-10
-2.54074e-10
-1.64425e-10
-2.71035e-10
-1.67067e-10
-2.88746e-10
-1.69501e-10
-3.07248e-10
-1.71735e-10
-3.26558e-10
-1.7379e-10
-3.46885e-10
-1.75484e-10
-3.68544e-10
-1.76716e-10
-3.92292e-10
-1.77508e-10
-4.21104e-10
-1.79192e-10
-4.93338e-10
-1.78542e-10
-5.33763e-10
-1.76768e-10
-5.86955e-10
-1.55533e-10
-6.76572e-10
-1.18293e-10
-5.46223e-10
-3.3759e-10
-2.83824e-10
-4.58436e-10
2.9644e-10
-7.7096e-10
1.34779e-09
-1.41322e-09
3.13102e-09
-2.30607e-09
5.51431e-09
-3.21679e-09
-4.16796e-09
8.23133e-09
-4.62784e-13
-3.60693e-12
-1.77513e-12
-1.06616e-11
-3.90085e-12
-1.75427e-11
-6.82307e-12
-2.42462e-11
-1.05248e-11
-3.07763e-11
-1.4989e-11
-3.71368e-11
-2.01986e-11
-4.3331e-11
-2.61366e-11
-4.93621e-11
-3.27862e-11
-5.52328e-11
-4.01306e-11
-6.09457e-11
-4.8153e-11
-6.65032e-11
-5.68369e-11
-7.19075e-11
-6.61663e-11
-7.71603e-11
-7.61249e-11
-8.22631e-11
-8.66972e-11
-8.72173e-11
-9.78677e-11
-9.20238e-11
-1.09621e-10
-9.66831e-11
-1.21944e-10
-1.01195e-10
-1.34821e-10
-1.05561e-10
-1.4824e-10
-1.09778e-10
-1.62187e-10
-1.13846e-10
-1.76652e-10
-1.17763e-10
-1.91624e-10
-1.21526e-10
-2.07094e-10
-1.25133e-10
-2.23053e-10
-1.2858e-10
-2.39498e-10
-1.31861e-10
-2.56424e-10
-1.34971e-10
-2.7383e-10
-1.37903e-10
-2.91721e-10
-1.40649e-10
-3.10102e-10
-1.43198e-10
-3.28981e-10
-1.45547e-10
-3.48347e-10
-1.477e-10
-3.68171e-10
-1.49677e-10
-3.88957e-10
-1.5095e-10
-4.10938e-10
-1.51809e-10
-4.3542e-10
-1.52567e-10
-4.80584e-10
-1.53511e-10
-5.29991e-10
-1.51617e-10
-5.72537e-10
-1.36868e-10
-7.11109e-10
-4.00305e-11
-6.15025e-10
-2.72853e-10
-4.64019e-10
-3.06539e-10
2.11544e-11
-6.03466e-10
9.55555e-10
-1.27199e-09
2.55898e-09
-2.06185e-09
4.57924e-09
-2.79122e-09
6.73979e-09
-3.57377e-09
8.74416e-09
-4.31044e-09
1.03894e-08
-4.86208e-09
-5.20136e-09
1.14228e-08
-4.99794e-13
-3.10714e-12
-2.02077e-12
-9.14061e-12
-4.54517e-12
-1.50183e-11
-8.03732e-12
-2.07541e-11
-1.24635e-11
-2.63501e-11
-1.77916e-11
-3.18087e-11
-2.39906e-11
-3.7132e-11
-3.10306e-11
-4.23221e-11
-3.88822e-11
-4.73811e-11
-4.75168e-11
-5.23111e-11
-5.69058e-11
-5.71142e-11
-6.70209e-11
-6.17924e-11
-7.78335e-11
-6.63477e-11
-8.93146e-11
-7.07821e-11
-1.01434e-10
-7.50976e-11
-1.14162e-10
-7.9296e-11
-1.27466e-10
-8.33793e-11
-1.41312e-10
-8.73491e-11
-1.55666e-10
-9.12072e-11
-1.70488e-10
-9.49551e-11
-1.8574e-10
-9.85943e-11
-2.01377e-10
-1.02126e-10
-2.17352e-10
-1.05551e-10
-2.33614e-10
-1.08871e-10
-2.50107e-10
-1.12086e-10
-2.66771e-10
-1.15197e-10
-2.83539e-10
-1.18203e-10
-3.0034e-10
-1.21102e-10
-3.17086e-10
-1.23902e-10
-3.33673e-10
-1.26611e-10
-3.49976e-10
-1.29243e-10
-3.66616e-10
-1.3106e-10
-3.83687e-10
-1.32607e-10
-4.04274e-10
-1.34987e-10
-4.92933e-10
-1.34542e-10
-5.25917e-10
-1.2957e-10
-6.41356e-10
-3.82098e-11
-5.87968e-10
-2.05005e-10
-5.06618e-10
-2.18218e-10
-2.77204e-10
-2.69444e-10
1.5559e-10
-7.05645e-10
1.13676e-09
-1.2877e-09
2.42761e-09
-1.89433e-09
3.68467e-09
-2.52904e-09
4.66392e-09
-3.04111e-09
5.24802e-09
-3.37531e-09
5.28289e-09
-3.60864e-09
4.74215e-09
-3.76971e-09
3.69693e-09
-3.81685e-09
-3.79452e-09
2.2901e-09
-5.88967e-13
-2.51817e-12
-2.23957e-12
-7.49e-12
-4.88896e-12
-1.23689e-11
-8.50133e-12
-1.71417e-11
-1.30426e-11
-2.18089e-11
-1.84799e-11
-2.63714e-11
-2.47817e-11
-3.08303e-11
-3.19168e-11
-3.51869e-11
-3.98548e-11
-3.94431e-11
-4.85651e-11
-4.36009e-11
-5.80169e-11
-4.76624e-11
-6.81787e-11
-5.16306e-11
-7.9018e-11
-5.55083e-11
-9.05012e-11
-5.9299e-11
-1.02592e-10
-6.30064e-11
-1.15254e-10
-6.66348e-11
-1.28444e-10
-7.01888e-11
-1.42119e-10
-7.36736e-11
-1.56232e-10
-7.70948e-11
-1.70728e-10
-8.04587e-11
-1.8555e-10
-8.37723e-11
-2.00633e-10
-8.70428e-11
-2.15906e-10
-9.0279e-11
-2.31288e-10
-9.34894e-11
-2.46689e-10
-9.66848e-11
-2.62011e-10
-9.98753e-11
-2.77136e-10
-1.03078e-10
-2.91931e-10
-1.06307e-10
-3.06261e-10
-1.09573e-10
-3.20419e-10
-1.12452e-10
-3.34382e-10
-1.15281e-10
-3.52192e-10
-1.19915e-10
-4.66356e-10
-1.19862e-10
-4.91764e-10
-1.13283e-10
-6.07624e-10
-1.87325e-11
-5.804e-10
-1.56794e-10
-4.82116e-10
-1.36494e-10
-5.19858e-10
-1.67263e-10
-3.20795e-10
-4.17276e-10
3.30051e-11
-6.23245e-10
3.88796e-10
-1.06144e-09
5.31779e-10
-1.43068e-09
2.84687e-10
-1.64723e-09
-5.23804e-10
-1.72055e-09
-1.81191e-09
-1.753e-09
-3.35767e-09
-1.82955e-09
-5.00152e-09
-1.96479e-09
-6.65468e-09
-2.11655e-09
-8.24317e-09
-2.22837e-09
-2.30602e-09
-9.73167e-09
-4.55266e-13
-2.0629e-12
-1.87548e-12
-6.06979e-12
-4.2588e-12
-9.98563e-12
-7.57735e-12
-1.38231e-11
-1.18054e-11
-1.75809e-11
-1.69188e-11
-2.12579e-11
-2.28953e-11
-2.48539e-11
-2.97134e-11
-2.83688e-11
-3.73532e-11
-3.18033e-11
-4.57954e-11
-3.51586e-11
-5.50215e-11
-3.84364e-11
-6.5013e-11
-4.1639e-11
-7.57521e-11
-4.47693e-11
-8.72203e-11
-4.78307e-11
-9.93991e-11
-5.08276e-11
-1.12269e-10
-5.37648e-11
-1.2581e-10
-5.66479e-11
-1.4e-10
-5.94832e-11
-1.54817e-10
-6.22781e-11
-1.70236e-10
-6.50404e-11
-1.86229e-10
-6.77792e-11
-2.02767e-10
-7.05043e-11
-2.19819e-10
-7.3227e-11
-2.3735e-10
-7.59582e-11
-2.55322e-10
-7.87125e-11
-2.73694e-10
-8.15038e-11
-2.92415e-10
-8.43569e-11
-3.11436e-10
-8.72857e-11
-3.30745e-10
-9.02646e-11
-3.50499e-10
-9.43968e-11
-4.54778e-10
-9.60967e-11
-4.88784e-10
-9.66097e-11
-5.70445e-10
-3.82259e-11
-5.74712e-10
-1.09016e-10
-5.54828e-10
-3.86167e-11
-6.97743e-10
-1.38758e-11
-8.52695e-10
1.84579e-11
-1.05011e-09
3.01524e-11
-1.40251e-09
-6.48798e-11
-1.94031e-09
-8.54396e-11
-2.94187e-09
-5.98745e-11
-4.3247e-09
-4.78551e-11
-5.88984e-09
-8.20909e-11
-7.46057e-09
-1.49823e-10
-8.97713e-09
-2.36445e-10
-1.04572e-08
-3.49451e-10
-1.19264e-08
-4.95658e-10
-1.34072e-08
-6.3569e-10
-1.48732e-08
-7.62416e-10
-8.63436e-10
-1.63157e-08
-4.55913e-13
-1.60699e-12
-1.71149e-12
-4.81421e-12
-3.72787e-12
-7.96925e-12
-6.50318e-12
-1.10478e-11
-1.00381e-11
-1.40459e-11
-1.4336e-11
-1.696e-11
-1.94023e-11
-1.97875e-11
-2.52447e-11
-2.25264e-11
-3.18728e-11
-2.51752e-11
-3.9298e-11
-2.77335e-11
-4.7533e-11
-3.02014e-11
-5.65923e-11
-3.25797e-11
-6.64914e-11
-3.48702e-11
-7.72468e-11
-3.70754e-11
-8.88759e-11
-3.91985e-11
-1.01397e-10
-4.12436e-11
-1.14829e-10
-4.3216e-11
-1.29191e-10
-4.51213e-11
-1.44502e-10
-4.69667e-11
-1.60783e-10
-4.87598e-11
-1.78053e-10
-5.05096e-11
-1.96331e-10
-5.22261e-11
-2.15637e-10
-5.39209e-11
-2.35988e-10
-5.56067e-11
-2.57404e-10
-5.72967e-11
-2.79915e-10
-5.89931e-11
-3.03581e-10
-6.0691e-11
-3.28441e-10
-6.24255e-11
-3.74208e-10
-6.47225e-11
-4.34375e-10
-6.68235e-11
-4.68525e-10
-6.20249e-11
-5.01858e-10
-6.3277e-11
-5.12288e-10
-2.77957e-11
-6.34168e-10
1.28663e-11
-7.60963e-10
8.81779e-11
-9.90609e-10
2.15771e-10
-1.34911e-09
3.76956e-10
-1.86246e-09
5.43502e-10
-2.61344e-09
6.86105e-10
-3.49385e-09
7.94969e-10
-4.42245e-09
8.68721e-10
-5.37575e-09
9.05449e-10
-6.36289e-09
9.05054e-10
-7.39172e-09
8.79003e-10
-8.46157e-09
8.33405e-10
-9.59303e-09
7.82012e-10
-1.07954e-08
7.06754e-10
-1.2037e-08
6.05905e-10
-1.32896e-08
4.90099e-10
3.78874e-10
-1.45319e-08
-8.60579e-15
-1.59839e-12
-1.87811e-13
-4.63501e-12
-6.23154e-13
-7.53391e-12
-1.36833e-12
-1.03027e-11
-2.47907e-12
-1.29352e-11
-4.01295e-12
-1.54262e-11
-6.02927e-12
-1.77712e-11
-8.58912e-12
-1.99665e-11
-1.17554e-11
-2.2009e-11
-1.55927e-11
-2.38961e-11
-2.01678e-11
-2.56263e-11
-2.55491e-11
-2.71984e-11
-3.18072e-11
-2.86121e-11
-3.90148e-11
-2.98678e-11
-4.72465e-11
-3.09667e-11
-5.65793e-11
-3.19108e-11
-6.70923e-11
-3.2703e-11
-7.88667e-11
-3.3347e-11
-9.19858e-11
-3.38475e-11
-1.06535e-10
-3.42107e-11
-1.22601e-10
-3.44435e-11
-1.40272e-10
-3.45546e-11
-1.5964e-10
-3.45534e-11
-1.80797e-10
-3.44501e-11
-2.0384e-10
-3.42536e-11
-2.28845e-10
-3.39877e-11
-2.55822e-10
-3.37143e-11
-3.54355e-10
-3.44822e-11
-4.04883e-10
-3.45233e-11
-4.34978e-10
-3.67288e-11
-3.42808e-10
-1.54194e-10
-2.4222e-10
-1.63865e-10
-1.91214e-10
-7.88018e-11
-2.47392e-10
6.90446e-11
-4.05756e-10
2.46541e-10
-6.12559e-10
4.22574e-10
-8.27453e-10
5.9185e-10
-1.02784e-09
7.43888e-10
-1.21146e-09
8.69721e-10
-1.38076e-09
9.64271e-10
-1.54082e-09
1.02879e-09
-1.69991e-09
1.06453e-09
-1.87432e-09
1.07947e-09
-2.06983e-09
1.07451e-09
-2.28871e-09
1.05228e-09
-2.52482e-09
1.01812e-09
-2.79333e-09
9.7527e-10
-3.11697e-09
9.29545e-10
-3.51303e-09
8.86156e-10
8.36107e-10
-3.97026e-09
3.13979e-13
-1.91236e-12
1.23382e-12
-5.55484e-12
2.65714e-12
-8.95723e-12
4.44594e-12
-1.20915e-11
6.46739e-12
-1.49566e-11
8.59254e-12
-1.75513e-11
1.06951e-11
-1.98737e-11
1.26502e-11
-2.19217e-11
1.43336e-11
-2.36924e-11
1.56201e-11
-2.51827e-11
1.6383e-11
-2.63892e-11
1.64922e-11
-2.73076e-11
1.58135e-11
-2.79334e-11
1.42071e-11
-2.82614e-11
1.15264e-11
-2.8286e-11
7.61644e-12
-2.80008e-11
2.31242e-12
-2.73989e-11
-4.56177e-12
-2.64728e-11
-1.31954e-11
-2.52139e-11
-2.37928e-11
-2.36134e-11
-3.65753e-11
-2.1661e-11
-5.17838e-11
-1.93462e-11
-6.96811e-11
-1.66561e-11
-9.05505e-11
-1.35806e-11
-1.14695e-10
-1.0109e-11
-1.42447e-10
-6.23587e-12
-1.8564e-10
-1.90731e-12
-2.65736e-10
4.99794e-12
-3.06801e-10
6.37535e-12
-3.51051e-10
7.5216e-12
-3.40264e-10
-1.64982e-10
-3.38461e-10
-1.65666e-10
-3.02128e-10
-1.15135e-10
-6.21162e-11
-1.70967e-10
2.33212e-10
-4.87872e-11
4.73849e-10
1.81937e-10
6.86798e-10
3.78901e-10
9.17698e-10
5.12989e-10
1.19609e-09
5.91331e-10
1.52959e-09
6.30768e-10
1.91272e-09
6.45654e-10
2.33307e-09
6.44189e-10
2.78062e-09
6.31913e-10
3.24289e-09
6.12243e-10
3.70097e-09
5.94204e-10
4.13753e-09
5.81557e-10
4.53758e-09
5.75221e-10
4.90201e-09
5.65121e-10
5.18145e-09
6.06714e-10
5.95224e-10
5.42233e-09
7.1627e-13
-2.62863e-12
2.50013e-12
-7.3387e-12
5.13344e-12
-1.15905e-11
8.47469e-12
-1.54327e-11
1.23929e-11
-1.88748e-11
1.6766e-11
-2.19244e-11
2.14794e-11
-2.45872e-11
2.64249e-11
-2.68671e-11
3.14988e-11
-2.87662e-11
3.6601e-11
-3.0285e-11
4.16338e-11
-3.1422e-11
4.65006e-11
-3.21743e-11
5.11045e-11
-3.25373e-11
5.53475e-11
-3.25044e-11
5.91291e-11
-3.20676e-11
6.23449e-11
-3.12167e-11
6.48856e-11
-2.99397e-11
6.66356e-11
-2.82227e-11
6.74712e-11
-2.60495e-11
6.72595e-11
-2.34017e-11
6.58567e-11
-2.02582e-11
6.31062e-11
-1.65956e-11
5.88374e-11
-1.23873e-11
5.28607e-11
-7.60395e-12
4.49616e-11
-2.20994e-12
3.48949e-11
3.83085e-12
2.24242e-11
1.05634e-11
8.94099e-12
1.72882e-11
-3.52061e-11
2.46511e-11
-9.39647e-11
4.21053e-11
-2.85856e-10
2.68116e-11
-4.23903e-10
-2.76206e-11
-5.21359e-10
-1.76795e-11
-3.70104e-10
-3.22219e-10
-2.05746e-10
-2.13145e-10
1.22223e-10
-1.46032e-10
4.95909e-10
5.21576e-12
9.09724e-10
9.9173e-11
1.35256e-09
1.48494e-10
1.78528e-09
1.98053e-10
2.20755e-09
2.23384e-10
2.60773e-09
2.44001e-10
3.01091e-09
2.2874e-10
3.38594e-09
2.37212e-10
3.71799e-09
2.62151e-10
3.99656e-09
3.02989e-10
4.22928e-09
3.42495e-10
4.42761e-09
3.66793e-10
4.6407e-09
3.93624e-10
4.41233e-10
4.79469e-09
-2.12388e-13
-2.41625e-12
-6.65918e-13
-6.88517e-12
-1.27704e-12
-1.09794e-11
-2.01221e-12
-1.46975e-11
-2.84088e-12
-1.80461e-11
-3.73461e-12
-2.10307e-11
-4.66623e-12
-2.36556e-11
-5.60904e-12
-2.59243e-11
-6.53596e-12
-2.78393e-11
-7.41875e-12
-2.94022e-11
-8.22721e-12
-3.06135e-11
-8.92834e-12
-3.14732e-11
-9.48556e-12
-3.19801e-11
-9.85775e-12
-3.21323e-11
-9.99835e-12
-3.1927e-11
-9.85437e-12
-3.13606e-11
-9.36521e-12
-3.04288e-11
-8.46152e-12
-2.91264e-11
-7.06379e-12
-2.74472e-11
-5.08097e-12
-2.53845e-11
-2.40856e-12
-2.29306e-11
1.07281e-12
-2.0077e-11
5.50011e-12
-1.68146e-11
1.10293e-11
-1.31332e-11
1.78415e-11
-9.02215e-12
2.61418e-11
-4.46939e-12
3.6167e-11
5.38141e-13
4.74395e-11
6.01568e-12
6.01235e-11
1.1967e-11
6.24821e-11
1.6185e-11
4.29441e-11
2.08038e-11
-2.7373e-11
2.70256e-11
-7.41002e-11
2.90477e-11
-3.84735e-10
-1.15896e-11
-6.45036e-10
4.71562e-11
-6.20719e-10
-1.70349e-10
-6.07276e-10
-8.22498e-12
-4.77756e-10
-3.03472e-11
-3.00991e-10
-2.8271e-11
-9.90264e-11
-3.91172e-12
9.23393e-11
3.20184e-11
3.10888e-10
2.54526e-11
4.07806e-10
1.31822e-10
4.09176e-10
2.35842e-10
3.10053e-10
3.61275e-10
1.35643e-10
4.77399e-10
-6.97418e-11
5.4788e-10
-2.84677e-10
5.81728e-10
-4.91656e-10
6.00603e-10
6.20345e-10
-6.70769e-10
-4.7522e-13
-1.94103e-12
-1.78959e-12
-5.5708e-12
-3.82967e-12
-8.93935e-12
-6.48506e-12
-1.20421e-11
-9.65254e-12
-1.48786e-11
-1.32346e-11
-1.74486e-11
-1.7138e-11
-1.97521e-11
-2.12729e-11
-2.17894e-11
-2.55515e-11
-2.35608e-11
-2.98866e-11
-2.5067e-11
-3.41913e-11
-2.63089e-11
-3.83771e-11
-2.72874e-11
-4.23533e-11
-2.80039e-11
-4.60259e-11
-2.84597e-11
-4.92961e-11
-2.86567e-11
-5.20598e-11
-2.85969e-11
-5.42059e-11
-2.82827e-11
-5.56156e-11
-2.77167e-11
-5.61605e-11
-2.69023e-11
-5.57019e-11
-2.58431e-11
-5.40891e-11
-2.45434e-11
-5.11578e-11
-2.30083e-11
-4.67288e-11
-2.12436e-11
-4.06059e-11
-1.9256e-11
-3.25746e-11
-1.70535e-11
-2.23989e-11
-1.46451e-11
-9.81923e-12
-1.20416e-11
5.45158e-12
-9.25513e-12
2.37164e-11
-6.29779e-12
4.30749e-11
-3.17349e-12
6.37704e-11
1.08297e-13
7.92714e-11
2.77023e-12
8.00659e-11
5.00696e-12
6.08326e-11
7.52743e-12
9.56525e-11
1.23271e-11
-8.54266e-11
1.07304e-11
-8.08687e-11
-1.27828e-11
-1.13174e-10
1.95767e-12
-1.01218e-10
-4.02265e-11
-5.42957e-11
-5.08322e-11
1.17688e-11
-3.40461e-11
1.25646e-10
-8.84246e-11
2.40391e-10
1.70765e-11
4.51316e-10
2.49178e-11
6.58409e-10
1.54181e-10
8.31098e-10
3.04711e-10
8.45104e-10
5.33874e-10
8.02841e-10
6.23991e-10
7.1408e-10
6.89365e-10
7.65122e-10
5.69303e-10
-3.36134e-13
-1.60489e-12
-1.29844e-12
-4.60849e-12
-2.81809e-12
-7.4197e-12
-4.81719e-12
-1.0043e-11
-7.22077e-12
-1.24751e-11
-9.95604e-12
-1.47134e-11
-1.29517e-11
-1.67565e-11
-1.61375e-11
-1.86036e-11
-1.94438e-11
-2.02545e-11
-2.2801e-11
-2.17098e-11
-2.61395e-11
-2.29703e-11
-2.93892e-11
-2.40376e-11
-3.24795e-11
-2.49136e-11
-3.53386e-11
-2.56006e-11
-3.78941e-11
-2.61013e-11
-4.00722e-11
-2.64189e-11
-4.17981e-11
-2.65568e-11
-4.29959e-11
-2.65189e-11
-4.35887e-11
-2.63096e-11
-4.34983e-11
-2.59334e-11
-4.26461e-11
-2.53956e-11
-4.09529e-11
-2.47015e-11
-3.83392e-11
-2.38573e-11
-3.47259e-11
-2.28693e-11
-3.00347e-11
-2.17447e-11
-2.41886e-11
-2.04911e-11
-1.71137e-11
-1.91165e-11
-8.73877e-12
-1.76301e-11
1.00436e-12
-1.60409e-11
1.21896e-11
-1.43588e-11
2.48912e-11
-1.25933e-11
3.84063e-11
-1.07448e-11
5.21088e-11
-8.78887e-12
6.62554e-11
-6.76007e-12
7.63288e-11
-5.27637e-12
8.84436e-11
-4.02317e-12
7.82723e-11
-2.70271e-12
8.27778e-11
-2.58266e-12
3.53767e-11
7.17453e-12
-8.64468e-12
-6.8108e-12
-5.30996e-11
1.04089e-11
-1.07442e-10
-3.40818e-11
-1.033e-10
1.2934e-11
7.18061e-11
-1.50186e-10
2.47877e-10
-2.18898e-11
5.99532e-10
-4.69445e-11
9.72892e-10
1.60514e-10
1.31365e-09
2.83231e-10
1.62914e-09
3.73872e-10
5.93091e-10
1.80118e-09
-1.3931e-13
-1.46558e-12
-4.68413e-13
-4.27939e-12
-9.70111e-13
-6.918e-12
-1.66114e-12
-9.352e-12
-2.54815e-12
-1.1588e-11
-3.62876e-12
-1.36328e-11
-4.89263e-12
-1.54926e-11
-6.32219e-12
-1.7174e-11
-7.8934e-12
-1.86833e-11
-9.57643e-12
-2.00268e-11
-1.13363e-11
-2.12105e-11
-1.31336e-11
-2.22404e-11
-1.49249e-11
-2.31223e-11
-1.66635e-11
-2.38619e-11
-1.83001e-11
-2.44647e-11
-1.97829e-11
-2.49361e-11
-2.10584e-11
-2.52812e-11
-2.20721e-11
-2.55053e-11
-2.27685e-11
-2.56131e-11
-2.30922e-11
-2.56098e-11
-2.29878e-11
-2.55e-11
-2.24009e-11
-2.52884e-11
-2.12785e-11
-2.49797e-11
-1.95694e-11
-2.45784e-11
-1.72251e-11
-2.40891e-11
-1.42e-11
-2.35161e-11
-1.04525e-11
-2.2864e-11
-5.94559e-12
-2.2137e-11
-6.47094e-13
-2.13394e-11
5.46968e-12
-2.04756e-11
1.24258e-11
-1.95494e-11
2.02456e-11
-1.85646e-11
2.89814e-11
-1.75247e-11
3.86536e-11
-1.64322e-11
4.86634e-11
-1.52862e-11
5.8689e-11
-1.40488e-11
6.87616e-11
-1.27753e-11
7.73697e-11
-1.11905e-11
9.06619e-11
-1.00813e-11
9.23022e-11
-8.56653e-12
1.09958e-10
-7.29698e-12
8.12028e-11
-5.32654e-12
8.79371e-11
6.19977e-12
-5.12497e-11
-1.09989e-11
-8.15625e-11
8.42301e-12
-8.54354e-11
-4.30715e-11
9.52362e-11
-2.01577e-11
4.64617e-10
-8.61463e-11
7.81662e-10
5.6827e-11
1.92601e-10
1.18215e-09
5.77049e-13
-2.04263e-12
1.74819e-12
-5.45054e-12
3.19391e-12
-8.36372e-12
4.73716e-12
-1.08953e-11
6.2446e-12
-1.30955e-11
7.61845e-12
-1.50066e-11
8.79064e-12
-1.66648e-11
9.71777e-12
-1.81012e-11
1.03769e-11
-1.93424e-11
1.07618e-11
-2.04117e-11
1.08799e-11
-2.13286e-11
1.07498e-11
-2.21103e-11
1.0399e-11
-2.27715e-11
9.86204e-12
-2.3325e-11
9.17902e-12
-2.37817e-11
8.39421e-12
-2.41513e-11
7.5549e-12
-2.44419e-11
6.7104e-12
-2.46608e-11
5.9112e-12
-2.48139e-11
5.20814e-12
-2.49067e-11
4.65173e-12
-2.49436e-11
4.2915e-12
-2.49282e-11
4.17537e-12
-2.48636e-11
4.34902e-12
-2.47521e-11
4.85532e-12
-2.45954e-11
5.73366e-12
-2.43945e-11
7.01932e-12
-2.41496e-11
8.74268e-12
-2.38603e-11
1.09285e-11
-2.35252e-11
1.35948e-11
-2.31419e-11
1.67523e-11
-2.27069e-11
2.04033e-11
-2.22156e-11
2.45403e-11
-2.16618e-11
2.91455e-11
-2.10373e-11
3.41912e-11
-2.03319e-11
3.96752e-11
-1.95328e-11
4.5523e-11
-1.86232e-11
5.19155e-11
-1.7583e-11
5.82247e-11
-1.63904e-11
6.46444e-11
-1.49863e-11
7.07572e-11
-1.34098e-11
7.44347e-11
-1.15348e-11
9.05511e-11
-9.94019e-12
8.82165e-11
-8.66858e-12
1.04804e-10
-8.1648e-12
6.90562e-11
-7.3234e-12
4.30736e-11
5.82493e-12
-3.47999e-11
-8.27276e-12
-2.34167e-11
4.54439e-11
6.38714e-12
1.62801e-10
1.73574e-11
3.13068e-11
4.23431e-11
5.08479e-11
5.71524e-11
6.15458e-11
6.4281e-11
6.55798e-11
6.56374e-11
6.46257e-11
6.26971e-11
5.99869e-11
5.66154e-11
5.26904e-11
4.83087e-11
4.35574e-11
3.85155e-11
3.32547e-11
2.78408e-11
2.23341e-11
1.67905e-11
1.12623e-11
5.79879e-12
4.46722e-13
-4.74866e-12
-9.74314e-12
-1.44928e-11
-1.89531e-11
-2.30783e-11
-2.68202e-11
-3.01271e-11
-3.29427e-11
-3.52045e-11
-3.68418e-11
-3.77737e-11
-3.79065e-11
-3.71297e-11
-3.53127e-11
-3.23031e-11
-2.78894e-11
-2.18991e-11
-1.4034e-11
-4.57451e-12
6.10994e-12
1.71157e-11
2.90822e-11
5.22261e-11
6.21015e-11
1.20862e-10
1.0675e-10
2.03273e-10
-2.69293e-10
2.07639e-10
-2.70767e-10
2.15041e-10
-2.72121e-10
2.23366e-10
-2.74295e-10
2.35983e-10
-2.79823e-10
2.7454e-10
-3.08229e-10
4.70294e-10
-4.74169e-10
1.27641e-09
-1.14187e-09
3.5247e-09
-3.0308e-09
6.79314e-09
-6.57257e-09
8.69837e-09
-1.09124e-08
8.69269e-09
-1.38343e-08
7.47973e-09
-1.52275e-08
5.68068e-09
-1.56855e-08
3.65341e-09
-1.57069e-08
1.54024e-09
-1.55668e-08
-6.09282e-10
-1.53745e-08
-2.77539e-09
-1.51337e-08
-4.97303e-09
-1.48094e-08
-7.24653e-09
-1.43456e-08
-9.62744e-09
-1.36579e-08
-1.20124e-08
-1.28651e-08
-1.42947e-08
-1.22154e-08
-1.65708e-08
-1.16015e-08
-1.89858e-08
-1.07739e-08
-2.16134e-08
-9.6051e-09
-2.42673e-08
-8.51698e-09
-2.68596e-08
-7.89998e-09
-2.94929e-08
-7.49728e-09
-3.2239e-08
-7.08433e-09
-3.51054e-08
-6.71706e-09
-3.80304e-08
-6.58709e-09
-4.09844e-08
-6.59231e-09
-4.39543e-08
-6.63212e-09
-4.69365e-08
-6.68438e-09
-4.99299e-08
-6.73893e-09
-5.29317e-08
-6.79194e-09
-5.59393e-08
-6.84374e-09
-5.89534e-08
-6.89263e-09
-6.19774e-08
-6.93754e-09
-6.501e-08
-6.97911e-09
-6.80486e-08
-7.01562e-09
-7.10898e-08
-7.04672e-09
-7.41314e-08
-7.07428e-09
-7.71746e-08
-7.09894e-09
-8.02193e-08
-7.12064e-09
-8.32629e-08
-7.13751e-09
-8.6296e-08
-7.14151e-09
-8.93147e-08
-7.11999e-09
-7.07738e-09
-9.23326e-08
-8.1762e-12
-2.67975e-10
-8.14132e-12
-2.70801e-10
-2.40366e-12
-2.77859e-10
2.82702e-11
-3.04969e-10
1.65036e-10
-4.16589e-10
6.46117e-10
-7.8931e-10
2.05289e-09
-1.88093e-09
4.82068e-09
-3.90966e-09
8.52402e-09
-6.73415e-09
1.16445e-08
-9.69307e-09
1.26045e-08
-1.18724e-08
1.18141e-08
-1.30439e-08
1.0062e-08
-1.34754e-08
7.89546e-09
-1.35189e-08
5.59192e-09
-1.34033e-08
3.25174e-09
-1.32266e-08
8.93238e-10
-1.3016e-08
-1.49795e-09
-1.27425e-08
-3.95653e-09
-1.23509e-08
-6.51839e-09
-1.17837e-08
-9.13569e-09
-1.10406e-08
-1.16569e-08
-1.03439e-08
-1.41282e-08
-9.74406e-09
-1.66606e-08
-9.06918e-09
-1.93544e-08
-8.08005e-09
-2.21726e-08
-6.7869e-09
-2.48813e-08
-5.80824e-09
-2.75474e-08
-5.23384e-09
-3.02939e-08
-4.75083e-09
-3.31947e-08
-4.1835e-09
-3.62523e-08
-3.65949e-09
-3.94071e-08
-3.43232e-09
-4.26067e-08
-3.39271e-09
-4.58274e-08
-3.41142e-09
-4.90605e-08
-3.45129e-09
-5.22979e-08
-3.50146e-09
-5.55348e-08
-3.55506e-09
-5.877e-08
-3.60851e-09
-6.20025e-08
-3.66015e-09
-6.52321e-08
-3.70791e-09
-6.84598e-08
-3.75147e-09
-7.1685e-08
-3.79037e-09
-7.49073e-08
-3.82442e-09
-7.81273e-08
-3.85432e-09
-8.13457e-08
-3.8805e-09
-8.45651e-08
-3.90124e-09
-8.7786e-08
-3.91663e-09
-9.10015e-08
-3.92605e-09
-9.41953e-08
-3.92617e-09
-3.91622e-09
-9.73565e-08
-2.0607e-10
-2.67479e-10
-1.59068e-10
-3.17803e-10
-9.29782e-12
-4.27629e-10
4.0147e-10
-7.15737e-10
1.49347e-09
-1.50858e-09
3.74781e-09
-3.04366e-09
7.10395e-09
-5.23706e-09
1.07216e-08
-7.52727e-09
1.33224e-08
-9.33503e-09
1.42155e-08
-1.05861e-08
1.36184e-08
-1.12753e-08
1.20992e-08
-1.15247e-08
1.01428e-08
-1.1519e-08
8.02517e-09
-1.14014e-08
5.85907e-09
-1.12372e-08
3.67219e-09
-1.10397e-08
1.44241e-09
-1.07862e-08
-8.7387e-10
-1.04262e-08
-3.31379e-09
-9.91095e-09
-5.85943e-09
-9.23806e-09
-8.36621e-09
-8.53383e-09
-1.07944e-08
-7.91577e-09
-1.32514e-08
-7.28703e-09
-1.5844e-08
-6.4766e-09
-1.85947e-08
-5.32932e-09
-2.12432e-08
-4.13842e-09
-2.36827e-08
-3.36876e-09
-2.61133e-08
-2.80326e-09
-2.86866e-08
-2.17749e-09
-3.14829e-08
-1.38725e-09
-3.44362e-08
-7.06156e-10
-3.74747e-08
-3.93801e-10
-4.05738e-08
-2.93604e-10
-4.37166e-08
-2.68609e-10
-4.688e-08
-2.87895e-10
-5.00435e-08
-3.37945e-10
-5.32017e-08
-3.9691e-10
-5.63504e-08
-4.59794e-10
-5.94838e-08
-5.26746e-10
-6.25992e-08
-5.92489e-10
-6.5697e-08
-6.53733e-10
-6.87774e-08
-7.09983e-10
-7.18411e-08
-7.607e-10
-7.48893e-08
-8.06119e-10
-7.79222e-08
-8.47601e-10
-8.09385e-08
-8.8496e-10
-8.39399e-08
-9.15177e-10
-8.69281e-08
-9.37859e-10
-8.98984e-08
-9.55874e-10
-9.71697e-10
-9.28429e-08
3.37858e-11
-5.33729e-10
6.20168e-10
-9.04184e-10
1.86846e-09
-1.67591e-09
4.06949e-09
-2.91677e-09
7.11708e-09
-4.55617e-09
1.05057e-08
-6.43228e-09
1.33769e-08
-8.1083e-09
1.49901e-08
-9.14041e-09
1.52999e-08
-9.6449e-09
1.45652e-08
-9.85137e-09
1.31612e-08
-9.87129e-09
1.14275e-08
-9.79106e-09
9.57187e-09
-9.66333e-09
7.67634e-09
-9.50583e-09
5.75399e-09
-9.3149e-09
3.77989e-09
-9.06561e-09
1.69896e-09
-8.70525e-09
-5.32666e-10
-8.19459e-09
-2.89688e-09
-7.54673e-09
-5.27562e-09
-6.85932e-09
-7.58009e-09
-6.22936e-09
-9.8965e-09
-5.59935e-09
-1.23304e-08
-4.8531e-09
-1.4932e-08
-3.87504e-09
-1.75149e-08