/*--------------------------------*- C++ -*----------------------------------*\
| =========                 |                                                 |
| \\      /  F ield         | OpenFOAM: The Open Source CFD Toolbox           |
|  \\    /   O peration     | Version:  2.4.0                                 |
|   \\  /    A nd           | Web:      www.OpenFOAM.org                      |
|    \\/     M anipulation  |                                                 |
\*---------------------------------------------------------------------------*/
FoamFile
{
    version     2.0;
    format      ascii;
    class       volScalarField;
    location    "3.2";
    object      T;
}
// * * * * * * * * * * * * * * * * * * * * * * * * * * * * * * * * * * * * * //

dimensions      [0 0 0 1 0 0 0];

internalField   nonuniform List<scalar> 
125
(
293.112
293.112
293.112
293.112
293.112
293.337
293.337
293.337
293.337
293.337
293.564
293.564
293.564
293.564
293.564
293.793
293.793
293.793
293.793
293.793
294.024
294.024
294.023
294.024
294.024
294.256
294.256
294.255
294.255
294.256
294.489
294.488
294.488
294.488
294.489
294.722
294.722
294.722
294.722
294.722
294.957
294.956
294.956
294.956
294.957
295.191
295.191
295.19
295.191
295.191
295.425
295.425
295.425
295.425
295.425
295.66
295.659
295.659
295.659
295.66
295.893
295.893
295.893
295.893
295.894
296.127
296.127
296.127
296.127
296.127
296.361
296.36
296.36
296.36
296.361
296.594
296.594
296.594
296.594
296.594
296.828
296.828
296.828
296.828
296.828
297.063
297.063
297.063
297.063
297.063
297.3
297.3
297.3
297.3
297.3
297.539
297.539
297.539
297.539
297.539
297.933
297.933
297.933
297.933
297.933
297.933
297.933
297.933
297.933
297.933
297.933
297.933
297.933
297.933
297.933
297.933
297.933
297.933
297.933
297.933
297.933
297.933
297.934
297.933
297.933
)
;

boundaryField
{
    BotWall
    {
        type            fixedValue;
        value           uniform 293;
    }
    FreeStream
    {
        type            fixedValue;
        value           nonuniform 0();
    }
    FrontNBack
    {
        type            empty;
    }
    LeftSide
    {
        type            symmetryPlane;
    }
    RightSide
    {
        type            symmetryPlane;
    }
    procBoundary0to1
    {
        type            processor;
        value           nonuniform List<scalar> 5(297.934 297.934 297.934 297.934 297.934);
    }
}


// ************************************************************************* //
