/*--------------------------------*- C++ -*----------------------------------*\
| =========                 |                                                 |
| \\      /  F ield         | OpenFOAM: The Open Source CFD Toolbox           |
|  \\    /   O peration     | Version:  2.4.0                                 |
|   \\  /    A nd           | Web:      www.OpenFOAM.org                      |
|    \\/     M anipulation  |                                                 |
\*---------------------------------------------------------------------------*/
FoamFile
{
    version     2.0;
    format      ascii;
    class       volScalarField;
    location    "0.5";
    object      H;
}
// * * * * * * * * * * * * * * * * * * * * * * * * * * * * * * * * * * * * * //

dimensions      [0 2 -2 0 0 0 0];

internalField   nonuniform List<scalar> 
500
(
-11582.5
-11582.5
-11582.5
-11582.5
-11582.5
-10279.8
-10279.8
-10279.8
-10279.8
-10279.8
-8961.67
-8961.66
-8961.67
-8961.67
-8961.67
-7627.11
-7627.09
-7627.1
-7627.09
-7627.11
-6275.23
-6275.21
-6275.21
-6275.21
-6275.23
-4905.11
-4905.09
-4905.09
-4905.09
-4905.11
-3515.81
-3515.78
-3515.79
-3515.79
-3515.81
-2106.37
-2106.34
-2106.35
-2106.35
-2106.37
-83.5271
-83.5211
-83.5217
-83.5214
-83.5278
-63.4131
-63.4085
-63.409
-63.4087
-63.4136
-64.3575
-64.353
-64.3534
-64.3531
-64.358
-65.2317
-65.2273
-65.2277
-65.2274
-65.2323
-66.0339
-66.0295
-66.0299
-66.0297
-66.0345
-66.7622
-66.7578
-66.7582
-66.758
-66.7628
-67.4148
-67.4104
-67.4108
-67.4106
-67.4154
-67.9902
-67.9859
-67.9862
-67.986
-67.9907
-68.4868
-68.4826
-68.483
-68.4828
-68.4874
-68.9035
-68.8993
-68.8997
-68.8995
-68.9041
-69.2391
-69.235
-69.2353
-69.2352
-69.2397
-69.4927
-69.4886
-69.489
-69.4888
-69.4932
-69.6634
-69.6594
-69.6598
-69.6596
-69.664
-69.7509
-69.747
-69.7473
-69.7471
-69.7514
-69.7546
-69.7508
-69.7511
-69.751
-69.7551
-69.6745
-69.6708
-69.6711
-69.671
-69.675
-69.5108
-69.5071
-69.5075
-69.5073
-69.5113
-69.2636
-69.2601
-69.2604
-69.2603
-69.2641
-68.9337
-68.9303
-68.9306
-68.9304
-68.9341
-68.5217
-68.5184
-68.5187
-68.5186
-68.5222
-68.0289
-68.0257
-68.026
-68.0258
-68.0293
-67.4564
-67.4533
-67.4536
-67.4534
-67.4568
-66.8058
-66.8028
-66.8031
-66.803
-66.8062
-66.079
-66.0761
-66.0764
-66.0763
-66.0794
-65.2779
-65.2752
-65.2755
-65.2754
-65.2783
-64.405
-64.4024
-64.4027
-64.4026
-64.4054
-63.4627
-63.4603
-63.4606
-63.4604
-63.4631
-62.4539
-62.4516
-62.4518
-62.4517
-62.4542
-61.3815
-61.3793
-61.3795
-61.3794
-61.3818
-60.2487
-60.2466
-60.2469
-60.2468
-60.249
-59.059
-59.0571
-59.0574
-59.0572
-59.0593
-57.8161
-57.8143
-57.8145
-57.8144
-57.8163
-56.5236
-56.5219
-56.5222
-56.522
-56.5239
-55.1856
-55.1841
-55.1843
-55.1842
-55.1858
-53.8062
-53.8048
-53.805
-53.8048
-53.8064
-52.3896
-52.3883
-52.3885
-52.3883
-52.3897
-50.94
-50.9389
-50.9391
-50.9389
-50.9402
-49.4621
-49.461
-49.4612
-49.4611
-49.4622
-47.9601
-47.9592
-47.9594
-47.9592
-47.9603
-46.4387
-46.4378
-46.438
-46.4379
-46.4388
-44.9022
-44.9015
-44.9017
-44.9015
-44.9023
-43.3553
-43.3547
-43.3549
-43.3547
-43.3554
-41.8024
-41.8018
-41.802
-41.8019
-41.8025
-40.2478
-40.2474
-40.2476
-40.2474
-40.2479
-38.6959
-38.6955
-38.6957
-38.6956
-38.696
-37.1508
-37.1506
-37.1508
-37.1506
-37.1509
-35.6167
-35.6165
-35.6167
-35.6165
-35.6167
-34.0973
-34.0972
-34.0974
-34.0972
-34.0973
-32.5964
-32.5963
-32.5965
-32.5964
-32.5964
-31.1175
-31.1175
-31.1176
-31.1175
-31.1175
-29.6638
-29.6638
-29.664
-29.6638
-29.6638
-28.2383
-28.2384
-28.2386
-28.2384
-28.2383
-26.8439
-26.8441
-26.8442
-26.8441
-26.8439
-25.4831
-25.4833
-25.4834
-25.4833
-25.4831
-24.158
-24.1583
-24.1584
-24.1583
-24.158
-22.8707
-22.871
-22.8711
-22.871
-22.8707
-21.6228
-21.623
-21.6232
-21.623
-21.6228
-20.4156
-20.4159
-20.416
-20.4159
-20.4156
-19.2503
-19.2506
-19.2507
-19.2506
-19.2503
-18.1276
-18.1279
-18.128
-18.1279
-18.1276
-17.0482
-17.0485
-17.0485
-17.0485
-17.0481
-16.0121
-16.0124
-16.0125
-16.0124
-16.0121
-15.0195
-15.0198
-15.0198
-15.0198
-15.0194
-14.07
-14.0703
-14.0704
-14.0703
-14.07
-13.1632
-13.1635
-13.1636
-13.1635
-13.1632
-12.2985
-12.2988
-12.2988
-12.2988
-12.2985
-11.4749
-11.4751
-11.4752
-11.4751
-11.4749
-10.6913
-10.6916
-10.6917
-10.6916
-10.6913
-9.94671
-9.94696
-9.947
-9.94696
-9.94669
-9.23963
-9.23986
-9.23991
-9.23986
-9.23961
-8.56867
-8.56889
-8.56893
-8.56889
-8.56866
-7.93232
-7.93252
-7.93256
-7.93253
-7.93231
-7.32898
-7.32918
-7.32921
-7.32918
-7.32898
-6.75704
-6.75722
-6.75725
-6.75722
-6.75704
-6.21485
-6.21501
-6.21503
-6.21501
-6.21484
-5.70074
-5.70089
-5.70091
-5.70089
-5.70074
-5.21308
-5.21322
-5.21324
-5.21322
-5.21308
-4.75027
-4.75039
-4.7504
-4.75039
-4.75027
-4.31072
-4.31083
-4.31084
-4.31083
-4.31072
-3.89293
-3.89302
-3.89304
-3.89303
-3.89293
-3.49544
-3.49553
-3.49554
-3.49553
-3.49544
-3.11688
-3.11695
-3.11696
-3.11696
-3.11688
-2.75594
-2.756
-2.75601
-2.75601
-2.75594
-2.4114
-2.41146
-2.41146
-2.41146
-2.4114
-2.08212
-2.08217
-2.08217
-2.08217
-2.08212
-1.76704
-1.76708
-1.76708
-1.76708
-1.76704
-1.46518
-1.46521
-1.46522
-1.46521
-1.46518
-1.17563
-1.17566
-1.17566
-1.17566
-1.17564
-0.897558
-0.897576
-0.897579
-0.897578
-0.89756
-0.630178
-0.630191
-0.630193
-0.630192
-0.630179
-0.372766
-0.372774
-0.372775
-0.372774
-0.372767
-0.124638
-0.12464
-0.12464
-0.12464
-0.124638
)
;

boundaryField
{
    BotWall
    {
        type            zeroGradient;
    }
    FreeStream
    {
        type            zeroGradient;
    }
    FrontNBack
    {
        type            empty;
    }
    LeftSide
    {
        type            symmetryPlane;
    }
    RightSide
    {
        type            symmetryPlane;
    }
}


// ************************************************************************* //
