/*--------------------------------*- C++ -*----------------------------------*\
| =========                 |                                                 |
| \\      /  F ield         | OpenFOAM: The Open Source CFD Toolbox           |
|  \\    /   O peration     | Version:  2.4.0                                 |
|   \\  /    A nd           | Web:      www.OpenFOAM.org                      |
|    \\/     M anipulation  |                                                 |
\*---------------------------------------------------------------------------*/
FoamFile
{
    version     2.0;
    format      ascii;
    class       volScalarField;
    location    "0.5";
    object      p;
}
// * * * * * * * * * * * * * * * * * * * * * * * * * * * * * * * * * * * * * //

dimensions      [1 -1 -2 0 0 0 0];

internalField   nonuniform List<scalar> 
500
(
0.237015
0.237019
0.237018
0.237019
0.237014
0.192865
0.192862
0.19286
0.192862
0.192864
0.151686
0.151691
0.151689
0.151691
0.151686
0.191598
0.191642
0.19164
0.191642
0.191597
0.460796
0.460901
0.460897
0.4609
0.460793
0.701651
0.701665
0.70166
0.701663
0.701645
-1.15424
-1.1547
-1.1547
-1.1547
-1.15424
-8.62078
-8.62177
-8.62172
-8.62175
-8.62073
-16.3794
-16.3801
-16.38
-16.3801
-16.3793
-0.0190098
-0.0190094
-0.0190094
-0.0190094
-0.0190098
-0.000989436
-0.000989842
-0.000989838
-0.00098984
-0.00098943
-0.00453845
-0.00453836
-0.00453836
-0.00453836
-0.00453845
-0.0065775
-0.00657742
-0.00657742
-0.00657742
-0.0065775
-0.00732973
-0.00732973
-0.00732973
-0.00732973
-0.00732973
-0.00779291
-0.00779293
-0.00779293
-0.00779293
-0.00779291
-0.00831371
-0.00831372
-0.00831372
-0.00831372
-0.00831371
-0.00889013
-0.00889013
-0.00889013
-0.00889013
-0.00889013
-0.00948385
-0.00948385
-0.00948386
-0.00948385
-0.00948385
-0.0100821
-0.0100821
-0.0100821
-0.0100821
-0.0100821
-0.0106851
-0.0106851
-0.0106851
-0.0106851
-0.0106851
-0.0112944
-0.0112944
-0.0112944
-0.0112944
-0.0112944
-0.0119105
-0.0119105
-0.0119105
-0.0119105
-0.0119105
-0.0125336
-0.0125336
-0.0125336
-0.0125336
-0.0125336
-0.0131637
-0.0131637
-0.0131637
-0.0131637
-0.0131637
-0.0138008
-0.0138008
-0.0138008
-0.0138008
-0.0138008
-0.0144451
-0.0144451
-0.0144451
-0.0144451
-0.0144451
-0.0150965
-0.0150965
-0.0150965
-0.0150965
-0.0150965
-0.0157551
-0.0157551
-0.0157551
-0.0157551
-0.0157551
-0.0164212
-0.0164212
-0.0164212
-0.0164212
-0.0164212
-0.0170946
-0.0170946
-0.0170946
-0.0170946
-0.0170946
-0.0177756
-0.0177756
-0.0177756
-0.0177756
-0.0177756
-0.0184642
-0.0184642
-0.0184642
-0.0184642
-0.0184642
-0.0191604
-0.0191604
-0.0191604
-0.0191604
-0.0191604
-0.0198644
-0.0198644
-0.0198644
-0.0198644
-0.0198644
-0.0205763
-0.0205763
-0.0205763
-0.0205763
-0.0205763
-0.0212962
-0.0212962
-0.0212962
-0.0212962
-0.0212962
-0.022024
-0.022024
-0.022024
-0.022024
-0.022024
-0.02276
-0.02276
-0.02276
-0.02276
-0.02276
-0.0235042
-0.0235042
-0.0235042
-0.0235042
-0.0235042
-0.0242567
-0.0242567
-0.0242567
-0.0242567
-0.0242567
-0.0250176
-0.0250176
-0.0250176
-0.0250176
-0.0250176
-0.025787
-0.025787
-0.025787
-0.025787
-0.025787
-0.0265649
-0.0265649
-0.0265649
-0.0265649
-0.0265649
-0.0273516
-0.0273516
-0.0273516
-0.0273516
-0.0273516
-0.028147
-0.028147
-0.028147
-0.028147
-0.028147
-0.0289513
-0.0289513
-0.0289513
-0.0289513
-0.0289513
-0.0297646
-0.0297646
-0.0297646
-0.0297646
-0.0297646
-0.0305869
-0.0305869
-0.0305869
-0.0305869
-0.0305869
-0.0314185
-0.0314185
-0.0314185
-0.0314185
-0.0314185
-0.0322593
-0.0322593
-0.0322593
-0.0322593
-0.0322593
-0.0331095
-0.0331095
-0.0331095
-0.0331095
-0.0331095
-0.0339692
-0.0339692
-0.0339692
-0.0339692
-0.0339692
-0.0348384
-0.0348384
-0.0348384
-0.0348384
-0.0348384
-0.0357174
-0.0357174
-0.0357174
-0.0357174
-0.0357174
-0.0366062
-0.0366062
-0.0366062
-0.0366062
-0.0366062
-0.0375049
-0.0375049
-0.0375049
-0.0375049
-0.0375049
-0.0384136
-0.0384136
-0.0384136
-0.0384136
-0.0384136
-0.0393325
-0.0393325
-0.0393325
-0.0393325
-0.0393325
-0.0402616
-0.0402616
-0.0402616
-0.0402616
-0.0402616
-0.0412011
-0.0412011
-0.0412011
-0.0412011
-0.0412011
-0.0421511
-0.0421511
-0.0421511
-0.0421511
-0.0421511
-0.0431117
-0.0431117
-0.0431117
-0.0431117
-0.0431117
-0.044083
-0.044083
-0.044083
-0.044083
-0.044083
-0.0450651
-0.0450651
-0.0450651
-0.0450651
-0.0450651
-0.0460582
-0.0460582
-0.0460582
-0.0460582
-0.0460582
-0.0470624
-0.0470624
-0.0470624
-0.0470624
-0.0470624
-0.0480777
-0.0480777
-0.0480777
-0.0480777
-0.0480777
-0.0491044
-0.0491044
-0.0491044
-0.0491044
-0.0491044
-0.0501426
-0.0501426
-0.0501426
-0.0501426
-0.0501426
-0.0511924
-0.0511924
-0.0511924
-0.0511924
-0.0511924
-0.0522538
-0.0522538
-0.0522538
-0.0522538
-0.0522538
-0.0533271
-0.0533271
-0.0533271
-0.0533271
-0.0533271
-0.0544124
-0.0544124
-0.0544124
-0.0544124
-0.0544124
-0.0555098
-0.0555098
-0.0555098
-0.0555098
-0.0555098
-0.0566195
-0.0566195
-0.0566195
-0.0566195
-0.0566195
-0.0577415
-0.0577415
-0.0577415
-0.0577415
-0.0577415
-0.058876
-0.0588761
-0.0588761
-0.0588761
-0.058876
-0.0600233
-0.0600233
-0.0600233
-0.0600233
-0.0600233
-0.0611833
-0.0611833
-0.0611833
-0.0611833
-0.0611833
-0.0623562
-0.0623562
-0.0623562
-0.0623562
-0.0623562
-0.0635423
-0.0635423
-0.0635423
-0.0635423
-0.0635423
-0.0647415
-0.0647415
-0.0647415
-0.0647415
-0.0647415
-0.0659542
-0.0659542
-0.0659542
-0.0659542
-0.0659542
-0.0671804
-0.0671804
-0.0671804
-0.0671804
-0.0671804
-0.0684203
-0.0684203
-0.0684203
-0.0684203
-0.0684203
-0.069674
-0.069674
-0.069674
-0.069674
-0.069674
-0.0709417
-0.0709417
-0.0709417
-0.0709417
-0.0709417
-0.0722235
-0.0722235
-0.0722235
-0.0722235
-0.0722235
-0.0735197
-0.0735197
-0.0735197
-0.0735197
-0.0735197
-0.0748303
-0.0748303
-0.0748303
-0.0748303
-0.0748303
-0.0761555
-0.0761555
-0.0761555
-0.0761555
-0.0761555
-0.0774956
-0.0774956
-0.0774956
-0.0774956
-0.0774956
-0.0788505
-0.0788505
-0.0788505
-0.0788505
-0.0788505
-0.0802206
-0.0802206
-0.0802206
-0.0802206
-0.0802206
-0.081606
-0.081606
-0.081606
-0.081606
-0.081606
-0.0830069
-0.0830069
-0.0830069
-0.0830069
-0.0830069
-0.0844234
-0.0844234
-0.0844234
-0.0844234
-0.0844234
-0.0858556
-0.0858556
-0.0858556
-0.0858556
-0.0858556
-0.0873039
-0.0873039
-0.0873039
-0.0873039
-0.0873039
-0.0887683
-0.0887683
-0.0887683
-0.0887683
-0.0887683
)
;

boundaryField
{
    BotWall
    {
        type            calculated;
        value           nonuniform List<scalar> 5(0.251835 0.25184 0.251838 0.25184 0.251835);
    }
    FreeStream
    {
        type            calculated;
        value           nonuniform List<scalar> 5(-0.0895046 -0.0895046 -0.0895046 -0.0895046 -0.0895046);
    }
    FrontNBack
    {
        type            empty;
    }
    LeftSide
    {
        type            symmetryPlane;
    }
    RightSide
    {
        type            symmetryPlane;
    }
}


// ************************************************************************* //
