/*--------------------------------*- C++ -*----------------------------------*\
| =========                 |                                                 |
| \\      /  F ield         | OpenFOAM: The Open Source CFD Toolbox           |
|  \\    /   O peration     | Version:  2.4.0                                 |
|   \\  /    A nd           | Web:      www.OpenFOAM.org                      |
|    \\/     M anipulation  |                                                 |
\*---------------------------------------------------------------------------*/
FoamFile
{
    version     2.0;
    format      ascii;
    class       volScalarField;
    location    "0.5";
    object      p_rgh;
}
// * * * * * * * * * * * * * * * * * * * * * * * * * * * * * * * * * * * * * //

dimensions      [1 -1 -2 0 0 0 0];

internalField   nonuniform List<scalar> 
500
(
0.251835
0.25184
0.251838
0.25184
0.251835
0.237491
0.237488
0.237486
0.237488
0.23749
0.226451
0.226456
0.226454
0.226456
0.226451
0.296838
0.296882
0.29688
0.296882
0.296837
0.596851
0.596956
0.596952
0.596955
0.596848
0.868864
0.868879
0.868873
0.868877
0.868859
-0.95552
-0.955978
-0.955977
-0.955977
-0.955517
-8.3902
-8.39119
-8.39115
-8.39117
-8.39015
-16.3042
-16.3049
-16.3048
-16.3048
-16.304
-0.0141175
-0.0141171
-0.0141171
-0.0141171
-0.0141175
0.00444847
0.00444806
0.00444807
0.00444806
0.00444847
0.00145109
0.00145118
0.00145118
0.00145118
0.00145109
-3.01616e-05
-3.00795e-05
-3.0081e-05
-3.00798e-05
-3.01623e-05
-0.000218369
-0.00021837
-0.000218371
-0.00021837
-0.00021837
-0.000111237
-0.000111255
-0.000111257
-0.000111256
-0.000111237
-5.53546e-05
-5.53624e-05
-5.53636e-05
-5.53626e-05
-5.53548e-05
-4.86564e-05
-4.86568e-05
-4.8658e-05
-4.8657e-05
-4.86566e-05
-5.27646e-05
-5.27643e-05
-5.27655e-05
-5.27645e-05
-5.27648e-05
-5.48221e-05
-5.48228e-05
-5.4824e-05
-5.48229e-05
-5.48223e-05
-5.49396e-05
-5.49407e-05
-5.4942e-05
-5.49409e-05
-5.49398e-05
-5.46373e-05
-5.46385e-05
-5.46397e-05
-5.46386e-05
-5.46375e-05
-5.44165e-05
-5.44176e-05
-5.44188e-05
-5.44177e-05
-5.44166e-05
-5.42706e-05
-5.42717e-05
-5.42729e-05
-5.42718e-05
-5.42707e-05
-5.41394e-05
-5.41405e-05
-5.41418e-05
-5.41406e-05
-5.41396e-05
-5.40033e-05
-5.40044e-05
-5.40057e-05
-5.40046e-05
-5.40035e-05
-5.38626e-05
-5.38638e-05
-5.38651e-05
-5.38639e-05
-5.38628e-05
-5.37198e-05
-5.37209e-05
-5.37222e-05
-5.37211e-05
-5.37199e-05
-5.35755e-05
-5.35766e-05
-5.35779e-05
-5.35767e-05
-5.35756e-05
-5.34296e-05
-5.34308e-05
-5.34321e-05
-5.34309e-05
-5.34298e-05
-5.32822e-05
-5.32834e-05
-5.32846e-05
-5.32835e-05
-5.32823e-05
-5.31331e-05
-5.31343e-05
-5.31356e-05
-5.31344e-05
-5.31332e-05
-5.29824e-05
-5.29836e-05
-5.29848e-05
-5.29837e-05
-5.29825e-05
-5.283e-05
-5.28311e-05
-5.28324e-05
-5.28312e-05
-5.283e-05
-5.26758e-05
-5.2677e-05
-5.26783e-05
-5.26771e-05
-5.26759e-05
-5.25199e-05
-5.25212e-05
-5.25224e-05
-5.25212e-05
-5.252e-05
-5.23623e-05
-5.23635e-05
-5.23648e-05
-5.23636e-05
-5.23624e-05
-5.2203e-05
-5.22042e-05
-5.22054e-05
-5.22043e-05
-5.2203e-05
-5.20418e-05
-5.2043e-05
-5.20443e-05
-5.20431e-05
-5.20419e-05
-5.18789e-05
-5.18801e-05
-5.18813e-05
-5.18802e-05
-5.18789e-05
-5.17141e-05
-5.17153e-05
-5.17165e-05
-5.17154e-05
-5.17142e-05
-5.15475e-05
-5.15487e-05
-5.15499e-05
-5.15488e-05
-5.15475e-05
-5.1379e-05
-5.13802e-05
-5.13814e-05
-5.13803e-05
-5.13791e-05
-5.12087e-05
-5.12099e-05
-5.1211e-05
-5.12099e-05
-5.12087e-05
-5.10364e-05
-5.10376e-05
-5.10388e-05
-5.10377e-05
-5.10364e-05
-5.08623e-05
-5.08634e-05
-5.08646e-05
-5.08635e-05
-5.08623e-05
-5.06861e-05
-5.06873e-05
-5.06884e-05
-5.06873e-05
-5.06861e-05
-5.0508e-05
-5.05092e-05
-5.05103e-05
-5.05092e-05
-5.0508e-05
-5.0328e-05
-5.03291e-05
-5.03302e-05
-5.03291e-05
-5.03279e-05
-5.01459e-05
-5.0147e-05
-5.01481e-05
-5.0147e-05
-5.01458e-05
-4.99617e-05
-4.99629e-05
-4.99639e-05
-4.99629e-05
-4.99617e-05
-4.97756e-05
-4.97767e-05
-4.97777e-05
-4.97767e-05
-4.97755e-05
-4.95873e-05
-4.95884e-05
-4.95894e-05
-4.95884e-05
-4.95872e-05
-4.93969e-05
-4.9398e-05
-4.9399e-05
-4.9398e-05
-4.93969e-05
-4.92044e-05
-4.92055e-05
-4.92065e-05
-4.92055e-05
-4.92044e-05
-4.90098e-05
-4.90108e-05
-4.90118e-05
-4.90108e-05
-4.90097e-05
-4.8813e-05
-4.8814e-05
-4.8815e-05
-4.8814e-05
-4.88129e-05
-4.8614e-05
-4.8615e-05
-4.86159e-05
-4.8615e-05
-4.86139e-05
-4.84128e-05
-4.84137e-05
-4.84147e-05
-4.84137e-05
-4.84127e-05
-4.82093e-05
-4.82102e-05
-4.82112e-05
-4.82102e-05
-4.82092e-05
-4.80035e-05
-4.80045e-05
-4.80054e-05
-4.80045e-05
-4.80034e-05
-4.77955e-05
-4.77964e-05
-4.77973e-05
-4.77964e-05
-4.77954e-05
-4.75851e-05
-4.7586e-05
-4.75869e-05
-4.7586e-05
-4.7585e-05
-4.73724e-05
-4.73733e-05
-4.73741e-05
-4.73733e-05
-4.73723e-05
-4.71573e-05
-4.71582e-05
-4.7159e-05
-4.71581e-05
-4.71572e-05
-4.69398e-05
-4.69407e-05
-4.69415e-05
-4.69406e-05
-4.69397e-05
-4.67199e-05
-4.67207e-05
-4.67215e-05
-4.67207e-05
-4.67198e-05
-4.64975e-05
-4.64983e-05
-4.64991e-05
-4.64983e-05
-4.64974e-05
-4.62727e-05
-4.62735e-05
-4.62742e-05
-4.62734e-05
-4.62726e-05
-4.60453e-05
-4.60461e-05
-4.60468e-05
-4.6046e-05
-4.60452e-05
-4.58154e-05
-4.58162e-05
-4.58168e-05
-4.58161e-05
-4.58153e-05
-4.5583e-05
-4.55837e-05
-4.55843e-05
-4.55836e-05
-4.55828e-05
-4.53479e-05
-4.53486e-05
-4.53492e-05
-4.53485e-05
-4.53478e-05
-4.51103e-05
-4.51109e-05
-4.51115e-05
-4.51108e-05
-4.51101e-05
-4.48699e-05
-4.48705e-05
-4.48711e-05
-4.48705e-05
-4.48698e-05
-4.46269e-05
-4.46275e-05
-4.4628e-05
-4.46274e-05
-4.46267e-05
-4.43812e-05
-4.43818e-05
-4.43823e-05
-4.43817e-05
-4.4381e-05
-4.41328e-05
-4.41333e-05
-4.41338e-05
-4.41332e-05
-4.41326e-05
-4.38815e-05
-4.3882e-05
-4.38825e-05
-4.38819e-05
-4.38813e-05
-4.36275e-05
-4.3628e-05
-4.36284e-05
-4.36279e-05
-4.36273e-05
-4.33706e-05
-4.33711e-05
-4.33715e-05
-4.3371e-05
-4.33704e-05
-4.31109e-05
-4.31113e-05
-4.31117e-05
-4.31112e-05
-4.31107e-05
-4.28483e-05
-4.28487e-05
-4.2849e-05
-4.28485e-05
-4.28481e-05
-4.25827e-05
-4.25831e-05
-4.25834e-05
-4.2583e-05
-4.25825e-05
-4.23142e-05
-4.23145e-05
-4.23148e-05
-4.23144e-05
-4.2314e-05
-4.20427e-05
-4.2043e-05
-4.20433e-05
-4.20429e-05
-4.20425e-05
-4.17682e-05
-4.17684e-05
-4.17687e-05
-4.17683e-05
-4.17679e-05
-4.14906e-05
-4.14908e-05
-4.1491e-05
-4.14907e-05
-4.14903e-05
-4.12099e-05
-4.12101e-05
-4.12103e-05
-4.121e-05
-4.12097e-05
-4.09261e-05
-4.09262e-05
-4.09264e-05
-4.09261e-05
-4.09258e-05
-4.06391e-05
-4.06392e-05
-4.06393e-05
-4.06391e-05
-4.06388e-05
-4.03489e-05
-4.0349e-05
-4.03491e-05
-4.03489e-05
-4.03487e-05
-4.00555e-05
-4.00556e-05
-4.00556e-05
-4.00554e-05
-4.00552e-05
-3.97588e-05
-3.97589e-05
-3.97589e-05
-3.97587e-05
-3.97586e-05
-3.94588e-05
-3.94588e-05
-3.94588e-05
-3.94587e-05
-3.94586e-05
-3.91555e-05
-3.91555e-05
-3.91554e-05
-3.91553e-05
-3.91552e-05
-3.88488e-05
-3.88487e-05
-3.88487e-05
-3.88485e-05
-3.88485e-05
-3.85387e-05
-3.85386e-05
-3.85385e-05
-3.85384e-05
-3.85384e-05
-3.82251e-05
-3.8225e-05
-3.82248e-05
-3.82248e-05
-3.82248e-05
-3.7908e-05
-3.79078e-05
-3.79076e-05
-3.79076e-05
-3.79077e-05
-3.75868e-05
-3.75866e-05
-3.75865e-05
-3.75865e-05
-3.75865e-05
)
;

boundaryField
{
    BotWall
    {
        type            fixedFluxPressure;
        gradient        uniform 0;
        value           nonuniform List<scalar> 5(0.251835 0.25184 0.251838 0.25184 0.251835);
    }
    FreeStream
    {
        type            totalPressure;
        rho             rho;
        psi             none;
        gamma           1;
        p0              uniform 0;
        value           nonuniform List<scalar> 5(-3.74251e-05 -3.7425e-05 -3.74249e-05 -3.74249e-05 -3.74249e-05);
    }
    FrontNBack
    {
        type            empty;
    }
    LeftSide
    {
        type            symmetryPlane;
    }
    RightSide
    {
        type            symmetryPlane;
    }
}


// ************************************************************************* //
