/*--------------------------------*- C++ -*----------------------------------*\
| =========                 |                                                 |
| \\      /  F ield         | OpenFOAM: The Open Source CFD Toolbox           |
|  \\    /   O peration     | Version:  2.4.0                                 |
|   \\  /    A nd           | Web:      www.OpenFOAM.org                      |
|    \\/     M anipulation  |                                                 |
\*---------------------------------------------------------------------------*/
FoamFile
{
    version     2.0;
    format      ascii;
    class       surfaceScalarField;
    location    "0.5";
    object      phi;
}
// * * * * * * * * * * * * * * * * * * * * * * * * * * * * * * * * * * * * * //

dimensions      [0 3 -1 0 0 0 0];

internalField   nonuniform List<scalar> 
895
(
8.37862e-19
-8.37897e-19
3.96037e-19
4.41835e-19
-4.58943e-19
8.54745e-19
-9.01152e-19
4.42286e-19
-9.01301e-19
2.56481e-18
-3.40189e-18
1.20727e-18
1.80069e-18
-1.39893e-18
3.46278e-18
-2.75813e-18
1.80292e-18
-3.65842e-18
4.33337e-18
-7.73433e-18
2.04129e-18
4.09417e-18
-2.3662e-18
7.87213e-18
-4.66165e-18
4.09978e-18
-8.31914e-18
6.16679e-18
-1.39002e-17
2.91755e-18
7.34478e-18
-3.38027e-18
1.41717e-17
-6.63486e-18
7.35565e-18
-1.49532e-17
8.05227e-18
-2.19515e-17
3.82613e-18
1.15721e-17
-4.43156e-18
2.24309e-17
-8.66475e-18
1.15899e-17
-2.36173e-17
1.01417e-17
-3.20926e-17
4.77718e-18
1.69375e-17
-5.53104e-18
3.27402e-17
-1.09045e-17
1.6964e-17
-3.45214e-17
1.24682e-17
-4.45604e-17
5.66577e-18
2.37404e-17
-6.57487e-18
4.49814e-17
-1.3392e-17
2.37815e-17
-4.79132e-17
1.48195e-17
-2.07582e-16
6.41009e-18
3.21499e-17
-7.47574e-18
5.88668e-17
-1.59229e-17
3.22291e-17
-2.23165e-16
1.69105e-17
-5.72968e-10
6.95113e-18
-5.72969e-10
-8.18887e-18
-5.72969e-10
-1.82762e-17
-5.72969e-10
-5.72968e-10
1.71875e-17
-5.72968e-10
8.04188e-18
-5.72969e-10
-9.37233e-18
-5.72969e-10
-1.85446e-17
-5.72969e-10
-5.72968e-10
2.30854e-17
-5.72968e-10
7.33171e-18
-5.72969e-10
-7.71096e-18
-5.72969e-10
-2.39116e-17
-5.72969e-10
-5.72968e-10
1.40469e-17
-5.72968e-10
7.57216e-18
-5.72969e-10
-6.932e-18
-5.72969e-10
-1.42015e-17
-5.72969e-10
-5.72968e-10
1.17148e-17
-5.72968e-10
6.52926e-18
-5.72969e-10
-4.85912e-18
-5.72969e-10
-1.12163e-17
-5.72969e-10
-5.72968e-10
1.12037e-17
-5.72968e-10
5.61414e-18
-5.72969e-10
-2.91195e-18
-5.72969e-10
-1.00617e-17
-5.72969e-10
-5.72968e-10
1.00693e-17
-5.72968e-10
5.01119e-18
-5.72969e-10
-1.2756e-18
-5.72969e-10
-8.28427e-18
-5.72969e-10
-5.72968e-10
8.44551e-18
-5.72968e-10
4.48001e-18
-5.72969e-10
2.91043e-19
-5.72969e-10
-6.01605e-18
-5.72969e-10
-5.72968e-10
6.8578e-18
-5.72968e-10
3.94086e-18
-5.72969e-10
1.86711e-18
-5.72969e-10
-3.78334e-18
-5.72969e-10
-5.72968e-10
5.4435e-18
-5.72968e-10
3.42392e-18
-5.72969e-10
3.42131e-18
-5.72969e-10
-1.7246e-18
-5.72969e-10
-5.72968e-10
4.15716e-18
-5.72968e-10
2.95772e-18
-5.72969e-10
4.92397e-18
-5.72969e-10
2.04828e-19
-5.72969e-10
-5.72968e-10
2.96077e-18
-5.72968e-10
2.54809e-18
-5.72969e-10
6.36812e-18
-5.72969e-10
2.04224e-18
-5.72969e-10
-5.72968e-10
1.85012e-18
-5.72968e-10
2.19299e-18
-5.72969e-10
7.7547e-18
-5.72969e-10
3.79118e-18
-5.72969e-10
-5.72968e-10
8.31614e-19
-5.72968e-10
1.89135e-18
-5.72969e-10
9.08363e-18
-5.72969e-10
5.44449e-18
-5.72969e-10
-5.72968e-10
-9.00671e-20
-5.72968e-10
1.64379e-18
-5.72969e-10
1.03532e-17
-5.72969e-10
6.99679e-18
-5.72969e-10
-5.72968e-10
-9.12752e-19
-5.72968e-10
1.45127e-18
-5.72969e-10
1.15612e-17
-5.72969e-10
8.44518e-18
-5.72969e-10
-5.72968e-10
-1.6351e-18
-5.72968e-10
1.3145e-18
-5.72969e-10
1.27058e-17
-5.72969e-10
9.7876e-18
-5.72969e-10
-5.72968e-10
-2.25591e-18
-5.72968e-10
1.23395e-18
-5.72969e-10
1.37854e-17
-5.72969e-10
1.10221e-17
-5.72969e-10
-5.72968e-10
-2.77412e-18
-5.72968e-10
1.20991e-18
-5.72969e-10
1.47986e-17
-5.72969e-10
1.2147e-17
-5.72969e-10
-5.72968e-10
-3.18897e-18
-5.72968e-10
1.2425e-18
-5.72969e-10
1.5744e-17
-5.72969e-10
1.31608e-17
-5.72969e-10
-5.72968e-10
-3.49999e-18
-5.72968e-10
1.33167e-18
-5.72969e-10
1.66207e-17
-5.72969e-10
1.40623e-17
-5.72969e-10
-5.72968e-10
-3.70713e-18
-5.72968e-10
1.47721e-18
-5.72969e-10
1.74277e-17
-5.72969e-10
1.48509e-17
-5.72969e-10
-5.72968e-10
-3.81067e-18
-5.72968e-10
1.67868e-18
-5.72969e-10
1.81644e-17
-5.72969e-10
1.55262e-17
-5.72969e-10
-5.72968e-10
-3.81129e-18
-5.72968e-10
1.93546e-18
-5.72969e-10
1.88303e-17
-5.72969e-10
1.60882e-17
-5.72969e-10
-5.72968e-10
-3.71008e-18
-5.72968e-10
2.24669e-18
-5.72969e-10
1.94252e-17
-5.72969e-10
1.65375e-17
-5.72969e-10
-5.72968e-10
-3.50852e-18
-5.72968e-10
2.61134e-18
-5.72969e-10
1.99494e-17
-5.72969e-10
1.6875e-17
-5.72969e-10
-5.72968e-10
-3.20855e-18
-5.72968e-10
3.02812e-18
-5.72969e-10
2.04029e-17
-5.7297e-10
1.71022e-17
-5.72969e-10
-5.72968e-10
-2.81253e-18
-5.72968e-10
3.49554e-18
-5.7297e-10
2.07866e-17
-5.7297e-10
1.72208e-17
-5.72969e-10
-5.72968e-10
-2.32323e-18
-5.72968e-10
4.01188e-18
-5.7297e-10
2.11011e-17
-5.7297e-10
1.72332e-17
-5.72969e-10
-5.72968e-10
-1.74389e-18
-5.72968e-10
4.57518e-18
-5.7297e-10
2.13477e-17
-5.7297e-10
1.71423e-17
-5.72969e-10
-5.72968e-10
-1.07817e-18
-5.72968e-10
5.18329e-18
-5.7297e-10
2.15278e-17
-5.7297e-10
1.69513e-17
-5.72969e-10
-5.72968e-10
-3.30124e-19
-5.72968e-10
5.83382e-18
-5.7297e-10
2.1643e-17
-5.7297e-10
1.66641e-17
-5.72969e-10
-5.72968e-10
4.95749e-19
-5.72968e-10
6.5242e-18
-5.7297e-10
2.16952e-17
-5.7297e-10
1.62846e-17
-5.72969e-10
-5.72968e-10
1.39458e-18
-5.72968e-10
7.25162e-18
-5.7297e-10
2.16868e-17
-5.7297e-10
1.58177e-17
-5.72969e-10
-5.72968e-10
2.36112e-18
-5.72968e-10
8.01312e-18
-5.7297e-10
2.16201e-17
-5.7297e-10
1.52683e-17
-5.72969e-10
-5.72968e-10
3.3898e-18
-5.72968e-10
8.80555e-18
-5.7297e-10
2.14977e-17
-5.7297e-10
1.46418e-17
-5.72969e-10
-5.72968e-10
4.4747e-18
-5.72968e-10
9.6256e-18
-5.7297e-10
2.13226e-17
-5.7297e-10
1.39441e-17
-5.72969e-10
-5.72968e-10
5.60967e-18
-5.72968e-10
1.04698e-17
-5.7297e-10
2.10979e-17
-5.7297e-10
1.31812e-17
-5.72969e-10
-5.72968e-10
6.78828e-18
-5.72968e-10
1.13346e-17
-5.7297e-10
2.08269e-17
-5.7297e-10
1.23594e-17
-5.72969e-10
-5.72968e-10
8.00393e-18
-5.72968e-10
1.22163e-17
-5.7297e-10
2.05129e-17
-5.7297e-10
1.14853e-17
-5.72969e-10
-5.72968e-10
9.24984e-18
-5.72968e-10
1.31112e-17
-5.7297e-10
2.01595e-17
-5.7297e-10
1.05658e-17
-5.72969e-10
-5.72968e-10
1.05192e-17
-5.72968e-10
1.40155e-17
-5.7297e-10
1.97704e-17
-5.7297e-10
9.60762e-18
-5.72969e-10
-5.72968e-10
1.1805e-17
-5.72968e-10
1.49252e-17
-5.7297e-10
1.93493e-17
-5.7297e-10
8.61788e-18
-5.72969e-10
-5.72968e-10
1.31003e-17
-5.72968e-10
1.58367e-17
-5.7297e-10
1.89e-17
-5.7297e-10
7.60354e-18
-5.72969e-10
-5.72968e-10
1.43984e-17
-5.72969e-10
1.6746e-17
-5.7297e-10
1.84264e-17
-5.7297e-10
6.57158e-18
-5.72969e-10
-5.72968e-10
1.56924e-17
-5.72969e-10
1.76494e-17
-5.7297e-10
1.79321e-17
-5.7297e-10
5.52889e-18
-5.72969e-10
-5.72968e-10
1.69757e-17
-5.72969e-10
1.85433e-17
-5.7297e-10
1.74211e-17
-5.7297e-10
4.4822e-18
-5.72969e-10
-5.72968e-10
1.8242e-17
-5.72969e-10
1.9424e-17
-5.7297e-10
1.68969e-17
-5.7297e-10
3.43807e-18
-5.72969e-10
-5.72968e-10
1.9485e-17
-5.72969e-10
2.02881e-17
-5.7297e-10
1.63632e-17
-5.7297e-10
2.4028e-18
-5.72969e-10
-5.72968e-10
2.0699e-17
-5.72969e-10
2.11323e-17
-5.7297e-10
1.58235e-17
-5.7297e-10
1.38237e-18
-5.72969e-10
-5.72968e-10
2.18786e-17
-5.72969e-10
2.19535e-17
-5.7297e-10
1.52811e-17
-5.7297e-10
3.8242e-19
-5.72969e-10
-5.72968e-10
2.30186e-17
-5.72969e-10
2.27488e-17
-5.7297e-10
1.47392e-17
-5.7297e-10
-5.91792e-19
-5.72969e-10
-5.72968e-10
2.41144e-17
-5.72969e-10
2.35156e-17
-5.7297e-10
1.42007e-17
-5.7297e-10
-1.53546e-18
-5.72969e-10
-5.72968e-10
2.5162e-17
-5.72969e-10
2.42513e-17
-5.7297e-10
1.36683e-17
-5.7297e-10
-2.44423e-18
-5.72969e-10
-5.72968e-10
2.61576e-17
-5.72969e-10
2.49538e-17
-5.7297e-10
1.31447e-17
-5.7297e-10
-3.31425e-18
-5.72969e-10
-5.72968e-10
2.70981e-17
-5.72969e-10
2.56213e-17
-5.7297e-10
1.26322e-17
-5.7297e-10
-4.1422e-18
-5.72969e-10
-5.72968e-10
2.79809e-17
-5.72969e-10
2.6252e-17
-5.7297e-10
1.21328e-17
-5.7297e-10
-4.92527e-18
-5.72969e-10
-5.72968e-10
2.88041e-17
-5.72969e-10
2.68448e-17
-5.7297e-10
1.16482e-17
-5.7297e-10
-5.66121e-18
-5.72969e-10
-5.72968e-10
2.95661e-17
-5.72969e-10
2.73985e-17
-5.7297e-10
1.11801e-17
-5.7297e-10
-6.34831e-18
-5.72969e-10
-5.72968e-10
3.02662e-17
-5.72969e-10
2.79124e-17
-5.7297e-10
1.07298e-17
-5.7297e-10
-6.98541e-18
-5.72969e-10
-5.72968e-10
3.09039e-17
-5.72969e-10
2.83862e-17
-5.7297e-10
1.02982e-17
-5.7297e-10
-7.57189e-18
-5.72969e-10
-5.72968e-10
3.14794e-17
-5.72969e-10
2.88198e-17
-5.7297e-10
9.88629e-18
-5.7297e-10
-8.10765e-18
-5.72969e-10
-5.72968e-10
3.19936e-17
-5.72969e-10
2.92132e-17
-5.7297e-10
9.49456e-18
-5.7297e-10
-8.59308e-18
-5.72969e-10
-5.72968e-10
3.24476e-17
-5.72969e-10
2.95671e-17
-5.7297e-10
9.12339e-18
-5.7297e-10
-9.02905e-18
-5.72969e-10
-5.72968e-10
3.28432e-17
-5.72969e-10
2.98822e-17
-5.7297e-10
8.77294e-18
-5.72969e-10
-9.41686e-18
-5.72969e-10
-5.72968e-10
3.31827e-17
-5.72969e-10
3.01595e-17
-5.7297e-10
8.44319e-18
-5.72969e-10
-9.75823e-18
-5.72969e-10
-5.72968e-10
3.34685e-17
-5.72969e-10
3.04004e-17
-5.7297e-10
8.13395e-18
-5.72969e-10
-1.00552e-17
-5.72969e-10
-5.72968e-10
3.37039e-17
-5.72969e-10
3.06065e-17
-5.7297e-10
7.84488e-18
-5.72969e-10
-1.03103e-17
-5.72969e-10
-5.72968e-10
3.3892e-17
-5.72969e-10
3.07795e-17
-5.7297e-10
7.57553e-18
-5.72969e-10
-1.05261e-17
-5.72969e-10
-5.72968e-10
3.40366e-17
-5.72969e-10
3.09216e-17
-5.7297e-10
7.32534e-18
-5.72969e-10
-1.07055e-17
-5.72969e-10
-5.72968e-10
3.41416e-17
-5.72969e-10
3.10349e-17
-5.7297e-10
7.09367e-18
-5.72969e-10
-1.08517e-17
-5.72969e-10
-5.72968e-10
3.42112e-17
-5.72969e-10
3.1122e-17
-5.7297e-10
6.87984e-18
-5.72969e-10
-1.09678e-17
-5.72969e-10
-5.72968e-10
3.42498e-17
-5.72969e-10
3.11855e-17
-5.7297e-10
6.68313e-18
-5.72969e-10
-1.10572e-17
-5.72969e-10
-5.72968e-10
3.42618e-17
-5.72969e-10
3.12282e-17
-5.7297e-10
6.5028e-18
-5.72969e-10
-1.11232e-17
-5.72969e-10
-5.72968e-10
3.42519e-17
-5.72969e-10
3.12531e-17
-5.7297e-10
6.33814e-18
-5.72969e-10
-1.11692e-17
-5.72969e-10
-5.72968e-10
3.42248e-17
-5.72969e-10
3.12634e-17
-5.7297e-10
6.18845e-18
-5.72969e-10
-1.11985e-17
-5.72969e-10
-5.72968e-10
3.41852e-17
-5.72969e-10
3.12623e-17
-5.7297e-10
6.0531e-18
-5.72969e-10
-1.12143e-17
-5.72969e-10
-5.72968e-10
3.41378e-17
-5.72969e-10
3.12534e-17
-5.7297e-10
5.9315e-18
-5.72969e-10
-1.12197e-17
-5.72969e-10
-5.72968e-10
3.40873e-17
-5.7297e-10
3.124e-17
-5.7297e-10
5.82316e-18
-5.72969e-10
-1.12177e-17
-5.72969e-10
-5.72968e-10
3.40386e-17
-5.7297e-10
3.12259e-17
-5.7297e-10
5.72765e-18
-5.72969e-10
-1.1211e-17
-5.72969e-10
-5.72968e-10
3.39962e-17
-5.7297e-10
3.12148e-17
-5.7297e-10
5.64465e-18
-5.72969e-10
-1.12023e-17
-5.72969e-10
-5.72968e-10
3.39647e-17
-5.7297e-10
3.12106e-17
-5.7297e-10
5.57392e-18
-5.72969e-10
-1.11941e-17
-5.72969e-10
-5.72968e-10
3.39488e-17
-5.7297e-10
3.12174e-17
-5.7297e-10
5.51533e-18
-5.72969e-10
-1.11885e-17
-5.72969e-10
-5.72968e-10
3.39529e-17
-5.7297e-10
3.12392e-17
-5.7297e-10
5.4688e-18
-5.72969e-10
-1.11877e-17
-5.72969e-10
-5.72968e-10
3.39817e-17
-5.7297e-10
3.12803e-17
-5.7297e-10
5.43436e-18
-5.72969e-10
-1.11938e-17
-5.72969e-10
-5.72968e-10
3.40396e-17
-5.7297e-10
3.1345e-17
-5.7297e-10
5.41207e-18
-5.72969e-10
-1.12084e-17
-5.72969e-10
-5.72968e-10
3.41312e-17
-5.7297e-10
3.14377e-17
-5.7297e-10
5.40206e-18
-5.72969e-10
-1.12336e-17
-5.72968e-10
-5.72968e-10
3.4261e-17
-5.7297e-10
3.1563e-17
-5.7297e-10
5.4045e-18
-5.72969e-10
-1.12708e-17
-5.72968e-10
-5.72968e-10
3.44334e-17
-5.7297e-10
3.17255e-17
-5.72969e-10
5.41962e-18
-5.72969e-10
-1.13218e-17
-5.72968e-10
-5.72968e-10
3.46537e-17
-5.7297e-10
3.19305e-17
-5.72969e-10
5.44739e-18
-5.72969e-10
-1.13886e-17
-5.72968e-10
-5.72968e-10
3.49315e-17
-5.7297e-10
3.21858e-17
-5.72969e-10
5.48653e-18
-5.72969e-10
-1.14768e-17
-5.72968e-10
-5.72968e-10
3.52713e-17
3.24944e-17
5.53553e-18
-1.15897e-17
)
;

boundaryField
{
    BotWall
    {
        type            calculated;
        value           nonuniform List<scalar> 5(-2.35576e-24 4.91182e-23 8.34775e-23 6.15042e-23 -4.71541e-24);
    }
    FreeStream
    {
        type            calculated;
        value           nonuniform List<scalar> 5(-5.7297e-10 -5.72969e-10 -5.72969e-10 -5.72968e-10 -5.72968e-10);
    }
    FrontNBack
    {
        type            empty;
        value           nonuniform 0();
    }
    LeftSide
    {
        type            symmetryPlane;
        value           uniform 0;
    }
    RightSide
    {
        type            symmetryPlane;
        value           uniform 0;
    }
}


// ************************************************************************* //
