/*--------------------------------*- C++ -*----------------------------------*\
| =========                 |                                                 |
| \\      /  F ield         | OpenFOAM: The Open Source CFD Toolbox           |
|  \\    /   O peration     | Version:  2.4.0                                 |
|   \\  /    A nd           | Web:      www.OpenFOAM.org                      |
|    \\/     M anipulation  |                                                 |
\*---------------------------------------------------------------------------*/
FoamFile
{
    version     2.0;
    format      ascii;
    class       volVectorField;
    location    "0.5";
    object      U;
}
// * * * * * * * * * * * * * * * * * * * * * * * * * * * * * * * * * * * * * //

dimensions      [0 1 -1 0 0 0 0];

internalField   nonuniform List<vector> 
500
(
(3.1472e-10 1.00293e-08 0)
(2.96903e-10 1.00391e-08 0)
(-9.06437e-12 1.00394e-08 0)
(-3.24582e-10 1.00391e-08 0)
(-3.33269e-10 1.00292e-08 0)
(9.51344e-10 -1.28855e-07 0)
(8.97117e-10 -1.29027e-07 0)
(-2.72967e-11 -1.29022e-07 0)
(-9.80613e-10 -1.29026e-07 0)
(-1.00735e-09 -1.28855e-07 0)
(1.59138e-09 -5.86892e-07 0)
(1.49944e-09 -5.86952e-07 0)
(-4.57315e-11 -5.86937e-07 0)
(-1.63954e-09 -5.86951e-07 0)
(-1.68543e-09 -5.8689e-07 0)
(2.24557e-09 -7.74178e-07 0)
(2.11428e-09 -7.74123e-07 0)
(-6.43519e-11 -7.74092e-07 0)
(-2.31175e-09 -7.74121e-07 0)
(-2.37825e-09 -7.74175e-07 0)
(2.90818e-09 3.22554e-06 0)
(2.73542e-09 3.22772e-06 0)
(-8.31691e-11 3.22775e-06 0)
(-2.99105e-09 3.22772e-06 0)
(-3.08009e-09 3.22552e-06 0)
(3.6074e-09 1.63661e-05 0)
(3.39092e-09 1.63698e-05 0)
(-1.02272e-10 1.63698e-05 0)
(-3.70584e-09 1.63697e-05 0)
(-3.81942e-09 1.63659e-05 0)
(4.3187e-09 1.69399e-05 0)
(4.05421e-09 1.69396e-05 0)
(-1.21904e-10 1.69395e-05 0)
(-4.4304e-09 1.69395e-05 0)
(-4.57229e-09 1.69397e-05 0)
(4.97399e-09 -6.87642e-05 0)
(4.66142e-09 -6.87827e-05 0)
(-1.41742e-10 -6.87823e-05 0)
(-5.09995e-09 -6.87826e-05 0)
(-5.27004e-09 -6.87638e-05 0)
(5.53742e-09 -0.000542746 0)
(5.16687e-09 -0.000542789 0)
(-1.65213e-10 -0.000542787 0)
(-5.67991e-09 -0.000542788 0)
(-5.88449e-09 -0.000542743 0)
(5.86364e-09 -0.00221447 0)
(5.47563e-09 -0.00221445 0)
(-1.71852e-10 -0.00221445 0)
(-6.00953e-09 -0.00221445 0)
(-6.22493e-09 -0.00221448 0)
(6.61203e-09 -0.0050916 0)
(6.02136e-09 -0.00509157 0)
(2.19974e-12 -0.00509157 0)
(-6.28e-09 -0.00509157 0)
(-6.87357e-09 -0.0050916 0)
(5.18815e-09 -0.00293783 0)
(4.42239e-09 -0.00293791 0)
(1.8382e-10 -0.00293791 0)
(-4.37809e-09 -0.00293791 0)
(-5.32986e-09 -0.00293783 0)
(4.46144e-09 -0.00273977 0)
(3.53268e-09 -0.00273978 0)
(3.62237e-10 -0.00273978 0)
(-3.19136e-09 -0.00273978 0)
(-4.48606e-09 -0.00273977 0)
(4.07669e-09 -0.00280089 0)
(2.99451e-09 -0.00280088 0)
(5.36958e-10 -0.00280088 0)
(-2.36342e-09 -0.00280088 0)
(-3.9878e-09 -0.00280088 0)
(3.69447e-09 -0.00286002 0)
(2.46934e-09 -0.00286002 0)
(7.08195e-10 -0.00286002 0)
(-1.55489e-09 -0.00286002 0)
(-3.495e-09 -0.00286002 0)
(3.26047e-09 -0.00287044 0)
(1.90335e-09 -0.00287044 0)
(8.76065e-10 -0.00287044 0)
(-7.11387e-10 -0.00287044 0)
(-2.95293e-09 -0.00287044 0)
(2.83246e-09 -0.00286736 0)
(1.35429e-09 -0.00286737 0)
(1.04048e-09 -0.00286737 0)
(1.09218e-10 -0.00286737 0)
(-2.41936e-09 -0.00286736 0)
(2.4403e-09 -0.00286504 0)
(8.51913e-10 -0.00286504 0)
(1.20129e-09 -0.00286504 0)
(8.76932e-10 -0.00286504 0)
(-1.92427e-09 -0.00286504 0)
(2.08466e-09 -0.00286461 0)
(3.9675e-10 -0.00286462 0)
(1.35839e-09 -0.00286462 0)
(1.591e-09 -0.00286462 0)
(-1.46841e-09 -0.00286461 0)
(1.76053e-09 -0.00286474 0)
(-1.63358e-11 -0.00286475 0)
(1.51164e-09 -0.00286474 0)
(2.25637e-09 -0.00286474 0)
(-1.04684e-09 -0.00286474 0)
(1.46571e-09 -0.00286483 0)
(-3.89663e-10 -0.00286484 0)
(1.66095e-09 -0.00286484 0)
(2.87519e-09 -0.00286484 0)
(-6.57439e-10 -0.00286483 0)
(1.19996e-09 -0.00286485 0)
(-7.23642e-10 -0.00286486 0)
(1.80621e-09 -0.00286486 0)
(3.4477e-09 -0.00286486 0)
(-3.00005e-10 -0.00286485 0)
(9.63215e-10 -0.00286485 0)
(-1.01847e-09 -0.00286485 0)
(1.94732e-09 -0.00286485 0)
(3.97394e-09 -0.00286485 0)
(2.54502e-11 -0.00286485 0)
(7.55189e-10 -0.00286484 0)
(-1.27463e-09 -0.00286485 0)
(2.08418e-09 -0.00286485 0)
(4.45425e-09 -0.00286485 0)
(3.19177e-10 -0.00286484 0)
(5.75401e-10 -0.00286484 0)
(-1.49278e-09 -0.00286485 0)
(2.21669e-09 -0.00286485 0)
(4.88913e-09 -0.00286485 0)
(5.81607e-10 -0.00286484 0)
(4.23294e-10 -0.00286484 0)
(-1.67367e-09 -0.00286485 0)
(2.34478e-09 -0.00286485 0)
(5.27922e-09 -0.00286485 0)
(8.13258e-10 -0.00286484 0)
(2.98259e-10 -0.00286484 0)
(-1.81812e-09 -0.00286485 0)
(2.46837e-09 -0.00286485 0)
(5.62524e-09 -0.00286485 0)
(1.01471e-09 -0.00286484 0)
(1.99621e-10 -0.00286484 0)
(-1.92704e-09 -0.00286485 0)
(2.58738e-09 -0.00286485 0)
(5.92796e-09 -0.00286485 0)
(1.1866e-09 -0.00286484 0)
(1.26639e-10 -0.00286484 0)
(-2.00138e-09 -0.00286485 0)
(2.70175e-09 -0.00286485 0)
(6.18828e-09 -0.00286485 0)
(1.32965e-09 -0.00286484 0)
(7.84982e-11 -0.00286484 0)
(-2.04223e-09 -0.00286485 0)
(2.81142e-09 -0.00286485 0)
(6.40719e-09 -0.00286485 0)
(1.44468e-09 -0.00286484 0)
(5.43133e-11 -0.00286484 0)
(-2.0507e-09 -0.00286485 0)
(2.91634e-09 -0.00286485 0)
(6.58577e-09 -0.00286485 0)
(1.53254e-09 -0.00286484 0)
(5.31272e-11 -0.00286484 0)
(-2.02804e-09 -0.00286485 0)
(3.01648e-09 -0.00286485 0)
(6.72521e-09 -0.00286485 0)
(1.5942e-09 -0.00286484 0)
(7.39134e-11 -0.00286484 0)
(-1.97554e-09 -0.00286485 0)
(3.11179e-09 -0.00286485 0)
(6.82678e-09 -0.00286485 0)
(1.6307e-09 -0.00286484 0)
(1.15577e-10 -0.00286484 0)
(-1.89459e-09 -0.00286485 0)
(3.20226e-09 -0.00286485 0)
(6.89184e-09 -0.00286485 0)
(1.64314e-09 -0.00286484 0)
(1.76957e-10 -0.00286484 0)
(-1.78665e-09 -0.00286485 0)
(3.28786e-09 -0.00286485 0)
(6.92188e-09 -0.00286485 0)
(1.63271e-09 -0.00286484 0)
(2.56831e-10 -0.00286484 0)
(-1.65323e-09 -0.00286485 0)
(3.3686e-09 -0.00286485 0)
(6.91843e-09 -0.00286485 0)
(1.60065e-09 -0.00286484 0)
(3.53917e-10 -0.00286484 0)
(-1.49595e-09 -0.00286485 0)
(3.44446e-09 -0.00286485 0)
(6.88313e-09 -0.00286485 0)
(1.54828e-09 -0.00286484 0)
(4.66881e-10 -0.00286484 0)
(-1.31646e-09 -0.00286485 0)
(3.51547e-09 -0.00286485 0)
(6.8177e-09 -0.00286485 0)
(1.47699e-09 -0.00286484 0)
(5.94338e-10 -0.00286484 0)
(-1.11648e-09 -0.00286485 0)
(3.58164e-09 -0.00286485 0)
(6.72391e-09 -0.00286485 0)
(1.38819e-09 -0.00286484 0)
(7.34863e-10 -0.00286484 0)
(-8.97772e-10 -0.00286485 0)
(3.64299e-09 -0.00286485 0)
(6.60362e-09 -0.00286485 0)
(1.28338e-09 -0.00286484 0)
(8.86996e-10 -0.00286484 0)
(-6.6214e-10 -0.00286485 0)
(3.69958e-09 -0.00286485 0)
(6.45873e-09 -0.00286485 0)
(1.16407e-09 -0.00286484 0)
(1.04925e-09 -0.00286484 0)
(-4.11428e-10 -0.00286485 0)
(3.75143e-09 -0.00286485 0)
(6.29118e-09 -0.00286485 0)
(1.03182e-09 -0.00286484 0)
(1.22011e-09 -0.00286484 0)
(-1.475e-10 -0.00286485 0)
(3.7986e-09 -0.00286485 0)
(6.10297e-09 -0.00286485 0)
(8.88198e-10 -0.00286484 0)
(1.39807e-09 -0.00286484 0)
(1.27762e-10 -0.00286485 0)
(3.84116e-09 -0.00286485 0)
(5.89612e-09 -0.00286485 0)
(7.34803e-10 -0.00286484 0)
(1.58161e-09 -0.00286484 0)
(4.1247e-10 -0.00286485 0)
(3.87916e-09 -0.00286485 0)
(5.67265e-09 -0.00286485 0)
(5.73233e-10 -0.00286484 0)
(1.7692e-09 -0.00286484 0)
(7.04742e-10 -0.00286485 0)
(3.91269e-09 -0.00286485 0)
(5.43461e-09 -0.00286485 0)
(4.0508e-10 -0.00286484 0)
(1.95937e-09 -0.00286484 0)
(1.00271e-09 -0.00286485 0)
(3.94182e-09 -0.00286485 0)
(5.18403e-09 -0.00286485 0)
(2.31923e-10 -0.00286484 0)
(2.15063e-09 -0.00286484 0)
(1.30452e-09 -0.00286485 0)
(3.96664e-09 -0.00286485 0)
(4.92293e-09 -0.00286485 0)
(5.53155e-11 -0.00286484 0)
(2.34156e-09 -0.00286484 0)
(1.60838e-09 -0.00286485 0)
(3.98724e-09 -0.00286485 0)
(4.6533e-09 -0.00286485 0)
(-1.23224e-10 -0.00286484 0)
(2.53078e-09 -0.00286484 0)
(1.91252e-09 -0.00286485 0)
(4.00373e-09 -0.00286485 0)
(4.37708e-09 -0.00286485 0)
(-3.02224e-10 -0.00286484 0)
(2.71695e-09 -0.00286484 0)
(2.21524e-09 -0.00286485 0)
(4.01619e-09 -0.00286485 0)
(4.09617e-09 -0.00286485 0)
(-4.80269e-10 -0.00286484 0)
(2.89882e-09 -0.00286484 0)
(2.51489e-09 -0.00286485 0)
(4.02475e-09 -0.00286485 0)
(3.81241e-09 -0.00286485 0)
(-6.56008e-10 -0.00286484 0)
(3.0752e-09 -0.00286484 0)
(2.80991e-09 -0.00286485 0)
(4.0295e-09 -0.00286485 0)
(3.52755e-09 -0.00286485 0)
(-8.28166e-10 -0.00286484 0)
(3.24497e-09 -0.00286484 0)
(3.09883e-09 -0.00286485 0)
(4.03057e-09 -0.00286485 0)
(3.24326e-09 -0.00286485 0)
(-9.95551e-10 -0.00286484 0)
(3.40712e-09 -0.00286484 0)
(3.38026e-09 -0.00286485 0)
(4.02807e-09 -0.00286485 0)
(2.96115e-09 -0.00286485 0)
(-1.15706e-09 -0.00286484 0)
(3.56073e-09 -0.00286484 0)
(3.65291e-09 -0.00286485 0)
(4.02211e-09 -0.00286485 0)
(2.68268e-09 -0.00286485 0)
(-1.31169e-09 -0.00286484 0)
(3.70498e-09 -0.00286484 0)
(3.91562e-09 -0.00286485 0)
(4.01282e-09 -0.00286485 0)
(2.40923e-09 -0.00286485 0)
(-1.45855e-09 -0.00286484 0)
(3.83915e-09 -0.00286484 0)
(4.16731e-09 -0.00286485 0)
(4.00033e-09 -0.00286485 0)
(2.14207e-09 -0.00286485 0)
(-1.59684e-09 -0.00286484 0)
(3.96264e-09 -0.00286484 0)
(4.40704e-09 -0.00286485 0)
(3.98476e-09 -0.00286485 0)
(1.88233e-09 -0.00286485 0)
(-1.72589e-09 -0.00286484 0)
(4.07496e-09 -0.00286484 0)
(4.63399e-09 -0.00286485 0)
(3.96623e-09 -0.00286485 0)
(1.63105e-09 -0.00286485 0)
(-1.84514e-09 -0.00286484 0)
(4.17573e-09 -0.00286484 0)
(4.84745e-09 -0.00286485 0)
(3.94487e-09 -0.00286485 0)
(1.38911e-09 -0.00286485 0)
(-1.95413e-09 -0.00286484 0)
(4.26468e-09 -0.00286484 0)
(5.04684e-09 -0.00286485 0)
(3.92082e-09 -0.00286485 0)
(1.15727e-09 -0.00286485 0)
(-2.05255e-09 -0.00286484 0)
(4.34166e-09 -0.00286484 0)
(5.23172e-09 -0.00286485 0)
(3.8942e-09 -0.00286485 0)
(9.36195e-10 -0.00286485 0)
(-2.14018e-09 -0.00286484 0)
(4.40663e-09 -0.00286484 0)
(5.40176e-09 -0.00286485 0)
(3.86515e-09 -0.00286485 0)
(7.26385e-10 -0.00286485 0)
(-2.21693e-09 -0.00286484 0)
(4.45966e-09 -0.00286484 0)
(5.55673e-09 -0.00286485 0)
(3.83379e-09 -0.00286485 0)
(5.28238e-10 -0.00286485 0)
(-2.2828e-09 -0.00286484 0)
(4.50092e-09 -0.00286484 0)
(5.69657e-09 -0.00286485 0)
(3.80027e-09 -0.00286485 0)
(3.4203e-10 -0.00286485 0)
(-2.33791e-09 -0.00286484 0)
(4.53068e-09 -0.00286484 0)
(5.82128e-09 -0.00286485 0)
(3.76471e-09 -0.00286485 0)
(1.67922e-10 -0.00286484 0)
(-2.38248e-09 -0.00286484 0)
(4.54929e-09 -0.00286484 0)
(5.93101e-09 -0.00286485 0)
(3.72726e-09 -0.00286485 0)
(5.96606e-12 -0.00286484 0)
(-2.41683e-09 -0.00286484 0)
(4.55721e-09 -0.00286484 0)
(6.02599e-09 -0.00286485 0)
(3.68805e-09 -0.00286485 0)
(-1.43885e-10 -0.00286484 0)
(-2.44134e-09 -0.00286484 0)
(4.55496e-09 -0.00286484 0)
(6.10654e-09 -0.00286485 0)
(3.64723e-09 -0.00286485 0)
(-2.81774e-10 -0.00286484 0)
(-2.4565e-09 -0.00286484 0)
(4.54313e-09 -0.00286484 0)
(6.1731e-09 -0.00286485 0)
(3.60494e-09 -0.00286485 0)
(-4.07931e-10 -0.00286484 0)
(-2.46284e-09 -0.00286484 0)
(4.52237e-09 -0.00286484 0)
(6.22616e-09 -0.00286485 0)
(3.56132e-09 -0.00286485 0)
(-5.22661e-10 -0.00286484 0)
(-2.46098e-09 -0.00286484 0)
(4.4934e-09 -0.00286485 0)
(6.26629e-09 -0.00286485 0)
(3.51653e-09 -0.00286485 0)
(-6.26341e-10 -0.00286484 0)
(-2.45155e-09 -0.00286484 0)
(4.45695e-09 -0.00286485 0)
(6.29415e-09 -0.00286485 0)
(3.47073e-09 -0.00286485 0)
(-7.19405e-10 -0.00286484 0)
(-2.43527e-09 -0.00286484 0)
(4.41381e-09 -0.00286485 0)
(6.31042e-09 -0.00286485 0)
(3.42405e-09 -0.00286485 0)
(-8.02339e-10 -0.00286484 0)
(-2.41284e-09 -0.00286484 0)
(4.36478e-09 -0.00286485 0)
(6.31586e-09 -0.00286485 0)
(3.37667e-09 -0.00286485 0)
(-8.7567e-10 -0.00286484 0)
(-2.38501e-09 -0.00286484 0)
(4.31068e-09 -0.00286485 0)
(6.31124e-09 -0.00286485 0)
(3.32875e-09 -0.00286485 0)
(-9.39959e-10 -0.00286484 0)
(-2.35254e-09 -0.00286484 0)
(4.25232e-09 -0.00286485 0)
(6.2974e-09 -0.00286485 0)
(3.28046e-09 -0.00286485 0)
(-9.95789e-10 -0.00286484 0)
(-2.31617e-09 -0.00286484 0)
(4.19054e-09 -0.00286485 0)
(6.27518e-09 -0.00286485 0)
(3.23197e-09 -0.00286485 0)
(-1.04376e-09 -0.00286484 0)
(-2.27666e-09 -0.00286484 0)
(4.12613e-09 -0.00286485 0)
(6.24545e-09 -0.00286485 0)
(3.18346e-09 -0.00286485 0)
(-1.08448e-09 -0.00286484 0)
(-2.23473e-09 -0.00286484 0)
(4.05987e-09 -0.00286485 0)
(6.20907e-09 -0.00286485 0)
(3.13511e-09 -0.00286485 0)
(-1.11856e-09 -0.00286484 0)
(-2.19107e-09 -0.00286484 0)
(3.99253e-09 -0.00286485 0)
(6.16693e-09 -0.00286485 0)
(3.08711e-09 -0.00286485 0)
(-1.14659e-09 -0.00286484 0)
(-2.14635e-09 -0.00286484 0)
(3.92482e-09 -0.00286485 0)
(6.11993e-09 -0.00286485 0)
(3.03967e-09 -0.00286485 0)
(-1.16918e-09 -0.00286484 0)
(-2.10121e-09 -0.00286484 0)
(3.85743e-09 -0.00286485 0)
(6.06892e-09 -0.00286485 0)
(2.99296e-09 -0.00286485 0)
(-1.1869e-09 -0.00286484 0)
(-2.05622e-09 -0.00286484 0)
(3.791e-09 -0.00286485 0)
(6.01479e-09 -0.00286485 0)
(2.94721e-09 -0.00286485 0)
(-1.20029e-09 -0.00286484 0)
(-2.01191e-09 -0.00286484 0)
(3.72613e-09 -0.00286485 0)
(5.95838e-09 -0.00286485 0)
(2.90263e-09 -0.00286485 0)
(-1.2099e-09 -0.00286484 0)
(-1.96877e-09 -0.00286484 0)
(3.66335e-09 -0.00286485 0)
(5.90055e-09 -0.00286485 0)
(2.85942e-09 -0.00286485 0)
(-1.21622e-09 -0.00286484 0)
(-1.92721e-09 -0.00286484 0)
(3.60317e-09 -0.00286485 0)
(5.84211e-09 -0.00286485 0)
(2.81781e-09 -0.00286485 0)
(-1.21973e-09 -0.00286484 0)
(-1.88761e-09 -0.00286484 0)
(3.54601e-09 -0.00286485 0)
(5.78387e-09 -0.00286485 0)
(2.77802e-09 -0.00286485 0)
(-1.22088e-09 -0.00286484 0)
(-1.85027e-09 -0.00286484 0)
(3.49228e-09 -0.00286485 0)
(5.72662e-09 -0.00286485 0)
(2.74029e-09 -0.00286485 0)
(-1.22009e-09 -0.00286484 0)
(-1.81545e-09 -0.00286484 0)
(3.44232e-09 -0.00286485 0)
(5.67112e-09 -0.00286485 0)
(2.70485e-09 -0.00286485 0)
(-1.21774e-09 -0.00286484 0)
(-1.78336e-09 -0.00286484 0)
(3.39644e-09 -0.00286485 0)
(5.61812e-09 -0.00286485 0)
(2.67193e-09 -0.00286485 0)
(-1.21421e-09 -0.00286484 0)
(-1.75417e-09 -0.00286484 0)
(3.3549e-09 -0.00286485 0)
(5.56834e-09 -0.00286485 0)
(2.64177e-09 -0.00286485 0)
(-1.20985e-09 -0.00286484 0)
(-1.72799e-09 -0.00286484 0)
(3.31794e-09 -0.00286485 0)
(5.52252e-09 -0.00286485 0)
(2.6146e-09 -0.00286484 0)
(-1.20499e-09 -0.00286484 0)
(-1.70493e-09 -0.00286484 0)
(3.28577e-09 -0.00286485 0)
(5.48133e-09 -0.00286485 0)
(2.59067e-09 -0.00286484 0)
(-1.19994e-09 -0.00286484 0)
(-1.68504e-09 -0.00286484 0)
(3.25858e-09 -0.00286485 0)
(5.44547e-09 -0.00286485 0)
(2.57021e-09 -0.00286484 0)
(-1.19501e-09 -0.00286484 0)
(-1.66838e-09 -0.00286484 0)
(3.23655e-09 -0.00286485 0)
(5.4156e-09 -0.00286485 0)
(2.55345e-09 -0.00286484 0)
(-1.1905e-09 -0.00286484 0)
(-1.655e-09 -0.00286484 0)
(3.21994e-09 -0.00286485 0)
(5.39252e-09 -0.00286485 0)
(2.54064e-09 -0.00286484 0)
(-1.1868e-09 -0.00286484 0)
(-1.64499e-09 -0.00286484 0)
(3.20916e-09 -0.00286485 0)
(5.37728e-09 -0.00286485 0)
(2.53209e-09 -0.00286484 0)
(-1.18448e-09 -0.00286484 0)
(-1.6386e-09 -0.00286484 0)
(3.20457e-09 -0.00286485 0)
(5.3708e-09 -0.00286485 0)
(2.52806e-09 -0.00286484 0)
(-1.18404e-09 -0.00286484 0)
(-1.63604e-09 -0.00286484 0)
)
;

boundaryField
{
    BotWall
    {
        type            fixedValue;
        value           uniform (0 0 0);
    }
    FreeStream
    {
        type            zeroGradient;
    }
    FrontNBack
    {
        type            empty;
    }
    LeftSide
    {
        type            symmetryPlane;
    }
    RightSide
    {
        type            symmetryPlane;
    }
}


// ************************************************************************* //
