/*--------------------------------*- C++ -*----------------------------------*\
| =========                 |                                                 |
| \\      /  F ield         | OpenFOAM: The Open Source CFD Toolbox           |
|  \\    /   O peration     | Version:  2.4.0                                 |
|   \\  /    A nd           | Web:      www.OpenFOAM.org                      |
|    \\/     M anipulation  |                                                 |
\*---------------------------------------------------------------------------*/
FoamFile
{
    version     2.0;
    format      ascii;
    class       volScalarField;
    location    "1.1";
    object      alpha1;
}
// * * * * * * * * * * * * * * * * * * * * * * * * * * * * * * * * * * * * * //

dimensions      [0 0 0 0 0 0 0];

internalField   nonuniform List<scalar> 
8000
(
1
1
1
1
1
1
1
1
1
1
1
1
1
1
1
1
1
1
1
1
1
1
1
1
0.999999
0.999998
0.999997
0.999995
0.999993
0.997746
0.169466
0.000489621
7.6176e-06
3.39185e-06
2.16434e-06
1.21894e-06
6.33704e-07
3.05158e-07
1.35191e-07
5.46459e-08
1.99661e-08
6.52538e-09
1.88478e-09
4.74259e-10
1.02122e-10
1.83917e-11
2.68886e-12
3.07887e-13
2.74392e-14
2.7321e-15
1
1
1
1
1
1
1
1
1
1
1
1
1
1
1
1
1
1
1
1
1
1
1
1
0.999999
0.999998
0.999996
0.999994
0.999994
0.882197
0.0491436
0.000121325
4.29814e-06
3.00529e-06
1.85149e-06
1.02218e-06
5.22262e-07
2.47143e-07
1.07553e-07
4.26844e-08
1.53061e-08
4.90769e-09
1.39018e-09
3.42899e-10
7.23345e-11
1.27525e-11
1.82526e-12
2.06604e-13
2.00538e-14
3.40534e-15
1
1
1
1
1
1
1
1
1
1
1
1
1
1
1
1
1
1
1
1
1
1
1
0.999999
0.999999
0.999998
0.999996
0.99999
0.999956
0.668691
0.0113551
3.33728e-05
3.80171e-06
2.64873e-06
1.57926e-06
8.54634e-07
4.28855e-07
1.99257e-07
8.51069e-08
3.31377e-08
1.16544e-08
3.66405e-09
1.01742e-09
2.45927e-10
5.08194e-11
8.77651e-12
1.23529e-12
1.42353e-13
1.7797e-14
5.58331e-15
1
1
1
1
1
1
1
1
1
1
1
1
1
1
1
1
1
1
1
1
1
1
1
0.999999
0.999999
0.999997
0.999995
0.999987
0.999888
0.45722
0.00266825
1.37983e-05
3.53319e-06
2.3463e-06
1.35971e-06
7.2189e-07
3.55856e-07
1.62333e-07
6.8038e-08
2.59831e-08
8.9591e-09
2.76056e-09
7.51052e-10
1.77823e-10
3.59919e-11
6.09925e-12
8.54492e-13
1.08052e-13
2.15136e-14
1.05169e-14
1
1
1
1
1
1
1
1
1
1
1
1
1
1
1
1
1
1
1
1
1
1
1
0.999999
0.999999
0.999997
0.999994
0.999991
0.999616
0.245759
0.000616369
6.76421e-06
3.21527e-06
2.05591e-06
1.16289e-06
6.0671e-07
2.94144e-07
1.31887e-07
5.43002e-08
2.03598e-08
6.88956e-09
2.08264e-09
5.5571e-10
1.29028e-10
2.56338e-11
4.29268e-12
6.19597e-13
9.98404e-14
3.39885e-14
2.07683e-14
1
1
1
1
1
1
1
1
1
1
1
1
1
1
1
1
1
1
1
1
1
1
1
0.999999
0.999998
0.999997
0.999994
0.999994
0.948107
0.0762583
0.000120688
3.71467e-06
2.81448e-06
1.73689e-06
9.60444e-07
4.92348e-07
2.34662e-07
1.03399e-07
4.18195e-08
1.53988e-08
5.11625e-09
1.51831e-09
3.97737e-10
9.07262e-11
1.77775e-11
2.99831e-12
4.85603e-13
1.20193e-13
6.15634e-14
4.14198e-14
1
1
1
1
1
1
1
1
1
1
1
1
1
1
1
1
1
1
1
1
1
1
0.999999
0.999999
0.999998
0.999996
0.999991
0.999976
0.749113
0.0156947
2.81162e-05
3.45764e-06
2.45223e-06
1.46642e-06
7.94148e-07
3.99898e-07
1.87257e-07
8.10435e-08
3.21857e-08
1.16356e-08
3.79526e-09
1.10583e-09
2.84591e-10
6.39419e-11
1.24879e-11
2.22084e-12
4.69262e-13
1.86982e-13
1.18611e-13
8.32716e-14
1
1
1
1
1
1
1
1
1
1
1
1
1
1
1
1
1
1
1
1
1
1
0.999999
0.999999
0.999998
0.999995
0.999985
0.999923
0.526689
0.00314889
1.07837e-05
3.21152e-06
2.14606e-06
1.24712e-06
6.62149e-07
3.27402e-07
1.5051e-07
6.39285e-08
2.49091e-08
8.83361e-09
2.82663e-09
8.08348e-10
2.04561e-10
4.55312e-11
9.09465e-12
1.87958e-12
5.97172e-13
3.34842e-13
2.33203e-13
1.67667e-13
1
1
1
1
1
1
1
1
1
1
1
1
1
1
1
1
1
1
1
1
1
1
0.999999
0.999999
0.999997
0.999994
0.999986
0.999803
0.318858
0.000670794
5.38162e-06
2.94943e-06
1.88601e-06
1.06928e-06
5.57839e-07
2.71234e-07
1.22558e-07
5.11436e-08
1.95711e-08
6.81526e-09
2.14183e-09
6.02299e-10
1.50597e-10
3.37548e-11
7.31543e-12
2.0138e-12
9.51544e-13
6.35696e-13
4.61759e-13
3.37901e-13
1
1
1
1
1
1
1
1
1
1
1
1
1
1
1
1
1
1
1
1
1
1
0.999999
0.999998
0.999997
0.999993
0.99999
0.993286
0.114884
0.000116317
3.24464e-06
2.58907e-06
1.59274e-06
8.82013e-07
4.52359e-07
2.16392e-07
9.61696e-08
3.94622e-08
1.48477e-08
5.08475e-09
1.5731e-09
4.37036e-10
1.09351e-10
2.57142e-11
6.76527e-12
2.7252e-12
1.68517e-12
1.22059e-12
9.08422e-13
6.75436e-13
1
1
1
1
1
1
1
1
1
1
1
1
1
1
1
1
1
1
1
1
1
1
0.999999
0.999998
0.999996
0.999992
0.999991
0.839433
0.0234986
2.35703e-05
3.10497e-06
2.24309e-06
1.3351e-06
7.23103e-07
3.64476e-07
1.71455e-07
7.49219e-08
3.02274e-08
1.1185e-08
3.77058e-09
1.15161e-09
3.1881e-10
8.20665e-11
2.19531e-11
7.91315e-12
4.4253e-12
3.13795e-12
2.36222e-12
1.78947e-12
1.35069e-12
1
1
1
1
1
1
1
1
1
1
1
1
1
1
1
1
1
1
1
1
1
0.999999
0.999999
0.999998
0.999995
0.999987
0.999953
0.613968
0.00413805
8.31202e-06
2.89136e-06
1.94819e-06
1.12702e-06
5.9782e-07
2.96042e-07
1.36863e-07
5.8773e-08
2.33065e-08
8.48323e-09
2.8197e-09
8.55197e-10
2.40492e-10
6.74332e-11
2.29338e-11
1.15692e-11
7.87469e-12
5.94603e-12
4.57717e-12
3.52032e-12
2.6958e-12
1
1
1
1
1
1
1
1
1
1
1
1
1
1
1
1
1
1
1
1
1
0.999999
0.999999
0.999997
0.999994
0.999981
0.999896
0.414605
0.000763984
4.12606e-06
2.66656e-06
1.70863e-06
9.64764e-07
5.02308e-07
2.44568e-07
1.1117e-07
4.69385e-08
1.83099e-08
6.56749e-09
2.16275e-09
6.60596e-10
1.96458e-10
6.55703e-11
3.02052e-11
1.93918e-11
1.45244e-11
1.13169e-11
8.85558e-12
6.90748e-12
5.3644e-12
1
1
1
1
1
1
1
1
1
1
1
1
1
1
1
1
1
1
1
1
1
0.999999
0.999999
0.999997
0.999993
0.999984
0.999639
0.213158
0.000141706
2.88941e-06
2.40264e-06
1.4799e-06
8.18148e-07
4.19128e-07
2.00989e-07
8.99869e-08
3.74371e-08
1.44094e-08
5.12113e-09
1.69157e-09
5.36814e-10
1.81183e-10
7.81225e-11
4.68589e-11
3.43849e-11
2.6976e-11
2.14383e-11
1.70188e-11
1.34587e-11
1.05985e-11
1
1
1
1
1
1
1
1
1
1
1
1
1
1
1
1
1
1
1
1
1
0.999999
0.999998
0.999996
0.999992
0.999992
0.959809
0.054361
2.25898e-05
2.80154e-06
2.06101e-06
1.22456e-06
6.62873e-07
3.34231e-07
1.57919e-07
6.97072e-08
2.86347e-08
1.09246e-08
3.88849e-09
1.32292e-09
4.63671e-10
1.94695e-10
1.10351e-10
7.87943e-11
6.19116e-11
4.98592e-11
4.0245e-11
3.23883e-11
2.59638e-11
2.07306e-11
1
1
1
1
1
1
1
1
1
1
1
1
1
1
1
1
1
1
1
1
1
0.999999
0.999998
0.999995
0.999991
0.999984
0.768717
0.00887006
6.93867e-06
2.61456e-06
1.77865e-06
1.02563e-06
5.44292e-07
2.70177e-07
1.25815e-07
5.48139e-08
2.23001e-08
8.499e-09
3.08997e-09
1.13362e-09
4.7363e-10
2.56287e-10
1.76999e-10
1.38374e-10
1.1254e-10
9.22074e-11
7.54315e-11
6.14928e-11
4.9942e-11
4.04101e-11
1
1
1
1
1
1
1
1
1
1
1
1
1
1
1
1
1
1
1
1
0.999999
0.999999
0.999997
0.999994
0.999986
0.999956
0.57
0.00139961
3.27236e-06
2.41253e-06
1.5541e-06
8.73901e-07
4.55373e-07
2.22667e-07
1.02302e-07
4.41019e-08
1.78808e-08
6.91286e-09
2.6594e-09
1.12035e-09
5.85006e-10
3.8936e-10
3.00799e-10
2.4605e-10
2.04214e-10
1.69613e-10
1.40475e-10
1.15934e-10
9.53447e-11
7.81436e-11
1
1
1
1
1
1
1
1
1
1
1
1
1
1
1
1
1
1
1
1
0.999999
0.999999
0.999997
0.999993
0.99998
0.999904
0.397479
0.000228302
2.27041e-06
2.21192e-06
1.36655e-06
7.52547e-07
3.85972e-07
1.86293e-07
8.4711e-08
3.6357e-08
1.4884e-08
6.00403e-09
2.57261e-09
1.30941e-09
8.38553e-10
6.35805e-10
5.20574e-10
4.36604e-10
3.67707e-10
3.09136e-10
2.59066e-10
2.16372e-10
1.80126e-10
1.49486e-10
1
1
1
1
1
1
1
1
1
1
1
1
1
1
1
1
1
1
1
1
0.999999
0.999999
0.999997
0.999992
0.999979
0.999762
0.222003
3.85099e-05
2.3423e-06
1.99259e-06
1.18921e-06
6.43426e-07
3.25719e-07
1.55691e-07
7.04754e-08
3.04627e-08
1.28929e-08
5.66685e-09
2.84857e-09
1.76229e-09
1.30538e-09
1.06466e-09
8.998e-10
7.67293e-10
6.54252e-10
5.56396e-10
4.71657e-10
3.98545e-10
3.35758e-10
2.82075e-10
1
1
1
1
1
1
1
1
1
1
1
1
1
1
1
1
1
1
1
1
0.999999
0.999998
0.999996
0.999991
0.999986
0.995373
0.0652693
8.19466e-06
2.31237e-06
1.7064e-06
9.87761e-07
5.26154e-07
2.63742e-07
1.25542e-07
5.71987e-08
2.54598e-08
1.16073e-08
5.87853e-09
3.56835e-09
2.59114e-09
2.1009e-09
1.78522e-09
1.53907e-09
1.3297e-09
1.14678e-09
9.86187e-10
8.45437e-10
7.22588e-10
6.15898e-10
5.23671e-10
8.61497e-16
5.11205e-16
3.21799e-16
2.02015e-16
1.25896e-16
7.78681e-17
4.78003e-17
2.91228e-17
1.76108e-17
1.057e-17
6.29699e-18
3.72344e-18
2.18525e-18
1.27289e-18
7.35866e-19
4.22192e-19
2.40386e-19
1.35825e-19
7.6155e-20
4.23674e-20
2.33852e-20
1.28049e-20
6.95483e-21
3.74633e-21
2.00109e-21
1.05972e-21
5.5628e-22
2.89386e-22
1.49155e-22
7.6148e-23
3.84956e-23
1.92643e-23
9.53946e-24
4.67223e-24
2.26209e-24
1.08182e-24
5.10538e-25
2.37431e-25
1.08617e-25
4.87629e-26
2.14211e-26
9.17514e-27
3.81589e-27
1.53362e-27
5.92399e-28
2.18542e-28
7.64068e-29
2.50612e-29
7.59869e-30
2.07891e-30
1.66866e-15
1.05935e-15
6.80646e-16
4.34698e-16
2.75613e-16
1.73471e-16
1.08385e-16
6.72259e-17
4.13944e-17
2.53041e-17
1.53565e-17
9.25209e-18
5.53381e-18
3.28571e-18
1.93661e-18
1.13304e-18
6.57991e-19
3.79272e-19
2.16976e-19
1.23189e-19
6.94044e-20
3.87982e-20
2.15173e-20
1.18374e-20
6.45868e-21
3.49443e-21
1.87442e-21
9.96599e-22
5.2509e-22
2.74088e-22
1.41698e-22
7.25292e-23
3.67431e-23
1.84145e-23
9.1248e-24
4.46739e-24
2.15888e-24
1.02845e-24
4.82127e-25
2.21916e-25
1.00009e-25
4.39779e-26
1.87947e-26
7.77042e-27
3.09167e-27
1.17667e-27
4.25269e-28
1.44582e-28
4.56182e-29
1.30707e-29
3.3639e-15
2.2034e-15
1.44084e-15
9.35863e-16
6.03581e-16
3.86519e-16
2.45764e-16
1.55163e-16
9.72724e-17
6.05525e-17
3.74299e-17
2.29744e-17
1.40023e-17
8.47353e-18
5.09125e-18
3.03713e-18
1.79871e-18
1.05754e-18
6.17234e-19
3.57586e-19
2.05613e-19
1.1733e-19
6.64359e-20
3.7322e-20
2.07984e-20
1.14952e-20
6.30008e-21
3.42311e-21
1.84348e-21
9.83745e-22
5.20032e-22
2.72233e-22
1.41076e-22
7.23404e-23
3.66849e-23
1.83851e-23
9.09738e-24
4.43906e-24
2.1324e-24
1.00628e-24
4.65227e-25
2.10034e-25
9.22401e-26
3.92319e-26
1.60794e-26
6.31401e-27
2.35916e-27
8.31392e-28
2.72949e-28
8.18737e-29
6.8792e-15
4.59795e-15
3.05689e-15
2.0187e-15
1.32399e-15
8.62412e-16
5.57903e-16
3.58446e-16
2.28728e-16
1.44962e-16
9.12491e-17
5.70479e-17
3.54219e-17
2.18429e-17
1.33762e-17
8.13433e-18
4.91202e-18
2.94526e-18
1.75342e-18
1.03637e-18
6.08085e-19
3.54149e-19
2.04702e-19
1.17412e-19
6.68164e-20
3.77191e-20
2.11185e-20
1.17245e-20
6.45286e-21
3.51986e-21
1.90234e-21
1.01837e-21
5.3978e-22
2.83164e-22
1.4694e-22
7.5375e-23
3.81867e-23
1.90843e-23
9.3935e-24
4.54442e-24
2.15531e-24
9.98984e-25
4.50843e-25
1.97274e-25
8.32917e-26
3.37471e-26
1.30362e-26
4.76209e-27
1.6266e-27
5.10593e-28
1.40915e-14
9.58198e-15
6.47566e-15
4.34772e-15
2.89976e-15
1.92122e-15
1.26446e-15
8.26703e-16
5.36934e-16
3.46438e-16
2.22058e-16
1.41395e-16
8.9437e-17
5.61945e-17
3.50708e-17
2.17395e-17
1.33841e-17
8.18352e-18
4.96906e-18
2.99609e-18
1.79367e-18
1.06606e-18
6.28951e-19
3.68287e-19
2.14002e-19
1.23379e-19
7.05613e-20
4.00227e-20
2.25092e-20
1.25491e-20
6.93344e-21
3.79513e-21
2.05728e-21
1.10399e-21
5.86173e-22
3.07742e-22
1.59616e-22
8.16958e-23
4.12006e-23
2.04334e-23
9.94139e-24
4.73066e-24
2.19398e-24
9.87679e-25
4.29609e-25
1.7961e-25
7.17341e-26
2.71623e-26
9.65166e-27
3.16918e-27
2.87407e-14
1.98691e-14
1.36509e-14
9.31919e-15
6.32141e-15
4.26046e-15
2.85302e-15
1.89828e-15
1.25497e-15
8.24386e-16
5.38085e-16
3.48969e-16
2.24866e-16
1.4396e-16
9.15622e-17
5.78533e-17
3.63126e-17
2.26401e-17
1.40205e-17
8.6234e-18
5.26717e-18
3.19455e-18
1.92361e-18
1.14984e-18
6.82181e-19
4.01635e-19
2.34612e-19
1.35945e-19
7.81227e-20
4.45121e-20
2.5139e-20
1.40687e-20
7.79904e-21
4.28092e-21
2.32554e-21
1.24948e-21
6.63438e-22
3.47748e-22
1.79682e-22
9.1352e-23
4.55924e-23
2.22738e-23
1.06159e-23
4.91695e-24
2.20342e-24
9.50599e-25
3.92544e-25
1.54069e-25
5.69431e-26
1.955e-26
5.88079e-14
4.13122e-14
2.88461e-14
2.00183e-14
1.38065e-14
9.46332e-15
6.44616e-15
4.36376e-15
2.93582e-15
1.96297e-15
1.30439e-15
8.6141e-16
5.65325e-16
3.68683e-16
2.3892e-16
1.53841e-16
9.84214e-17
6.25581e-17
3.95025e-17
2.47786e-17
1.54381e-17
9.5527e-18
5.86968e-18
3.58093e-18
2.16871e-18
1.30364e-18
7.7765e-19
4.60247e-19
2.70198e-19
1.57308e-19
9.07988e-20
5.19444e-20
2.94428e-20
1.65283e-20
9.18504e-21
5.0498e-21
2.74455e-21
1.47309e-21
7.7976e-22
4.06362e-22
2.08031e-22
1.04336e-22
5.11018e-23
2.43515e-23
1.12428e-23
5.00516e-24
2.13697e-24
8.69324e-25
3.3413e-25
1.19889e-25
1.20309e-13
8.58467e-14
6.08995e-14
4.29479e-14
3.01083e-14
2.09814e-14
1.45339e-14
1.00076e-14
6.84988e-15
4.66064e-15
3.15221e-15
2.11925e-15
1.41621e-15
9.40654e-16
6.20957e-16
4.07381e-16
2.65598e-16
1.72072e-16
1.10771e-16
7.08501e-17
4.50199e-17
2.84162e-17
1.78142e-17
1.10903e-17
6.85535e-18
4.20677e-18
2.56225e-18
1.54869e-18
9.28705e-19
5.52409e-19
3.25834e-19
1.90528e-19
1.10409e-19
6.3382e-20
3.60282e-20
2.02669e-20
1.1274e-20
6.19582e-21
3.35969e-21
1.79461e-21
9.42346e-22
4.8519e-22
2.44204e-22
1.19728e-22
5.69504e-23
2.61635e-23
1.15495e-23
4.86944e-24
1.94597e-24
7.29365e-25
2.46202e-13
1.78406e-13
1.28556e-13
9.21126e-14
6.5624e-14
4.64849e-14
3.27384e-14
2.29246e-14
1.59606e-14
1.10484e-14
7.60422e-15
5.20354e-15
3.54007e-15
2.39425e-15
1.6097e-15
1.07576e-15
7.14587e-16
4.71783e-16
3.09562e-16
2.01853e-16
1.30785e-16
8.41909e-17
5.38389e-17
3.4197e-17
2.15711e-17
1.35106e-17
8.40079e-18
5.18466e-18
3.17529e-18
1.92933e-18
1.16273e-18
6.94829e-19
4.11588e-19
2.41586e-19
1.40447e-19
8.08262e-20
4.60135e-20
2.58893e-20
1.43796e-20
7.8722e-21
4.23963e-21
2.24078e-21
1.15892e-21
5.84571e-22
2.86473e-22
1.35809e-22
6.1982e-23
2.70811e-23
1.12499e-23
4.40238e-24
4.99746e-13
3.67798e-13
2.69236e-13
1.96017e-13
1.41929e-13
1.02199e-13
7.31834e-14
5.2116e-14
3.69084e-14
2.59941e-14
1.82062e-14
1.26806e-14
8.78251e-15
6.0482e-15
4.14128e-15
2.81916e-15
1.9079e-15
1.28358e-15
8.58404e-16
5.70594e-16
3.7695e-16
2.47462e-16
1.61414e-16
1.04597e-16
6.73242e-17
4.30356e-17
2.73157e-17
1.72123e-17
1.07651e-17
6.68116e-18
4.11367e-18
2.51207e-18
1.52098e-18
9.12752e-19
5.42666e-19
3.19477e-19
1.86119e-19
1.07206e-19
6.09888e-20
3.42187e-20
1.89004e-20
1.02541e-20
5.4496e-21
2.82803e-21
1.42783e-21
6.98497e-22
3.29581e-22
1.49215e-22
6.44196e-23
2.63067e-23
1.01448e-12
7.58093e-13
5.63591e-13
4.16812e-13
3.06639e-13
2.24392e-13
1.63333e-13
1.18257e-13
8.51665e-14
6.101e-14
4.34729e-14
3.0811e-14
2.17188e-14
1.52259e-14
1.06148e-14
7.35868e-15
5.0725e-15
3.47662e-15
2.36909e-15
1.60494e-15
1.08079e-15
7.23407e-16
4.81191e-16
3.1804e-16
2.08838e-16
1.36216e-16
8.8239e-17
5.6758e-17
3.62441e-17
2.29719e-17
1.44477e-17
9.01416e-18
5.57763e-18
3.42156e-18
2.08004e-18
1.25251e-18
7.46602e-19
4.40203e-19
2.56467e-19
1.47453e-19
8.35202e-20
4.65084e-20
2.53961e-20
1.35579e-20
7.05181e-21
3.55963e-21
1.73629e-21
8.14432e-22
3.65314e-22
1.55595e-22
2.05458e-12
1.55832e-12
1.17614e-12
8.83275e-13
6.59998e-13
4.90661e-13
3.62915e-13
2.67063e-13
1.9553e-13
1.4243e-13
1.03222e-13
7.44229e-14
5.338e-14
3.80849e-14
2.7027e-14
1.90758e-14
1.33902e-14
9.3474e-15
6.48889e-15
4.47913e-15
3.07408e-15
2.09741e-15
1.42245e-15
9.58757e-16
6.42144e-16
4.27305e-16
2.82455e-16
1.85433e-16
1.20882e-16
7.82319e-17
5.02513e-17
3.20289e-17
2.02508e-17
1.26972e-17
7.89176e-18
4.86004e-18
2.96386e-18
1.7886e-18
1.06709e-18
6.28632e-19
3.65111e-19
2.08662e-19
1.17063e-19
6.42865e-20
3.44447e-20
1.79398e-20
9.0453e-21
4.39519e-21
2.04774e-21
9.09182e-22
4.14722e-12
3.19154e-12
2.44466e-12
1.8637e-12
1.41398e-12
1.06758e-12
8.02133e-13
5.99761e-13
4.46276e-13
3.30462e-13
2.43515e-13
1.78565e-13
1.30286e-13
9.45788e-14
6.8304e-14
4.90709e-14
3.50676e-14
2.49272e-14
1.76242e-14
1.23931e-14
8.6665e-15
6.02627e-15
4.16612e-15
2.86304e-15
1.95554e-15
1.32734e-15
8.95152e-16
5.99698e-16
3.9903e-16
2.63646e-16
1.72935e-16
1.12585e-16
7.27272e-17
4.66011e-17
2.9609e-17
1.86462e-17
1.16324e-17
7.18403e-18
4.3885e-18
2.64871e-18
1.57727e-18
9.25031e-19
5.33121e-19
3.01136e-19
1.66196e-19
8.93033e-20
4.65385e-20
2.34215e-20
1.13309e-20
5.24152e-21
8.31053e-12
6.48831e-12
5.04328e-12
3.9024e-12
3.00576e-12
2.30444e-12
1.75856e-12
1.33579e-12
1.00998e-12
7.60137e-13
5.69455e-13
4.24615e-13
3.15108e-13
2.32707e-13
1.71002e-13
1.25026e-13
9.09466e-14
6.5818e-14
4.73869e-14
3.39393e-14
2.41789e-14
1.71319e-14
1.20712e-14
8.45672e-15
5.8897e-15
4.07712e-15
2.80486e-15
1.91729e-15
1.30197e-15
8.78126e-16
5.88114e-16
3.9103e-16
2.58042e-16
1.68956e-16
1.09727e-16
7.06536e-17
4.50844e-17
2.8492e-17
1.78191e-17
1.10175e-17
6.7259e-18
4.04747e-18
2.39607e-18
1.39196e-18
7.91215e-19
4.38583e-19
2.36203e-19
1.23099e-19
6.18202e-20
2.97782e-20
1.64859e-11
1.30569e-11
1.02979e-11
8.08699e-12
6.32292e-12
4.9218e-12
3.81421e-12
2.94287e-12
2.26067e-12
1.72906e-12
1.31669e-12
9.98224e-13
7.53359e-13
5.65916e-13
4.23084e-13
3.14767e-13
2.33032e-13
1.71672e-13
1.25842e-13
9.17859e-14
6.66059e-14
4.80822e-14
3.45245e-14
2.46533e-14
1.75049e-14
1.23569e-14
8.67072e-15
6.04672e-15
4.19008e-15
2.8845e-15
1.9723e-15
1.33914e-15
9.02661e-16
6.03874e-16
4.00825e-16
2.63869e-16
1.72207e-16
1.11353e-16
7.12914e-17
4.51504e-17
2.82537e-17
1.74437e-17
1.06058e-17
6.3358e-18
3.70874e-18
2.12049e-18
1.18003e-18
6.36719e-19
3.31821e-19
1.66346e-19
3.25757e-11
2.61604e-11
2.09258e-11
1.66705e-11
1.32249e-11
1.04472e-11
8.2182e-12
6.43779e-12
5.02233e-12
3.90208e-12
3.01929e-12
2.32649e-12
1.78499e-12
1.36346e-12
1.03672e-12
7.84602e-13
5.90993e-13
4.4305e-13
3.30567e-13
2.45462e-13
1.81384e-13
1.33367e-13
9.75609e-14
7.09919e-14
5.13782e-14
3.69758e-14
2.64579e-14
1.882e-14
1.33053e-14
9.34727e-15
6.52389e-15
4.52262e-15
3.11339e-15
2.12777e-15
1.44322e-15
9.71206e-16
6.48159e-16
4.28769e-16
2.80971e-16
1.82242e-16
1.16879e-16
7.40208e-17
4.62138e-17
2.83847e-17
1.71075e-17
1.00873e-17
5.79932e-18
3.23901e-18
1.75106e-18
9.13077e-19
6.38274e-11
5.19514e-11
4.21299e-11
3.40338e-11
2.73842e-11
2.19451e-11
1.75158e-11
1.39254e-11
1.10283e-11
8.70066e-12
6.83824e-12
5.3537e-12
4.17466e-12
3.24165e-12
2.50621e-12
1.92894e-12
1.47789e-12
1.12717e-12
8.55783e-13
6.46779e-13
4.86564e-13
3.6431e-13
2.71448e-13
2.0124e-13
1.48418e-13
1.08876e-13
7.94303e-14
5.76203e-14
4.15547e-14
2.97873e-14
2.12185e-14
1.50167e-14
1.05563e-14
7.36915e-15
5.10713e-15
3.51278e-15
2.39705e-15
1.62203e-15
1.0878e-15
7.22507e-16
4.74832e-16
3.08417e-16
1.97692e-16
1.24817e-16
7.74408e-17
4.70818e-17
2.79582e-17
1.61592e-17
9.05914e-18
4.91078e-18
1.23677e-10
1.01999e-10
8.38349e-11
6.86568e-11
5.6014e-11
4.55233e-11
3.6856e-11
2.97278e-11
2.38919e-11
1.91343e-11
1.52708e-11
1.21443e-11
9.62208e-12
7.59382e-12
5.96834e-12
4.67067e-12
3.63921e-12
2.82318e-12
2.18065e-12
1.67707e-12
1.28414e-12
9.78894e-13
7.42769e-13
5.60914e-13
4.21493e-13
3.15116e-13
2.34353e-13
1.7335e-13
1.27511e-13
9.32507e-14
6.77871e-14
4.89704e-14
3.51493e-14
2.50607e-14
1.77442e-14
1.24733e-14
8.702e-15
6.02271e-15
4.13316e-15
2.81074e-15
1.89261e-15
1.26056e-15
8.29399e-16
5.38176e-16
3.43653e-16
2.15378e-16
1.32073e-16
7.89743e-17
4.58966e-17
2.58503e-17
2.36332e-10
1.97445e-10
1.64447e-10
1.36502e-10
1.12897e-10
9.3029e-11
7.63762e-11
6.24831e-11
5.09457e-11
4.14055e-11
3.35464e-11
2.70923e-11
2.18062e-11
1.74878e-11
1.39699e-11
1.11139e-11
8.8048e-12
6.94627e-12
5.45739e-12
4.27005e-12
3.32726e-12
2.58173e-12
1.99457e-12
1.534e-12
1.17426e-12
8.94547e-13
6.78077e-13
5.11359e-13
3.8359e-13
2.86163e-13
2.1226e-13
1.56507e-13
1.14687e-13
8.35059e-14
6.04004e-14
4.33878e-14
3.09434e-14
2.19019e-14
1.53786e-14
1.07063e-14
7.38497e-15
5.0428e-15
3.405e-15
2.2701e-15
1.49149e-15
9.63338e-16
6.09859e-16
3.77166e-16
2.27136e-16
1.32847e-16
4.44215e-10
3.75889e-10
3.17193e-10
2.66824e-10
2.23683e-10
1.86846e-10
1.55522e-10
1.29012e-10
1.06687e-10
8.79685e-11
7.2333e-11
5.93099e-11
4.84859e-11
3.95059e-11
3.20717e-11
2.59348e-11
2.08879e-11
1.67555e-11
1.33876e-11
1.06551e-11
8.44736e-12
6.67068e-12
5.24628e-12
4.10855e-12
3.20334e-12
2.48616e-12
1.92049e-12
1.47636e-12
1.12927e-12
8.59273e-13
6.50279e-13
4.8933e-13
3.66052e-13
2.72165e-13
2.01083e-13
1.47593e-13
1.07594e-13
7.78757e-14
5.59413e-14
3.98638e-14
2.81636e-14
1.97126e-14
1.36563e-14
9.35208e-15
6.32023e-15
4.20567e-15
2.74783e-15
1.75706e-15
1.09606e-15
6.65343e-16
4.8994e-31
2.72547e-31
1.49971e-31
8.16158e-32
4.39219e-32
2.33713e-32
1.22953e-32
6.39482e-33
3.28807e-33
1.67141e-33
8.39993e-34
4.17409e-34
2.05116e-34
9.96923e-35
4.79338e-35
2.28057e-35
1.07395e-35
5.00705e-36
2.31185e-36
1.05738e-36
4.79178e-37
2.15197e-37
9.57868e-38
4.22596e-38
1.84792e-38
8.00818e-39
3.4387e-39
1.46268e-39
6.16118e-40
2.56903e-40
1.05995e-40
4.32531e-41
1.74486e-41
6.95507e-42
2.73796e-42
1.06395e-42
4.07901e-43
1.5421e-43
5.74601e-44
2.10906e-44
7.62168e-45
2.71029e-45
9.47863e-46
3.25834e-46
1.10032e-46
3.64803e-47
1.18673e-47
3.78555e-48
1.18335e-48
3.62263e-49
1.08534e-49
3.1801e-50
9.10628e-51
2.54656e-51
6.94955e-52
1.84937e-52
4.79533e-53
1.21061e-53
2.97327e-54
7.09846e-55
1.64604e-55
3.70419e-56
8.08235e-57
1.70836e-57
3.49482e-58
6.91323e-59
1.3211e-59
2.43642e-60
4.33173e-61
7.41625e-62
1.22133e-62
1.93245e-63
2.93423e-64
4.27019e-65
5.94869e-66
7.9224e-67
1.00727e-67
1.22083e-68
1.40839e-69
1.54402e-70
1.60586e-71
1.58152e-72
1.47218e-73
1.29272e-74
1.06861e-75
8.30097e-77
6.04821e-78
4.12082e-79
2.6132e-80
1.53692e-81
8.35227e-83
4.17823e-84
1.91626e-85
8.0157e-87
3.03941e-88
1.03664e-89
3.15397e-91
8.49153e-93
2.00222e-94
4.08359e-96
7.16666e-98
1.05712e-99
1.26586e-101
1.19498e-103
8.68591e-106
4.59545e-108
1.69769e-110
3.66398e-113
2.41188e-116
1.87439e-121
0
0
0
0
0
0
0
0
0
0
0
0
0
0
0
0
0
0
0
0
0
0
0
0
0
0
0
0
0
0
0
0
0
0
0
0
0
0
0
0
0
0
0
0
0
0
0
0
0
0
0
0
0
0
0
0
0
0
0
0
0
0
0
0
0
0
0
0
0
0
0
0
0
0
0
0
0
0
0
0
0
0
0
0
0
0
0
0
0
0
0
0
0
0
0
0
0
0
0
0
0
0
0
0
0
0
0
0
0
0
0
0
0
0
0
0
0
0
0
0
0
0
0
0
0
0
0
0
0
0
0
0
0
0
0
0
0
0
0
0
0
0
0
0
0
0
0
0
0
0
0
0
0
0
0
0
0
0
0
0
0
0
0
0
0
0
0
0
0
0
0
0
0
0
0
0
0
0
0
0
0
0
0
0
0
0
0
0
0
0
3.26631e-30
1.84786e-30
1.03436e-30
5.72803e-31
3.13772e-31
1.70002e-31
9.10951e-32
4.82744e-32
2.52996e-32
1.31128e-32
6.72189e-33
3.40831e-33
1.70962e-33
8.48485e-34
4.16736e-34
2.02604e-34
9.75236e-35
4.64893e-35
2.19525e-35
1.02706e-35
4.76174e-36
2.18804e-36
9.96543e-37
4.4987e-37
2.01279e-37
8.92412e-38
3.9201e-38
1.70557e-38
7.3475e-39
3.13286e-39
1.32158e-39
5.51325e-40
2.27343e-40
9.26213e-41
3.72637e-41
1.47977e-41
5.79721e-42
2.23947e-42
8.52613e-43
3.19754e-43
1.18062e-43
4.28945e-44
1.53269e-44
5.38306e-45
1.85727e-45
6.29127e-46
2.09101e-46
6.81492e-47
2.17658e-47
6.80787e-48
2.08391e-48
6.23849e-49
1.82516e-49
5.21473e-50
1.45394e-50
3.95288e-51
1.04713e-51
2.70064e-52
6.77581e-53
1.65248e-53
3.91412e-54
8.99673e-55
2.0049e-55
4.32774e-56
9.04047e-57
1.82591e-57
3.56211e-58
6.70541e-59
1.21665e-59
2.12539e-60
3.57071e-61
5.76238e-62
8.92198e-63
1.32368e-63
1.87938e-64
2.55032e-65
3.30301e-66
4.07677e-67
4.78804e-68
5.34224e-69
5.65292e-70
5.66231e-71
5.35912e-72
4.78289e-73
4.01696e-74
3.16887e-75
2.34361e-76
1.61995e-77
1.04173e-78
6.2103e-80
3.4195e-81
1.73257e-82
8.04463e-84
3.40516e-85
1.3058e-86
4.50067e-88
1.38247e-89
3.75401e-91
8.91983e-93
1.83041e-94
3.22395e-96
4.76411e-98
5.69856e-100
5.35634e-102
3.8735e-104
2.03853e-106
7.47749e-109
1.60259e-111
1.04436e-114
7.70887e-120
0
0
0
0
0
0
0
0
0
0
0
0
0
0
0
0
0
0
0
0
0
0
0
0
0
0
0
0
0
0
0
0
0
0
0
0
0
0
0
0
0
0
0
0
0
0
0
0
0
0
0
0
0
0
0
0
0
0
0
0
0
0
0
0
0
0
0
0
0
0
0
0
0
0
0
0
0
0
0
0
0
0
0
0
0
0
0
0
0
0
0
0
0
0
0
0
0
0
0
0
0
0
0
0
0
0
0
0
0
0
0
0
0
0
0
0
0
0
0
0
0
0
0
0
0
0
0
0
0
0
0
0
0
0
0
0
0
0
0
0
0
0
0
0
0
0
0
0
0
0
0
0
0
0
0
0
0
0
0
0
0
0
0
0
0
0
0
0
0
0
0
0
0
0
0
0
0
0
0
0
0
0
0
0
0
0
0
0
0
0
2.16651e-29
1.24653e-29
7.09845e-30
4.00021e-30
2.23055e-30
1.23058e-30
6.71667e-31
3.62681e-31
1.93741e-31
1.02389e-31
5.35373e-32
2.76992e-32
1.41822e-32
7.18714e-33
3.60567e-33
1.79111e-33
8.81167e-34
4.29425e-34
2.07347e-34
9.92117e-35
4.70483e-35
2.21145e-35
1.03033e-35
4.75793e-36
2.17751e-36
9.87471e-37
4.43617e-37
1.97371e-37
8.69369e-38
3.78968e-38
1.63419e-38
6.96812e-39
2.93662e-39
1.22264e-39
5.0265e-40
2.03958e-40
8.16422e-41
3.22236e-41
1.25344e-41
4.8027e-42
1.81173e-42
6.72508e-43
2.45508e-43
8.8096e-44
3.10543e-44
1.07475e-44
3.64967e-45
1.21531e-45
3.96584e-46
1.26738e-46
3.9638e-47
1.2124e-47
3.62409e-48
1.05793e-48
3.01362e-49
8.37084e-50
2.26546e-50
5.96905e-51
1.52991e-51
3.81142e-52
9.22154e-53
2.16491e-53
4.92715e-54
1.0861e-54
2.3166e-55
4.77677e-56
9.51232e-57
1.82749e-57
3.38347e-58
6.02998e-59
1.03328e-59
1.7004e-60
2.68404e-61
4.05862e-62
5.8717e-63
8.11668e-64
1.07054e-64
1.34523e-65
1.60803e-66
1.82549e-67
1.96474e-68
2.00109e-69
1.92513e-70
1.7458e-71
1.48925e-72
1.19276e-73
8.95166e-75
6.27583e-76
4.09161e-77
2.47197e-78
1.37886e-79
7.07504e-81
3.32536e-82
1.42412e-83
5.52194e-85
1.92288e-86
5.96149e-88
1.63214e-89
3.90693e-91
8.06433e-93
1.42492e-94
2.10802e-96
2.51586e-98
2.35033e-100
1.68729e-102
8.81139e-105
3.20229e-107
6.80668e-110
4.38908e-113
3.0747e-118
0
0
0
0
0
0
0
0
0
0
0
0
0
0
0
0
0
0
0
0
0
0
0
0
0
0
0
0
0
0
0
0
0
0
0
0
0
0
0
0
0
0
0
0
0
0
0
0
0
0
0
0
0
0
0
0
0
0
0
0
0
0
0
0
0
0
0
0
0
0
0
0
0
0
0
0
0
0
0
0
0
0
0
0
0
0
0
0
0
0
0
0
0
0
0
0
0
0
0
0
0
0
0
0
0
0
0
0
0
0
0
0
0
0
0
0
0
0
0
0
0
0
0
0
0
0
0
0
0
0
0
0
0
0
0
0
0
0
0
0
0
0
0
0
0
0
0
0
0
0
0
0
0
0
0
0
0
0
0
0
0
0
0
0
0
0
0
0
0
0
0
0
0
0
0
0
0
0
0
0
0
0
0
0
0
0
0
0
0
0
1.42889e-28
8.36162e-29
4.84425e-29
2.77812e-29
1.57695e-29
8.85918e-30
4.92553e-30
2.7101e-30
1.47568e-30
7.95215e-31
4.24125e-31
2.23904e-31
1.17016e-31
6.05485e-32
3.10253e-32
1.57456e-32
7.91624e-33
3.94339e-33
1.94663e-33
9.52394e-34
4.6186e-34
2.22015e-34
1.05786e-34
4.99583e-35
2.33811e-35
1.08421e-35
4.98013e-36
2.26525e-36
1.01997e-36
4.54459e-37
2.0029e-37
8.72772e-38
3.75861e-38
1.59899e-38
6.7167e-39
2.78457e-39
1.13879e-39
4.5921e-40
1.82492e-40
7.14371e-41
2.75317e-41
1.0441e-41
3.89423e-42
1.42767e-42
5.14181e-43
1.81816e-43
6.30828e-44
2.14628e-44
7.15609e-45
2.33665e-45
7.46701e-46
2.33361e-46
7.12732e-47
2.1258e-47
6.18712e-48
1.75586e-48
4.85496e-49
1.30685e-49
3.42182e-50
8.70804e-51
2.15203e-51
5.1601e-52
1.19934e-52
2.69956e-53
5.87888e-54
1.23745e-54
2.51511e-55
4.93078e-56
9.31375e-57
1.69311e-57
2.95864e-58
4.96393e-59
7.98639e-60
1.23058e-60
1.81363e-61
2.55327e-62
3.42871e-63
4.38535e-64
5.33404e-65
6.15967e-66
6.74155e-67
6.98005e-68
6.82408e-69
6.28653e-70
5.44566e-71
4.42704e-72
3.37087e-73
2.39649e-74
1.5838e-75
9.69584e-77
5.47833e-78
2.84645e-79
1.35416e-80
5.86678e-82
2.29977e-83
8.08949e-85
2.53065e-86
6.98349e-88
1.68375e-89
3.49516e-91
6.19349e-93
9.16711e-95
1.09038e-96
1.01046e-98
7.18383e-101
3.71221e-103
1.33337e-105
2.80655e-108
1.7897e-111
1.18895e-116
0
0
0
0
0
0
0
0
0
0
0
0
0
0
0
0
0
0
0
0
0
0
0
0
0
0
0
0
0
0
0
0
0
0
0
0
0
0
0
0
0
0
0
0
0
0
0
0
0
0
0
0
0
0
0
0
0
0
0
0
0
0
0
0
0
0
0
0
0
0
0
0
0
0
0
0
0
0
0
0
0
0
0
0
0
0
0
0
0
0
0
0
0
0
0
0
0
0
0
0
0
0
0
0
0
0
0
0
0
0
0
0
0
0
0
0
0
0
0
0
0
0
0
0
0
0
0
0
0
0
0
0
0
0
0
0
0
0
0
0
0
0
0
0
0
0
0
0
0
0
0
0
0
0
0
0
0
0
0
0
0
0
0
0
0
0
0
0
0
0
0
0
0
0
0
0
0
0
0
0
0
0
0
0
0
0
0
0
0
0
9.36753e-28
5.57549e-28
3.28631e-28
1.91801e-28
1.10834e-28
6.34067e-29
3.59106e-29
2.01337e-29
1.11749e-29
6.14038e-30
3.34048e-30
1.79938e-30
9.59818e-31
5.07069e-31
2.65353e-31
1.37571e-31
7.06723e-32
3.59792e-32
1.81546e-32
9.08027e-33
4.50202e-33
2.21265e-33
1.07794e-33
5.2048e-34
2.4904e-34
1.18057e-34
5.54322e-35
2.57715e-35
1.18598e-35
5.40021e-36
2.43203e-36
1.08286e-36
4.76474e-37
2.07098e-37
8.88772e-38
3.76431e-38
1.57275e-38
6.47906e-39
2.63045e-39
1.05196e-39
4.14196e-40
1.60479e-40
6.11518e-41
2.29054e-41
8.4286e-42
3.04515e-42
1.07953e-42
3.75287e-43
1.27854e-43
4.26574e-44
1.39287e-44
4.44791e-45
1.38808e-45
4.23025e-46
1.25799e-46
3.64765e-47
1.03045e-47
2.83377e-48
7.57995e-49
1.97047e-49
4.97393e-50
1.21805e-50
2.89105e-51
6.64434e-52
1.47718e-52
3.17375e-53
6.58297e-54
1.31677e-54
2.53719e-55
4.70378e-56
8.38072e-57
1.43327e-57
2.34992e-58
3.68886e-59
5.53723e-60
7.93743e-61
1.085e-61
1.4122e-62
1.74748e-63
2.05231e-64
2.28368e-65
2.40318e-66
2.38714e-67
2.23353e-68
1.9643e-69
1.62058e-70
1.25172e-71
9.02297e-73
6.04408e-74
3.74906e-75
2.14561e-76
1.12886e-77
5.43546e-79
2.38206e-80
9.43886e-82
3.35317e-83
1.05822e-84
2.94266e-86
7.14507e-88
1.49147e-89
2.64993e-91
3.92189e-93
4.64389e-95
4.26029e-97
2.99175e-99
1.52493e-101
5.39797e-104
1.12309e-106
7.07818e-110
4.45586e-115
0
0
0
0
0
0
0
0
0
0
0
0
0
0
0
0
0
0
0
0
0
0
0
0
0
0
0
0
0
0
0
0
0
0
0
0
0
0
0
0
0
0
0
0
0
0
0
0
0
0
0
0
0
0
0
0
0
0
0
0
0
0
0
0
0
0
0
0
0
0
0
0
0
0
0
0
0
0
0
0
0
0
0
0
0
0
0
0
0
0
0
0
0
0
0
0
0
0
0
0
0
0
0
0
0
0
0
0
0
0
0
0
0
0
0
0
0
0
0
0
0
0
0
0
0
0
0
0
0
0
0
0
0
0
0
0
0
0
0
0
0
0
0
0
0
0
0
0
0
0
0
0
0
0
0
0
0
0
0
0
0
0
0
0
0
0
0
0
0
0
0
0
0
0
0
0
0
0
0
0
0
0
0
0
0
0
0
0
0
0
6.09597e-27
3.69048e-27
2.21318e-27
1.31461e-27
7.73365e-28
4.50559e-28
2.59944e-28
1.48512e-28
8.40231e-29
4.70771e-29
2.61229e-29
1.43572e-29
7.81633e-30
4.21572e-30
2.25287e-30
1.19304e-30
6.26154e-31
3.25737e-31
1.67977e-31
8.58728e-32
4.352e-32
2.18642e-32
1.08882e-32
5.37398e-33
2.62828e-33
1.27344e-33
6.11086e-34
2.90337e-34
1.36531e-34
6.35222e-35
2.92294e-35
1.32965e-35
5.97723e-36
2.65412e-36
1.16362e-36
5.03475e-37
2.14895e-37
9.04383e-38
3.75104e-38
1.53255e-38
6.1648e-39
2.44031e-39
9.50074e-40
3.63597e-40
1.36705e-40
5.04657e-41
1.82806e-41
6.49371e-42
2.2606e-42
7.70709e-43
2.57154e-43
8.39122e-44
2.67588e-44
8.33282e-45
2.53203e-45
7.50157e-46
2.16518e-46
6.08325e-47
1.66231e-47
4.41419e-48
1.13808e-48
2.84628e-49
6.8984e-50
1.61867e-50
3.67351e-51
8.05524e-52
1.70488e-52
3.47899e-53
6.83698e-54
1.29247e-54
2.34751e-55
4.09161e-56
6.83498e-57
1.09289e-57
1.67055e-58
2.43787e-59
3.39158e-60
4.49142e-61
5.65318e-62
6.75122e-63
7.63655e-64
8.16646e-65
8.24065e-66
7.82981e-67
6.99e-68
5.8516e-69
4.58428e-70
3.35034e-71
2.27462e-72
1.42955e-73
8.28693e-75
4.41485e-76
2.15146e-77
9.53691e-79
3.81952e-80
1.37018e-81
4.36129e-83
1.22181e-84
2.98739e-86
6.2707e-88
1.11695e-89
1.65211e-91
1.94534e-93
1.76307e-95
1.2196e-97
6.11037e-100
2.12466e-102
4.36009e-105
2.71389e-108
1.61777e-113
0
0
0
0
0
0
0
0
0
0
0
0
0
0
0
0
0
0
0
0
0
0
0
0
0
0
0
0
0
0
0
0
0
0
0
0
0
0
0
0
0
0
0
0
0
0
0
0
0
0
0
0
0
0
0
0
0
0
0
0
0
0
0
0
0
0
0
0
0
0
0
0
0
0
0
0
0
0
0
0
0
0
0
0
0
0
0
0
0
0
0
0
0
0
0
0
0
0
0
0
0
0
0
0
0
0
0
0
0
0
0
0
0
0
0
0
0
0
0
0
0
0
0
0
0
0
0
0
0
0
0
0