/*--------------------------------*- C++ -*----------------------------------*\
| =========                 |                                                 |
| \\      /  F ield         | OpenFOAM: The Open Source CFD Toolbox           |
|  \\    /   O peration     | Version:  2.4.0                                 |
|   \\  /    A nd           | Web:      www.OpenFOAM.org                      |
|    \\/     M anipulation  |                                                 |
\*---------------------------------------------------------------------------*/
FoamFile
{
    version     2.0;
    format      ascii;
    class       volVectorField;
    location    "1.1";
    object      U;
}
// * * * * * * * * * * * * * * * * * * * * * * * * * * * * * * * * * * * * * //

dimensions      [0 1 -1 0 0 0 0];

internalField   nonuniform List<vector> 
8000
(
(-3.26929e-08 -0.000215891 0)
(-3.55475e-07 -0.000633342 0)
(-1.01625e-06 -0.00103648 0)
(-2.00728e-06 -0.00142533 0)
(-3.31082e-06 -0.00179989 0)
(-4.91743e-06 -0.00216018 0)
(-6.81592e-06 -0.0025062 0)
(-9.00313e-06 -0.00283796 0)
(-1.14666e-05 -0.00315545 0)
(-1.42063e-05 -0.00345869 0)
(-1.72063e-05 -0.00374766 0)
(-2.04706e-05 -0.00402236 0)
(-2.39774e-05 -0.00428278 0)
(-2.77359e-05 -0.00452892 0)
(-3.17158e-05 -0.00476077 0)
(-3.59324e-05 -0.0049783 0)
(-4.03447e-05 -0.00518152 0)
(-4.49747e-05 -0.00537039 0)
(-4.97691e-05 -0.00554491 0)
(-5.47559e-05 -0.00570504 0)
(-5.98672e-05 -0.00585078 0)
(-6.51412e-05 -0.00598209 0)
(-7.05246e-05 -0.00609895 0)
(-7.61119e-05 -0.00620132 0)
(-8.17501e-05 -0.00628917 0)
(-8.68671e-05 -0.00636246 0)
(-9.00741e-05 -0.00642114 0)
(-9.30189e-05 -0.00646513 0)
(-0.000111922 -0.0064945 0)
(-0.000176211 -0.00650955 0)
(-0.000265239 -0.00651344 0)
(-0.000320282 -0.00651027 0)
(-0.000378899 -0.00650949 0)
(-0.000336254 -0.00650948 0)
(-0.000321562 -0.00650885 0)
(-0.000327402 -0.00650695 0)
(-0.000336748 -0.0065037 0)
(-0.000345033 -0.00649908 0)
(-0.000352631 -0.00649323 0)
(-0.000360186 -0.00648621 0)
(-0.000367868 -0.00647803 0)
(-0.000375653 -0.00646866 0)
(-0.00038351 -0.00645803 0)
(-0.000391422 -0.0064461 0)
(-0.000399382 -0.00643282 0)
(-0.000407383 -0.00641817 0)
(-0.000415414 -0.00640212 0)
(-0.000423467 -0.00638466 0)
(-0.000431532 -0.0063658 0)
(-0.000439601 -0.00634554 0)
(-4.96263e-08 -0.000212857 0)
(-4.78774e-07 -0.000624603 0)
(-1.33695e-06 -0.00102236 0)
(-2.60595e-06 -0.00140611 0)
(-4.26095e-06 -0.00177584 0)
(-6.28463e-06 -0.00213151 0)
(-8.66465e-06 -0.00247313 0)
(-1.13908e-05 -0.00280067 0)
(-1.44531e-05 -0.00311412 0)
(-1.78432e-05 -0.00341348 0)
(-2.15524e-05 -0.00369873 0)
(-2.55736e-05 -0.00396987 0)
(-2.98989e-05 -0.00422689 0)
(-3.45217e-05 -0.0044698 0)
(-3.94343e-05 -0.0046986 0)
(-4.46303e-05 -0.00491328 0)
(-5.01007e-05 -0.00511386 0)
(-5.58394e-05 -0.00530033 0)
(-6.1835e-05 -0.00547272 0)
(-6.80804e-05 -0.00563101 0)
(-7.45594e-05 -0.00577522 0)
(-8.12687e-05 -0.00590535 0)
(-8.82052e-05 -0.0060214 0)
(-9.53958e-05 -0.00612339 0)
(-0.000102743 -0.00621127 0)
(-0.000109786 -0.0062851 0)
(-0.000115711 -0.00634484 0)
(-0.000122228 -0.00639065 0)
(-0.000140997 -0.00642256 0)
(-0.000190662 -0.00644149 0)
(-0.000262772 -0.00644535 0)
(-0.000329536 -0.00644663 0)
(-0.000405514 -0.00644757 0)
(-0.00033528 -0.00644287 0)
(-0.000326619 -0.00643805 0)
(-0.000334692 -0.00643356 0)
(-0.000344078 -0.00642874 0)
(-0.000351586 -0.00642295 0)
(-0.000358393 -0.00641592 0)
(-0.000365204 -0.00640763 0)
(-0.000372138 -0.00639808 0)
(-0.00037916 -0.00638727 0)
(-0.000386249 -0.00637521 0)
(-0.000393404 -0.00636188 0)
(-0.000400628 -0.00634728 0)
(-0.000407918 -0.00633139 0)
(-0.000415273 -0.00631421 0)
(-0.000422687 -0.00629575 0)
(-0.000430154 -0.00627601 0)
(-0.000437667 -0.00625501 0)
(-1.98745e-08 -0.000210304 0)
(-2.57734e-07 -0.000617109 0)
(-7.68277e-07 -0.00101007 0)
(-1.55711e-06 -0.00138915 0)
(-2.62199e-06 -0.00175431 0)
(-3.96403e-06 -0.00210552 0)
(-5.58453e-06 -0.00244275 0)
(-7.48696e-06 -0.00276598 0)
(-9.67213e-06 -0.00307517 0)
(-1.21438e-05 -0.00337033 0)
(-1.49022e-05 -0.00365141 0)
(-1.79523e-05 -0.00391841 0)
(-2.12938e-05 -0.00417132 0)
(-2.49339e-05 -0.00441013 0)
(-2.88716e-05 -0.00463481 0)
(-3.31174e-05 -0.00484538 0)
(-3.76694e-05 -0.00504183 0)
(-4.25427e-05 -0.00522415 0)
(-4.77335e-05 -0.00539234 0)
(-5.32626e-05 -0.00554641 0)
(-5.91228e-05 -0.00568635 0)
(-6.53476e-05 -0.00581219 0)
(-7.19433e-05 -0.00592393 0)
(-7.89626e-05 -0.00602157 0)
(-8.62789e-05 -0.00610514 0)
(-9.35104e-05 -0.00617465 0)
(-0.000100298 -0.00623012 0)
(-0.000109581 -0.00627163 0)
(-0.000131859 -0.00629947 0)
(-0.000178401 -0.00631638 0)
(-0.000246007 -0.00631945 0)
(-0.00032302 -0.00632148 0)
(-0.000398563 -0.00632651 0)
(-0.000321711 -0.00632882 0)
(-0.000318826 -0.00632914 0)
(-0.000330382 -0.00632788 0)
(-0.000341905 -0.00632498 0)
(-0.000351115 -0.00632041 0)
(-0.00035953 -0.00631427 0)
(-0.000367845 -0.00630663 0)
(-0.000376138 -0.00629756 0)
(-0.000384364 -0.00628711 0)
(-0.000392506 -0.00627527 0)
(-0.000400572 -0.00626208 0)
(-0.00040857 -0.00624755 0)
(-0.00041651 -0.00623169 0)
(-0.000424396 -0.00621452 0)
(-0.000432235 -0.00619605 0)
(-0.000440029 -0.00617632 0)
(-0.000447782 -0.00615534 0)
(-7.36255e-09 -0.000209588 0)
(-1.05896e-07 -0.000614689 0)
(-3.38314e-07 -0.00100571 0)
(-7.20901e-07 -0.00138264 0)
(-1.26712e-06 -0.00174547 0)
(-1.99095e-06 -0.0020942 0)
(-2.90385e-06 -0.0024288 0)
(-4.01807e-06 -0.00274928 0)
(-5.34223e-06 -0.00305562 0)
(-6.88711e-06 -0.0033478 0)
(-8.65912e-06 -0.00362582 0)
(-1.06687e-05 -0.00388966 0)
(-1.29207e-05 -0.00413931 0)
(-1.54264e-05 -0.00437476 0)
(-1.81894e-05 -0.00459598 0)
(-2.1223e-05 -0.00480297 0)
(-2.453e-05 -0.00499571 0)
(-2.81273e-05 -0.00517418 0)
(-3.20164e-05 -0.00533836 0)
(-3.62188e-05 -0.00548823 0)
(-4.07352e-05 -0.00562378 0)
(-4.56031e-05 -0.00574496 0)
(-5.08414e-05 -0.00585177 0)
(-5.64879e-05 -0.00594417 0)
(-6.23514e-05 -0.00602213 0)
(-6.7982e-05 -0.00608556 0)
(-7.34646e-05 -0.00613441 0)
(-8.37358e-05 -0.00616866 0)
(-0.000110582 -0.00618905 0)
(-0.000157793 -0.00620019 0)
(-0.0002234 -0.0061993 0)
(-0.000308461 -0.00619857 0)
(-0.000342972 -0.00620204 0)
(-0.000286302 -0.0062065 0)
(-0.000287185 -0.0062096 0)
(-0.000299317 -0.00621101 0)
(-0.000311109 -0.00621052 0)
(-0.000321134 -0.00620818 0)
(-0.00033063 -0.00620412 0)
(-0.000340105 -0.00619844 0)
(-0.000349586 -0.00619121 0)
(-0.000359016 -0.00618246 0)
(-0.000368366 -0.00617221 0)
(-0.000377631 -0.00616049 0)
(-0.000386809 -0.00614729 0)
(-0.000395899 -0.00613266 0)
(-0.0004049 -0.00611662 0)
(-0.000413813 -0.00609919 0)
(-0.000422636 -0.00608041 0)
(-0.000431371 -0.00606031 0)
(-1.50296e-08 -0.000209086 0)
(-2.02447e-07 -0.000612912 0)
(-6.08739e-07 -0.00100241 0)
(-1.24034e-06 -0.00137761 0)
(-2.09759e-06 -0.00173852 0)
(-3.18309e-06 -0.00208514 0)
(-4.49965e-06 -0.0024175 0)
(-6.0512e-06 -0.00273558 0)
(-7.83967e-06 -0.0030394 0)
(-9.86829e-06 -0.00332895 0)
(-1.21378e-05 -0.00360423 0)
(-1.46511e-05 -0.00386523 0)
(-1.74077e-05 -0.00411194 0)
(-2.04099e-05 -0.00434435 0)
(-2.36563e-05 -0.00456245 0)
(-2.71487e-05 -0.0047662 0)
(-3.08844e-05 -0.00495561 0)
(-3.48644e-05 -0.00513063 0)
(-3.90837e-05 -0.00529125 0)
(-4.3541e-05 -0.00543743 0)
(-4.82314e-05 -0.00556914 0)
(-5.31733e-05 -0.00568634 0)
(-5.83994e-05 -0.00578897 0)
(-6.38665e-05 -0.00587701 0)
(-6.90785e-05 -0.00595038 0)
(-7.29828e-05 -0.006009 0)
(-7.66135e-05 -0.00605273 0)
(-9.26e-05 -0.00608164 0)
(-0.000145285 -0.00609637 0)
(-0.000221145 -0.0061014 0)
(-0.00028961 -0.00609717 0)
(-0.000381451 -0.00609521 0)
(-0.000343475 -0.00609414 0)
(-0.000315278 -0.00609402 0)
(-0.000318339 -0.00609332 0)
(-0.000327693 -0.00609165 0)
(-0.000336141 -0.00608873 0)
(-0.000343655 -0.00608461 0)
(-0.000351098 -0.00607934 0)
(-0.000358735 -0.00607294 0)
(-0.00036654 -0.0060654 0)
(-0.000374453 -0.00605668 0)
(-0.000382443 -0.00604674 0)
(-0.000390489 -0.00603555 0)
(-0.000398577 -0.00602309 0)
(-0.00040669 -0.00600933 0)
(-0.000414815 -0.00599429 0)
(-0.000422939 -0.00597795 0)
(-0.000431054 -0.00596035 0)
(-0.000439149 -0.00594148 0)
(-4.84364e-08 -0.000207004 0)
(-4.72813e-07 -0.000606798 0)
(-1.32173e-06 -0.000992385 0)
(-2.57589e-06 -0.00136377 0)
(-4.2107e-06 -0.00172095 0)
(-6.20671e-06 -0.00206393 0)
(-8.5529e-06 -0.00239271 0)
(-1.12362e-05 -0.00270729 0)
(-1.42493e-05 -0.00300766 0)
(-1.75796e-05 -0.00329384 0)
(-2.12222e-05 -0.0035658 0)
(-2.51643e-05 -0.00382355 0)
(-2.9403e-05 -0.00406709 0)
(-3.39236e-05 -0.00429641 0)
(-3.87249e-05 -0.0045115 0)
(-4.37888e-05 -0.00471237 0)
(-4.91159e-05 -0.00489901 0)
(-5.46823e-05 -0.00507143 0)
(-6.04893e-05 -0.0052296 0)
(-6.65035e-05 -0.00537354 0)
(-7.27321e-05 -0.00550323 0)
(-7.91548e-05 -0.0056187 0)
(-8.58212e-05 -0.00571992 0)
(-9.25987e-05 -0.00580692 0)
(-9.89213e-05 -0.00587966 0)
(-0.000103666 -0.0059382 0)
(-0.000108717 -0.00598253 0)
(-0.000129043 -0.00601285 0)
(-0.000188133 -0.00602949 0)
(-0.000272355 -0.00603306 0)
(-0.000341824 -0.00603179 0)
(-0.000422562 -0.0060352 0)
(-0.000344981 -0.0060355 0)
(-0.000335065 -0.00603452 0)
(-0.000342747 -0.00603212 0)
(-0.000351779 -0.00602815 0)
(-0.000358864 -0.0060227 0)
(-0.000365285 -0.00601596 0)
(-0.00037178 -0.00600814 0)
(-0.000378455 -0.00599933 0)
(-0.000385259 -0.00598955 0)
(-0.000392156 -0.0059788 0)
(-0.000399136 -0.00596706 0)
(-0.000406191 -0.00595428 0)
(-0.000413316 -0.00594045 0)
(-0.0004205 -0.00592553 0)
(-0.000427734 -0.00590951 0)
(-0.000435011 -0.00589238 0)
(-0.000442322 -0.00587414 0)
(-0.000449658 -0.00585478 0)
(-3.9094e-08 -0.000203515 0)
(-4.01897e-07 -0.000596771 0)
(-1.14063e-06 -0.000976206 0)
(-2.24552e-06 -0.00134177 0)
(-3.70068e-06 -0.00169344 0)
(-5.49469e-06 -0.00203116 0)
(-7.62174e-06 -0.00235491 0)
(-1.00751e-05 -0.00266466 0)
(-1.28514e-05 -0.00296039 0)
(-1.59441e-05 -0.00324208 0)
(-1.93517e-05 -0.00350971 0)
(-2.30676e-05 -0.00376327 0)
(-2.70921e-05 -0.00400275 0)
(-3.14179e-05 -0.00422814 0)
(-3.60475e-05 -0.00443944 0)
(-4.09716e-05 -0.00463664 0)
(-4.61957e-05 -0.00481977 0)
(-5.17069e-05 -0.00498881 0)
(-5.75136e-05 -0.00514378 0)
(-6.35973e-05 -0.0052847 0)
(-6.99759e-05 -0.00541158 0)
(-7.66428e-05 -0.00552445 0)
(-8.36433e-05 -0.00562334 0)
(-9.08492e-05 -0.00570828 0)
(-9.78264e-05 -0.00577931 0)
(-0.000103945 -0.00583646 0)
(-0.000111669 -0.00587988 0)
(-0.00013246 -0.00590977 0)
(-0.000182774 -0.00592815 0)
(-0.000258054 -0.00593177 0)
(-0.000340284 -0.00593385 0)
(-0.000423023 -0.00593961 0)
(-0.00033408 -0.00594251 0)
(-0.000329237 -0.00594287 0)
(-0.000339907 -0.00594106 0)
(-0.000350414 -0.00593729 0)
(-0.000358408 -0.00593184 0)
(-0.000365603 -0.005925 0)
(-0.000372756 -0.00591699 0)
(-0.000379949 -0.00590792 0)
(-0.000387133 -0.00589783 0)
(-0.00039429 -0.00588673 0)
(-0.000401427 -0.00587461 0)
(-0.000408554 -0.00586145 0)
(-0.000415678 -0.00584723 0)
(-0.000422802 -0.00583196 0)
(-0.000429928 -0.00581562 0)
(-0.000437057 -0.00579821 0)
(-0.000444189 -0.00577974 0)
(-0.000451323 -0.00576021 0)
(-2.22071e-09 -0.000202214 0)
(-8.95563e-08 -0.000592725 0)
(-3.1106e-07 -0.000969291 0)
(-6.86238e-07 -0.00133188 0)
(-1.23104e-06 -0.00168048 0)
(-1.95974e-06 -0.00201505 0)
(-2.88631e-06 -0.00233557 0)
(-4.02278e-06 -0.00264203 0)
(-5.38133e-06 -0.00293441 0)
(-6.97178e-06 -0.00321269 0)
(-8.80559e-06 -0.00347686 0)
(-1.08912e-05 -0.00372691 0)
(-1.32406e-05 -0.00396282 0)
(-1.58613e-05 -0.00418458 0)
(-1.87675e-05 -0.00439219 0)
(-2.19661e-05 -0.00458565 0)
(-2.54749e-05 -0.00476494 0)
(-2.93002e-05 -0.00493008 0)
(-3.34652e-05 -0.00508105 0)
(-3.7975e-05 -0.00521787 0)
(-4.28688e-05 -0.00534054 0)
(-4.81694e-05 -0.00544907 0)
(-5.39285e-05 -0.00554346 0)
(-5.99974e-05 -0.00562374 0)
(-6.59627e-05 -0.0056899 0)
(-7.16848e-05 -0.00574194 0)
(-8.12058e-05 -0.00577995 0)
(-0.000105717 -0.00580435 0)
(-0.000154584 -0.00581873 0)
(-0.000228433 -0.00582041 0)
(-0.000324626 -0.00582212 0)
(-0.000371174 -0.00582786 0)
(-0.000301052 -0.00583391 0)
(-0.000300987 -0.00583772 0)
(-0.000313595 -0.00583918 0)
(-0.000325583 -0.00583831 0)
(-0.000335382 -0.0058354 0)
(-0.000344495 -0.00583073 0)
(-0.000353535 -0.00582452 0)
(-0.000362544 -0.00581692 0)
(-0.000371466 -0.00580804 0)
(-0.000380279 -0.00579792 0)
(-0.000388984 -0.00578659 0)
(-0.000397586 -0.00577407 0)
(-0.000406089 -0.00576038 0)
(-0.000414496 -0.00574554 0)
(-0.000422811 -0.00572955 0)
(-0.000431037 -0.00571244 0)
(-0.000439175 -0.00569424 0)
(-0.000447229 -0.00567495 0)
(-7.04894e-09 -0.000202294 0)
(-1.09307e-07 -0.000592524 0)
(-3.49286e-07 -0.000968416 0)
(-7.39824e-07 -0.00132998 0)
(-1.29392e-06 -0.00167724 0)
(-2.02002e-06 -0.00201019 0)
(-2.93109e-06 -0.00232885 0)
(-4.03262e-06 -0.0026332 0)
(-5.33684e-06 -0.00292325 0)
(-6.84583e-06 -0.003199 0)
(-8.57207e-06 -0.00346044 0)
(-1.05147e-05 -0.00370755 0)
(-1.26875e-05 -0.00394033 0)
(-1.5087e-05 -0.00415876 0)
(-1.77297e-05 -0.00436282 0)
(-2.06093e-05 -0.00455249 0)
(-2.37465e-05 -0.00472776 0)
(-2.71315e-05 -0.00488859 0)
(-3.07903e-05 -0.00503495 0)
(-3.47102e-05 -0.0051668 0)
(-3.89382e-05 -0.00528412 0)
(-4.34826e-05 -0.00538683 0)
(-4.83735e-05 -0.00547493 0)
(-5.33048e-05 -0.00554831 0)
(-5.76798e-05 -0.00560691 0)
(-6.19084e-05 -0.00565051 0)
(-7.34045e-05 -0.00567922 0)
(-0.000107182 -0.00569399 0)
(-0.000161949 -0.00570054 0)
(-0.00023431 -0.00569584 0)
(-0.000345527 -0.00569428 0)
(-0.000315693 -0.00569718 0)
(-0.000281688 -0.00570136 0)
(-0.000285266 -0.00570419 0)
(-0.00029645 -0.00570518 0)
(-0.000306737 -0.00570419 0)
(-0.000315846 -0.0057015 0)
(-0.000324733 -0.00569742 0)
(-0.000333707 -0.00569212 0)
(-0.000342745 -0.00568573 0)
(-0.000351783 -0.00567827 0)
(-0.000360794 -0.00566974 0)
(-0.000369764 -0.00566012 0)
(-0.000378685 -0.00564938 0)
(-0.000387549 -0.00563752 0)
(-0.000396351 -0.00562451 0)
(-0.000405085 -0.00561035 0)
(-0.000413745 -0.00559506 0)
(-0.00042233 -0.00557864 0)
(-0.000430835 -0.0055611 0)
(-3.95953e-08 -0.000200884 0)
(-4.13589e-07 -0.000588277 0)
(-1.16791e-06 -0.00096132 0)
(-2.28851e-06 -0.00132004 0)
(-3.74899e-06 -0.00166444 0)
(-5.53449e-06 -0.00199456 0)
(-7.62711e-06 -0.00231039 0)
(-1.00195e-05 -0.00261194 0)
(-1.26936e-05 -0.00289922 0)
(-1.56449e-05 -0.00317224 0)
(-1.88533e-05 -0.00343098 0)
(-2.23173e-05 -0.00367545 0)
(-2.60135e-05 -0.00390563 0)
(-2.99435e-05 -0.00412153 0)
(-3.40789e-05 -0.00432313 0)
(-3.84247e-05 -0.00451041 0)
(-4.29453e-05 -0.00468336 0)
(-4.76483e-05 -0.00484196 0)
(-5.24863e-05 -0.00498619 0)
(-5.74758e-05 -0.00511603 0)
(-6.25862e-05 -0.00523144 0)
(-6.78964e-05 -0.0053324 0)
(-7.32534e-05 -0.00541887 0)
(-7.79629e-05 -0.00549081 0)
(-8.04682e-05 -0.00554817 0)
(-8.2706e-05 -0.00559085 0)
(-0.000103551 -0.00561895 0)
(-0.0001758 -0.0056329 0)
(-0.000279043 -0.00563585 0)
(-0.000353202 -0.00563191 0)
(-0.000440162 -0.00563299 0)
(-0.000350873 -0.00563002 0)
(-0.000339428 -0.00562706 0)
(-0.000346799 -0.00562367 0)
(-0.000355575 -0.00561963 0)
(-0.000362297 -0.00561485 0)
(-0.000368376 -0.0056094 0)
(-0.00037456 -0.0056033 0)
(-0.000380936 -0.00559651 0)
(-0.000387435 -0.00558897 0)
(-0.00039402 -0.00558061 0)
(-0.000400681 -0.00557137 0)
(-0.000407415 -0.00556121 0)
(-0.000414217 -0.00555008 0)
(-0.000421082 -0.00553797 0)
(-0.000428 -0.00552484 0)
(-0.000434963 -0.00551071 0)
(-0.000441963 -0.00549555 0)
(-0.00044899 -0.00547938 0)
(-0.000456037 -0.00546219 0)
(-5.43202e-08 -0.000197263 0)
(-5.12295e-07 -0.000577947 0)
(-1.42126e-06 -0.000944761 0)
(-2.75836e-06 -0.00129767 0)
(-4.49421e-06 -0.00163666 0)
(-6.60743e-06 -0.00196169 0)
(-9.08234e-06 -0.00227275 0)
(-1.19053e-05 -0.00256983 0)
(-1.50634e-05 -0.00285291 0)
(-1.8545e-05 -0.00312197 0)
(-2.23383e-05 -0.00337701 0)
(-2.64337e-05 -0.00361802 0)
(-3.08193e-05 -0.00384499 0)
(-3.54873e-05 -0.00405792 0)
(-4.04243e-05 -0.00425681 0)
(-4.56242e-05 -0.00444167 0)
(-5.10701e-05 -0.00461248 0)
(-5.67571e-05 -0.00476928 0)
(-6.26614e-05 -0.00491204 0)
(-6.87848e-05 -0.00504082 0)
(-7.51175e-05 -0.00515559 0)
(-8.16972e-05 -0.00525642 0)
(-8.83996e-05 -0.0053433 0)
(-9.47005e-05 -0.00541629 0)
(-9.9673e-05 -0.00547541 0)
(-0.000105426 -0.00552083 0)
(-0.000125318 -0.0055527 0)
(-0.000181367 -0.00557214 0)
(-0.000265741 -0.00557599 0)
(-0.000352997 -0.00557791 0)
(-0.000442626 -0.00557826 0)
(-0.000341508 -0.00557508 0)
(-0.000334933 -0.00557065 0)
(-0.000344784 -0.0055656 0)
(-0.000354326 -0.00556013 0)
(-0.000361204 -0.00555423 0)
(-0.000367327 -0.00554782 0)
(-0.000373499 -0.00554078 0)
(-0.000379791 -0.00553297 0)
(-0.000386141 -0.00552431 0)
(-0.000392523 -0.00551472 0)
(-0.000398941 -0.00550418 0)
(-0.000405401 -0.00549268 0)
(-0.000411905 -0.00548023 0)
(-0.000418455 -0.00546683 0)
(-0.000425047 -0.00545249 0)
(-0.000431678 -0.00543722 0)
(-0.000438346 -0.00542103 0)
(-0.000445044 -0.00540393 0)
(-0.00045177 -0.00538593 0)
(-9.76682e-09 -0.000194949 0)
(-1.76066e-07 -0.000571118 0)
(-5.51287e-07 -0.000933517 0)
(-1.14807e-06 -0.0012821 0)
(-1.9705e-06 -0.00161684 0)
(-3.02608e-06 -0.0019377 0)
(-4.31942e-06 -0.00224465 0)
(-5.85956e-06 -0.00253766 0)
(-7.64942e-06 -0.00281671 0)
(-9.6986e-06 -0.00308178 0)
(-1.20082e-05 -0.00333285 0)
(-1.45895e-05 -0.00356991 0)
(-1.74419e-05 -0.00379295 0)
(-2.05792e-05 -0.00400196 0)
(-2.39992e-05 -0.00419692 0)
(-2.77198e-05 -0.00437784 0)
(-3.17361e-05 -0.00454472 0)
(-3.60711e-05 -0.00469755 0)
(-4.07166e-05 -0.00483634 0)
(-4.57091e-05 -0.00496109 0)
(-5.10566e-05 -0.00507183 0)
(-5.68181e-05 -0.00516856 0)
(-6.28545e-05 -0.0052513 0)
(-6.87335e-05 -0.00532008 0)
(-7.40255e-05 -0.0053749 0)
(-8.20526e-05 -0.00541588 0)
(-0.00010446 -0.00544327 0)
(-0.000156522 -0.00545996 0)
(-0.000238465 -0.00546274 0)
(-0.00034228 -0.00546499 0)
(-0.000401738 -0.00546614 0)
(-0.000316055 -0.00546719 0)
(-0.000313999 -0.00546635 0)
(-0.000326054 -0.00546403 0)
(-0.000337265 -0.00546047 0)
(-0.000345946 -0.00545589 0)
(-0.000353878 -0.00545041 0)
(-0.000361769 -0.00544404 0)
(-0.00036967 -0.00543675 0)
(-0.000377521 -0.00542852 0)
(-0.000385297 -0.00541931 0)
(-0.000393003 -0.00540912 0)
(-0.000400644 -0.00539795 0)
(-0.000408224 -0.0053858 0)
(-0.000415746 -0.00537269 0)
(-0.000423213 -0.00535863 0)
(-0.000430625 -0.00534363 0)
(-0.000437986 -0.00532772 0)
(-0.000445296 -0.00531092 0)
(-0.000452556 -0.00529323 0)
(-1.32544e-09 -0.000194882 0)
(-3.449e-08 -0.000570524 0)
(-1.35564e-07 -0.000932046 0)
(-3.25555e-07 -0.00127944 0)
(-6.24976e-07 -0.00161272 0)
(-1.05427e-06 -0.00193186 0)
(-1.63003e-06 -0.00223687 0)
(-2.37017e-06 -0.00252773 0)
(-3.28785e-06 -0.00280444 0)
(-4.39975e-06 -0.003067 0)
(-5.71641e-06 -0.00331539 0)
(-7.25481e-06 -0.0035496 0)
(-9.0234e-06 -0.00376962 0)
(-1.10411e-05 -0.00397544 0)
(-1.33145e-05 -0.00416705 0)
(-1.58663e-05 -0.00434442 0)
(-1.87011e-05 -0.00450755 0)
(-2.18471e-05 -0.00465642 0)
(-2.53066e-05 -0.004791 0)
(-2.91254e-05 -0.00491127 0)
(-3.33234e-05 -0.00501723 0)
(-3.79518e-05 -0.00510882 0)
(-4.28218e-05 -0.00518605 0)
(-4.74843e-05 -0.00524883 0)
(-5.19386e-05 -0.00529711 0)
(-6.11213e-05 -0.0053309 0)
(-8.67647e-05 -0.00535087 0)
(-0.000137612 -0.00536151 0)
(-0.000220592 -0.00536034 0)
(-0.000355292 -0.00536082 0)
(-0.000329764 -0.00535805 0)
(-0.000285093 -0.00535765 0)
(-0.000287832 -0.00535692 0)
(-0.000299657 -0.00535552 0)
(-0.000310288 -0.00535325 0)
(-0.000319324 -0.00535014 0)
(-0.00032797 -0.00534617 0)
(-0.000336643 -0.0053413 0)
(-0.000345338 -0.00533547 0)
(-0.000354 -0.00532863 0)
(-0.000362604 -0.00532076 0)
(-0.000371144 -0.00531184 0)
(-0.000379616 -0.00530188 0)
(-0.000388017 -0.00529089 0)
(-0.000396344 -0.00527888 0)
(-0.000404594 -0.00526588 0)
(-0.000412766 -0.00525189 0)
(-0.000420858 -0.00523696 0)
(-0.000428868 -0.00522108 0)
(-0.000436797 -0.0052043 0)
(-1.08194e-08 -0.000194671 0)
(-1.69639e-07 -0.000569577 0)
(-5.19655e-07 -0.000930075 0)
(-1.06893e-06 -0.00127619 0)
(-1.81803e-06 -0.00160794 0)
(-2.77122e-06 -0.00192535 0)
(-3.93037e-06 -0.00222841 0)
(-5.30165e-06 -0.00251715 0)
(-6.88541e-06 -0.00279156 0)
(-8.68821e-06 -0.00305164 0)
(-1.07084e-05 -0.00329739 0)
(-1.29533e-05 -0.0035288 0)
(-1.5419e-05 -0.00374585 0)
(-1.81142e-05 -0.00394854 0)
(-2.1032e-05 -0.00413684 0)
(-2.4183e-05 -0.00431072 0)
(-2.75557e-05 -0.00447017 0)
(-3.11618e-05 -0.00461514 0)
(-3.49869e-05 -0.0047456 0)
(-3.90662e-05 -0.00486151 0)
(-4.34165e-05 -0.00496281 0)
(-4.8022e-05 -0.00504947 0)
(-5.23928e-05 -0.00512139 0)
(-5.55653e-05 -0.0051785 0)
(-5.84645e-05 -0.00522062 0)
(-7.31313e-05 -0.00524783 0)
(-0.000122066 -0.00526105 0)
(-0.000196739 -0.00526548 0)
(-0.000283408 -0.00526016 0)
(-0.000425798 -0.00526064 0)
(-0.000323518 -0.0052572 0)
(-0.000307465 -0.00525447 0)
(-0.000314597 -0.00525156 0)
(-0.000324317 -0.00524818 0)
(-0.000331774 -0.00524422 0)
(-0.000338411 -0.00523972 0)
(-0.000345139 -0.00523469 0)
(-0.000352101 -0.00522907 0)
(-0.000359222 -0.00522279 0)
(-0.000366445 -0.00521576 0)
(-0.000373745 -0.00520794 0)
(-0.000381106 -0.00519929 0)
(-0.000388513 -0.00518977 0)
(-0.000395953 -0.00517937 0)
(-0.000403411 -0.00516809 0)
(-0.000410876 -0.00515591 0)
(-0.000418339 -0.00514285 0)
(-0.00042579 -0.00512891 0)
(-0.000433222 -0.0051141 0)
(-0.000440627 -0.00509842 0)
(-5.12605e-08 -0.000192625 0)
(-4.82114e-07 -0.000563608 0)
(-1.33399e-06 -0.000920338 0)
(-2.58201e-06 -0.00126282 0)
(-4.19694e-06 -0.00159107 0)
(-6.15427e-06 -0.00190508 0)
(-8.43904e-06 -0.00220486 0)
(-1.10329e-05 -0.00249041 0)
(-1.3925e-05 -0.00276174 0)
(-1.70968e-05 -0.00301884 0)
(-2.05402e-05 -0.0032617 0)
(-2.42356e-05 -0.00349034 0)
(-2.81769e-05 -0.00370473 0)
(-3.23417e-05 -0.00390489 0)
(-3.67256e-05 -0.00409081 0)
(-4.13011e-05 -0.00426248 0)
(-4.60642e-05 -0.00441988 0)
(-5.09778e-05 -0.00456304 0)
(-5.6044e-05 -0.00469192 0)
(-6.12455e-05 -0.00480653 0)
(-6.66356e-05 -0.00490686 0)
(-7.20644e-05 -0.00499292 0)
(-7.68183e-05 -0.00506466 0)
(-7.95108e-05 -0.00512213 0)
(-8.2407e-05 -0.00516527 0)
(-0.000104217 -0.00519426 0)
(-0.000173797 -0.0052095 0)
(-0.000274627 -0.00521248 0)
(-0.000364134 -0.00521029 0)
(-0.000461527 -0.00520987 0)
(-0.000348095 -0.00520614 0)
(-0.000339564 -0.00520134 0)
(-0.000348388 -0.00519581 0)
(-0.000356803 -0.00518962 0)
(-0.000362433 -0.00518289 0)
(-0.000367386 -0.00517572 0)
(-0.000372515 -0.00516816 0)
(-0.00037788 -0.00516019 0)
(-0.000383399 -0.00515176 0)
(-0.000389031 -0.0051428 0)
(-0.000394768 -0.00513326 0)
(-0.000400603 -0.0051231 0)
(-0.000406531 -0.00511227 0)
(-0.000412542 -0.00510075 0)
(-0.000418627 -0.00508851 0)
(-0.000424779 -0.00507554 0)
(-0.00043099 -0.00506183 0)
(-0.00043725 -0.00504736 0)
(-0.000443554 -0.00503214 0)
(-0.000449893 -0.00501618 0)
(-3.90518e-08 -0.00018906 0)
(-4.04041e-07 -0.000553443 0)
(-1.14274e-06 -0.000904045 0)
(-2.24106e-06 -0.00124082 0)
(-3.67829e-06 -0.00156374 0)
(-5.43779e-06 -0.00187276 0)
(-7.50949e-06 -0.00216785 0)
(-9.88163e-06 -0.002449 0)
(-1.2547e-05 -0.00271618 0)
(-1.54939e-05 -0.00296938 0)
(-1.87174e-05 -0.00320859 0)
(-2.22053e-05 -0.00343378 0)
(-2.59549e-05 -0.00364497 0)
(-2.99524e-05 -0.00384215 0)
(-3.4198e-05 -0.00402531 0)
(-3.86742e-05 -0.00419447 0)
(-4.33842e-05 -0.00434963 0)
(-4.83038e-05 -0.00449081 0)
(-5.34457e-05 -0.00461802 0)
(-5.88012e-05 -0.0047313 0)
(-6.44197e-05 -0.00483065 0)
(-7.01653e-05 -0.00491612 0)
(-7.55112e-05 -0.00498774 0)
(-7.95734e-05 -0.00504557 0)
(-8.48508e-05 -0.00508972 0)
(-0.00010497 -0.00512035 0)
(-0.000162868 -0.005139 0)
(-0.000253395 -0.00514244 0)
(-0.000358103 -0.00514471 0)
(-0.000439609 -0.00514418 0)
(-0.000331624 -0.00514293 0)
(-0.000326139 -0.0051397 0)
(-0.00033665 -0.00513494 0)
(-0.000346215 -0.00512894 0)
(-0.000352949 -0.005122 0)
(-0.000358966 -0.00511434 0)
(-0.00036507 -0.00510609 0)
(-0.000371307 -0.00509729 0)
(-0.000377595 -0.00508794 0)
(-0.000383905 -0.00507803 0)
(-0.000390233 -0.00506751 0)
(-0.000396583 -0.00505637 0)
(-0.000402954 -0.00504459 0)
(-0.000409344 -0.00503215 0)
(-0.000415752 -0.00501903 0)
(-0.000422175 -0.00500523 0)
(-0.00042861 -0.00499074 0)
(-0.000435054 -0.00497556 0)
(-0.000441505 -0.00495971 0)
(-0.000447958 -0.00494317 0)
(-3.98644e-09 -0.000187749 0)
(-9.57345e-08 -0.000549418 0)
(-3.17178e-07 -0.000897229 0)
(-6.82409e-07 -0.00123115 0)
(-1.20372e-06 -0.00155116 0)
(-1.89057e-06 -0.00185723 0)
(-2.75536e-06 -0.00214934 0)
(-3.80575e-06 -0.00242747 0)
(-5.05385e-06 -0.00269161 0)
(-6.50493e-06 -0.00294173 0)
(-8.17164e-06 -0.00317783 0)
(-1.00571e-05 -0.00339989 0)
(-1.21755e-05 -0.00360791 0)
(-1.45278e-05 -0.00380188 0)
(-1.71312e-05 -0.0039818 0)
(-1.99836e-05 -0.00414766 0)
(-2.31061e-05 -0.00429947 0)
(-2.64926e-05 -0.00443723 0)
(-3.01762e-05 -0.00456095 0)
(-3.4167e-05 -0.00467063 0)
(-3.85209e-05 -0.00476629 0)
(-4.30992e-05 -0.00484793 0)
(-4.74491e-05 -0.00491557 0)
(-5.10845e-05 -0.00496921 0)
(-5.73396e-05 -0.00500895 0)
(-7.7937e-05 -0.00503496 0)
(-0.000131407 -0.00505015 0)
(-0.000222645 -0.00505203 0)
(-0.000360435 -0.00505424 0)
(-0.000366536 -0.00504939 0)
(-0.000296834 -0.00504662 0)
(-0.000295751 -0.00504254 0)
(-0.000306741 -0.00503723 0)
(-0.00031657 -0.00503085 0)
(-0.000324311 -0.00502374 0)
(-0.000331542 -0.0050161 0)
(-0.000338837 -0.00500803 0)
(-0.000346209 -0.00499952 0)
(-0.000353592 -0.00499055 0)
(-0.000360958 -0.00498105 0)
(-0.000368303 -0.004971 0)
(-0.000375625 -0.00496034 0)
(-0.000382924 -0.00494905 0)
(-0.000390195 -0.00493711 0)
(-0.000397438 -0.00492451 0)
(-0.000404649 -0.00491124 0)
(-0.000411827 -0.0048973 0)
(-0.000418969 -0.00488268 0)
(-0.000426074 -0.00486739 0)
(-0.000433139 -0.00485145 0)
(9.13331e-10 -0.000187774 0)
(-8.14146e-09 -0.00054917 0)
(-5.7169e-08 -0.000896408 0)
(-1.6599e-07 -0.00122948 0)
(-3.56989e-07 -0.00154839 0)
(-6.49989e-07 -0.00185312 0)
(-1.06534e-06 -0.00214367 0)
(-1.62008e-06 -0.00242003 0)
(-2.33355e-06 -0.0026822 0)
(-3.22074e-06 -0.00293017 0)
(-4.30128e-06 -0.00316393 0)
(-5.58842e-06 -0.00338349 0)
(-7.10356e-06 -0.00358883 0)
(-8.85826e-06 -0.00377995 0)
(-1.08775e-05 -0.00395684 0)
(-1.31704e-05 -0.0041195 0)
(-1.5767e-05 -0.00426793 0)
(-1.86739e-05 -0.00440213 0)
(-2.19378e-05 -0.00452208 0)
(-2.55816e-05 -0.0046278 0)
(-2.96608e-05 -0.00471926 0)
(-3.39957e-05 -0.00479649 0)
(-3.81369e-05 -0.00485946 0)
(-4.20045e-05 -0.00490815 0)
(-5.03858e-05 -0.00494261 0)
(-7.48719e-05 -0.00496329 0)
(-0.000127724 -0.00497401 0)
(-0.000222468 -0.00497358 0)
(-0.000406695 -0.00497666 0)
(-0.000308688 -0.00496999 0)
(-0.000284729 -0.00496537 0)
(-0.000291085 -0.00496041 0)
(-0.000302186 -0.00495465 0)
(-0.000311006 -0.00494797 0)
(-0.000318628 -0.00494061 0)
(-0.000326124 -0.00493276 0)
(-0.000333734 -0.00492451 0)
(-0.000341406 -0.00491586 0)
(-0.000349088 -0.00490679 0)
(-0.000356758 -0.00489725 0)
(-0.000364412 -0.00488721 0)
(-0.000372043 -0.00487662 0)
(-0.000379645 -0.00486546 0)
(-0.000387213 -0.00485369 0)
(-0.000394741 -0.00484131 0)
(-0.000402224 -0.00482831 0)
(-0.000409659 -0.00481467 0)
(-0.000417043 -0.00480039 0)
(-0.000424371 -0.00478549 0)
(-0.000431641 -0.00476995 0)
(-2.67037e-09 -0.000187771 0)
(-8.15158e-08 -0.000548832 0)
(-2.72775e-07 -0.000895427 0)
(-5.86974e-07 -0.00122757 0)
(-1.03452e-06 -0.00154527 0)
(-1.62049e-06 -0.00184854 0)
(-2.35636e-06 -0.00213738 0)
(-3.24495e-06 -0.00241179 0)
(-4.29856e-06 -0.00267177 0)
(-5.51697e-06 -0.00291731 0)
(-6.91416e-06 -0.0031484 0)
(-8.48678e-06 -0.00336504 0)
(-1.02517e-05 -0.00356722 0)
(-1.22022e-05 -0.0037549 0)
(-1.43594e-05 -0.00392808 0)
(-1.67118e-05 -0.00408673 0)
(-1.92857e-05 -0.00423083 0)
(-2.20654e-05 -0.00436033 0)
(-2.51004e-05 -0.00447522 0)
(-2.83959e-05 -0.00457543 0)
(-3.19775e-05 -0.00466096 0)
(-3.54856e-05 -0.0047317 0)
(-3.82536e-05 -0.0047876 0)
(-4.08151e-05 -0.00482841 0)
(-5.17832e-05 -0.00485427 0)
(-8.72568e-05 -0.00486636 0)
(-0.00014727 -0.00487105 0)
(-0.000243271 -0.00486513 0)
(-0.000418755 -0.00486622 0)
(-0.000283116 -0.00486325 0)
(-0.000275871 -0.00485915 0)
(-0.000286658 -0.00485383 0)
(-0.000297273 -0.00484727 0)
(-0.000304807 -0.00483976 0)
(-0.000311568 -0.00483169 0)
(-0.000318456 -0.00482332 0)
(-0.000325518 -0.00481478 0)
(-0.000332657 -0.00480607 0)
(-0.000339825 -0.00479714 0)
(-0.000347016 -0.00478791 0)
(-0.000354227 -0.00477831 0)
(-0.000361454 -0.00476827 0)
(-0.000368691 -0.00475775 0)
(-0.000375933 -0.00474672 0)
(-0.000383173 -0.00473514 0)
(-0.000390408 -0.004723 0)
(-0.000397629 -0.00471027 0)
(-0.000404833 -0.00469696 0)
(-0.000412014 -0.00468306 0)
(-0.000419167 -0.00466856 0)
(-3.93135e-08 -0.000186621 0)
(-3.83154e-07 -0.000545395 0)
(-1.06322e-06 -0.000889727 0)
(-2.05956e-06 -0.00121964 0)
(-3.34233e-06 -0.00153516 0)
(-4.89141e-06 -0.00183629 0)
(-6.68541e-06 -0.00212305 0)
(-8.71062e-06 -0.00239544 0)
(-1.09458e-05 -0.00265348 0)
(-1.33789e-05 -0.00289716 0)
(-1.59876e-05 -0.00312648 0)
(-1.87613e-05 -0.00334144 0)
(-2.16752e-05 -0.00354204 0)
(-2.47204e-05 -0.00372826 0)
(-2.78674e-05 -0.0039001 0)
(-3.11074e-05 -0.00405753 0)
(-3.44023e-05 -0.00420056 0)
(-3.77493e-05 -0.00432914 0)
(-4.11383e-05 -0.00444327 0)
(-4.46345e-05 -0.00454291 0)
(-4.80899e-05 -0.00462806 0)
(-5.06352e-05 -0.00469864 0)
(-5.04672e-05 -0.00475464 0)
(-4.98765e-05 -0.00479594 0)
(-7.16474e-05 -0.00482265 0)
(-0.000154138 -0.00483535 0)
(-0.000275619 -0.00483745 0)
(-0.000378414 -0.00483327 0)
(-0.000485242 -0.00482459 0)
(-0.000349789 -0.00481482 0)
(-0.000340768 -0.0048045 0)
(-0.000349969 -0.00479433 0)
(-0.00035813 -0.00478442 0)
(-0.000363097 -0.00477476 0)
(-0.000367355 -0.00476529 0)
(-0.000371805 -0.00475593 0)
(-0.000376479 -0.00474655 0)
(-0.00038128 -0.00473703 0)
(-0.000386174 -0.00472728 0)
(-0.000391162 -0.00471721 0)
(-0.000396249 -0.00470677 0)
(-0.000401434 -0.00469593 0)
(-0.000406711 -0.00468466 0)
(-0.000412077 -0.00467294 0)
(-0.000417523 -0.00466074 0)
(-0.000423041 -0.00464806 0)
(-0.000428625 -0.00463488 0)
(-0.000434265 -0.0046212 0)
(-0.000439954 -0.00460702 0)
(-0.000445682 -0.00459234 0)
(-0.000447664 -0.0063239 0)
(-0.000455715 -0.00630088 0)
(-0.000463745 -0.00627652 0)
(-0.000471749 -0.00625083 0)
(-0.00047972 -0.00622384 0)
(-0.000487652 -0.00619557 0)
(-0.000495541 -0.00616605 0)
(-0.000503382 -0.00613532 0)
(-0.000511169 -0.00610339 0)