/*--------------------------------*- C++ -*----------------------------------*\
| =========                 |                                                 |
| \\      /  F ield         | OpenFOAM: The Open Source CFD Toolbox           |
|  \\    /   O peration     | Version:  2.4.0                                 |
|   \\  /    A nd           | Web:      www.OpenFOAM.org                      |
|    \\/     M anipulation  |                                                 |
\*---------------------------------------------------------------------------*/
FoamFile
{
    version     2.0;
    format      ascii;
    class       volScalarField;
    location    "2.9";
    object      H;
}
// * * * * * * * * * * * * * * * * * * * * * * * * * * * * * * * * * * * * * //

dimensions      [0 2 -2 0 0 0 0];

internalField   nonuniform List<scalar> 
125
(
-18.2193
-18.2223
-18.2231
-18.2223
-18.2199
-17.1917
-17.195
-17.1963
-17.1952
-17.1922
-16.1856
-16.1891
-16.1908
-16.1895
-16.186
-15.2022
-15.206
-15.208
-15.2065
-15.2026
-14.243
-14.2469
-14.2492
-14.2475
-14.2433
-13.3088
-13.3128
-13.3154
-13.3135
-13.3091
-12.4006
-12.4047
-12.4074
-12.4055
-12.4008
-11.5189
-11.5231
-11.5259
-11.5239
-11.5191
-10.6644
-10.6685
-10.6714
-10.6694
-10.6645
-9.8371
-9.84119
-9.84418
-9.84208
-9.83724
-9.03721
-9.04121
-9.04419
-9.04211
-9.03732
-8.26451
-8.26838
-8.27133
-8.26928
-8.2646
-7.51864
-7.52235
-7.52522
-7.52323
-7.51871
-6.79903
-6.80255
-6.80532
-6.8034
-6.79908
-6.1049
-6.10821
-6.11083
-6.10902
-6.10494
-5.43529
-5.43835
-5.44081
-5.43911
-5.43532
-4.78903
-4.79182
-4.79408
-4.79252
-4.78905
-4.16476
-4.16727
-4.16931
-4.1679
-4.16477
-3.56096
-3.56316
-3.56498
-3.56373
-3.56097
-2.97592
-2.97781
-2.97937
-2.9783
-2.97593
-2.40779
-2.40934
-2.41064
-2.40975
-2.40779
-1.85453
-1.85575
-1.85677
-1.85607
-1.85453
-1.314
-1.31488
-1.31561
-1.3151
-1.314
-0.783912
-0.784437
-0.784876
-0.784575
-0.783911
-0.26186
-0.262036
-0.262183
-0.262082
-0.261859
)
;

boundaryField
{
    BotWall
    {
        type            zeroGradient;
    }
    FreeStream
    {
        type            zeroGradient;
    }
    FrontNBack
    {
        type            empty;
    }
    LeftSide
    {
        type            symmetryPlane;
    }
    RightSide
    {
        type            symmetryPlane;
    }
    procBoundary3to2
    {
        type            processor;
        value           nonuniform List<scalar> 5(-19.2679 -19.2704 -19.2707 -19.2703 -19.2685);
    }
}


// ************************************************************************* //
