/*--------------------------------*- C++ -*----------------------------------*\
| =========                 |                                                 |
| \\      /  F ield         | OpenFOAM: The Open Source CFD Toolbox           |
|  \\    /   O peration     | Version:  2.4.0                                 |
|   \\  /    A nd           | Web:      www.OpenFOAM.org                      |
|    \\/     M anipulation  |                                                 |
\*---------------------------------------------------------------------------*/
FoamFile
{
    version     2.0;
    format      ascii;
    class       volScalarField;
    location    "0.6";
    object      alpha1;
}
// * * * * * * * * * * * * * * * * * * * * * * * * * * * * * * * * * * * * * //

dimensions      [0 0 0 0 0 0 0];

internalField   nonuniform List<scalar> 
1000
(
0.0144187
0.972691
0.017084
0.988246
0.0170839
0.972691
0.0144187
0.0469856
0.997934
0.0469856
1.50066e-07
1.39628e-06
0.00280212
0.186364
0.00280213
1.39626e-06
1.5003e-07
0.00506293
0.910895
0.00506293
3.5653e-11
1.02528e-09
1.02102e-08
1.19282e-06
1.02101e-08
1.02524e-09
3.56538e-11
8.80992e-59
4.50591e-62
1.39693e-57
6.29747e-46
2.32041e-44
3.37828e-43
1.65698e-41
3.3783e-43
2.32029e-44
6.29728e-46
5.42526e-59
1.76762e-62
6.00092e-58
2.31244e-50
8.83213e-49
1.3898e-47
8.11756e-46
1.38982e-47
8.83147e-49
2.31223e-50
2.91594e-59
5.56332e-63
1.91758e-58
3.43473e-53
1.33274e-51
2.24321e-50
1.53481e-48
2.2433e-50
1.33259e-51
3.43403e-53
1.3268e-59
1.47204e-63
4.34132e-59
5.90632e-55
2.2611e-53
3.97854e-52
3.09843e-50
3.9788e-52
2.26075e-53
5.9042e-55
5.00558e-60
3.81698e-64
7.94009e-60
3.23176e-56
1.23551e-54
2.25745e-53
1.97201e-51
2.25767e-53
1.23525e-54
3.23018e-56
1.56073e-60
1.04035e-64
1.87009e-60
2.94847e-57
1.17274e-55
2.24715e-54
2.18749e-52
2.24743e-54
1.17244e-55
2.94684e-57
4.17214e-61
2.49811e-65
4.53297e-61
3.43836e-58
1.49507e-56
3.06517e-55
3.30561e-53
3.06563e-55
1.49467e-56
3.43645e-58
1.07306e-61
5.25504e-66
1.11417e-61
4.51935e-59
2.26451e-57
5.10659e-56
6.06213e-54
5.10744e-56
2.26394e-57
4.51707e-59
3.56228e-62
1.01132e-66
3.59041e-62
6.22151e-60
3.80387e-58
9.76478e-57
1.26757e-54
9.76644e-57
3.80313e-58
6.21911e-60
9.77631e-63
1.7619e-67
9.79595e-63
8.48923e-61
6.77577e-59
2.06382e-57
2.91092e-55
2.06415e-57
6.77521e-59
8.48744e-61
1.91499e-63
2.70621e-68
1.91736e-63
1.08205e-61
1.23718e-59
4.70258e-58
7.1656e-56
4.70325e-58
1.23729e-59
1.08206e-61
3.00389e-64
3.49383e-69
3.00682e-64
1.1684e-62
2.24382e-60
1.13513e-58
1.85941e-56
1.13526e-58
2.24456e-60
1.16865e-62
3.75676e-65
3.55633e-70
3.76094e-65
8.19572e-64
3.88545e-61
2.86537e-59
5.02517e-57
2.86558e-59
3.88799e-61
8.19542e-64
3.28676e-66
2.57192e-71
3.29503e-66
1.91872e-65
5.97889e-62
7.48865e-60
1.40161e-57
7.48889e-60
5.98578e-62
1.90515e-65
1.4615e-67
1.1059e-72
1.479e-67
2.46691e-67
7.3669e-63
2.00987e-60
4.00611e-58
2.00984e-60
7.38555e-63
2.25668e-67
2.3556e-69
2.65553e-74
2.59983e-69
9.30375e-70
7.48509e-64
5.50475e-61
1.16668e-58
5.50446e-61
7.52332e-64
6.33565e-71
1.61016e-72
6.7908e-76
1.25163e-71
1.62228e-72
5.94451e-65
1.53215e-61
3.44551e-59
1.53201e-61
5.9927e-65
1.3006e-80
3.04868e-73
1.81e-76
2.67807e-73
4.89896e-81
1.70651e-66
4.31669e-62
1.02773e-59
4.31618e-62
1.75204e-66
5.91021e-81
1.33713e-73
7.68078e-77
1.06483e-73
2.18442e-81
5.85161e-69
1.22693e-62
3.08546e-60
1.22676e-62
6.98505e-69
2.637e-81
5.79259e-74
3.09215e-77
4.61317e-74
9.55363e-82
2.04581e-69
3.50802e-63
9.29478e-61
3.5075e-63
2.44218e-69
1.15421e-81
2.47808e-74
1.17203e-77
1.97363e-74
4.09428e-82
7.09876e-70
1.00648e-63
2.80193e-61
1.00634e-63
8.47409e-70
4.95108e-82
1.04667e-74
4.17069e-78
8.33653e-75
1.71765e-82
2.44442e-70
2.89146e-64
8.43176e-62
2.89108e-64
2.91789e-70
2.07931e-82
4.36383e-75
1.3879e-78
3.47594e-75
7.04781e-83
8.35175e-71
8.30156e-65
2.52738e-62
8.3007e-65
9.96864e-71
8.5418e-83
1.79559e-75
4.31685e-79
1.43035e-75
2.82643e-83
2.83075e-71
2.37785e-65
7.53112e-63
2.3777e-65
3.37843e-71
3.42986e-83
7.29033e-76
1.27389e-79
5.80785e-76
1.10751e-83
9.51603e-72
6.78428e-66
2.22699e-63
6.78416e-66
1.13557e-71
1.34566e-83
2.92016e-76
3.73667e-80
2.32654e-76
4.24117e-84
3.17201e-72
1.9252e-66
6.52459e-64
1.92528e-66
3.78469e-72
5.1595e-84
1.15375e-76
1.15561e-80
9.19297e-77
1.58927e-84
1.04815e-72
5.42629e-67
1.89124e-64
5.42685e-67
1.25041e-72
1.93543e-84
4.49565e-77
3.74965e-81
3.58243e-77
5.84489e-85
3.4325e-73
1.5171e-67
5.41687e-65
1.51736e-67
4.09416e-73
7.12294e-85
1.72735e-77
1.20347e-81
1.37661e-77
2.12256e-85
1.1137e-73
4.20217e-68
1.53131e-65
4.2032e-68
1.32814e-73
2.5867e-85
6.54336e-78
3.79544e-82
5.2153e-78
7.69789e-86
3.57902e-74
1.15178e-68
4.26832e-66
1.15215e-68
4.26736e-74
9.36945e-86
2.44335e-78
1.17363e-82
1.94766e-78
2.84241e-86
1.13886e-74
3.12045e-69
1.17205e-66
3.1217e-69
1.35763e-74
3.44719e-86
8.99207e-79
3.54661e-83
7.16867e-79
1.09921e-86
3.58715e-75
8.34766e-70
3.16804e-67
8.35165e-70
4.2754e-75
1.32214e-86
3.26099e-79
1.04339e-83
2.60005e-79
4.59691e-87
1.11806e-75
2.20287e-70
8.4236e-68
2.20409e-70
1.33231e-75
5.43177e-87
1.16515e-79
2.98541e-84
9.29115e-80
2.1251e-87
3.44727e-76
5.72924e-71
2.20196e-68
5.73286e-71
4.10701e-76
2.42295e-87
4.10089e-80
8.32669e-85
3.27058e-80
1.0841e-87
1.05108e-76
1.46734e-71
5.65593e-69
1.46838e-71
1.25199e-76
1.16055e-87
1.42156e-80
2.26204e-85
1.13389e-80
5.94457e-88
3.16818e-77
3.69799e-72
1.42689e-69
3.70085e-72
3.77295e-77
5.79395e-88
4.85243e-81
5.94495e-86
3.87106e-81
3.3621e-88
9.43727e-78
9.16446e-73
3.53432e-70
9.17214e-73
1.12364e-77
2.91821e-88
1.63073e-81
1.49369e-86
1.30112e-81
1.87319e-88
2.77717e-78
2.23199e-73
8.59236e-71
2.234e-73
3.30593e-78
1.4458e-88
5.39452e-82
3.5406e-87
4.30483e-82
9.86081e-89
8.07114e-79
5.33941e-74
2.04972e-71
5.3445e-74
9.6058e-79
6.93682e-89
1.75623e-82
7.79281e-88
1.4017e-82
4.7723e-89
2.31577e-79
1.25402e-74
4.79682e-72
1.25529e-74
2.75551e-79
3.2099e-89
5.6258e-83
1.56315e-88
4.49087e-83
2.13843e-89
6.5575e-80
2.89039e-75
1.10107e-72
2.89344e-75
7.80105e-80
1.4731e-89
1.77283e-83
2.79006e-89
1.41543e-83
9.88581e-90
1.83197e-80
6.53574e-76
2.47863e-73
6.54296e-76
2.17892e-80
7.7913e-90
5.4946e-84
4.22053e-90
4.38767e-84
6.42129e-90
5.04768e-81
1.44942e-76
5.47135e-74
1.45109e-76
6.00236e-81
6.43409e-90
1.67454e-84
4.81443e-91
1.33744e-84
6.4747e-90
1.37124e-81
3.15171e-77
1.1842e-74
3.15548e-77
1.63023e-81
7.53595e-90
5.01697e-85
3.35153e-92
4.00777e-85
6.37009e-90
3.67143e-82
6.71835e-78
2.5129e-75
6.72666e-78
4.36396e-82
7.73676e-90
1.47726e-85
7.9122e-94
1.18033e-85
4.08734e-90
9.68541e-83
1.40368e-78
5.22784e-76
1.40548e-78
1.15099e-82
5.03543e-90
4.27401e-86
2.89309e-122
3.41565e-86
1.86679e-90
2.51662e-83
2.87411e-79
1.06623e-76
2.8779e-79
2.99004e-83
2.31257e-90
1.21474e-86
9.92468e-124
9.70983e-87
7.20324e-91
6.43859e-84
5.76657e-80
2.13185e-77
5.77441e-80
7.64818e-84
8.94352e-91
3.39068e-87
2.56265e-125
2.71089e-87
2.47342e-91
1.62143e-84
1.13364e-80
4.17861e-78
1.13522e-80
1.92563e-84
3.07547e-91
9.29269e-88
4.4319e-127
7.43131e-88
7.83419e-92
4.0179e-85
2.18345e-81
8.02931e-79
2.18659e-81
4.77071e-85
9.74726e-92
2.49996e-88
3.92666e-129
1.99967e-88
2.34269e-92
9.79391e-86
4.12006e-82
1.51251e-79
4.12612e-82
1.16265e-85
2.91563e-92
6.60007e-89
1.30754e-131
5.28054e-89
6.68915e-93
2.34764e-86
7.61619e-83
2.79321e-80
7.62769e-83
2.78633e-86
8.32641e-93
1.7095e-89
1.85393e-132
1.36807e-89
1.8355e-93
5.53208e-87
1.37924e-83
5.05708e-81
1.38137e-83
6.56449e-87
2.285e-93
4.34291e-90
2.57416e-133
3.47639e-90
4.86024e-94
1.28113e-87
2.44682e-84
8.97638e-82
2.4507e-84
1.51991e-87
6.05085e-94
1.08185e-90
3.50055e-134
8.66217e-91
1.2454e-94
2.91484e-88
4.25236e-85
1.56215e-82
4.25924e-85
3.45743e-88
1.55046e-94
2.64183e-91
4.66297e-135
2.11584e-91
3.09439e-95
6.51359e-89
7.23979e-86
2.66551e-83
7.25177e-86
7.72457e-89
3.8519e-95
6.32234e-92
6.08533e-136
5.06496e-92
7.46578e-96
1.42916e-89
1.20753e-86
4.45957e-84
1.20958e-86
1.69454e-89
9.29139e-96
1.48241e-92
7.78184e-137
1.18792e-92
1.75097e-96
3.07802e-90
1.97315e-87
7.3161e-85
1.97656e-87
3.6489e-90
2.17852e-96
3.40448e-93
9.75307e-138
2.72897e-93
3.99502e-97
6.50525e-91
3.15879e-88
1.17696e-85
3.16436e-88
7.71043e-91
4.96862e-97
7.65611e-94
1.19825e-138
6.13881e-94
8.87271e-98
1.34877e-91
4.95445e-89
1.85676e-86
4.96337e-89
1.59837e-91
1.10292e-97
1.68546e-94
1.44343e-139
1.35184e-94
1.91878e-98
2.74265e-92
7.61372e-90
2.87267e-87
7.62772e-90
3.24968e-92
2.38358e-98
3.63126e-95
1.70515e-140
2.9134e-95
4.04057e-99
5.46818e-93
1.14641e-90
4.35876e-88
1.14856e-90
6.47809e-93
5.01596e-99
7.65431e-96
1.97576e-141
6.14311e-96
8.28391e-100
1.06866e-93
1.69134e-91
6.4864e-89
1.69457e-91
1.26585e-93
1.0277e-99
1.57812e-96
2.24583e-142
1.26697e-96
1.65297e-100
2.04666e-94
2.445e-92
9.46717e-90
2.44978e-92
2.42398e-94
2.04947e-100
3.18156e-97
2.5046e-143
2.55511e-97
3.20961e-101
3.84016e-95
3.46332e-93
1.35525e-90
3.47021e-93
4.54756e-95
3.97721e-101
6.27011e-98
2.74064e-144
5.03726e-98
6.06461e-102
7.05728e-96
4.80694e-94
1.90283e-91
4.8167e-94
8.35632e-96
7.5106e-102
1.20759e-98
2.94253e-145
9.70495e-99
1.1151e-102
1.26998e-96
6.53743e-95
2.62039e-92
6.55096e-95
1.50358e-96
1.38014e-102
2.2722e-99
3.09971e-146
1.82674e-99
1.99507e-103
2.23725e-97
8.71161e-96
3.53921e-93
8.73e-96
2.64851e-97
2.4677e-103
4.17555e-100
3.20328e-147
3.3582e-100
3.47277e-104
3.8572e-98
1.13745e-96
4.68823e-94
1.1399e-96
4.56581e-98
4.29253e-104
7.49173e-101
3.24674e-148
6.02759e-101
5.87988e-105
6.50639e-99
1.45508e-97
6.09054e-95
1.45828e-97
7.701e-99
7.2626e-105
1.31189e-101
3.22665e-149
1.05592e-101
9.68065e-106
1.07344e-99
1.82365e-98
7.75924e-96
1.82773e-98
1.27042e-99
1.19482e-105
2.24125e-102
3.14298e-150
1.80469e-102
1.54925e-106
1.73148e-100
2.23903e-99
9.69311e-97
2.24414e-99
2.04905e-100
1.91066e-106
3.73389e-103
2.99931e-151
3.00788e-103
2.40882e-107
2.72936e-101
2.69273e-100
1.18724e-97
2.69901e-100
3.22971e-101
2.96835e-107
6.06297e-104
2.8026e-152
4.88623e-104
3.63651e-108
4.20203e-102
3.17158e-101
1.42551e-98
3.17913e-101
4.97199e-102
4.47734e-108
9.58917e-105
2.56274e-153
7.73152e-105
5.32631e-109
6.31391e-103
3.65771e-102
1.6775e-99
3.6666e-102
7.47027e-103
6.55172e-109
1.47607e-105
2.29175e-154
1.19066e-105
7.56131e-110
9.25062e-104
4.12905e-103
1.93405e-100
4.1393e-103
1.0944e-103
9.29144e-110
2.20918e-106
2.0028e-155
1.78285e-106
1.03906e-110
1.31995e-104
4.56026e-104
2.1836e-101
4.57183e-104
1.56145e-104
1.27539e-110
3.21085e-107
1.70914e-156
2.59244e-107
1.37991e-111
1.83142e-105
4.92399e-105
2.4125e-102
4.93677e-105
2.16634e-105
1.69171e-111
4.52482e-108
1.42302e-157
3.65505e-108
1.76739e-112
2.46617e-106
5.19262e-106
2.60556e-103
5.20642e-106
2.91694e-106
2.16386e-112
6.17079e-109
1.1548e-158
4.98696e-109
2.17754e-113
3.21524e-107
5.34027e-107
2.74686e-104
5.35481e-107
3.8026e-107
2.66207e-113
8.1248e-110
9.12335e-160
6.56913e-110
2.57257e-114
4.04645e-108
5.34525e-108
2.82092e-105
5.36018e-108
4.78523e-108
3.1399e-114
1.02985e-110
7.00688e-161
8.33034e-111
2.90305e-115
4.89839e-109
5.19301e-109
2.81426e-106
5.20789e-109
5.79218e-109
3.5369e-115
1.25235e-111
5.22159e-162
1.01345e-111
3.11453e-116
5.67948e-110
4.87941e-110
2.71762e-107
4.89377e-110
6.71511e-110
3.78709e-116
1.4551e-112
3.76634e-163
1.17803e-112
3.15901e-117
6.27581e-111
4.41414e-111
2.52848e-108
4.42749e-111
7.41937e-111
3.83263e-117
1.60764e-113
2.6209e-164
1.30204e-113
3.00878e-118
6.57059e-112
3.8231e-112
2.25361e-109
3.835e-112
7.76699e-112
3.64114e-118
1.67945e-114
1.7519e-165
1.36073e-114
2.66917e-119
6.47394e-113
3.14861e-113
1.91077e-110
3.1587e-113
7.65181e-113
3.22063e-119
1.64807e-115
1.11849e-166
1.33579e-115
2.18388e-120
5.95564e-114
2.44579e-114
1.52828e-111
2.45386e-114
7.03833e-114
2.62582e-120
1.50755e-116
6.771e-168
1.22231e-116
1.62812e-121
5.06821e-115
1.77464e-115
1.14163e-112
1.78068e-115
5.98876e-115
1.94912e-121
1.27383e-117
3.85099e-169
1.03315e-117
1.08931e-122
3.94594e-116
1.18902e-116
7.87049e-114
1.1932e-116
4.662e-116
1.29678e-122
9.83517e-119
2.03423e-170
7.97931e-119
6.41383e-124
2.7733e-117
7.25454e-118
4.93636e-115
7.28088e-118
3.27608e-117
7.57563e-124
6.84769e-120
9.83874e-172
5.55714e-120
3.23615e-125
1.73041e-118
3.96197e-119
2.76738e-116
3.97684e-119
2.04382e-118
3.77793e-125
4.22888e-121
4.27978e-173
3.43281e-121
1.34792e-126
9.38148e-120
1.89475e-120
1.35592e-117
1.90211e-120
1.10789e-119
1.5455e-126
2.26754e-122
1.63646e-174
1.84115e-122
4.45299e-128
4.29314e-121
7.70466e-122
5.63521e-119
7.73556e-122
5.0691e-121
5.00347e-128
1.02567e-123
5.33534e-176
8.32999e-124
1.20515e-129
1.59077e-122
2.55418e-123
1.90397e-120
2.56476e-123
1.87798e-122
1.34212e-129
3.75477e-125
1.42072e-177
3.05013e-125
2.42926e-131
4.47132e-124
6.46413e-125
4.89538e-122
6.4917e-125
5.27772e-124
2.59634e-131
1.04235e-126
2.89083e-179
8.46926e-127
3.35728e-133
8.46872e-126
1.10949e-126
8.50046e-124
1.11435e-126
9.99433e-126
3.49488e-133
1.94956e-128
3.98791e-181
1.58437e-128
2.7162e-135
8.09917e-128
9.83754e-129
7.45882e-126
9.88154e-129
9.55654e-128
2.79388e-135
1.84167e-130
2.79304e-183
1.49701e-130
)
;

boundaryField
{
    BotWall
    {
        type            constantAlphaContactAngle;
        gradient        nonuniform List<scalar> 10(4006.75 11.6187 67.2967 0.000799335 67.2973 11.6184 4006.75 4257.04 11.2301 4257.04);
        limit           gradient;
        theta0          30;
        value           nonuniform List<scalar> 10(0.0282995 0.972732 0.0173171 0.988246 0.0173171 0.972732 0.0282995 0.0617335 0.997972 0.0617335);
    }
    FreeStream
    {
        type            inletOutlet;
        inletValue      uniform 0;
        value           uniform 0;
    }
    FrontNBack
    {
        type            empty;
    }
    LeftSide
    {
        type            cyclic;
    }
    RightSide
    {
        type            cyclic;
    }
}


// ************************************************************************* //
