/*--------------------------------*- C++ -*----------------------------------*\
| =========                 |                                                 |
| \\      /  F ield         | OpenFOAM: The Open Source CFD Toolbox           |
|  \\    /   O peration     | Version:  2.4.0                                 |
|   \\  /    A nd           | Web:      www.OpenFOAM.org                      |
|    \\/     M anipulation  |                                                 |
\*---------------------------------------------------------------------------*/
FoamFile
{
    version     2.0;
    format      ascii;
    class       volScalarField;
    location    "0.6";
    object      p;
}
// * * * * * * * * * * * * * * * * * * * * * * * * * * * * * * * * * * * * * //

dimensions      [1 -1 -2 0 0 0 0];

internalField   nonuniform List<scalar> 
1000
(
1.15544
93.5537
0.862944
12.8291
0.862937
93.5537
1.15544
0.358204
2.54509
0.358204
-0.00164249
-0.0224254
0.0346153
0.0532406
0.0346153
-0.0224245
-0.00164204
0.498095
1.08962
0.498094
-0.00156407
0.0127655
-0.00652343
-0.000828623
-0.00652388
0.0127667
-0.00156364
0.00258546
-0.0365893
0.00258478
-0.00421877
0.00713986
-0.0089318
0.00134956
-0.00893224
0.00714099
-0.00421836
0.000778775
0.00462002
0.000778088
-0.00555111
0.00307857
-0.0104699
0.000626757
-0.0104703
0.00307966
-0.00555073
-0.000609177
-0.0015782
-0.000609873
-0.00619769
0.00167435
-0.0111206
-0.000226641
-0.011121
0.00167542
-0.00619732
-0.00136559
-0.00597847
-0.0013663
-0.00677218
0.00104191
-0.0115911
-0.000893446
-0.0115915
0.00104296
-0.00677182
-0.00196377
-0.00729797
-0.00196448
-0.00740333
0.000366535
-0.0121055
-0.00149435
-0.0121059
0.000367579
-0.007403
-0.0025841
-0.00774043
-0.00258483
-0.00806594
-0.000399096
-0.012659
-0.00210773
-0.0126593
-0.000398064
-0.00806564
-0.00323315
-0.00824859
-0.0032339
-0.00873716
-0.00118523
-0.0132256
-0.00274342
-0.0132259
-0.00118421
-0.00873689
-0.00389328
-0.00887349
-0.00389406
-0.0094102
-0.00196446
-0.0137969
-0.00339451
-0.0137972
-0.00196346
-0.00940991
-0.00455985
-0.00953298
-0.00456062
-0.0100869
-0.00273652
-0.014373
-0.00405649
-0.0143732
-0.00273553
-0.0100866
-0.00523149
-0.0101945
-0.00523226
-0.0107686
-0.00350512
-0.0149542
-0.00472786
-0.0149544
-0.00350414
-0.0107683
-0.00590813
-0.0108567
-0.00590892
-0.0114555
-0.00427203
-0.0155408
-0.00540799
-0.015541
-0.00427107
-0.0114553
-0.00659005
-0.0115226
-0.00659085
-0.0121477
-0.00503757
-0.016133
-0.00609639
-0.0161332
-0.00503662
-0.0121475
-0.00727739
-0.0121933
-0.00727821
-0.012845
-0.00580187
-0.0167312
-0.00679261
-0.0167314
-0.00580095
-0.0128448
-0.00797023
-0.012869
-0.00797106
-0.0135459
-0.00656742
-0.0173352
-0.00749627
-0.0173354
-0.00656651
-0.0135456
-0.00866861
-0.0135496
-0.00866946
-0.014249
-0.0073389
-0.0179418
-0.00820709
-0.017942
-0.00733802
-0.0142488
-0.00937258
-0.0142349
-0.00937346
-0.0149562
-0.00811461
-0.0185513
-0.00892488
-0.0185514
-0.00811375
-0.0149561
-0.0100822
-0.0149252
-0.0100831
-0.0156678
-0.00889312
-0.0191652
-0.00964948
-0.0191654
-0.00889229
-0.0156677
-0.0107975
-0.0156202
-0.0107984
-0.0163836
-0.00967479
-0.0197841
-0.0103808
-0.0197842
-0.00967399
-0.0163835
-0.0115185
-0.0163202
-0.0115194
-0.0171035
-0.0104601
-0.0204077
-0.0111187
-0.0204079
-0.0104594
-0.0171034
-0.0122451
-0.0170251
-0.0122461
-0.0178276
-0.0112495
-0.0210364
-0.0118632
-0.0210365
-0.0112487
-0.0178274
-0.0129785
-0.0177333
-0.0129794
-0.0185558
-0.0120429
-0.0216703
-0.0126142
-0.0216704
-0.0120422
-0.0185557
-0.0137161
-0.0184495
-0.0137169
-0.0192882
-0.0128406
-0.0223095
-0.0133716
-0.0223096
-0.0128399
-0.0192882
-0.014461
-0.0191678
-0.0144617
-0.020025
-0.0136425
-0.0229542
-0.0141355
-0.0229544
-0.0136419
-0.0200249
-0.0152111
-0.0198922
-0.0152118
-0.020766
-0.014449
-0.0236047
-0.0149058
-0.0236048
-0.0144483
-0.020766
-0.0159671
-0.0206218
-0.0159677
-0.0215114
-0.0152599
-0.024261
-0.0156824
-0.0242611
-0.0152593
-0.0215114
-0.016729
-0.0213564
-0.0167296
-0.0222613
-0.0160754
-0.0249232
-0.0164654
-0.0249234
-0.0160748
-0.0222613
-0.0174967
-0.0220961
-0.0174974
-0.0230156
-0.0168956
-0.0255916
-0.0172547
-0.0255917
-0.016895
-0.0230157
-0.0182705
-0.0228409
-0.0182711
-0.0237745
-0.0177205
-0.0262661
-0.0180504
-0.0262662
-0.01772
-0.0237746
-0.0190502
-0.0235909
-0.0190508
-0.0245379
-0.0185503
-0.0269469
-0.0188523
-0.026947
-0.0185497
-0.024538
-0.0198358
-0.0243461
-0.0198365
-0.025306
-0.0193849
-0.0276341
-0.0196606
-0.0276342
-0.0193844
-0.0253061
-0.0206275
-0.0251066
-0.0206282
-0.0260787
-0.0202244
-0.0283277
-0.0204752
-0.0283278
-0.0202239
-0.0260789
-0.0214253
-0.0258723
-0.0214259
-0.0268562
-0.0210689
-0.0290278
-0.0212961
-0.029028
-0.0210685
-0.0268564
-0.0222291
-0.0266433
-0.0222297
-0.0276384
-0.0219185
-0.0297345
-0.0221232
-0.0297347
-0.021918
-0.0276386
-0.023039
-0.0274197
-0.0230396
-0.0284254
-0.0227731
-0.0304479
-0.0229567
-0.030448
-0.0227727
-0.0284257
-0.023855
-0.0282014
-0.0238556
-0.0292173
-0.0236329
-0.0311679
-0.0237964
-0.031168
-0.0236326
-0.0292176
-0.0246771
-0.0289885
-0.0246778
-0.0300142
-0.024498
-0.0318946
-0.0246425
-0.0318947
-0.0244976
-0.0300145
-0.0255055
-0.029781
-0.0255062
-0.030816
-0.0253682
-0.0326281
-0.0254948
-0.0326283
-0.0253679
-0.0308164
-0.02634
-0.0305789
-0.0263407
-0.0316228
-0.0262438
-0.0333684
-0.0263535
-0.0333686
-0.0262435
-0.0316232
-0.0271807
-0.0313824
-0.0271815
-0.0324347
-0.0271248
-0.0341156
-0.0272185
-0.0341157
-0.0271245
-0.0324352
-0.0280278
-0.0321913
-0.0280286
-0.0332517
-0.0280111
-0.0348696
-0.0280898
-0.0348698
-0.0280109
-0.0332523
-0.028881
-0.0330058
-0.0288819
-0.034074
-0.0289029
-0.0356306
-0.0289675
-0.0356307
-0.0289027
-0.0340746
-0.0297406
-0.0338259
-0.0297415
-0.0349015
-0.0298003
-0.0363985
-0.0298516
-0.0363986
-0.0298
-0.0349022
-0.0306065
-0.0346515
-0.0306075
-0.0357349
-0.0307031
-0.0371733
-0.030742
-0.0371734
-0.0307029
-0.0357356
-0.0314783
-0.0354829
-0.0314793
-0.036572
-0.0316116
-0.0379551
-0.0316388
-0.0379552
-0.0316114
-0.0365726
-0.0323582
-0.0363199
-0.032359
-0.0374144
-0.0325258
-0.0387439
-0.032542
-0.038744
-0.0325256
-0.037415
-0.0332446
-0.0371626
-0.0332453
-0.0382623
-0.0334456
-0.0395398
-0.0334517
-0.0395399
-0.0334455
-0.0382628
-0.0341375
-0.0380111
-0.0341382
-0.0391155
-0.0343713
-0.0403427
-0.0343679
-0.0403428
-0.0343711
-0.039116
-0.0350369
-0.0388654
-0.0350376
-0.0399742
-0.0353027
-0.0411526
-0.0352905
-0.0411527
-0.0353025
-0.0399747
-0.0359431
-0.0397254
-0.0359437
-0.0408382
-0.03624
-0.0419697
-0.0362197
-0.0419698
-0.0362399
-0.0408386
-0.0368562
-0.0405914
-0.0368568
-0.0417077
-0.0371832
-0.0427938
-0.0371553
-0.042794
-0.0371831
-0.0417081
-0.037776
-0.0414632
-0.0377765
-0.0425829
-0.0381324
-0.0436251
-0.0380976
-0.0436253
-0.0381323
-0.0425832
-0.0387025
-0.042341
-0.038703
-0.0434638
-0.0390877
-0.0444636
-0.0390465
-0.0444637
-0.0390876
-0.0434641
-0.0396357
-0.0432247
-0.0396362
-0.0443504
-0.040049
-0.0453092
-0.040002
-0.0453093
-0.0400489
-0.0443507
-0.0405758
-0.0441145
-0.0405762
-0.0452429
-0.0410165
-0.046162
-0.0409641
-0.0461621
-0.0410164
-0.0452432
-0.0415226
-0.0450103
-0.041523
-0.0461412
-0.0419901
-0.047022
-0.041933
-0.0470222
-0.04199
-0.0461415
-0.0424764
-0.0459122
-0.0424768
-0.0470455
-0.0429701
-0.0478893
-0.0429085
-0.0478894
-0.04297
-0.0470458
-0.0434371
-0.0468203
-0.0434374
-0.0479557
-0.0439563
-0.0487638
-0.0438909
-0.0487639
-0.0439562
-0.047956
-0.0444048
-0.0477345
-0.0444051
-0.048872
-0.0449489
-0.0496456
-0.04488
-0.0496457
-0.0449488
-0.0488723
-0.0453794
-0.0486549
-0.0453797
-0.0497945
-0.0459479
-0.0505347
-0.045876
-0.0505348
-0.0459478
-0.0497947
-0.0463611
-0.0495817
-0.0463614
-0.050723
-0.0469534
-0.0514311
-0.0468788
-0.0514312
-0.0469533
-0.0507233
-0.0473499
-0.0505147
-0.0473501
-0.0516578
-0.0479655
-0.0523349
-0.0478886
-0.0523349
-0.0479654
-0.051658
-0.0483457
-0.051454
-0.048346
-0.0525989
-0.0489841
-0.053246
-0.0489053
-0.0532461
-0.0489841
-0.0525991
-0.0493488
-0.0523998
-0.049349
-0.0535464
-0.0500095
-0.0541645
-0.049929
-0.0541646
-0.0500094
-0.0535465
-0.050359
-0.053352
-0.0503592
-0.0545002
-0.0510415
-0.0550904
-0.0509598
-0.0550905
-0.0510414
-0.0545004
-0.0513765
-0.0543107
-0.0513767
-0.0554605
-0.0520803
-0.0560238
-0.0519976
-0.0560238
-0.0520803
-0.0554607
-0.0524013
-0.055276
-0.0524015
-0.0564273
-0.053126
-0.0569646
-0.0530425
-0.0569647
-0.0531259
-0.0564275
-0.0534334
-0.0562478
-0.0534336
-0.0574007
-0.0541786
-0.0579129
-0.0540946
-0.057913
-0.0541785
-0.0574009
-0.054473
-0.0572263
-0.0544731
-0.0583807
-0.0552381
-0.0588687
-0.055154
-0.0588688
-0.0552381
-0.0583809
-0.0555199
-0.0582115
-0.05552
-0.0593675
-0.0563047
-0.0598321
-0.0562206
-0.0598322
-0.0563047
-0.0593676
-0.0565743
-0.0592033
-0.0565744
-0.060361
-0.0573784
-0.0608031
-0.0572945
-0.0608031
-0.0573783
-0.0603611
-0.0576362
-0.060202
-0.0576363
-0.0613613
-0.0584592
-0.0617816
-0.0583757
-0.0617817
-0.0584592
-0.0613614
-0.0587057
-0.0612075
-0.0587058
-0.0623684
-0.0595473
-0.0627678
-0.0594644
-0.0627679
-0.0595472
-0.0623686
-0.0597828
-0.0622199
-0.0597829
-0.0633825
-0.0606426
-0.0637616
-0.0605605
-0.0637617
-0.0606426
-0.0633827
-0.0608675
-0.0632393
-0.0608676
-0.0644036
-0.0617453
-0.0647631
-0.0616641
-0.0647632
-0.0617452
-0.0644038
-0.06196
-0.0642656
-0.0619601
-0.0654318
-0.0628554
-0.0657724
-0.0627753
-0.0657724
-0.0628553
-0.0654319
-0.0630602
-0.065299
-0.0630603
-0.0664671
-0.0639729
-0.0667893
-0.0638941
-0.0667894
-0.0639729
-0.0664672
-0.0641682
-0.0663395
-0.0641683
-0.0675095
-0.065098
-0.0678141
-0.0650205
-0.0678142
-0.065098
-0.0675096
-0.0652841
-0.0673871
-0.0652841
-0.0685591
-0.0662308
-0.0688467
-0.0661547
-0.0688467
-0.0662307
-0.0685592
-0.0664078
-0.0684419
-0.0664079
-0.0696161
-0.0673712
-0.0698871
-0.0672966
-0.0698871
-0.0673711
-0.0696162
-0.0675396
-0.069504
-0.0675397
-0.0706803
-0.0685193
-0.0709353
-0.0684464
-0.0709354
-0.0685192
-0.0706804
-0.0686793
-0.0705734
-0.0686794
-0.071752
-0.0696752
-0.0719915
-0.069604
-0.0719916
-0.0696752
-0.0717521
-0.0698272
-0.0716502
-0.0698272
-0.0728312
-0.070839
-0.0730556
-0.0707696
-0.0730557
-0.070839
-0.0728313
-0.0709831
-0.0727344
-0.0709832
-0.0739178
-0.0720108
-0.0741277
-0.0719432
-0.0741278
-0.0720107
-0.0739179
-0.0721472
-0.0738262
-0.0721473
-0.0750121
-0.0731905
-0.0752078
-0.0731248
-0.0752078
-0.0731905
-0.0750122
-0.0733196
-0.0749254
-0.0733196
-0.0761139
-0.0743784
-0.0762959
-0.0743145
-0.076296
-0.0743783
-0.076114
-0.0745002
-0.0760323
-0.0745003
-0.0772235
-0.0755743
-0.0773921
-0.0755124
-0.0773921
-0.0755743
-0.0772236
-0.0756892
-0.0771468
-0.0756892
-0.0783408
-0.0767785
-0.0784964
-0.0767186
-0.0784964
-0.0767785
-0.0783409
-0.0768865
-0.0782691
-0.0768866
-0.079466
-0.077991
-0.0796088
-0.077933
-0.0796089
-0.077991
-0.0794661
-0.0780924
-0.0793991
-0.0780924
-0.080599
-0.0792118
-0.0807294
-0.0791558
-0.0807295
-0.0792118
-0.0805991
-0.0793067
-0.080537
-0.0793067
-0.08174
-0.0804411
-0.0818583
-0.0803869
-0.0818583
-0.0804411
-0.0817401
-0.0805296
-0.0816828
-0.0805296
-0.082889
-0.0816789
-0.0829953
-0.0816266
-0.0829954
-0.0816789
-0.082889
-0.0817611
-0.0828366
-0.0817611
-0.084046
-0.0829252
-0.0841407
-0.0828747
-0.0841407
-0.0829252
-0.0840461
-0.0830013
-0.0839984
-0.0830013
-0.0852111
-0.0841802
-0.0852944
-0.0841315
-0.0852944
-0.0841802
-0.0852112
-0.0842503
-0.0851683
-0.0842503
-0.0863845
-0.0854439
-0.0864562
-0.0853972
-0.0864562
-0.0854439
-0.0863846
-0.085508
-0.0863465
-0.085508
-0.0875663
-0.0867164
-0.0876257
-0.0866723
-0.0876258
-0.0867164
-0.0875664
-0.0867744
-0.0875334
-0.0867744
-0.0887562
-0.0879978
-0.0888041
-0.0879554
-0.0888041
-0.0879978
-0.0887563
-0.0880499
-0.0887283
-0.0880499
-0.0899525
-0.0892882
-0.0899969
-0.0892398
-0.089997
-0.0892882
-0.0899525
-0.0893368
-0.0899269
-0.0893368
)
;

boundaryField
{
    BotWall
    {
        type            calculated;
        value           nonuniform List<scalar> 10(1.15602 93.5719 0.863569 12.8476 0.863562 93.5719 1.15602 0.359378 2.56377 0.359378);
    }
    FreeStream
    {
        type            calculated;
        value           nonuniform List<scalar> 10(-0.0905511 -0.0899355 -0.0906007 -0.089878 -0.0906007 -0.0899355 -0.0905511 -0.0899841 -0.0905247 -0.0899841);
    }
    FrontNBack
    {
        type            empty;
    }
    LeftSide
    {
        type            cyclic;
    }
    RightSide
    {
        type            cyclic;
    }
}


// ************************************************************************* //
