/*--------------------------------*- C++ -*----------------------------------*\
| =========                 |                                                 |
| \\      /  F ield         | OpenFOAM: The Open Source CFD Toolbox           |
|  \\    /   O peration     | Version:  2.4.0                                 |
|   \\  /    A nd           | Web:      www.OpenFOAM.org                      |
|    \\/     M anipulation  |                                                 |
\*---------------------------------------------------------------------------*/
FoamFile
{
    version     2.0;
    format      ascii;
    class       volScalarField;
    location    "0.6";
    object      p_rgh;
}
// * * * * * * * * * * * * * * * * * * * * * * * * * * * * * * * * * * * * * //

dimensions      [1 -1 -2 0 0 0 0];

internalField   nonuniform List<scalar> 
1000
(
1.15602
93.5719
0.863569
12.8476
0.863562
93.5719
1.15602
0.359378
2.56377
0.359378
-0.000710471
-0.0214934
0.0357024
0.0644853
0.0357024
-0.0214924
-0.000710019
0.499307
1.14096
0.499306
-5.61833e-06
0.014324
-0.00496498
0.00072994
-0.00496543
0.0143252
-5.18915e-06
0.00414391
-0.0350309
0.00414323
-0.00202947
0.00932915
-0.00674251
0.00353886
-0.00674294
0.00933028
-0.00202907
0.00296807
0.00680931
0.00296738
-0.00272655
0.00590314
-0.00764534
0.00345132
-0.00764575
0.00590423
-0.00272616
0.00221539
0.00124636
0.00221469
-0.00273338
0.00513865
-0.00765626
0.00323766
-0.00765665
0.00513972
-0.00273302
0.00209871
-0.00251417
0.002098
-0.00266364
0.00515044
-0.00748261
0.00321509
-0.00748298
0.0051515
-0.00266329
0.00214477
-0.00318944
0.00214405
-0.00264604
0.00512383
-0.00734824
0.00326294
-0.00734859
0.00512487
-0.00264571
0.00217319
-0.00298314
0.00217246
-0.00265534
0.00501151
-0.0072484
0.00330287
-0.00724872
0.00501254
-0.00265503
0.00217746
-0.00283798
0.0021767
-0.00266865
0.00488328
-0.00715705
0.00332509
-0.00715735
0.0048843
-0.00266838
0.00217523
-0.00280498
0.00217445
-0.00267915
0.00476658
-0.00706591
0.00333653
-0.00706619
0.00476758
-0.00267887
0.00217119
-0.00280194
0.00217042
-0.00268865
0.0046617
-0.00697473
0.00334173
-0.00697499
0.0046627
-0.00268837
0.00216673
-0.00279632
0.00216596
-0.00269851
0.00456498
-0.00688409
0.00334224
-0.00688433
0.00456595
-0.00269825
0.00216196
-0.00278663
0.00216117
-0.00270885
0.00447465
-0.00679412
0.00333869
-0.00679434
0.00447561
-0.0027086
0.00215664
-0.0027759
0.00215584
-0.00271968
0.00439046
-0.00670497
0.00333164
-0.00670518
0.00439141
-0.00271944
0.00215064
-0.00276531
0.00214982
-0.00273086
0.00431229
-0.00661706
0.00332155
-0.00661726
0.00431322
-0.00273064
0.00214394
-0.00275486
0.0021431
-0.00274074
0.0042377
-0.00653012
0.00330885
-0.0065303
0.0042386
-0.00274053
0.00213651
-0.00274445
0.00213565
-0.00274808
0.00416203
-0.0064409
0.00329383
-0.00644107
0.00416291
-0.00274789
0.00212834
-0.00273402
0.00212747
-0.00275461
0.00408701
-0.00634966
0.00327675
-0.00634981
0.00408787
-0.00275443
0.00211943
-0.00272353
0.00211854
-0.00276058
0.00401412
-0.006258
0.00325776
-0.00625815
0.00401495
-0.00276041
0.00210977
-0.00271296
0.00210885
-0.00276578
0.00394302
-0.00616623
0.00323703
-0.00616637
0.00394383
-0.00276564
0.00209937
-0.00270234
0.00209842
-0.00277012
0.00387324
-0.00607434
0.00321467
-0.00607447
0.00387402
-0.00276999
0.00208829
-0.00269173
0.00208727
-0.00277357
0.00380453
-0.00598242
0.00319078
-0.00598254
0.00380528
-0.00277346
0.00207549
-0.00267926
0.00207461
-0.00277613
0.00373675
-0.00589061
0.00316546
-0.00589073
0.00373748
-0.00277604
0.00206358
-0.00266982
0.00206272
-0.00277782
0.00366985
-0.00579907
0.00313877
-0.00579919
0.00367055
-0.00277775
0.0020494
-0.00265735
0.00204875
-0.00277865
0.00360375
-0.00570793
0.0031108
-0.00570805
0.00360443
-0.00277861
0.0020352
-0.00264594
0.00203455
-0.00277864
0.0035384
-0.00561732
0.0030816
-0.00561744
0.00353905
-0.00277862
0.00202029
-0.00263441
0.00201965
-0.0027778
0.00347375
-0.00552734
0.00305123
-0.00552746
0.00347437
-0.00277781
0.00200468
-0.00262272
0.00200405
-0.00277615
0.00340974
-0.00543809
0.00301975
-0.00543821
0.00341034
-0.00277617
0.00198841
-0.0026109
0.00198778
-0.00277369
0.00334635
-0.00534963
0.00298722
-0.00534975
0.00334692
-0.00277374
0.00197147
-0.00259895
0.00197085
-0.00277043
0.00328354
-0.00526205
0.00295368
-0.00526217
0.00328408
-0.00277051
0.00195389
-0.00258685
0.00195327
-0.0027664
0.00322127
-0.00517539
0.00291917
-0.00517551
0.00322179
-0.00276651
0.00193567
-0.00257461
0.00193506
-0.0027616
0.00315953
-0.0050897
0.00288376
-0.00508983
0.00316003
-0.00276173
0.00191684
-0.00256222
0.00191622
-0.00275604
0.00309829
-0.00500503
0.00284748
-0.00500515
0.00309876
-0.0027562
0.00189739
-0.00254965
0.00189677
-0.00274973
0.00303753
-0.0049214
0.00281036
-0.00492153
0.00303797
-0.00274993
0.00187735
-0.00253692
0.00187671
-0.00274268
0.00297723
-0.00483884
0.00277247
-0.00483896
0.00297765
-0.00274292
0.00185673
-0.00252401
0.00185608
-0.00273491
0.00291738
-0.00475736
0.00273382
-0.00475749
0.00291777
-0.00273519
0.00183552
-0.0025109
0.00183486
-0.00272643
0.00285795
-0.00467698
0.00269446
-0.00467711
0.00285833
-0.00272674
0.00181376
-0.0024976
0.00181308
-0.00271724
0.00279895
-0.0045977
0.00265443
-0.00459783
0.0027993
-0.0027176
0.00179145
-0.00248409
0.00179075
-0.00270736
0.00274035
-0.00451954
0.00261375
-0.00451966
0.00274068
-0.00270777
0.0017686
-0.00247036
0.00176787
-0.00269681
0.00268214
-0.00444247
0.00257246
-0.0044426
0.00268246
-0.00269726
0.00174523
-0.00245641
0.00174447
-0.00268559
0.00262433
-0.0043665
0.0025306
-0.00436663
0.00262462
-0.0026861
0.00172134
-0.00244222
0.00172055
-0.00267373
0.00256688
-0.00429163
0.00248818
-0.00429176
0.00256715
-0.0026743
0.00169697
-0.0024278
0.00169613
-0.00266124
0.0025098
-0.00421784
0.00244523
-0.00421796
0.00251006
-0.00266188
0.00167212
-0.00241313
0.00167122
-0.00264816
0.00245308
-0.00414511
0.00240179
-0.00414524
0.00245332
-0.0026489
0.00164684
-0.00239821
0.00164587
-0.00263502
0.00239671
-0.00407344
0.00235787
-0.00407356
0.00239693
-0.00263571
0.0016215
-0.00238303
0.00162059
-0.00261971
0.00234067
-0.0040028
0.0023135
-0.00400292
0.00234088
-0.00262035
0.00159412
-0.00236758
0.00159328
-0.0026037
0.00228496
-0.00393317
0.0022687
-0.0039333
0.00228516
-0.00260429
0.00156618
-0.00235187
0.0015654
-0.00258706
0.00222958
-0.00386455
0.00222349
-0.00386467
0.00222976
-0.00258761
0.00153775
-0.00233588
0.00153703
-0.00256978
0.0021745
-0.00379689
0.00217789
-0.00379702
0.00217467
-0.00257029
0.00150882
-0.00231959
0.00150815
-0.00255178
0.00211973
-0.00373019
0.00213192
-0.00373032
0.00211989
-0.00255226
0.00147931
-0.00230302
0.00147868
-0.00253292
0.00206524
-0.00366443
0.00208559
-0.00366455
0.00206539
-0.00253336
0.00144906
-0.00228614
0.00144848
-0.00251341
0.00201103
-0.00359957
0.00203892
-0.00359969
0.00201118
-0.00251382
0.00141829
-0.00226896
0.00141776
-0.00249332
0.0019571
-0.00353559
0.00199194
-0.00353571
0.00195723
-0.00249371
0.00138707
-0.00225146
0.00138658
-0.00247266
0.00190342
-0.00347248
0.00194464
-0.0034726
0.00190355
-0.00247301
0.00135539
-0.00223365
0.00135493
-0.00245141
0.00184999
-0.00341021
0.00189704
-0.00341032
0.00185011
-0.00245175
0.00132324
-0.00221551
0.00132282
-0.0024296
0.0017968
-0.00334874
0.00184917
-0.00334885
0.00179691
-0.00242992
0.00129063
-0.00219705
0.00129023
-0.00240724
0.00174383
-0.00328807
0.00180102
-0.00328818
0.00174394
-0.00240754
0.00125756
-0.00217826
0.00125719
-0.00238434
0.00169108
-0.00322816
0.00175262
-0.00322827
0.00169118
-0.00238462
0.00122404
-0.00215914
0.00122369
-0.00236092
0.00163853
-0.00316899
0.00170396
-0.0031691
0.00163863
-0.00236118
0.00119007
-0.00213968
0.00118975
-0.00233698
0.00158617
-0.00311054
0.00165507
-0.00311064
0.00158626
-0.00233722
0.00115566
-0.00211988
0.00115537
-0.00231254
0.001534
-0.00305278
0.00160594
-0.00305288
0.00153408
-0.00231277
0.00112083
-0.00209974
0.00112055
-0.00228762
0.00148199
-0.00299568
0.0015566
-0.00299578
0.00148207
-0.00228784
0.00108556
-0.00207925
0.00108531
-0.00226222
0.00143013
-0.00293923
0.00150704
-0.00293933
0.00143021
-0.00226243
0.00104988
-0.00205842
0.00104964
-0.00223637
0.00137842
-0.00288341
0.00145727
-0.0028835
0.0013785
-0.00223656
0.00101378
-0.00203725
0.00101355
-0.00221006
0.00132684
-0.00282817
0.0014073
-0.00282826
0.00132691
-0.00221024
0.000977267
-0.00201572
0.000977059
-0.00218331
0.00127538
-0.00277351
0.00135713
-0.0027736
0.00127545
-0.00218349
0.00094035
-0.00199385
0.000940156
-0.00215613
0.00122402
-0.0027194
0.00130678
-0.00271949
0.00122409
-0.0021563
0.000903033
-0.00197163
0.000902852
-0.00212854
0.00117276
-0.00266582
0.00125624
-0.0026659
0.00117282
-0.0021287
0.00086532
-0.00194905
0.00086515
-0.00210054
0.00112157
-0.00261274
0.00120552
-0.00261282
0.00112164
-0.00210069
0.000827214
-0.00192613
0.000827056
-0.00207214
0.00107046
-0.00256014
0.00115462
-0.00256022
0.00107052
-0.00207229
0.00078872
-0.00190285
0.000788572
-0.00204335
0.0010194
-0.002508
0.00110355
-0.00250808
0.00101945
-0.0020435
0.000749841
-0.00187923
0.000749702
-0.00201419
0.000968377
-0.00245629
0.0010523
-0.00245637
0.000968432
-0.00201433
0.000710581
-0.00185525
0.000710451
-0.00198465
0.000917387
-0.002405
0.00100088
-0.00240508
0.000917439
-0.00198479
0.000670943
-0.00183093
0.000670821
-0.00195476
0.000866413
-0.0023541
0.000949298
-0.00235418
0.000866463
-0.00195489
0.00063093
-0.00180625
0.000630815
-0.00192451
0.000815441
-0.00230357
0.000897545
-0.00230364
0.00081549
-0.00192463
0.000590544
-0.00178123
0.000590436
-0.00189391
0.000764461
-0.00225339
0.000845624
-0.00225346
0.000764507
-0.00189403
0.000549788
-0.00175586
0.000549686
-0.00186297
0.000713457
-0.00220354
0.000793537
-0.0022036
0.000713502
-0.00186309
0.000508664
-0.00173015
0.000508568
-0.0018317
0.000662419
-0.00215398
0.000741282
-0.00215405
0.000662461
-0.00183181
0.000467174
-0.0017041
0.000467083
-0.0018001
0.000611332
-0.00210472
0.000688859
-0.00210478
0.000611372
-0.00180021
0.000425319
-0.0016777
0.000425234
-0.00176818
0.000560184
-0.00205571
0.000636266
-0.00205577
0.000560222
-0.00176829
0.000383102
-0.00165097
0.000383022
-0.00173595
0.000508962
-0.00200695
0.000583503
-0.002007
0.000508999
-0.00173606
0.000340523
-0.0016239
0.000340447
-0.00170341
0.000457653
-0.0019584
0.000530566
-0.00195845
0.000457688
-0.00170351
0.000297584
-0.00159649
0.000297512
-0.00167056
0.000406245
-0.00191005
0.000477455
-0.0019101
0.000406277
-0.00167066
0.000254285
-0.00156876
0.000254218
-0.00163742
0.000354724
-0.00186187
0.000424166
-0.00186193
0.000354754
-0.00163751
0.000210627
-0.00154069
0.000210563
-0.00160397
0.000303077
-0.00181385
0.000370696
-0.00181391
0.000303106
-0.00160407
0.00016661
-0.0015123
0.00016655
-0.00157024
0.000251292
-0.00176597
0.000317044
-0.00176602
0.000251319
-0.00157034
0.000122235
-0.00148359
0.000122179
-0.00153622
0.000199356
-0.00171819
0.000263205
-0.00171824
0.000199381
-0.00153631
7.75016e-05
-0.00145456
7.74492e-05
-0.00150192
0.000147256
-0.00167051
0.000209177
-0.00167055
0.000147278
-0.00150201
3.241e-05
-0.00142522
3.2361e-05
-0.00146734
9.49772e-05
-0.00162289
0.000154956
-0.00162293
9.49972e-05
-0.00146743
-1.30401e-05
-0.00139556
-1.30859e-05
-0.00143248
4.25075e-05
-0.00157531
0.000100539
-0.00157536
4.25251e-05
-0.00143257
-5.8849e-05
-0.0013656
-5.88917e-05
-0.00139735
-1.01672e-05
-0.00152776
4.59215e-05
-0.0015278
-1.01522e-05
-0.00139744
-0.000105017
-0.00133534
-0.000105056
-0.00136195
-6.3061e-05
-0.00148021
-8.89833e-06
-0.00148025
-6.30488e-05
-0.00136204
-0.000151544
-0.00130478
-0.000151581
-0.00132629
-0.000116189
-0.00143264
-6.39123e-05
-0.00143268
-0.000116179
-0.00132637
-0.000198432
-0.00127392
-0.000198467
-0.00129036
-0.000169564
-0.00138506
-0.000119105
-0.00138509
-0.000169558
-0.00129044
-0.000245686
-0.00124276
-0.00024572
-0.00125416
-0.000223203
-0.00133741
-0.000174525
-0.00133744
-0.0002232
-0.00125425
-0.000293302
-0.00121131
-0.000293332
-0.00121776
-0.000277119
-0.00128943
-0.000230458
-0.00128946
-0.00027712
-0.00121783
-0.000341231
-0.00117978
-0.000341247
-0.00118128
-0.00033134
-0.00124072
-0.00028728
-0.00124075
-0.000331344
-0.00118134
-0.000389354
-0.0011484
-0.000389361
-0.00114437
-0.000385898
-0.00119226
-0.00034358
-0.00119229
-0.000385906
-0.00114442
-0.000438086
-0.0011164
-0.000438087
-0.00110514
-0.000440846
-0.00114964
-0.000392464
-0.00114966
-0.000440862
-0.0011052
-0.000489468
-0.00107959
-0.000489465
)
;

boundaryField
{
    BotWall
    {
        type            fixedFluxPressure;
        gradient        uniform 0;
        value           nonuniform List<scalar> 10(1.15602 93.5719 0.863569 12.8476 0.863562 93.5719 1.15602 0.359378 2.56377 0.359378);
    }
    FreeStream
    {
        type            totalPressure;
        rho             rho;
        psi             none;
        gamma           1;
        p0              uniform 0;
        value           nonuniform List<scalar> 10(-0.00108385 -0.000468314 -0.00113349 -0.000410794 -0.00113351 -0.000468338 -0.00108391 -0.000516941 -0.00105745 -0.000516937);
    }
    FrontNBack
    {
        type            empty;
    }
    LeftSide
    {
        type            cyclic;
    }
    RightSide
    {
        type            cyclic;
    }
}


// ************************************************************************* //
