/*--------------------------------*- C++ -*----------------------------------*\
| =========                 |                                                 |
| \\      /  F ield         | OpenFOAM: The Open Source CFD Toolbox           |
|  \\    /   O peration     | Version:  2.4.0                                 |
|   \\  /    A nd           | Web:      www.OpenFOAM.org                      |
|    \\/     M anipulation  |                                                 |
\*---------------------------------------------------------------------------*/
FoamFile
{
    version     2.0;
    format      ascii;
    class       surfaceScalarField;
    location    "0.6";
    object      phi;
}
// * * * * * * * * * * * * * * * * * * * * * * * * * * * * * * * * * * * * * //

dimensions      [0 3 -1 0 0 0 0];

internalField   nonuniform List<scalar> 
1890
(
-2.86322e-11
-1.48704e-09
-3.74259e-10
-1.21663e-09
3.46916e-10
-1.92286e-09
-3.46916e-10
2.2938e-11
3.74259e-10
-1.92287e-09
2.86324e-11
-1.21664e-09
3.00363e-11
-1.48704e-09
6.50703e-11
-1.15993e-09
-6.50703e-11
1.18526e-11
-1.15994e-09
-4.50572e-11
-1.43614e-09
-8.81773e-11
-1.17351e-09
-8.20028e-11
-1.92904e-09
8.2003e-11
-1.41068e-10
8.81768e-11
-1.92904e-09
4.50583e-11
-1.17352e-09
-5.84016e-12
-1.43614e-09
-1.8459e-11
-1.14732e-09
1.8459e-11
-1.34975e-09
-1.14732e-09
-4.08168e-11
-1.38492e-09
-8.82775e-11
-1.12605e-09
-4.51623e-11
-1.97215e-09
4.51621e-11
-2.31392e-10
8.82755e-11
-1.97215e-09
4.0818e-11
-1.12607e-09
-1.03999e-11
-1.38493e-09
-5.05605e-12
-1.15266e-09
5.05627e-12
-1.35986e-09
-1.15266e-09
-3.60547e-11
-1.34103e-09
-7.37952e-11
-1.08831e-09
-3.7202e-11
-2.00875e-09
3.72021e-11
-3.05796e-10
7.3792e-11
-2.00874e-09
3.60558e-11
-1.08833e-09
-7.83013e-12
-1.34104e-09
-5.26669e-12
-1.15522e-09
5.26745e-12
-1.37039e-09
-1.15523e-09
-3.15129e-11
-1.30358e-09
-6.15352e-11
-1.05829e-09
-3.05732e-11
-2.03971e-09
3.05735e-11
-3.66943e-10
6.1531e-11
-2.0397e-09
3.15139e-11
-1.05831e-09
-5.9407e-12
-1.30359e-09
-4.42422e-12
-1.15674e-09
4.42547e-12
-1.37924e-09
-1.15675e-09
-2.73332e-11
-1.27188e-09
-5.1074e-11
-1.03455e-09
-2.52107e-11
-2.06557e-09
2.52111e-11
-4.17365e-10
5.1069e-11
-2.06556e-09
2.73342e-11
-1.03458e-09
-4.35534e-12
-1.2719e-09
-3.66379e-12
-1.15743e-09
3.66544e-12
-1.38657e-09
-1.15744e-09
-2.34929e-11
-1.24536e-09
-4.21644e-11
-1.01588e-09
-2.0903e-11
-2.08683e-09
2.09036e-11
-4.59172e-10
4.21589e-11
-2.08682e-09
2.34938e-11
-1.01591e-09
-3.02147e-12
-1.24538e-09
-3.07477e-12
-1.15738e-09
3.07678e-12
-1.39272e-09
-1.15739e-09
-1.99618e-11
-1.22348e-09
-3.45907e-11
-1.00125e-09
-1.74545e-11
-2.10397e-09
1.74552e-11
-4.94082e-10
3.45848e-11
-2.10394e-09
1.99626e-11
-1.00129e-09
-1.91432e-12
-1.2235e-09
-2.58657e-12
-1.15671e-09
2.58888e-12
-1.3979e-09
-1.15673e-09
-1.67261e-11
-1.20576e-09
-2.81456e-11
-9.89829e-10
-1.46961e-11
-2.11742e-09
1.4697e-11
-5.23475e-10
2.81395e-11
-2.11739e-09
1.67268e-11
-9.89878e-10
-9.89661e-13
-1.20579e-09
-2.15982e-12
-1.15554e-09
2.16236e-12
-1.40222e-09
-1.15556e-09
-1.37732e-11
-1.19181e-09
-2.26464e-11
-9.80956e-10
-1.24881e-11
-2.12758e-09
1.24889e-11
-5.48452e-10
2.26403e-11
-2.12754e-09
1.37738e-11
-9.81011e-10
-1.6472e-13
-1.19185e-09
-1.78558e-12
-1.15391e-09
1.78831e-12
-1.40579e-09
-1.15394e-09
-1.10867e-11
-1.18111e-09
-1.79391e-11
-9.74103e-10
-1.0716e-11
-2.1348e-09
1.07168e-11
-5.69885e-10
1.79331e-11
-2.13476e-09
1.10872e-11
-9.74165e-10
3.87707e-13
-1.18115e-09
-1.46142e-12
-1.15207e-09
1.46428e-12
-1.40872e-09
-1.1521e-09
-8.648e-12
-1.17328e-09
-1.38964e-11
-9.68855e-10
-9.28747e-12
-2.13941e-09
9.28825e-12
-5.8846e-10
1.38907e-11
-2.13936e-09
8.64842e-12
-9.68923e-10
8.24492e-13
-1.17333e-09
-1.18401e-12
-1.15006e-09
1.18694e-12
-1.41109e-09
-1.15009e-09
-6.43731e-12
-1.16803e-09
-1.0414e-11
-9.64879e-10
-8.12838e-12
-2.1417e-09
8.12905e-12
-6.04718e-10
1.04086e-11
-2.14164e-09
6.43763e-12
-9.64952e-10
1.18894e-12
-1.16808e-09
-9.49267e-13
-1.14792e-09
9.52239e-13
-1.41299e-09
-1.14795e-09
-4.43345e-12
-1.16507e-09
-7.40786e-12
-9.61904e-10
-7.18005e-12
-2.14192e-09
7.18056e-12
-6.19079e-10
7.40301e-12
-2.14186e-09
4.4337e-12
-9.61983e-10
1.48209e-12
-1.16512e-09
-7.53148e-13
-1.14568e-09
7.56115e-13
-1.4145e-09
-1.14572e-09
-2.61101e-12
-1.16417e-09
-4.81289e-12
-9.59702e-10
-6.39651e-12
-2.14034e-09
6.39684e-12
-6.31872e-10
4.80858e-12
-2.14027e-09
2.6112e-12
-9.59785e-10
1.71159e-12
-1.16423e-09
-5.91764e-13
-1.14338e-09
5.9469e-13
-1.41569e-09
-1.14342e-09
-9.19142e-13
-1.16513e-09
-2.58535e-12
-9.58036e-10
-5.74207e-12
-2.13718e-09
5.74219e-12
-6.43356e-10
2.58167e-12
-2.13711e-09
9.19288e-13
-9.58123e-10
1.88534e-12
-1.16519e-09
-4.61368e-13
-1.14103e-09
4.64223e-13
-1.41661e-09
-1.14107e-09
5.56724e-13
-1.1677e-09
-7.30424e-13
-9.56749e-10
-5.18915e-12
-2.13272e-09
5.18905e-12
-6.53734e-10
7.2759e-13
-2.13265e-09
-5.56632e-13
-9.56839e-10
2.01051e-12
-1.16776e-09
-3.58314e-13
-1.13867e-09
3.61075e-13
-1.41733e-09
-1.1387e-09
1.7326e-12
-1.17152e-09
1.04516e-12
-9.56062e-10
-4.71641e-12
-2.12696e-09
4.7161e-12
-6.63167e-10
-1.04817e-12
-2.12689e-09
-1.73249e-12
-9.56155e-10
2.09359e-12
-1.17158e-09
-2.7907e-13
-1.13629e-09
2.81722e-13
-1.41789e-09
-1.13633e-09
2.82353e-12
-1.17648e-09
2.67263e-12
-9.55911e-10
-4.30827e-12
-2.11998e-09
4.30775e-12
-6.71783e-10
-2.67484e-12
-2.1199e-09
-2.8234e-12
-9.56006e-10
2.14061e-12
-1.17655e-09
-2.20261e-13
-1.13393e-09
2.22799e-13
-1.41834e-09
-1.13397e-09
3.80163e-12
-1.18244e-09
4.04006e-12
-9.56149e-10
-3.95343e-12
-2.11199e-09
3.95274e-12
-6.79689e-10
-4.04167e-12
-2.11191e-09
-3.80147e-12
-9.56246e-10
2.15696e-12
-1.18251e-09
-1.78686e-13
-1.1316e-09
1.81121e-13
-1.4187e-09
-1.13163e-09
4.66806e-12
-1.18925e-09
5.21389e-12
-9.56695e-10
-3.64325e-12
-2.10313e-09
3.64241e-12
-6.86975e-10
-5.21496e-12
-2.10305e-09
-4.66785e-12
-9.56793e-10
2.1474e-12
-1.18932e-09
-1.51137e-13
-1.1293e-09
1.5366e-13
-1.419e-09
-1.12933e-09
5.4291e-12
-1.1968e-09
6.22302e-12
-9.57489e-10
-3.37115e-12
-2.09354e-09
3.3702e-12
-6.93716e-10
-6.22359e-12
-2.09346e-09
-5.42884e-12
-9.57588e-10
2.11613e-12
-1.19687e-09
-1.43254e-13
-1.12704e-09
1.43712e-13
-1.41929e-09
-1.12707e-09
6.09214e-12
-1.20496e-09
7.08738e-12
-9.58484e-10
-3.13206e-12
-2.08332e-09
3.13102e-12
-6.99979e-10
-7.0875e-12
-2.08324e-09
-6.09182e-12
-9.58584e-10
2.06683e-12
-1.20503e-09
-1.20674e-13
-1.12485e-09
1.23619e-13
-1.41953e-09
-1.12488e-09
6.66463e-12
-1.21362e-09
7.82275e-12
-9.59642e-10
-2.922e-12
-2.07257e-09
2.92092e-12
-7.05822e-10
-7.82246e-12
-2.0725e-09
-6.66423e-12
-9.59742e-10
2.00271e-12
-1.21369e-09
-1.45045e-13
-1.1227e-09
1.45622e-13
-1.41982e-09
-1.12274e-09
7.15375e-12
-1.2227e-09
8.44238e-12
-9.60931e-10
-2.7378e-12
-2.06139e-09
2.73672e-12
-7.11297e-10
-8.44171e-12
-2.06132e-09
-7.15326e-12
-9.61031e-10
1.92666e-12
-1.22277e-09
-1.39228e-13
-1.12064e-09
1.42628e-13
-1.42011e-09
-1.12067e-09
7.56626e-12
-1.23211e-09
8.95772e-12
-9.62323e-10
-2.57686e-12
-2.04986e-09
2.5758e-12
-7.1645e-10
-8.95672e-12
-2.04978e-09
-7.5657e-12
-9.62422e-10
1.84115e-12
-1.23218e-09
-1.59856e-13
-1.11864e-09
1.61977e-13
-1.42043e-09
-1.11866e-09
7.90857e-12
-1.24177e-09
9.37895e-12
-9.63793e-10
-2.43695e-12
-2.03804e-09
2.43594e-12
-7.21323e-10
-9.37766e-12
-2.03797e-09
-7.90792e-12
-9.63891e-10
1.74838e-12
-1.24184e-09
-1.81571e-13
-1.11671e-09
1.83739e-13
-1.42079e-09
-1.11673e-09
8.18666e-12
-1.2516e-09
9.7152e-12
-9.65321e-10
-2.31612e-12
-2.02601e-09
2.31518e-12
-7.25954e-10
-9.71367e-12
-2.02594e-09
-8.18592e-12
-9.65419e-10
1.65026e-12
-1.25167e-09
-2.08152e-13
-1.11485e-09
2.10328e-13
-1.42121e-09
-1.11487e-09
8.40613e-12
-1.26156e-09
9.97479e-12
-9.6689e-10
-2.2126e-12
-2.01382e-09
2.21176e-12
-7.30378e-10
-9.97304e-12
-2.01376e-09
-8.4053e-12
-9.66987e-10
1.54849e-12
-1.26163e-09
-2.38851e-13
-1.11306e-09
2.41037e-13
-1.42169e-09
-1.11308e-09
8.57224e-12
-1.27157e-09
1.01653e-11
-9.68483e-10
-2.12476e-12
-2.00153e-09
2.12404e-12
-7.34627e-10
-1.01634e-11
-2.00147e-09
-8.57133e-12
-9.68579e-10
1.44453e-12
-1.27164e-09
-2.72996e-13
-1.11134e-09
2.75189e-13
-1.42224e-09
-1.11136e-09
8.6899e-12
-1.2816e-09
1.02939e-11
-9.70087e-10
-2.05108e-12
-1.98919e-09
2.05049e-12
-7.38729e-10
-1.02918e-11
-1.98913e-09
-8.68891e-12
-9.70182e-10
1.33966e-12
-1.28167e-09
-3.09925e-13
-1.10969e-09
3.12122e-13
-1.42286e-09
-1.10971e-09
8.76371e-12
-1.2916e-09
1.03669e-11
-9.7169e-10
-1.99009e-12
-1.97683e-09
1.98964e-12
-7.42708e-10
-1.03646e-11
-1.97677e-09
-8.76265e-12
-9.71784e-10
1.23499e-12
-1.29167e-09
-3.49002e-13
-1.10811e-09
3.51201e-13
-1.42356e-09
-1.10813e-09
8.79796e-12
-1.30153e-09
1.03903e-11
-9.73283e-10
-1.94043e-12
-1.9645e-09
1.94012e-12
-7.46589e-10
-1.0388e-11
-1.96444e-09
-8.79683e-12
-9.73375e-10
1.13146e-12
-1.3016e-09
-3.8963e-13
-1.10659e-09
3.91826e-13
-1.42434e-09
-1.1066e-09
8.79665e-12
-1.31136e-09
1.03698e-11
-9.74856e-10
-1.90077e-12
-1.95223e-09
1.9006e-12
-7.5039e-10
-1.03673e-11
-1.95218e-09
-8.79545e-12
-9.74947e-10
1.0299e-12
-1.31142e-09
-4.31252e-13
-1.10513e-09
4.3344e-13
-1.42521e-09
-1.10514e-09
8.7635e-12
-1.32105e-09
1.03104e-11
-9.76403e-10
-1.86988e-12
-1.94005e-09
1.86985e-12
-7.5413e-10
-1.03078e-11
-1.94e-09
-8.76225e-12
-9.76492e-10
9.30999e-13
-1.32111e-09
-4.73357e-13
-1.10372e-09
4.75535e-13
-1.42616e-09
-1.10373e-09
8.70197e-12
-1.33059e-09
1.02168e-11
-9.77918e-10
-1.84659e-12
-1.92799e-09
1.8467e-12
-7.57823e-10
-1.02142e-11
-1.92794e-09
-8.70067e-12
-9.78006e-10
8.35345e-13
-1.33065e-09
-5.15485e-13
-1.10237e-09
5.17648e-13
-1.42719e-09
-1.10238e-09
8.61527e-12
-1.33994e-09
1.00933e-11
-9.79396e-10
-1.82981e-12
-1.91606e-09
1.83007e-12
-7.61483e-10
-1.00906e-11
-1.91602e-09
-8.61391e-12
-9.79483e-10
7.43428e-13
-1.34001e-09
-5.57221e-13
-1.10107e-09
5.59366e-13
-1.42831e-09
-1.10108e-09
8.50634e-12
-1.34911e-09
9.94394e-12
-9.80833e-10
-1.81855e-12
-1.9043e-09
1.81894e-12
-7.65121e-10
-9.94123e-12
-1.90426e-09
-8.50495e-12
-9.80919e-10
6.55651e-13
-1.34917e-09
-5.98197e-13
-1.09982e-09
6.00321e-13
-1.4295e-09
-1.09982e-09
8.37793e-12
-1.35806e-09
9.77228e-12
-9.82227e-10
-1.81187e-12
-1.89272e-09
1.81239e-12
-7.68745e-10
-9.76952e-12
-1.89268e-09
-8.3765e-12
-9.82312e-10
5.72345e-13
-1.35812e-09
-6.38091e-13
-1.09861e-09
6.40193e-13
-1.43078e-09
-1.09861e-09
8.23255e-12
-1.36678e-09
9.58161e-12
-9.83577e-10
-1.80893e-12
-1.88133e-09
1.80957e-12
-7.72363e-10
-9.57882e-12
-1.88129e-09
-8.23108e-12
-9.8366e-10
4.93773e-13
-1.36684e-09
-6.76622e-13
-1.09744e-09
6.78699e-13
-1.43214e-09
-1.09744e-09
8.07249e-12
-1.37527e-09
9.37491e-12
-9.84879e-10
-1.80897e-12
-1.87014e-09
1.80972e-12
-7.75982e-10
-9.37209e-12
-1.87011e-09
-8.07098e-12
-9.84961e-10
4.20143e-13
-1.37533e-09
-7.13549e-13
-1.0963e-09
7.15599e-13
-1.43357e-09
-1.09631e-09
7.89987e-12
-1.38352e-09
9.15488e-12
-9.86134e-10
-1.8113e-12
-1.85918e-09
1.81216e-12
-7.79605e-10
-9.15203e-12
-1.85914e-09
-7.89833e-12
-9.86214e-10
3.51617e-13
-1.38358e-09
-7.48665e-13
-1.0952e-09
7.50687e-13
-1.43507e-09
-1.0952e-09
7.71662e-12
-1.39153e-09
8.92394e-12
-9.87341e-10
-1.8153e-12
-1.84844e-09
1.81628e-12
-7.83237e-10
-8.92107e-12
-1.8484e-09
-7.71506e-12
-9.8742e-10
2.88314e-13
-1.39159e-09
-7.81799e-13
-1.09413e-09
7.83792e-13
-1.43663e-09
-1.09413e-09
7.5245e-12
-1.39928e-09
8.68429e-12
-9.88501e-10
-1.82045e-12
-1.83793e-09
1.82152e-12
-7.86879e-10
-8.68139e-12
-1.8379e-09
-7.52291e-12
-9.88579e-10
2.30294e-13
-1.39934e-09
-8.12809e-13
-1.09309e-09
8.14773e-13
-1.43826e-09
-1.09309e-09
7.32511e-12
-1.40678e-09
8.43788e-12
-9.89614e-10
-1.82624e-12
-1.82767e-09
1.82741e-12
-7.90533e-10
-8.43496e-12
-1.82764e-09
-7.3235e-12
-9.8969e-10
1.75868e-13
-1.40684e-09
-8.4158e-13
-1.09207e-09
8.43516e-13
-1.43994e-09
-1.09207e-09
7.1199e-12
-1.41404e-09
8.18646e-12
-9.9068e-10
-1.83227e-12
-1.81765e-09
1.83353e-12
-7.94198e-10
-8.18354e-12
-1.81762e-09
-7.11827e-12
-9.90755e-10
1.40646e-13
-1.4141e-09
-8.68016e-13
-1.09106e-09
8.69921e-13
-1.44168e-09
-1.09106e-09
6.91024e-12
-1.42103e-09
7.93162e-12
-9.91702e-10
-1.83817e-12
-1.80788e-09
1.83951e-12
-7.97876e-10
-7.92867e-12
-1.80785e-09
-6.90859e-12
-9.91776e-10
8.16269e-14
-1.42109e-09
-8.92094e-13
-1.09009e-09
8.93969e-13
-1.44347e-09
-1.09008e-09
6.6973e-12
-1.42776e-09
7.67473e-12
-9.92679e-10
-1.84363e-12
-1.79836e-09
1.84505e-12
-8.01565e-10
-7.67177e-12
-1.79834e-09
-6.69562e-12
-9.92752e-10
2.70083e-14
-1.42781e-09
-9.1374e-13
-1.08915e-09
9.15584e-13
-1.4453e-09
-1.08914e-09
6.48215e-12
-1.43422e-09
7.41703e-12
-9.93614e-10
-1.84837e-12
-1.7891e-09
1.84987e-12
-8.05263e-10
-7.41405e-12
-1.78907e-09
-6.48046e-12
-9.93685e-10
-2.32951e-14
-1.43427e-09
-9.32925e-13
-1.08824e-09
9.3474e-13
-1.44717e-09
-1.08823e-09
6.26576e-12
-1.44041e-09
7.15959e-12
-9.94508e-10
-1.85218e-12
-1.78008e-09
1.85375e-12
-8.08969e-10
-7.15661e-12
-1.78006e-09
-6.26405e-12
-9.94578e-10
-6.9382e-14
-1.44046e-09
-9.49655e-13
-1.08736e-09
9.51441e-13
-1.44907e-09
-1.08735e-09
6.049e-12
-1.44634e-09
6.90338e-12
-9.95362e-10
-1.85486e-12
-1.77133e-09
1.8565e-12
-8.1268e-10
-6.90039e-12
-1.77131e-09
-6.04727e-12
-9.95431e-10
-1.15276e-13
-1.4464e-09
-9.63957e-13
-1.08651e-09
9.65717e-13
-1.451e-09
-1.0865e-09
5.83265e-12
-1.452e-09
6.64923e-12
-9.96179e-10
-1.85625e-12
-1.76282e-09
1.85796e-12
-8.16394e-10
-6.64622e-12
-1.7628e-09
-5.8309e-12
-9.96246e-10
-1.76219e-13
-1.45205e-09
-9.75879e-13
-1.08571e-09
9.77613e-13
-1.45295e-09
-1.0857e-09
5.61739e-12
-1.45739e-09
6.39784e-12
-9.96959e-10
-1.85622e-12
-1.75457e-09
1.858e-12
-8.20108e-10
-6.39483e-12
-1.75455e-09
-5.61562e-12
-9.97025e-10
-2.25588e-13
-1.45744e-09
-9.85464e-13
-1.08495e-09
9.87174e-13
-1.45492e-09
-1.08494e-09
5.40383e-12
-1.46252e-09
6.14985e-12
-9.97705e-10
-1.85469e-12
-1.74656e-09
1.85652e-12
-8.2382e-10
-6.14683e-12
-1.74655e-09
-5.40204e-12
-9.9777e-10
-2.67424e-13
-1.46257e-09
-9.92774e-13
-1.08422e-09
9.94462e-13
-1.45691e-09
-1.08422e-09
5.19251e-12
-1.46741e-09
5.90579e-12
-9.98418e-10
-1.85157e-12
-1.7388e-09
1.85346e-12
-8.27525e-10
-5.90275e-12
-1.73879e-09
-5.19071e-12
-9.98482e-10
-3.03307e-13
-1.46746e-09
-9.97879e-13
-1.08353e-09
9.99545e-13
-1.45891e-09
-1.08352e-09
4.98394e-12
-1.47206e-09
5.66611e-12
-9.991e-10
-1.8468e-12
-1.73129e-09
1.84875e-12
-8.3122e-10
-5.66307e-12
-1.73128e-09
-4.98211e-12
-9.99163e-10
-3.3411e-13
-1.47211e-09
-1.00085e-12
-1.08286e-09
1.0025e-12
-1.46091e-09
-1.08285e-09
4.77853e-12
-1.47648e-09
5.4312e-12
-9.99753e-10
-1.84036e-12
-1.72402e-09
1.84236e-12
-8.34903e-10
-5.42815e-12
-1.72401e-09
-4.77669e-12
-9.99814e-10
-3.60415e-13
-1.47653e-09
-1.00178e-12
-1.08222e-09
1.00341e-12
-1.46292e-09
-1.08221e-09
4.57666e-12
-1.48067e-09
5.2014e-12
-1.00038e-09
-1.83222e-12
-1.71699e-09
1.83427e-12
-8.38569e-10
-5.19834e-12
-1.71697e-09
-4.5748e-12
-1.00044e-09
-3.82658e-13
-1.48072e-09
-1.00074e-12
-1.0816e-09
1.00235e-12
-1.46492e-09
-1.08159e-09
4.37867e-12
-1.48465e-09
4.97696e-12
-1.00098e-09
-1.82239e-12
-1.71019e-09
1.82448e-12
-8.42216e-10
-4.9739e-12
-1.71018e-09
-4.37679e-12
-1.00103e-09
-4.01193e-13
-1.48469e-09
-9.97819e-13
-1.08101e-09
9.99421e-13
-1.46692e-09
-1.081e-09
4.18483e-12
-1.48841e-09
4.75811e-12
-1.00155e-09
-1.81086e-12
-1.70362e-09
1.813e-12
-8.4584e-10
-4.75504e-12
-1.70361e-09
-4.18293e-12
-1.00161e-09
-4.16318e-13
-1.48846e-09
-9.93117e-13
-1.08043e-09
9.94708e-13
-1.4689e-09
-1.08042e-09
3.99538e-12
-1.49198e-09
4.54502e-12
-1.0021e-09
-1.79766e-12
-1.69728e-09
1.79984e-12
-8.49437e-10
-4.54194e-12
-1.69727e-09
-3.99346e-12
-1.00216e-09
-4.28301e-13
-1.49203e-09
-9.86725e-13
-1.07987e-09
9.88307e-13
-1.47088e-09
-1.07986e-09
3.81053e-12
-1.49535e-09
4.33782e-12
-1.00263e-09
-1.78283e-12
-1.69115e-09
1.78505e-12
-8.53005e-10
-4.33474e-12
-1.69115e-09
-3.8086e-12
-1.00268e-09
-4.37382e-13
-1.4954e-09
-9.7874e-13
-1.07933e-09
9.80316e-13
-1.47284e-09
-1.07932e-09
3.63046e-12
-1.49854e-09
4.13661e-12
-1.00313e-09
-1.7664e-12
-1.68525e-09
1.76865e-12
-8.5654e-10
-4.13353e-12
-1.68524e-09
-3.6285e-12
-1.00319e-09
-4.43781e-13
-1.49858e-09
-9.69261e-13
-1.0788e-09
9.70833e-13
-1.47478e-09
-1.07879e-09
3.45529e-12
-1.50154e-09
3.94146e-12
-1.00362e-09
-1.74841e-12
-1.67956e-09
1.7507e-12
-8.60039e-10
-3.93838e-12
-1.67955e-09
-3.45332e-12
-1.00367e-09
-4.47706e-13
-1.50159e-09
-9.58387e-13
-1.07829e-09
9.59957e-13
-1.4767e-09
-1.07828e-09
3.28516e-12
-1.50438e-09
3.7524e-12
-1.00409e-09
-1.72893e-12
-1.67408e-09
1.73125e-12
-8.63499e-10
-3.74932e-12
-1.67407e-09
-3.28316e-12
-1.00414e-09
-4.4935e-13
-1.50442e-09
-9.46218e-13
-1.0778e-09
9.47789e-13
-1.47859e-09
-1.07778e-09
3.12013e-12
-1.50705e-09
3.56945e-12
-1.00453e-09
-1.70801e-12
-1.6688e-09
1.71036e-12
-8.66918e-10
-3.56636e-12
-1.6688e-09
-3.11811e-12
-1.00459e-09
-4.48897e-13
-1.50709e-09
-9.32854e-13
-1.07731e-09
9.34429e-13
-1.48046e-09
-1.0773e-09
2.96028e-12
-1.50956e-09
3.39259e-12
-1.00497e-09
-1.68572e-12
-1.66372e-09
1.68809e-12
-8.70292e-10
-3.38951e-12
-1.66372e-09
-2.95824e-12
-1.00502e-09
-4.46522e-13
-1.5096e-09
-9.18396e-13
-1.07684e-09
9.19977e-13
-1.4823e-09
-1.07683e-09
2.80565e-12
-1.51192e-09
3.2218e-12
-1.00538e-09
-1.66213e-12
-1.65884e-09
1.66452e-12
-8.73618e-10
-3.21872e-12
-1.65884e-09
-2.80359e-12
-1.00543e-09
-4.42388e-13
-1.51196e-09
-9.02943e-13
-1.07638e-09
9.04533e-13
-1.4841e-09
-1.07637e-09
2.65626e-12
-1.51414e-09
3.05705e-12
-1.00578e-09
-1.6373e-12
-1.65415e-09
1.63972e-12
-8.76895e-10
-3.05397e-12
-1.65414e-09
-2.65418e-12
-1.00583e-09
-4.36653e-13
-1.51418e-09
-8.86595e-13
-1.07593e-09
8.88197e-13
-1.48588e-09
-1.07592e-09
2.51213e-12
-1.51622e-09
2.89826e-12
-1.00617e-09
-1.61132e-12
-1.64964e-09
1.61375e-12
-8.8012e-10
-2.89518e-12
-1.64963e-09
-2.51003e-12
-1.00622e-09
-4.29468e-13
-1.51626e-09
-8.69451e-13
-1.07549e-09
8.71067e-13
-1.48762e-09
-1.07548e-09
2.37326e-12
-1.51817e-09
2.74537e-12
-1.00654e-09
-1.58426e-12
-1.64531e-09
1.5867e-12
-8.83291e-10
-2.7423e-12
-1.6453e-09
-2.37114e-12
-1.00659e-09
-4.20973e-13
-1.51821e-09
-8.51608e-13
-1.07506e-09
8.53242e-13
-1.48932e-09
-1.07505e-09
2.23961e-12
-1.52e-09
2.59831e-12
-1.0069e-09
-1.5562e-12
-1.64115e-09
1.55866e-12
-8.86406e-10
-2.59525e-12
-1.64115e-09
-2.23747e-12
-1.00695e-09
-4.11305e-13
-1.52004e-09
-8.33163e-13
-1.07464e-09
8.34818e-13
-1.49099e-09
-1.07463e-09
2.11117e-12
-1.52171e-09
2.45699e-12
-1.00725e-09
-1.52723e-12
-1.63717e-09
1.52969e-12
-8.89463e-10
-2.45394e-12
-1.63717e-09
-2.10901e-12
-1.00729e-09
-4.00592e-13
-1.52175e-09
-8.14213e-13
-1.07422e-09
8.1589e-13
-1.49262e-09
-1.07421e-09
1.98788e-12
-1.5233e-09
2.32132e-12
-1.00758e-09
-1.49742e-12
-1.63335e-09
1.49989e-12
-8.9246e-10
-2.31828e-12
-1.63335e-09
-1.9857e-12
-1.00762e-09
-3.88953e-13
-1.52334e-09
-7.94851e-13
-1.07382e-09
7.96555e-13
-1.49421e-09
-1.07381e-09
1.86972e-12
-1.52479e-09
2.19121e-12
-1.0079e-09
-1.46687e-12
-1.62969e-09
1.46934e-12
-8.95396e-10
-2.18817e-12
-1.62969e-09
-1.86752e-12
-1.00794e-09
-3.76504e-13
-1.52483e-09
-7.75171e-13
-1.07342e-09
7.76904e-13
-1.49576e-09
-1.07341e-09
1.75661e-12
-1.52619e-09
2.06655e-12
-1.00821e-09
-1.43566e-12
-1.62619e-09
1.43813e-12
-8.9827e-10
-2.06353e-12
-1.62619e-09
-1.75438e-12
-1.00825e-09
-3.6335e-13
-1.52622e-09
-7.55267e-13
-1.07303e-09
7.57032e-13
-1.49728e-09
-1.07302e-09
1.64849e-12
-1.52748e-09
1.94725e-12
-1.00851e-09
-1.40389e-12
-1.62284e-09
1.40635e-12
-9.0108e-10
-1.94424e-12
-1.62284e-09
-1.64625e-12
-1.00855e-09
-3.49589e-13
-1.52752e-09
-7.3523e-13
-1.07264e-09
7.37029e-13
-1.49875e-09
-1.07263e-09
1.54529e-12
-1.52869e-09
1.83321e-12
-1.0088e-09
-1.37164e-12
-1.61963e-09
1.3741e-12
-9.03826e-10
-1.83021e-12
-1.61964e-09
-1.54303e-12
-1.00884e-09
-3.3531e-13
-1.52873e-09
-7.15151e-13
-1.07226e-09
7.16987e-13
-1.50018e-09
-1.07225e-09
1.44695e-12
-1.52982e-09
1.72431e-12
-1.00908e-09
-1.33903e-12
-1.61657e-09
1.34148e-12
-9.06507e-10
-1.72133e-12
-1.61657e-09
-1.44466e-12
-1.00912e-09
-3.20593e-13
-1.52985e-09
-6.9512e-13
-1.07189e-09
6.96995e-13
-1.50157e-09
-1.07188e-09
1.35336e-12
-1.53086e-09
1.62046e-12
-1.00934e-09
-1.30615e-12
-1.61364e-09
1.3086e-12
-9.09121e-10
-1.61749e-12
-1.61365e-09
-1.35106e-12
-1.00938e-09
-3.05509e-13
-1.5309e-09
-6.75225e-13
-1.07152e-09
6.7714e-13
-1.50293e-09
-1.07151e-09
1.26445e-12
-1.53183e-09
1.52153e-12
-1.0096e-09
-1.27312e-12
-1.61085e-09
1.27556e-12
-9.1167e-10
-1.51858e-12
-1.61085e-09
-1.26213e-12
-1.00964e-09
-2.90116e-13
-1.53187e-09
-6.55554e-13
-1.07115e-09
6.57511e-13
-1.50424e-09
-1.07114e-09
1.18013e-12
-1.53274e-09
1.4274e-12
-1.00985e-09
-1.24007e-12
-1.60818e-09
1.2425e-12
-9.14152e-10
-1.42446e-12
-1.60819e-09
-1.17779e-12
-1.00988e-09
-2.74461e-13
-1.53277e-09
-6.36193e-13
-1.07079e-09
6.38192e-13
-1.50551e-09
-1.07078e-09
1.10028e-12
-1.53358e-09
1.33795e-12
-1.01008e-09
-1.20712e-12
-1.60564e-09
1.20955e-12
-9.16569e-10
-1.33502e-12
-1.60564e-09
-1.09793e-12
-1.01012e-09
-2.58577e-13
-1.53361e-09
-6.17228e-13
-1.07043e-09
6.19267e-13
-1.50675e-09
-1.07042e-09
1.02481e-12
-1.53436e-09
1.25302e-12
-1.01031e-09
-1.17444e-12
-1.60321e-09
1.17686e-12
-9.1892e-10
-1.2501e-12
-1.60321e-09
-1.02244e-12
-1.01035e-09
-2.42487e-13
-1.53439e-09
-5.98741e-13
-1.07008e-09
6.00819e-13
-1.50795e-09
-1.07006e-09
9.53619e-13
-1.53508e-09
1.17247e-12
-1.01053e-09
-1.14219e-12
-1.60089e-09
1.14461e-12
-9.21207e-10
-1.16955e-12
-1.6009e-09
-9.51233e-13
-1.01057e-09
-2.26199e-13
-1.53512e-09
-5.80813e-13
-1.06972e-09
5.82928e-13
-1.50911e-09
-1.06971e-09
8.86588e-13
-1.53576e-09
1.09611e-12
-1.01074e-09
-1.11055e-12
-1.59869e-09
1.11298e-12
-9.23431e-10
-1.0932e-12
-1.59869e-09
-8.84188e-13
-1.01078e-09
-2.09711e-13
-1.53579e-09
-5.63525e-13
-1.06937e-09
5.65673e-13
-1.51024e-09
-1.06936e-09
8.23617e-13
-1.53638e-09
1.02378e-12
-1.01094e-09
-1.07973e-12
-1.59658e-09
1.08217e-12
-9.25593e-10
-1.02086e-12
-1.59659e-09
-8.21205e-13
-1.01098e-09
-1.93014e-13
-1.53642e-09
-5.46957e-13
-1.06901e-09
5.49132e-13
-1.51134e-09
-1.069e-09
7.64614e-13
-1.53697e-09
9.5527e-13
-1.01113e-09
-1.04995e-12
-1.59458e-09
1.0524e-12
-9.27695e-10
-9.52338e-13
-1.59459e-09
-7.62192e-13
-1.01117e-09
-1.76098e-13
-1.53701e-09
-5.31187e-13
-1.06866e-09
5.33385e-13
-1.5124e-09
-1.06865e-09
7.09509e-13
-1.53752e-09
8.90405e-13
-1.01131e-09
-1.02142e-12
-1.59267e-09
1.0239e-12
-9.2974e-10
-8.87454e-13
-1.59267e-09
-7.07078e-13
-1.01135e-09
-1.58958e-13
-1.53755e-09
-5.16299e-13
-1.0683e-09
5.18512e-13
-1.51344e-09
-1.06829e-09
6.58265e-13
-1.53803e-09
8.29015e-13
-1.01148e-09
-9.94385e-13
-1.59084e-09
9.96902e-13
-9.31731e-10
-8.26036e-13
-1.59085e-09
-6.55827e-13
-1.01152e-09
-1.41605e-13
-1.53807e-09
-5.02383e-13
-1.06794e-09
5.04605e-13
-1.51444e-09
-1.06793e-09
6.10893e-13
-1.53852e-09
7.70968e-13
-1.01164e-09
-9.69062e-13
-1.5891e-09
9.71621e-13
-9.33672e-10
-7.67955e-13
-1.58911e-09
-6.08449e-13
-1.01168e-09
-1.24076e-13
-1.53855e-09
-4.89538e-13
-1.06757e-09
4.91761e-13
-1.51543e-09
-1.06757e-09
5.6747e-13
-1.53897e-09
7.16201e-13
-1.01179e-09
-9.45659e-13
-1.58744e-09
9.48266e-13
-9.35566e-10
-7.13147e-13
-1.58745e-09
-5.65022e-13
-1.01182e-09
-1.06446e-13
-1.53901e-09
-4.77881e-13
-1.0672e-09
4.801e-13
-1.51638e-09
-1.0672e-09
5.28155e-13
-1.53941e-09
6.64745e-13
-1.01193e-09
-9.24351e-13
-1.58585e-09
9.27011e-13
-9.37417e-10
-6.61644e-13
-1.58586e-09
-5.25703e-13
-1.01196e-09
-8.88291e-14
-1.53945e-09
-4.67551e-13
-1.06682e-09
4.69762e-13
-1.51732e-09
-1.06682e-09
4.93204e-13
-1.53983e-09
6.16756e-13
-1.01205e-09
-9.05273e-13
-1.58433e-09
9.07988e-13
-9.39231e-10
-6.13606e-13
-1.58434e-09
-4.90748e-13
-1.01208e-09
-7.13772e-14
-1.53987e-09
-4.5872e-13
-1.06644e-09
4.60919e-13
-1.51824e-09
-1.06643e-09
4.62977e-13
-1.54023e-09
5.72551e-13
-1.01216e-09
-8.885e-13
-1.58287e-09
8.91269e-13
-9.4101e-10
-5.69351e-13
-1.58288e-09
-4.60514e-13
-1.01219e-09
-5.42411e-14
-1.54027e-09
-4.51595e-13
-1.06604e-09
4.53781e-13
-1.51915e-09
-1.06603e-09
4.37936e-13
-1.54063e-09
5.3262e-13
-1.01226e-09
-8.74021e-13
-1.58146e-09
8.76842e-13
-9.42761e-10
-5.29372e-13
-1.58147e-09
-4.35464e-13
-1.01229e-09
-3.74413e-14
-1.54067e-09
-4.46422e-13
-1.06563e-09
4.48597e-13
-1.52004e-09
-1.06563e-09
4.18633e-13
-1.54102e-09
4.9762e-13
-1.01234e-09
-8.61706e-13
-1.5801e-09
8.64571e-13
-9.44487e-10
-4.94331e-13
-1.58011e-09
-4.16149e-13
-1.01236e-09
-2.75733e-14
-1.54106e-09
-4.43488e-13
-1.06522e-09
4.45655e-13
-1.52093e-09
-1.06521e-09
4.05715e-13
-1.54141e-09
4.68366e-13
-1.0124e-09
-8.51344e-13
-1.57878e-09
8.54245e-13
-9.46193e-10
-4.65044e-13
-1.57879e-09
-4.03213e-13
-1.01243e-09
-1.93322e-14
-1.54145e-09
-4.43132e-13
-1.06479e-09
4.453e-13
-1.52182e-09
-1.06479e-09
3.99957e-13
-1.54179e-09
4.4594e-13
-1.01244e-09
-8.43016e-13
-1.57749e-09
8.45943e-13
-9.47882e-10
-4.42597e-13
-1.57751e-09
-3.97429e-13
-1.01247e-09
-1.26622e-14
-1.54183e-09
-4.459e-13
-1.06436e-09
4.48078e-13
-1.52271e-09
-1.06435e-09
3.95886e-13
4.4015e-13
-8.52128e-13
8.55112e-13
-4.36742e-13
-3.93363e-13
-8.43857e-15
-4.45843e-13
4.48012e-13
)
;

boundaryField
{
    BotWall
    {
        type            calculated;
        value           nonuniform List<scalar> 10(7.60201e-10 4.25109e-12 4.87606e-10 4.61506e-17 4.8761e-10 4.25098e-12 7.60203e-10 2.41239e-10 4.25801e-13 2.4124e-10);
    }
    FreeStream
    {
        type            calculated;
        value           nonuniform List<scalar> 10(-1.54218e-09 -1.01249e-09 -1.5762e-09 -9.49589e-10 -1.57621e-09 -1.01251e-09 -1.54221e-09 -1.06392e-09 -1.52361e-09 -1.06392e-09);
    }
    FrontNBack
    {
        type            empty;
        value           nonuniform 0();
    }
    LeftSide
    {
        type            cyclic;
        value           nonuniform List<scalar> 
100
(
3.0036e-11
-5.84152e-12
-1.04024e-11
-7.83352e-12
-5.94486e-12
-4.36011e-12
-3.02668e-12
-1.91986e-12
-9.95506e-13
-1.72302e-13
3.83048e-13
8.19733e-13
1.18437e-12
1.47784e-12
1.70771e-12
1.88187e-12
2.00746e-12
2.09095e-12
2.13836e-12
2.15507e-12
2.14583e-12
2.11484e-12
2.06579e-12
2.00187e-12
1.92598e-12
1.84059e-12
1.74791e-12
1.64986e-12
1.54813e-12
1.44419e-12
1.33933e-12
1.23464e-12
1.1311e-12
1.02952e-12
9.30597e-13
8.34919e-13
7.42978e-13
6.5518e-13
5.71853e-13
4.93265e-13
4.19623e-13
3.51092e-13
2.87795e-13
2.29812e-13
1.74565e-13
1.39908e-13
8.08653e-14
2.62239e-14
-2.41013e-14
-7.02092e-14
-1.16776e-13
-1.77528e-13
-2.26835e-13
-2.68649e-13
-3.04527e-13
-3.35333e-13
-3.61649e-13
-3.83906e-13
-4.02458e-13
-4.17605e-13
-4.29611e-13
-4.38716e-13
-4.45143e-13
-4.49096e-13
-4.50771e-13
-4.50351e-13
-4.48009e-13
-4.43911e-13
-4.38214e-13
-4.31067e-13
-4.22614e-13
-4.12989e-13
-4.0232e-13
-3.90728e-13
-3.78327e-13
-3.65223e-13
-3.51513e-13
-3.37288e-13
-3.22626e-13
-3.07598e-13
-2.92262e-13
-2.76664e-13
-2.60839e-13
-2.44807e-13
-2.28576e-13
-2.12144e-13
-1.95503e-13
-1.78642e-13
-1.61557e-13
-1.44262e-13
-1.26797e-13
-1.09241e-13
-9.17191e-14
-7.44009e-14
-5.74751e-14
-4.10713e-14
-2.95541e-14
-2.13224e-14
-1.46631e-14
-1.04518e-14
)
;
    }
    RightSide
    {
        type            cyclic;
        value           nonuniform List<scalar> 
100
(
-3.0036e-11
5.84152e-12
1.04024e-11
7.83352e-12
5.94486e-12
4.36011e-12
3.02668e-12
1.91986e-12
9.95506e-13
1.72302e-13
-3.83048e-13
-8.19733e-13
-1.18437e-12
-1.47784e-12
-1.70771e-12
-1.88187e-12
-2.00746e-12
-2.09095e-12
-2.13836e-12
-2.15507e-12
-2.14583e-12
-2.11484e-12
-2.06579e-12
-2.00187e-12
-1.92598e-12
-1.84059e-12
-1.74791e-12
-1.64986e-12
-1.54813e-12
-1.44419e-12
-1.33933e-12
-1.23464e-12
-1.1311e-12
-1.02952e-12
-9.30597e-13
-8.34919e-13
-7.42978e-13
-6.5518e-13
-5.71853e-13
-4.93265e-13
-4.19623e-13
-3.51092e-13
-2.87795e-13
-2.29812e-13
-1.74565e-13
-1.39908e-13
-8.08653e-14
-2.62239e-14
2.41013e-14
7.02092e-14
1.16776e-13
1.77528e-13
2.26835e-13
2.68649e-13
3.04527e-13
3.35333e-13
3.61649e-13
3.83906e-13
4.02458e-13
4.17605e-13
4.29611e-13
4.38716e-13
4.45143e-13
4.49096e-13
4.50771e-13
4.50351e-13
4.48009e-13
4.43911e-13
4.38214e-13
4.31067e-13
4.22614e-13
4.12989e-13
4.0232e-13
3.90728e-13
3.78327e-13
3.65223e-13
3.51513e-13
3.37288e-13
3.22626e-13
3.07598e-13
2.92262e-13
2.76664e-13
2.60839e-13
2.44807e-13
2.28576e-13
2.12144e-13
1.95503e-13
1.78642e-13
1.61557e-13
1.44262e-13
1.26797e-13
1.09241e-13
9.17191e-14
7.44009e-14
5.74751e-14
4.10713e-14
2.95541e-14
2.13224e-14
1.46631e-14
1.04518e-14
)
;
    }
}


// ************************************************************************* //
