/*--------------------------------*- C++ -*----------------------------------*\
| =========                 |                                                 |
| \\      /  F ield         | OpenFOAM: The Open Source CFD Toolbox           |
|  \\    /   O peration     | Version:  2.4.0                                 |
|   \\  /    A nd           | Web:      www.OpenFOAM.org                      |
|    \\/     M anipulation  |                                                 |
\*---------------------------------------------------------------------------*/
FoamFile
{
    version     2.0;
    format      ascii;
    class       volScalarField;
    location    "0.6";
    object      T;
}
// * * * * * * * * * * * * * * * * * * * * * * * * * * * * * * * * * * * * * //

dimensions      [0 0 0 1 0 0 0];

internalField   nonuniform List<scalar> 
1000
(
296.932
294.954
297.044
293.902
297.044
294.954
296.932
297.412
294.712
297.412
296.974
295.051
296.834
293.992
296.834
295.051
296.974
297.479
297.944
297.479
297.02
295.313
296.882
294.177
296.882
295.314
297.02
297.513
297.941
297.513
297.068
295.545
296.936
294.423
296.936
295.546
297.068
297.546
297.935
297.546
297.117
295.752
296.994
294.657
296.994
295.752
297.117
297.576
297.931
297.576
297.166
295.937
297.053
294.878
297.053
295.937
297.166
297.604
297.928
297.604
297.214
296.104
297.111
295.086
297.111
296.104
297.214
297.63
297.926
297.63
297.261
296.256
297.167
295.281
297.167
296.256
297.261
297.654
297.924
297.654
297.307
296.394
297.222
295.465
297.222
296.394
297.307
297.677
297.924
297.677
297.351
296.52
297.274
295.637
297.274
296.52
297.351
297.698
297.924
297.698
297.394
296.636
297.324
295.799
297.323
296.636
297.394
297.718
297.925
297.718
297.434
296.742
297.37
295.951
297.37
296.743
297.434
297.737
297.926
297.737
297.473
296.841
297.414
296.093
297.414
296.841
297.473
297.755
297.927
297.755
297.51
296.932
297.455
296.227
297.455
296.932
297.51
297.771
297.929
297.771
297.545
297.016
297.494
296.352
297.494
297.016
297.545
297.787
297.931
297.787
297.578
297.093
297.53
296.469
297.53
297.094
297.578
297.801
297.933
297.801
297.609
297.166
297.564
296.578
297.564
297.166
297.609
297.815
297.936
297.815
297.638
297.232
297.596
296.681
297.596
297.233
297.638
297.828
297.938
297.828
297.666
297.294
297.625
296.778
297.625
297.295
297.666
297.84
297.941
297.84
297.691
297.352
297.653
296.868
297.653
297.352
297.691
297.851
297.944
297.851
297.715
297.405
297.678
296.952
297.678
297.405
297.715
297.862
297.946
297.862
297.738
297.454
297.702
297.031
297.702
297.454
297.738
297.872
297.949
297.872
297.759
297.499
297.725
297.105
297.725
297.5
297.759
297.881
297.952
297.881
297.778
297.541
297.746
297.174
297.746
297.541
297.778
297.89
297.954
297.89
297.797
297.58
297.765
297.238
297.765
297.58
297.797
297.898
297.957
297.898
297.814
297.616
297.783
297.298
297.783
297.616
297.814
297.905
297.959
297.905
297.829
297.649
297.8
297.354
297.8
297.649
297.829
297.912
297.962
297.912
297.844
297.679
297.816
297.406
297.816
297.679
297.844
297.919
297.964
297.919
297.858
297.707
297.83
297.454
297.83
297.707
297.858
297.925
297.966
297.925
297.87
297.732
297.844
297.499
297.844
297.733
297.87
297.931
297.969
297.931
297.882
297.756
297.856
297.541
297.856
297.756
297.882
297.937
297.971
297.937
297.892
297.778
297.868
297.579
297.868
297.778
297.892
297.942
297.973
297.942
297.902
297.798
297.879
297.615
297.879
297.798
297.902
297.946
297.975
297.946
297.911
297.816
297.889
297.648
297.889
297.816
297.911
297.951
297.976
297.951
297.919
297.832
297.898
297.678
297.898
297.832
297.919
297.955
297.978
297.955
297.927
297.848
297.906
297.706
297.906
297.848
297.927
297.958
297.98
297.958
297.934
297.862
297.914
297.732
297.914
297.862
297.934
297.962
297.981
297.962
297.94
297.875
297.922
297.755
297.922
297.875
297.94
297.965
297.983
297.965
297.946
297.886
297.928
297.777
297.928
297.886
297.946
297.968
297.984
297.968
297.951
297.897
297.934
297.797
297.934
297.897
297.951
297.971
297.985
297.971
297.956
297.907
297.94
297.816
297.94
297.907
297.956
297.973
297.986
297.973
297.96
297.916
297.945
297.832
297.945
297.916
297.96
297.976
297.987
297.976
297.964
297.924
297.95
297.848
297.95
297.924
297.964
297.978
297.988
297.978
297.968
297.931
297.955
297.862
297.955
297.931
297.968
297.98
297.989
297.98
297.971
297.938
297.959
297.875
297.959
297.938
297.971
297.981
297.99
297.981
297.974
297.944
297.962
297.886
297.962
297.944
297.974
297.983
297.991
297.983
297.977
297.949
297.966
297.897
297.966
297.949
297.977
297.985
297.992
297.985
297.979
297.954
297.969
297.907
297.969
297.954
297.979
297.986
297.993
297.986
297.981
297.959
297.972
297.916
297.972
297.959
297.981
297.987
297.993
297.987
297.983
297.963
297.974
297.924
297.974
297.963
297.983
297.989
297.994
297.989
297.985
297.967
297.977
297.931
297.977
297.967
297.985
297.99
297.994
297.99
297.987
297.97
297.979
297.938
297.979
297.97
297.987
297.991
297.995
297.991
297.988
297.973
297.981
297.944
297.981
297.973
297.988
297.992
297.995
297.992
297.989
297.976
297.983
297.95
297.983
297.976
297.989
297.992
297.996
297.992
297.99
297.978
297.984
297.955
297.984
297.978
297.99
297.993
297.996
297.993
297.991
297.981
297.986
297.96
297.986
297.981
297.991
297.994
297.997
297.994
297.992
297.983
297.987
297.964
297.987
297.983
297.992
297.994
297.997
297.994
297.993
297.984
297.989
297.967
297.989
297.984
297.993
297.995
297.997
297.995
297.994
297.986
297.99
297.971
297.99
297.986
297.994
297.995
297.997
297.995
297.995
297.988
297.991
297.974
297.991
297.988
297.995
297.996
297.998
297.996
297.995
297.989
297.992
297.977
297.992
297.989
297.995
297.996
297.998
297.996
297.996
297.99
297.993
297.979
297.993
297.99
297.996
297.997
297.998
297.997
297.996
297.991
297.993
297.981
297.993
297.991
297.996
297.997
297.998
297.997
297.997
297.992
297.994
297.983
297.994
297.992
297.997
297.997
297.999
297.997
297.997
297.993
297.995
297.985
297.995
297.993
297.997
297.998
297.999
297.998
297.997
297.994
297.995
297.987
297.995
297.994
297.997
297.998
297.999
297.998
297.998
297.994
297.996
297.988
297.996
297.994
297.998
297.998
297.999
297.998
297.998
297.995
297.996
297.99
297.996
297.995
297.998
297.998
297.999
297.998
297.998
297.996
297.997
297.991
297.997
297.996
297.998
297.999
297.999
297.999
297.998
297.996
297.997
297.992
297.997
297.996
297.998
297.999
297.999
297.999
297.999
297.997
297.997
297.993
297.997
297.997
297.999
297.999
297.999
297.999
297.999
297.997
297.998
297.994
297.998
297.997
297.999
297.999
297.999
297.999
297.999
297.997
297.998
297.994
297.998
297.997
297.999
297.999
297.999
297.999
297.999
297.998
297.998
297.995
297.998
297.998
297.999
297.999
298
297.999
297.999
297.998
297.998
297.996
297.998
297.998
297.999
297.999
298
297.999
297.999
297.998
297.999
297.996
297.999
297.998
297.999
297.999
298
297.999
297.999
297.998
297.999
297.997
297.999
297.998
297.999
297.999
298
297.999
297.999
297.999
297.999
297.997
297.999
297.999
297.999
298
298
298
298
297.999
297.999
297.997
297.999
297.999
298
298
298
298
298
297.999
297.999
297.998
297.999
297.999
298
298
298
298
298
297.999
297.999
297.998
297.999
297.999
298
298
298
298
298
297.999
297.999
297.998
297.999
297.999
298
298
298
298
298
297.999
297.999
297.998
297.999
297.999
298
298
298
298
298
297.999
298
297.999
298
297.999
298
298
298
298
298
297.999
298
297.999
298
297.999
298
298
298
298
298
298
298
297.999
298
298
298
298
298
298
298
298
298
297.999
298
298
298
298
298
298
298
298
298
297.999
298
298
298
298
298
298
298
298
298
297.999
298
298
298
298
298
298
298
298
298
297.999
298
298
298
298
298
298
298
298
298
298
298
298
298
298
298
298
298
298
298
298
298
298
298
298
298
298
298
298
298
298
298
298
298
298
298
298
298
298
298
298
298
298
298
298
298
298
298
298
298
298
298
298
298
298
298
298
298
298
298
298
298
298
298
298
298
298
298
298
298
298
298
298
298
298
298
298
298
298
298
298
298
298
298
298
298
298
298
298
298
298
298
298
298
298
298
298
298
298
298
298
298
298
298
298
298
298
)
;

boundaryField
{
    BotWall
    {
        type            fixedValue;
        value           uniform 293;
    }
    FreeStream
    {
        type            fixedValue;
        value           uniform 298;
    }
    FrontNBack
    {
        type            empty;
    }
    LeftSide
    {
        type            cyclic;
    }
    RightSide
    {
        type            cyclic;
    }
}


// ************************************************************************* //
