/*--------------------------------*- C++ -*----------------------------------*\
| =========                 |                                                 |
| \\      /  F ield         | OpenFOAM: The Open Source CFD Toolbox           |
|  \\    /   O peration     | Version:  2.4.0                                 |
|   \\  /    A nd           | Web:      www.OpenFOAM.org                      |
|    \\/     M anipulation  |                                                 |
\*---------------------------------------------------------------------------*/
FoamFile
{
    version     2.0;
    format      ascii;
    class       volVectorField;
    location    "0.6";
    object      U;
}
// * * * * * * * * * * * * * * * * * * * * * * * * * * * * * * * * * * * * * //

dimensions      [0 1 -1 0 0 0 0];

internalField   nonuniform List<vector> 
1000
(
(0.0032542 -0.0159086 0)
(-0.0296073 -0.0037799 0)
(0.00892529 -0.0141 0)
(7.25937e-08 9.17922e-05 0)
(-0.00892536 -0.0141001 0)
(0.0296072 -0.00377993 0)
(-0.003254 -0.0159087 0)
(0.0249504 -0.00819725 0)
(4.9521e-10 0.000909676 0)
(-0.0249504 -0.00819725 0)
(0.00365487 -0.0172981 0)
(-0.029337 -0.0114972 0)
(-0.0314856 -0.0218841 0)
(1.04672e-07 4.93625e-05 0)
(0.0314854 -0.0218841 0)
(0.0293368 -0.0114973 0)
(-0.0036541 -0.0172982 0)
(-0.0039086 -0.0130213 0)
(2.14536e-09 -0.00215563 0)
(0.0039086 -0.0130213 0)
(0.00231884 -0.0149386 0)
(-0.0251758 -0.0167746 0)
(-0.025506 -0.0208336 0)
(1.65739e-07 -0.00187411 0)
(0.0255056 -0.0208336 0)
(0.0251751 -0.0167747 0)
(-0.00231753 -0.0149386 0)
(-0.00320292 -0.0124958 0)
(1.615e-08 -0.0132581 0)
(0.00320301 -0.0124959 0)
(0.00137378 -0.0135756 0)
(-0.0214321 -0.0115194 0)
(-0.0206836 -0.0200251 0)
(3.17683e-07 -0.00316214 0)
(0.0206829 -0.0200251 0)
(0.0214309 -0.0115196 0)
(-0.00137202 -0.0135756 0)
(-0.00292887 -0.0116548 0)
(1.32603e-07 -0.0198786 0)
(0.00292903 -0.0116549 0)
(0.000657857 -0.0131036 0)
(-0.0180795 -0.0104693 0)
(-0.0168151 -0.0201506 0)
(4.49955e-07 -0.00347725 0)
(0.0168144 -0.0201505 0)
(0.018078 -0.0104695 0)
(-0.000655749 -0.0131037 0)
(-0.00254138 -0.0114934 0)
(2.35372e-07 -0.0143033 0)
(0.0025416 -0.0114935 0)
(0.000108063 -0.0128331 0)
(-0.0150914 -0.0102917 0)
(-0.0137153 -0.020494 0)
(5.58295e-07 -0.0039334 0)
(0.0137144 -0.0204939 0)
(0.0150896 -0.010292 0)
(-0.000105694 -0.0128332 0)
(-0.00217039 -0.011537 0)
(3.26087e-07 -0.0135436 0)
(0.00217066 -0.0115371 0)
(-0.000315441 -0.0125753 0)
(-0.0124362 -0.01022 0)
(-0.0112381 -0.0207704 0)
(6.39584e-07 -0.00438766 0)
(0.0112371 -0.0207703 0)
(0.0124341 -0.0102203 0)
(0.000317985 -0.0125755 0)
(-0.00184099 -0.0115717 0)
(4.05093e-07 -0.0137166 0)
(0.00184131 -0.0115718 0)
(-0.000638915 -0.0123368 0)
(-0.0100813 -0.0100867 0)
(-0.00926523 -0.0209681 0)
(6.92029e-07 -0.00477914 0)
(0.00926423 -0.0209679 0)
(0.0100791 -0.0100871 0)
(0.000641554 -0.012337 0)
(-0.00155551 -0.0115745 0)
(4.72768e-07 -0.0139325 0)
(0.00155585 -0.0115747 0)
(-0.000883623 -0.0121373 0)
(-0.00799615 -0.00995375 0)
(-0.00769638 -0.0211175 0)
(7.15214e-07 -0.00510141 0)
(0.00769538 -0.0211173 0)
(0.00799386 -0.0099542 0)
(0.000886285 -0.0121375 0)
(-0.00130757 -0.0115636 0)
(5.295e-07 -0.0140147 0)
(0.00130793 -0.0115638 0)
(-0.00106674 -0.0119789 0)
(-0.00615208 -0.00984871 0)
(-0.00644793 -0.0212331 0)
(7.1006e-07 -0.00537069 0)
(0.00644696 -0.0212327 0)
(0.00614977 -0.00984923 0)
(0.00106936 -0.0119792 0)
(-0.00109249 -0.0115482 0)
(5.75718e-07 -0.0140484 0)
(0.00109285 -0.0115484 0)
(-0.00120176 -0.0118566 0)
(-0.00452329 -0.00977015 0)
(-0.00545174 -0.0213188 0)
(6.78717e-07 -0.00560024 0)
(0.00545082 -0.0213184 0)
(0.00452102 -0.00977074 0)
(0.00120429 -0.011857 0)
(-0.000906922 -0.0115304 0)
(6.11889e-07 -0.0140749 0)
(0.000907284 -0.0115306 0)
(-0.00129911 -0.011765 0)
(-0.00308662 -0.00971082 0)
(-0.00465311 -0.0213773 0)
(6.24369e-07 -0.00579853 0)
(0.00465227 -0.0213768 0)
(0.00308443 -0.00971147 0)
(0.00130149 -0.0117654 0)
(-0.000748036 -0.0115109 0)
(6.39162e-07 -0.0140999 0)
(0.000748393 -0.0115112 0)
(-0.00136681 -0.0117004 0)
(-0.00182146 -0.00966569 0)
(-0.00400863 -0.021411 0)
(5.50998e-07 -0.00597145 0)
(0.00400787 -0.0214105 0)
(0.00181941 -0.0096664 0)
(0.00136902 -0.0117009 0)
(-0.000613155 -0.0114901 0)
(6.58437e-07 -0.0141213 0)
(0.000613503 -0.0114904 0)
(-0.00141108 -0.01166 0)
(-0.000709629 -0.00963167 0)
(-0.00348419 -0.0214229 0)
(4.63103e-07 -0.00612358 0)
(0.00348352 -0.0214223 0)
(0.000707734 -0.00963243 0)
(0.00141308 -0.0116605 0)
(-0.000499768 -0.0114682 0)
(6.70605e-07 -0.0141384 0)
(0.000500104 -0.0114685 0)
(-0.00143667 -0.0116414 0)
(0.000264911 -0.00960627 0)
(-0.00305326 -0.0214155 0)
(3.65418e-07 -0.00625859 0)
(0.00305269 -0.0214148 0)
(-0.00026662 -0.00960708 0)
(0.00143846 -0.0116419 0)
(-0.000405545 -0.0114454 0)
(6.76588e-07 -0.0141517 0)
(0.000405867 -0.0114458 0)
(-0.00144723 -0.0116424 0)
(0.00111623 -0.00958712 0)
(-0.00269535 -0.0213913 0)
(2.62623e-07 -0.00637938 0)
(0.00269488 -0.0213906 0)
(-0.00111774 -0.00958797 0)
(0.0014488 -0.011643 0)
(-0.000328339 -0.0114221 0)
(6.77307e-07 -0.0141621 0)
(0.000328646 -0.0114225 0)
(-0.00144553 -0.0116606 0)
(0.00185669 -0.00957248 0)
(-0.00239476 -0.0213529 0)
(1.59093e-07 -0.00648821 0)
(0.00239439 -0.0213522 0)
(-0.00185799 -0.00957336 0)
(0.00144688 -0.0116612 0)
(-0.000266171 -0.0113985 0)
(6.73648e-07 -0.0141702 0)
(0.000266462 -0.0113988 0)
(-0.00143385 -0.0116931 0)
(0.00249731 -0.00956282 0)
(-0.0021395 -0.0213014 0)
(5.87136e-08 -0.00658689 0)
(0.00213922 -0.0213006 0)
(-0.00249839 -0.00956374 0)
(0.00143498 -0.0116937 0)
(-0.000217238 -0.0113747 0)
(6.6643e-07 -0.0141765 0)
(0.000217516 -0.0113751 0)
(-0.00141429 -0.0117375 0)
(0.0030483 -0.00955877 0)
(-0.0019207 -0.0212373 0)
(-3.50964e-08 -0.00667682 0)
(0.00192051 -0.0212365 0)
(-0.00304918 -0.00955971 0)
(0.00141521 -0.0117381 0)
(-0.000179921 -0.011351 0)
(6.56394e-07 -0.0141814 0)
(0.000180187 -0.0113514 0)
(-0.00138859 -0.0117924 0)
(0.00351904 -0.00955937 0)
(-0.00173185 -0.021162 0)
(-1.1975e-07 -0.00675917 0)
(0.00173174 -0.0211612 0)
(-0.00351971 -0.00956034 0)
(0.00138933 -0.0117931 0)
(-0.000152746 -0.0113275 0)
(6.44187e-07 -0.0141853 0)
(0.000153003 -0.0113279 0)
(-0.00135819 -0.0118566 0)
(0.00391789 -0.0095635 0)
(-0.001568 -0.0210774 0)
(-1.93442e-07 -0.00683491 0)
(0.00156797 -0.0210766 0)
(-0.00391837 -0.00956448 0)
(0.00135876 -0.0118573 0)
(-0.000134374 -0.0113043 0)
(6.30385e-07 -0.0141886 0)
(0.000134625 -0.0113047 0)
(-0.00132428 -0.0119287 0)
(0.00425232 -0.00957036 0)
(-0.00142534 -0.0209848 0)
(-2.55109e-07 -0.00690486 0)
(0.00142539 -0.020984 0)
(-0.00425263 -0.00957135 0)
(0.0013247 -0.0119294 0)
(-0.000123592 -0.0112815 0)
(6.15454e-07 -0.0141915 0)
(0.000123839 -0.0112819 0)
(-0.00128784 -0.0120075 0)
(0.00452905 -0.00957942 0)
(-0.00130092 -0.0208855 0)
(-3.04366e-07 -0.00696972 0)
(0.00130103 -0.0208847 0)
(-0.0045292 -0.00958042 0)
(0.00128813 -0.0120082 0)
(-0.000119308 -0.0112593 0)
(5.99447e-07 -0.0141941 0)
(0.000119553 -0.0112596 0)
(-0.00124966 -0.0120919 0)
(0.00475409 -0.00959028 0)
(-0.00119238 -0.0207804 0)
(-3.41417e-07 -0.00703011 0)
(0.00119255 -0.0207797 0)
(-0.0047541 -0.00959128 0)
(0.00124985 -0.0120926 0)
(-0.000120531 -0.0112376 0)
(5.83088e-07 -0.0141968 0)
(0.000120777 -0.0112379 0)
(-0.00121043 -0.0121809 0)
(0.00493288 -0.00960259 0)
(-0.00109782 -0.0206706 0)
(-3.66933e-07 -0.00708656 0)
(0.00109804 -0.0206698 0)
(-0.00493276 -0.00960359 0)
(0.00121053 -0.0121816 0)
(-0.000126384 -0.0112165 0)
(5.66238e-07 -0.0141996 0)
(0.000126633 -0.0112168 0)
(-0.00117068 -0.0122735 0)
(0.00507031 -0.00961606 0)
(-0.00101566 -0.0205568 0)
(-3.81936e-07 -0.00713958 0)
(0.00101593 -0.0205561 0)
(-0.00507009 -0.00961705 0)
(0.00117072 -0.0122742 0)
(-0.00013607 -0.0111962 0)
(5.49588e-07 -0.0142026 0)
(0.000136324 -0.0111965 0)
(-0.00113086 -0.012369 0)
(0.00517084 -0.00963043 0)
(-0.000944544 -0.0204399 0)
(-3.87676e-07 -0.0071896 0)
(0.000944855 -0.0204392 0)
(-0.00517052 -0.00963141 0)
(0.00113085 -0.0123697 0)
(-0.000148884 -0.0111765 0)
(5.33059e-07 -0.014206 0)
(0.000149144 -0.0111768 0)
(-0.00109134 -0.0124666 0)
(0.00523849 -0.00964547 0)
(-0.000883288 -0.0203205 0)
(-3.85522e-07 -0.00723703 0)
(0.000883635 -0.0203198 0)
(-0.00523809 -0.00964645 0)
(0.00109128 -0.0124673 0)
(-0.000164197 -0.0111576 0)
(5.16731e-07 -0.0142099 0)
(0.000164463 -0.0111578 0)
(-0.0010524 -0.0125657 0)
(0.00527695 -0.009661 0)
(-0.00083083 -0.0201993 0)
(-3.7687e-07 -0.00728222 0)
(0.000831208 -0.0201986 0)
(-0.00527648 -0.00966197 0)
(0.00105232 -0.0125664 0)
(-0.000181449 -0.0111393 0)
(5.0068e-07 -0.0142144 0)
(0.000181722 -0.0111396 0)
(-0.00101428 -0.0126657 0)
(0.00528955 -0.00967685 0)
(-0.000786205 -0.0200768 0)
(-3.63068e-07 -0.00732551 0)
(0.000786611 -0.0200761 0)
(-0.00528904 -0.00967781 0)
(0.00101418 -0.0126664 0)
(-0.000200148 -0.0111218 0)
(4.84949e-07 -0.0142195 0)
(0.000200429 -0.011122 0)
(-0.000977162 -0.0127661 0)
(0.00527936 -0.00969286 0)
(-0.000748527 -0.0199535 0)
(-3.45364e-07 -0.00736719 0)
(0.000748957 -0.0199528 0)
(-0.0052788 -0.00969382 0)
(0.000977051 -0.0127668 0)
(-0.000219859 -0.011105 0)
(4.69565e-07 -0.0142253 0)
(0.000220147 -0.0111052 0)
(-0.000941176 -0.0128663 0)
(0.00524915 -0.00970893 0)
(-0.000716979 -0.0198299 0)
(-3.24869e-07 -0.00740754 0)
(0.00071743 -0.0198293 0)
(-0.00524855 -0.00970987 0)
(0.000941061 -0.012867 0)
(-0.000240201 -0.0110888 0)
(4.54549e-07 -0.0142319 0)
(0.000240495 -0.011089 0)
(-0.000906427 -0.012966 0)
(0.00520144 -0.00972493 0)
(-0.000690805 -0.0197063 0)
(-3.02539e-07 -0.00744678 0)
(0.000691273 -0.0197058 0)
(-0.00520082 -0.00972586 0)
(0.000906313 -0.0129667 0)
(-0.000260839 -0.0110733 0)
(4.3991e-07 -0.0142393 0)
(0.000261139 -0.0110735 0)
(-0.000872985 -0.0130649 0)
(0.00513855 -0.00974077 0)
(-0.000669306 -0.0195832 0)
(-2.79169e-07 -0.00748514 0)
(0.000669789 -0.0195827 0)
(-0.00513791 -0.00974169 0)
(0.000872876 -0.0130656 0)
(-0.000281484 -0.0110584 0)
(4.25658e-07 -0.0142476 0)
(0.000281789 -0.0110586 0)
(-0.000840894 -0.0131626 0)
(0.00506257 -0.00975639 0)
(-0.00065184 -0.0194609 0)
(-2.554e-07 -0.00752281 0)
(0.000652338 -0.0194604 0)
(-0.00506191 -0.00975729 0)
(0.000840793 -0.0131632 0)
(-0.000301886 -0.0110441 0)
(4.118e-07 -0.0142566 0)
(0.000302195 -0.0110442 0)
(-0.000810175 -0.0132588 0)
(0.00497537 -0.00977171 0)
(-0.000637823 -0.0193396 0)
(-2.31727e-07 -0.00755994 0)
(0.000638332 -0.0193392 0)
(-0.0049747 -0.0097726 0)
(0.000810084 -0.0132594 0)
(-0.000321831 -0.0110303 0)
(3.98342e-07 -0.0142665 0)
(0.000322142 -0.0110304 0)
(-0.000780833 -0.0133533 0)
(0.00487869 -0.00978669 0)
(-0.000626718 -0.0192197 0)
(-2.08523e-07 -0.00759667 0)
(0.000627238 -0.0192192 0)
(-0.00487801 -0.00978756 0)
(0.000780752 -0.0133539 0)
(-0.000341135 -0.0110171 0)
(3.85293e-07 -0.0142773 0)
(0.000341448 -0.0110172 0)
(-0.000752856 -0.0134459 0)
(0.00477406 -0.00980127 0)
(-0.000618045 -0.0191012 0)
(-1.8605e-07 -0.00763313 0)
(0.000618574 -0.0191007 0)
(-0.00477338 -0.00980213 0)
(0.000752787 -0.0134466 0)
(-0.000359645 -0.0110043 0)
(3.7266e-07 -0.0142889 0)
(0.00035996 -0.0110044 0)
(-0.000726219 -0.0135365 0)
(0.00466286 -0.00981544 0)
(-0.000611369 -0.0189844 0)
(-1.64483e-07 -0.00766942 0)
(0.000611906 -0.018984 0)
(-0.00466218 -0.00981629 0)
(0.000726162 -0.0135371 0)
(-0.000377234 -0.010992 0)
(3.60453e-07 -0.0143013 0)
(0.000377549 -0.0109921 0)
(-0.000700889 -0.0136249 0)
(0.00454635 -0.00982916 0)
(-0.000606305 -0.0188695 0)
(-1.43926e-07 -0.00770562 0)
(0.000606849 -0.0188691 0)
(-0.00454567 -0.00982999 0)
(0.000700845 -0.0136255 0)
(-0.000393798 -0.0109801 0)
(3.48684e-07 -0.0143144 0)
(0.000394112 -0.0109801 0)
(-0.000676825 -0.013711 0)
(0.00442564 -0.00984241 0)
(-0.00060251 -0.0187566 0)
(-1.24428e-07 -0.00774179 0)
(0.00060306 -0.0187562 0)
(-0.00442496 -0.00984324 0)
(0.000676793 -0.0137116 0)
(-0.000409252 -0.0109686 0)
(3.37362e-07 -0.0143284 0)
(0.000409566 -0.0109686 0)
(-0.000653979 -0.0137947 0)
(0.00430172 -0.0098552 0)
(-0.000599682 -0.0186458 0)
(-1.05998e-07 -0.00777799 0)
(0.000600238 -0.0186455 0)
(-0.00430105 -0.00985601 0)
(0.000653958 -0.0137953 0)
(-0.000423533 -0.0109574 0)
(3.265e-07 -0.014343 0)
(0.000423845 -0.0109574 0)
(-0.000632298 -0.013876 0)
(0.00417548 -0.00986751 0)
(-0.000597558 -0.0185373 0)
(-8.86158e-08 -0.00781426 0)
(0.000598119 -0.018537 0)
(-0.0041748 -0.00986831 0)
(0.00063229 -0.0138766 0)
(-0.000436593 -0.0109466 0)
(3.16111e-07 -0.0143584 0)
(0.000436901 -0.0109466 0)
(-0.00061173 -0.0139548 0)
(0.00404769 -0.00987935 0)
(-0.000595909 -0.0184311 0)
(-7.22419e-08 -0.00785062 0)
(0.000596474 -0.0184308 0)
(-0.00404702 -0.00988013 0)
(0.000611733 -0.0139554 0)
(-0.000448397 -0.010936 0)
(3.06214e-07 -0.0143743 0)
(0.000448702 -0.010936 0)
(-0.000592217 -0.0140311 0)
(0.00391905 -0.00989071 0)
(-0.000594537 -0.0183272 0)
(-5.68247e-08 -0.00788709 0)
(0.000595105 -0.0183269 0)
(-0.00391839 -0.00989148 0)
(0.000592232 -0.0140317 0)
(-0.000458925 -0.0109257 0)
(2.96827e-07 -0.0143909 0)
(0.000459227 -0.0109257 0)
(-0.000573703 -0.0141049 0)
(0.00379018 -0.0099016 0)
(-0.000593274 -0.0182258 0)
(-4.23061e-08 -0.00792369 0)
(0.000593846 -0.0182255 0)
(-0.00378952 -0.00990236 0)
(0.000573729 -0.0141055 0)
(-0.000468167 -0.0109156 0)
(2.87768e-07 -0.014408 0)
(0.000468466 -0.0109156 0)
(-0.000556135 -0.0141762 0)
(0.00366161 -0.00991204 0)
(-0.000591978 -0.0181269 0)
(-2.86255e-08 -0.00796041 0)
(0.000592552 -0.0181266 0)
(-0.00366096 -0.00991278 0)
(0.000556171 -0.0141767 0)
(-0.000476122 -0.0109057 0)
(2.79167e-07 -0.0144257 0)
(0.000476417 -0.0109056 0)
(-0.000539452 -0.0142447 0)
(0.0035338 -0.00992203 0)
(-0.000590528 -0.0180304 0)
(-1.57234e-08 -0.00799724 0)
(0.000591104 -0.0180302 0)
(-0.00353315 -0.00992276 0)
(0.000539499 -0.0142453 0)
(-0.000482801 -0.0108961 0)
(2.71044e-07 -0.0144438 0)
(0.000483091 -0.010896 0)
(-0.000523597 -0.0143106 0)
(0.00340716 -0.00993158 0)
(-0.000588826 -0.0179365 0)
(-3.54242e-09 -0.00803418 0)
(0.000589403 -0.0179363 0)
(-0.00340652 -0.0099323 0)
(0.000523654 -0.0143112 0)
(-0.00048822 -0.0108868 0)
(2.63398e-07 -0.0144623 0)
(0.000488507 -0.0108868 0)
(-0.000508517 -0.0143739 0)
(0.00328205 -0.00994072 0)
(-0.000586791 -0.0178451 0)
(7.97075e-09 -0.00807121 0)
(0.000587369 -0.0178449 0)
(-0.00328142 -0.00994143 0)
(0.000508584 -0.0143744 0)
(-0.00049241 -0.0108779 0)
(2.56236e-07 -0.0144811 0)
(0.000492692 -0.0108778 0)
(-0.000494165 -0.0144345 0)
(0.00315876 -0.00994946 0)
(-0.00058436 -0.0177563 0)
(1.88649e-08 -0.0081083 0)
(0.000584939 -0.0177561 0)
(-0.00315813 -0.00995015 0)
(0.000494241 -0.0144351 0)
(-0.000495408 -0.0108692 0)
(2.49529e-07 -0.0145003 0)
(0.000495686 -0.0108692 0)
(-0.00048049 -0.0144925 0)
(0.00303755 -0.00995781 0)
(-0.000581483 -0.01767 0)
(2.9184e-08 -0.00814544 0)
(0.000582061 -0.0176698 0)
(-0.00303692 -0.00995849 0)
(0.000480575 -0.014493 0)
(-0.000497255 -0.010861 0)
(2.43152e-07 -0.0145197 0)
(0.000497529 -0.0108609 0)
(-0.000467442 -0.0145477 0)
(0.00291862 -0.00996579 0)
(-0.000578122 -0.0175862 0)
(3.89673e-08 -0.00818258 0)
(0.0005787 -0.017586 0)
(-0.00291801 -0.00996646 0)
(0.000467537 -0.0145482 0)
(-0.000498 -0.0108532 0)
(2.37129e-07 -0.0145394 0)
(0.00049827 -0.0108531 0)
(-0.000454971 -0.0146003 0)
(0.00280217 -0.00997341 0)
(-0.000574252 -0.0175049 0)
(4.82494e-08 -0.00821972 0)
(0.00057483 -0.0175047 0)
(-0.00280156 -0.00997407 0)
(0.000455075 -0.0146008 0)
(-0.000497693 -0.0108458 0)
(2.31489e-07 -0.0145592 0)
(0.00049796 -0.0108457 0)
(-0.000443031 -0.0146504 0)
(0.00268833 -0.00998071 0)
(-0.000569858 -0.0174261 0)
(5.70606e-08 -0.00825681 0)
(0.000570434 -0.0174259 0)
(-0.00268772 -0.00998135 0)
(0.000443144 -0.0146509 0)
(-0.000496386 -0.0108387 0)
(2.26244e-07 -0.0145791 0)
(0.000496649 -0.0108386 0)
(-0.000431578 -0.014698 0)
(0.00257722 -0.00998768 0)
(-0.00056493 -0.0173497 0)
(6.54273e-08 -0.00829382 0)
(0.000565505 -0.0173496 0)
(-0.00257662 -0.00998831 0)
(0.0004317 -0.0146985 0)
(-0.00049413 -0.0108319 0)
(2.214e-07 -0.0145991 0)
(0.000494389 -0.0108318 0)
(-0.000420571 -0.0147433 0)
(0.00246894 -0.00999435 0)
(-0.000559469 -0.0172758 0)
(7.33724e-08 -0.00833072 0)
(0.000560042 -0.0172757 0)
(-0.00246834 -0.00999497 0)
(0.000420701 -0.0147438 0)
(-0.000490978 -0.0108254 0)
(2.16959e-07 -0.0146192 0)
(0.000491235 -0.0108253 0)
(-0.000409972 -0.0147864 0)
(0.00236356 -0.0100007 0)
(-0.000553481 -0.0172043 0)
(8.09158e-08 -0.00836747 0)
(0.000554051 -0.0172042 0)
(-0.00236297 -0.0100013 0)
(0.000410111 -0.0147868 0)
(-0.000486985 -0.0108191 0)
(2.12923e-07 -0.0146392 0)
(0.000487239 -0.010819 0)
(-0.000399746 -0.0148272 0)
(0.00226114 -0.0100068 0)
(-0.000546976 -0.0171352 0)
(8.80745e-08 -0.00840405 0)
(0.000547544 -0.0171351 0)
(-0.00226056 -0.0100074 0)
(0.000399893 -0.0148277 0)
(-0.000482204 -0.010813 0)
(2.09291e-07 -0.0146592 0)
(0.000482455 -0.0108129 0)
(-0.000389859 -0.0148659 0)
(0.00216172 -0.0100127 0)
(-0.000539971 -0.0170683 0)
(9.48633e-08 -0.00844041 0)
(0.000540535 -0.0170682 0)
(-0.00216114 -0.0100133 0)
(0.000390015 -0.0148663 0)
(-0.000476689 -0.0108071 0)
(2.06066e-07 -0.0146792 0)
(0.000476937 -0.010807 0)
(-0.000380282 -0.0149025 0)
(0.00206531 -0.0100183 0)
(-0.000532485 -0.0170038 0)
(1.01295e-07 -0.00847652 0)
(0.000533045 -0.0170037 0)
(-0.00206473 -0.0100189 0)
(0.000380446 -0.014903 0)
(-0.000470493 -0.0108015 0)
(2.03249e-07 -0.014699 0)
(0.00047074 -0.0108013 0)
(-0.000370988 -0.0149372 0)
(0.00197192 -0.0100237 0)
(-0.000524541 -0.0169415 0)
(1.07381e-07 -0.00851235 0)
(0.000525097 -0.0169414 0)
(-0.00197135 -0.0100242 0)
(0.00037116 -0.0149376 0)
(-0.000463671 -0.010796 0)
(2.0084e-07 -0.0147187 0)
(0.000463916 -0.0107958 0)
(-0.000361951 -0.01497 0)
(0.00188155 -0.0100288 0)
(-0.000516163 -0.0168814 0)
(1.13131e-07 -0.00854788 0)
(0.000516715 -0.0168813 0)
(-0.00188099 -0.0100294 0)
(0.000362131 -0.0149704 0)
(-0.000456275 -0.0107906 0)
(1.98842e-07 -0.0147382 0)
(0.000456518 -0.0107905 0)
(-0.000353148 -0.0150009 0)
(0.0017942 -0.0100338 0)
(-0.00050738 -0.0168234 0)
(1.18554e-07 -0.00858305 0)
(0.000507926 -0.0168234 0)
(-0.00179363 -0.0100343 0)
(0.000353336 -0.0150013 0)
(-0.000448356 -0.0107855 0)
(1.97255e-07 -0.0147575 0)
(0.000448597 -0.0107853 0)
(-0.00034456 -0.0150301 0)
(0.00170983 -0.0100386 0)
(-0.00049822 -0.0167676 0)
(1.23657e-07 -0.00861786 0)
(0.000498761 -0.0167675 0)
(-0.00170927 -0.0100391 0)
(0.000344756 -0.0150305 0)
(-0.000439965 -0.0107804 0)
(1.96084e-07 -0.0147765 0)
(0.000440206 -0.0107803 0)
(-0.000336168 -0.0150576 0)
(0.00162842 -0.0100431 0)
(-0.000488714 -0.0167138 0)
(1.28448e-07 -0.00865226 0)
(0.000489249 -0.0167138 0)
(-0.00162786 -0.0100437 0)
(0.000336372 -0.015058 0)
(-0.000431153 -0.0107755 0)
(1.95328e-07 -0.0147953 0)
(0.000431392 -0.0107754 0)
(-0.000327956 -0.0150835 0)
(0.00154993 -0.0100476 0)
(-0.000478893 -0.0166621 0)
(1.32934e-07 -0.00868622 0)
(0.000479422 -0.016662 0)
(-0.00154938 -0.0100481 0)
(0.000328168 -0.0150839 0)
(-0.000421967 -0.0107707 0)
(1.94993e-07 -0.0148139 0)
(0.000422206 -0.0107706 0)
(-0.000319911 -0.0151078 0)
(0.00147433 -0.0100518 0)
(-0.000468788 -0.0166123 0)
(1.37121e-07 -0.00871973 0)
(0.00046931 -0.0166122 0)
(-0.00147378 -0.0100523 0)
(0.00032013 -0.0151082 0)
(-0.000412455 -0.0107661 0)
(1.95079e-07 -0.0148321 0)
(0.000412693 -0.0107659 0)
(-0.00031202 -0.0151307 0)
(0.00140156 -0.0100559 0)
(-0.000458433 -0.0165644 0)
(1.41014e-07 -0.00875275 0)
(0.000458948 -0.0165644 0)
(-0.00140101 -0.0100564 0)
(0.000312246 -0.0151311 0)
(-0.000402662 -0.0107615 0)
(1.9559e-07 -0.01485 0)
(0.000402901 -0.0107614 0)
(-0.000304273 -0.0151522 0)
(0.00133158 -0.0100598 0)
(-0.000447859 -0.0165184 0)
(1.44621e-07 -0.00878527 0)
(0.000448366 -0.0165184 0)
(-0.00133104 -0.0100603 0)
(0.000304507 -0.0151526 0)
(-0.000392635 -0.0107571 0)
(1.96526e-07 -0.0148676 0)
(0.000392873 -0.0107569 0)
(-0.000296663 -0.0151723 0)
(0.00126435 -0.0100636 0)
(-0.000437099 -0.0164742 0)
(1.47948e-07 -0.00881725 0)
(0.000437598 -0.0164742 0)
(-0.00126381 -0.0100641 0)
(0.000296905 -0.0151727 0)
(-0.000382415 -0.0107527 0)
(1.97886e-07 -0.0148848 0)
(0.000382654 -0.0107526 0)
(-0.000289184 -0.0151912 0)
(0.0011998 -0.0100673 0)
(-0.000426185 -0.0164318 0)
(1.51001e-07 -0.00884868 0)
(0.000426675 -0.0164318 0)
(-0.00119926 -0.0100677 0)
(0.000289433 -0.0151916 0)
(-0.000372045 -0.0107485 0)
(1.9967e-07 -0.0149017 0)
(0.000372285 -0.0107483 0)
(-0.000281831 -0.0152088 0)
(0.00113788 -0.0100708 0)
(-0.000415149 -0.0163911 0)
(1.53789e-07 -0.00887954 0)
(0.000415631 -0.0163911 0)
(-0.00113735 -0.0100712 0)
(0.000282087 -0.0152092 0)
(-0.000361566 -0.0107443 0)
(2.0187e-07 -0.0149182 0)
(0.000361806 -0.0107442 0)
(-0.000274602 -0.0152253 0)
(0.00107854 -0.0100742 0)
(-0.000404024 -0.0163521 0)
(1.56321e-07 -0.00890982 0)
(0.000404496 -0.0163521 0)
(-0.00107801 -0.0100746 0)
(0.000274866 -0.0152257 0)
(-0.000351016 -0.0107402 0)
(2.04476e-07 -0.0149343 0)
(0.000351257 -0.0107401 0)
(-0.000267497 -0.0152408 0)
(0.00102173 -0.0100774 0)
(-0.00039284 -0.0163147 0)
(1.58606e-07 -0.00893949 0)
(0.000393302 -0.0163148 0)
(-0.0010212 -0.0100779 0)
(0.000267767 -0.0152412 0)
(-0.000340433 -0.0107362 0)
(2.07473e-07 -0.01495 0)
(0.000340676 -0.010736 0)
(-0.000260516 -0.0152552 0)
(0.000967384 -0.0100806 0)
(-0.000381629 -0.016279 0)
(1.60657e-07 -0.00896854 0)
(0.000382082 -0.016279 0)
(-0.000966861 -0.010081 0)
(0.000260794 -0.0152556 0)
(-0.000329855 -0.0107322 0)
(2.10838e-07 -0.0149653 0)
(0.0003301 -0.0107321 0)
(-0.000253665 -0.0152686 0)
(0.000915454 -0.0100836 0)
(-0.000370423 -0.0162447 0)
(1.62491e-07 -0.00899696 0)
(0.000370866 -0.0162447 0)
(-0.000914934 -0.0100841 0)
(0.00025395 -0.015269 0)
(-0.000319317 -0.0107283 0)
(2.14536e-07 -0.0149803 0)
(0.000319563 -0.0107282 0)
(-0.000246948 -0.0152811 0)
(0.000865887 -0.0100866 0)
(-0.000359254 -0.0162119 0)
(1.64125e-07 -0.00902474 0)
(0.000359686 -0.016212 0)
(-0.00086537 -0.010087 0)
(0.00024724 -0.0152815 0)
(-0.000308853 -0.0107245 0)
(2.18525e-07 -0.0149948 0)
(0.000309101 -0.0107244 0)
(-0.000240375 -0.0152928 0)
(0.000818631 -0.0100894 0)
(-0.000348153 -0.0161806 0)
(1.65583e-07 -0.00905187 0)
(0.000348574 -0.0161806 0)
(-0.000818117 -0.0100898 0)
(0.000240673 -0.0152931 0)
(-0.000298497 -0.0107207 0)
(2.22744e-07 -0.0150089 0)
(0.000298746 -0.0107206 0)
(-0.000233954 -0.0153036 0)
(0.000773636 -0.0100921 0)
(-0.000337155 -0.0161507 0)
(1.66894e-07 -0.00907835 0)
(0.000337565 -0.0161507 0)
(-0.000773126 -0.0100925 0)
(0.000234259 -0.015304 0)
(-0.000288279 -0.010717 0)
(2.27119e-07 -0.0150226 0)
(0.000288531 -0.0107169 0)
(-0.000227699 -0.0153137 0)
(0.000730855 -0.0100947 0)
(-0.000326293 -0.0161221 0)
(1.6809e-07 -0.00910416 0)
(0.000326693 -0.0161221 0)
(-0.000730347 -0.0100951 0)
(0.000228011 -0.015314 0)
(-0.000278231 -0.0107133 0)
(2.31558e-07 -0.0150359 0)
(0.000278485 -0.0107132 0)
(-0.000221626 -0.015323 0)
(0.00069024 -0.0100973 0)
(-0.000315605 -0.0160948 0)
(1.69212e-07 -0.00912932 0)
(0.000315996 -0.0160948 0)
(-0.000689735 -0.0100976 0)
(0.000221944 -0.0153234 0)
(-0.000268382 -0.0107097 0)
(2.35947e-07 -0.0150489 0)
(0.000268637 -0.0107096 0)
(-0.000215751 -0.0153317 0)
(0.000651747 -0.0100997 0)
(-0.00030513 -0.0160687 0)
(1.70303e-07 -0.00915381 0)
(0.000305512 -0.0160688 0)
(-0.000651244 -0.0101001 0)
(0.000216074 -0.0153321 0)
(-0.000258759 -0.0107061 0)
(2.40158e-07 -0.0150614 0)
(0.000259017 -0.010706 0)
(-0.000210094 -0.0153398 0)
(0.000615331 -0.010102 0)
(-0.000294912 -0.0160439 0)
(1.71413e-07 -0.00917765 0)
(0.000295285 -0.0160439 0)
(-0.000614832 -0.0101024 0)
(0.000210422 -0.0153402 0)
(-0.00024939 -0.0107025 0)
(2.44041e-07 -0.0150736 0)
(0.000249649 -0.0107024 0)
(-0.000204676 -0.0153473 0)
(0.000580952 -0.0101042 0)
(-0.000284996 -0.0160202 0)
(1.72592e-07 -0.00920084 0)
(0.000285362 -0.0160203 0)
(-0.000580455 -0.0101046 0)
(0.000205009 -0.0153477 0)
(-0.000240299 -0.010699 0)
(2.47437e-07 -0.0150854 0)
(0.000240559 -0.0106989 0)
(-0.000199519 -0.0153543 0)
(0.00054857 -0.0101064 0)
(-0.000275433 -0.0159976 0)
(1.73889e-07 -0.00922338 0)
(0.000275793 -0.0159977 0)
(-0.000548076 -0.0101067 0)
(0.000199856 -0.0153547 0)
(-0.000231509 -0.0106954 0)
(2.50183e-07 -0.0150969 0)
(0.000231771 -0.0106953 0)
(-0.000194646 -0.0153608 0)
(0.000518148 -0.0101084 0)
(-0.000266277 -0.0159761 0)
(1.75347e-07 -0.0092453 0)
(0.000266632 -0.0159761 0)
(-0.000517656 -0.0101088 0)
(0.000194985 -0.0153612 0)
(-0.000223044 -0.0106919 0)
(2.52119e-07 -0.015108 0)
(0.000223306 -0.0106918 0)
(-0.000190076 -0.0153669 0)
(0.000489652 -0.0101104 0)
(-0.000257585 -0.0159555 0)
(1.76995e-07 -0.00926662 0)
(0.000257938 -0.0159556 0)
(-0.000489162 -0.0101107 0)
(0.000190418 -0.0153672 0)
(-0.000214924 -0.0106884 0)
(2.53109e-07 -0.0151188 0)
(0.000215187 -0.0106883 0)
(-0.000185828 -0.0153725 0)
(0.000463054 -0.0101122 0)
(-0.000249416 -0.015936 0)
(1.78847e-07 -0.00928735 0)
(0.000249767 -0.015936 0)
(-0.000462566 -0.0101126 0)
(0.000186171 -0.0153729 0)
(-0.000207172 -0.0106848 0)
(2.53049e-07 -0.0151293 0)
(0.000207434 -0.0106847 0)
(-0.000181915 -0.0153778 0)
(0.000438334 -0.010114 0)
(-0.000241827 -0.0159173 0)
(1.80893e-07 -0.00930752 0)
(0.00024218 -0.0159174 0)
(-0.000437847 -0.0101143 0)
(0.000182258 -0.0153782 0)
(-0.000199809 -0.0106812 0)
(2.51886e-07 -0.0151395 0)
(0.000200071 -0.0106811 0)
(-0.000178345 -0.0153828 0)
(0.000415481 -0.0101157 0)
(-0.000234876 -0.0158995 0)
(1.83098e-07 -0.00932717 0)
(0.000235233 -0.0158996 0)
(-0.000414996 -0.010116 0)
(0.000178688 -0.0153832 0)
(-0.00019286 -0.0106776 0)
(2.49633e-07 -0.0151494 0)
(0.000193121 -0.0106775 0)
(-0.000175118 -0.0153875 0)
(0.000394501 -0.0101172 0)
(-0.000228614 -0.0158825 0)
(1.85401e-07 -0.00934634 0)
(0.000228975 -0.0158826 0)
(-0.000394017 -0.0101175 0)
(0.00017546 -0.0153879 0)
(-0.000186354 -0.0106739 0)
(2.46376e-07 -0.0151591 0)
(0.000186613 -0.0106738 0)
(-0.000172229 -0.015392 0)
(0.000375418 -0.0101186 0)
(-0.000223083 -0.0158663 0)
(1.87719e-07 -0.00936505 0)
(0.000223451 -0.0158664 0)
(-0.000374936 -0.010119 0)
(0.000172568 -0.0153924 0)
(-0.000180325 -0.0106702 0)
(2.42274e-07 -0.0151686 0)
(0.000180583 -0.0106701 0)
(-0.000169663 -0.0153962 0)
(0.000358281 -0.0101199 0)
(-0.000218315 -0.0158507 0)
(1.89956e-07 -0.00938336 0)
(0.000218691 -0.0158508 0)
(-0.000357799 -0.0101203 0)
(0.00017 -0.0153966 0)
(-0.000174814 -0.0106663 0)
(2.37548e-07 -0.0151779 0)
(0.00017507 -0.0106663 0)
(-0.000167407 -0.0154004 0)
(0.000343164 -0.0101211 0)
(-0.000214327 -0.0158358 0)
(1.92011e-07 -0.00940129 0)
(0.00021471 -0.0158359 0)
(-0.000342683 -0.0101214 0)
(0.000167742 -0.0154007 0)
(-0.00016987 -0.0106624 0)
(2.32443e-07 -0.015187 0)
(0.000170125 -0.0106624 0)
(-0.000165446 -0.0154043 0)
(0.000330171 -0.0101221 0)
(-0.000211116 -0.0158216 0)
(1.93794e-07 -0.00941886 0)
(0.000211507 -0.0158217 0)
(-0.000329692 -0.0101224 0)
(0.000165779 -0.0154047 0)
(-0.000165552 -0.0106584 0)
(2.272e-07 -0.0151959 0)
(0.000165806 -0.0106584 0)
(-0.000163779 -0.0154083 0)
(0.000319436 -0.010123 0)
(-0.000208662 -0.0158078 0)
(1.95234e-07 -0.00943627 0)
(0.00020906 -0.0158079 0)
(-0.000318958 -0.0101233 0)
(0.000164109 -0.0154087 0)
(-0.000161928 -0.0106543 0)
(2.22154e-07 -0.0152048 0)
(0.000162182 -0.0106542 0)
(-0.000162425 -0.0154123 0)
(0.000311129 -0.0101237 0)
(-0.000206936 -0.0157939 0)
(1.96287e-07 -0.00945411 0)
(0.000207339 -0.015794 0)
(-0.000310653 -0.010124 0)
(0.000162754 -0.0154127 0)
(-0.000159081 -0.0106499 0)
(2.18056e-07 -0.0152141 0)
(0.000159335 -0.0106498 0)
(-0.000161444 -0.0154165 0)
(0.000305478 -0.0101242 0)
(-0.000205916 -0.0157796 0)
(1.96935e-07 -0.00947261 0)
(0.000206323 -0.0157797 0)
(-0.000305002 -0.0101245 0)
(0.000161772 -0.0154169 0)
(-0.000157113 -0.0106451 0)
(2.15232e-07 -0.0152239 0)
(0.000157367 -0.0106451 0)
(-0.000160934 -0.0154199 0)
(0.000302716 -0.0101247 0)
(-0.000205559 -0.0157681 0)
(1.97189e-07 -0.0094876 0)
(0.000205968 -0.0157682 0)
(-0.00030224 -0.010125 0)
(0.000161261 -0.0154203 0)
(-0.000156132 -0.0106414 0)
(2.13834e-07 -0.0152317 0)
(0.000156386 -0.0106414 0)
)
;

boundaryField
{
    BotWall
    {
        type            fixedValue;
        value           uniform (0 0 0);
    }
    FreeStream
    {
        type            zeroGradient;
    }
    FrontNBack
    {
        type            empty;
    }
    LeftSide
    {
        type            cyclic;
    }
    RightSide
    {
        type            cyclic;
    }
}


// ************************************************************************* //
