/*--------------------------------*- C++ -*----------------------------------*\
| =========                 |                                                 |
| \\      /  F ield         | OpenFOAM: The Open Source CFD Toolbox           |
|  \\    /   O peration     | Version:  2.4.0                                 |
|   \\  /    A nd           | Web:      www.OpenFOAM.org                      |
|    \\/     M anipulation  |                                                 |
\*---------------------------------------------------------------------------*/
FoamFile
{
    version     2.0;
    format      ascii;
    class       volScalarField;
    location    "2.3";
    object      H;
}
// * * * * * * * * * * * * * * * * * * * * * * * * * * * * * * * * * * * * * //

dimensions      [0 2 -2 0 0 0 0];

internalField   nonuniform List<scalar> 
125
(
-43.3911
-43.3782
-43.3649
-43.3728
-43.3929
-43.6498
-43.6371
-43.624
-43.6318
-43.6517
-43.8769
-43.8644
-43.8514
-43.8591
-43.8787
-44.0715
-44.0591
-44.0463
-44.054
-44.0732
-44.2328
-44.2207
-44.2081
-44.2156
-44.2345
-44.3604
-44.3484
-44.3361
-44.3435
-44.362
-44.4536
-44.4418
-44.4297
-44.4369
-44.4551
-44.5117
-44.5001
-44.4883
-44.4954
-44.5132
-44.5344
-44.523
-44.5114
-44.5184
-44.5358
-44.5211
-44.51
-44.4986
-44.5054
-44.5225
-44.4715
-44.4606
-44.4495
-44.4562
-44.4728
-44.3853
-44.3746
-44.3638
-44.3703
-44.3866
-44.2621
-44.2518
-44.2412
-44.2475
-44.2634
-44.1019
-44.0918
-44.0815
-44.0877
-44.1031
-43.9045
-43.8947
-43.8847
-43.8907
-43.9057
-43.6699
-43.6604
-43.6506
-43.6565
-43.671
-43.3982
-43.3889
-43.3795
-43.3851
-43.3992
-43.0894
-43.0804
-43.0713
-43.0768
-43.0904
-42.7438
-42.7352
-42.7263
-42.7316
-42.7448
-42.3618
-42.3534
-42.3448
-42.35
-42.3627
-41.9436
-41.9355
-41.9273
-41.9322
-41.9445
-41.4898
-41.4821
-41.4741
-41.4789
-41.4907
-41.001
-40.9936
-40.986
-40.9905
-41.0018
-40.4779
-40.4708
-40.4635
-40.4678
-40.4787
-39.9212
-39.9144
-39.9074
-39.9115
-39.9219
)
;

boundaryField
{
    BotWall
    {
        type            zeroGradient;
    }
    FreeStream
    {
        type            zeroGradient;
    }
    FrontNBack
    {
        type            empty;
    }
    LeftSide
    {
        type            symmetryPlane;
    }
    RightSide
    {
        type            symmetryPlane;
    }
    procBoundary1to0
    {
        type            processor;
        value           nonuniform List<scalar> 5(-43.0946 -43.0816 -43.0681 -43.0761 -43.0965);
    }
    procBoundary1to2
    {
        type            processor;
        value           nonuniform List<scalar> 5(-39.3277 -39.3212 -39.3145 -39.3185 -39.3284);
    }
}


// ************************************************************************* //
