/*--------------------------------*- C++ -*----------------------------------*\
| =========                 |                                                 |
| \\      /  F ield         | OpenFOAM: The Open Source CFD Toolbox           |
|  \\    /   O peration     | Version:  2.4.0                                 |
|   \\  /    A nd           | Web:      www.OpenFOAM.org                      |
|    \\/     M anipulation  |                                                 |
\*---------------------------------------------------------------------------*/
FoamFile
{
    version     2.0;
    format      ascii;
    class       surfaceScalarField;
    location    "2.3";
    object      phi;
}
// * * * * * * * * * * * * * * * * * * * * * * * * * * * * * * * * * * * * * //

dimensions      [0 3 -1 0 0 0 0];

internalField   nonuniform List<scalar> 
220
(
4.35776e-17
-2.70862e-10
4.40919e-17
-2.70863e-10
-2.3363e-17
-2.70864e-10
-6.27164e-17
-2.70863e-10
-2.70861e-10
3.73058e-17
-2.70862e-10
4.01442e-17
-2.70863e-10
-1.96503e-17
-2.70864e-10
-5.63256e-17
-2.70863e-10
-2.70861e-10
3.11557e-17
-2.70862e-10
3.62651e-17
-2.70863e-10
-1.5991e-17
-2.70864e-10
-5.00766e-17
-2.70863e-10
-2.70862e-10
2.5108e-17
-2.70862e-10
3.24634e-17
-2.70863e-10
-1.23941e-17
-2.70864e-10
-4.39486e-17
-2.70863e-10
-2.70862e-10
1.91678e-17
-2.70862e-10
2.87423e-17
-2.70863e-10
-8.86277e-18
-2.70864e-10
-3.79455e-17
-2.70863e-10
-2.70862e-10
1.33483e-17
-2.70862e-10
2.51061e-17
-2.70863e-10
-5.40159e-18
-2.70864e-10
-3.20798e-17
-2.70863e-10
-2.70862e-10
7.66151e-18
-2.70862e-10
2.1561e-17
-2.70863e-10
-2.01639e-18
-2.70864e-10
-2.63626e-17
-2.70863e-10
-2.70862e-10
2.11783e-18
-2.70862e-10
1.81129e-17
-2.70863e-10
1.28659e-18
-2.70864e-10
-2.08032e-17
-2.70863e-10
-2.70862e-10
-3.27293e-18
-2.70862e-10
1.47681e-17
-2.70863e-10
4.50128e-18
-2.70864e-10
-1.54105e-17
-2.70863e-10
-2.70862e-10
-8.50099e-18
-2.70862e-10
1.15321e-17
-2.70863e-10
7.62172e-18
-2.70864e-10
-1.01931e-17
-2.70863e-10
-2.70862e-10
-1.35566e-17
-2.70862e-10
8.41076e-18
-2.70863e-10
1.06421e-17
-2.70864e-10
-5.15964e-18
-2.70863e-10
-2.70862e-10
-1.84302e-17
-2.70862e-10
5.40937e-18
-2.70863e-10
1.35567e-17
-2.70864e-10
-3.18329e-19
-2.70863e-10
-2.70862e-10
-2.31126e-17
-2.70862e-10
2.53321e-18
-2.70863e-10
1.63598e-17
-2.70864e-10
4.32283e-18
-2.70863e-10
-2.70862e-10
-2.75945e-17
-2.70862e-10
-2.12737e-19
-2.70863e-10
1.90461e-17
-2.70864e-10
8.75623e-18
-2.70863e-10
-2.70862e-10
-3.18675e-17
-2.70862e-10
-2.82373e-18
-2.70863e-10
2.16102e-17
-2.70864e-10
1.29747e-17
-2.70863e-10
-2.70862e-10
-3.59232e-17
-2.70862e-10
-5.29533e-18
-2.70863e-10
2.40472e-17
-2.70864e-10
1.69713e-17
-2.70863e-10
-2.70862e-10
-3.97536e-17
-2.70862e-10
-7.62341e-18
-2.70863e-10
2.63522e-17
-2.70864e-10
2.07399e-17
-2.70863e-10
-2.70862e-10
-4.33514e-17
-2.70861e-10
-9.80422e-18
-2.70863e-10
2.85206e-17
-2.70864e-10
2.42746e-17
-2.70863e-10
-2.70862e-10
-4.67096e-17
-2.70861e-10
-1.18343e-17
-2.70863e-10
3.05483e-17
-2.70864e-10
2.75703e-17
-2.70863e-10
-2.70862e-10
-4.98219e-17
-2.70861e-10
-1.37108e-17
-2.70863e-10
3.24312e-17
-2.70864e-10
3.06223e-17
-2.70863e-10
-2.70862e-10
-5.26825e-17
-2.70861e-10
-1.5431e-17
-2.70863e-10
3.41658e-17
-2.70864e-10
3.34265e-17
-2.70863e-10
-2.70862e-10
-5.52864e-17
-2.70861e-10
-1.69929e-17
-2.70863e-10
3.5749e-17
-2.70864e-10
3.59796e-17
-2.70863e-10
-2.70862e-10
-5.76291e-17
-2.70861e-10
-1.83949e-17
-2.70863e-10
3.71779e-17
-2.70864e-10
3.82789e-17
-2.70863e-10
-2.70861e-10
-5.97068e-17
-2.70861e-10
-1.96357e-17
-2.70863e-10
3.845e-17
-2.70864e-10
4.0324e-17
-2.70863e-10
-2.70861e-10
-6.15167e-17
-2.07146e-17
3.95636e-17
4.2112e-17
)
;

boundaryField
{
    BotWall
    {
        type            calculated;
        value           nonuniform 0();
    }
    FreeStream
    {
        type            calculated;
        value           nonuniform 0();
    }
    FrontNBack
    {
        type            empty;
        value           nonuniform 0();
    }
    LeftSide
    {
        type            symmetryPlane;
        value           uniform 0;
    }
    RightSide
    {
        type            symmetryPlane;
        value           uniform 0;
    }
    procBoundary1to0
    {
        type            processor;
        value           nonuniform List<scalar> 5(2.70862e-10 2.70863e-10 2.70864e-10 2.70863e-10 2.70861e-10);
    }
    procBoundary1to2
    {
        type            processor;
        value           nonuniform List<scalar> 5(-2.70861e-10 -2.70864e-10 -2.70864e-10 -2.70863e-10 -2.70861e-10);
    }
}


// ************************************************************************* //
