/*--------------------------------*- C++ -*----------------------------------*\
| =========                 |                                                 |
| \\      /  F ield         | OpenFOAM: The Open Source CFD Toolbox           |
|  \\    /   O peration     | Version:  2.4.0                                 |
|   \\  /    A nd           | Web:      www.OpenFOAM.org                      |
|    \\/     M anipulation  |                                                 |
\*---------------------------------------------------------------------------*/
FoamFile
{
    version     2.0;
    format      ascii;
    class       surfaceScalarField;
    location    "0.009";
    object      phi;
}
// * * * * * * * * * * * * * * * * * * * * * * * * * * * * * * * * * * * * * //

dimensions      [0 3 -1 0 0 0 0];

internalField   nonuniform List<scalar> 
124
(
-4.04467e-09
-4.0447e-09
-4.04472e-09
-4.04475e-09
-4.04477e-09
-4.04479e-09
-4.04482e-09
-4.04484e-09
-4.04486e-09
-4.04488e-09
-4.04491e-09
-4.04493e-09
-4.04495e-09
-4.04497e-09
-4.04499e-09
-4.04502e-09
-4.04504e-09
-4.04506e-09
-4.04508e-09
-4.0451e-09
-4.04512e-09
-4.04514e-09
-4.04516e-09
-4.04518e-09
-4.0452e-09
-4.04522e-09
-4.04524e-09
-4.04526e-09
-4.04528e-09
-4.0453e-09
-4.04532e-09
-4.04533e-09
-4.04535e-09
-4.04537e-09
-4.04539e-09
-4.04541e-09
-4.04542e-09
-4.04544e-09
-4.04546e-09
-4.04547e-09
-4.04549e-09
-4.04551e-09
-4.04552e-09
-4.04554e-09
-4.04556e-09
-4.04557e-09
-4.04559e-09
-4.0456e-09
-4.04562e-09
-4.04564e-09
-4.04565e-09
-4.04567e-09
-4.04568e-09
-4.04569e-09
-4.04571e-09
-4.04572e-09
-4.04574e-09
-4.04575e-09
-4.04577e-09
-4.04578e-09
-4.04579e-09
-4.04581e-09
-4.04582e-09
-4.04583e-09
-4.04584e-09
-4.04586e-09
-4.04587e-09
-4.04588e-09
-4.04589e-09
-4.04591e-09
-4.04592e-09
-4.04593e-09
-4.04594e-09
-4.04595e-09
-4.04596e-09
-4.04597e-09
-4.04599e-09
-4.046e-09
-4.04601e-09
-4.04602e-09
-4.04603e-09
-4.04604e-09
-4.04605e-09
-4.04606e-09
-4.04607e-09
-4.04608e-09
-4.04609e-09
-4.0461e-09
-4.0461e-09
-4.04611e-09
-4.04612e-09
-4.04613e-09
-4.04614e-09
-4.04615e-09
-4.04616e-09
-4.04616e-09
-4.04617e-09
-4.04618e-09
-4.04619e-09
-4.04619e-09
-4.0462e-09
-4.04621e-09
-4.04622e-09
-4.04622e-09
-4.04623e-09
-4.04624e-09
-4.04624e-09
-4.04625e-09
-4.04626e-09
-4.04626e-09
-4.04627e-09
-4.04628e-09
-4.04628e-09
-4.04629e-09
-4.04629e-09
-4.0463e-09
-4.0463e-09
-4.04631e-09
-4.04631e-09
-4.04632e-09
-4.04632e-09
-4.04633e-09
-4.04633e-09
-4.04634e-09
)
;

boundaryField
{
    BotWall
    {
        type            calculated;
        value           nonuniform 0();
    }
    FreeStream
    {
        type            calculated;
        value           nonuniform 0();
    }
    FrontNBack
    {
        type            empty;
        value           nonuniform 0();
    }
    LeftSide
    {
        type            symmetryPlane;
        value           nonuniform 0();
    }
    RightSide
    {
        type            symmetryPlane;
        value           nonuniform 0();
    }
    procBoundary8to5
    {
        type            processor;
        value           nonuniform List<scalar> 
50
(
9.6184e-15
9.49967e-15
9.38231e-15
9.26633e-15
9.1517e-15
9.03844e-15
8.92652e-15
8.81594e-15
8.70669e-15
8.59877e-15
8.49215e-15
8.38684e-15
8.28283e-15
8.18009e-15
8.07863e-15
7.97842e-15
7.87947e-15
7.78175e-15
7.68525e-15
7.58997e-15
7.49589e-15
7.40299e-15
7.31127e-15
7.22071e-15
7.1313e-15
7.04303e-15
6.95587e-15
6.86982e-15
6.78487e-15
6.701e-15
6.61819e-15
6.53643e-15
6.45572e-15
6.37602e-15
6.29734e-15
6.21965e-15
6.14293e-15
6.06718e-15
5.99238e-15
5.9185e-15
5.84554e-15
5.77347e-15
5.70228e-15
5.63194e-15
5.56244e-15
5.49375e-15
5.42585e-15
5.35871e-15
5.29232e-15
5.22663e-15
)
;
    }
    procBoundary8to6
    {
        type            processor;
        value           nonuniform List<scalar> 
75
(
2.28507e-14
2.25781e-14
2.23121e-14
2.20524e-14
2.17985e-14
2.15502e-14
2.1307e-14
2.10686e-14
2.08348e-14
2.06051e-14
2.03793e-14
2.01571e-14
1.99384e-14
1.97228e-14
1.95102e-14
1.93003e-14
1.9093e-14
1.88881e-14
1.86855e-14
1.8485e-14
1.82866e-14
1.80901e-14
1.78955e-14
1.77026e-14
1.75114e-14
1.73218e-14
1.71339e-14
1.69474e-14
1.67625e-14
1.6579e-14
1.63969e-14
1.62163e-14
1.60371e-14
1.58592e-14
1.56827e-14
1.55076e-14
1.53338e-14
1.51613e-14
1.49902e-14
1.48204e-14
1.46519e-14
1.44848e-14
1.4319e-14
1.41546e-14
1.39915e-14
1.38297e-14
1.36693e-14
1.35102e-14
1.33525e-14
1.31961e-14
1.30411e-14
1.28875e-14
1.27352e-14
1.25843e-14
1.24348e-14
1.22867e-14
1.21399e-14
1.19946e-14
1.18506e-14
1.17081e-14
1.15669e-14
1.14272e-14
1.12888e-14
1.11519e-14
1.10164e-14
1.08823e-14
1.07496e-14
1.06183e-14
1.04884e-14
1.03599e-14
1.02328e-14
1.01072e-14
9.98289e-15
9.86001e-15
9.73851e-15
)
;
    }
    procBoundary8to7
    {
        type            processor;
        value           uniform -4.04634e-09;
    }
    procBoundary8to9
    {
        type            processor;
        value           uniform 4.04465e-09;
    }
    procBoundary8to10
    {
        type            processor;
        value           nonuniform List<scalar> 
75
(
2.07111e-15
2.05357e-15
2.03522e-15
2.01606e-15
1.99611e-15
1.97537e-15
1.95386e-15
1.93157e-15
1.90853e-15
1.88473e-15
1.86019e-15
1.83492e-15
1.80892e-15
1.78222e-15
1.75481e-15
1.72671e-15
1.69792e-15
1.66847e-15
1.63836e-15
1.6076e-15
1.5762e-15
1.54417e-15
1.51153e-15
1.47828e-15
1.44443e-15
1.41e-15
1.37499e-15
1.33942e-15
1.30331e-15
1.26665e-15
1.22946e-15
1.19174e-15
1.15352e-15
1.11479e-15
1.07558e-15
1.03587e-15
9.95696e-16
9.55052e-16
9.1395e-16
8.72399e-16
8.30404e-16
7.87975e-16
7.45118e-16
7.0184e-16
6.58146e-16
6.14044e-16
5.69539e-16
5.24635e-16
4.79339e-16
4.33653e-16
3.87584e-16
3.41133e-16
2.94305e-16
2.47102e-16
1.99527e-16
1.51583e-16
1.03271e-16
5.45925e-17
5.54952e-18
-4.386e-17
-9.3633e-17
-1.43768e-16
-1.94266e-16
-2.45125e-16
-2.96346e-16
-3.47928e-16
-3.99872e-16
-4.52176e-16
-5.04842e-16
-5.57868e-16
-6.11253e-16
-6.64993e-16
-7.19088e-16
-7.73531e-16
-8.28326e-16
)
;
    }
    procBoundary8to11
    {
        type            processor;
        value           nonuniform List<scalar> 
50
(
1.82163e-15
1.84844e-15
1.87446e-15
1.89968e-15
1.92408e-15
1.94763e-15
1.97033e-15
1.99216e-15
2.01311e-15
2.03317e-15
2.05234e-15
2.0706e-15
2.08796e-15
2.1044e-15
2.11992e-15
2.13453e-15
2.14821e-15
2.16096e-15
2.17279e-15
2.18369e-15
2.19366e-15
2.20271e-15
2.21082e-15
2.21802e-15
2.22428e-15
2.22962e-15
2.23404e-15
2.23754e-15
2.24011e-15
2.24178e-15
2.24252e-15
2.24236e-15
2.24128e-15
2.2393e-15
2.23642e-15
2.23264e-15
2.22797e-15
2.2224e-15
2.21595e-15
2.20862e-15
2.2004e-15
2.19132e-15
2.18137e-15
2.17055e-15
2.15888e-15
2.14636e-15
2.13298e-15
2.11877e-15
2.10371e-15
2.08782e-15
)
;
    }
}


// ************************************************************************* //
