/*--------------------------------*- C++ -*----------------------------------*\
| =========                 |                                                 |
| \\      /  F ield         | OpenFOAM: The Open Source CFD Toolbox           |
|  \\    /   O peration     | Version:  2.4.0                                 |
|   \\  /    A nd           | Web:      www.OpenFOAM.org                      |
|    \\/     M anipulation  |                                                 |
\*---------------------------------------------------------------------------*/
FoamFile
{
    version     2.0;
    format      ascii;
    class       volScalarField;
    location    "0.015";
    object      p;
}
// * * * * * * * * * * * * * * * * * * * * * * * * * * * * * * * * * * * * * //

dimensions      [1 -1 -2 0 0 0 0];

internalField   nonuniform List<scalar> 
125
(
-0.024041
-0.0242678
-0.0244954
-0.0247239
-0.0249532
-0.0251834
-0.0254144
-0.0256462
-0.0258789
-0.0261125
-0.0263469
-0.0265822
-0.0268183
-0.0270553
-0.0272932
-0.027532
-0.0277716
-0.0280122
-0.0282536
-0.0284959
-0.0287391
-0.0289831
-0.0292281
-0.029474
-0.0297208
-0.0299685
-0.0302171
-0.0304666
-0.0307171
-0.0309684
-0.0312207
-0.0314739
-0.0317281
-0.0319832
-0.0322392
-0.0324962
-0.0327541
-0.033013
-0.0332728
-0.0335335
-0.0337953
-0.034058
-0.0343216
-0.0345863
-0.0348519
-0.0351185
-0.035386
-0.0356546
-0.0359241
-0.0361946
-0.0364662
-0.0367387
-0.0370122
-0.0372868
-0.0375623
-0.0378389
-0.0381164
-0.038395
-0.0386747
-0.0389553
-0.039237
-0.0395197
-0.0398035
-0.0400883
-0.0403742
-0.0406611
-0.0409491
-0.0412381
-0.0415282
-0.0418193
-0.0421116
-0.0424049
-0.0426993
-0.0429947
-0.0432913
-0.0435889
-0.0438877
-0.0441875
-0.0444885
-0.0447905
-0.0450937
-0.045398
-0.0457034
-0.0460099
-0.0463175
-0.0466263
-0.0469363
-0.0472473
-0.0475595
-0.0478729
-0.0481874
-0.0485031
-0.0488199
-0.0491379
-0.0494571
-0.0497774
-0.0500989
-0.0504216
-0.0507455
-0.0510706
-0.0513969
-0.0517244
-0.0520531
-0.052383
-0.0527141
-0.0530464
-0.05338
-0.0537148
-0.0540508
-0.054388
-0.0547265
-0.0550663
-0.0554073
-0.0557495
-0.056093
-0.0564378
-0.0567838
-0.0571311
-0.0574797
-0.0578296
-0.0581808
-0.0585332
-0.058887
-0.059242
-0.0595984
)
;

boundaryField
{
    BotWall
    {
        type            calculated;
        value           nonuniform 0();
    }
    FreeStream
    {
        type            calculated;
        value           nonuniform 0();
    }
    FrontNBack
    {
        type            empty;
    }
    LeftSide
    {
        type            symmetryPlane;
    }
    RightSide
    {
        type            symmetryPlane;
    }
    procBoundary3to0
    {
        type            processor;
        value           nonuniform List<scalar> 
50
(
-0.0435948
-0.0438935
-0.0441933
-0.0444942
-0.0447962
-0.0450993
-0.0454035
-0.0457088
-0.0460153
-0.0463229
-0.0466316
-0.0469415
-0.0472525
-0.0475646
-0.0478779
-0.0481924
-0.048508
-0.0488247
-0.0491427
-0.0494618
-0.0497821
-0.0501035
-0.0504262
-0.05075
-0.051075
-0.0514013
-0.0517287
-0.0520573
-0.0523872
-0.0527182
-0.0530505
-0.053384
-0.0537187
-0.0540547
-0.0543919
-0.0547303
-0.05507
-0.0554109
-0.0557531
-0.0560966
-0.0564413
-0.0567873
-0.0571345
-0.0574831
-0.0578329
-0.058184
-0.0585364
-0.0588901
-0.0592451
-0.0596014
)
;
    }
    procBoundary3to1
    {
        type            processor;
        value           nonuniform List<scalar> 
75
(
-0.0240528
-0.0242795
-0.024507
-0.0247354
-0.0249646
-0.0251947
-0.0254256
-0.0256573
-0.02589
-0.0261234
-0.0263577
-0.0265929
-0.026829
-0.0270659
-0.0273037
-0.0275424
-0.027782
-0.0280224
-0.0282637
-0.0285059
-0.028749
-0.028993
-0.0292379
-0.0294837
-0.0297305
-0.0299781
-0.0302266
-0.030476
-0.0307264
-0.0309777
-0.0312299
-0.031483
-0.0317371
-0.0319921
-0.0322481
-0.032505
-0.0327628
-0.0330216
-0.0332813
-0.033542
-0.0338037
-0.0340663
-0.0343299
-0.0345944
-0.03486
-0.0351265
-0.035394
-0.0356624
-0.0359319
-0.0362024
-0.0364738
-0.0367463
-0.0370197
-0.0372942
-0.0375697
-0.0378461
-0.0381237
-0.0384022
-0.0386817
-0.0389623
-0.0392439
-0.0395266
-0.0398103
-0.040095
-0.0403808
-0.0406677
-0.0409556
-0.0412445
-0.0415346
-0.0418256
-0.0421178
-0.042411
-0.0427054
-0.0430008
-0.0432973
)
;
    }
    procBoundary3to2
    {
        type            processor;
        value           uniform -0.0599561;
    }
    procBoundary3to4
    {
        type            processor;
        value           uniform -0.0238151;
    }
    procBoundary3to5
    {
        type            processor;
        value           nonuniform List<scalar> 
75
(
-0.0364622
-0.0367348
-0.0370083
-0.0372829
-0.0375584
-0.037835
-0.0381126
-0.0383912
-0.0386709
-0.0389516
-0.0392333
-0.039516
-0.0397998
-0.0400846
-0.0403705
-0.0406575
-0.0409455
-0.0412345
-0.0415246
-0.0418158
-0.042108
-0.0424014
-0.0426958
-0.0429913
-0.0432879
-0.0435855
-0.0438843
-0.0441842
-0.0444851
-0.0447872
-0.0450904
-0.0453947
-0.0457001
-0.0460067
-0.0463144
-0.0466232
-0.0469331
-0.0472442
-0.0475565
-0.0478698
-0.0481844
-0.0485001
-0.0488169
-0.049135
-0.0494542
-0.0497745
-0.0500961
-0.0504188
-0.0507427
-0.0510678
-0.0513942
-0.0517217
-0.0520504
-0.0523803
-0.0527115
-0.0530438
-0.0533774
-0.0537122
-0.0540483
-0.0543855
-0.0547241
-0.0550638
-0.0554048
-0.0557471
-0.0560907
-0.0564355
-0.0567815
-0.0571289
-0.0574775
-0.0578274
-0.0581786
-0.0585311
-0.0588848
-0.0592399
-0.0595963
)
;
    }
    procBoundary3to6
    {
        type            processor;
        value           nonuniform List<scalar> 
50
(
-0.0240362
-0.024263
-0.0244906
-0.0247191
-0.0249484
-0.0251786
-0.0254096
-0.0256415
-0.0258742
-0.0261077
-0.0263422
-0.0265775
-0.0268136
-0.0270507
-0.0272886
-0.0275274
-0.027767
-0.0280076
-0.028249
-0.0284913
-0.0287345
-0.0289786
-0.0292236
-0.0294695
-0.0297163
-0.029964
-0.0302127
-0.0304622
-0.0307127
-0.0309641
-0.0312164
-0.0314696
-0.0317238
-0.0319789
-0.0322349
-0.0324919
-0.0327499
-0.0330087
-0.0332686
-0.0335294
-0.0337911
-0.0340538
-0.0343175
-0.0345822
-0.0348478
-0.0351144
-0.035382
-0.0356506
-0.0359201
-0.0361907
)
;
    }
}


// ************************************************************************* //
