/*--------------------------------*- C++ -*----------------------------------*\
| =========                 |                                                 |
| \\      /  F ield         | OpenFOAM: The Open Source CFD Toolbox           |
|  \\    /   O peration     | Version:  2.4.0                                 |
|   \\  /    A nd           | Web:      www.OpenFOAM.org                      |
|    \\/     M anipulation  |                                                 |
\*---------------------------------------------------------------------------*/
FoamFile
{
    version     2.0;
    format      ascii;
    class       volVectorField;
    location    "0.015";
    object      U;
}
// * * * * * * * * * * * * * * * * * * * * * * * * * * * * * * * * * * * * * //

dimensions      [0 1 -1 0 0 0 0];

internalField   nonuniform List<vector> 
125
(
(7.22591e-06 -0.0161965 0)
(7.13612e-06 -0.0161965 0)
(7.04861e-06 -0.0161965 0)
(6.96325e-06 -0.0161964 0)
(6.87992e-06 -0.0161964 0)
(6.79851e-06 -0.0161964 0)
(6.71892e-06 -0.0161963 0)
(6.64104e-06 -0.0161963 0)
(6.56479e-06 -0.0161963 0)
(6.4901e-06 -0.0161962 0)
(6.41687e-06 -0.0161962 0)
(6.34505e-06 -0.0161962 0)
(6.27458e-06 -0.0161961 0)
(6.20538e-06 -0.0161961 0)
(6.13741e-06 -0.0161961 0)
(6.07061e-06 -0.016196 0)
(6.00495e-06 -0.016196 0)
(5.94037e-06 -0.016196 0)
(5.87683e-06 -0.0161959 0)
(5.81429e-06 -0.0161959 0)
(5.75273e-06 -0.0161959 0)
(5.69211e-06 -0.0161958 0)
(5.63238e-06 -0.0161958 0)
(5.57354e-06 -0.0161958 0)
(5.51553e-06 -0.0161958 0)
(5.45835e-06 -0.0161957 0)
(5.40196e-06 -0.0161957 0)
(5.34634e-06 -0.0161957 0)
(5.29147e-06 -0.0161956 0)
(5.23731e-06 -0.0161956 0)
(5.18386e-06 -0.0161956 0)
(5.13109e-06 -0.0161956 0)
(5.07897e-06 -0.0161955 0)
(5.02749e-06 -0.0161955 0)
(4.97663e-06 -0.0161955 0)
(4.92637e-06 -0.0161955 0)
(4.8767e-06 -0.0161954 0)
(4.82758e-06 -0.0161954 0)
(4.77902e-06 -0.0161954 0)
(4.73098e-06 -0.0161954 0)
(4.68346e-06 -0.0161953 0)
(4.63643e-06 -0.0161953 0)
(4.58989e-06 -0.0161953 0)
(4.54381e-06 -0.0161953 0)
(4.49817e-06 -0.0161952 0)
(4.45298e-06 -0.0161952 0)
(4.4082e-06 -0.0161952 0)
(4.36383e-06 -0.0161952 0)
(4.31985e-06 -0.0161951 0)
(4.27624e-06 -0.0161951 0)
(4.233e-06 -0.0161951 0)
(4.1901e-06 -0.0161951 0)
(4.14754e-06 -0.016195 0)
(4.1053e-06 -0.016195 0)
(4.06337e-06 -0.016195 0)
(4.02172e-06 -0.016195 0)
(3.98036e-06 -0.0161949 0)
(3.93926e-06 -0.0161949 0)
(3.89841e-06 -0.0161949 0)
(3.8578e-06 -0.0161949 0)
(3.81741e-06 -0.0161949 0)
(3.77723e-06 -0.0161948 0)
(3.73724e-06 -0.0161948 0)
(3.69743e-06 -0.0161948 0)
(3.65778e-06 -0.0161948 0)
(3.61828e-06 -0.0161947 0)
(3.57891e-06 -0.0161947 0)
(3.53965e-06 -0.0161947 0)
(3.5005e-06 -0.0161947 0)
(3.46142e-06 -0.0161947 0)
(3.42241e-06 -0.0161946 0)
(3.38345e-06 -0.0161946 0)
(3.34451e-06 -0.0161946 0)
(3.30558e-06 -0.0161946 0)
(3.26663e-06 -0.0161945 0)
(3.22765e-06 -0.0161945 0)
(3.18862e-06 -0.0161945 0)
(3.14951e-06 -0.0161945 0)
(3.1103e-06 -0.0161945 0)
(3.07097e-06 -0.0161944 0)
(3.03149e-06 -0.0161944 0)
(2.99184e-06 -0.0161944 0)
(2.95199e-06 -0.0161944 0)
(2.91192e-06 -0.0161944 0)
(2.87159e-06 -0.0161943 0)
(2.83099e-06 -0.0161943 0)
(2.79008e-06 -0.0161943 0)
(2.74883e-06 -0.0161943 0)
(2.70722e-06 -0.0161943 0)
(2.6652e-06 -0.0161942 0)
(2.62276e-06 -0.0161942 0)
(2.57985e-06 -0.0161942 0)
(2.53645e-06 -0.0161942 0)
(2.49252e-06 -0.0161942 0)
(2.44803e-06 -0.0161941 0)
(2.40294e-06 -0.0161941 0)
(2.35721e-06 -0.0161941 0)
(2.31082e-06 -0.0161941 0)
(2.26373e-06 -0.0161941 0)
(2.2159e-06 -0.016194 0)
(2.16729e-06 -0.016194 0)
(2.11786e-06 -0.016194 0)
(2.06759e-06 -0.016194 0)
(2.01643e-06 -0.016194 0)
(1.96435e-06 -0.0161939 0)
(1.91131e-06 -0.0161939 0)
(1.85727e-06 -0.0161939 0)
(1.8022e-06 -0.0161939 0)
(1.74606e-06 -0.0161939 0)
(1.68882e-06 -0.0161939 0)
(1.63044e-06 -0.0161938 0)
(1.5709e-06 -0.0161938 0)
(1.51015e-06 -0.0161938 0)
(1.44818e-06 -0.0161938 0)
(1.38494e-06 -0.0161938 0)
(1.32041e-06 -0.0161938 0)
(1.25456e-06 -0.0161938 0)
(1.18737e-06 -0.0161937 0)
(1.11882e-06 -0.0161937 0)
(1.04889e-06 -0.0161937 0)
(9.77554e-07 -0.0161937 0)
(9.04802e-07 -0.0161937 0)
(8.3062e-07 -0.0161937 0)
(7.54999e-07 -0.0161937 0)
(6.77933e-07 -0.0161936 0)
)
;

boundaryField
{
    BotWall
    {
        type            fixedValue;
        value           nonuniform 0();
    }
    FreeStream
    {
        type            zeroGradient;
    }
    FrontNBack
    {
        type            empty;
    }
    LeftSide
    {
        type            symmetryPlane;
    }
    RightSide
    {
        type            symmetryPlane;
    }
    procBoundary3to0
    {
        type            processor;
        value           nonuniform List<vector> 
50
(
(4.03627e-06 -0.0161883 0)
(4.03529e-06 -0.0161883 0)
(4.03429e-06 -0.0161883 0)
(4.03324e-06 -0.0161884 0)
(4.03212e-06 -0.0161884 0)
(4.03092e-06 -0.0161884 0)
(4.0296e-06 -0.0161885 0)
(4.02814e-06 -0.0161885 0)
(4.02653e-06 -0.0161885 0)
(4.02472e-06 -0.0161885 0)
(4.0227e-06 -0.0161886 0)
(4.02045e-06 -0.0161886 0)
(4.01792e-06 -0.0161886 0)
(4.0151e-06 -0.0161887 0)
(4.01196e-06 -0.0161887 0)
(4.00847e-06 -0.0161887 0)
(4.0046e-06 -0.0161888 0)
(4.00032e-06 -0.0161888 0)
(3.99559e-06 -0.0161888 0)
(3.99039e-06 -0.0161889 0)
(3.98469e-06 -0.0161889 0)
(3.97845e-06 -0.0161889 0)
(3.97164e-06 -0.0161889 0)
(3.96423e-06 -0.016189 0)
(3.95618e-06 -0.016189 0)
(3.94747e-06 -0.016189 0)
(3.93805e-06 -0.0161891 0)
(3.9279e-06 -0.0161891 0)
(3.91698e-06 -0.0161891 0)
(3.90526e-06 -0.0161891 0)
(3.8927e-06 -0.0161892 0)
(3.87927e-06 -0.0161892 0)
(3.86493e-06 -0.0161892 0)
(3.84967e-06 -0.0161893 0)
(3.83343e-06 -0.0161893 0)
(3.81619e-06 -0.0161893 0)
(3.79792e-06 -0.0161893 0)
(3.77859e-06 -0.0161894 0)
(3.75817e-06 -0.0161894 0)
(3.73663e-06 -0.0161894 0)
(3.71395e-06 -0.0161894 0)
(3.69009e-06 -0.0161895 0)
(3.66504e-06 -0.0161895 0)
(3.63876e-06 -0.0161895 0)
(3.61125e-06 -0.0161895 0)
(3.58248e-06 -0.0161896 0)
(3.55243e-06 -0.0161896 0)
(3.52109e-06 -0.0161896 0)
(3.48845e-06 -0.0161896 0)
(3.4545e-06 -0.0161897 0)
)
;
    }
    procBoundary3to1
    {
        type            processor;
        value           nonuniform List<vector> 
75
(
(5.27032e-06 -0.0161856 0)
(5.21831e-06 -0.0161857 0)
(5.16836e-06 -0.0161857 0)
(5.12037e-06 -0.0161858 0)
(5.07425e-06 -0.0161858 0)
(5.0299e-06 -0.0161859 0)
(4.98724e-06 -0.0161859 0)
(4.94617e-06 -0.0161859 0)
(4.90664e-06 -0.016186 0)
(4.86856e-06 -0.016186 0)
(4.83189e-06 -0.016186 0)
(4.79655e-06 -0.0161861 0)
(4.76249e-06 -0.0161861 0)
(4.72967e-06 -0.0161862 0)
(4.69803e-06 -0.0161862 0)
(4.66753e-06 -0.0161862 0)
(4.63813e-06 -0.0161863 0)
(4.60979e-06 -0.0161863 0)
(4.58248e-06 -0.0161863 0)
(4.55616e-06 -0.0161864 0)
(4.53081e-06 -0.0161864 0)
(4.50638e-06 -0.0161865 0)
(4.48286e-06 -0.0161865 0)
(4.46021e-06 -0.0161865 0)
(4.43841e-06 -0.0161866 0)
(4.41744e-06 -0.0161866 0)
(4.39728e-06 -0.0161866 0)
(4.37789e-06 -0.0161867 0)
(4.35927e-06 -0.0161867 0)
(4.34138e-06 -0.0161867 0)
(4.32421e-06 -0.0161868 0)
(4.30774e-06 -0.0161868 0)
(4.29195e-06 -0.0161868 0)
(4.27682e-06 -0.0161869 0)
(4.26234e-06 -0.0161869 0)
(4.24848e-06 -0.016187 0)
(4.23524e-06 -0.016187 0)
(4.22258e-06 -0.016187 0)
(4.21051e-06 -0.0161871 0)
(4.19899e-06 -0.0161871 0)
(4.18802e-06 -0.0161871 0)
(4.17758e-06 -0.0161872 0)
(4.16765e-06 -0.0161872 0)
(4.15823e-06 -0.0161872 0)
(4.14929e-06 -0.0161873 0)
(4.14082e-06 -0.0161873 0)
(4.1328e-06 -0.0161873 0)
(4.12523e-06 -0.0161874 0)
(4.11809e-06 -0.0161874 0)
(4.11137e-06 -0.0161874 0)
(4.10504e-06 -0.0161875 0)
(4.0991e-06 -0.0161875 0)
(4.09354e-06 -0.0161875 0)
(4.08833e-06 -0.0161876 0)
(4.08348e-06 -0.0161876 0)
(4.07895e-06 -0.0161876 0)
(4.07475e-06 -0.0161877 0)
(4.07085e-06 -0.0161877 0)
(4.06725e-06 -0.0161877 0)
(4.06392e-06 -0.0161878 0)
(4.06086e-06 -0.0161878 0)
(4.05804e-06 -0.0161878 0)
(4.05546e-06 -0.0161879 0)
(4.05311e-06 -0.0161879 0)
(4.05096e-06 -0.0161879 0)
(4.049e-06 -0.0161879 0)
(4.04721e-06 -0.016188 0)
(4.04558e-06 -0.016188 0)
(4.0441e-06 -0.016188 0)
(4.04274e-06 -0.0161881 0)
(4.0415e-06 -0.0161881 0)
(4.04034e-06 -0.0161881 0)
(4.03926e-06 -0.0161882 0)
(4.03823e-06 -0.0161882 0)
(4.03724e-06 -0.0161882 0)
)
;
    }
    procBoundary3to2
    {
        type            processor;
        value           uniform (5.99419e-07 -0.0161936 0);
    }
    procBoundary3to4
    {
        type            processor;
        value           uniform (7.31812e-06 -0.0161966 0);
    }
    procBoundary3to5
    {
        type            processor;
        value           nonuniform List<vector> 
75
(
(-1.89095e-06 -0.0161947 0)
(-1.84334e-06 -0.0161946 0)
(-1.79649e-06 -0.0161946 0)
(-1.75039e-06 -0.0161946 0)
(-1.70501e-06 -0.0161945 0)
(-1.66035e-06 -0.0161945 0)
(-1.61636e-06 -0.0161945 0)
(-1.57304e-06 -0.0161944 0)
(-1.53037e-06 -0.0161944 0)
(-1.48831e-06 -0.0161944 0)
(-1.44685e-06 -0.0161943 0)
(-1.40596e-06 -0.0161943 0)
(-1.36562e-06 -0.0161943 0)
(-1.32581e-06 -0.0161942 0)
(-1.2865e-06 -0.0161942 0)
(-1.24767e-06 -0.0161942 0)
(-1.20929e-06 -0.0161941 0)
(-1.17134e-06 -0.0161941 0)
(-1.1338e-06 -0.0161941 0)
(-1.09662e-06 -0.0161941 0)
(-1.0598e-06 -0.016194 0)
(-1.0233e-06 -0.016194 0)
(-9.87098e-07 -0.016194 0)
(-9.5116e-07 -0.0161939 0)
(-9.15462e-07 -0.0161939 0)
(-8.79975e-07 -0.0161939 0)
(-8.44668e-07 -0.0161938 0)
(-8.09513e-07 -0.0161938 0)
(-7.7448e-07 -0.0161938 0)
(-7.39538e-07 -0.0161938 0)
(-7.04657e-07 -0.0161937 0)
(-6.69804e-07 -0.0161937 0)
(-6.34949e-07 -0.0161937 0)
(-6.0006e-07 -0.0161937 0)
(-5.65103e-07 -0.0161936 0)
(-5.30047e-07 -0.0161936 0)
(-4.94857e-07 -0.0161936 0)
(-4.59502e-07 -0.0161936 0)
(-4.23946e-07 -0.0161935 0)
(-3.88157e-07 -0.0161935 0)
(-3.52099e-07 -0.0161935 0)
(-3.15739e-07 -0.0161935 0)
(-2.79042e-07 -0.0161934 0)
(-2.41973e-07 -0.0161934 0)
(-2.04497e-07 -0.0161934 0)
(-1.66579e-07 -0.0161934 0)
(-1.28186e-07 -0.0161933 0)
(-8.92804e-08 -0.0161933 0)
(-4.98298e-08 -0.0161933 0)
(-9.79766e-09 -0.0161933 0)
(3.08484e-08 -0.0161933 0)
(7.21441e-08 -0.0161932 0)
(1.14122e-07 -0.0161932 0)
(1.56817e-07 -0.0161932 0)
(2.00261e-07 -0.0161932 0)
(2.44486e-07 -0.0161931 0)
(2.89524e-07 -0.0161931 0)
(3.35406e-07 -0.0161931 0)
(3.82163e-07 -0.0161931 0)
(4.29822e-07 -0.0161931 0)
(4.78413e-07 -0.0161931 0)
(5.27961e-07 -0.016193 0)
(5.78494e-07 -0.016193 0)
(6.30034e-07 -0.016193 0)
(6.82604e-07 -0.016193 0)
(7.36227e-07 -0.016193 0)
(7.9092e-07 -0.016193 0)
(8.46702e-07 -0.016193 0)
(9.03588e-07 -0.0161929 0)
(9.61591e-07 -0.0161929 0)
(1.02072e-06 -0.0161929 0)
(1.08099e-06 -0.0161929 0)
(1.1424e-06 -0.0161929 0)
(1.20496e-06 -0.0161929 0)
(1.26867e-06 -0.0161929 0)
)
;
    }
    procBoundary3to6
    {
        type            processor;
        value           nonuniform List<vector> 
50
(
(-5.67738e-06 -0.0161968 0)
(-5.56492e-06 -0.0161967 0)
(-5.45461e-06 -0.0161967 0)
(-5.34638e-06 -0.0161966 0)
(-5.24015e-06 -0.0161966 0)
(-5.13586e-06 -0.0161965 0)
(-5.03344e-06 -0.0161965 0)
(-4.93283e-06 -0.0161964 0)
(-4.83399e-06 -0.0161964 0)
(-4.73685e-06 -0.0161963 0)
(-4.64138e-06 -0.0161963 0)
(-4.54754e-06 -0.0161962 0)
(-4.45528e-06 -0.0161962 0)
(-4.36457e-06 -0.0161961 0)
(-4.27538e-06 -0.0161961 0)
(-4.18767e-06 -0.016196 0)
(-4.10143e-06 -0.016196 0)
(-4.01661e-06 -0.016196 0)
(-3.9332e-06 -0.0161959 0)
(-3.85118e-06 -0.0161959 0)
(-3.77051e-06 -0.0161958 0)
(-3.69119e-06 -0.0161958 0)
(-3.61318e-06 -0.0161957 0)
(-3.53648e-06 -0.0161957 0)
(-3.46105e-06 -0.0161957 0)
(-3.38688e-06 -0.0161956 0)
(-3.31396e-06 -0.0161956 0)
(-3.24227e-06 -0.0161955 0)
(-3.17178e-06 -0.0161955 0)
(-3.10248e-06 -0.0161954 0)
(-3.03435e-06 -0.0161954 0)
(-2.96738e-06 -0.0161954 0)
(-2.90155e-06 -0.0161953 0)
(-2.83683e-06 -0.0161953 0)
(-2.77322e-06 -0.0161952 0)
(-2.7107e-06 -0.0161952 0)
(-2.64924e-06 -0.0161952 0)
(-2.58884e-06 -0.0161951 0)
(-2.52946e-06 -0.0161951 0)
(-2.47111e-06 -0.0161951 0)
(-2.41375e-06 -0.016195 0)
(-2.35737e-06 -0.016195 0)
(-2.30195e-06 -0.0161949 0)
(-2.24747e-06 -0.0161949 0)
(-2.19392e-06 -0.0161949 0)
(-2.14127e-06 -0.0161948 0)
(-2.08951e-06 -0.0161948 0)
(-2.03862e-06 -0.0161948 0)
(-1.98858e-06 -0.0161947 0)
(-1.93936e-06 -0.0161947 0)
)
;
    }
}


// ************************************************************************* //
