/*--------------------------------*- C++ -*----------------------------------*\
| =========                 |                                                 |
| \\      /  F ield         | OpenFOAM: The Open Source CFD Toolbox           |
|  \\    /   O peration     | Version:  2.4.0                                 |
|   \\  /    A nd           | Web:      www.OpenFOAM.org                      |
|    \\/     M anipulation  |                                                 |
\*---------------------------------------------------------------------------*/
FoamFile
{
    version     2.0;
    format      ascii;
    class       surfaceScalarField;
    location    "0.014";
    object      phi;
}
// * * * * * * * * * * * * * * * * * * * * * * * * * * * * * * * * * * * * * //

dimensions      [0 3 -1 0 0 0 0];

internalField   nonuniform List<scalar> 
124
(
-3.14489e-09
-3.14491e-09
-3.14493e-09
-3.14495e-09
-3.14497e-09
-3.14499e-09
-3.14501e-09
-3.14502e-09
-3.14504e-09
-3.14506e-09
-3.14507e-09
-3.14509e-09
-3.1451e-09
-3.14512e-09
-3.14513e-09
-3.14515e-09
-3.14516e-09
-3.14517e-09
-3.14519e-09
-3.1452e-09
-3.14521e-09
-3.14523e-09
-3.14524e-09
-3.14525e-09
-3.14526e-09
-3.14527e-09
-3.14528e-09
-3.1453e-09
-3.14531e-09
-3.14532e-09
-3.14533e-09
-3.14534e-09
-3.14535e-09
-3.14536e-09
-3.14537e-09
-3.14538e-09
-3.14539e-09
-3.1454e-09
-3.14541e-09
-3.14542e-09
-3.14543e-09
-3.14544e-09
-3.14545e-09
-3.14546e-09
-3.14547e-09
-3.14548e-09
-3.14549e-09
-3.1455e-09
-3.14551e-09
-3.14552e-09
-3.14553e-09
-3.14553e-09
-3.14554e-09
-3.14555e-09
-3.14556e-09
-3.14557e-09
-3.14558e-09
-3.14559e-09
-3.1456e-09
-3.1456e-09
-3.14561e-09
-3.14562e-09
-3.14563e-09
-3.14564e-09
-3.14565e-09
-3.14565e-09
-3.14566e-09
-3.14567e-09
-3.14568e-09
-3.14569e-09
-3.1457e-09
-3.1457e-09
-3.14571e-09
-3.14572e-09
-3.14573e-09
-3.14573e-09
-3.14574e-09
-3.14575e-09
-3.14576e-09
-3.14577e-09
-3.14577e-09
-3.14578e-09
-3.14579e-09
-3.1458e-09
-3.1458e-09
-3.14581e-09
-3.14582e-09
-3.14583e-09
-3.14583e-09
-3.14584e-09
-3.14585e-09
-3.14586e-09
-3.14586e-09
-3.14587e-09
-3.14588e-09
-3.14589e-09
-3.14589e-09
-3.1459e-09
-3.14591e-09
-3.14592e-09
-3.14592e-09
-3.14593e-09
-3.14594e-09
-3.14594e-09
-3.14595e-09
-3.14596e-09
-3.14597e-09
-3.14597e-09
-3.14598e-09
-3.14599e-09
-3.14599e-09
-3.146e-09
-3.14601e-09
-3.14602e-09
-3.14602e-09
-3.14603e-09
-3.14604e-09
-3.14604e-09
-3.14605e-09
-3.14606e-09
-3.14606e-09
-3.14607e-09
-3.14608e-09
-3.14608e-09
)
;

boundaryField
{
    BotWall
    {
        type            calculated;
        value           nonuniform 0();
    }
    FreeStream
    {
        type            calculated;
        value           nonuniform 0();
    }
    FrontNBack
    {
        type            empty;
        value           nonuniform 0();
    }
    LeftSide
    {
        type            symmetryPlane;
        value           uniform 0;
    }
    RightSide
    {
        type            symmetryPlane;
        value           nonuniform 0();
    }
    procBoundary1to0
    {
        type            processor;
        value           uniform -3.14609e-09;
    }
    procBoundary1to2
    {
        type            processor;
        value           uniform 3.14487e-09;
    }
    procBoundary1to3
    {
        type            processor;
        value           nonuniform List<scalar> 
75
(
9.0738e-15
9.01074e-15
8.94916e-15
8.88902e-15
8.83029e-15
8.77294e-15
8.71693e-15
8.66224e-15
8.60883e-15
8.5567e-15
8.5058e-15
8.45612e-15
8.40764e-15
8.36034e-15
8.31418e-15
8.26916e-15
8.22524e-15
8.18241e-15
8.14064e-15
8.09991e-15
8.06019e-15
8.02147e-15
7.98372e-15
7.94692e-15
7.91105e-15
7.87608e-15
7.84199e-15
7.80876e-15
7.77638e-15
7.7448e-15
7.71403e-15
7.68403e-15
7.65478e-15
7.62627e-15
7.59848e-15
7.57138e-15
7.54495e-15
7.51919e-15
7.49407e-15
7.46957e-15
7.44567e-15
7.42237e-15
7.39964e-15
7.37746e-15
7.35583e-15
7.33472e-15
7.31412e-15
7.29402e-15
7.2744e-15
7.25525e-15
7.23655e-15
7.21828e-15
7.20044e-15
7.18302e-15
7.16598e-15
7.14933e-15
7.13305e-15
7.11711e-15
7.10152e-15
7.08626e-15
7.0713e-15
7.05664e-15
7.04225e-15
7.02813e-15
7.01426e-15
7.00061e-15
6.98717e-15
6.97393e-15
6.96085e-15
6.94793e-15
6.93513e-15
6.92244e-15
6.90983e-15
6.89728e-15
6.88475e-15
)
;
    }
    procBoundary1to4
    {
        type            processor;
        value           nonuniform List<scalar> 
50
(
2.14693e-14
2.08648e-14
2.02682e-14
1.96823e-14
1.91095e-14
1.85521e-14
1.80119e-14
1.74905e-14
1.6989e-14
1.65085e-14
1.60496e-14
1.56126e-14
1.51977e-14
1.48048e-14
1.44338e-14
1.40841e-14
1.37551e-14
1.34463e-14
1.31566e-14
1.28854e-14
1.26315e-14
1.23941e-14
1.21721e-14
1.19645e-14
1.17703e-14
1.15885e-14
1.14181e-14
1.12582e-14
1.11079e-14
1.09664e-14
1.08328e-14
1.07065e-14
1.05868e-14
1.0473e-14
1.03646e-14
1.02611e-14
1.0162e-14
1.00668e-14
9.97534e-15
9.88713e-15
9.80194e-15
9.7195e-15
9.63961e-15
9.56206e-15
9.4867e-15
9.41339e-15
9.342e-15
9.27243e-15
9.20459e-15
9.1384e-15
)
;
    }
}


// ************************************************************************* //
