/*--------------------------------*- C++ -*----------------------------------*\
| =========                 |                                                 |
| \\      /  F ield         | OpenFOAM: The Open Source CFD Toolbox           |
|  \\    /   O peration     | Version:  2.4.0                                 |
|   \\  /    A nd           | Web:      www.OpenFOAM.org                      |
|    \\/     M anipulation  |                                                 |
\*---------------------------------------------------------------------------*/
FoamFile
{
    version     2.0;
    format      ascii;
    class       volScalarField;
    location    "1.6";
    object      p_rgh;
}
// * * * * * * * * * * * * * * * * * * * * * * * * * * * * * * * * * * * * * //

dimensions      [1 -1 -2 0 0 0 0];

internalField   nonuniform List<scalar> 
8000
(
27.0681
27.067
27.0657
27.0644
27.0632
27.0621
27.0609
27.0598
27.0587
27.0576
27.0565
27.0555
27.0545
27.0535
27.0525
27.0516
27.0508
27.0498
27.0484
27.0465
27.0479
27.0632
27.0901
27.0318
26.6222
25.9229
2.41082
-0.127226
-0.126757
-0.126859
-0.126897
-0.126897
-0.126889
-0.126883
-0.126877
-0.126872
-0.126867
-0.126862
-0.126856
-0.126851
-0.126845
-0.126839
-0.126834
-0.126828
-0.126822
-0.126815
-0.126809
-0.126803
-0.126797
-0.126791
28.4443
28.4416
28.4389
28.4365
28.4344
28.4325
28.4309
28.4295
28.4282
28.4273
28.4265
28.4259
28.4256
28.4255
28.4256
28.426
28.4267
28.4274
28.4277
28.4278
28.433
28.4561
28.4902
28.4029
27.8659
25.8127
0.342447
-0.133386
-0.133026
-0.133103
-0.13313
-0.133123
-0.133111
-0.1331
-0.133091
-0.133082
-0.133073
-0.133064
-0.133056
-0.133047
-0.133039
-0.133031
-0.133023
-0.133015
-0.133007
-0.132999
-0.132991
-0.132984
-0.132976
-0.132969
29.7391
29.7371
29.7348
29.7328
29.7309
29.7291
29.7274
29.7258
29.7243
29.7228
29.7215
29.7202
29.719
29.7179
29.7169
29.716
29.7152
29.7144
29.713
29.7115
29.7141
29.7306
29.7529
29.6731
29.2462
22.8174
-0.0727911
-0.139528
-0.139285
-0.139337
-0.139352
-0.139341
-0.139326
-0.139312
-0.139299
-0.139287
-0.139276
-0.139265
-0.139254
-0.139244
-0.139234
-0.139224
-0.139214
-0.139205
-0.139195
-0.139186
-0.139177
-0.139169
-0.13916
-0.139151
31.0242
31.0234
31.0224
31.0213
31.0202
31.019
31.0177
31.0164
31.0149
31.0135
31.0119
31.0103
31.0086
31.0068
31.005
31.0031
31.0011
30.9988
30.996
30.993
30.9937
31.0058
31.0189
30.9345
30.5602
19.4682
-0.137596
-0.145425
-0.145418
-0.145454
-0.145459
-0.145451
-0.145441
-0.145433
-0.145425
-0.145417
-0.145409
-0.145401
-0.145393
-0.145385
-0.145378
-0.14537
-0.145363
-0.145355
-0.145347
-0.14534
-0.145332
-0.145325
-0.145317
-0.14531
32.3423
32.3415
32.3405
32.3396
32.3386
32.3375
32.3365
32.3353
32.3342
32.333
32.3318
32.3305
32.3292
32.3279
32.3266
32.3252
32.3238
32.3222
32.3202
32.3183
32.3204
32.3323
32.3392
32.2448
31.9024
16.101
-0.151039
-0.151427
-0.15152
-0.151561
-0.151564
-0.151559
-0.151554
-0.151551
-0.151547
-0.151544
-0.15154
-0.151536
-0.151531
-0.151527
-0.151522
-0.151517
-0.151512
-0.151506
-0.151501
-0.151495
-0.15149
-0.151484
-0.151478
-0.151472
33.6528
33.6522
33.6514
33.6506
33.6497
33.6487
33.6477
33.6466
33.6455
33.6442
33.6429
33.6415
33.6401
33.6385
33.637
33.6353
33.6336
33.6316
33.6292
33.6272
33.6297
33.6406
33.6372
33.5175
33.1872
12.2434
-0.157983
-0.157572
-0.157681
-0.157723
-0.157725
-0.15772
-0.157717
-0.157715
-0.157712
-0.15771
-0.157707
-0.157704
-0.1577
-0.157697
-0.157693
-0.157689
-0.157684
-0.15768
-0.157675
-0.15767
-0.157665
-0.15766
-0.157655
-0.15765
34.9732
34.973
34.9728
34.9723
34.9717
34.9709
34.9699
34.9688
34.9676
34.9661
34.9646
34.9628
34.9609
34.9589
34.9566
34.9542
34.9516
34.9486
34.9451
34.9423
34.9449
34.9544
34.9373
34.7791
34.4423
8.12029
-0.164288
-0.163766
-0.16388
-0.163921
-0.163923
-0.163918
-0.163915
-0.163912
-0.16391
-0.163908
-0.163905
-0.163902
-0.163898
-0.163894
-0.163891
-0.163886
-0.163882
-0.163878
-0.163873
-0.163868
-0.163863
-0.163858
-0.163852
-0.163847
36.3301
36.329
36.3276
36.3263
36.325
36.3237
36.3225
36.3212
36.3199
36.3187
36.3175
36.3163
36.3151
36.3139
36.3128
36.3117
36.3104
36.3087
36.3066
36.3076
36.3217
36.3469
36.292
35.9031
35.2296
3.55695
-0.170561
-0.170051
-0.17016
-0.1702
-0.170199
-0.17019
-0.170184
-0.170178
-0.170173
-0.170167
-0.170161
-0.170155
-0.170149
-0.170143
-0.170137
-0.17013
-0.170124
-0.170117
-0.17011
-0.170103
-0.170096
-0.170089
-0.170082
-0.170075
37.7173
37.7142
37.711
37.7082
37.7058
37.7037
37.7019
37.7003
37.6989
37.6979
37.6971
37.6966
37.6963
37.6964
37.6967
37.6974
37.6982
37.6985
37.6987
37.7044
37.7293
37.7655
37.6711
37.0969
34.5149
0.429193
-0.176776
-0.17639
-0.17647
-0.176498
-0.17649
-0.176476
-0.176463
-0.176453
-0.176443
-0.176433
-0.176423
-0.176413
-0.176404
-0.176394
-0.176385
-0.176376
-0.176367
-0.176358
-0.176349
-0.17634
-0.176331
-0.176322
-0.176314
-0.176305
39.0052
39.0028
39.0001
38.9977
38.9954
38.9933
38.9913
38.9895
38.9877
38.9861
38.9846
38.9832
38.982
38.9808
38.9798
38.9789
38.978
38.9767
38.9752
38.9781
38.9953
39.0178
38.9324
38.4888
29.3175
-0.115048
-0.182925
-0.182697
-0.182749
-0.182763
-0.182751
-0.182735
-0.18272
-0.182708
-0.182695
-0.182683
-0.182672
-0.18266
-0.182649
-0.182638
-0.182628
-0.182617
-0.182607
-0.182597
-0.182587
-0.182577
-0.182567
-0.182557
-0.182548
-0.182538
40.2745
40.2735
40.2723
40.271
40.2697
40.2682
40.2667
40.2651
40.2635
40.2617
40.2599
40.2579
40.2559
40.2538
40.2516
40.2493
40.2468
40.2437
40.2405
40.2412
40.2533
40.2642
40.1708
39.7872
23.6517
-0.182919
-0.188847
-0.188881
-0.188918
-0.188922
-0.188913
-0.188904
-0.188896
-0.188888
-0.18888
-0.188872
-0.188865
-0.188857
-0.188849
-0.188841
-0.188833
-0.188825
-0.188816
-0.188808
-0.1888
-0.188792
-0.188783
-0.188775
-0.188766
-0.188758
41.5894
41.5885
41.5876
41.5866
41.5855
41.5844
41.5832
41.5819
41.5805
41.5791
41.5776
41.5761
41.5745
41.5728
41.5711
41.5693
41.5672
41.5647
41.5624
41.5645
41.5761
41.5778
41.4657
41.1125
18.119
-0.194896
-0.194953
-0.19506
-0.195103
-0.195105
-0.195099
-0.195094
-0.19509
-0.195087
-0.195083
-0.195078
-0.195073
-0.195068
-0.195063
-0.195057
-0.195051
-0.195045
-0.195039
-0.195032
-0.195025
-0.195018
-0.195011
-0.195004
-0.194996
-0.194989
42.8871
42.8868
42.8863
42.8856
42.8848
42.8838
42.8826
42.8813
42.8798
42.8782
42.8764
42.8745
42.8723
42.8701
42.8676
42.8649
42.8619
42.8583
42.8554
42.8577
42.8676
42.8536
42.701
42.3525
11.6768
-0.201676
-0.201183
-0.2013
-0.201342
-0.201344
-0.201338
-0.201334
-0.201332
-0.201329
-0.201325
-0.201321
-0.201317
-0.201313
-0.201308
-0.201303
-0.201298
-0.201292
-0.201286
-0.20128
-0.201274
-0.201267
-0.20126
-0.201253
-0.201246
-0.201238
44.2264
44.2252
44.2239
44.2226
44.2213
44.22
44.2187
44.2174
44.2161
44.2147
44.2133
44.212
44.2106
44.2092
44.2078
44.2063
44.2043
44.2019
44.2022
44.2143
44.2366
44.1876
43.8383
43.2227
4.78473
-0.208045
-0.20752
-0.207632
-0.207672
-0.20767
-0.207661
-0.207654
-0.207649
-0.207643
-0.207637
-0.20763
-0.207623
-0.207616
-0.207609
-0.207602
-0.207594
-0.207587
-0.207579
-0.207571
-0.207563
-0.207554
-0.207546
-0.207537
-0.207529
-0.20752
45.6122
45.6092
45.6061
45.6035
45.6013
45.5994
45.5978
45.5966
45.5956
45.5949
45.5946
45.5945
45.5947
45.5953
45.5963
45.5973
45.5979
45.5984
45.6044
45.6304
45.6688
45.5737
44.9812
41.7491
0.38927
-0.214339
-0.213941
-0.214022
-0.214048
-0.214037
-0.214021
-0.214007
-0.213995
-0.213983
-0.213971
-0.21396
-0.213949
-0.213938
-0.213927
-0.213917
-0.213906
-0.213896
-0.213885
-0.213875
-0.213865
-0.213855
-0.213844
-0.213834
-0.213824
-0.213814
46.8703
46.8687
46.8669
46.8654
46.864
46.8627
46.8616
46.8605
46.8595
46.8587
46.8579
46.8572
46.8566
46.8562
46.8559
46.8554
46.8545
46.8534
46.8567
46.875
46.8999
46.8144
46.3529
34.378
-0.175296
-0.22045
-0.220295
-0.22034
-0.22035
-0.220338
-0.220322
-0.220309
-0.220296
-0.220284
-0.220272
-0.22026
-0.220249
-0.220237
-0.220226
-0.220216
-0.220205
-0.220194
-0.220183
-0.220173
-0.220163
-0.220152
-0.220142
-0.220131
-0.220121
-0.220111
48.1222
48.123
48.1237
48.1242
48.1246
48.1248
48.1248
48.1247
48.1244
48.1239
48.1233
48.1225
48.1216
48.1205
48.1192
48.1175
48.1152
48.1125
48.1132
48.126
48.1434
48.0658
47.6752
28.3191
-0.223896
-0.226428
-0.226524
-0.226564
-0.226565
-0.226556
-0.226549
-0.226543
-0.226538
-0.226531
-0.226525
-0.226518
-0.226512
-0.226504
-0.226497
-0.22649
-0.226482
-0.226475
-0.226467
-0.226459
-0.22645
-0.226442
-0.226433
-0.226425
-0.226416
-0.226407
49.429
49.4307
49.4325
49.4341
49.4355
49.4367
49.4379
49.4389
49.4398
49.4405
49.4411
49.4415
49.4419
49.4421
49.4421
49.4419
49.4411
49.44
49.4422
49.4554
49.4718
49.3987
49.0443
23.9119
-0.232987
-0.232647
-0.23279
-0.232833
-0.232833
-0.232827
-0.232824
-0.232822
-0.23282
-0.232817
-0.232814
-0.23281
-0.232806
-0.232802
-0.232797
-0.232792
-0.232787
-0.232781
-0.232776
-0.232769
-0.232763
-0.232756
-0.232749
-0.232742
-0.232735
-0.232727
50.7341
50.7371
50.7403
50.7432
50.7459
50.7483
50.7506
50.7527
50.7546
50.7563
50.7578
50.7592
50.7603
50.7613
50.7621
50.7626
50.7625
50.762
50.7648
50.7782
50.7941
50.7218
50.3784
21.1694
-0.239598
-0.23896
-0.239122
-0.239163
-0.239162
-0.239158
-0.239156
-0.239155
-0.239154
-0.239152
-0.23915
-0.239148
-0.239145
-0.239142
-0.239139
-0.239135
-0.239131
-0.239126
-0.239121
-0.239116
-0.239111
-0.239105
-0.239099
-0.239093
-0.239086
-0.239079
52.0712
52.0761
52.0815
52.0863
52.0908
52.0949
52.0988
52.1023
52.1055
52.1085
52.1111
52.1135
52.1156
52.1173
52.1188
52.1198
52.1201
52.1198
52.1229
52.1376
52.1555
52.0787
51.7046
21.6437
-0.245965
-0.245343
-0.245526
-0.245561
-0.245559
-0.245555
-0.245554
-0.245554
-0.245553
-0.245552
-0.245551
-0.245549
-0.245546
-0.245544
-0.245541
-0.245537
-0.245534
-0.24553
-0.245525
-0.24552
-0.245515
-0.24551
-0.245504
-0.245498
-0.245491
-0.245484
-0.126784
-0.126778
-0.126771
-0.126765
-0.126758
-0.126752
-0.126745
-0.126739
-0.126732
-0.126725
-0.126719
-0.126712
-0.126705
-0.126698
-0.126691
-0.126684
-0.126678
-0.126671
-0.126664
-0.126657
-0.12665
-0.126643
-0.126636
-0.126629
-0.126621
-0.126614
-0.126607
-0.1266
-0.126593
-0.126586
-0.126578
-0.126571
-0.126564
-0.126556
-0.126549
-0.126542
-0.126534
-0.126527
-0.126519
-0.126512
-0.126504
-0.126497
-0.126489
-0.126482
-0.126474
-0.126467
-0.126459
-0.126451
-0.126444
-0.126436
-0.132961
-0.132953
-0.132946
-0.132939
-0.132931
-0.132924
-0.132916
-0.132909
-0.132902
-0.132894
-0.132887
-0.13288
-0.132872
-0.132865
-0.132858
-0.13285
-0.132843
-0.132836
-0.132828
-0.132821
-0.132813
-0.132806
-0.132799
-0.132791
-0.132784
-0.132776
-0.132769
-0.132761
-0.132754
-0.132746
-0.132739
-0.132731
-0.132724
-0.132716
-0.132708
-0.132701
-0.132693
-0.132685
-0.132678
-0.13267
-0.132662
-0.132654
-0.132646
-0.132639
-0.132631
-0.132623
-0.132615
-0.132607
-0.132599
-0.132591
-0.139143
-0.139135
-0.139126
-0.139118
-0.13911
-0.139102
-0.139094
-0.139086
-0.139078
-0.13907
-0.139062
-0.139055
-0.139047
-0.139039
-0.139031
-0.139023
-0.139016
-0.139008
-0.139
-0.138992
-0.138985
-0.138977
-0.138969
-0.138961
-0.138953
-0.138946
-0.138938
-0.13893
-0.138922
-0.138914
-0.138906
-0.138898
-0.13889
-0.138883
-0.138875
-0.138867
-0.138859
-0.138851
-0.138842
-0.138834
-0.138826
-0.138818
-0.13881
-0.138802
-0.138794
-0.138785
-0.138777
-0.138769
-0.138761
-0.138752
-0.145303
-0.145295
-0.145288
-0.14528
-0.145273
-0.145265
-0.145258
-0.14525
-0.145243
-0.145235
-0.145228
-0.14522
-0.145213
-0.145205
-0.145198
-0.14519
-0.145183
-0.145175
-0.145167
-0.14516
-0.145152
-0.145144
-0.145136
-0.145129
-0.145121
-0.145113
-0.145105
-0.145097
-0.145089
-0.145081
-0.145073
-0.145065
-0.145057
-0.145049
-0.145041
-0.145033
-0.145024
-0.145016
-0.145008
-0.145
-0.144991
-0.144983
-0.144975
-0.144966
-0.144958
-0.144949
-0.144941
-0.144932
-0.144924
-0.144915
-0.151466
-0.15146
-0.151453
-0.151447
-0.15144
-0.151434
-0.151427
-0.15142
-0.151414
-0.151407
-0.1514
-0.151393
-0.151386
-0.151378
-0.151371
-0.151364
-0.151356
-0.151349
-0.151342
-0.151334
-0.151326
-0.151319
-0.151311
-0.151303
-0.151296
-0.151288
-0.15128
-0.151272
-0.151264
-0.151256
-0.151248
-0.151239
-0.151231
-0.151223
-0.151215
-0.151206
-0.151198
-0.15119
-0.151181
-0.151173
-0.151164
-0.151155
-0.151147
-0.151138
-0.151129
-0.151121
-0.151112
-0.151103
-0.151094
-0.151085
-0.157644
-0.157638
-0.157632
-0.157626
-0.15762
-0.157614
-0.157607
-0.157601
-0.157594
-0.157588
-0.157581
-0.157574
-0.157567
-0.15756
-0.157553
-0.157545
-0.157538
-0.157531
-0.157523
-0.157516
-0.157508
-0.1575
-0.157492
-0.157485
-0.157477
-0.157469
-0.157461
-0.157452
-0.157444
-0.157436
-0.157428
-0.157419
-0.157411
-0.157402
-0.157394
-0.157385
-0.157377
-0.157368
-0.157359
-0.15735
-0.157341
-0.157333
-0.157324
-0.157315
-0.157306
-0.157296
-0.157287
-0.157278
-0.157269
-0.15726
-0.163841
-0.163835
-0.163829
-0.163823
-0.163816
-0.16381
-0.163803
-0.163797
-0.16379
-0.163783
-0.163776
-0.163769
-0.163762
-0.163754
-0.163747
-0.16374
-0.163732
-0.163724
-0.163717
-0.163709
-0.163701
-0.163693
-0.163685
-0.163677
-0.163668
-0.16366
-0.163652
-0.163643
-0.163635
-0.163626
-0.163618
-0.163609
-0.1636
-0.163592
-0.163583
-0.163574
-0.163565
-0.163556
-0.163547
-0.163537
-0.163528
-0.163519
-0.16351
-0.1635
-0.163491
-0.163481
-0.163472
-0.163462
-0.163452
-0.163443
-0.170067
-0.17006
-0.170052
-0.170045
-0.170037
-0.170029
-0.170022
-0.170014
-0.170006
-0.169998
-0.16999
-0.169982
-0.169974
-0.169966
-0.169957
-0.169949
-0.169941
-0.169932
-0.169924
-0.169915
-0.169906
-0.169898
-0.169889
-0.16988
-0.169871
-0.169863
-0.169854
-0.169845
-0.169835
-0.169826
-0.169817
-0.169808
-0.169799
-0.169789
-0.16978
-0.16977
-0.169761
-0.169751
-0.169742
-0.169732
-0.169722
-0.169712
-0.169703
-0.169693
-0.169683
-0.169673
-0.169663
-0.169652
-0.169642
-0.169632
-0.176296
-0.176288
-0.176279
-0.17627
-0.176261
-0.176253
-0.176244
-0.176235
-0.176227
-0.176218
-0.176209
-0.1762
-0.176191
-0.176182
-0.176174
-0.176165
-0.176156
-0.176147
-0.176137
-0.176128
-0.176119
-0.17611
-0.176101
-0.176091
-0.176082
-0.176073
-0.176063
-0.176054
-0.176044
-0.176034
-0.176025
-0.176015
-0.176005
-0.175995
-0.175986
-0.175976
-0.175966
-0.175956
-0.175945
-0.175935
-0.175925
-0.175915
-0.175904
-0.175894
-0.175884
-0.175873
-0.175863
-0.175852
-0.175841
-0.175831
-0.182529
-0.182519
-0.18251
-0.1825
-0.182491
-0.182481
-0.182472
-0.182463
-0.182453
-0.182444
-0.182435
-0.182425
-0.182416
-0.182406
-0.182397
-0.182387
-0.182378
-0.182368
-0.182358
-0.182349
-0.182339
-0.182329
-0.18232
-0.18231
-0.1823
-0.18229
-0.18228
-0.18227
-0.18226
-0.18225
-0.182239
-0.182229
-0.182219
-0.182209
-0.182198
-0.182188
-0.182177
-0.182167
-0.182156
-0.182145
-0.182134
-0.182124
-0.182113
-0.182102
-0.182091
-0.18208
-0.182069
-0.182058
-0.182046
-0.182035
-0.188749
-0.188741
-0.188732
-0.188723
-0.188714
-0.188705
-0.188696
-0.188687
-0.188678
-0.188669
-0.18866
-0.188651
-0.188642
-0.188632
-0.188623
-0.188613
-0.188604
-0.188594
-0.188584
-0.188575
-0.188565
-0.188555
-0.188545
-0.188535
-0.188525
-0.188515
-0.188504
-0.188494
-0.188484
-0.188473
-0.188463
-0.188452
-0.188442
-0.188431
-0.18842
-0.188409
-0.188398
-0.188387
-0.188376
-0.188365
-0.188354
-0.188343
-0.188331
-0.18832
-0.188308
-0.188297
-0.188285
-0.188274
-0.188262
-0.18825
-0.194981
-0.194973
-0.194965
-0.194957
-0.194948
-0.19494
-0.194931
-0.194923
-0.194914
-0.194905
-0.194896
-0.194887
-0.194877
-0.194868
-0.194858
-0.194849
-0.194839
-0.194829
-0.19482
-0.19481
-0.1948
-0.194789
-0.194779
-0.194769
-0.194758
-0.194748
-0.194737
-0.194727
-0.194716
-0.194705
-0.194694
-0.194683
-0.194672
-0.194661
-0.19465
-0.194638
-0.194627
-0.194616
-0.194604
-0.194592
-0.194581
-0.194569
-0.194557
-0.194545
-0.194533
-0.194521
-0.194509
-0.194496
-0.194484
-0.194472
-0.201231
-0.201223
-0.201215
-0.201207
-0.201199
-0.20119
-0.201182
-0.201173
-0.201164
-0.201155
-0.201146
-0.201137
-0.201127
-0.201118
-0.201108
-0.201099
-0.201089
-0.201079
-0.201069
-0.201058
-0.201048
-0.201038
-0.201027
-0.201017
-0.201006
-0.200995
-0.200984
-0.200973
-0.200962
-0.200951
-0.200939
-0.200928
-0.200916
-0.200905
-0.200893
-0.200881
-0.200869
-0.200858
-0.200845
-0.200833
-0.200821
-0.200809
-0.200796
-0.200784
-0.200771
-0.200758
-0.200746
-0.200733
-0.20072
-0.200707
-0.207511
-0.207502
-0.207493
-0.207484
-0.207474
-0.207465
-0.207455
-0.207446
-0.207436
-0.207426
-0.207416
-0.207406
-0.207396
-0.207386
-0.207375
-0.207365
-0.207354
-0.207344
-0.207333
-0.207322
-0.207311
-0.2073
-0.207289
-0.207277
-0.207266
-0.207255
-0.207243
-0.207231
-0.20722
-0.207208
-0.207196
-0.207184
-0.207172
-0.207159
-0.207147
-0.207135
-0.207122
-0.207109
-0.207097
-0.207084
-0.207071
-0.207058
-0.207045
-0.207032
-0.207018
-0.207005
-0.206991
-0.206978
-0.206964
-0.20695
-0.213804
-0.213794
-0.213783
-0.213773
-0.213763
-0.213753
-0.213742
-0.213732
-0.213721
-0.213711
-0.2137
-0.213689
-0.213678
-0.213668
-0.213657
-0.213645
-0.213634
-0.213623
-0.213612
-0.2136
-0.213589
-0.213577
-0.213566
-0.213554
-0.213542
-0.21353
-0.213518
-0.213506
-0.213493
-0.213481
-0.213468
-0.213456
-0.213443
-0.21343
-0.213417
-0.213404
-0.213391
-0.213378
-0.213364
-0.213351
-0.213337
-0.213324
-0.21331
-0.213296
-0.213282
-0.213268
-0.213254
-0.213239
-0.213225
-0.213211
-0.2201
-0.22009
-0.220079
-0.220069
-0.220058
-0.220048
-0.220037
-0.220026
-0.220015
-0.220005
-0.219994
-0.219983
-0.219971
-0.21996
-0.219949
-0.219937
-0.219926
-0.219914
-0.219903
-0.219891
-0.219879
-0.219867
-0.219855
-0.219842
-0.21983
-0.219817
-0.219805
-0.219792
-0.219779
-0.219766
-0.219753
-0.21974
-0.219727
-0.219713
-0.2197
-0.219686
-0.219672
-0.219658
-0.219644
-0.21963
-0.219616
-0.219601
-0.219587
-0.219572
-0.219557
-0.219542
-0.219527
-0.219512
-0.219497
-0.219482
-0.226398
-0.226389
-0.226379
-0.22637
-0.22636
-0.22635
-0.22634
-0.22633
-0.22632
-0.22631
-0.226299
-0.226288
-0.226277
-0.226267
-0.226255
-0.226244
-0.226233
-0.226221
-0.226209
-0.226197
-0.226185
-0.226173
-0.226161
-0.226148
-0.226136
-0.226123
-0.22611
-0.226097
-0.226084
-0.22607
-0.226057
-0.226043
-0.226029
-0.226015
-0.226001
-0.225987
-0.225973
-0.225958
-0.225943
-0.225929
-0.225914
-0.225899
-0.225883
-0.225868
-0.225852
-0.225837
-0.225821
-0.225805
-0.225789
-0.225773
-0.232719
-0.232711
-0.232703
-0.232694
-0.232685
-0.232676
-0.232667
-0.232657
-0.232647
-0.232637
-0.232627
-0.232617
-0.232606
-0.232595
-0.232584
-0.232573
-0.232562
-0.23255
-0.232538
-0.232526
-0.232514
-0.232502
-0.232489
-0.232476
-0.232463
-0.23245
-0.232437
-0.232423
-0.23241
-0.232396
-0.232382
-0.232367
-0.232353
-0.232338
-0.232323
-0.232308
-0.232293
-0.232278
-0.232262
-0.232247
-0.232231
-0.232215
-0.232198
-0.232182
-0.232166
-0.232149
-0.232132
-0.232115
-0.232098
-0.232081
-0.239072
-0.239064
-0.239056
-0.239048
-0.23904
-0.239031
-0.239022
-0.239013
-0.239004
-0.238994
-0.238984
-0.238974
-0.238963
-0.238952
-0.238941
-0.23893
-0.238919
-0.238907
-0.238895
-0.238883
-0.23887
-0.238857
-0.238844
-0.238831
-0.238818
-0.238804
-0.23879
-0.238776
-0.238762
-0.238747
-0.238733
-0.238718
-0.238703
-0.238687
-0.238672
-0.238656
-0.23864
-0.238624
-0.238607
-0.23859
-0.238574
-0.238557
-0.238539
-0.238522
-0.238505
-0.238487
-0.238469
-0.238451
-0.238432
-0.238414
-0.245477
-0.24547
-0.245462
-0.245454
-0.245445
-0.245436
-0.245427
-0.245418
-0.245408
-0.245398
-0.245387
-0.245377
-0.245366
-0.245354
-0.245343
-0.245331
-0.245319
-0.245306
-0.245293
-0.24528
-0.245267
-0.245254
-0.24524
-0.245226
-0.245211
-0.245196
-0.245182
-0.245166
-0.245151
-0.245135
-0.245119
-0.245103
-0.245087
-0.24507
-0.245053
-0.245036
-0.245019
-0.245001
-0.244983
-0.244965
-0.244947
-0.244928
-0.24491
-0.244891
-0.244871
-0.244852
-0.244832
-0.244813
-0.244793
-0.244773
-0.12643
-0.126425
-0.126421
-0.126416
-0.126411
-0.126407
-0.126402
-0.126397
-0.126393
-0.126388
-0.126383
-0.126378
-0.126373
-0.126368
-0.126363
-0.126358
-0.126354
-0.126349
-0.126343
-0.126338
-0.126333
-0.126328
-0.126323
-0.126318
-0.126313
-0.126307
-0.126302
-0.126297
-0.126291
-0.126286
-0.126281
-0.126275
-0.12627
-0.126264
-0.126259
-0.126253
-0.126248
-0.126242
-0.126236
-0.126231
-0.126225
-0.126219
-0.126213
-0.126208
-0.126202
-0.126196
-0.12619
-0.126184
-0.126178
-0.126172
-0.126166
-0.12616
-0.126154
-0.126147
-0.126141
-0.126135
-0.126129
-0.126122
-0.126116
-0.12611
-0.126103
-0.126097
-0.12609
-0.126084
-0.126077
-0.12607
-0.126064
-0.126057
-0.12605
-0.126044
-0.126037
-0.12603
-0.126023
-0.126016
-0.126009
-0.126002
-0.125995
-0.125988
-0.125981
-0.125974
-0.125966
-0.125959
-0.125952
-0.125945
-0.125937
-0.12593
-0.125922
-0.125915
-0.125907
-0.1259
-0.125892
-0.125884
-0.125877
-0.125869
-0.125861
-0.125853
-0.125845
-0.125837
-0.125829
-0.125821
-0.125813
-0.125805
-0.125797
-0.125789
-0.12578
-0.125772
-0.125764
-0.125755
-0.125747
-0.125738
-0.12573
-0.125721
-0.125713
-0.125704
-0.125695
-0.125687
-0.125678
-0.125669
-0.12566
-0.125651
-0.125642
-0.125633
-0.125624
-0.125615
-0.125606
-0.125596
-0.125587
-0.125578
-0.125568
-0.125559
-0.12555
-0.12554
-0.12553
-0.125521
-0.125511
-0.125501
-0.125492
-0.125482
-0.125472
-0.125462
-0.125452
-0.125442
-0.125432
-0.125422
-0.125412
-0.125402
-0.125392
-0.125381
-0.125371
-0.125361
-0.12535
-0.12534
-0.125329
-0.125319
-0.125308
-0.125298
-0.125287
-0.125276
-0.125265
-0.125255
-0.125244
-0.125233
-0.125222
-0.125211
-0.1252
-0.125189
-0.125178
-0.125167
-0.125155
-0.125144
-0.125133
-0.125122
-0.12511
-0.125099
-0.125087
-0.125076
-0.125064
-0.125053
-0.125041
-0.12503
-0.125018
-0.125006
-0.124995
-0.124983
-0.124971
-0.124959
-0.124948
-0.124936
-0.124924
-0.124912
-0.1249
-0.124888
-0.124876
-0.124864
-0.124852
-0.12484
-0.124828
-0.124816
-0.124804
-0.124792
-0.124779
-0.124767
-0.124755
-0.124743
-0.124731
-0.124719
-0.124706
-0.124694
-0.124682
-0.12467
-0.124658
-0.124645
-0.124633
-0.124621
-0.124609
-0.124596
-0.124584
-0.124572
-0.12456
-0.124548
-0.124536
-0.124523
-0.124511
-0.124499
-0.124487
-0.124475
-0.124463
-0.124451
-0.124439
-0.124427
-0.124415
-0.124404
-0.124392
-0.12438
-0.124368
-0.124357
-0.124345
-0.124333
-0.124322
-0.12431
-0.124299
-0.124288
-0.124277
-0.124265
-0.124254
-0.124243
-0.124232
-0.124221
-0.124211
-0.1242
-0.124189
-0.124179
-0.124169
-0.124158
-0.124148
-0.124138
-0.124128
-0.124118
-0.124109
-0.124099
-0.124089
-0.12408
-0.124071
-0.124062
-0.124053
-0.124044
-0.124036
-0.124027
-0.124019
-0.124011
-0.124003
-0.123995
-0.123987
-0.12398
-0.123973
-0.123966
-0.123959
-0.123952
-0.123946
-0.12394
-0.123934
-0.123928
-0.123922
-0.123917
-0.123912
-0.123907
-0.123902
-0.123898
-0.123894
-0.12389
-0.123887
-0.123883
-0.12388
-0.123877
-0.123875
-0.123873
-0.123871
-0.123869
-0.123868
-0.123867
-0.132585
-0.13258
-0.132575
-0.13257
-0.132565
-0.132561
-0.132556
-0.132551
-0.132546
-0.132541
-0.132536
-0.132531
-0.132526
-0.132521
-0.132516
-0.13251
-0.132505
-0.1325
-0.132495
-0.13249
-0.132484
-0.132479
-0.132474
-0.132468
-0.132463
-0.132457
-0.132452
-0.132446
-0.132441
-0.132435
-0.13243
-0.132424
-0.132418
-0.132413
-0.132407
-0.132401
-0.132395
-0.132389
-0.132383
-0.132378
-0.132372
-0.132366
-0.13236
-0.132353
-0.132347
-0.132341
-0.132335
-0.132329
-0.132323
-0.132316
-0.13231
-0.132304
-0.132297
-0.132291
-0.132284
-0.132278
-0.132271
-0.132265
-0.132258
-0.132251
-0.132245
-0.132238
-0.132231
-0.132224
-0.132217
-0.13221
-0.132203
-0.132196
-0.132189
-0.132182
-0.132175
-0.132168
-0.132161
-0.132153
-0.132146
-0.132139
-0.132131
-0.132124
-0.132117
-0.132109
-0.132101
-0.132094
-0.132086
-0.132079
-0.132071
-0.132063
-0.132055
-0.132047
-0.132039
-0.132031
-0.132023
-0.132015
-0.132007
-0.131999
-0.131991
-0.131983
-0.131974
-0.131966
-0.131957
-0.131949
-0.131941
-0.131932
-0.131923
-0.131915
-0.131906
-0.131897
-0.131888
-0.13188
-0.131871
-0.131862
-0.131853
-0.131844
-0.131835
-0.131826
-0.131816
-0.131807
-0.131798
-0.131788
-0.131779
-0.13177
-0.13176
-0.131751
-0.131741
-0.131731
-0.131722
-0.131712
-0.131702
-0.131692
-0.131682
-0.131672
-0.131662
-0.131652
-0.131642
-0.131632
-0.131622
-0.131611
-0.131601
-0.131591
-0.13158
-0.13157
-0.131559
-0.131549
-0.131538
-0.131527
-0.131516
-0.131506
-0.131495
-0.131484
-0.131473
-0.131462
-0.131451
-0.13144
-0.131429
-0.131417
-0.131406
-0.131395
-0.131384
-0.131372
-0.131361
-0.131349
-0.131338
-0.131326
-0.131314
-0.131303
-0.131291
-0.131279
-0.131267
-0.131255
-0.131244
-0.131232
-0.13122
-0.131208
-0.131195
-0.131183
-0.131171
-0.131159
-0.131147
-0.131134
-0.131122
-0.13111
-0.131097
-0.131085
-0.131072
-0.13106
-0.131047
-0.131035
-0.131022
-0.131009
-0.130997
-0.130984
-0.130971
-0.130958
-0.130945
-0.130933
-0.13092
-0.130907
-0.130894
-0.130881
-0.130868
-0.130855
-0.130842
-0.130829
-0.130816
-0.130803
-0.13079
-0.130777
-0.130764
-0.130751
-0.130738
-0.130725
-0.130712
-0.130698
-0.130685
-0.130672
-0.130659
-0.130646
-0.130633
-0.13062
-0.130607
-0.130594
-0.130581
-0.130568
-0.130555
-0.130542
-0.130529
-0.130516
-0.130503
-0.13049
-0.130477
-0.130465
-0.130452
-0.130439
-0.130426
-0.130414
-0.130401
-0.130389
-0.130376
-0.130364
-0.130352
-0.130339
-0.130327
-0.130315
-0.130303
-0.130291
-0.130279
-0.130267
-0.130255
-0.130244
-0.130232
-0.130221
-0.130209
-0.130198
-0.130187
-0.130176
-0.130165
-0.130154
-0.130143
-0.130133
-0.130122
-0.130112
-0.130102
-0.130092
-0.130082
-0.130072
-0.130063
-0.130053
-0.130044
-0.130035
-0.130026
-0.130017
-0.130009
-0.13
-0.129992
-0.129984
-0.129977
-0.129969
-0.129962
-0.129955
-0.129948
-0.129941
-0.129935
-0.129928
-0.129922
-0.129917
-0.129911
-0.129906
-0.129901
-0.129896
-0.129892
-0.129888
-0.129884
-0.12988
-0.129877
-0.129874
-0.129872
-0.129869
-0.129867
-0.129865
-0.129864
-0.129863
-0.138746
-0.138741
-0.138736
-0.138731
-0.138726
-0.13872
-0.138715
-0.13871
-0.138705
-0.1387
-0.138695
-0.138689
-0.138684
-0.138679
-0.138674
-0.138668
-0.138663
-0.138657
-0.138652
-0.138646
-0.138641
-0.138635
-0.13863
-0.138624
-0.138618
-0.138613
-0.138607
-0.138601
-0.138595
-0.13859
-0.138584
-0.138578
-0.138572
-0.138566
-0.13856
-0.138554
-0.138548
-0.138542
-0.138535
-0.138529
-0.138523
-0.138517
-0.13851
-0.138504
-0.138498
-0.138491
-0.138485
-0.138478
-0.138472
-0.138465
-0.138459
-0.138452
-0.138445
-0.138438
-0.138432
-0.138425
-0.138418
-0.138411
-0.138404
-0.138397
-0.13839
-0.138383
-0.138376
-0.138369
-0.138361
-0.138354
-0.138347
-0.13834
-0.138332
-0.138325
-0.138317
-0.13831
-0.138302
-0.138294
-0.138287
-0.138279
-0.138271
-0.138263
-0.138256
-0.138248
-0.13824
-0.138232
-0.138224
-0.138216
-0.138207
-0.138199
-0.138191
-0.138183
-0.138174
-0.138166
-0.138158
-0.138149
-0.13814
-0.138132
-0.138123
-0.138114
-0.138106
-0.138097
-0.138088
-0.138079
-0.13807
-0.138061
-0.138052
-0.138043
-0.138034
-0.138025
-0.138015
-0.138006
-0.137997
-0.137987
-0.137978
-0.137968
-0.137958
-0.137949
-0.137939
-0.137929
-0.137919
-0.137909
-0.1379
-0.13789
-0.137879
-0.137869
-0.137859
-0.137849
-0.137839
-0.137828
-0.137818
-0.137807
-0.137797
-0.137786
-0.137776
-0.137765
-0.137754
-0.137744
-0.137733
-0.137722
-0.137711
-0.1377
-0.137689
-0.137678
-0.137666
-0.137655
-0.137644
-0.137632
-0.137621
-0.13761
-0.137598
-0.137586
-0.137575
-0.137563
-0.137551
-0.13754
-0.137528
-0.137516
-0.137504
-0.137492
-0.13748
-0.137468
-0.137455
-0.137443
-0.137431
-0.137418
-0.137406
-0.137394
-0.137381
-0.137368
-0.137356
-0.137343
-0.137331
-0.137318
-0.137305
-0.137292
-0.137279
-0.137266
-0.137253
-0.13724
-0.137227
-0.137214
-0.137201
-0.137188
-0.137174
-0.137161
-0.137148
-0.137134
-0.137121
-0.137107
-0.137094
-0.13708
-0.137067
-0.137053
-0.13704
-0.137026
-0.137012
-0.136998
-0.136985
-0.136971
-0.136957
-0.136943
-0.136929
-0.136916
-0.136902
-0.136888
-0.136874
-0.13686
-0.136846
-0.136832
-0.136818
-0.136804
-0.13679
-0.136776
-0.136762
-0.136748
-0.136734
-0.13672
-0.136706
-0.136692
-0.136678
-0.136664
-0.13665
-0.136636
-0.136622
-0.136608
-0.136594
-0.13658
-0.136566
-0.136552
-0.136538
-0.136525
-0.136511
-0.136497
-0.136483
-0.13647
-0.136456
-0.136443
-0.136429
-0.136416
-0.136402
-0.136389
-0.136376
-0.136363
-0.13635
-0.136337
-0.136324
-0.136311
-0.136298
-0.136285
-0.136273
-0.13626
-0.136248
-0.136235
-0.136223
-0.136211
-0.136199
-0.136187
-0.136175
-0.136164
-0.136152
-0.136141
-0.13613
-0.136119
-0.136108
-0.136097
-0.136086
-0.136076
-0.136066
-0.136056
-0.136046
-0.136036
-0.136026
-0.136017
-0.136008
-0.135999
-0.13599
-0.135982
-0.135973
-0.135965
-0.135957
-0.13595
-0.135942
-0.135935
-0.135928
-0.135922
-0.135915
-0.135909
-0.135903
-0.135898
-0.135892
-0.135887
-0.135883
-0.135878
-0.135874
-0.13587
-0.135867
-0.135864
-0.135861
-0.135858
-0.135856
-0.135854
-0.135853
-0.135852
-0.144908
-0.144903
-0.144898
-0.144893
-0.144887
-0.144882
-0.144877
-0.144871
-0.144866
-0.144861
-0.144855
-0.14485
-0.144844
-0.144839
-0.144833
-0.144828
-0.144822
-0.144817
-0.144811
-0.144805
-0.144799
-0.144794
-0.144788
-0.144782
-0.144776
-0.14477
-0.144764
-0.144758
-0.144752
-0.144746
-0.14474
-0.144734
-0.144728
-0.144721
-0.144715
-0.144709
-0.144703
-0.144696
-0.14469
-0.144683
-0.144677
-0.14467
-0.144664
-0.144657
-0.14465
-0.144644
-0.144637
-0.14463
-0.144623
-0.144616
-0.144609
-0.144602
-0.144595
-0.144588
-0.144581
-0.144574
-0.144567
-0.14456
-0.144552
-0.144545
-0.144538
-0.14453
-0.144523
-0.144515
-0.144508
-0.1445
-0.144492
-0.144485
-0.144477
-0.144469
-0.144461
-0.144453
-0.144445
-0.144437
-0.144429
-0.144421
-0.144413
-0.144405
-0.144397
-0.144388
-0.14438
-0.144371
-0.144363
-0.144354
-0.144346
-0.144337
-0.144329
-0.14432
-0.144311
-0.144302
-0.144293
-0.144284
-0.144275
-0.144266
-0.144257
-0.144248
-0.144239
-0.144229
-0.14422
-0.144211
-0.144201
-0.144192
-0.144182
-0.144172
-0.144163
-0.144153
-0.144143
-0.144133
-0.144123
-0.144113
-0.144103
-0.144093
-0.144083
-0.144073
-0.144063
-0.144052
-0.144042
-0.144031
-0.144021
-0.14401
-0.144
-0.143989
-0.143978
-0.143967
-0.143956
-0.143945
-0.143934
-0.143923
-0.143912
-0.143901
-0.14389
-0.143878
-0.143867
-0.143856
-0.143844
-0.143832
-0.143821
-0.143809
-0.143797
-0.143786
-0.143774
-0.143762
-0.14375
-0.143738
-0.143725
-0.143713
-0.143701
-0.143689