/*--------------------------------*- C++ -*----------------------------------*\
| =========                 |                                                 |
| \\      /  F ield         | OpenFOAM: The Open Source CFD Toolbox           |
|  \\    /   O peration     | Version:  2.4.0                                 |
|   \\  /    A nd           | Web:      www.OpenFOAM.org                      |
|    \\/     M anipulation  |                                                 |
\*---------------------------------------------------------------------------*/
FoamFile
{
    version     2.0;
    format      ascii;
    class       volVectorField;
    location    "1.6";
    object      U;
}
// * * * * * * * * * * * * * * * * * * * * * * * * * * * * * * * * * * * * * //

dimensions      [0 1 -1 0 0 0 0];

internalField   nonuniform List<vector> 
8000
(
(-1.25603e-08 -0.000186572 0)
(-1.61091e-07 -0.000545198 0)
(-4.75958e-07 -0.000889319 0)
(-9.5611e-07 -0.00121895 0)
(-1.59801e-06 -0.00153411 0)
(-2.39623e-06 -0.00183482 0)
(-3.35114e-06 -0.0021211 0)
(-4.45737e-06 -0.00239296 0)
(-5.71658e-06 -0.0026504 0)
(-7.12124e-06 -0.00289342 0)
(-8.67439e-06 -0.00312204 0)
(-1.03657e-05 -0.00333622 0)
(-1.22001e-05 -0.00353598 0)
(-1.41636e-05 -0.00372129 0)
(-1.62634e-05 -0.00389215 0)
(-1.84792e-05 -0.00404851 0)
(-2.08199e-05 -0.00419038 0)
(-2.32609e-05 -0.0043177 0)
(-2.58448e-05 -0.00443045 0)
(-2.85898e-05 -0.00452858 0)
(-3.14555e-05 -0.00461207 0)
(-3.37203e-05 -0.00468083 0)
(-3.40349e-05 -0.00473478 0)
(-3.39364e-05 -0.00477375 0)
(-5.11638e-05 -0.00479786 0)
(-0.000116222 -0.00480816 0)
(-0.000216536 -0.00480997 0)
(-0.000353025 -0.00480255 0)
(-0.00054455 -0.00474175 0)
(-0.000352246 -0.00469624 0)
(-0.000344743 -0.00465098 0)
(-0.000356159 -0.00460841 0)
(-0.000365035 -0.00456802 0)
(-0.000369701 -0.00452917 0)
(-0.000373644 -0.00449161 0)
(-0.00037797 -0.00445518 0)
(-0.000382676 -0.00441977 0)
(-0.000387618 -0.0043853 0)
(-0.000392742 -0.00435168 0)
(-0.000398033 -0.00431884 0)
(-0.000403485 -0.00428671 0)
(-0.000409084 -0.00425525 0)
(-0.00041482 -0.00422439 0)
(-0.000420681 -0.0041941 0)
(-0.000426656 -0.00416434 0)
(-0.000432734 -0.00413507 0)
(-0.000438907 -0.00410625 0)
(-0.000445166 -0.00407786 0)
(-0.000451503 -0.00404986 0)
(-0.00045791 -0.00402222 0)
(-4.72979e-08 -0.000184465 0)
(-4.3475e-07 -0.000539189 0)
(-1.19066e-06 -0.000879693 0)
(-2.28857e-06 -0.00120596 0)
(-3.6939e-06 -0.001518 0)
(-5.38207e-06 -0.00181581 0)
(-7.32967e-06 -0.0020994 0)
(-9.51976e-06 -0.00236876 0)
(-1.19302e-05 -0.00262391 0)
(-1.45466e-05 -0.00286482 0)
(-1.7346e-05 -0.00309153 0)
(-2.03164e-05 -0.00330401 0)
(-2.34328e-05 -0.00350227 0)
(-2.66849e-05 -0.00368631 0)
(-3.00433e-05 -0.00385615 0)
(-3.34978e-05 -0.00401176 0)
(-3.70101e-05 -0.00415318 0)
(-4.05772e-05 -0.00428038 0)
(-4.41894e-05 -0.00439339 0)
(-4.79074e-05 -0.0044922 0)
(-5.15637e-05 -0.00457685 0)
(-5.42582e-05 -0.0046473 0)
(-5.42678e-05 -0.00470363 0)
(-5.43714e-05 -0.0047458 0)
(-7.79718e-05 -0.00477402 0)
(-0.000161637 -0.00478855 0)
(-0.000285871 -0.00479007 0)
(-0.000418669 -0.00478164 0)
(-0.000528381 -0.00472158 0)
(-0.000372436 -0.00467353 0)
(-0.000363724 -0.00462538 0)
(-0.000373768 -0.00457961 0)
(-0.000381817 -0.00453576 0)
(-0.000386249 -0.00449338 0)
(-0.00039001 -0.00445233 0)
(-0.000394091 -0.00441251 0)
(-0.000398508 -0.00437385 0)
(-0.000403142 -0.0043363 0)
(-0.000407944 -0.00429979 0)
(-0.000412905 -0.00426423 0)
(-0.000418021 -0.00422957 0)
(-0.000423283 -0.00419575 0)
(-0.000428683 -0.00416269 0)
(-0.000434213 -0.00413035 0)
(-0.000439865 -0.00409868 0)
(-0.000445631 -0.00406764 0)
(-0.000451504 -0.00403717 0)
(-0.000457478 -0.00400725 0)
(-0.000463545 -0.00397783 0)
(-0.000469699 -0.00394888 0)
(-2.89112e-08 -0.00018153 0)
(-3.10272e-07 -0.000530853 0)
(-8.81095e-07 -0.000866382 0)
(-1.73035e-06 -0.00118807 0)
(-2.83822e-06 -0.00149588 0)
(-4.19086e-06 -0.00178979 0)
(-5.77457e-06 -0.00206979 0)
(-7.58011e-06 -0.00233586 0)
(-9.59384e-06 -0.00258798 0)
(-1.18082e-05 -0.00282615 0)
(-1.42087e-05 -0.00305034 0)
(-1.679e-05 -0.00326057 0)
(-1.95361e-05 -0.00345683 0)
(-2.24447e-05 -0.00363912 0)
(-2.54971e-05 -0.00380744 0)
(-2.86936e-05 -0.00396182 0)
(-3.20097e-05 -0.00410226 0)
(-3.54566e-05 -0.00422878 0)
(-3.9034e-05 -0.0043414 0)
(-4.28059e-05 -0.00444015 0)
(-4.66323e-05 -0.00452504 0)
(-4.98217e-05 -0.00459613 0)
(-5.1102e-05 -0.00465346 0)
(-5.32231e-05 -0.00469716 0)
(-7.4042e-05 -0.00472731 0)
(-0.000146281 -0.0047449 0)
(-0.000261914 -0.00474694 0)
(-0.000425891 -0.00472341 0)
(-0.000464544 -0.00467532 0)
(-0.000351248 -0.00462335 0)
(-0.000345624 -0.00457257 0)
(-0.000355994 -0.00452491 0)
(-0.000364686 -0.00447923 0)
(-0.000370478 -0.00443508 0)
(-0.000375681 -0.00439234 0)
(-0.000381095 -0.00435089 0)
(-0.000386738 -0.00431067 0)
(-0.000392515 -0.00427159 0)
(-0.000398392 -0.0042336 0)
(-0.000404362 -0.00419661 0)
(-0.000410427 -0.00416058 0)
(-0.000416582 -0.00412542 0)
(-0.000422824 -0.00409109 0)
(-0.000429148 -0.00405752 0)
(-0.00043555 -0.00402468 0)
(-0.000442024 -0.00399253 0)
(-0.000448568 -0.003961 0)
(-0.000455176 -0.00393008 0)
(-0.000461844 -0.00389972 0)
(-0.000468567 -0.00386989 0)
(-6.08149e-09 -0.000180656 0)
(-1.04644e-07 -0.000528123 0)
(-3.28844e-07 -0.000861714 0)
(-6.87341e-07 -0.0011814 0)
(-1.18345e-06 -0.00148718 0)
(-1.82268e-06 -0.00177903 0)
(-2.60747e-06 -0.00205695 0)
(-3.54374e-06 -0.00232093 0)
(-4.63186e-06 -0.00257097 0)
(-5.87804e-06 -0.00280704 0)
(-7.28065e-06 -0.00302916 0)
(-8.84728e-06 -0.00323731 0)
(-1.05744e-05 -0.00343149 0)
(-1.24722e-05 -0.00361169 0)
(-1.45347e-05 -0.00377792 0)
(-1.67753e-05 -0.00393017 0)
(-1.91837e-05 -0.00406844 0)
(-2.1785e-05 -0.00419272 0)
(-2.45914e-05 -0.00430303 0)
(-2.76692e-05 -0.00439936 0)
(-3.08884e-05 -0.00448171 0)
(-3.36579e-05 -0.00455008 0)
(-3.50232e-05 -0.00460448 0)
(-3.80572e-05 -0.00464497 0)
(-5.77945e-05 -0.00467161 0)
(-0.000124602 -0.00468648 0)
(-0.000241518 -0.00468742 0)
(-0.000480336 -0.00466144 0)
(-0.000363499 -0.00460563 0)
(-0.000325374 -0.00454948 0)
(-0.000329306 -0.00449751 0)
(-0.000340141 -0.00444872 0)
(-0.000348359 -0.00440176 0)
(-0.000355029 -0.00435634 0)
(-0.000361525 -0.00431238 0)
(-0.000368195 -0.00426978 0)
(-0.000374994 -0.00422847 0)
(-0.000381865 -0.00418836 0)
(-0.000388791 -0.0041494 0)
(-0.000395772 -0.00411149 0)
(-0.000402807 -0.00407459 0)
(-0.000409893 -0.00403862 0)
(-0.000417028 -0.00400352 0)
(-0.00042421 -0.00396925 0)
(-0.000431435 -0.00393576 0)
(-0.0004387 -0.003903 0)
(-0.000446001 -0.00387093 0)
(-0.000453337 -0.00383951 0)
(-0.000460703 -0.0038087 0)
(-0.000468096 -0.00377847 0)
(-1.16262e-08 -0.000180159 0)
(-1.20975e-07 -0.0005265 0)
(-3.52853e-07 -0.000858846 0)
(-7.12585e-07 -0.00117718 0)
(-1.20283e-06 -0.0014815 0)
(-1.83035e-06 -0.00177181 0)
(-2.59902e-06 -0.0020481 0)
(-3.51754e-06 -0.00231037 0)
(-4.58846e-06 -0.00255862 0)
(-5.82172e-06 -0.00279284 0)
(-7.21793e-06 -0.00301304 0)
(-8.78901e-06 -0.0032192 0)
(-1.0533e-05 -0.00341132 0)
(-1.24646e-05 -0.0035894 0)
(-1.4578e-05 -0.00375344 0)
(-1.68909e-05 -0.00390342 0)
(-1.93913e-05 -0.00403935 0)
(-2.2109e-05 -0.00416122 0)
(-2.50488e-05 -0.00426902 0)
(-2.82684e-05 -0.00436275 0)
(-3.16029e-05 -0.0044424 0)
(-3.45021e-05 -0.00450796 0)
(-3.62857e-05 -0.00455942 0)
(-4.06762e-05 -0.00459683 0)
(-6.11649e-05 -0.00462031 0)
(-0.000124286 -0.0046327 0)
(-0.000244417 -0.00463252 0)
(-0.000514685 -0.00458094 0)
(-0.00032276 -0.0045226 0)
(-0.000315217 -0.00446653 0)
(-0.000327858 -0.00441428 0)
(-0.000339322 -0.00436475 0)
(-0.000346618 -0.00431706 0)
(-0.000352974 -0.00427097 0)
(-0.000359533 -0.00422638 0)
(-0.000366345 -0.00418318 0)
(-0.000373288 -0.0041413 0)
(-0.000380313 -0.00410065 0)
(-0.000387414 -0.00406115 0)
(-0.000394593 -0.00402274 0)
(-0.000401846 -0.00398533 0)
(-0.00040917 -0.00394887 0)
(-0.000416561 -0.00391331 0)
(-0.000424013 -0.0038786 0)
(-0.000431522 -0.00384469 0)
(-0.000439083 -0.00381154 0)
(-0.000446693 -0.00377911 0)
(-0.000454346 -0.00374736 0)
(-0.000462038 -0.00371625 0)
(-0.000469764 -0.00368575 0)
(-6.22198e-09 -0.000179286 0)
(-8.07364e-08 -0.000523865 0)
(-2.49006e-07 -0.000854419 0)
(-5.21401e-07 -0.00117092 0)
(-9.05145e-07 -0.00147335 0)
(-1.41188e-06 -0.00176172 0)
(-2.04885e-06 -0.002036 0)
(-2.82956e-06 -0.0022962 0)
(-3.75968e-06 -0.00254231 0)
(-4.85446e-06 -0.00277432 0)
(-6.11753e-06 -0.00299223 0)
(-7.56677e-06 -0.00319602 0)
(-9.20319e-06 -0.00338571 0)
(-1.10485e-05 -0.00356129 0)
(-1.30996e-05 -0.00372276 0)
(-1.53827e-05 -0.00387012 0)
(-1.78894e-05 -0.00400337 0)
(-2.06615e-05 -0.00412252 0)
(-2.37072e-05 -0.00422758 0)
(-2.70814e-05 -0.00431855 0)
(-3.05785e-05 -0.00439545 0)
(-3.36657e-05 -0.00445828 0)
(-3.60477e-05 -0.00450705 0)
(-4.26777e-05 -0.00454187 0)
(-6.6526e-05 -0.00456297 0)
(-0.000127661 -0.00457372 0)
(-0.000252794 -0.00457353 0)
(-0.000520897 -0.004506 0)
(-0.000317326 -0.00444824 0)
(-0.000314373 -0.00439145 0)
(-0.000328672 -0.00433766 0)
(-0.000340472 -0.00428632 0)
(-0.000347852 -0.00423681 0)
(-0.000354397 -0.00418893 0)
(-0.000361216 -0.00414258 0)
(-0.000368305 -0.00409768 0)
(-0.000375528 -0.00405415 0)
(-0.000382833 -0.00401192 0)
(-0.000390217 -0.00397093 0)
(-0.000397679 -0.00393109 0)
(-0.000405217 -0.00389236 0)
(-0.000412827 -0.00385467 0)
(-0.000420503 -0.00381796 0)
(-0.000428241 -0.00378219 0)
(-0.000436037 -0.00374731 0)
(-0.000443886 -0.00371328 0)
(-0.000451783 -0.00368006 0)
(-0.000459723 -0.00364759 0)
(-0.000467703 -0.00361585 0)
(-0.000475717 -0.00358479 0)
(4.67604e-09 -0.000179209 0)
(1.03859e-08 -0.000523391 0)
(-1.02006e-08 -0.000853322 0)
(-7.68586e-08 -0.00116898 0)
(-2.07073e-07 -0.00147038 0)
(-4.19984e-07 -0.00175751 0)
(-7.28873e-07 -0.00203038 0)
(-1.15196e-06 -0.00228898 0)
(-1.69937e-06 -0.00253331 0)
(-2.39006e-06 -0.00276337 0)
(-3.23133e-06 -0.00297914 0)
(-4.24459e-06 -0.00318063 0)
(-5.43424e-06 -0.00336782 0)
(-6.82622e-06 -0.0035407 0)
(-8.4211e-06 -0.00369927 0)
(-1.0251e-05 -0.00384351 0)
(-1.23129e-05 -0.00397341 0)
(-1.46603e-05 -0.00408894 0)
(-1.73089e-05 -0.00419012 0)
(-2.03093e-05 -0.00427689 0)
(-2.33957e-05 -0.00434926 0)
(-2.60218e-05 -0.00440714 0)
(-2.83602e-05 -0.00445049 0)
(-3.71213e-05 -0.00447935 0)
(-6.56378e-05 -0.0044946 0)
(-0.000125313 -0.0045013 0)
(-0.000256362 -0.00449775 0)
(-0.000509554 -0.00442268 0)
(-0.000306767 -0.00436208 0)
(-0.00030582 -0.00430289 0)
(-0.000321118 -0.0042472 0)
(-0.000333498 -0.00419439 0)
(-0.000341464 -0.00414374 0)
(-0.000348657 -0.00409496 0)
(-0.000356155 -0.00404786 0)
(-0.000363938 -0.00400232 0)
(-0.000371859 -0.00395824 0)
(-0.000379867 -0.00391551 0)
(-0.000387952 -0.00387405 0)
(-0.000396113 -0.00383378 0)
(-0.000404345 -0.00379463 0)
(-0.000412639 -0.00375654 0)
(-0.000420989 -0.00371945 0)
(-0.00042939 -0.00368332 0)
(-0.000437836 -0.00364811 0)
(-0.00044632 -0.00361376 0)
(-0.000454838 -0.00358025 0)
(-0.000463386 -0.00354753 0)
(-0.000471958 -0.00351556 0)
(-0.00048055 -0.0034843 0)
(-1.16366e-08 -0.000179395 0)
(-1.63997e-07 -0.000523609 0)
(-4.9021e-07 -0.000853268 0)
(-9.93226e-07 -0.00116839 0)
(-1.66677e-06 -0.001469 0)
(-2.51104e-06 -0.00175513 0)
(-3.52048e-06 -0.0020268 0)
(-4.69833e-06 -0.00228401 0)
(-6.03659e-06 -0.00252678 0)
(-7.54028e-06 -0.0027551 0)
(-9.198e-06 -0.00296898 0)
(-1.10174e-05 -0.00316841 0)
(-1.29827e-05 -0.00335337 0)
(-1.51051e-05 -0.00352386 0)
(-1.73618e-05 -0.00367984 0)
(-1.9767e-05 -0.0038213 0)
(-2.22928e-05 -0.0039482 0)
(-2.49878e-05 -0.0040605 0)
(-2.78632e-05 -0.00415816 0)
(-3.08932e-05 -0.00424113 0)
(-3.33849e-05 -0.00430935 0)
(-3.40662e-05 -0.0043627 0)
(-3.43505e-05 -0.004401 0)
(-5.10751e-05 -0.00442438 0)
(-0.000113251 -0.00443405 0)
(-0.000210513 -0.00443583 0)
(-0.000354392 -0.0044276 0)
(-0.000564666 -0.00434678 0)
(-0.000360446 -0.00428361 0)
(-0.00035386 -0.00422159 0)
(-0.000366663 -0.00416301 0)
(-0.000376731 -0.00410733 0)
(-0.00038239 -0.00405391 0)
(-0.000387343 -0.0040025 0)
(-0.000392741 -0.00395293 0)
(-0.000398574 -0.0039051 0)
(-0.00040469 -0.00385889 0)
(-0.000411027 -0.00381423 0)
(-0.000417571 -0.00377101 0)
(-0.00042431 -0.00372916 0)
(-0.000431233 -0.0036886 0)
(-0.000438326 -0.00364925 0)
(-0.000445574 -0.00361105 0)
(-0.000452965 -0.00357394 0)
(-0.000460488 -0.00353788 0)
(-0.000468133 -0.0035028 0)
(-0.000475888 -0.00346865 0)
(-0.000483745 -0.0034354 0)
(-0.000491694 -0.00340298 0)
(-0.000499728 -0.00337135 0)
(-5.60286e-08 -0.00017705 0)
(-5.10805e-07 -0.000516924 0)
(-1.39647e-06 -0.000842563 0)
(-2.67854e-06 -0.00115396 0)
(-4.31807e-06 -0.00145111 0)
(-6.28068e-06 -0.00173404 0)
(-8.543e-06 -0.00200274 0)
(-1.1077e-05 -0.00225723 0)
(-1.38638e-05 -0.0024975 0)
(-1.68748e-05 -0.00272355 0)
(-2.00942e-05 -0.00293538 0)
(-2.34913e-05 -0.00313301 0)
(-2.70529e-05 -0.00331643 0)
(-3.07439e-05 -0.00348564 0)
(-3.45513e-05 -0.00364063 0)
(-3.84306e-05 -0.00378143 0)
(-4.23766e-05 -0.00390802 0)
(-4.6375e-05 -0.00402042 0)
(-5.04883e-05 -0.0041186 0)
(-5.4531e-05 -0.00420262 0)
(-5.75383e-05 -0.00427242 0)
(-5.76753e-05 -0.00432806 0)
(-5.79657e-05 -0.00436951 0)
(-8.34638e-05 -0.00439698 0)
(-0.000172806 -0.00441083 0)
(-0.000305233 -0.00441212 0)
(-0.000447821 -0.00440228 0)
(-0.000564381 -0.00432093 0)
(-0.000398129 -0.00425432 0)
(-0.000389063 -0.00418871 0)
(-0.000400044 -0.00412631 0)
(-0.000408951 -0.00406658 0)
(-0.00041406 -0.00400906 0)
(-0.000418511 -0.0039536 0)
(-0.00042336 -0.00390012 0)
(-0.00042862 -0.00384853 0)
(-0.000434163 -0.00379876 0)
(-0.000439934 -0.00375073 0)
(-0.00044592 -0.00370434 0)
(-0.000452116 -0.00365951 0)
(-0.00045851 -0.00361615 0)
(-0.000465093 -0.00357418 0)
(-0.000471853 -0.00353353 0)
(-0.000478781 -0.00349413 0)
(-0.000485867 -0.00345591 0)
(-0.000493102 -0.00341882 0)
(-0.000500477 -0.00338279 0)
(-0.000507984 -0.00334778 0)
(-0.000515614 -0.00331372 0)
(-0.000523359 -0.00328058 0)
(-3.58876e-08 -0.000173478 0)
(-3.77178e-07 -0.000506813 0)
(-1.0668e-06 -0.000826464 0)
(-2.08827e-06 -0.00113237 0)
(-3.41867e-06 -0.00142451 0)
(-5.03691e-06 -0.00170284 0)
(-6.92977e-06 -0.00196735 0)
(-9.07971e-06 -0.00221801 0)
(-1.14764e-05 -0.00245481 0)
(-1.41012e-05 -0.00267774 0)
(-1.69466e-05 -0.0028868 0)
(-1.99922e-05 -0.00308197 0)
(-2.32341e-05 -0.00326326 0)
(-2.66486e-05 -0.00343068 0)
(-3.02351e-05 -0.00358424 0)
(-3.39631e-05 -0.00372395 0)
(-3.78438e-05 -0.00384984 0)
(-4.18711e-05 -0.00396193 0)
(-4.611e-05 -0.00406024 0)
(-5.04031e-05 -0.00414481 0)
(-5.40293e-05 -0.00421569 0)
(-5.56846e-05 -0.00427294 0)
(-5.83594e-05 -0.00431671 0)
(-8.05287e-05 -0.00434711 0)
(-0.000156404 -0.00436528 0)
(-0.000279119 -0.00436741 0)
(-0.000461716 -0.00434071 0)
(-0.000485541 -0.0042715 0)
(-0.000374918 -0.00419942 0)
(-0.000369999 -0.00413003 0)
(-0.000381472 -0.00406463 0)
(-0.000391249 -0.0040019 0)
(-0.000398155 -0.00394144 0)
(-0.000404509 -0.00388314 0)
(-0.000411118 -0.00382692 0)
(-0.000417998 -0.0037727 0)
(-0.000425054 -0.00372039 0)
(-0.000432251 -0.00366992 0)
(-0.000439582 -0.00362119 0)
(-0.000447047 -0.00357412 0)
(-0.000454642 -0.00352861 0)
(-0.000462362 -0.00348458 0)
(-0.000470202 -0.00344197 0)
(-0.000478157 -0.00340069 0)
(-0.000486221 -0.00336069 0)
(-0.000494389 -0.0033219 0)
(-0.000502655 -0.00328427 0)
(-0.000511014 -0.00324774 0)
(-0.000519461 -0.00321225 0)
(-0.00052799 -0.00317776 0)
(-6.48003e-09 -0.000172443 0)
(-1.22397e-07 -0.000503583 0)
(-3.88731e-07 -0.000820945 0)
(-8.1456e-07 -0.0011245 0)
(-1.40664e-06 -0.00141422 0)
(-2.16828e-06 -0.00169011 0)
(-3.10749e-06 -0.00195215 0)
(-4.2261e-06 -0.00220034 0)
(-5.5326e-06 -0.00243466 0)
(-7.02624e-06 -0.00265511 0)
(-8.71702e-06 -0.00286168 0)
(-1.06017e-05 -0.00305436 0)
(-1.26932e-05 -0.00323315 0)
(-1.4985e-05 -0.00339804 0)
(-1.74938e-05 -0.00354905 0)
(-2.02079e-05 -0.00368615 0)
(-2.31571e-05 -0.00380937 0)
(-2.63515e-05 -0.0039187 0)
(-2.98603e-05 -0.00401414 0)
(-3.35334e-05 -0.00409569 0)
(-3.6767e-05 -0.00416336 0)
(-3.86564e-05 -0.00421716 0)
(-4.26944e-05 -0.00425716 0)
(-6.41457e-05 -0.00428348 0)
(-0.000133735 -0.00429854 0)
(-0.000258516 -0.00429946 0)
(-0.000526085 -0.00426243 0)
(-0.000373077 -0.00418247 0)
(-0.000346315 -0.00410676 0)
(-0.000354569 -0.00403649 0)
(-0.000367346 -0.00397005 0)
(-0.000376837 -0.00390613 0)
(-0.000384935 -0.00384449 0)
(-0.000392993 -0.00378504 0)
(-0.000401274 -0.00372771 0)
(-0.000409707 -0.0036724 0)
(-0.000418238 -0.00361904 0)
(-0.000426855 -0.00356753 0)
(-0.000435559 -0.00351778 0)
(-0.00044435 -0.00346971 0)
(-0.000453228 -0.00342323 0)
(-0.000462188 -0.00337827 0)
(-0.000471228 -0.00333475 0)
(-0.000480345 -0.00329261 0)
(-0.000489534 -0.00325179 0)
(-0.000498792 -0.00321223 0)
(-0.000508116 -0.00317388 0)
(-0.000517499 -0.00313667 0)
(-0.00052694 -0.00310055 0)
(-0.000536433 -0.00306548 0)
(-1.25252e-08 -0.000171828 0)
(-1.19296e-07 -0.000501591 0)
(-3.49132e-07 -0.000817434 0)
(-7.08826e-07 -0.00111934 0)
(-1.20893e-06 -0.00140729 0)
(-1.85674e-06 -0.00168128 0)
(-2.66623e-06 -0.00194132 0)
(-3.64355e-06 -0.0021874 0)
(-4.80448e-06 -0.00241951 0)
(-6.15277e-06 -0.00263764 0)
(-7.70697e-06 -0.00284179 0)
(-9.468e-06 -0.00303196 0)
(-1.14586e-05 -0.00320814 0)
(-1.36754e-05 -0.00337034 0)
(-1.61461e-05 -0.00351855 0)
(-1.88615e-05 -0.00365276 0)
(-2.18652e-05 -0.00377299 0)
(-2.51654e-05 -0.00387923 0)
(-2.88295e-05 -0.00397148 0)
(-3.26661e-05 -0.00404976 0)
(-3.61189e-05 -0.00411405 0)
(-3.86712e-05 -0.00416436 0)
(-4.48642e-05 -0.00420079 0)
(-6.85165e-05 -0.00422354 0)
(-0.00013448 -0.00423594 0)
(-0.000264044 -0.0042359 0)
(-0.000551658 -0.00415866 0)
(-0.000342839 -0.00408064 0)
(-0.000338515 -0.00400557 0)
(-0.00035404 -0.0039347 0)
(-0.000367598 -0.00386703 0)
(-0.000376599 -0.0038018 0)
(-0.000384667 -0.00373882 0)
(-0.000393003 -0.00367802 0)
(-0.000401635 -0.00361932 0)
(-0.000410426 -0.00356266 0)
(-0.000419327 -0.00350796 0)
(-0.000428333 -0.00345514 0)
(-0.000437447 -0.0034041 0)
(-0.000446668 -0.00335477 0)
(-0.000455991 -0.00330707 0)
(-0.000465413 -0.00326093 0)
(-0.000474929 -0.00321628 0)
(-0.000484536 -0.00317307 0)
(-0.000494228 -0.00313122 0)
(-0.000504 -0.00309069 0)
(-0.000513849 -0.00305142 0)
(-0.000523768 -0.00301336 0)
(-0.000533754 -0.00297645 0)
(-0.000543801 -0.00294064 0)
(2.80871e-09 -0.00017119 0)
(-1.48567e-08 -0.000499542 0)
(-8.68173e-08 -0.000813837 0)
(-2.31229e-07 -0.00111405 0)
(-4.68969e-07 -0.00140017 0)
(-8.14813e-07 -0.00167219 0)
(-1.28909e-06 -0.00193011 0)
(-1.90305e-06 -0.00217391 0)
(-2.6781e-06 -0.00240359 0)
(-3.62216e-06 -0.00261914 0)
(-4.75955e-06 -0.00282054 0)
(-6.09475e-06 -0.0030078 0)
(-7.65723e-06 -0.00318088 0)
(-9.44694e-06 -0.00333979 0)
(-1.15004e-05 -0.00348451 0)
(-1.38126e-05 -0.00361504 0)
(-1.64424e-05 -0.00373135 0)
(-1.94025e-05 -0.00383344 0)
(-2.27562e-05 -0.00392129 0)
(-2.6244e-05 -0.0039949 0)
(-2.93167e-05 -0.00405419 0)
(-3.20033e-05 -0.00409915 0)
(-4.0742e-05 -0.00412983 0)
(-6.91816e-05 -0.00414703 0)
(-0.00013222 -0.00415573 0)
(-0.000267875 -0.00415316 0)
(-0.000540426 -0.00405942 0)
(-0.000327644 -0.00398051 0)
(-0.000326924 -0.00390385 0)
(-0.000343752 -0.00383111 0)
(-0.000357762 -0.0037616 0)
(-0.000367216 -0.00369465 0)
(-0.000375921 -0.00363006 0)
(-0.000385018 -0.00356771 0)
(-0.000394487 -0.00350753 0)
(-0.000404172 -0.00344944 0)
(-0.000414013 -0.00339336 0)
(-0.000423999 -0.0033392 0)
(-0.000434125 -0.00328687 0)
(-0.000444381 -0.0032363 0)
(-0.000454758 -0.0031874 0)
(-0.000465245 -0.00314012 0)
(-0.000475835 -0.00309439 0)
(-0.000486518 -0.00305015 0)
(-0.000497287 -0.00300734 0)
(-0.000508134 -0.0029659 0)
(-0.000519052 -0.00292579 0)
(-0.000530035 -0.00288693 0)
(-0.000541076 -0.0028493 0)
(-0.000552169 -0.00281282 0)
(-8.69451e-09 -0.000171599 0)
(-1.47965e-07 -0.000500322 0)
(-4.54953e-07 -0.000814594 0)
(-9.31455e-07 -0.00111443 0)
(-1.57796e-06 -0.00139986 0)
(-2.38888e-06 -0.00167091 0)
(-3.36893e-06 -0.00192759 0)
(-4.51104e-06 -0.00216992 0)
(-5.82258e-06 -0.00239789 0)
(-7.29272e-06 -0.0026115 0)
(-8.93228e-06 -0.00281074 0)
(-1.07258e-05 -0.00299561 0)
(-1.26887e-05 -0.00316608 0)
(-1.47985e-05 -0.00332214 0)
(-1.70754e-05 -0.00346374 0)
(-1.94911e-05 -0.00359086 0)
(-2.20995e-05 -0.00370346 0)
(-2.49067e-05 -0.00380148 0)
(-2.7905e-05 -0.00388489 0)
(-3.04665e-05 -0.0039536 0)
(-3.14576e-05 -0.00400749 0)
(-3.20923e-05 -0.00404638 0)
(-4.74932e-05 -0.00407039 0)
(-0.0001038 -0.0040808 0)
(-0.000193877 -0.00408396 0)
(-0.000341108 -0.00407618 0)
(-0.000565518 -0.00397098 0)
(-0.000355511 -0.00388629 0)
(-0.000350852 -0.0038041 0)
(-0.000365515 -0.0037262 0)
(-0.000377446 -0.00365192 0)
(-0.00038502 -0.00358061 0)
(-0.000392033 -0.00351203 0)
(-0.000399639 -0.00344604 0)
(-0.00040781 -0.00338255 0)
(-0.000416376 -0.00332145 0)
(-0.000425266 -0.00326264 0)
(-0.000434457 -0.003206 0)
(-0.000443929 -0.00315144 0)
(-0.000453664 -0.00309884 0)
(-0.000463641 -0.00304812 0)
(-0.000473839 -0.00299919 0)
(-0.000484242 -0.00295198 0)
(-0.000494833 -0.00290641 0)
(-0.000505596 -0.0028624 0)
(-0.000516517 -0.0028199 0)
(-0.000527583 -0.00277884 0)
(-0.000538782 -0.00273915 0)
(-0.000550102 -0.00270077 0)
(-0.000561532 -0.00266364 0)
(-5.91823e-08 -0.000169142 0)
(-5.15175e-07 -0.000493363 0)
(-1.38838e-06 -0.000803508 0)
(-2.64115e-06 -0.00109956 0)
(-4.22656e-06 -0.00138151 0)
(-6.11199e-06 -0.00164938 0)
(-8.26436e-06 -0.00190315 0)
(-1.06614e-05 -0.00214281 0)
(-1.32712e-05 -0.00236838 0)
(-1.60758e-05 -0.00257984 0)
(-1.9042e-05 -0.00277718 0)
(-2.21553e-05 -0.0029604 0)
(-2.53786e-05 -0.0031295 0)
(-2.86987e-05 -0.00328445 0)
(-3.2069e-05 -0.00342527 0)
(-3.5485e-05 -0.00355192 0)
(-3.89313e-05 -0.00366444 0)
(-4.24752e-05 -0.00376277 0)
(-4.59279e-05 -0.00384694 0)
(-4.82981e-05 -0.00391691 0)
(-4.76623e-05 -0.0039727 0)
(-4.70527e-05 -0.00401425 0)
(-7.22125e-05 -0.00404175 0)
(-0.000164424 -0.00405575 0)
(-0.00030279 -0.00405805 0)
(-0.000454879 -0.00404679 0)
(-0.000569657 -0.00393644 0)
(-0.000398339 -0.0038447 0)
(-0.000389752 -0.00375573 0)
(-0.000401647 -0.00367111 0)
(-0.000411499 -0.00359004 0)
(-0.000417692 -0.00351208 0)
(-0.000423462 -0.00343708 0)
(-0.000429874 -0.00336497 0)
(-0.000436919 -0.00329568 0)
(-0.000444451 -0.00322912 0)
(-0.000452401 -0.00316519 0)
(-0.000460745 -0.00310377 0)
(-0.000469465 -0.00304475 0)
(-0.000478538 -0.00298801 0)
(-0.000487944 -0.00293345 0)
(-0.000497661 -0.00288095 0)
(-0.00050767 -0.00283043 0)
(-0.00051795 -0.0027818 0)
(-0.000528485 -0.00273496 0)
(-0.000539257 -0.00268983 0)
(-0.000550251 -0.00264634 0)
(-0.000561451 -0.00260441 0)
(-0.000572842 -0.00256396 0)
(-0.000584411 -0.00252494 0)
(-2.30878e-08 -0.000165748 0)
(-2.49734e-07 -0.00048387 0)
(-7.03572e-07 -0.000788536 0)
(-1.37189e-06 -0.00107967 0)
(-2.23301e-06 -0.00135723 0)
(-3.27219e-06 -0.00162117 0)
(-4.473e-06 -0.00187145 0)
(-5.82593e-06 -0.00210805 0)
(-7.31453e-06 -0.00233094 0)
(-8.93203e-06 -0.00254009 0)
(-1.06608e-05 -0.0027355 0)
(-1.24973e-05 -0.00291716 0)
(-1.44214e-05 -0.00308506 0)
(-1.64324e-05 -0.0032392 0)
(-1.8504e-05 -0.0033796 0)
(-2.06464e-05 -0.00350626 0)
(-2.28598e-05 -0.00361921 0)
(-2.5211e-05 -0.00371847 0)
(-2.75498e-05 -0.00380407 0)
(-2.91232e-05 -0.00387606 0)
(-2.85379e-05 -0.0039345 0)
(-2.87795e-05 -0.00397954 0)
(-4.88832e-05 -0.00401123 0)
(-0.000126806 -0.00403075 0)
(-0.00025775 -0.00403476 0)
(-0.000472496 -0.00400363 0)
(-0.000442353 -0.0039003 0)
(-0.000352622 -0.00379747 0)
(-0.00034981 -0.00370034 0)
(-0.000361469 -0.00360863 0)
(-0.000371478 -0.00352063 0)
(-0.000379331 -0.00343599 0)
(-0.00038708 -0.00335461 0)
(-0.000395393 -0.00327642 0)
(-0.000404252 -0.00320135 0)
(-0.000413555 -0.00312928 0)
(-0.000423254 -0.00306011 0)
(-0.00043333 -0.00299372 0)
(-0.000443766 -0.00292997 0)
(-0.000454544 -0.00286875 0)
(-0.000465645 -0.00280994 0)
(-0.000477051 -0.00275343 0)
(-0.000488743 -0.00269912 0)
(-0.000500704 -0.00264691 0)
(-0.000512917 -0.00259671 0)
(-0.000525365 -0.00254843 0)
(-0.000538033 -0.00250197 0)
(-0.000550905 -0.00245726 0)
(-0.000563966 -0.00241422 0)
(-0.000577202 -0.00237278 0)
(1.88301e-08 -0.000166013 0)
(1.47401e-07 -0.000484431 0)
(3.80999e-07 -0.000789195 0)
(7.01581e-07 -0.00108026 0)
(1.09111e-06 -0.00135761 0)
(1.53323e-06 -0.00162121 0)
(2.01594e-06 -0.00187106 0)
(2.52538e-06 -0.00210712 0)
(3.05166e-06 -0.00232938 0)
(3.58086e-06 -0.00253783 0)
(4.1044e-06 -0.00273244 0)
(4.60716e-06 -0.00291321 0)
(5.08165e-06 -0.00308011 0)
(5.51132e-06 -0.00323315 0)
(5.89088e-06 -0.0033723 0)
(6.19488e-06 -0.00349757 0)
(6.39098e-06 -0.00360894 0)
(6.40773e-06 -0.00370641 0)
(6.33581e-06 -0.00378997 0)
(6.78944e-06 -0.00385963 0)
(8.88083e-06 -0.00391538 0)
(9.84572e-06 -0.00395728 0)
(-5.46083e-06 -0.00398529 0)
(-7.56481e-05 -0.00400143 0)
(-0.000212807 -0.0040047 0)
(-0.000510777 -0.0039304 0)
(-0.000304273 -0.00381223 0)
(-0.000294515 -0.00370281 0)
(-0.000307858 -0.00360031 0)
(-0.000320902 -0.00350268 0)
(-0.000330076 -0.00340875 0)
(-0.000338697 -0.00331835 0)
(-0.000347974 -0.00323146 0)
(-0.000357953 -0.00314802 0)
(-0.000368483 -0.00306795 0)
(-0.000379489 -0.00299114 0)
(-0.000390942 -0.00291746 0)
(-0.000402822 -0.00284679 0)
(-0.000415106 -0.002779 0)
(-0.00042777 -0.00271397 0)
(-0.000440792 -0.00265159 0)
(-0.000454149 -0.00259173 0)
(-0.000467819 -0.00253429 0)
(-0.000481781 -0.00247917 0)
(-0.000496015 -0.00242626 0)
(-0.0005105 -0.00237548 0)
(-0.000525219 -0.00232672 0)
(-0.000540153 -0.00227989 0)
(-0.000555285 -0.00223492 0)
(-0.000570597 -0.00219171 0)
(2.26758e-08 -0.000167385 0)
(2.53338e-07 -0.000488271 0)
(7.18794e-07 -0.000795244 0)
(1.4043e-06 -0.00108827 0)
(2.28787e-06 -0.00136735 0)
(3.349e-06 -0.00163246 0)
(4.57094e-06 -0.00188359 0)
(5.9353e-06 -0.00212073 0)
(7.42613e-06 -0.00234387 0)
(9.0244e-06 -0.00255298 0)
(1.07146e-05 -0.00274806 0)
(1.24769e-05 -0.0029291 0)
(1.42966e-05 -0.00309606 0)
(1.61541e-05 -0.00324896 0)
(1.80364e-05 -0.00338775 0)
(1.99186e-05 -0.00351244 0)
(2.17628e-05 -0.00362301 0)
(2.35082e-05 -0.00371943 0)
(2.52365e-05 -0.00380169 0)
(2.75235e-05 -0.00386978 0)
(3.13508e-05 -0.00392368 0)
(3.39608e-05 -0.0039634 0)
(2.20392e-05 -0.00398889 0)
(-4.30187e-05 -0.00400259 0)
(-0.000189401 -0.00400532 0)
(-0.000497021 -0.00387234 0)
(-0.000253781 -0.00374771 0)
(-0.00025679 -0.00362924 0)
(-0.000272122 -0.00351687 0)
(-0.000283807 -0.00340947 0)
(-0.000291446 -0.00330629 0)
(-0.000299225 -0.00320715 0)
(-0.000308158 -0.003112 0)
(-0.000318115 -0.00302075 0)
(-0.000328888 -0.00293331 0)
(-0.000340383 -0.00284954 0)
(-0.000352554 -0.00276931 0)
(-0.000365363 -0.00269247 0)
(-0.000378768 -0.00261888 0)
(-0.000392728 -0.00254841 0)
(-0.000407203 -0.00248092 0)
(-0.000422157 -0.00241628 0)
(-0.000437554 -0.00235438 0)
(-0.000453359 -0.00229511 0)
(-0.000469542 -0.00223833 0)
(-0.00048607 -0.00218396 0)
(-0.000502916 -0.00213188 0)
(-0.000520051 -0.00208198 0)
(-0.000537449 -0.00203418 0)
(-0.000555086 -0.00198838 0)
(4.46162e-08 -0.000169227 0)
(4.5985e-07 -0.000493631 0)
(1.29562e-06 -0.000803942 0)
(2.53209e-06 -0.00110012 0)
(4.13511e-06 -0.00138213 0)
(6.08028e-06 -0.00164997 0)
(8.34025e-06 -0.00190361 0)
(1.08964e-05 -0.00214304 0)
(1.37193e-05 -0.00236823 0)
(1.67927e-05 -0.00257917 0)
(2.0084e-05 -0.00277584 0)
(2.35806e-05 -0.00295823 0)
(2.72461e-05 -0.00312632 0)
(3.10744e-05 -0.0032801 0)
(3.50247e-05 -0.00341956 0)
(3.90943e-05 -0.00354468 0)
(4.32095e-05 -0.00365546 0)
(4.73466e-05 -0.00375188 0)
(5.15383e-05 -0.00383394 0)
(5.63985e-05 -0.00390164 0)
(6.27966e-05 -0.00395495 0)
(6.80211e-05 -0.00399389 0)
(5.9248e-05 -0.00401843 0)
(-2.13321e-06 -0.00403111 0)
(-0.000157795 -0.00403447 0)
(-0.000462617 -0.00386888 0)
(-0.000205342 -0.00372347 0)
(-0.000212807 -0.00358597 0)
(-0.000226581 -0.00345577 0)
(-0.000236022 -0.00333173 0)
(-0.000241909 -0.00321309 0)
(-0.000248555 -0.0030996 0)
(-0.000256818 -0.00299111 0)
(-0.00026649 -0.00288747 0)
(-0.000277334 -0.00278849 0)
(-0.000289237 -0.00269401 0)
(-0.000302135 -0.00260383 0)
(-0.000315963 -0.00251776 0)
(-0.000330659 -0.00243562 0)
(-0.000346159 -0.00235725 0)
(-0.000362402 -0.00228246 0)
(-0.000379331 -0.00221112 0)
(-0.000396891 -0.00214306 0)
(-0.000415029 -0.00207814 0)
(-0.000433697 -0.00201622 0)
(-0.000452846 -0.00195717 0)
(-0.000472432 -0.00190086 0)
(-0.000492414 -0.00184715 0)
(-0.000512751 -0.00179593 0)
(-0.000533406 -0.00174707 0)
(7.3459e-08 -0.000172936 0)
(7.65533e-07 -0.000504363 0)
(2.16051e-06 -0.000821306 0)
(4.22811e-06 -0.00112373 0)
(6.91266e-06 -0.00141162 0)
(1.01776e-05 -0.00168495 0)
(1.39797e-05 -0.00194372 0)
(1.82937e-05 -0.00218791 0)
(2.30737e-05 -0.00241749 0)
(2.82999e-05 -0.00263248 0)
(3.39207e-05 -0.00283283 0)
(3.99246e-05 -0.00301856 0)
(4.6252e-05 -0.00318964 0)
(5.29038e-05 -0.00334607 0)
(5.98098e-05 -0.00348784 0)
(6.69818e-05 -0.00361495 0)
(7.43052e-05 -0.00372738 0)
(8.17774e-05 -0.00382514 0)
(8.93837e-05 -0.00390821 0)
(9.78281e-05 -0.00397662 0)
(0.000108009 -0.00403033 0)
(0.000117152 -0.00406934 0)
(0.000111003 -0.00409363 0)
(4.8883e-05 -0.00410568 0)
(-0.000112975 -0.00410937 0)
(-0.000411445 -0.00391651 0)
(-0.000145223 -0.00374541 0)
(-0.00015922 -0.00358443 0)
(-0.000170557 -0.00343175 0)
(-0.000177481 -0.00328625 0)
(-0.000181737 -0.00314719 0)
(-0.00018751 -0.00301434 0)
(-0.000195409 -0.00288754 0)
(-0.000205148 -0.00276664 0)
(-0.000216471 -0.00265143 0)
(-0.000229249 -0.00254173 0)
(-0.000243391 -0.00243731 0)
(-0.000258811 -0.00233795 0)
(-0.000275418 -0.00224346 0)
(-0.000293126 -0.00215362 0)
(-0.000311849 -0.00206824 0)
(-0.000331508 -0.00198712 0)
(-0.000352024 -0.00191007 0)
(-0.000373323 -0.00183692 0)
(-0.000395335 -0.00176749 0)
(-0.000417991 -0.00170159 0)
(-0.00044123 -0.00163908 0)
(-0.000464988 -0.00157977 0)
(-0.00048921 -0.00152352 0)
(-0.000513842 -0.00147018 0)
(-0.00046438 -0.00399491 0)
(-0.000470907 -0.00396791 0)
(-0.000477485 -0.00394119 0)
(-0.000484107 -0.00391472 0)
(-0.000490768 -0.00388848 0)
(-0.000497462 -0.00386244 0)
(-0.000504185 -0.00383659 0)
(-0.000510931 -0.0038109 0)
(-0.000517696 -0.00378537 0)
(-0.000524476 -0.00375996 0)
(-0.000531266 -0.00373468 0)
(-0.000538061 -0.0037095 0)
(-0.000544859 -0.00368441 0)
(-0.000551656 -0.00365941 0)