/*--------------------------------*- C++ -*----------------------------------*\
| =========                 |                                                 |
| \\      /  F ield         | OpenFOAM: The Open Source CFD Toolbox           |
|  \\    /   O peration     | Version:  2.4.0                                 |
|   \\  /    A nd           | Web:      www.OpenFOAM.org                      |
|    \\/     M anipulation  |                                                 |
\*---------------------------------------------------------------------------*/
FoamFile
{
    version     2.0;
    format      ascii;
    class       surfaceScalarField;
    location    "4.7";
    object      phi;
}
// * * * * * * * * * * * * * * * * * * * * * * * * * * * * * * * * * * * * * //

dimensions      [0 3 -1 0 0 0 0];

internalField   nonuniform List<scalar> 
220
(
1.13999e-15
-1.99679e-10
1.19666e-15
-1.99634e-10
-4.52967e-16
-1.99566e-10
-1.28677e-15
-1.99596e-10
-1.99693e-10
1.06811e-15
-1.9968e-10
1.11886e-15
-1.99634e-10
-4.13805e-16
-1.99564e-10
-1.1829e-15
-1.99595e-10
-1.99695e-10
9.97861e-16
-1.99681e-10
1.04312e-15
-1.99634e-10
-3.75729e-16
-1.99563e-10
-1.08215e-15
-1.99594e-10
-1.99696e-10
9.29275e-16
-1.99682e-10
9.6946e-16
-1.99634e-10
-3.38755e-16
-1.99562e-10
-9.84542e-16
-1.99594e-10
-1.99697e-10
8.62382e-16
-1.99683e-10
8.97895e-16
-1.99634e-10
-3.02896e-16
-1.9956e-10
-8.90092e-16
-1.99593e-10
-1.99698e-10
7.97214e-16
-1.99684e-10
8.28441e-16
-1.99634e-10
-2.68161e-16
-1.99559e-10
-7.98811e-16
-1.99593e-10
-1.99698e-10
7.33797e-16
-1.99684e-10
7.61114e-16
-1.99634e-10
-2.34563e-16
-1.99558e-10
-7.10708e-16
-1.99592e-10
-1.99699e-10
6.72159e-16
-1.99685e-10
6.95924e-16
-1.99634e-10
-2.02109e-16
-1.99557e-10
-6.25787e-16
-1.99592e-10
-1.997e-10
6.12322e-16
-1.99686e-10
6.32883e-16
-1.99634e-10
-1.70806e-16
-1.99557e-10
-5.4405e-16
-1.99591e-10
-1.997e-10
5.54309e-16
-1.99686e-10
5.71997e-16
-1.99634e-10
-1.40661e-16
-1.99556e-10
-4.65496e-16
-1.99591e-10
-1.99701e-10
4.9814e-16
-1.99687e-10
5.13273e-16
-1.99634e-10
-1.11678e-16
-1.99555e-10
-3.90121e-16
-1.99591e-10
-1.99701e-10
4.43832e-16
-1.99687e-10
4.56713e-16
-1.99634e-10
-8.38593e-17
-1.99555e-10
-3.17915e-16
-1.9959e-10
-1.99701e-10
3.91399e-16
-1.99688e-10
4.02319e-16
-1.99634e-10
-5.72065e-17
-1.99554e-10
-2.48868e-16
-1.9959e-10
-1.99702e-10
3.40855e-16
-1.99688e-10
3.5009e-16
-1.99634e-10
-3.17191e-17
-1.99554e-10
-1.82964e-16
-1.9959e-10
-1.99702e-10
2.9221e-16
-1.99688e-10
3.00023e-16
-1.99634e-10
-7.39527e-18
-1.99554e-10
-1.20185e-16
-1.9959e-10
-1.99702e-10
2.45471e-16
-1.99688e-10
2.5211e-16
-1.99634e-10
1.57687e-17
-1.99553e-10
-6.05073e-17
-1.9959e-10
-1.99702e-10
2.00643e-16
-1.99689e-10
2.06345e-16
-1.99634e-10
3.77782e-17
-1.99553e-10
-3.90587e-18
-1.9959e-10
-1.99702e-10
1.5773e-16
-1.99689e-10
1.62715e-16
-1.99634e-10
5.86402e-17
-1.99553e-10
4.96505e-17
-1.9959e-10
-1.99702e-10
1.1673e-16
-1.99689e-10
1.21209e-16
-1.99634e-10
7.83636e-17
-1.99553e-10
1.00194e-16
-1.9959e-10
-1.99702e-10
7.76405e-17
-1.99689e-10
8.1809e-17
-1.99634e-10
9.69589e-17
-1.99553e-10
1.47762e-16
-1.9959e-10
-1.99702e-10
4.04553e-17
-1.99689e-10
4.44981e-17
-1.99634e-10
1.14439e-16
-1.99553e-10
1.92395e-16
-1.9959e-10
-1.99702e-10
5.1655e-18
-1.99689e-10
9.25459e-18
-1.99634e-10
1.30817e-16
-1.99553e-10
2.34139e-16
-1.9959e-10
-1.99701e-10
-2.82412e-17
-1.99689e-10
-2.39461e-17
-1.99634e-10
1.46111e-16
-1.99553e-10
2.73042e-16
-1.9959e-10
-1.99701e-10
-5.97802e-17
-1.99689e-10
-5.51302e-17
-1.99634e-10
1.60339e-16
-1.99554e-10
3.0916e-16
-1.9959e-10
-1.99701e-10
-8.94701e-17
-8.43276e-17
1.7352e-16
3.42549e-16
)
;

boundaryField
{
    BotWall
    {
        type            calculated;
        value           nonuniform 0();
    }
    FreeStream
    {
        type            calculated;
        value           nonuniform 0();
    }
    FrontNBack
    {
        type            empty;
        value           nonuniform 0();
    }
    LeftSide
    {
        type            symmetryPlane;
        value           uniform 0;
    }
    RightSide
    {
        type            symmetryPlane;
        value           uniform 0;
    }
    procBoundary2to1
    {
        type            processor;
        value           nonuniform List<scalar> 5(1.99678e-10 1.99633e-10 1.99568e-10 1.99597e-10 1.99692e-10);
    }
    procBoundary2to3
    {
        type            processor;
        value           nonuniform List<scalar> 5(-1.99689e-10 -1.99634e-10 -1.99554e-10 -1.99591e-10 -1.997e-10);
    }
}


// ************************************************************************* //
