/*--------------------------------*- C++ -*----------------------------------*\
| =========                 |                                                 |
| \\      /  F ield         | OpenFOAM: The Open Source CFD Toolbox           |
|  \\    /   O peration     | Version:  2.4.0                                 |
|   \\  /    A nd           | Web:      www.OpenFOAM.org                      |
|    \\/     M anipulation  |                                                 |
\*---------------------------------------------------------------------------*/
FoamFile
{
    version     2.0;
    format      ascii;
    class       volScalarField;
    location    "2.2";
    object      H;
}
// * * * * * * * * * * * * * * * * * * * * * * * * * * * * * * * * * * * * * //

dimensions      [0 2 -2 0 0 0 0];

internalField   nonuniform List<scalar> 
125
(
-11892.9
-11892.9
-11892.9
-11892.9
-11892.9
-11215
-11215
-11215
-11215
-11215
-10529.5
-10529.5
-10529.5
-10529.5
-10529.5
-9836.17
-9836.16
-9836.15
-9836.16
-9836.17
-9134.99
-9134.98
-9134.97
-9134.97
-9134.99
-8425.79
-8425.77
-8425.76
-8425.77
-8425.79
-7708.43
-7708.41
-7708.4
-7708.41
-7708.44
-6982.78
-6982.75
-6982.73
-6982.75
-6982.78
-6248.67
-6248.65
-6248.63
-6248.64
-6248.68
-5505.97
-5505.95
-5505.92
-5505.94
-5505.98
-4754.52
-4754.49
-4754.46
-4754.48
-4754.53
-3994.17
-3994.13
-3994.1
-3994.12
-3994.17
-3224.74
-3224.7
-3224.67
-3224.69
-3224.75
-2446.08
-2446.04
-2446
-2446.02
-2446.09
-1658.01
-1657.97
-1657.93
-1657.95
-1658.02
-860.376
-860.325
-860.277
-860.307
-860.384
-15.1467
-15.1444
-15.1421
-15.1435
-15.1471
-11.2809
-11.2791
-11.2774
-11.2784
-11.2812
-11.3129
-11.3112
-11.3095
-11.3106
-11.3132
-11.343
-11.3412
-11.3396
-11.3406
-11.3432
-11.3708
-11.3691
-11.3675
-11.3685
-11.3711
-11.3965
-11.3948
-11.3932
-11.3942
-11.3967
-11.4198
-11.4181
-11.4166
-11.4176
-11.42
-11.4406
-11.439
-11.4375
-11.4385
-11.4409
-11.459
-11.4574
-11.4559
-11.4568
-11.4592
)
;

boundaryField
{
    BotWall
    {
        type            zeroGradient;
    }
    FreeStream
    {
        type            zeroGradient;
    }
    FrontNBack
    {
        type            empty;
    }
    LeftSide
    {
        type            symmetryPlane;
    }
    RightSide
    {
        type            symmetryPlane;
    }
    procBoundary0to1
    {
        type            processor;
        value           nonuniform List<scalar> 5(-11.4741 -11.4725 -11.4711 -11.472 -11.4743);
    }
}


// ************************************************************************* //
