/*--------------------------------*- C++ -*----------------------------------*\
| =========                 |                                                 |
| \\      /  F ield         | OpenFOAM: The Open Source CFD Toolbox           |
|  \\    /   O peration     | Version:  2.4.0                                 |
|   \\  /    A nd           | Web:      www.OpenFOAM.org                      |
|    \\/     M anipulation  |                                                 |
\*---------------------------------------------------------------------------*/
FoamFile
{
    version     2.0;
    format      ascii;
    class       volScalarField;
    location    "2.2";
    object      T;
}
// * * * * * * * * * * * * * * * * * * * * * * * * * * * * * * * * * * * * * //

dimensions      [0 0 0 1 0 0 0];

internalField   nonuniform List<scalar> 
125
(
293.138
293.138
293.138
293.138
293.138
293.415
293.415
293.415
293.415
293.415
293.695
293.695
293.695
293.695
293.695
293.979
293.979
293.979
293.979
293.979
294.265
294.265
294.265
294.265
294.265
294.555
294.555
294.555
294.555
294.555
294.849
294.849
294.849
294.849
294.849
295.145
295.145
295.145
295.145
295.145
295.445
295.445
295.445
295.445
295.445
295.749
295.749
295.749
295.749
295.749
296.056
296.056
296.056
296.056
296.056
296.367
296.367
296.367
296.367
296.367
296.682
296.682
296.682
296.682
296.682
297
297
297
297
297
297.322
297.322
297.322
297.322
297.322
297.648
297.648
297.648
297.648
297.648
297.994
297.994
297.994
297.994
297.994
297.994
297.994
297.994
297.994
297.994
297.994
297.994
297.994
297.994
297.994
297.994
297.994
297.994
297.994
297.994
297.994
297.994
297.994
297.994
297.994
297.994
297.994
297.994
297.994
297.994
297.994
297.994
297.994
297.994
297.994
297.994
297.994
297.994
297.994
297.994
297.994
297.994
297.994
297.994
297.994
)
;

boundaryField
{
    BotWall
    {
        type            fixedValue;
        value           uniform 293;
    }
    FreeStream
    {
        type            fixedValue;
        value           nonuniform 0();
    }
    FrontNBack
    {
        type            empty;
    }
    LeftSide
    {
        type            symmetryPlane;
    }
    RightSide
    {
        type            symmetryPlane;
    }
    procBoundary0to1
    {
        type            processor;
        value           nonuniform List<scalar> 5(297.994 297.994 297.994 297.994 297.994);
    }
}


// ************************************************************************* //
