/*--------------------------------*- C++ -*----------------------------------*\
| =========                 |                                                 |
| \\      /  F ield         | OpenFOAM: The Open Source CFD Toolbox           |
|  \\    /   O peration     | Version:  2.4.0                                 |
|   \\  /    A nd           | Web:      www.OpenFOAM.org                      |
|    \\/     M anipulation  |                                                 |
\*---------------------------------------------------------------------------*/
FoamFile
{
    version     2.0;
    format      ascii;
    class       volVectorField;
    location    "2.2";
    object      U;
}
// * * * * * * * * * * * * * * * * * * * * * * * * * * * * * * * * * * * * * //

dimensions      [0 1 -1 0 0 0 0];

internalField   nonuniform List<vector> 
125
(
(4.19285e-10 2.93019e-10 0)
(9.22808e-10 2.99773e-10 0)
(1.85331e-10 3.01956e-10 0)
(-9.77983e-10 3.00537e-10 0)
(-6.53191e-10 2.92674e-10 0)
(1.27813e-09 -7.22241e-10 0)
(2.79382e-09 -7.12437e-10 0)
(5.58408e-10 -6.88163e-10 0)
(-2.96349e-09 -7.03839e-10 0)
(-1.98637e-09 -7.26365e-10 0)
(2.1611e-09 1.28823e-09 0)
(4.70018e-09 1.37545e-09 0)
(9.35996e-10 1.44589e-09 0)
(-4.98936e-09 1.40074e-09 0)
(-3.35316e-09 1.27609e-09 0)
(3.07202e-09 -2.00091e-09 0)
(6.64623e-09 -1.89595e-09 0)
(1.3183e-09 -1.75293e-09 0)
(-7.06035e-09 -1.84472e-09 0)
(-4.75809e-09 -2.02565e-09 0)
(4.00801e-09 1.14353e-09 0)
(8.62956e-09 1.40818e-09 0)
(1.70533e-09 1.64842e-09 0)
(-9.17397e-09 1.49462e-09 0)
(-6.1983e-09 1.10164e-09 0)
(4.97504e-09 -4.96775e-09 0)
(1.06573e-08 -4.66525e-09 0)
(2.09802e-09 -4.29918e-09 0)
(-1.13377e-08 -4.5338e-09 0)
(-7.68115e-09 -5.03166e-09 0)
(5.96868e-09 6.25637e-09 0)
(1.27258e-08 6.81339e-09 0)
(2.49686e-09 7.33176e-09 0)
(-1.35485e-08 6.99996e-09 0)
(-9.2033e-09 6.1654e-09 0)
(6.99648e-09 2.06176e-08 0)
(1.48434e-08 2.12476e-08 0)
(2.9022e-09 2.1952e-08 0)
(-1.58148e-08 2.15008e-08 0)
(-1.07731e-08 2.04938e-08 0)
(8.05299e-09 5.06617e-08 0)
(1.70055e-08 5.16124e-08 0)
(3.31447e-09 5.25323e-08 0)
(-1.81326e-08 5.19437e-08 0)
(-1.23859e-08 5.04992e-08 0)
(9.14614e-09 -9.18504e-08 0)
(1.92208e-08 -9.09504e-08 0)
(3.73404e-09 -8.97937e-08 0)
(-2.05106e-08 -9.05346e-08 0)
(-1.40503e-08 -9.20553e-08 0)
(1.02687e-08 -6.58081e-07 0)
(2.14827e-08 -6.56987e-07 0)
(4.16119e-09 -6.55622e-07 0)
(-2.29428e-08 -6.56497e-07 0)
(-1.57603e-08 -6.58324e-07 0)
(1.14294e-08 -1.21727e-06 0)
(2.38e-08 -1.21571e-06 0)
(4.59604e-09 -1.21415e-06 0)
(-2.54385e-08 -1.21515e-06 0)
(-1.7525e-08 -1.21755e-06 0)
(1.26317e-08 2.28589e-06 0)
(2.6177e-08 2.2905e-06 0)
(5.03924e-09 2.29266e-06 0)
(-2.80024e-08 2.29128e-06 0)
(-1.93492e-08 2.2855e-06 0)
(1.39096e-08 1.73714e-05 0)
(2.86549e-08 1.73802e-05 0)
(5.49347e-09 1.73844e-05 0)
(-3.0677e-08 1.73817e-05 0)
(-2.12712e-08 1.73706e-05 0)
(1.52556e-08 3.14158e-05 0)
(3.12255e-08 3.14212e-05 0)
(5.95954e-09 3.14294e-05 0)
(-3.34596e-08 3.14242e-05 0)
(-2.32899e-08 3.14144e-05 0)
(1.65554e-08 -6.14436e-05 0)
(3.38501e-08 -6.14741e-05 0)
(6.46418e-09 -6.14755e-05 0)
(-3.631e-08 -6.14747e-05 0)
(-2.53163e-08 -6.14434e-05 0)
(1.74372e-08 -0.000452088 0)
(3.59637e-08 -0.000452132 0)
(6.93433e-09 -0.000452152 0)
(-3.86352e-08 -0.00045214 0)
(-2.68781e-08 -0.000452085 0)
(1.78022e-08 -0.00107397 0)
(3.64933e-08 -0.00107394 0)
(6.99781e-09 -0.00107394 0)
(-3.91928e-08 -0.00107394 0)
(-2.73346e-08 -0.00107398 0)
(1.83737e-08 -0.00247865 0)
(3.6549e-08 -0.0024786 0)
(6.79221e-09 -0.00247859 0)
(-3.91379e-08 -0.0024786 0)
(-2.75684e-08 -0.00247865 0)
(1.71017e-08 -0.00153795 0)
(3.4519e-08 -0.00153799 0)
(6.49556e-09 -0.001538 0)
(-3.69591e-08 -0.00153799 0)
(-2.58318e-08 -0.00153794 0)
(1.62089e-08 -0.0014292 0)
(3.28846e-08 -0.00142921 0)
(6.20694e-09 -0.00142921 0)
(-3.51803e-08 -0.00142921 0)
(-2.44886e-08 -0.00142919 0)
(1.55689e-08 -0.00144932 0)
(3.15337e-08 -0.00144932 0)
(5.93161e-09 -0.00144932 0)
(-3.36918e-08 -0.00144932 0)
(-2.34203e-08 -0.00144932 0)
(1.49541e-08 -0.00147582 0)
(3.0232e-08 -0.00147582 0)
(5.66695e-09 -0.00147582 0)
(-3.2258e-08 -0.00147582 0)
(-2.23953e-08 -0.00147582 0)
(1.43078e-08 -0.00148137 0)
(2.89163e-08 -0.00148137 0)
(5.4105e-09 -0.00148138 0)
(-3.08152e-08 -0.00148137 0)
(-2.13537e-08 -0.00148137 0)
(1.36594e-08 -0.00148029 0)
(2.7615e-08 -0.00148029 0)
(5.16179e-09 -0.00148029 0)
(-2.9391e-08 -0.00148029 0)
(-2.03235e-08 -0.00148029 0)
)
;

boundaryField
{
    BotWall
    {
        type            fixedValue;
        value           uniform (0 0 0);
    }
    FreeStream
    {
        type            zeroGradient;
    }
    FrontNBack
    {
        type            empty;
    }
    LeftSide
    {
        type            symmetryPlane;
    }
    RightSide
    {
        type            symmetryPlane;
    }
    procBoundary0to1
    {
        type            processor;
        value           nonuniform List<vector> 5((1.30288e-08 -0.00147923 0) (2.63484e-08 -0.00147924 0) (4.92084e-09 -0.00147924 0) (-2.80061e-08 -0.00147924 0) (-1.93251e-08 -0.00147923 0));
    }
}


// ************************************************************************* //
