/*--------------------------------*- C++ -*----------------------------------*\
| =========                 |                                                 |
| \\      /  F ield         | OpenFOAM: The Open Source CFD Toolbox           |
|  \\    /   O peration     | Version:  2.4.0                                 |
|   \\  /    A nd           | Web:      www.OpenFOAM.org                      |
|    \\/     M anipulation  |                                                 |
\*---------------------------------------------------------------------------*/
FoamFile
{
    version     2.0;
    format      ascii;
    class       volScalarField;
    location    "3.9";
    object      H;
}
// * * * * * * * * * * * * * * * * * * * * * * * * * * * * * * * * * * * * * //

dimensions      [0 2 -2 0 0 0 0];

internalField   nonuniform List<scalar> 
8000
(
-11970.7
-11456.5
-10953.7
-10466.1
-9995.25
-9540.95
-9101.52
-8674.35
-8256.11
-7842.83
-7430.07
-7012.86
-6585.84
-6143.29
-5679.5
-5189.02
-4667.07
-4109.94
-3517.38
-2897.11
-2252.56
-1473.8
-540.107
-106.105
-0.264824
-0.0159105
-0.0137751
-0.00962109
-0.00371517
-0.0815041
-0.144668
-0.197305
-0.239055
-0.268038
-0.283685
-0.287852
-0.283614
-0.273941
-0.26114
-0.246836
-0.232088
-0.217548
-0.203595
-0.190373
-0.177874
-0.166344
-0.155861
-0.146035
-0.136746
-0.128074
-11948.4
-11390.2
-10845.2
-10318.5
-9812.74
-9329.23
-8868.02
-8428.47
-8009.36
-7609.01
-7225.34
-6855.88
-6497.79
-6147.87
-5802.6
-5458.18
-5110.61
-4755.87
-4390.13
-4010.3
-3612.91
-3189.53
-2740.89
-2299.8
-1884.27
-1464.32
-1023.13
-558.663
-157.168
-0.335906
-0.0346066
-0.027088
-0.0180604
-0.00801199
-4.22195e-05
-0.0106247
-0.0217845
-0.0328322
-0.0441889
-0.0566444
-0.0707546
-0.0860437
-0.10079
-0.113337
-0.123053
-0.12978
-0.133677
-0.135181
-0.135
-0.133642
-11927.5
-11325.8
-10733.3
-10154.3
-9592.09
-9048.97
-8526.6
-8026.06
-7547.98
-7092.61
-6659.79
-6249.03
-5859.46
-5489.87
-5138.64
-4803.81
-4483.05
-4173.68
-3872.8
-3577.35
-3284.28
-2990.49
-2693.77
-2395.01
-2097.19
-1802.12
-1510.77
-1225.73
-956.067
-718.284
-517.175
-346.553
-200.777
-82.5005
-0.0944561
-0.000118756
-0.0055765
-0.0134808
-0.0234978
-0.0354755
-0.0489353
-0.0629653
-0.0764946
-0.0885028
-0.0980919
-0.104719
-0.108479
-0.11023
-0.111142
-0.111823
-11910.6
-11273.8
-10642.8
-10021.2
-9412.16
-8818.38
-8242.06
-7684.99
-7148.61
-6634.02
-6142.09
-5673.36
-5228.08
-4806.15
-4407.13
-4030.2
-3674.19
-3337.57
-3018.5
-2714.87
-2424.47
-2145.22
-1875.46
-1614.63
-1363.64
-1124.89
-901.972
-699.344
-521.329
-371.755
-251.804
-159.028
-89.3926
-41.5369
-13.0413
-0.0147053
-0.000145966
-0.0588202
-0.10221
-0.132145
-0.148847
-0.154593
-0.152146
-0.144516
-0.134262
-0.123045
-0.111807
-0.101098
-0.0912458
-0.0825568
-11895.8
-11229.4
-10569
-9917.45
-9277.77
-8652.38
-8043.33
-7452.38
-6881
-6330.49
-5801.91
-5296.06
-4813.42
-4354.1
-3917.79
-3503.77
-3110.98
-2738.13
-2383.88
-2047.2
-1727.81
-1426.69
-1146.47
-890.986
-663.656
-465.507
-293.931
-144.457
-0.218543
-0.00316839
-0.00182613
-0.00116374
-0.000697104
-0.000324739
-9.65057e-05
-0.00013817
-0.107073
-0.196593
-0.251672
-0.267672
-0.252973
-0.223272
-0.192313
-0.164538
-0.140776
-0.120995
-0.103883
-0.0889287
-0.0768103
-0.0675088
-11876.9
-11172.6
-10474
-9784.64
-9107.57
-8445.08
-7799.01
-7170.86
-6561.93
-5973.42
-5406.29
-4861.18
-4338.24
-3836.87
-3355.78
-2893.8
-2449.71
-2023.16
-1616.95
-1239.26
-900.313
-609.2
-368.887
-174.869
-0.24733
-0.0169119
-0.0217937
-0.0145306
-0.17328
-0.163144
-0.000492257
-0.182162
-0.253009
-0.22419
-0.182401
-0.180537
-0.206183
-0.238731
-0.258058
-0.261513
-0.246672
-0.219823
-0.1874
-0.154637
-0.126982
-0.106557
-0.0906921
-0.0785169
-0.0701498
-0.0643685
-11860.5
-11124.1
-10395.4
-9678.81
-8977.15
-8292.04
-7624.34
-6974.65
-6343.51
-5731.43
-5138.79
-4565.45
-4010.29
-3470.85
-2943.61
-2425.21
-1913.95
-1412.85
-917.223
-419.273
-128.395
-0.166093
-0.00378891
-0.00193427
-0.000218131
-0.162545
-0.240733
-0.308852
-0.398622
-0.455619
-0.509413
-0.594358
-0.633378
-0.631441
-0.603487
-0.550669
-0.487044
-0.447046
-0.411799
-0.381393
-0.353803
-0.323749
-0.293762
-0.268215
-0.243054
-0.219195
-0.199871
-0.183896
-0.168931
-0.155206
-11840
-11064.1
-10299
-9548.62
-8814.27
-8095.91
-7392.82
-6704.09
-6028.84
-5366.06
-4714.22
-4070.61
-3430.69
-2787.61
-2130.98
-1442.61
-692.807
-230.762
-0.406182
-0.0105872
-0.00365642
-0.133536
-0.243327
-0.324968
-0.379428
-0.408996
-0.43807
-0.481242
-0.537463
-0.547072
-0.526244
-0.492877
-0.451865
-0.412085
-0.384357
-0.355536
-0.329066
-0.298371
-0.267596
-0.243929
-0.224935
-0.209291
-0.196581
-0.18598
-0.177262
-0.169875
-0.163504
-0.157957
-0.153039
-0.148501
-11820.7
-11005.7
-10198.5
-9400.06
-8609.77
-7826.2
-7047.81
-6273.14
-5501.06
-4731.06
-3963.65
-3200.23
-2440.64
-1674.26
-864.646
-1.13783
-0.0248042
-0.0170221
-0.089112
-0.151573
-0.199159
-0.230016
-0.250832
-0.263518
-0.268958
-0.271197
-0.269704
-0.258903
-0.238313
-0.22049
-0.207288
-0.19589
-0.185112
-0.174672
-0.164707
-0.155644
-0.147715
-0.140067
-0.132391
-0.125666
-0.120465
-0.116163
-0.112313
-0.108959
-0.106315
-0.104622
-0.103158
-0.101936
-0.100958
-0.100499
-11807.1
-10960.2
-10110.3
-9256.06
-8396.86
-7532.35
-6662.74
-5788.78
-4911.92
-4034.5
-3159.38
-2286.68
-1397.07
-397.785
-0.955067
-0.74202
-0.621518
-0.50982
-0.411842
-0.33518
-0.277102
-0.233816
-0.201658
-0.17737
-0.158652
-0.143988
-0.132056
-0.122189
-0.114318
-0.108207
-0.103754
-0.10098
-0.098814
-0.096187
-0.0940192
-0.0923885
-0.0913012
-0.0904099
-0.089636
-0.089123
-0.0889021
-0.0886831
-0.0879447
-0.0875851
-0.0873623
-0.0873277
-0.0874429
-0.0873323
-0.0872202
-0.0870497
-11803.7
-10947.6
-10081.8
-9203.18
-8309.77
-7400.88
-6476.5
-5536.9
-4581.94
-3610.45
-2622.58
-1627.25
-638.423
-1.05911
-0.875469
-0.650549
-0.559079
-0.479579
-0.407805
-0.341275
-0.279343
-0.224262
-0.179399
-0.146177
-0.123352
-0.10873
-0.0999043
-0.0948301
-0.0921466
-0.0910883
-0.0905351
-0.0898766
-0.0889445
-0.0881325
-0.0877507
-0.0874231
-0.0871635
-0.0869751
-0.0869609
-0.0872661
-0.0874175
-0.0873763
-0.0870537
-0.0868448
-0.0870039
-0.0872144
-0.0874569
-0.0877164
-0.0879773
-0.0882235
-11823.2
-11008.6
-10189.9
-9363.79
-8527.2
-7677.34
-6811.83
-5928.88
-5027.23
-4107.57
-3169.74
-2201.43
-1158.57
-1.33362
-0.0288809
-0.0257851
-0.097925
-0.140854
-0.176424
-0.200726
-0.209676
-0.204138
-0.18884
-0.168366
-0.146122
-0.125134
-0.110215
-0.100822
-0.0955348
-0.0927859
-0.0916678
-0.0913502
-0.09048
-0.0897278
-0.0894758
-0.0893945
-0.0894215
-0.0895464
-0.0897384
-0.0900333
-0.0904366
-0.0907181
-0.0909167
-0.091319
-0.091779
-0.0922837
-0.0928134
-0.0933369
-0.0938236
-0.0942035
-11858.8
-11118.2
-10381.3
-9647.36
-8914.49
-8179.57
-7439.27
-6690.41
-5930.07
-5155.6
-4363.98
-3550.01
-2701.33
-1791.33
-783.578
-111.359
-0.406922
-0.0329085
-0.109315
-0.122018
-0.147248
-0.164853
-0.171273
-0.168921
-0.161205
-0.151134
-0.141041
-0.13197
-0.124309
-0.117906
-0.112645
-0.108341
-0.104816
-0.101784
-0.0991822
-0.0969891
-0.0952623
-0.0943958
-0.0939844
-0.0940189
-0.0943919
-0.0952748
-0.0963374
-0.0971592
-0.0978774
-0.098691
-0.0994677
-0.10014
-0.100716
-0.101355
-11899.8
-11241.9
-10590.7
-9947.65
-9311.82
-8680.85
-8051.32
-7419.49
-6781.9
-6134.79
-5474.53
-4797.2
-4097.68
-3369.09
-2604.99
-1799.14
-914.078
-210.872
-0.369321
-0.01694
-0.00589265
-0.0607053
-0.0918697
-0.115593
-0.129877
-0.137086
-0.139758
-0.139542
-0.137656
-0.134944
-0.132002
-0.128907
-0.125833
-0.122858
-0.120045
-0.117382
-0.114918
-0.112832
-0.111021
-0.109466
-0.108164
-0.107297
-0.106813
-0.106442
-0.106179
-0.106168
-0.1065
-0.106942
-0.107396
-0.108005
-11920.6
-11304.1
-10694.1
-10093.4
-9503.36
-8923.97
-8354.27
-7792.38
-7235.5
-6680.9
-6125.42
-5565.61
-4997.9
-4418.57
-3823.62
-3210.2
-2578.61
-1932.31
-1265.29
-544.207
-57.6808
-0.103554
-0.00719996
-0.0296622
-0.0544753
-0.0770716
-0.093951
-0.108239
-0.118606
-0.125418
-0.129352
-0.131142
-0.131592
-0.131185
-0.13023
-0.128929
-0.127417
-0.125876
-0.124354
-0.122741
-0.121255
-0.119984
-0.118959
-0.118125
-0.117293
-0.116658
-0.116423
-0.116428
-0.116515
-0.116943
-11922.9
-11310.5
-10703.4
-10104.3
-9515.09
-8937.03
-8371.03
-7817.59
-7276.86
-6748.66
-6232.52
-5727.65
-5232.84
-4746.44
-4266.74
-3791.66
-3318.83
-2845.9
-2371.4
-1897.57
-1429.63
-961.154
-462.314
-0.787409
-0.00566995
-0.00272684
-0.000857575
-0.0198614
-0.0420068
-0.0633738
-0.0815234
-0.0961472
-0.107668
-0.116289
-0.12232
-0.126191
-0.128411
-0.129458
-0.129674
-0.129313
-0.128603
-0.127712
-0.126884
-0.125839
-0.124648
-0.123662
-0.122851
-0.122104
-0.121268
-0.120351
-11920.9
-11303.8
-10690
-10081.8
-9481.23
-8890.44
-8311.31
-7745.47
-7194.26
-6658.7
-6139.54
-5637.24
-5152.08
-4684.17
-4233.52
-3800.05
-3383.58
-2983.81
-2600.14
-2231.3
-1876.3
-1534.18
-1205
-891.893
-597.498
-310.651
-40.4489
-0.0680212
-0.00166692
-0.000551376
-0.0206824
-0.0422766
-0.0612421
-0.0790276
-0.0953018
-0.108718
-0.11857
-0.125092
-0.129009
-0.131071
-0.131876
-0.131856
-0.131271
-0.130096
-0.128651
-0.127072
-0.125394
-0.123542
-0.121466
-0.119139
-11924.7
-11314.7
-10707
-10103.7
-9507.24
-8919.86
-8343.8
-7781.03
-7233.25
-6701.85
-6187.92
-5692.27
-5215.45
-4757.86
-4319.73
-3901.19
-3502.27
-3122.99
-2763.29
-2423.09
-2102.26
-1800.64
-1517.96
-1253.72
-1006.79
-776.26
-561.849
-361.613
-175.538
-21.4562
-0.0312077
-0.0233553
-0.0360463
-0.0511928
-0.0673661
-0.0850748
-0.100484
-0.112316
-0.120544
-0.12589
-0.129171
-0.131025
-0.131819
-0.131868
-0.131392
-0.130528
-0.129377
-0.127975
-0.126443
-0.12467
-11940.2
-11361.9
-10787.4
-10218.9
-9658.38
-9107.26
-8566.9
-8038.44
-7522.83
-7020.85
-6533.21
-6060.45
-5602.97
-5161.12
-4735.11
-4325.11
-3931.26
-3553.63
-3192.04
-2846.37
-2516.49
-2202.34
-1903.92
-1621.32
-1354.74
-1104.46
-870.675
-653.869
-455.377
-277.025
-125.089
-0.180507
-0.131823
-0.112657
-0.101703
-0.096011
-0.10321
-0.110961
-0.117652
-0.122758
-0.12632
-0.128652
-0.130091
-0.130897
-0.131245
-0.131255
-0.131012
-0.130571
-0.129997
-0.129273
-11946.7
-11381.3
-10819.6
-10263.1
-9713.03
-9170.39
-8635.85
-8110.04
-7593.56
-7086.99
-6590.96
-6106.18
-5633.36
-5173.22
-4726.44
-4293.59
-3875.13
-3471.22
-3081.82
-2706.88
-2346.65
-2001.64
-1672.21
-1358.49
-1061.95
-785.091
-529.39
-282.216
-43.7879
-0.0667179
-0.0012628
-0.0291706
-0.063503
-0.093138
-0.117891
-0.135272
-0.145773
-0.150546
-0.150508
-0.146674
-0.140682
-0.134554
-0.129254
-0.12524
-0.122586
-0.121104
-0.120515
-0.120577
-0.121076
-0.121892
-0.120031
-0.112548
-0.105576
-0.0991212
-0.0932106
-0.0878523
-0.0829709
-0.0784246
-0.0741505
-0.0701285
-0.0663328
-0.0627388
-0.0593283
-0.056087
-0.0530027
-0.050064
-0.0472595
-0.0445771
-0.0420028
-0.0395213
-0.0371168
-0.0347744
-0.0324806
-0.0302227
-0.0279864
-0.0257567
-0.0235207
-0.0212724
-0.019017
-0.0167733
-0.0145725
-0.0124546
-0.0104615
-0.00863196
-0.00699788
-0.00558305
-0.00440177
-0.0034581
-0.00274572
-0.00224889
-0.00194457
-0.00180522
-0.00180169
-0.00190543
-0.00209053
-0.00233538
-0.00262344
-0.00294262
-0.00328427
-0.00364255
-0.130907
-0.126893
-0.122363
-0.118113
-0.114217
-0.111485
-0.107708
-0.103204
-0.0987552
-0.0944788
-0.0903078
-0.0862473
-0.0823165
-0.0785285
-0.074893
-0.0714024
-0.0680337
-0.0647827
-0.0616411
-0.0585989
-0.0556464
-0.0527736
-0.0499683
-0.0472162
-0.0445009
-0.0418045
-0.0391087
-0.0363986
-0.033661
-0.0308936
-0.0281059
-0.0253098
-0.022522
-0.0197666
-0.0170771
-0.0144964
-0.012074
-0.0098602
-0.00789897
-0.00622247
-0.00484753
-0.00377518
-0.00299205
-0.00247314
-0.00218562
-0.00209326
-0.00216025
-0.00235308
-0.00264165
-0.00300138
-0.112215
-0.112564
-0.112896
-0.113418
-0.113961
-0.112622
-0.109833
-0.106735
-0.103759
-0.100811
-0.0977922
-0.094695
-0.0915515
-0.0883989
-0.0852687
-0.0821787
-0.0791321
-0.0761273
-0.073163
-0.0702374
-0.067348
-0.0644912
-0.0616626
-0.0588567
-0.056068
-0.0532902
-0.0505149
-0.0477313
-0.0449223
-0.042076
-0.0391922
-0.0362659
-0.0332851
-0.030244
-0.02715
-0.024028
-0.0209216
-0.0178911
-0.0150068
-0.0123389
-0.00994817
-0.00787898
-0.00615563
-0.00478233
-0.00374593
-0.00302012
-0.00257002
-0.00235609
-0.00233782
-0.00247654
-0.0756388
-0.0715051
-0.0710166
-0.0741697
-0.0794138
-0.0845841
-0.0886112
-0.0912773
-0.092584
-0.0928186
-0.0923657
-0.0914737
-0.0902508
-0.0887432
-0.0869973
-0.0850563
-0.0829589
-0.080744
-0.0784466
-0.0760936
-0.0737018
-0.0712803
-0.0688335
-0.0663639
-0.0638728
-0.0613615
-0.058829
-0.0562525
-0.0536206
-0.050925
-0.0481628
-0.045324
-0.0423894
-0.0393439
-0.0361813
-0.0329089
-0.0295516
-0.0261536
-0.0227773
-0.0194982
-0.0163952
-0.0135418
-0.0109965
-0.00879784
-0.00696289
-0.00548943
-0.00435976
-0.00354494
-0.00300876
-0.00271061
-0.0606026
-0.0560809
-0.0540709
-0.0545504
-0.0571531
-0.0612023
-0.0659562
-0.0706815
-0.0753033
-0.0789721
-0.081389
-0.0828581
-0.0835316
-0.0836014
-0.0833822
-0.0827479
-0.0817246
-0.0804715
-0.079066
-0.0775316
-0.0758782
-0.0741189
-0.0722716
-0.0703501
-0.0683608
-0.0663085
-0.0641845
-0.0619786
-0.0596838
-0.0572941
-0.0548046
-0.0522072
-0.0494908
-0.0466441
-0.0436599
-0.0405374
-0.0372866
-0.0339308
-0.0305078
-0.0270711
-0.0236866
-0.0204269
-0.0173629
-0.0145561
-0.0120519
-0.00987733
-0.00804171
-0.00653914
-0.00535275
-0.00445962
-0.060805
-0.0592533
-0.0586791
-0.0589265
-0.0604339
-0.0620198
-0.0631318
-0.0647507
-0.0678518
-0.0734499
-0.0759351
-0.0781283
-0.0801137
-0.0815945
-0.0803384
-0.0791853
-0.0793194
-0.0790291
-0.0782974
-0.0772275
-0.0760202
-0.0746882
-0.0732732
-0.0717874
-0.0702313
-0.0686026
-0.0668974
-0.06511
-0.0632335
-0.0612608
-0.0591853
-0.0570002
-0.0546979
-0.0522715
-0.0497156
-0.0470273
-0.0442087
-0.0412677
-0.0382192
-0.0350871
-0.0319055
-0.0287192
-0.0255804
-0.0225453
-0.0196679
-0.016994
-0.014559
-0.0123869
-0.010494
-0.00890144
-0.142768
-0.133921
-0.126541
-0.118085
-0.112935
-0.112347
-0.113995
-0.112292
-0.109031
-0.102146
-0.0999479
-0.0996356
-0.0982823
-0.0950376
-0.0933788
-0.0930543
-0.0928462
-0.0912414
-0.089403
-0.0866435
-0.0836753
-0.0812393
-0.0787391
-0.0762919
-0.0738075
-0.0715492
-0.0695675
-0.0677093
-0.065929
-0.0641781
-0.0624196
-0.0606228
-0.058764
-0.0568268
-0.0547995
-0.0526743
-0.0504465
-0.0481145
-0.0456797
-0.043147
-0.0405256
-0.0378309
-0.0350831
-0.0323099
-0.0295424
-0.0268145
-0.0241604
-0.0216149
-0.0192161
-0.017033
-0.144157
-0.139991
-0.136116
-0.132461
-0.129376
-0.127142
-0.125287
-0.122664
-0.119788
-0.117141
-0.114679
-0.112274
-0.11029
-0.108449
-0.107064
-0.106875
-0.105157
-0.103627
-0.102349
-0.101365
-0.10028
-0.0989703
-0.0973273
-0.0953614
-0.0931807
-0.0907581
-0.0874727
-0.0839148
-0.0800237
-0.0763166
-0.0729216
-0.0698395
-0.0670445
-0.0644828
-0.062092
-0.0598154
-0.057606
-0.0554264
-0.0532476
-0.0510487
-0.0488146
-0.0465364
-0.0442141
-0.0418548
-0.039466
-0.037057
-0.034639
-0.0322252
-0.0298376
-0.0275458
-0.100338
-0.100131
-0.099835
-0.0993915
-0.0987468
-0.0979949
-0.0969771
-0.0958706
-0.0952542
-0.0948259
-0.0944188
-0.0940591
-0.0939796
-0.0936104
-0.0932246
-0.0927284
-0.0922768
-0.0920725
-0.0919656
-0.0918971
-0.0918679
-0.092097
-0.0921276
-0.0921021
-0.0919385
-0.0916419
-0.0913343
-0.0908888
-0.0903215
-0.0891149
-0.0872802
-0.0848395
-0.0819162
-0.0787069
-0.0754112
-0.0721754
-0.0690777
-0.0661464
-0.0633753
-0.0607427
-0.0582271
-0.0558221
-0.0535163
-0.051243
-0.0490027
-0.0467923
-0.0446022
-0.0424241
-0.0402578
-0.0381492
-0.0866629
-0.086647
-0.0869411
-0.0868818
-0.0866627
-0.0862033
-0.0861241
-0.0862042
-0.0864012
-0.086383
-0.0863026
-0.0859516
-0.0857413
-0.0856281
-0.0856129
-0.0857028
-0.085537
-0.0853816
-0.0850228
-0.0847018
-0.0845099
-0.084427
-0.0843508
-0.084345
-0.0843924
-0.0845171
-0.0847454
-0.0850351
-0.0853541
-0.0856169
-0.085724
-0.08569
-0.0854475
-0.0848176
-0.0838533
-0.0824409
-0.0805937
-0.0784209
-0.0759973
-0.073428
-0.0708322
-0.0683272
-0.0659603
-0.0636498
-0.0613537
-0.0590319
-0.0567106
-0.0544106
-0.0521406
-0.0499504
-0.0885094
-0.0887977
-0.088835
-0.088795
-0.0885292
-0.0883439
-0.0883491
-0.088341
-0.0882728
-0.0881234
-0.0879033
-0.087622
-0.0872834
-0.0868448
-0.0862721
-0.0856698
-0.0851511
-0.0846002
-0.0840073
-0.0833876
-0.0827779
-0.0822151
-0.0816396
-0.081102
-0.0806063
-0.0801593
-0.0797326
-0.079341
-0.0789758
-0.0786606
-0.0784412
-0.0783002
-0.0782276
-0.0782118
-0.0782341
-0.0782871
-0.0782693
-0.0781421
-0.0779018
-0.077455
-0.0768063
-0.0759704
-0.0749561
-0.0738164
-0.072525
-0.0710464
-0.0693464
-0.0674359
-0.0653619
-0.0632092
-0.0944985
-0.0947369
-0.0949786
-0.0951774
-0.0947801
-0.0945306
-0.0943738
-0.0941462
-0.0938293
-0.0933947
-0.092896
-0.0922453
-0.0914254
-0.090578
-0.0896257
-0.088515
-0.0874657
-0.0863631
-0.0852315
-0.0841065
-0.0830043
-0.0819839
-0.0809791
-0.080055
-0.0792345
-0.0784891
-0.0778223
-0.0772389
-0.0766927
-0.0761831
-0.0756623
-0.0750744
-0.0744622
-0.0738414
-0.0732387
-0.0727155
-0.0723185
-0.0720238
-0.071861
-0.0718044
-0.0718444
-0.0719541
-0.0720815
-0.0721647
-0.0721685
-0.0720032
-0.0716191
-0.0709832
-0.0700601
-0.0688739
-0.101909
-0.10233
-0.102565
-0.102729
-0.102777
-0.102402
-0.101636
-0.100733
-0.0999374
-0.0990331
-0.0980171
-0.0968762
-0.0955704
-0.0941514
-0.0926289
-0.0910941
-0.0894118
-0.0875966
-0.0857005
-0.0838857
-0.0821667
-0.0805151
-0.0790362
-0.0777383
-0.0766797
-0.0758547
-0.0752031
-0.0746616
-0.0741988
-0.0737117
-0.0731018
-0.0722978
-0.0712789
-0.0701096
-0.0688586
-0.0676248
-0.0665091
-0.065575
-0.065052
-0.0650814
-0.0655579
-0.0662969
-0.0671125
-0.0678408
-0.0683546
-0.0686035
-0.0685562
-0.0681786
-0.0674606
-0.0664363
-0.108543
-0.108946
-0.109463
-0.10992
-0.109966
-0.109481
-0.108256
-0.106535
-0.104926
-0.103447
-0.10204
-0.100559
-0.0986664
-0.0967282
-0.0947056
-0.0925004
-0.0900493
-0.0873732
-0.0846483
-0.0820889
-0.0796894
-0.0775172
-0.0756877
-0.074307
-0.0733146
-0.0726648
-0.0723256
-0.0720769
-0.071834
-0.0714528
-0.0708458
-0.0697109
-0.0680478
-0.0659169
-0.0637158
-0.0620154
-0.0611965
-0.0610718
-0.0612958
-0.0616269
-0.0619757
-0.0622684
-0.0624545
-0.0624866
-0.0622301
-0.0618089
-0.0611963
-0.0603227
-0.0591737
-0.0578465
-0.117486
-0.117948
-0.1181
-0.117728
-0.116339
-0.113933
-0.111265
-0.108695
-0.106646
-0.104945
-0.103496
-0.101958
-0.100014
-0.0976158
-0.0950327
-0.0920555
-0.0887597
-0.0852866
-0.081888
-0.0787483
-0.075937
-0.0735915
-0.0718281
-0.0705785
-0.0698459
-0.0695586
-0.0694627
-0.0694253
-0.0697073
-0.0700144
-0.0700679
-0.0695543
-0.0686263
-0.0672069
-0.0654232
-0.0635836
-0.0619765
-0.0607151
-0.0597894
-0.0590807
-0.0585266
-0.0580209
-0.0574176
-0.0566979
-0.0558271
-0.0548986
-0.0538667
-0.0526382
-0.051205
-0.049639
-0.119116
-0.117481
-0.115396
-0.112887
-0.110398
-0.108417
-0.107088
-0.106219
-0.105484
-0.104536
-0.103479
-0.102049
-0.0999321
-0.0971963
-0.0939964
-0.0903543
-0.0863839
-0.0823962
-0.0786929
-0.075394
-0.072584
-0.0703533
-0.0687171
-0.0676239
-0.066886
-0.0663056
-0.0658385
-0.0657153
-0.0659564
-0.0663963
-0.066929
-0.0674084
-0.0676863
-0.0678361
-0.0677078
-0.0670838
-0.0659898
-0.0646501
-0.0632079
-0.0617282
-0.0602725
-0.0588873
-0.0575492
-0.0562218
-0.0548602
-0.0534925
-0.0520922
-0.0506233
-0.0490253
-0.0473424
-0.116744
-0.114337
-0.11208
-0.110067
-0.108457
-0.107738
-0.107681
-0.107595
-0.107355
-0.10667
-0.105657
-0.104076
-0.101801
-0.0987996
-0.095186
-0.0911234
-0.0868978
-0.0827858
-0.0790143
-0.0756472
-0.0727589
-0.0704375
-0.0686888
-0.0671649
-0.0658831
-0.0646803
-0.0639263
-0.0635374
-0.0634028
-0.0635024
-0.0638242
-0.0643286
-0.0648882
-0.0653511
-0.0660343
-0.0667149
-0.0671298
-0.067082
-0.0666316
-0.0658624
-0.0648393
-0.0636136
-0.0622265
-0.060771
-0.0592793
-0.057796
-0.056345
-0.0548714
-0.0533479
-0.0517513
-0.122811
-0.120983
-0.119258
-0.11766
-0.11622
-0.115117
-0.114176
-0.113434
-0.112933
-0.112355
-0.111797
-0.111192
-0.11011
-0.108194
-0.105361
-0.101905
-0.0980488
-0.0940518
-0.0900884
-0.0861988
-0.082468
-0.0789166
-0.075661
-0.0727352
-0.0699652
-0.0673789
-0.0655058
-0.0639574
-0.0627206
-0.0618288
-0.0613227
-0.0611515
-0.0611477
-0.0613554
-0.0617187
-0.0624517
-0.0635097
-0.0647364
-0.065834
-0.0665966
-0.0669636
-0.0668949
-0.0664849
-0.0658469
-0.0650661
-0.0640291
-0.0628876
-0.0618326
-0.0606832
-0.0595065
-0.128466
-0.127626
-0.126772
-0.125919
-0.12509
-0.12434
-0.123706
-0.123137
-0.122658
-0.122223
-0.121916
-0.121728
-0.121625
-0.121546
-0.12134
-0.120975
-0.120357
-0.119447
-0.118058
-0.11576
-0.112355
-0.107662
-0.102156
-0.0957593
-0.0888925
-0.0827533
-0.0777601
-0.0736795
-0.0699462
-0.0665065
-0.0635598
-0.0611427
-0.059284
-0.0579251
-0.0568412
-0.0560881
-0.0557133
-0.0558454
-0.0563324
-0.0572074
-0.0585391
-0.0601586
-0.061816
-0.0634223
-0.0648076
-0.0658254
-0.0664186
-0.066414
-0.0661029
-0.0657298
-0.122893
-0.123847
-0.124682
-0.125356
-0.125851
-0.126201
-0.12637
-0.126361
-0.126254
-0.126078
-0.125863
-0.125673
-0.125429
-0.125152
-0.124823
-0.124488
-0.124176
-0.123833
-0.123405
-0.122819
-0.121994
-0.120817
-0.11922
-0.117076
-0.114274
-0.110808
-0.106623
-0.101633
-0.0958519
-0.0895383
-0.083027
-0.0766753
-0.0708234
-0.0657534
-0.0613753
-0.0577774
-0.0549235
-0.0529148
-0.0513694
-0.0503327
-0.0502375
-0.0508735
-0.0521444
-0.0538789
-0.0561089
-0.0588089
-0.0614539
-0.0636898
-0.0652693
-0.0663067
-0.00393379
-0.00413811
-0.00434187
-0.00454392
-0.00474401
-0.00494217
-0.00513861
-0.00533318
-0.00552575
-0.00571615
-0.00590416
-0.00608951
-0.00627194
-0.00645115
-0.00662685
-0.00679873
-0.00696648
-0.00712978
-0.00728834
-0.00744187
-0.00759007
-0.0077327
-0.00786948
-0.00800017
-0.00812456
-0.00824243
-0.00835358
-0.00845804
-0.00855631
-0.00864796
-0.00873077
-0.00880444
-0.0088712
-0.00893159
-0.00898382
-0.00902766
-0.00906371
-0.00908979
-0.00910427
-0.00910811
-0.00910086
-0.00908564
-0.00906035
-0.0090249
-0.00897962
-0.00892484
-0.00886063
-0.0087873
-0.00870534
-0.00861543
-0.00851839
-0.00841513
-0.00830664
-0.00819393
-0.008078
-0.00795984
-0.00784042
-0.00772066
-0.00760141
-0.00748342
-0.00736733
-0.00725385
-0.00714344
-0.0070364
-0.00693366
-0.00683552
-0.0067422
-0.00665318
-0.0065688
-0.00648895
-0.00641342
-0.0063422
-0.00627523
-0.00621245
-0.00615377
-0.00609908
-0.00604825
-0.00600119
-0.00595798
-0.00591854
-0.00588235
-0.00584915
-0.00581847
-0.00579025
-0.00576523
-0.00574284
-0.00572312
-0.00570608
-0.00569158
-0.0056794
-0.00566945
-0.0056617
-0.005656
-0.0056523
-0.0056505
-0.00565052
-0.00565238
-0.00565603
-0.00566144
-0.00566853
-0.00567722
-0.00568741
-0.00569899
-0.00571209
-0.00572641
-0.00574198
-0.0057587
-0.00577661
-0.00579557
-0.00581553
-0.00583635
-0.0058581
-0.00588073
-0.00590414
-0.00592827
-0.00595315
-0.00597863
-0.0060046
-0.00603108
-0.00605804
-0.00608542
-0.00611314
-0.00614117
-0.00616946
-0.00619797
-0.0062266
-0.00625533
-0.0062841
-0.00631289
-0.0063417
-0.00637045
-0.00639906
-0.00642754
-0.00645583
-0.00648389
-0.00651171
-0.00653926
-0.00656651
-0.00659359
-0.00662041
-0.00664693
-0.00667304
-0.00669865
-0.00672369
-0.00674807
-0.0067717
-0.00679449
-0.00681635
-0.00683717
-0.00685687
-0.00687534
-0.00689248
-0.00690821
-0.00692243
-0.00693502
-0.00694591
-0.00695501
-0.00696222
-0.00696755
-0.00697105
-0.00697268
-0.00697239
-0.00697012
-0.00696586
-0.00695958
-0.00695126
-0.00694089
-0.00692846
-0.00691399
-0.00689749
-0.00687898
-0.00685848
-0.00683603
-0.00681164
-0.00678536
-0.00675724
-0.00672732
-0.00669566
-0.00666231
-0.00662735
-0.00659084
-0.00655286
-0.00651348
-0.00647276
-0.0064308
-0.00638767
-0.00634344
-0.0062982
-0.00625205
-0.00620505
-0.0061573
-0.00610887
-0.00605984
-0.0060103
-0.00596031
-0.00590994
-0.00585925
-0.00580826
-0.00575705
-0.00570567
-0.00565418
-0.00560265
-0.00555114
-0.00549971
-0.00544845
-0.00539742
-0.00534668
-0.00529631
-0.00524637
-0.00519692
-0.00514802
-0.00509975
-0.00505214
-0.00500528
-0.00495919
-0.00491394
-0.00486959
-0.00482616
-0.00478372
-0.00474232
-0.004702
-0.00466282
-0.00462481
-0.00458803
-0.00455253
-0.00451835
-0.00448554
-0.00445414
-0.0044242
-0.00439578
-0.00436892
-0.00434367
-0.00432008
-0.00429819
-0.00427804
-0.00425966
-0.00424311
-0.0042284
-0.00421557
-0.00420465
-0.00419568
-0.00418868
-0.00418369
-0.00418072
-0.00417872
-0.00417709
-0.00417581
-0.00417488
-0.00417432
-0.00417412
-0.0041743
-0.00417524
-0.00417832
-0.00418355
-0.00419091
-0.00420041
-0.00421206
-0.00422583
-0.00424165
-0.0042594
-0.004279
-0.00430038
-0.00432343
-0.00434797
-0.00437375
-0.00440049
-0.00442792
-0.0044558
-0.0044839
-0.00451197
-0.00453971
-0.0045668
-0.00459286
-0.00461752
-0.00464038
-0.00466105
-0.00467913
-0.00469412
-0.00470552
-0.00471283
-0.00471564
-0.00471364
-0.00470639
-0.00469347
-0.00467446
-0.00464899
-0.00461674
-0.00457744
-0.00453092
-0.00447709
-0.00441599
-0.00434779
-0.00427276
-0.00419126
-0.00410373
-0.00401065
-0.00391249
-0.00380962
-0.00369826
-0.0034126
-0.0033166
-0.00355242
-0.00379267
-0.00403644
-0.00428127
-0.00452597
-0.00477058
-0.00501442
-0.0052567
-0.00549665
-0.00573364
-0.00596709
-0.0061965
-0.00642146
-0.00664155
-0.00685639
-0.00706552
-0.00726869
-0.00746543
-0.00765532
-0.00783787
-0.0080126
-0.00817897
-0.0083364
-0.00848431
-0.00862206
-0.00874902
-0.00886479
-0.00896989
-0.00906292
-0.00914101
-0.00920562
-0.00925429
-0.00929081
-0.00931338
-0.0093212
-0.00931559
-0.00929403
-0.00925575
-0.00920191
-0.00913229
-0.00905184
-0.00895885
-0.00885406
-0.00873865
-0.00861391
-0.00848123
-0.00834208
-0.00819795
-0.00805031
-0.0079006
-0.00775015
-0.0076002
-0.00745186
-0.0073061
-0.00716373
-0.00702542
-0.00689197
-0.00676429
-0.00664168
-0.00652406
-0.00641253
-0.00630607
-0.0062056
-0.00611095
-0.00602175
-0.00593794
-0.00585941
-0.00578604
-0.00571766
-0.00565411
-0.00559522
-0.0055408
-0.0054907
-0.00544473
-0.00540274
-0.00536456
-0.00533005
-0.00529909
-0.00527158
-0.0052474
-0.00522632
-0.00520763
-0.00519211
-0.00517949
-0.00516858
-0.00516055
-0.00515557
-0.00515278
-0.00515216
-0.00515359
-0.00515723
-0.00516298
-0.00517074
-0.00518054
-0.00519233
-0.00520606
-0.00522164
-0.00523898
-0.00525811
-0.00527875
-0.00530093
-0.00532463
-0.00534978
-0.0053762
-0.00540394
-0.00543297
-0.00546321
-0.0054946
-0.00552706
-0.00556054
-0.00559496
-0.00563024
-0.00566639
-0.00570328
-0.00574082
-0.005779
-0.0058177
-0.00585688
-0.0058965
-0.00593652
-0.00597687
-0.00601749
-0.00605831
-0.00609928
-0.00614033
-0.00618146
-0.0062226
-0.00626374
-0.00630481
-0.00634576
-0.00638657
-0.00642719
-0.0064676
-0.0065078
-0.00654775
-0.00658743
-0.00662679
-0.00666584
-0.00670455
-0.00674291
-0.00678088
-0.00681846
-0.00685563
-0.0068924
-0.00692875
-0.00696467
-0.00700014
-0.00703517
-0.00706973
-0.00710383
-0.00713746
-0.00717062
-0.00720329
-0.00723546
-0.00726714
-0.00729832
-0.00732899
-0.00735905
-0.00738834
-0.00741684
-0.0074445
-0.0074713
-0.00749719
-0.00752213
-0.00754608
-0.00756899
-0.00759082
-0.00761152
-0.00763104
-0.00764932
-0.00766631
-0.00768194
-0.00769615
-0.00770888
-0.00772007
-0.00772967
-0.00773761
-0.00774383
-0.00774828
-0.00775089
-0.007752
-0.00775188
-0.0077505
-0.00774784
-0.00774388
-0.00773857
-0.00773189
-0.00772383
-0.00771437
-0.0077035
-0.00769121
-0.00767749
-0.00766234
-0.00764576
-0.00762774
-0.00760828
-0.00758738
-0.00756506
-0.00754133
-0.00751621
-0.00748975
-0.00746197
-0.00743292
-0.00740264
-0.00737119
-0.00733863
-0.00730503
-0.00727044
-0.00723495
-0.00719864
-0.00716158
-0.00712386
-0.00708556
-0.00704678
-0.00700759
-0.00696809
-0.00692837
-0.00688853
-0.00684866
-0.00680887
-0.00676924
-0.00672988
-0.00669088
-0.00665234
-0.00661434
-0.00657699
-0.0065404
-0.00650465
-0.00646985
-0.0064361
-0.00640347
-0.00637206
-0.00634195
-0.00631322
-0.00628593
-0.00626016
-0.00623597
-0.00621341
-0.00619255
-0.00617346
-0.00615619
-0.00614076
-0.00612719
-0.0061155
-0.00610574
-0.00609795
-0.00609215
-0.00608834
-0.0060865
-0.00608666
-0.00608845
-0.00609033
-0.00609236
-0.00609459
-0.00609699
-0.00609953
-0.00610217
-0.00610486
-0.00610754
-0.00611015
-0.00611385
-0.00611887
-0.00612516
-0.00613257
-0.0061409
-0.00614995
-0.0061595
-0.00616934
-0.00617923
-0.00618891
-0.00619808
-0.0062064
-0.00621353
-0.0062191
-0.00622269
-0.00622386
-0.00622203
-0.0062166
-0.00620694
-0.00619266
-0.00617334
-0.00614838
-0.00611712
-0.00607883
-0.00603294
-0.00597894
-0.00591638
-0.00584493
-0.00576438
-0.00567467
-0.0055759
-0.00546834
-0.00535233
-0.00522828
-0.00509666
-0.00495796
-0.00481255
-0.00465499
-0.0042675
-0.00267277
-0.00284852
-0.00304565
-0.00326
-0.00348806
-0.00372687
-0.00397369
-0.0042248
-0.00447989
-0.00473793
-0.00499754
-0.00525747
-0.00551655
-0.00577374
-0.00602812
-0.00627877
-0.00652482
-0.00676566
-0.00700049
-0.00722859
-0.00744921
-0.00766161
-0.00786502
-0.00805856
-0.00824123
-0.00841227
-0.00857066
-0.00871539
-0.00884571
-0.00896111
-0.00906089
-0.00914199
-0.00920429
-0.00924788
-0.00927015
-0.00927415
-0.00925932
-0.00922507
-0.00917225
-0.00910161
-0.00901265
-0.00890731
-0.00878657
-0.00865444
-0.00851167
-0.00836005
-0.00820161
-0.00803832
-0.00787208
-0.00770461
-0.00753749
-0.00737209
-0.00720958
-0.00705092
-0.00689702
-0.00674908
-0.00660694
-0.00646983
-0.00633884
-0.00621365
-0.0060939
-0.00598102
-0.0058741
-0.00577302
-0.00567775
-0.00558824
-0.00550443
-0.00542623
-0.00535354
-0.00528621
-0.00522413
-0.00516713
-0.00511505
-0.00506773
-0.00502501
-0.00498671
-0.00495268
-0.00492278
-0.00489686
-0.00487476
-0.00485625
-0.00484122
-0.00482937
-0.00482035
-0.00481421
-0.00481052
-0.00481005
-0.00481279
-0.00481788
-0.00482518
-0.00483511
-0.00484761
-0.0048625
-0.00487972
-0.00489929
-0.0049212
-0.00494537
-0.00497145
-0.00499954
-0.00502958
-0.00506148
-0.00509512
-0.00513054
-0.0051677
-0.00520652
-0.00524692
-0.00528882
-0.00533216
-0.00537687
-0.00542284
-0.00547006
-0.00551834
-0.00556765
-0.00561793
-0.00566909
-0.00572101
-0.00577367
-0.00582699
-0.00588089
-0.0059353
-0.00599015
-0.00604537
-0.0061009
-0.00615667
-0.00621265
-0.0062688
-0.006325
-0.00638125
-0.00643749
-0.00649369
-0.00654983
-0.00660588
-0.0066618
-0.00671756
-0.00677315
-0.00682853