/*--------------------------------*- C++ -*----------------------------------*\
| =========                 |                                                 |
| \\      /  F ield         | OpenFOAM: The Open Source CFD Toolbox           |
|  \\    /   O peration     | Version:  2.4.0                                 |
|   \\  /    A nd           | Web:      www.OpenFOAM.org                      |
|    \\/     M anipulation  |                                                 |
\*---------------------------------------------------------------------------*/
FoamFile
{
    version     2.0;
    format      ascii;
    class       volScalarField;
    location    "3.9";
    object      p;
}
// * * * * * * * * * * * * * * * * * * * * * * * * * * * * * * * * * * * * * //

dimensions      [1 -1 -2 0 0 0 0];

internalField   nonuniform List<scalar> 
8000
(
17.0716
17.1093
17.1739
17.2649
17.3832
17.5274
17.6978
17.8934
18.1129
18.3549
18.6179
18.8996
19.1973
19.5082
19.8271
20.1555
20.4828
20.7931
21.0655
21.1621
21.1982
21.6957
23.9072
30.1955
8.29175
3.68969
4.7772
6.34619
7.88462
9.0624
9.90809
10.6654
11.345
11.7554
11.8189
11.6095
11.2587
10.8581
10.4517
10.0644
9.7189
9.43373
9.21207
9.0379
8.91261
8.86955
8.87561
8.86704
8.77442
8.70094
14.541
14.5481
14.5492
14.5395
14.5189
14.4866
14.4437
14.3905
14.3276
14.2554
14.1749
14.0868
13.9923
13.8939
13.7925
13.6902
13.59
13.4954
13.413
13.3552
13.3367
13.3607
13.3889
13.5093
13.5344
13.6637
13.9543
14.4739
14.6671
9.25695
6.91305
6.08737
5.46011
5.13753
5.40231
6.1081
6.90887
7.52919
7.76096
7.65035
7.59042
8.01043
8.82746
9.44451
9.59408
9.42306
9.1245
8.79772
8.52037
8.28839
11.6543
11.6382
11.6176
11.6028
11.5963
11.5978
11.6067
11.6229
11.6461
11.6762
11.7129
11.7561
11.8057
11.8612
11.9224
11.989
12.0603
12.1357
12.2144
12.2956
12.3779
12.4581
12.5338
12.6024
12.686
12.7878
12.9196
13.0591
13.1985
13.329
13.4217
13.5509
13.7515
13.9422
13.6697
12.0863
11.8589
11.9925
12.1996
12.3338
12.0554
11.0571
9.51005
7.99111
7.12944
7.02991
7.16974
7.03198
6.86289
7.03152
14.8577
14.8174
14.7876
14.7679
14.7541
14.745
14.7401
14.7396
14.7435
14.752
14.7644
14.7814
14.8027
14.8285
14.8584
14.8923
14.9305
14.9727
15.019
15.0693
15.1238
15.182
15.2451
15.3129
15.3862
15.4686
15.5654
15.7084
15.8239
16.0802
16.4114
16.622
16.8304
17.2311
17.7172
17.2997
17.7634
18.0044
18.4493
18.7739
18.545
18.7511
19.4686
19.8196
19.2245
18.4499
17.6607
16.8275
15.8356
14.5117
6.61928
6.70385
6.77727
6.83001
6.86633
6.8891
6.89887
6.89552
6.87886
6.8494
6.8045
6.74606
6.67283
6.58411
6.4792
6.35742
6.21788
6.05962
5.88196
5.68465
5.47012
5.24308
4.98747
4.66875
4.31831
3.88162
3.32936
2.45717
-1.8796
28.5559
18.8813
13.9661
21.7106
21.1901
35.9862
19.9438
28.4783
35.0002
46.3401
38.9016
53.2975
48.2761
32.7091
29.0698
29.5647
22.3767
19.6099
20.0624
20.1609
17.6634
11.3245
11.3021
11.2873
11.2819
11.2839
11.2927
11.3081
11.3299
11.3589
11.3934
11.4352
11.4836
11.5386
11.6002
11.6685
11.7451
11.8332
11.9323
12.0201
12.0363
12.0508
11.9561
11.8519
11.5832
10.0068
5.21507
37.8548
19.2347
12.546
-7.93595
5.22181
5.35311
17.3624
5.68285
24.0522
16.0296
45.9118
47.3908
5.98125
11.9374
10.8624
13.887
5.30519
13.2664
12.424
11.0209
6.4472
7.60628
8.04491
7.27302
10.2069
10.1071
10.0149
9.95367
9.92252
9.91839
9.94027
9.9883
10.0628
10.1643
10.293
10.4496
10.6362
10.8573
11.1148
11.386
11.6033
11.7674
11.4005
10.462
9.98035
1.86697
2.17815
4.36999
4.27074
1.15726
-0.785238
8.26306
6.13873
8.30291
23.1593
-0.34922
26.21
28.4043
2.40331
1.03061
9.44782
5.08849
6.84866
7.07022
4.51214
4.21177
4.98993
5.34682
5.47594
5.60119
5.6418
5.6368
5.61041
5.63842
3.99133
4.02436
4.06308
4.10054
4.13572
4.17031
4.20475
4.24034
4.27395
4.30795
4.34032
4.3758
4.43827
4.56139
4.64481
4.10352
1.92339
0.163538
-6.6217
-1.50933
1.01915
3.55771
4.17042
4.29823
3.58628
2.35085
4.31519
5.47241
7.00583
6.29334
2.88776
3.6017
4.43151
4.6764
4.67627
4.65745
4.69643
4.71899
4.80561
4.84722
4.87832
4.89483
4.88372
4.8791
4.89784
4.91667
4.92574
4.93555
4.94746
4.95707
-3.8777
-3.78198
-3.69854
-3.64617
-3.62135
-3.62167
-3.64535
-3.69566
-3.77108
-3.86978
-3.97582
-4.06229
-4.19192
-4.79069
-6.60074
-10.0127
-6.16117
0.610238
4.13494
4.28309
4.25855
4.15009
4.21447
4.28065
4.31293
4.29299
4.27536
4.26075
4.29995
4.32555
4.33694
4.38949
4.45202
4.48087
4.48014
4.47311
4.47101
4.47871
4.48763
4.50058
4.51351
4.52493
4.53638
4.55261
4.56746
4.58025
4.62093
4.57035
4.59247
4.60815
-2.29549
-2.3619
-2.43678
-2.51136
-2.58673
-2.66559
-2.74957
-2.83884
-2.91455
-2.92885
-2.90157
-3.30587
-5.37635
-8.56465
-0.460461
3.78307
4.11331
4.16382
4.12404
4.1494
4.16749
4.17408
4.17258
4.18049
4.17734
4.18443
4.18962
4.19916
4.21037
4.21317
4.20649
4.19754
4.26384
4.13603
4.21068
4.20538
4.24875
4.25232
4.3112
4.30136
4.31792
4.44267
4.24606
4.29487
4.28984
4.29901
4.3165
4.33923
4.36109
4.37415
-1.43171
-1.5701
-1.71568
-1.85106
-1.9806
-2.10949
-2.23754
-2.35462
-2.43371
-2.49128
-2.80977
-4.07875
-5.83243
-1.17384
3.58803
3.94255
3.93837
3.93005
3.92999
3.92959
3.92767
3.92079
3.90717
3.92885
3.89534
3.8948
3.8894
3.87618
3.84207
3.78841
3.9013
3.89923
3.92497
3.94325
3.93797
3.92612
3.91609
3.89819
3.86479
3.8254
3.9082
3.90655
3.92976
3.94391
3.94406
3.94057
3.93986
3.94101
3.94355
3.94544
-7.63971
-7.59595
-7.57445
-7.58423
-7.62262
-7.68884
-7.78261
-7.90367
-8.03906
-8.16022
-8.30662
-8.82702
-10.4395
-12.1074
-3.07198
3.85419
3.67394
3.54688
3.54715
3.53952
3.52232
3.51876
3.51
3.49669
3.48046
3.46468
3.44909
3.46198
3.44153
3.39738
3.32971
3.53009
3.24808
3.26629
3.25726
3.23224
3.20333
3.17654
3.14814
3.11955
3.17755
3.08685
3.06525
3.04665
3.02638
3.00825
2.99286
2.9805
2.97428
2.96742
-1.79453
-1.69857
-1.59584
-1.50722
-1.43258
-1.37013
-1.31775
-1.27704
-1.25023
-1.22953
-1.17669
-1.03972
-1.00183
-2.05384
-5.56875
-7.07382
-7.53949
3.54924
3.06443
2.88585
2.91154
2.91496
2.91983
2.91773
2.90941
2.89855
2.8832
2.86253
2.84396
2.81559
2.78026
2.73762
2.69184
2.66167
2.62432
2.58831
2.5961
2.50691
2.47303
2.41047
2.42351
2.35484
2.36245
2.29871
2.26518
2.24003
2.1993
2.16733
2.13689
2.10839
3.40931
3.45474
3.5145
3.58372
3.66285
3.75195
3.85247
3.9645
4.08804
4.22288
4.36951
4.53528
4.74406
5.00953
5.17817
4.64408
1.7903
-1.34317
-11.5232
-8.1709
-0.0698095
2.38227
2.83507
2.68308
2.64676
2.63878
2.63742
2.6229
2.6068
2.60213
2.59462
2.56899
2.54799
2.52567
2.49812
2.47422
2.4482
2.41972
2.41604
2.37983
2.40323
2.37824
2.33136
2.31894
2.2673
2.29427
2.2373
2.21586
2.1932
2.16938
5.91661
5.94677
5.98505
6.02958
6.08107
6.13925
6.20541
6.27912
6.36053
6.44972
6.54675
6.6517
6.76549
6.89048
7.02945
7.17831
7.31633
7.38733
6.76606
4.51943
2.88652
-6.41851
-5.89849
0.373211
1.37963
3.45738
2.85985
2.64644
2.60038
2.5941
2.58992
2.56829
2.55471
2.55115
2.55425
2.56038
2.5679
2.57727
2.6345
2.61009
2.62323
2.6324
2.61348
2.6816
2.65978
2.67682
2.676
2.67424
2.67302
2.6564
8.08594
8.11621
8.1532
8.19271
8.23285
8.27536
8.32033
8.36771
8.41744
8.46947
8.52367
8.57996
8.6381
8.69782
8.75899
8.82247
8.89069
8.9664
9.04799
9.11463
9.15837
8.85111
7.51046
4.36558
2.77704
-1.76831
-2.23135
1.67943
3.41003
3.33849
2.88112
2.76656
2.73245
2.71492
2.7099
2.71247
2.71998
2.73105
2.74562
2.76319
2.78365
2.80153
2.82004
2.86625
2.8441
2.88967
2.90132
2.91544
2.93187
2.94767
8.92366
8.92309
8.92292
8.92711
8.93516
8.9483
8.96596
8.98802
9.01445
9.04515
9.08013
9.11929
9.16256
9.20985
9.2611
9.31616
9.3749
9.43734
9.50435
9.5778
9.65934
9.75029
9.83803
9.90649
10.0119
9.82597
9.0735
3.42697
-2.40429
-0.730942
2.23785
3.13249
2.93344
2.79549
2.78232
2.78095
2.78215
2.78539
2.79005
2.79589
2.80238
2.8089
2.84223
2.82629
2.84597
2.8492
2.84707
2.8588
2.86333
2.86284
11.5495
11.4985
11.4528
11.4205
11.3989
11.3877
11.3857
11.393
11.4094
11.4352
11.4702
11.5144
11.5679
11.6306
11.7026
11.7842
11.8753
11.9763
12.0877
12.2083
12.3398
12.4828
12.6396
12.811
12.9931
13.1671
13.3286
13.5312
13.6906
13.2718
7.04376
3.23906
2.90654
2.82417
2.76321
2.75353
2.75319
2.75431
2.75535
2.75555
2.75482
2.76249
2.74962
2.73925
2.72899
2.71567
2.70098
2.68552
2.69708
2.66518
8.88995
8.87902
8.86596
8.85574
8.84908
8.84643
8.84714
8.85114
8.85838
8.86881
8.88241
8.89913
8.91895
8.94183
8.96776
8.99669
9.02862
9.06356
9.1013
9.14195
9.18548
9.23171
9.28094
9.33212
9.38802
9.45771
9.54924
9.62342
9.67031
9.64081
9.39377
6.81717
5.01653
2.95204
2.87422
2.89579
2.90185
2.90387
2.9056
2.90869
2.91317
2.91751
2.92092
2.92293
2.92276
2.91949
2.91296
2.90509
2.90712
2.8873
8.65066
8.66313
8.67961
8.69606
8.71183
8.72766
8.74342
8.75915
8.7748
8.79032
8.80563
8.8206
8.8351
8.84888
8.86189
8.87382
8.88482
8.89502
8.90353
8.91107
8.91894
8.93206
8.95307
8.96953
8.95422
8.95814
9.57947
9.45162
9.21073
3.46905
-0.271694
0.372425
2.17382
2.71593
2.64773
2.58272
2.58701
2.59302
2.59694
2.60039
2.60875
2.60747
2.61057
2.60816
2.60968
2.61152
2.61348
2.61816
2.61816
2.62043
8.66309
8.65128
8.64874
8.64658
8.64379
8.65632
8.68191
8.67048
8.62758
8.60277
8.59034
8.58486
8.58447
8.58847
8.59629
8.60656
8.61809
8.6298
8.64092
8.65087
8.65998
8.66727
8.67286
8.67585
8.67615
8.67409
8.6699
8.66356
8.655
8.64449
8.6324
8.61885
8.60404
8.58821
8.57155
8.55419
8.53619
8.51761
8.49849
8.47888
8.45889
8.43843
8.4177
8.3967
8.37557
8.35417
8.33271
8.31118
8.28962
8.26802
7.96625
7.55343
7.31832
7.33032
7.48285
7.90193
8.20268
7.42222
7.16
7.08191
7.11261
7.1566
7.19072
7.2281
7.27443
7.33532
7.38158
7.43633
7.49497
7.55477
7.61356
7.67039
7.72424
7.77409
7.8193
7.85962
7.89418
7.92203
7.94742
7.96428
7.98043
7.99099
7.99722
8.00016
8.00009
7.99728
7.9921
7.98483
7.97565
7.96477
7.95232
7.93844
7.92325
7.90686
7.88938
7.87093
7.85162
7.83158
7.81089
7.78969
7.36087
7.52378
7.73954
8.03553
8.56117
7.98538
7.15408
6.64672
6.38627
6.27761
6.24032
6.23462
6.24499
6.26506
6.2914
6.32244
6.35963
6.40457
6.45627
6.51309
6.57426
6.63895
6.70572
6.77293
6.83911
6.90305
6.96234
7.01462
7.07122
7.11136
7.1556
7.19245
7.22223
7.24701
7.26745
7.2837
7.29612
7.30508
7.311
7.31395
7.31436
7.31233
7.30802
7.30157
7.29312
7.28279
7.27073
7.2571
7.24204
7.22572
12.7779
10.8885
9.31218
8.46507
7.85363
7.24193
6.82285
6.57235
6.41763
6.32541
6.26012
6.20061
6.14246
6.09152
6.05427
6.03284
6.02607
6.0312
6.0451
6.06508
6.0894
6.11743
6.14941
6.18589
6.22568
6.26828
6.31224
6.36111
6.4026
6.44352
6.48462
6.522
6.55535
6.58519
6.61158
6.63412
6.65314
6.66861
6.6808
6.69026
6.69654
6.70052
6.70209
6.70139
6.69857
6.69371
6.68693
6.67828
6.66791
6.65594
13.7857
10.6132
8.15734
6.82234
6.26026
6.00531
5.85086
5.73599
5.70169
5.65719
5.66711
5.70282
5.74495
5.77906
5.7938
5.78816
5.7659
5.73351
5.70275
5.68353
5.67883
5.6867
5.70304
5.72392
5.74985
5.77185
5.80088
5.82323
5.85084
5.88076
5.91184
5.94251
5.97178
5.99905
6.02387
6.04574
6.06462
6.08056
6.09338
6.10345
6.11115
6.11611
6.11909
6.11992
6.11876
6.11576
6.11102
6.10462
6.09666
6.08728
6.72904
6.17987
5.69107
5.38913
5.24585
4.99755
4.86637
5.91869
5.67486
5.59118
5.60792
5.69279
5.67067
5.49752
5.37628
5.36229
5.37916
5.39649
5.4091
5.40834
5.39563
5.37482
5.35432
5.34251
5.34287
5.35291
5.36825
5.38652
5.4067
5.42819
5.45024
5.47175
5.49172
5.50949
5.52476
5.53714
5.54676
5.55383
5.55842
5.56086
5.56133
5.56075
5.55795
5.55416
5.5491
5.54275
5.53531
5.52687
5.51748
5.50717
5.74542
5.77955
5.79716
5.99173
6.08009
5.62887
5.57482
5.92282
5.24473
5.47509
5.64778
5.36887
5.49806
5.29425
5.44037
5.11584
5.16934
5.22081
5.22285
5.20876
5.20203
5.20627
5.22001
5.24083
5.25955
5.27433
5.29092
5.31349
5.33933
5.36467
5.38493
5.3987
5.40665
5.40908
5.40591
5.39743
5.38431
5.36736
5.34749
5.32555
5.30227
5.27897
5.2543
5.22971
5.20502
5.18013
5.15524
5.13057
5.10619
5.08214
4.96466
4.97639
4.98533
4.99442
5.00089
5.01932
5.10038
5.10531
5.09191
5.08743
5.09773
5.12922
5.1427
5.15271
5.15467
5.44243
5.31628
5.30301
5.32482
5.33766
5.34945
5.36304
5.38525
5.4022
5.43082
5.4819
5.52797
5.54165
5.53425
5.51581
5.50734
5.51012
5.5142
5.51219
5.50227
5.48487
5.46032
5.4293
5.39295
5.35265
5.30965
5.26511
5.22143
5.17867
5.13384
5.08774
5.04239
4.9977
4.95356
4.91009
4.62569
4.62928
4.66008
4.67593
4.68201
4.76572
4.77965
4.7881
4.80536
4.82252
4.84177
4.86486
4.8895
4.94647
4.96419
4.97914
4.99817
5.01996
5.04514
5.07133
5.09951
5.13043
5.16616
5.19546
5.16531
5.18283
5.23937
5.24607
5.34642
5.31761
5.32572
5.33231
5.33754
5.33954
5.33934
5.33572
5.3274
5.31252
5.29128
5.2651
5.23531
5.20998
5.21981
5.17127
5.11793
5.06987
5.02415
4.97565
4.92513
4.87478
4.56934
4.55012
4.57127
4.60045
4.54123
4.55392
4.59817
4.55362
4.59446
4.62925
4.63854
4.64115
4.67368
4.69811
4.73435
4.77948
4.81672
4.83836
4.84704
4.85236
4.86618
4.88786
4.91197
4.93831
4.9572
4.97356
4.99491
5.017
5.03815
5.05772
5.07679
5.10185
5.13252
5.16414
5.17244
5.16719
5.15596
5.14542
5.13925
5.13211
5.11816
5.10774
5.10412
5.09468
5.04829
4.98793
4.92815
4.8788
4.83456
4.78916
3.95945
3.98629
4.01224
4.01426
4.01243
4.01912
4.03828
4.06185
4.08859
4.11853
4.1572
4.20883
4.29896
4.33029
4.34233
4.36385
4.39651
4.43447
4.47472
4.51535
4.56254
4.6216
4.6486
4.68712
4.72307
4.75568
4.7897
4.8177
4.83987
4.85752
4.8733
4.88791
4.89741
4.90049
4.90233
4.91493
4.93975
4.94785
4.93102
4.88578
4.8277
4.78649
4.73159
4.68027
4.62985
4.57012
4.47535
4.41365
4.36222
4.32065
2.96262
2.96851
2.98929
3.14649
2.86656
2.85488
2.85557
2.86075
2.87178
2.89359
2.92495
2.95385
2.97204
2.97834
2.97049
2.95592
2.94925
2.94755
2.94904
2.94773
2.95147
2.95639
2.9498
2.92817
2.89584
2.85052
2.79907
2.75247
2.70858
2.67107
2.66879
2.56394
2.47985
2.40761
2.33373
2.28046
2.30961
2.15063
2.05705
1.9955
1.95545
1.9238
1.89809
1.87976
1.86884
1.88143
1.86078
1.88471
1.92303
1.96872
2.08536
2.05467
2.05905
2.02602
1.99758
1.98005
1.90196
1.86346
1.83403
1.79199
1.76186
1.72828
1.71085
1.63262
1.57367
1.51016
1.43609
1.3494
1.27755
1.16963
1.07364
0.960586
0.827041
0.678285
0.524926
0.370371
0.211348
0.0463949
-0.123009
-0.298554
-0.489439
-0.712629
-0.922683
-1.11782
-1.28906
-1.43875
-1.56796
-1.67258
-1.7503
-1.80221
-1.82971
-1.8323
-1.8094
-1.75162
-1.68761
-1.6056
-1.50072
-1.37725
-1.23313
-1.07527
2.14496
2.12247
2.1006
2.07276
2.02361
1.98971
1.95193
1.85399
1.83212
1.75798
1.69665
1.66923
1.53824
1.46376
1.38643
1.28255
1.19967
1.06822
0.952959
0.78738
0.661723
0.485148
0.326834
0.165063
-0.00347481
-0.180064
-0.360373
-0.546617
-0.7628
-0.955563
-1.14886
-1.34226
-1.53397
-1.71457
-1.87167
-2.00146
-2.10537
-2.18481
-2.23676
-2.26111
-2.25751
-2.22869
-2.18156
-2.0533
-2.04906
-1.93785
-1.82185
-1.67761
-1.53262
-1.36077
2.65965
2.63974
2.63614
2.62815
2.60587
2.58269
2.57954
2.52624
2.48998
2.43383
2.38631
2.37322
2.28625
2.23438
2.17238
2.09547
2.01673
1.93217
1.83804
1.75847
1.64024
1.56225
1.46118
1.34297
1.20484
1.27431
1.09097
1.02651
1.00147
0.882706
0.847557
0.682997
0.612976
0.544434
0.483018
0.438193
0.407772
0.396619
0.392943
0.452405
0.434028
0.453823
0.502766
0.548492
0.617986
0.709094
0.768586
0.841732
0.918342
1.02656
2.9657
2.98217
2.99473
3.00113
3.00586
3.00856
3.00636
3.00276
3.01556
3.01688
2.98843
3.02991
2.9747
2.99023
2.9526
2.9587
2.90275
2.87745
2.84773
2.80735
2.77389
2.73152
2.67615
2.62253
2.73279
2.66575
2.68741
2.7004
2.70982
2.65707
2.66345
2.76522
2.64852
2.70248
2.75355
2.80405
2.85464
2.90521
2.96232
3.02182
3.08492
3.13193
3.17093
3.20264
3.23739
3.2952
3.34498
3.35149
3.36851
3.37382
2.87744
2.87689
2.88289
2.90618
2.92044
2.91668
2.92055
2.93913
2.96169
2.99788
3.03235
3.06616
3.09805
3.12074
3.14174
3.17216
3.18068
3.21311
3.23942
3.26112
3.26885
3.25859
3.25155
3.30051
3.29792
3.3642
3.40674
3.44037
3.47955
3.5247
3.58086
3.66482
3.82278
3.63861
3.71217
3.79493
3.88248
3.97482
4.07229
4.17391
4.2821
4.37381
4.44658
4.50078
4.55231
4.60454
4.6455
4.66814
4.67168
4.65773
2.66625
2.65041
2.63914
2.63271
2.63112
2.63912
2.65916
2.70014
2.72334
2.73697
2.7786
2.82828
2.86438
2.90202
2.93804
2.99538
3.04682
3.10752
3.17293
3.24877
3.30845
3.34058
3.33337
3.67754
3.53566
3.6894
3.78972
3.87191
3.95474
4.02637
4.11022
4.20614
4.30308
4.34677
4.42822
4.54229
4.64129
4.76773
4.90385
5.01429
5.07988
5.1072
5.17763
5.24057
5.30612
5.35924
5.39437
5.41631
5.41079
5.38321
2.86767
2.8515
2.83767
2.82838
2.82233
2.82031
2.82047
2.82664
2.83747
2.86092
2.89236
2.92612
2.9542
2.98247
3.0252
3.06631
3.13562
3.18535
3.1844
3.24157
3.29439
3.37044
3.42119
3.4752
3.55345
3.60654
3.63952
3.76145
3.82643
3.92032
4.03372
4.0657
4.09616
4.19528
4.27457
4.28389
4.36461
4.41776
4.46083
4.49931
4.54171
4.5873
4.62256
4.60349
4.62826
4.62262
4.62701
4.61072
4.59828
4.67394
2.62412
2.62973
2.63712
2.64632
2.65796
2.67315
2.70749
2.70845
2.72731
2.74909
2.77169
2.79603
2.83344
2.85587
2.87257
2.89739
2.92221
2.94652
2.9712
2.99865
3.02858
3.05728
3.08404
3.10928
3.14195
3.17984
3.22124
3.26931
3.32428
3.37614
3.42199
3.46451
3.5018
3.5575
3.58691
3.64214
3.66144
3.67973
3.72952
3.66265
3.71301
3.70213
3.72025
3.72002
3.68443
3.68622
3.6728
3.66867
3.67372
3.65196
8.25134
8.2396
8.22778
8.21595
8.20323
8.19136
8.17938
8.16729
8.15513
8.1429
8.13059
8.11822
8.10578
8.09328
8.08071
8.06807
8.05537
8.04262
8.02981
8.01696
8.00407
7.99115
7.9782
7.96523
7.95226
7.9393
7.92634
7.91323
7.89985
7.8877
7.87673
7.8514
7.83901
7.82723
7.8146
7.80181
7.789
7.7791
7.76664
7.7479
7.73589
7.724
7.71211
7.70016
7.68831
7.67656
7.6649
7.65331
7.64181
7.6304
7.61908
7.6078
7.59658
7.58542
7.5743
7.56321
7.55215
7.54109
7.52998
7.51876
7.50747
7.49634
7.48528
7.47411
7.46283
7.45142
7.43973
7.42776
7.41576
7.40375
7.39155
7.37912
7.36646
7.35353
7.34032
7.3268
7.31292
7.29874
7.28431
7.26958
7.25479
7.23883
7.22111
7.20384
7.18612
7.16793
7.14915
7.12954
7.10944
7.08861
7.06702
7.04464
7.02141
6.99728
6.9722
6.94614
6.91915
6.89141
6.86246
6.83257
6.80168
6.7697
6.73667
6.70264
6.66741
6.63086
6.59359
6.55439
6.51443
6.47313
6.43045
6.38663
6.34174
6.29572
6.24846
6.20004
6.15108
6.09957
6.04714
5.99359
5.93891
5.88299
5.82583
5.76751
5.70801
5.64722
5.58505
5.52158
5.45718
5.39128
5.32434
5.25606
5.18644
5.11553
5.04327
4.9697
4.89492
4.81888
4.74149
4.66274
4.58266
4.50124
4.41837
4.33393
4.24816
4.161
4.07236
3.98224
3.89059
3.79742
3.7027
3.60641
3.50858
3.4095
3.30825
3.2055
3.10115
2.9952
2.88761
2.77836
2.66745
2.55489
2.44069
2.32487
2.20747
2.08851
1.96797
1.84589
1.72231
1.59733
1.47098
1.34331
1.21436
1.08422
0.952968
0.82068
0.687467
0.553358
0.418485
0.282977
0.146945
0.0104973
-0.126245
-0.263151
-0.400075
-0.53691
-0.673498
-0.809663
-0.945286
-1.08016
-1.21411
-1.34692
-1.4788
-1.60934
-1.73832
-1.86555
-1.99092
-2.11426
-2.23538
-2.35411
-2.47028
-2.58374
-2.69436
-2.80197
-2.90637
-3.00744
-3.10504
-3.19903
-3.28911
-3.37562
-3.45811
-3.53651
-3.61074
-3.68073
-3.74638
-3.80764
-3.86441
-3.91668
-3.9644
-4.00748
-4.04594
-4.07975
-4.1089
-4.13339
-4.15324
-4.1683
-4.17896
-4.18496
-4.1864
-4.18335
-4.17587
-4.16403
-4.14792
-4.12757
-4.10316
-4.07482
-4.04252
-4.00649
-3.96683
-3.92367
-3.87717
-3.8275
-3.775
-3.7193
-3.6619
-3.6014
-3.53781
-3.47174
-3.40342
-3.33305
-3.26085
-3.18708
-3.11202
-3.03593
-2.95905
-2.88165
-2.8039
-2.72609
-2.64846
-2.57074
-2.49414
-2.41783
-2.34243
-2.26812
-2.1951
-2.12354
-2.05339
-1.98517
-1.91846
-1.85369
-1.79096
-1.73032
-1.67187
-1.61568
-1.56171
-1.51016
-1.46085
-1.41394
-1.36955
-1.32655
-1.28734
-1.24962
-1.21418
-1.18122
-1.15047
-1.12189
-1.09549
-1.07111
-1.04879
-1.02846
-1.00992
-0.993377
-0.978539
-0.965341
-0.953722
-0.943575
-0.934786
-0.927254
-0.920808
-0.915731
7.77301
7.76117
7.74914
7.73693
7.72515
7.71241
7.69992
7.68729
7.67453
7.66164
7.64864
7.63554
7.62234
7.60904
7.59566
7.58234
7.56847
7.55485
7.54115
7.52739
7.51356
7.49968
7.48575
7.47177
7.45777
7.44377
7.42974
7.41547
7.40093
7.38645
7.37226
7.35567
7.34213
7.32987
7.31589
7.30006
7.28574
7.27706
7.2634
7.24685
7.23356
7.22017
7.20676
7.19345
7.18024
7.16713
7.15412
7.14119
7.12836
7.1156
7.10292
7.09032
7.07779
7.06533
7.05292
7.0405
7.02802
7.01554
7.00326
6.99111
6.97887
6.96559
6.95302
6.94064
6.92842
6.91612
6.90376
6.89129
6.87869
6.86595
6.85306
6.84
6.82674
6.81326
6.79952
6.78551
6.77118
6.75652
6.74155
6.72629
6.71068
6.69624
6.67839
6.661
6.64402
6.62286
6.60451
6.58256
6.56298
6.54171
6.51948
6.49649
6.47273
6.44815
6.42285
6.3964
6.36917
6.34096
6.31179
6.28165
6.25034
6.21787
6.18436
6.14971
6.11379
6.07675
6.03873
5.99975
5.95965
5.91846
5.87614
5.83275
5.78828
5.74277
5.69618
5.64845
5.59959
5.54962
5.49854
5.44647
5.39347
5.33945
5.28446
5.22859
5.17149
5.11311
5.05401
4.99385
4.9327
4.87056
4.80732
4.74294
4.67741
4.61078
4.5431
4.47435
4.40444
4.33334
4.26104
4.18754
4.1128
4.03679
3.95925
3.88042
3.80024
3.71866
3.63563
3.5511
3.46506
3.37747
3.2883
3.19755
3.10521
3.01118
2.9153
2.81786
2.71873
2.61787
2.51528
2.41098
2.30499
2.19731
2.08787
1.97677
1.86401
1.74962
1.63363
1.51607
1.39698
1.27642
1.15444
1.03109
0.906452
0.780662
0.653657
0.525485
0.396477
0.266652
0.136095
0.00492254
-0.126706
-0.258543
-0.390521
-0.522836
-0.654873
-0.786531
-0.917671
-1.04814
-1.17775
-1.30634
-1.4337
-1.55959
-1.68392
-1.80667
-1.92735
-2.04587
-2.16205
-2.27572
-2.3867
-2.49479
-2.59982
-2.70161
-2.79987
-2.89476
-2.98589
-3.07315
-3.1564
-3.23552
-3.31026
-3.38085
-3.44696
-3.5085
-3.56543
-3.61769
-3.66524
-3.70804
-3.74597
-3.77931
-3.80783
-3.83155
-3.85056
-3.8649
-3.87463
-3.87981
-3.88049
-3.87679
-3.86895
-3.85679
-3.8406
-3.8205
-3.79662
-3.7691
-3.73805
-3.7037
-3.66613
-3.62556
-3.58217
-3.53603
-3.48747
-3.4365
-3.3834
-3.32846
-3.27185
-3.21314
-3.15303
-3.09161
-3.02912
-2.96584
-2.90189
-2.83744
-2.7727
-2.70779
-2.64276
-2.57774
-2.51285
-2.44831
-2.38425
-2.32083
-2.25828
-2.1967
-2.13602
-2.07665
-2.01851
-1.96161
-1.90666
-1.8534
-1.80173
-1.75192
-1.70395
-1.65791
-1.61389
-1.5719
-1.53194
-1.49396
-1.45805
-1.42413
-1.39221
-1.3625
-1.33472
-1.30815
-1.285
-1.26193
-1.24108
-1.22211
-1.20458
-1.18872
-1.17394
-1.16053
-1.14839
-1.13737
-1.12736
-1.11844
-1.11022
-1.10278
-1.09604
-1.08992
-1.08436
-1.07921
-1.07446
-1.06959
7.21226
7.20253
7.1925
7.18218
7.17156
7.16069
7.14974
7.13799
7.12651
7.11483
7.10297
7.09093
7.07873
7.06638
7.05391
7.04144
7.02826
7.01545
7.00253
6.9895
6.97638
6.96317
6.94986
6.93679
6.92282
6.90936
6.89581
6.88219
6.8684
6.85437
6.84024
6.82642
6.8126
6.79725
6.7837
6.77038
6.7565
6.74078
6.72652
6.71242
6.69852
6.67881
6.66522
6.65152
6.63773
6.62395
6.6102
6.5965
6.58284
6.56922
6.55564
6.54211
6.52864
6.51522
6.50185
6.4885
6.47523
6.46181
6.44837
6.43488
6.42164
6.40862
6.39554
6.38241
6.36927
6.35611
6.34292
6.32967
6.31634
6.30292
6.28937
6.27567
6.26179
6.24772
6.23342
6.21885
6.204
6.18882
6.17331
6.15745
6.14124
6.12467
6.10766
6.08987
6.07028
6.05092
6.03194
6.01168
5.99068
5.96861
5.94588
5.9225
5.89838
5.87336
5.84749
5.82084
5.79329
5.7646
5.7348
5.70399
5.6721
5.63912
5.60515
5.57032
5.53453
5.49774
5.45992
5.42111
5.38131
5.34059
5.29895
5.25633
5.21268
5.1681
5.12259
5.07613
5.02881
4.9807
4.93176
4.88198
4.83135
4.77988
4.72757
4.67443
4.62048
4.56572
4.51016
4.45352
4.39591
4.33736
4.27791
4.21753
4.15615
4.09371
4.03017
3.96552
3.89969
3.83266
3.76437
3.69481
3.62389
3.55135
3.4775
3.40218
3.32533
3.24688
3.16678
3.08502
3.00165
2.91641
2.82924
2.74036
2.64965
2.55707
2.4626
2.36624
2.26796
2.16775
2.06562
1.96153
1.85555
1.7477
1.63798
1.52678
1.41327
1.29803
1.18121
1.0628
0.942818
0.82132
0.698432
0.574206
0.44873
0.322106
0.19443
0.065826
-0.0635334
-0.193555
-0.32414
-0.454826
-0.585854
-0.716455
-0.847584
-0.979135
-1.10968
-1.23943
-1.36839
-1.49642
-1.6233
-1.74882
-1.87264
-1.99362
-2.11442
-2.23303
-2.34871
-2.46141
-2.57105
-2.67746
-2.78042
-2.87974
-2.97524
-3.06674
-3.1541
-3.23714
-3.31563
-3.38959
-3.45877
-3.52313
-3.5826
-3.63675
-3.68638
-3.73062
-3.76963
-3.80349
-3.83218
-3.85571
-3.87319
-3.88721
-3.89547
-3.89875
-3.89719
-3.89088
-3.87998
-3.86463
-3.84441
-3.82088
-3.79285
-3.76107
-3.7257
-3.68691
-3.64489
-3.59986
-3.552
-3.5015
-3.44862
-3.39359
-3.33656
-3.27779
-3.21734
-3.15567
-3.09314
-3.02817
-2.96443
-2.89902
-2.83318
-2.76734
-2.7015
-2.63578
-2.57031
-2.50528
-2.4408
-2.37708
-2.31424
-2.25223
-2.19145
-2.13197
-2.07371
-2.01704
-1.96177
-1.90846
-1.85695
-1.80689
-1.75894
-1.71294
-1.66897
-1.6272
-1.58763
-1.5502
-1.51476
-1.48153
-1.45046
-1.42158
-1.39484
-1.37017
-1.34757
-1.32706
-1.30865
-1.29227
-1.27756
-1.2641
-1.25251
-1.24219
-1.23433
-1.22737
-1.22202
-1.21743
-1.2138
-1.21101
-1.20893
-1.20692
-1.20539
-1.20374
-1.20191
-1.19979
-1.1973
-1.19434
-1.19082
-1.18639
-1.18125
-1.17288
6.64555
6.63785
6.62974
6.62123
6.61234
6.60308
6.59349
6.58368
6.57327
6.56282
6.5521
6.54115
6.52994
6.51854
6.50694
6.49539
6.48303
6.47097
6.45876
6.44641
6.43391
6.42129
6.40855
6.39578
6.38262
6.36955
6.35638
6.34309
6.32969
6.31619
6.30261
6.28893
6.27511
6.26114
6.24707
6.23296
6.21869
6.20441
6.19003
6.17564
6.1614
6.14709
6.13269
6.11819
6.10369
6.08923
6.07478
6.06036
6.04597
6.03161
6.01729
6.00304
5.98885
5.9747
5.96063
5.94673
5.93293
5.919
5.90495
5.89072
5.87652
5.86242
5.84843
5.83449
5.82056
5.80662
5.79265
5.77864
5.76455
5.75037
5.73607
5.72162
5.70699
5.69216
5.6771
5.66177
5.64619
5.63037
5.61425
5.59769
5.58063
5.56285
5.54447
5.52553
5.50733
5.48687
5.46814
5.44595
5.42379
5.40091
5.37734
5.35305
5.32791
5.30193
5.27518
5.24764
5.21968
5.19003
5.15924
5.12757
5.09504
5.06166
5.02739
4.99221
4.95611
4.91912
4.88127
4.8426
4.80315
4.76296
4.72175
4.67969
4.63687
4.59333
4.54908
4.50409
4.45837
4.41196
4.3648
4.3169
4.26828
4.21893
4.16883
4.11797
4.06615
4.01345
3.95985
3.90537
3.8499
3.7934
3.73581
3.67708
3.61714
3.55593
3.4934
3.42949
3.36412
3.29721
3.22868
3.1585
3.08662
3.01298
2.93752
2.86016
2.78087
2.69961
2.61633
2.5311
2.44494
2.35473
2.26282
2.16894
2.07298
1.97481
1.87477
1.7751
1.66905
1.56168
1.45258
1.34166
1.22864
1.1136
0.99701
0.881352
0.757979
0.63454
0.509961
0.38401
0.256331
0.127396
-0.00221594
-0.131099
-0.267421
-0.402293
-0.537161
-0.672485
-0.808524
-0.945018
-1.08172
-1.21796
-1.35337
-1.48773
-1.62764
-1.76307
-1.89666
-2.02882
-2.1596
-2.28862
-2.41551
-2.5395
-2.65593
-2.77733
-2.89489
-3.00784
-3.11678
-3.22225
-3.32394
-3.42155
-3.51498
-3.60393
-3.68778
-3.76644
-3.83996
-3.90802
-3.9705
-4.02728
-4.07829
-4.12345
-4.16254
-4.19588
-4.22327
-4.24461
-4.25989
-4.26918
-4.27265
-4.27043
-4.26271
-4.24904
-4.23128
-4.20702
-4.17764
-4.14392
-4.10591
-4.06121
-4.01602
-3.96525
-3.91081
-3.8532
-3.79262
-3.72933
-3.66378
-3.59555
-3.52594
-3.45436
-3.38118
-3.30695
-3.23182
-3.15599
-3.07971
-3.00348
-2.92678
-2.85124
-2.77591
-2.70004
-2.62513
-2.5514
-2.47872
-2.40707
-2.33669
-2.26775
-2.20078
-2.13512
-2.07112
-2.00914
-1.94886
-1.89077
-1.83493
-1.78134
-1.72991
-1.6806
-1.63391
-1.5894
-1.54748
-1.50821
-1.4715
-1.43714
-1.40545
-1.37635
-1.34984
-1.32632
-1.30507
-1.28658
-1.27042
-1.25648
-1.2454
-1.23654
-1.22926
-1.22524
-1.22182
-1.21962
-1.21913
-1.22039
-1.22303
-1.22704
-1.23245
-1.23877
-1.24606
-1.25412
-1.26284
-1.27157
-1.28061
-1.28985
-1.29935
-1.3094
-1.32037
-1.33249
-1.34582
-1.35998
-1.37449
-1.38581
6.07899
6.07279
6.06618
6.05918
6.05177
6.04398
6.03583
6.02737
6.01863
6.00954
6.00021
5.99063
5.98079
5.97071
5.96043
5.95011
5.93942
5.92861
5.91764
5.90654
5.89529
5.8839
5.8724
5.86114
5.84923
5.83742
5.82549
5.81345
5.8013
5.78903
5.77667
5.7642
5.75161
5.73894
5.72625
5.71347
5.70056
5.68754
5.67442
5.66114
5.64765
5.6339
5.61992
5.60584
5.59186
5.57791
5.56399
5.54995
5.53579
5.52162
5.50734
5.49284
5.47861
5.4645
5.45041
5.4364
5.42244
5.40861
5.39598
5.38195
5.36702
5.35245
5.33796
5.32355
5.30922
5.29488
5.28051
5.26608
5.25157
5.23693
5.22214
5.20719
5.19203
5.17663
5.16096
5.145
5.12883
5.11242
5.09555
5.07805
5.0599
5.04107
5.02174
5.00233
4.98142
4.96062
4.94048
4.91778
4.89437
4.87021
4.84535
4.81972
4.79325
4.76593
4.73777
4.70882
4.68115
4.64864
4.61672
4.58402
4.55053
4.51611
4.48101
4.44485
4.40803
4.37039
4.33189
4.29282
4.25313
4.21214
4.17076
4.12885
4.08607
4.04281
3.99866
3.95383
3.90836
3.86205
3.815
3.76718
3.71863
3.66906
3.61852
3.56699
3.51443
3.46075
3.40589
3.34976
3.29228
3.23339
3.17301
3.11105
3.04742
2.98205
2.91485
2.84577
2.77474
2.70172
2.62664
2.54947
2.47008
2.38855
2.30477
2.21879
2.13059
2.04014
1.94743
1.85235
1.75493
1.65517
1.55312
1.44905
1.34244
1.23415
1.12522
1.01144
0.895315
0.777388
0.657823
0.535816
0.412007
0.286528
0.159571
0.0293773
-0.103097
-0.237347
-0.372674
-0.510073
-0.64881
-0.788525
-0.929073
-1.07223
-1.21694
-1.36243
-1.50807
-1.65462
-1.80163
-1.94861
-2.09514
-2.24103
-2.38682
-2.5325
-2.67772
-2.82137
-2.96298
-3.10277
-3.24011
-3.37472
-3.50611
-3.63408
-3.75895
-3.88064
-3.99894
-4.11043
-4.21927
-4.32062
-4.4192
-4.51029
-4.5947
-4.67312
-4.74532
-4.8111
-4.86892
-4.92514
-4.97049
-5.00754
-5.0372
-5.05981
-5.07532
-5.08379
-5.0782
-5.07683
-5.06265
-5.04084
-5.01221
-4.97729
-4.93512
-4.88849
-4.83584
-4.77616
-4.71084
-4.64076
-4.56665
-4.4885
-4.40636
-4.32226
-4.23251
-4.13986
-4.04579
-3.9507
-3.85254
-3.75507
-3.65582
-3.55548
-3.45549
-3.35595
-3.25702
-3.15897
-3.06186
-2.96612
-2.87174
-2.778
-2.68638
-2.59563
-2.50794
-2.42251
-2.33991
-2.25819
-2.17921
-2.10418
-2.0306
-1.96015
-1.89169
-1.8262
-1.76404
-1.70495
-1.64839
-1.59496
-1.54467
-1.49717
-1.45302
-1.4121
-1.37404
-1.33925
-1.30759
-1.27893
-1.25314
-1.23034
-1.21075
-1.1922
-1.17941
-1.1678
-1.15857
-1.15209
-1.14834
-1.14711
-1.14835
-1.15168
-1.15704
-1.16425
-1.17362
-1.18599
-1.2001
-1.21855
-1.23967
-1.26384
-1.29074
-1.31955
-1.349
-1.37762
-1.40402
-1.4274
-1.44748
-1.46484
-1.48065
-1.4964
-1.51353
-1.53381
-1.55727
-1.59091
5.49864
5.4925
5.4861
5.47934
5.47229
5.4652
5.45674
5.44936
5.44164
5.43359
5.42536
5.41698
5.40844
5.39971
5.3908
5.38175
5.37266
5.36344
5.35419
5.34486
5.33548
5.32604
5.31656
5.30705
5.29764
5.28795
5.27836
5.26873
5.25908
5.24941
5.23972
5.23
5.22024
5.21044
5.20061
5.19074
5.18078
5.17075
5.16071
5.15062
5.1404
5.13015
5.12841
5.11191
5.10057
5.08917
5.07824
5.06211
5.05068
5.04566
5.03324
5.02046
5.00787
4.99559
4.9829
4.96968
4.95671
4.94391
4.93125
4.9185
4.90581
4.8937
4.88033
4.86639
4.85262
4.83883
4.825
4.8111
4.79706
4.78284
4.7684
4.7537
4.73873
4.72344
4.7078
4.69179