/*--------------------------------*- C++ -*----------------------------------*\
| =========                 |                                                 |
| \\      /  F ield         | OpenFOAM: The Open Source CFD Toolbox           |
|  \\    /   O peration     | Version:  2.4.0                                 |
|   \\  /    A nd           | Web:      www.OpenFOAM.org                      |
|    \\/     M anipulation  |                                                 |
\*---------------------------------------------------------------------------*/
FoamFile
{
    version     2.0;
    format      ascii;
    class       surfaceScalarField;
    location    "3.9";
    object      phi;
}
// * * * * * * * * * * * * * * * * * * * * * * * * * * * * * * * * * * * * * //

dimensions      [0 3 -1 0 0 0 0];

internalField   nonuniform List<scalar> 
15580
(
2.17862e-15
-2.70123e-13
4.00953e-13
-8.06001e-13
1.41484e-12
-1.24814e-12
3.14436e-12
-1.55768e-12
5.64996e-12
-1.73422e-12
8.99023e-12
-1.78798e-12
1.32305e-11
-1.7317e-12
1.84448e-11
-1.57728e-12
2.4712e-11
-1.33643e-12
3.21136e-11
-1.02129e-12
4.07331e-11
-6.45082e-13
5.06542e-11
-2.22653e-13
6.19676e-11
2.24159e-13
7.47395e-11
6.99773e-13
8.90584e-11
1.16442e-12
1.0501e-10
1.60538e-12
1.22714e-10
2.0005e-12
1.42293e-10
2.33142e-12
1.63325e-10
2.59331e-12
1.84407e-10
2.80137e-12
2.05801e-10
3.0782e-12
2.24146e-10
3.90827e-12
2.64763e-10
3.42078e-12
4.289e-10
4.16485e-12
4.33358e-10
1.95008e-12
4.40656e-10
2.03898e-12
4.80506e-10
4.04477e-12
5.35015e-10
1.27811e-11
6.09752e-10
2.19767e-11
7.29401e-10
1.72426e-11
8.99895e-10
1.01281e-11
1.13346e-09
4.04846e-12
1.46645e-09
1.25602e-12
1.95278e-09
2.64859e-12
2.64979e-09
1.14976e-11
3.60562e-09
3.08594e-11
4.85559e-09
5.90281e-11
6.41912e-09
9.52697e-11
8.30358e-09
1.39208e-10
1.05098e-08
1.91151e-10
1.30349e-08
2.53487e-10
1.58706e-08
3.31497e-10
1.89922e-08
4.38503e-10
2.23634e-08
5.85701e-10
2.59546e-08
7.76061e-10
2.96963e-08
1.04449e-09
3.34945e-08
1.38217e-09
3.73292e-08
1.70743e-09
4.11927e-08
2.01689e-09
2.35833e-09
4.50406e-08
1.73558e-13
-4.4368e-13
7.52518e-13
-1.38496e-12
1.81308e-12
-2.3087e-12
3.39949e-12
-3.14409e-12
5.53601e-12
-3.87074e-12
8.24093e-12
-4.4929e-12
1.15318e-11
-5.02253e-12
1.54291e-11
-5.47457e-12
1.9955e-11
-5.86238e-12
2.51316e-11
-6.19789e-12
3.09792e-11
-6.49264e-12
3.75148e-11
-6.75827e-12
4.47454e-11
-7.00648e-12
5.26944e-11
-7.24925e-12
6.13573e-11
-7.49847e-12
7.07287e-11
-7.76598e-12
8.07932e-11
-8.06405e-12
9.15276e-11
-8.40291e-12
1.02916e-10
-8.79517e-12
1.14966e-10
-9.24846e-12
1.27812e-10
-9.76766e-12
1.4209e-10
-1.03701e-11
1.56588e-10
-1.10776e-11
1.72754e-10
-1.20009e-11
1.87462e-10
-1.28054e-11
2.02648e-10
-1.35223e-11
2.18789e-10
-1.37882e-11
2.39848e-10
-1.41493e-11
2.64685e-10
-1.51182e-11
2.77588e-10
-1.68251e-11
3.05015e-10
-1.93367e-11
3.2907e-10
-2.14782e-11
3.52139e-10
-2.27063e-11
3.76413e-10
-2.1981e-11
4.10123e-10
-2.22133e-11
4.65114e-10
-2.41322e-11
5.49143e-10
-2.5001e-11
6.68811e-10
-2.43983e-11
8.30583e-10
-2.25637e-11
1.04154e-09
-1.98056e-11
1.31189e-09
-1.68677e-11
1.6594e-09
-1.60096e-11
2.11672e-09
-1.88141e-11
2.72323e-09
-2.08088e-11
3.51058e-09
-1.12884e-11
4.53762e-09
1.74452e-11
5.85328e-09
6.65057e-11
7.43245e-09
1.28269e-10
9.24387e-09
2.05468e-10
3.02968e-10
1.12992e-08
-7.71177e-14
-3.66562e-13
-5.85293e-13
-8.76785e-13
-1.56633e-12
-1.32766e-12
-2.94337e-12
-1.76704e-12
-4.64023e-12
-2.17388e-12
-6.59131e-12
-2.54183e-12
-8.74359e-12
-2.87025e-12
-1.10542e-11
-3.16396e-12
-1.34883e-11
-3.42828e-12
-1.60174e-11
-3.66881e-12
-1.86183e-11
-3.89176e-12
-2.12721e-11
-4.10444e-12
-2.39634e-11
-4.3152e-12
-2.66791e-11
-4.53355e-12
-2.94073e-11
-4.77024e-12
-3.21361e-11
-5.03717e-12
-3.48526e-11
-5.3475e-12
-3.75399e-11
-5.71567e-12
-4.01776e-11
-6.15749e-12
-4.27357e-11
-6.69031e-12
-4.51703e-11
-7.33305e-12
-4.7434e-11
-8.10642e-12
-4.94787e-11
-9.03283e-12
-5.13412e-11
-1.01384e-11
-5.27018e-11
-1.14448e-11
-5.32424e-11
-1.29817e-11
-5.22464e-11
-1.47843e-11
-4.94914e-11
-1.69043e-11
-4.51584e-11
-1.94512e-11
-3.94104e-11
-2.25724e-11
-3.29272e-11
-2.58197e-11
-2.50907e-11
-2.93135e-11
-1.49928e-11
-3.27929e-11
-4.44566e-13
-3.64651e-11
1.13666e-11
-4.02604e-11
3.15636e-11
-4.43369e-11
5.50722e-11
-4.85096e-11
8.32163e-11
-5.25424e-11
1.17119e-10
-5.64666e-11
1.56567e-10
-5.92531e-11
2.01825e-10
-6.21266e-11
2.50339e-10
-6.45226e-11
2.97513e-10
-6.59883e-11
3.42306e-10
-6.56022e-11
3.95074e-10
-6.40562e-11
4.73394e-10
-6.08749e-11
5.96129e-10
-5.62288e-11
7.74997e-10
-5.05998e-11
1.02492e-09
-4.44591e-11
-3.86328e-11
1.36653e-09
-6.50866e-13
2.84304e-13
-1.98382e-12
4.56165e-13
-3.77807e-12
4.6659e-13
-5.98807e-12
4.42959e-13
-8.57316e-12
4.11204e-13
-1.15002e-11
3.85197e-13
-1.47455e-11
3.75053e-13
-1.82958e-11
3.86323e-13
-2.2147e-11
4.22999e-13
-2.63035e-11
4.87657e-13
-3.07768e-11
5.8152e-13
-3.5586e-11
7.04781e-13
-4.07578e-11
8.56568e-13
-4.63261e-11
1.03479e-12
-5.23325e-11
1.23617e-12
-5.88258e-11
1.45604e-12
-6.58616e-11
1.68836e-12
-7.35028e-11
1.92554e-12
-8.18184e-11
2.15812e-12
-9.08829e-11
2.37418e-12
-1.00776e-10
2.56049e-12
-1.1158e-10
2.69694e-12
-1.23375e-10
2.76274e-12
-1.36248e-10
2.73438e-12
-1.50265e-10
2.57237e-12
-1.65396e-10
2.1488e-12
-1.81884e-10
1.70438e-12
-1.98456e-10
-3.32467e-13
-2.16322e-10
-1.59269e-12
-2.33335e-10
-5.78771e-12
-2.4789e-10
-1.12653e-11
-2.62237e-10
-1.49793e-11
-2.77327e-10
-1.83966e-11
-2.90243e-10
-2.40682e-11
-2.98719e-10
-3.23099e-11
-3.05094e-10
-3.89304e-11
-3.07515e-10
-4.60989e-11
-3.05733e-10
-5.43239e-11
-3.00318e-10
-6.18812e-11
-2.92944e-10
-6.66279e-11
-2.85923e-10
-6.91476e-11
-2.75587e-10
-7.48585e-11
-2.58475e-10
-8.30997e-11
-2.3519e-10
-8.88873e-11
-2.07589e-10
-9.16574e-11
-1.7705e-10
-9.1414e-11
-1.43211e-10
-9.00674e-11
-1.05421e-10
-8.83901e-11
-6.34099e-11
-8.64702e-11
-8.38937e-11
-1.81489e-11
1.14272e-12
-8.58416e-13
3.79086e-12
-2.19197e-12
7.58383e-12
-3.32638e-12
1.2367e-11
-4.34023e-12
1.80122e-11
-5.23393e-12
2.44105e-11
-6.01314e-12
3.1469e-11
-6.68343e-12
3.91053e-11
-7.25005e-12
4.72441e-11
-7.71575e-12
5.58125e-11
-8.08078e-12
6.47373e-11
-8.34325e-12
7.39412e-11
-8.49914e-12
8.33402e-11
-8.54244e-12
9.28399e-11
-8.46492e-12
1.02332e-10
-8.25625e-12
1.11692e-10
-7.90383e-12
1.20774e-10
-7.39373e-12
1.29409e-10
-6.70886e-12
1.37406e-10
-5.83937e-12
1.44553e-10
-4.77234e-12
1.50604e-10
-3.49033e-12
1.55432e-10
-2.13159e-12
1.58951e-10
-7.56559e-13
1.60052e-10
1.63368e-12
1.58172e-10
4.45229e-12
1.51492e-10
8.82901e-12
1.41163e-10
1.20328e-11
1.22743e-10
1.80993e-11
9.80081e-11
9.133e-12
7.73101e-11
1.47213e-11
6.33175e-11
2.60725e-12
5.40257e-11
-5.76322e-12
3.25299e-11
3.05848e-12
-1.00623e-12
9.44893e-12
-3.21972e-11
-1.12529e-12
-4.64383e-11
-2.46979e-11
-5.50361e-11
-3.75011e-11
-6.03285e-11
-4.90315e-11
-5.60608e-11
-6.61489e-11
-7.38479e-11
-4.88408e-11
-9.37296e-11
-4.92659e-11
-9.92571e-11
-6.93311e-11
-8.55708e-11
-9.6786e-11
-4.96898e-11
-1.24768e-10
-9.08557e-12
-1.32262e-10
2.95405e-11
-1.3004e-10
5.45981e-11
-1.15125e-10
7.27332e-11
-1.06525e-10
1.04215e-10
-1.17952e-10
-1.18306e-10
1.38627e-10
-3.77363e-13
-4.81053e-13
-1.15361e-12
-1.41572e-12
-2.14633e-12
-2.33366e-12
-3.25028e-12
-3.23628e-12
-4.35698e-12
-4.12723e-12
-5.35776e-12
-5.01236e-12
-6.14473e-12
-5.89645e-12
-6.61157e-12
-6.78321e-12
-6.65359e-12
-7.67373e-12
-6.1678e-12
-8.56656e-12
-5.05321e-12
-9.45784e-12
-3.21128e-12
-1.03411e-11
-5.46637e-13
-1.12071e-11
3.03165e-12
-1.20432e-11
7.6099e-12
-1.28345e-11
1.32731e-11
-1.3567e-11
2.01155e-11
-1.42362e-11
2.82319e-11
-1.48253e-11
3.7909e-11
-1.55164e-11
4.75789e-11
-1.44423e-11
5.75659e-11
-1.34773e-11
6.5334e-11
-1.02264e-11
7.09716e-11
-7.59384e-12
7.91376e-11
-8.88939e-12
6.5025e-11
2.24432e-12
5.72059e-11
1.56736e-11
2.92541e-11
3.92326e-11
-1.86354e-11
6.54503e-11
1.18466e-12
-1.0687e-11
6.0301e-12
9.87583e-12
-2.78148e-11
3.64343e-11
-1.31946e-11
-2.03835e-11
2.63715e-11
-3.65076e-11
6.68819e-11
-3.10615e-11
8.16731e-11
-1.59164e-11
7.73194e-11
-2.03442e-11
6.58257e-11
-2.60074e-11
8.21399e-11
-6.53456e-11
8.88452e-11
-7.28542e-11
9.55537e-11
-5.55493e-11
1.18156e-10
-7.18683e-11
1.44474e-10
-9.56495e-11
1.10869e-10
-6.31804e-11
2.64134e-11
-4.03129e-11
-2.74195e-11
-7.84287e-11
-6.22477e-11
-9.52118e-11
-1.08485e-10
-6.8888e-11
-1.57926e-10
-5.70834e-11
-2.05653e-10
-7.02251e-11
-5.92796e-11
-2.64679e-10
-1.18772e-12
7.06662e-13
-4.25821e-12
1.65477e-12
-8.78399e-12
2.19211e-12
-1.43771e-11
2.35686e-12
-2.06698e-11
2.16541e-12
-2.73095e-11
1.6274e-12
-3.39542e-11
7.48237e-13
-4.02672e-11
-4.70234e-13
-4.59117e-11
-2.02927e-12
-5.05446e-11
-3.93358e-12
-5.3812e-11
-6.19044e-12
-5.53431e-11
-8.81003e-12
-5.47432e-11
-1.1807e-11
-5.15833e-11
-1.52031e-11
-4.53898e-11
-1.9028e-11
-3.56156e-11
-2.33412e-11
-2.40865e-11
-2.57653e-11
-9.99464e-12
-2.89171e-11
1.41387e-12
-3.05585e-11
2.80652e-12
-4.44405e-11
-1.83335e-12
-2.96652e-11
2.62023e-12
-2.38717e-11
6.95926e-12
-1.20922e-11
5.52809e-12
-7.52562e-12
1.13571e-11
-3.59161e-12
5.02195e-12
2.20087e-11
-3.69094e-11
8.1164e-11
-6.32524e-11
9.17933e-11
-9.45759e-11
2.06365e-11
-1.10259e-10
2.55587e-11
-1.29782e-10
5.59572e-11
-1.38481e-10
-1.16836e-11
3.71397e-11
-2.12129e-10
4.5656e-10
-4.50482e-10
6.4844e-10
-2.07796e-10
7.51099e-10
-1.23004e-10
6.49562e-10
7.55292e-11
4.93159e-10
9.10575e-11
5.95538e-10
-1.75233e-10
8.09375e-10
-2.69386e-10
8.76582e-10
-1.39075e-10
7.99048e-10
-1.8115e-11
6.80606e-10
5.52611e-11
5.67496e-10
7.27974e-11
3.74358e-10
1.14709e-10
1.25625e-10
1.53521e-10
-1.28111e-10
1.84848e-10
-4.08587e-10
2.23392e-10
-7.57035e-10
2.78223e-10
3.46244e-10
-1.16256e-09
2.65173e-13
4.41488e-13
1.13579e-12
7.84157e-13
2.63361e-12
6.94294e-13
4.7694e-12
2.21075e-13
7.55188e-12
-6.17078e-13
1.10165e-11
-1.83725e-12
1.52092e-11
-3.44439e-12
2.01865e-11
-5.44761e-12
2.60177e-11
-7.86045e-12
3.27842e-11
-1.07001e-11
4.05812e-11
-1.39874e-11
4.95237e-11
-1.77526e-11
5.97556e-11
-2.20389e-11
7.14387e-11
-2.68862e-11
8.45041e-11
-3.20933e-11
9.85252e-11
-3.78417e-11
8.91317e-11
-5.76952e-11
6.29761e-11
-2.94907e-11
1.72266e-11
-2.60027e-12
-8.4321e-12
-1.89336e-11
-2.0359e-11
-1.77824e-11
-3.86135e-11
-5.61714e-12
-8.07283e-11
3.00226e-11
-1.09378e-10
2.11239e-11
-1.30336e-10
1.73664e-11
-1.51273e-10
4.29457e-11
-2.0284e-10
1.32732e-10
-2.4219e-10
1.31143e-10
-8.32496e-11
-1.38304e-10
2.76204e-10
-3.33895e-10
5.00213e-10
-1.68052e-10
5.11118e-10
-2.25883e-11
3.04927e-10
-5.93817e-12
-8.74585e-11
-5.80963e-11
-2.5448e-10
-4.07741e-11
-4.15375e-10
3.78918e-11
-4.38964e-10
9.91179e-11
-4.84832e-10
1.36925e-10
-7.63108e-10
1.03044e-10
-1.03562e-09
3.127e-12
-1.26962e-09
9.49219e-11
-1.45008e-09
1.62348e-10
-1.56008e-09
1.65258e-10
-1.65191e-09
1.6463e-10
-1.70328e-09
1.66075e-10
-1.74644e-09
1.96686e-10
-1.79949e-09
2.37896e-10
-1.86086e-09
2.84767e-10
-1.91155e-09
3.28906e-10
3.77729e-10
-1.94303e-09
1.2411e-12
-7.99616e-13
4.2559e-12
-2.23064e-12
8.56325e-12
-3.61305e-12
1.37996e-11
-5.01531e-12
1.96412e-11
-6.45862e-12
2.57662e-11
-7.96227e-12
3.18653e-11
-9.54352e-12
3.76356e-11
-1.12179e-11
4.27746e-11
-1.29995e-11
4.69758e-11
-1.49013e-11
4.99209e-11
-1.69325e-11
5.12584e-11
-1.90901e-11
5.05683e-11
-2.13488e-11
4.74002e-11
-2.37182e-11
3.07382e-11
-2.7615e-11
-4.16656e-11
-3.23555e-11
-1.49733e-10
5.01049e-11
-1.49557e-10
-2.97356e-11
-2.12172e-10
6.00141e-11
-3.83394e-10
1.52289e-10
-5.27049e-10
1.25872e-10
-6.78535e-10
1.45869e-10
-7.6889e-10
1.20378e-10
-8.30236e-10
8.24692e-11
-9.02558e-10
8.96891e-11
-9.69958e-10
1.10346e-10
-9.1203e-10
7.48035e-11
-8.17855e-10
3.69677e-11
-8.88223e-10
-6.79362e-11
-1.05746e-09
-1.64661e-10
-1.21156e-09
-1.39453e-11
-1.38167e-09
1.47523e-10
-1.6442e-09
2.56588e-10
-1.98008e-09
2.77788e-10
-2.24744e-09
2.26586e-10
-2.37369e-09
1.64141e-10
-2.41695e-09
1.42372e-10
-2.42412e-09
1.44094e-10
-2.46703e-09
1.45956e-10
-2.62626e-09
1.62355e-10
-2.70297e-09
1.71633e-10
-2.72294e-09
1.8232e-10
-2.70209e-09
1.44412e-10
-2.57112e-09
3.36592e-11
-2.33854e-09
-6.65104e-11
-2.05638e-09
-8.54679e-11
-1.75963e-09
-5.88596e-11
-1.43523e-09
-3.96264e-11
-1.05695e-09
-4.93794e-11
-7.37279e-11
-6.05491e-10
-5.94013e-13
-2.05603e-13
-2.35521e-12
-4.69448e-13
-5.31463e-12
-6.53626e-13
-9.53521e-12
-7.94727e-13
-1.50917e-11
-9.02164e-13
-2.20686e-11
-9.85346e-13
-3.05583e-11
-1.05384e-12
-4.06584e-11
-1.11774e-12
-5.2471e-11
-1.18689e-12
-6.61044e-11
-1.26789e-12
-8.16762e-11
-1.36066e-12
-9.92904e-11
-1.47592e-12
-1.18912e-10
-1.72718e-12
-2.49859e-10
-2.5007e-12
-2.96608e-10
-2.83435e-12
-3.27288e-10
-1.67484e-12
-3.58932e-10
8.1749e-11
-7.64376e-10
3.75708e-10
-1.23418e-09
5.29813e-10
-1.7903e-09
7.08418e-10
-2.44814e-09
7.83705e-10
-3.04782e-09
7.45552e-10
-3.61713e-09
6.89693e-10
-4.18192e-09
6.47249e-10
-4.70998e-09
6.17752e-10
-5.17596e-09
5.76324e-10
-5.61861e-09
5.17459e-10
-6.08646e-09
5.04817e-10
-6.70814e-09
5.53747e-10
-7.50818e-09
6.35373e-10
-8.24034e-09
7.18216e-10
-8.81545e-09
7.22638e-10
-9.29393e-09
7.35061e-10
-9.74834e-09
7.32198e-10
-1.0211e-08
6.89203e-10
-1.06369e-08
5.90085e-10
-1.09798e-08
4.853e-10
-1.12468e-08
4.11054e-10
-1.14791e-08
3.78246e-10
-1.17104e-08
3.9369e-10
-1.19827e-08
4.43924e-10
-1.22653e-08
4.64876e-10
-1.25665e-08
4.45642e-10
-1.29299e-08
3.97049e-10
-1.33097e-08
3.13312e-10
-1.36128e-08
2.17586e-10
-1.3776e-08
1.04395e-10
-1.38077e-08
-7.92429e-12
-1.37669e-08
-9.01644e-11
-1.87985e-10
-1.36527e-08
-1.4191e-12
1.2135e-12
-5.27808e-12
3.38954e-12
-1.14477e-11
5.516e-12
-1.99441e-11
7.70167e-12
-3.08146e-11
9.96833e-12
-4.41344e-11
1.23344e-11
-6.00033e-11
1.48151e-11
-7.85446e-11
1.74236e-11
-9.99002e-11
2.01687e-11
-1.24223e-10
2.30553e-11
-1.51658e-10
2.60735e-11
-1.82356e-10
2.92223e-11
-2.71687e-10
3.25808e-11
-3.49953e-10
3.67371e-11
-3.89269e-10
3.64821e-11
-4.29888e-10
3.89441e-11
-3.63583e-10
1.54438e-11
-2.59445e-10
2.7157e-10
-1.12768e-10
3.83136e-10
-1.81534e-10
7.77184e-10
-7.17127e-10
1.3193e-09
-1.69903e-09
1.72746e-09
-2.92214e-09
1.91279e-09
-4.21795e-09
1.94306e-09
-5.51249e-09
1.9123e-09
-6.79377e-09
1.85761e-09
-8.03703e-09
1.76071e-09
-9.23291e-09
1.7007e-09
-1.0325e-08
1.64582e-09
-1.12834e-08
1.59381e-09
-1.21364e-08
1.57117e-09
-1.29809e-08
1.56721e-09
-1.38314e-08
1.5855e-09
-1.47322e-08
1.63306e-09
-1.57286e-08
1.68552e-09
-1.6768e-08
1.62948e-09
-1.77771e-08
1.49442e-09
-1.86906e-08
1.32456e-09
-1.94742e-08
1.16188e-09
-2.01181e-08
1.03759e-09
-2.06156e-08
9.41399e-10
-2.11168e-08
9.66054e-10
-2.16642e-08
9.93073e-10
-2.2262e-08
9.94887e-10
-2.286e-08
9.11267e-10
-2.33625e-08
7.20118e-10
-2.37325e-08
4.74366e-10
-2.39572e-08
2.16755e-10
-2.40141e-08
-3.32394e-11
-2.62242e-10
-2.39398e-08
8.3874e-13
3.74758e-13
2.51165e-12
1.71663e-12
4.4729e-12
3.55475e-12
6.3249e-12
5.84967e-12
7.67528e-12
8.61795e-12
8.13091e-12
1.18788e-11
7.29246e-12
1.56535e-11
4.74914e-12
1.99669e-11
7.2355e-14
2.48455e-11
-7.19315e-12
3.03208e-11
-1.75418e-11
3.64222e-11
-3.1504e-11
4.31844e-11
-5.01717e-11
5.0638e-11
-1.58689e-10
5.88394e-11
-2.04521e-10
8.20065e-11
-2.20064e-10
5.44534e-11
-1.69419e-10
-3.52005e-11
1.08367e-10
-6.21587e-12
7.36224e-10
-2.44721e-10
1.35861e-09
1.548e-10
2.00297e-09
6.74933e-10
2.38774e-09
1.3427e-09
2.16706e-09
2.13347e-09
1.40923e-09
2.70089e-09
3.03256e-10
3.01827e-09
-1.00511e-09
3.16597e-09
-2.47224e-09
3.22784e-09
-3.98647e-09
3.21493e-09
-5.47318e-09
3.13253e-09
-6.89234e-09
3.01296e-09
-8.18408e-09
2.86292e-09
-9.30962e-09
2.69275e-09
-1.03345e-08
2.61042e-09
-1.1287e-08
2.58551e-09
-1.21713e-08
2.56978e-09
-1.30276e-08
2.4858e-09
-1.38763e-08
2.34315e-09
-1.47262e-08
2.17447e-09
-1.55365e-08
1.97219e-09
-1.6252e-08
1.75309e-09
-1.68815e-08
1.57083e-09
-1.73123e-08
1.39686e-09
-1.76095e-08
1.29028e-09
-1.77709e-08
1.15627e-09
-1.78091e-08
9.49488e-10
-1.77444e-08
6.55479e-10
-1.76245e-08
3.5438e-10
-1.74566e-08
4.89274e-11
-1.72674e-08
-2.22468e-10
-5.02225e-10
-1.70274e-08
9.20388e-13
-5.45631e-13
3.60985e-12
-9.72835e-13
7.92924e-12
-7.64641e-13
1.37151e-11
6.38087e-14
2.0825e-11
1.50807e-12
2.91328e-11
3.57104e-12
3.85295e-11
6.25679e-12
4.89232e-11
9.57316e-12
6.02372e-11
1.35315e-11
7.24116e-11
1.81464e-11
8.53962e-11
2.34376e-11
9.91496e-11
2.9431e-11
1.13633e-10
3.61547e-11
1.2815e-10
4.3616e-11
1.01424e-10
4.92203e-11
4.67227e-11
5.59389e-11
-6.3152e-11
6.76961e-11
-1.44806e-10
7.53684e-11
-3.78684e-10
-1.08434e-11
-3.54983e-10
1.31099e-10
4.51091e-10
-1.31141e-10
1.57426e-09
2.19524e-10
2.96663e-09
7.41101e-10
4.35395e-09
1.31357e-09
5.63241e-09
1.73982e-09
6.72746e-09
2.07092e-09
7.4677e-09
2.4876e-09
7.83167e-09
2.85096e-09
7.81945e-09
3.14475e-09
7.4764e-09
3.35601e-09
6.90724e-09
3.43208e-09
6.18803e-09
3.41196e-09
5.41041e-09
3.38805e-09
4.64987e-09
3.34605e-09
3.93743e-09
3.28222e-09
3.23692e-09
3.18631e-09
2.52952e-09
3.05055e-09
1.83608e-09
2.86791e-09
1.11407e-09
2.6942e-09
3.6254e-10
2.50462e-09
-3.253e-10
2.25867e-09
-8.81032e-10
1.95259e-09
-1.3144e-09
1.72365e-09
-1.67568e-09
1.51755e-09
-1.99091e-09
1.26472e-09
-2.23366e-09
8.98223e-10
-2.44157e-09
5.62294e-10
-2.65567e-09
2.6303e-10
-2.8211e-09
-5.70451e-11
-3.86428e-10
-2.93689e-09
2.7111e-13
-8.16741e-13
1.30988e-12
-2.01161e-12
3.29653e-12
-2.75129e-12
6.39113e-12
-3.03079e-12
1.07547e-11
-2.85548e-12
1.65562e-11
-2.23048e-12
2.3974e-11
-1.16106e-12
3.31998e-11
3.47444e-13
4.44408e-11
2.2905e-12
5.79255e-11
4.66163e-12
7.39085e-11
7.45466e-12
9.26774e-11
1.06621e-11
1.14555e-10
1.42775e-11
1.39867e-10
1.83032e-11
1.66335e-10
2.27521e-11
1.94682e-10
2.75923e-11
1.93017e-10
3.148e-11
1.61709e-10
3.51268e-11
9.051e-11
3.86721e-11
1.7324e-10
4.8178e-11
-2.57784e-11
6.78596e-11
2.03713e-10
-9.96753e-12
8.22804e-10
1.2201e-10
2.07321e-09
6.31625e-11
3.85298e-09
-3.99547e-11
5.70268e-09
2.21221e-10
7.60581e-09
5.84476e-10
9.51376e-09
9.43008e-10
1.13713e-08
1.28722e-09
1.30987e-08
1.62861e-09
1.45406e-08
1.99018e-09
1.56853e-08
2.26728e-09
1.65423e-08
2.53104e-09
1.70961e-08
2.79217e-09
1.73655e-08
3.01289e-09
1.73825e-08
3.16926e-09
1.71981e-08
3.23497e-09
1.68432e-08
3.22284e-09
1.63837e-08
3.1537e-09
1.58064e-08
3.08186e-09
1.51081e-08
2.95697e-09
1.4369e-08
2.6917e-09
1.36563e-08
2.43642e-09
1.29385e-08
2.23529e-09
1.21704e-08
2.03278e-09
1.1335e-08
1.73363e-09
1.05314e-08
1.36597e-09
9.73016e-09
1.06423e-09
8.92461e-09
7.48503e-10
4.19515e-10
8.11867e-09
2.10496e-13
-1.02724e-12
9.21795e-13
-2.72291e-12
2.24074e-12
-4.07023e-12
4.28657e-12
-5.07663e-12
7.17713e-12
-5.74604e-12
1.10297e-11
-6.08304e-12
1.59614e-11
-6.0928e-12
2.20899e-11
-5.781e-12
2.95343e-11
-5.15393e-12
3.84143e-11
-4.21839e-12
4.8851e-11
-2.98206e-12
6.09663e-11
-1.45309e-12
7.48849e-11
3.58849e-13
9.07446e-11
2.44355e-12
1.08707e-10
4.79018e-12
1.28904e-10
7.39481e-12
1.5011e-10
1.02745e-11
1.71795e-10
1.34416e-11
1.92672e-10
1.70436e-11
1.87079e-10
2.01243e-11
1.69384e-10
2.29677e-11
1.27e-10
2.603e-11
2.19615e-10
2.92244e-11
2.27767e-10
5.50109e-11
1.92155e-10
-4.34292e-12
3.31848e-10
8.1528e-11
8.02451e-10
1.13873e-10
1.64285e-09
1.02604e-10
2.85247e-09
7.75968e-11
4.28581e-09
1.95279e-10
5.87079e-09
4.05201e-10
7.54699e-09
5.9108e-10
9.27289e-09
8.05152e-10
1.09652e-08
1.09985e-09
1.24954e-08
1.48273e-09
1.37451e-08
1.91954e-09
1.4633e-08
2.34702e-09
1.51681e-08
2.68777e-09
1.53998e-08
2.92198e-09
1.53862e-08
3.09552e-09
1.51644e-08
3.17868e-09
1.47341e-08
3.12206e-09
1.41724e-08
2.99814e-09
1.35047e-08
2.90294e-09
1.2727e-08
2.81055e-09
1.18406e-08
2.61996e-09
1.08835e-08
2.3231e-09
9.86984e-09
2.07789e-09
8.77083e-09
1.84751e-09
1.59455e-09
7.5958e-09
2.25152e-13
-1.25239e-12
9.88234e-13
-3.48599e-12
2.34603e-12
-5.42802e-12
4.34208e-12
-7.07268e-12
7.02328e-12
-8.42724e-12
1.04388e-11
-9.49856e-12
1.46391e-11
-1.02931e-11
1.96751e-11
-1.0817e-11
2.55971e-11
-1.1076e-11
3.24544e-11
-1.10757e-11
4.02936e-11
-1.08212e-11
4.9158e-11
-1.03175e-11
5.90862e-11
-9.56936e-12
7.01109e-11
-8.58115e-12
8.22581e-11
-7.35706e-12
9.5554e-11
-5.90102e-12
1.10045e-10
-4.21623e-12
1.25792e-10
-2.30533e-12
1.42998e-10
-1.62746e-13
1.60885e-10
2.23716e-12
1.78958e-10
4.89473e-12
1.96735e-10
7.90704e-12
2.02285e-10
1.13755e-11
1.91892e-10
1.39247e-11
1.69156e-10
1.80269e-11
2.28824e-10
2.17282e-11
3.12889e-10
2.97941e-11
3.95898e-10
1.95952e-11
4.87856e-10
-1.43615e-11
6.27271e-10
5.58638e-11
9.79457e-10
5.30144e-11
1.51834e-09
5.2195e-11
2.24434e-09
7.91583e-11
3.16454e-09
1.79645e-10
4.25655e-09
3.90731e-10
5.3715e-09
8.04588e-10
6.30957e-09
1.40895e-09
6.96062e-09
2.03672e-09
7.30969e-09
2.57291e-09
7.40941e-09
2.9958e-09
7.30005e-09
3.28804e-09
6.99197e-09
3.43015e-09
6.51696e-09
3.47314e-09
5.91138e-09
3.50853e-09
5.20718e-09
3.51475e-09
4.40428e-09
3.42286e-09
3.47661e-09
3.25077e-09
2.46768e-09
3.08682e-09
1.38388e-09
2.93131e-09
2.74265e-09
2.3578e-10
7.60054e-15
-1.25999e-12
-2.52853e-14
-3.45311e-12
-6.35315e-14
-5.38977e-12
-2.91406e-14
-7.10708e-12
1.54273e-13
-8.61065e-12
5.61583e-13
-9.90587e-12
1.26608e-12
-1.09976e-11
2.33941e-12
-1.18903e-11
3.85146e-12
-1.2588e-11
5.87033e-12
-1.30945e-11
8.46223e-12
-1.34131e-11
1.16915e-11
-1.35468e-11
1.56204e-11
-1.34983e-11
2.03093e-11
-1.32701e-11
2.58166e-11
-1.28643e-11
3.21982e-11
-1.22827e-11
3.95088e-11
-1.15268e-11
4.78015e-11
-1.0598e-11
5.71357e-11
-9.49697e-12
6.75971e-11
-8.22426e-12
7.92722e-11
-6.78032e-12
9.23394e-11
-5.16025e-12
1.07064e-10
-3.34906e-12
1.22316e-10
-1.33756e-12
1.39422e-10
9.10396e-13
1.56341e-10
3.20817e-12
1.64184e-10
4.85824e-12
1.72886e-10
6.57668e-12
1.48264e-10
1.01796e-11
1.92298e-10
1.18228e-11
2.43196e-10
2.11554e-12
3.05403e-10
-1.00116e-11
3.64128e-10
2.04332e-11
5.14626e-10
2.91472e-11
8.19865e-10
8.54913e-11
1.32705e-09
2.97404e-10
1.95413e-09
7.81869e-10
2.53441e-09
1.45644e-09
2.98088e-09
2.12643e-09
3.2666e-09
2.71008e-09
3.39247e-09
3.16218e-09
3.36166e-09
3.46096e-09
3.16319e-09
3.67161e-09
2.82519e-09
3.84652e-09
2.36682e-09
3.97312e-09
1.79295e-09
3.99673e-09
1.09814e-09
3.94558e-09
3.33913e-10
3.85105e-09
-4.6166e-10
3.72688e-09
3.559e-09
-1.27802e-09
-6.3912e-13
-6.20871e-13
-2.19605e-12
-1.89618e-12
-4.45609e-12
-3.12973e-12
-7.28013e-12
-4.28303e-12
-1.0539e-11
-5.35181e-12
-1.41121e-11
-6.33269e-12
-1.78869e-11
-7.22286e-12
-2.17571e-11
-8.02005e-12
-2.56226e-11
-8.72258e-12
-2.93879e-11
-9.32925e-12
-3.29616e-11
-9.83941e-12
-3.62554e-11
-1.0253e-11
-3.91834e-11
-1.05703e-11
-4.16611e-11
-1.07924e-11
-4.36047e-11
-1.09207e-11
-4.49302e-11
-1.09572e-11
-4.55524e-11
-1.09047e-11
-4.53841e-11
-1.07662e-11
-4.43353e-11
-1.05457e-11
-4.23118e-11
-1.02478e-11
-3.92146e-11
-9.87756e-12
-3.49337e-11
-9.44119e-12
-2.93374e-11
-8.94531e-12
-2.22772e-11
-8.39775e-12
-1.35584e-11
-7.80846e-12
-3.16679e-12
-7.18341e-12
8.22032e-12
-6.52886e-12
2.03277e-11
-5.77215e-12
3.5159e-11
-5.39799e-12
4.47412e-11
-5.3004e-12
4.99649e-11
-4.98902e-12
4.538e-11
-5.42669e-12
7.12781e-11
-5.46499e-12
1.04899e-10
-4.47385e-12
1.90436e-10
-4.57969e-14
4.55707e-10
3.21327e-11
1.03609e-09
2.0149e-10
1.91795e-09
5.74574e-10
3.00165e-09
1.04273e-09
4.18279e-09
1.52895e-09
5.3784e-09
1.96657e-09
6.51734e-09
2.32202e-09
7.56831e-09
2.62064e-09
8.53401e-09
2.88082e-09
9.41387e-09
3.09326e-09
1.01647e-08
3.24593e-09
1.07688e-08
3.34147e-09
1.12335e-08
3.38638e-09
1.15803e-08
3.38001e-09
3.34781e-09
1.17915e-08
-6.26297e-14
-5.58241e-13
-3.46623e-13
-1.61218e-12
-8.41014e-13
-2.63534e-12
-1.4841e-12
-3.63994e-12
-2.2158e-12
-4.62011e-12
-2.97762e-12
-5.57087e-12
-3.71263e-12
-6.48785e-12
-4.36548e-12
-7.3672e-12
-4.8824e-12
-8.20566e-12
-5.2111e-12
-9.00055e-12
-5.30077e-12
-9.74975e-12
-5.10192e-12
-1.04518e-11
-4.56631e-12
-1.11059e-11
-3.64681e-12
-1.17119e-11
-2.29724e-12
-1.22702e-11
-4.72247e-13
-1.27822e-11
1.87279e-12
-1.32497e-11
4.78177e-12
-1.36752e-11
8.29771e-12
-1.40617e-11
1.24626e-11
-1.44127e-11
1.73174e-11
-1.47324e-11
2.29028e-11
-1.50266e-11
2.92609e-11
-1.53034e-11
3.64354e-11
-1.55722e-11
4.44714e-11
-1.58445e-11
5.34429e-11
-1.61548e-11
6.37002e-11
-1.67862e-11
7.51815e-11
-1.72534e-11
8.7304e-11
-1.75205e-11
9.86509e-11
-1.77681e-11
1.10272e-10
-1.82215e-11
1.08378e-10
-1.5274e-11
1.12722e-10
-9.80961e-12
9.99424e-11
8.30624e-12
8.81602e-11
1.17363e-11
7.45297e-11
4.57632e-11
1.51185e-10
1.24835e-10
4.66512e-10
2.59246e-10
1.11709e-09
3.92151e-10
2.19093e-09
4.55107e-10
3.69269e-09
4.64807e-10
5.50295e-09
5.11762e-10
7.5358e-09
5.87793e-10
9.73938e-09
6.77245e-10
1.20516e-08
7.81027e-10
1.44001e-08
8.97473e-10
1.67206e-08
1.0209e-09
1.89658e-08
1.14125e-09
2.10931e-08
1.25267e-09
1.35745e-09
2.30835e-08
7.00275e-14
3.80326e-13
9.61969e-13
1.81454e-12
2.94104e-12
4.34687e-12
6.03901e-12
8.0253e-12
1.03139e-11
1.29124e-11
1.58278e-11
1.90651e-11
2.26274e-11
2.65151e-11
3.07255e-11
3.52521e-11
4.00868e-11
4.5222e-11
5.06483e-11
5.63517e-11
6.23133e-11
6.85686e-11
7.52446e-11
8.25223e-11
8.97929e-11
9.68222e-11
1.02373e-10
1.09935e-10
1.05312e-10
1.01865e-10
7.19541e-11
7.50923e-11
6.1381e-11
2.9221e-11
-5.76492e-11
-1.80253e-10
-3.04952e-10
-3.18548e-10
-7.61529e-11
4.63479e-10
1.2658e-09
2.27059e-09
3.45415e-09
4.78359e-09
6.20763e-09
7.68812e-09
9.19911e-09
1.07168e-08
1.22186e-08
1.36824e-08
4.88165e-08
2.7576e-09
5.24638e-08
3.21974e-09
5.59174e-08
3.74683e-09
5.90366e-08
4.3838e-09
6.1693e-08
5.06884e-09
6.40516e-08
5.44978e-09
6.6124e-08
5.74283e-09
6.79096e-08
6.01203e-09
6.9334e-08
6.34323e-09
7.02804e-08
6.78151e-09
7.06952e-08
7.25085e-09
7.05742e-08
7.69154e-09
6.99374e-08
8.07658e-09
6.8819e-08
8.39142e-09
6.72706e-08
8.62052e-09
6.53529e-08
8.75948e-09
6.31194e-08
8.81969e-09
6.06163e-08
8.81325e-09
5.78912e-08
8.74498e-09
5.4994e-08
8.61941e-09
5.19766e-08
8.4417e-09
4.88905e-08
8.21638e-09
4.57858e-08
7.94815e-09
4.27077e-08
7.64423e-09
3.96947e-08
7.31399e-09
3.67793e-08
6.96713e-09
3.3989e-08
6.61365e-09
3.13386e-08
6.27026e-09
2.88337e-08
5.94658e-09
2.64835e-08
5.63782e-09
2.42933e-08
5.34515e-09
2.22569e-08
5.07531e-09
2.03583e-08
4.83214e-09
1.85764e-08
4.61591e-09
1.68896e-08
4.42408e-09
1.52795e-08
4.25199e-09
1.3733e-08
4.09371e-09
1.22432e-08
3.94323e-09
1.08089e-08
3.79551e-09
9.43324e-09
3.64745e-09
8.12186e-09
3.49848e-09
6.88093e-09
3.35009e-09
5.71561e-09
3.20526e-09
4.62915e-09
3.06783e-09
3.62213e-09
2.94192e-09
2.69246e-09
2.83119e-09
1.83508e-09
2.73853e-09
1.04233e-09
2.66611e-09
3.04403e-10
2.61502e-09
2.58437e-09
-3.88748e-10
1.36564e-08
4.00473e-10
1.63841e-08
4.92033e-10
1.95238e-08
6.07127e-10
2.30839e-08
8.23716e-10
2.66777e-08
1.475e-09
3.02937e-08
1.83375e-09
3.39363e-08
2.10027e-09
3.76023e-08
2.34603e-09
4.12467e-08
2.69882e-09
4.47921e-08
3.23609e-09
4.81212e-08
3.92178e-09
5.11218e-08
4.69093e-09
5.37116e-08
5.48681e-09
5.58293e-08
6.27369e-09
5.74394e-08
7.0104e-09
5.85272e-08
7.67169e-09
5.90894e-08
8.2575e-09
5.91369e-08
8.76578e-09
5.86969e-08
9.18498e-09
5.78084e-08
9.50792e-09
5.65174e-08
9.7327e-09
5.4873e-08
9.86072e-09
5.29254e-08
9.89576e-09
5.07255e-08
9.84416e-09
4.83254e-08
9.71404e-09
4.57814e-08
9.51118e-09
4.31529e-08
9.24216e-09
4.04859e-08
8.93722e-09
3.78115e-08
8.62106e-09
3.51679e-08
8.2814e-09
3.26006e-08
7.91238e-09
3.01485e-08
7.52748e-09
2.78303e-08
7.15027e-09
2.56499e-08
6.7964e-09
2.36007e-08
6.47328e-09
2.16694e-08
6.18322e-09
1.98381e-08
5.92503e-09
1.80869e-08
5.69445e-09
1.63979e-08
5.48446e-09
1.47588e-08
5.28657e-09
1.31642e-08
5.09306e-09
1.16155e-08
4.89882e-09
1.0119e-08
4.70179e-09
8.68376e-09
4.50304e-09
7.31955e-09
4.30612e-09
6.03473e-09
4.11601e-09
4.83519e-09
3.93807e-09
3.72392e-09
3.77738e-09
2.70097e-09
3.63797e-09
3.52127e-09
1.76407e-09
1.8001e-09
-3.30995e-11
2.31458e-09
-2.24443e-11
2.91748e-09
4.22457e-12
3.66854e-09
7.26521e-11
4.96615e-09
1.77391e-10
6.53963e-09
2.6027e-10
8.29066e-09
3.49243e-10
1.01754e-08
4.6128e-10
1.22629e-08
6.11349e-10
1.46619e-08
8.37102e-10
1.74157e-08
1.16799e-09
2.04933e-08
1.61325e-09
2.38198e-08
2.16037e-09
2.73006e-08
2.79284e-09
3.08077e-08
3.50335e-09
3.4187e-08
4.29234e-09
3.72926e-08
5.15192e-09
4.00073e-08
6.05107e-09
4.22469e-08
6.94535e-09
4.39639e-08
7.79093e-09
4.51437e-08
8.55294e-09
4.57952e-08
9.2092e-09
4.59428e-08
9.74816e-09
4.56226e-08
1.01644e-08
4.48806e-08
1.04561e-08
4.37746e-08
1.06171e-08
4.23705e-08
1.06462e-08
4.07305e-08
1.05773e-08
3.89049e-08
1.04467e-08
3.69305e-08
1.02558e-08
3.48512e-08
9.99174e-09
3.2717e-08
9.66165e-09
3.0575e-08
9.29228e-09
2.84642e-08
8.90716e-09
2.64147e-08
8.52282e-09
2.44466e-08
8.15133e-09
2.25695e-08
7.8021e-09
2.0782e-08
7.48191e-09
1.90731e-08
7.19344e-09
1.74258e-08
6.93378e-09
1.58238e-08
6.69508e-09
1.42548e-08
6.46788e-09
1.27127e-08
6.24382e-09
1.11989e-08
6.01688e-09
9.72062e-09
5.78441e-09
8.28907e-09
5.54755e-09
6.91676e-09
5.31038e-09
5.61556e-09
5.07858e-09
4.39568e-09
4.85786e-09
4.65287e-09
3.26408e-09
2.84469e-11
-7.96953e-11
7.95563e-11
-7.35537e-11
1.48495e-10
-6.47146e-11
2.72302e-10
-5.1154e-11
4.79817e-10
-3.01247e-11
7.38916e-10
1.17195e-12
1.04606e-09
4.20984e-11
1.41752e-09
8.98204e-11
1.88023e-09
1.4864e-10
2.50124e-09
2.16092e-10
3.36596e-09
3.03269e-10
4.55883e-09
4.2038e-10
6.13641e-09
5.82787e-10
8.11908e-09
8.1017e-10
1.04966e-08
1.12584e-09
1.32385e-08
1.5504e-09
1.62935e-08
2.0969e-09
1.95753e-08
2.76929e-09
2.29565e-08
3.56419e-09
2.62763e-08
4.47114e-09
2.93682e-08
5.461e-09
3.20922e-08
6.4852e-09
3.43535e-08
7.48686e-09
3.6107e-08
8.4109e-09
3.73425e-08
9.22051e-09
3.80746e-08
9.88504e-09
3.833e-08
1.03909e-08
3.81466e-08
1.07607e-08
3.75726e-08
1.10207e-08
3.6654e-08
1.11743e-08
3.5433e-08
1.12128e-08
3.39581e-08
1.11365e-08
3.22883e-08
1.09621e-08
3.04853e-08
1.07101e-08
2.86081e-08
1.04001e-08
2.67088e-08
1.00506e-08
2.48312e-08
9.67972e-09
2.30078e-08
9.30533e-09
2.12567e-08
8.94455e-09
1.95802e-08
8.6102e-09
1.79688e-08
8.30649e-09
1.64071e-08
8.02965e-09
1.4879e-08
7.77186e-09
1.33716e-08
7.52428e-09
1.18774e-08
7.27868e-09
1.0396e-08
7.02885e-09
8.93432e-09
6.7721e-09
7.50371e-09
6.50919e-09
6.11795e-09
6.24362e-09
5.98e-09
4.79082e-09
1.71241e-10
-1.1231e-10
2.0134e-10
-1.03653e-10
2.24042e-10
-8.74157e-11
2.39704e-10
-6.68162e-11
2.5009e-10
-4.05106e-11
2.52079e-10
-8.17315e-13
2.43371e-10
5.08057e-11
2.01558e-10
1.31634e-10
1.95935e-10
1.54263e-10
2.21035e-10
1.90992e-10
2.94663e-10
2.29641e-10
4.35007e-10
2.80036e-10