/*--------------------------------*- C++ -*----------------------------------*\
| =========                 |                                                 |
| \\      /  F ield         | OpenFOAM: The Open Source CFD Toolbox           |
|  \\    /   O peration     | Version:  2.4.0                                 |
|   \\  /    A nd           | Web:      www.OpenFOAM.org                      |
|    \\/     M anipulation  |                                                 |
\*---------------------------------------------------------------------------*/
FoamFile
{
    version     2.0;
    format      ascii;
    class       volScalarField;
    location    "0.001";
    object      p;
}
// * * * * * * * * * * * * * * * * * * * * * * * * * * * * * * * * * * * * * //

dimensions      [1 -1 -2 0 0 0 0];

internalField   nonuniform List<scalar> 
125
(
-0.169449
-0.169072
-0.168694
-0.168314
-0.167933
-0.167551
-0.167167
-0.166781
-0.166395
-0.166007
-0.165617
-0.165226
-0.164834
-0.16444
-0.164045
-0.163648
-0.16325
-0.16285
-0.162449
-0.162046
-0.161642
-0.161237
-0.16083
-0.160421
-0.160011
-0.1596
-0.159187
-0.158773
-0.158357
-0.157939
-0.15752
-0.157099
-0.156677
-0.156253
-0.155828
-0.155401
-0.154973
-0.154543
-0.154112
-0.153679
-0.153244
-0.152808
-0.15237
-0.15193
-0.151489
-0.151047
-0.150602
-0.150156
-0.149709
-0.149259
-0.148809
-0.148356
-0.147902
-0.147446
-0.146989
-0.146529
-0.146068
-0.145606
-0.145142
-0.144676
-0.144208
-0.143739
-0.143268
-0.142795
-0.14232
-0.141844
-0.141366
-0.140886
-0.140404
-0.139921
-0.139436
-0.138949
-0.13846
-0.13797
-0.137478
-0.136984
-0.136488
-0.13599
-0.13549
-0.134989
-0.134486
-0.133981
-0.133474
-0.132965
-0.132454
-0.131942
-0.131427
-0.130911
-0.130393
-0.129873
-0.129351
-0.128827
-0.128301
-0.127773
-0.127244
-0.126712
-0.126179
-0.125643
-0.125105
-0.124566
-0.124024
-0.123481
-0.122936
-0.122388
-0.121839
-0.121287
-0.120734
-0.120178
-0.11962
-0.119061
-0.118499
-0.117935
-0.117369
-0.116802
-0.116232
-0.115659
-0.115085
-0.114509
-0.113931
-0.11335
-0.112767
-0.112182
-0.111595
-0.111006
-0.110415
)
;

boundaryField
{
    BotWall
    {
        type            calculated;
        value           nonuniform 0();
    }
    FreeStream
    {
        type            calculated;
        value           nonuniform 0();
    }
    FrontNBack
    {
        type            empty;
    }
    LeftSide
    {
        type            symmetryPlane;
    }
    RightSide
    {
        type            symmetryPlane;
    }
    procBoundary5to2
    {
        type            processor;
        value           nonuniform List<scalar> 
50
(
-0.136973
-0.136477
-0.13598
-0.13548
-0.134979
-0.134476
-0.133971
-0.133465
-0.132956
-0.132446
-0.131933
-0.131419
-0.130903
-0.130385
-0.129865
-0.129343
-0.12882
-0.128294
-0.127766
-0.127237
-0.126705
-0.126172
-0.125637
-0.125099
-0.12456
-0.124019
-0.123475
-0.12293
-0.122383
-0.121834
-0.121282
-0.120729
-0.120174
-0.119616
-0.119057
-0.118495
-0.117932
-0.117366
-0.116798
-0.116229
-0.115657
-0.115083
-0.114507
-0.113928
-0.113348
-0.112766
-0.112181
-0.111594
-0.111005
-0.110414
)
;
    }
    procBoundary5to3
    {
        type            processor;
        value           nonuniform List<scalar> 
75
(
-0.169441
-0.169064
-0.168686
-0.168306
-0.167925
-0.167543
-0.167159
-0.166774
-0.166387
-0.165999
-0.165609
-0.165218
-0.164826
-0.164432
-0.164037
-0.16364
-0.163242
-0.162842
-0.162441
-0.162039
-0.161634
-0.161229
-0.160822
-0.160413
-0.160003
-0.159592
-0.159179
-0.158764
-0.158348
-0.157931
-0.157512
-0.157091
-0.156669
-0.156245
-0.15582
-0.155393
-0.154965
-0.154535
-0.154103
-0.15367
-0.153235
-0.152799
-0.152361
-0.151922
-0.151481
-0.151038
-0.150593
-0.150147
-0.1497
-0.149251
-0.1488
-0.148347
-0.147893
-0.147437
-0.146979
-0.14652
-0.146059
-0.145597
-0.145132
-0.144666
-0.144199
-0.143729
-0.143258
-0.142785
-0.142311
-0.141834
-0.141356
-0.140876
-0.140395
-0.139911
-0.139426
-0.138939
-0.13845
-0.13796
-0.137467
)
;
    }
    procBoundary5to4
    {
        type            processor;
        value           uniform -0.109821;
    }
    procBoundary5to6
    {
        type            processor;
        value           uniform -0.169825;
    }
    procBoundary5to7
    {
        type            processor;
        value           nonuniform List<scalar> 
75
(
-0.148777
-0.148325
-0.147871
-0.147416
-0.146959
-0.146501
-0.14604
-0.145578
-0.145115
-0.144649
-0.144182
-0.143713
-0.143243
-0.14277
-0.142296
-0.141821
-0.141343
-0.140864
-0.140383
-0.1399
-0.139415
-0.138929
-0.138441
-0.137951
-0.137459
-0.136965
-0.13647
-0.135972
-0.135473
-0.134972
-0.13447
-0.133965
-0.133459
-0.13295
-0.13244
-0.131928
-0.131414
-0.130898
-0.13038
-0.12986
-0.129339
-0.128815
-0.12829
-0.127762
-0.127233
-0.126702
-0.126169
-0.125633
-0.125096
-0.124557
-0.124016
-0.123473
-0.122928
-0.122381
-0.121831
-0.12128
-0.120727
-0.120172
-0.119615
-0.119055
-0.118494
-0.11793
-0.117365
-0.116797
-0.116228
-0.115656
-0.115082
-0.114506
-0.113928
-0.113347
-0.112765
-0.112181
-0.111594
-0.111005
-0.110414
)
;
    }
    procBoundary5to8
    {
        type            processor;
        value           nonuniform List<scalar> 
50
(
-0.169379
-0.169004
-0.168626
-0.168248
-0.167867
-0.167486
-0.167103
-0.166719
-0.166333
-0.165946
-0.165557
-0.165167
-0.164776
-0.164383
-0.163988
-0.163592
-0.163195
-0.162796
-0.162396
-0.161994
-0.161591
-0.161186
-0.16078
-0.160373
-0.159963
-0.159553
-0.15914
-0.158727
-0.158311
-0.157895
-0.157476
-0.157056
-0.156635
-0.156212
-0.155787
-0.155361
-0.154934
-0.154504
-0.154073
-0.153641
-0.153207
-0.152771
-0.152334
-0.151895
-0.151455
-0.151013
-0.150569
-0.150123
-0.149676
-0.149228
)
;
    }
}


// ************************************************************************* //
