/*--------------------------------*- C++ -*----------------------------------*\
| =========                 |                                                 |
| \\      /  F ield         | OpenFOAM: The Open Source CFD Toolbox           |
|  \\    /   O peration     | Version:  2.4.0                                 |
|   \\  /    A nd           | Web:      www.OpenFOAM.org                      |
|    \\/     M anipulation  |                                                 |
\*---------------------------------------------------------------------------*/
FoamFile
{
    version     2.0;
    format      ascii;
    class       volScalarField;
    location    "1";
    object      H;
}
// * * * * * * * * * * * * * * * * * * * * * * * * * * * * * * * * * * * * * //

dimensions      [0 2 -2 0 0 0 0];

internalField   nonuniform List<scalar> 
125
(
-23.3427
-23.3423
-23.342
-23.3421
-23.3426
-23.071
-23.0706
-23.0704
-23.0705
-23.071
-22.7836
-22.7833
-22.783
-22.7831
-22.7836
-22.4807
-22.4804
-22.4801
-22.4802
-22.4807
-22.1625
-22.1622
-22.1619
-22.162
-22.1624
-21.8292
-21.8289
-21.8287
-21.8288
-21.8292
-21.4812
-21.481
-21.4807
-21.4808
-21.4812
-21.1189
-21.1186
-21.1184
-21.1184
-21.1188
-20.7424
-20.7421
-20.7419
-20.742
-20.7424
-20.3523
-20.352
-20.3519
-20.3519
-20.3523
-19.9489
-19.9487
-19.9485
-19.9485
-19.9489
-19.5328
-19.5325
-19.5323
-19.5324
-19.5327
-19.1042
-19.104
-19.1038
-19.1039
-19.1042
-18.6638
-18.6636
-18.6635
-18.6635
-18.6638
-18.2121
-18.2119
-18.2118
-18.2118
-18.2121
-17.7497
-17.7495
-17.7493
-17.7493
-17.7496
-17.277
-17.2768
-17.2766
-17.2767
-17.2769
-16.7947
-16.7945
-16.7943
-16.7944
-16.7946
-16.3033
-16.3032
-16.303
-16.3031
-16.3033
-15.8037
-15.8035
-15.8034
-15.8034
-15.8036
-15.2962
-15.2961
-15.296
-15.296
-15.2962
-14.7818
-14.7816
-14.7815
-14.7815
-14.7817
-14.2609
-14.2608
-14.2607
-14.2607
-14.2609
-13.7344
-13.7342
-13.7341
-13.7342
-13.7343
-13.2028
-13.2027
-13.2026
-13.2026
-13.2028
)
;

boundaryField
{
    BotWall
    {
        type            zeroGradient;
    }
    FreeStream
    {
        type            zeroGradient;
    }
    FrontNBack
    {
        type            empty;
    }
    LeftSide
    {
        type            symmetryPlane;
    }
    RightSide
    {
        type            symmetryPlane;
    }
    procBoundary2to1
    {
        type            processor;
        value           nonuniform List<scalar> 5(-23.5964 -23.596 -23.5958 -23.5958 -23.5964);
    }
    procBoundary2to3
    {
        type            processor;
        value           nonuniform List<scalar> 5(-12.6663 -12.6662 -12.6661 -12.6661 -12.6662);
    }
}


// ************************************************************************* //
