/*--------------------------------*- C++ -*----------------------------------*\
| =========                 |                                                 |
| \\      /  F ield         | OpenFOAM: The Open Source CFD Toolbox           |
|  \\    /   O peration     | Version:  2.4.0                                 |
|   \\  /    A nd           | Web:      www.OpenFOAM.org                      |
|    \\/     M anipulation  |                                                 |
\*---------------------------------------------------------------------------*/
FoamFile
{
    version     2.0;
    format      ascii;
    class       volScalarField;
    location    "1";
    object      p;
}
// * * * * * * * * * * * * * * * * * * * * * * * * * * * * * * * * * * * * * //

dimensions      [1 -1 -2 0 0 0 0];

internalField   nonuniform List<scalar> 
125
(
-0.0330844
-0.0330844
-0.0330844
-0.0330844
-0.0330844
-0.0339442
-0.0339442
-0.0339442
-0.0339442
-0.0339442
-0.0348136
-0.0348136
-0.0348136
-0.0348136
-0.0348136
-0.0356927
-0.0356927
-0.0356927
-0.0356927
-0.0356927
-0.0365816
-0.0365816
-0.0365816
-0.0365816
-0.0365816
-0.0374805
-0.0374805
-0.0374805
-0.0374805
-0.0374805
-0.0383893
-0.0383893
-0.0383893
-0.0383893
-0.0383893
-0.0393084
-0.0393084
-0.0393084
-0.0393084
-0.0393084
-0.0402376
-0.0402376
-0.0402376
-0.0402376
-0.0402376
-0.0411773
-0.0411773
-0.0411773
-0.0411773
-0.0411773
-0.0421274
-0.0421274
-0.0421274
-0.0421274
-0.0421274
-0.0430881
-0.0430881
-0.0430881
-0.0430881
-0.0430881
-0.0440596
-0.0440596
-0.0440596
-0.0440596
-0.0440596
-0.0450418
-0.0450418
-0.0450418
-0.0450418
-0.0450418
-0.0460351
-0.0460351
-0.0460351
-0.0460351
-0.0460351
-0.0470394
-0.0470394
-0.0470394
-0.0470394
-0.0470394
-0.048055
-0.048055
-0.048055
-0.048055
-0.048055
-0.0490818
-0.0490818
-0.0490818
-0.0490818
-0.0490818
-0.0501202
-0.0501202
-0.0501202
-0.0501202
-0.0501202
-0.0511701
-0.0511701
-0.0511701
-0.0511701
-0.0511701
-0.0522317
-0.0522317
-0.0522317
-0.0522317
-0.0522317
-0.0533052
-0.0533052
-0.0533052
-0.0533052
-0.0533052
-0.0543907
-0.0543907
-0.0543907
-0.0543907
-0.0543907
-0.0554882
-0.0554882
-0.0554882
-0.0554882
-0.0554882
-0.056598
-0.056598
-0.056598
-0.056598
-0.056598
)
;

boundaryField
{
    BotWall
    {
        type            calculated;
        value           nonuniform 0();
    }
    FreeStream
    {
        type            calculated;
        value           nonuniform 0();
    }
    FrontNBack
    {
        type            empty;
    }
    LeftSide
    {
        type            symmetryPlane;
    }
    RightSide
    {
        type            symmetryPlane;
    }
    procBoundary2to1
    {
        type            processor;
        value           nonuniform List<scalar> 5(-0.032234 -0.032234 -0.032234 -0.032234 -0.032234);
    }
    procBoundary2to3
    {
        type            processor;
        value           nonuniform List<scalar> 5(-0.0577202 -0.0577202 -0.0577202 -0.0577202 -0.0577202);
    }
}


// ************************************************************************* //
