/*--------------------------------*- C++ -*----------------------------------*\
| =========                 |                                                 |
| \\      /  F ield         | OpenFOAM: The Open Source CFD Toolbox           |
|  \\    /   O peration     | Version:  2.4.0                                 |
|   \\  /    A nd           | Web:      www.OpenFOAM.org                      |
|    \\/     M anipulation  |                                                 |
\*---------------------------------------------------------------------------*/
FoamFile
{
    version     2.0;
    format      ascii;
    class       volScalarField;
    location    "1";
    object      p_rgh;
}
// * * * * * * * * * * * * * * * * * * * * * * * * * * * * * * * * * * * * * //

dimensions      [1 -1 -2 0 0 0 0];

internalField   nonuniform List<scalar> 
125
(
-2.46604e-05
-2.46601e-05
-2.46603e-05
-2.46604e-05
-2.46617e-05
-2.46068e-05
-2.46065e-05
-2.46067e-05
-2.46067e-05
-2.46079e-05
-2.45526e-05
-2.45523e-05
-2.45525e-05
-2.45525e-05
-2.45536e-05
-2.44978e-05
-2.44975e-05
-2.44977e-05
-2.44977e-05
-2.44987e-05
-2.44423e-05
-2.44421e-05
-2.44422e-05
-2.44423e-05
-2.44432e-05
-2.43863e-05
-2.4386e-05
-2.43862e-05
-2.43863e-05
-2.43871e-05
-2.43297e-05
-2.43294e-05
-2.43296e-05
-2.43296e-05
-2.43304e-05
-2.42724e-05
-2.42721e-05
-2.42723e-05
-2.42724e-05
-2.42731e-05
-2.42145e-05
-2.42143e-05
-2.42144e-05
-2.42145e-05
-2.42152e-05
-2.4156e-05
-2.41557e-05
-2.41559e-05
-2.41559e-05
-2.41566e-05
-2.40968e-05
-2.40966e-05
-2.40967e-05
-2.40968e-05
-2.40974e-05
-2.4037e-05
-2.40368e-05
-2.40369e-05
-2.4037e-05
-2.40376e-05
-2.39765e-05
-2.39763e-05
-2.39764e-05
-2.39765e-05
-2.39771e-05
-2.39154e-05
-2.39152e-05
-2.39153e-05
-2.39154e-05
-2.39159e-05
-2.38536e-05
-2.38534e-05
-2.38535e-05
-2.38535e-05
-2.38541e-05
-2.37911e-05
-2.37909e-05
-2.3791e-05
-2.37911e-05
-2.37916e-05
-2.37279e-05
-2.37277e-05
-2.37278e-05
-2.37279e-05
-2.37284e-05
-2.3664e-05
-2.36638e-05
-2.3664e-05
-2.3664e-05
-2.36645e-05
-2.35995e-05
-2.35993e-05
-2.35994e-05
-2.35995e-05
-2.35999e-05
-2.35342e-05
-2.3534e-05
-2.35341e-05
-2.35342e-05
-2.35346e-05
-2.34682e-05
-2.3468e-05
-2.34681e-05
-2.34682e-05
-2.34686e-05
-2.34015e-05
-2.34013e-05
-2.34014e-05
-2.34015e-05
-2.34018e-05
-2.3334e-05
-2.33339e-05
-2.3334e-05
-2.3334e-05
-2.33343e-05
-2.32658e-05
-2.32657e-05
-2.32658e-05
-2.32658e-05
-2.32661e-05
-2.31969e-05
-2.31968e-05
-2.31969e-05
-2.31969e-05
-2.31971e-05
)
;

boundaryField
{
    BotWall
    {
        type            fixedFluxPressure;
        gradient        nonuniform 0();
        value           nonuniform 0();
    }
    FreeStream
    {
        type            totalPressure;
        rho             rho;
        psi             none;
        gamma           1;
        p0              nonuniform 0();
        value           nonuniform 0();
    }
    FrontNBack
    {
        type            empty;
    }
    LeftSide
    {
        type            symmetryPlane;
    }
    RightSide
    {
        type            symmetryPlane;
    }
    procBoundary2to1
    {
        type            processor;
        value           nonuniform List<scalar> 5(-2.47135e-05 -2.47131e-05 -2.47133e-05 -2.47134e-05 -2.47149e-05);
    }
    procBoundary2to3
    {
        type            processor;
        value           nonuniform List<scalar> 5(-2.31272e-05 -2.31271e-05 -2.31272e-05 -2.31272e-05 -2.31273e-05);
    }
}


// ************************************************************************* //
