/*--------------------------------*- C++ -*----------------------------------*\
| =========                 |                                                 |
| \\      /  F ield         | OpenFOAM: The Open Source CFD Toolbox           |
|  \\    /   O peration     | Version:  2.4.0                                 |
|   \\  /    A nd           | Web:      www.OpenFOAM.org                      |
|    \\/     M anipulation  |                                                 |
\*---------------------------------------------------------------------------*/
FoamFile
{
    version     2.0;
    format      ascii;
    class       surfaceScalarField;
    location    "1";
    object      phi;
}
// * * * * * * * * * * * * * * * * * * * * * * * * * * * * * * * * * * * * * //

dimensions      [0 3 -1 0 0 0 0];

internalField   nonuniform List<scalar> 
220
(
-1.11708e-17
-4.30813e-10
-1.29298e-17
-4.30813e-10
-1.20429e-17
-4.30813e-10
-9.95982e-18
-4.30813e-10
-4.30814e-10
-1.14776e-17
-4.30813e-10
-1.31762e-17
-4.30813e-10
-1.19114e-17
-4.30813e-10
-9.56227e-18
-4.30813e-10
-4.30814e-10
-1.17518e-17
-4.30813e-10
-1.33943e-17
-4.30813e-10
-1.17758e-17
-4.30813e-10
-9.17398e-18
-4.30813e-10
-4.30814e-10
-1.19935e-17
-4.30813e-10
-1.3584e-17
-4.30813e-10
-1.16361e-17
-4.30813e-10
-8.79463e-18
-4.30813e-10
-4.30814e-10
-1.22026e-17
-4.30813e-10
-1.37455e-17
-4.30813e-10
-1.14927e-17
-4.30813e-10
-8.42525e-18
-4.30813e-10
-4.30814e-10
-1.23791e-17
-4.30813e-10
-1.38787e-17
-4.30813e-10
-1.13458e-17
-4.30813e-10
-8.0665e-18
-4.30813e-10
-4.30814e-10
-1.25233e-17
-4.30813e-10
-1.3984e-17
-4.30813e-10
-1.11958e-17
-4.30813e-10
-7.71894e-18
-4.30813e-10
-4.30814e-10
-1.26352e-17
-4.30813e-10
-1.40616e-17
-4.30813e-10
-1.1043e-17
-4.30813e-10
-7.38308e-18
-4.30813e-10
-4.30814e-10
-1.27151e-17
-4.30813e-10
-1.41119e-17
-4.30813e-10
-1.08877e-17
-4.30813e-10
-7.05934e-18
-4.30813e-10
-4.30814e-10
-1.27634e-17
-4.30813e-10
-1.41351e-17
-4.30813e-10
-1.07303e-17
-4.30813e-10
-6.74806e-18
-4.30813e-10
-4.30814e-10
-1.27805e-17
-4.30813e-10
-1.41319e-17
-4.30813e-10
-1.05712e-17
-4.30813e-10
-6.44959e-18
-4.30813e-10
-4.30814e-10
-1.27669e-17
-4.30813e-10
-1.41028e-17
-4.30813e-10
-1.04107e-17
-4.30813e-10
-6.16419e-18
-4.30813e-10
-4.30814e-10
-1.27231e-17
-4.30813e-10
-1.40483e-17
-4.30813e-10
-1.02493e-17
-4.30813e-10
-5.89214e-18
-4.30813e-10
-4.30814e-10
-1.26497e-17
-4.30813e-10
-1.39692e-17
-4.30813e-10
-1.00873e-17
-4.30813e-10
-5.63367e-18
-4.30813e-10
-4.30814e-10
-1.25475e-17
-4.30813e-10
-1.38663e-17
-4.30813e-10
-9.92528e-18
-4.30813e-10
-5.38902e-18
-4.30813e-10
-4.30814e-10
-1.24173e-17
-4.30813e-10
-1.37402e-17
-4.30813e-10
-9.7636e-18
-4.30813e-10
-5.15839e-18
-4.30813e-10
-4.30814e-10
-1.226e-17
-4.30813e-10
-1.3592e-17
-4.30813e-10
-9.60276e-18
-4.30813e-10
-4.94198e-18
-4.30813e-10
-4.30814e-10
-1.20764e-17
-4.30813e-10
-1.34225e-17
-4.30813e-10
-9.44323e-18
-4.30813e-10
-4.73997e-18
-4.30813e-10
-4.30814e-10
-1.18678e-17
-4.30813e-10
-1.32329e-17
-4.30813e-10
-9.28551e-18
-4.30813e-10
-4.55253e-18
-4.30814e-10
-4.30814e-10
-1.16352e-17
-4.30813e-10
-1.30241e-17
-4.30813e-10
-9.13011e-18
-4.30813e-10
-4.37981e-18
-4.30814e-10
-4.30814e-10
-1.13798e-17
-4.30813e-10
-1.27975e-17
-4.30813e-10
-8.97757e-18
-4.30813e-10
-4.22199e-18
-4.30814e-10
-4.30814e-10
-1.11028e-17
-4.30813e-10
-1.25542e-17
-4.30813e-10
-8.82833e-18
-4.30813e-10
-4.07996e-18
-4.30814e-10
-4.30814e-10
-1.08058e-17
-4.30813e-10
-1.22954e-17
-4.30813e-10
-8.68217e-18
-4.30813e-10
-3.95308e-18
-4.30814e-10
-4.30814e-10
-1.049e-17
-4.30813e-10
-1.20227e-17
-4.30813e-10
-8.54039e-18
-4.30813e-10
-3.84848e-18
-4.30814e-10
-4.30814e-10
-1.0157e-17
-1.17376e-17
-8.40246e-18
-3.75601e-18
)
;

boundaryField
{
    BotWall
    {
        type            calculated;
        value           nonuniform 0();
    }
    FreeStream
    {
        type            calculated;
        value           nonuniform 0();
    }
    FrontNBack
    {
        type            empty;
        value           nonuniform 0();
    }
    LeftSide
    {
        type            symmetryPlane;
        value           uniform 0;
    }
    RightSide
    {
        type            symmetryPlane;
        value           uniform 0;
    }
    procBoundary2to1
    {
        type            processor;
        value           nonuniform List<scalar> 5(4.30813e-10 4.30813e-10 4.30813e-10 4.30813e-10 4.30814e-10);
    }
    procBoundary2to3
    {
        type            processor;
        value           nonuniform List<scalar> 5(-4.30813e-10 -4.30813e-10 -4.30813e-10 -4.30814e-10 -4.30814e-10);
    }
}


// ************************************************************************* //
