/*--------------------------------*- C++ -*----------------------------------*\
| =========                 |                                                 |
| \\      /  F ield         | OpenFOAM: The Open Source CFD Toolbox           |
|  \\    /   O peration     | Version:  2.4.0                                 |
|   \\  /    A nd           | Web:      www.OpenFOAM.org                      |
|    \\/     M anipulation  |                                                 |
\*---------------------------------------------------------------------------*/
FoamFile
{
    version     2.0;
    format      ascii;
    class       volVectorField;
    location    "1";
    object      U;
}
// * * * * * * * * * * * * * * * * * * * * * * * * * * * * * * * * * * * * * //

dimensions      [0 1 -1 0 0 0 0];

internalField   nonuniform List<vector> 
125
(
(-1.6033e-09 -0.00215407 0)
(-3.06585e-09 -0.00215407 0)
(-2.35031e-09 -0.00215407 0)
(-2.67923e-09 -0.00215407 0)
(-1.50818e-09 -0.00215407 0)
(-1.63789e-09 -0.00215407 0)
(-3.10664e-09 -0.00215407 0)
(-2.35173e-09 -0.00215407 0)
(-2.56869e-09 -0.00215407 0)
(-1.40635e-09 -0.00215407 0)
(-1.66642e-09 -0.00215407 0)
(-3.13799e-09 -0.00215407 0)
(-2.34939e-09 -0.00215407 0)
(-2.4619e-09 -0.00215407 0)
(-1.30907e-09 -0.00215407 0)
(-1.68905e-09 -0.00215407 0)
(-3.16016e-09 -0.00215407 0)
(-2.34342e-09 -0.00215407 0)
(-2.35873e-09 -0.00215407 0)
(-1.21617e-09 -0.00215407 0)
(-1.70594e-09 -0.00215407 0)
(-3.17346e-09 -0.00215407 0)
(-2.33397e-09 -0.00215407 0)
(-2.25925e-09 -0.00215407 0)
(-1.12768e-09 -0.00215407 0)
(-1.71728e-09 -0.00215407 0)
(-3.17817e-09 -0.00215407 0)
(-2.3212e-09 -0.00215407 0)
(-2.16348e-09 -0.00215407 0)
(-1.04357e-09 -0.00215407 0)
(-1.72325e-09 -0.00215407 0)
(-3.17461e-09 -0.00215407 0)
(-2.30527e-09 -0.00215407 0)
(-2.07143e-09 -0.00215407 0)
(-9.63798e-10 -0.00215407 0)
(-1.72405e-09 -0.00215406 0)
(-3.1631e-09 -0.00215407 0)
(-2.28632e-09 -0.00215407 0)
(-1.98309e-09 -0.00215407 0)
(-8.88307e-10 -0.00215407 0)
(-1.71986e-09 -0.00215406 0)
(-3.14397e-09 -0.00215407 0)
(-2.26453e-09 -0.00215407 0)
(-1.89846e-09 -0.00215407 0)
(-8.17041e-10 -0.00215407 0)
(-1.71089e-09 -0.00215406 0)
(-3.11756e-09 -0.00215407 0)
(-2.24005e-09 -0.00215407 0)
(-1.81751e-09 -0.00215407 0)
(-7.49932e-10 -0.00215407 0)
(-1.69735e-09 -0.00215406 0)
(-3.08421e-09 -0.00215407 0)
(-2.21307e-09 -0.00215407 0)
(-1.74022e-09 -0.00215407 0)
(-6.86906e-10 -0.00215407 0)
(-1.67945e-09 -0.00215406 0)
(-3.04429e-09 -0.00215407 0)
(-2.18375e-09 -0.00215407 0)
(-1.66656e-09 -0.00215407 0)
(-6.27887e-10 -0.00215407 0)
(-1.6574e-09 -0.00215406 0)
(-2.99814e-09 -0.00215407 0)
(-2.15226e-09 -0.00215407 0)
(-1.5965e-09 -0.00215407 0)
(-5.72793e-10 -0.00215407 0)
(-1.63143e-09 -0.00215406 0)
(-2.94615e-09 -0.00215407 0)
(-2.11878e-09 -0.00215407 0)
(-1.53001e-09 -0.00215407 0)
(-5.21542e-10 -0.00215407 0)
(-1.60176e-09 -0.00215406 0)
(-2.88868e-09 -0.00215407 0)
(-2.08348e-09 -0.00215407 0)
(-1.46705e-09 -0.00215407 0)
(-4.74047e-10 -0.00215407 0)
(-1.56862e-09 -0.00215406 0)
(-2.82611e-09 -0.00215407 0)
(-2.04655e-09 -0.00215407 0)
(-1.40757e-09 -0.00215407 0)
(-4.30222e-10 -0.00215407 0)
(-1.53224e-09 -0.00215406 0)
(-2.75884e-09 -0.00215407 0)
(-2.00814e-09 -0.00215407 0)
(-1.35153e-09 -0.00215407 0)
(-3.89977e-10 -0.00215407 0)
(-1.49286e-09 -0.00215406 0)
(-2.68726e-09 -0.00215407 0)
(-1.96846e-09 -0.00215407 0)
(-1.29889e-09 -0.00215407 0)
(-3.53224e-10 -0.00215407 0)
(-1.45071e-09 -0.00215406 0)
(-2.61175e-09 -0.00215407 0)
(-1.92766e-09 -0.00215407 0)
(-1.2496e-09 -0.00215407 0)
(-3.1987e-10 -0.00215407 0)
(-1.40604e-09 -0.00215406 0)
(-2.53271e-09 -0.00215407 0)
(-1.88593e-09 -0.00215407 0)
(-1.20362e-09 -0.00215407 0)
(-2.89828e-10 -0.00215407 0)
(-1.35909e-09 -0.00215406 0)
(-2.45055e-09 -0.00215407 0)
(-1.84343e-09 -0.00215407 0)
(-1.16089e-09 -0.00215407 0)
(-2.63012e-10 -0.00215407 0)
(-1.3101e-09 -0.00215406 0)
(-2.36567e-09 -0.00215407 0)
(-1.80035e-09 -0.00215407 0)
(-1.12142e-09 -0.00215407 0)
(-2.3938e-10 -0.00215407 0)
(-1.25932e-09 -0.00215406 0)
(-2.27847e-09 -0.00215407 0)
(-1.75685e-09 -0.00215407 0)
(-1.08496e-09 -0.00215407 0)
(-2.18651e-10 -0.00215407 0)
(-1.20698e-09 -0.00215406 0)
(-2.18936e-09 -0.00215407 0)
(-1.7131e-09 -0.00215407 0)
(-1.05216e-09 -0.00215407 0)
(-2.01442e-10 -0.00215407 0)
(-1.15334e-09 -0.00215406 0)
(-2.09874e-09 -0.00215407 0)
(-1.66928e-09 -0.00215407 0)
(-1.02195e-09 -0.00215407 0)
(-1.86647e-10 -0.00215407 0)
)
;

boundaryField
{
    BotWall
    {
        type            fixedValue;
        value           nonuniform 0();
    }
    FreeStream
    {
        type            zeroGradient;
    }
    FrontNBack
    {
        type            empty;
    }
    LeftSide
    {
        type            symmetryPlane;
    }
    RightSide
    {
        type            symmetryPlane;
    }
    procBoundary2to1
    {
        type            processor;
        value           nonuniform List<vector> 5((-1.56247e-09 -0.00215407 0) (-3.01535e-09 -0.00215407 0) (-2.34498e-09 -0.00215407 0) (-2.79297e-09 -0.00215407 0) (-1.61409e-09 -0.00215407 0));
    }
    procBoundary2to3
    {
        type            processor;
        value           nonuniform List<vector> 5((-1.09864e-09 -0.00215406 0) (-2.00702e-09 -0.00215407 0) (-1.62555e-09 -0.00215407 0) (-9.95083e-10 -0.00215407 0) (-1.74993e-10 -0.00215407 0));
    }
}


// ************************************************************************* //
