/*--------------------------------*- C++ -*----------------------------------*\
| =========                 |                                                 |
| \\      /  F ield         | OpenFOAM: The Open Source CFD Toolbox           |
|  \\    /   O peration     | Version:  2.4.0                                 |
|   \\  /    A nd           | Web:      www.OpenFOAM.org                      |
|    \\/     M anipulation  |                                                 |
\*---------------------------------------------------------------------------*/
FoamFile
{
    version     2.0;
    format      ascii;
    class       volScalarField;
    location    "1.5";
    object      T;
}
// * * * * * * * * * * * * * * * * * * * * * * * * * * * * * * * * * * * * * //

dimensions      [0 0 0 1 0 0 0];

internalField   nonuniform List<scalar> 
125
(
293.154
293.154
293.154
293.154
293.154
293.463
293.463
293.463
293.463
293.463
293.776
293.776
293.776
293.776
293.776
294.091
294.091
294.091
294.091
294.091
294.409
294.409
294.409
294.409
294.409
294.73
294.73
294.73
294.73
294.73
295.053
295.053
295.053
295.053
295.053
295.378
295.378
295.378
295.378
295.378
295.707
295.707
295.707
295.707
295.707
296.038
296.038
296.038
296.038
296.038
296.372
296.372
296.372
296.372
296.372
296.709
296.709
296.709
296.709
296.709
297.051
297.051
297.051
297.051
297.051
297.396
297.396
297.396
297.396
297.396
297.947
297.947
297.947
297.947
297.947
297.947
297.947
297.947
297.947
297.947
297.946
297.946
297.946
297.946
297.946
297.946
297.946
297.946
297.946
297.946
297.946
297.946
297.946
297.946
297.946
297.945
297.945
297.945
297.945
297.945
297.945
297.945
297.945
297.945
297.945
297.945
297.945
297.945
297.945
297.945
297.945
297.945
297.945
297.945
297.945
297.945
297.945
297.945
297.945
297.945
297.946
297.946
297.946
297.946
297.946
)
;

boundaryField
{
    BotWall
    {
        type            fixedValue;
        value           uniform 293;
    }
    FreeStream
    {
        type            fixedValue;
        value           nonuniform 0();
    }
    FrontNBack
    {
        type            empty;
    }
    LeftSide
    {
        type            symmetryPlane;
    }
    RightSide
    {
        type            symmetryPlane;
    }
    procBoundary0to1
    {
        type            processor;
        value           nonuniform List<scalar> 5(297.946 297.946 297.946 297.946 297.946);
    }
}


// ************************************************************************* //
