/*--------------------------------*- C++ -*----------------------------------*\
| =========                 |                                                 |
| \\      /  F ield         | OpenFOAM: The Open Source CFD Toolbox           |
|  \\    /   O peration     | Version:  2.4.0                                 |
|   \\  /    A nd           | Web:      www.OpenFOAM.org                      |
|    \\/     M anipulation  |                                                 |
\*---------------------------------------------------------------------------*/
FoamFile
{
    version     2.0;
    format      ascii;
    class       volScalarField;
    location    "2.5";
    object      T;
}
// * * * * * * * * * * * * * * * * * * * * * * * * * * * * * * * * * * * * * //

dimensions      [0 0 0 1 0 0 0];

internalField   nonuniform List<scalar> 
125
(
293.129
293.129
293.129
293.129
293.129
293.389
293.389
293.389
293.389
293.389
293.653
293.653
293.653
293.653
293.653
293.919
293.919
293.919
293.919
293.919
294.188
294.188
294.188
294.188
294.188
294.46
294.46
294.46
294.46
294.46
294.735
294.735
294.735
294.735
294.735
295.013
295.013
295.013
295.013
295.013
295.295
295.295
295.295
295.295
295.295
295.58
295.58
295.58
295.58
295.58
295.868
295.868
295.868
295.868
295.868
296.16
296.16
296.16
296.16
296.16
296.455
296.455
296.455
296.455
296.455
296.753
296.753
296.753
296.753
296.753
297.055
297.055
297.055
297.055
297.055
297.361
297.361
297.361
297.361
297.361
297.671
297.671
297.671
297.671
297.671
297.994
297.994
297.994
297.994
297.994
297.994
297.994
297.994
297.994
297.994
297.994
297.994
297.994
297.994
297.994
297.994
297.994
297.994
297.994
297.994
297.994
297.994
297.994
297.994
297.994
297.994
297.994
297.994
297.994
297.994
297.994
297.994
297.994
297.994
297.994
297.994
297.994
297.994
297.994
297.994
)
;

boundaryField
{
    BotWall
    {
        type            fixedValue;
        value           uniform 293;
    }
    FreeStream
    {
        type            fixedValue;
        value           nonuniform 0();
    }
    FrontNBack
    {
        type            empty;
    }
    LeftSide
    {
        type            symmetryPlane;
    }
    RightSide
    {
        type            symmetryPlane;
    }
    procBoundary0to1
    {
        type            processor;
        value           nonuniform List<scalar> 5(297.994 297.994 297.994 297.994 297.994);
    }
}


// ************************************************************************* //
