/*--------------------------------*- C++ -*----------------------------------*\
| =========                 |                                                 |
| \\      /  F ield         | OpenFOAM: The Open Source CFD Toolbox           |
|  \\    /   O peration     | Version:  2.4.0                                 |
|   \\  /    A nd           | Web:      www.OpenFOAM.org                      |
|    \\/     M anipulation  |                                                 |
\*---------------------------------------------------------------------------*/
FoamFile
{
    version     2.0;
    format      ascii;
    class       volScalarField;
    location    "3";
    object      alpha1;
}
// * * * * * * * * * * * * * * * * * * * * * * * * * * * * * * * * * * * * * //

dimensions      [0 0 0 0 0 0 0];

internalField   nonuniform List<scalar> 
8000
(
1
1
1
1
1
1
1
1
1
1
1
1
1
1
1
1
1
1
1
1
0.999999
0.999998
0.999997
0.999996
0.999995
0.999995
0.999996
0.999997
0.999998
0.999999
0.999978
0.508997
9.70916e-07
9.92465e-08
5.9136e-09
1.75208e-09
1.04178e-09
7.07864e-10
5.00003e-10
3.70312e-10
3.00303e-10
2.79734e-10
3.02896e-10
3.67535e-10
4.74214e-10
6.25754e-10
8.26687e-10
1.08267e-09
1.39984e-09
1.78404e-09
1
1
1
1
1
1
1
1
1
1
1
1
1
1
1
1
1
1
1
1
0.999999
0.999998
0.999997
0.999996
0.999995
0.999996
0.999996
0.999997
0.999998
0.999998
0.999969
0.483584
1.99849e-07
5.75791e-08
3.79197e-09
1.59157e-09
1.03013e-09
7.15289e-10
5.22805e-10
4.18576e-10
3.86172e-10
4.16886e-10
5.07411e-10
6.58764e-10
8.75456e-10
1.16471e-09
1.53568e-09
1.99849e-09
2.56313e-09
3.23822e-09
1
1
1
1
1
1
1
1
1
1
1
1
1
1
1
1
1
1
1
1
0.999999
0.999998
0.999997
0.999996
0.999995
0.999996
0.999997
0.999997
0.999998
0.999996
0.999966
0.44204
5.93325e-08
3.14725e-08
2.88521e-09
1.5234e-09
1.02607e-09
7.37217e-10
5.80648e-10
5.28166e-10
5.65892e-10
6.88547e-10
8.97455e-10
1.19926e-09
1.60482e-09
2.12812e-09
2.78503e-09
3.59175e-09
4.56282e-09
5.70927e-09
1
1
1
1
1
1
1
1
1
1
1
1
1
1
1
1
1
1
1
1
0.999999
0.999998
0.999997
0.999996
0.999996
0.999996
0.999997
0.999998
0.999998
0.999994
0.999946
0.381489
2.26068e-08
1.75597e-08
2.52563e-09
1.50756e-09
1.0563e-09
8.13581e-10
7.22449e-10
7.59335e-10
9.14981e-10
1.1902e-09
1.59379e-09
2.14093e-09
2.85181e-09
3.74999e-09
4.86045e-09
6.20683e-09
7.80829e-09
9.67687e-09
1
1
1
1
1
1
1
1
1
1
1
1
1
1
1
1
1
1
1
1
0.999999
0.999998
0.999997
0.999996
0.999996
0.999996
0.999997
0.999998
0.999998
0.999991
0.999921
0.29072
1.18433e-08
1.05958e-08
2.358e-09
1.53648e-09
1.15252e-09
9.94477e-10
1.01787e-09
1.20565e-09
1.55637e-09
2.08041e-09
2.79762e-09
3.73542e-09
4.9269e-09
6.40844e-09
8.21631e-09
1.03822e-08
1.29287e-08
1.58654e-08
1
1
1
1
1
1
1
1
1
1
1
1
1
1
1
1
1
1
1
1
0.999999
0.999999
0.999998
0.999997
0.999996
0.999996
0.999997
0.999998
0.999998
0.99999
0.999854
0.174097
8.54162e-09
7.23826e-09
2.32501e-09
1.66053e-09
1.38975e-09
1.37753e-09
1.59105e-09
2.0233e-09
2.68464e-09
3.59909e-09
4.80167e-09
6.33618e-09
8.25252e-09
1.0603e-08
1.34367e-08
1.67931e-08
2.06951e-08
2.5146e-08
1
1
1
1
1
1
1
1
1
1
1
1
1
1
1
1
1
1
1
1
0.999999
0.999999
0.999998
0.999997
0.999997
0.999997
0.999997
0.999998
0.999998
0.999994
0.995021
0.0442547
6.43177e-09
5.14745e-09
2.39275e-09
1.95634e-09
1.90503e-09
2.15862e-09
2.70094e-09
3.54094e-09
4.70631e-09
6.23977e-09
8.19622e-09
1.06401e-08
1.36413e-08
1.72698e-08
2.1587e-08
2.66373e-08
3.24397e-08
3.89856e-08
1
1
1
1
1
1
1
1
1
1
1
1
1
1
1
1
1
1
1
1
0.999999
0.999999
0.999998
0.999997
0.999997
0.999997
0.999997
0.999997
0.999998
0.999995
0.836141
0.00529296
5.36338e-09
4.31008e-09
2.78502e-09
2.64114e-09
2.92448e-09
3.59123e-09
4.64491e-09
6.11532e-09
8.05332e-09
1.05256e-08
1.36122e-08
1.7403e-08
2.1991e-08
2.74641e-08
3.38948e-08
4.13283e-08
4.97756e-08
5.92114e-08
1
1
1
1
1
1
1
1
1
1
1
1
1
1
1
1
1
1
1
1
0.999999
0.999999
0.999998
0.999998
0.999997
0.999997
0.999998
0.999997
0.999997
0.999984
0.608702
0.000473043
5.26322e-09
4.48698e-09
3.77822e-09
4.07126e-09
4.89381e-09
6.23339e-09
8.11993e-09
1.06127e-08
1.38e-08
1.77762e-08
2.26556e-08
2.85562e-08
3.55898e-08
4.38536e-08
5.34218e-08
6.43399e-08
7.65992e-08
9.01295e-08
1
1
1
1
1
1
1
1
1
1
1
1
1
1
1
1
1
1
1
1
0.999999
0.999999
0.999998
0.999998
0.999998
0.999998
0.999998
0.999997
0.999998
0.999998
0.3733
4.65856e-05
6.34804e-09
5.8352e-09
5.93069e-09
6.97918e-09
8.75614e-09
1.12936e-08
1.46673e-08
1.89903e-08
2.44458e-08
3.11355e-08
3.92532e-08
4.88869e-08
6.01454e-08
7.3106e-08
8.78074e-08
1.04227e-07
1.22294e-07
1.41913e-07
1
1
1
1
1
1
1
1
1
1
1
1
1
1
1
1
1
1
1
1
0.999999
0.999999
0.999999
0.999998
0.999998
0.999998
0.999998
0.999997
0.999998
0.998939
0.0931085
5.80891e-06
8.92844e-09
9.15413e-09
1.05791e-08
1.31429e-08
1.68266e-08
2.17581e-08
2.81089e-08
3.61146e-08
4.6199e-08
5.83444e-08
7.25931e-08
8.90801e-08
1.07871e-07
1.28916e-07
1.52104e-07
1.77271e-07
2.04227e-07
2.32787e-07
1
1
1
1
1
1
1
1
1
1
1
1
1
1
1
1
1
1
1
1
0.999999
0.999999
0.999999
0.999998
0.999998
0.999998
0.999998
0.999997
0.999994
0.712386
0.00516266
6.90713e-07
1.43744e-08
1.59729e-08
1.95487e-08
2.48774e-08
3.22121e-08
4.18999e-08
5.43056e-08
6.99217e-08
8.92092e-08
1.11715e-07
1.37676e-07
1.66944e-07
1.99246e-07
2.34163e-07
2.71224e-07
3.09966e-07
3.49989e-07
3.90963e-07
1
1
1
1
1
1
1
1
1
1
1
1
1
1
1
1
1
1
1
1
0.999999
0.999999
0.999999
0.999998
0.999998
0.999998
0.999998
0.999996
0.999827
0.252915
0.000407907
2.38216e-07
2.50497e-08
2.86304e-08
3.55553e-08
4.5803e-08
6.01452e-08
7.93607e-08
1.04086e-07
1.34702e-07
1.71254e-07
2.13416e-07
2.60503e-07
3.11519e-07
3.65268e-07
4.2052e-07
4.76247e-07
5.31693e-07
5.86193e-07
6.38815e-07
1
1
1
1
1
1
1
1
1
1
1
1
1
1
1
1
1
1
1
1
0.999999
1
0.999999
0.999999
0.999998
0.999998
0.999997
0.999955
0.717444
0.0173907
2.58252e-05
1.73736e-07
4.46549e-08
5.14884e-08
6.4282e-08
8.40889e-08
1.12617e-07
1.51129e-07
2.00163e-07
2.59357e-07
3.27368e-07
4.01937e-07
4.80098e-07
5.5866e-07
6.34934e-07
7.07302e-07
7.74992e-07
8.3691e-07
8.90473e-07
9.31699e-07
1
1
1
1
1
1
1
1
1
1
1
1
1
1
1
1
1
1
1
1
1
1
0.999999
0.999999
0.999998
0.999998
0.99994
0.836454
0.0887836
0.000873576
5.57229e-06
1.7123e-07
7.7369e-08
8.79958e-08
1.09696e-07
1.45658e-07
1.98589e-07
2.69315e-07
3.56675e-07
4.57294e-07
5.65458e-07
6.73812e-07
7.7492e-07
8.637e-07
9.38981e-07
1.00173e-06
1.05121e-06
1.08572e-06
1.11025e-06
1.13621e-06
1
1
1
1
1
1
1
1
1
1
1
1
1
1
1
1
1
0.999999
0.999999
1
1
1
0.999999
0.999998
0.999998
0.999727
0.804508
0.118604
0.00365222
6.11498e-05
2.10379e-06
1.92529e-07
1.34442e-07
1.45879e-07
1.74867e-07
2.28114e-07
3.0873e-07
4.14997e-07
5.42715e-07
6.82281e-07
8.17613e-07
9.30543e-07
1.0062e-06
1.0392e-06
1.03717e-06
1.02008e-06
1.01522e-06
1.07336e-06
1.32691e-06
9.83128e-07
1
1
1
1
1
1
1
1
1
1
1
1
1
1
1
1
0.999999
0.999999
1
1
1
1
1
0.999976
0.999155
0.578415
0.0716485
0.00381904
0.000143288
7.09179e-06
8.21141e-07
2.77134e-07
2.6e-07
2.6413e-07
2.8534e-07
3.3845e-07
4.26333e-07
5.34225e-07
6.51758e-07
7.71021e-07
8.81678e-07
9.59005e-07
9.96259e-07
1.04832e-06
1.05423e-06
1.0246e-06
1.61464e-06
1.2885e-06
1.94809e-06
1.07303e-06
1
1
1
1
1
1
1
1
1
1
1
1
1
1
1
0.999999
0.999999
0.999999
1.00001
1
1
0.999999
0.999621
0.880847
0.274462
0.0282694
0.00040459
1.41241e-06
5.00048e-07
5.55556e-07
6.20077e-07
6.69378e-07
6.92841e-07
7.33322e-07
7.84684e-07
8.18826e-07
8.43124e-07
8.698e-07
8.99433e-07
9.10218e-07
8.92313e-07
2.71011e-06
4.25716e-06
1.0487e-06
1.10445e-06
1.12916e-06
1.14419e-06
1.15149e-06
3.68821e-06
6.59251e-06
1
1
1
1
1
1
1
1
1
1
1
1
0.999999
0.999999
0.999999
0.999999
0.999999
1
1.00006
1
0.999755
0.993124
0.506148
0.0777681
0.000934156
0.000294824
1.045e-05
7.3305e-07
7.38338e-07
8.03429e-07
9.54673e-07
1.17309e-06
2.49915e-06
1.34947e-06
8.01708e-07
8.67304e-07
8.91008e-07
8.97995e-07
9.06132e-07
4.16948e-06
1.17684e-05
1.34129e-05
8.56763e-06
3.71243e-06
3.93921e-06
7.95445e-06
6.01937e-06
1.16674e-06
1.17854e-06
1.38973e-06
1
1
1
1
1
1
1
1
1
1
1
0.999999
0.999999
0.999999
0.999999
0.999998
0.999999
0.999953
0.996401
0.997706
0.624971
0.0805994
0.00229795
0.00144763
4.02862e-06
8.9871e-07
9.12725e-07
8.45923e-07
8.19557e-07
9.61096e-07
3.10565e-06
3.53765e-06
3.03353e-06
9.41106e-07
8.77734e-07
9.03735e-07
9.01813e-07
9.02277e-07
2.03247e-06
9.473e-06
1.34474e-05
1.34006e-05
4.58779e-06
1.48304e-06
1.4829e-06
1.51561e-06
3.11688e-06
1.822e-06
1.19873e-06
1.28945e-06
2.24018e-09
2.77177e-09
3.38105e-09
4.06966e-09
4.83988e-09
5.69586e-09
6.64443e-09
7.6951e-09
8.85899e-09
1.01465e-08
1.15636e-08
1.31057e-08
1.47526e-08
1.64644e-08
1.81825e-08
1.98378e-08
2.13639e-08
2.27131e-08
2.38702e-08
2.48572e-08
2.57285e-08
2.65554e-08
2.74066e-08
2.83314e-08
2.93517e-08
3.04638e-08
3.16475e-08
3.28784e-08
3.4138e-08
3.54194e-08
3.67274e-08
3.80749e-08
3.94794e-08
4.09597e-08
4.25333e-08
4.42141e-08
4.601e-08
4.79213e-08
4.9942e-08
5.20622e-08
5.4272e-08
5.65649e-08
5.89393e-08
6.13981e-08
6.39467e-08
6.6588e-08
6.93168e-08
7.21107e-08
7.49202e-08
7.76599e-08
4.03006e-09
4.94233e-09
5.97702e-09
7.13631e-09
8.42502e-09
9.85262e-09
1.1434e-08
1.31882e-08
1.51355e-08
1.72916e-08
1.96594e-08
2.22178e-08
2.49133e-08
2.76572e-08
3.03345e-08
3.28247e-08
3.50311e-08
3.6907e-08
3.84711e-08
3.98048e-08
4.10295e-08
4.22726e-08
4.36341e-08
4.51653e-08
4.68686e-08
4.8711e-08
5.06467e-08
5.26371e-08
5.46631e-08
5.67277e-08
5.88508e-08
6.10615e-08
6.33923e-08
6.58755e-08
6.85401e-08
7.14068e-08
7.4484e-08
7.7766e-08
8.12356e-08
8.48711e-08
8.86528e-08
9.25693e-08
9.66182e-08
1.00805e-07
1.05134e-07
1.096e-07
1.1417e-07
1.18767e-07
1.23245e-07
1.27392e-07
7.03753e-09
8.55002e-09
1.02478e-08
1.21349e-08
1.42221e-08
1.65299e-08
1.90879e-08
2.19308e-08
2.50913e-08
2.8588e-08
3.24096e-08
3.6497e-08
4.07318e-08
4.49407e-08
4.89222e-08
5.24909e-08
5.55285e-08
5.802e-08
6.00617e-08
6.18368e-08
6.35642e-08
6.54396e-08
6.75862e-08
7.00379e-08
7.2755e-08
7.56597e-08
7.86735e-08
8.17453e-08
8.48627e-08
8.80476e-08
9.13436e-08
9.48038e-08
9.84841e-08
1.0244e-07
1.06718e-07
1.11352e-07
1.16346e-07
1.21681e-07
1.27315e-07
1.332e-07
1.39298e-07
1.45586e-07
1.52061e-07
1.58731e-07
1.65601e-07
1.72642e-07
1.79756e-07
1.86742e-07
1.9328e-07
1.98952e-07
1.18168e-08
1.42272e-08
1.6908e-08
1.98676e-08
2.31287e-08
2.67313e-08
3.07282e-08
3.51768e-08
4.0125e-08
4.55888e-08
5.15265e-08
5.78118e-08
6.42217e-08
7.04555e-08
7.61905e-08
8.11632e-08
8.52475e-08
8.84973e-08
9.11335e-08
9.34849e-08
9.59005e-08
9.86595e-08
1.01907e-07
1.05641e-07
1.09759e-07
1.14121e-07
1.18603e-07
1.23136e-07
1.27719e-07
1.324e-07
1.37257e-07
1.4238e-07
1.47863e-07
1.538e-07
1.60272e-07
1.67328e-07
1.7497e-07
1.83145e-07
1.91762e-07
2.00722e-07
2.09944e-07
2.19388e-07
2.29057e-07
2.38975e-07
2.49145e-07
2.59492e-07
2.69788e-07
2.79611e-07
2.88352e-07
2.95325e-07
1.91907e-08
2.28976e-08
2.6985e-08
3.14694e-08
3.63935e-08
4.18264e-08
4.78542e-08
5.45633e-08
6.20193e-08
7.02283e-08
7.91032e-08
8.84247e-08
9.78283e-08
1.06841e-07
1.14976e-07
1.21864e-07
1.27369e-07
1.31635e-07
1.35041e-07
1.38099e-07
1.41328e-07
1.45136e-07
1.49725e-07
1.55063e-07
1.60964e-07
1.67196e-07
1.73557e-07
1.79934e-07
1.86321e-07
1.92799e-07
1.99496e-07
2.06557e-07
2.14132e-07
2.22379e-07
2.31439e-07
2.41401e-07
2.52268e-07
2.63937e-07
2.76224e-07
2.88926e-07
3.01885e-07
3.15035e-07
3.28399e-07
3.42053e-07
3.5602e-07
3.70153e-07
3.84006e-07
3.96811e-07
4.07579e-07
4.15338e-07
3.01332e-08
3.56399e-08
4.1663e-08
4.82296e-08
5.54083e-08
6.33069e-08
7.20512e-08
8.17583e-08
9.25247e-08
1.0434e-07
1.17078e-07
1.30433e-07
1.43894e-07
1.56776e-07
1.68373e-07
1.78111e-07
1.85781e-07
1.91593e-07
1.9606e-07
1.99903e-07
2.03857e-07
2.08579e-07
2.14475e-07
2.21548e-07
2.29511e-07
2.37987e-07
2.46623e-07
2.55175e-07
2.63584e-07
2.71968e-07
2.80526e-07
2.89471e-07
2.99029e-07
3.09457e-07
3.21e-07
3.33844e-07
3.48041e-07
3.63434e-07
3.79682e-07
3.9638e-07
4.13224e-07
4.30113e-07
4.47142e-07
4.64506e-07
4.82287e-07
5.00176e-07
5.17319e-07
5.32547e-07
5.44557e-07
5.52009e-07
4.62465e-08
5.41916e-08
6.28123e-08
7.21432e-08
8.22784e-08
9.33695e-08
1.0558e-07
1.19025e-07
1.33893e-07
1.50124e-07
1.6759e-07
1.85976e-07
2.0471e-07
2.22889e-07
2.39575e-07
2.53727e-07
2.64881e-07
2.7327e-07
2.79374e-07
2.84127e-07
2.8843e-07
2.93357e-07
2.99942e-07
3.08461e-07
3.1848e-07
3.29419e-07
3.40649e-07
3.51624e-07
3.62094e-07
3.7223e-07
3.82342e-07
3.92692e-07
4.03574e-07
4.15376e-07
4.28505e-07
4.4335e-07
4.60149e-07
4.7876e-07
4.98588e-07
5.18853e-07
5.38997e-07
5.58918e-07
5.78902e-07
5.99344e-07
6.20249e-07
6.40541e-07
6.58415e-07
6.7397e-07
6.86883e-07
6.92703e-07
6.95853e-08
8.08471e-08
9.29755e-08
1.05995e-07
1.2001e-07
1.35224e-07
1.51837e-07
1.69745e-07
1.89526e-07
2.10875e-07
2.33671e-07
2.57755e-07
2.82737e-07
3.07454e-07
3.31232e-07
3.51759e-07
3.67989e-07
3.80573e-07
3.89325e-07
3.95591e-07
4.00066e-07
4.04041e-07
4.10159e-07
4.19566e-07
4.31393e-07
4.44749e-07
4.58703e-07
4.72166e-07
4.84464e-07
4.95992e-07
5.07305e-07
5.18547e-07
5.29981e-07
5.42225e-07
5.55902e-07
5.71699e-07
5.90203e-07
6.11297e-07
6.33865e-07
6.56508e-07
6.78523e-07
7.00258e-07
7.22493e-07
7.45394e-07
7.66871e-07
7.80593e-07
7.81884e-07
7.90978e-07
8.10062e-07
8.17597e-07
1.04856e-07
1.20711e-07
1.37662e-07
1.55676e-07
1.74836e-07
1.95385e-07
2.17639e-07
2.40526e-07
2.65871e-07
2.92721e-07
3.20683e-07
3.50187e-07
3.81265e-07
4.12049e-07
4.44552e-07
4.72898e-07
4.94614e-07
5.13037e-07
5.25358e-07
5.3414e-07
5.39547e-07
5.41435e-07
5.45925e-07
5.5623e-07
5.6976e-07
5.84961e-07
6.01063e-07
6.16135e-07
6.28955e-07
6.40955e-07
6.5315e-07
6.64805e-07
6.75987e-07
6.87964e-07
7.01913e-07
7.18958e-07
7.39763e-07
7.6335e-07
7.87241e-07
8.09747e-07
8.31606e-07
8.55076e-07
8.80412e-07
9.02181e-07
9.04967e-07
8.64844e-07
7.91551e-07
1.45447e-06
8.10938e-07
8.90305e-07
1.62978e-07
1.85404e-07
2.09178e-07
2.34086e-07
2.60178e-07
2.87662e-07
3.16898e-07
3.45235e-07
3.76393e-07
4.0885e-07
4.40791e-07
4.75086e-07
5.10627e-07
5.44237e-07
5.85243e-07
6.19848e-07
6.43441e-07
6.66361e-07
6.81294e-07
6.91828e-07
6.99554e-07
7.00221e-07
7.0521e-07
7.19241e-07
7.35443e-07
7.51068e-07
7.67396e-07
7.80709e-07
7.90635e-07
8.01792e-07
8.14764e-07
8.25998e-07
8.35779e-07
8.47424e-07
8.63731e-07
8.85899e-07
9.12014e-07
9.36979e-07
9.57444e-07
9.76404e-07
1.00025e-06
1.0303e-06
1.05216e-06
1.04257e-06
9.97929e-07
9.9079e-07
1.78223e-06
9.10032e-07
9.0992e-07
9.04157e-07
2.62794e-07
2.9413e-07
3.26756e-07
3.59902e-07
3.93758e-07
4.28329e-07
4.63672e-07
4.96324e-07
5.32678e-07
5.69052e-07
6.00733e-07
6.39125e-07
6.74828e-07
7.04679e-07
7.53759e-07
7.89601e-07
8.09209e-07
8.32267e-07
8.47999e-07
8.57983e-07
8.73353e-07
8.77855e-07
8.8924e-07
9.07618e-07
9.2604e-07
9.37939e-07
9.52854e-07
9.59874e-07
9.60692e-07
9.69025e-07
9.84144e-07
9.93756e-07
9.97633e-07
1.00478e-06
1.02256e-06
1.05182e-06
1.08503e-06
1.10681e-06
1.11433e-06
1.12223e-06
1.14129e-06
1.19657e-06
1.26378e-06
1.31756e-06
1.36508e-06
1.53563e-06
1.77765e-06
9.20897e-07
9.39781e-07
9.58029e-07
4.32541e-07
4.74267e-07
5.15912e-07
5.55686e-07
5.94931e-07
6.33511e-07
6.72028e-07
7.10528e-07
7.58327e-07
7.94389e-07
8.20502e-07
8.63803e-07
8.82897e-07
8.86755e-07
9.67133e-07
9.73978e-07
9.91408e-07
1.0134e-06
1.02055e-06
1.02077e-06
1.096e-06
1.10319e-06
1.1502e-06
1.14455e-06
1.16902e-06
1.18331e-06
1.18791e-06
1.16944e-06
1.14991e-06
1.15485e-06
1.16896e-06
1.17125e-06
1.17779e-06
1.19439e-06
1.25561e-06
1.34576e-06
1.40915e-06
1.3009e-06
1.1835e-06
2.3837e-06
1.14356e-06
1.48833e-06
1.68486e-06
1.86617e-06
1.95656e-06
1.80343e-06
3.34913e-06
9.40067e-07
1.37563e-06
1.43306e-06
6.87896e-07
7.31939e-07
7.73307e-07
8.10688e-07
8.49376e-07
8.94367e-07
9.56909e-07
1.03564e-06
1.09547e-06
1.13022e-06
1.14814e-06
1.1294e-06
1.03997e-06
8.99115e-07
1.76059e-06
9.76072e-07
1.18503e-06
1.22478e-06
1.11409e-06
1.04169e-06
2.11264e-06
1.65047e-06
1.78933e-06
1.58877e-06
1.81036e-06
1.54628e-06
1.42484e-06
1.33051e-06
1.27607e-06
1.25861e-06
1.22564e-06
1.17758e-06
2.13212e-06
1.79502e-06
2.33245e-06
5.51941e-06
3.13353e-06
1.42762e-06
1.56354e-06
1.68313e-06
1.9017e-06
2.13145e-06
2.39771e-06
2.38266e-06
3.89205e-06
2.09483e-06
2.28733e-06
2.19613e-06
2e-06
1.81131e-06
9.5763e-07
9.73559e-07
1.01099e-06
1.0576e-06
1.14853e-06
1.31775e-06
1.52095e-06
1.59109e-06
3.12247e-06
1.53608e-06
1.25094e-06
1.2043e-06
1.15743e-06
1.1018e-06
1.10493e-06
1.80204e-06
4.92859e-06
2.31066e-06
1.0287e-06
1.03696e-06
2.17715e-06
6.31297e-06
6.9222e-06
1.46463e-06
1.21412e-06
1.21416e-06
1.21944e-06
1.22221e-06
1.70616e-06
2.47215e-06
1.22842e-06
1.55657e-06
1.83856e-06
5.74605e-06
7.23395e-06
7.21924e-06
3.02263e-06
2.63119e-06
2.67701e-06
2.84472e-06
3.3422e-06
3.41271e-06
3.09877e-06
2.20418e-06
1.74162e-06
1.35972e-06
2.45431e-06
2.95607e-06
2.68397e-06
1.18176e-06
1.27697e-06
9.78099e-07
1.18169e-06
1.16628e-06
1.15323e-06
2.99673e-06
6.81141e-06
6.79026e-06
2.90429e-06
1.08135e-06
1.08135e-06
1.08173e-06
1.08176e-06
1.08686e-06
2.61804e-06
7.68259e-06
1.04125e-05
1.97015e-06
1.04142e-06
3.17481e-06
7.82632e-06
7.81184e-06
6.89656e-06
1.67231e-06
1.43634e-06
1.57336e-06
1.3727e-06
2.56513e-06
3.90948e-06
3.62778e-06
1.67788e-06
1.89362e-06
2.00556e-06
2.03179e-06
2.04693e-06
2.1711e-06
2.6848e-06
2.14517e-06
2.45684e-06
2.77191e-06
3.24313e-06
4.91026e-06
4.80763e-06
2.07969e-06
1.44412e-06
9.85405e-07
1.96412e-06
2.76419e-06
1.13683e-06
9.09134e-07
9.96189e-07
9.90948e-07
3.926e-06
1.01642e-05
1.05048e-05
1.05065e-05
9.82708e-06
2.5369e-06
1.43479e-06
1.32506e-06
1.29544e-06
1.31124e-06
1.36081e-06
1.46198e-06
2.45277e-06
8.52317e-06
1.0404e-05
8.82182e-06
2.79452e-06
2.42672e-06
2.38474e-06
2.44683e-06
2.6074e-06
2.87255e-06
3.21886e-06
3.46802e-06
3.18509e-06
2.96361e-06
2.91694e-06
4.07772e-06
2.39604e-06
3.45346e-06
1.90237e-06
2.23268e-06
1.88164e-06
1.70655e-06
1.51996e-06
1.48184e-06
1.48068e-06
1.4833e-06
1.4827e-06
4.4725e-06
4.80162e-06
2.78552e-06
9.07445e-07
8.18691e-07
7.46636e-07
4.53423e-07
1.13752e-06
6.0775e-07
1.45345e-06
1.73307e-06
2.14863e-06
2.72468e-06
2.66345e-06
3.05694e-06
7.29694e-06
8.49663e-06
6.68444e-06
2.60853e-06
2.44348e-06
2.66414e-06
3.2327e-06
3.88428e-06
3.94752e-06
6.39399e-06
5.79609e-06
3.24386e-06
3.16497e-06
4.28378e-06
3.7358e-06
3.18701e-06
3.06314e-06
2.909e-06
3.13832e-06
5.56525e-06
5.23932e-06
2.17987e-06
2.05451e-06
1.80622e-06
1.69139e-06
1.43571e-06
1.41291e-06
1.92467e-06
2.48699e-06
2.4905e-06
1.13171e-06
1.01482e-06
9.82938e-07
9.32262e-07
8.57646e-07
8.78861e-07
3.69959e-06
3.88742e-06
2.32336e-06
5.34236e-07
5.32274e-07
4.48793e-07
9.10339e-07
4.58626e-07
6.61323e-06
4.1891e-06
1.48496e-06
1.72144e-06
2.19302e-06
2.19267e-06
2.19744e-06
3.14105e-06
2.20986e-06
2.36078e-06
2.39438e-06
2.34713e-06
4.74024e-06
6.69695e-06
6.38771e-06
3.74571e-06
3.34175e-06
3.65537e-06
2.64372e-06
4.942e-06
5.13071e-06
3.5656e-06
3.33176e-06
2.61771e-06
2.137e-06
4.78231e-06
5.23453e-06
3.88991e-06
2.06703e-06
1.43326e-06
1.42721e-06
1.34112e-06
1.16326e-06
9.08479e-07
1.62644e-06
3.09894e-06
2.22638e-06
6.97051e-07
7.27002e-07
7.15157e-07
6.38227e-07
6.38067e-07
3.09394e-06
1.98136e-06
5.49686e-07
4.8968e-07
4.70105e-07
4.47161e-07
3.5894e-07
3.50012e-07
1.50439e-06
1.39446e-06
1.39841e-06
2.6984e-06
7.57976e-06
9.03735e-06
4.56687e-06
2.20915e-06
2.20916e-06
2.21339e-06
3.2152e-06
2.34253e-06
2.34599e-06
4.15898e-06
2.8926e-06
3.08355e-06
3.22246e-06
3.21206e-06
2.68801e-06
2.03539e-06
2.58526e-06
3.56693e-06
3.34377e-06
2.46072e-06
2.06635e-06
1.71018e-06
2.03615e-06
5.18261e-06
6.00933e-06
3.76462e-06
1.18721e-06
1.03019e-06
9.30038e-07
7.11673e-07
1.12455e-06
3.10809e-06
1.94991e-06
6.06637e-07
6.52218e-07
6.30511e-07
5.38866e-07
8.19785e-07
6.37071e-07
5.15155e-07
4.67017e-07
4.19417e-07
3.78502e-07
3.46943e-07
3.22511e-07
3.01878e-07
1.41153e-06
1.40541e-06
1.40318e-06
2.97676e-06
7.87019e-06
9.02121e-06
6.77866e-06
2.21037e-06
2.21875e-06
3.37165e-06
4.86941e-06
2.61242e-06
2.34158e-06
2.43973e-06
2.89681e-06
3.11823e-06
3.80984e-06
3.72531e-06
3.45268e-06
2.57213e-06
1.67055e-06
1.20816e-06
9.51319e-07
2.40067e-06
1.37116e-06
1.3415e-06
1.36653e-06
3.07446e-06
6.00605e-06
6.01094e-06
4.58133e-06
1.44194e-06
6.64123e-07
6.10333e-07
4.92909e-07
1.79816e-06
1.27145e-06
5.28671e-07
5.07732e-07
5.02772e-07
4.69614e-07
3.91691e-07
3.40586e-07
3.15124e-07
2.97754e-07
2.80794e-07
2.62863e-07
2.44443e-07
2.26277e-07
2.08939e-07
8.0205e-08
8.14078e-08
8.24798e-08
8.3411e-08
8.42012e-08
8.48623e-08
8.54188e-08
8.5907e-08
8.63716e-08
8.68616e-08
8.74252e-08
8.8105e-08
8.89344e-08
8.99359e-08
9.11209e-08
9.2492e-08
9.40455e-08
9.57752e-08
9.76752e-08
9.97431e-08
1.01982e-07
1.04401e-07
1.07017e-07
1.09848e-07
1.12914e-07
1.16226e-07
1.19789e-07
1.23594e-07
1.2762e-07
1.31832e-07
1.36185e-07
1.40629e-07
1.4511e-07
1.49578e-07
1.53984e-07
1.58284e-07
1.62435e-07
1.66403e-07
1.70167e-07
1.73715e-07
1.7704e-07
1.80155e-07
1.83102e-07
1.85938e-07
1.88739e-07
1.91582e-07
1.94548e-07
1.97718e-07
2.01165e-07
2.04935e-07
2.09043e-07
2.13482e-07
2.18241e-07
2.23345e-07
2.2891e-07
2.35164e-07
2.42449e-07
2.51185e-07
2.61665e-07
2.73964e-07
2.87831e-07
3.02397e-07
3.16922e-07
3.30887e-07
3.43873e-07
3.55789e-07
3.66647e-07
3.75999e-07
3.82986e-07
3.87344e-07
3.89519e-07
3.89462e-07
3.87456e-07
3.84082e-07
3.79792e-07
3.72843e-07
3.68279e-07
3.64811e-07
3.60555e-07
3.5652e-07
3.53513e-07
3.53357e-07
3.56211e-07
3.59512e-07
3.65377e-07
3.7575e-07
3.81006e-07
3.869e-07
4.00471e-07
4.17916e-07
4.38896e-07
4.69126e-07
5.22539e-07
5.89473e-07
6.91087e-07
7.41028e-07
7.37471e-07
7.18195e-07
7.29976e-07
7.39327e-07
6.87751e-07
6.41356e-07
6.46152e-07
6.37725e-07
6.49108e-07
7.07723e-07
7.21937e-07
6.11617e-07
5.60515e-07
5.49728e-07
5.51257e-07
5.6027e-07
5.7741e-07
5.96962e-07
6.04501e-07
6.24336e-07
5.99049e-07
6.24889e-07
6.51349e-07
6.59322e-07
6.47104e-07
6.75104e-07
6.89518e-07
6.94139e-07
7.09175e-07
7.25609e-07
7.39442e-07
7.52604e-07
7.66667e-07
7.79512e-07
7.93624e-07
8.11068e-07
8.29899e-07
8.4068e-07
8.57182e-07
8.83536e-07
9.07748e-07
9.23325e-07
9.44959e-07
9.54316e-07
9.84248e-07
1.02238e-06
1.01335e-06
1.03858e-06
1.00531e-06
9.93159e-07
1.0256e-06
1.0305e-06
1.1415e-06
1.06443e-06
1.0418e-06
1.06174e-06
1.28139e-06
1.0928e-06
1.1159e-06
9.38829e-07
1.06904e-06
9.9545e-07
9.61903e-07
1.1616e-06
1.07541e-06
1.02379e-06
1.10388e-06
1.21682e-06
1.19063e-06
1.11058e-06
9.97905e-07
9.68531e-07
9.9455e-07
1.03893e-06
1.0732e-06
1.0674e-06
1.92034e-06
1.99963e-06
1.79179e-06
1.63706e-06
1.20311e-06
7.9691e-07
6.40966e-07
5.93429e-07
5.86673e-07
5.83499e-07
5.90311e-07
6.01623e-07
6.15422e-07
6.33362e-07
6.56393e-07
6.64425e-07
7.01799e-07
7.61901e-07
7.93911e-07
1.10467e-06
1.89282e-06
1.90527e-06
1.51035e-06
1.07194e-06
9.46918e-07
6.83087e-07
5.73329e-07
5.56208e-07
5.52076e-07
5.69552e-07
5.85527e-07
6.27909e-07
7.85138e-07
1.36975e-06
1.18635e-06
7.93764e-07
7.8574e-07
5.54631e-07
4.68856e-07
4.59733e-07
4.63056e-07
4.72934e-07
4.78702e-07
5.7273e-07
8.69914e-07
8.04186e-07
7.41196e-07
6.17133e-07
4.09011e-07
3.35186e-07
3.29239e-07
3.16615e-07
3.12121e-07
3.04021e-07
3.08014e-07
3.26491e-07
3.23784e-07
2.93774e-07
2.67897e-07
2.46338e-07
2.37459e-07
2.32822e-07
2.27259e-07
2.17921e-07
1.99697e-07
1.73493e-07
1.51376e-07
1.33248e-07
1.18206e-07
1.05726e-07
9.46674e-08
8.41481e-08
7.38086e-08
6.35345e-08
5.33713e-08
4.39111e-08
3.56747e-08
2.88472e-08
2.3279e-08
1.87104e-08
1.49169e-08
1.17433e-08
9.09418e-09
6.91062e-09
5.14859e-09
3.76322e-09
2.70261e-09
1.9099e-09
1.32933e-09
9.11385e-10
6.15119e-10
4.08277e-10
2.66166e-10
1.70217e-10
1.06658e-10
6.5412e-11
3.92262e-11
2.29809e-11
1.31424e-11
7.33089e-12
3.98553e-12
2.1103e-12
1.08746e-12
5.44987e-13
2.65439e-13
1.25563e-13
5.76503e-14
2.56767e-14
1.10882e-14
4.64097e-15
1.88238e-15
7.39965e-16
2.82072e-16
1.04392e-16
3.7586e-17
1.3207e-17
4.54876e-18
1.54388e-18
5.19213e-19
1.73717e-19
5.78628e-20
1.91081e-20
6.19972e-21
1.95175e-21
5.88127e-22
1.67729e-22
4.5124e-23
1.16536e-23
1.3095e-07
1.32452e-07
1.33683e-07
1.34657e-07
1.35411e-07
1.36007e-07
1.36528e-07
1.37064e-07
1.3771e-07
1.38545e-07
1.39632e-07
1.4101e-07
1.42694e-07
1.44683e-07
1.46963e-07
1.4952e-07
1.52342e-07
1.55426e-07
1.58778e-07
1.62417e-07
1.66369e-07
1.70669e-07
1.75348e-07
1.80426e-07
1.85904e-07
1.91757e-07
1.97932e-07
2.04352e-07
2.10925e-07
2.17548e-07
2.24125e-07
2.30569e-07
2.36821e-07
2.42837e-07
2.48575e-07
2.53976e-07
2.58989e-07
2.63602e-07
2.67847e-07
2.71747e-07
2.75309e-07
2.78588e-07
2.81694e-07
2.84762e-07
2.87975e-07
2.91517e-07
2.95557e-07
3.00232e-07
3.05623e-07
3.11715e-07
3.1842e-07
3.25632e-07
3.33353e-07
3.4194e-07
3.52157e-07
3.64997e-07
3.81401e-07
4.0191e-07
4.2641e-07
4.53742e-07
4.79956e-07
4.99592e-07
5.14572e-07
5.25453e-07
5.32864e-07
5.37995e-07
5.40957e-07
5.40756e-07
5.37414e-07
5.31974e-07
5.25202e-07
5.15476e-07
5.03348e-07
4.93177e-07
4.92354e-07
4.68406e-07
4.73e-07
4.77129e-07
4.74535e-07
4.66303e-07
4.59726e-07
4.63823e-07
4.73672e-07
4.67071e-07
4.89364e-07
5.2248e-07
5.20292e-07
5.2113e-07
5.57354e-07
5.95914e-07
6.4724e-07
7.65674e-07
9.58078e-07
1.52795e-06
1.77343e-06
1.12392e-06
9.61157e-07
8.69575e-07
9.66561e-07
8.59625e-07
7.06302e-07
7.22283e-07
7.49492e-07
6.87827e-07
1.47192e-06
2.68525e-06
7.36538e-07
6.36505e-07
6.48425e-07
6.72971e-07
7.03183e-07
7.51729e-07
7.52323e-07
7.3251e-07
1.51229e-06
8.29009e-07
7.85806e-07
8.56836e-07
9.74892e-07
1.00296e-06
8.4601e-07
9.32216e-07
9.44764e-07
9.10067e-07
9.22827e-07
9.3896e-07
9.53707e-07
9.59562e-07
9.729e-07
9.75696e-07
9.77422e-07
9.91615e-07
1.01914e-06
9.94997e-07
9.91166e-07
1.03838e-06
1.03387e-06
9.97196e-07
1.05773e-06
1.06412e-06
1.05539e-06
1.1403e-06
1.09417e-06
1.32869e-06
1.1301e-06
1.10411e-06
1.29014e-06
1.10111e-06
1.35392e-06
1.18394e-06
1.09872e-06
9.6756e-07
1.79162e-06
1.01916e-06
1.27303e-06
1.05517e-06
1.89819e-06
1.02432e-06
8.47814e-07
1.16478e-06
9.69046e-07
9.30466e-07
9.87611e-07
1.47573e-06
1.81333e-06
1.67623e-06
9.25664e-07
8.58843e-07
8.27444e-07
8.28146e-07
8.29945e-07
8.15224e-07
7.92608e-07
1.67148e-06
3.74029e-06
4.13818e-06
4.11915e-06
3.20764e-06
2.13687e-06
1.13054e-06
5.72304e-07
5.67282e-07
5.55811e-07
5.50773e-07
5.45127e-07
5.42127e-07
5.45312e-07
5.49616e-07
5.36253e-07
5.79187e-07
5.60198e-07
5.43002e-07
5.30938e-07
1.35369e-06
3.20581e-06
3.32617e-06
3.31159e-06
2.30892e-06
1.34344e-06
6.97305e-07
4.97308e-07
4.94001e-07
4.83767e-07
4.78778e-07
4.72836e-07
4.8707e-07
1.62673e-06
2.22414e-06
2.21689e-06
1.74751e-06
9.86459e-07
5.20432e-07
4.86648e-07
4.63903e-07
4.58372e-07
4.54707e-07
4.48683e-07
1.03556e-06
1.89145e-06
1.89081e-06
1.54213e-06
8.60024e-07
4.75068e-07
4.06152e-07
3.60946e-07
3.50261e-07
3.53027e-07
4.38049e-07
6.38451e-07
5.57271e-07
4.52061e-07
3.53247e-07
3.28573e-07
3.28694e-07
3.38964e-07
3.60364e-07
3.79796e-07
3.30203e-07
2.69879e-07
2.42226e-07
2.13298e-07
1.92886e-07
1.77087e-07
1.62685e-07
1.49331e-07
1.36368e-07
1.20375e-07
1.02125e-07
8.42817e-08
6.89162e-08
5.65262e-08
4.65453e-08
3.83074e-08
3.13128e-08
2.52576e-08
1.99979e-08
1.54918e-08
1.17354e-08
8.70811e-09
6.34674e-09
4.55387e-09
3.22078e-09
2.2457e-09
1.54253e-09
1.0425e-09
6.92245e-10
4.51012e-10
2.8795e-10
1.79957e-10
1.09985e-10
6.56803e-11
3.82948e-11
2.17835e-11
1.20807e-11
6.52741e-12
3.43386e-12
1.75767e-12
8.7486e-13
4.23183e-13
1.98823e-13
9.06856e-14
4.01386e-14
1.72348e-14
7.17814e-15
2.90027e-15
1.1374e-15
4.3342e-16
1.60787e-16
5.82413e-17
2.06869e-17
7.24483e-18
2.51723e-18
8.7259e-19
3.02717e-19
1.04977e-19
3.61712e-20
1.22642e-20
4.04925e-21
1.29312e-21
4.01496e-22
2.03338e-07
2.04884e-07
2.05986e-07
2.06719e-07
2.07202e-07
2.07587e-07
2.08043e-07
2.08729e-07
2.09776e-07
2.11269e-07
2.13247e-07
2.15708e-07
2.18626e-07
2.21968e-07
2.25711e-07
2.29851e-07
2.34406e-07
2.39406e-07
2.44896e-07
2.5092e-07
2.5752e-07
2.64721e-07
2.72516e-07
2.80853e-07
2.8963e-07
2.98703e-07
3.07901e-07
3.17043e-07
3.25959e-07
3.34504e-07
3.42583e-07
3.50169e-07
3.57299e-07
3.63993e-07
3.70135e-07
3.7551e-07
3.8005e-07
3.83944e-07
3.87473e-07
3.90741e-07
3.93707e-07
3.96423e-07
3.99047e-07
4.018e-07
4.05181e-07
4.09695e-07
4.1561e-07
4.23048e-07
4.31957e-07
4.41969e-07
4.52532e-07
4.63203e-07
4.74159e-07
4.88467e-07
5.09652e-07
5.40865e-07
5.81929e-07
6.26147e-07
6.77406e-07
7.38496e-07
7.61562e-07
7.39583e-07
7.28252e-07
7.12569e-07
6.95123e-07
6.81734e-07
6.69601e-07
6.53277e-07
6.40672e-07
6.32508e-07
6.22103e-07
5.89862e-07
5.56209e-07
5.01303e-07
9.27926e-07
4.70596e-07
5.6936e-07
6.12301e-07
6.32652e-07
5.66126e-07
5.50643e-07
5.9174e-07
6.83101e-07
1.37491e-06
4.9249e-07
6.86344e-07
6.88899e-07
6.31512e-07
7.11011e-07
7.38779e-07
7.72968e-07
2.86272e-06
6.33026e-06
3.38661e-06
1.13301e-06
8.35103e-07
8.41846e-07
8.53568e-07
8.00493e-07
7.96682e-07
7.73638e-07
7.60395e-07
7.73732e-07
2.6407e-06
4.45953e-06
3.0325e-06
7.82922e-07
7.76307e-07
7.70234e-07
7.82065e-07
8.97234e-07
1.40711e-06
7.55299e-07
7.87232e-07
2.10073e-06
2.85935e-06
7.86898e-07
7.94833e-07
1.51029e-06
2.43166e-06
8.48263e-07
1.20531e-06
1.22882e-06
1.10652e-06
1.06478e-06
1.10181e-06
1.19976e-06
1.09607e-06
1.14276e-06
1.13632e-06
1.10124e-06
1.0861e-06
1.17857e-06
1.06364e-06
9.74804e-07
1.18826e-06
1.08416e-06
1.40184e-06
1.18288e-06
1.5182e-06
1.01597e-06
1.32017e-06
9.3867e-07
1.89618e-06
1.11772e-06
1.07849e-06
1.91905e-06
1.27509e-06
1.58685e-06
1.54158e-06
1.22142e-06
1.00651e-06
6.88492e-07
8.02846e-07
8.50385e-07
1.30498e-06
1.90574e-06
1.56865e-06
8.03331e-07
6.92087e-07
6.54666e-07
6.5173e-07
6.5423e-07
6.58301e-07
1.26925e-06
1.86057e-06
1.86375e-06
1.05752e-06
5.60801e-07
5.49711e-07
5.26445e-07
5.22683e-07
5.14997e-07
4.89149e-07
4.84651e-07
7.39406e-07
3.16432e-06
5.30531e-06
5.31947e-06
4.40697e-06
2.334e-06
1.3145e-06
6.71437e-07
4.94987e-07
4.91835e-07
4.59287e-07
4.47168e-07
4.38911e-07
3.59365e-07
5.81051e-07
4.05472e-07
4.41908e-07
4.067e-07
3.66531e-07
3.65669e-07
4.74829e-07
2.30625e-06
4.02246e-06
4.02966e-06
3.20596e-06
1.79974e-06
1.15852e-06
5.76992e-07
3.844e-07
3.81375e-07
3.73855e-07
3.58228e-07
3.67799e-07
8.58906e-07
2.76431e-06
2.83113e-06
2.83759e-06
1.65457e-06
8.55348e-07
4.11668e-07
4.0176e-07
3.92922e-07
3.79419e-07
3.74595e-07
9.22266e-07
2.67489e-06
2.70973e-06
2.71857e-06
1.60335e-06