/*--------------------------------*- C++ -*----------------------------------*\
| =========                 |                                                 |
| \\      /  F ield         | OpenFOAM: The Open Source CFD Toolbox           |
|  \\    /   O peration     | Version:  2.4.0                                 |
|   \\  /    A nd           | Web:      www.OpenFOAM.org                      |
|    \\/     M anipulation  |                                                 |
\*---------------------------------------------------------------------------*/
FoamFile
{
    version     2.0;
    format      ascii;
    class       volScalarField;
    location    "3";
    object      H;
}
// * * * * * * * * * * * * * * * * * * * * * * * * * * * * * * * * * * * * * //

dimensions      [0 2 -2 0 0 0 0];

internalField   nonuniform List<scalar> 
8000
(
-12014.5
-11583.7
-11153.6
-10724.5
-10297.1
-9871.59
-9448.51
-9028.24
-8611.12
-8197.47
-7787.55
-7381.59
-6979.78
-6582.26
-6189.13
-5800.44
-5416.22
-5036.46
-4661.09
-4290.02
-3923.12
-3560.18
-3200.98
-2845.23
-2492.59
-2142.68
-1795.04
-1449.22
-1104.73
-761.084
-417.868
-5.95756
-4.43607
-4.40878
-4.38037
-4.35079
-4.32
-4.28799
-4.25474
-4.22023
-4.18445
-4.14739
-4.10905
-4.06944
-4.02856
-3.98646
-3.94315
-3.89868
-3.85309
-3.80646
-12014.4
-11583.5
-11153.3
-10724.3
-10297
-9871.92
-9449.37
-9029.75
-8613.39
-8200.57
-7791.54
-7386.46
-6985.5
-6588.74
-6196.26
-5808.05
-5424.12
-5044.41
-4668.85
-4297.31
-3929.67
-3565.74
-3205.33
-2848.2
-2494.11
-2142.75
-1793.83
-1447.01
-1101.95
-758.256
-415.5
-6.14084
-4.56805
-4.52806
-4.48754
-4.44644
-4.40468
-4.36223
-4.31902
-4.27501
-4.23015
-4.1844
-4.13774
-4.09015
-4.04163
-3.99219
-3.94183
-3.8906
-3.83852
-3.78565
-12014.8
-11584.7
-11155.5
-10727.5
-10301.4
-9877.52
-9456.27
-9038
-8622.99
-8211.49
-7803.7
-7399.75
-6999.75
-6603.76
-6211.8
-5823.86
-5439.88
-5059.81
-4683.55
-4310.98
-3941.99
-3576.43
-3214.15
-2855.01
-2498.85
-2145.54
-1794.94
-1446.95
-1101.47
-758.4
-417.585
-6.58015
-4.88545
-4.81948
-4.75404
-4.68907
-4.62451
-4.56029
-4.49635
-4.43263
-4.36905
-4.30554
-4.24204
-4.1785
-4.11487
-4.05113
-3.98725
-3.92323
-3.85908
-3.7948
-12015.6
-11587
-11159.4
-10733
-10308.5
-9886.2
-9466.52
-9049.75
-8636.16
-8225.95
-7819.28
-7416.26
-7016.95
-6621.38
-6229.53
-5841.38
-5456.85
-5075.87
-4698.35
-4324.18
-3953.27
-3585.51
-3220.84
-2859.18
-2500.49
-2144.78
-1792.09
-1442.52
-1096.18
-753.198
-413.566
-7.25523
-5.38026
-5.28416
-5.18765
-5.0913
-4.99548
-4.9005
-4.80652
-4.71368
-4.62202
-4.53159
-4.44238
-4.35439
-4.26759
-4.18195
-4.09744
-4.01403
-3.9317
-3.85043
-12016.6
-11590
-11164.3
-10740
-10317.5
-9897.13
-9479.34
-9064.36
-8652.4
-8243.62
-7838.16
-7436.06
-7037.37
-6642.06
-6250.11
-5861.45
-5476.01
-5093.7
-4714.45
-4338.17
-3964.78
-3594.22
-3226.47
-2861.52
-2499.42
-2140.3
-1784.41
-1432.08
-1083.76
-740.083
-402.398
-8.65517
-6.38082
-6.18862
-6.00321
-5.82504
-5.65399
-5.48972
-5.33184
-5.18001
-5.03393
-4.89334
-4.75798
-4.62761
-4.50199
-4.38088
-4.26404
-4.15123
-4.04224
-3.93683
-12017.8
-11593.6
-11170.2
-10748.1
-10327.8
-9909.56
-9493.69
-9080.41
-8669.9
-8262.29
-7857.64
-7455.98
-7057.31
-6661.59
-6268.77
-5878.78
-5491.53
-5106.96
-4724.98
-4345.52
-3968.51
-3593.88
-3221.58
-2851.59
-2483.91
-2118.63
-1755.95
-1396.15
-1039.6
-687.626
-346.869
-11.0668
-7.89575
-7.36786
-6.94751
-6.60169
-6.30642
-6.04537
-5.80804
-5.58809
-5.38185
-5.18727
-5.00317
-4.82883
-4.66372
-4.50735
-4.35924
-4.21888
-4.08575
-3.95933
-12018.9
-11596.9
-11175.7
-10755.6
-10337
-9920.27
-9505.58
-9093.14
-8683.09
-8275.52
-7870.45
-7467.91
-7067.85
-6670.25
-6275.03
-5882.14
-5491.49
-5103.01
-4716.61
-4332.2
-3949.68
-3568.9
-3189.66
-2811.68
-2434.57
-2057.73
-1679.9
-1297.86
-903.027
-477.249
-4.4251
-0.424238
-1.32301
-2.26704
-3.05201
-3.66609
-4.11327
-4.4106
-4.58287
-4.65733
-4.6596
-4.61144
-4.53004
-4.42822
-4.31509
-4.19689
-4.0777
-3.96006
-3.84548
-3.73473
-12019.8
-11599.7
-11180.1
-10761.4
-10344
-9928.04
-9513.8
-9101.41
-8690.96
-8282.51
-7876.08
-7471.66
-7069.21
-6668.68
-6270
-5873.12
-5477.96
-5084.45
-4692.5
-4302
-3912.81
-3524.72
-3137.43
-2750.5
-2363.4
-1975.51
-1586.36
-1195.86
-804.683
-414.534
-4.26366
-3.46853
-3.28224
-3.36655
-3.44511
-3.51274
-3.56632
-3.60457
-3.62759
-3.63639
-3.6325
-3.61761
-3.59341
-3.56141
-3.52298
-3.47925
-3.4312
-3.37963
-3.32519
-3.26846
-12020.6
-11602
-11183.9
-10766.7
-10350.4
-9935.46
-9521.87
-9109.78
-8699.25
-8290.28
-7882.86
-7476.95
-7072.5
-6669.44
-6267.72
-5867.27
-5468.05
-5070.03
-4673.19
-4277.51
-3883
-3489.7
-3097.67
-2707.07
-2318.2
-1931.57
-1547.91
-1168.14
-793.235
-424.112
-5.34817
-4.02159
-3.96277
-3.93562
-3.90293
-3.86542
-3.82374
-3.77846
-3.73014
-3.67927
-3.62631
-3.57166
-3.51564
-3.45853
-3.40058
-3.34194
-3.28279
-3.22324
-3.1634
-3.10339
-12021.4
-11604.4
-11187.8
-10772
-10357.2
-9943.32
-9530.59
-9118.98
-8708.48
-8299.05
-7890.62
-7483.12
-7076.47
-6670.61
-6265.52
-5861.19
-5457.66
-5055
-4653.33
-4252.81
-3853.65
-3456.14
-3060.64
-2667.67
-2278
-1892.73
-1513.29
-1141.26
-778.404
-429.176
-7.66543
-5.61169
-5.39365
-5.19869
-5.01425
-4.83717
-4.66646
-4.50214
-4.34462
-4.19434
-4.05162
-3.91656
-3.78914
-3.66917
-3.55627
-3.44998
-3.34977
-3.25512
-3.16547
-3.08032
-12021.9
-11605.9
-11190.1
-10774.8
-10360
-9945.71
-9532.03
-9118.86
-8706.12
-8293.71
-7881.54
-7469.52
-7057.61
-6645.79
-6234.08
-5822.59
-5411.47
-5000.91
-4591.19
-4182.61
-3775.5
-3370.23
-2967.18
-2566.85
-2169.93
-1777.27
-1389.09
-1001.93
-599.169
-126.203
-6.5047
-5.49484
-5.70014
-5.70164
-5.57875
-5.38517
-5.15627
-4.91482
-4.67492
-4.44488
-4.22916
-4.02971
-3.84699
-3.6805
-3.52907
-3.39126
-3.26559
-3.15058
-3.04487
-2.94719
-12021.8
-11605.4
-11189.1
-10772.8
-10356.5
-9940.16
-9523.7
-9106.99
-8689.9
-8272.3
-7854.09
-7435.18
-7015.58
-6595.32
-6174.54
-5753.45
-5332.32
-4911.5
-4491.36
-4072.39
-3655
-3239.56
-2826.36
-2415.61
-2007.63
-1603.04
-1203.04
-809.436
-424.164
-4.83166
-3.93147
-3.67642
-3.68914
-3.67503
-3.63926
-3.58692
-3.52255
-3.44994
-3.37217
-3.29159
-3.20998
-3.12868
-3.04854
-2.97013
-2.89377
-2.81961
-2.7477
-2.678
-2.61042
-2.54489
-12021.2
-11603.6
-11185.8
-10767.8
-10349.2
-9930.05
-9509.97
-9088.78
-8666.27
-8242.29
-7816.7
-7389.48
-6960.66
-6530.4
-6098.97
-5666.72
-5234.13
-4801.77
-4370.31
-3940.46
-3512.97
-3088.63
-2668.21
-2252.69
-1843.65
-1443.92
-1058.31
-692.849
-349.735
-8.34935
-5.93001
-5.34874
-4.89461
-4.50814
-4.17909
-3.89839
-3.65818
-3.45171
-3.27321
-3.11784
-2.98153
-2.86088
-2.75307
-2.65577
-2.56707
-2.4854
-2.40951
-2.33838
-2.27122
-2.20739
-12019.8
-11599
-11177.7
-10755.5
-10332
-9906.73
-9479.5
-9049.93
-8617.76
-8182.82
-7745.04
-7304.46
-6861.25
-6415.76
-5968.45
-5519.93
-5070.96
-4622.38
-4175.15
-3730.22
-3288.48
-2850.64
-2417.1
-1988.08
-1564.15
-1147.68
-744.572
-365.097
-4.20256
-3.65387
-3.02391
-2.93752
-2.85242
-2.76874
-2.68773
-2.61022
-2.53665
-2.46714
-2.40154
-2.33953
-2.28066
-2.22442
-2.17032
-2.11789
-2.06675
-2.01659
-1.9672
-1.91846
-1.87033
-1.82284
-12016.7
-11589.7
-11161.6
-10731.5
-10299.1
-9863.55
-9424.54
-8981.66
-8534.65
-8083.38
-7627.89
-7168.41
-6705.31
-6239.19
-5770.79
-5301.06
-4831.04
-4361.93
-3894.96
-3431.39
-2972.38
-2518.9
-2071.67
-1631.31
-1199.06
-778.339
-376.636
-4.01027
-3.80355
-2.87076
-2.68976
-2.5641
-2.44741
-2.34043
-2.24375
-2.15749
-2.0813
-2.01441
-1.95572
-1.90393
-1.85766
-1.81559
-1.77647
-1.73929
-1.70323
-1.6677
-1.63238
-1.59709
-1.56186
-1.52684
-12011.4
-11573.5
-11133.6
-10690.9
-10244.4
-9793.3
-9337.09
-8875.36
-8407.88
-7934.64
-7455.84
-6971.93
-6483.56
-5991.64
-5497.27
-5001.72
-4506.44
-4012.97
-3522.9
-3037.78
-2559.16
-2088.55
-1627.73
-1178.85
-744.24
-328.901
-3.63669
-3.55483
-2.77437
-2.47497
-2.3365
-2.20848
-2.09006
-1.98271
-1.88734
-1.80423
-1.73303
-1.67284
-1.62241
-1.58036
-1.5452
-1.51545
-1.48973
-1.46686
-1.44589
-1.42613
-1.4071
-1.38855
-1.37039
-1.3526
-12003.5
-11549.4
-11092.6
-10631.6
-10165.3
-9692.64
-9213.08
-8726.14
-8231.67
-7729.77
-7220.84
-6705.59
-6185.02
-5660.41
-5133.29
-4605.42
-4078.69
-3555.16
-3036.88
-2525.88
-2024.15
-1533.76
-1056.72
-591.818
-122.109
-1.61916
-1.8023
-1.59768
-1.56291
-1.5868
-1.59335
-1.58476
-1.5659
-1.54086
-1.51277
-1.48397
-1.45632
-1.43101
-1.40869
-1.38944
-1.37308
-1.35927
-1.34758
-1.3376
-1.32892
-1.32119
-1.31418
-1.30767
-1.30162
-1.29595
-11993.2
-11518.4
-11040
-10556.1
-10065.3
-9566.31
-9058.33
-8540.79
-8013.53
-7476.78
-6931.18
-6377.76
-5818
-5253.69
-4686.9
-4119.96
-3555.31
-2995.43
-2442.55
-1898.67
-1365.95
-847.934
-354.957
-3.73364
-0.0973783
-0.234091
-0.355687
-0.505618
-0.641047
-0.758904
-0.859756
-0.944763
-1.01544
-1.0735
-1.12069
-1.15875
-1.18909
-1.21301
-1.23174
-1.24637
-1.25783
-1.26694
-1.27429
-1.28028
-1.28554
-1.2903
-1.29484
-1.29935
-1.30407
-1.30911
-11981.3
-11482.1
-10978.4
-10467.6
-9947.62
-9416.67
-8873.57
-8317.63
-7748.79
-7167.63
-6575.34
-5973.7
-5364.97
-4751.77
-4136.98
-3523.59
-2914.39
-2311.87
-1716.73
-1131
-552.304
-5.96578
-0.125369
-0.354872
-0.428019
-0.560431
-0.66982
-0.758544
-0.829565
-0.888445
-0.939292
-0.984807
-1.02658
-1.06531
-1.10134
-1.13472
-1.16542
-1.19346
-1.21895
-1.24212
-1.26325
-1.28236
-1.29975
-1.31584
-1.331
-1.34535
-1.35883
-1.37162
-1.38397
-1.39568
-11962
-11423.4
-10877.8
-10321.2
-9750.71
-9163.97
-8559.79
-7937.98
-7299.4
-6646.01
-5980.68
-5307.08
-4629.31
-3951.68
-3278.57
-2613.93
-1956.83
-1311.23
-644.948
-7.22666
-0.139873
-0.0132683
-0.16023
-0.315913
-0.4458
-0.567511
-0.672944
-0.763875
-0.842344
-0.910448
-0.97011
-1.02285
-1.06993
-1.11231
-1.15078
-1.18585
-1.21794
-1.24738
-1.2745
-1.29968
-1.32291
-1.34437
-1.3641
-1.38257
-1.3998
-1.41572
-1.43026
-1.44316
-1.45442
-1.46403
-3.75883
-3.71028
-3.66089
-3.61072
-3.55986
-3.5084
-3.45641
-3.40399
-3.35122
-3.29819
-3.24497
-3.19165
-3.13831
-3.08502
-3.03186
-2.97889
-2.92618
-2.87379
-2.82177
-2.77018
-2.71906
-2.66846
-2.61842
-2.56896
-2.52013
-2.47195
-2.42443
-2.37761
-2.33148
-2.28608
-2.2414
-2.19746
-2.15425
-2.11179
-2.07006
-2.02908
-1.98883
-1.94931
-1.91052
-1.87244
-1.83508
-1.79843
-1.76246
-1.72719
-1.69259
-1.65866
-1.6254
-1.59278
-1.56081
-1.52948
-3.73204
-3.67775
-3.62286
-3.56744
-3.51156
-3.45532
-3.39878
-3.34205
-3.28519
-3.2283
-3.17145
-3.11472
-3.05819
-3.00194
-2.94603
-2.89052
-2.83548
-2.78096
-2.72702
-2.67369
-2.62102
-2.56906
-2.51782
-2.46734
-2.41764
-2.36874
-2.32065
-2.2734
-2.22698
-2.1814
-2.13667
-2.09278
-2.04974
-2.00754
-1.96617
-1.92562
-1.8859
-1.84698
-1.80885
-1.77152
-1.73495
-1.69915
-1.6641
-1.62978
-1.59619
-1.56331
-1.53113
-1.49964
-1.46882
-1.43867
-3.73043
-3.66601
-3.60158
-3.5372
-3.47291
-3.40878
-3.34488
-3.28128
-3.21803
-3.1552
-3.09287
-3.03109
-2.96992
-2.90943
-2.84965
-2.79065
-2.73246
-2.67513
-2.61869
-2.56317
-2.5086
-2.455
-2.40238
-2.35077
-2.30016
-2.25057
-2.20199
-2.15443
-2.10788
-2.06234
-2.01779
-1.97422
-1.93163
-1.88999
-1.8493
-1.80954
-1.77068
-1.73271
-1.69562
-1.65939
-1.62399
-1.58941
-1.55564
-1.52264
-1.49042
-1.45894
-1.4282
-1.39818
-1.36887
-1.34025
-3.77022
-3.69104
-3.6129
-3.53581
-3.45978
-3.38482
-3.31094
-3.23818
-3.16656
-3.09609
-3.0268
-2.95871
-2.89186
-2.82624
-2.7619
-2.69883
-2.63705
-2.57657
-2.5174
-2.45953
-2.40298
-2.34772
-2.29376
-2.24109
-2.18968
-2.13953
-2.09063
-2.04293
-1.99644
-1.95112
-1.90695
-1.86391
-1.82196
-1.78109
-1.74126
-1.70245
-1.66463
-1.62778
-1.59186
-1.55686
-1.52274
-1.48948
-1.45707
-1.42546
-1.39465
-1.36462
-1.33533
-1.30678
-1.27894
-1.2518
-3.8348
-3.73596
-3.64013
-3.54714
-3.45685
-3.36912
-3.28385
-3.20092
-3.12025
-3.04176
-2.96539
-2.89106
-2.81873
-2.74834
-2.67985
-2.61322
-2.54841
-2.48537
-2.42408
-2.36449
-2.30657
-2.25027
-2.19557
-2.14241
-2.09076
-2.04059
-1.99184
-1.94449
-1.89848
-1.85378
-1.81036
-1.76816
-1.72714
-1.68728
-1.64854
-1.61086
-1.57423
-1.5386
-1.50393
-1.47021
-1.43739
-1.40544
-1.37433
-1.34405
-1.31455
-1.28583
-1.25784
-1.23058
-1.20402
-1.17815
-3.83911
-3.72458
-3.61527
-3.51076
-3.41065
-3.31459
-3.22225
-3.13338
-3.04772
-2.96506
-2.88524
-2.80808
-2.73346
-2.66126
-2.59137
-2.5237
-2.45817
-2.3947
-2.33321
-2.27365
-2.21595
-2.16005
-2.10588
-2.0534
-2.00254
-1.95325
-1.90548
-1.85917
-1.81426
-1.77072
-1.72848
-1.68751
-1.64775
-1.60915
-1.57168
-1.53529
-1.49993
-1.46557
-1.43218
-1.3997
-1.36811
-1.33738
-1.30747
-1.27835
-1.25
-1.22239
-1.1955
-1.1693
-1.14377
-1.1189
-3.62813
-3.52571
-3.42735
-3.33281
-3.24184
-3.15418
-3.06957
-2.98781
-2.90869
-2.83205
-2.75776
-2.6857
-2.61577
-2.5479
-2.48201
-2.41805
-2.35597
-2.29572
-2.23725
-2.18052
-2.12548
-2.0721
-2.02032
-1.97011
-1.92142
-1.8742
-1.8284
-1.78399
-1.74092
-1.69913
-1.65859
-1.61925
-1.58106
-1.544
-1.50801
-1.47305
-1.43909
-1.40609
-1.37401
-1.34283
-1.3125
-1.28299
-1.25429
-1.22635
-1.19916
-1.17268
-1.1469
-1.12179
-1.09734
-1.07353
-3.20989
-3.14988
-3.08877
-3.02687
-2.96443
-2.90169
-2.83886
-2.77615
-2.71372
-2.65173
-2.59034
-2.52966
-2.4698
-2.41088
-2.35296
-2.29613
-2.24043
-2.18592
-2.13262
-2.08058
-2.02979
-1.98026
-1.93201
-1.88502
-1.83929
-1.79479
-1.7515
-1.70941
-1.66849
-1.62871
-1.59005
-1.55247
-1.51595
-1.48046
-1.44598
-1.41248
-1.37992
-1.34829
-1.31756
-1.28771
-1.25871
-1.23054
-1.20319
-1.17662
-1.15083
-1.12579
-1.10149
-1.07791
-1.05503
-1.03284
-3.04328
-2.98315
-2.92307
-2.86313
-2.80339
-2.74394
-2.68485
-2.62619
-2.56805
-2.5105
-2.4536
-2.39743
-2.34203
-2.28747
-2.23379
-2.18104
-2.12925
-2.07845
-2.02866
-1.9799
-1.93219
-1.88553
-1.83992
-1.79539
-1.75194
-1.70955
-1.66823
-1.62794
-1.58868
-1.55044
-1.51319
-1.47694
-1.44165
-1.40732
-1.37394
-1.34149
-1.30998
-1.27937
-1.24968
-1.22089
-1.19299
-1.16598
-1.13985
-1.1146
-1.09023
-1.06672
-1.04408
-1.02231
-1.00137
-0.981295
-2.99918
-2.92162
-2.84724
-2.77569
-2.70667
-2.63994
-2.57525
-2.51244
-2.45136
-2.39187
-2.33388
-2.2773
-2.22207
-2.16812
-2.11541
-2.06391
-2.01357
-1.96437
-1.91628
-1.86927
-1.82331
-1.77839
-1.73451
-1.69169
-1.6499
-1.60914
-1.56938
-1.5306
-1.49279
-1.45594
-1.42004
-1.38508
-1.35106
-1.31797
-1.28582
-1.25461
-1.22435
-1.19506
-1.16673
-1.13939
-1.11306
-1.08775
-1.06348
-1.04026
-1.01811
-0.997063
-0.97714
-0.958313
-0.940649
-0.924143
-2.85646
-2.7717
-2.69208
-2.61691
-2.54559
-2.47762
-2.4126
-2.35018
-2.29009
-2.23209
-2.17601
-2.12169
-2.06902
-2.01787
-1.96819
-1.91987
-1.87287
-1.82713
-1.78259
-1.73921
-1.69695
-1.65576
-1.61562
-1.57649
-1.53836
-1.50125
-1.46515
-1.43005
-1.39593
-1.36278
-1.33059
-1.29935
-1.26907
-1.23975
-1.2114
-1.18403
-1.15766
-1.13232
-1.10804
-1.08485
-1.06279
-1.04188
-1.02216
-1.00366
-0.986398
-0.970403
-0.955688
-0.942238
-0.930094
-0.919227
-2.48128
-2.41949
-2.35943
-2.30101
-2.24417
-2.18884
-2.13499
-2.08255
-2.03151
-1.98183
-1.9335
-1.88649
-1.84079
-1.79637
-1.75323
-1.71139
-1.67082
-1.63149
-1.59337
-1.55642
-1.52063
-1.48596
-1.45239
-1.4199
-1.38848
-1.35813
-1.32883
-1.30059
-1.27342
-1.24731
-1.22228
-1.19833
-1.17546
-1.15369
-1.13302
-1.11345
-1.09502
-1.07773
-1.06161
-1.0467
-1.03293
-1.02037
-1.00898
-0.998741
-0.989633
-0.981617
-0.974692
-0.9687
-0.963729
-0.959677
-2.14642
-2.08795
-2.0317
-1.97748
-1.92514
-1.87459
-1.82574
-1.77855
-1.73297
-1.68898
-1.64661
-1.60586
-1.56671
-1.52915
-1.49319
-1.4587
-1.42574
-1.39423
-1.36417
-1.33555
-1.30839
-1.2826
-1.25823
-1.23524
-1.21367
-1.1935
-1.17474
-1.15736
-1.14136
-1.12669
-1.11333
-1.10124
-1.09039
-1.08069
-1.07214
-1.06474
-1.05826
-1.05275
-1.04817
-1.04441
-1.0414
-1.03909
-1.03742
-1.03629
-1.0357
-1.03545
-1.03558
-1.03598
-1.03658
-1.03734
-1.77605
-1.73009
-1.68509
-1.64122
-1.5986
-1.55738
-1.51768
-1.47963
-1.44337
-1.4089
-1.37644
-1.34603
-1.3177
-1.29143
-1.26724
-1.24508
-1.22498
-1.20668
-1.19031
-1.17581
-1.16311
-1.15216
-1.14273
-1.13465
-1.12807
-1.12276
-1.11859
-1.11546
-1.11327
-1.11193
-1.11127
-1.11128
-1.1118
-1.11283
-1.11414
-1.11565
-1.11725
-1.11904
-1.12087
-1.12268
-1.12442
-1.12599
-1.12737
-1.12849
-1.12935
-1.12991
-1.13016
-1.13005
-1.12953
-1.12859
-1.4923
-1.45853
-1.42587
-1.39458
-1.36493
-1.33717
-1.31147
-1.28779
-1.26621
-1.24688
-1.22981
-1.21491
-1.20213
-1.19139
-1.18262
-1.17577
-1.17055
-1.16667
-1.16438
-1.16341
-1.16363
-1.16472
-1.1666
-1.16906
-1.17219
-1.17574
-1.17956
-1.18359
-1.18768
-1.1917
-1.19555
-1.19925
-1.20264
-1.20565
-1.20822
-1.21029
-1.2118
-1.21268
-1.21294
-1.21252
-1.21143
-1.20966
-1.20715
-1.20387
-1.19994
-1.19534
-1.19009
-1.18418
-1.17758
-1.1704
-1.3353
-1.31859
-1.30274
-1.28792
-1.2741
-1.26155
-1.25037
-1.24053
-1.23244
-1.22598
-1.22113
-1.21781
-1.21594
-1.21543
-1.21618
-1.21816
-1.22099
-1.22455
-1.22868
-1.2335
-1.23872
-1.24416
-1.24967
-1.2551
-1.26031
-1.26517
-1.26957
-1.2734
-1.27658
-1.27902
-1.28057
-1.28131
-1.28106
-1.27991
-1.27775
-1.27459
-1.27042
-1.26525
-1.25907
-1.25191
-1.24378
-1.2348
-1.22486
-1.21402
-1.20238
-1.19002
-1.17695
-1.1632
-1.14886
-1.13394
-1.29077
-1.28613
-1.28215
-1.27894
-1.27661
-1.2753
-1.27511
-1.27585
-1.27742
-1.27984
-1.28319
-1.28727
-1.29195
-1.29709
-1.30254
-1.30821
-1.31381
-1.31926
-1.32453
-1.32944
-1.33377
-1.33745
-1.34036
-1.34238
-1.34346
-1.34357
-1.3425
-1.34023
-1.33687
-1.33232
-1.32656
-1.3196
-1.31144
-1.3021
-1.2916
-1.27996
-1.26719
-1.25339
-1.23859
-1.22284
-1.20619
-1.1887
-1.17053
-1.15163
-1.13208
-1.11198
-1.09145
-1.07051
-1.04926
-1.02775
-1.31448
-1.32029
-1.32658
-1.33338
-1.34052
-1.34782
-1.35521
-1.36257
-1.3697
-1.37657
-1.38302
-1.38893
-1.39427
-1.39884
-1.40247
-1.4051
-1.40677
-1.40738
-1.4068
-1.40512
-1.40214
-1.39786
-1.39235
-1.38554
-1.37745
-1.36817
-1.35753
-1.34559
-1.3324
-1.31801
-1.30244
-1.28572
-1.26791
-1.24904
-1.22921
-1.20848
-1.18684
-1.16441
-1.14129
-1.11751
-1.09317
-1.06833
-1.04315
-1.01759
-0.991783
-0.965845
-0.939837
-0.91385
-0.887978
-0.862328
-1.40663
-1.4167
-1.42587
-1.43412
-1.44149
-1.44773
-1.45273
-1.45668
-1.45954
-1.46121
-1.46167
-1.4608
-1.45865
-1.45523
-1.45038
-1.44421
-1.43668
-1.42776
-1.41744
-1.4058
-1.39293
-1.37881
-1.36344
-1.34686
-1.32914
-1.3103
-1.29038
-1.26946
-1.24748
-1.22446
-1.20053
-1.17582
-1.15033
-1.12412
-1.09728
-1.0699
-1.04198
-1.01365
-0.985008
-0.9561
-0.92701
-0.897833
-0.868645
-0.839545
-0.810631
-0.781995
-0.753731
-0.725936
-0.698709
-0.672152
-1.47197
-1.47826
-1.48291
-1.486
-1.48761
-1.48759
-1.48596
-1.48277
-1.47828
-1.47238
-1.46507
-1.45624
-1.44608
-1.43456
-1.42168
-1.40743
-1.39183
-1.37498
-1.35693
-1.33766
-1.31725
-1.29572
-1.2731
-1.24947
-1.22476
-1.19911
-1.17253
-1.14514
-1.11698
-1.08807
-1.05851
-1.02838
-0.99783
-0.966906
-0.935678
-0.904265
-0.872703
-0.841111
-0.809596
-0.778243
-0.747143
-0.71639
-0.686077
-0.656295
-0.627133
-0.598678
-0.571014
-0.544226
-0.518398
-0.493614
-1.5057
-1.48924
-1.47287
-1.4566
-1.44043
-1.42436
-1.40839
-1.39252
-1.37675
-1.36109
-1.34552
-1.33006
-1.3147
-1.29945
-1.28429
-1.26925
-1.25431
-1.23947
-1.22474
-1.21011
-1.19559
-1.18118
-1.16688
-1.15268
-1.13859
-1.12461
-1.11073
-1.09697
-1.08331
-1.06977
-1.05634
-1.04301
-1.0298
-1.01671
-1.00372
-0.990853
-0.978098
-0.96546
-0.952938
-0.940534
-0.928249
-0.916082
-0.904037
-0.892112
-0.88031
-0.868632
-0.857077
-0.845647
-0.834344
-0.823167
-0.812118
-0.801198
-0.790407
-0.779747
-0.769218
-0.758821
-0.748556
-0.738425
-0.728427
-0.718564
-0.708836
-0.699244
-0.689788
-0.680469
-0.671287
-0.662243
-0.653336
-0.644568
-0.635939
-0.627448
-0.619096
-0.610883
-0.602809
-0.594874
-0.587077
-0.579419
-0.571898
-0.564516
-0.55727
-0.550161
-0.543188
-0.536351
-0.52965
-0.523083
-0.516649
-0.510349
-0.504182
-0.498148
-0.492246
-0.486475
-0.480837
-0.475332
-0.469958
-0.464718
-0.459612
-0.454639
-0.4498
-0.445095
-0.440526
-0.43609
-0.431787
-0.427616
-0.423576
-0.419666
-0.415884
-0.41223
-0.408701
-0.405295
-0.402009
-0.398838
-0.395779
-0.392827
-0.389976
-0.387223
-0.384563
-0.381992
-0.379506
-0.3771
-0.374772
-0.372516
-0.370331
-0.36821
-0.366151
-0.364147
-0.362195
-0.360288
-0.358421
-0.356588
-0.354783
-0.353002
-0.351238
-0.349486
-0.347742
-0.345999
-0.344255
-0.342504
-0.340744
-0.33897
-0.33718
-0.335371
-0.33354
-0.331687
-0.329807
-0.3279
-0.325962
-0.32399
-0.321982
-0.319935
-0.317852
-0.315731
-0.313573
-0.311376
-0.309138
-0.306854
-0.304534
-0.302174
-0.299777
-0.297339
-0.294863
-0.292351
-0.2898
-0.287213
-0.284592
-0.281938
-0.27925
-0.276531
-0.27378
-0.271
-0.268192
-0.265359
-0.262503
-0.259624
-0.25673
-0.253813
-0.250877
-0.247924
-0.244954
-0.241963
-0.238953
-0.235923
-0.232875
-0.22981
-0.226732
-0.223643
-0.220545
-0.217442
-0.214336
-0.211229
-0.208124
-0.205023
-0.201928
-0.198842
-0.195767
-0.1927
-0.189646
-0.186607
-0.183586
-0.18058
-0.177594
-0.174628
-0.171684
-0.168766
-0.165876
-0.163015
-0.160188
-0.157396
-0.154639
-0.151921
-0.149244
-0.146609
-0.144016
-0.141467
-0.138963
-0.136504
-0.134091
-0.131724
-0.129403
-0.127125
-0.12489
-0.122695
-0.120537
-0.118414
-0.11632
-0.11425
-0.1122
-0.110163
-0.108132
-0.106099
-0.104056
-0.101995
-0.0999071
-0.0977822
-0.0956113
-0.093385
-0.0910949
-0.088733
-0.0862925
-0.0837672
-0.0811525
-0.0784448
-0.0756427
-0.0727467
-0.0697598
-0.0666875
-0.0635378
-0.060321
-0.05705
-0.0537396
-0.0504062
-0.0470681
-0.0437446
-0.0404558
-0.0372221
-0.0340638
-0.0310005
-0.0280505
-0.0252306
-0.0225554
-0.0200371
-0.0176852
-0.0155064
-0.0135046
-0.0116806
-0.0100328
-0.00855682
-0.00724624
-0.00609267
-0.00508622
-0.00421589
-0.00346991
-0.00283617
-0.00230251
-0.00185704
-0.00148838
-0.00118585
-0.000939621
-0.000740802
-0.000581474
-0.000454701
-0.000354494
-0.000275758
-0.000214217
-0.000166327
-0.000129191
-0.000100466
-7.82786e-05
-6.11461e-05
-4.79063e-05
-3.76555e-05
-2.96953e-05
-2.3489e-05
-1.86251e-05
-1.47879e-05
-1.17339e-05
-9.27248e-06
-7.24971e-06
-5.53462e-06
-4.00481e-06
-2.53023e-06
-9.50917e-07
-1.41579
-1.39996
-1.38425
-1.36864
-1.35314
-1.33775
-1.32247
-1.30731
-1.29226
-1.27732
-1.26249
-1.24778
-1.23318
-1.21869
-1.20432
-1.19006
-1.17592
-1.16189
-1.14797
-1.13417
-1.12049
-1.10691
-1.09346
-1.08012
-1.06689
-1.05378
-1.04078
-1.0279
-1.01513
-1.00248
-0.989952
-0.977535
-0.965236
-0.953054
-0.94099
-0.929045
-0.917218
-0.905511
-0.893924
-0.882457
-0.871112
-0.859888
-0.848787
-0.837809
-0.826955
-0.816226
-0.805622
-0.795144
-0.784792
-0.774568
-0.764473
-0.754506
-0.744669
-0.734962
-0.725387
-0.715943
-0.706633
-0.697456
-0.688413
-0.679504
-0.670732
-0.662095
-0.653595
-0.645234
-0.637011
-0.628928
-0.620986
-0.613184
-0.605523
-0.598003
-0.590625
-0.583388
-0.576293
-0.569339
-0.562526
-0.555854
-0.549322
-0.542931
-0.536679
-0.530567
-0.524596
-0.518764
-0.513073
-0.507523
-0.502113
-0.496846
-0.49172
-0.486738
-0.4819
-0.477207
-0.472661
-0.468264
-0.464019
-0.459929
-0.455993
-0.452203
-0.448572
-0.445095
-0.44177
-0.438592
-0.435558
-0.432667
-0.429913
-0.427292
-0.424808
-0.422457
-0.420207
-0.418087
-0.416075
-0.414161
-0.412336
-0.410592
-0.408923
-0.407318
-0.405779
-0.404285
-0.402847
-0.401453
-0.400096
-0.398772
-0.397476
-0.396205
-0.394951
-0.393709
-0.39247
-0.391227
-0.389973
-0.388701
-0.387405
-0.386081
-0.384722
-0.383322
-0.381878
-0.380386
-0.378842
-0.377243
-0.375587
-0.373872
-0.372098
-0.370264
-0.368369
-0.366415
-0.3644
-0.362325
-0.360185
-0.357976
-0.355698
-0.353356
-0.350958
-0.3485
-0.345984
-0.343412
-0.340791
-0.338106
-0.335375
-0.332588
-0.329755
-0.326862
-0.323922
-0.320937
-0.317902
-0.314823
-0.311704
-0.308548
-0.305354
-0.302121
-0.298852
-0.295553
-0.292223
-0.288867
-0.285487
-0.282084
-0.278661
-0.275225
-0.271778
-0.268307
-0.264816
-0.261304
-0.25778
-0.254241
-0.250692
-0.247133
-0.243565
-0.239992
-0.236416
-0.232839
-0.229263
-0.225691
-0.222124
-0.218565
-0.215016
-0.211477
-0.207952
-0.204444
-0.200956
-0.19748
-0.194023
-0.190582
-0.187166
-0.183774
-0.180411
-0.177078
-0.173778
-0.170513
-0.167287
-0.164104
-0.160968
-0.157878
-0.154839
-0.151852
-0.148922
-0.146054
-0.14325
-0.140514
-0.137847
-0.135255
-0.132738
-0.130299
-0.12794
-0.12566
-0.123459
-0.121338
-0.119297
-0.117334
-0.115446
-0.11363
-0.111882
-0.110195
-0.108562
-0.106971
-0.105413
-0.103876
-0.102347
-0.100811
-0.0992541
-0.09766
-0.0960125
-0.094295
-0.0924916
-0.0905867
-0.0885656
-0.0864154
-0.0841251
-0.0816863
-0.0790938
-0.0763459
-0.0734447
-0.0703962
-0.0672102
-0.0638998
-0.0604821
-0.0569772
-0.0534086
-0.0498021
-0.0461855
-0.0425876
-0.0390376
-0.035564
-0.0321941
-0.0289532
-0.0258636
-0.0229445
-0.0202113
-0.0176757
-0.015345
-0.0132225
-0.0113079
-0.00959704
-0.00808278
-0.00675528
-0.00560264
-0.00461137
-0.00376699
-0.00305455
-0.00245906
-0.00196594
-0.00156131
-0.00123224
-0.000966919
-0.000754775
-0.000586483
-0.000453963
-0.000350321
-0.000269758
-0.000207467
-0.000159516
-0.00012273
-9.45731e-05
-7.30455e-05
-5.65837e-05
-4.39767e-05
-3.42934e-05
-2.68204e-05
-2.10119e-05
-1.64468e-05
-1.27924e-05
-9.7721e-06
-7.1307e-06
-4.59226e-06
-1.79662e-06
-1.31853
-1.30353
-1.28865
-1.27389
-1.25925
-1.24473
-1.23034
-1.21606
-1.20191
-1.18787
-1.17396
-1.16017
-1.14651
-1.13296
-1.11954
-1.10624
-1.09306
-1.08
-1.06706
-1.05424
-1.04154
-1.02896
-1.01651
-1.00417
-0.991954
-0.979857
-0.967881
-0.956024
-0.944286
-0.932669
-0.921172
-0.909794
-0.898536
-0.887398
-0.876381
-0.865484
-0.854707
-0.844051
-0.833516
-0.823103
-0.812811
-0.802642
-0.792594
-0.78267
-0.772869
-0.763191
-0.753638
-0.74421
-0.734908
-0.725731
-0.716682
-0.707762
-0.698971
-0.690311
-0.681783
-0.673389
-0.66513
-0.657009
-0.649026
-0.641183
-0.633482
-0.625926
-0.618515
-0.611254
-0.604143
-0.597184
-0.590378
-0.583727
-0.577232
-0.570894
-0.564712
-0.558688
-0.552823
-0.547116
-0.541574
-0.536183
-0.530959
-0.525898
-0.520998
-0.516263
-0.511694
-0.507292
-0.503058
-0.499
-0.495099
-0.491381
-0.487834
-0.484459
-0.48126
-0.478233
-0.47538
-0.472719
-0.470248
-0.467902
-0.465729
-0.463739
-0.46191
-0.460231
-0.458694
-0.45729
-0.456011
-0.454848
-0.453791
-0.452846
-0.451992
-0.451197
-0.450468
-0.449823
-0.449225
-0.448663
-0.448129
-0.447619
-0.44711
-0.446612
-0.446122
-0.445618
-0.445075
-0.444523
-0.443938
-0.44331
-0.442609
-0.441869
-0.441061
-0.440181
-0.439224
-0.438183
-0.437053
-0.43583
-0.434512
-0.433097
-0.431584
-0.429969
-0.428253
-0.426434
-0.424512
-0.422491
-0.420362
-0.418128
-0.415796
-0.413377
-0.410863
-0.408268
-0.405583
-0.402825
-0.399972
-0.397048
-0.394056
-0.390976
-0.387828
-0.384606
-0.381313
-0.377953
-0.374528
-0.371047
-0.367509
-0.363919
-0.360278
-0.356581
-0.352834
-0.349046
-0.345215
-0.341346
-0.337442
-0.333506
-0.329545
-0.325557
-0.321541
-0.3175
-0.313442
-0.30937
-0.305284
-0.301189
-0.297085
-0.292976
-0.288862
-0.284747
-0.280641
-0.276531
-0.272415
-0.268298
-0.264181
-0.260073
-0.255974
-0.251886
-0.247809
-0.243744
-0.239693
-0.235656
-0.231635
-0.227633
-0.223647
-0.219681
-0.215734
-0.211808
-0.207904
-0.204023
-0.200171
-0.196342
-0.192537
-0.188757
-0.185006
-0.181287
-0.177601
-0.173951
-0.17034
-0.166768
-0.163238
-0.159754
-0.156322
-0.152944
-0.149622
-0.146363
-0.143168
-0.140046
-0.137002
-0.134042
-0.131171
-0.128393
-0.125714
-0.123139
-0.120676
-0.118324
-0.116094
-0.113986
-0.112004
-0.110153
-0.108436
-0.106854
-0.105404
-0.104084
-0.102885
-0.101799
-0.100814
-0.0999192
-0.0991007
-0.0983412
-0.0976218
-0.0969194
-0.0962082
-0.0954625
-0.0946552
-0.0937574
-0.0927405
-0.0915769
-0.0902405
-0.0887075
-0.0869579
-0.0849759
-0.0827511
-0.0802782
-0.0775578
-0.0745966
-0.0714074
-0.0680093
-0.0644273
-0.0606916
-0.0568368
-0.0529011
-0.048925
-0.0449498
-0.0410168
-0.037166
-0.0334347
-0.0298565
-0.0264607
-0.0232714
-0.020307
-0.0175803
-0.0150982
-0.012862
-0.0108684
-0.00910931
-0.00757313
-0.00624536
-0.0051094
-0.00414734
-0.00334068
-0.00267098
-0.00212034
-0.00167187
-0.00130995
-0.00102045
-0.00079084
-0.000610171
-0.000469062
-0.000359593
-0.000275176
-0.000210408
-0.00016092
-0.000123218
-9.45457e-05
-7.27452e-05
-5.61445e-05
-4.34534e-05
-3.36748e-05
-2.60255e-05
-1.98608e-05
-1.4591e-05
-9.56743e-06
-3.89517e-06
-1.23123
-1.21703
-1.20295
-1.18899
-1.17517
-1.16146
-1.14789
-1.13444
-1.12111
-1.10791
-1.09484
-1.08189
-1.06907
-1.05638
-1.04381
-1.03137
-1.01905
-1.00686
-0.99479
-0.982847
-0.97103
-0.959338
-0.94777
-0.936328
-0.92501
-0.913817
-0.902749
-0.891807
-0.880989
-0.870296
-0.859729
-0.849287
-0.838971
-0.82878
-0.818716
-0.808778
-0.798967
-0.789282
-0.779726
-0.770297
-0.760996
-0.751823
-0.742778
-0.733863
-0.725076
-0.716419
-0.707893
-0.699497
-0.691232
-0.683101
-0.675104
-0.667243
-0.659521
-0.651941
-0.644505
-0.637217
-0.630079
-0.623097
-0.616276
-0.609629
-0.603137
-0.596826
-0.590698
-0.584752
-0.578992
-0.573424
-0.568048
-0.562868
-0.557886
-0.553106
-0.548527
-0.544156
-0.53999
-0.536029
-0.532286
-0.528755
-0.525439
-0.522346
-0.51945
-0.516768
-0.514303
-0.512047
-0.510008
-0.50817
-0.506498
-0.505045
-0.503774
-0.502679
-0.501749
-0.500993
-0.500414
-0.499951
-0.499611
-0.499348
-0.499233
-0.49923
-0.499313
-0.499469
-0.499685
-0.499951
-0.500252
-0.500578
-0.500927
-0.501289
-0.501615
-0.501916
-0.502175
-0.502431
-0.502639
-0.50279
-0.502878
-0.50289
-0.502818
-0.502665
-0.502433
-0.502088
-0.501619
-0.501039
-0.500347
-0.499539
-0.498578
-0.497498
-0.496272
-0.494906
-0.493379
-0.491712
-0.489898
-0.487905
-0.485777
-0.483503
-0.481089
-0.478533
-0.475848
-0.473022
-0.470071
-0.467008
-0.463819
-0.460517
-0.457111
-0.453598
-0.449979
-0.446263
-0.442455
-0.438557
-0.434575
-0.430511
-0.426382
-0.422161
-0.417879
-0.413542
-0.409137
-0.404669
-0.40015
-0.395587
-0.390981
-0.386336
-0.381657
-0.376951
-0.372211
-0.367442
-0.362655
-0.357853
-0.353039
-0.348215
-0.343384
-0.338551
-0.333719
-0.328893
-0.324071
-0.319254
-0.314454
-0.30967
-0.304903
-0.300154
-0.295426
-0.290719
-0.286036
-0.281378
-0.276748
-0.272156
-0.267589
-0.263054
-0.258544
-0.254071
-0.249633
-0.245228
-0.240856
-0.23652
-0.232217
-0.227948
-0.223711
-0.219509
-0.215334
-0.21119
-0.207077
-0.202993
-0.198937
-0.194911
-0.190913
-0.18695
-0.183018
-0.179116
-0.175243
-0.171401
-0.16759
-0.163812
-0.160067
-0.156355
-0.152679
-0.14904
-0.145442
-0.141893
-0.138395
-0.134951
-0.131568
-0.128253