/*--------------------------------*- C++ -*----------------------------------*\
| =========                 |                                                 |
| \\      /  F ield         | OpenFOAM: The Open Source CFD Toolbox           |
|  \\    /   O peration     | Version:  2.4.0                                 |
|   \\  /    A nd           | Web:      www.OpenFOAM.org                      |
|    \\/     M anipulation  |                                                 |
\*---------------------------------------------------------------------------*/
FoamFile
{
    version     2.0;
    format      ascii;
    class       volScalarField;
    location    "3";
    object      p;
}
// * * * * * * * * * * * * * * * * * * * * * * * * * * * * * * * * * * * * * //

dimensions      [1 -1 -2 0 0 0 0];

internalField   nonuniform List<scalar> 
8000
(
0.064724
0.0633112
0.062017
0.0609883
0.0601454
0.0594306
0.0588233
0.0583141
0.0578949
0.0575576
0.057296
0.0571045
0.0569801
0.0569201
0.0569241
0.0569919
0.0571262
0.0573292
0.0576065
0.0579634
0.058414
0.0589744
0.0596458
0.0603272
0.0611759
0.0617985
0.0655419
0.0776525
0.0895917
0.0272276
-0.238928
-0.526173
-0.0111383
-0.0107025
-0.0107873
-0.0108177
-0.0108194
-0.0108167
-0.0108157
-0.0108157
-0.0108158
-0.0108157
-0.0108156
-0.0108154
-0.0108151
-0.0108149
-0.0108145
-0.0108142
-0.0108138
-0.0108134
0.0145152
0.0132262
0.0118099
0.0105728
0.00952874
0.00864205
0.00789558
0.00728413
0.00680583
0.00645816
0.0062397
0.00614864
0.00618509
0.00634829
0.00663989
0.00706004
0.00761233
0.00829762
0.00912116
0.0100852
0.0112023
0.0124826
0.0139206
0.0154009
0.017049
0.0185776
0.0235
0.0367291
0.0477238
-0.0212133
-0.29042
-0.532255
-0.0330569
-0.0326143
-0.0327018
-0.0327333
-0.0327354
-0.032733
-0.0327326
-0.0327334
-0.0327343
-0.0327352
-0.0327361
-0.0327371
-0.0327381
-0.0327392
-0.0327403
-0.0327416
-0.0327428
-0.0327442
0.00731969
0.0067471
0.00613355
0.00555165
0.00498936
0.00443295
0.00387923
0.00332781
0.0027791
0.00223229
0.00168747
0.00114358
0.000601057
5.86316e-05
-0.000482868
-0.00102497
-0.00156604
-0.00210812
-0.00264901
-0.00319071
-0.00372507
-0.00424896
-0.00477467
-0.00541976
-0.00607291
-0.00694938
-0.00468997
0.00490335
0.0104614
-0.0627084
-0.316265
-0.517962
-0.0547664
-0.054321
-0.05441
-0.0544419
-0.0544441
-0.0544418
-0.0544415
-0.0544424
-0.0544435
-0.0544445
-0.0544456
-0.0544467
-0.0544479
-0.0544491
-0.0544504
-0.0544518
-0.0544533
-0.0544548
-0.0226558
-0.0229982
-0.0233836
-0.0237576
-0.0241209
-0.0244803
-0.0248366
-0.0251898
-0.0255384
-0.0258827
-0.0262212
-0.0265547
-0.0268815
-0.0272031
-0.027517
-0.0278256
-0.0281255
-0.0284203
-0.0287053
-0.028985
-0.0292478
-0.0294957
-0.0297416
-0.0301128
-0.0304951
-0.0309165
-0.0279256
-0.017744
-0.0160698
-0.09856
-0.347911
-0.475543
-0.0766
-0.0761547
-0.0762442
-0.0762766
-0.076279
-0.076277
-0.076277
-0.0762782
-0.0762797
-0.0762812
-0.0762829
-0.0762846
-0.0762865
-0.0762885
-0.0762906
-0.0762929
-0.0762953
-0.0762979
-0.051563
-0.0512072
-0.0508931
-0.0507132
-0.0506633
-0.0507295
-0.0509056
-0.05119
-0.051582
-0.0520814
-0.052688
-0.0534025
-0.0542261
-0.0551606
-0.0562084
-0.0573727
-0.0586566
-0.0600651
-0.0616024
-0.0632745
-0.0650811
-0.0670287
-0.0691504
-0.0715756
-0.074181
-0.0767835
-0.0760161
-0.0695508
-0.0769005
-0.173321
-0.405703
-0.412661
-0.0983334
-0.0978914
-0.0979822
-0.0980146
-0.0980169
-0.098015
-0.0980151
-0.0980165
-0.0980182
-0.09802
-0.0980219
-0.098024
-0.0980263
-0.0980287
-0.0980313
-0.0980341
-0.098037
-0.0980401
-0.0601141
-0.0599683
-0.0598993
-0.0599434
-0.0600887
-0.0603281
-0.0606567
-0.061076
-0.0615833
-0.0621814
-0.0628677
-0.0636465
-0.0645155
-0.065481
-0.0665405
-0.0677026
-0.0689641
-0.0703369
-0.0718165
-0.0734167
-0.0751251
-0.0769612
-0.0789607
-0.0812931
-0.0837725
-0.0857549
-0.0832959
-0.0758452
-0.0926994
-0.223304
-0.471364
-0.321161
-0.120046
-0.119648
-0.119733
-0.119764
-0.119767
-0.119765
-0.119766
-0.119768
-0.11977
-0.119773
-0.119775
-0.119778
-0.119781
-0.119785
-0.119788
-0.119792
-0.119796
-0.1198
-0.0296918
-0.0311622
-0.0326966
-0.0340236
-0.0351594
-0.0361426
-0.0369884
-0.0376973
-0.0382703
-0.0387061
-0.0390053
-0.0391654
-0.039185
-0.0390601
-0.0387867
-0.0383595
-0.0377719
-0.0370186
-0.0360891
-0.0349687
-0.0336226
-0.0320473
-0.0304219
-0.0292678
-0.0282526
-0.0227418
0.00103539
0.0389766
-0.0373814
-0.570584
-1.42813
-0.209988
-0.141684
-0.141367
-0.141445
-0.141477
-0.141481
-0.14148
-0.14148
-0.141482
-0.141485
-0.141487
-0.14149
-0.141493
-0.141497
-0.141501
-0.141505
-0.141509
-0.141513
-0.141518
-0.0328478
-0.034406
-0.0359918
-0.0373581
-0.0385383
-0.0395765
-0.0404873
-0.0412724
-0.0419329
-0.0424688
-0.0428809
-0.0431674
-0.0433273
-0.0433561
-0.0432512
-0.0430049
-0.0426135
-0.0420663
-0.0413582
-0.0404676
-0.0393749
-0.038067
-0.0366876
-0.0355651
-0.0343226
-0.0294781
-0.0118336
0.0124191
-0.0523493
-0.431423
-0.984155
-0.171406
-0.16327
-0.163031
-0.163095
-0.163123
-0.163127
-0.163127
-0.163128
-0.163131
-0.163134
-0.163137
-0.163141
-0.163145
-0.163149
-0.163154
-0.163159
-0.163164
-0.16317
-0.163176
-0.111925
-0.111154
-0.110492
-0.110079
-0.109892
-0.109903
-0.110106
-0.110501
-0.11109
-0.111874
-0.112858
-0.114043
-0.115437
-0.117042
-0.11887
-0.120923
-0.12322
-0.12576
-0.128567
-0.131636
-0.134991
-0.138638
-0.142741
-0.14752
-0.152614
-0.155122
-0.14913
-0.144089
-0.217933
-0.51376
-0.81873
-0.186062
-0.184798
-0.184752
-0.184791
-0.184805
-0.184806
-0.184806
-0.184807
-0.184809
-0.184811
-0.184814
-0.184818
-0.184822
-0.184826
-0.184831
-0.184836
-0.184842
-0.184848
-0.184855
-0.10663
-0.104719
-0.102786
-0.101244
-0.100089
-0.0992636
-0.0987515
-0.0985475
-0.0986556
-0.0990728
-0.0998047
-0.100849
-0.102214
-0.103899
-0.105918
-0.108268
-0.11097
-0.114021
-0.117448
-0.121243
-0.125439
-0.13004
-0.135182
-0.140974
-0.14716
-0.151712
-0.151534
-0.153659
-0.20805
-0.390522
-0.635477
-0.206662
-0.206132
-0.206214
-0.206245
-0.206248
-0.206247
-0.206248
-0.20625
-0.206253
-0.206257
-0.20626
-0.206264
-0.206269
-0.206274
-0.206279
-0.206285
-0.206291
-0.206298
-0.206305
-0.0644353
-0.0645996
-0.0647892
-0.0648788
-0.0648432
-0.0646901
-0.0644265
-0.0640542
-0.0635719
-0.0629776
-0.0622664
-0.0614339
-0.0604715
-0.0593718
-0.0581218
-0.0567121
-0.0551254
-0.0533494
-0.0513491
-0.0490814
-0.0465161
-0.0438942
-0.0419009
-0.0404092
-0.0327015
-0.000210495
0.0534639
-0.0435462
-0.767739
-1.98409
-0.42802
-0.228307
-0.227783
-0.227888
-0.227926
-0.227922
-0.227912
-0.227906
-0.227902
-0.2279
-0.227899
-0.2279
-0.227901
-0.227903
-0.227907
-0.227912
-0.227917
-0.227924
-0.227932
-0.22794
0.036694
0.0369702
0.0375506
0.0381781
0.0387574
0.039279
0.0397494
0.040167
0.0405312
0.0408375
0.0410876
0.0412782
0.0414145
0.0414932
0.0415231
0.0415
0.0414371
0.0413287
0.0412
0.0410534
0.0409066
0.0406091
0.0398962
0.0390137
0.0414164
0.0546209
0.0715913
0.00612967
-0.32851
-0.900864
-0.257106
-0.249197
-0.248959
-0.249025
-0.249052
-0.249055
-0.249055
-0.249057
-0.249061
-0.249066
-0.249072
-0.249078
-0.249086
-0.249094
-0.249103
-0.249113
-0.249123
-0.249134
-0.249146
-0.249159
-0.105164
-0.101328
-0.0977874
-0.0949973
-0.0927983
-0.0910874
-0.089843
-0.089078
-0.0887934
-0.0889987
-0.0896907
-0.0908803
-0.0925642
-0.0947564
-0.0974529
-0.100672
-0.104407
-0.10868
-0.113475
-0.118816
-0.124746
-0.131475
-0.139044
-0.146145
-0.14833
-0.144467
-0.169067
-0.334065
-0.658068
-0.603682
-0.271208
-0.270276
-0.270282
-0.270318
-0.270335
-0.27034
-0.270347
-0.270356
-0.270366
-0.270378
-0.27039
-0.270404
-0.27042
-0.270437
-0.270455
-0.270474
-0.270495
-0.270517
-0.270541
-0.270566
0.199434
0.203016
0.207261
0.211153
0.214545
0.217515
0.220095
0.222297
0.224106
0.225523
0.226534
0.22714
0.227321
0.227081
0.226389
0.22525
0.223628
0.221536
0.218938
0.215824
0.211966
0.207091
0.201679
0.199842
0.208543
0.213797
0.114656
-0.260416
-0.75676
-0.310674
-0.291295
-0.291071
-0.291143
-0.291183
-0.291206
-0.29122
-0.291236
-0.291253
-0.29127
-0.291288
-0.291306
-0.291325
-0.291345
-0.291364
-0.291385
-0.291406
-0.291427
-0.291449
-0.29147
-0.291491
0.140443
0.147398
0.154203
0.159866
0.164585
0.168546
0.171796
0.174323
0.176128
0.177202
0.17755
0.177163
0.176045
0.174182
0.171577
0.168213
0.164106
0.159248
0.153627
0.146957
0.138893
0.1304
0.125816
0.136395
0.144879
0.0176085
-0.493378
-1.04749
-0.372019
-0.312222
-0.31185
-0.311884
-0.311921
-0.311951
-0.31198
-0.311998
-0.312015
-0.312031
-0.312047
-0.312062
-0.312076
-0.31209
-0.312104
-0.312118
-0.312132
-0.312146
-0.31216
-0.312173
-0.312188
-0.312201
0.61783
0.622566
0.628265
0.634081
0.639976
0.646039
0.652318
0.658811
0.665539
0.672487
0.67969
0.687123
0.694837
0.702789
0.71106
0.719597
0.728518
0.73766
0.746684
0.755201
0.766274
0.790097
0.831883
0.82584
0.527817
-0.363133
-0.724566
-0.361433
-0.331112
-0.333178
-0.333283
-0.333311
-0.333322
-0.333352
-0.333386
-0.333412
-0.333439
-0.333466
-0.333495
-0.333524
-0.333554
-0.333585
-0.333618
-0.333646
-0.33368
-0.333714
-0.333747
-0.33379
-0.333703
-0.333897
0.863307
0.867198
0.871696
0.875915
0.879799
0.883371
0.886673
0.889639
0.892291
0.894537
0.896415
0.897811
0.898782
0.899192
0.899154
0.898479
0.897018
0.893772
0.888361
0.888842
0.913261
0.970812
0.899279
0.165357
-1.61163
-0.833617
-0.350742
-0.352977
-0.355395
-0.354806
-0.35473
-0.354774
-0.354801
-0.354817
-0.354834
-0.354851
-0.354868
-0.354887
-0.354906
-0.354929
-0.354951
-0.354963
-0.354982
-0.355008
-0.355029
-0.355049
-0.355087
-0.355146
-0.354882
-0.354995
0.925182
0.927778
0.93032
0.933335
0.937149
0.941743
0.947082
0.953055
0.959704
0.966892
0.974738
0.983056
0.992089
1.00154
1.01165
1.02138
1.03141
1.04511
1.08026
1.13117
1.10292
0.671753
-0.650652
-1.76181
-1.09644
-0.690457
-0.401774
-0.375878
-0.375101
-0.375475
-0.375626
-0.37563
-0.375611
-0.375602
-0.375598
-0.37559
-0.37558
-0.375568
-0.375547
-0.375528
-0.375513
-0.375471
-0.374717
-0.376061
-0.376039
-0.376027
-0.375999
-0.375973
-0.375945
-0.37588
1.70752
1.72073
1.73851
1.75786
1.77822
1.79992
1.82301
1.84775
1.87395
1.90193
1.93147
1.96286
1.99574
2.02973
2.06447
2.10359
2.16124
2.25339
2.3459
2.12381
0.811937
-2.22014
-2.42006
-1.42882
-0.476312
-0.38938
-0.395699
-0.396742
-0.396685
-0.396685
-0.396665
-0.396647
-0.395955
-0.396492
-0.396446
-0.396432
-0.396395
-0.396341
-0.396287
-0.396228
-0.396051
-0.395116
-0.397463
-0.397371
-0.397412
-0.397245
-0.398149
-0.3981
-0.398041
-0.398048
0.502831
0.54267
0.581899
0.615212
0.64368
0.668441
0.689878
0.707714
0.722364
0.73328
0.740616
0.744036
0.743715
0.73943
0.738629
0.757237
0.834281
0.805525
-0.618226
-4.5696
-7.32464
-2.60504
-0.457604
-0.365418
-0.419793
-0.417598
-0.417845
-0.417994
-0.418017
-0.418051
-0.418103
-0.417922
-0.418212
-0.418261
-0.418303
-0.418381
-0.418457
-0.41854
-0.418654
-0.418735
-0.41687
-0.417017
-0.417253
-0.41737
-0.417472
-0.41759
-0.416924
-0.417633
-0.417699
-0.417819
-0.010813
-0.0108125
-0.010812
-0.0108116
-0.0108111
-0.0108106
-0.0108101
-0.0108096
-0.0108091
-0.0108086
-0.0108082
-0.0108077
-0.0108073
-0.0108068
-0.0108064
-0.010806
-0.0108056
-0.0108052
-0.0108049
-0.0108046
-0.0108043
-0.010804
-0.0108038
-0.0108036
-0.0108035
-0.0108034
-0.0108033
-0.0108032
-0.0108032
-0.0108032
-0.0108033
-0.0108033
-0.0108034
-0.0108036
-0.0108037
-0.0108039
-0.0108041
-0.0108044
-0.0108046
-0.0108049
-0.0108052
-0.0108055
-0.0108059
-0.0108062
-0.0108066
-0.0108069
-0.0108073
-0.0108078
-0.0108082
-0.0108082
-0.0327456
-0.032747
-0.0327486
-0.0327502
-0.0327518
-0.0327536
-0.0327554
-0.0327573
-0.0327593
-0.0327613
-0.0327634
-0.0327656
-0.0327679
-0.0327702
-0.0327726
-0.032775
-0.0327775
-0.0327801
-0.0327828
-0.0327856
-0.0327885
-0.0327915
-0.0327946
-0.0327977
-0.032801
-0.0328043
-0.0328077
-0.0328112
-0.0328148
-0.0328185
-0.0328222
-0.0328261
-0.0328301
-0.0328341
-0.0328383
-0.0328426
-0.032847
-0.0328514
-0.032856
-0.0328607
-0.0328655
-0.0328704
-0.0328754
-0.0328805
-0.0328858
-0.0328912
-0.0328967
-0.0329023
-0.032908
-0.0329142
-0.0544564
-0.0544581
-0.0544598
-0.0544616
-0.0544635
-0.0544655
-0.0544676
-0.0544697
-0.054472
-0.0544743
-0.0544767
-0.0544792
-0.0544817
-0.0544844
-0.0544871
-0.0544898
-0.0544927
-0.0544956
-0.0544987
-0.0545019
-0.0545052
-0.0545086
-0.0545121
-0.0545158
-0.0545195
-0.0545233
-0.0545272
-0.0545312
-0.0545352
-0.0545394
-0.0545437
-0.0545481
-0.0545526
-0.0545572
-0.0545619
-0.0545667
-0.0545716
-0.0545765
-0.0545816
-0.0545867
-0.054592
-0.0545973
-0.0546028
-0.0546083
-0.0546139
-0.0546196
-0.0546254
-0.0546313
-0.0546372
-0.0546428
-0.0763005
-0.0763033
-0.0763063
-0.0763094
-0.0763126
-0.076316
-0.0763196
-0.0763233
-0.0763271
-0.0763311
-0.0763352
-0.0763395
-0.0763439
-0.0763485
-0.0763531
-0.0763579
-0.0763629
-0.0763681
-0.0763734
-0.076379
-0.0763848
-0.0763908
-0.076397
-0.0764034
-0.07641
-0.0764167
-0.0764237
-0.0764308
-0.0764381
-0.0764456
-0.0764533
-0.0764613
-0.0764694
-0.0764778
-0.0764864
-0.0764953
-0.0765043
-0.0765136
-0.0765231
-0.0765328
-0.0765428
-0.076553
-0.0765635
-0.0765742
-0.0765852
-0.0765965
-0.076608
-0.0766196
-0.0766315
-0.0766439
-0.0980433
-0.0980466
-0.0980502
-0.0980538
-0.0980577
-0.0980616
-0.0980658
-0.09807
-0.0980745
-0.098079
-0.0980837
-0.0980886
-0.0980935
-0.0980985
-0.0981036
-0.0981089
-0.0981142
-0.0981197
-0.0981255
-0.0981314
-0.0981375
-0.0981439
-0.0981504
-0.098157
-0.0981637
-0.0981705
-0.0981774
-0.0981845
-0.0981916
-0.0981989
-0.0982064
-0.098214
-0.0982218
-0.0982297
-0.0982377
-0.0982458
-0.0982541
-0.0982624
-0.0982708
-0.0982793
-0.0982879
-0.0982967
-0.0983055
-0.0983145
-0.0983236
-0.0983327
-0.0983419
-0.0983511
-0.0983603
-0.0983692
-0.119804
-0.119809
-0.119814
-0.119819
-0.119824
-0.119829
-0.119835
-0.119841
-0.119847
-0.119853
-0.11986
-0.119867
-0.119874
-0.119881
-0.119888
-0.119896
-0.119903
-0.119911
-0.11992
-0.119929
-0.119938
-0.119947
-0.119957
-0.119967
-0.119977
-0.119988
-0.119999
-0.12001
-0.120021
-0.120033
-0.120045
-0.120057
-0.12007
-0.120083
-0.120097
-0.120111
-0.120125
-0.120139
-0.120154
-0.120169
-0.120184
-0.1202
-0.120216
-0.120233
-0.12025
-0.120267
-0.120284
-0.120301
-0.120318
-0.120336
-0.141523
-0.141528
-0.141533
-0.141539
-0.141545
-0.141551
-0.141557
-0.141564
-0.14157
-0.141577
-0.141584
-0.141591
-0.141598
-0.141605
-0.141613
-0.14162
-0.141627
-0.141635
-0.141643
-0.141651
-0.141659
-0.141668
-0.141677
-0.141685
-0.141694
-0.141703
-0.141712
-0.141721
-0.141729
-0.141738
-0.141747
-0.141756
-0.141765
-0.141774
-0.141782
-0.141791
-0.1418
-0.141808
-0.141816
-0.141824
-0.141832
-0.14184
-0.141847
-0.141854
-0.141861
-0.141868
-0.141874
-0.14188
-0.141886
-0.141891
-0.163182
-0.163188
-0.163195
-0.163202
-0.16321
-0.163217
-0.163225
-0.163234
-0.163243
-0.163252
-0.163261
-0.163271
-0.163281
-0.163291
-0.163302
-0.163313
-0.163324
-0.163335
-0.163347
-0.163359
-0.163372
-0.163386
-0.163401
-0.163416
-0.163431
-0.163447
-0.163463
-0.16348
-0.163498
-0.163516
-0.163535
-0.163554
-0.163575
-0.163596
-0.163618
-0.163642
-0.163666
-0.163691
-0.163716
-0.163743
-0.163771
-0.1638
-0.163831
-0.163862
-0.163895
-0.163928
-0.163963
-0.164
-0.16404
-0.164081
-0.184862
-0.18487
-0.184878
-0.184886
-0.184895
-0.184905
-0.184915
-0.184925
-0.184936
-0.184948
-0.184959
-0.184972
-0.184984
-0.184997
-0.185011
-0.185024
-0.185038
-0.185053
-0.185067
-0.185083
-0.185098
-0.185115
-0.185133
-0.185151
-0.18517
-0.185189
-0.185208
-0.185227
-0.185247
-0.185267
-0.185288
-0.185309
-0.18533
-0.185352
-0.185375
-0.185397
-0.18542
-0.185443
-0.185466
-0.185489
-0.185512
-0.185535
-0.185558
-0.185574
-0.185595
-0.185605
-0.185592
-0.185283
-0.185625
-0.185652
-0.206312
-0.206319
-0.206327
-0.206335
-0.206343
-0.206352
-0.206361
-0.20637
-0.206379
-0.206389
-0.206399
-0.206409
-0.206419
-0.206429
-0.20644
-0.20645
-0.20646
-0.20647
-0.206481
-0.206491
-0.206502
-0.206513
-0.206525
-0.206538
-0.206551
-0.206563
-0.206575
-0.206587
-0.2066
-0.206613
-0.206626
-0.20664
-0.206654
-0.206669
-0.206684
-0.2067
-0.206716
-0.206732
-0.206749
-0.206767
-0.206786
-0.206804
-0.206817
-0.206841
-0.206846
-0.206866
-0.206502
-0.206946
-0.206967
-0.206988
-0.22795
-0.22796
-0.227972
-0.227984
-0.227997
-0.228011
-0.228025
-0.228041
-0.228057
-0.228074
-0.228091
-0.228109
-0.228128
-0.228148
-0.228168
-0.228189
-0.22821
-0.228232
-0.228255
-0.228279
-0.228304
-0.22833
-0.228358
-0.228387
-0.228416
-0.228445
-0.228476
-0.228508
-0.228541
-0.228576
-0.228613
-0.22865
-0.228689
-0.22873
-0.228774
-0.228817
-0.228862
-0.228906
-0.228953
-0.229002
-0.229058
-0.229116
-0.229172
-0.22923
-0.229293
-0.229289
-0.229237
-0.229366
-0.229441
-0.229519
-0.249173
-0.249187
-0.249202
-0.249217
-0.249233
-0.24925
-0.249267
-0.249285
-0.249303
-0.249321
-0.249341
-0.24936
-0.249379
-0.2494
-0.249418
-0.249439
-0.249462
-0.249485
-0.24951
-0.249536
-0.249557
-0.249583
-0.249607
-0.249633
-0.249659
-0.249683
-0.249707
-0.249737
-0.24976
-0.249788
-0.249817
-0.249844
-0.249872
-0.249903
-0.249933
-0.249949
-0.249954
-0.249963
-0.249942
-0.249376
-0.250005
-0.250213
-0.250345
-0.250372
-0.250422
-0.250461
-0.24976
-0.250997
-0.251286
-0.251391
-0.270593
-0.270621
-0.270651
-0.270682
-0.270715
-0.270749
-0.270785
-0.270817
-0.270849
-0.270882
-0.270912
-0.270956
-0.270956
-0.270927
-0.270543
-0.270902
-0.271006
-0.271036
-0.27105
-0.271041
-0.270929
-0.271114
-0.271101
-0.271124
-0.271078
-0.271129
-0.271145
-0.271163
-0.271178
-0.2712
-0.271212
-0.271217
-0.271217
-0.271258
-0.271296
-0.269745
-0.270976
-0.271021
-0.27113
-0.271233
-0.271279
-0.271332
-0.271389
-0.271442
-0.270739
-0.271719
-0.2718
-0.271879
-0.271971
-0.27207
-0.291513
-0.291535
-0.291558
-0.291581
-0.291602
-0.291609
-0.291619
-0.291637
-0.290907
-0.291707
-0.291726
-0.29175
-0.291778
-0.291782
-0.291819
-0.291857
-0.290355
-0.291684
-0.291576
-0.291621
-0.292109
-0.291011
-0.290756
-0.292009
-0.292042
-0.292072
-0.292101
-0.292122
-0.292126
-0.291759
-0.292335
-0.292501
-0.292631
-0.292603
-0.291843
-0.291873
-0.291947
-0.291953
-0.291996
-0.292076
-0.292049
-0.292031
-0.292188
-0.292226
-0.292186
-0.29202
-0.292417
-0.292178
-0.292349
-0.292383
-0.312147
-0.312177
-0.312243
-0.312257
-0.31228
-0.312393
-0.311338
-0.311349
-0.312167
-0.312151
-0.312135
-0.312113
-0.312082
-0.312043
-0.311993
-0.311798
-0.310358
-0.314281
-0.313768
-0.3147
-0.314592
-0.314499
-0.314898
-0.314859
-0.31477
-0.314778
-0.314649
-0.314622
-0.313913
-0.31402
-0.314007
-0.314088
-0.314109
-0.314087
-0.314072
-0.314066
-0.313866
-0.31386
-0.313994
-0.314005
-0.31401
-0.313199
-0.313283
-0.313342
-0.313375
-0.313179
-0.313659
-0.313284
-0.314107
-0.314144
-0.333939
-0.333976
-0.334018
-0.33402
-0.333871
-0.333922
-0.333992
-0.334103
-0.334139
-0.334174
-0.33421
-0.334262
-0.334316
-0.334368
-0.334418
-0.334433
-0.333532
-0.334399
-0.334486
-0.33453
-0.334566
-0.334647
-0.334715
-0.334774
-0.334795
-0.334727
-0.334884
-0.334827
-0.334826
-0.334268
-0.335084
-0.335081
-0.335118
-0.335129
-0.335119
-0.335113
-0.335096
-0.335085
-0.335084
-0.335083
-0.335076
-0.335039
-0.334872
-0.335869
-0.33589
-0.33591
-0.335916
-0.335808
-0.335661
-0.335705
-0.355181
-0.355268
-0.355298
-0.355262
-0.355295
-0.355363
-0.355429
-0.354849
-0.355823
-0.355893
-0.35587
-0.356029
-0.356075
-0.356132
-0.356198
-0.355198
-0.355573
-0.355747
-0.355781
-0.355883
-0.356233
-0.356327
-0.356395
-0.356386
-0.356558
-0.355427
-0.355668
-0.355773
-0.355842
-0.355899
-0.355957
-0.355913
-0.355958
-0.356042
-0.355809
-0.355856
-0.355904
-0.355944
-0.355983
-0.35602
-0.356023
-0.356062
-0.356091
-0.356031
-0.356847
-0.356895
-0.356938
-0.356941
-0.356761
-0.356809
-0.375833
-0.377037
-0.377027
-0.377136
-0.377319
-0.377327
-0.377338
-0.376985
-0.377361
-0.377428
-0.377456
-0.377468
-0.37747
-0.376502
-0.376699
-0.376746
-0.376777
-0.376956
-0.376489
-0.376506
-0.376431
-0.377262
-0.377309
-0.377009
-0.376818
-0.376829
-0.376639
-0.377347
-0.377402
-0.377458
-0.377514
-0.37757
-0.377575
-0.377508
-0.377705
-0.377035
-0.377538
-0.377612
-0.377687
-0.377759
-0.377799
-0.377873
-0.376778
-0.377412
-0.377522
-0.377596
-0.377668
-0.377739
-0.377805
-0.377874
-0.397966
-0.397889
-0.397831
-0.397774
-0.39764
-0.396861
-0.399011
-0.398981
-0.39896
-0.398942
-0.398442
-0.398436
-0.398428
-0.397683
-0.398277
-0.398343
-0.398341
-0.398347
-0.398352
-0.398044
-0.398327
-0.397931
-0.398058
-0.398163
-0.398178
-0.398031
-0.3982
-0.398209
-0.397816
-0.398971
-0.39902
-0.399063
-0.3991
-0.399036
-0.39926
-0.398322
-0.39895
-0.399011
-0.399068
-0.399113
-0.399126
-0.399074
-0.399214
-0.399278
-0.399339
-0.399399
-0.399459
-0.399519
-0.39958
-0.399642
-0.417941
-0.418002
-0.41805
-0.418087
-0.418089
-0.417529
-0.418694
-0.418743
-0.418774
-0.419354
-0.41863
-0.419753
-0.419639
-0.419698
-0.419714
-0.41972
-0.419718
-0.419767
-0.419912
-0.419928
-0.419936
-0.419741
-0.41963
-0.419047
-0.419579
-0.419591
-0.419625
-0.41964
-0.419638
-0.419663
-0.420417
-0.420478
-0.420529
-0.42055
-0.42054
-0.420001
-0.420312
-0.420401
-0.420456
-0.420512
-0.420571
-0.420629
-0.420688
-0.420748
-0.420811
-0.420875
-0.420942
-0.42101
-0.42108
-0.421151
-0.0108072
-0.0108067
-0.0108065
-0.0108063
-0.0108062
-0.0108061
-0.0108061
-0.010806
-0.0108061
-0.0108061
-0.0108062
-0.0108063
-0.0108065
-0.0108067
-0.010807
-0.0108072
-0.0108076
-0.0108079
-0.0108083
-0.0108087
-0.0108091
-0.0108096
-0.0108101
-0.0108106
-0.0108112
-0.0108118
-0.0108124
-0.0108131
-0.0108138
-0.0108145
-0.0108153
-0.010816
-0.0108168
-0.0108177
-0.0108185
-0.0108193
-0.0108202
-0.0108211
-0.010822
-0.0108229
-0.0108239
-0.0108249
-0.0108259
-0.0108269
-0.010828
-0.0108291
-0.0108303
-0.0108315
-0.0108327
-0.010834
-0.0108353
-0.0108365
-0.0108379
-0.0108392
-0.0108405
-0.010842
-0.0108434
-0.0108449
-0.0108464
-0.0108479
-0.0108494
-0.0108508
-0.0108522
-0.0108536
-0.0108549
-0.0108562
-0.0108575
-0.0108587
-0.0108596
-0.0108604
-0.0108613
-0.0108624
-0.0108639
-0.0108654
-0.0108669
-0.0108681
-0.0108692
-0.0108705
-0.0108718
-0.0108729
-0.0108737
-0.0108752
-0.0108774
-0.0108795
-0.0108815
-0.0108832
-0.0108848
-0.0108866
-0.0108887
-0.0108906
-0.0108923
-0.0108939
-0.0108955
-0.0108968
-0.0108982
-0.0108933
-0.0108961
-0.0108978
-0.0109014
-0.010901
-0.0109099
-0.0109115
-0.0109168
-0.0109176
-0.0109246
-0.0109187
-0.0109175
-0.0109455
-0.0109491
-0.0109524
-0.0109603
-0.0109702
-0.0109801
-0.0109888
-0.0109985
-0.0110064
-0.0110138
-0.0110329
-0.0110438
-0.011055
-0.0110656
-0.0110823
-0.0110948
-0.011107
-0.0111205
-0.0111338
-0.011147
-0.0111605
-0.0111743
-0.0111883
-0.0112028
-0.0112175
-0.0112322
-0.011247
-0.0112624
-0.0112778
-0.0112932
-0.0113084
-0.0113236
-0.0113387
-0.0113541
-0.0113682
-0.0113842
-0.0113908
-0.0114098
-0.0114194
-0.0114449
-0.0114591
-0.011434
-0.0114757
-0.0114798
-0.0115002
-0.011429
-0.0115146
-0.0115249
-0.0114974
-0.011522
-0.0115167
-0.0115139
-0.0114571
-0.0114944
-0.0114823
-0.0115124
-0.0114889
-0.0114979
-0.0115062
-0.0115044
-0.0114921
-0.0114973
-0.011492
-0.0114866
-0.011481
-0.0114669
-0.0114315
-0.0114953
-0.0114888
-0.0114712
-0.0114529
-0.0114378
-0.0114276
-0.0114177
-0.0114068
-0.0113977
-0.0113869
-0.0113751
-0.0113626
-0.0113492
-0.0113356
-0.0113209
-0.0113051
-0.011289
-0.0112704
-0.011229
-0.0112042
-0.0113014
-0.0112723
-0.0112456
-0.0112238
-0.0112058
-0.0111903
-0.0111759
-0.0111675
-0.011157
-0.0111479
-0.01114
-0.0109637
-0.0110142
-0.0110025
-0.0109977
-0.0109861
-0.0109741
-0.0109621
-0.0109513
-0.01094
-0.0109274
-0.0109147
-0.0108963
-0.0109007
-0.0109036
-0.0108933
-0.0108774
-0.0108628
-0.0108522
-0.0108412
-0.0108306
-0.0108188
-0.0108099
-0.0107992
-0.010791
-0.0107838
-0.0107754
-0.010767
-0.0107589
-0.0107514
-0.0107446
-0.0107384
-0.0107323
-0.010726
-0.0107201
-0.0107142
-0.0107084
-0.0107029
-0.0106976
-0.0106926
-0.0106877
-0.0106831
-0.0106787
-0.0106745
-0.0106705
-0.0106668
-0.0106633
-0.01066
-0.0106572
-0.0106546
-0.0106525
-0.0106507
-0.0106493
-0.0106484
-0.0106479
-0.0106479
-0.0106484
-0.0106493
-0.0106506
-0.0106525
-0.0106548
-0.0106575
-0.0106607
-0.0106644
-0.0106685
-0.0106731
-0.0106781
-0.0106836
-0.0106895
-0.0106959
-0.0107027
-0.0107099
-0.0107176
-0.0107257
-0.0107343
-0.0107433
-0.0107528
-0.0107627
-0.0107732
-0.0107841
-0.0107956
-0.0108076
-0.0108201
-0.0108332
-0.010847
-0.0108613
-0.0108764
-0.0108923
-0.0109089
-0.0109265
-0.0109451
-0.0109647
-0.0109855
-0.0110077
-0.0110312
-0.0110551
-0.0329194
-0.0329227
-0.0329259
-0.0329291
-0.0329323
-0.0329356
-0.032939
-0.0329424
-0.0329458
-0.0329494
-0.0329529
-0.0329566
-0.0329602
-0.0329639
-0.0329677
-0.0329714
-0.0329752
-0.032979
-0.0329829
-0.0329867
-0.0329906
-0.0329946
-0.0329986
-0.0330026
-0.0330066
-0.0330106
-0.0330147
-0.0330187
-0.0330228
-0.0330268
-0.0330309
-0.033035
-0.0330391
-0.0330432
-0.0330473
-0.0330514
-0.0330555
-0.0330596
-0.0330638
-0.033068
-0.0330721
-0.0330764
-0.0330806
-0.0330849
-0.0330892
-0.0330936
-0.033098
-0.0331023
-0.0331067
-0.033111
-0.0331153
-0.0331195
-0.0331236
-0.0331278
-0.033132
-0.0331362
-0.0331403
-0.0331442
-0.0331479
-0.0331511
-0.033154
-0.0331564
-0.0331586
-0.0331606
-0.0331626
-0.0331644
-0.0331661
-0.0331681
-0.0331703
-0.0331723
-0.033174
-0.0331755
-0.0331763
-0.0331761
-0.033176
-0.0331745
-0.033175
-0.0331738
-0.0331726
-0.0331706
-0.0331659
-0.0331637
-0.0331594
-0.0331541
-0.0331531
-0.0331449
-0.0331374
-0.0331283
-0.0331216
-0.0331115
-0.0330996
-0.0330825
-0.0330678
-0.0330446
-0.0328875
-0.0332077
-0.0331855
-0.033146
-0.0331217
-0.0331248
-0.033102
-0.0330868
-0.0330797
-0.0330504
-0.0330239
-0.0323649
-0.0333433
-0.0333149
-0.0332997
-0.0332908
-0.0332709
-0.0332454
-0.0332271
-0.0332074
-0.0328163
-0.0331445
-0.0331115
-0.0331298
-0.033091
-0.0330674
-0.0330471
-0.0330616
-0.0330463
-0.0330381
-0.0330281
-0.0330169
-0.0330034
-0.0329905
-0.0329773
-0.0329646
-0.0329522
-0.0329408
-0.0329219
-0.0329113
-0.032898
-0.0328822
-0.032871
-0.0328533
-0.0328525
-0.0328389
-0.032825
-0.0328153
-0.0328012
-0.032691
-0.0327565
-0.0327326
-0.0327691
-0.0327543
-0.0326681
-0.032722
-0.0326776
-0.0326116
-0.0322649
-0.0325754
-0.0326623
-0.0325638
-0.0322018
-0.0325486
-0.0324698
-0.0324712
-0.0325352
-0.0325129
-0.0325232
-0.0325115
-0.0323702
-0.0324198
-0.0324216
-0.0324165
-0.0324085
-0.032406
-0.0324042
-0.0324013
-0.0323963
-0.0323997
-0.0323853
-0.0322325
-0.0322583
-0.0322758
-0.0322874
-0.0322974
-0.0322983
-0.0323016
-0.0323042
-0.0323058
-0.0323058
-0.0323057
-0.0323058
-0.0323057
-0.0323035
-0.0322999
-0.0323035
-0.0323014
-0.032301
-0.0323105
-0.0322978
-0.0322515
-0.0322723
-0.0322863
-0.0322931
-0.0322936
-0.0322891
-0.0322911
-0.0322922
-0.0322911
-0.0322874
-0.0322853
-0.032277
-0.032243
-0.03223
-0.0323591
-0.0323518
-0.0323268
-0.0323147
-0.032308
-0.0323019
-0.0322949
-0.0322879
-0.032283
-0.0322666
-0.0322564
-0.0323541
-0.0323511
-0.0323325
-0.0323238
-0.0323196
-0.0323154
-0.0323135
-0.0323146
-0.032275
-0.0322978
-0.0323051
-0.0323029
-0.0323014
-0.0323023
-0.0323046
-0.0323048
-0.0323042
-0.0323134
-0.0323172
-0.0323199
-0.0323227
-0.0323255
-0.0323285
-0.0323321
-0.0323361
-0.0323408
-0.0323459
-0.0323513
-0.0323569
-0.0323627
-0.0323687
-0.0323751
-0.0323817
-0.0323887
-0.0323959
-0.0324033
-0.0324111
-0.032419
-0.0324272
-0.0324355
-0.0324441
-0.0324529
-0.0324619
-0.0324711
-0.0324805
-0.0324901
-0.0324999
-0.0325099
-0.0325202
-0.0325306
-0.0325414
-0.0325523
-0.0325636
-0.0325751
-0.032587
-0.0325992
-0.0326117
-0.0326247
-0.0326381
-0.0326519
-0.0326663
-0.0326813
-0.0326969
-0.0327131
-0.0327302
-0.0327481
-0.032767
-0.0327869
-0.032808
-0.0328305
-0.0328545
-0.0328801
-0.0329076
-0.0329372
-0.0329691
-0.0330035
-0.0330406
-0.0330808
-0.0331237
-0.0331677
-0.0546464
-0.0546492
-0.0546523
-0.0546556
-0.0546589
-0.0546623
-0.0546658
-0.0546694
-0.0546732
-0.054677
-0.054681
-0.054685
-0.0546891
-0.0546932
-0.0546975
-0.0547018
-0.0547061
-0.0547106
-0.0547151
-0.0547197
-0.0547244
-0.0547291
-0.0547339
-0.0547388
-0.0547437
-0.0547487
-0.0547537
-0.0547588
-0.0547639
-0.054769
-0.0547742
-0.0547795
-0.0547848
-0.0547902
-0.0547956
-0.0548011
-0.0548065
-0.0548121
-0.0548179
-0.0548237
-0.0548295
-0.0548355
-0.0548415
-0.0548477
-0.054854
-0.0548605
-0.054867
-0.0548735
-0.05488
-0.0548864
-0.0548927
-0.0548992
-0.054906
-0.054913
-0.0549202
-0.0549274
-0.0549348
-0.0549425
-0.0549491
-0.0549511
-0.0549479
-0.054967
-0.0549762
-0.0549851
-0.0549943
-0.0550032
-0.0550124
-0.0550216
-0.0550307
-0.0550405
-0.0550507
-0.0550601
-0.0550496
-0.0550272
-0.0547713
-0.0550632
-0.0551267
-0.0551489
-0.0551439
-0.0551714
-0.0551681
-0.0551961
-0.0552002
-0.0547987
-0.0553051
-0.0554143
-0.055416
-0.0554184
-0.0554548
-0.0554566
-0.0554636
-0.0554794
-0.0535203
-0.0551918
-0.055193
-0.0551906
-0.0551912
-0.0551912
-0.0551933
-0.055192
-0.0551895
-0.0551803
-0.0551834
-0.055175
-0.0542128
-0.0549681
-0.0549729
-0.0549693
-0.0549608
-0.0549557
-0.0549471
-0.0546716
-0.0546634
-0.0546589
-0.054616
-0.0542132
-0.0551914
-0.0551638
-0.0554761
-0.0549908
-0.0557282
-0.0558629
-0.0558284
-0.0558509
-0.0558003
-0.0557805
-0.0557164
-0.0557103
-0.0556825
-0.0556533
-0.0556198
-0.0555856
-0.0555255
-0.0555415
-0.0554779
-0.0555391
-0.0555161
-0.055487
-0.0555418
-0.0553736
-0.0554046
-0.0555126
-0.055335
-0.0548999
-0.0551213
-0.0550913
-0.0549559
-0.0551772
-0.0551658
-0.0551604
-0.0551582
-0.0551495
-0.0550906
-0.0551263
-0.0551272
-0.0551155
-0.0548663
-0.0549964
-0.0549953
-0.0549845
-0.0549697
-0.0549588
-0.0549485
-0.0549375
-0.0549246
-0.0547098
-0.0546953
-0.0547265
-0.0547077
-0.0546888
-0.0546668
-0.0546469
-0.0546257
-0.0545998
-0.0545755
-0.0545763
-0.0545426
-0.0544263
-0.0543712
-0.0546868
-0.0547022
-0.0546758
-0.0546504
-0.0546218
-0.0545988
-0.0545777
-0.0545566
-0.0545335
-0.0544888
-0.0544142
-0.0544458
-0.0544234
-0.0543978
-0.0543687
-0.0543462
-0.0543406
-0.0543199
-0.0542325
-0.0541905
-0.0544466
-0.0544182
-0.0543943
-0.0543749
-0.0543561
-0.054339
-0.0543215
-0.054303
-0.0542929
-0.0542994
-0.0542722
-0.0542339
-0.0542338
-0.0542213
-0.0542014
-0.054185
-0.0541753
-0.0541656
-0.0541537
-0.0541461
-0.0541504
-0.0541239
-0.0540987
-0.0540998
-0.0540981
-0.054086