/*--------------------------------*- C++ -*----------------------------------*\
| =========                 |                                                 |
| \\      /  F ield         | OpenFOAM: The Open Source CFD Toolbox           |
|  \\    /   O peration     | Version:  2.4.0                                 |
|   \\  /    A nd           | Web:      www.OpenFOAM.org                      |
|    \\/     M anipulation  |                                                 |
\*---------------------------------------------------------------------------*/
FoamFile
{
    version     2.0;
    format      ascii;
    class       volScalarField;
    location    "3";
    object      p_rgh;
}
// * * * * * * * * * * * * * * * * * * * * * * * * * * * * * * * * * * * * * //

dimensions      [1 -1 -2 0 0 0 0];

internalField   nonuniform List<scalar> 
8000
(
0.739897
0.738484
0.73719
0.736162
0.735319
0.734604
0.733997
0.733487
0.733068
0.732731
0.732469
0.732278
0.732153
0.732093
0.732097
0.732165
0.732299
0.732502
0.73278
0.733136
0.733587
0.734147
0.734817
0.735498
0.736346
0.736969
0.740713
0.752824
0.764764
0.7024
0.436231
-0.177021
4.5701e-05
0.000481016
0.000396152
0.000365712
0.000363985
0.000366693
0.000367683
0.00036769
0.000367611
0.000367662
0.000367809
0.000368012
0.000368258
0.000368544
0.000368866
0.000369222
0.000369607
0.000370017
2.04003
2.03875
2.03733
2.03609
2.03505
2.03416
2.03342
2.0328
2.03233
2.03198
2.03176
2.03167
2.0317
2.03187
2.03216
2.03258
2.03313
2.03382
2.03464
2.0356
2.03672
2.038
2.03943
2.04091
2.04256
2.04409
2.04901
2.06224
2.07324
2.0043
1.73504
0.46458
0.000493709
0.000935974
0.000848371
0.000816893
0.000814847
0.000817163
0.000817573
0.000816848
0.000815916
0.000815006
0.000814085
0.000813116
0.000812087
0.000811
0.000809853
0.000808646
0.000807377
0.000806043
3.38319
3.38261
3.382
3.38142
3.38086
3.3803
3.37975
3.37919
3.37865
3.3781
3.37755
3.37701
3.37647
3.37592
3.37538
3.37484
3.3743
3.37376
3.37322
3.37267
3.37214
3.37161
3.37108
3.37043
3.36978
3.3689
3.37116
3.38076
3.38632
3.31315
3.05949
1.0055
0.00115082
0.00159614
0.00150705
0.00147508
0.00147292
0.00147515
0.00147545
0.0014746
0.00147354
0.00147249
0.00147142
0.00147031
0.00146912
0.00146787
0.00146656
0.00146518
0.00146373
0.00146221
4.70356
4.70321
4.70283
4.70246
4.70209
4.70173
4.70138
4.70102
4.70067
4.70033
4.69999
4.69966
4.69933
4.69901
4.6987
4.69839
4.69809
4.69779
4.69751
4.69723
4.69696
4.69671
4.69646
4.69608
4.6957
4.69528
4.69827
4.70846
4.71013
4.62762
4.37805
1.37588
0.00168395
0.00212921
0.00203958
0.00200718
0.00200481
0.00200682
0.00200683
0.00200562
0.00200412
0.00200258
0.00200096
0.00199921
0.00199734
0.00199533
0.00199319
0.00199092
0.00198852
0.00198599
6.025
6.02535
6.02567
6.02585
6.0259
6.02583
6.02565
6.02537
6.02498
6.02448
6.02387
6.02316
6.02233
6.0214
6.02035
6.01919
6.0179
6.01649
6.01496
6.01328
6.01147
6.00952
6.00739
6.00496
6.00235
5.99975
6.00052
6.00699
5.99965
5.90319
5.67038
1.42531
0.00231725
0.00275928
0.00266841
0.00263598
0.00263367
0.00263565
0.00263553
0.00263414
0.00263242
0.00263061
0.00262868
0.00262658
0.00262432
0.0026219
0.00261932
0.00261658
0.00261368
0.00261064
7.36679
7.36694
7.36701
7.36696
7.36682
7.36658
7.36625
7.36583
7.36532
7.36472
7.36404
7.36326
7.36239
7.36142
7.36037
7.3592
7.35794
7.35657
7.35509
7.35349
7.35177
7.34993
7.34793
7.34559
7.34311
7.34113
7.34359
7.35104
7.33419
7.20353
6.95447
1.07344
0.00297196
0.00336984
0.00328403
0.0032534
0.00325082
0.00325209
0.00325134
0.00324936
0.00324704
0.00324458
0.00324196
0.00323912
0.00323607
0.00323281
0.00322934
0.00322565
0.00322176
0.00321766
8.74756
8.74609
8.74456
8.74323
8.74209
8.74111
8.74026
8.73955
8.73898
8.73855
8.73825
8.73809
8.73807
8.73819
8.73847
8.73889
8.73948
8.74023
8.74116
8.74228
8.74362
8.74519
8.74681
8.74796
8.74897
8.75448
8.77826
8.81621
8.73985
8.20661
7.30615
0.317397
0.00370071
0.00401716
0.00393924
0.00390685
0.0039034
0.00390469
0.00390407
0.00390208
0.00389961
0.00389694
0.00389402
0.00389085
0.00388741
0.00388371
0.00387976
0.00387557
0.00387115
0.0038665
10.0948
10.0932
10.0916
10.0902
10.0891
10.088
10.0871
10.0863
10.0857
10.0851
10.0847
10.0844
10.0843
10.0842
10.0843
10.0846
10.085
10.0855
10.0862
10.0871
10.0882
10.0895
10.0909
10.092
10.0932
10.0981
10.1157
10.14
10.0752
9.69613
7.51143
0.049062
0.00448058
0.00472016
0.00465589
0.00462796
0.00462408
0.00462425
0.00462281
0.00462017
0.00461707
0.00461371
0.00461008
0.00460614
0.00460189
0.00459734
0.00459247
0.00458731
0.00458184
0.00457608
11.366
11.3668
11.3675
11.3679
11.3681
11.368
11.3678
11.3674
11.3669
11.3661
11.3651
11.3639
11.3625
11.3609
11.3591
11.357
11.3547
11.3522
11.3494
11.3463
11.3429
11.3393
11.3352
11.3304
11.3253
11.3228
11.3288
11.3338
11.26
10.964
6.24231
0.00939502
0.00532027
0.00536558
0.00532705
0.00531272
0.00531175
0.0053121
0.00531108
0.00530909
0.00530658
0.00530365
0.00530029
0.00529646
0.00529217
0.00528742
0.00528222
0.00527656
0.00527045
0.0052639
12.7217
12.7236
12.7255
12.727
12.7282
12.729
12.7295
12.7297
12.7296
12.7292
12.7285
12.7274
12.7261
12.7244
12.7224
12.72
12.7173
12.7143
12.7108
12.707
12.7028
12.6982
12.6931
12.6873
12.6811
12.6765
12.6767
12.6746
12.6202
12.4377
4.28649
0.00640988
0.00635287
0.00627065
0.00623961
0.00623673
0.0062379
0.00623697
0.0062346
0.00623166
0.00622836
0.0062247
0.00622064
0.00621619
0.00621135
0.00620614
0.00620057
0.00619465
0.00618839
0.00618181
14.1142
14.114
14.1138
14.1138
14.1138
14.1139
14.1142
14.1146
14.1151
14.1157
14.1164
14.1172
14.1182
14.1193
14.1205
14.1219
14.1235
14.1253
14.1273
14.1296
14.1321
14.1347
14.1367
14.1382
14.1459
14.1784
14.2321
14.1351
13.4109
12.1797
1.10512
0.0066253
0.007069
0.00696327
0.00692577
0.00692997
0.00693984
0.00694609
0.00694959
0.00695167
0.00695268
0.00695262
0.00695146
0.00694922
0.00694592
0.00694159
0.00693625
0.00692993
0.00692265
0.00691443
15.5657
15.566
15.5665
15.5672
15.5677
15.5683
15.5687
15.5692
15.5695
15.5698
15.5701
15.5703
15.5704
15.5705
15.5705
15.5705
15.5704
15.5703
15.5702
15.57
15.5699
15.5696
15.5689
15.568
15.5704
15.5836
15.6005
15.5351
15.2004
10.2357
0.0789554
0.00803156
0.00825929
0.00819356
0.0081665
0.00816377
0.00816388
0.00816175
0.00815795
0.00815321
0.00814774
0.00814154
0.00813457
0.00812684
0.00811836
0.00810913
0.00809917
0.00808848
0.00807707
0.00806496
16.7742
16.778
16.7815
16.7843
16.7865
16.7882
16.7895
16.7903
16.7905
16.7903
16.7896
16.7885
16.7868
16.7846
16.7819
16.7787
16.7749
16.7706
16.7659
16.7605
16.7546
16.7478
16.7403
16.7332
16.731
16.7348
16.7102
16.5452
16.2184
3.87423
0.0151481
0.00931294
0.00930323
0.00926761
0.00925109
0.00924531
0.00923889
0.00923053
0.00922069
0.00920967
0.0091975
0.00918414
0.00916954
0.00915366
0.00913647
0.00911792
0.00909796
0.00907657
0.00905371
0.00902935
18.4291
18.4327
18.4369
18.4408
18.4442
18.4472
18.4498
18.452
18.4538
18.4552
18.4562
18.4568
18.457
18.4568
18.4561
18.4549
18.4533
18.4512
18.4486
18.4455
18.4416
18.4368
18.4313
18.4295
18.4382
18.4434
18.3443
17.9685
12.4073
0.303054
0.0111196
0.0108835
0.0108098
0.0107698
0.0107473
0.0107334
0.0107182
0.010702
0.0106855
0.0106686
0.0106515
0.0106339
0.0106159
0.0105974
0.0105783
0.0105587
0.0105386
0.0105181
0.0104974
0.0104774
19.7205
19.7274
19.7342
19.7399
19.7446
19.7486
19.7518
19.7543
19.7562
19.7572
19.7576
19.7572
19.7561
19.7542
19.7516
19.7482
19.7441
19.7393
19.7336
19.727
19.7189
19.7104
19.7058
19.7164
19.7249
19.5976
19.0855
15.3833
1.66189
0.0289175
0.0125758
0.0124379
0.0123993
0.012369
0.0123407
0.0123235
0.0123074
0.0122924
0.0122785
0.0122656
0.0122533
0.0122413
0.0122294
0.0122172
0.0122045
0.0121917
0.0121787
0.0121661
0.0121518
0.0121396
21.5482
21.5529
21.5586
21.5645
21.5703
21.5764
21.5827
21.5892
21.5959
21.6029
21.6101
21.6175
21.6252
21.6332
21.6414
21.65
21.6589
21.668
21.677
21.6856
21.6966
21.7205
21.7622
21.7562
21.4582
20.5616
16.1819
2.42657
0.09075
0.0147658
0.0134457
0.0133786
0.0133662
0.0133364
0.0133032
0.0132776
0.0132526
0.0132278
0.0132019
0.0131756
0.0131485
0.0131194
0.0130884
0.0130608
0.0130263
0.0129921
0.0129589
0.0129178
0.01301
0.0128086
23.144
23.1479
23.1524
23.1566
23.1605
23.1641
23.1674
23.1704
23.173
23.1753
23.1771
23.1785
23.1795
23.1799
23.1799
23.1792
23.1777
23.1745
23.1691
23.1696
23.194
23.2515
23.18
22.4455
20.6506
12.2095
1.58825
0.0997564
0.0167967
0.014402
0.0143401
0.014284
0.0142574
0.0142407
0.0142249
0.0142089
0.0141931
0.014177
0.0141605
0.0141404
0.0141207
0.0141098
0.0140921
0.0140673
0.0140458
0.0140261
0.0140002
0.0139341
0.014213
0.0140805
24.5562
24.5588
24.5614
24.5644
24.5682
24.5728
24.5781
24.5841
24.5908
24.598
24.6058
24.6141
24.6231
24.6326
24.6427
24.6524
24.6625
24.6761
24.7115
24.7623
24.734
24.3028
22.9716
19.1002
5.67338
0.357934
-0.000952678
0.015574
0.0163294
0.015957
0.0158073
0.0158041
0.0158239
0.0158338
0.0158394
0.0158484
0.0158589
0.0158714
0.0158932
0.0159117
0.0159272
0.0160111
0.0168005
0.0153822
0.0154062
0.0154186
0.0154467
0.0154731
0.0155594
0.0156921
26.6889
26.7021
26.7199
26.7393
26.7596
26.7813
26.8044
26.8292
26.8554
26.8833
26.9129
26.9443
26.9771
27.0111
27.0459
27.085
27.1426
27.2348
27.3287
27.1052
25.7873
22.5924
10.4286
0.895547
-0.0395767
0.0316486
0.0183435
0.0170617
0.0171189
0.0171207
0.0171442
0.017168
0.017892
0.0173268
0.0173599
0.0173751
0.0174131
0.0174667
0.0175209
0.0176604
0.0180238
0.018999
0.0165335
0.0165056
0.0164708
0.0167357
0.0157846
0.0157141
0.0157737
0.0157715
26.8346
26.8744
26.9137
26.947
26.9754
27.0002
27.0216
27.0395
27.0541
27.065
27.0724
27.0758
27.0754
27.0712
27.0704
27.089
27.166
27.1361
25.6203
21.7027
9.29552
-0.0817177
0.0380553
0.108222
0.0164637
0.0185778
0.0183308
0.0181801
0.018157
0.0181264
0.0181302
0.0183224
0.0180195
0.0179164
0.0178721
0.0177946
0.0177193
0.0176356
0.017551
0.0176626
0.0196312
0.0194825
0.0190184
0.0188209
0.0187192
0.0186014
0.0193096
0.0185667
0.0184851
0.0183665
0.000370449
0.0003709
0.000371365
0.000371843
0.000372329
0.00037282
0.000373313
0.000373803
0.000374288
0.000374765
0.000375233
0.00037569
0.000376135
0.000376569
0.000376992
0.000377403
0.000377799
0.000378175
0.000378527
0.000378849
0.000379137
0.000379389
0.000379603
0.000379782
0.000379926
0.000380039
0.000380122
0.000380177
0.000380201
0.000380195
0.000380158
0.000380088
0.000379988
0.000379856
0.000379694
0.000379504
0.000379288
0.000379049
0.000378788
0.000378508
0.00037821
0.000377896
0.000377567
0.000377224
0.00037687
0.000376506
0.000376119
0.000375689
0.000375273
0.000375298
0.000804645
0.000803182
0.000801651
0.000800052
0.000798383
0.000796642
0.000794828
0.000792939
0.000790975
0.000788936
0.000786823
0.000784639
0.000782387
0.000780069
0.000777687
0.00077524
0.000772723
0.000770127
0.000767443
0.000764663
0.000761785
0.000758809
0.000755737
0.000752575
0.000749328
0.000746
0.000742591
0.000739098
0.000735517
0.000731845
0.000728078
0.000724214
0.00072025
0.000716187
0.000712022
0.000707757
0.000703391
0.000698925
0.000694356
0.000689683
0.000684903
0.00068001
0.000675001
0.000669872
0.000664619
0.000659243
0.000653757
0.000648182
0.000642453
0.00063627
0.00146062
0.00145895
0.00145721
0.0014554
0.00145351
0.00145153
0.00144947
0.00144733
0.0014451
0.00144279
0.0014404
0.00143793
0.00143539
0.00143278
0.0014301
0.00142735
0.00142451
0.00142158
0.00141852
0.00141535
0.00141205
0.00140863
0.0014051
0.00140148
0.00139777
0.00139397
0.00139009
0.00138611
0.00138204
0.00137787
0.0013736
0.00136922
0.00136474
0.00136016
0.00135548
0.0013507
0.00134583
0.00134087
0.00133583
0.0013307
0.00132548
0.00132016
0.00131475
0.00130924
0.00130365
0.00129796
0.00129219
0.00128635
0.00128048
0.00127483
0.00198332
0.00198052
0.00197758
0.0019745
0.00197127
0.0019679
0.00196437
0.0019607
0.00195688
0.00195291
0.0019488
0.00194455
0.00194017
0.00193566
0.00193101
0.00192623
0.00192129
0.00191615
0.0019108
0.00190523
0.00189944
0.00189343
0.00188723
0.00188085
0.0018743
0.00186758
0.00186069
0.00185361
0.00184633
0.00183884
0.00183113
0.00182321
0.00181506
0.00180669
0.0017981
0.00178929
0.00178027
0.00177103
0.00176157
0.00175189
0.00174198
0.00173181
0.00172139
0.0017107
0.00169975
0.00168854
0.00167709
0.00166546
0.00165362
0.0016413
0.00260744
0.0026041
0.00260061
0.00259696
0.00259317
0.00258922
0.00258512
0.00258088
0.00257649
0.00257197
0.00256732
0.00256256
0.00255768
0.00255271
0.00254764
0.00254246
0.00253715
0.00253166
0.00252595
0.00252003
0.00251391
0.0025076
0.00250113
0.00249455
0.00248787
0.0024811
0.00247422
0.00246722
0.00246008
0.0024528
0.00244538
0.00243781
0.0024301
0.00242226
0.00241429
0.00240621
0.00239804
0.00238978
0.00238144
0.002373
0.00236447
0.00235582
0.00234705
0.00233816
0.00232916
0.00232009
0.00231096
0.00230182
0.00229274
0.00228387
0.00321335
0.00320883
0.00320409
0.00319914
0.00319396
0.00318856
0.00318294
0.0031771
0.00317104
0.00316476
0.00315828
0.00315159
0.00314472
0.00313766
0.00313042
0.00312299
0.00311533
0.00310735
0.00309902
0.00309031
0.00308122
0.00307178
0.00306202
0.00305201
0.00304177
0.0030313
0.00302057
0.00300957
0.00299825
0.00298659
0.00297458
0.00296223
0.00294951
0.00293644
0.00292302
0.00290927
0.00289521
0.00288086
0.00286622
0.00285127
0.00283599
0.00282036
0.00280438
0.00278805
0.0027714
0.00275448
0.00273738
0.00272022
0.00270302
0.00268522
0.00386163
0.00385655
0.00385126
0.00384575
0.00384003
0.00383411
0.003828
0.0038217
0.00381523
0.00380859
0.0038018
0.00379489
0.00378786
0.00378074
0.00377357
0.00376634
0.00375901
0.00375152
0.00374377
0.00373575
0.00372748
0.00371896
0.00371023
0.00370142
0.00369264
0.00368392
0.00367524
0.00366659
0.00365792
0.0036492
0.00364046
0.00363169
0.00362292
0.00361416
0.00360545
0.00359683
0.00358836
0.00358011
0.00357209
0.0035643
0.00355671
0.00354931
0.00354209
0.00353511
0.00352838
0.00352188
0.00351562
0.0035096
0.0035042
0.00349908
0.00457001
0.00456364
0.00455696
0.00454998
0.00454268
0.00453506
0.00452713
0.00451887
0.00451031
0.00450143
0.00449224
0.00448275
0.00447295
0.00446287
0.00445256
0.00444199
0.00443112
0.00441989
0.00440813
0.00439575
0.0043827
0.00436899
0.00435454
0.00433946
0.00432403
0.00430825
0.00429207
0.0042754
0.00425812
0.00424012
0.00422139
0.00420188
0.00418154
0.00416032
0.0041382
0.00411518
0.00409127
0.00406652
0.00404089
0.00401428
0.00398657
0.00395767
0.00392754
0.00389622
0.00386407
0.00383095
0.00379546
0.0037585
0.00371894
0.00367846
0.00525689
0.00524943
0.00524153
0.00523317
0.00522436
0.00521509
0.00520539
0.00519521
0.0051846
0.00517355
0.00516206
0.00515013
0.00513778
0.00512503
0.00511201
0.00509871
0.00508498
0.00507096
0.0050564
0.00504129
0.00502541
0.00500867
0.00499113
0.00497273
0.00495421
0.00493557
0.00491672
0.00489761
0.00487804
0.00485796
0.00483745
0.00481655
0.0047952
0.00477336
0.0047511
0.00472856
0.00470591
0.00468327
0.00466066
0.00463798
0.0046152
0.00459245
0.00457023
0.00455383
0.00453313
0.00452254
0.0045346
0.0048509
0.004502
0.0044757
0.00617492
0.00616773
0.00616024
0.00615248
0.00614445
0.00613616
0.00612766
0.00611888
0.00610988
0.00610069
0.00609128
0.00608171
0.00607195
0.006062
0.00605219
0.00604249
0.00603251
0.00602261
0.00601249
0.00600221
0.00599161
0.0059801
0.00596802
0.0059553
0.00594318
0.00593122
0.00591932
0.00590732
0.00589484
0.00588187
0.00586871
0.00585534
0.00584141
0.00582674
0.00581148
0.00579603
0.00578053
0.00576467
0.00574805
0.00573022
0.00571149
0.0056936
0.00568123
0.00565699
0.00565145
0.00563108
0.00600554
0.0055504
0.00552907
0.00550799
0.00690528
0.00689525
0.00688436
0.00687261
0.00686003
0.00684667
0.00683256
0.00681763
0.00680202
0.00678573
0.00676867
0.006751
0.00673253
0.00671324
0.00669365
0.00667369
0.00665256
0.00663076
0.00660788
0.00658389
0.00655954
0.00653343
0.00650586
0.00647741
0.0064488
0.00641909
0.00638882
0.00635727
0.00632393
0.00628847
0.00625213
0.00621516
0.0061762
0.00613509
0.00609199
0.00604862
0.00600487
0.00596075
0.00591429
0.00586482
0.00580977
0.00575189
0.00569717
0.00563929
0.0055774
0.00558346
0.00563917
0.00549867
0.00542331
0.00534535
0.00805214
0.00803864
0.00802449
0.00800967
0.00799421
0.00797816
0.00796149
0.00794429
0.00792702
0.00790904
0.00789012
0.00787178
0.00785221
0.00783168
0.0078151
0.00779358
0.00777091
0.00774847
0.00772381
0.00769809
0.00767826
0.00765218
0.00762902
0.00760275
0.00757733
0.00755347
0.00752924
0.00749943
0.00747565
0.00744766
0.0074194
0.00739198
0.00736387
0.00733296
0.0073042
0.00728928
0.00728572
0.00727542
0.00729438
0.00787903
0.00723082
0.00702839
0.00689846
0.00687428
0.00682644
0.00678486
0.00750888
0.00623554
0.00595338
0.00584929
0.00900341
0.00897594
0.00894706
0.00891652
0.00888444
0.00885085
0.00881588
0.00878492
0.00875464
0.00872139
0.00869197
0.00864746
0.00864663
0.00867316
0.00907121
0.00869871
0.00859831
0.00856913
0.00855399
0.0085614
0.00869075
0.00849796
0.0085142
0.00848749
0.00853696
0.00848164
0.00846338
0.0084445
0.00842805
0.00840565
0.0083935
0.00838724
0.00840294
0.0083567
0.00832738
0.00993157
0.00866121
0.00858724
0.00848127
0.00838033
0.0083374
0.00828886
0.00823531
0.00818252
0.00891076
0.00790067
0.00782324
0.00774254
0.00764739
0.00754547
0.0104565
0.0104346
0.0104119
0.0103894
0.0103702
0.0103666
0.0103604
0.0103435
0.0111004
0.0102723
0.0102484
0.0102234
0.0101946
0.0101895
0.0101529
0.0101273
0.0116851
0.0103092
0.0103939
0.0103489
0.00988194
0.0110542
0.0113197
0.00996879
0.00993115
0.00990135
0.00987277
0.00985126
0.00985688
0.0102375
0.00963929
0.0094786
0.00935383
0.00945182
0.0102382
0.0102079
0.0100591
0.0100458
0.0100034
0.00992713
0.00996226
0.00998155
0.00981953
0.00976561
0.00979695
0.00995593
0.00957834
0.00982728
0.00965072
0.00958965
0.0121962
0.0121609
0.012098
0.0120841
0.0120605
0.0119835
0.0131117
0.0131002
0.012207
0.0121879
0.0122041
0.0122266
0.0122577
0.0122969
0.0123763
0.012669
0.0141613
0.0100753
0.0105703
0.00967927
0.00987777
0.00997052
0.00955379
0.00949226
0.00957669
0.00957067
0.00969561
0.00974552
0.0104806
0.0103686
0.010344
0.0102669
0.0102479
0.0102712
0.0102862
0.0102942
0.0105042
0.0105002
0.0103721
0.0103666
0.0103712
0.0112138
0.0111282
0.0110167
0.0109716
0.011159
0.0106974
0.0110877
0.0102337
0.0101918
0.012767
0.01273
0.0127481
0.012875
0.0130305
0.0129797
0.0128955
0.0126341
0.0125757
0.012539
0.0125018
0.0124507
0.0123979
0.0123478
0.0123183
0.012428
0.0133676
0.0124682
0.0122572
0.0122055
0.0121683
0.0120889
0.0120239
0.011971
0.0119563
0.0120295
0.0118672
0.0119198
0.0119191
0.0125015
0.011651
0.0116752
0.0116063
0.0116019
0.0116052
0.0116075
0.0116205
0.0116307
0.0116317
0.0116329
0.0116399
0.0117382
0.0119126
0.0108741
0.0108141
0.0107918
0.0107844
0.0108866
0.0110476
0.0109932
0.013903
0.0138225
0.0138017
0.0138504
0.0138159
0.0137557
0.013783
0.014389
0.013376
0.0132159
0.0132353
0.0130815
0.0130477
0.0130056
0.012941
0.0139946
0.0136063
0.0133767
0.0133402
0.0132634
0.0129011
0.0127953
0.0127245
0.01273
0.0125631
0.0137469
0.0134987
0.0133272
0.0132548
0.0131925
0.013132
0.0131702
0.013125
0.0130529
0.0132977
0.0132505
0.0131731
0.0131303
0.0130904
0.0130522
0.0130476
0.0130095
0.013042
0.0131066
0.0122563
0.0121692
0.0121257
0.0121214
0.0123108
0.012253
0.0157394
0.0144794
0.0144265
0.0143227
0.014151
0.014143
0.0141316
0.0145067
0.0141093
0.0140457
0.0140185
0.0140059
0.0140591
0.0150726
0.0148683
0.0147599
0.0147201
0.014548
0.0149914
0.0150282
0.0151076
0.0142397
0.0141877
0.0144708
0.014651
0.0147009
0.0149019
0.0141622
0.0140651
0.0139948
0.0139381
0.01388
0.0138711
0.0139323
0.0137518
0.0144561
0.0139325
0.0138229
0.0137488
0.0136765
0.0136353
0.0135609
0.0147132
0.014053
0.0139102
0.0138343
0.0137619
0.0136906
0.0136219
0.0135536
0.0158572
0.0159315
0.0159897
0.0160782
0.0163322
0.0171466
0.0148871
0.0148589
0.01488
0.0148978
0.0154229
0.0154072
0.0154152
0.0162054
0.0155803
0.0155187
0.0155236
0.0155175
0.0154995
0.0157916
0.015522
0.015942
0.0158098
0.0156831
0.0156583
0.0157967
0.0156356
0.0157039
0.0161174
0.0149077
0.0147948
0.0147482
0.014709
0.0147668
0.0145539
0.0155403
0.0148838
0.0147901
0.0147342
0.0146887
0.0146726
0.014732
0.0145871
0.0145203
0.0144587
0.0143971
0.0143364
0.0142753
0.0142139
0.0141513
0.0182486
0.0181873
0.0181385
0.0181428
0.0182671
0.018857
0.0176341
0.0174671
0.0174356
0.016886
0.0176487
0.0164677
0.0165741
0.016518
0.0165138
0.0165129
0.0165337
0.016482
0.0163303
0.0162917
0.0162594
0.0164425
0.0165474
0.0171678
0.0166087
0.0165968
0.0165626
0.0165922
0.01667
0.0166457
0.0158544
0.0157115
0.0156404
0.0156183
0.0156257
0.0161984
0.0158731
0.0157651
0.01571
0.0156536
0.0155936
0.0155337
0.0154739
0.0154126
0.0153496
0.0152845
0.0152174
0.0151487
0.0150788
0.0150073
0.000376256
0.000376747
0.00037698
0.000377116
0.000377232
0.000377326
0.000377389
0.000377416
0.000377407
0.000377358
0.000377269
0.000377136
0.000376961
0.000376747
0.000376497
0.000376215
0.000375902
0.000375561
0.000375189
0.000374786
0.000374352
0.000373884
0.000373381
0.000372844
0.000372272
0.000371667
0.000371031
0.000370366
0.000369672
0.000368953
0.00036821
0.000367443
0.000366654
0.000365844
0.000365012
0.000364161
0.000363291
0.000362403
0.000361495
0.000360567
0.000359617
0.000358642
0.000357636
0.000356595
0.000355514
0.000354394
0.000353233
0.000352034
0.000350804
0.00034955
0.000348279
0.000346995
0.000345694
0.00034437
0.00034301
0.000341605
0.00034015
0.000338654
0.000337142
0.000335645
0.000334192
0.000332767
0.000331386
0.000330039
0.000328708
0.000327388
0.000326114
0.000324974
0.000324033
0.000323228
0.000322397
0.000321223
0.000319734
0.000318226
0.000316777
0.000315529
0.000314402
0.000313114
0.000311833
0.000310734
0.000309926
0.000308424
0.000306212
0.000304183
0.000302105
0.000300415
0.000298857
0.000297036
0.000294934
0.000293127
0.000291429
0.000289776
0.000288282
0.000286968
0.000285703
0.000290584
0.000287783
0.000286031
0.000282469
0.000282927
0.000273981
0.000272348
0.000267075
0.000266216
0.000259269
0.000265138
0.000266426
0.000238294
0.000234661
0.000231343
0.000223496
0.000213544
0.000203639
0.000194972
0.000185311
0.000177373
0.000170016
0.000150915
0.000140024
0.000128855
0.000118208
0.000101516
8.91001e-05
7.68182e-05
6.33566e-05
5.00738e-05
3.6894e-05
2.3425e-05
9.65286e-06
-4.38499e-06
-1.88573e-05
-3.35691e-05
-4.82707e-05
-6.30368e-05
-7.84504e-05
-9.38623e-05
-0.0001092
-0.000124365
-0.000139525
-0.00015464
-0.000170077
-0.000184155
-0.000200134
-0.000206671
-0.000225761
-0.000235377
-0.000260819
-0.000275016
-0.000249804
-0.00029164
-0.000295682
-0.000316077
-0.000244782
-0.000330498
-0.000340798
-0.000313412
-0.000337873
-0.000332645
-0.000329882
-0.000272945
-0.000310321
-0.000298211
-0.000328299
-0.000304658
-0.000313739
-0.000322093
-0.000320304
-0.000308038
-0.000313199
-0.000307915
-0.000302515
-0.000296917
-0.000282214
-0.000246783
-0.000310735
-0.000304263
-0.000287022
-0.000268998
-0.000254019
-0.000243764
-0.000233932
-0.000222983
-0.000213954
-0.000203121
-0.000191334
-0.000178773
-0.00016533
-0.000151711
-0.000137033
-0.000121236
-0.000105079
-8.63026e-05
-4.4367e-05
-1.95245e-05
-0.000117019
-8.81495e-05
-6.15277e-05
-3.99721e-05
-2.20304e-05
-6.54728e-06
7.84412e-06
1.63206e-05
2.67952e-05
3.58843e-05
4.38718e-05
0.000220627
0.000169994
0.000181381
0.000186255
0.000197695
0.000209636
0.000221601
0.000232447
0.000243718
0.000256296
0.000269036
0.000287669
0.000283244
0.000280242
0.000290507
0.000306262
0.000320853
0.000331436
0.000342411
0.000353026
0.000364818
0.00037367
0.000384446
0.000392581
0.000399753
0.000408169
0.000416534
0.00042464
0.00043218
0.000438947
0.000445131
0.000451259
0.000457466
0.000463429
0.000469336
0.000475086
0.000480589
0.00048585
0.000490885
0.0004957
0.000500301
0.00050469
0.000508894
0.0005129
0.000516667
0.000520164
0.000523365
0.000526245
0.000528777
0.000530937
0.000532704
0.000534057
0.000534981
0.00053546
0.000535485
0.000535049
0.000534148
0.00053278
0.000530946
0.000528647
0.000525885
0.000522664
0.000518988
0.000514859
0.000510281
0.000505257
0.00049979
0.000493881
0.000487532
0.000480742
0.00047351
0.000465836
0.000457715
0.000449144
0.000440117
0.000430627
0.000420665
0.00041022
0.000399279
0.000387826
0.000375841
0.000363303
0.000350182
0.000336448
0.000322059
0.00030697
0.000291124
0.000274455
0.000256887
0.000238333
0.000218696
0.000197854
0.00017567
0.000152188
0.000128259
0.000631097
0.000627755
0.000624586
0.000621404
0.000618162
0.000614858
0.000611502
0.000608095
0.000604634
0.000601117
0.000597544
0.000593922
0.000590258
0.00058656
0.000582834
0.000579082
0.000575304
0.000571496
0.000567659
0.00056379
0.000559889
0.000555956
0.000551993
0.000548006
0.000543998
0.000539975
0.00053594
0.000531898
0.000527849
0.000523794
0.000519732
0.000515661
0.00051158
0.00050749
0.000503396
0.000499299
0.000495195
0.000491076
0.000486937
0.00048278
0.000478602
0.000474396
0.000470157
0.00046588
0.000461563
0.000457208
0.000452829
0.000448449
0.000444096
0.0004398
0.000435572
0.000431398
0.000427241
0.00042307
0.00041889
0.000414743
0.000410685
0.000406785
0.000403196
0.000400004
0.000397137
0.000394768
0.00039264
0.000390618
0.000388661
0.000386823
0.000385137
0.000383214
0.000380992
0.000378957
0.000377212
0.000375706
0.000374871
0.000375118
0.00037515
0.000376612
0.000376158
0.000377311
0.000378577
0.000380508
0.000385192
0.000387377
0.000391766
0.000397048
0.000398027
0.000406296
0.000413817
0.000422929
0.000429703
0.000439877
0.000451872
0.000469184
0.000484331
0.000508625
0.000666247
0.000344722
0.000366654
0.000405945
0.000430411
0.000427162
0.0004496
0.000464882
0.000471985
0.000501207
0.000529196
0.00119061
0.000208413
0.000236594
0.000251792
0.000260699
0.000280688
0.000306287
0.000324606
0.000344221
0.000736892
0.000407324
0.000440251
0.000422132
0.000461164
0.000484778
0.000504793
0.000490495
0.00050579
0.000513908
0.000523986
0.000535177
0.000548659
0.000561571
0.000574832
0.000587496
0.000599962
0.00061141
0.000630378
0.000640902
0.000654161
0.000670109
0.000681263
0.000698858
0.000699839
0.00071338
0.000727293
0.000737199
0.000751182
0.000861798
0.000796
0.000819799
0.000783637
0.000798044
0.000884772
0.000830522
0.000874755
0.000940546
0.0012889
0.000976791
0.000890431
0.00098851
0.00135213
0.00100359
0.00108209
0.0010813
0.00101698
0.00103913
0.00102898
0.00104168
0.00118365
0.00113371
0.00113046
0.00113537
0.00114337
0.00114586
0.00114761
0.00115052
0.00115543
0.00115384
0.00117238
0.00132597
0.00130009
0.00128081
0.0012671
0.00125502
0.00125304
0.00124977
0.00124706
0.00124549
0.00124549
0.00124558
0.00124546
0.00124561
0.00124773
0.00125142
0.00124783
0.00124992
0.00125021
0.00124244
0.00125878
0.00130536
0.00128449
0.00126851
0.00125976
0.00125803
0.00126207
0.00126008
0.00125896
0.00126008
0.00126373
0.00126584
0.0012764
0.00131162
0.00132466
0.00119461
0.00120037
0.00122439
0.0012365
0.00124315
0.00124918
0.00125621
0.00126314
0.00126926
0.00128741
0.00129757
0.00119914
0.00120078
0.00121865
0.00122725
0.00123131
0.0012355
0.00123743
0.00123647
0.0012765
0.00125354
0.00124596
0.00124801
0.00124946
0.00124853
0.0012463
0.00124607
0.00124679
0.00123746
0.00123356
0.00123074
0.00122796
0.00122512
0.00122202
0.00121845
0.00121436
0.0012097
0.00120457
0.0011991
0.00119347
0.00118766
0.00118159
0.00117522
0.00116855
0.00116159
0.00115437
0.00114689
0.00113917
0.00113122
0.00112305
0.00111467
0.00110608
0.00109728
0.00108829
0.00107909
0.00106969
0.00106009
0.00105028
0.00104027
0.00103003
0.00101956
0.00100885
0.000997876
0.00098663
0.000975091
0.000963237
0.000951044
0.000938484
0.000925526
0.000912134
0.000898269
0.000883885
0.000868929
0.000853344
0.000837063
0.00082001
0.000802098
0.00078323
0.000763294
0.000742166
0.000719703
0.000695745
0.000670113
0.000642613
0.000613031
0.000581148
0.000546739
0.000509571
0.000469426
0.000426491
0.00038255
0.00127124
0.00126846
0.00126535
0.0012621
0.00125878
0.00125537
0.00125186
0.00124826
0.00124453
0.00124069
0.00123675
0.00123273
0.00122865
0.0012245
0.00122029
0.00121601
0.00121165
0.00120722
0.00120271
0.00119812
0.00119347
0.00118875
0.00118396
0.00117912
0.00117424
0.0011693
0.00116432
0.0011593
0.00115423
0.00114911
0.00114392
0.00113866
0.00113334
0.00112798
0.00112259
0.00111719
0.00111171
0.00110613
0.00110043
0.00109464
0.00108879
0.00108285
0.00107682
0.00107067
0.00106436
0.00105791
0.0010514
0.0010449
0.00103845
0.00103209
0.0010258
0.00101935
0.0010126
0.00100558
0.000998474
0.000991402
0.000984115
0.000976617
0.000970133
0.000968302
0.000971636
0.000952495
0.00094317
0.000934309
0.000925013
0.000916076
0.000906835
0.000897529
0.000888427
0.000878579
0.000868348
0.000858814
0.000869276
0.000891437
0.00114874
0.000855389
0.000792143
0.000770083
0.000775167
0.00074744
0.000750692
0.000722861
0.000719113
0.00112291
0.000613522
0.000504966
0.00050333
0.000500739
0.000464542
0.000462825
0.000455984
0.000447122
0.00241773
0.000736482
0.000727743
0.000729123
0.000728613
0.00072864
0.000726319
0.000727658
0.000730113
0.00073925
0.000736211
0.000750767
0.00171897
0.000958934
0.000946726
0.000950313
0.000958725
0.000963902
0.000972888
0.00125004
0.0012561
0.00126068
0.00130798
0.00171325
0.000728184
0.000755822
0.000445919
0.000934244
0.000191569
5.80579e-05
9.26346e-05
6.97436e-05
0.000120266
0.000140185
0.00020456
0.000210349
0.000238253
0.000267447
0.000300901
0.000335018
0.000395405
0.000378992
0.000442366
0.000381824
0.000404514
0.000434692
0.000379152
0.000548457
0.000515805
0.000408809
0.000585095
0.00102344
0.000799447
0.000829231
0.000967502
0.000743995
0.000756516
0.000761702
0.000762816
0.000770819
0.00082864
0.000793343
0.000792632
0.000805816
0.001057
0.000925814
0.000924414
0.000934826
0.00094946
0.000960406
0.000970635
0.000981711
0.000996576
0.00121338
0.00122791
0.00119404
0.00121113
0.00123003
0.0012519
0.00127188
0.00129301
0.00131878
0.00134308
0.00134316
0.00138493
0.00150834
0.00156345
0.00124488
0.00122257
0.00124557
0.00126882
0.00129683
0.00131988
0.00134081
0.00136184
0.00138493
0.00142942
0.00150468
0.00147258
0.00149502
0.00152057
0.00154951
0.00157205
0.00157794
0.00160476
0.00169781
0.00173992
0.00148104
0.0015048
0.00152655
0.00154406
0.00156219
0.00157925
0.00159672
0.00161523
0.00162531