/*--------------------------------*- C++ -*----------------------------------*\
| =========                 |                                                 |
| \\      /  F ield         | OpenFOAM: The Open Source CFD Toolbox           |
|  \\    /   O peration     | Version:  2.4.0                                 |
|   \\  /    A nd           | Web:      www.OpenFOAM.org                      |
|    \\/     M anipulation  |                                                 |
\*---------------------------------------------------------------------------*/
FoamFile
{
    version     2.0;
    format      ascii;
    class       surfaceScalarField;
    location    "3";
    object      phi;
}
// * * * * * * * * * * * * * * * * * * * * * * * * * * * * * * * * * * * * * //

dimensions      [0 3 -1 0 0 0 0];

internalField   nonuniform List<scalar> 
15580
(
-1.80458e-14
-2.22975e-12
-6.09531e-14
-6.54851e-12
-1.23206e-13
-1.07247e-11
-2.02227e-13
-1.47574e-11
-2.9575e-13
-1.86467e-11
-4.01775e-13
-2.23928e-11
-5.18525e-13
-2.59957e-11
-6.44414e-13
-2.94554e-11
-7.78014e-13
-3.27721e-11
-9.18018e-13
-3.59457e-11
-1.06322e-12
-3.89764e-11
-1.21249e-12
-4.18642e-11
-1.36475e-12
-4.4609e-11
-1.51894e-12
-4.7211e-11
-1.674e-12
-4.96701e-11
-1.82889e-12
-5.19863e-11
-1.98249e-12
-5.41597e-11
-2.13365e-12
-5.61902e-11
-2.28113e-12
-5.80778e-11
-2.42357e-12
-5.98226e-11
-2.5595e-12
-6.14244e-11
-2.68727e-12
-6.28832e-11
-2.80503e-12
-6.4199e-11
-2.9107e-12
-6.53717e-11
-3.00194e-12
-6.64013e-11
-3.07605e-12
-6.72877e-11
-3.13024e-12
-6.80308e-11
-3.16158e-12
-6.86301e-11
-3.16548e-12
-6.90852e-11
-3.13049e-12
-6.93974e-11
-3.97604e-12
-6.95743e-11
-2.84006e-11
-6.96534e-11
-2.82868e-11
-6.96238e-11
-2.89961e-11
-6.83885e-11
-2.9822e-11
-6.75476e-11
-3.07858e-11
-6.69577e-11
-3.19098e-11
-6.66707e-11
-3.31862e-11
-6.66979e-11
-3.4599e-11
-6.702e-11
-3.61345e-11
-6.76069e-11
-3.77826e-11
-6.84276e-11
-3.95355e-11
-6.94522e-11
-4.13867e-11
-7.06522e-11
-4.33307e-11
-7.20009e-11
-4.53631e-11
-7.3473e-11
-4.748e-11
-7.50452e-11
-4.96784e-11
-7.66958e-11
-5.19555e-11
-7.84049e-11
-5.43091e-11
-8.01547e-11
-8.1929e-11
-5.67373e-11
-1.15209e-14
-2.21823e-12
-4.69509e-14
-6.51308e-12
-1.0486e-13
-1.06667e-11
-1.8283e-13
-1.46794e-11
-2.78679e-13
-1.85509e-11
-3.90419e-13
-2.2281e-11
-5.16234e-13
-2.58698e-11
-6.54443e-13
-2.93172e-11
-8.03491e-13
-3.2623e-11
-9.61911e-13
-3.57873e-11
-1.12832e-12
-3.881e-11
-1.30137e-12
-4.16911e-11
-1.47978e-12
-4.44306e-11
-1.66226e-12
-4.70285e-11
-1.84751e-12
-4.94848e-11
-2.03423e-12
-5.17996e-11
-2.22107e-12
-5.39729e-11
-2.40661e-12
-5.60047e-11
-2.58936e-12
-5.78951e-11
-2.7677e-12
-5.96442e-11
-2.93991e-12
-6.12522e-11
-3.1041e-12
-6.2719e-11
-3.25821e-12
-6.40449e-11
-3.39996e-12
-6.523e-11
-3.52684e-12
-6.62745e-11
-3.63608e-12
-6.71785e-11
-3.72455e-12
-6.79423e-11
-3.78851e-12
-6.85662e-11
-3.82337e-12
-6.90504e-11
-3.82514e-12
-6.93956e-11
-5.14275e-12
-6.96028e-11
-2.92501e-11
-6.96966e-11
-2.91783e-11
-6.96956e-11
-2.9204e-11
-6.83628e-11
-2.9503e-11
-6.72486e-11
-3.00151e-11
-6.64456e-11
-3.07234e-11
-6.59623e-11
-3.16245e-11
-6.57967e-11
-3.27151e-11
-6.59294e-11
-3.399e-11
-6.6332e-11
-3.54438e-11
-6.69738e-11
-3.7071e-11
-6.7825e-11
-3.88661e-11
-6.88571e-11
-4.0824e-11
-7.00429e-11
-4.29399e-11
-7.13572e-11
-4.52088e-11
-7.27762e-11
-4.76265e-11
-7.42781e-11
-5.01886e-11
-7.58428e-11
-5.28912e-11
-7.74522e-11
-7.90897e-11
-5.57304e-11
-5.57295e-15
-2.21266e-12
-2.10502e-14
-6.4976e-12
-4.58949e-14
-1.06419e-11
-7.98976e-14
-1.46454e-11
-1.22807e-13
-1.85079e-11
-1.74344e-13
-2.22295e-11
-2.34212e-13
-2.581e-11
-3.02099e-13
-2.92493e-11
-3.77685e-13
-3.25474e-11
-4.60648e-13
-3.57044e-11
-5.50661e-13
-3.872e-11
-6.47401e-13
-4.15944e-11
-7.50545e-13
-4.43275e-11
-8.59773e-13
-4.69193e-11
-9.74769e-13
-4.93698e-11
-1.09522e-12
-5.16791e-11
-1.22082e-12
-5.38473e-11
-1.35127e-12
-5.58742e-11
-1.48626e-12
-5.77601e-11
-1.62551e-12
-5.9505e-11
-1.76874e-12
-6.11089e-11
-1.91568e-12
-6.25721e-11
-2.06609e-12
-6.38945e-11
-2.21972e-12
-6.50764e-11
-2.37638e-12
-6.61178e-11
-2.53593e-12
-6.7019e-11
-2.69825e-12
-6.778e-11
-2.86329e-12
-6.84011e-11
-3.03122e-12
-6.88824e-11
-3.20245e-12
-6.92243e-11
-4.86669e-12
-6.94275e-11
-2.87722e-11
-6.95205e-11
-2.89492e-11
-6.95186e-11
-2.94504e-11
-6.78616e-11
-3.01425e-11
-6.65565e-11
-3.1031e-11
-6.55572e-11
-3.21185e-11
-6.48748e-11
-3.3406e-11
-6.45092e-11
-3.48926e-11
-6.44428e-11
-3.65759e-11
-6.46487e-11
-3.84525e-11
-6.50972e-11
-4.05182e-11
-6.57594e-11
-4.27682e-11
-6.6607e-11
-4.51977e-11
-6.76135e-11
-4.78014e-11
-6.87535e-11
-5.05742e-11
-7.00034e-11
-5.35111e-11
-7.13412e-11
-5.66072e-11
-7.27468e-11
-5.98576e-11
-7.42017e-11
-7.56895e-11
-6.32578e-11
-3.0186e-15
-2.20964e-12
-1.21316e-14
-6.48849e-12
-2.74325e-14
-1.06266e-11
-4.90404e-14
-1.46238e-11
-7.71067e-14
-1.84799e-11
-1.11807e-13
-2.21948e-11
-1.5334e-13
-2.57684e-11
-2.01923e-13
-2.92007e-11
-2.57792e-13
-3.24916e-11
-3.21197e-13
-3.56409e-11
-3.92403e-13
-3.86488e-11
-4.71688e-13
-4.15151e-11
-5.59341e-13
-4.42398e-11
-6.55663e-13
-4.6823e-11
-7.60959e-13
-4.92645e-11
-8.75548e-13
-5.15646e-11
-9.99739e-13
-5.37231e-11
-1.13386e-12
-5.57401e-11
-1.2782e-12
-5.76158e-11
-1.43308e-12
-5.93501e-11
-1.59877e-12
-6.09432e-11
-1.77554e-12
-6.23953e-11
-1.96359e-12
-6.37064e-11
-2.16313e-12
-6.48768e-11
-2.37425e-12
-6.59067e-11
-2.59704e-12
-6.67962e-11
-2.83145e-12
-6.75456e-11
-3.07747e-12
-6.81551e-11
-3.33473e-12
-6.86252e-11
-3.60243e-12
-6.89567e-11
-6.21444e-12
-6.91514e-11
-2.9208e-11
-6.92397e-11
-2.94887e-11
-6.92379e-11
-2.98896e-11
-6.74607e-11
-3.04962e-11
-6.59499e-11
-3.13106e-11
-6.47427e-11
-3.23364e-11
-6.3849e-11
-3.35772e-11
-6.32684e-11
-3.50351e-11
-6.2985e-11
-3.67103e-11
-6.29734e-11
-3.86016e-11
-6.3206e-11
-4.0706e-11
-6.3655e-11
-4.30196e-11
-6.42934e-11
-4.55379e-11
-6.50952e-11
-4.82557e-11
-6.60357e-11
-5.11676e-11
-6.70914e-11
-5.42683e-11
-6.82405e-11
-5.75522e-11
-6.94629e-11
-6.10138e-11
-7.07402e-11
-7.20557e-11
-6.46476e-11
4.46004e-15
-2.2141e-12
1.57454e-14
-6.49977e-12
3.1955e-14
-1.06428e-11
5.13588e-14
-1.46432e-11
7.2366e-14
-1.85009e-11
9.34999e-14
-2.22159e-11
1.13377e-13
-2.57883e-11
1.30687e-13
-2.9218e-11
1.44173e-13
-3.25051e-11
1.52617e-13
-3.56494e-11
1.54812e-13
-3.8651e-11
1.49561e-13
-4.15098e-11
1.35636e-13
-4.42259e-11
1.11798e-13
-4.67991e-11
7.67269e-14
-4.92295e-11
2.90794e-14
-5.15169e-11
-3.2624e-14
-5.36614e-11
-1.09891e-13
-5.56628e-11
-2.04436e-13
-5.75212e-11
-3.17993e-13
-5.92365e-11
-4.52591e-13
-6.08086e-11
-6.1027e-13
-6.22376e-11
-7.93473e-13
-6.35232e-11
-1.00463e-12
-6.46657e-11
-1.2467e-12
-6.56646e-11
-1.52266e-12
-6.65202e-11
-1.83631e-12
-6.72319e-11
-2.19163e-12
-6.77998e-11
-2.59307e-12
-6.82237e-11
-3.04177e-12
-6.8508e-11
-6.99438e-12
-6.86617e-11
-2.84524e-11
-6.87036e-11
-2.90235e-11
-6.86668e-11
-2.97387e-11
-6.67455e-11
-3.05646e-11
-6.51239e-11
-3.15258e-11
-6.37816e-11
-3.2644e-11
-6.27308e-11
-3.39358e-11
-6.19767e-11
-3.54126e-11
-6.15082e-11
-3.70816e-11
-6.13044e-11
-3.89466e-11
-6.1341e-11
-4.10087e-11
-6.15928e-11
-4.32674e-11
-6.20347e-11
-4.57206e-11
-6.2642e-11
-4.83656e-11
-6.33907e-11
-5.11988e-11
-6.42582e-11
-5.42163e-11
-6.5223e-11
-5.74136e-11
-6.62656e-11
-6.07863e-11
-6.73676e-11
-6.85126e-11
-6.43293e-11
2.91825e-15
-2.21702e-12
8.79226e-15
-6.50565e-12
1.57989e-14
-1.06498e-11
2.26997e-14
-1.46501e-11
2.84046e-14
-1.85066e-11
3.19474e-14
-2.22195e-11
3.24644e-14
-2.57888e-11
2.9178e-14
-2.92147e-11
2.13754e-14
-3.24973e-11
8.39642e-15
-3.56364e-11
-1.03894e-14
-3.86322e-11
-3.55894e-14
-4.14846e-11
-6.78168e-14
-4.41937e-11
-1.07689e-13
-4.67592e-11
-1.55869e-13
-4.91813e-11
-2.1305e-13
-5.14597e-11
-2.80018e-13
-5.35944e-11
-3.57617e-13
-5.55852e-11
-4.46842e-13
-5.7432e-11
-5.48772e-13
-5.91346e-11
-6.64712e-13
-6.06927e-11
-7.9608e-13
-6.21062e-11
-9.44619e-13
-6.33747e-11
-1.11223e-12
-6.44981e-11
-1.30126e-12
-6.54756e-11
-1.51403e-12
-6.63074e-11
-1.75309e-12
-6.69929e-11
-2.0214e-12
-6.75315e-11
-2.327e-12
-6.79181e-11
-2.68876e-12
-6.81462e-11
-9.48408e-12
-6.82197e-11
-2.65349e-11
-6.82741e-11
-2.6993e-11
-6.82086e-11
-2.75294e-11
-6.62092e-11
-2.81675e-11
-6.44858e-11
-2.89266e-11
-6.30225e-11
-2.98142e-11
-6.18432e-11
-3.08377e-11
-6.09531e-11
-3.2005e-11
-6.03409e-11
-3.33231e-11
-5.99863e-11
-3.4798e-11
-5.98661e-11
-3.64345e-11
-5.99563e-11
-3.82359e-11
-6.02333e-11
-4.02043e-11
-6.06736e-11
-4.23402e-11
-6.12548e-11
-4.46433e-11
-6.19551e-11
-4.7112e-11
-6.27543e-11
-4.97442e-11
-6.36334e-11
-5.2537e-11
-6.45748e-11
-6.55626e-11
-5.5487e-11
-1.4847e-14
-2.20217e-12
-5.63084e-14
-6.46419e-12
-1.21878e-13
-1.05843e-11
-2.09451e-13
-1.45625e-11
-3.17155e-13
-1.83989e-11
-4.43295e-13
-2.20933e-11
-5.86339e-13
-2.56458e-11
-7.44867e-13
-2.90562e-11
-9.17561e-13
-3.23246e-11
-1.10316e-12
-3.54508e-11
-1.30045e-12
-3.84349e-11
-1.50822e-12
-4.12769e-11
-1.72525e-12
-4.39766e-11
-1.95029e-12
-4.65342e-11
-2.18201e-12
-4.89496e-11
-2.41904e-12
-5.12227e-11
-2.65984e-12
-5.33536e-11
-2.90285e-12
-5.53422e-11
-3.1462e-12
-5.71886e-11
-3.38803e-12
-5.88928e-11
-3.62605e-12
-6.04547e-11
-3.85799e-12
-6.18743e-11
-4.08094e-12
-6.31517e-11
-4.29206e-12
-6.42869e-11
-4.48763e-12
-6.528e-11
-4.66426e-12
-6.61308e-11
-4.81785e-12
-6.68393e-11
-4.94392e-12
-6.74054e-11
-5.03051e-12
-6.78316e-11
-5.05271e-12
-6.8124e-11
-4.02006e-11
-6.83e-11
-4.04004e-11
-6.82784e-11
-4.03496e-11
-6.82594e-11
-4.02408e-11
-6.63179e-11
-4.00958e-11
-6.46308e-11
-3.99294e-11
-6.31888e-11
-3.97608e-11
-6.20118e-11
-3.96075e-11
-6.11065e-11
-3.94877e-11
-6.04607e-11
-3.94211e-11
-6.00529e-11
-3.94272e-11
-5.986e-11
-3.95238e-11
-5.98598e-11
-3.97261e-11
-6.00309e-11
-4.00468e-11
-6.0353e-11
-4.04953e-11
-6.08063e-11
-4.10789e-11
-6.13715e-11
-4.18027e-11
-6.20305e-11
-4.26699e-11
-6.27661e-11
-4.36826e-11
-6.35621e-11
-6.44038e-11
-4.48414e-11
-1.66012e-14
-2.18557e-12
-6.11046e-14
-6.41968e-12
-1.30417e-13
-1.05149e-11
-2.22671e-13
-1.44703e-11
-3.36269e-13
-1.82853e-11
-4.69861e-13
-2.19597e-11
-6.22289e-13
-2.54934e-11
-7.92585e-13
-2.88859e-11
-9.79907e-13
-3.21372e-11
-1.18355e-12
-3.52472e-11
-1.40286e-12
-3.82156e-11
-1.63731e-12
-4.10424e-11
-1.88634e-12
-4.37276e-11
-2.14945e-12
-4.62711e-11
-2.42611e-12
-4.86729e-11
-2.71576e-12
-5.0933e-11
-3.01774e-12
-5.30516e-11
-3.33135e-12
-5.50286e-11
-3.65571e-12
-5.68643e-11
-3.98981e-12
-5.85587e-11
-4.33238e-12
-6.01121e-11
-4.68199e-12
-6.15247e-11
-5.03679e-12
-6.27969e-11
-5.39473e-12
-6.3929e-11
-5.75316e-12
-6.49216e-11
-6.10903e-12
-6.57749e-11
-6.45828e-12
-6.649e-11
-6.7962e-12
-6.70675e-11
-7.11868e-12
-6.75091e-11
-7.6298e-12
-6.7815e-11
-3.65061e-11
-6.80078e-11
-3.67428e-11
-6.80418e-11
-3.70096e-11
-6.79926e-11
-3.69816e-11
-6.63459e-11
-3.66098e-11
-6.50027e-11
-3.59606e-11
-6.3838e-11
-3.50906e-11
-6.28817e-11
-3.40506e-11
-6.21466e-11
-3.28859e-11
-6.16253e-11
-3.16375e-11
-6.13013e-11
-3.03413e-11
-6.11562e-11
-2.90288e-11
-6.11722e-11
-2.77273e-11
-6.13324e-11
-2.64602e-11
-6.16201e-11
-2.52476e-11
-6.20188e-11
-2.41068e-11
-6.25123e-11
-2.30525e-11
-6.30848e-11
-2.20972e-11
-6.37214e-11
-2.12516e-11
-6.44077e-11
-6.51307e-11
-2.05247e-11
1.0149e-14
-2.19572e-12
3.45684e-14
-6.4441e-12
6.93943e-14
-1.05498e-11
1.11956e-13
-1.45128e-11
1.59814e-13
-1.83331e-11
2.10715e-13
-2.20106e-11
2.62546e-13
-2.55452e-11
3.13307e-13
-2.89367e-11
3.61055e-13
-3.2185e-11
4.03896e-13
-3.529e-11
4.39916e-13
-3.82516e-11
4.67198e-13
-4.10697e-11
4.83715e-13
-4.37441e-11
4.87396e-13
-4.62748e-11
4.75959e-13
-4.86615e-11
4.4704e-13
-5.09041e-11
3.9794e-13
-5.30025e-11
3.25844e-13
-5.49565e-11
2.27436e-13
-5.67659e-11
9.92621e-14
-5.84305e-11
-6.28692e-14
-5.995e-11
-2.63297e-13
-6.13243e-11
-5.07408e-13
-6.25528e-11
-8.00737e-13
-6.36357e-11
-1.15037e-12
-6.4572e-11
-1.5638e-12
-6.53615e-11
-2.05101e-12
-6.60028e-11
-2.62071e-12
-6.64978e-11
-3.27753e-12
-6.68523e-11
-4.72532e-12
-6.70798e-11
-3.18497e-11
-6.71753e-11
-3.27408e-11
-6.71506e-11
-3.36729e-11
-6.70606e-11
-3.37184e-11
-6.63004e-11
-3.31172e-11
-6.56039e-11
-3.19366e-11
-6.50185e-11
-3.02507e-11
-6.45676e-11
-2.81355e-11
-6.42618e-11
-2.56639e-11
-6.40969e-11
-2.29026e-11
-6.40626e-11
-1.99119e-11
-6.41469e-11
-1.67461e-11
-6.4338e-11
-1.34549e-11
-6.46237e-11
-1.00835e-11
-6.49916e-11
-6.67334e-12
-6.5429e-11
-3.26264e-12
-6.5923e-11
1.1355e-13
-6.6461e-11
3.42291e-12
-6.70307e-11
6.63557e-12
-6.76204e-11
-6.8219e-11
9.72387e-12
2.00545e-14
-2.21577e-12
7.54865e-14
-6.49953e-12
1.61535e-13
-1.06358e-11
2.73622e-13
-1.46249e-11
4.07554e-13
-1.84671e-11
5.59464e-13
-2.21626e-11
7.25754e-13
-2.57115e-11
9.03061e-13
-2.9114e-11
1.0882e-12
-3.23701e-11
1.27814e-12
-3.548e-11
1.46996e-12
-3.84434e-11
1.66082e-12
-4.12606e-11
1.84792e-12
-4.39312e-11
2.02846e-12
-4.64553e-11
2.19963e-12
-4.88326e-11
2.35858e-12
-5.10631e-11
2.50235e-12
-5.31463e-11
2.62786e-12
-5.5082e-11
2.73186e-12
-5.68699e-11
2.81092e-12
-5.85096e-11
2.86133e-12
-6.00004e-11
2.87906e-12
-6.1342e-11
2.85969e-12
-6.25335e-11
2.79836e-12
-6.35743e-11
2.68998e-12
-6.44636e-11
2.5297e-12
-6.52012e-11
2.31153e-12
-6.57847e-11
2.0205e-12
-6.62068e-11
1.61965e-12
-6.64514e-11
9.95016e-13
-6.65235e-11
-2.30547e-11
-6.66405e-11
-2.36328e-11
-6.65725e-11
-2.40456e-11
-6.66478e-11
-2.36001e-11
-6.67459e-11
-2.23643e-11
-6.68396e-11
-2.04041e-11
-6.69788e-11
-1.77906e-11
-6.71811e-11
-1.46066e-11
-6.74457e-11
-1.09379e-11
-6.77657e-11
-6.86776e-12
-6.81327e-11
-2.47576e-12
-6.85389e-11
2.16272e-12
-6.89765e-11
6.97631e-12
-6.94373e-11
1.18973e-11
-6.99126e-11
1.68617e-11
-7.03934e-11
2.18089e-11
-7.08701e-11
2.66814e-11
-7.13335e-11
3.14248e-11
-7.17742e-11
3.59875e-11
-7.21831e-11
-7.25517e-11
4.03202e-11
-1.11341e-15
-2.21466e-12
-6.71909e-15
-6.49393e-12
-1.68838e-14
-1.06256e-11
-3.08946e-14
-1.46109e-11
-4.85178e-14
-1.84495e-11
-6.99473e-14
-2.21411e-11
-9.56698e-14
-2.56858e-11
-1.26476e-13
-2.90832e-11
-1.63297e-13
-3.23333e-11
-2.0727e-13
-3.5436e-11
-2.59524e-13
-3.83912e-11
-3.21305e-13
-4.11988e-11
-3.937e-13
-4.38588e-11
-4.77841e-13
-4.63712e-11
-5.74516e-13
-4.8736e-11
-6.84498e-13
-5.09531e-11
-8.07987e-13
-5.30228e-11
-9.45118e-13
-5.49449e-11
-1.09515e-12
-5.67198e-11
-1.25724e-12
-5.83475e-11
-1.42927e-12
-5.98284e-11
-1.60896e-12
-6.11623e-11
-1.79218e-12
-6.23502e-11
-1.97471e-12
-6.33918e-11
-2.15018e-12
-6.42881e-11
-2.31326e-12
-6.50381e-11
-2.45379e-12
-6.56441e-11
-2.54975e-12
-6.61108e-11
-2.54571e-12
-6.64555e-11
-4.82936e-11
-6.67107e-11
-5.39599e-11
-6.66952e-11
-5.3792e-11
-6.67404e-11
-5.19789e-11
-6.84609e-11
-4.88255e-11
-6.98993e-11
-4.45436e-11
-7.11216e-11
-3.93164e-11
-7.2206e-11
-3.32993e-11
-7.31982e-11
-2.66299e-11
-7.41151e-11
-1.9436e-11
-7.49596e-11
-1.18372e-11
-7.57315e-11
-3.94512e-12
-7.6431e-11
4.1366e-12
-7.70582e-11
1.23116e-11
-7.76122e-11
2.04905e-11
-7.80915e-11
2.85903e-11
-7.84932e-11
3.65339e-11
-7.88138e-11
4.42494e-11
-7.90491e-11
5.16699e-11
-7.91947e-11
5.87326e-11
-7.92457e-11
-7.91975e-11
6.53784e-11
-3.12954e-15
-2.21153e-12
4.72614e-17
-6.49711e-12
1.28196e-14
-1.06384e-11
3.38632e-14
-1.46319e-11
6.15945e-14
-1.84772e-11
9.42197e-14
-2.21737e-11
1.29726e-13
-2.57213e-11
1.65955e-13
-2.91194e-11
2.00579e-13
-3.23679e-11
2.31196e-13
-3.54666e-11
2.55278e-13
-3.84153e-11
2.7029e-13
-4.12138e-11
2.73611e-13
-4.38621e-11
2.62685e-13
-4.63602e-11
2.34904e-13
-4.87082e-11
1.8781e-13
-5.0906e-11
1.1892e-13
-5.29539e-11
2.6001e-14
-5.4852e-11
-9.31788e-14
-5.66007e-11
-2.40485e-13
-5.82002e-11
-4.17765e-13
-5.96511e-11
-6.26364e-13
-6.09537e-11
-8.67621e-13
-6.2109e-11
-1.14219e-12
-6.31172e-11
-1.45058e-12
-6.39797e-11
-1.792e-12
-6.46967e-11
-2.16578e-12
-6.52704e-11
-2.57415e-12
-6.57024e-11
-3.30311e-12
-6.59978e-11
-3.15039e-11
-6.62089e-11
-3.19512e-11
-6.62479e-11
-3.18972e-11
-6.67944e-11
-3.07057e-11
-6.96524e-11
-2.83411e-11
-7.22638e-11
-2.50026e-11
-7.44601e-11
-2.08645e-11
-7.63441e-11
-1.6093e-11
-7.79697e-11
-1.08445e-11
-7.93636e-11
-5.26428e-12
-8.05398e-11
5.13704e-13
-8.15095e-11
6.36632e-12
-8.22837e-11
1.2181e-11
-8.28729e-11
1.78551e-11
-8.32864e-11
2.32953e-11
-8.35317e-11
2.84169e-11
-8.36147e-11
3.31427e-11
-8.35396e-11
3.7403e-11
-8.33094e-11
4.11342e-11
-8.29259e-11
4.42784e-11
-8.239e-11
-8.17033e-11
4.67842e-11
4.73979e-14
-2.25892e-12
1.62244e-13
-6.61195e-12
3.31098e-13
-1.08073e-11
5.47423e-13
-1.48483e-11
8.04934e-13
-1.87347e-11
1.0976e-12
-2.24664e-11
1.41954e-12
-2.60432e-11
1.76508e-12
-2.9465e-11
2.12859e-12
-3.27314e-11
2.50455e-12
-3.58426e-11
2.88744e-12
-3.87982e-11
3.27178e-12
-4.15981e-11
3.65199e-12
-4.42424e-11
4.02253e-12
-4.67308e-11
4.37761e-12
-4.90633e-11
4.71151e-12
-5.12399e-11
5.01811e-12
-5.32605e-11
5.29138e-12
-5.51252e-11
5.52472e-12
-5.6834e-11
5.71164e-12
-5.83871e-11
5.84487e-12
-5.97843e-11
5.91733e-12
-6.10262e-11
5.92077e-12
-6.21124e-11
5.84723e-12
-6.30437e-11
5.68719e-12
-6.38197e-11
5.43243e-12
-6.4442e-11
5.07417e-12
-6.49121e-11
4.60602e-12
-6.52343e-11
-3.43933e-12
-6.54284e-11
-2.18566e-11
-6.55179e-11
-2.25918e-11
-6.55127e-11
-2.20267e-11
-6.73595e-11
-2.12498e-11
-7.04293e-11
-2.06593e-11
-7.28543e-11
-2.03486e-11
-7.47708e-11
-2.0383e-11
-7.63097e-11
-2.08317e-11
-7.75211e-11
-2.17635e-11
-7.84317e-11
-2.32428e-11
-7.90605e-11
-2.53274e-11
-7.94249e-11
-2.8069e-11
-7.9542e-11
-3.1514e-11
-7.94279e-11
-3.57036e-11
-7.90968e-11
-4.06747e-11
-7.85605e-11
-4.64608e-11
-7.78286e-11
-5.30922e-11
-7.69082e-11
-6.0597e-11
-7.58047e-11
-6.90002e-11
-7.45227e-11
-7.83292e-11
-7.3061e-11
-7.14291e-11
-8.86034e-11
2.55872e-14
-2.28451e-12
1.18372e-13
-6.70474e-12
2.78905e-13
-1.09678e-11
5.00342e-13
-1.50697e-11
7.75999e-13
-1.90104e-11
1.09925e-12
-2.27897e-11
1.4636e-12
-2.64076e-11
1.86251e-12
-2.98639e-11
2.28954e-12
-3.31585e-11
2.73817e-12
-3.62912e-11
3.20192e-12
-3.92619e-11
3.67414e-12
-4.20704e-11
4.14822e-12
-4.47164e-11
4.61729e-12
-4.71998e-11
5.07451e-12
-4.95205e-11
5.51264e-12
-5.1678e-11
5.92451e-12
-5.36724e-11
6.3024e-12
-5.55031e-11
6.63872e-12
-5.71703e-11
6.92517e-12
-5.86735e-11
7.15358e-12
-6.00127e-11
7.31484e-12
-6.11874e-11
7.40002e-12
-6.21976e-11
7.39971e-12
-6.30434e-11
7.3067e-12
-6.37267e-11
7.11541e-12
-6.42507e-11
6.81637e-12
-6.46131e-11
4.50554e-12
-6.48482e-11
-2.00672e-11
-6.51218e-11
-2.04954e-11
-6.50897e-11
-2.09478e-11
-6.50604e-11
-2.3033e-11
-6.52743e-11
-2.81643e-11
-6.5298e-11
-3.60211e-11
-6.49976e-11
-4.63731e-11
-6.44187e-11
-5.89935e-11
-6.36894e-11
-7.36965e-11
-6.2818e-11
-9.03274e-11
-6.18008e-11
-1.08754e-10
-6.06343e-11
-1.2886e-10
-5.93182e-11
-1.50547e-10
-5.7855e-11
-1.73728e-10
-5.62475e-11
-1.98326e-10
-5.44985e-11
-2.24272e-10
-5.26142e-11
-2.51503e-10
-5.05984e-11
-2.79965e-10
-4.84458e-11
-3.0961e-10
-4.61599e-11
-3.40403e-10
-4.37292e-11
-3.72303e-10
-4.11615e-11
-3.84321e-11
-4.053e-10
7.88082e-14
-2.36332e-12
2.80832e-13
-6.90676e-12
5.87533e-13
-1.12745e-11
9.88508e-13
-1.54707e-11
1.47393e-12
-1.94958e-11
2.03449e-12
-2.33502e-11
2.66117e-12
-2.70342e-11
3.34525e-12
-3.05479e-11
4.07808e-12
-3.38913e-11
4.85119e-12
-3.70643e-11
5.65593e-12
-4.00666e-11
6.48377e-12
-4.28982e-11
7.32568e-12
-4.55584e-11
8.17274e-12
-4.80469e-11
9.01521e-12
-5.0363e-11
9.84343e-12
-5.25062e-11
1.06465e-11
-5.44754e-11
1.14137e-11
-5.62703e-11
1.21324e-11
-5.78891e-11
1.27902e-11
-5.93313e-11
1.33721e-11
-6.05945e-11
1.38628e-11
-6.16782e-11
1.42449e-11
-6.25797e-11
1.45033e-11
-6.33019e-11
1.46235e-11
-6.38468e-11
1.45756e-11
-6.42027e-11
1.18456e-11
-6.44794e-11
-1.51309e-11
-6.47813e-11
-1.54493e-11
-6.48034e-11
-1.58478e-11
-6.46911e-11
-1.92369e-11
-6.16714e-11
-2.82914e-11
-5.62197e-11
-4.24689e-11
-5.11205e-11
-6.11284e-11
-4.63381e-11
-8.37323e-11
-4.18148e-11
-1.0981e-10
-3.76119e-11
-1.38945e-10
-3.3683e-11
-1.70761e-10
-2.99842e-11
-2.04917e-10
-2.6479e-11
-2.41092e-10
-2.31427e-11
-2.78989e-10
-1.99579e-11
-3.18325e-10
-1.69114e-11
-3.58832e-10
-1.39916e-11
-4.00259e-10
-1.11872e-11
-4.42328e-10
-8.52962e-12
-4.84736e-10
-6.03731e-12
-5.27259e-10
-3.63696e-12
-5.69588e-10
-1.40108e-12
-6.11397e-10
6.48348e-13
2.59796e-12
-6.52428e-10
3.50197e-14
-2.39834e-12
1.52847e-13
-7.02459e-12
3.57863e-13
-1.14795e-11
6.49876e-13
-1.57627e-11
1.02806e-12
-1.9874e-11
1.49109e-12
-2.38133e-11
2.03762e-12
-2.75808e-11
2.66603e-12
-3.11764e-11
3.37513e-12
-3.46004e-11
4.1635e-12
-3.78527e-11
5.03068e-12
-4.09338e-11
5.97584e-12
-4.38434e-11
6.99996e-12
-4.65825e-11
8.10326e-12
-4.91502e-11
9.28905e-12
-5.15488e-11
1.05593e-11
-5.37764e-11
1.19209e-11
-5.58371e-11
1.33784e-11
-5.77278e-11
1.49443e-11
-5.94549e-11
1.66265e-11
-6.10135e-11
1.84476e-11
-6.24156e-11
2.0426e-11
-6.36566e-11
2.2606e-11
-6.47597e-11
2.46878e-11
-6.53836e-11
2.67101e-11
-6.58691e-11
1.67996e-11
-6.61261e-11
-4.88076e-12
-6.63178e-11
-3.45234e-12
-6.62097e-11
-2.84515e-12
-6.54106e-11
-5.87254e-12
-6.16637e-11
-1.48382e-11
-5.27057e-11
-2.82079e-11
-4.28501e-11
-4.54447e-11
-3.38837e-11
-6.60374e-11
-2.57454e-11
-8.95012e-11
-1.8351e-11
-1.15428e-10
-1.16848e-11
-1.43437e-10
-5.67438e-12
-1.73064e-10
-3.56752e-13
-2.04184e-10
4.64097e-12
-2.36377e-10
9.05006e-12
-2.6933e-10
1.29953e-11
-3.02702e-10
1.64603e-11
-3.36076e-10
1.93823e-11
-3.69046e-10
2.1783e-11
-4.01184e-10
2.36081e-11
-4.32126e-10
2.49051e-11
-4.61423e-10
2.56598e-11
-4.88943e-10
2.61187e-11
-5.14166e-10
2.58719e-11
2.45473e-11
-5.36116e-10
3.17626e-14
-2.43011e-12
1.36161e-13
-7.12899e-12
3.16246e-13
-1.16596e-11
5.72546e-13
-1.6019e-11
9.07714e-13
-2.02091e-11
1.32467e-12
-2.42302e-11
1.82842e-12
-2.80845e-11
2.42287e-12
-3.17708e-11
3.11408e-12
-3.52916e-11
3.90578e-12
-3.86444e-11
4.80442e-12
-4.18325e-11
5.81267e-12
-4.48516e-11
6.93688e-12
-4.77067e-11
8.17781e-12
-5.03911e-11
9.54139e-12
-5.29123e-11
1.10255e-11
-5.52605e-11
1.26355e-11
-5.74471e-11
1.43649e-11
-5.94572e-11
1.62195e-11
-6.13096e-11
1.81897e-11
-6.29837e-11
2.02909e-11
-6.45168e-11
2.25209e-11
-6.58866e-11
2.48776e-11
-6.71164e-11
2.75688e-11
-6.91109e-11
-6.66918e-12
-6.84484e-11
-1.22874e-11
-6.81436e-11
-1.15682e-11
-6.70369e-11
-3.35303e-11
-4.42477e-11
-6.20941e-11
-3.68468e-11
-8.87735e-11
-3.49843e-11
-1.13551e-10
-2.79283e-11
-1.35681e-10
-2.07198e-11
-1.55537e-10
-1.40282e-11
-1.73767e-10
-7.51546e-12
-1.90831e-10
-1.28689e-12
-2.07098e-10
4.58252e-12
-2.22907e-10
1.01345e-11
-2.38653e-10
1.53898e-11
-2.54372e-10
2.03591e-11
-2.70374e-10
2.50527e-11
-2.87006e-10
2.96271e-11
-3.03715e-10
3.31696e-11
-3.19825e-10
3.54923e-11
-3.3427e-10
3.62278e-11
-3.47147e-10
3.6485e-11
-3.58037e-10
3.57953e-11
-3.67673e-10
3.52953e-11
-3.74953e-10
3.3399e-11
-3.80367e-10
3.12855e-11
2.66878e-11
-3.82507e-10
3.33228e-14
-2.46343e-12
1.06039e-13
-7.2017e-12
2.22745e-13
-1.17763e-11
4.04151e-13
-1.62004e-11
6.71934e-13
-2.04769e-11
1.04801e-12
-2.46063e-11
1.55513e-12
-2.85916e-11
2.21548e-12
-3.24312e-11
3.05245e-12
-3.61286e-11
4.0877e-12
-3.96796e-11
5.34488e-12
-4.30896e-11
6.84356e-12
-4.63503e-11
8.60673e-12
-4.94699e-11
1.06491e-11
-5.24335e-11
1.29918e-11
-5.5255e-11
1.56402e-11
-5.7909e-11
1.86128e-11
-6.04196e-11
2.18996e-11
-6.27441e-11
2.55123e-11
-6.49223e-11
2.94477e-11
-6.6919e-11
3.29107e-11
-6.79799e-11
3.58805e-11
-6.88564e-11
2.14063e-11
-6.93257e-11
-5.2207e-12
-6.88658e-11
-7.67394e-12
-6.62188e-11
-1.46882e-10
7.10646e-11
-2.19269e-10
5.35006e-12
-2.76303e-10
1.27862e-11
-3.37722e-10
2.4572e-11
-3.99855e-10
2.71487e-11
-4.55622e-10
2.78393e-11
-5.05708e-10
2.93656e-11
-5.5096e-10
3.12239e-11
-5.91096e-10
3.26203e-11
-6.26705e-10
3.4323e-11
-6.58252e-10
3.61289e-11
-6.86078e-10
3.79605e-11
-7.10403e-10
3.97144e-11
-7.31409e-10
4.13656e-11
-7.49034e-10
4.26774e-11
-7.64168e-10
4.47615e-11
-7.7934e-10
4.83412e-11
-7.89626e-10
4.57782e-11
-7.92242e-10
3.8844e-11
-7.87933e-10
3.21761e-11
-7.8313e-10
3.0992e-11
-7.71393e-10
2.35586e-11
-7.56759e-10
1.8765e-11
-7.3871e-10
1.32369e-11
5.62992e-12
-7.17652e-10
6.04542e-14
-2.52389e-12
3.54577e-13
-7.49582e-12
9.26145e-13
-1.23479e-11
1.78867e-12
-1.70629e-11
2.95307e-12
-2.16413e-11
4.43604e-12
-2.60893e-11
6.24944e-12
-3.0405e-11
8.41545e-12
-3.45972e-11
1.09484e-11
-3.86616e-11
1.38776e-11
-4.26088e-11
1.72192e-11
-4.64313e-11
2.10078e-11
-5.01389e-11
2.52585e-11
-5.37205e-11
3.0003e-11
-5.7178e-11
3.5251e-11
-6.0503e-11
4.10314e-11
-6.36893e-11
4.73842e-11
-6.67725e-11
5.44624e-11
-6.98223e-11
6.13221e-11
-7.1782e-11
6.78454e-11
-7.34424e-11
6.71839e-11
-7.76359e-11
2.38337e-11
-7.2931e-11
1.25276e-11
-5.85359e-11
-8.10518e-11
2.47137e-11
-1.3548e-10
-1.17904e-11
-1.40935e-10
7.65197e-11
-2.57369e-10
1.21783e-10
-3.507e-10
1.06118e-10
-4.27736e-10
1.01607e-10
-4.99788e-10
9.92009e-11
-5.70131e-10
9.81822e-11
-6.38974e-10
9.82092e-11
-7.04624e-10
9.68735e-11
-7.66301e-10
9.42971e-11
-8.23573e-10
9.15948e-11
-8.75784e-10
8.834e-11
-9.22566e-10
8.47426e-11
-9.63329e-10
8.04773e-11
-9.97599e-10
7.56362e-11
-1.02543e-09
7.05107e-11
-1.04577e-09
6.50968e-11
-1.05648e-09
5.90574e-11
-1.06089e-09
5.01884e-11
-1.06231e-09
4.02552e-11
-1.06028e-09
3.01549e-11
-1.04401e-09
1.47212e-11
-1.02435e-09
3.89047e-12
-9.99723e-10
-5.85692e-12
-9.69585e-10
-1.69012e-11
-2.80129e-11
-9.35942e-10
4.47621e-13
1.61043e-12
3.40369e-12
5.78475e-12
8.71901e-12
1.21677e-11
1.61023e-11
2.04867e-11
2.52965e-11
3.04941e-11
3.60545e-11
4.19309e-11
4.8095e-11
5.45061e-11
6.11692e-11
6.78963e-11
7.37993e-11
7.85885e-11
8.75218e-11
3.01507e-11
-7.55585e-11
-4.38094e-11
-1.15888e-10
-2.4438e-10
-4.24213e-10
-5.2632e-10
-5.85984e-10
-6.47964e-10
-7.03572e-10
-7.53953e-10
-7.97473e-10
-8.34191e-10
-8.66452e-10
-8.93379e-10
-9.14903e-10
-9.32389e-10
-9.44009e-10
-9.50451e-10
-9.52184e-10
-9.48094e-10
-9.38207e-10
-9.27251e-10
-9.16243e-10
-9.02831e-10
-8.8578e-10
-8.6901e-10
-8.50004e-10
-8.27381e-10
-8.01874e-10
-7.73237e-10
-5.92382e-11
-8.37132e-11
-6.18103e-11
-8.54945e-11
-6.44523e-11
-8.72617e-11
-6.7163e-11
-8.90049e-11
-6.9941e-11
-9.07158e-11
-7.27853e-11
-9.2387e-11
-7.56948e-11
-9.40127e-11
-7.86682e-11
-9.55877e-11
-8.17046e-11
-9.71081e-11
-8.48027e-11
-9.85707e-11
-8.79615e-11
-9.99732e-11
-9.11796e-11
-1.01314e-10
-9.44559e-11
-1.02592e-10
-9.77889e-11
-1.03808e-10
-1.01177e-10
-1.04961e-10
-1.04619e-10
-1.06052e-10
-1.08113e-10
-1.07082e-10
-1.11657e-10
-1.08053e-10
-1.15249e-10
-1.08966e-10
-1.18887e-10
-1.09824e-10
-1.22569e-10
-1.10628e-10
-1.26292e-10
-1.1138e-10
-1.30055e-10
-1.12083e-10
-1.33856e-10
-1.1274e-10
-1.37693e-10
-1.13354e-10
-1.41563e-10
-1.13927e-10
-1.45464e-10
-1.14463e-10
-1.49393e-10
-1.14966e-10
-1.53348e-10
-1.15438e-10
-1.57325e-10
-1.15884e-10
-1.61323e-10
-1.16306e-10
-1.65338e-10
-1.16708e-10
-1.69367e-10
-1.17094e-10
-1.73409e-10
-1.17467e-10
-1.7746e-10
-1.1783e-10
-1.81517e-10
-1.18187e-10
-1.85579e-10
-1.18542e-10
-1.89642e-10
-1.18898e-10
-1.93704e-10
-1.19259e-10
-1.97763e-10
-1.19628e-10
-2.01817e-10
-1.2001e-10
-2.05863e-10
-1.20406e-10
-2.099e-10
-1.20822e-10
-2.13926e-10
-1.21259e-10
-2.1794e-10
-1.21722e-10
-2.21942e-10
-1.22213e-10
-2.2593e-10
-1.22734e-10
-2.29906e-10
-1.23286e-10
-2.33868e-10
-1.2387e-10
-1.24509e-10
-2.37767e-10
-5.87027e-11
-8.07409e-11
-6.18046e-11
-8.23926e-11
-6.50329e-11
-8.40334e-11
-6.83843e-11
-8.56535e-11
-7.18557e-11
-8.72443e-11
-7.54443e-11
-8.87985e-11
-7.9147e-11
-9.031e-11
-8.29609e-11
-9.17737e-11
-8.68832e-11
-9.31858e-11
-9.0911e-11
-9.45429e-11
-9.50413e-11
-9.58429e-11
-9.92712e-11
-9.70842e-11
-1.03598e-10
-9.8266e-11
-1.08017e-10
-9.93882e-11
-1.12527e-10
-1.00451e-10
-1.17122e-10
-1.01456e-10
-1.21801e-10
-1.02403e-10
-1.26557e-10
-1.03296e-10
-1.31388e-10
-1.04135e-10
-1.36289e-10
-1.04923e-10
-1.41257e-10
-1.0566e-10
-1.46287e-10
-1.0635e-10
-1.51376e-10
-1.06994e-10
-1.5652e-10
-1.07596e-10
-1.61715e-10
-1.08158e-10
-1.66957e-10
-1.08685e-10
-1.72241e-10
-1.09179e-10
-1.77562e-10
-1.09645e-10
-1.82916e-10
-1.10085e-10
-1.88297e-10
-1.10503e-10
-1.93701e-10
-1.10902e-10
-1.99122e-10
-1.11287e-10
-2.04557e-10
-1.11659e-10
-2.1e-10
-1.12024e-10
-2.15446e-10
-1.12384e-10
-2.20891e-10
-1.12742e-10
-2.2633e-10
-1.13103e-10
-2.31759e-10
-1.13469e-10
-2.37173e-10
-1.13845e-10
-2.42569e-10
-1.14233e-10
-2.47941e-10
-1.14637e-10
-2.53287e-10
-1.15061e-10
-2.58602e-10
-1.15506e-10
-2.63885e-10
-1.15976e-10
-2.69134e-10
-1.16474e-10
-2.74345e-10
-1.17001e-10
-2.79519e-10
-1.1756e-10
-2.84655e-10
-1.18151e-10
-2.89753e-10
-1.18772e-10
-1.19406e-10
-2.94856e-10
-6.68033e-11
-7.71953e-11
-7.04899e-11
-7.8706e-11
-7.43135e-11
-8.02098e-11
-7.82701e-11
-8.16969e-11
-8.23558e-11
-8.31585e-11
-8.65671e-11
-8.45872e-11
-9.09003e-11
-8.59768e-11
-9.53518e-11
-8.73222e-11
-9.99182e-11
-8.86193e-11
-1.04596e-10
-8.98651e-11
-1.09382e-10
-9.10571e-11
-1.14272e-10
-9.2194e-11
-1.19263e-10
-9.3275e-11
-1.24351e-10
-9.43e-11
-1.29533e-10
-9.52696e-11
-1.34804e-10
-9.61851e-11
-1.40159e-10
-9.7048e-11
-1.45595e-10
-9.78602e-11
-1.51106e-10
-9.86236e-11
-1.56689e-10
-9.93394e-11
-1.6234e-10
-1.00009e-10
-1.68056e-10
-1.00634e-10
-1.73834e-10
-1.01217e-10
-1.79669e-10
-1.01761e-10
-1.85558e-10
-1.02269e-10
-1.91497e-10
-1.02746e-10
-1.97481e-10
-1.03195e-10
-2.03506e-10
-1.0362e-10
-2.09568e-10
-1.04023e-10
-2.1566e-10
-1.0441e-10
-2.21781e-10
-1.04782e-10
-2.27924e-10
-1.05144e-10
-2.34086e-10
-1.05498e-10
-2.40262e-10
-1.05847e-10
-2.46449e-10
-1.06197e-10
-2.52642e-10
-1.06549e-10
-2.58838e-10
-1.06907e-10
-2.65032e-10
-1.07275e-10
-2.7122e-10
-1.07657e-10
-2.77397e-10
-1.08055e-10
-2.83561e-10
-1.08473e-10
-2.89708e-10
-1.08914e-10
-2.95835e-10
-1.0938e-10
-3.01938e-10
-1.09873e-10
-3.08015e-10
-1.10397e-10
-3.14065e-10
-1.10951e-10
-3.20086e-10
-1.11539e-10
-3.26077e-10
-1.1216e-10
-3.32037e-10
-1.12813e-10
-1.13511e-10
-3.37932e-10
-6.84484e-11
-7.33946e-11
-7.24108e-11
-7.47435e-11
-7.65299e-11
-7.60908e-11
-8.08004e-11
-7.74264e-11
-8.52177e-11
-7.87413e-11
-8.97767e-11
-8.00281e-11
-9.44729e-11
-8.12806e-11
-9.93016e-11
-8.24936e-11
-1.04258e-10
-8.36628e-11
-1.09338e-10
-8.47853e-11
-1.14536e-10
-8.58586e-11
-1.19849e-10
-8.68814e-11
-1.25271e-10
-8.78529e-11
-1.30798e-10
-8.87732e-11
-1.36424e-10
-8.9643e-11
-1.42146e-10
-9.04639e-11
-1.47956e-10
-9.12377e-11
-1.5385e-10
-9.19666e-11
-1.59821e-10
-9.26523e-11
-1.65865e-10
-9.32952e-11
-1.71978e-10
-9.38958e-11