/*--------------------------------*- C++ -*----------------------------------*\
| =========                 |                                                 |
| \\      /  F ield         | OpenFOAM: The Open Source CFD Toolbox           |
|  \\    /   O peration     | Version:  2.4.0                                 |
|   \\  /    A nd           | Web:      www.OpenFOAM.org                      |
|    \\/     M anipulation  |                                                 |
\*---------------------------------------------------------------------------*/
FoamFile
{
    version     2.0;
    format      ascii;
    class       volVectorField;
    location    "3";
    object      U;
}
// * * * * * * * * * * * * * * * * * * * * * * * * * * * * * * * * * * * * * //

dimensions      [0 1 -1 0 0 0 0];

internalField   nonuniform List<vector> 
8000
(
(-4.31473e-08 -0.000224463 0)
(-2.80673e-07 -0.000658675 0)
(-6.99427e-07 -0.00107823 0)
(-1.26923e-06 -0.00148318 0)
(-1.9645e-06 -0.00187357 0)
(-2.76683e-06 -0.00224943 0)
(-3.66125e-06 -0.00261079 0)
(-4.63489e-06 -0.00295769 0)
(-5.67548e-06 -0.00329013 0)
(-6.77254e-06 -0.00360813 0)
(-7.91557e-06 -0.00391172 0)
(-9.09589e-06 -0.00420091 0)
(-1.03039e-05 -0.00447569 0)
(-1.15321e-05 -0.00473608 0)
(-1.27709e-05 -0.00498208 0)
(-1.40133e-05 -0.00521369 0)
(-1.5249e-05 -0.0054309 0)
(-1.64711e-05 -0.0056337 0)
(-1.76676e-05 -0.0058221 0)
(-1.8831e-05 -0.00599607 0)
(-1.99467e-05 -0.0061556 0)
(-2.10054e-05 -0.00630066 0)
(-2.19876e-05 -0.00643124 0)
(-2.28866e-05 -0.0065473 0)
(-2.36967e-05 -0.00664882 0)
(-2.44293e-05 -0.00673574 0)
(-2.49626e-05 -0.00680804 0)
(-2.48207e-05 -0.00686563 0)
(-2.33494e-05 -0.00690833 0)
(-2.30162e-05 -0.00693596 0)
(-3.43406e-05 -0.00694917 0)
(-8.08159e-05 -0.00695131 0)
(-0.000177389 -0.00695101 0)
(-0.00038799 -0.00688443 0)
(-0.000230471 -0.0068202 0)
(-0.000231967 -0.00677799 0)
(-0.000246582 -0.00676546 0)
(-0.000260123 -0.00678315 0)
(-0.000271312 -0.00682886 0)
(-0.000282841 -0.00689979 0)
(-0.000295448 -0.00699309 0)
(-0.000309052 -0.00710598 0)
(-0.000323491 -0.00723574 0)
(-0.000338688 -0.00737981 0)
(-0.000354602 -0.00753578 0)
(-0.000371206 -0.00770136 0)
(-0.000388473 -0.00787446 0)
(-0.000406379 -0.00805314 0)
(-0.000424907 -0.00823565 0)
(-0.000444037 -0.0084204 0)
(-1.32286e-08 -0.00022188 0)
(-1.95313e-07 -0.000651609 0)
(-5.65992e-07 -0.00106728 0)
(-1.11223e-06 -0.00146886 0)
(-1.81188e-06 -0.00185634 0)
(-2.64642e-06 -0.00222969 0)
(-3.60012e-06 -0.00258891 0)
(-4.65956e-06 -0.00293396 0)
(-5.81145e-06 -0.00326485 0)
(-7.04435e-06 -0.00358158 0)
(-8.34616e-06 -0.00388412 0)
(-9.70691e-06 -0.00417248 0)
(-1.1115e-05 -0.00444667 0)
(-1.25615e-05 -0.00470667 0)
(-1.40346e-05 -0.00495248 0)
(-1.55257e-05 -0.00518412 0)
(-1.7022e-05 -0.00540158 0)
(-1.85153e-05 -0.00560487 0)
(-1.99906e-05 -0.005794 0)
(-2.14396e-05 -0.00596897 0)
(-2.2844e-05 -0.0061298 0)
(-2.41944e-05 -0.00627649 0)
(-2.54674e-05 -0.00640907 0)
(-2.66579e-05 -0.00652755 0)
(-2.77557e-05 -0.00663195 0)
(-2.8773e-05 -0.00672229 0)
(-2.9569e-05 -0.00679861 0)
(-2.9659e-05 -0.00686094 0)
(-2.84466e-05 -0.00690931 0)
(-2.87278e-05 -0.0069438 0)
(-4.12514e-05 -0.00696448 0)
(-8.81217e-05 -0.00697385 0)
(-0.000185443 -0.00697375 0)
(-0.000394659 -0.00682879 0)
(-0.000229457 -0.00671667 0)
(-0.000227318 -0.00663792 0)
(-0.000238628 -0.0065929 0)
(-0.000249047 -0.00658096 0)
(-0.000257426 -0.00659982 0)
(-0.000266604 -0.00664634 0)
(-0.000277381 -0.00671725 0)
(-0.0002897 -0.00680937 0)
(-0.000303412 -0.00691972 0)
(-0.00031844 -0.0070455 0)
(-0.000334745 -0.00718411 0)
(-0.000352293 -0.00733311 0)
(-0.000371048 -0.00749029 0)
(-0.000390975 -0.00765362 0)
(-0.000412042 -0.00782126 0)
(-0.000434216 -0.00799155 0)
(-1.03796e-08 -0.00022165 0)
(-9.00526e-08 -0.000650831 0)
(-2.49142e-07 -0.00106589 0)
(-4.84781e-07 -0.00146683 0)
(-7.93129e-07 -0.00185364 0)
(-1.17168e-06 -0.00222632 0)
(-1.61782e-06 -0.00258487 0)
(-2.12958e-06 -0.00292929 0)
(-2.70397e-06 -0.00325956 0)
(-3.33899e-06 -0.0035757 0)
(-4.03134e-06 -0.0038777 0)
(-4.77926e-06 -0.00416556 0)
(-5.57913e-06 -0.00443928 0)
(-6.42963e-06 -0.00469886 0)
(-7.32669e-06 -0.00494432 0)
(-8.26966e-06 -0.00517564 0)
(-9.2538e-06 -0.00539284 0)
(-1.02794e-05 -0.00559592 0)
(-1.13408e-05 -0.00578489 0)
(-1.24396e-05 -0.00595975 0)
(-1.35687e-05 -0.00612052 0)
(-1.47308e-05 -0.00626721 0)
(-1.59162e-05 -0.00639982 0)
(-1.71357e-05 -0.00651838 0)
(-1.83947e-05 -0.00662289 0)
(-1.97216e-05 -0.00671337 0)
(-2.09949e-05 -0.00678983 0)
(-2.17874e-05 -0.00685229 0)
(-2.16314e-05 -0.00690078 0)
(-2.34413e-05 -0.00693532 0)
(-3.70706e-05 -0.00695598 0)
(-8.34439e-05 -0.00696538 0)
(-0.00018275 -0.00696536 0)
(-0.000396716 -0.00682705 0)
(-0.000232815 -0.0067163 0)
(-0.000233791 -0.00663443 0)
(-0.000248222 -0.00658279 0)
(-0.000261742 -0.00656158 0)
(-0.000273245 -0.00656923 0)
(-0.000285631 -0.00660318 0)
(-0.000299728 -0.0066606 0)
(-0.000315491 -0.00673867 0)
(-0.000332776 -0.00683466 0)
(-0.00035151 -0.00694598 0)
(-0.000371653 -0.00707015 0)
(-0.000393169 -0.00720487 0)
(-0.000416017 -0.00734798 0)
(-0.000440159 -0.0074975 0)
(-0.000465554 -0.00765163 0)
(-0.000492166 -0.00780874 0)
(-4.39833e-09 -0.000220923 0)
(-5.00295e-08 -0.000648755 0)
(-1.45865e-07 -0.00106256 0)
(-2.93033e-07 -0.00146232 0)
(-4.91393e-07 -0.00184802 0)
(-7.42283e-07 -0.00221965 0)
(-1.04663e-06 -0.00257719 0)
(-1.40686e-06 -0.00292064 0)
(-1.8239e-06 -0.00324999 0)
(-2.30082e-06 -0.00356524 0)
(-2.8383e-06 -0.00386637 0)
(-3.44021e-06 -0.00415338 0)
(-4.10675e-06 -0.00442627 0)
(-4.84279e-06 -0.00468504 0)
(-5.64774e-06 -0.0049297 0)
(-6.52773e-06 -0.00516023 0)
(-7.48091e-06 -0.00537665 0)
(-8.51507e-06 -0.00557895 0)
(-9.6265e-06 -0.00576715 0)
(-1.08251e-05 -0.00594125 0)
(-1.21042e-05 -0.00610126 0)
(-1.34757e-05 -0.00624719 0)
(-1.49287e-05 -0.00637905 0)
(-1.64845e-05 -0.00649686 0)
(-1.81446e-05 -0.00660062 0)
(-1.99414e-05 -0.00669036 0)
(-2.17259e-05 -0.00676609 0)
(-2.30789e-05 -0.00682783 0)
(-2.36744e-05 -0.00687559 0)
(-2.69511e-05 -0.00690944 0)
(-4.26572e-05 -0.00692946 0)
(-8.87483e-05 -0.00693848 0)
(-0.000189713 -0.00693837 0)
(-0.000401454 -0.00675624 0)
(-0.000236077 -0.00660589 0)
(-0.000236229 -0.00648791 0)
(-0.000250151 -0.00640309 0)
(-0.000263262 -0.0063512 0)
(-0.000274463 -0.00633029 0)
(-0.000286696 -0.00633752 0)
(-0.000300816 -0.00636983 0)
(-0.000316789 -0.00642421 0)
(-0.000334482 -0.00649778 0)
(-0.000353825 -0.00658778 0)
(-0.00037478 -0.00669165 0)
(-0.00039731 -0.00680695 0)
(-0.000421371 -0.00693144 0)
(-0.000446921 -0.00706309 0)
(-0.000473913 -0.0072 0)
(-0.000502306 -0.0073405 0)
(8.54358e-09 -0.000221038 0)
(7.20202e-08 -0.00064899 0)
(1.82951e-07 -0.00106281 0)
(3.28193e-07 -0.00146248 0)
(4.93087e-07 -0.001848 0)
(6.64565e-07 -0.00221935 0)
(8.31384e-07 -0.00257653 0)
(9.82619e-07 -0.00291954 0)
(1.10836e-06 -0.00324836 0)
(1.1984e-06 -0.00356299 0)
(1.24349e-06 -0.00386343 0)
(1.23353e-06 -0.00414968 0)
(1.15951e-06 -0.00442174 0)
(1.01074e-06 -0.00467959 0)
(7.78129e-07 -0.00492326 0)
(4.49607e-07 -0.00515274 0)
(1.58321e-08 -0.00536803 0)
(-5.3768e-07 -0.00556914 0)
(-1.22038e-06 -0.00575608 0)
(-2.05059e-06 -0.00592885 0)
(-3.03708e-06 -0.00608748 0)
(-4.20329e-06 -0.00623197 0)
(-5.55675e-06 -0.00636235 0)
(-7.1358e-06 -0.00647863 0)
(-8.96207e-06 -0.00658085 0)
(-1.1082e-05 -0.00666903 0)
(-1.33499e-05 -0.0067432 0)
(-1.54043e-05 -0.00680339 0)
(-1.71873e-05 -0.00684965 0)
(-2.2752e-05 -0.00688206 0)
(-4.10233e-05 -0.00690087 0)
(-8.56394e-05 -0.0069091 0)
(-0.000189707 -0.0069092 0)
(-0.000399178 -0.00672997 0)
(-0.000235533 -0.0065785 0)
(-0.000237364 -0.00645514 0)
(-0.000252337 -0.00636118 0)
(-0.000266012 -0.00629694 0)
(-0.000277469 -0.00626113 0)
(-0.000289737 -0.00625157 0)
(-0.000303716 -0.00626576 0)
(-0.000319409 -0.00630116 0)
(-0.000336707 -0.00635526 0)
(-0.000355566 -0.00642561 0)
(-0.000375966 -0.00650982 0)
(-0.000397886 -0.00660564 0)
(-0.000421296 -0.00671094 0)
(-0.000446165 -0.00682375 0)
(-0.000472454 -0.00694226 0)
(-0.000500126 -0.00706483 0)
(7.95912e-09 -0.000221814 0)
(4.44647e-08 -0.000651013 0)
(9.74086e-08 -0.0010658 0)
(1.54982e-07 -0.0014662 0)
(2.07976e-07 -0.00185223 0)
(2.46339e-07 -0.00222388 0)
(2.64865e-07 -0.00258118 0)
(2.5448e-07 -0.00292412 0)
(2.12458e-07 -0.0032527 0)
(1.29464e-07 -0.00356693 0)
(5.02366e-09 -0.00386681 0)
(-1.71338e-07 -0.00415234 0)
(-3.97881e-07 -0.00442349 0)
(-6.87281e-07 -0.00468028 0)
(-1.03545e-06 -0.00492268 0)
(-1.45856e-06 -0.0051507 0)
(-1.94983e-06 -0.0053643 0)
(-2.53061e-06 -0.00556349 0)
(-3.1908e-06 -0.00574823 0)
(-3.95908e-06 -0.00591852 0)
(-4.82062e-06 -0.00607432 0)
(-5.8136e-06 -0.00621562 0)
(-6.91808e-06 -0.00634237 0)
(-8.1956e-06 -0.00645458 0)
(-9.637e-06 -0.00655215 0)
(-1.1301e-05 -0.00663511 0)
(-1.29365e-05 -0.00670332 0)
(-1.41598e-05 -0.00675677 0)
(-1.52415e-05 -0.00679517 0)
(-2.18644e-05 -0.00681868 0)
(-4.40556e-05 -0.00682853 0)
(-8.68413e-05 -0.00683108 0)
(-0.000188891 -0.00682415 0)
(-0.000368811 -0.00662175 0)
(-0.000217226 -0.00644875 0)
(-0.000218067 -0.00630335 0)
(-0.000231004 -0.00618714 0)
(-0.000242394 -0.00610064 0)
(-0.0002515 -0.00604281 0)
(-0.00026114 -0.00601166 0)
(-0.00027216 -0.00600482 0)
(-0.000284584 -0.00601981 0)
(-0.000298342 -0.00605412 0)
(-0.000313425 -0.00610524 0)
(-0.000329842 -0.0061708 0)
(-0.0003476 -0.00624849 0)
(-0.000366691 -0.00633619 0)
(-0.0003871 -0.0064319 0)
(-0.000408806 -0.00653381 0)
(-0.000431784 -0.00664028 0)
(-2.52687e-08 -0.000221462 0)
(-2.42563e-07 -0.000649933 0)
(-6.67304e-07 -0.00106398 0)
(-1.2822e-06 -0.00146364 0)
(-2.06775e-06 -0.00184893 0)
(-3.00622e-06 -0.00221985 0)
(-4.08649e-06 -0.00257643 0)
(-5.29489e-06 -0.00291867 0)
(-6.62303e-06 -0.00324659 0)
(-8.05792e-06 -0.00356019 0)
(-9.59275e-06 -0.00385947 0)
(-1.12145e-05 -0.00414443 0)
(-1.29172e-05 -0.00441507 0)
(-1.46869e-05 -0.00467139 0)
(-1.65179e-05 -0.00491339 0)
(-1.83945e-05 -0.00514105 0)
(-2.03104e-05 -0.00535437 0)
(-2.22475e-05 -0.00555334 0)
(-2.41986e-05 -0.00573794 0)
(-2.61417e-05 -0.00590816 0)
(-2.80669e-05 -0.00606396 0)
(-2.99439e-05 -0.00620535 0)
(-3.17667e-05 -0.00633227 0)
(-3.35337e-05 -0.00644471 0)
(-3.53051e-05 -0.00654263 0)
(-3.69407e-05 -0.006626 0)
(-3.75499e-05 -0.00669476 0)
(-3.53135e-05 -0.00674884 0)
(-3.25317e-05 -0.00678809 0)
(-5.23456e-05 -0.00681262 0)
(-0.000133599 -0.00682314 0)
(-0.000255188 -0.00682342 0)
(-0.000366469 -0.00681758 0)
(-0.000467898 -0.00662038 0)
(-0.000321421 -0.00644893 0)
(-0.000310013 -0.00630222 0)
(-0.000314691 -0.00618267 0)
(-0.00031734 -0.0060911 0)
(-0.000316716 -0.00602645 0)
(-0.000315663 -0.00598666 0)
(-0.000315232 -0.00596944 0)
(-0.00031559 -0.00597249 0)
(-0.000316769 -0.00599357 0)
(-0.000318845 -0.00603051 0)
(-0.000321906 -0.00608118 0)
(-0.000326022 -0.00614355 0)
(-0.000331243 -0.00621569 0)
(-0.000337602 -0.00629578 0)
(-0.00034512 -0.00638213 0)
(-0.000353805 -0.00647322 0)
(-3.17231e-08 -0.000218898 0)
(-2.67305e-07 -0.000642795 0)
(-7.18497e-07 -0.00105276 0)
(-1.36709e-06 -0.00144875 0)
(-2.19419e-06 -0.00183075 0)
(-3.18564e-06 -0.00219871 0)
(-4.33207e-06 -0.00255262 0)
(-5.62454e-06 -0.00289247 0)
(-7.05681e-06 -0.00321822 0)
(-8.62167e-06 -0.00352987 0)
(-1.03151e-05 -0.00382742 0)
(-1.21308e-05 -0.00411085 0)
(-1.40663e-05 -0.00438016 0)
(-1.61152e-05 -0.00463535 0)
(-1.82763e-05 -0.00487642 0)
(-2.05415e-05 -0.00510338 0)
(-2.29109e-05 -0.00531624 0)
(-2.53731e-05 -0.005515 0)
(-2.79293e-05 -0.00569968 0)
(-3.05627e-05 -0.00587029 0)
(-3.32746e-05 -0.00602686 0)
(-3.60387e-05 -0.0061694 0)
(-3.88623e-05 -0.00629796 0)
(-4.17342e-05 -0.00641255 0)
(-4.47068e-05 -0.00651324 0)
(-4.76395e-05 -0.00660003 0)
(-4.99014e-05 -0.00667303 0)
(-5.02812e-05 -0.00673228 0)
(-5.10514e-05 -0.00677801 0)
(-6.82648e-05 -0.00681028 0)
(-0.000130991 -0.00682996 0)
(-0.000230509 -0.00683299 0)
(-0.000351905 -0.00683439 0)
(-0.000414843 -0.00663931 0)
(-0.000295938 -0.00647348 0)
(-0.00028237 -0.00633178 0)
(-0.000281188 -0.00621594 0)
(-0.000276763 -0.00612645 0)
(-0.0002683 -0.00606194 0)
(-0.000258352 -0.00602018 0)
(-0.00024798 -0.00599882 0)
(-0.00023747 -0.00599571 0)
(-0.000226973 -0.00600884 0)
(-0.00021666 -0.00603631 0)
(-0.000206705 -0.00607628 0)
(-0.000197259 -0.00612695 0)
(-0.000188451 -0.00618661 0)
(-0.00018039 -0.00625362 0)
(-0.000173167 -0.00632646 0)
(-0.00016686 -0.00640372 0)
(2.28615e-08 -0.000218498 0)
(1.60076e-07 -0.000641555 0)
(3.97641e-07 -0.00105063 0)
(7.11884e-07 -0.0014457 0)
(1.07851e-06 -0.0018267 0)
(1.47832e-06 -0.00219363 0)
(1.89309e-06 -0.00254643 0)
(2.30776e-06 -0.0028851 0)
(2.70514e-06 -0.00320962 0)
(3.07191e-06 -0.00351995 0)
(3.39044e-06 -0.0038161 0)
(3.64852e-06 -0.00409804 0)
(3.82668e-06 -0.00436577 0)
(3.9132e-06 -0.00461928 0)
(3.88516e-06 -0.00485858 0)
(3.7308e-06 -0.00508366 0)
(3.42186e-06 -0.00529453 0)
(2.94599e-06 -0.00549118 0)
(2.26729e-06 -0.00567365 0)
(1.37248e-06 -0.00584194 0)
(2.15937e-07 -0.00599607 0)
(-1.21646e-06 -0.00613608 0)
(-2.98901e-06 -0.00626199 0)
(-5.13896e-06 -0.00637384 0)
(-7.77361e-06 -0.0064717 0)
(-1.08217e-05 -0.00655561 0)
(-1.3897e-05 -0.00662566 0)
(-1.63447e-05 -0.00668195 0)
(-2.0885e-05 -0.00672467 0)
(-3.90204e-05 -0.00675392 0)
(-9.57684e-05 -0.00677192 0)
(-0.000197762 -0.00677613 0)
(-0.000392521 -0.00676599 0)
(-0.000322158 -0.00664471 0)
(-0.000267472 -0.0065404 0)
(-0.000255775 -0.00644864 0)
(-0.000247924 -0.00637305 0)
(-0.000234377 -0.0063154 0)
(-0.000216058 -0.00627553 0)
(-0.00019485 -0.00625238 0)
(-0.000171658 -0.00624461 0)
(-0.000146922 -0.00625084 0)
(-0.000121005 -0.00626967 0)
(-9.4271e-05 -0.00629968 0)
(-6.70657e-05 -0.00633941 0)
(-3.97092e-05 -0.00638741 0)
(-1.24944e-05 -0.00644225 0)
(1.43099e-05 -0.00650255 0)
(4.04553e-05 -0.00656699 0)
(6.57125e-05 -0.00663437 0)
(3.33647e-08 -0.000220562 0)
(3.28873e-07 -0.000647135 0)
(8.92508e-07 -0.00105918 0)
(1.6919e-06 -0.00145673 0)
(2.68421e-06 -0.00183978 0)
(3.83608e-06 -0.00220835 0)
(5.11519e-06 -0.00256245 0)
(6.49701e-06 -0.00290208 0)
(7.95187e-06 -0.00322723 0)
(9.4595e-06 -0.0035379 0)
(1.09907e-05 -0.00383407 0)
(1.2529e-05 -0.00411575 0)
(1.40441e-05 -0.00438291 0)
(1.55231e-05 -0.00463553 0)
(1.69322e-05 -0.00487357 0)
(1.82626e-05 -0.00509703 0)
(1.94746e-05 -0.00530584 0)
(2.05638e-05 -0.0055 0)
(2.14816e-05 -0.00567941 0)
(2.22293e-05 -0.00584405 0)
(2.27456e-05 -0.00599383 0)
(2.30401e-05 -0.00612869 0)
(2.30285e-05 -0.0062485 0)
(2.27182e-05 -0.00635323 0)
(2.19883e-05 -0.00644265 0)
(2.09497e-05 -0.00651674 0)
(1.97659e-05 -0.0065751 0)
(1.88451e-05 -0.00661754 0)
(1.59947e-05 -0.00664382 0)
(5.44376e-06 -0.0066561 0)
(-3.43694e-05 -0.00666235 0)
(-0.000137471 -0.00665412 0)
(-0.000348293 -0.00663259 0)
(-0.000188872 -0.00659105 0)
(-0.000175747 -0.00655636 0)
(-0.000168708 -0.00653104 0)
(-0.000154004 -0.0065169 0)
(-0.00013105 -0.00651396 0)
(-0.000103201 -0.00652138 0)
(-7.19429e-05 -0.00653811 0)
(-3.79242e-05 -0.00656314 0)
(-1.66682e-06 -0.00659545 0)
(3.62745e-05 -0.00663403 0)
(7.53434e-05 -0.00667784 0)
(0.00011501 -0.00672577 0)
(0.000154773 -0.00677671 0)
(0.000194163 -0.00682955 0)
(0.000232732 -0.00688323 0)
(0.000270057 -0.00693669 0)
(0.000305735 -0.00698896 0)
(3.79757e-09 -0.000222631 0)
(-2.43915e-08 -0.000652845 0)
(-8.72477e-08 -0.00106807 0)
(-1.83714e-07 -0.00146836 0)
(-3.10353e-07 -0.00185375 0)
(-4.65699e-07 -0.00222428 0)
(-6.53397e-07 -0.00257997 0)
(-8.77363e-07 -0.00292084 0)
(-1.14632e-06 -0.00324692 0)
(-1.4666e-06 -0.00355821 0)
(-1.84988e-06 -0.00385472 0)
(-2.30278e-06 -0.00413646 0)
(-2.83834e-06 -0.00440342 0)
(-3.46129e-06 -0.0046556 0)
(-4.18449e-06 -0.004893 0)
(-5.00834e-06 -0.00511561 0)
(-5.94404e-06 -0.0053234 0)
(-6.9849e-06 -0.00551637 0)
(-8.13841e-06 -0.00569449 0)
(-9.38497e-06 -0.00585774 0)
(-1.07229e-05 -0.00600609 0)
(-1.21228e-05 -0.0061395 0)
(-1.36248e-05 -0.00625793 0)
(-1.52712e-05 -0.00636134 0)
(-1.69356e-05 -0.00644967 0)
(-1.73486e-05 -0.00652286 0)
(-1.40151e-05 -0.0065808 0)
(-9.63535e-06 -0.00662334 0)
(-3.56113e-05 -0.00665059 0)
(-0.000147669 -0.0066633 0)
(-0.000316299 -0.00666647 0)
(-0.00047021 -0.00666051 0)
(-0.000640735 -0.00673101 0)
(-0.000404171 -0.00679406 0)
(-0.000361038 -0.00684891 0)
(-0.000331562 -0.00690163 0)
(-0.000291855 -0.00695503 0)
(-0.000241491 -0.00700974 0)
(-0.000185401 -0.00706532 0)
(-0.000125793 -0.00712113 0)
(-6.35908e-05 -0.00717658 0)
(4.88533e-07 -0.00723108 0)
(6.56926e-05 -0.00728402 0)
(0.000131279 -0.00733473 0)
(0.000196554 -0.00738248 0)
(0.000260877 -0.0074265 0)
(0.000323652 -0.00746602 0)
(0.000384326 -0.00750024 0)
(0.00044238 -0.0075284 0)
(0.000497328 -0.00754977 0)
(-2.67425e-08 -0.000219769 0)
(-2.72272e-08 -0.000645147 0)
(3.63859e-08 -0.00105626 0)
(1.71873e-07 -0.00145302 0)
(3.70244e-07 -0.00183534 0)
(6.15057e-07 -0.00220315 0)
(8.92513e-07 -0.00255638 0)
(1.18312e-06 -0.00289499 0)
(1.4723e-06 -0.00321894 0)
(1.7369e-06 -0.00352819 0)
(1.96235e-06 -0.00382272 0)
(2.12193e-06 -0.00410251 0)
(2.20282e-06 -0.00436756 0)
(2.17466e-06 -0.00461786 0)
(2.02844e-06 -0.00485343 0)
(1.72959e-06 -0.00507426 0)
(1.27554e-06 -0.00528041 0)
(6.26348e-07 -0.00547188 0)
(-2.10421e-07 -0.00564876 0)
(-1.28101e-06 -0.00581105 0)
(-2.56179e-06 -0.00595889 0)
(-4.11372e-06 -0.00609229 0)
(-5.91621e-06 -0.00621146 0)
(-8.07946e-06 -0.00631638 0)
(-1.04432e-05 -0.00640736 0)
(-1.25343e-05 -0.00648435 0)
(-1.33029e-05 -0.00654784 0)
(-1.52134e-05 -0.00659795 0)
(-3.17241e-05 -0.00663569 0)
(-9.12768e-05 -0.006663 0)
(-0.000193331 -0.00667126 0)
(-0.000314347 -0.00668712 0)
(-0.000366649 -0.00693295 0)
(-0.00023708 -0.00715351 0)
(-0.00020676 -0.00734205 0)
(-0.000181785 -0.00750695 0)
(-0.000148938 -0.00765292 0)
(-0.000108902 -0.00778234 0)
(-6.50795e-05 -0.00789626 0)
(-1.92716e-05 -0.00799536 0)
(2.74992e-05 -0.00808028 0)
(7.43737e-05 -0.0081516 0)
(0.00012052 -0.0082098 0)
(0.000165154 -0.00825519 0)
(0.000207562 -0.00828795 0)
(0.000247098 -0.00830813 0)
(0.000283175 -0.0083157 0)
(0.000315261 -0.00831052 0)
(0.000342873 -0.00829241 0)
(0.000365574 -0.00826115 0)
(1.11742e-07 -0.00022375 0)
(7.40758e-07 -0.000656072 0)
(1.87016e-06 -0.00107321 0)
(3.42215e-06 -0.00147514 0)
(5.33323e-06 -0.00186187 0)
(7.545e-06 -0.00223338 0)
(1.00169e-05 -0.00258964 0)
(1.26957e-05 -0.00293067 0)
(1.55459e-05 -0.00325642 0)
(1.85114e-05 -0.00356692 0)
(2.15618e-05 -0.00386212 0)
(2.46372e-05 -0.00414205 0)
(2.77119e-05 -0.00440668 0)
(3.07199e-05 -0.00465602 0)
(3.36411e-05 -0.00489006 0)
(3.64005e-05 -0.00510881 0)
(3.89843e-05 -0.00531226 0)
(4.1305e-05 -0.00550043 0)
(4.33579e-05 -0.00567331 0)
(4.5039e-05 -0.00583095 0)
(4.63542e-05 -0.00597331 0)
(4.71652e-05 -0.00610047 0)
(4.7469e-05 -0.00621239 0)
(4.7117e-05 -0.00630916 0)
(4.64014e-05 -0.00639072 0)
(4.57299e-05 -0.00645713 0)
(4.48722e-05 -0.0065083 0)
(3.69227e-05 -0.00654465 0)
(8.73703e-06 -0.00656714 0)
(-4.53601e-05 -0.00658114 0)
(-0.000146718 -0.00658109 0)
(-0.000297466 -0.00667524 0)
(-0.000199509 -0.00702654 0)
(-0.000163881 -0.00732734 0)
(-0.000159271 -0.00757712 0)
(-0.000161198 -0.00778868 0)
(-0.000164093 -0.00796766 0)
(-0.000169498 -0.00811692 0)
(-0.000178899 -0.00823822 0)
(-0.000193001 -0.00833313 0)
(-0.000212208 -0.0084032 0)
(-0.000236873 -0.00844996 0)
(-0.000267335 -0.00847481 0)
(-0.000303908 -0.00847892 0)
(-0.000346873 -0.00846331 0)
(-0.000396484 -0.00842877 0)
(-0.000452974 -0.00837594 0)
(-0.00051656 -0.00830531 0)
(-0.000587447 -0.00821724 0)
(-0.000665817 -0.00811205 0)
(4.8788e-09 -0.000226609 0)
(4.61596e-07 -0.000664203 0)
(1.46584e-06 -0.00108614 0)
(3.00148e-06 -0.00149241 0)
(5.00142e-06 -0.00188297 0)
(7.41351e-06 -0.00225781 0)
(1.01741e-05 -0.0026169 0)
(1.32439e-05 -0.00296022 0)
(1.65561e-05 -0.00328775 0)
(2.00771e-05 -0.00359947 0)
(2.37335e-05 -0.00389537 0)
(2.7498e-05 -0.00417542 0)
(3.12881e-05 -0.00443962 0)
(3.50844e-05 -0.00468794 0)
(3.87921e-05 -0.00492038 0)
(4.24013e-05 -0.00513693 0)
(4.58005e-05 -0.00533757 0)
(4.89927e-05 -0.00552232 0)
(5.18461e-05 -0.00569116 0)
(5.43809e-05 -0.0058441 0)
(5.64308e-05 -0.00598115 0)
(5.80105e-05 -0.00610232 0)
(5.88917e-05 -0.00620763 0)
(5.92791e-05 -0.0062971 0)
(5.95767e-05 -0.00637067 0)
(6.06534e-05 -0.00642833 0)
(5.88374e-05 -0.00647039 0)
(3.86327e-05 -0.0064986 0)
(-2.0635e-05 -0.00651729 0)
(-0.000113253 -0.00652117 0)
(-0.000203923 -0.00652138 0)
(-0.000269628 -0.00678766 0)
(-0.000197257 -0.00703622 0)
(-0.000244085 -0.00722303 0)
(-0.000322016 -0.00735732 0)
(-0.000417092 -0.00745408 0)
(-0.00052704 -0.00751795 0)
(-0.000652465 -0.00755143 0)
(-0.000792839 -0.00755647 0)
(-0.000947177 -0.007535 0)
(-0.00111455 -0.00748886 0)
(-0.00129419 -0.00741977 0)
(-0.00148545 -0.00732916 0)
(-0.00168776 -0.0072182 0)
(-0.0019006 -0.00708778 0)
(-0.00212347 -0.00693851 0)
(-0.00235598 -0.00677084 0)
(-0.00259781 -0.006585 0)
(-0.00284868 -0.00638144 0)
(-0.00310839 -0.00615896 0)
(1.66921e-07 -0.000231878 0)
(1.25206e-06 -0.000679091 0)
(3.27393e-06 -0.00110975 0)
(6.12003e-06 -0.00152386 0)
(9.69003e-06 -0.00192143 0)
(1.38913e-05 -0.00230246 0)
(1.8661e-05 -0.00266695 0)
(2.39176e-05 -0.00301491 0)
(2.96067e-05 -0.00334631 0)
(3.56424e-05 -0.00366116 0)
(4.19771e-05 -0.00395943 0)
(4.85177e-05 -0.0042411 0)
(5.52231e-05 -0.00450615 0)
(6.19876e-05 -0.00475455 0)
(6.87768e-05 -0.00498628 0)
(7.5466e-05 -0.00520129 0)
(8.20291e-05 -0.00539956 0)
(8.83157e-05 -0.00558103 0)
(9.43116e-05 -0.00574569 0)
(9.98199e-05 -0.00589345 0)
(0.000104802 -0.00602432 0)
(0.00010897 -0.0061382 0)
(0.000112506 -0.00623505 0)
(0.000115965 -0.00631464 0)
(0.000120489 -0.00637695 0)
(0.000121629 -0.00642278 0)
(9.77952e-05 -0.00645562 0)
(2.37718e-05 -0.00647812 0)
(-8.14111e-05 -0.00649504 0)
(-0.000154241 -0.00649825 0)
(-0.000195293 -0.00648468 0)
(-0.000193379 -0.00623959 0)
(-0.000271036 -0.00598937 0)
(-0.000403474 -0.00574047 0)
(-0.000571445 -0.0054905 0)
(-0.000767697 -0.00524723 0)
(-0.000989341 -0.00500815 0)
(-0.0012338 -0.00477008 0)
(-0.00149833 -0.00453035 0)
(-0.00178028 -0.00428707 0)
(-0.00207715 -0.00403885 0)
(-0.00238664 -0.00378463 0)
(-0.00270655 -0.00352337 0)
(-0.00303482 -0.00325435 0)
(-0.00336935 -0.0029789 0)
(-0.00370783 -0.00269701 0)
(-0.00404809 -0.00240457 0)
(-0.00438798 -0.00210196 0)
(-0.00472521 -0.00178958 0)
(-0.00505747 -0.0014644 0)
(3.1162e-08 -0.000239434 0)
(6.0182e-07 -0.000700255 0)
(1.87165e-06 -0.00114315 0)
(3.85535e-06 -0.00156828 0)
(6.5398e-06 -0.00197572 0)
(9.90754e-06 -0.00236557 0)
(1.39501e-05 -0.00273785 0)
(1.86512e-05 -0.00309261 0)
(2.40058e-05 -0.00342984 0)
(2.99952e-05 -0.00374955 0)
(3.66215e-05 -0.0040517 0)
(4.38677e-05 -0.00433628 0)
(5.17472e-05 -0.00460319 0)
(6.02496e-05 -0.00485242 0)
(6.94043e-05 -0.00508382 0)
(7.92167e-05 -0.00529737 0)
(8.97391e-05 -0.00549284 0)
(0.000101004 -0.00567023 0)
(0.000113064 -0.0058292 0)
(0.000125945 -0.00596978 0)
(0.000139757 -0.00609148 0)
(0.000155197 -0.00619423 0)
(0.000173821 -0.00627714 0)
(0.000195903 -0.00634021 0)
(0.000208984 -0.0063846 0)
(0.000170452 -0.00641858 0)
(8.09144e-05 -0.00643994 0)
(-1.31053e-05 -0.00645802 0)
(-5.91494e-05 -0.00646581 0)
(-5.74536e-05 -0.00644001 0)
(-6.30571e-05 -0.0058608 0)
(-0.000160207 -0.00503436 0)
(-0.000287018 -0.00426555 0)
(-0.000439978 -0.00355733 0)
(-0.000616884 -0.00290412 0)
(-0.000815129 -0.00230783 0)
(-0.00103156 -0.00176246 0)
(-0.00126286 -0.00126232 0)
(-0.00150651 -0.00080285 0)
(-0.00176039 -0.000380812 0)
(-0.00202166 5.94537e-06 0)
(-0.00228768 0.000358529 0)
(-0.00255551 0.000678528 0)
(-0.00282175 0.000966896 0)
(-0.00308292 0.00122076 0)
(-0.00333586 0.00143889 0)
(-0.00357764 0.00162533 0)
(-0.00380623 0.00178364 0)
(-0.00401807 0.0018943 0)
(-0.00420703 0.00192575 0)
(3.05146e-08 -0.00024032 0)
(5.43432e-07 -0.000704786 0)
(1.66434e-06 -0.00115287 0)
(3.39742e-06 -0.00158438 0)
(5.76256e-06 -0.00199921 0)
(8.75949e-06 -0.00239724 0)
(1.24375e-05 -0.00277849 0)
(1.68165e-05 -0.00314289 0)
(2.19526e-05 -0.00349052 0)
(2.78714e-05 -0.00382131 0)
(3.4625e-05 -0.00413546 0)
(4.22437e-05 -0.00443285 0)
(5.07635e-05 -0.00471385 0)
(6.02229e-05 -0.00497824 0)
(7.06283e-05 -0.00522666 0)
(8.20393e-05 -0.00545875 0)
(9.44043e-05 -0.00567554 0)
(0.000107762 -0.00587643 0)
(0.000121869 -0.0060631 0)
(0.000136928 -0.00623447 0)
(0.000153906 -0.00639303 0)
(0.000176068 -0.00653708 0)
(0.000201754 -0.00667208 0)
(0.000203387 -0.00680085 0)
(9.81918e-05 -0.00680427 0)
(-4.47105e-05 -0.00680272 0)
(-0.000107703 -0.00680386 0)
(-0.000141245 -0.00675564 0)
(-0.000296675 -0.00656823 0)
(-0.000744412 -0.00590145 0)
(-0.00088694 -0.00470083 0)
(-0.00100735 -0.00356102 0)
(-0.00116323 -0.00254384 0)
(-0.00131756 -0.00162548 0)
(-0.00145997 -0.000797892 0)
(-0.00159301 -5.93254e-05 0)
(-0.00172065 0.000598052 0)
(-0.0018462 0.00118374 0)
(-0.00197167 0.00170387 0)
(-0.00209843 0.0021593 0)
(-0.00222878 0.00256201 0)
(-0.00236328 0.00291415 0)
(-0.00249684 0.00319878 0)
(-0.00261975 0.0033882 0)
(-0.00272828 0.0034987 0)
(-0.00282412 0.00354085 0)
(-0.00290686 0.00351797 0)
(-0.00297422 0.00343143 0)
(-0.00302498 0.00327945 0)
(-0.00305615 0.00295279 0)
(1.13882e-07 -0.000247294 0)
(4.78218e-07 -0.000723427 0)
(1.20098e-06 -0.00118151 0)
(2.35224e-06 -0.00162192 0)
(4.11479e-06 -0.00204516 0)
(6.63728e-06 -0.00245138 0)
(1.01346e-05 -0.00284102 0)
(1.47461e-05 -0.00321391 0)
(2.07062e-05 -0.00357046 0)
(2.81291e-05 -0.00391024 0)
(3.72803e-05 -0.00423371 0)
(4.82297e-05 -0.00454016 0)
(6.12769e-05 -0.00483018 0)
(7.64234e-05 -0.00510267 0)
(9.39955e-05 -0.00535848 0)
(0.000113853 -0.00559603 0)
(0.000136281 -0.00581659 0)
(0.000161044 -0.00601781 0)
(0.000189265 -0.00620145 0)
(0.000222265 -0.00636396 0)
(0.000259511 -0.00650907 0)
(0.000282034 -0.00663621 0)
(0.000226734 -0.00676342 0)
(9.64894e-05 -0.00688166 0)
(-3.99814e-05 -0.00685787 0)
(-0.000207642 -0.00673578 0)
(-0.000977791 -0.00664856 0)
(-0.00286104 -0.00347956 0)
(-0.00297109 -0.00128166 0)
(-0.0029612 -0.00110085 0)
(-0.00338441 -0.000864395 0)
(-0.00383878 -0.000554898 0)
(-0.00423665 -0.000209067 0)
(-0.00457939 0.000154853 0)
(-0.00488055 0.000565149 0)
(-0.00514783 0.00100438 0)
(-0.00538471 0.00146119 0)
(-0.00559284 0.0019275 0)
(-0.00577285 0.00239885 0)
(-0.00592561 0.0028689 0)
(-0.00605848 0.0033927 0)
(-0.00618303 0.0039315 0)
(-0.00628466 0.00405236 0)
(-0.0063364 0.00386715 0)
(-0.00633185 0.00372241 0)
(-0.00629425 0.00379064 0)
(-0.00622588 0.00353458 0)
(-0.00612029 0.00331562 0)
(-0.00598786 0.00302395 0)
(-0.00583022 0.00251517 0)
(-9.10483e-08 -0.000240628 0)
(1.19954e-06 -0.000709792 0)
(4.57175e-06 -0.0011666 0)
(1.02659e-05 -0.00161096 0)
(1.83412e-05 -0.00204295 0)
(2.89068e-05 -0.00246253 0)
(4.20612e-05 -0.00286987 0)
(5.79357e-05 -0.00326478 0)
(7.67012e-05 -0.00364759 0)
(9.84805e-05 -0.00401788 0)
(0.000123551 -0.00437625 0)
(0.000151968 -0.00472176 0)
(0.000184171 -0.00505546 0)
(0.000219977 -0.00537549 0)
(0.000259954 -0.00568379 0)
(0.000303595 -0.00597685 0)
(0.000352387 -0.00625825 0)
(0.000407585 -0.00652125 0)
(0.000472587 -0.00677265 0)
(0.00053446 -0.00699718 0)
(0.000535738 -0.00723335 0)
(0.000389053 -0.00714756 0)
(0.000179978 -0.00703538 0)
(-1.22988e-05 -0.00688269 0)
(-0.000524856 -0.00650375 0)
(-0.00164791 0.0108727 0)
(-0.00163795 0.00841444 0)
(-0.00248214 0.007477 0)
(-0.00313339 0.00686424 0)
(-0.0037178 0.00655147 0)
(-0.00428474 0.00645113 0)
(-0.00484374 0.00648352 0)
(-0.00538136 0.00648516 0)
(-0.00588948 0.0064072 0)
(-0.00636902 0.0063418 0)
(-0.00680891 0.0062696 0)
(-0.00720486 0.00618287 0)
(-0.00755422 0.00607536 0)
(-0.00785718 0.00594359 0)
(-0.0081121 0.00577859 0)
(-0.00830028 0.00561032 0)
(-0.00841767 0.00543627 0)
(-0.00847922 0.00480149 0)
(-0.00850753 0.0038724 0)
(-0.00850298 0.0029316 0)
(-0.00842753 0.00200893 0)
(-0.00828894 0.00106389 0)
(-0.00810804 0.000314201 0)
(-0.007884 -0.000527405 0)
(-0.00762948 -0.00150274 0)
(9.21942e-07 -0.000272676 0)
(7.13709e-06 -0.000801886 0)
(1.88046e-05 -0.0013153 0)
(3.56192e-05 -0.00181383 0)
(5.68993e-05 -0.00229746 0)
(8.25923e-05 -0.00276747 0)
(0.0001121 -0.00322334 0)
(0.000145524 -0.00366696 0)
(0.000182281 -0.00409719 0)
(0.000222458 -0.00451656 0)
(0.000265459 -0.00492296 0)
(0.000311408 -0.00531933 0)
(0.000359494 -0.00570241 0)
(0.000409781 -0.00607445 0)
(0.000461793 -0.00643139 0)
(0.00051563 -0.00677315 0)
(0.000576268 -0.00710023 0)
(0.000641938 -0.0074172 0)
(0.000670963 -0.00779473 0)
(0.000456344 -0.00774264 0)
(1.60438e-05 -0.00768186 0)
(-0.000415537 -0.00749897 0)
(-0.000624612 -0.00576316 0)
(-0.00147087 0.00532745 0)
(-0.00208041 0.00511955 0)
(-0.00486413 0.0148614 0)
(-0.00448229 0.0143857 0)
(-0.00491697 0.013984 0)
(-0.00539433 0.0136851 0)
(-0.00584189 0.0135242 0)
(-0.00622109 0.0133395 0)
(-0.00653823 0.0131891 0)
(-0.00681141 0.0129664 0)
(-0.00704824 0.0125208 0)
(-0.00724441 0.0120096 0)
(-0.00739971 0.0114665 0)
(-0.00751577 0.0107702 0)
(-0.00758948 0.0100082 0)
(-0.00762205 0.00916073 0)
(-0.00760859 0.00823986 0)
(-0.00755084 0.00731116 0)
(-0.00746912 0.006572 0)
(-0.00738033 0.0056077 0)
(-0.0072792 0.00438315 0)
(-0.0071573 0.00301509 0)
(-0.00702216 0.00136382 0)
(-0.00688029 -5.01397e-05 0)
(-0.00671679 -0.00129418 0)
(-0.00652312 -0.00260528 0)
(-0.0063058 -0.00392711 0)
(-0.000463757 -0.00860597 0)
(-0.000484052 -0.00879109 0)
(-0.000504911 -0.00897466 0)
(-0.000526324 -0.0091557 0)
(-0.000548281 -0.00933338 0)
(-0.000570773 -0.00950698 0)
(-0.00059379 -0.0096759 0)
(-0.000617324 -0.00983964 0)
(-0.000641366 -0.00999781 0)
(-0.000665906 -0.0101501 0)
(-0.000690936 -0.0102962 0)
(-0.000716446 -0.0104361 0)
(-0.000742426 -0.0105696 0)
(-0.000768866 -0.0106966 0)
(-0.000795755 -0.0108172 0)
(-0.000823079 -0.0109315 0)
(-0.000850827 -0.0110396 0)
(-0.000878982 -0.0111415 0)
(-0.00090753 -0.0112374 0)
(-0.000936454 -0.0113276 0)
(-0.000965736 -0.0114122 0)
(-0.000995361 -0.0114915 0)
(-0.00102531 -0.0115657 0)
(-0.00105557 -0.011635 0)
(-0.00108613 -0.0116997 0)
(-0.00111696 -0.0117602 0)
(-0.00114805 -0.0118167 0)
(-0.00117937 -0.0118696 0)
(-0.00121091 -0.0119193 0)
(-0.00124265 -0.011966 0)
(-0.00127455 -0.01201 0)