/*--------------------------------*- C++ -*----------------------------------*\
| =========                 |                                                 |
| \\      /  F ield         | OpenFOAM: The Open Source CFD Toolbox           |
|  \\    /   O peration     | Version:  2.4.0                                 |
|   \\  /    A nd           | Web:      www.OpenFOAM.org                      |
|    \\/     M anipulation  |                                                 |
\*---------------------------------------------------------------------------*/
FoamFile
{
    version     2.0;
    format      ascii;
    class       volScalarField;
    location    "0.013";
    object      H;
}
// * * * * * * * * * * * * * * * * * * * * * * * * * * * * * * * * * * * * * //

dimensions      [0 2 -2 0 0 0 0];

internalField   nonuniform List<scalar> 
125
(
-6.70181
-6.40636
-6.12008
-5.84289
-5.57471
-5.31543
-5.06496
-4.82318
-4.58996
-4.36519
-4.14871
-3.94038
-3.74006
-3.54758
-3.36278
-3.18549
-3.01554
-2.85276
-2.69695
-2.54794
-2.40555
-2.26958
-2.13985
-2.01617
-1.89834
-1.78619
-1.67952
-1.57814
-1.48187
-1.39052
-1.3039
-1.22184
-1.14416
-1.07069
-1.00124
-0.935653
-0.873762
-0.815403
-0.760418
-0.708653
-0.659957
-0.614186
-0.571196
-0.53085
-0.493016
-0.457564
-0.424371
-0.393316
-0.364285
-0.337167
-0.311855
-0.288248
-0.266247
-0.245758
-0.226693
-0.208966
-0.192495
-0.177204
-0.163018
-0.149867
-0.137686
-0.12641
-0.115981
-0.106341
-0.0974388
-0.0892225
-0.0816451
-0.0746622
-0.0682317
-0.0623142
-0.0568726
-0.0518723
-0.0472806
-0.0430673
-0.0392039
-0.0356637
-0.0324221
-0.0294558
-0.0267434
-0.0242649
-0.0220017
-0.0199364
-0.0180532
-0.016337
-0.0147741
-0.0133519
-0.0120586
-0.0108832
-0.00981574
-0.00884699
-0.00796842
-0.00717216
-0.00645101
-0.00579834
-0.00520804
-0.00467453
-0.00419268
-0.00375779
-0.00336557
-0.00301208
-0.00269373
-0.00240722
-0.00214956
-0.00191802
-0.0017101
-0.00152353
-0.00135625
-0.00120637
-0.00107219
-0.000952157
-0.000844867
-0.000749041
-0.000663524
-0.000587268
-0.000519328
-0.000458847
-0.000405052
-0.000357244
-0.000314794
-0.000277135
-0.000243756
-0.000214196
-0.000188044
-0.000164927
-0.000144512
)
;

boundaryField
{
    BotWall
    {
        type            zeroGradient;
    }
    FreeStream
    {
        type            zeroGradient;
    }
    FrontNBack
    {
        type            empty;
    }
    LeftSide
    {
        type            symmetryPlane;
    }
    RightSide
    {
        type            symmetryPlane;
    }
    procBoundary8to5
    {
        type            processor;
        value           nonuniform List<scalar> 
50
(
-0.0363176
-0.0330214
-0.0300047
-0.0272457
-0.0247241
-0.0224211
-0.0203192
-0.0184021
-0.0166549
-0.0150635
-0.0136151
-0.0122977
-0.0111003
-0.0100128
-0.00902562
-0.00813023
-0.00731863
-0.00658349
-0.00591807
-0.00531618
-0.00477212
-0.00428069
-0.0038371
-0.00343699
-0.00307634
-0.00275151
-0.00245914
-0.00219618
-0.00195984
-0.0017476
-0.00155713
-0.00138632
-0.00123328
-0.00109624
-0.000973648
-0.00086405
-0.000766153
-0.000678777
-0.000600854
-0.00053142
-0.000469601
-0.000414608
-0.00036573
-0.000322323
-0.00028381
-0.000249669
-0.00021943
-0.000192673
-0.000169017
-0.000148123
)
;
    }
    procBoundary8to6
    {
        type            processor;
        value           nonuniform List<scalar> 
75
(
-6.70498
-6.41065
-6.12542
-5.84922
-5.58193
-5.32348
-5.07376
-4.83265
-4.60003
-4.37578
-4.15975
-3.95182
-3.75181
-3.5596
-3.375
-3.19786
-3.02801
-2.86527
-2.70947
-2.56043
-2.41796
-2.28188
-2.15201
-2.02816
-1.91014
-1.79777
-1.69085
-1.58922
-1.49267
-1.40103
-1.31411
-1.23175
-1.15375
-1.07995
-1.01017
-0.944257
-0.882035
-0.823345
-0.768031
-0.71594
-0.666922
-0.620833
-0.577531
-0.536879
-0.498746
-0.463003
-0.429527
-0.398197
-0.3689
-0.341525
-0.315965
-0.292119
-0.269888
-0.24918
-0.229904
-0.211976
-0.195313
-0.179839
-0.16548
-0.152164
-0.139826
-0.128403
-0.117834
-0.108063
-0.0990357
-0.0907026
-0.0830155
-0.0759296
-0.0694027
-0.0633949
-0.057869
-0.0527899
-0.048125
-0.0438434
-0.0399165
)
;
    }
    procBoundary8to7
    {
        type            processor;
        value           uniform -0.000126501;
    }
    procBoundary8to9
    {
        type            processor;
        value           uniform -7.00648;
    }
    procBoundary8to10
    {
        type            processor;
        value           nonuniform List<scalar> 
75
(
-0.313552
-0.289846
-0.267749
-0.247169
-0.228017
-0.210206
-0.193656
-0.178289
-0.164031
-0.150813
-0.138566
-0.12723
-0.116743
-0.107049
-0.098095
-0.0898305
-0.082208
-0.0751827
-0.0687125
-0.0627579
-0.0572817
-0.052249
-0.0476273
-0.043386
-0.0394965
-0.0359322
-0.0326682
-0.0296812
-0.0269496
-0.0244534
-0.0221738
-0.0200935
-0.0181963
-0.0164674
-0.0148928
-0.0134598
-0.0121566
-0.0109722
-0.00989645
-0.00892014
-0.00803465
-0.00723209
-0.0065052
-0.00584729
-0.00525223
-0.00471439
-0.00422861
-0.00379016
-0.00339471
-0.00303829
-0.00271728
-0.00242837
-0.00216855
-0.00193504
-0.00172536
-0.00153719
-0.00136847
-0.0012173
-0.00108196
-0.000960885
-0.000852656
-0.000755987
-0.000669714
-0.000592781
-0.000524234
-0.000463209
-0.000408928
-0.000360686
-0.000317848
-0.000279843
-0.000246155
-0.00021632
-0.000189923
-0.000166588
-0.000145979
)
;
    }
    procBoundary8to11
    {
        type            processor;
        value           nonuniform List<scalar> 
50
(
-6.70107
-6.40624
-6.12054
-5.84389
-5.5762
-5.31739
-5.06733
-4.82593
-4.59307
-4.3686
-4.15239
-3.94431
-3.7442
-3.55189
-3.36725
-3.19008
-3.02023
-2.85751
-2.70176
-2.55278
-2.4104
-2.27442
-2.14466
-2.02094
-1.90307
-1.79085
-1.6841
-1.58263
-1.48626
-1.39481
-1.30808
-1.2259
-1.1481
-1.0745
-1.00492
-0.939206
-0.877182
-0.818689
-0.763571
-0.711672
-0.662844
-0.616941
-0.573822
-0.53335
-0.495391
-0.459817
-0.426506
-0.395336
-0.366194
-0.338968
)
;
    }
}


// ************************************************************************* //
