/*--------------------------------*- C++ -*----------------------------------*\
| =========                 |                                                 |
| \\      /  F ield         | OpenFOAM: The Open Source CFD Toolbox           |
|  \\    /   O peration     | Version:  2.4.0                                 |
|   \\  /    A nd           | Web:      www.OpenFOAM.org                      |
|    \\/     M anipulation  |                                                 |
\*---------------------------------------------------------------------------*/
FoamFile
{
    version     2.0;
    format      ascii;
    class       volScalarField;
    location    "4.8";
    object      p;
}
// * * * * * * * * * * * * * * * * * * * * * * * * * * * * * * * * * * * * * //

dimensions      [1 -1 -2 0 0 0 0];

internalField   nonuniform List<scalar> 
125
(
-0.0577089
-0.0577088
-0.0577086
-0.0577087
-0.0577089
-0.0588434
-0.0588433
-0.0588431
-0.0588432
-0.0588434
-0.0599905
-0.0599905
-0.0599903
-0.0599904
-0.0599905
-0.0611505
-0.0611504
-0.0611503
-0.0611503
-0.0611505
-0.0623234
-0.0623233
-0.0623232
-0.0623232
-0.0623234
-0.0635094
-0.0635093
-0.0635092
-0.0635092
-0.0635094
-0.0647086
-0.0647086
-0.0647084
-0.0647085
-0.0647086
-0.0659212
-0.0659212
-0.065921
-0.0659211
-0.0659212
-0.0671474
-0.0671473
-0.0671472
-0.0671472
-0.0671474
-0.0683872
-0.0683871
-0.068387
-0.0683871
-0.0683872
-0.0696408
-0.0696408
-0.0696407
-0.0696407
-0.0696408
-0.0709085
-0.0709084
-0.0709083
-0.0709084
-0.0709085
-0.0721903
-0.0721902
-0.0721901
-0.0721902
-0.0721903
-0.0734864
-0.0734863
-0.0734862
-0.0734863
-0.0734864
-0.0747969
-0.0747969
-0.0747968
-0.0747968
-0.0747969
-0.0761221
-0.0761221
-0.076122
-0.076122
-0.0761221
-0.0774621
-0.0774621
-0.077462
-0.077462
-0.0774621
-0.078817
-0.078817
-0.0788169
-0.0788169
-0.078817
-0.0801871
-0.080187
-0.080187
-0.080187
-0.080187
-0.0815724
-0.0815724
-0.0815723
-0.0815723
-0.0815724
-0.0829732
-0.0829732
-0.0829731
-0.0829731
-0.0829732
-0.0843896
-0.0843896
-0.0843895
-0.0843896
-0.0843896
-0.0858218
-0.0858218
-0.0858218
-0.0858218
-0.0858218
-0.08727
-0.08727
-0.08727
-0.08727
-0.08727
-0.0887344
-0.0887344
-0.0887344
-0.0887344
-0.0887344
)
;

boundaryField
{
    BotWall
    {
        type            calculated;
        value           nonuniform 0();
    }
    FreeStream
    {
        type            calculated;
        value           nonuniform List<scalar> 5(-0.0894706 -0.0894706 -0.0894707 -0.0894706 -0.0894706);
    }
    FrontNBack
    {
        type            empty;
    }
    LeftSide
    {
        type            symmetryPlane;
    }
    RightSide
    {
        type            symmetryPlane;
    }
    procBoundary3to2
    {
        type            processor;
        value           nonuniform List<scalar> 5(-0.0565869 -0.0565868 -0.0565866 -0.0565867 -0.0565869);
    }
}


// ************************************************************************* //
