/*--------------------------------*- C++ -*----------------------------------*\
| =========                 |                                                 |
| \\      /  F ield         | OpenFOAM: The Open Source CFD Toolbox           |
|  \\    /   O peration     | Version:  2.4.0                                 |
|   \\  /    A nd           | Web:      www.OpenFOAM.org                      |
|    \\/     M anipulation  |                                                 |
\*---------------------------------------------------------------------------*/
FoamFile
{
    version     2.0;
    format      ascii;
    class       surfaceScalarField;
    location    "4.8";
    object      phi;
}
// * * * * * * * * * * * * * * * * * * * * * * * * * * * * * * * * * * * * * //

dimensions      [0 3 -1 0 0 0 0];

internalField   nonuniform List<scalar> 
220
(
5.61865e-15
-1.73428e-10
5.92262e-15
-1.73615e-10
-2.69244e-15
-1.74168e-10
-7.43708e-15
-1.73932e-10
-1.73371e-10
5.548e-15
-1.73434e-10
5.8632e-15
-1.73615e-10
-2.66917e-15
-1.74159e-10
-7.35807e-15
-1.73927e-10
-1.73378e-10
5.45713e-15
-1.73439e-10
5.78229e-15
-1.73616e-10
-2.63677e-15
-1.74151e-10
-7.25332e-15
-1.73922e-10
-1.73385e-10
5.34789e-15
-1.73445e-10
5.68184e-15
-1.73616e-10
-2.596e-15
-1.74142e-10
-7.12516e-15
-1.73918e-10
-1.73392e-10
5.22235e-15
-1.7345e-10
5.56405e-15
-1.73616e-10
-2.54771e-15
-1.74134e-10
-6.97616e-15
-1.73913e-10
-1.73399e-10
5.08281e-15
-1.73455e-10
5.43134e-15
-1.73617e-10
-2.49285e-15
-1.74126e-10
-6.80918e-15
-1.73909e-10
-1.73406e-10
4.93171e-15
-1.7346e-10
5.28631e-15
-1.73617e-10
-2.43244e-15
-1.74119e-10
-6.62725e-15
-1.73905e-10
-1.73413e-10
4.77165e-15
-1.73465e-10
5.13171e-15
-1.73617e-10
-2.36756e-15
-1.74111e-10
-6.43362e-15
-1.73901e-10
-1.73419e-10
4.60531e-15
-1.73469e-10
4.97042e-15
-1.73618e-10
-2.29936e-15
-1.74104e-10
-6.23163e-15
-1.73897e-10
-1.73426e-10
4.43544e-15
-1.73474e-10
4.80534e-15
-1.73618e-10
-2.229e-15
-1.74097e-10
-6.02471e-15
-1.73893e-10
-1.73432e-10
4.26481e-15
-1.73478e-10
4.6394e-15
-1.73618e-10
-2.15769e-15
-1.7409e-10
-5.81632e-15
-1.73889e-10
-1.73437e-10
4.09614e-15
-1.73482e-10
4.47551e-15
-1.73619e-10
-2.08661e-15
-1.74083e-10
-5.6099e-15
-1.73886e-10
-1.73443e-10
3.93211e-15
-1.73486e-10
4.31648e-15
-1.73619e-10
-2.01694e-15
-1.74077e-10
-5.4088e-15
-1.73882e-10
-1.73448e-10
3.77528e-15
-1.7349e-10
4.16498e-15
-1.7362e-10
-1.94985e-15
-1.74071e-10
-5.21626e-15
-1.73879e-10
-1.73454e-10
3.62802e-15
-1.73494e-10
4.02352e-15
-1.7362e-10
-1.88641e-15
-1.74065e-10
-5.03532e-15
-1.73876e-10
-1.73459e-10
3.49255e-15
-1.73497e-10
3.89435e-15
-1.7362e-10
-1.82767e-15
-1.74059e-10
-4.8688e-15
-1.73873e-10
-1.73464e-10
3.37082e-15
-1.735e-10
3.77949e-15
-1.73621e-10
-1.77458e-15
-1.74054e-10
-4.71923e-15
-1.7387e-10
-1.73468e-10
3.2645e-15
-1.73504e-10
3.68059e-15
-1.73621e-10
-1.72798e-15
-1.74048e-10
-4.58882e-15
-1.73867e-10
-1.73473e-10
3.17496e-15
-1.73507e-10
3.59899e-15
-1.73622e-10
-1.68861e-15
-1.74043e-10
-4.47939e-15
-1.73864e-10
-1.73477e-10
3.10321e-15
-1.7351e-10
3.53562e-15
-1.73622e-10
-1.65707e-15
-1.74038e-10
-4.39236e-15
-1.73862e-10
-1.73482e-10
3.04989e-15
-1.73513e-10
3.49097e-15
-1.73623e-10
-1.63382e-15
-1.74033e-10
-4.32867e-15
-1.73859e-10
-1.73486e-10
3.01525e-15
-1.73516e-10
3.46509e-15
-1.73623e-10
-1.61915e-15
-1.74028e-10
-4.28875e-15
-1.73856e-10
-1.7349e-10
2.9992e-15
-1.73519e-10
3.45762e-15
-1.73623e-10
-1.6132e-15
-1.74023e-10
-4.27265e-15
-1.73854e-10
-1.73495e-10
3.00141e-15
-1.73522e-10
3.46836e-15
-1.73624e-10
-1.61621e-15
-1.74017e-10
-4.28059e-15
-1.73851e-10
-1.73499e-10
3.02047e-15
3.49783e-15
-1.62881e-15
-4.31253e-15
)
;

boundaryField
{
    BotWall
    {
        type            calculated;
        value           nonuniform 0();
    }
    FreeStream
    {
        type            calculated;
        value           nonuniform List<scalar> 5(-1.73525e-10 -1.73624e-10 -1.74012e-10 -1.73848e-10 -1.73503e-10);
    }
    FrontNBack
    {
        type            empty;
        value           nonuniform 0();
    }
    LeftSide
    {
        type            symmetryPlane;
        value           uniform 0;
    }
    RightSide
    {
        type            symmetryPlane;
        value           uniform 0;
    }
    procBoundary3to2
    {
        type            processor;
        value           nonuniform List<scalar> 5(1.73423e-10 1.73615e-10 1.74176e-10 1.73936e-10 1.73363e-10);
    }
}


// ************************************************************************* //
