/*--------------------------------*- C++ -*----------------------------------*\
| =========                 |                                                 |
| \\      /  F ield         | OpenFOAM: The Open Source CFD Toolbox           |
|  \\    /   O peration     | Version:  2.4.0                                 |
|   \\  /    A nd           | Web:      www.OpenFOAM.org                      |
|    \\/     M anipulation  |                                                 |
\*---------------------------------------------------------------------------*/
FoamFile
{
    version     2.0;
    format      ascii;
    class       volVectorField;
    location    "4.1";
    object      U;
}
// * * * * * * * * * * * * * * * * * * * * * * * * * * * * * * * * * * * * * //

dimensions      [0 1 -1 0 0 0 0];

internalField   nonuniform List<vector> 
125
(
(2.91565e-08 -0.00103853 0)
(1.02089e-07 -0.00103846 0)
(3.9204e-08 -0.00103837 0)
(-8.63393e-08 -0.00103842 0)
(-4.8565e-08 -0.00103854 0)
(2.60613e-08 -0.00103853 0)
(9.25469e-08 -0.00103846 0)
(3.60959e-08 -0.00103837 0)
(-7.65538e-08 -0.00103842 0)
(-4.23892e-08 -0.00103854 0)
(2.30971e-08 -0.00103853 0)
(8.3441e-08 -0.00103846 0)
(3.31317e-08 -0.00103837 0)
(-6.72559e-08 -0.00103841 0)
(-3.65392e-08 -0.00103854 0)
(2.02633e-08 -0.00103853 0)
(7.47646e-08 -0.00103846 0)
(3.03083e-08 -0.00103837 0)
(-5.84364e-08 -0.00103841 0)
(-3.1008e-08 -0.00103855 0)
(1.75592e-08 -0.00103853 0)
(6.65107e-08 -0.00103846 0)
(2.76221e-08 -0.00103836 0)
(-5.00857e-08 -0.00103841 0)
(-2.57881e-08 -0.00103855 0)
(1.4984e-08 -0.00103853 0)
(5.86718e-08 -0.00103846 0)
(2.507e-08 -0.00103836 0)
(-4.21941e-08 -0.00103841 0)
(-2.08722e-08 -0.00103855 0)
(1.25368e-08 -0.00103853 0)
(5.12403e-08 -0.00103846 0)
(2.26486e-08 -0.00103836 0)
(-3.47517e-08 -0.00103841 0)
(-1.62527e-08 -0.00103855 0)
(1.02163e-08 -0.00103853 0)
(4.42085e-08 -0.00103846 0)
(2.03544e-08 -0.00103836 0)
(-2.77484e-08 -0.00103841 0)
(-1.19221e-08 -0.00103855 0)
(8.02129e-09 -0.00103854 0)
(3.75684e-08 -0.00103846 0)
(1.81843e-08 -0.00103836 0)
(-2.11739e-08 -0.00103841 0)
(-7.87277e-09 -0.00103855 0)
(5.95034e-09 -0.00103854 0)
(3.13117e-08 -0.00103846 0)
(1.61347e-08 -0.00103836 0)
(-1.50177e-08 -0.00103841 0)
(-4.09702e-09 -0.00103855 0)
(4.00186e-09 -0.00103854 0)
(2.543e-08 -0.00103846 0)
(1.42024e-08 -0.00103836 0)
(-9.26913e-09 -0.00103841 0)
(-5.87066e-10 -0.00103855 0)
(2.17408e-09 -0.00103854 0)
(1.99147e-08 -0.00103846 0)
(1.2384e-08 -0.00103836 0)
(-3.91736e-09 -0.00103841 0)
(2.66491e-09 -0.00103855 0)
(4.65117e-10 -0.00103854 0)
(1.47569e-08 -0.00103846 0)
(1.06762e-08 -0.00103836 0)
(1.04862e-09 -0.00103841 0)
(5.66679e-09 -0.00103855 0)
(-1.1271e-09 -0.00103854 0)
(9.94752e-09 -0.00103846 0)
(9.07558e-09 -0.00103836 0)
(5.64e-09 -0.00103841 0)
(8.42653e-09 -0.00103855 0)
(-2.60477e-09 -0.00103854 0)
(5.47741e-09 -0.00103846 0)
(7.57884e-09 -0.00103836 0)
(9.86814e-09 -0.00103841 0)
(1.09521e-08 -0.00103855 0)
(-3.97026e-09 -0.00103854 0)
(1.33707e-09 -0.00103846 0)
(6.18264e-09 -0.00103836 0)
(1.37445e-08 -0.00103841 0)
(1.32516e-08 -0.00103855 0)
(-5.22611e-09 -0.00103854 0)
(-2.48316e-09 -0.00103846 0)
(4.88366e-09 -0.00103836 0)
(1.72809e-08 -0.00103841 0)
(1.53332e-08 -0.00103855 0)
(-6.37497e-09 -0.00103854 0)
(-5.99312e-09 -0.00103846 0)
(3.67857e-09 -0.00103836 0)
(2.0489e-08 -0.00103841 0)
(1.7205e-08 -0.00103855 0)
(-7.41968e-09 -0.00103854 0)
(-9.20287e-09 -0.00103846 0)
(2.56406e-09 -0.00103836 0)
(2.33808e-08 -0.00103841 0)
(1.88751e-08 -0.00103855 0)
(-8.36321e-09 -0.00103854 0)
(-1.21227e-08 -0.00103846 0)
(1.53683e-09 -0.00103836 0)
(2.59686e-08 -0.00103841 0)
(2.0352e-08 -0.00103855 0)
(-9.20869e-09 -0.00103854 0)
(-1.47629e-08 -0.00103847 0)
(5.93574e-10 -0.00103836 0)
(2.82645e-08 -0.00103841 0)
(2.16438e-08 -0.00103855 0)
(-9.95939e-09 -0.00103854 0)
(-1.71342e-08 -0.00103847 0)
(-2.68998e-10 -0.00103836 0)
(3.0281e-08 -0.00103841 0)
(2.27591e-08 -0.00103855 0)
(-1.06187e-08 -0.00103854 0)
(-1.92475e-08 -0.00103847 0)
(-1.05417e-09 -0.00103836 0)
(3.20306e-08 -0.00103841 0)
(2.37061e-08 -0.00103854 0)
(-1.11903e-08 -0.00103854 0)
(-2.11136e-08 -0.00103847 0)
(-1.76522e-09 -0.00103836 0)
(3.3526e-08 -0.00103841 0)
(2.44934e-08 -0.00103854 0)
(-1.16778e-08 -0.00103853 0)
(-2.27438e-08 -0.00103847 0)
(-2.40541e-09 -0.00103836 0)
(3.47802e-08 -0.00103841 0)
(2.51294e-08 -0.00103854 0)
)
;

boundaryField
{
    BotWall
    {
        type            fixedValue;
        value           nonuniform 0();
    }
    FreeStream
    {
        type            zeroGradient;
    }
    FrontNBack
    {
        type            empty;
    }
    LeftSide
    {
        type            symmetryPlane;
    }
    RightSide
    {
        type            symmetryPlane;
    }
    procBoundary2to1
    {
        type            processor;
        value           nonuniform List<vector> 5((3.2383e-08 -0.00103853 0) (1.12075e-07 -0.00103846 0) (4.24595e-08 -0.00103837 0) (-9.66216e-08 -0.00103842 0) (-5.50739e-08 -0.00103854 0));
    }
    procBoundary2to3
    {
        type            processor;
        value           nonuniform List<vector> 5((-1.20851e-08 -0.00103853 0) (-2.41494e-08 -0.00103847 0) (-2.97803e-09 -0.00103836 0) (3.5806e-08 -0.00103841 0) (2.56229e-08 -0.00103854 0));
    }
}


// ************************************************************************* //
