/*--------------------------------*- C++ -*----------------------------------*\
| =========                 |                                                 |
| \\      /  F ield         | OpenFOAM: The Open Source CFD Toolbox           |
|  \\    /   O peration     | Version:  2.4.0                                 |
|   \\  /    A nd           | Web:      www.OpenFOAM.org                      |
|    \\/     M anipulation  |                                                 |
\*---------------------------------------------------------------------------*/
FoamFile
{
    version     2.0;
    format      ascii;
    class       volScalarField;
    location    "4.3";
    object      T;
}
// * * * * * * * * * * * * * * * * * * * * * * * * * * * * * * * * * * * * * //

dimensions      [0 0 0 1 0 0 0];

internalField   nonuniform List<scalar> 
125
(
293.098
293.098
293.098
293.098
293.098
293.295
293.295
293.295
293.295
293.295
293.493
293.493
293.493
293.493
293.493
293.695
293.695
293.695
293.695
293.695
293.898
293.898
293.898
293.898
293.898
294.104
294.104
294.104
294.104
294.104
294.312
294.312
294.312
294.312
294.312
294.522
294.522
294.522
294.522
294.522
294.735
294.735
294.735
294.735
294.735
294.95
294.95
294.95
294.95
294.95
295.168
295.168
295.168
295.168
295.168
295.388
295.388
295.388
295.388
295.388
295.611
295.611
295.611
295.611
295.611
295.836
295.836
295.837
295.836
295.836
296.064
296.064
296.065
296.064
296.064
296.295
296.295
296.295
296.295
296.295
296.528
296.528
296.529
296.528
296.528
296.764
296.764
296.765
296.765
296.764
297.003
297.003
297.004
297.003
297.003
297.245
297.245
297.245
297.245
297.244
297.489
297.489
297.49
297.49
297.489
297.737
297.737
297.737
297.737
297.736
297.995
297.995
297.995
297.995
297.995
297.995
297.995
297.995
297.995
297.995
297.995
297.995
297.996
297.996
297.995
)
;

boundaryField
{
    BotWall
    {
        type            fixedValue;
        value           uniform 293;
    }
    FreeStream
    {
        type            fixedValue;
        value           nonuniform 0();
    }
    FrontNBack
    {
        type            empty;
    }
    LeftSide
    {
        type            symmetryPlane;
    }
    RightSide
    {
        type            symmetryPlane;
    }
    procBoundary0to1
    {
        type            processor;
        value           nonuniform List<scalar> 5(297.995 297.996 297.996 297.996 297.995);
    }
}


// ************************************************************************* //
