/*--------------------------------*- C++ -*----------------------------------*\
| =========                 |                                                 |
| \\      /  F ield         | OpenFOAM: The Open Source CFD Toolbox           |
|  \\    /   O peration     | Version:  2.4.0                                 |
|   \\  /    A nd           | Web:      www.OpenFOAM.org                      |
|    \\/     M anipulation  |                                                 |
\*---------------------------------------------------------------------------*/
FoamFile
{
    version     2.0;
    format      ascii;
    class       volScalarField;
    location    "0.1";
    object      alpha1;
}
// * * * * * * * * * * * * * * * * * * * * * * * * * * * * * * * * * * * * * //

dimensions      [0 0 0 0 0 0 0];

internalField   nonuniform List<scalar> 
8000
(
1
1
1
1
1
1
1
1
1
1
1
1
1
1
1
1
1
1
1
1
1
1
1
1
1
1
1
1
1
1
1
1
1
1
1
1
1
1
1
1
1
1
1
1
1
1
1
1
1
0.999984
1
1
1
1
1
1
1
1
1
1
1
1
1
1
1
1
1
1
1
1
1
1
1
1
1
1
1
1
1
1
1
1
1
1
1
1
1
1
1
1
1
1
1
1
1
1
1
1
1
0.999986
1
1
1
1
1
1
1
1
1
1
1
1
1
1
1
1
1
1
1
1
1
1
1
1
1
1
1
1
1
1
1
1
1
1
1
1
1
1
1
1
1
1
1
1
1
1
1
1
1
0.999986
1
1
1
1
1
1
1
1
1
1
1
1
1
1
1
1
1
1
1
1
1
1
1
1
1
1
1
1
1
1
1
1
1
1
1
1
1
1
1
1
1
1
1
1
1
1
1
1
1
0.999986
1
1
1
1
1
1
1
1
1
1
1
1
1
1
1
1
1
1
1
1
1
1
1
1
1
1
1
1
1
1
1
1
1
1
1
1
1
1
1
1
1
1
1
1
1
1
1
1
1
0.999985
1
1
1
1
1
1
1
1
1
1
1
1
1
1
1
1
1
1
1
1
1
1
1
1
1
1
1
1
1
1
1
1
1
1
1
1
1
1
1
1
1
1
1
1
1
1
1
1
1
0.999984
1
1
1
1
1
1
1
1
1
1
1
1
1
1
1
1
1
1
1
1
1
1
1
1
1
1
1
1
1
1
1
1
1
1
1
1
1
1
1
1
1
1
1
1
1
1
1
1
1
0.999984
1
1
1
1
1
1
1
1
1
1
1
1
1
1
1
1
1
1
1
1
1
1
1
1
1
1
1
1
1
1
1
1
1
1
1
1
1
1
1
1
1
1
1
1
1
1
1
1
1
0.999983
1
1
1
1
1
1
1
1
1
1
1
1
1
1
1
1
1
1
1
1
1
1
1
1
1
1
1
1
1
1
1
1
1
1
1
1
1
1
1
1
1
1
1
1
1
1
1
1
1
0.999983
1
1
1
1
1
1
1
1
1
1
1
1
1
1
1
1
1
1
1
1
1
1
1
1
1
1
1
1
1
1
1
1
1
1
1
1
1
1
1
1
1
1
1
1
1
1
1
1
1
0.999982
1
1
1
1
1
1
1
1
1
1
1
1
1
1
1
1
1
1
1
1
1
1
1
1
1
1
1
1
1
1
1
1
1
1
1
1
1
1
1
1
1
1
1
1
1
1
1
1
1
0.999982
1
1
1
1
1
1
1
1
1
1
1
1
1
1
1
1
1
1
1
1
1
1
1
1
1
1
1
1
1
1
1
1
1
1
1
1
1
1
1
1
1
1
1
1
1
1
1
1
1
0.999982
1
1
1
1
1
1
1
1
1
1
1
1
1
1
1
1
1
1
1
1
1
1
1
1
1
1
1
1
1
1
1
1
1
1
1
1
1
1
1
1
1
1
1
1
1
1
1
1
1
0.999983
1
1
1
1
1
1
1
1
1
1
1
1
1
1
1
1
1
1
1
1
1
1
1
1
1
1
1
1
1
1
1
1
1
1
1
1
1
1
1
1
1
1
1
1
1
1
1
1
1
0.999983
1
1
1
1
1
1
1
1
1
1
1
1
1
1
1
1
1
1
1
1
1
1
1
1
1
1
1
1
1
1
1
1
1
1
1
1
1
1
1
1
1
1
1
1
1
1
1
1
1
0.999984
1
1
1
1
1
1
1
1
1
1
1
1
1
1
1
1
1
1
1
1
1
1
1
1
1
1
1
1
1
1
1
1
1
1
1
1
1
1
1
1
1
1
1
1
1
1
1
1
1
0.999985
1
1
1
1
1
1
1
1
1
1
1
1
1
1
1
1
1
1
1
1
1
1
1
1
1
1
1
1
1
1
1
1
1
1
1
1
1
1
1
1
1
1
1
1
1
1
1
1
1
0.999987
1
1
1
1
1
1
1
1
1
1
1
1
1
1
1
1
1
1
1
1
1
1
1
1
1
1
1
1
1
1
1
1
1
1
1
1
1
1
1
1
1
1
1
1
1
1
1
1
1
0.999989
1
1
1
1
1
1
1
1
1
1
1
1
1
1
1
1
1
1
1
1
1
1
1
1
1
1
1
1
1
1
1
1
1
1
1
1
1
1
1
1
1
1
1
1
1
1
1
1
1
0.99999
1
1
1
1
1
1
1
1
1
1
1
1
1
1
1
1
1
1
1
1
1
1
1
1
1
1
1
1
1
1
1
1
1
1
1
1
1
1
1
1
1
1
1
1
1
1
1
1
1
0.99999
1.23368e-05
7.71101e-11
1.47867e-13
2.91639e-16
5.81922e-19
1.15506e-21
2.24435e-24
4.21098e-27
7.54554e-30
1.28e-32
2.04109e-35
3.04138e-38
4.21273e-41
5.39821e-44
6.3694e-47
6.88733e-50
6.79095e-53
6.07223e-56
4.89316e-59
3.52752e-62
2.25492e-65
1.26414e-68
6.15579e-72
2.69104e-75
9.98148e-79
3.06838e-82
8.13312e-86
1.64493e-89
2.54795e-93
2.72787e-97
1.67371e-101
3.02958e-106
6.6761e-113
6.31398e-119
1.75246e-124
3.78138e-130
7.92303e-136
1.70117e-141
3.77177e-147
6.572e-153
1.10063e-158
1.12363e-164
1.30765e-170
2.93526e-173
1.32412e-175
5.9636e-178
2.68061e-180
1.20253e-182
5.38474e-185
2.40943e-187
1.36538e-05
9.47809e-11
2.43693e-13
6.21237e-16
1.55025e-18
3.74684e-21
8.68994e-24
1.91871e-26
4.00618e-29
7.86503e-32
1.44464e-34
2.47157e-37
3.92222e-40
5.75035e-43
7.75726e-46
9.58859e-49
1.08114e-51
1.10647e-54
1.02208e-57
8.46578e-61
6.23858e-64
4.05098e-67
2.28981e-70
1.10886e-73
4.50134e-77
1.49182e-80
4.25248e-84
9.29912e-88
1.51096e-91
1.73531e-95
1.09078e-99
1.94368e-104
2.16401e-111
1.74867e-117
4.62053e-123
9.69252e-129
1.97661e-134
4.11849e-140
9.0957e-146
1.52846e-151
2.57028e-157
2.60412e-163
6.3548e-169
2.18387e-171
9.86196e-174
4.44503e-176
1.99908e-178
8.97077e-181
4.01751e-183
1.79759e-185
1.53762e-05
1.20765e-10
3.92174e-13
1.23085e-15
3.70272e-18
1.06111e-20
2.88152e-23
7.38045e-26
1.77551e-28
3.99648e-31
8.38686e-34
1.63531e-36
2.95269e-39
4.92013e-42
7.5395e-45
1.0585e-47
1.35596e-50
1.57779e-53
1.65905e-56
1.5671e-59
1.32035e-62
9.83866e-66
6.41548e-69
3.61154e-72
1.72409e-75
6.80916e-79
2.14546e-82
5.08711e-86
8.66414e-90
1.06975e-93
6.8807e-98
1.20326e-102
5.93696e-110
4.11794e-116
1.03437e-121
2.11722e-127
4.2153e-133
8.53911e-139
1.88409e-144
3.05499e-150
5.16446e-156
5.20087e-162
3.82213e-167
1.59238e-169
7.19846e-172
3.24708e-174
1.46113e-176
6.55907e-179
2.93792e-181
1.31454e-183
1.75496e-05
1.57927e-10
6.10819e-13
2.25207e-15
7.87182e-18
2.59862e-20
8.07493e-23
2.35466e-25
6.4245e-28
1.63547e-30
3.87365e-33
8.51238e-36
1.73053e-38
3.24489e-41
5.594e-44
8.83585e-47
1.27389e-49
1.6693e-52
1.97865e-55
2.10975e-58
2.01044e-61
1.69889e-64
1.26102e-67
8.12425e-71
4.47381e-74
2.06295e-77
7.73943e-81
2.2624e-84
4.79508e-88
6.37847e-92
4.19246e-96
7.1969e-101
1.32482e-108
7.95236e-115
1.90215e-120
3.81907e-126
7.45756e-132
1.4738e-137
3.25801e-143
5.10983e-149
8.69378e-155
8.74869e-161
2.56098e-165
1.1377e-167
5.14858e-170
2.32431e-172
1.04652e-174
4.69965e-177
2.10546e-179
9.42084e-182
2.01878e-05
2.09339e-10
9.14593e-13
3.79109e-15
1.48435e-17
5.4733e-20
1.89562e-22
6.15094e-25
1.86529e-27
5.27335e-30
1.38635e-32
3.38054e-35
7.62524e-38
1.58649e-40
3.03536e-43
5.32267e-46
8.52327e-49
1.24127e-51
1.63644e-54
1.94268e-57
2.06385e-60
1.94778e-63
1.61858e-66
1.17139e-69
7.28163e-73
3.81814e-76
1.64772e-79
5.64895e-83
1.45616e-86
2.56035e-90
2.46176e-94
4.18884e-99
2.26088e-107
1.1915e-113
2.73812e-119
5.43567e-125
1.04856e-130
2.03401e-136
4.51582e-142
6.88946e-148
1.18078e-153
1.21623e-159
1.76138e-163
7.96354e-166
3.60782e-168
1.63011e-170
7.34405e-173
3.29939e-175
1.47846e-177
6.61572e-180
2.3263e-05
2.77834e-10
1.3095e-12
5.86176e-15
2.48093e-17
9.89813e-20
3.71254e-22
1.30573e-24
4.29545e-27
1.3184e-29
3.76581e-32
9.98408e-35
2.45023e-37
5.55011e-40
1.15677e-42
2.21097e-45
3.8611e-48
6.13545e-51
8.83035e-54
1.14501e-56
1.32945e-59
1.37223e-62
1.24828e-65
9.90192e-69
6.759e-72
3.90267e-75
1.86295e-78
7.11868e-82
2.07411e-85
4.24596e-89
5.16788e-93
2.15269e-97
2.64656e-106
1.26062e-112
2.85785e-118
5.68546e-124
1.09651e-129
2.11124e-135
4.71386e-141
7.07676e-147
1.22193e-152
1.48629e-158
1.20196e-161
5.46022e-164
2.47649e-166
1.11992e-168
5.04875e-171
2.2692e-173
1.01708e-175
4.55151e-178
2.67111e-05
3.65588e-10
1.78769e-12
8.33575e-15
3.68782e-17
1.54261e-19
6.08222e-22
2.25389e-24
7.82798e-27
2.54102e-29
7.6878e-32
2.16172e-34
5.63279e-37
1.35593e-39
3.00547e-42
6.11234e-45
1.13616e-47
1.9219e-50
2.94434e-53
4.06263e-56
5.01668e-59
5.5024e-62
5.31263e-65
4.46595e-68
3.22392e-71
1.96336e-74
9.84918e-78
3.93496e-81
1.18942e-84
2.49156e-88
3.00403e-92
1.04379e-96
1.66259e-105
7.78195e-112
1.88293e-117
3.85425e-123
7.59854e-129
1.48443e-134
3.32914e-140
5.04005e-146
8.7478e-152
2.6551e-157
8.05504e-160
3.66647e-162
1.66485e-164
7.53549e-167
3.39937e-169
1.52857e-171
6.85307e-174
3.06709e-176
3.04431e-05
4.73723e-10
2.32527e-12
1.09393e-14
4.90436e-17
2.08678e-19
8.39656e-22
3.18415e-24
1.13435e-26
3.7843e-29
1.17854e-31
3.41538e-34
9.1801e-37
2.28077e-39
5.21873e-42
1.09546e-44
2.10049e-47
3.66163e-50
5.77216e-53
8.17822e-56
1.03407e-58
1.15708e-61
1.13418e-64
9.61726e-68
6.94256e-71
4.17742e-74
2.03471e-77
7.68209e-81
2.09398e-84
3.5864e-88
2.57847e-92
2.27103e-98
1.6554e-105
1.59174e-111
5.69507e-117
1.28275e-122
2.71813e-128
5.68274e-134
1.26837e-139
2.0645e-145
3.57771e-151
1.19591e-155
5.28761e-158
2.41047e-160
1.09582e-162
4.96446e-165
2.24108e-167
1.00822e-169
4.52143e-172
2.0238e-174
3.43594e-05
6.02114e-10
2.88618e-12
1.33241e-14
5.8864e-17
2.47706e-19
9.8875e-22
3.72905e-24
1.32385e-26
4.40779e-29
1.37139e-31
3.97256e-34
1.06736e-36
2.64956e-39
6.0513e-42
1.26583e-44
2.41327e-47
4.17002e-50
6.49004e-53
9.03195e-56
1.11435e-58
1.20638e-61
1.13141e-64
9.04387e-68
6.02981e-71
3.25362e-74
1.35794e-77
4.06308e-81
7.46028e-85
4.97872e-89
9.47264e-95
4.55265e-101
9.73579e-107
4.7467e-112
1.74302e-117
6.20989e-123
1.80634e-128
5.55263e-134
1.14237e-139
2.85259e-145
6.0754e-151
7.43323e-154
3.39729e-156
1.55104e-158
7.05957e-161
3.20124e-163
1.44614e-165
6.50913e-168
2.91994e-170
1.30713e-172
3.83637e-05
7.49438e-10
3.43047e-12
1.5174e-14
6.44262e-17
2.61254e-19
1.00712e-21
3.6744e-24
1.26326e-26
4.07519e-29
1.22828e-31
3.44404e-34
8.94367e-37
2.14094e-39
4.70062e-42
9.41429e-45
1.70945e-47
2.79491e-50
4.08178e-53
5.27462e-56
5.96219e-59
5.81098e-62
4.79326e-65
3.26257e-68
1.76666e-71
7.182e-75
1.96995e-78
2.78738e-82
5.43391e-87
1.25469e-92
4.08323e-98
2.05508e-103
1.61668e-108
8.34195e-114
4.26927e-119
1.77401e-124
8.0306e-130
2.28366e-135
7.61765e-141
1.71952e-146
1.01897e-149
4.66004e-152
2.13542e-154
9.76407e-157
4.44951e-159
2.01961e-161
9.13004e-164
4.11157e-166
1.84499e-168
8.26036e-171
4.23749e-05
9.13581e-10
3.9286e-12
1.6335e-14
6.525e-17
2.4915e-19
9.05031e-22
3.11233e-24
1.00834e-26
3.06259e-29
8.67657e-32
2.28106e-34
5.53475e-37
1.23231e-39
2.50188e-42
4.59939e-45
7.59566e-48
1.11645e-50
1.44445e-53
1.62265e-56
1.55528e-59
1.24251e-62
8.0037e-66
3.94899e-69
1.36267e-72
2.66691e-76
1.22663e-80
1.10877e-85
6.2098e-91
5.029e-96
5.99334e-101
5.67141e-106
4.17418e-111
2.72471e-116
1.56668e-121
7.97322e-127
2.77835e-132
1.03256e-137
4.95993e-143
1.35712e-145
6.22283e-148
2.85887e-150
1.3125e-152
6.01051e-155
2.74238e-157
1.24596e-159
5.63679e-162
2.53977e-164
1.14005e-166
5.10496e-169
4.63413e-05
1.09246e-09
4.37614e-12
1.689e-14
6.24475e-17
2.20218e-19
7.37348e-22
2.33268e-24
6.93637e-27
1.92793e-29
4.9794e-32
1.18759e-34
2.59788e-37
5.17394e-40
9.30397e-43
1.49633e-45
2.12823e-48
2.64061e-51
2.80911e-54
2.50412e-57
1.81116e-60
1.01164e-63
4.00238e-67
9.23389e-71
5.89255e-75
9.98605e-80
1.07053e-84
1.48203e-89
2.55443e-94
3.52987e-99
3.66565e-104
3.48695e-109
2.6574e-114
1.88691e-119
8.7913e-125
4.08722e-130
1.15204e-135
3.9112e-139
1.76719e-141
8.09372e-144
3.72236e-146
1.71402e-148
7.88389e-151
3.61597e-153
1.65191e-155
7.51263e-158
3.40131e-160
1.53336e-162
6.88527e-165
3.08362e-167
5.02525e-05
1.28516e-09
4.8076e-12
1.71843e-14
5.83904e-17
1.8794e-19
5.70846e-22
1.62903e-24
4.34543e-27
1.07715e-29
2.46473e-32
5.16697e-35
9.83944e-38
1.68546e-40
2.56744e-43
3.43013e-46
3.95047e-49
3.8344e-52
3.0396e-55
1.87672e-58
8.3181e-62
2.21633e-65
1.81979e-69
4.26971e-74
7.07069e-79
1.42112e-83
3.24645e-88
5.81081e-93
7.88874e-98
9.61591e-103
9.04154e-108
7.83093e-113
4.33713e-118
2.27352e-123
7.53642e-129
1.13898e-132
4.98722e-135
2.24965e-137
1.0262e-139
4.71551e-142
2.1747e-144
1.00368e-146
4.62539e-149
2.12478e-151
9.7191e-154
4.42455e-156
2.00475e-158
9.04275e-161
4.06191e-163
1.81948e-165
5.41474e-05
1.49323e-09
5.3005e-12
1.77657e-14
5.59156e-17
1.64673e-19
4.52204e-22
1.15332e-24
2.71905e-27
5.89169e-30
1.16507e-32
2.08449e-35
3.33872e-38
4.72505e-41
5.8118e-44
6.08093e-47
5.25576e-50
3.59381e-53
1.81061e-56
5.82532e-60
7.53562e-64
1.76514e-68
3.32722e-73
8.39671e-78
2.2938e-82
4.9215e-87
8.05893e-92
1.1574e-96
1.25363e-101
1.21807e-106
7.53575e-112
4.14672e-117
1.52773e-122
3.38993e-126
1.43418e-128
6.27814e-131
2.80257e-133
1.27004e-135
5.8162e-138
2.68148e-140
1.24009e-142
5.7366e-145
2.64878e-147
1.21871e-149
5.58177e-152
2.54367e-154
1.15344e-156
5.20577e-159
2.33925e-161
1.04804e-163
5.81151e-05
1.72176e-09
5.97371e-12
1.93466e-14
5.80772e-17
1.60782e-19
4.085e-22
9.47656e-25
1.99597e-27
3.79184e-30
6.44601e-33
9.709e-36
1.27926e-38
1.44972e-41
1.38045e-44
1.06783e-47
6.36551e-51
2.66248e-54
6.29453e-58
2.77783e-62
2.85027e-67
7.20629e-72
1.9672e-76
4.71606e-81
8.14507e-86
1.26079e-90
1.46109e-95
1.45914e-100
9.90372e-106
5.15101e-111
2.28511e-116
1.07266e-119
4.31918e-122
1.80588e-124
7.76947e-127
3.42255e-129
1.53611e-131
6.9935e-134
3.21532e-136
1.48732e-138
6.89755e-141
3.19824e-143
1.47961e-145
6.81865e-148
3.12707e-150
1.42653e-152
6.47388e-155
2.92358e-157
1.31425e-159
5.88941e-162
6.22908e-05
1.98036e-09
6.97688e-12
2.27866e-14
6.84157e-17
1.87551e-19
4.6621e-22
1.04311e-24
2.0834e-27
3.67919e-30
5.6795e-33
7.55649e-36
8.50985e-39
7.91679e-42
5.87663e-45
3.29809e-48
1.272e-51
2.71137e-55
1.05103e-59
2.50384e-65
5.18137e-70
1.24009e-74
2.34248e-79
3.64884e-84
4.44359e-89
4.31738e-94
3.50883e-99
1.75828e-104
8.76514e-110
3.73023e-113
1.39882e-115
5.50012e-118
2.24517e-120
9.46642e-123
4.10251e-125
1.81861e-127
8.20667e-130
3.75362e-132
1.73258e-134
8.0412e-137
3.73965e-139
1.73808e-141
8.05668e-144
3.71889e-146
1.70777e-148
7.79891e-151
3.54226e-153
1.60066e-155
7.19852e-158
3.22658e-160
6.68638e-05
2.28513e-09
8.48848e-12
2.92067e-14
9.22178e-17
2.6519e-19
6.89252e-22
1.60564e-24
3.32099e-27
6.03158e-30
9.49147e-33
1.27261e-35
1.42238e-38
1.28598e-41
8.99808e-45
4.53543e-48
1.43574e-51
1.96558e-55
3.7149e-61
2.22266e-66
6.6469e-71
1.84096e-75
4.45823e-80
9.00941e-85
1.41616e-89
1.87967e-94
1.82267e-99
1.22686e-104
5.68529e-109
1.81844e-111
6.93684e-114
2.75796e-116
1.13675e-118
4.8334e-121
2.11e-123
9.4126e-126
4.27061e-128
1.9624e-130
9.09383e-133
4.23474e-135
1.97498e-137
9.20089e-140
4.27344e-142
1.97583e-144
9.08556e-147
4.15365e-149
1.8882e-151
8.53787e-154
3.84139e-156
1.72229e-158
7.23291e-05
2.67938e-09
1.07377e-11
4.0243e-14
1.3859e-16
4.35137e-19
1.23611e-21
3.15084e-24
7.13953e-27
1.42245e-29
2.45924e-32
3.62921e-35
4.47485e-38
4.47736e-41
3.48418e-44
1.9706e-47
7.14783e-51
1.21989e-54
2.10676e-59
2.79822e-65
7.05629e-70
2.22116e-74
5.88956e-79
1.29336e-83
2.17842e-88
3.07787e-93
3.18705e-98
2.28024e-103
2.4785e-107
8.66572e-110
3.34817e-112
1.34603e-114
5.60192e-117
2.40205e-119
1.05629e-121
4.74188e-124
2.16316e-126
9.98626e-129
4.64602e-131
2.1708e-133
1.01528e-135
4.74125e-138
2.20654e-140
1.0219e-142
4.70554e-145
2.15364e-147
9.79896e-150
4.43381e-152
1.99584e-154
8.9512e-157
8.00028e-05
3.28942e-09
1.40073e-11
5.8103e-14
2.22094e-16
7.74577e-19
2.44615e-21
6.93927e-24
1.75241e-26
3.89843e-29
7.54408e-32
1.25028e-34
1.73935e-37
1.97718e-40
1.76757e-43
1.17189e-46
5.20754e-50
1.2531e-53
8.53576e-58
1.49483e-63
6.99237e-69
2.40539e-73
6.85539e-78
1.61922e-82
2.91263e-87
4.37228e-92
4.82846e-97
3.80979e-102
1.09373e-105
4.01647e-108
1.57174e-110
6.38938e-113
2.68507e-115
1.16109e-117
5.14331e-120
2.32356e-122
1.06574e-124
4.94298e-127
2.30882e-129
1.08242e-131
5.07698e-134
2.37662e-136
1.10831e-138
5.14159e-141
2.37089e-143
1.08637e-145
4.94753e-148
2.24027e-150
1.00898e-152
4.5268e-155
9.00272e-05
4.23013e-09
1.85444e-11
8.47276e-14
3.58848e-16
1.38747e-18
4.85813e-21
1.52841e-23
4.28309e-26
1.05839e-28
2.27869e-31
4.21161e-34
6.55778e-37
8.39028e-40
8.51985e-43
6.52121e-46
3.45899e-49
1.08511e-52
1.38508e-56
1.84446e-61
5.7634e-68
2.1716e-72
6.69083e-77
1.70363e-81
3.28369e-86
5.24915e-91
6.18402e-96
6.03186e-101
4.78866e-104
1.80918e-106
7.17066e-109
2.94768e-111
1.25084e-113
5.4549e-116
2.43416e-118
1.10665e-120
5.10359e-123
2.37816e-125
1.11526e-127
5.24633e-130
2.46785e-132
1.15808e-134
5.41174e-137
2.51495e-139
1.16138e-141
5.32799e-144
2.42884e-146
1.10065e-148
4.95998e-151
2.22623e-153
1.58004e-189
1.13565e-191
7.84689e-194
5.20447e-196
3.31178e-198
2.02144e-200
1.18339e-202
6.64726e-205
3.58407e-207
1.85513e-209
9.22268e-212
4.40457e-214
2.0227e-216
8.9321e-219
3.79431e-221
1.55152e-223
6.10877e-226
2.31716e-228
8.47162e-231
2.98577e-233
1.01534e-235
3.33212e-238
1.05551e-240
3.23005e-243
9.55077e-246
2.72969e-248
7.54746e-251
2.01848e-253
5.22397e-256
1.30934e-258
3.17794e-261
7.47414e-264
1.70427e-266
3.7679e-269
8.07932e-272
1.68103e-274
3.39469e-277
6.65596e-280
1.26756e-282
2.34566e-285
4.21828e-288
7.37383e-291
1.25346e-293
2.07257e-296
3.33482e-299
5.22108e-302
7.9585e-305
1.18123e-307
1.7073e-310
2.41865e-313
0
0
0
0
0
0
0
0
0
0
0
0
0
0
0
0
0
0
0
0
0
0
0
0
0
0
0
0
0
0
0
0
0
0
0
0
0
0
0
0
0
0
0
0
0
0
0
0
0
0
0
0
0
0
0
0
0
0
0
0
0
0
0
0
0
0
0
0
0
0
0
0
0
0
0
0
0
0
0
0
0
0
0
0
0
0
0
0
0
0
0
0
0
0
0
0
0
0
0
0
0
0
0
0
0
0
0
0
0
0
0
0
0
0
0
0
0
0
0
0
0
0
0
0
0
0
0
0
0
0
0
0
0
0
0
0
0
0
0
0
0
0
0
0
0
0
0
0
0
0
0
0
0
0
0
0
0
0
0
0
0
0
0
0
0
0
0
0
0
0
0
0
0
0
0
0
0
0
0
0
0
0
0
0
0
0
0
0
0
0
0
0
0
0
0
0
0
0
0
0
0
0
0
0
0
0
0
0
0
0
0
0
0
0
0
0
0
0
0
0
0
0
0
0
0
0
0
0
0
0
0
0
0
0
0
0
0
0
0
0
0
0
0
0
0
0
0
0
0
0
1.17108e-187
8.41622e-190
5.8147e-192
3.85624e-194
2.45363e-196
1.49751e-198
8.76597e-201
4.92359e-203
2.65452e-205
1.37391e-207
6.83002e-210
3.26175e-212
1.49785e-214
6.61429e-217
2.80971e-219
1.14892e-221
4.52375e-224
1.716e-226
6.27413e-229
2.21144e-231
7.52087e-234
2.46846e-236
7.82027e-239
2.39349e-241
7.07839e-244
2.02344e-246
5.59589e-249
1.4969e-251
3.87504e-254
9.71507e-257
2.35868e-259
5.5491e-262
1.26574e-264
2.7994e-267
6.00493e-270
1.24993e-272
2.52521e-275
4.9534e-278
9.43772e-281
1.74735e-283
3.14395e-286
5.4988e-289
9.35252e-292
1.54733e-294
2.49121e-297
3.90277e-300
5.95287e-303
8.84142e-306
1.27877e-308
1.80214e-311
2.34105e-314
0
0
0
0
0
0
0
0
0
0
0
0
0
0
0
0
0
0
0
0
0
0
0
0
0
0
0
0
0
0
0
0
0
0
0
0
0
0
0
0
0
0
0
0
0
0
0
0
0
0
0
0
0
0
0
0
0
0
0
0
0
0
0
0
0
0
0
0
0
0
0
0
0
0
0
0
0
0
0
0
0
0
0
0
0
0
0
0
0
0
0
0
0
0
0
0
0
0
0
0
0
0
0
0
0
0
0
0
0
0
0
0
0
0
0
0
0
0
0
0
0
0
0
0
0
0
0
0
0
0
0
0
0
0
0
0
0
0
0
0
0
0
0
0
0
0
0
0
0
0
0
0
0
0
0
0
0
0
0
0
0
0
0
0
0
0
0
0
0
0
0
0
0
0
0
0
0
0
0
0
0
0
0
0
0
0
0
0
0
0
0
0
0
0
0
0
0
0
0
0
0
0
0
0
0
0
0
0
0
0
0
0
0
0
0
0
0
0
0
0
0
0
0
0
0
0
0
0
0
0
0
0
0
0
0
0
0
0
0
0
0
0
0
0
0
0
0
0
0
8.50463e-186
6.11147e-188
4.22203e-190
2.79978e-192
1.7813e-194
1.0871e-196
6.36313e-199
3.57379e-201
1.9267e-203
9.9717e-206
4.95702e-208
2.36723e-210
1.08706e-212
4.80036e-215
2.0392e-217
8.33876e-220
3.28344e-222
1.24559e-224
4.55451e-227
1.60547e-229
5.46063e-232
1.79248e-234
5.67954e-237
1.73858e-239
5.14252e-242
1.47035e-244
4.0672e-247
1.08824e-249
2.81788e-252
7.06671e-255
1.71623e-257
4.03898e-260
9.21612e-263
2.03906e-265
4.37569e-268
9.11181e-271
1.84166e-273
3.61424e-276
6.88958e-279
1.27622e-281
2.29749e-284
4.02056e-287
6.84224e-290
1.1327e-292
1.82478e-295
2.86057e-298
4.36611e-301
6.48914e-304
9.39212e-307
1.32445e-309
1.8221e-312
0
0
0
0
0
0
0
0
0
0
0
0
0
0
0
0
0
0
0
0
0
0
0
0
0
0
0
0
0
0
0
0
0
0
0
0
0
0
0
0
0
0
0
0
0
0
0
0
0
0
0
0
0
0
0
0
0
0
0
0
0
0
0
0
0
0
0
0
0
0
0
0
0
0
0
0
0
0
0
0
0
0
0
0
0
0
0
0
0
0
0
0
0
0
0
0
0
0
0
0
0
0
0
0
0
0
0
0
0
0
0
0
0
0
0
0
0
0
0
0
0
0
0
0
0
0
0
0
0
0
0
0
0
0
0
0
0
0
0
0
0
0
0
0
0
0
0
0
0
0
0
0
0
0
0
0
0
0
0
0
0
0
0
0
0
0
0
0
0
0
0
0
0
0
0
0
0
0
0
0
0
0
0
0
0
0
0
0
0
0
0
0
0
0
0
0
0
0
0
0
0
0
0
0
0
0
0
0
0
0
0
0
0
0
0
0
0
0
0
0
0
0
0
0
0
0
0
0
0
0
0
0
0
0
0
0
0
0
0
0
0
0
0
0
0
0
0
0
0
6.05049e-184
4.34759e-186
3.00329e-188
1.99147e-190
1.26697e-192
7.73169e-195
4.5254e-197
2.54156e-199
1.37016e-201
7.09123e-204
3.52508e-206
1.68341e-208
7.73055e-211
3.41382e-213
1.45025e-215
5.9307e-218
2.3354e-220
8.86011e-223
3.24002e-225
1.14223e-227
3.88552e-230
1.27563e-232
4.0425e-235
1.23768e-237
3.66164e-240
1.04716e-242
2.8973e-245
7.75414e-248
2.00841e-250
5.03822e-253
1.22398e-255
2.88151e-258
6.57741e-261
1.45582e-263
3.12537e-266
6.51098e-269
1.31659e-271
2.58502e-274
4.9301e-277
9.13726e-280
1.64581e-282
2.88176e-285
4.90711e-288
8.12846e-291
1.31033e-293
2.05544e-296
3.13938e-299
4.66915e-302
6.76279e-305
9.54378e-308
1.31262e-310
1.77639e-313
0
0
0
0
0
0
0
0
0
0
0
0
0
0
0
0
0
0
0
0
0
0
0
0
0
0
0
0
0
0
0
0
0
0
0
0
0
0
0
0
0
0
0
0
0
0
0
0
0
0
0
0
0
0
0
0
0
0
0
0
0
0
0
0
0
0
0
0
0
0
0
0
0
0
0
0
0
0
0
0
0
0
0
0
0
0
0
0
0
0
0
0
0
0
0
0
0
0
0
0
0
0
0
0
0
0
0
0
0
0
0
0
0
0
0
0
0
0
0
0
0
0
0
0
0
0
0
0
0
0
0
0
0
0
0
0
0
0
0
0
0
0
0
0
0
0
0
0
0
0
0
0
0
0
0
0
0
0
0
0
0
0
0
0
0
0
0
0
0
0
0
0
0
0
0
0
0
0
0
0
0
0
0
0
0
0
0
0
0
0
0
0
0
0
0
0
0
0
0
0
0
0
0
0
0
0
0
0
0
0
0
0
0
0
0
0
0
0
0
0
0
0
0
0
0
0
0
0
0
0
0
0
0
0
0
0
0
0
0
0
0
0
0
0
0
0
0
0
4.21613e-182
3.02934e-184
2.09255e-186
1.3875e-188
8.82691e-191
5.38647e-193
3.15265e-195
1.77056e-197
9.54509e-200
4.94004e-202
2.45574e-204
1.17277e-206
5.38576e-209
2.37847e-211
1.01047e-213
4.13252e-216
1.62744e-218
6.17482e-221
2.25829e-223
7.96234e-226
2.70893e-228
8.89486e-231
2.8193e-233
8.63338e-236
2.55471e-238
7.30771e-241
2.02241e-243
5.4141e-246
1.40272e-248
3.51991e-251
8.5541e-254
2.01453e-256
4.60015e-259
1.01859e-261
2.18764e-264
4.55946e-267
9.22399e-270
1.81194e-272
3.45746e-275
6.41134e-278
1.15546e-280
2.02434e-283
3.44915e-286
5.71698e-289
9.22185e-292
1.44755e-294
2.21244e-297
3.29286e-300
4.77287e-303
6.74066e-306
9.27803e-309
1.24509e-311
1.48286e-314
0
0
0
0
0
0
0
0
0
0
0
0
0
0
0
0
0
0
0
0
0
0
0
0
0
0
0
0
0
0
0
0
0
0
0
0
0
0
0
0
0
0
0
0
0
0
0
0
0
0
0
0
0
0
0
0
0
0
0
0
0
0
0
0
0
0
0
0
0
0
0
0
0
0
0
0
0
0
0
0
0
0
0
0
0
0
0
0
0
0
0
0
0
0
0
0
0
0
0
0
0
0
0
0
0
0
0
0
0
0
0
0
0
0
0
0
0
0
0
0
0
0
0
0
0
0
0
0
0
0
0
0
0
0
0
0
0
0
0
0
0
0
0
0
0
0
0
0
0
0
0
0
0
0
0
0
0
0
0
0
0
0
0
0
0
0
0
0
0
0
0
0
0
0
0
0
0
0
0
0
0
0
0
0
0
0
0
0
0
0
0
0
0
0
0
0
0
0
0
0
0
0
0
0
0
0
0
0
0
0
0
0
0
0
0
0
0
0
0
0
0
0
0
0
0
0
0
0
0
0
0
0
0
0
0
0
0
0
0
0
0
0
0
0
0
0
0
2.87699e-180
2.06706e-182
1.4278e-184
9.46698e-187
6.0225e-189
3.67507e-191
2.15096e-193
1.208e-195
6.51238e-198
3.37053e-200
1.67557e-202
8.00216e-205
3.67506e-207
1.62308e-209
6.896e-212
2.82049e-214
1.11085e-216
4.21526e-219
1.54182e-221
5.43693e-224
1.85003e-226
6.07567e-229
1.92609e-231
5.89937e-234
1.74608e-236
4.99586e-239
1.38297e-241
3.70333e-244
9.5977e-247
2.40917e-249
5.85681e-252
1.37981e-254
3.152e-257
6.98217e-260
1.50022e-262
3.12817e-265
6.33145e-268
1.24435e-270
2.37566e-273
4.4077e-276
7.94813e-279
1.39331e-281
2.37544e-284
3.9398e-287
6.35932e-290
9.989e-293
1.52779e-295
2.27552e-298
3.30072e-301
4.66515e-304
6.42633e-307
8.62939e-310
1.13163e-312
0
0
0
0
0
0
0
0
0
0
0
0
0
0
0
0
0
0
0
0
0
0
0
0
0
0
0
0
0
0
0
0
0
0
0
0
0
0
0
0
0
0
0
0
0
0
0
0
0
0
0
0
0
0
0
0
0
0
0
0
0
0
0
0
0
0
0
0
0
0
0
0
0
0
0
0
0
0
0
0
0
0
0
0
0
0
0
0
0
0
0
0
0
0
0
0
0
0
0
0
0
0
0
0
0
0
0
0
0
0
0
0
0
0
0
0
0
0
0
0
0
0
0
0
0
0
0
0
0
0
0
0
0
0
0
0
0
0
0
0
0
0
0
0
0
0
0
0
0
0
0
0
0
0
0
0
0
0
0
0
0
0
0
0
0
0
0
0
0
0
0
0
0
0
0
0
0
0
0
0
0
0
0
0
0
0
0
0
0
0
0
0
0
0
0
0
0
0
0
0
0
0
0
0
0
0
0
0
0
0
0
0
0
0
0
0
0
0
0
0
0
0
0
0
0
0
0
0
0
0
0
0
0
0
0
0
0
0
0
0
0
0
0
0
0
0
0
1.92203e-178
1.38089e-180
9.53811e-183
6.32411e-185
4.0231e-187
2.45498e-189
1.43686e-191
8.06964e-194
4.35047e-196
2.2517e-198
1.11942e-200
5.34636e-203
2.45552e-205
1.08456e-207
4.60836e-210
1.88502e-212
7.42498e-215
2.81784e-217
1.03083e-219
3.63556e-222
1.23728e-224
4.0641e-227
1.28864e-229
3.9478e-232
1.16874e-234
3.34483e-237
9.26178e-240
2.48086e-242
6.43151e-245
1.61495e-247
3.92742e-250
9.25612e-253
2.11528e-255
4.68766e-258
1.00766e-260
2.10208e-263
4.25672e-266
8.3702e-269
1.59884e-271
2.96808e-274
5.35525e-277
9.39343e-280
1.60247e-282
2.65951e-285
4.29565e-288
6.75213e-291
1.03346e-293
1.54038e-296
2.23607e-299
3.16288e-302
4.36043e-305
5.8601e-308
7.6785e-311
9.8448e-314
0
0
0
0
0
0
0
0
0
0
0
0
0
0
0
0
0
0
0
0
0
0
0
0
0
0
0
0
0
0
0
0
0
0
0
0
0
0
0
0
0
0
0
0
0
0
0
0
0
0
0
0
0
0
0
0
0
0
0
0
0
0
0
0
0
0
0
0
0
0
0
0
0
0
0
0
0
0
0
0
0
0
0
0
0
0
0
0
0
0
0
0
0
0
0
0
0
0
0
0
0
0
0
0
0
0
0
0
0
0
0
0
0
0
0
0
0
0
0
0
0
0
0
0
0
0
0
0
0
0
0
0
0
0
0
0
0
0
0
0
0
0
0
0
0
0
0
0
0
0
0
0
0
0
0
0
0
0
0
0
0
0
0
0
0
0
0
0
0
0
0
0
0
0
0
0
0
0
0
0
0
0
0
0
0
0
0
0
0
0
0
0
0
0
0
0
0
0
0
0
0
0
0
0
0
0
0
0
0
0
0
0
0
0
0
0
0
0
0
0
0
0
0
0
0
0
0
0
0
0
0
0
0
0
0
0
0
0
0
0
0
0
0
0
0
0
1.25674e-176
9.02888e-179
6.23636e-181
4.13489e-183
2.63042e-185
1.60514e-187
9.39475e-190
5.27636e-192
2.84467e-194
1.47239e-196
7.32031e-199
3.49641e-201
1.60598e-203
7.09393e-206
3.01455e-208
1.23322e-210
4.85816e-213
1.84396e-215
6.74661e-218
2.37981e-220
8.1006e-223
2.66132e-225
8.4403e-228
2.5863e-230
7.65859e-233
2.19241e-235
6.07247e-238
1.62707e-240
4.21945e-243
1.05987e-245
2.57846e-248
6.07925e-251
1.38984e-253
3.08136e-256
6.62671e-259
1.38306e-261
2.80209e-264
5.51274e-267
1.0536e-269
1.957e-272
3.53306e-275
6.20098e-278
1.05853e-280
1.75793e-283
2.84135e-286
4.46933e-289
6.84562e-292
1.02111e-294
1.48341e-297
2.09994e-300
2.89741e-303
3.89717e-306
5.11086e-309
6.53848e-312
6.32407e-315
0
0
0
0
0
0
0
0
0
0
0
0
0
0
0
0
0
0
0
0
0
0
0
0
0
0
0
0
0
0
0
0
0
0
0
0
0
0
0
0
0
0
0
0
0
0
0
0
0
0
0
0
0
0
0
0
0
0
0
0
0
0
0
0
0
0
0
0
0
0
0
0
0
0
0
0
0
0
0
0
0
0
0
0
0
0
0
0
0
0
0
0
0
0
0
0
0
0
0
0
0
0
0
0
0
0
0
0
0
0
0
0
0
0
0
0
0
0
0
0
0
0
0
0
0
0
0
0
0
0
0
0
0
0
0
0
0
0
0
0
0
0
0
0
0
0
0
0
0
0
0
0
0
0
0
0
0
0
0
0
0
0
0
0
0
0
0
0
0
0
0
0
0
0
0
0
0
0
0
0
0
0
0
0
0
0
0
0
0
0
0
0
0
0
0
0
0
0
0
0
0
0
0
0
0
0
0
0
0
0
0
0
0
0
0
0
0
0
0
0
0
0
0
0
0
0
0
0
0
0
0
0
0
0
0
0
0
0
0
0
0
0
0
0
0
8.03976e-175
5.77592e-177
3.98946e-179
2.64512e-181
1.68271e-183
1.02684e-185
6.01011e-188
3.37555e-190
1.81995e-192
9.42052e-195
4.6839e-197
2.23734e-199
1.02775e-201
4.5402e-204
1.92956e-206
7.89452e-209
3.1104e-211
1.18075e-213
4.32078e-216
1.52438e-218
5.18982e-221
1.70538e-223
5.40977e-226
1.65807e-228
4.91118e-231
1.4063e-233
3.89629e-236
1.04431e-238
2.70909e-241
6.80732e-244
1.65672e-246
3.90761e-249
8.93736e-252
1.98234e-254
4.26517e-257
8.90615e-260
1.80532e-262
3.55362e-265
6.79545e-268
1.26295e-270
2.28144e-273
4.00672e-276
6.84405e-279
1.13738e-281
1.83963e-284
2.89576e-287
4.4387e-290
6.6259e-293
9.63335e-296
1.36482e-298
1.8847e-301
2.53719e-304
3.33028e-307
4.26332e-310
5.35058e-313
0
0
0
0
0
0
0
0
0
0
0
0
0
0
0
0
0
0
0
0
0
0
0
0
0
0
0
0
0
0
0
0
0
0
0
0
0
0
0
0
0
0
0
0
0
0
0
0
0
0
0
0
0
0
0
0
0
0
0
0
0
0
0
0
0
0
0
0
0
0
0
0
0
0
0
0
0
0
0
0
0
0
0
0
0
0
0
0
0
0
0
0
0
0
0
0
0
0
0
0
0
0
0
0
0
0
0
0
0
0
0
0
0
0
0
0
0
0
0
0
0
0
0
0
0
0
0
0
0
0
0
0
0
0
0
0
0
0
0
0
0
0
0
0
0
0
0
0
0
0
0
0
0
0
0
0
0
0
0
0
0
0
0
0
0
0
0
0
0
0
0
0
0
0
0
0
0
0
0
0
0
0
0
0
0
0
0
0
0
0
0
0
0
0
0
0
0
0
0
0
0
0
0
0
0
0
0
0
0
0
0
0
0
0
0
0
0
0
0
0
0
0
0
0
0
0
0
0
0
0
0
0
0
0
0
0
0
0
0
0
0
0
0
0
0
5.02989e-173
3.61351e-175
2.49586e-177
1.65482e-179
1.05273e-181
6.42422e-184
3.7602e-186
2.11198e-188
1.13874e-190
5.89478e-193
2.9311e-195
1.4002e-197
6.43259e-200
2.84197e-202
1.20796e-204
4.94284e-207
1.94773e-209
7.39503e-212
2.70656e-214
9.55056e-217
3.25218e-219
1.0689e-221
3.39154e-224
1.03975e-226
3.08056e-229
8.82367e-232
2.44543e-234
6.55653e-237
1.70145e-239
4.27693e-242
1.0413e-244
2.45706e-247
5.62214e-250
1.24758e-252
2.68557e-255
5.61058e-258
1.13789e-260
2.24105e-263
4.28793e-266
7.97395e-269
1.44133e-271
2.53293e-274
4.32949e-277
7.19995e-280
1.16537e-282
1.83576e-285
2.81605e-288
4.20695e-291
6.12138e-294
8.67979e-297
1.19963e-299
1.61636e-302
2.12352e-305
2.72099e-308
3.40185e-311
4.04733e-314
0
0
0
0
0
0
0
0
0
0
0
0
0
0
0
0
0
0
0
0
0
0
0
0
0
0
0
0
0
0
0
0
0
0
0
0
0
0
0
0
0
0
0
0
0
0
0
0
0
0
0
0
0
0
0
0
0
0
0
0
0
0
0
0
0
0
0
0
0
0
0
0
0
0
0
0
0
0
0
0
0
0
0
0
0
0
0
0
0
0
0
0
0
0
0
0
0
0
0
0
0
0
0
0
0
0
0
0
0
0
0
0
0
0
0
0
0
0
0
0
0
0
0
0
0
0
0
0
0
0
0
0
0
0
0
0
0
0
0
0
0
0
0
0
0
0
0
0
0
0
0
0
0
0
0
0
0
0
0
0
0
0
0
0
0
0
0
0
0
0
0
0
0
0
0
0
0
0
0
0
0
0
0
0
0
0
0
0
0
0
0
0
0
0
0
0
0
0
0
0
0
0
0
0
0
0
0
0
0
0
0
0
0
0
0
0
0
0
0
0
0
0
0
0
0
0
0
0
0
0
0
0
0
0
0
0
0
0
0
0
0
0
0
0
3.07593e-171
2.20974e-173
1.52627e-175
1.01196e-177
6.4378e-180
3.9287e-182
2.2996e-184
1.29167e-186
6.96482e-189
3.60563e-191
1.79299e-193
8.56592e-196
3.93565e-198
1.739e-200
7.39247e-203
3.02533e-205
1.19232e-207
4.52766e-210
1.65741e-212
5.8496e-215
1.99235e-217
6.5498e-220
2.0787e-222
6.37438e-225
1.88913e-227
5.41269e-230
1.50058e-232
4.02462e-235
1.04479e-237
2.62728e-240
6.39917e-243
1.5106e-245
3.45804e-248
7.67721e-251
1.65343e-253
3.45606e-256
7.01305e-259
1.38199e-261
2.64579e-264
4.92318e-267
8.90459e-270
1.56588e-272
2.67836e-275
4.45728e-278
7.21975e-281
1.13816e-283
1.74729e-286
2.61241e-289
3.80435e-292
5.39898e-295
7.46846e-298
1.00719e-300
1.32444e-303
1.69868e-306
2.12567e-309
2.59818e-312
0
0
0
0
0
0
0
0
0
0
0
0
0
0
0
0
0
0
0
0
0
0
0
0
0
0
0
0
0
0
0
0
0
0
0
0
0
0
0
0
0
0
0
0
0
0
0
0
0
0
0
0
0
0
0
0
0
0
0
0
0
0
0
0
0
0
0
0
0
0
0
0
0
0
0
0
0
0
0
0
0
0
0
0
0
0
0
0
0
0
0
0
0
0
0
0
0
0
0
0
0
0
0
0
0
0
0
0
0
0
0
0
0
0
0
0
0
0
0
0
0
0
0
0
0
0
0
0
0
0
0
0
0
0
0
0
0
0
0
0
0
0
0
0
0
0
0
0
0
0
0
0
0
0
0
0
0
0
0
0
0
0
0
0
0
0
0
0
0
0
0
0
0
0
0
0
0
0
0
0
0
0
0
0
0
0
0
0
0
0
0
0
0
0
0
0
0
0
0
0
0
0
0
0
0
0
0
0
0
0
0
0
0
0
0
0
0
0
0
0
0
0
0
0
0
0
0
0
0
0
0
0
0
0
0
0
0
0
0
0
0
0
0
0
1.8376e-169
1.32011e-171
9.11806e-174
6.04558e-176
3.84609e-178
2.34716e-180
1.37392e-182
7.71756e-185
4.16166e-187
2.15462e-189
1.07153e-191
5.11967e-194
2.35252e-196
1.03961e-198
4.41997e-201
1.80912e-203
7.13111e-206
2.70842e-208
9.91646e-211
3.5006e-213
1.19256e-215
3.92146e-218
1.24487e-220
3.81846e-223
1.13199e-225
3.24438e-228
8.9975e-231
2.41404e-233
6.26915e-236
1.57711e-238
3.84293e-241
9.07572e-244
2.07856e-246
4.61688e-249
9.94839e-252
2.08056e-254
4.22425e-257
8.32914e-260
1.59556e-262
2.97084e-265
5.3769e-268
9.46176e-271
1.61952e-273
2.69716e-276
4.37206e-279
6.89769e-282
1.05978e-284
1.58581e-287
2.31131e-290
3.283e-293
4.54551e-296
6.1357e-299
8.07598e-302
1.03681e-304
1.29872e-307
1.58734e-310
1.9246e-313
0
0
0
0
0
0
0
0
0
0
0
0
0
0
0
0
0
0
0
0
0
0
0
0
0
0
0
0
0
0
0
0
0
0
0
0
0
0
0
0
0
0
0
0
0
0
0
0
0
0
0
0
0
0
0
0
0
0
0
0
0
0
0
0
0
0
0
0
0
0
0
0
0
0
0
0
0
0
0
0
0
0
0
0
0
0
0
0
0
0
0
0
0
0
0
0
0
0
0
0
0
0
0
0
0
0
0
0
0
0
0
0
0
0
0
0
0
0
0
0
0
0
0
0
0
0
0
0
0
0
0
0
0
0
0
0
0
0
0
0
0
0
0
0
0
0
0
0
0
0
0
0
0
0
0
0
0
0
0
0
0
0
0
0
0
0
0
0
0
0
0
0
0
0
0
0
0
0
0
0
0
0
0
0
0
0
0
0
0
0
0
0
0
0
0
0
0
0
0
0
0
0
0
0
0
0
0
0
0
0
0
0
0
0
0
0
0
0
0
0
0
0
0
0
0
0
0
0
0
0
0
0
0
0
0
0
0
0
0
0
0
0
0
1.07179e-167
7.69963e-170
5.3182e-172
3.52619e-174
2.24335e-176
1.3691e-178
8.01441e-181
4.50209e-183
2.4279e-185
1.2571e-187
6.25237e-190
2.98764e-192
1.373e-194
6.06832e-197
2.58036e-199
1.05632e-201
4.16451e-204
1.582e-206
5.79342e-209
2.04558e-211
6.97042e-214
2.29265e-216
7.28002e-219
2.23369e-221
6.62391e-224
1.8991e-226
5.26856e-229
1.41409e-231
3.67377e-234
9.24583e-237
2.25392e-239
5.32547e-242
1.22025e-244
2.7118e-247
5.84648e-250
1.22339e-252
2.48534e-255
4.9034e-258
9.39904e-261
1.75119e-263
3.17162e-266