/*--------------------------------*- C++ -*----------------------------------*\
| =========                 |                                                 |
| \\      /  F ield         | OpenFOAM: The Open Source CFD Toolbox           |
|  \\    /   O peration     | Version:  2.4.0                                 |
|   \\  /    A nd           | Web:      www.OpenFOAM.org                      |
|    \\/     M anipulation  |                                                 |
\*---------------------------------------------------------------------------*/
FoamFile
{
    version     2.0;
    format      ascii;
    class       volScalarField;
    location    "1.9";
    object      H;
}
// * * * * * * * * * * * * * * * * * * * * * * * * * * * * * * * * * * * * * //

dimensions      [0 2 -2 0 0 0 0];

internalField   nonuniform List<scalar> 
500
(
-11870.8
-11870.8
-11870.8
-11870.8
-11870.8
-11148.5
-11148.5
-11148.5
-11148.5
-11148.5
-10418
-10418
-10418
-10418
-10418
-9679.2
-9679.19
-9679.19
-9679.19
-9679.2
-8931.97
-8931.96
-8931.95
-8931.96
-8931.97
-8176.13
-8176.12
-8176.11
-8176.12
-8176.13
-7411.53
-7411.51
-7411.5
-7411.51
-7411.53
-6638
-6637.98
-6637.96
-6637.98
-6638
-5855.36
-5855.33
-5855.32
-5855.33
-5855.36
-5063.43
-5063.41
-5063.39
-5063.41
-5063.43
-4262.05
-4262.02
-4262
-4262.02
-4262.05
-3451.01
-3450.97
-3450.96
-3450.97
-3451.01
-2630.13
-2630.09
-2630.07
-2630.09
-2630.13
-1799.21
-1799.17
-1799.15
-1799.17
-1799.22
-958.063
-958.018
-957.994
-958.018
-958.064
-18.4461
-18.4435
-18.4421
-18.4435
-18.4461
-13.7658
-13.7639
-13.7629
-13.7639
-13.7658
-13.8471
-13.8452
-13.8442
-13.8452
-13.8471
-13.9253
-13.9235
-13.9225
-13.9235
-13.9253
-14.0004
-13.9985
-13.9976
-13.9985
-14.0004
-14.0721
-14.0703
-14.0693
-14.0703
-14.0721
-14.1403
-14.1385
-14.1376
-14.1385
-14.1403
-14.2049
-14.2032
-14.2022
-14.2032
-14.2049
-14.2657
-14.264
-14.2631
-14.264
-14.2657
-14.3226
-14.3209
-14.32
-14.3209
-14.3226
-14.3754
-14.3737
-14.3729
-14.3737
-14.3754
-14.4239
-14.4223
-14.4214
-14.4223
-14.4239
-14.468
-14.4665
-14.4656
-14.4665
-14.4681
-14.5076
-14.506
-14.5052
-14.506
-14.5076
-14.5424
-14.5409
-14.5401
-14.5409
-14.5424
-14.5723
-14.5709
-14.5701
-14.5709
-14.5724
-14.5972
-14.5958
-14.595
-14.5958
-14.5973
-14.6169
-14.6155
-14.6147
-14.6155
-14.6169
-14.6312
-14.6298
-14.629
-14.6298
-14.6312
-14.6399
-14.6386
-14.6378
-14.6386
-14.64
-14.643
-14.6416
-14.6409
-14.6416
-14.643
-14.6401
-14.6388
-14.6381
-14.6388
-14.6402
-14.6313
-14.63
-14.6293
-14.63
-14.6313
-14.6163
-14.615
-14.6143
-14.615
-14.6163
-14.5949
-14.5937
-14.593
-14.5937
-14.5949
-14.567
-14.5658
-14.5651
-14.5658
-14.567
-14.5325
-14.5313
-14.5306
-14.5313
-14.5325
-14.4911
-14.49
-14.4893
-14.49
-14.4911
-14.4428
-14.4417
-14.4411
-14.4417
-14.4429
-14.3874
-14.3864
-14.3857
-14.3864
-14.3875
-14.3248
-14.3238
-14.3232
-14.3238
-14.3248
-14.2548
-14.2538
-14.2532
-14.2538
-14.2548
-14.1773
-14.1763
-14.1757
-14.1763
-14.1774
-14.0922
-14.0912
-14.0907
-14.0912
-14.0922
-13.9993
-13.9984
-13.9978
-13.9984
-13.9994
-13.8986
-13.8977
-13.8971
-13.8977
-13.8986
-13.7899
-13.789
-13.7885
-13.789
-13.7899
-13.6731
-13.6723
-13.6718
-13.6723
-13.6732
-13.5482
-13.5474
-13.5469
-13.5474
-13.5482
-13.4151
-13.4142
-13.4137
-13.4142
-13.4151
-13.2736
-13.2728
-13.2723
-13.2728
-13.2736
-13.1237
-13.123
-13.1225
-13.123
-13.1238
-12.9655
-12.9647
-12.9642
-12.9647
-12.9655
-12.7987
-12.798
-12.7975
-12.798
-12.7987
-12.6234
-12.6227
-12.6223
-12.6227
-12.6235
-12.4396
-12.4389
-12.4385
-12.4389
-12.4397
-12.2473
-12.2466
-12.2462
-12.2466
-12.2473
-12.0464
-12.0458
-12.0454
-12.0458
-12.0465
-11.8371
-11.8364
-11.8361
-11.8364
-11.8371
-11.6192
-11.6186
-11.6182
-11.6186
-11.6192
-11.3929
-11.3923
-11.392
-11.3923
-11.3929
-11.1582
-11.1577
-11.1573
-11.1577
-11.1582
-10.9153
-10.9147
-10.9144
-10.9147
-10.9153
-10.6641
-10.6635
-10.6632
-10.6636
-10.6641
-10.4048
-10.4043
-10.404
-10.4043
-10.4048
-10.1376
-10.1371
-10.1368
-10.1371
-10.1376
-9.86251
-9.86204
-9.86176
-9.86205
-9.86253
-9.57979
-9.57934
-9.57908
-9.57935
-9.5798
-9.28959
-9.28916
-9.28891
-9.28917
-9.28961
-8.99211
-8.9917
-8.99146
-8.99171
-8.99213
-8.68758
-8.68718
-8.68695
-8.68719
-8.68759
-8.37621
-8.37584
-8.37562
-8.37584
-8.37623
-8.05829
-8.05793
-8.05772
-8.05794
-8.0583
-7.73408
-7.73374
-7.73354
-7.73374
-7.73409
-7.40388
-7.40356
-7.40337
-7.40356
-7.40389
-7.06801
-7.06771
-7.06753
-7.06771
-7.06802
-6.72681
-6.72653
-6.72636
-6.72653
-6.72682
-6.38064
-6.38037
-6.38021
-6.38038
-6.38065
-6.02988
-6.02963
-6.02948
-6.02963
-6.02989
-5.67492
-5.67469
-5.67455
-5.67469
-5.67493
-5.3162
-5.31598
-5.31585
-5.31599
-5.31621
-4.95415
-4.95395
-4.95383
-4.95395
-4.95415
-4.58922
-4.58904
-4.58893
-4.58904
-4.58923
-4.22191
-4.22174
-4.22164
-4.22174
-4.22192
-3.85271
-3.85256
-3.85247
-3.85256
-3.85272
-3.48214
-3.482
-3.48192
-3.482
-3.48214
-3.11074
-3.11061
-3.11054
-3.11062
-3.11074
-2.73905
-2.73895
-2.73888
-2.73895
-2.73906
-2.36766
-2.36757
-2.36752
-2.36757
-2.36767
-1.99716
-1.99708
-1.99704
-1.99708
-1.99716
-1.62814
-1.62808
-1.62804
-1.62808
-1.62814
-1.26123
-1.26118
-1.26115
-1.26118
-1.26123
-0.897053
-0.897019
-0.896998
-0.897019
-0.897054
-0.536264
-0.536243
-0.536231
-0.536244
-0.536265
-0.179516
-0.17951
-0.179505
-0.17951
-0.179517
)
;

boundaryField
{
    BotWall
    {
        type            zeroGradient;
    }
    FreeStream
    {
        type            zeroGradient;
    }
    FrontNBack
    {
        type            empty;
    }
    LeftSide
    {
        type            symmetryPlane;
    }
    RightSide
    {
        type            symmetryPlane;
    }
}


// ************************************************************************* //
