/*--------------------------------*- C++ -*----------------------------------*\
| =========                 |                                                 |
| \\      /  F ield         | OpenFOAM: The Open Source CFD Toolbox           |
|  \\    /   O peration     | Version:  2.4.0                                 |
|   \\  /    A nd           | Web:      www.OpenFOAM.org                      |
|    \\/     M anipulation  |                                                 |
\*---------------------------------------------------------------------------*/
FoamFile
{
    version     2.0;
    format      ascii;
    class       volScalarField;
    location    "1.9";
    object      p;
}
// * * * * * * * * * * * * * * * * * * * * * * * * * * * * * * * * * * * * * //

dimensions      [1 -1 -2 0 0 0 0];

internalField   nonuniform List<scalar> 
500
(
0.484627
0.484662
0.484651
0.484662
0.484627
0.45485
0.454888
0.454878
0.454888
0.45485
0.424678
0.424715
0.424704
0.424715
0.424678
0.394196
0.394234
0.394223
0.394233
0.394195
0.363439
0.363477
0.363467
0.363477
0.363439
0.332767
0.332806
0.332796
0.332806
0.332766
0.30192
0.30196
0.30195
0.30196
0.30192
0.268059
0.268096
0.268087
0.268096
0.268058
0.224009
0.224041
0.224032
0.224041
0.224009
0.1744
0.174436
0.174425
0.174436
0.174399
0.193443
0.19353
0.193521
0.19353
0.193443
0.459371
0.459554
0.459561
0.459554
0.459369
0.852395
0.852515
0.852565
0.852516
0.852393
-0.520017
-0.520556
-0.520535
-0.520556
-0.520019
-8.11996
-8.12155
-8.12191
-8.12155
-8.11995
-18.7599
-18.7609
-18.7621
-18.7609
-18.7598
-0.0153388
-0.0153385
-0.0153385
-0.0153385
-0.0153388
-0.00754604
-0.00754633
-0.00754636
-0.00754633
-0.00754604
-0.00933491
-0.00933487
-0.00933488
-0.00933487
-0.00933491
-0.010608
-0.010608
-0.010608
-0.010608
-0.010608
-0.0113223
-0.0113223
-0.0113223
-0.0113223
-0.0113223
-0.0118958
-0.0118958
-0.0118958
-0.0118958
-0.0118958
-0.0124933
-0.0124933
-0.0124933
-0.0124933
-0.0124933
-0.0131197
-0.0131197
-0.0131197
-0.0131197
-0.0131197
-0.0137586
-0.0137586
-0.0137586
-0.0137586
-0.0137586
-0.014404
-0.014404
-0.014404
-0.014404
-0.014404
-0.0150557
-0.0150557
-0.0150557
-0.0150557
-0.0150557
-0.0157144
-0.0157144
-0.0157144
-0.0157144
-0.0157144
-0.0163806
-0.0163806
-0.0163806
-0.0163806
-0.0163806
-0.0170541
-0.0170541
-0.0170541
-0.0170541
-0.0170541
-0.0177352
-0.0177352
-0.0177352
-0.0177352
-0.0177352
-0.018424
-0.018424
-0.018424
-0.018424
-0.018424
-0.0191204
-0.0191204
-0.0191204
-0.0191204
-0.0191204
-0.0198245
-0.0198245
-0.0198245
-0.0198245
-0.0198245
-0.0205365
-0.0205365
-0.0205365
-0.0205365
-0.0205365
-0.0212565
-0.0212565
-0.0212565
-0.0212565
-0.0212565
-0.0219845
-0.0219845
-0.0219845
-0.0219845
-0.0219845
-0.0227206
-0.0227206
-0.0227206
-0.0227206
-0.0227206
-0.023465
-0.023465
-0.023465
-0.023465
-0.023465
-0.0242176
-0.0242176
-0.0242176
-0.0242176
-0.0242176
-0.0249787
-0.0249787
-0.0249787
-0.0249787
-0.0249787
-0.0257482
-0.0257482
-0.0257482
-0.0257482
-0.0257482
-0.0265263
-0.0265263
-0.0265263
-0.0265263
-0.0265263
-0.0273131
-0.0273131
-0.0273131
-0.0273131
-0.0273131
-0.0281087
-0.0281087
-0.0281087
-0.0281087
-0.0281087
-0.0289132
-0.0289132
-0.0289132
-0.0289132
-0.0289132
-0.0297266
-0.0297266
-0.0297266
-0.0297266
-0.0297266
-0.0305492
-0.0305492
-0.0305492
-0.0305492
-0.0305492
-0.0313809
-0.0313809
-0.0313809
-0.0313809
-0.0313809
-0.0322218
-0.0322218
-0.0322218
-0.0322218
-0.0322218
-0.0330722
-0.0330722
-0.0330722
-0.0330722
-0.0330722
-0.033932
-0.033932
-0.033932
-0.033932
-0.033932
-0.0348015
-0.0348015
-0.0348015
-0.0348015
-0.0348015
-0.0356806
-0.0356806
-0.0356806
-0.0356806
-0.0356806
-0.0365696
-0.0365696
-0.0365696
-0.0365696
-0.0365696
-0.0374685
-0.0374685
-0.0374685
-0.0374685
-0.0374685
-0.0383774
-0.0383774
-0.0383774
-0.0383774
-0.0383774
-0.0392964
-0.0392964
-0.0392964
-0.0392964
-0.0392964
-0.0402258
-0.0402258
-0.0402258
-0.0402258
-0.0402258
-0.0411654
-0.0411654
-0.0411654
-0.0411654
-0.0411654
-0.0421156
-0.0421156
-0.0421156
-0.0421156
-0.0421156
-0.0430764
-0.0430764
-0.0430764
-0.0430764
-0.0430764
-0.0440478
-0.0440478
-0.0440478
-0.0440478
-0.0440478
-0.0450302
-0.0450302
-0.0450302
-0.0450302
-0.0450302
-0.0460235
-0.0460235
-0.0460235
-0.0460235
-0.0460235
-0.0470278
-0.0470278
-0.0470278
-0.0470278
-0.0470278
-0.0480434
-0.0480434
-0.0480434
-0.0480434
-0.0480434
-0.0490703
-0.0490703
-0.0490703
-0.0490703
-0.0490703
-0.0501087
-0.0501087
-0.0501087
-0.0501087
-0.0501087
-0.0511587
-0.0511587
-0.0511587
-0.0511587
-0.0511587
-0.0522203
-0.0522203
-0.0522203
-0.0522203
-0.0522203
-0.0532939
-0.0532939
-0.0532939
-0.0532939
-0.0532939
-0.0543794
-0.0543794
-0.0543794
-0.0543794
-0.0543794
-0.055477
-0.055477
-0.055477
-0.055477
-0.055477
-0.0565869
-0.0565869
-0.0565869
-0.0565869
-0.0565869
-0.0577091
-0.0577091
-0.0577091
-0.0577091
-0.0577091
-0.0588439
-0.0588439
-0.0588439
-0.0588439
-0.0588439
-0.0599913
-0.0599913
-0.0599913
-0.0599913
-0.0599913
-0.0611516
-0.0611516
-0.0611516
-0.0611516
-0.0611516
-0.0623247
-0.0623247
-0.0623247
-0.0623247
-0.0623247
-0.063511
-0.063511
-0.063511
-0.063511
-0.063511
-0.0647105
-0.0647105
-0.0647105
-0.0647105
-0.0647105
-0.0659234
-0.0659234
-0.0659234
-0.0659234
-0.0659234
-0.0671499
-0.0671499
-0.0671499
-0.0671499
-0.0671499
-0.06839
-0.06839
-0.06839
-0.06839
-0.06839
-0.069644
-0.069644
-0.069644
-0.069644
-0.069644
-0.0709119
-0.0709119
-0.0709119
-0.0709119
-0.0709119
-0.072194
-0.072194
-0.072194
-0.072194
-0.072194
-0.0734904
-0.0734904
-0.0734904
-0.0734904
-0.0734904
-0.0748013
-0.0748013
-0.0748013
-0.0748013
-0.0748013
-0.0761268
-0.0761268
-0.0761268
-0.0761268
-0.0761268
-0.0774671
-0.0774671
-0.0774671
-0.0774671
-0.0774671
-0.0788223
-0.0788223
-0.0788223
-0.0788223
-0.0788223
-0.0801927
-0.0801927
-0.0801927
-0.0801927
-0.0801927
-0.0815784
-0.0815784
-0.0815784
-0.0815784
-0.0815784
-0.0829795
-0.0829795
-0.0829795
-0.0829795
-0.0829795
-0.0843963
-0.0843963
-0.0843963
-0.0843963
-0.0843963
-0.0858288
-0.0858288
-0.0858288
-0.0858288
-0.0858288
-0.0872774
-0.0872774
-0.0872774
-0.0872774
-0.0872774
-0.0887421
-0.0887421
-0.0887421
-0.0887421
-0.0887421
)
;

boundaryField
{
    BotWall
    {
        type            calculated;
        value           nonuniform List<scalar> 5(0.499447 0.499482 0.499471 0.499483 0.499447);
    }
    FreeStream
    {
        type            calculated;
        value           nonuniform List<scalar> 5(-0.0894785 -0.0894785 -0.0894785 -0.0894785 -0.0894785);
    }
    FrontNBack
    {
        type            empty;
    }
    LeftSide
    {
        type            symmetryPlane;
    }
    RightSide
    {
        type            symmetryPlane;
    }
}


// ************************************************************************* //
