/*--------------------------------*- C++ -*----------------------------------*\
| =========                 |                                                 |
| \\      /  F ield         | OpenFOAM: The Open Source CFD Toolbox           |
|  \\    /   O peration     | Version:  2.4.0                                 |
|   \\  /    A nd           | Web:      www.OpenFOAM.org                      |
|    \\/     M anipulation  |                                                 |
\*---------------------------------------------------------------------------*/
FoamFile
{
    version     2.0;
    format      ascii;
    class       volScalarField;
    location    "1.9";
    object      p_rgh;
}
// * * * * * * * * * * * * * * * * * * * * * * * * * * * * * * * * * * * * * //

dimensions      [1 -1 -2 0 0 0 0];

internalField   nonuniform List<scalar> 
500
(
0.499447
0.499482
0.499471
0.499483
0.499447
0.499477
0.499514
0.499504
0.499514
0.499476
0.499443
0.49948
0.499469
0.49948
0.499443
0.499436
0.499473
0.499463
0.499473
0.499435
0.499494
0.499532
0.499522
0.499532
0.499493
0.49998
0.50002
0.50001
0.50002
0.49998
0.500641
0.50068
0.50067
0.50068
0.50064
0.498637
0.498674
0.498665
0.498674
0.498636
0.486801
0.486833
0.486823
0.486833
0.486801
0.469765
0.469801
0.46979
0.469801
0.469764
0.521745
0.521831
0.521822
0.521831
0.521744
0.820976
0.821159
0.821166
0.821159
0.820975
1.24768
1.2478
1.24785
1.2478
1.24767
-0.0906844
-0.0912236
-0.0912026
-0.0912234
-0.090686
-7.6562
-7.65779
-7.65814
-7.65779
-7.65619
-18.3752
-18.3762
-18.3774
-18.3762
-18.3752
-0.00649733
-0.00649702
-0.00649698
-0.00649702
-0.00649734
0.00188505
0.00188475
0.00188473
0.00188475
0.00188505
0.000692385
0.000692416
0.000692413
0.000692416
0.000692385
2.21185e-05
2.21713e-05
2.21724e-05
2.21714e-05
2.21184e-05
-8.2577e-05
-8.25716e-05
-8.25711e-05
-8.25715e-05
-8.25771e-05
-3.96661e-05
-3.96751e-05
-3.96753e-05
-3.9675e-05
-3.96661e-05
-1.39218e-05
-1.39262e-05
-1.39265e-05
-1.39261e-05
-1.39219e-05
-1.01177e-05
-1.01178e-05
-1.01181e-05
-1.01177e-05
-1.01177e-05
-1.18153e-05
-1.18147e-05
-1.1815e-05
-1.18146e-05
-1.18153e-05
-1.28214e-05
-1.28213e-05
-1.28216e-05
-1.28212e-05
-1.28214e-05
-1.29552e-05
-1.29554e-05
-1.29557e-05
-1.29553e-05
-1.29553e-05
-1.28733e-05
-1.28735e-05
-1.28739e-05
-1.28734e-05
-1.28733e-05
-1.28195e-05
-1.28198e-05
-1.28201e-05
-1.28197e-05
-1.28196e-05
-1.28003e-05
-1.28005e-05
-1.28009e-05
-1.28004e-05
-1.28003e-05
-1.27894e-05
-1.27896e-05
-1.279e-05
-1.27895e-05
-1.27894e-05
-1.27771e-05
-1.27774e-05
-1.27777e-05
-1.27773e-05
-1.27772e-05
-1.27634e-05
-1.27636e-05
-1.2764e-05
-1.27635e-05
-1.27634e-05
-1.27491e-05
-1.27494e-05
-1.27497e-05
-1.27493e-05
-1.27491e-05
-1.27347e-05
-1.2735e-05
-1.27354e-05
-1.27349e-05
-1.27347e-05
-1.27202e-05
-1.27205e-05
-1.27209e-05
-1.27204e-05
-1.27203e-05
-1.27056e-05
-1.27059e-05
-1.27063e-05
-1.27058e-05
-1.27056e-05
-1.26908e-05
-1.26911e-05
-1.26915e-05
-1.2691e-05
-1.26908e-05
-1.26759e-05
-1.26762e-05
-1.26765e-05
-1.26761e-05
-1.26759e-05
-1.26607e-05
-1.2661e-05
-1.26614e-05
-1.26609e-05
-1.26607e-05
-1.26454e-05
-1.26457e-05
-1.26461e-05
-1.26456e-05
-1.26454e-05
-1.26299e-05
-1.26302e-05
-1.26306e-05
-1.26301e-05
-1.26299e-05
-1.26143e-05
-1.26146e-05
-1.2615e-05
-1.26145e-05
-1.26143e-05
-1.25984e-05
-1.25988e-05
-1.25991e-05
-1.25987e-05
-1.25984e-05
-1.25824e-05
-1.25828e-05
-1.25831e-05
-1.25827e-05
-1.25824e-05
-1.25663e-05
-1.25666e-05
-1.25669e-05
-1.25665e-05
-1.25662e-05
-1.25499e-05
-1.25502e-05
-1.25506e-05
-1.25501e-05
-1.25499e-05
-1.25333e-05
-1.25336e-05
-1.2534e-05
-1.25336e-05
-1.25333e-05
-1.25166e-05
-1.25169e-05
-1.25173e-05
-1.25168e-05
-1.25166e-05
-1.24997e-05
-1.25e-05
-1.25003e-05
-1.24999e-05
-1.24996e-05
-1.24825e-05
-1.24829e-05
-1.24832e-05
-1.24828e-05
-1.24825e-05
-1.24652e-05
-1.24655e-05
-1.24659e-05
-1.24655e-05
-1.24652e-05
-1.24477e-05
-1.2448e-05
-1.24484e-05
-1.2448e-05
-1.24477e-05
-1.243e-05
-1.24303e-05
-1.24307e-05
-1.24302e-05
-1.243e-05
-1.24121e-05
-1.24124e-05
-1.24128e-05
-1.24123e-05
-1.24121e-05
-1.2394e-05
-1.23943e-05
-1.23947e-05
-1.23942e-05
-1.2394e-05
-1.23757e-05
-1.2376e-05
-1.23764e-05
-1.23759e-05
-1.23757e-05
-1.23572e-05
-1.23575e-05
-1.23578e-05
-1.23574e-05
-1.23572e-05
-1.23385e-05
-1.23388e-05
-1.23391e-05
-1.23387e-05
-1.23385e-05
-1.23196e-05
-1.23199e-05
-1.23202e-05
-1.23198e-05
-1.23196e-05
-1.23005e-05
-1.23007e-05
-1.2301e-05
-1.23007e-05
-1.23004e-05
-1.22811e-05
-1.22814e-05
-1.22817e-05
-1.22813e-05
-1.22811e-05
-1.22616e-05
-1.22618e-05
-1.22621e-05
-1.22618e-05
-1.22615e-05
-1.22418e-05
-1.2242e-05
-1.22423e-05
-1.2242e-05
-1.22418e-05
-1.22218e-05
-1.2222e-05
-1.22223e-05
-1.2222e-05
-1.22218e-05
-1.22016e-05
-1.22018e-05
-1.22021e-05
-1.22017e-05
-1.22015e-05
-1.21811e-05
-1.21814e-05
-1.21816e-05
-1.21813e-05
-1.21811e-05
-1.21605e-05
-1.21607e-05
-1.21609e-05
-1.21606e-05
-1.21604e-05
-1.21396e-05
-1.21398e-05
-1.214e-05
-1.21397e-05
-1.21395e-05
-1.21184e-05
-1.21186e-05
-1.21188e-05
-1.21186e-05
-1.21184e-05
-1.2097e-05
-1.20972e-05
-1.20975e-05
-1.20972e-05
-1.2097e-05
-1.20754e-05
-1.20756e-05
-1.20758e-05
-1.20756e-05
-1.20754e-05
-1.20536e-05
-1.20538e-05
-1.2054e-05
-1.20537e-05
-1.20536e-05
-1.20315e-05
-1.20317e-05
-1.20319e-05
-1.20316e-05
-1.20315e-05
-1.20092e-05
-1.20093e-05
-1.20095e-05
-1.20093e-05
-1.20091e-05
-1.19866e-05
-1.19867e-05
-1.19869e-05
-1.19867e-05
-1.19865e-05
-1.19637e-05
-1.19639e-05
-1.19641e-05
-1.19638e-05
-1.19637e-05
-1.19407e-05
-1.19408e-05
-1.1941e-05
-1.19407e-05
-1.19406e-05
-1.19173e-05
-1.19174e-05
-1.19176e-05
-1.19174e-05
-1.19173e-05
-1.18937e-05
-1.18938e-05
-1.1894e-05
-1.18938e-05
-1.18937e-05
-1.18698e-05
-1.187e-05
-1.18701e-05
-1.18699e-05
-1.18698e-05
-1.18457e-05
-1.18458e-05
-1.18459e-05
-1.18458e-05
-1.18457e-05
-1.18213e-05
-1.18214e-05
-1.18215e-05
-1.18214e-05
-1.18213e-05
-1.17966e-05
-1.17967e-05
-1.17968e-05
-1.17967e-05
-1.17966e-05
-1.17717e-05
-1.17718e-05
-1.17719e-05
-1.17718e-05
-1.17717e-05
-1.17465e-05
-1.17466e-05
-1.17467e-05
-1.17465e-05
-1.17464e-05
-1.1721e-05
-1.17211e-05
-1.17211e-05
-1.1721e-05
-1.17209e-05
-1.16952e-05
-1.16953e-05
-1.16953e-05
-1.16952e-05
-1.16952e-05
-1.16691e-05
-1.16692e-05
-1.16693e-05
-1.16692e-05
-1.16691e-05
-1.16428e-05
-1.16428e-05
-1.16429e-05
-1.16428e-05
-1.16427e-05
-1.16161e-05
-1.16162e-05
-1.16162e-05
-1.16161e-05
-1.16161e-05
-1.15892e-05
-1.15892e-05
-1.15893e-05
-1.15892e-05
-1.15891e-05
-1.15619e-05
-1.1562e-05
-1.1562e-05
-1.1562e-05
-1.15619e-05
-1.15344e-05
-1.15344e-05
-1.15345e-05
-1.15344e-05
-1.15344e-05
-1.15065e-05
-1.15066e-05
-1.15066e-05
-1.15066e-05
-1.15065e-05
-1.14784e-05
-1.14784e-05
-1.14784e-05
-1.14784e-05
-1.14783e-05
-1.14499e-05
-1.14499e-05
-1.145e-05
-1.14499e-05
-1.14499e-05
-1.14211e-05
-1.14211e-05
-1.14212e-05
-1.14211e-05
-1.14211e-05
-1.1392e-05
-1.1392e-05
-1.1392e-05
-1.1392e-05
-1.1392e-05
-1.13626e-05
-1.13626e-05
-1.13626e-05
-1.13626e-05
-1.13626e-05
)
;

boundaryField
{
    BotWall
    {
        type            fixedFluxPressure;
        gradient        uniform 0;
        value           nonuniform List<scalar> 5(0.499447 0.499482 0.499471 0.499483 0.499447);
    }
    FreeStream
    {
        type            totalPressure;
        rho             rho;
        psi             none;
        gamma           1;
        p0              uniform 0;
        value           nonuniform List<scalar> 5(-1.13478e-05 -1.13478e-05 -1.13478e-05 -1.13478e-05 -1.13478e-05);
    }
    FrontNBack
    {
        type            empty;
    }
    LeftSide
    {
        type            symmetryPlane;
    }
    RightSide
    {
        type            symmetryPlane;
    }
}


// ************************************************************************* //
