/*--------------------------------*- C++ -*----------------------------------*\
| =========                 |                                                 |
| \\      /  F ield         | OpenFOAM: The Open Source CFD Toolbox           |
|  \\    /   O peration     | Version:  2.4.0                                 |
|   \\  /    A nd           | Web:      www.OpenFOAM.org                      |
|    \\/     M anipulation  |                                                 |
\*---------------------------------------------------------------------------*/
FoamFile
{
    version     2.0;
    format      ascii;
    class       surfaceScalarField;
    location    "1.9";
    object      phi;
}
// * * * * * * * * * * * * * * * * * * * * * * * * * * * * * * * * * * * * * //

dimensions      [0 3 -1 0 0 0 0];

internalField   nonuniform List<scalar> 
895
(
1.47844e-18
-1.47815e-18
9.34717e-19
5.43859e-19
-9.41321e-19
1.87629e-18
-1.50156e-18
5.60519e-19
-1.50121e-18
4.53301e-18
-6.00696e-18
2.84236e-18
2.24162e-18
-2.86245e-18
7.59103e-18
-4.60357e-18
2.30946e-18
-6.09906e-18
7.72409e-18
-1.37261e-17
4.82146e-18
5.15217e-18
-4.85602e-18
1.72793e-17
-7.84473e-18
5.30646e-18
-1.3938e-17
1.10409e-17
-2.47615e-17
6.87434e-18
9.32719e-18
-6.92432e-18
3.10892e-17
-1.12151e-17
9.60572e-18
-2.51473e-17
1.45029e-17
-3.92587e-17
9.01052e-18
1.48283e-17
-9.07695e-18
4.9188e-17
-1.47323e-17
1.52696e-17
-3.9874e-17
1.81004e-17
-5.73533e-17
1.12263e-17
2.17111e-17
-1.13098e-17
7.17354e-17
-1.83871e-17
2.23552e-17
-5.82556e-17
2.1861e-17
-7.92085e-17
1.35351e-17
3.00455e-17
-1.36366e-17
9.8918e-17
-2.22074e-17
3.0934e-17
-8.04578e-17
2.57696e-17
-1.04972e-16
1.59294e-17
3.98938e-17
-1.60498e-17
1.30908e-16
-2.61781e-17
4.10698e-17
-1.06631e-16
2.98575e-17
-1.34825e-16
1.84249e-17
5.13339e-17
-1.85648e-17
1.67907e-16
-3.03311e-17
5.28429e-17
-1.36958e-16
3.40969e-17
-1.68917e-16
2.10141e-17
6.44236e-17
-2.11744e-17
2.10104e-16
-3.46385e-17
6.63131e-17
-1.71593e-16
3.85053e-17
-2.07417e-16
2.37209e-17
7.92141e-17
-2.39026e-17
2.57735e-16
-3.91176e-17
8.15333e-17
-2.10707e-16
4.30921e-17
-2.50506e-16
2.65424e-17
9.57688e-17
-2.67467e-17
3.1103e-16
-4.37779e-17
9.85687e-17
-2.54483e-16
4.80724e-17
-2.98575e-16
2.95063e-17
1.14339e-16
-2.97344e-17
3.70276e-16
-4.88353e-17
1.17673e-16
-3.03316e-16
5.36429e-17
-3.52216e-16
3.24104e-17
1.35574e-16
-3.26642e-17
4.35353e-16
-5.44885e-17
1.39499e-16
-3.57804e-16
5.94012e-17
-5.33586e-16
3.56573e-17
1.59317e-16
-3.59318e-17
5.06942e-16
-6.03483e-17
1.63915e-16
-5.42059e-16
6.31793e-17
-3.15502e-10
3.96319e-17
-3.15503e-10
-3.99109e-17
-3.15504e-10
-6.42578e-17
-3.15503e-10
-3.15502e-10
6.48374e-17
-3.15502e-10
3.966e-17
-3.15503e-10
-3.99734e-17
-3.15504e-10
-6.58889e-17
-3.15503e-10
-3.15502e-10
7.00375e-17
-3.15502e-10
3.91376e-17
-3.15503e-10
-3.93609e-17
-3.15504e-10
-7.10666e-17
-3.15503e-10
-3.15502e-10
6.18185e-17
-3.15502e-10
3.82068e-17
-3.15503e-10
-3.83437e-17
-3.15504e-10
-6.2786e-17
-3.15503e-10
-3.15502e-10
5.83573e-17
-3.15502e-10
3.63934e-17
-3.15503e-10
-3.6441e-17
-3.15503e-10
-5.92704e-17
-3.15503e-10
-3.15502e-10
5.65872e-17
-3.15502e-10
3.46841e-17
-3.15503e-10
-3.46421e-17
-3.15503e-10
-5.74496e-17
-3.15503e-10
-3.15502e-10
5.44863e-17
-3.15503e-10
3.32146e-17
-3.15503e-10
-3.30844e-17
-3.15503e-10
-5.52981e-17
-3.15503e-10
-3.15503e-10
5.20014e-17
-3.15503e-10
3.17959e-17
-3.15503e-10
-3.15788e-17
-3.15503e-10
-5.2762e-17
-3.15503e-10
-3.15503e-10
4.94921e-17
-3.15503e-10
3.03599e-17
-3.15503e-10
-3.00574e-17
-3.15503e-10
-5.02011e-17
-3.15503e-10
-3.15503e-10
4.70756e-17
-3.15503e-10
2.89252e-17
-3.15503e-10
-2.85386e-17
-3.15503e-10
-4.77328e-17
-3.15503e-10
-3.15503e-10
4.4729e-17
-3.15503e-10
2.75126e-17
-3.15503e-10
-2.70435e-17
-3.15503e-10
-4.53342e-17
-3.15503e-10
-3.15503e-10
4.24253e-17
-3.15503e-10
2.61271e-17
-3.15503e-10
-2.55771e-17
-3.15503e-10
-4.29785e-17
-3.15503e-10
-3.15503e-10
4.01597e-17
-3.15503e-10
2.47677e-17
-3.15503e-10
-2.41384e-17
-3.15503e-10
-4.06608e-17
-3.15503e-10
-3.15503e-10
3.79357e-17
-3.15503e-10
2.34335e-17
-3.15503e-10
-2.27269e-17
-3.15503e-10
-3.83847e-17
-3.15503e-10
-3.15503e-10
3.57563e-17
-3.15503e-10
2.21251e-17
-3.15503e-10
-2.13429e-17
-3.15503e-10
-3.61534e-17
-3.15503e-10
-3.15503e-10
3.3623e-17
-3.15503e-10
2.08434e-17
-3.15503e-10
-1.99876e-17
-3.15503e-10
-3.39682e-17
-3.15503e-10
-3.15503e-10
3.15366e-17
-3.15503e-10
1.95889e-17
-3.15503e-10
-1.86616e-17
-3.15503e-10
-3.18302e-17
-3.15503e-10
-3.15503e-10
2.9498e-17
-3.15503e-10
1.83625e-17
-3.15503e-10
-1.73658e-17
-3.15503e-10
-2.97403e-17
-3.15503e-10
-3.15503e-10
2.75082e-17
-3.15503e-10
1.71647e-17
-3.15503e-10
-1.61008e-17
-3.15503e-10
-2.76995e-17
-3.15503e-10
-3.15503e-10
2.55681e-17
-3.15503e-10
1.5996e-17
-3.15503e-10
-1.48672e-17
-3.15503e-10
-2.57089e-17
-3.15503e-10
-3.15503e-10
2.36785e-17
-3.15503e-10
1.48571e-17
-3.15503e-10
-1.36657e-17
-3.15503e-10
-2.37693e-17
-3.15503e-10
-3.15503e-10
2.18403e-17
-3.15503e-10
1.37483e-17
-3.15503e-10
-1.24968e-17
-3.15503e-10
-2.18815e-17
-3.15503e-10
-3.15503e-10
2.00541e-17
-3.15503e-10
1.26702e-17
-3.15503e-10
-1.1361e-17
-3.15503e-10
-2.00465e-17
-3.15503e-10
-3.15503e-10
1.83206e-17
-3.15503e-10
1.16231e-17
-3.15503e-10
-1.02589e-17
-3.15503e-10
-1.82648e-17
-3.15503e-10
-3.15503e-10
1.66405e-17
-3.15503e-10
1.06075e-17
-3.15503e-10
-9.19083e-18
-3.15503e-10
-1.65373e-17
-3.15503e-10
-3.15503e-10
1.50142e-17
-3.15503e-10
9.62375e-18
-3.15503e-10
-8.15729e-18
-3.15503e-10
-1.48644e-17
-3.15503e-10
-3.15503e-10
1.34423e-17
-3.15503e-10
8.67209e-18
-3.15503e-10
-7.15861e-18
-3.15503e-10
-1.32467e-17
-3.15503e-10
-3.15503e-10
1.1925e-17
-3.15503e-10
7.75282e-18
-3.15503e-10
-6.19511e-18
-3.15503e-10
-1.16847e-17
-3.15503e-10
-3.15503e-10
1.04628e-17
-3.15503e-10
6.86617e-18
-3.15503e-10
-5.26705e-18
-3.15503e-10
-1.01787e-17
-3.15503e-10
-3.15503e-10
9.05594e-18
-3.15503e-10
6.01231e-18
-3.15503e-10
-4.37466e-18
-3.15503e-10
-8.72915e-18
-3.15503e-10
-3.15503e-10
7.70454e-18
-3.15503e-10
5.19139e-18
-3.15503e-10
-3.51811e-18
-3.15503e-10
-7.33621e-18
-3.15503e-10
-3.15503e-10
6.40874e-18
-3.15503e-10
4.4035e-18
-3.15503e-10
-2.69754e-18
-3.15503e-10
-6.00009e-18
-3.15503e-10
-3.15503e-10
5.16859e-18
-3.15503e-10
3.6487e-18
-3.15503e-10
-1.91301e-18
-3.15502e-10
-4.72087e-18
-3.15503e-10
-3.15503e-10
3.98407e-18
-3.15503e-10
2.927e-18
-3.15503e-10
-1.16456e-18
-3.15502e-10
-3.49858e-18
-3.15503e-10
-3.15503e-10
2.85505e-18
-3.15503e-10
2.23836e-18
-3.15503e-10
-4.52166e-19
-3.15502e-10
-2.33317e-18
-3.15503e-10
-3.15503e-10
1.78137e-18
-3.15503e-10
1.58271e-18
-3.15503e-10
2.24251e-19
-3.15502e-10
-1.22451e-18
-3.15503e-10
-3.15503e-10
7.6277e-19
-3.15503e-10
9.59914e-19
-3.15503e-10
8.64816e-19
-3.15502e-10
-1.72395e-19
-3.15503e-10
-3.15503e-10
-2.01078e-19
-3.15503e-10
3.69809e-19
-3.15503e-10
1.4697e-18
-3.15502e-10
8.23463e-19
-3.15503e-10
-3.15503e-10
-1.11058e-18
-3.15503e-10
-1.87821e-19
-3.15503e-10
2.03915e-18
-3.15502e-10
1.76342e-18
-3.15503e-10
-3.15503e-10
-1.9662e-18
-3.15503e-10
-7.13235e-19
-3.15503e-10
2.57342e-18
-3.15503e-10
2.64793e-18
-3.15503e-10
-3.15503e-10
-2.76851e-18
-3.15503e-10
-1.20674e-18
-3.15503e-10
3.07287e-18
-3.15503e-10
3.4775e-18
-3.15503e-10
-3.15503e-10
-3.51811e-18
-3.15503e-10
-1.66868e-18
-3.15503e-10
3.53788e-18
-3.15503e-10
4.25273e-18
-3.15503e-10
-3.15503e-10
-4.21573e-18
-3.15503e-10
-2.09946e-18
-3.15503e-10
3.96888e-18
-3.15503e-10
4.97429e-18
-3.15503e-10
-3.15503e-10
-4.86212e-18
-3.15503e-10
-2.49951e-18
-3.15503e-10
4.36636e-18
-3.15503e-10
5.64294e-18
-3.15503e-10
-3.15503e-10
-5.45812e-18
-3.15503e-10
-2.86931e-18
-3.15503e-10
4.73087e-18
-3.15503e-10
6.25951e-18
-3.15503e-10
-3.15503e-10
-6.00467e-18
-3.15503e-10
-3.20939e-18
-3.15503e-10
5.06301e-18
-3.15503e-10
6.82489e-18
-3.15503e-10
-3.15503e-10
-6.50274e-18
-3.15503e-10
-3.52032e-18
-3.15503e-10
5.36341e-18
-3.15503e-10
7.34009e-18
-3.15503e-10
-3.15503e-10
-6.9534e-18
-3.15503e-10
-3.80271e-18
-3.15503e-10
5.63277e-18
-3.15503e-10
7.80614e-18
-3.15503e-10
-3.15503e-10
-7.35776e-18
-3.15503e-10
-4.05722e-18
-3.15503e-10
5.87184e-18
-3.15503e-10
8.2242e-18
-3.15503e-10
-3.15503e-10
-7.71703e-18
-3.15503e-10
-4.28454e-18
-3.15503e-10
6.08141e-18
-3.15503e-10
8.59545e-18
-3.15503e-10
-3.15503e-10
-8.03246e-18
-3.15503e-10
-4.4854e-18
-3.15503e-10
6.26233e-18
-3.15503e-10
8.92118e-18
-3.15503e-10
-3.15503e-10
-8.30539e-18
-3.15503e-10
-4.6606e-18
-3.15503e-10
6.41549e-18
-3.15503e-10
9.20274e-18
-3.15503e-10
-3.15503e-10
-8.53721e-18
-3.15503e-10
-4.81093e-18
-3.15503e-10
6.54183e-18
-3.15503e-10
9.44156e-18
-3.15503e-10
-3.15503e-10
-8.72937e-18
-3.15503e-10
-4.93726e-18
-3.15503e-10
6.64234e-18
-3.15503e-10
9.63912e-18
-3.15503e-10
-3.15503e-10
-8.88341e-18
-3.15503e-10
-5.04049e-18
-3.15503e-10
6.71805e-18
-3.15503e-10
9.79699e-18
-3.15503e-10
-3.15503e-10
-9.00089e-18
-3.15503e-10
-5.12155e-18
-3.15503e-10
6.77003e-18
-3.15503e-10
9.9168e-18
-3.15503e-10
-3.15503e-10
-9.08347e-18
-3.15503e-10
-5.1814e-18
-3.15503e-10
6.79941e-18
-3.15503e-10
1.00002e-17
-3.15503e-10
-3.15503e-10
-9.13284e-18
-3.15503e-10
-5.22106e-18
-3.15503e-10
6.80736e-18
-3.15503e-10
1.00491e-17
-3.15503e-10
-3.15503e-10
-9.15078e-18
-3.15503e-10
-5.24157e-18
-3.15503e-10
6.79508e-18
-3.15503e-10
1.00651e-17
-3.15503e-10
-3.15503e-10
-9.13909e-18
-3.15503e-10
-5.24401e-18
-3.15503e-10
6.76382e-18
-3.15503e-10
1.00503e-17
-3.15503e-10
-3.15503e-10
-9.09966e-18
-3.15503e-10
-5.22949e-18
-3.15503e-10
6.71489e-18
-3.15503e-10
1.00066e-17
-3.15503e-10
-3.15503e-10
-9.03442e-18
-3.15503e-10
-5.19916e-18
-3.15503e-10
6.6496e-18
-3.15503e-10
9.9359e-18
-3.15503e-10
-3.15503e-10
-8.94536e-18
-3.15503e-10
-5.15421e-18
-3.15503e-10
6.56933e-18
-3.15503e-10
9.84041e-18
-3.15503e-10
-3.15503e-10
-8.83453e-18
-3.15503e-10
-5.09585e-18
-3.15503e-10
6.47549e-18
-3.15503e-10
9.72224e-18
-3.15503e-10
-3.15503e-10
-8.70404e-18
-3.15503e-10
-5.02535e-18
-3.15503e-10
6.36954e-18
-3.15503e-10
9.5836e-18
-3.15503e-10
-3.15503e-10
-8.55603e-18
-3.15503e-10
-4.94399e-18
-3.15503e-10
6.25296e-18
-3.15503e-10
9.42676e-18
-3.15503e-10
-3.15503e-10
-8.39274e-18
-3.15503e-10
-4.85309e-18
-3.15503e-10
6.12728e-18
-3.15503e-10
9.25404e-18
-3.15503e-10
-3.15503e-10
-8.21643e-18
-3.15503e-10
-4.75402e-18
-3.15503e-10
5.99407e-18
-3.15503e-10
9.06785e-18
-3.15503e-10
-3.15503e-10
-8.02944e-18
-3.15503e-10
-4.64817e-18
-3.15503e-10
5.85493e-18
-3.15503e-10
8.87064e-18
-3.15503e-10
-3.15503e-10
-7.83417e-18
-3.15503e-10
-4.53699e-18
-3.15503e-10
5.71151e-18
-3.15503e-10
8.66496e-18
-3.15503e-10
-3.15503e-10
-7.63308e-18
-3.15503e-10
-4.42194e-18
-3.15503e-10
5.56548e-18
-3.15503e-10
8.45339e-18
-3.15503e-10
-3.15503e-10
-7.42869e-18
-3.15503e-10
-4.30453e-18
-3.15503e-10
5.41858e-18
-3.15503e-10
8.2386e-18
-3.15503e-10
-3.15503e-10
-7.2236e-18
-3.15503e-10
-4.18634e-18
-3.15503e-10
5.27257e-18
-3.15503e-10
8.02335e-18
-3.15503e-10
-3.15503e-10
-7.02049e-18
-3.15503e-10
-4.06896e-18
-3.15503e-10
5.12926e-18
-3.15503e-10
7.81046e-18
-3.15503e-10
-3.15503e-10
-6.82211e-18
-3.15503e-10
-3.95404e-18
-3.15503e-10
4.9905e-18
-3.15503e-10
7.60285e-18
-3.15503e-10
-3.15503e-10
-6.63129e-18
-3.15503e-10
-3.8433e-18
-3.15503e-10
4.85821e-18
-3.15503e-10
7.4035e-18
-3.15503e-10
-3.15503e-10
-6.45097e-18
-3.15503e-10
-3.73848e-18
-3.15503e-10
4.73434e-18
-3.15503e-10
7.21553e-18
-3.15503e-10
-3.15503e-10
-6.28418e-18
-3.15503e-10
-3.64142e-18
-3.15503e-10
4.6209e-18
-3.15503e-10
7.04213e-18
-3.15503e-10
-3.15503e-10
-6.13407e-18
-3.15503e-10
-3.55399e-18
-3.15503e-10
4.51997e-18
-3.15503e-10
6.88664e-18
-3.15503e-10
-3.15503e-10
-6.0039e-18
-3.15503e-10
-3.47817e-18
-3.15503e-10
4.43369e-18
-3.15503e-10
6.75249e-18
-3.15503e-10
-3.15503e-10
-5.89705e-18
-3.15503e-10
-3.41598e-18
-3.15503e-10
4.36424e-18
-3.15503e-10
6.64325e-18
-3.15503e-10
-3.15503e-10
-5.81702e-18
-3.15503e-10
-3.3695e-18
-3.15503e-10
4.31388e-18
-3.15503e-10
6.56259e-18
-3.15503e-10
-3.15503e-10
-5.76756e-18
-3.15503e-10
-3.34099e-18
-3.15503e-10
4.28502e-18
-3.15503e-10
6.51447e-18
-3.15503e-10
-3.15503e-10
-5.75335e-18
-3.15503e-10
-3.33323e-18
-3.15503e-10
4.28058e-18
-3.15503e-10
6.50381e-18
-3.15503e-10
-3.15503e-10
-5.77749e-18
-3.34812e-18
4.30203e-18
6.53453e-18
)
;

boundaryField
{
    BotWall
    {
        type            calculated;
        value           nonuniform List<scalar> 5(-1.49483e-22 -5.14871e-23 -1.02855e-22 -1.66447e-22 -2.77291e-22);
    }
    FreeStream
    {
        type            calculated;
        value           nonuniform List<scalar> 5(-3.15503e-10 -3.15503e-10 -3.15503e-10 -3.15503e-10 -3.15503e-10);
    }
    FrontNBack
    {
        type            empty;
        value           nonuniform 0();
    }
    LeftSide
    {
        type            symmetryPlane;
        value           uniform 0;
    }
    RightSide
    {
        type            symmetryPlane;
        value           uniform 0;
    }
}


// ************************************************************************* //
