/*--------------------------------*- C++ -*----------------------------------*\
| =========                 |                                                 |
| \\      /  F ield         | OpenFOAM: The Open Source CFD Toolbox           |
|  \\    /   O peration     | Version:  2.4.0                                 |
|   \\  /    A nd           | Web:      www.OpenFOAM.org                      |
|    \\/     M anipulation  |                                                 |
\*---------------------------------------------------------------------------*/
FoamFile
{
    version     2.0;
    format      ascii;
    class       volVectorField;
    location    "1.9";
    object      U;
}
// * * * * * * * * * * * * * * * * * * * * * * * * * * * * * * * * * * * * * //

dimensions      [0 1 -1 0 0 0 0];

internalField   nonuniform List<vector> 
500
(
(4.10245e-10 -3.94763e-10 0)
(6.7415e-10 -3.99365e-10 0)
(1.51254e-12 -3.98012e-10 0)
(-6.81947e-10 -3.99354e-10 0)
(-4.19379e-10 -3.94793e-10 0)
(1.24343e-09 1.15423e-09 0)
(2.03535e-09 1.19191e-09 0)
(4.59014e-12 1.20558e-09 0)
(-2.05889e-09 1.19209e-09 0)
(-1.27103e-09 1.154e-09 0)
(2.0974e-09 -2.06361e-09 0)
(3.42044e-09 -2.02984e-09 0)
(7.66328e-12 -1.98929e-09 0)
(-3.46023e-09 -2.02933e-09 0)
(-2.14398e-09 -2.06433e-09 0)
(2.96929e-09 1.57916e-09 0)
(4.82661e-09 1.74371e-09 0)
(1.07281e-11 1.82444e-09 0)
(-4.88328e-09 1.74475e-09 0)
(-3.03546e-09 1.57775e-09 0)
(3.8648e-09 -5.25585e-09 0)
(6.25959e-09 -5.09089e-09 0)
(1.37974e-11 -4.95386e-09 0)
(-6.33349e-09 -5.08914e-09 0)
(-3.95091e-09 -5.25829e-09 0)
(4.77906e-09 7.39406e-09 0)
(7.71491e-09 7.78833e-09 0)
(1.69021e-11 7.9951e-09 0)
(-7.80631e-09 7.79101e-09 0)
(-4.88545e-09 7.39035e-09 0)
(5.72018e-09 1.92178e-08 0)
(9.20082e-09 1.96289e-08 0)
(2.00387e-11 1.99243e-08 0)
(-9.31009e-09 1.96327e-08 0)
(-5.84725e-09 1.92124e-08 0)
(6.68143e-09 4.9086e-08 0)
(1.07108e-08 4.97954e-08 0)
(2.32251e-11 5.01938e-08 0)
(-1.08383e-08 4.98006e-08 0)
(-6.82962e-09 4.90787e-08 0)
(7.67181e-09 -9.72414e-08 0)
(1.22539e-08 -9.6648e-08 0)
(2.64927e-11 -9.61334e-08 0)
(-1.24001e-08 -9.66414e-08 0)
(-7.84165e-09 -9.72508e-08 0)
(8.68258e-09 -6.40273e-07 0)
(1.38216e-08 -6.39482e-07 0)
(2.98279e-11 -6.38865e-07 0)
(-1.39869e-08 -6.39474e-07 0)
(-8.87461e-09 -6.40284e-07 0)
(9.72377e-09 -1.13499e-06 0)
(1.54237e-08 -1.13381e-06 0)
(3.32212e-11 -1.13309e-06 0)
(-1.56086e-08 -1.1338e-06 0)
(-9.93851e-09 -1.135e-06 0)
(1.07967e-08 2.38916e-06 0)
(1.70617e-08 2.39322e-06 0)
(3.66922e-11 2.39423e-06 0)
(-1.72666e-08 2.39323e-06 0)
(-1.10348e-08 2.38914e-06 0)
(1.19346e-08 1.70078e-05 0)
(1.87717e-08 1.70155e-05 0)
(4.02684e-11 1.70175e-05 0)
(-1.89974e-08 1.70155e-05 0)
(-1.21967e-08 1.70077e-05 0)
(1.31243e-08 2.88623e-05 0)
(2.05372e-08 2.88663e-05 0)
(4.39255e-11 2.88701e-05 0)
(-2.07846e-08 2.88663e-05 0)
(-1.34117e-08 2.88622e-05 0)
(1.4263e-08 -6.14264e-05 0)
(2.22972e-08 -6.1455e-05 0)
(4.7974e-11 -6.14557e-05 0)
(-2.25677e-08 -6.1455e-05 0)
(-1.45775e-08 -6.14263e-05 0)
(1.50579e-08 -0.000461278 0)
(2.37007e-08 -0.000461322 0)
(5.20859e-11 -0.000461333 0)
(-2.39938e-08 -0.000461322 0)
(-1.5399e-08 -0.000461278 0)
(1.542e-08 -0.0011525 0)
(2.4153e-08 -0.00115247 0)
(5.26603e-11 -0.00115246 0)
(-2.44496e-08 -0.00115247 0)
(-1.57652e-08 -0.0011525 0)
(1.59229e-08 -0.0026622 0)
(2.43562e-08 -0.00266216 0)
(6.88883e-11 -0.00266216 0)
(-2.46319e-08 -0.00266216 0)
(-1.62622e-08 -0.0026622 0)
(1.45732e-08 -0.00163797 0)
(2.25701e-08 -0.00163802 0)
(8.42567e-11 -0.00163802 0)
(-2.28201e-08 -0.00163802 0)
(-1.49011e-08 -0.00163797 0)
(1.36313e-08 -0.00152252 0)
(2.1204e-08 -0.00152253 0)
(9.88783e-11 -0.00152253 0)
(-2.14287e-08 -0.00152253 0)
(-1.39476e-08 -0.00152252 0)
(1.29547e-08 -0.00154532 0)
(2.01219e-08 -0.00154532 0)
(1.12919e-10 -0.00154532 0)
(-2.03222e-08 -0.00154532 0)
(-1.32597e-08 -0.00154532 0)
(1.23071e-08 -0.0015741 0)
(1.90839e-08 -0.0015741 0)
(1.26337e-10 -0.0015741 0)
(-1.92604e-08 -0.0015741 0)
(-1.26008e-08 -0.0015741 0)
(1.16316e-08 -0.00158001 0)
(1.80295e-08 -0.00158001 0)
(1.39117e-10 -0.00158002 0)
(-1.81828e-08 -0.00158001 0)
(-1.19141e-08 -0.00158001 0)
(1.09596e-08 -0.0015788 0)
(1.69897e-08 -0.0015788 0)
(1.51254e-10 -0.0015788 0)
(-1.71204e-08 -0.0015788 0)
(-1.12309e-08 -0.0015788 0)
(1.03117e-08 -0.00157765 0)
(1.59851e-08 -0.00157765 0)
(1.62754e-10 -0.00157766 0)
(-1.60937e-08 -0.00157765 0)
(-1.05717e-08 -0.00157765 0)
(9.6894e-09 -0.00157741 0)
(1.50174e-08 -0.00157741 0)
(1.7362e-10 -0.00157741 0)
(-1.51046e-08 -0.00157741 0)
(-9.93814e-09 -0.00157741 0)
(9.08981e-09 -0.00157746 0)
(1.40837e-08 -0.00157746 0)
(1.83855e-10 -0.00157746 0)
(-1.415e-08 -0.00157746 0)
(-9.32732e-09 -0.00157746 0)
(8.5113e-09 -0.00157751 0)
(1.31822e-08 -0.00157751 0)
(1.93463e-10 -0.00157751 0)
(-1.32282e-08 -0.00157751 0)
(-8.73763e-09 -0.00157751 0)
(7.95355e-09 -0.00157752 0)
(1.23126e-08 -0.00157752 0)
(2.02449e-10 -0.00157752 0)
(-1.23389e-08 -0.00157752 0)
(-8.16874e-09 -0.00157752 0)
(7.41647e-09 -0.00157752 0)
(1.14746e-08 -0.00157752 0)
(2.10818e-10 -0.00157752 0)
(-1.14819e-08 -0.00157752 0)
(-7.62059e-09 -0.00157752 0)
(6.89985e-09 -0.00157751 0)
(1.06679e-08 -0.00157751 0)
(2.18575e-10 -0.00157751 0)
(-1.06569e-08 -0.00157751 0)
(-7.09297e-09 -0.00157751 0)
(6.40339e-09 -0.00157751 0)
(9.89228e-09 -0.00157751 0)
(2.25727e-10 -0.00157751 0)
(-9.86348e-09 -0.00157751 0)
(-6.58561e-09 -0.00157751 0)
(5.92678e-09 -0.00157751 0)
(9.14714e-09 -0.00157751 0)
(2.3228e-10 -0.00157751 0)
(-9.10126e-09 -0.00157751 0)
(-6.09821e-09 -0.00157751 0)
(5.4697e-09 -0.00157751 0)
(8.43212e-09 -0.00157751 0)
(2.38243e-10 -0.00157751 0)
(-8.3698e-09 -0.00157751 0)
(-5.63045e-09 -0.00157751 0)
(5.03184e-09 -0.00157752 0)
(7.74676e-09 -0.00157751 0)
(2.43622e-10 -0.00157751 0)
(-7.66867e-09 -0.00157751 0)
(-5.18204e-09 -0.00157752 0)
(4.61285e-09 -0.00157752 0)
(7.0906e-09 -0.00157751 0)
(2.48427e-10 -0.00157751 0)
(-6.99742e-09 -0.00157751 0)
(-4.75264e-09 -0.00157752 0)
(4.21241e-09 -0.00157752 0)
(6.46317e-09 -0.00157751 0)
(2.52668e-10 -0.00157751 0)
(-6.35556e-09 -0.00157751 0)
(-4.34194e-09 -0.00157752 0)
(3.83016e-09 -0.00157752 0)
(5.86398e-09 -0.00157751 0)
(2.56352e-10 -0.00157751 0)
(-5.74261e-09 -0.00157751 0)
(-3.9496e-09 -0.00157752 0)
(3.46575e-09 -0.00157752 0)
(5.29251e-09 -0.00157751 0)
(2.59492e-10 -0.00157751 0)
(-5.15807e-09 -0.00157751 0)
(-3.57527e-09 -0.00157752 0)
(3.11882e-09 -0.00157752 0)
(4.74826e-09 -0.00157751 0)
(2.62098e-10 -0.00157751 0)
(-4.60142e-09 -0.00157751 0)
(-3.21861e-09 -0.00157752 0)
(2.78899e-09 -0.00157752 0)
(4.23068e-09 -0.00157751 0)
(2.64182e-10 -0.00157751 0)
(-4.07212e-09 -0.00157751 0)
(-2.87924e-09 -0.00157752 0)
(2.4759e-09 -0.00157752 0)
(3.73924e-09 -0.00157751 0)
(2.65756e-10 -0.00157751 0)
(-3.56964e-09 -0.00157751 0)
(-2.55682e-09 -0.00157752 0)
(2.17916e-09 -0.00157752 0)
(3.27338e-09 -0.00157751 0)
(2.66832e-10 -0.00157751 0)
(-3.09341e-09 -0.00157751 0)
(-2.25097e-09 -0.00157752 0)
(1.89839e-09 -0.00157752 0)
(2.83252e-09 -0.00157751 0)
(2.67424e-10 -0.00157751 0)
(-2.64287e-09 -0.00157751 0)
(-1.96131e-09 -0.00157752 0)
(1.63319e-09 -0.00157752 0)
(2.41609e-09 -0.00157751 0)
(2.67546e-10 -0.00157751 0)
(-2.21742e-09 -0.00157751 0)
(-1.68746e-09 -0.00157752 0)
(1.38317e-09 -0.00157752 0)
(2.0235e-09 -0.00157751 0)
(2.67212e-10 -0.00157751 0)
(-1.81649e-09 -0.00157751 0)
(-1.42903e-09 -0.00157752 0)
(1.14793e-09 -0.00157752 0)
(1.65416e-09 -0.00157751 0)
(2.66437e-10 -0.00157751 0)
(-1.43946e-09 -0.00157751 0)
(-1.18562e-09 -0.00157752 0)
(9.27056e-10 -0.00157752 0)
(1.30745e-09 -0.00157751 0)
(2.65236e-10 -0.00157751 0)
(-1.08571e-09 -0.00157751 0)
(-9.56847e-10 -0.00157752 0)
(7.20154e-10 -0.00157752 0)
(9.82761e-10 -0.00157751 0)
(2.63624e-10 -0.00157751 0)
(-7.54644e-10 -0.00157751 0)
(-7.42304e-10 -0.00157752 0)
(5.26807e-10 -0.00157752 0)
(6.79473e-10 -0.00157751 0)
(2.61619e-10 -0.00157751 0)
(-4.45612e-10 -0.00157751 0)
(-5.41586e-10 -0.00157752 0)
(3.46603e-10 -0.00157752 0)
(3.96956e-10 -0.00157751 0)
(2.59238e-10 -0.00157751 0)
(-1.57982e-10 -0.00157751 0)
(-3.54286e-10 -0.00157752 0)
(1.79127e-10 -0.00157752 0)
(1.34577e-10 -0.00157751 0)
(2.56496e-10 -0.00157751 0)
(1.0889e-10 -0.00157751 0)
(-1.79995e-10 -0.00157752 0)
(2.39641e-11 -0.00157752 0)
(-1.08304e-10 -0.00157751 0)
(2.53411e-10 -0.00157751 0)
(3.55654e-10 -0.00157751 0)
(-1.83002e-11 -0.00157752 0)
(-1.19304e-10 -0.00157752 0)
(-3.32327e-10 -0.00157751 0)
(2.50003e-10 -0.00157751 0)
(5.82966e-10 -0.00157751 0)
(1.31212e-10 -0.00157752 0)
(-2.51096e-10 -0.00157752 0)
(-5.38141e-10 -0.00157751 0)
(2.46287e-10 -0.00157751 0)
(7.91484e-10 -0.00157751 0)
(2.68956e-10 -0.00157752 0)
(-3.71829e-10 -0.00157752 0)
(-7.26393e-10 -0.00157751 0)
(2.42285e-10 -0.00157751 0)
(9.81873e-10 -0.00157751 0)
(3.95349e-10 -0.00157752 0)
(-4.8192e-10 -0.00157752 0)
(-8.97734e-10 -0.00157751 0)
(2.38013e-10 -0.00157751 0)
(1.1548e-09 -0.00157751 0)
(5.10806e-10 -0.00157752 0)
(-5.81788e-10 -0.00157752 0)
(-1.05282e-09 -0.00157751 0)
(2.33491e-10 -0.00157751 0)
(1.31093e-09 -0.00157751 0)
(6.15743e-10 -0.00157752 0)
(-6.71848e-10 -0.00157752 0)
(-1.19229e-09 -0.00157751 0)
(2.28738e-10 -0.00157751 0)
(1.45093e-09 -0.00157751 0)
(7.10577e-10 -0.00157752 0)
(-7.52514e-10 -0.00157752 0)
(-1.31681e-09 -0.00157751 0)
(2.23775e-10 -0.00157751 0)
(1.57547e-09 -0.00157751 0)
(7.95722e-10 -0.00157752 0)
(-8.242e-10 -0.00157752 0)
(-1.42702e-09 -0.00157751 0)
(2.18619e-10 -0.00157751 0)
(1.68523e-09 -0.00157751 0)
(8.71593e-10 -0.00157752 0)
(-8.87315e-10 -0.00157752 0)
(-1.52358e-09 -0.00157751 0)
(2.13292e-10 -0.00157751 0)
(1.78087e-09 -0.00157751 0)
(9.386e-10 -0.00157752 0)
(-9.42266e-10 -0.00157752 0)
(-1.60713e-09 -0.00157751 0)
(2.07812e-10 -0.00157751 0)
(1.86306e-09 -0.00157751 0)
(9.97154e-10 -0.00157752 0)
(-9.89459e-10 -0.00157752 0)
(-1.67832e-09 -0.00157751 0)
(2.02201e-10 -0.00157751 0)
(1.93247e-09 -0.00157751 0)
(1.04766e-09 -0.00157752 0)
(-1.02929e-09 -0.00157752 0)
(-1.73777e-09 -0.00157751 0)
(1.96476e-10 -0.00157751 0)
(1.98975e-09 -0.00157751 0)
(1.09053e-09 -0.00157752 0)
(-1.06217e-09 -0.00157752 0)
(-1.78614e-09 -0.00157751 0)
(1.90659e-10 -0.00157751 0)
(2.03556e-09 -0.00157751 0)
(1.12616e-09 -0.00157752 0)
(-1.08847e-09 -0.00157752 0)
(-1.82405e-09 -0.00157751 0)
(1.84769e-10 -0.00157751 0)
(2.07056e-09 -0.00157751 0)
(1.15495e-09 -0.00157752 0)
(-1.1086e-09 -0.00157752 0)
(-1.85212e-09 -0.00157751 0)
(1.78825e-10 -0.00157751 0)
(2.0954e-09 -0.00157751 0)
(1.1773e-09 -0.00157752 0)
(-1.12293e-09 -0.00157752 0)
(-1.87097e-09 -0.00157751 0)
(1.72848e-10 -0.00157751 0)
(2.11072e-09 -0.00157751 0)
(1.19359e-09 -0.00157752 0)
(-1.13185e-09 -0.00157752 0)
(-1.88122e-09 -0.00157751 0)
(1.66855e-10 -0.00157751 0)
(2.11715e-09 -0.00157751 0)
(1.20421e-09 -0.00157752 0)
(-1.13573e-09 -0.00157752 0)
(-1.88346e-09 -0.00157751 0)
(1.60867e-10 -0.00157751 0)
(2.11534e-09 -0.00157751 0)
(1.20954e-09 -0.00157752 0)
(-1.13493e-09 -0.00157752 0)
(-1.8783e-09 -0.00157751 0)
(1.54901e-10 -0.00157751 0)
(2.10589e-09 -0.00157751 0)
(1.20997e-09 -0.00157752 0)
(-1.12983e-09 -0.00157752 0)
(-1.86633e-09 -0.00157751 0)
(1.48976e-10 -0.00157751 0)
(2.08942e-09 -0.00157751 0)
(1.20586e-09 -0.00157752 0)
(-1.12077e-09 -0.00157752 0)
(-1.84812e-09 -0.00157751 0)
(1.43111e-10 -0.00157751 0)
(2.06655e-09 -0.00157751 0)
(1.19757e-09 -0.00157752 0)
(-1.10811e-09 -0.00157752 0)
(-1.82425e-09 -0.00157751 0)
(1.37322e-10 -0.00157751 0)
(2.03788e-09 -0.00157751 0)
(1.18548e-09 -0.00157752 0)
(-1.09219e-09 -0.00157752 0)
(-1.79528e-09 -0.00157751 0)
(1.31627e-10 -0.00157751 0)
(2.00398e-09 -0.00157751 0)
(1.16994e-09 -0.00157752 0)
(-1.07336e-09 -0.00157752 0)
(-1.76176e-09 -0.00157751 0)
(1.26042e-10 -0.00157751 0)
(1.96544e-09 -0.00157751 0)
(1.15129e-09 -0.00157752 0)
(-1.05195e-09 -0.00157752 0)
(-1.72424e-09 -0.00157751 0)
(1.20583e-10 -0.00157751 0)
(1.92283e-09 -0.00157751 0)
(1.12989e-09 -0.00157752 0)
(-1.02828e-09 -0.00157752 0)
(-1.68324e-09 -0.00157751 0)
(1.15266e-10 -0.00157751 0)
(1.87672e-09 -0.00157751 0)
(1.10607e-09 -0.00157752 0)
(-1.00268e-09 -0.00157752 0)
(-1.63931e-09 -0.00157751 0)
(1.10106e-10 -0.00157751 0)
(1.82765e-09 -0.00157751 0)
(1.08017e-09 -0.00157752 0)
(-9.75456e-10 -0.00157752 0)
(-1.59294e-09 -0.00157751 0)
(1.05116e-10 -0.00157751 0)
(1.77617e-09 -0.00157751 0)
(1.05251e-09 -0.00157752 0)
(-9.46927e-10 -0.00157752 0)
(-1.54465e-09 -0.00157751 0)
(1.00311e-10 -0.00157751 0)
(1.7228e-09 -0.00157751 0)
(1.02342e-09 -0.00157751 0)
(-9.17393e-10 -0.00157752 0)
(-1.49492e-09 -0.00157751 0)
(9.57021e-11 -0.00157751 0)
(1.66807e-09 -0.00157751 0)
(9.93211e-10 -0.00157751 0)
(-8.87153e-10 -0.00157752 0)
(-1.44425e-09 -0.00157751 0)
(9.13022e-11 -0.00157751 0)
(1.61249e-09 -0.00157751 0)
(9.62202e-10 -0.00157751 0)
(-8.56498e-10 -0.00157752 0)
(-1.3931e-09 -0.00157751 0)
(8.7122e-11 -0.00157751 0)
(1.55656e-09 -0.00157751 0)
(9.30699e-10 -0.00157751 0)
(-8.25717e-10 -0.00157751 0)
(-1.34195e-09 -0.00157751 0)
(8.31718e-11 -0.00157751 0)
(1.50076e-09 -0.00157751 0)
(8.99003e-10 -0.00157751 0)
(-7.95094e-10 -0.00157751 0)
(-1.29126e-09 -0.00157751 0)
(7.94608e-11 -0.00157751 0)
(1.44559e-09 -0.00157751 0)
(8.67412e-10 -0.00157751 0)
(-7.64907e-10 -0.00157751 0)
(-1.24146e-09 -0.00157751 0)
(7.59973e-11 -0.00157751 0)
(1.39152e-09 -0.00157751 0)
(8.36222e-10 -0.00157751 0)
(-7.35432e-10 -0.00157751 0)
(-1.19301e-09 -0.00157751 0)
(7.27886e-11 -0.00157751 0)
(1.339e-09 -0.00157751 0)
(8.05723e-10 -0.00157751 0)
(-7.06942e-10 -0.00157751 0)
(-1.14633e-09 -0.00157751 0)
(6.98411e-11 -0.00157751 0)
(1.2885e-09 -0.00157751 0)
(7.76202e-10 -0.00157751 0)
(-6.79705e-10 -0.00157751 0)
(-1.10186e-09 -0.00157751 0)
(6.716e-11 -0.00157751 0)
(1.24047e-09 -0.00157751 0)
(7.47947e-10 -0.00157751 0)
(-6.53991e-10 -0.00157751 0)
(-1.06001e-09 -0.00157751 0)
(6.47494e-11 -0.00157751 0)
(1.19534e-09 -0.00157751 0)
(7.2124e-10 -0.00157751 0)
(-6.30065e-10 -0.00157751 0)
(-1.02121e-09 -0.00157751 0)
(6.26124e-11 -0.00157751 0)
(1.15355e-09 -0.00157751 0)
(6.96365e-10 -0.00157751 0)
(-6.08195e-10 -0.00157751 0)
(-9.85857e-10 -0.00157751 0)
(6.07507e-11 -0.00157751 0)
(1.11554e-09 -0.00157751 0)
(6.73605e-10 -0.00157751 0)
(-5.88648e-10 -0.00157751 0)
(-9.54371e-10 -0.00157751 0)
(5.9165e-11 -0.00157751 0)
(1.08174e-09 -0.00157751 0)
(6.53245e-10 -0.00157751 0)
(-5.71691e-10 -0.00157751 0)
(-9.27157e-10 -0.00157751 0)
(5.78546e-11 -0.00157751 0)
(1.05256e-09 -0.00157751 0)
(6.35569e-10 -0.00157751 0)
(-5.57597e-10 -0.00157751 0)
(-9.04622e-10 -0.00157751 0)
(5.68177e-11 -0.00157751 0)
(1.02843e-09 -0.00157751 0)
(6.20867e-10 -0.00157751 0)
(-5.46654e-10 -0.00157751 0)
(-8.87193e-10 -0.00157751 0)
(5.60508e-11 -0.00157751 0)
(1.00979e-09 -0.00157751 0)
(6.09444e-10 -0.00157751 0)
(-5.39188e-10 -0.00157751 0)
(-8.75355e-10 -0.00157751 0)
(5.555e-11 -0.00157751 0)
(9.97145e-10 -0.00157751 0)
(6.01649e-10 -0.00157751 0)
(-5.35501e-10 -0.00157751 0)
(-8.69541e-10 -0.00157751 0)
(5.53082e-11 -0.00157751 0)
(9.90941e-10 -0.00157751 0)
(5.97801e-10 -0.00157751 0)
)
;

boundaryField
{
    BotWall
    {
        type            fixedValue;
        value           uniform (0 0 0);
    }
    FreeStream
    {
        type            zeroGradient;
    }
    FrontNBack
    {
        type            empty;
    }
    LeftSide
    {
        type            symmetryPlane;
    }
    RightSide
    {
        type            symmetryPlane;
    }
}


// ************************************************************************* //
