/*--------------------------------*- C++ -*----------------------------------*\
| =========                 |                                                 |
| \\      /  F ield         | OpenFOAM: The Open Source CFD Toolbox           |
|  \\    /   O peration     | Version:  2.4.0                                 |
|   \\  /    A nd           | Web:      www.OpenFOAM.org                      |
|    \\/     M anipulation  |                                                 |
\*---------------------------------------------------------------------------*/
FoamFile
{
    version     2.0;
    format      ascii;
    class       volScalarField;
    location    "1.4";
    object      p;
}
// * * * * * * * * * * * * * * * * * * * * * * * * * * * * * * * * * * * * * //

dimensions      [1 -1 -2 0 0 0 0];

internalField   nonuniform List<scalar> 
125
(
-0.0144092
-0.0144092
-0.0144092
-0.0144092
-0.0144092
-0.0150606
-0.0150606
-0.0150606
-0.0150606
-0.0150606
-0.0157194
-0.0157194
-0.0157194
-0.0157194
-0.0157194
-0.0163856
-0.0163856
-0.0163856
-0.0163856
-0.0163856
-0.0170592
-0.0170592
-0.0170592
-0.0170592
-0.0170591
-0.0177403
-0.0177403
-0.0177402
-0.0177402
-0.0177402
-0.0184289
-0.0184289
-0.0184289
-0.0184289
-0.0184289
-0.0191253
-0.0191253
-0.0191253
-0.0191253
-0.0191253
-0.0198295
-0.0198295
-0.0198295
-0.0198295
-0.0198295
-0.0205415
-0.0205415
-0.0205415
-0.0205415
-0.0205415
-0.0212614
-0.0212614
-0.0212614
-0.0212614
-0.0212614
-0.0219894
-0.0219894
-0.0219894
-0.0219894
-0.0219894
-0.0227255
-0.0227255
-0.0227255
-0.0227255
-0.0227255
-0.0234699
-0.0234699
-0.0234699
-0.0234699
-0.0234699
-0.0242225
-0.0242225
-0.0242225
-0.0242225
-0.0242225
-0.0249835
-0.0249835
-0.0249835
-0.0249835
-0.0249835
-0.025753
-0.025753
-0.025753
-0.025753
-0.025753
-0.0265312
-0.0265312
-0.0265312
-0.0265312
-0.0265311
-0.027318
-0.0273179
-0.0273179
-0.0273179
-0.0273179
-0.0281135
-0.0281135
-0.0281135
-0.0281135
-0.0281135
-0.028918
-0.028918
-0.028918
-0.028918
-0.028918
-0.0297314
-0.0297314
-0.0297314
-0.0297314
-0.0297314
-0.0305539
-0.0305539
-0.0305539
-0.0305539
-0.0305539
-0.0313856
-0.0313856
-0.0313856
-0.0313856
-0.0313856
-0.0322265
-0.0322265
-0.0322265
-0.0322265
-0.0322265
)
;

boundaryField
{
    BotWall
    {
        type            calculated;
        value           nonuniform 0();
    }
    FreeStream
    {
        type            calculated;
        value           nonuniform 0();
    }
    FrontNBack
    {
        type            empty;
    }
    LeftSide
    {
        type            symmetryPlane;
    }
    RightSide
    {
        type            symmetryPlane;
    }
    procBoundary1to0
    {
        type            processor;
        value           nonuniform List<scalar> 5(-0.0137649 -0.0137649 -0.0137649 -0.0137649 -0.0137649);
    }
    procBoundary1to2
    {
        type            processor;
        value           nonuniform List<scalar> 5(-0.0330769 -0.0330769 -0.0330769 -0.0330769 -0.0330769);
    }
}


// ************************************************************************* //
