/*--------------------------------*- C++ -*----------------------------------*\
| =========                 |                                                 |
| \\      /  F ield         | OpenFOAM: The Open Source CFD Toolbox           |
|  \\    /   O peration     | Version:  2.4.0                                 |
|   \\  /    A nd           | Web:      www.OpenFOAM.org                      |
|    \\/     M anipulation  |                                                 |
\*---------------------------------------------------------------------------*/
FoamFile
{
    version     2.0;
    format      ascii;
    class       surfaceScalarField;
    location    "1.4";
    object      phi;
}
// * * * * * * * * * * * * * * * * * * * * * * * * * * * * * * * * * * * * * //

dimensions      [0 3 -1 0 0 0 0];

internalField   nonuniform List<scalar> 
220
(
1.62612e-17
-3.6431e-10
1.08613e-17
-3.6431e-10
-1.33363e-17
-3.64311e-10
-2.61534e-17
-3.64311e-10
-3.6431e-10
1.51345e-17
-3.6431e-10
1.00029e-17
-3.6431e-10
-1.30692e-17
-3.64311e-10
-2.53269e-17
-3.64311e-10
-3.6431e-10
1.40203e-17
-3.6431e-10
9.15412e-18
-3.6431e-10
-1.27974e-17
-3.6431e-10
-2.44976e-17
-3.64311e-10
-3.6431e-10
1.29197e-17
-3.6431e-10
8.31575e-18
-3.6431e-10
-1.25214e-17
-3.6431e-10
-2.36663e-17
-3.64311e-10
-3.6431e-10
1.18335e-17
-3.6431e-10
7.48859e-18
-3.6431e-10
-1.22416e-17
-3.6431e-10
-2.28338e-17
-3.6431e-10
-3.6431e-10
1.07624e-17
-3.6431e-10
6.67333e-18
-3.6431e-10
-1.19583e-17
-3.6431e-10
-2.2001e-17
-3.6431e-10
-3.6431e-10
9.70722e-18
-3.6431e-10
5.87061e-18
-3.6431e-10
-1.16719e-17
-3.6431e-10
-2.11688e-17
-3.6431e-10
-3.6431e-10
8.66893e-18
-3.6431e-10
5.08109e-18
-3.6431e-10
-1.13828e-17
-3.6431e-10
-2.03381e-17
-3.6431e-10
-3.6431e-10
7.6484e-18
-3.6431e-10
4.30541e-18
-3.6431e-10
-1.10911e-17
-3.6431e-10
-1.95097e-17
-3.6431e-10
-3.6431e-10
6.64649e-18
-3.6431e-10
3.54423e-18
-3.6431e-10
-1.07974e-17
-3.6431e-10
-1.86846e-17
-3.6431e-10
-3.64311e-10
5.66408e-18
-3.6431e-10
2.79817e-18
-3.6431e-10
-1.05021e-17
-3.6431e-10
-1.78637e-17
-3.6431e-10
-3.64311e-10
4.70203e-18
-3.6431e-10
2.06788e-18
-3.6431e-10
-1.02055e-17
-3.6431e-10
-1.70477e-17
-3.6431e-10
-3.64311e-10
3.76118e-18
-3.6431e-10
1.35397e-18
-3.6431e-10
-9.908e-18
-3.6431e-10
-1.62377e-17
-3.6431e-10
-3.64311e-10
2.84239e-18
-3.6431e-10
6.57057e-19
-3.6431e-10
-9.61011e-18
-3.6431e-10
-1.54344e-17
-3.6431e-10
-3.64311e-10
1.94647e-18
-3.6431e-10
-2.22612e-20
-3.6431e-10
-9.31225e-18
-3.6431e-10
-1.46389e-17
-3.6431e-10
-3.64311e-10
1.07424e-18
-3.6431e-10
-6.83394e-19
-3.6431e-10
-9.01487e-18
-3.6431e-10
-1.3852e-17
-3.6431e-10
-3.64311e-10
2.26496e-19
-3.6431e-10
-1.32577e-18
-3.6431e-10
-8.71844e-18
-3.6431e-10
-1.30746e-17
-3.6431e-10
-3.64311e-10
-5.95985e-19
-3.6431e-10
-1.94882e-18
-3.6431e-10
-8.42343e-18
-3.6431e-10
-1.23077e-17
-3.6431e-10
-3.64311e-10
-1.39245e-18
-3.6431e-10
-2.55201e-18
-3.6431e-10
-8.13034e-18
-3.6431e-10
-1.15523e-17
-3.6431e-10
-3.64311e-10
-2.16216e-18
-3.6431e-10
-3.13481e-18
-3.6431e-10
-7.83968e-18
-3.6431e-10
-1.08093e-17
-3.6431e-10
-3.64311e-10
-2.90441e-18
-3.6431e-10
-3.69671e-18
-3.6431e-10
-7.55195e-18
-3.6431e-10
-1.00797e-17
-3.6431e-10
-3.64311e-10
-3.61853e-18
-3.6431e-10
-4.23723e-18
-3.6431e-10
-7.26764e-18
-3.6431e-10
-9.36485e-18
-3.6431e-10
-3.64311e-10
-4.30387e-18
-3.6431e-10
-4.75592e-18
-3.6431e-10
-6.98688e-18
-3.6431e-10
-8.66544e-18
-3.6431e-10
-3.64311e-10
-4.95981e-18
-3.6431e-10
-5.25239e-18
-3.6431e-10
-6.71063e-18
-3.6431e-10
-7.98261e-18
-3.6431e-10
-3.64311e-10
-5.58579e-18
-5.72626e-18
-6.43878e-18
-7.31735e-18
)
;

boundaryField
{
    BotWall
    {
        type            calculated;
        value           nonuniform 0();
    }
    FreeStream
    {
        type            calculated;
        value           nonuniform 0();
    }
    FrontNBack
    {
        type            empty;
        value           nonuniform 0();
    }
    LeftSide
    {
        type            symmetryPlane;
        value           uniform 0;
    }
    RightSide
    {
        type            symmetryPlane;
        value           uniform 0;
    }
    procBoundary1to0
    {
        type            processor;
        value           nonuniform List<scalar> 5(3.6431e-10 3.6431e-10 3.64311e-10 3.64311e-10 3.6431e-10);
    }
    procBoundary1to2
    {
        type            processor;
        value           nonuniform List<scalar> 5(-3.6431e-10 -3.6431e-10 -3.6431e-10 -3.6431e-10 -3.64311e-10);
    }
}


// ************************************************************************* //
