/*--------------------------------*- C++ -*----------------------------------*\
| =========                 |                                                 |
| \\      /  F ield         | OpenFOAM: The Open Source CFD Toolbox           |
|  \\    /   O peration     | Version:  2.4.0                                 |
|   \\  /    A nd           | Web:      www.OpenFOAM.org                      |
|    \\/     M anipulation  |                                                 |
\*---------------------------------------------------------------------------*/
FoamFile
{
    version     2.0;
    format      ascii;
    class       volScalarField;
    location    "4.5";
    object      H;
}
// * * * * * * * * * * * * * * * * * * * * * * * * * * * * * * * * * * * * * //

dimensions      [0 2 -2 0 0 0 0];

internalField   nonuniform List<scalar> 
125
(
-19.3799
-19.3091
-19.0964
-19.1864
-19.4092
-19.5139
-19.4436
-19.2355
-19.3235
-19.5414
-19.6421
-19.5723
-19.3688
-19.4547
-19.6679
-19.7643
-19.695
-19.496
-19.5799
-19.7884
-19.8801
-19.8114
-19.617
-19.6988
-19.9027
-19.9894
-19.9213
-19.7313
-19.8111
-20.0103
-20.0918
-20.0244
-19.8388
-19.9166
-20.1112
-20.187
-20.1203
-19.939
-20.0149
-20.2049
-20.2748
-20.2089
-20.0319
-20.1057
-20.2912
-20.3549
-20.2897
-20.117
-20.1889
-20.3699
-20.4269
-20.3626
-20.1941
-20.264
-20.4405
-20.4907
-20.4273
-20.2628
-20.3309
-20.5029
-20.5459
-20.4833
-20.323
-20.3891
-20.5568
-20.5922
-20.5305
-20.3742
-20.4385
-20.6018
-20.6293
-20.5686
-20.4163
-20.4787
-20.6376
-20.6569
-20.5972
-20.4488
-20.5094
-20.6641
-20.6747
-20.6161
-20.4716
-20.5304
-20.6808
-20.6826
-20.625
-20.4844
-20.5413
-20.6875
-20.68
-20.6235
-20.4867
-20.5419
-20.6839
-20.6669
-20.6115
-20.4784
-20.5318
-20.6697
-20.6429
-20.5886
-20.4592
-20.5109
-20.6447
-20.6077
-20.5546
-20.4288
-20.4787
-20.6085
-20.561
-20.5091
-20.3869
-20.4351
-20.5609
-20.5026
-20.4519
-20.3333
-20.3798
-20.5016
-20.4323
-20.3827
-20.2677
-20.3125
-20.4305
)
;

boundaryField
{
    BotWall
    {
        type            zeroGradient;
    }
    FreeStream
    {
        type            zeroGradient;
    }
    FrontNBack
    {
        type            empty;
    }
    LeftSide
    {
        type            symmetryPlane;
    }
    RightSide
    {
        type            symmetryPlane;
    }
    procBoundary1to0
    {
        type            processor;
        value           nonuniform List<scalar> 5(-19.239 -19.1677 -18.9504 -19.0425 -19.27);
    }
    procBoundary1to2
    {
        type            processor;
        value           nonuniform List<scalar> 5(-20.3479 -20.2997 -20.1881 -20.2313 -20.3453);
    }
}


// ************************************************************************* //
