/*--------------------------------*- C++ -*----------------------------------*\
| =========                 |                                                 |
| \\      /  F ield         | OpenFOAM: The Open Source CFD Toolbox           |
|  \\    /   O peration     | Version:  2.4.0                                 |
|   \\  /    A nd           | Web:      www.OpenFOAM.org                      |
|    \\/     M anipulation  |                                                 |
\*---------------------------------------------------------------------------*/
FoamFile
{
    version     2.0;
    format      ascii;
    class       volScalarField;
    location    "4.5";
    object      p;
}
// * * * * * * * * * * * * * * * * * * * * * * * * * * * * * * * * * * * * * //

dimensions      [1 -1 -2 0 0 0 0];

internalField   nonuniform List<scalar> 
125
(
-0.0131476
-0.0131484
-0.0131508
-0.0131498
-0.0131472
-0.0146169
-0.0146169
-0.0146173
-0.0146171
-0.0146169
-0.0156954
-0.0156953
-0.0156951
-0.0156952
-0.0156954
-0.0164185
-0.0164185
-0.0164184
-0.0164184
-0.0164185
-0.0170627
-0.0170626
-0.0170626
-0.0170626
-0.0170627
-0.0177278
-0.0177278
-0.0177277
-0.0177277
-0.0177278
-0.0184144
-0.0184144
-0.0184144
-0.0184144
-0.0184145
-0.019112
-0.019112
-0.019112
-0.019112
-0.019112
-0.0198168
-0.0198168
-0.0198168
-0.0198168
-0.0198168
-0.0205289
-0.0205289
-0.0205289
-0.0205289
-0.0205289
-0.0212489
-0.0212488
-0.0212488
-0.0212488
-0.0212489
-0.0219768
-0.0219768
-0.0219768
-0.0219768
-0.0219769
-0.022713
-0.022713
-0.0227129
-0.0227129
-0.022713
-0.0234573
-0.0234573
-0.0234573
-0.0234573
-0.0234573
-0.02421
-0.02421
-0.0242099
-0.02421
-0.02421
-0.024971
-0.024971
-0.024971
-0.024971
-0.024971
-0.0257406
-0.0257406
-0.0257405
-0.0257406
-0.0257406
-0.0265187
-0.0265187
-0.0265187
-0.0265187
-0.0265187
-0.0273055
-0.0273055
-0.0273055
-0.0273055
-0.0273055
-0.0281011
-0.0281011
-0.0281011
-0.0281011
-0.0281011
-0.0289056
-0.0289056
-0.0289056
-0.0289056
-0.0289056
-0.0297191
-0.029719
-0.029719
-0.029719
-0.0297191
-0.0305416
-0.0305416
-0.0305415
-0.0305416
-0.0305416
-0.0313733
-0.0313733
-0.0313733
-0.0313733
-0.0313733
-0.0322143
-0.0322143
-0.0322142
-0.0322143
-0.0322143
)
;

boundaryField
{
    BotWall
    {
        type            calculated;
        value           nonuniform 0();
    }
    FreeStream
    {
        type            calculated;
        value           nonuniform 0();
    }
    FrontNBack
    {
        type            empty;
    }
    LeftSide
    {
        type            symmetryPlane;
    }
    RightSide
    {
        type            symmetryPlane;
    }
    procBoundary1to0
    {
        type            processor;
        value           nonuniform List<scalar> 5(-0.0177315 -0.0177304 -0.017727 -0.0177285 -0.0177319);
    }
    procBoundary1to2
    {
        type            processor;
        value           nonuniform List<scalar> 5(-0.0330647 -0.0330646 -0.0330646 -0.0330646 -0.0330647);
    }
}


// ************************************************************************* //
