/*--------------------------------*- C++ -*----------------------------------*\
| =========                 |                                                 |
| \\      /  F ield         | OpenFOAM: The Open Source CFD Toolbox           |
|  \\    /   O peration     | Version:  2.4.0                                 |
|   \\  /    A nd           | Web:      www.OpenFOAM.org                      |
|    \\/     M anipulation  |                                                 |
\*---------------------------------------------------------------------------*/
FoamFile
{
    version     2.0;
    format      ascii;
    class       surfaceScalarField;
    location    "4.5";
    object      phi;
}
// * * * * * * * * * * * * * * * * * * * * * * * * * * * * * * * * * * * * * //

dimensions      [0 3 -1 0 0 0 0];

internalField   nonuniform List<scalar> 
220
(
1.92333e-15
-1.97521e-10
2.31148e-15
-1.97529e-10
-9.57979e-16
-1.97552e-10
-2.77326e-15
-1.97542e-10
-1.97518e-10
1.8572e-15
-1.97523e-10
2.19777e-15
-1.97529e-10
-9.06985e-16
-1.97549e-10
-2.63455e-15
-1.9754e-10
-1.97521e-10
1.79081e-15
-1.97525e-10
2.10795e-15
-1.97529e-10
-8.65143e-16
-1.97546e-10
-2.51938e-15
-1.97538e-10
-1.97523e-10
1.72684e-15
-1.97527e-10
2.03149e-15
-1.9753e-10
-8.2893e-16
-1.97543e-10
-2.41778e-15
-1.97537e-10
-1.97526e-10
1.66395e-15
-1.97528e-10
1.9576e-15
-1.9753e-10
-7.94008e-16
-1.97541e-10
-2.319e-15
-1.97535e-10
-1.97528e-10
1.60121e-15
-1.9753e-10
1.88347e-15
-1.9753e-10
-7.59068e-16
-1.97538e-10
-2.22032e-15
-1.97534e-10
-1.9753e-10
1.53872e-15
-1.97532e-10
1.80949e-15
-1.9753e-10
-7.24227e-16
-1.97535e-10
-2.12234e-15
-1.97532e-10
-1.97532e-10
1.47661e-15
-1.97533e-10
1.73619e-15
-1.97531e-10
-6.89715e-16
-1.97533e-10
-2.0256e-15
-1.97531e-10
-1.97534e-10
1.41496e-15
-1.97534e-10
1.66374e-15
-1.97531e-10
-6.55621e-16
-1.97531e-10
-1.93024e-15
-1.9753e-10
-1.97536e-10
1.35379e-15
-1.97536e-10
1.59216e-15
-1.97531e-10
-6.21968e-16
-1.97528e-10
-1.83628e-15
-1.97529e-10
-1.97538e-10
1.29316e-15
-1.97537e-10
1.52147e-15
-1.97531e-10
-5.88768e-16
-1.97526e-10
-1.74376e-15
-1.97527e-10
-1.9754e-10
1.2331e-15
-1.97538e-10
1.45172e-15
-1.97532e-10
-5.56041e-16
-1.97524e-10
-1.65271e-15
-1.97526e-10
-1.97542e-10
1.17367e-15
-1.97539e-10
1.38295e-15
-1.97532e-10
-5.23811e-16
-1.97522e-10
-1.5632e-15
-1.97525e-10
-1.97543e-10
1.11491e-15
-1.97541e-10
1.31519e-15
-1.97532e-10
-4.92101e-16
-1.97521e-10
-1.47528e-15
-1.97524e-10
-1.97545e-10
1.05688e-15
-1.97542e-10
1.2485e-15
-1.97532e-10
-4.60936e-16
-1.97519e-10
-1.38899e-15
-1.97523e-10
-1.97546e-10
9.99617e-16
-1.97543e-10
1.18291e-15
-1.97532e-10
-4.30336e-16
-1.97517e-10
-1.30439e-15
-1.97522e-10
-1.97547e-10
9.43177e-16
-1.97544e-10
1.11847e-15
-1.97533e-10
-4.00325e-16
-1.97516e-10
-1.22153e-15
-1.97522e-10
-1.97549e-10
8.87605e-16
-1.97544e-10
1.05521e-15
-1.97533e-10
-3.70924e-16
-1.97514e-10
-1.14044e-15
-1.97521e-10
-1.9755e-10
8.32949e-16
-1.97545e-10
9.93173e-16
-1.97533e-10
-3.42154e-16
-1.97513e-10
-1.06118e-15
-1.9752e-10
-1.97551e-10
7.79255e-16
-1.97546e-10
9.32402e-16
-1.97533e-10
-3.14037e-16
-1.97512e-10
-9.83783e-16
-1.9752e-10
-1.97552e-10
7.26571e-16
-1.97547e-10
8.72932e-16
-1.97533e-10
-2.86593e-16
-1.97511e-10
-9.08301e-16
-1.97519e-10
-1.97553e-10
6.74943e-16
-1.97547e-10
8.14802e-16
-1.97533e-10
-2.59841e-16
-1.9751e-10
-8.34769e-16
-1.97518e-10
-1.97553e-10
6.24416e-16
-1.97548e-10
7.58047e-16
-1.97533e-10
-2.33802e-16
-1.97509e-10
-7.63229e-16
-1.97518e-10
-1.97554e-10
5.75034e-16
-1.97549e-10
7.02704e-16
-1.97534e-10
-2.08493e-16
-1.97508e-10
-6.93714e-16
-1.97517e-10
-1.97555e-10
5.26842e-16
6.48805e-16
-1.83932e-16
-6.26265e-16
)
;

boundaryField
{
    BotWall
    {
        type            calculated;
        value           nonuniform 0();
    }
    FreeStream
    {
        type            calculated;
        value           nonuniform 0();
    }
    FrontNBack
    {
        type            empty;
        value           nonuniform 0();
    }
    LeftSide
    {
        type            symmetryPlane;
        value           uniform 0;
    }
    RightSide
    {
        type            symmetryPlane;
        value           uniform 0;
    }
    procBoundary1to0
    {
        type            processor;
        value           nonuniform List<scalar> 5(1.97519e-10 1.97528e-10 1.97556e-10 1.97544e-10 1.97515e-10);
    }
    procBoundary1to2
    {
        type            processor;
        value           nonuniform List<scalar> 5(-1.97549e-10 -1.97534e-10 -1.97507e-10 -1.97517e-10 -1.97556e-10);
    }
}


// ************************************************************************* //
