/*--------------------------------*- C++ -*----------------------------------*\
| =========                 |                                                 |
| \\      /  F ield         | OpenFOAM: The Open Source CFD Toolbox           |
|  \\    /   O peration     | Version:  2.4.0                                 |
|   \\  /    A nd           | Web:      www.OpenFOAM.org                      |
|    \\/     M anipulation  |                                                 |
\*---------------------------------------------------------------------------*/
FoamFile
{
    version     2.0;
    format      ascii;
    class       volVectorField;
    location    "4.5";
    object      U;
}
// * * * * * * * * * * * * * * * * * * * * * * * * * * * * * * * * * * * * * //

dimensions      [0 1 -1 0 0 0 0];

internalField   nonuniform List<vector> 
125
(
(1.95297e-07 -0.00172927 0)
(8.69686e-07 -0.00172903 0)
(3.86769e-07 -0.00172828 0)
(-9.08082e-07 -0.0017286 0)
(-6.06774e-07 -0.00172936 0)
(1.86504e-07 -0.00101727 0)
(8.28847e-07 -0.00101739 0)
(3.68657e-07 -0.00101764 0)
(-8.6272e-07 -0.00101753 0)
(-5.74735e-07 -0.00101724 0)
(1.78151e-07 -0.000946888 0)
(7.8928e-07 -0.000946945 0)
(3.51015e-07 -0.000947133 0)
(-8.18833e-07 -0.00094705 0)
(-5.43913e-07 -0.000946865 0)
(1.70353e-07 -0.000965929 0)
(7.52039e-07 -0.000965947 0)
(3.34381e-07 -0.000966043 0)
(-7.77604e-07 -0.000965999 0)
(-5.15085e-07 -0.00096592 0)
(1.62768e-07 -0.000985781 0)
(7.16272e-07 -0.000985787 0)
(3.18463e-07 -0.000985843 0)
(-7.38106e-07 -0.000985815 0)
(-4.87534e-07 -0.000985779 0)
(1.55239e-07 -0.000989486 0)
(6.8139e-07 -0.000989489 0)
(3.03014e-07 -0.000989531 0)
(-6.99687e-07 -0.000989509 0)
(-4.60789e-07 -0.000989487 0)
(1.47785e-07 -0.00098852 0)
(6.4734e-07 -0.000988518 0)
(2.87993e-07 -0.00098855 0)
(-6.62282e-07 -0.000988532 0)
(-4.34811e-07 -0.000988524 0)
(1.40436e-07 -0.000987738 0)
(6.14173e-07 -0.000987729 0)
(2.7341e-07 -0.000987748 0)
(-6.25943e-07 -0.000987735 0)
(-4.09636e-07 -0.000987744 0)
(1.33206e-07 -0.000987592 0)
(5.81912e-07 -0.000987577 0)
(2.59271e-07 -0.000987582 0)
(-5.90688e-07 -0.000987575 0)
(-3.85275e-07 -0.0009876 0)
(1.26098e-07 -0.00098764 0)
(5.50554e-07 -0.00098762 0)
(2.45572e-07 -0.000987612 0)
(-5.56513e-07 -0.00098761 0)
(-3.61719e-07 -0.000987651 0)
(1.19116e-07 -0.000987679 0)
(5.20096e-07 -0.000987653 0)
(2.32308e-07 -0.000987634 0)
(-5.23408e-07 -0.000987637 0)
(-3.38958e-07 -0.000987693 0)
(1.12265e-07 -0.000987692 0)
(4.90532e-07 -0.000987661 0)
(2.19474e-07 -0.00098763 0)
(-4.91363e-07 -0.000987637 0)
(-3.16983e-07 -0.000987707 0)
(1.05551e-07 -0.000987696 0)
(4.61861e-07 -0.00098766 0)
(2.07064e-07 -0.000987618 0)
(-4.60372e-07 -0.00098763 0)
(-2.95784e-07 -0.000987714 0)
(9.89784e-08 -0.0009877 0)
(4.34079e-07 -0.00098766 0)
(1.95074e-07 -0.000987608 0)
(-4.30427e-07 -0.000987624 0)
(-2.75351e-07 -0.00098772 0)
(9.2553e-08 -0.000987705 0)
(4.07181e-07 -0.00098766 0)
(1.83497e-07 -0.000987599 0)
(-4.01517e-07 -0.000987619 0)
(-2.55676e-07 -0.000987727 0)
(8.62789e-08 -0.000987711 0)
(3.81163e-07 -0.000987661 0)
(1.72329e-07 -0.00098759 0)
(-3.73634e-07 -0.000987615 0)
(-2.36749e-07 -0.000987734 0)
(8.01608e-08 -0.000987716 0)
(3.56021e-07 -0.000987662 0)
(1.61563e-07 -0.000987583 0)
(-3.46769e-07 -0.00098761 0)
(-2.1856e-07 -0.00098774 0)
(7.42027e-08 -0.00098772 0)
(3.31749e-07 -0.000987663 0)
(1.51195e-07 -0.000987575 0)
(-3.2091e-07 -0.000987606 0)
(-2.01097e-07 -0.000987746 0)
(6.84088e-08 -0.000987724 0)
(3.08341e-07 -0.000987664 0)
(1.41217e-07 -0.000987568 0)
(-2.96048e-07 -0.000987603 0)
(-1.84352e-07 -0.000987751 0)
(6.27827e-08 -0.000987728 0)
(2.8579e-07 -0.000987665 0)
(1.31625e-07 -0.000987562 0)
(-2.7217e-07 -0.000987599 0)
(-1.68312e-07 -0.000987756 0)
(5.73279e-08 -0.000987732 0)
(2.64091e-07 -0.000987665 0)
(1.22412e-07 -0.000987556 0)
(-2.49265e-07 -0.000987596 0)
(-1.52967e-07 -0.000987761 0)
(5.20478e-08 -0.000987736 0)
(2.43237e-07 -0.000987666 0)
(1.13572e-07 -0.00098755 0)
(-2.27322e-07 -0.000987593 0)
(-1.38305e-07 -0.000987765 0)
(4.69452e-08 -0.000987739 0)
(2.23218e-07 -0.000987667 0)
(1.05099e-07 -0.000987545 0)
(-2.06327e-07 -0.00098759 0)
(-1.24316e-07 -0.000987769 0)
(4.20229e-08 -0.000987742 0)
(2.04029e-07 -0.000987668 0)
(9.69869e-08 -0.00098754 0)
(-1.86267e-07 -0.000987588 0)
(-1.10987e-07 -0.000987773 0)
(3.72833e-08 -0.000987745 0)
(1.85659e-07 -0.000987668 0)
(8.92288e-08 -0.000987536 0)
(-1.67129e-07 -0.000987585 0)
(-9.83072e-08 -0.000987776 0)
)
;

boundaryField
{
    BotWall
    {
        type            fixedValue;
        value           nonuniform 0();
    }
    FreeStream
    {
        type            zeroGradient;
    }
    FrontNBack
    {
        type            empty;
    }
    LeftSide
    {
        type            symmetryPlane;
    }
    RightSide
    {
        type            symmetryPlane;
    }
    procBoundary1to0
    {
        type            processor;
        value           nonuniform List<vector> 5((1.97536e-07 -0.000749791 0) (8.8658e-07 -0.000749612 0) (3.94932e-07 -0.000749144 0) (-9.27345e-07 -0.000749339 0) (-6.20264e-07 -0.000749867 0));
    }
    procBoundary1to2
    {
        type            processor;
        value           nonuniform List<vector> 5((3.27285e-08 -0.000987747 0) (1.68099e-07 -0.000987669 0) (8.18184e-08 -0.000987532 0) (-1.48899e-07 -0.000987583 0) (-8.62631e-08 -0.000987779 0));
    }
}


// ************************************************************************* //
