/*--------------------------------*- C++ -*----------------------------------*\
| =========                 |                                                 |
| \\      /  F ield         | OpenFOAM: The Open Source CFD Toolbox           |
|  \\    /   O peration     | Version:  2.4.0                                 |
|   \\  /    A nd           | Web:      www.OpenFOAM.org                      |
|    \\/     M anipulation  |                                                 |
\*---------------------------------------------------------------------------*/
FoamFile
{
    version     2.0;
    format      ascii;
    class       volScalarField;
    location    "1.8";
    object      alpha1;
}
// * * * * * * * * * * * * * * * * * * * * * * * * * * * * * * * * * * * * * //

dimensions      [0 0 0 0 0 0 0];

internalField   nonuniform List<scalar> 
8000
(
1
1
1
1
1
1
1
1
1
1
1
0.999999
0.999998
0.999995
0.999993
0.999993
0.999995
0.999997
0.999997
0.999996
0.999992
0.999994
0.999996
0.999994
0.999992
0.999986
0.999959
0.999868
0.999839
0.999833
0.999641
0.996615
0.996766
0.998291
1.00054
0.981204
0.959038
0.553685
0.109352
0.057716
0.0367149
0.017202
0.00649243
0.00290607
0.00145496
0.000683552
0.000319017
0.000169757
0.000107293
8.19181e-05
1
1
1
1
1
1
1
1
1
1
1
1
1
1
1
1
0.999999
0.999999
0.999999
0.999999
0.999999
0.999999
0.999999
0.999999
0.999999
0.999999
0.999999
0.999999
0.999999
0.999999
1
1
1
1
1
1
1
0.999981
0.996882
0.973136
0.8624
0.528001
0.154533
0.0573155
0.0285817
0.0122285
0.00467553
0.0022528
0.00135055
0.000876855
1
1
1
1
1
1
1
1
1
1
1
1
1
1
1
0.999999
0.999999
0.999999
0.999999
0.999999
0.999999
0.999999
0.999998
0.999998
0.999998
0.999999
0.999999
0.999999
0.999999
0.999999
0.999999
0.999999
0.999999
1
1
1
1
1
1
1
1
0.999993
0.981122
0.963244
0.796697
0.309349
0.112345
0.0620687
0.029552
0.0147294
1
1
1
1
1
1
1
1
1
1
1
1
1
1
0.999999
0.999999
0.999999
0.999999
0.999999
0.999998
0.999998
0.999998
0.999998
0.999998
0.999998
0.999998
0.999999
0.999999
0.999999
0.999999
0.999999
0.999999
0.999999
1
1
1
1
1
1
1
1
1
1
1
1
0.999992
0.957497
0.737463
0.423577
0.249199
1
1
1
1
1
1
1
1
1
1
1
1
1
1
0.999999
0.999999
0.999999
0.999999
0.999998
0.999998
0.999998
0.999998
0.999998
0.999998
0.999998
0.999998
0.999998
0.999999
0.999999
0.999999
0.999999
0.999999
0.999999
0.999999
0.999999
0.999999
0.999999
0.999999
0.999999
0.999998
0.999998
0.999997
0.999997
0.999996
0.999996
0.999996
1
0.999999
0.986425
0.875953
1
1
1
1
1
1
1
1
1
1
1
1
1
1
0.999999
0.999999
0.999999
0.999999
0.999999
0.999998
0.999998
0.999998
0.999998
0.999998
0.999998
0.999998
0.999998
0.999999
0.999999
0.999999
0.999999
0.999999
0.999999
0.999999
0.999999
0.999999
0.999999
0.999998
0.999998
0.999997
0.999996
0.999994
0.999992
0.999988
0.999982
0.999974
0.999989
0.999992
1
1
1
1
1
1
1
1
1
1
1
1
1
1
1
1
1
0.999999
0.999999
0.999999
0.999999
0.999999
0.999999
0.999998
0.999998
0.999998
0.999998
0.999998
0.999999
0.999999
0.999999
0.999999
0.999999
0.999999
0.999999
0.999999
0.999999
0.999999
0.999999
0.999998
0.999997
0.999996
0.999995
0.999993
0.99999
0.999985
0.999972
0.999949
0.999957
0.999975
0.999992
0.999998
1
1
1
1
1
1
1
1
1
1
1
1
1
1
1
1
0.999999
0.999999
0.999999
0.999999
0.999999
0.999999
0.999999
0.999999
0.999999
0.999999
0.999999
0.999999
0.999999
0.999999
0.999999
0.999999
0.999999
0.999999
0.999999
0.999999
0.999999
0.999999
0.999998
0.999997
0.999996
0.999994
0.999992
0.999989
0.999976
0.999948
0.999948
0.999968
0.999991
0.999997
1
1
1
1
1
1
1
1
1
1
1
1
1
1
1
1
1
1
1
0.999999
0.999999
0.999999
0.999999
0.999999
0.999999
0.999999
0.999999
0.999999
0.999999
0.999999
0.999999
0.999999
0.999999
0.999999
0.999999
0.999999
0.999999
0.999999
0.999999
0.999999
0.999998
0.999997
0.999995
0.999992
0.999988
0.999985
0.999973
0.999982
0.999991
0.999902
1
1
1
1
1
1
1
1
1
1
1
1
1
1
1
1
1
1
1
1
1
1
1
1
0.999999
0.999999
0.999999
0.999999
0.999999
0.999999
0.999999
0.999999
0.999999
0.999999
0.999999
0.999999
0.999999
0.999999
0.999999
0.999999
0.999999
0.999998
0.999997
0.999995
0.999993
0.999992
0.99999
0.999837
0.929392
0.715893
1
1
1
1
1
1
1
1
1
1
1
1
1
1
1
1
1
1
1
1
1
1
1
1
1
1
1
1
1
1
1
1
1
1
1
1
0.999999
0.999999
0.999999
0.999999
0.999998
0.999998
0.999997
0.999997
0.999993
0.999796
0.917273
0.61827
0.311426
0.125742
1
1
1
1
1
1
1
1
1
1
1
1
1
1
1
1
1
1
1
1
1
1
1
1
1
1
1
1
1
1
1
1
1
1
1
1
1
0.999999
0.999999
0.999999
0.999998
0.999997
0.999997
0.999832
0.929089
0.561811
0.269615
0.0470853
0.00523664
0.00346816
1
1
1
1
1
1
1
1
1
1
1
1
1
1
1
1
1
1
1
1
1
1
1
1
1
1
1
1
1
1
1
1
1
1
1
1
1
0.999999
0.999999
0.999998
0.999997
0.999951
0.987351
0.59714
0.203427
0.0192529
0.00311233
0.0013419
8.03961e-05
4.37541e-05
1
1
1
1
1
1
1
1
1
1
1
1
1
1
1
1
1
1
1
1
1
1
1
1
1
1
1
1
1
1
1
1
1
1
1
1
1
0.999999
0.999998
0.999996
0.999758
0.785012
0.215549
0.0145372
0.00129559
0.000393418
6.49687e-05
1.90647e-05
3.87399e-06
1.40069e-06
1
1
1
1
1
1
1
1
1
1
1
1
1
1
1
1
1
1
1
1
1
1
1
1
1
1
1
1
1
1
1
1
1
1
1
1
0.999999
0.999998
0.999997
0.999759
0.528102
0.0224901
0.000685001
0.000166483
5.94844e-05
5.10882e-05
3.99738e-05
2.68544e-05
1.78121e-05
1.23941e-05
1
1
1
1
1
1
1
1
1
1
1
1
1
1
1
1
1
1
1
1
1
1
1
1
1
1
1
1
1
1
1
1
1
1
1
1
0.999999
0.999998
0.999983
0.883524
0.13861
0.000798627
8.41531e-05
1.52938e-05
8.78868e-06
3.64314e-06
1.8688e-06
1.15854e-06
8.36253e-07
6.43934e-07
1
1
1
1
1
1
1
1
1
1
1
1
1
1
1
1
1
1
1
1
1
1
1
1
1
1
1
1
1
1
1
1
1
1
1
1
0.999999
0.999999
0.999997
0.999666
0.482638
0.0213046
0.0114048
0.00084331
0.000363915
3.13819e-05
7.16946e-06
2.47142e-07
1.48538e-07
8.62996e-08
1
1
1
1
1
1
1
1
1
1
1
1
1
1
1
1
1
1
1
1
1
1
1
1
1
1
1
1
1
1
1
1
1
1
1
0.999999
0.999999
0.999999
0.999999
0.999997
0.999963
0.985094
0.331356
0.0341325
0.0248872
0.00226691
0.00144536
6.82742e-05
3.47567e-05
8.62011e-08
1
1
1
1
1
1
1
1
1
1
1
1
1
1
1
1
1
1
1
1
1
1
1
1
1
1
1
1
1
1
1
1
1
1
0.999999
0.999999
0.999999
0.999999
0.999999
0.999998
0.999997
0.999997
0.999937
0.963588
0.528728
0.07326
0.0784982
0.0108632
0.00717408
8.50551e-08
1
1
1
1
1
1
1
1
1
1
1
1
1
1
1
1
1
1
1
1
1
1
1
1
1
1
1
1
1
1
1
1
1
1
1
1
0.999999
0.999999
0.999999
0.999999
0.999999
0.999999
0.999999
1
0.999975
0.980332
0.898747
0.935725
0.492992
0.000922047
6.49516e-05
4.59253e-05
2.90295e-05
1.69732e-05
9.09283e-06
4.14862e-06
1.03281e-06
8.1361e-07
6.78837e-07
6.05179e-07
5.79706e-07
5.65141e-07
5.51081e-07
5.04847e-07
4.79944e-07
3.09108e-07
8.63428e-07
4.58538e-07
4.82339e-07
4.90817e-07
5.07877e-07
4.95517e-07
4.84122e-07
6.68042e-07
8.58944e-07
7.55071e-07
4.79727e-07
4.51037e-07
4.3866e-07
4.17017e-07
3.93228e-07
3.71187e-07
3.52349e-07
3.36812e-07
3.2397e-07
3.13017e-07
3.03213e-07
2.93989e-07
2.84976e-07
2.75981e-07
2.66966e-07
2.57993e-07
2.49209e-07
2.40823e-07
2.33048e-07
2.26076e-07
2.2008e-07
2.1518e-07
2.11451e-07
2.08817e-07
0.000578613
0.000375271
0.000234146
0.000142416
8.5677e-05
5.08362e-05
2.9658e-05
1.70581e-05
9.4522e-06
4.62349e-06
1.24548e-06
1.09101e-06
5.58331e-07
1.81709e-06
9.01798e-07
8.59731e-07
8.68888e-07
8.22805e-07
7.74341e-07
7.29845e-07
6.94967e-07
6.7011e-07
6.60642e-07
6.67705e-07
6.54934e-07
6.06357e-07
5.55597e-07
5.20569e-07
4.93141e-07
4.70217e-07
4.5052e-07
4.33371e-07
4.18271e-07
4.04764e-07
3.84783e-07
3.70753e-07
3.57352e-07
3.45548e-07
3.35536e-07
3.26766e-07
3.18697e-07
3.11028e-07
3.03659e-07
2.96607e-07
2.89957e-07
2.83812e-07
2.78266e-07
2.73383e-07
2.69184e-07
2.65644e-07
0.00754234
0.00381535
0.00196369
0.00104642
0.000547968
0.000268658
0.00012705
6.07752e-05
2.94725e-05
1.32335e-05
3.26011e-06
2.62822e-06
2.13383e-06
1.85991e-06
1.57618e-06
1.36063e-06
1.19552e-06
1.06508e-06
9.62899e-07
8.83248e-07
8.2127e-07
7.72595e-07
7.33449e-07
6.99819e-07
6.68428e-07
6.39124e-07
6.13328e-07
5.90852e-07
5.70905e-07
5.52903e-07
5.36462e-07
5.21316e-07
5.07096e-07
4.12923e-07
7.14695e-07
5.29836e-07
4.9993e-07
4.61525e-07
4.30818e-07
4.13412e-07
4.04644e-07
3.99832e-07
3.96303e-07
3.9283e-07
3.89008e-07
3.8485e-07
3.80531e-07
3.76237e-07
3.72109e-07
3.68224e-07
0.145469
0.0790743
0.0394701
0.0175852
0.00671417
0.00234737
0.00084931
0.000344222
0.000153978
6.98886e-05
2.90665e-05
9.95499e-06
2.14053e-06
2.14084e-06
2.24925e-06
2.28101e-06
2.21225e-06
2.07849e-06
1.91632e-06
1.75187e-06
1.59687e-06
1.45466e-06
1.33784e-06
1.23593e-06
1.12683e-06
1.0547e-06
9.91963e-07
9.38169e-07
8.92594e-07
8.54201e-07
8.21828e-07
7.94339e-07
7.53126e-07
7.26842e-07
7.34698e-07
7.22283e-07
7.03811e-07
6.84335e-07
6.67407e-07
6.53384e-07
6.4153e-07
6.31116e-07
6.21663e-07
6.12901e-07
6.01198e-07
5.73053e-07
5.68376e-07
5.65191e-07
5.49549e-07
5.39132e-07
0.708334
0.529425
0.361073
0.214372
0.100531
0.0359545
0.0105348
0.00278491
0.000715224
0.000182484
5.1521e-05
1.41327e-05
2.763e-06
3.27191e-06
3.61159e-06
3.75484e-06
3.58134e-06
3.33782e-06
3.09639e-06
3.01454e-06
2.20459e-06
3.71202e-06
2.67683e-06
1.31045e-06
4.79521e-06
2.40497e-06
2.28693e-06
2.1709e-06
2.05954e-06
1.95312e-06
1.85059e-06
1.05088e-06
2.65685e-06
1.56061e-06
1.50097e-06
1.44917e-06
1.40148e-06
1.35968e-06
1.32457e-06
1.29111e-06
1.25456e-06
1.21787e-06
1.18575e-06
9.51702e-07
8.73825e-07
3.18996e-06
1.57334e-06
5.98282e-07
2.66204e-06
1.85867e-06
0.999994
0.948018
0.860943
0.695233
0.460181
0.193154
0.04642
0.00772572
0.00109262
0.000162544
2.16055e-05
6.57557e-06
4.46125e-06
9.35008e-06
4.52384e-06
4.63891e-06
4.4163e-06
4.08311e-06
3.46425e-06
4.69479e-06
4.01269e-06
3.70639e-06
3.50237e-06
2.40206e-06
4.80225e-06
3.19431e-06
3.08058e-06
2.98045e-06
2.88837e-06
2.8023e-06
2.72127e-06
2.63938e-06
2.64968e-06
2.499e-06
2.36824e-06
2.26846e-06
2.50232e-06
2.50109e-06
1.9706e-06
1.6795e-06
2.46638e-06
2.49976e-06
1.70419e-06
1.39383e-06
1.54319e-06
3.19314e-06
2.07465e-06
8.02334e-07
2.66582e-06
2.05302e-06
0.999999
1
0.994732
0.92159
0.751735
0.353181
0.0776229
0.0104037
0.000951563
6.0001e-05
4.72877e-06
4.722e-06
1.00237e-05
5.59338e-06
4.91727e-06
5.51326e-06
4.06263e-06
3.64452e-06
4.66126e-06
3.83956e-06
3.46601e-06
3.18775e-06
3.00273e-06
2.87486e-06
2.58358e-06
2.57798e-06
2.53923e-06
2.4827e-06
2.4192e-06
2.35383e-06
2.28896e-06
2.22565e-06
2.16154e-06
2.10388e-06
2.04785e-06
1.99294e-06
1.93569e-06
1.88386e-06
1.83981e-06
1.79568e-06
1.75048e-06
8.79577e-07
3.24658e-06
1.57708e-06
1.37749e-06
1.16311e-06
5.74006e-07
2.63698e-06
1.41446e-06
1.0308e-06
0.999994
0.999915
0.915839
0.720628
0.428653
0.148233
0.0268555
0.00301697
0.000217302
1.02075e-05
6.25894e-06
6.75409e-06
2.1493e-06
5.99825e-06
3.31482e-06
4.98577e-06
2.48257e-06
2.02689e-06
5.81173e-06
2.1842e-06
2.29277e-06
2.10163e-06
1.99067e-06
1.89556e-06
1.79794e-06
1.69987e-06
1.60463e-06
1.5128e-06
1.42352e-06
1.33591e-06
1.24959e-06
1.1646e-06
1.08121e-06
9.99759e-07
9.20598e-07
8.43995e-07
7.70095e-07
6.98711e-07
6.28539e-07
5.55335e-07
4.70851e-07
3.71215e-07
2.78946e-07
3.04554e-07
2.60026e-07
2.35934e-07
2.00741e-07
1.79496e-07
1.68923e-07
1.56377e-07
0.941498
0.74398
0.45968
0.198754
0.0582628
0.010299
0.000602715
2.07927e-05
4.23251e-06
2.98659e-06
2.23396e-06
1.66623e-06
1.54989e-06
1.29035e-06
1.29903e-06
1.12697e-06
1.07764e-06
9.56002e-07
8.74331e-07
9.27111e-07
8.39272e-07
7.51975e-07
6.65653e-07
5.81184e-07
4.99531e-07
4.21946e-07
3.49816e-07
2.84407e-07
2.26633e-07
1.76937e-07
1.35292e-07
1.01277e-07
7.41909e-08
5.31616e-08
3.72465e-08
2.55102e-08
1.708e-08
1.11827e-08
7.16437e-09
4.49576e-09
2.76642e-09
1.67173e-09
9.93672e-10
5.81883e-10
3.3581e-10
1.90301e-10
1.04778e-10
5.49701e-11
2.67664e-11
1.1798e-11
0.405138
0.20334
0.0427633
0.00544088
0.000419239
3.70714e-05
1.24692e-06
1.34208e-06
1.03509e-06
8.33897e-07
6.89312e-07
5.76876e-07
4.83772e-07
4.01568e-07
3.26746e-07
2.60499e-07
2.03829e-07
1.56998e-07
1.19317e-07
8.9653e-08
6.67217e-08
4.92653e-08
3.61604e-08
2.64553e-08
1.93595e-08
1.42217e-08
1.05332e-08
7.90784e-09
6.00926e-09
4.62149e-09
3.62078e-09
2.86443e-09
2.26675e-09
1.802e-09
1.42818e-09
1.12421e-09
8.78529e-10
6.78655e-10
5.17223e-10
3.88048e-10
2.86113e-10
2.07232e-10
1.47387e-10
1.02849e-10
7.03295e-11
4.70591e-11
3.07672e-11
1.96198e-11
1.21425e-11
7.17996e-12
0.010802
0.00507118
5.20016e-05
1.04788e-05
5.68545e-07
3.88088e-07
3.20117e-07
2.23833e-07
1.44893e-07
9.6718e-08
6.7587e-08
5.1082e-08
4.34112e-08
4.16397e-08
4.36256e-08
4.6706e-08
4.97626e-08
5.22917e-08
5.41486e-08
5.52938e-08
5.56113e-08
5.52562e-08
5.40128e-08
5.20759e-08
4.96248e-08
4.66483e-08
4.2978e-08
3.9635e-08
3.60103e-08
3.17757e-08
2.82035e-08
2.48233e-08
2.11183e-08
1.78844e-08
1.49153e-08
1.22114e-08
9.93271e-09
7.9571e-09
6.2808e-09
4.87894e-09
3.72117e-09
2.78509e-09
2.04598e-09
1.47575e-09
1.04478e-09
7.25417e-10
4.93569e-10
3.29046e-10
2.14896e-10
1.36793e-10
4.15198e-05
2.99144e-05
4.56434e-07
3.84304e-07
2.91536e-07
1.86529e-07
1.55192e-07
1.4244e-07
1.43509e-07
1.53182e-07
1.67078e-07
1.82719e-07
1.98605e-07
2.13446e-07
2.26173e-07
2.37145e-07
2.4606e-07
2.5319e-07
2.56493e-07
2.62306e-07
2.60822e-07
2.67833e-07
2.66891e-07
2.63033e-07
2.57323e-07
2.5494e-07
2.33322e-07
2.21587e-07
2.15557e-07
1.91123e-07
1.74564e-07
1.65031e-07
1.4396e-07
1.26736e-07
1.09666e-07
9.12002e-08
7.69107e-08
6.37594e-08
5.20576e-08
4.19534e-08
3.32762e-08
2.58949e-08
1.97361e-08
1.47436e-08
1.08045e-08
7.76716e-09
5.47559e-09
3.78786e-09
2.57906e-09
1.74338e-09
7.67977e-07
6.90778e-07
6.81652e-07
4.40909e-07
3.15842e-07
2.10933e-07
1.72071e-07
1.65567e-07
1.81361e-07
2.12993e-07
2.55562e-07
3.03974e-07
3.4984e-07
3.83173e-07
4.09576e-07
4.31972e-07
4.6315e-07
4.53349e-07
5.40543e-07
4.88381e-07
5.70479e-07
5.05663e-07
7.55465e-07
5.85239e-07
5.70106e-07
7.85248e-07
6.66173e-07
5.71656e-07
7.1759e-07
6.27783e-07
5.50101e-07
6.25694e-07
5.71923e-07
5.45522e-07
5.15082e-07
4.27425e-07
3.77851e-07
3.29699e-07
2.8029e-07
2.34395e-07
1.94424e-07
1.59771e-07
1.286e-07
1.01007e-07
7.75097e-08
5.81746e-08
4.2696e-08
3.06612e-08
2.15778e-08
1.50437e-08
1.35269e-06
1.17866e-06
1.06664e-06
9.11366e-07
7.98181e-07
7.26104e-07
6.77152e-07
6.4147e-07
6.12275e-07
5.8285e-07
5.50161e-07
5.13599e-07
4.73424e-07
4.34645e-07
3.97911e-07
3.68076e-07
3.48929e-07
3.44238e-07
3.56833e-07
3.77281e-07
4.23526e-07
4.81617e-07
4.7787e-07
7.14377e-07
6.64998e-07
9.97335e-07
2.00613e-06
1.1147e-06
8.99808e-07
6.91511e-07
1.14466e-06
1.07276e-06
9.77196e-07
1.17631e-06
1.31819e-06
1.23918e-06
1.11567e-06
1.06186e-06
9.97713e-07
8.73157e-07
7.24323e-07
6.21703e-07
5.44409e-07
4.68174e-07
3.90142e-07
3.15399e-07
2.47138e-07
1.87481e-07
1.37989e-07
9.89363e-08
8.923e-06
6.41297e-06
4.47744e-06
2.92887e-06
1.63783e-06
5.03241e-07
3.44415e-07
6.47867e-07
4.69258e-07
4.49912e-07
4.29883e-07
4.12401e-07
3.30066e-07
4.64557e-07
3.89327e-07
3.86594e-07
3.84096e-07
3.82346e-07
3.83611e-07
3.90978e-07
4.08008e-07
4.37457e-07
4.76225e-07
5.15112e-07
5.47274e-07
5.68855e-07
1.47554e-06
3.5855e-06
3.5849e-06
2.15448e-06
6.45016e-07
6.38873e-07
6.54206e-07
6.82177e-07
7.18468e-07
7.5787e-07
8.00927e-07
1.33041e-06
2.85399e-06
2.85233e-06
1.51807e-06
7.81932e-07
1.05984e-06
1.25013e-06
1.32056e-06
1.29244e-06
1.1708e-06
9.72196e-07
7.51864e-07
5.5087e-07
5.32667e-07
4.5919e-07
4.07822e-07
3.7071e-07
3.43843e-07
3.33095e-07
3.2517e-07
3.1439e-07
3.11047e-07
3.10128e-07
3.118e-07
3.15841e-07
3.2146e-07
3.27735e-07
3.35157e-07
3.44514e-07
3.56807e-07
3.73207e-07
3.95043e-07
4.24452e-07
4.65559e-07
5.14951e-07
6.2619e-07
1.31475e-06
1.91978e-06
1.92492e-06
1.01796e-06
7.99116e-07
7.47678e-07
6.79584e-07
6.364e-07
6.25438e-07
6.3441e-07
6.57828e-07
6.95729e-07
7.52887e-07
8.36199e-07
9.49426e-07
1.05358e-06
1.13412e-06
1.23583e-06
2.31333e-06
1.40756e-05
1.6203e-05
1.54752e-05
5.53496e-06
8.95354e-07
8.43663e-07
7.1051e-07
5.62187e-07
1.00325e-07
1.07617e-07
1.18997e-07
1.31607e-07
1.43878e-07
1.55385e-07
1.66067e-07
1.75718e-07
1.84663e-07
1.98524e-07
2.29181e-07
2.86576e-07
3.60153e-07
4.26378e-07
4.7571e-07
5.16545e-07
5.67902e-07
6.5573e-07
7.94633e-07
9.41983e-07
9.68201e-07
1.9158e-06
6.25845e-07
8.60142e-07
6.04181e-07
6.34776e-07
1.1667e-06
3.40421e-07
5.69898e-07
5.38215e-07
5.25737e-07
5.4519e-07
6.08702e-07
7.2495e-07
8.80321e-07
1.05796e-06
1.04437e-06
1.73519e-06
1.32007e-06
2.41473e-06
1.95794e-06
2.11315e-06
1.96993e-06
1.41366e-06
7.7949e-07
3.09201e-07
1.50438e-07
1.1745e-07
9.12848e-08
7.13458e-08
1.09795e-07
1.26859e-07
1.50302e-07
1.76231e-07
2.01874e-07
2.26615e-07
2.50119e-07
2.72225e-07
2.92948e-07
3.12132e-07
3.29723e-07
3.4588e-07
3.6089e-07
3.74392e-07
3.85815e-07
3.94997e-07
4.01787e-07
4.05435e-07
4.03549e-07
3.9261e-07
3.71494e-07
3.47747e-07
2.8688e-07
2.71112e-07
2.49894e-07
2.45638e-07
2.36599e-07
2.00295e-07
2.06701e-07
2.03601e-07
2.06282e-07
2.14239e-07
2.25999e-07
2.38659e-07
2.47972e-07
2.48882e-07
2.39232e-07
2.30194e-07
2.04851e-07
1.952e-07
1.49046e-07
1.16972e-07
7.93141e-08
4.84913e-08
2.60377e-08
1.56124e-08
1.01658e-08
7.79024e-09
5.94461e-09
4.47428e-09
7.63806e-08
5.81537e-08
4.15212e-08
3.71403e-08
3.40088e-08
3.2003e-08
3.0599e-08
2.63534e-08
2.61079e-08
2.61604e-08
2.67969e-08
2.76996e-08
2.86222e-08
2.94431e-08
3.01231e-08
3.06301e-08
3.08208e-08
3.04552e-08
2.95518e-08
2.81511e-08
2.63916e-08
2.44831e-08
2.25427e-08
2.10561e-08
1.96479e-08
1.84055e-08
1.70904e-08
1.58548e-08
1.51945e-08
1.44989e-08
1.39142e-08
1.33401e-08
1.26727e-08
1.18222e-08
1.07321e-08
9.403e-09
7.9108e-09
6.42098e-09
4.98732e-09
3.77654e-09
2.5919e-09
1.73469e-09
1.07938e-09
6.50293e-10
3.91979e-10
2.58829e-10
1.69786e-10
1.20118e-10
8.28325e-11
5.44959e-11
2.13703e-06
1.34163e-06
3.64737e-07
2.38991e-07
1.62286e-07
1.2558e-07
2.25713e-07
6.37618e-08
5.23262e-08
3.15988e-08
1.94627e-08
1.12532e-08
7.28583e-09
4.78834e-09
3.06232e-09
1.95975e-09
1.26908e-09
8.22054e-10
5.24796e-10
3.26755e-10
1.97287e-10
1.15164e-10
6.48986e-11
3.52829e-11
1.85067e-11
9.37016e-12
4.58421e-12
2.17028e-12
9.95054e-13
4.41752e-13
1.89697e-13
7.86458e-14
3.14117e-14
1.20587e-14
4.4375e-15
1.56133e-15
5.23893e-16
1.672e-16
5.06263e-17
1.45075e-17
3.9252e-18
1.00046e-18
2.3971e-19
5.38841e-20
1.13425e-20
2.23134e-21
4.08891e-22
6.91791e-23
1.04944e-23
1.28644e-24
2.07738e-07
2.06982e-07
2.06532e-07
2.06231e-07
2.06572e-07
2.07178e-07
2.07868e-07
2.08897e-07
2.10119e-07
2.11342e-07
2.12874e-07
2.14549e-07
2.16236e-07
2.18147e-07
2.20028e-07
2.21929e-07
2.24194e-07
2.24268e-07
2.33503e-07
2.35736e-07
2.35722e-07
2.43568e-07
2.4636e-07
2.48391e-07
2.48282e-07
2.56641e-07
2.69321e-07
2.71246e-07
2.68257e-07
2.68724e-07
2.71461e-07
2.75627e-07
2.82152e-07
2.94139e-07
3.11344e-07
3.19356e-07
3.12813e-07
3.04898e-07
3.09307e-07
3.07996e-07
2.98195e-07
2.91867e-07
2.8878e-07
2.86918e-07
2.86579e-07
2.89147e-07
2.968e-07
3.13053e-07
3.42405e-07
3.80483e-07
3.85203e-07
3.78019e-07
3.71597e-07
3.6838e-07
3.69783e-07
3.71891e-07
3.71154e-07
1.06344e-06
2.15091e-06
7.7091e-07
4.28969e-07
4.24342e-07
4.28528e-07
4.329e-07
4.39197e-07
4.44612e-07
4.4128e-07
4.27777e-07
4.27693e-07
7.74712e-07
1.57488e-06
6.84617e-07
4.19946e-07
4.18766e-07
4.16894e-07
4.1547e-07
4.14379e-07
4.12239e-07
4.08426e-07
4.0301e-07
3.96565e-07
3.89658e-07
3.82333e-07
3.74894e-07
3.6775e-07
3.61689e-07
3.58088e-07
3.5787e-07
3.58533e-07
3.58539e-07
3.58171e-07
3.57921e-07
3.58085e-07
3.58747e-07
3.59662e-07
3.60391e-07
3.62107e-07
3.64607e-07
3.672e-07
3.69193e-07
3.70458e-07
3.74776e-07
3.82211e-07
3.91465e-07
4.00389e-07
4.10268e-07
6.83101e-07
3.51362e-06
4.23829e-06
3.47134e-06
1.27672e-06
4.2317e-07
4.22872e-07
4.21444e-07
4.19261e-07
4.17272e-07
4.1659e-07
4.18264e-07
4.20836e-07
4.27843e-07
4.34393e-07
4.39208e-07
4.43613e-07
4.50227e-07
4.6758e-07
1.46106e-06
2.01606e-06
1.3764e-06
4.14207e-07
4.17397e-07
4.55881e-07
4.86347e-07
4.99558e-07
5.21552e-07
1.27738e-06
1.40891e-06
1.0375e-06
3.65133e-07
3.48202e-07
3.23276e-07
3.0628e-07
2.92953e-07
2.81012e-07
2.69461e-07
2.57823e-07
2.47219e-07
2.3699e-07
2.27645e-07
2.19851e-07
2.14138e-07
2.11422e-07
2.11114e-07
2.13888e-07
2.18534e-07
2.26577e-07
2.36456e-07
2.50573e-07
2.66917e-07
2.85447e-07
3.07859e-07
3.14093e-07
3.62166e-07
6.46242e-07
1.21996e-06
7.95032e-07
8.6269e-07
9.12238e-07
9.58329e-07
1.18699e-06
3.26911e-06
2.95898e-06
1.04692e-06
8.61237e-07
8.64331e-07
9.71868e-07
2.33464e-06
4.08129e-06
2.83067e-06
8.53656e-07
1.01063e-06
1.18056e-06
1.38485e-06
1.49511e-06
1.45065e-06
2.54377e-06
9.80707e-06
5.71026e-06
2.04575e-06
4.33529e-06
2.30792e-05
1.50705e-05
4.67233e-06
8.32983e-07
8.1953e-07
8.13646e-07
8.03325e-07
7.84273e-07
7.49836e-07
1.38886e-06
1.95515e-06
1.00079e-06
9.92447e-07
2.28267e-06
5.68571e-06
5.68787e-06
3.85656e-06
1.12835e-06
1.10795e-06
1.69912e-06
1.10809e-05
6.82329e-06
1.82682e-06
4.81744e-07
4.77843e-07
5.14372e-07
5.38486e-07
5.7391e-07
5.51494e-07
5.02492e-07
4.44664e-07
3.81395e-07
3.13383e-07
2.43345e-07
1.80235e-07
1.29001e-07
9.09839e-08
6.47748e-08
4.72824e-08
3.53862e-08
2.68991e-08
2.05772e-08
1.57504e-08
1.2018e-08
9.11126e-09
6.84742e-09
5.1065e-09
3.80389e-09
2.86659e-09
2.22278e-09
1.80353e-09
1.54521e-09
1.39452e-09
1.31519e-09
1.27894e-09
1.2714e-09
1.28415e-09
1.31053e-09
1.34538e-09
1.38494e-09
1.42696e-09
1.47012e-09
1.51394e-09
1.55747e-09
1.59838e-09
1.63266e-09
1.65742e-09
1.67052e-09
1.67188e-09
1.65877e-09
1.62876e-09
1.57887e-09
1.51123e-09
1.42173e-09
1.30943e-09
1.1704e-09
1.0046e-09
8.11907e-10
6.07723e-10
4.16643e-10
2.65929e-10
1.58865e-10
8.83278e-11
4.52278e-11
2.11294e-11
8.94768e-12
3.42142e-12
1.1793e-12
3.66346e-13
1.02665e-13
2.60012e-14
5.9656e-15
1.24361e-15
2.36335e-16
4.10906e-17
6.56072e-18
9.65634e-19
1.3152e-19
1.66394e-20
1.96283e-21
2.16677e-22
2.24636e-23
2.19472e-24
2.02755e-25
1.77691e-26
1.48194e-27
1.17983e-28
8.99453e-30
6.58703e-31
4.64974e-32
3.17545e-33
2.63941e-07
2.62404e-07
2.61027e-07
2.59793e-07
2.58701e-07
2.57736e-07
2.56882e-07
2.56128e-07
2.55461e-07
2.54865e-07
2.54332e-07
2.53855e-07
2.53423e-07
2.53032e-07
2.52677e-07
2.52357e-07
2.52081e-07
2.51799e-07
2.51689e-07
2.51611e-07
2.51521e-07
2.5156e-07
2.51623e-07
2.51699e-07
2.51767e-07
2.52044e-07
2.52488e-07
2.52875e-07
2.53237e-07
2.53662e-07
2.5418e-07
2.54828e-07
2.55663e-07
2.56703e-07
2.57765e-07
2.58549e-07
2.5895e-07
2.59172e-07
2.59414e-07
2.59583e-07
2.59686e-07
2.59809e-07
2.59996e-07
2.60276e-07
2.60698e-07
2.61336e-07
2.62347e-07
2.63697e-07
2.65251e-07
2.66753e-07
2.68024e-07
2.69188e-07
2.70512e-07
2.72909e-07
2.76514e-07
2.78686e-07
3.05421e-07
8.71383e-07
4.22158e-07
4.28326e-07
4.43116e-07
4.71799e-07
5.31242e-07
6.01865e-07
6.37689e-07
6.16493e-07
5.34109e-07
4.66745e-07
4.835e-07
3.55843e-06
5.65507e-06
5.60182e-06
3.23766e-06
6.12718e-07
4.19604e-07
4.59518e-07
4.86607e-07
4.89825e-07
4.67832e-07
4.43625e-07
4.22367e-07
4.03681e-07
3.87726e-07
3.74794e-07
3.65975e-07
3.64979e-07
3.83494e-07
4.53538e-07
4.99942e-07
4.73362e-07
4.44582e-07
4.24031e-07
4.10762e-07
4.04982e-07
4.04127e-07
4.03748e-07
4.03799e-07
4.0604e-07
4.10679e-07
4.18182e-07
4.28228e-07
4.40351e-07
4.57185e-07
4.87611e-07
5.17741e-07
4.99958e-07
1.23855e-06
4.11051e-06
4.24363e-06
4.15728e-06
1.92456e-06
4.55144e-07
4.86144e-07
4.22612e-07
4.23789e-07
4.17168e-07
4.1701e-07
4.2253e-07
4.13777e-07
4.54847e-07
4.72224e-07
4.42609e-07
4.38563e-07
4.52491e-07
4.57552e-07
1.57185e-06
1.61384e-06
5.52169e-07
4.05963e-07
3.26433e-07
4.56872e-07
5.50926e-07
4.79371e-07
4.28426e-07
3.79668e-07
3.32781e-07
2.96465e-07
2.74528e-07
2.53355e-07
2.34488e-07
2.17924e-07
2.0334e-07
1.90486e-07
1.79275e-07
1.6739e-07
1.69162e-07
1.63468e-07
1.60142e-07
1.59641e-07
1.61468e-07
1.7143e-07
1.79072e-07
1.95852e-07
2.05166e-07
2.30552e-07
2.43592e-07
2.78832e-07
3.04391e-07
3.24049e-07
3.89349e-07
3.52599e-07
6.01208e-07
1.09951e-06
8.37943e-07
6.87128e-07
1.16556e-06
1.10478e-06
1.44806e-06
1.84142e-06
1.39564e-06
1.10714e-06
9.92858e-07
9.26476e-07
9.1235e-07
9.36935e-07
9.82831e-07
1.06624e-06
1.22987e-06
1.4543e-06
1.81404e-06
2.22228e-06
2.36098e-06
7.67144e-06
1.42057e-05
1.63388e-05
1.77658e-05
2.54676e-05
2.5496e-05
2.55138e-05
2.30802e-05
1.17347e-05
3.18131e-06
8.91591e-07
1.0795e-06
1.11477e-06
1.14609e-06
1.19513e-06
1.27261e-06
1.36248e-06
3.23865e-06
3.92802e-06
3.43543e-06
1.68854e-06
1.61838e-06
1.61399e-06
1.40438e-06
1.11735e-06
5.06493e-06
1.11285e-05
1.11282e-05
7.32145e-06
1.47722e-06
5.79283e-07
5.46192e-07
5.15373e-07
1.48684e-06
8.37171e-07
8.17309e-07
7.53167e-07
6.96089e-07
6.69374e-07
7.48904e-07
1.07689e-06
1.30905e-06
1.16564e-06
7.68855e-07
5.112e-07
3.87958e-07
2.86296e-07
2.14348e-07
1.68005e-07
1.37942e-07
1.16263e-07
9.8246e-08
8.1735e-08
6.61628e-08
5.17655e-08
3.90363e-08
2.83871e-08
1.99921e-08
1.37676e-08
9.4376e-09
6.62695e-09
4.95426e-09
4.05942e-09
3.65207e-09
3.54545e-09
3.60851e-09
3.74962e-09
3.927e-09
4.12487e-09
4.3451e-09
4.59302e-09
4.87021e-09
5.17119e-09
5.48535e-09
5.80354e-09
6.12368e-09
6.44107e-09
6.74711e-09
7.03658e-09
7.31525e-09
7.55779e-09
7.72984e-09
7.77172e-09
7.60474e-09
7.08083e-09
6.08737e-09
4.56031e-09
3.05126e-09
1.91457e-09
1.13474e-09
6.26889e-10
3.17845e-10
1.46205e-10
6.05907e-11
2.25439e-11
7.52248e-12
2.25232e-12
6.06097e-13
1.46944e-13
3.21961e-14
6.39804e-15
1.15766e-15
1.91513e-16
2.90892e-17
4.07408e-18
5.28366e-19
6.37184e-20
7.17461e-21
7.57299e-22
7.52231e-23
7.05784e-24
6.27754e-25
5.31139e-26
4.28917e-27
3.31656e-28
2.46336e-29
1.76308e-30
1.22003e-31
3.66251e-07
3.64347e-07
3.62514e-07
3.60754e-07
3.59066e-07
3.57449e-07
3.55904e-07
3.5443e-07
3.53028e-07
3.51697e-07
3.50441e-07
3.49259e-07
3.48152e-07
3.47122e-07
3.46168e-07
3.45287e-07
3.44474e-07
3.43721e-07
3.43017e-07
3.42337e-07
3.41644e-07
3.40871e-07
3.39901e-07
3.38506e-07
3.36255e-07
3.33049e-07
3.30546e-07
3.27767e-07
3.26922e-07
3.26429e-07
3.26105e-07
3.25929e-07
3.25934e-07
3.26176e-07
3.26735e-07
3.27727e-07
3.29322e-07
3.31712e-07
3.34986e-07
3.3887e-07
3.42393e-07
3.43734e-07
3.40453e-07
3.35355e-07
7.50419e-07
3.05851e-06
1.4489e-06
3.07704e-07
3.19883e-07
3.28326e-07
3.30019e-07
3.31877e-07
3.36073e-07
3.44152e-07
3.54462e-07
3.64296e-07
3.73021e-07
3.84414e-07
3.99165e-07
4.17755e-07
4.46261e-07
4.65727e-07
1.50354e-06
6.88153e-06
7.28293e-06
6.58428e-06
2.10513e-06
4.74287e-07
4.75816e-07
4.80181e-07
4.84963e-07
4.8882e-07
4.95127e-07
4.93076e-07
4.87495e-07
9.60175e-07
1.5809e-06
1.58166e-06
7.00757e-07
3.92258e-07
4.17591e-07
4.15231e-07
4.08977e-07
4.03374e-07
3.98851e-07
3.95893e-07
3.94866e-07
9.06584e-07
4.07028e-06
2.02156e-06
4.72225e-07
4.33899e-07
4.18337e-07
4.1374e-07
5.06144e-07
5.33409e-07
4.58815e-07
4.7183e-07
4.87786e-07
5.15151e-07
5.46736e-07
5.62609e-07
5.60619e-07
5.56241e-07
1.88889e-06
2.40611e-06
2.18373e-06
7.50118e-07
6.95382e-07
2.02034e-06
2.04526e-06
9.6745e-07
4.44091e-07
4.39254e-07
4.1671e-07
3.58276e-07
4.89113e-07
4.09353e-07
4.0747e-07
4.03536e-07
3.99679e-07
3.74151e-07
2.97373e-07
4.45319e-07
5.97502e-07
4.99344e-07
4.14639e-07
3.73482e-07
3.29831e-07
2.84607e-07
2.38433e-07
2.07063e-07
1.85982e-07
1.6953e-07
1.56325e-07
1.45588e-07
1.36503e-07
1.28795e-07
1.22726e-07
1.18315e-07
1.1502e-07
1.12243e-07
1.09812e-07
1.07784e-07
8.02079e-08
2.01891e-07
1.0822e-07
1.10905e-07
1.15501e-07
1.18771e-07
1.6595e-07
1.50057e-07
2.18917e-07
1.52956e-07
2.80486e-07
1.79965e-07
3.58353e-07
3.43259e-07
2.39496e-07
7.63733e-07
3.91102e-07
3.22852e-07
1.01743e-06
7.88569e-07
6.85773e-07
6.42767e-07
6.58714e-07
6.28255e-07
6.08198e-07
6.33649e-07
6.78134e-07
7.26864e-07
7.78286e-07
8.35157e-07
9.05026e-07
9.84496e-07
1.08813e-06
1.22437e-06
1.44014e-06
1.76113e-06
2.44855e-06
3.40916e-06
1.89496e-05
2.65615e-05
2.65616e-05
1.16997e-05
2.15468e-06
1.77772e-06
1.63903e-06
1.66624e-06
1.92156e-06
1.83326e-06
1.64431e-06
1.48613e-06
1.41593e-06
1.44747e-06
1.52208e-06
1.64961e-06
1.73604e-06
1.82834e-06
1.93257e-06
2.06139e-06
3.05207e-06
1.40378e-05
1.70568e-05
1.70427e-05
1.16972e-05
4.35835e-06
1.7202e-06
1.60375e-06
3.93274e-06
2.27755e-06
7.2641e-07
6.8742e-07
7.08998e-07
1.48969e-06
1.0012e-06
9.03396e-07
8.57948e-07
8.24058e-07
8.04627e-07
8.25791e-07
8.79851e-07
8.68829e-07
8.49989e-07
3.80066e-06
3.40219e-06
1.01664e-06
5.70316e-07
4.36145e-07
3.63511e-07
3.11636e-07
2.77346e-07
2.41068e-07
2.26622e-07
2.10713e-07
1.94218e-07
1.78075e-07
1.6257e-07
1.47743e-07
1.33621e-07
1.20249e-07
1.0768e-07
9.59411e-08
8.51024e-08
7.52695e-08
6.63289e-08
5.81684e-08
5.0733e-08
4.40324e-08
3.81572e-08
3.32198e-08
2.93252e-08
2.65438e-08
2.47923e-08
2.39658e-08
2.41089e-08
2.52858e-08
2.73229e-08
2.98973e-08
3.2706e-08
3.54985e-08
3.81036e-08
4.04913e-08
4.27684e-08
4.49544e-08
4.69946e-08
4.93519e-08
4.43937e-08
2.94221e-08
1.80361e-08
1.08726e-08
6.35176e-09
3.48869e-09
1.75685e-09
7.98622e-10
3.25024e-10
1.1801e-10
3.81988e-11
1.10351e-11
2.85141e-12
6.61078e-13
1.3804e-13
2.60723e-14
4.47468e-15
7.01152e-16
1.00791e-16
1.33561e-17
1.6393e-18
1.87238e-19
1.99925e-20
2.00452e-21
1.89534e-22
1.69702e-23
1.44451e-24
1.17333e-25
9.12701e-27
6.82169e-28
4.91447e-29
3.42237e-30
5.37971e-07
5.36855e-07
5.35828e-07
5.34973e-07
5.34375e-07
5.34074e-07
5.34042e-07
5.3419e-07
5.34387e-07
5.34482e-07
5.34307e-07
5.33639e-07
5.32135e-07
5.29214e-07
5.23788e-07
5.20535e-07
5.16707e-07
5.17784e-07
5.23208e-07
5.30646e-07
5.41207e-07
5.55977e-07
5.77795e-07
6.05242e-07
1.00885e-06
3.6313e-06
3.76998e-06
2.97934e-06
6.85573e-07
4.39773e-07
4.09352e-07
4.14508e-07
4.23146e-07
4.32938e-07
4.44091e-07
4.5649e-07
4.69852e-07
4.83873e-07
4.98281e-07
5.1283e-07
5.27291e-07
5.41634e-07
5.55837e-07
5.72163e-07
7.29691e-07
4.48526e-06
5.44874e-06
5.46619e-06
2.25305e-06
3.70527e-07
3.89322e-07
4.39887e-07
4.97336e-07
1.16551e-06
1.47977e-06
1.42998e-06
5.34944e-07
4.33084e-07
4.43482e-07
4.78461e-07
1.32208e-06
3.729e-06
3.24161e-06
1.2955e-06
5.27271e-07
5.20446e-07
5.1701e-07
4.72737e-07
7.19147e-07
4.853e-07
4.93541e-07
4.98144e-07
6.74377e-07
1.66738e-06
7.44421e-07
5.72762e-07
5.70614e-07
5.40805e-07
4.96215e-07
3.8801e-07
8.57526e-07
4.6854e-07
4.86304e-07
5.09224e-07
5.29859e-07
5.53462e-07
5.8043e-07
1.22829e-06
4.78784e-06
4.98308e-06
4.00453e-06
1.04184e-06
4.23413e-07
4.46617e-07
4.5015e-07
4.55006e-07
4.64205e-07
4.84156e-07
5.2759e-07
6.09053e-07
8.35564e-07
8.64622e-07
6.91321e-07
6.10979e-07
5.44953e-07
5.19985e-07
4.66761e-07
6.28784e-07
7.27204e-07
6.55101e-07
6.24989e-07
5.93411e-07
5.3062e-07
4.55794e-07
3.94911e-07