/*--------------------------------*- C++ -*----------------------------------*\
| =========                 |                                                 |
| \\      /  F ield         | OpenFOAM: The Open Source CFD Toolbox           |
|  \\    /   O peration     | Version:  2.4.0                                 |
|   \\  /    A nd           | Web:      www.OpenFOAM.org                      |
|    \\/     M anipulation  |                                                 |
\*---------------------------------------------------------------------------*/
FoamFile
{
    version     2.0;
    format      ascii;
    class       volScalarField;
    location    "1.8";
    object      T;
}
// * * * * * * * * * * * * * * * * * * * * * * * * * * * * * * * * * * * * * //

dimensions      [0 0 0 1 0 0 0];

internalField   nonuniform List<scalar> 
8000
(
293.097
293.292
293.485
293.678
293.868
294.057
294.244
294.429
294.611
294.789
294.965
295.136
295.303
295.465
295.622
295.773
295.919
296.059
296.194
296.324
296.449
296.57
296.686
296.8
296.91
297.019
297.125
297.23
297.334
297.436
297.537
297.638
297.74
297.844
297.953
297.999
298
298
298
297.998
297.997
297.995
297.994
297.993
297.993
297.992
297.991
297.991
297.99
297.99
293.097
293.291
293.486
293.682
293.878
294.075
294.271
294.466
294.66
294.85
295.037
295.219
295.396
295.567
295.73
295.885
296.033
296.173
296.304
296.428
296.544
296.653
296.755
296.851
296.942
297.029
297.111
297.191
297.267
297.341
297.413
297.485
297.556
297.627
297.699
297.771
297.843
297.919
297.999
298
298
298
298
297.999
297.998
297.997
297.997
297.996
297.995
297.994
293.102
293.307
293.513
293.721
293.93
294.141
294.351
294.561
294.769
294.974
295.175
295.369
295.557
295.737
295.908
296.07
296.222
296.364
296.496
296.618
296.731
296.835
296.931
297.019
297.1
297.174
297.244
297.308
297.368
297.425
297.478
297.529
297.578
297.625
297.671
297.717
297.761
297.804
297.847
297.887
297.926
297.963
298
298
298
298
298
297.999
297.999
297.998
293.109
293.326
293.545
293.766
293.988
294.21
294.433
294.654
294.872
295.087
295.296
295.498
295.693
295.878
296.053
296.218
296.371
296.514
296.646
296.767
296.878
296.98
297.072
297.156
297.232
297.302
297.365
297.423
297.476
297.525
297.57
297.612
297.651
297.688
297.722
297.754
297.785
297.814
297.841
297.867
297.892
297.915
297.936
297.956
297.974
297.989
298
298
298
298
293.113
293.341
293.568
293.797
294.026
294.255
294.482
294.707
294.929
295.145
295.355
295.558
295.751
295.936
296.11
296.273
296.425
296.566
296.696
296.815
296.925
297.024
297.115
297.197
297.272
297.34
297.401
297.457
297.508
297.554
297.596
297.635
297.671
297.703
297.734
297.762
297.787
297.812
297.834
297.855
297.875
297.893
297.91
297.926
297.941
297.956
297.97
297.985
298
298
293.115
293.345
293.576
293.806
294.035
294.263
294.488
294.71
294.927
295.138
295.343
295.539
295.727
295.906
296.075
296.233
296.381
296.519
296.646
296.763
296.871
296.969
297.06
297.142
297.217
297.285
297.348
297.405
297.457
297.504
297.548
297.588
297.625
297.659
297.69
297.719
297.746
297.772
297.795
297.818
297.838
297.858
297.876
297.894
297.91
297.926
297.941
297.956
297.97
297.984
293.114
293.342
293.569
293.795
294.019
294.241
294.459
294.673
294.881
295.083
295.279
295.466
295.646
295.816
295.977
296.129
296.271
296.404
296.528
296.643
296.749
296.846
296.937
297.02
297.097
297.167
297.232
297.292
297.347
297.399
297.446
297.49
297.532
297.57
297.606
297.64
297.672
297.702
297.731
297.758
297.783
297.808
297.831
297.853
297.874
297.893
297.912
297.93
297.946
297.961
293.11
293.33
293.549
293.767
293.981
294.193
294.4
294.603
294.8
294.991
295.175
295.351
295.52
295.681
295.834
295.978
296.114
296.241
296.361
296.473
296.577
296.674
296.765
296.85
296.929
297.002
297.071
297.135
297.196
297.253
297.306
297.357
297.404
297.45
297.493
297.534
297.574
297.611
297.648
297.683
297.717
297.749
297.781
297.811
297.84
297.867
297.894
297.918
297.941
297.962
293.104
293.313
293.52
293.725
293.927
294.125
294.319
294.508
294.691
294.869
295.04
295.204
295.361
295.512
295.655
295.791
295.919
296.041
296.157
296.266
296.368
296.465
296.557
296.644
296.726
296.803
296.877
296.947
297.013
297.077
297.138
297.196
297.253
297.307
297.359
297.41
297.459
297.507
297.554
297.6
297.645
297.688
297.731
297.773
297.813
297.852
297.89
297.925
297.957
297.987
293.098
293.292
293.486
293.677
293.865
294.049
294.229
294.404
294.574
294.738
294.897
295.05
295.197
295.337
295.472
295.601
295.724
295.842
295.954
296.061
296.163
296.261
296.355
296.445
296.531
296.613
296.693
296.77
296.844
296.916
296.985
297.053
297.119
297.183
297.247
297.308
297.369
297.429
297.488
297.547
297.604
297.661
297.718
297.773
297.827
297.88
297.93
297.978
298
298
293.091
293.271
293.451
293.628
293.802
293.973
294.14
294.303
294.461
294.614
294.762
294.906
295.044
295.178
295.306
295.43
295.55
295.665
295.776
295.884
295.988
296.088
296.185
296.279
296.371
296.46
296.546
296.631
296.714
296.794
296.874
296.951
297.028
297.103
297.178
297.252
297.325
297.398
297.471
297.543
297.615
297.688
297.759
297.83
297.9
297.968
298
298
298
298
293.084
293.252
293.419
293.584
293.747
293.906
294.062
294.214
294.362
294.507
294.647
294.784
294.916
295.045
295.17
295.292
295.41
295.526
295.638
295.747
295.854
295.958
296.06
296.16
296.258
296.353
296.448
296.54
296.631
296.721
296.81
296.898
296.984
297.071
297.157
297.243
297.328
297.414
297.501
297.588
297.676
297.765
297.853
297.94
297.999
298
298
298
298
298
293.079
293.237
293.393
293.548
293.701
293.852
294
294.145
294.287
294.426
294.562
294.695
294.825
294.953
295.078
295.2
295.32
295.437
295.552
295.666
295.777
295.886
295.993
296.099
296.203
296.306
296.407
296.507
296.606
296.704
296.801
296.898
296.994
297.091
297.187
297.284
297.382
297.481
297.581
297.683
297.788
297.896
297.999
298
298
298
298
298
298
298
293.076
293.227
293.377
293.526
293.673
293.819
293.963
294.104
294.244
294.381
294.516
294.649
294.78
294.909
295.036
295.161
295.284
295.406
295.525
295.643
295.759
295.873
295.986
296.097
296.207
296.315
296.422
296.528
296.632
296.737
296.84
296.944
297.047
297.151
297.257
297.363
297.471
297.58
297.692
297.805
297.922
297.999
298
298
298
298
298
298
298.001
298.001
293.074
293.223
293.37
293.518
293.664
293.809
293.953
294.096
294.237
294.377
294.516
294.653
294.788
294.921
295.053
295.183
295.312
295.438
295.563
295.685
295.806
295.925
296.042
296.156
296.27
296.381
296.491
296.599
296.707
296.814
296.92
297.027
297.135
297.243
297.354
297.466
297.58
297.696
297.812
297.927
297.999
297.999
298
298
298.001
298.002
298.003
298.004
298.005
298.005
293.076
293.228
293.379
293.53
293.681
293.831
293.981
294.129
294.277
294.423
294.568
294.711
294.852
294.992
295.13
295.265
295.398
295.529
295.657
295.782
295.905
296.025
296.142
296.256
296.368
296.477
296.583
296.687
296.79
296.891
296.992
297.093
297.195
297.299
297.407
297.519
297.635
297.757
297.88
297.999
297.999
298
298
298.002
298.004
298.006
298.009
298.011
298.013
298.015
293.081
293.244
293.407
293.57
293.733
293.895
294.057
294.218
294.378
294.536
294.692
294.846
294.997
295.146
295.291
295.434
295.574
295.71
295.842
295.971
296.095
296.216
296.332
296.443
296.55
296.653
296.751
296.846
296.936
297.023
297.108
297.19
297.272
297.354
297.437
297.524
297.616
297.715
297.822
297.938
297.999
297.999
298
298
298.001
298.006
298.011
298.016
298.022
298.027
293.094
293.281
293.469
293.656
293.843
294.03
294.214
294.396
294.575
294.751
294.924
295.093
295.259
295.421
295.579
295.733
295.883
296.028
296.168
296.303
296.432
296.556
296.673
296.784
296.888
296.986
297.077
297.161
297.24
297.312
297.379
297.442
297.501
297.557
297.61
297.662
297.714
297.766
297.82
297.878
297.942
297.999
298
298
298
298
298
298.003
298.022
298.041
293.113
293.337
293.56
293.779
293.994
294.202
294.405
294.602
294.793
294.978
295.159
295.335
295.507
295.674
295.837
295.996
296.15
296.299
296.443
296.58
296.712
296.835
296.952
297.06
297.16
297.251
297.335
297.41
297.478
297.539
297.593
297.641
297.684
297.723
297.758
297.789
297.819
297.846
297.873
297.9
297.928
297.956
297.985
298
298
298
298
298.001
298.007
298.082
293.193
293.518
293.801
294.054
294.285
294.498
294.698
294.889
295.071
295.247
295.418
295.584
295.747
295.907
296.064
296.217
296.368
296.516
296.659
296.796
296.925
297.046
297.158
297.261
297.356
297.441
297.517
297.585
297.644
297.696
297.741
297.78
297.813
297.842
297.867
297.888
297.906
297.922
297.936
297.948
297.959
297.969
297.978
297.987
297.996
298
298.003
298.007
298.001
298.113
297.989
297.989
297.989
297.988
297.988
297.988
297.988
297.988
297.988
297.988
297.988
297.988
297.988
297.987
297.987
297.987
297.987
297.987
297.987
297.987
297.987
297.987
297.987
297.987
297.987
297.987
297.987
297.987
297.987
297.987
297.987
297.987
297.987
297.988
297.988
297.988
297.988
297.988
297.988
297.988
297.988
297.988
297.988
297.988
297.989
297.989
297.989
297.989
297.989
297.989
297.993
297.993
297.992
297.991
297.991
297.99
297.989
297.989
297.988
297.988
297.987
297.987
297.987
297.986
297.986
297.986
297.986
297.986
297.985
297.985
297.985
297.985
297.985
297.985
297.985
297.985
297.985
297.985
297.985
297.985
297.985
297.985
297.985
297.985
297.985
297.985
297.985
297.985
297.985
297.985
297.985
297.985
297.985
297.985
297.985
297.986
297.986
297.986
297.986
297.986
297.997
297.997
297.996
297.995
297.994
297.994
297.993
297.992
297.992
297.991
297.991
297.99
297.99
297.989
297.989
297.988
297.988
297.987
297.987
297.987
297.986
297.986
297.986
297.986
297.986
297.985
297.985
297.985
297.985
297.985
297.985
297.985
297.985
297.984
297.984
297.984
297.984
297.984
297.984
297.984
297.984
297.984
297.984
297.984
297.984
297.984
297.984
297.984
297.984
297.984
297.999
297.999
297.999
297.998
297.998
297.997
297.997
297.996
297.996
297.995
297.995
297.994
297.994
297.994
297.993
297.993
297.992
297.992
297.991
297.991
297.991
297.99
297.99
297.99
297.989
297.989
297.989
297.988
297.988
297.988
297.988
297.987
297.987
297.987
297.987
297.987
297.987
297.986
297.986
297.986
297.986
297.986
297.986
297.986
297.986
297.986
297.986
297.986
297.986
297.986
298
298
298
298
297.999
297.999
297.999
297.999
297.998
297.998
297.998
297.997
297.997
297.997
297.997
297.996
297.996
297.996
297.996
297.995
297.995
297.995
297.994
297.994
297.994
297.994
297.993
297.993
297.993
297.993
297.992
297.992
297.992
297.992
297.991
297.991
297.991
297.991
297.991
297.99
297.99
297.99
297.99
297.99
297.99
297.99
297.99
297.989
297.989
297.989
297.997
298
298
298
298
298
298
298
297.999
297.999
297.999
297.999
297.999
297.999
297.999
297.998
297.998
297.998
297.998
297.998
297.998
297.998
297.998
297.997
297.997
297.997
297.997
297.997
297.997
297.997
297.996
297.996
297.996
297.996
297.996
297.996
297.996
297.996
297.995
297.995
297.995
297.995
297.995
297.995
297.995
297.995
297.995
297.994
297.994
297.994
297.975
297.988
298
298
298
298
298
298
298
298
298
298
298
298
297.999
297.999
297.999
297.999
297.999
297.999
297.999
297.999
297.999
297.999
297.999
297.999
297.999
297.999
297.999
297.999
297.999
297.999
297.999
297.999
297.999
297.998
297.998
297.998
297.998
297.998
297.998
297.998
297.998
297.998
297.998
297.998
297.998
297.998
297.998
297.998
297.981
297.999
298
298
298
298
298
298
298
298
298
298
298
298
298
298
298
298
298
298
298
298
298
298
298
298
298
298
298
298
298
298
298
298
298
298
298
298
298
298
298
298
298
298
298
298
298
298
298
297.999
298
298
298
298
298
298
298
298
298
298
298
298
298
298
298
298
298
298
298
298
298
298
298
298
298
298
298
298
298
298
298
298
298
298
298
298
298
298
298
298
298
298
298
298
298
298
298
298
298
298
298
298
298
298
298
298
298
298
298
298
298
298
298.001
298.001
298.001
298.001
298.001
298.001
298.001
298.001
298.001
298.001
298.001
298.001
298.001
298.001
298.001
298.001
298.001
298.001
298.001
298.001
298.001
298.001
298.001
298.001
298.001
298.001
298.001
298.001
298.001
298.001
298.001
298.001
298.001
298.001
298.001
298.001
298.001
298.001
298
298
298
298
298
298
298.001
298.001
298.001
298.001
298.001
298.001
298.001
298.001
298.001
298.001
298.002
298.002
298.002
298.002
298.002
298.002
298.002
298.002
298.002
298.002
298.002
298.002
298.002
298.002
298.002
298.002
298.002
298.002
298.002
298.002
298.002
298.002
298.002
298.002
298.002
298.002
298.002
298.002
298.002
298.002
298.002
298.002
298.002
298.002
298
298
298
298.001
298.001
298.001
298.001
298.001
298.002
298.002
298.002
298.002
298.002
298.002
298.002
298.003
298.003
298.003
298.003
298.003
298.003
298.003
298.003
298.003
298.003
298.003
298.003
298.003
298.003
298.003
298.003
298.003
298.003
298.003
298.003
298.003
298.003
298.003
298.003
298.003
298.003
298.003
298.003
298.003
298.003
298.003
298.003
298.003
298.003
298.003
298
298.001
298.001
298.001
298.001
298.001
298.002
298.002
298.002
298.002
298.002
298.002
298.003
298.003
298.003
298.003
298.003
298.003
298.004
298.004
298.004
298.004
298.004
298.004
298.004
298.005
298.005
298.005
298.005
298.005
298.005
298.005
298.005
298.005
298.005
298.005
298.005
298.005
298.005
298.005
298.005
298.005
298.005
298.005
298.005
298.005
298.005
298.004
298.004
298.004
298.001
298.001
298.001
298.002
298.002
298.002
298.002
298.002
298.003
298.003
298.003
298.003
298.003
298.004
298.004
298.004
298.004
298.004
298.005
298.005
298.005
298.005
298.005
298.005
298.005
298.006
298.006
298.006
298.006
298.006
298.006
298.006
298.007
298.007
298.007
298.007
298.007
298.007
298.007
298.007
298.007
298.007
298.007
298.007
298.007
298.006
298.006
298.006
298.006
298.006
298.006
298.007
298.007
298.008
298.008
298.008
298.009
298.009
298.009
298.009
298.009
298.009
298.009
298.009
298.009
298.009
298.009
298.009
298.009
298.008
298.008
298.008
298.008
298.008
298.008
298.008
298.008
298.008
298.009
298.009
298.009
298.009
298.009
298.009
298.009
298.009
298.009
298.009
298.009
298.009
298.009
298.009
298.009
298.009
298.009
298.009
298.009
298.009
298.008
298.008
298.017
298.019
298.02
298.021
298.021
298.021
298.022
298.021
298.021
298.021
298.021
298.02
298.02
298.019
298.019
298.018
298.018
298.017
298.017
298.016
298.016
298.016
298.015
298.015
298.015
298.014
298.014
298.014
298.014
298.014
298.014
298.013
298.013
298.013
298.013
298.013
298.013
298.013
298.013
298.013
298.013
298.012
298.012
298.012
298.012
298.012
298.011
298.011
298.011
298.011
298.032
298.036
298.038
298.039
298.04
298.039
298.038
298.037
298.036
298.034
298.033
298.031
298.03
298.029
298.028
298.026
298.025
298.024
298.024
298.023
298.022
298.021
298.021
298.02
298.02
298.019
298.019
298.019
298.018
298.018
298.018
298.018
298.017
298.017
298.017
298.017
298.016
298.016
298.016
298.015
298.015
298.015
298.015
298.014
298.014
298.014
298.013
298.013
298.013
298.012
298.056
298.066
298.073
298.076
298.076
298.075
298.072
298.069
298.065
298.062
298.058
298.054
298.051
298.048
298.045
298.043
298.04
298.038
298.036
298.035
298.033
298.032
298.031
298.03
298.029
298.028
298.027
298.026
298.025
298.025
298.024
298.023
298.023
298.022
298.022
298.021
298.021
298.02
298.02
298.019
298.019
298.018
298.018
298.017
298.017
298.016
298.016
298.016
298.015
298.015
298.139
298.178
298.201
298.214
298.218
298.216
298.209
298.199
298.188
298.176
298.163
298.151
298.139
298.128
298.118
298.108
298.099
298.091
298.084
298.078
298.072
298.067
298.062
298.058
298.054
298.051
298.048
298.045
298.043
298.04
298.038
298.037
298.035
298.033
298.032
298.031
298.03
298.028
298.027
298.026
298.025
298.025
298.024
298.023
298.022
298.021
298.021
298.02
298.019
298.019
299.227
299.32
299.196
299.075
298.97
298.875
298.788
298.707
298.634
298.567
298.506
298.452
298.403
298.359
298.32
298.286
298.255
298.228
298.204
298.182
298.164
298.147
298.133
298.12
298.109
298.099
298.09
298.082
298.076
298.07
298.064
298.06
298.055
298.052
298.048
298.045
298.043
298.04
298.038
298.036
298.034
298.033
298.031
298.03
298.029
298.027
298.026
298.025
298.024
298.023
297.989
297.989
297.989
297.989
297.99
297.99
297.99
297.99
297.99
297.99
297.99
297.99
297.99
297.99
297.99
297.99
297.99
297.99
297.99
297.991
297.991
297.991
297.991
297.991
297.991
297.991
297.991
297.991
297.991
297.991
297.991
297.991
297.991
297.991
297.991
297.991
297.991
297.991
297.991
297.991
297.991
297.991
297.991
297.991
297.991
297.991
297.991
297.991
297.991
297.991
297.991
297.991
297.991
297.991
297.991
297.991
297.991
297.991
297.991
297.991
297.991
297.991
297.991
297.991
297.991
297.991
297.991
297.991
297.991
297.991
297.991
297.991
297.991
297.991
297.991
297.991
297.991
297.991
297.991
297.991
297.991
297.991
297.991
297.991
297.991
297.991
297.991
297.991
297.991
297.991
297.991
297.991
297.991
297.991
297.991
297.991
297.991
297.991
297.991
297.992
297.992
297.992
297.992
297.992
297.992
297.992
297.992
297.993
297.993
297.993
297.993
297.993
297.993
297.993
297.994
297.994
297.994
297.994
297.994
297.994
297.995
297.995
297.995
297.995
297.995
297.996
297.996
297.996
297.996
297.996
297.996
297.997
297.997
297.997
297.997
297.997
297.997
297.997
297.998
297.998
297.998
297.998
297.998
297.998
297.998
297.999
297.999
297.999
297.999
297.999
297.999
297.999
297.999
297.999
297.999
297.999
297.999
298
298
298
298
298
298
298
298
298
298
298
298
298
298
298
298
298
298
298
298
298
298
298
298
298
298
298
298
298
298
298
298
298
298
298
298
298
298
298
298
298
298
298
298
298
298
298
298
298
298
298
298
298
298
298
298
298
298
298
298
298
298
298
298
298
298
298
298
298
298
298
298
298
298
298
298
298
298
298
298
298
298
298
298
298
298
298
298
298
298
298
298
298
298
298
298
298
298
298
298
298
298
298
298
298
298
298
298
298
298
298
298
298
298
298
298
298
298
298
298
298
298
298
298
298
298
298
298
298
298
298
298
298
298
298
298
298
298
298
298
298
298
298
297.986
297.986
297.986
297.986
297.986
297.986
297.986
297.986
297.986
297.986
297.986
297.986
297.986
297.986
297.986
297.987
297.987
297.987
297.987
297.987
297.987
297.987
297.987
297.987
297.987
297.987
297.987
297.987
297.987
297.987
297.987
297.987
297.987
297.987
297.987
297.987
297.987
297.987
297.987
297.987
297.987
297.987
297.987
297.987
297.987
297.987
297.987
297.987
297.987
297.987
297.987
297.987
297.987
297.987
297.987
297.987
297.987
297.987
297.987
297.987
297.987
297.987
297.987
297.987
297.987
297.988
297.988
297.988
297.988
297.988
297.988
297.988
297.988
297.988
297.988
297.988
297.988
297.988
297.988
297.988
297.988
297.989
297.989
297.989
297.989
297.989
297.989
297.989
297.989
297.99
297.99
297.99
297.99
297.99
297.99
297.99
297.991
297.991
297.991
297.991
297.991
297.992
297.992
297.992
297.992
297.992
297.993
297.993
297.993
297.993
297.993
297.994
297.994
297.994
297.994
297.995
297.995
297.995
297.995
297.995
297.996
297.996
297.996
297.996
297.996
297.996
297.997
297.997
297.997
297.997
297.997
297.997
297.998
297.998
297.998
297.998
297.998
297.998
297.998
297.999
297.999
297.999
297.999
297.999
297.999
297.999
297.999
297.999
297.999
297.999
297.999
298
298
298
298
298
298
298
298
298
298
298
298
298
298
298
298
298
298
298
298
298
298
298
298
298
298
298
298
298
298
298
298
298
298
298
298
298
298
298
298
298
298
298
298
298
298
298
298
298
298
298
298
298
298
298
298
298
298
298
298
298
298
298
298
298
298
298
298
298
298
298
298
298
298
298
298
298
298
298
298
298
298
298
298
298
298
298
298
298
298
298
298
298
298
298
298
298
298
298
298
298
298
298
298
298
298
298
298
298
298
298
298
298
298
298
298
298
298
298
298
298
298
298
298
298
298
298
298
298
298
298
298
298
298
298
298
298
298
298
298
298
298
298
298
298
298
298
298
298
297.984
297.984
297.984
297.984
297.984
297.984
297.985
297.985
297.985
297.985
297.985
297.985
297.985
297.985
297.985
297.985
297.985
297.985
297.985
297.985
297.985
297.985
297.985
297.985
297.985
297.985
297.985
297.985
297.985
297.985
297.985
297.985
297.985
297.985
297.985
297.985
297.985
297.985
297.985
297.985
297.985
297.985
297.985
297.985
297.985
297.985
297.985
297.986
297.986
297.986
297.986
297.986
297.986
297.986
297.986
297.986
297.986
297.986
297.986
297.986
297.986
297.986
297.986
297.987
297.987
297.987
297.987
297.987
297.987
297.987
297.987
297.987
297.988
297.988
297.988
297.988
297.988
297.988
297.988
297.989
297.989
297.989
297.989
297.989
297.989
297.99
297.99
297.99
297.99
297.99
297.991
297.991
297.991
297.991
297.991
297.992
297.992
297.992
297.992
297.993
297.993
297.993
297.993
297.993
297.994
297.994
297.994
297.994
297.995
297.995
297.995
297.995
297.995
297.996
297.996
297.996
297.996
297.996
297.997
297.997
297.997
297.997
297.997
297.997
297.998
297.998
297.998
297.998
297.998
297.998
297.998
297.998
297.999
297.999
297.999
297.999
297.999
297.999
297.999
297.999
297.999
297.999
297.999
298
298
298
298
298
298
298
298
298
298
298
298
298
298
298
298
298
298
298
298
298
298
298
298
298
298
298
298
298
298
298
298
298
298
298
298
298
298
298
298
298
298
298
298
298
298
298
298
298
298
298
298
298
298
298
298
298
298
298
298
298
298
298
298
298
298
298
298
298
298
298
298
298
298
298
298
298
298
298
298
298
298
298
298
298
298
298
298
298
298
298
298
298
298
298
298
298
298
298
298
298
298
298
298
298
298
298
298
298
298
298
298
298
298
298
298
298
298
298
298
298
298
298
298
298
298
298
298
298
298
298
298
298
298
298
298
298
298
298
298
298
298
298
298
298
298
298
298
298
298
298
298
298
298
298
298
298
297.986
297.986
297.986
297.986
297.986
297.986
297.986
297.986
297.986
297.986
297.986
297.986
297.986
297.986
297.986
297.986
297.986
297.986
297.986
297.986
297.986
297.986
297.986
297.986
297.986
297.986
297.986
297.986
297.986
297.986
297.986
297.986
297.986
297.986
297.986
297.986
297.986
297.986
297.986
297.986
297.987
297.987
297.987
297.987
297.987
297.987
297.987
297.987
297.987
297.987
297.987
297.987
297.987
297.988
297.988
297.988
297.988
297.988
297.988
297.988
297.988
297.988
297.989
297.989
297.989
297.989
297.989
297.989
297.989
297.989
297.99
297.99
297.99
297.99
297.99
297.99
297.991
297.991
297.991
297.991
297.991
297.991
297.992
297.992
297.992
297.992
297.992
297.993
297.993
297.993
297.993
297.993
297.994
297.994
297.994
297.994
297.994
297.995
297.995
297.995
297.995
297.995
297.996
297.996
297.996
297.996
297.996
297.996
297.997
297.997
297.997
297.997
297.997
297.997
297.998
297.998
297.998
297.998
297.998
297.998
297.998
297.998
297.999
297.999
297.999
297.999
297.999
297.999
297.999
297.999
297.999
297.999
297.999
297.999
298
298
298
298
298
298
298
298
298
298
298
298
298
298
298
298
298
298
298
298
298
298
298
298
298
298
298
298
298
298
298
298
298
298
298
298
298
298
298
298
298
298
298
298
298
298
298
298
298
298
298
298
298
298
298
298
298
298
298
298
298
298
298
298
298
298
298
298
298
298
298
298
298
298
298
298
298
298
298
298
298
298
298
298
298
298
298
298
298
298
298
298
298
298
298
298
298
298
298
298
298
298
298
298
298
298
298
298
298
298
298
298
298
298
298
298
298
298
298
298
298
298
298
298
298
298
298
298
298
298
298
298
298
298
298
298
298
298
298
298
298
298
298
298
298
298
298
298
298
298
298
298
298
298
298
298
298
298
298
298
298
298
298
298
298
298
297.989
297.989
297.989
297.989
297.989
297.989
297.989
297.989
297.989
297.989
297.989
297.989
297.989
297.989
297.989
297.989
297.989
297.989
297.989
297.989
297.989
297.989
297.989
297.989
297.989
297.989
297.989
297.99
297.99
297.99
297.99
297.99
297.99
297.99
297.99
297.99
297.99
297.99
297.99
297.99
297.99
297.99
297.991
297.991
297.991
297.991
297.991
297.991
297.991
297.991
297.991
297.991
297.991
297.992
297.992
297.992
297.992
297.992
297.992
297.992
297.992
297.992
297.992
297.993
297.993
297.993
297.993
297.993
297.993
297.993
297.993
297.994
297.994
297.994
297.994
297.994
297.994
297.994
297.994
297.995
297.995
297.995
297.995
297.995
297.995
297.995
297.996
297.996
297.996
297.996
297.996
297.996
297.996
297.997
297.997
297.997
297.997
297.997
297.997
297.997
297.998
297.998
297.998
297.998
297.998
297.998
297.998
297.998
297.998
297.999
297.999
297.999
297.999
297.999
297.999
297.999
297.999
297.999
297.999
297.999
297.999
297.999
298
298
298
298
298
298
298
298
298
298
298
298
298
298
298
298
298
298
298
298
298
298
298
298
298
298
298
298
298
298
298
298
298
298
298
298
298
298
298
298
298
298
298
298
298
298
298
298
298
298
298
298
298
298
298
298
298
298
298
298
298
298
298
298
298
298
298
298
298
298
298
298
298
298
298
298
298
298
298
298
298
298
298
298
298
298
298
298
298
298
298
298
298
298
298
298
298
298
298
298
298
298
298
298
298
298
298
298
298
298
298
298
298
298
298
298
298
298
298
298
298
298
298
298
298
298
298
298
298
298
298
298
298
298
298
298
298
298
298
298
298
298
298
298
298
298
298
298
298
298
298
298
298
298
298
298
298
298
298
298
298
298
298
298
298
298
298
298
298
298
298
298
298
298
298
298
298
298
297.994
297.994
297.994
297.994
297.994
297.994
297.994
297.994
297.994
297.994
297.994
297.994
297.994
297.994
297.994
297.994
297.994
297.994
297.994
297.994
297.994
297.994
297.994
297.994
297.994
297.994
297.994
297.994
297.994
297.994
297.994
297.994
297.994
297.994
297.995
297.995
297.995
297.995
297.995
297.995
297.995
297.995
297.995
297.995
297.995
297.995
297.995
297.995
297.995
297.995
297.995
297.995
297.995
297.996
297.996
297.996
297.996
297.996
297.996
297.996
297.996
297.996
297.996
297.996
297.996
297.996
297.997
297.997
297.997
297.997
297.997
297.997
297.997
297.997
297.997
297.997
297.997
297.997
297.998
297.998
297.998
297.998
297.998
297.998
297.998
297.998
297.998
297.998
297.998
297.998
297.998
297.999
297.999
297.999
297.999
297.999
297.999
297.999
297.999
297.999
297.999
297.999
297.999
297.999
297.999
297.999
297.999
298
298
298
298
298
298
298
298
298
298
298
298
298
298
298
298
298
298
298
298
298
298
298
298
298
298
298
298
298
298
298
298
298
298
298
298
298
298
298
298
298
298
298
298
298
298
298
298
298
298
298
298
298
298
298
298
298
298
298
298
298
298
298
298
298
298
298
298
298
298
298
298
298
298
298
298
298
298
298
298
298
298
298
298
298
298
298
298
298
298
298
298
298
298
298
298
298
298
298
298
298
298
298
298
298
298
298
298
298
298
298
298
298
298
298
298
298
298
298
298
298
298
298
298
298
298
298
298
298
298
298
298
298
298
298
298
298
298
298
298
298
298
298
298
298
298
298
298
298
298
298
298
298
298
298
298
298
298
298
298
298
298
298
298
298
298
298
298
298
298
298
298
298
298
298
298
298
298
298
298
298
298
298
298
298
298
298
298
298
298
298
298
298
297.998
297.998
297.998
297.998
297.998
297.998
297.998
297.998
297.998
297.998
297.998
297.998
297.998
297.998
297.998
297.998
297.998
297.998
297.998
297.998
297.998
297.998
297.998
297.998
297.998
297.998
297.998
297.998
297.998
297.998
297.998
297.998
297.998
297.998
297.998
297.998
297.998
297.998
297.998
297.998
297.998
297.998
297.998
297.998
297.998
297.998
297.998
297.998
297.998
297.998
297.998
297.998
297.998
297.998
297.998
297.998
297.998
297.998
297.999
297.999
297.999
297.999
297.999
297.999
297.999
297.999
297.999
297.999
297.999
297.999
297.999
297.999
297.999
297.999
297.999
297.999
297.999
297.999
297.999
297.999
297.999
297.999
297.999
298
298
298
298
298
298
298
298
298
298
298
298
298
298
298
298
298
298
298
298
298
298
298
298
298
298
298
298
298
298
298
298
298
298
298
298
298
298
298
298
298
298
298
298
298
298
298
298
298
298
298
298
298
298
298
298
298
298
298
298
298
298
298
298
298
298
298
298
298
298
298
298
298
298
298
298
298
298
298
298
298
298
298
298
298
298
298
298
298
298
298
298
298
298
298
298
298
298
298
298
298
298
298
298
298
298
298
298
298
298
298
298
298
298
298
298
298
298
298
298
298
298
298
298
298
298
298
298
298
298
298
298
298
298
298
298
298
298
298
298
298
298
298
298
298
298
298
298
298
298
298
298
298
298
298
298
298
298
298
298
298
298
298
298
298
298
298
298
298
298
298
298
298
298
298
298
298
298
298
298
298
298
298
298
298
298
298
298
298
298
298
298
298
298
298
298
298
298
298
298
298
298
298
298
298
298
298
298
298
298
298
298
298
298
298
298
298
297.999
297.999
297.999
297.999
297.999
297.999
297.999
297.999
297.999
297.999
297.999
297.999
297.999
297.999
297.999
297.999
297.999
297.999
297.999
297.999
297.999
297.999
297.999
297.999
297.999
297.999
297.999
297.999
297.999
297.999
297.999
297.999
297.999
297.999
297.999
297.999
298
298
298
298
298
298
298
298
298
298
298
298
298
298
298
298
298
298
298
298
298
298
298
298
298
298
298
298
298
298
298
298
298
298
298
298
298
298
298
298
298
298
298
298
298
298
298
298
298
298
298
298
298
298
298
298
298
298
298
298
298
298
298
298
298
298
298
298
298
298
298
298
298
298
298
298
298
298
298
298
298
298
298
298
298
298
298
298
298
298
298
298
298
298
298
298
298
298
298
298
298
298
298
298
298
298
298
298
298
298
298
298
298
298
298
298
298
298
298
298
298
298
298
298
298
298
298
298
298
298
298
298
298
298
298
298
298
298
298
298
298
298
298
298
298
298
298
298
298
298
298
298
298
298
298
298
298
298
298
298
298
298
298
298
298
298
298
298
298
298
298
298
298
298
298
298
298
298
298
298
298
298
298
298
298
298
298
298
298
298
298
298
298
298
298
298
298
298
298
298
298
298
298
298
298
298
298
298
298
298
298
298
298
298
298
298
298
298
298
298
298
298
298
298
298
298
298
298
298
298
298
298
298
298
298
298
298
298
298
298
298
298
298
298
298
298
298
298
298
298
298
298
298
298
298
298
298
298
298
298
298
298
298
298
298
298
298
298
298
298
298
298
298
298
298
298
298
298
298
298
298
298
298
298
298
298
298
298
298
298
298
298
298
298
298
298
298
298
298
298
298
298
298
298
298
298
298
298
298
298
298
298
298
298
298
298
298
298
298
298
298
298
298
298
298
298
298
298
298
298
298
298
298
298
298
298
298
298
298
298
298
298
298
298
298
298
298
298
298
298
298
298
298
298
298
298
298
298
298
298
298
298
298
298
298
298
298
298
298
298
298
298
298
298
298
298
298
298
298
298
298
298
298
298
298
298
298
298
298
298
298
298
298
298
298
298
298
298
298
298
298
298
298
298
298
298
298
298
298
298
298
298
298
298
298
298
298
298
298
298
298
298
298
298
298
298
298
298
298
298
298
298
298
298
298
298
298
298
298
298
298
298
298
298
298
298
298
298
298
298
298
298
298
298
298
298
298
298
298
298
298
298
298
298