/*--------------------------------*- C++ -*----------------------------------*\
| =========                 |                                                 |
| \\      /  F ield         | OpenFOAM: The Open Source CFD Toolbox           |
|  \\    /   O peration     | Version:  2.4.0                                 |
|   \\  /    A nd           | Web:      www.OpenFOAM.org                      |
|    \\/     M anipulation  |                                                 |
\*---------------------------------------------------------------------------*/
FoamFile
{
    version     2.0;
    format      ascii;
    class       volScalarField;
    location    "0.004";
    object      H;
}
// * * * * * * * * * * * * * * * * * * * * * * * * * * * * * * * * * * * * * //

dimensions      [0 2 -2 0 0 0 0];

internalField   nonuniform List<scalar> 
125
(
-0.982221
-0.88944
-0.805024
-0.728193
-0.658253
-0.594584
-0.536632
-0.483898
-0.435931
-0.392323
-0.352704
-0.316735
-0.284108
-0.25454
-0.22777
-0.203559
-0.181689
-0.161955
-0.144172
-0.128167
-0.113781
-0.100869
-0.0892948
-0.078935
-0.0696756
-0.0614118
-0.0540476
-0.047495
-0.0416735
-0.0365095
-0.031936
-0.0278918
-0.0243213
-0.0211743
-0.0184049
-0.0159719
-0.013838
-0.0119694
-0.0103361
-0.00891068
-0.00766894
-0.00658904
-0.00565153
-0.00483905
-0.00413617
-0.0035292
-0.00300598
-0.00255578
-0.0021691
-0.0018376
-0.00155392
-0.00131163
-0.00110506
-0.000929293
-0.000780012
-0.000653471
-0.000546413
-0.000456016
-0.000379836
-0.000315764
-0.000261983
-0.000216931
-0.000179267
-0.000147844
-0.000121681
-9.99433e-05
-8.19196e-05
-6.70069e-05
-5.46941e-05
-4.45497e-05
-3.62097e-05
-2.9368e-05
-2.37676e-05
-1.91933e-05
-1.54655e-05
-1.24342e-05
-9.97477e-06
-7.9839e-06
-6.37597e-06
-5.08028e-06
-4.03862e-06
-3.20312e-06
-2.53456e-06
-2.00084e-06
-1.57579e-06
-1.23808e-06
-9.70406e-07
-7.58776e-07
-5.91853e-07
-4.60514e-07
-3.57434e-07
-2.76757e-07
-2.13736e-07
-1.6465e-07
-1.26516e-07
-9.69684e-08
-7.41291e-08
-5.6517e-08
-4.29822e-08
-3.26048e-08
-2.46636e-08
-1.86061e-08
-1.39963e-08
-1.05027e-08
-7.85461e-09
-5.87065e-09
-4.35848e-09
-3.24381e-09
-2.38501e-09
-1.7679e-09
-1.29605e-09
-9.58999e-10
-6.74893e-10
-5.21036e-10
-3.63272e-10
-2.65842e-10
-1.91122e-10
-1.48181e-10
-1.02429e-10
-4.83294e-11
-6.51319e-11
-3.39218e-11
-6.32729e-11
-4.6952e-11
-1.46694e-11
)
;

boundaryField
{
    BotWall
    {
        type            zeroGradient;
    }
    FreeStream
    {
        type            zeroGradient;
    }
    FrontNBack
    {
        type            empty;
    }
    LeftSide
    {
        type            symmetryPlane;
    }
    RightSide
    {
        type            symmetryPlane;
    }
    procBoundary8to5
    {
        type            processor;
        value           nonuniform List<scalar> 
50
(
-1.27997e-05
-1.02687e-05
-8.21966e-06
-6.56463e-06
-5.23092e-06
-4.15862e-06
-3.29845e-06
-2.61014e-06
-2.06061e-06
-1.62294e-06
-1.27516e-06
-9.99518e-07
-7.81569e-07
-6.09659e-07
-4.74385e-07
-3.68237e-07
-2.85095e-07
-2.20189e-07
-1.69628e-07
-1.30346e-07
-9.99057e-08
-7.63668e-08
-5.82299e-08
-4.42946e-08
-3.35917e-08
-2.54067e-08
-1.91678e-08
-1.44363e-08
-1.08098e-08
-8.10089e-09
-6.04286e-09
-4.49653e-09
-3.33416e-09
-2.4682e-09
-1.82185e-09
-1.32651e-09
-9.87747e-10
-6.92528e-10
-5.52646e-10
-3.65963e-10
-2.59643e-10
-2.05263e-10
-1.53926e-10
-1.0763e-10
-6.09037e-11
-4.60015e-11
-5.74054e-11
-4.87969e-11
-4.20047e-11
-2.43827e-11
)
;
    }
    procBoundary8to6
    {
        type            processor;
        value           nonuniform List<scalar> 
75
(
-1.01456
-0.91736
-0.829174
-0.74913
-0.676449
-0.610439
-0.550483
-0.496031
-0.446586
-0.401704
-0.360982
-0.324055
-0.290592
-0.260292
-0.23288
-0.208104
-0.185733
-0.165556
-0.147379
-0.131023
-0.116324
-0.103131
-0.0913065
-0.0807226
-0.0712626
-0.0628192
-0.0552943
-0.0485979
-0.0426479
-0.0373692
-0.0326933
-0.0285579
-0.0249063
-0.0216872
-0.0188539
-0.0163642
-0.0141802
-0.0122675
-0.0105952
-0.00913551
-0.00786369
-0.00675743
-0.00579685
-0.00496424
-0.00424382
-0.00362158
-0.00308511
-0.00262343
-0.00222683
-0.00188677
-0.00159572
-0.00134708
-0.00113508
-0.000954658
-0.000801402
-0.000671472
-0.000561533
-0.000468689
-0.000390436
-0.000324612
-0.000269353
-0.000223057
-0.000184348
-0.00015205
-0.000125155
-0.000102806
-8.42741e-05
-6.89388e-05
-5.62758e-05
-4.58417e-05
-3.72627e-05
-3.02242e-05
-2.44622e-05
-1.97554e-05
-1.59192e-05
)
;
    }
    procBoundary8to7
    {
        type            processor;
        value           uniform 7.49471e-23;
    }
    procBoundary8to9
    {
        type            processor;
        value           uniform -1.08426;
    }
    procBoundary8to10
    {
        type            processor;
        value           nonuniform List<scalar> 
75
(
-0.00156975
-0.00132509
-0.00111649
-0.000938968
-0.000788189
-0.000660369
-0.00055222
-0.000460894
-0.000383925
-0.000319185
-0.000264839
-0.00021931
-0.000181244
-0.000149484
-0.000123039
-0.000101064
-8.28435e-05
-6.77665e-05
-5.53173e-05
-4.50598e-05
-3.66263e-05
-2.97074e-05
-2.40435e-05
-1.94171e-05
-1.56466e-05
-1.25804e-05
-1.00925e-05
-8.07853e-06
-6.4518e-06
-5.14092e-06
-4.08701e-06
-3.24162e-06
-2.56513e-06
-2.02506e-06
-1.59491e-06
-1.25316e-06
-9.82236e-07
-7.68061e-07
-5.99124e-07
-4.66178e-07
-3.61843e-07
-2.80182e-07
-2.16375e-07
-1.66703e-07
-1.28083e-07
-9.81706e-08
-7.50673e-08
-5.72255e-08
-4.3522e-08
-3.30066e-08
-2.49794e-08
-1.88347e-08
-1.41816e-08
-1.06316e-08
-7.95584e-09
-5.94315e-09
-4.41582e-09
-3.27675e-09
-2.4363e-09
-1.78412e-09
-1.29586e-09
-9.79102e-10
-6.78698e-10
-5.39736e-10
-3.69784e-10
-2.60964e-10
-1.93895e-10
-1.49139e-10
-1.02143e-10
-6.20529e-11
-5.37223e-11
-4.26499e-11
-5.95834e-11
-4.41412e-11
-1.75108e-11
)
;
    }
    procBoundary8to11
    {
        type            processor;
        value           nonuniform List<scalar> 
50
(
-0.993958
-0.899491
-0.813652
-0.73562
-0.664667
-0.600141
-0.541464
-0.488113
-0.439621
-0.395564
-0.35556
-0.319259
-0.286343
-0.256524
-0.229534
-0.205131
-0.183091
-0.163206
-0.145289
-0.129165
-0.114672
-0.101664
-0.0900043
-0.0795676
-0.070239
-0.0619132
-0.0544932
-0.0478905
-0.0420241
-0.0368198
-0.0322102
-0.0281337
-0.0245344
-0.0213617
-0.0185694
-0.0161161
-0.0139641
-0.0120796
-0.0104321
-0.00899421
-0.00774147
-0.00665191
-0.00570591
-0.004886
-0.00417663
-0.00356398
-0.00303582
-0.00258133
-0.00219092
-0.0018562
)
;
    }
}


// ************************************************************************* //
