/*--------------------------------*- C++ -*----------------------------------*\
| =========                 |                                                 |
| \\      /  F ield         | OpenFOAM: The Open Source CFD Toolbox           |
|  \\    /   O peration     | Version:  2.4.0                                 |
|   \\  /    A nd           | Web:      www.OpenFOAM.org                      |
|    \\/     M anipulation  |                                                 |
\*---------------------------------------------------------------------------*/
FoamFile
{
    version     2.0;
    format      ascii;
    class       volScalarField;
    location    "0.004";
    object      p;
}
// * * * * * * * * * * * * * * * * * * * * * * * * * * * * * * * * * * * * * //

dimensions      [1 -1 -2 0 0 0 0];

internalField   nonuniform List<scalar> 
125
(
-0.0380263
-0.0381826
-0.0383394
-0.0384968
-0.0386547
-0.0388133
-0.0389724
-0.0391322
-0.0392925
-0.0394534
-0.0396149
-0.039777
-0.0399397
-0.040103
-0.0402669
-0.0404314
-0.0405965
-0.0407623
-0.0409286
-0.0410956
-0.0412631
-0.0414313
-0.0416001
-0.0417696
-0.0419396
-0.0421103
-0.0422816
-0.0424536
-0.0426262
-0.0427994
-0.0429733
-0.0431478
-0.0433229
-0.0434987
-0.0436752
-0.0438523
-0.04403
-0.0442084
-0.0443875
-0.0445672
-0.0447476
-0.0449287
-0.0451104
-0.0452928
-0.0454759
-0.0456596
-0.0458441
-0.0460292
-0.046215
-0.0464014
-0.0465886
-0.0467765
-0.046965
-0.0471543
-0.0473442
-0.0475348
-0.0477262
-0.0479183
-0.048111
-0.0483045
-0.0484987
-0.0486936
-0.0488892
-0.0490856
-0.0492827
-0.0494805
-0.049679
-0.0498783
-0.0500783
-0.050279
-0.0504805
-0.0506827
-0.0508857
-0.0510894
-0.0512939
-0.0514991
-0.0517051
-0.0519118
-0.0521194
-0.0523276
-0.0525367
-0.0527465
-0.0529571
-0.0531684
-0.0533806
-0.0535935
-0.0538072
-0.0540217
-0.054237
-0.0544531
-0.05467
-0.0548877
-0.0551062
-0.0553255
-0.0555456
-0.0557665
-0.0559883
-0.0562108
-0.0564342
-0.0566584
-0.0568834
-0.0571093
-0.057336
-0.0575635
-0.0577919
-0.0580211
-0.0582512
-0.0584821
-0.0587138
-0.0589464
-0.0591799
-0.0594142
-0.0596494
-0.0598855
-0.0601224
-0.0603603
-0.0605989
-0.0608385
-0.061079
-0.0613203
-0.0615625
-0.0618057
-0.0620497
-0.0622946
-0.0625404
)
;

boundaryField
{
    BotWall
    {
        type            calculated;
        value           nonuniform 0();
    }
    FreeStream
    {
        type            calculated;
        value           nonuniform 0();
    }
    FrontNBack
    {
        type            empty;
    }
    LeftSide
    {
        type            symmetryPlane;
    }
    RightSide
    {
        type            symmetryPlane;
    }
    procBoundary8to5
    {
        type            processor;
        value           nonuniform List<scalar> 
50
(
-0.0513973
-0.051604
-0.0518115
-0.0520197
-0.0522288
-0.0524385
-0.0526491
-0.0528604
-0.0530725
-0.0532854
-0.0534991
-0.0537136
-0.0539288
-0.0541448
-0.0543617
-0.0545793
-0.0547977
-0.0550169
-0.055237
-0.0554578
-0.0556795
-0.0559019
-0.0561252
-0.0563493
-0.0565743
-0.0568
-0.0570266
-0.057254
-0.0574823
-0.0577114
-0.0579413
-0.0581721
-0.0584037
-0.0586362
-0.0588695
-0.0591037
-0.0593388
-0.0595747
-0.0598115
-0.0600491
-0.0602876
-0.060527
-0.0607673
-0.0610085
-0.0612505
-0.0614935
-0.0617373
-0.0619821
-0.0622277
-0.0624742
)
;
    }
    procBoundary8to6
    {
        type            processor;
        value           nonuniform List<scalar> 
75
(
-0.0378655
-0.0380226
-0.0381802
-0.0383384
-0.0384971
-0.0386565
-0.0388164
-0.038977
-0.0391381
-0.0392998
-0.0394621
-0.039625
-0.0397885
-0.0399526
-0.0401173
-0.0402826
-0.0404485
-0.040615
-0.0407822
-0.0409499
-0.0411183
-0.0412873
-0.0414569
-0.0416271
-0.041798
-0.0419694
-0.0421416
-0.0423143
-0.0424877
-0.0426617
-0.0428364
-0.0430117
-0.0431876
-0.0433642
-0.0435414
-0.0437193
-0.0438979
-0.0440771
-0.0442569
-0.0444374
-0.0446186
-0.0448005
-0.044983
-0.0451662
-0.04535
-0.0455346
-0.0457198
-0.0459057
-0.0460922
-0.0462795
-0.0464674
-0.0466561
-0.0468454
-0.0470355
-0.0472262
-0.0474176
-0.0476097
-0.0478026
-0.0479961
-0.0481904
-0.0483853
-0.048581
-0.0487774
-0.0489746
-0.0491724
-0.049371
-0.0495703
-0.0497703
-0.0499711
-0.0501726
-0.0503749
-0.0505779
-0.0507816
-0.0509861
-0.0511913
)
;
    }
    procBoundary8to7
    {
        type            processor;
        value           uniform -0.0627871;
    }
    procBoundary8to9
    {
        type            processor;
        value           uniform -0.0378706;
    }
    procBoundary8to10
    {
        type            processor;
        value           nonuniform List<scalar> 
75
(
-0.0465223
-0.0467106
-0.0468995
-0.0470892
-0.0472795
-0.0474706
-0.0476623
-0.0478547
-0.0480479
-0.0482418
-0.0484363
-0.0486316
-0.0488277
-0.0490244
-0.0492219
-0.0494201
-0.049619
-0.0498187
-0.050019
-0.0502202
-0.0504221
-0.0506247
-0.050828
-0.0510321
-0.051237
-0.0514426
-0.051649
-0.0518561
-0.052064
-0.0522727
-0.0524821
-0.0526923
-0.0529033
-0.0531151
-0.0533276
-0.0535409
-0.0537551
-0.0539699
-0.0541856
-0.0544021
-0.0546194
-0.0548375
-0.0550564
-0.055276
-0.0554965
-0.0557179
-0.05594
-0.0561629
-0.0563867
-0.0566113
-0.0568367
-0.0570629
-0.05729
-0.0575179
-0.0577467
-0.0579763
-0.0582067
-0.058438
-0.0586702
-0.0589032
-0.059137
-0.0593718
-0.0596074
-0.0598438
-0.0600811
-0.0603193
-0.0605584
-0.0607984
-0.0610392
-0.0612809
-0.0615235
-0.0617671
-0.0620115
-0.0622568
-0.062503
)
;
    }
    procBoundary8to11
    {
        type            processor;
        value           nonuniform List<scalar> 
50
(
-0.0379354
-0.0380921
-0.0382495
-0.0384074
-0.0385658
-0.0387249
-0.0388845
-0.0390448
-0.0392056
-0.039367
-0.039529
-0.0396916
-0.0398548
-0.0400186
-0.040183
-0.040348
-0.0405136
-0.0406799
-0.0408467
-0.0410141
-0.0411822
-0.0413509
-0.0415202
-0.0416901
-0.0418607
-0.0420319
-0.0422037
-0.0423762
-0.0425492
-0.042723
-0.0428973
-0.0430723
-0.043248
-0.0434243
-0.0436012
-0.0437788
-0.043957
-0.0441359
-0.0443155
-0.0444957
-0.0446766
-0.0448582
-0.0450404
-0.0452233
-0.0454068
-0.0455911
-0.045776
-0.0459616
-0.0461478
-0.0463347
)
;
    }
}


// ************************************************************************* //
