/*--------------------------------*- C++ -*----------------------------------*\
| =========                 |                                                 |
| \\      /  F ield         | OpenFOAM: The Open Source CFD Toolbox           |
|  \\    /   O peration     | Version:  2.4.0                                 |
|   \\  /    A nd           | Web:      www.OpenFOAM.org                      |
|    \\/     M anipulation  |                                                 |
\*---------------------------------------------------------------------------*/
FoamFile
{
    version     2.0;
    format      ascii;
    class       volScalarField;
    location    "0.007";
    object      p;
}
// * * * * * * * * * * * * * * * * * * * * * * * * * * * * * * * * * * * * * //

dimensions      [1 -1 -2 0 0 0 0];

internalField   nonuniform List<scalar> 
125
(
-0.12132
0.458738
-2.68205
-0.300913
0.0668656
0.0176148
-0.0164889
-0.0229578
-0.0213358
-0.0202192
-0.0201412
-0.0203526
-0.0205435
-0.0206956
-0.0208375
-0.0209809
-0.0211263
-0.0212727
-0.0214195
-0.0215669
-0.0217147
-0.0218631
-0.0220121
-0.0221616
-0.0223116
-0.0224622
-0.0226134
-0.0227651
-0.0229174
-0.0230702
-0.0232236
-0.0233775
-0.0235321
-0.0236872
-0.0238428
-0.0239991
-0.0241559
-0.0243133
-0.0244712
-0.0246298
-0.0247889
-0.0249486
-0.025109
-0.0252699
-0.0254313
-0.0255934
-0.0257561
-0.0259194
-0.0260833
-0.0262478
-0.0264128
-0.0265785
-0.0267448
-0.0269118
-0.0270793
-0.0272475
-0.0274162
-0.0275856
-0.0277556
-0.0279263
-0.0280975
-0.0282694
-0.028442
-0.0286151
-0.0287889
-0.0289634
-0.0291385
-0.0293142
-0.0294906
-0.0296676
-0.0298453
-0.0300236
-0.0302026
-0.0303822
-0.0305625
-0.0307435
-0.0309252
-0.0311075
-0.0312904
-0.0314741
-0.0316584
-0.0318434
-0.0320291
-0.0322155
-0.0324025
-0.0325903
-0.0327787
-0.0329678
-0.0331577
-0.0333482
-0.0335394
-0.0337314
-0.033924
-0.0341173
-0.0343114
-0.0345062
-0.0347016
-0.0348979
-0.0350948
-0.0352924
-0.0354908
-0.0356899
-0.0358898
-0.0360904
-0.0362917
-0.0364937
-0.0366965
-0.0369001
-0.0371044
-0.0373095
-0.0375153
-0.0377218
-0.0379291
-0.0381372
-0.0383461
-0.0385557
-0.0387661
-0.0389773
-0.0391892
-0.039402
-0.0396155
-0.0398298
-0.0400448
-0.0402607
-0.0404773
)
;

boundaryField
{
    BotWall
    {
        type            calculated;
        value           uniform -0.116376;
    }
    FreeStream
    {
        type            calculated;
        value           nonuniform 0();
    }
    FrontNBack
    {
        type            empty;
    }
    LeftSide
    {
        type            symmetryPlane;
    }
    RightSide
    {
        type            symmetryPlane;
    }
    procBoundary11to8
    {
        type            processor;
        value           nonuniform List<scalar> 
50
(
-0.0307404
-0.030922
-0.0311043
-0.0312872
-0.0314708
-0.0316551
-0.0318401
-0.0320257
-0.0322121
-0.0323991
-0.0325868
-0.0327752
-0.0329643
-0.0331541
-0.0333446
-0.0335358
-0.0337277
-0.0339203
-0.0341136
-0.0343076
-0.0345023
-0.0346978
-0.034894
-0.0350909
-0.0352885
-0.0354868
-0.0356859
-0.0358857
-0.0360863
-0.0362876
-0.0364896
-0.0366924
-0.0368959
-0.0371002
-0.0373052
-0.037511
-0.0377175
-0.0379248
-0.0381328
-0.0383417
-0.0385513
-0.0387616
-0.0389728
-0.0391847
-0.0393974
-0.0396109
-0.0398251
-0.0400402
-0.040256
-0.0404727
)
;
    }
    procBoundary11to9
    {
        type            processor;
        value           nonuniform List<scalar> 
75
(
-0.121516
0.45611
-2.66645
-0.299784
0.0665716
0.0175158
-0.0164883
-0.0229431
-0.0213276
-0.0202146
-0.020137
-0.0203483
-0.020539
-0.0206911
-0.0208331
-0.0209765
-0.021122
-0.0212684
-0.0214152
-0.0215626
-0.0217105
-0.0218589
-0.0220079
-0.0221574
-0.0223075
-0.0224581
-0.0226093
-0.022761
-0.0229133
-0.0230661
-0.0232196
-0.0233735
-0.0235281
-0.0236832
-0.0238389
-0.0239952
-0.024152
-0.0243094
-0.0244674
-0.024626
-0.0247851
-0.0249449
-0.0251052
-0.0252661
-0.0254276
-0.0255897
-0.0257524
-0.0259157
-0.0260797
-0.0262442
-0.0264093
-0.026575
-0.0267413
-0.0269083
-0.0270758
-0.027244
-0.0274128
-0.0275822
-0.0277522
-0.0279229
-0.0280942
-0.0282661
-0.0284387
-0.0286118
-0.0287857
-0.0289601
-0.0291352
-0.029311
-0.0294874
-0.0296644
-0.0298421
-0.0300205
-0.0301995
-0.0303791
-0.0305594
)
;
    }
    procBoundary11to10
    {
        type            processor;
        value           uniform -0.0406948;
    }
}


// ************************************************************************* //
