/*--------------------------------*- C++ -*----------------------------------*\
| =========                 |                                                 |
| \\      /  F ield         | OpenFOAM: The Open Source CFD Toolbox           |
|  \\    /   O peration     | Version:  2.4.0                                 |
|   \\  /    A nd           | Web:      www.OpenFOAM.org                      |
|    \\/     M anipulation  |                                                 |
\*---------------------------------------------------------------------------*/
FoamFile
{
    version     2.0;
    format      ascii;
    class       volScalarField;
    location    "0.007";
    object      T;
}
// * * * * * * * * * * * * * * * * * * * * * * * * * * * * * * * * * * * * * //

dimensions      [0 0 0 1 0 0 0];

internalField   nonuniform List<scalar> 
125
(
293.98
295.947
297.966
297.966
297.967
297.968
297.968
297.969
297.97
297.971
297.971
297.972
297.973
297.973
297.974
297.975
297.975
297.976
297.977
297.977
297.978
297.978
297.979
297.98
297.98
297.981
297.981
297.982
297.983
297.983
297.984
297.984
297.985
297.985
297.986
297.986
297.987
297.987
297.988
297.988
297.989
297.989
297.99
297.99
297.991
297.991
297.991
297.992
297.992
297.992
297.993
297.993
297.994
297.994
297.994
297.994
297.995
297.995
297.995
297.996
297.996
297.996
297.996
297.996
297.997
297.997
297.997
297.997
297.997
297.998
297.998
297.998
297.998
297.998
297.998
297.998
297.998
297.999
297.999
297.999
297.999
297.999
297.999
297.999
297.999
297.999
297.999
297.999
297.999
297.999
297.999
298
298
298
298
298
298
298
298
298
298
298
298
298
298
298
298
298
298
298
298
298
298
298
298
298
298
298
298
298
298
298
298
298
298
)
;

boundaryField
{
    BotWall
    {
        type            fixedValue;
        value           uniform 293;
    }
    FreeStream
    {
        type            fixedValue;
        value           nonuniform 0();
    }
    FrontNBack
    {
        type            empty;
    }
    LeftSide
    {
        type            symmetryPlane;
    }
    RightSide
    {
        type            symmetryPlane;
    }
    procBoundary11to8
    {
        type            processor;
        value           nonuniform List<scalar> 
50
(
297.998
297.998
297.999
297.999
297.999
297.999
297.999
297.999
297.999
297.999
297.999
297.999
297.999
297.999
297.999
297.999
298
298
298
298
298
298
298
298
298
298
298
298
298
298
298
298
298
298
298
298
298
298
298
298
298
298
298
298
298
298
298
298
298
298
)
;
    }
    procBoundary11to9
    {
        type            processor;
        value           nonuniform List<scalar> 
75
(
293.979
295.944
297.966
297.966
297.967
297.967
297.968
297.969
297.97
297.97
297.971
297.972
297.972
297.973
297.974
297.974
297.975
297.976
297.976
297.977
297.978
297.978
297.979
297.979
297.98
297.981
297.981
297.982
297.982
297.983
297.984
297.984
297.985
297.985
297.986
297.986
297.987
297.987
297.988
297.988
297.989
297.989
297.99
297.99
297.99
297.991
297.991
297.992
297.992
297.992
297.993
297.993
297.993
297.994
297.994
297.994
297.995
297.995
297.995
297.995
297.996
297.996
297.996
297.996
297.997
297.997
297.997
297.997
297.997
297.998
297.998
297.998
297.998
297.998
297.998
)
;
    }
    procBoundary11to10
    {
        type            processor;
        value           uniform 298;
    }
}


// ************************************************************************* //
