/*--------------------------------*- C++ -*----------------------------------*\
| =========                 |                                                 |
| \\      /  F ield         | OpenFOAM: The Open Source CFD Toolbox           |
|  \\    /   O peration     | Version:  2.4.0                                 |
|   \\  /    A nd           | Web:      www.OpenFOAM.org                      |
|    \\/     M anipulation  |                                                 |
\*---------------------------------------------------------------------------*/
FoamFile
{
    version     2.0;
    format      ascii;
    class       volScalarField;
    location    "1.1";
    object      T;
}
// * * * * * * * * * * * * * * * * * * * * * * * * * * * * * * * * * * * * * //

dimensions      [0 0 0 1 0 0 0];

internalField   nonuniform List<scalar> 
125
(
293.177
293.177
293.177
293.177
293.177
293.533
293.534
293.534
293.534
293.533
293.894
293.894
293.894
293.894
293.894
294.258
294.258
294.258
294.258
294.258
294.627
294.627
294.627
294.627
294.627
295
295
295
295
295
295.378
295.378
295.378
295.378
295.378
295.76
295.76
295.76
295.76
295.76
296.147
296.147
296.147
296.147
296.147
296.54
296.54
296.54
296.54
296.54
296.937
296.937
296.937
296.937
296.937
297.341
297.341
297.341
297.341
297.341
297.96
297.96
297.96
297.96
297.96
297.959
297.959
297.959
297.959
297.959
297.959
297.959
297.959
297.959
297.959
297.959
297.959
297.959
297.959
297.959
297.958
297.958
297.958
297.958
297.958
297.958
297.958
297.958
297.958
297.958
297.957
297.958
297.958
297.958
297.957
297.957
297.957
297.957
297.957
297.957
297.957
297.957
297.957
297.957
297.957
297.957
297.957
297.957
297.957
297.957
297.957
297.957
297.957
297.957
297.957
297.957
297.957
297.957
297.957
297.957
297.957
297.957
297.957
297.957
297.957
)
;

boundaryField
{
    BotWall
    {
        type            fixedValue;
        value           uniform 293;
    }
    FreeStream
    {
        type            fixedValue;
        value           nonuniform 0();
    }
    FrontNBack
    {
        type            empty;
    }
    LeftSide
    {
        type            symmetryPlane;
    }
    RightSide
    {
        type            symmetryPlane;
    }
    procBoundary0to1
    {
        type            processor;
        value           nonuniform List<scalar> 5(297.957 297.957 297.957 297.957 297.957);
    }
}


// ************************************************************************* //
