/*--------------------------------*- C++ -*----------------------------------*\
| =========                 |                                                 |
| \\      /  F ield         | OpenFOAM: The Open Source CFD Toolbox           |
|  \\    /   O peration     | Version:  2.4.0                                 |
|   \\  /    A nd           | Web:      www.OpenFOAM.org                      |
|    \\/     M anipulation  |                                                 |
\*---------------------------------------------------------------------------*/
FoamFile
{
    version     2.0;
    format      ascii;
    class       volVectorField;
    location    "1.1";
    object      U;
}
// * * * * * * * * * * * * * * * * * * * * * * * * * * * * * * * * * * * * * //

dimensions      [0 1 -1 0 0 0 0];

internalField   nonuniform List<vector> 
125
(
(1.69921e-10 2.18692e-09 0)
(2.55793e-10 2.21282e-09 0)
(6.33223e-11 2.21322e-09 0)
(-2.77699e-10 2.21307e-09 0)
(-2.5402e-10 2.1868e-09 0)
(5.1595e-10 -7.01712e-09 0)
(7.71909e-10 -7.07444e-09 0)
(1.89502e-10 -7.06783e-09 0)
(-8.38338e-10 -7.07138e-09 0)
(-7.68492e-10 -7.01865e-09 0)
(8.62548e-10 1.34893e-08 0)
(1.2875e-09 1.3625e-08 0)
(3.15504e-10 1.36425e-08 0)
(-1.39946e-09 1.36339e-08 0)
(-1.28438e-09 1.34849e-08 0)
(1.22182e-09 -4.75888e-09 0)
(1.8143e-09 -4.85866e-09 0)
(4.41106e-10 -4.82098e-09 0)
(-1.97296e-09 -4.84043e-09 0)
(-1.81375e-09 -4.76806e-09 0)
(1.57802e-09 3.14342e-08 0)
(2.33655e-09 3.16968e-08 0)
(5.66295e-10 3.1757e-08 0)
(-2.54279e-09 3.17269e-08 0)
(-2.34062e-09 3.14188e-08 0)
(1.95074e-09 -8.70924e-08 0)
(2.87413e-09 -8.72625e-08 0)
(6.91633e-10 -8.7171e-08 0)
(-3.12902e-09 -8.72188e-08 0)
(-2.88532e-09 -8.7115e-08 0)
(2.31808e-09 -2.51681e-07 0)
(3.40531e-09 -2.51355e-07 0)
(8.17317e-10 -2.51238e-07 0)
(-3.71017e-09 -2.51301e-07 0)
(-3.42646e-09 -2.5171e-07 0)
(2.70431e-09 -3.20858e-07 0)
(3.95408e-09 -3.20861e-07 0)
(9.43308e-10 -3.207e-07 0)
(-4.31028e-09 -3.20788e-07 0)
(-3.98834e-09 -3.20895e-07 0)
(3.08852e-09 1.64987e-06 0)
(4.49976e-09 1.65138e-06 0)
(1.06983e-09 1.65166e-06 0)
(-4.90871e-09 1.65153e-06 0)
(-4.55039e-09 1.6498e-06 0)
(3.50226e-09 7.50578e-06 0)
(5.07454e-09 7.50759e-06 0)
(1.19762e-09 7.50817e-06 0)
(-5.53787e-09 7.50796e-06 0)
(-5.14511e-09 7.50561e-06 0)
(3.91659e-09 6.08197e-06 0)
(5.64704e-09 6.08249e-06 0)
(1.32589e-09 6.08321e-06 0)
(-6.16877e-09 6.08295e-06 0)
(-5.74526e-09 6.08171e-06 0)
(4.3152e-09 -3.35001e-05 0)
(6.20853e-09 -3.35077e-05 0)
(1.45665e-09 -3.35084e-05 0)
(-6.79037e-09 -3.35084e-05 0)
(-6.33424e-09 -3.35e-05 0)
(4.72936e-09 -0.000263602 0)
(6.8231e-09 -0.000263626 0)
(1.61798e-09 -0.000263635 0)
(-7.483e-09 -0.000263633 0)
(-6.98766e-09 -0.000263599 0)
(4.92839e-09 -0.00153139 0)
(7.08949e-09 -0.00153138 0)
(1.67315e-09 -0.00153138 0)
(-7.77373e-09 -0.00153138 0)
(-7.26615e-09 -0.00153139 0)
(4.51848e-09 -0.00349373 0)
(6.54674e-09 -0.00349372 0)
(1.78355e-09 -0.00349371 0)
(-7.8088e-09 -0.00349371 0)
(-7.47637e-09 -0.00349373 0)
(2.59315e-09 -0.00195531 0)
(4.39563e-09 -0.00195537 0)
(1.81537e-09 -0.00195537 0)
(-6.19636e-09 -0.00195537 0)
(-6.05429e-09 -0.00195531 0)
(1.26081e-09 -0.00182632 0)
(2.84573e-09 -0.00182633 0)
(1.8507e-09 -0.00182633 0)
(-5.17873e-09 -0.00182633 0)
(-5.22328e-09 -0.00182632 0)
(2.02524e-10 -0.00187404 0)
(1.58176e-09 -0.00187403 0)
(1.89176e-09 -0.00187403 0)
(-4.4408e-09 -0.00187403 0)
(-4.66691e-09 -0.00187404 0)
(-8.41539e-10 -0.00191612 0)
(3.40742e-10 -0.00191612 0)
(1.93558e-09 -0.00191613 0)
(-3.7171e-09 -0.00191613 0)
(-4.12001e-09 -0.00191612 0)
(-1.90335e-09 -0.00192307 0)
(-9.11006e-10 -0.00192308 0)
(1.98029e-09 -0.00192308 0)
(-2.97209e-09 -0.00192308 0)
(-3.54698e-09 -0.00192307 0)
(-2.93245e-09 -0.00192071 0)
(-2.12265e-09 -0.00192072 0)
(2.02565e-09 -0.00192072 0)
(-2.25548e-09 -0.00192072 0)
(-2.99704e-09 -0.00192071 0)
(-3.90387e-09 -0.00191905 0)
(-3.26852e-09 -0.00191905 0)
(2.07172e-09 -0.00191906 0)
(-1.59199e-09 -0.00191906 0)
(-2.49436e-09 -0.00191905 0)
(-4.81624e-09 -0.00191876 0)
(-4.34659e-09 -0.00191877 0)
(2.11848e-09 -0.00191877 0)
(-9.82538e-10 -0.00191877 0)
(-2.03936e-09 -0.00191876 0)
(-5.67235e-09 -0.00191886 0)
(-5.3592e-09 -0.00191887 0)
(2.16579e-09 -0.00191887 0)
(-4.23901e-10 -0.00191887 0)
(-1.6283e-09 -0.00191886 0)
(-6.4727e-09 -0.00191893 0)
(-6.30639e-09 -0.00191894 0)
(2.21348e-09 -0.00191894 0)
(8.51498e-11 -0.00191894 0)
(-1.25949e-09 -0.00191893 0)
)
;

boundaryField
{
    BotWall
    {
        type            fixedValue;
        value           uniform (0 0 0);
    }
    FreeStream
    {
        type            zeroGradient;
    }
    FrontNBack
    {
        type            empty;
    }
    LeftSide
    {
        type            symmetryPlane;
    }
    RightSide
    {
        type            symmetryPlane;
    }
    procBoundary0to1
    {
        type            processor;
        value           nonuniform List<vector> 5((-7.21631e-09 -0.00191894 0) (-7.18684e-09 -0.00191895 0) (2.26136e-09 -0.00191895 0) (5.44115e-10 -0.00191895 0) (-9.32969e-10 -0.00191894 0));
    }
}


// ************************************************************************* //
