/*--------------------------------*- C++ -*----------------------------------*\
| =========                 |                                                 |
| \\      /  F ield         | OpenFOAM: The Open Source CFD Toolbox           |
|  \\    /   O peration     | Version:  2.4.0                                 |
|   \\  /    A nd           | Web:      www.OpenFOAM.org                      |
|    \\/     M anipulation  |                                                 |
\*---------------------------------------------------------------------------*/
FoamFile
{
    version     2.0;
    format      ascii;
    class       surfaceScalarField;
    location    "1.2";
    object      phi;
}
// * * * * * * * * * * * * * * * * * * * * * * * * * * * * * * * * * * * * * //

dimensions      [0 3 -1 0 0 0 0];

internalField   nonuniform List<scalar> 
15580
(
-8.25355e-16
-1.80298e-12
-6.60854e-15
-5.26417e-12
-2.00276e-14
-8.58082e-12
-4.33596e-14
-1.17531e-11
-7.87145e-14
-1.47811e-11
-1.2806e-13
-1.7665e-11
-1.93256e-13
-2.04047e-11
-2.76071e-13
-2.30005e-11
-3.78216e-13
-2.54521e-11
-5.01359e-13
-2.77597e-11
-6.47159e-13
-2.99232e-11
-8.17276e-13
-3.19425e-11
-1.01342e-12
-3.38176e-11
-1.23732e-12
-3.55482e-11
-1.49086e-12
-3.71343e-11
-1.77595e-12
-3.85757e-11
-2.09473e-12
-3.98721e-11
-2.44944e-12
-4.10233e-11
-2.84259e-12
-4.2029e-11
-3.27681e-12
-4.28889e-11
-3.755e-12
-4.36028e-11
-4.28046e-12
-4.41697e-11
-4.85856e-12
-4.45878e-11
-5.49799e-12
-4.48556e-11
-1.24599e-11
-4.4981e-11
-3.50618e-11
-4.50396e-11
-3.58318e-11
-4.49908e-11
-3.67046e-11
-4.46158e-11
-3.75889e-11
-4.43289e-11
-3.84796e-11
-4.4077e-11
-3.93744e-11
-4.38489e-11
-4.02722e-11
-4.36382e-11
-4.11714e-11
-4.34408e-11
-4.20709e-11
-4.3254e-11
-4.29702e-11
-4.3075e-11
-4.38686e-11
-4.29017e-11
-4.47661e-11
-4.27323e-11
-4.56621e-11
-4.25655e-11
-4.65565e-11
-4.24006e-11
-4.74488e-11
-4.22373e-11
-4.83387e-11
-4.20752e-11
-4.9226e-11
-4.19139e-11
-5.01102e-11
-4.17531e-11
-5.09911e-11
-4.15925e-11
-5.18684e-11
-4.14319e-11
-5.27417e-11
-4.12711e-11
-5.36108e-11
-4.11098e-11
-5.44754e-11
-4.09478e-11
-5.53351e-11
-4.0785e-11
-4.06213e-11
-5.61897e-11
-1.01457e-14
-1.79283e-12
-4.25012e-14
-5.23182e-12
-9.77606e-14
-8.52556e-12
-1.76007e-13
-1.16748e-11
-2.7729e-13
-1.46798e-11
-4.01597e-13
-1.75407e-11
-5.48893e-13
-2.02575e-11
-7.19069e-13
-2.28303e-11
-9.12003e-13
-2.52592e-11
-1.12748e-12
-2.75442e-11
-1.36529e-12
-2.96854e-11
-1.62509e-12
-3.16827e-11
-1.90656e-12
-3.35361e-11
-2.20922e-12
-3.52455e-11
-2.53263e-12
-3.68109e-11
-2.8761e-12
-3.82322e-11
-3.23904e-12
-3.95091e-11
-3.62054e-12
-4.06418e-11
-4.0198e-12
-4.16297e-11
-4.43561e-12
-4.24731e-11
-4.86698e-12
-4.31714e-11
-5.31226e-12
-4.37244e-11
-5.76992e-12
-4.41301e-11
-6.2369e-12
-4.43886e-11
-2.80962e-11
-4.45101e-11
-4.15844e-11
-4.45361e-11
-4.20911e-11
-4.44841e-11
-4.26347e-11
-4.40722e-11
-4.31937e-11
-4.37699e-11
-4.37714e-11
-4.34993e-11
-4.43704e-11
-4.32499e-11
-4.49909e-11
-4.30177e-11
-4.56316e-11
-4.28001e-11
-4.62911e-11
-4.25945e-11
-4.69676e-11
-4.23985e-11
-4.76597e-11
-4.22096e-11
-4.83658e-11
-4.20262e-11
-4.90842e-11
-4.1847e-11
-4.98134e-11
-4.16715e-11
-5.05518e-11
-4.1499e-11
-5.12979e-11
-4.13291e-11
-5.20505e-11
-4.11613e-11
-5.28086e-11
-4.09951e-11
-5.35709e-11
-4.08302e-11
-5.43367e-11
-4.06662e-11
-5.5105e-11
-4.05028e-11
-5.5875e-11
-4.03398e-11
-5.66459e-11
-4.01768e-11
-5.74172e-11
-4.00138e-11
-3.98504e-11
-5.81882e-11
-3.3628e-14
-1.75921e-12
-1.27066e-13
-5.13838e-12
-2.7509e-13
-8.37754e-12
-4.73767e-13
-1.14762e-11
-7.19544e-13
-1.44341e-11
-1.00919e-12
-1.7251e-11
-1.33971e-12
-1.99269e-11
-1.70832e-12
-2.24617e-11
-2.11236e-12
-2.48551e-11
-2.54929e-12
-2.71073e-11
-3.01657e-12
-2.92181e-11
-3.51168e-12
-3.11876e-11
-4.03199e-12
-3.30158e-11
-4.5748e-12
-3.47027e-11
-5.13719e-12
-3.62485e-11
-5.71607e-12
-3.76533e-11
-6.30798e-12
-3.89172e-11
-6.90919e-12
-4.00406e-11
-7.51548e-12
-4.10235e-11
-8.12236e-12
-4.18663e-11
-8.72478e-12
-4.2569e-11
-9.31666e-12
-4.31325e-11
-9.88818e-12
-4.35586e-11
-1.08598e-11
-4.38521e-11
-4.62577e-11
-4.40279e-11
-4.67725e-11
-4.40213e-11
-4.72433e-11
-4.40133e-11
-4.77631e-11
-4.35523e-11
-4.83059e-11
-4.32271e-11
-4.88641e-11
-4.29411e-11
-4.94354e-11
-4.26786e-11
-5.00196e-11
-4.24335e-11
-5.06163e-11
-4.22034e-11
-5.12248e-11
-4.1986e-11
-5.18445e-11
-4.17787e-11
-5.24749e-11
-4.15793e-11
-5.31151e-11
-4.1386e-11
-5.37642e-11
-4.11979e-11
-5.44212e-11
-4.10144e-11
-5.50854e-11
-4.08348e-11
-5.57559e-11
-4.06586e-11
-5.64319e-11
-4.04852e-11
-5.71128e-11
-4.03142e-11
-5.77979e-11
-4.01451e-11
-5.84866e-11
-3.99775e-11
-5.91782e-11
-3.98112e-11
-5.98721e-11
-3.96458e-11
-6.05679e-11
-3.94811e-11
-6.12649e-11
-3.93168e-11
-3.91527e-11
-6.19625e-11
-2.41188e-14
-1.73509e-12
-9.36274e-14
-5.06887e-12
-2.06556e-13
-8.26461e-12
-3.61439e-13
-1.13213e-11
-5.56937e-13
-1.42386e-11
-7.91844e-13
-1.70161e-11
-1.06504e-12
-1.96537e-11
-1.3755e-12
-2.21512e-11
-1.72226e-12
-2.45084e-11
-2.10444e-12
-2.67251e-11
-2.52116e-12
-2.88014e-11
-2.97162e-12
-3.07371e-11
-3.45497e-12
-3.25324e-11
-3.97043e-12
-3.41873e-11
-4.51709e-12
-3.57018e-11
-5.09415e-12
-3.70763e-11
-5.70056e-12
-3.83108e-11
-6.33539e-12
-3.94057e-11
-6.99737e-12
-4.03615e-11
-7.68531e-12
-4.11783e-11
-8.39745e-12
-4.18569e-11
-9.13221e-12
-4.23977e-11
-9.88802e-12
-4.28028e-11
-1.13902e-11
-4.30743e-11
-4.30188e-11
-4.32394e-11
-4.37874e-11
-4.32527e-11
-4.45814e-11
-4.32192e-11
-4.54248e-11
-4.2709e-11
-4.62593e-11
-4.23926e-11
-4.7084e-11
-4.21165e-11
-4.79026e-11
-4.18599e-11
-4.87174e-11
-4.16187e-11
-4.95288e-11
-4.1392e-11
-5.03371e-11
-4.11777e-11
-5.11427e-11
-4.09731e-11
-5.1946e-11
-4.0776e-11
-5.27469e-11
-4.0585e-11
-5.35455e-11
-4.03993e-11
-5.43417e-11
-4.02182e-11
-5.51354e-11
-4.00411e-11
-5.59265e-11
-3.98675e-11
-5.67149e-11
-3.96968e-11
-5.75006e-11
-3.95286e-11
-5.82832e-11
-3.93625e-11
-5.90625e-11
-3.91982e-11
-5.98384e-11
-3.90353e-11
-6.06105e-11
-3.88737e-11
-6.13786e-11
-3.8713e-11
-6.21424e-11
-3.8553e-11
-3.83935e-11
-6.29017e-11
1.73335e-15
-1.73682e-12
-7.65386e-16
-5.06637e-12
-1.2922e-14
-8.25245e-12
-3.88127e-14
-1.12954e-11
-8.21255e-14
-1.41952e-11
-1.46213e-13
-1.6952e-11
-2.34228e-13
-1.95657e-11
-3.49132e-13
-2.20363e-11
-4.93866e-13
-2.43636e-11
-6.71307e-13
-2.65477e-11
-8.84497e-13
-2.85882e-11
-1.13654e-12
-3.04851e-11
-1.4309e-12
-3.22381e-11
-1.77122e-12
-3.38469e-11
-2.16179e-12
-3.53113e-11
-2.60717e-12
-3.66309e-11
-3.11284e-12
-3.78051e-11
-3.68471e-12
-3.88339e-11
-4.33006e-12
-3.97161e-11
-5.05696e-12
-4.04514e-11
-5.87593e-12
-4.10379e-11
-6.79704e-12
-4.14766e-11
-7.82607e-12
-4.17737e-11
-1.13078e-11
-4.19484e-11
-4.06026e-11
-4.20083e-11
-4.19131e-11
-4.19423e-11
-4.33578e-11
-4.17745e-11
-4.46443e-11
-4.14224e-11
-4.59077e-11
-4.11292e-11
-4.71479e-11
-4.08763e-11
-4.83614e-11
-4.06464e-11
-4.95468e-11
-4.04334e-11
-5.07043e-11
-4.02345e-11
-5.1835e-11
-4.00471e-11
-5.29397e-11
-3.98684e-11
-5.40194e-11
-3.96963e-11
-5.50749e-11
-3.95296e-11
-5.61068e-11
-3.93673e-11
-5.71162e-11
-3.92088e-11
-5.81039e-11
-3.90534e-11
-5.90707e-11
-3.89006e-11
-6.00176e-11
-3.87499e-11
-6.09452e-11
-3.86009e-11
-6.18544e-11
-3.84533e-11
-6.27458e-11
-3.83068e-11
-6.36201e-11
-3.81611e-11
-6.44777e-11
-3.80161e-11
-6.53192e-11
-3.78715e-11
-6.6145e-11
-3.77271e-11
-3.75828e-11
-6.69557e-11
-4.47813e-15
-1.73234e-12
-2.20024e-14
-5.04885e-12
-5.58207e-14
-8.21863e-12
-1.08629e-13
-1.12426e-11
-1.82837e-13
-1.4121e-11
-2.80626e-13
-1.68542e-11
-4.03976e-13
-1.94424e-11
-5.54715e-13
-2.18856e-11
-7.34536e-13
-2.41838e-11
-9.45051e-13
-2.63372e-11
-1.1878e-12
-2.83455e-11
-1.46431e-12
-3.02086e-11
-1.77611e-12
-3.19263e-11
-2.12476e-12
-3.34983e-11
-2.5119e-12
-3.49241e-11
-2.93933e-12
-3.62035e-11
-3.40902e-12
-3.73355e-11
-3.92319e-12
-3.83197e-11
-4.48395e-12
-3.91554e-11
-5.09283e-12
-3.98425e-11
-5.75205e-12
-4.03787e-11
-6.47375e-12
-4.07549e-11
-7.29545e-12
-4.0952e-11
-1.48228e-11
-4.09731e-11
-3.86146e-11
-4.10898e-11
-3.95651e-11
-4.09918e-11
-4.08311e-11
-4.05084e-11
-4.21175e-11
-4.0136e-11
-4.34204e-11
-3.98263e-11
-4.47306e-11
-3.95661e-11
-4.60391e-11
-3.93379e-11
-4.73405e-11
-3.9132e-11
-4.86314e-11
-3.89436e-11
-4.99095e-11
-3.87689e-11
-5.1173e-11
-3.86049e-11
-5.24203e-11
-3.84491e-11
-5.36499e-11
-3.83e-11
-5.48608e-11
-3.81564e-11
-5.60523e-11
-3.80173e-11
-5.72239e-11
-3.78819e-11
-5.83751e-11
-3.77494e-11
-5.95057e-11
-3.76194e-11
-6.06153e-11
-3.74913e-11
-6.17039e-11
-3.73647e-11
-6.27712e-11
-3.72395e-11
-6.38171e-11
-3.71152e-11
-6.48416e-11
-3.69916e-11
-6.58446e-11
-3.68684e-11
-6.68263e-11
-3.67455e-11
-3.66226e-11
-6.77866e-11
-3.683e-14
-1.69551e-12
-1.41623e-13
-4.94405e-12
-3.09272e-13
-8.05098e-12
-5.35276e-13
-1.10166e-11
-8.15583e-13
-1.38407e-11
-1.14655e-12
-1.65233e-11
-1.5247e-12
-1.90642e-11
-1.94675e-12
-2.14635e-11
-2.40929e-12
-2.37213e-11
-2.90897e-12
-2.58375e-11
-3.44196e-12
-2.78125e-11
-4.00434e-12
-2.96462e-11
-4.59136e-12
-3.13393e-11
-5.19803e-12
-3.28916e-11
-5.81803e-12
-3.43041e-11
-6.4447e-12
-3.55768e-11
-7.0693e-12
-3.67109e-11
-7.68279e-12
-3.77062e-11
-8.27376e-12
-3.85644e-11
-8.83184e-12
-3.92845e-11
-9.34125e-12
-3.98693e-11
-9.77061e-12
-4.03256e-11
-1.00465e-11
-4.06761e-11
-7.39947e-11
-4.09567e-11
-7.47422e-11
-4.09091e-11
-7.48331e-11
-4.09009e-11
-7.48364e-11
-4.05051e-11
-7.47591e-11
-4.02133e-11
-7.46421e-11
-3.99434e-11
-7.45268e-11
-3.96814e-11
-7.44352e-11
-3.94295e-11
-7.43775e-11
-3.91897e-11
-7.43599e-11
-3.89612e-11
-7.43859e-11
-3.87429e-11
-7.44573e-11
-3.85335e-11
-7.45738e-11
-3.83326e-11
-7.47344e-11
-3.81394e-11
-7.4937e-11
-3.79537e-11
-7.51795e-11
-3.77748e-11
-7.5459e-11
-3.76023e-11
-7.57728e-11
-3.74356e-11
-7.61179e-11
-3.72743e-11
-7.64912e-11
-3.71179e-11
-7.68898e-11
-3.69662e-11
-7.73106e-11
-3.68187e-11
-7.77507e-11
-3.6675e-11
-7.82074e-11
-3.65349e-11
-7.86781e-11
-3.63977e-11
-7.91603e-11
-3.62633e-11
-3.61311e-11
-7.96517e-11
-3.93247e-14
-1.65619e-12
-1.46841e-13
-4.83654e-12
-3.17901e-13
-7.87992e-12
-5.50785e-13
-1.07837e-11
-8.44108e-13
-1.35474e-11
-1.19671e-12
-1.61707e-11
-1.60772e-12
-1.86532e-11
-2.0764e-12
-2.09948e-11
-2.60231e-12
-2.31954e-11
-3.185e-12
-2.52548e-11
-3.82435e-12
-2.71731e-11
-4.52008e-12
-2.89505e-11
-5.27232e-12
-3.0587e-11
-6.08089e-12
-3.20831e-11
-6.94612e-12
-3.34389e-11
-7.86783e-12
-3.46551e-11
-8.84658e-12
-3.57321e-11
-9.88221e-12
-3.66706e-11
-1.09755e-11
-3.74711e-11
-1.21258e-11
-3.81342e-11
-1.33331e-11
-3.86619e-11
-1.45984e-11
-3.90603e-11
-1.68669e-11
-3.93389e-11
-5.10203e-11
-3.95132e-11
-5.24058e-11
-3.95236e-11
-5.37971e-11
-3.95096e-11
-5.52978e-11
-3.90044e-11
-5.67662e-11
-3.87449e-11
-5.81906e-11
-3.8519e-11
-5.95718e-11
-3.83001e-11
-6.09168e-11
-3.80845e-11
-6.22313e-11
-3.78752e-11
-6.35188e-11
-3.76737e-11
-6.47813e-11
-3.74804e-11
-6.602e-11
-3.72949e-11
-6.72356e-11
-3.7117e-11
-6.84287e-11
-3.69463e-11
-6.95998e-11
-3.67826e-11
-7.07492e-11
-3.66254e-11
-7.18771e-11
-3.64744e-11
-7.29835e-11
-3.63292e-11
-7.40684e-11
-3.61895e-11
-7.51314e-11
-3.60549e-11
-7.61722e-11
-3.59254e-11
-7.71904e-11
-3.58005e-11
-7.81854e-11
-3.568e-11
-7.91568e-11
-3.55635e-11
-8.01042e-11
-3.54504e-11
-8.10271e-11
-3.53403e-11
-3.52329e-11
-8.19252e-11
4.02903e-15
-1.66022e-12
-3.19141e-15
-4.82932e-12
-3.15446e-14
-7.85157e-12
-8.59858e-14
-1.07293e-11
-1.70848e-13
-1.34625e-11
-2.89905e-13
-1.60516e-11
-4.46583e-13
-1.84965e-11
-6.43948e-13
-2.07975e-11
-8.84979e-13
-2.29543e-11
-1.17247e-12
-2.49673e-11
-1.5094e-12
-2.68362e-11
-1.89869e-12
-2.85612e-11
-2.34375e-12
-3.01419e-11
-2.84807e-12
-3.15787e-11
-3.41596e-12
-3.2871e-11
-4.0519e-12
-3.40191e-11
-4.76169e-12
-3.50223e-11
-5.55104e-12
-3.58812e-11
-6.42702e-12
-3.65951e-11
-7.39707e-12
-3.71641e-11
-8.47715e-12
-3.75819e-11
-9.69767e-12
-3.78398e-11
-1.6631e-11
-3.79427e-11
-4.31951e-11
-3.80695e-11
-4.47247e-11
-3.79939e-11
-4.64983e-11
-3.7736e-11
-4.82415e-11
-3.72611e-11
-5.00593e-11
-3.69271e-11
-5.192e-11
-3.66583e-11
-5.38008e-11
-3.64193e-11
-5.56855e-11
-3.61999e-11
-5.75624e-11
-3.59983e-11
-5.94231e-11
-3.5813e-11
-6.12615e-11
-3.5642e-11
-6.30728e-11
-3.54836e-11
-6.48534e-11
-3.53363e-11
-6.66006e-11
-3.51992e-11
-6.8312e-11
-3.50712e-11
-6.99857e-11
-3.49517e-11
-7.16202e-11
-3.48399e-11
-7.32141e-11
-3.47352e-11
-7.47664e-11
-3.46372e-11
-7.62759e-11
-3.45454e-11
-7.77418e-11
-3.44595e-11
-7.91633e-11
-3.4379e-11
-8.05398e-11
-3.43036e-11
-8.18707e-11
-3.42326e-11
-8.31557e-11
-3.41653e-11
-8.43948e-11
-3.41012e-11
-3.40398e-11
-8.5588e-11
-3.72805e-14
-1.62294e-12
-1.40033e-13
-4.72657e-12
-3.04279e-13
-7.68732e-12
-5.28533e-13
-1.0505e-11
-8.11338e-13
-1.31797e-11
-1.15128e-12
-1.57117e-11
-1.547e-12
-1.81008e-11
-1.99719e-12
-2.03473e-11
-2.5006e-12
-2.24509e-11
-3.05616e-12
-2.44118e-11
-3.66277e-12
-2.62296e-11
-4.31968e-12
-2.79043e-11
-5.02609e-12
-2.94355e-11
-5.78168e-12
-3.08231e-11
-6.58603e-12
-3.20667e-11
-7.43932e-12
-3.31658e-11
-8.34163e-12
-3.412e-11
-9.29458e-12
-3.49283e-11
-1.03008e-11
-3.55889e-11
-1.13621e-11
-3.61029e-11
-1.24627e-11
-3.64813e-11
-1.35497e-11
-3.67527e-11
-6.03121e-11
-3.6939e-11
-6.18026e-11
-3.68528e-11
-6.30381e-11
-3.67584e-11
-6.45846e-11
-3.61896e-11
-6.61125e-11
-3.57332e-11
-6.76935e-11
-3.53461e-11
-6.93229e-11
-3.5029e-11
-7.09766e-11
-3.47656e-11
-7.2636e-11
-3.45405e-11
-7.42916e-11
-3.43427e-11
-7.5939e-11
-3.41655e-11
-7.75762e-11
-3.40048e-11
-7.92012e-11
-3.38585e-11
-8.08119e-11
-3.37256e-11
-8.24057e-11
-3.36054e-11
-8.39796e-11
-3.34973e-11
-8.55305e-11
-3.34009e-11
-8.7055e-11
-3.33154e-11
-8.85499e-11
-3.32403e-11
-9.00121e-11
-3.3175e-11
-9.14383e-11
-3.31192e-11
-9.28256e-11
-3.30721e-11
-9.41713e-11
-3.30334e-11
-9.54728e-11
-3.30021e-11
-9.67279e-11
-3.29774e-11
-9.79351e-11
-3.29582e-11
-9.9093e-11
-3.29433e-11
-3.2932e-11
-1.00201e-10
-4.74047e-14
-1.57553e-12
-1.84733e-13
-4.58924e-12
-4.0808e-13
-7.46398e-12
-7.14241e-13
-1.01988e-11
-1.10038e-12
-1.27936e-11
-1.56406e-12
-1.5248e-11
-2.10307e-12
-1.75618e-11
-2.7155e-12
-1.97348e-11
-3.39956e-12
-2.17669e-11
-4.15374e-12
-2.36576e-11
-4.97651e-12
-2.54068e-11
-5.86659e-12
-2.70142e-11
-6.82257e-12
-2.84796e-11
-7.84331e-12
-2.98024e-11
-8.9275e-12
-3.09825e-11
-1.00741e-11
-3.20192e-11
-1.12814e-11
-3.29127e-11
-1.25469e-11
-3.36628e-11
-1.38672e-11
-3.42686e-11
-1.52489e-11
-3.47212e-11
-1.67276e-11
-3.50025e-11
-2.15142e-11
-3.5113e-11
-5.34171e-11
-3.53523e-11
-5.4973e-11
-3.5297e-11
-5.66448e-11
-3.50867e-11
-5.86519e-11
-3.41824e-11
-6.07486e-11
-3.36365e-11
-6.28781e-11
-3.32165e-11
-6.5032e-11
-3.28751e-11
-6.72041e-11
-3.25935e-11
-6.93851e-11
-3.23595e-11
-7.15659e-11
-3.21619e-11
-7.37388e-11
-3.19926e-11
-7.58971e-11
-3.18466e-11
-7.80345e-11
-3.17211e-11
-8.01452e-11
-3.16149e-11
-8.22236e-11
-3.1527e-11
-8.42644e-11
-3.14565e-11
-8.62629e-11
-3.14024e-11
-8.82145e-11
-3.13638e-11
-9.01152e-11
-3.13396e-11
-9.19613e-11
-3.1329e-11
-9.37491e-11
-3.13313e-11
-9.54754e-11
-3.13458e-11
-9.71371e-11
-3.13717e-11
-9.87311e-11
-3.1408e-11
-1.00255e-10
-3.14534e-11
-1.01707e-10
-3.1506e-11
-1.03087e-10
-3.15639e-11
-3.16251e-11
-1.04394e-10
-2.2196e-14
-1.55334e-12
-9.49068e-14
-4.51653e-12
-2.21426e-13
-7.33746e-12
-4.03608e-13
-1.00167e-11
-6.43017e-13
-1.25542e-11
-9.41001e-13
-1.495e-11
-1.29853e-12
-1.72043e-11
-1.71634e-12
-1.9317e-11
-2.19467e-12
-2.12885e-11
-2.73348e-12
-2.31188e-11
-3.33208e-12
-2.48082e-11
-3.98945e-12
-2.63568e-11
-4.70367e-12
-2.77653e-11
-5.47239e-12
-2.90337e-11
-6.29198e-12
-3.01629e-11
-7.15843e-12
-3.11528e-11
-8.0666e-12
-3.20045e-11
-9.01274e-12
-3.27167e-11
-9.98929e-12
-3.3292e-11
-1.09708e-11
-3.37397e-11
-1.18805e-11
-3.40928e-11
-7.78589e-11
-3.44325e-11
-8.15803e-11
-3.43729e-11
-8.25672e-11
-3.43101e-11
-8.40058e-11
-3.36481e-11
-8.52274e-11
-3.29609e-11
-8.65109e-11
-3.2353e-11
-8.78755e-11
-3.18519e-11
-8.93127e-11
-3.1438e-11
-9.08122e-11
-3.10939e-11
-9.23648e-11
-3.0807e-11
-9.39589e-11
-3.05678e-11
-9.55818e-11
-3.03697e-11
-9.72201e-11
-3.02082e-11
-9.88611e-11
-3.00801e-11
-1.00493e-10
-2.99835e-11
-1.02103e-10
-2.99164e-11
-1.03683e-10
-2.98768e-11
-1.05223e-10
-2.98625e-11
-1.06715e-10
-2.98713e-11
-1.08153e-10
-2.99016e-11
-1.0953e-10
-2.99518e-11
-1.10842e-10
-3.002e-11
-1.12083e-10
-3.01041e-11
-1.13252e-10
-3.0203e-11
-1.14343e-10
-3.0317e-11
-1.15351e-10
-3.04454e-11
-1.16271e-10
-3.05858e-11
-1.17102e-10
-3.07332e-11
-3.08822e-11
-1.17845e-10
-3.82025e-14
-1.51513e-12
-1.52047e-13
-4.40268e-12
-3.43102e-13
-7.1464e-12
-6.13945e-13
-9.74582e-12
-9.6706e-13
-1.22011e-11
-1.40479e-12
-1.45123e-11
-1.92948e-12
-1.66796e-11
-2.54333e-12
-1.87032e-11
-3.24861e-12
-2.05832e-11
-4.04752e-12
-2.23199e-11
-4.94235e-12
-2.39134e-11
-5.93532e-12
-2.53639e-11
-7.02888e-12
-2.66718e-11
-8.22539e-12
-2.78372e-11
-9.52765e-12
-2.88606e-11
-1.09384e-11
-2.9742e-11
-1.24607e-11
-3.04822e-11
-1.40956e-11
-3.10818e-11
-1.58424e-11
-3.15451e-11
-1.77082e-11
-3.18739e-11
-2.63919e-11
-3.20655e-11
-5.75671e-11
-3.22794e-11
-5.97385e-11
-3.22015e-11
-6.2124e-11
-3.19246e-11
-6.49096e-11
-3.08624e-11
-6.76733e-11
-3.01972e-11
-7.03377e-11
-2.96885e-11
-7.2909e-11
-2.92806e-11
-7.53939e-11
-2.89532e-11
-7.77922e-11
-2.86956e-11
-8.01011e-11
-2.84981e-11
-8.23168e-11
-2.83521e-11
-8.4435e-11
-2.82515e-11
-8.64532e-11
-2.81899e-11
-8.83677e-11
-2.81656e-11
-9.0173e-11
-2.81782e-11
-9.18673e-11
-2.82221e-11
-9.34468e-11
-2.82973e-11
-9.49098e-11
-2.83994e-11
-9.62517e-11
-2.85294e-11
-9.74631e-11
-2.86902e-11
-9.85369e-11
-2.8878e-11
-9.947e-11
-2.90869e-11
-1.00267e-10
-2.93073e-11
-1.00941e-10
-2.95284e-11
-1.01494e-10
-2.9764e-11
-1.01916e-10
-3.00243e-11
-1.02193e-10
-3.03088e-11
-1.02319e-10
-3.06064e-11
-3.09027e-11
-1.02299e-10
-5.27194e-14
-1.46241e-12
-2.17442e-13
-4.23796e-12
-4.97703e-13
-6.86614e-12
-8.9545e-13
-9.34807e-12
-1.41244e-12
-1.16841e-11
-2.0502e-12
-1.38745e-11
-2.8103e-12
-1.59195e-11
-3.69417e-12
-1.78193e-11
-4.70344e-12
-1.9574e-11
-5.83973e-12
-2.11836e-11
-7.10505e-12
-2.26481e-11
-8.50142e-12
-2.39675e-11
-1.00316e-11
-2.51416e-11
-1.16983e-11
-2.61705e-11
-1.35053e-11
-2.70536e-11
-1.54561e-11
-2.77912e-11
-1.75552e-11
-2.83831e-11
-1.98075e-11
-2.88295e-11
-2.22246e-11
-2.91281e-11
-2.5791e-11
-2.92878e-11
-6.7305e-11
-2.95978e-11
-7.01359e-11
-2.94485e-11
-7.30492e-11
-2.92882e-11
-7.62732e-11
-2.87006e-11
-7.88592e-11
-2.82764e-11
-8.11068e-11
-2.79496e-11
-8.30687e-11
-2.77266e-11
-8.47659e-11
-2.75834e-11
-8.6215e-11
-2.7504e-11
-8.74266e-11
-2.7484e-11
-8.84084e-11
-2.75163e-11
-8.91549e-11
-2.76057e-11
-8.96732e-11
-2.77332e-11
-8.99676e-11
-2.78955e-11
-9.00556e-11
-2.80777e-11
-8.99318e-11
-2.8302e-11
-8.95992e-11
-2.85547e-11
-8.90852e-11
-2.88113e-11
-8.84273e-11
-2.90573e-11
-8.75827e-11
-2.9374e-11
-8.65387e-11
-2.97342e-11
-8.52776e-11
-3.01391e-11
-8.38095e-11
-3.0555e-11
-8.21292e-11
-3.09876e-11
-8.02793e-11
-3.13782e-11
-7.83432e-11
-3.17001e-11
-7.62645e-11
-3.2103e-11
-7.39971e-11
-3.25761e-11
-7.15817e-11
-3.30218e-11
-3.347e-11
-6.90144e-11
-1.16512e-13
-1.3459e-12
-4.5907e-13
-3.8954e-12
-1.01916e-12
-6.30606e-12
-1.78779e-12
-8.57944e-12
-2.75641e-12
-1.07155e-11
-3.91684e-12
-1.27141e-11
-5.26115e-12
-1.45752e-11
-6.78163e-12
-1.62988e-11
-8.47072e-12
-1.78849e-11
-1.03209e-11
-1.93334e-11
-1.23248e-11
-2.06442e-11
-1.44747e-11
-2.18176e-11
-1.67629e-11
-2.28534e-11
-1.91816e-11
-2.37518e-11
-2.1722e-11
-2.45132e-11
-2.43744e-11
-2.51388e-11
-2.71294e-11
-2.5628e-11
-2.99853e-11
-2.59737e-11
-3.35286e-11
-2.62053e-11
-8.20507e-11
-2.66319e-11
-8.49324e-11
-2.67162e-11
-8.75968e-11
-2.67841e-11
-9.00417e-11
-2.68434e-11
-9.17244e-11
-2.70179e-11
-9.26588e-11
-2.7342e-11
-9.28752e-11
-2.77332e-11
-9.24402e-11
-2.81616e-11
-9.14208e-11
-2.86028e-11
-8.99154e-11
-2.90095e-11
-8.79919e-11
-2.94074e-11
-8.5618e-11
-2.98902e-11
-8.28202e-11
-3.04035e-11
-7.96666e-11
-3.08867e-11
-7.61789e-11
-3.13833e-11
-7.23731e-11
-3.18835e-11
-6.83911e-11
-3.22839e-11
-6.40511e-11
-3.28948e-11
-5.957e-11
-3.32924e-11
-5.49462e-11
-3.36811e-11
-5.01481e-11
-3.41722e-11
-4.50439e-11
-3.48384e-11
-3.96521e-11
-3.55309e-11
-3.40286e-11
-3.61785e-11
-2.82308e-11
-3.67854e-11
-2.22301e-11
-3.73789e-11
-1.6119e-11
-3.78111e-11
-9.87701e-12
-3.8345e-11
-3.55826e-12
-3.88949e-11
2.9139e-12
-3.9494e-11
-4.0105e-11
9.54891e-12
-1.6905e-13
-1.17685e-12
-6.48309e-13
-3.41614e-12
-1.42053e-12
-5.53384e-12
-2.47363e-12
-7.52634e-12
-3.79561e-12
-9.39347e-12
-5.3746e-12
-1.11351e-11
-7.19886e-12
-1.2751e-11
-9.25677e-12
-1.42409e-11
-1.15369e-11
-1.56047e-11
-1.4028e-11
-1.68423e-11
-1.67191e-11
-1.79532e-11
-1.95991e-11
-1.89375e-11
-2.26576e-11
-1.97949e-11
-2.58829e-11
-2.05265e-11
-2.92618e-11
-2.11343e-11
-3.27797e-11
-2.16209e-11
-3.64315e-11
-2.19763e-11
-4.24065e-11
-2.22888e-11
-9.20626e-11
-2.27847e-11
-9.58753e-11
-2.28192e-11
-9.92966e-11
-2.32948e-11
-1.0192e-10
-2.4161e-11
-1.0323e-10
-2.55327e-11
-1.03314e-10
-2.69347e-11
-1.0225e-10
-2.84054e-11
-1.00083e-10
-2.99006e-11
-9.68366e-11
-3.14079e-11
-9.25223e-11
-3.2917e-11
-8.7265e-11
-3.42668e-11
-8.12065e-11
-3.54659e-11
-7.42219e-11
-3.68748e-11
-6.64751e-11
-3.81502e-11
-5.81864e-11
-3.91755e-11
-4.9489e-11
-4.00806e-11
-4.05396e-11
-4.08329e-11
-3.13643e-11
-4.14592e-11
-2.20523e-11
-4.22068e-11
-1.24071e-11
-4.29375e-11
-2.46799e-12
-4.36202e-11
7.59358e-12
-4.42337e-11
1.81509e-11
-4.53957e-11
2.89484e-11
-4.63284e-11
3.99328e-11
-4.71629e-11
5.11002e-11
-4.79528e-11
6.2338e-11
-4.86167e-11
7.38906e-11
-4.93638e-11
8.56125e-11
-5.0067e-11
9.74535e-11
-5.07359e-11
1.09276e-10
-5.13167e-11
-5.1804e-11
1.20975e-10
-1.43524e-13
-1.03333e-12
-5.93374e-13
-2.96629e-12
-1.35304e-12
-4.77417e-12
-2.4175e-12
-6.46188e-12
-3.78086e-12
-8.03011e-12
-5.43644e-12
-9.47952e-12
-7.37764e-12
-1.08098e-11
-9.59779e-12
-1.20208e-11
-1.20913e-11
-1.31112e-11
-1.48535e-11
-1.40801e-11
-1.78821e-11
-1.49246e-11
-2.11773e-11
-1.56423e-11
-2.47405e-11
-1.62318e-11
-2.85679e-11
-1.6699e-11
-3.26465e-11
-1.70557e-11
-3.70029e-11
-1.72645e-11
-4.94986e-11
-1.75413e-11
-9.52294e-11
-1.79647e-11
-1.01789e-10
-1.62254e-11
-1.05987e-10
-1.86209e-11
-1.08296e-10
-2.09862e-11
-1.08527e-10
-2.39301e-11
-1.07223e-10
-2.68363e-11
-1.04424e-10
-2.97333e-11
-1.00338e-10
-3.2492e-11
-9.48976e-11
-3.53408e-11
-8.81297e-11
-3.81758e-11
-8.00871e-11
-4.09596e-11
-7.08039e-11
-4.355e-11
-6.04219e-11
-4.58479e-11
-4.91636e-11
-4.81332e-11
-3.70123e-11
-5.03015e-11
-2.40319e-11
-5.21558e-11
-1.04416e-11
-5.36709e-11
3.68223e-12
-5.49568e-11
1.82374e-11
-5.60144e-11
3.34724e-11
-5.74417e-11
4.94756e-11
-5.89408e-11
6.63333e-11
-6.04779e-11
8.40183e-11
-6.19188e-11
1.0124e-10
-6.26173e-11
1.18368e-10
-6.34565e-11
1.35412e-10
-6.42066e-11
1.52293e-10
-6.48345e-11
1.69157e-10
-6.54803e-11
1.86038e-10
-6.62451e-11
2.0252e-10
-6.65491e-11
2.18514e-10
-6.67291e-11
2.33714e-10
-6.65171e-11
-6.65704e-11
2.4848e-10
-2.33958e-13
-7.99371e-13
-9.01415e-13
-2.29883e-12
-1.97042e-12
-3.70517e-12
-3.41155e-12
-5.02075e-12
-5.19177e-12
-6.24989e-12
-7.28008e-12
-7.3912e-12
-9.63916e-12
-8.45068e-12
-1.2236e-11
-9.4239e-12
-1.50273e-11
-1.03199e-11
-1.79773e-11
-1.11301e-11
-2.1032e-11
-1.18698e-11
-2.41507e-11
-1.25237e-11
-2.72761e-11
-1.31064e-11
-3.06225e-11
-1.33526e-11
-3.42153e-11
-1.3463e-11
-6.18908e-11
-1.37655e-11
-9.8515e-11
-1.39079e-11
-1.35009e-10
1.85294e-11
-1.49427e-10
-1.80725e-12
-1.58099e-10
-9.94915e-12
-1.6116e-10
-1.79247e-11
-1.60126e-10
-2.49645e-11
-1.55915e-10
-3.10474e-11
-1.50443e-10
-3.52048e-11
-1.43006e-10
-3.99298e-11
-1.33789e-10
-4.45571e-11
-1.2295e-10
-4.90151e-11
-1.10707e-10
-5.32024e-11
-9.72549e-11
-5.70024e-11
-8.29589e-11
-6.01438e-11
-6.80406e-11
-6.30516e-11
-5.30909e-11
-6.52512e-11
-3.78618e-11
-6.73849e-11
-2.20029e-11
-6.95298e-11
-5.57258e-12
-7.13872e-11
1.17449e-11
-7.33319e-11
3.00196e-11
-7.57165e-11
4.88369e-11
-7.7758e-11
6.70036e-11
-7.86446e-11
8.45765e-11
-7.94917e-11
1.0195e-10
-7.9991e-11
1.18717e-10
-8.0223e-11
1.34813e-10
-8.03029e-11
1.50242e-10
-8.02639e-11
1.64925e-10
-8.01632e-11
1.78426e-10
-7.97459e-11
1.90865e-10
-7.89876e-11
2.02358e-10
-7.82226e-11
2.13224e-10
-7.73835e-11
-7.59387e-11
2.22593e-10
-3.73096e-13
-4.26276e-13
-1.42282e-12
-1.24911e-12
-3.08009e-12
-2.04791e-12
-5.27837e-12
-2.82247e-12
-7.94727e-12
-3.58099e-12
-1.10189e-11
-4.31958e-12
-1.44168e-11
-5.05278e-12
-1.80683e-11
-5.77242e-12
-2.18854e-11
-6.5027e-12
-2.5787e-11
-7.22852e-12
-2.96687e-11
-7.98822e-12
-3.34382e-11
-8.75414e-12
-3.69538e-11
-9.59072e-12
-3.9413e-11
-1.10007e-11
-1.40866e-10
-1.12523e-11
-1.52586e-10
-1.06769e-11
-1.48214e-10
-1.82802e-11
-1.21744e-10
-7.94031e-12
-1.13881e-10
-9.67112e-12
-1.03113e-10
-2.07171e-11
-9.13172e-11
-2.972e-11
-7.97645e-11
-3.65172e-11
-6.8506e-11
-4.23059e-11
-5.64205e-11
-4.72903e-11
-4.28828e-11
-5.34674e-11
-2.86042e-11
-5.88357e-11
-1.33213e-11
-6.4298e-11
2.00953e-12
-6.85332e-11
1.71161e-11
-7.2109e-11
3.19925e-11
-7.50202e-11
4.63156e-11
-7.73746e-11
6.04902e-11
-7.94258e-11
7.40757e-11
-8.09704e-11
8.66818e-11
-8.21358e-11
9.84542e-11
-8.31596e-11
1.09197e-10
-8.40743e-11
1.17782e-10
-8.43015e-11
1.24395e-10
-8.43716e-11
1.30343e-10
-8.45922e-11
1.35085e-10
-8.42345e-11
1.3888e-10
-8.37855e-11
1.4184e-10
-8.31831e-11
1.44037e-10
-8.24996e-11
1.45545e-10
-8.17725e-11
1.46241e-10
-8.08586e-11
1.46271e-10
-7.97759e-11
1.45885e-10
-7.86019e-11
1.44995e-10
-7.73325e-11
1.43492e-10
-7.58806e-11
-7.45253e-11
1.42079e-10
-5.66023e-13
-2.18154e-12
-4.7711e-12
-8.26462e-12
-1.26012e-11
-1.77226e-11
-2.35821e-11
-3.01332e-11
-3.73464e-11
-4.51837e-11
-5.36097e-11
-6.25359e-11
-7.2665e-11
-1.53354e-10
-1.62898e-10
-1.62033e-10
-1.59311e-10
-1.37554e-10
-1.10933e-10
-8.91596e-11
-7.05274e-11
-5.54063e-11
-4.38853e-11
-3.33932e-11
-2.47951e-11
-1.74176e-11
-1.40021e-11
-1.27796e-11
-1.43217e-11
-1.79832e-11
-2.32865e-11
-3.01567e-11
-3.77878e-11
-4.60659e-11
-5.52219e-11
-6.49459e-11
-7.46242e-11
-8.43787e-11
-9.43127e-11
-1.03948e-10
-1.13321e-10
-1.22371e-10
-1.31072e-10
-1.39464e-10
-1.47446e-10
-1.54932e-10
-1.6192e-10
-1.68384e-10
-1.74166e-10
-1.79403e-10
-5.70387e-11
-4.04565e-11
-5.78821e-11
-4.02905e-11
-5.87194e-11
-4.01231e-11
-5.95503e-11
-3.99543e-11
-6.03746e-11
-3.9784e-11
-6.11921e-11
-3.96122e-11
-6.20023e-11
-3.94387e-11
-6.28051e-11
-3.92635e-11
-6.36003e-11
-3.90865e-11
-6.43876e-11
-3.89078e-11
-6.51667e-11
-3.87274e-11
-6.59374e-11
-3.85451e-11
-6.66996e-11
-3.8361e-11
-6.7453e-11
-3.81752e-11
-6.81974e-11
-3.79875e-11
-6.89327e-11
-3.77981e-11
-6.96587e-11
-3.7607e-11
-7.03753e-11
-3.74141e-11
-7.10822e-11
-3.72196e-11
-7.17793e-11
-3.70234e-11
-7.24666e-11
-3.68257e-11
-7.31439e-11
-3.66264e-11
-7.38111e-11
-3.64257e-11
-7.44681e-11
-3.62236e-11
-7.51148e-11
-3.60202e-11
-7.57511e-11
-3.58155e-11
-7.6377e-11
-3.56096e-11
-7.69924e-11
-3.54027e-11
-7.75972e-11
-3.51947e-11
-7.81914e-11
-3.49859e-11
-7.87751e-11
-3.47762e-11
-7.93481e-11
-3.45658e-11
-7.99104e-11
-3.43548e-11
-8.0462e-11
-3.41433e-11
-8.1003e-11
-3.39314e-11
-8.15333e-11
-3.37192e-11
-8.2053e-11
-3.35068e-11
-8.25621e-11
-3.32944e-11
-8.30605e-11
-3.3082e-11
-8.35484e-11
-3.28698e-11
-8.40258e-11
-3.2658e-11
-8.44927e-11
-3.24466e-11
-8.49492e-11
-3.22359e-11
-8.53953e-11
-3.2026e-11
-8.58311e-11
-3.18172e-11
-8.62566e-11
-3.16098e-11
-8.6672e-11
-3.14039e-11
-8.70772e-11
-3.11999e-11
-8.74724e-11
-3.09987e-11
-3.08018e-11
-8.78574e-11
-5.89582e-11
-3.96865e-11
-5.97266e-11
-3.9522e-11
-6.0493e-11
-3.93567e-11
-6.12567e-11
-3.91906e-11
-6.20172e-11
-3.90235e-11
-6.27741e-11
-3.88553e-11
-6.35268e-11
-3.86859e-11
-6.4275e-11
-3.85153e-11
-6.5018e-11
-3.83434e-11
-6.57557e-11
-3.81702e-11
-6.64874e-11
-3.79956e-11
-6.72129e-11
-3.78196e-11
-6.79317e-11
-3.76422e-11
-6.86436e-11
-3.74633e-11
-6.93483e-11
-3.72829e-11
-7.00453e-11
-3.71011e-11
-7.07344e-11
-3.69178e-11
-7.14154e-11
-3.67331e-11
-7.20879e-11
-3.6547e-11
-7.27518e-11
-3.63595e-11
-7.34068e-11
-3.61707e-11
-7.40528e-11
-3.59805e-11
-7.46895e-11
-3.5789e-11
-7.53167e-11
-3.55963e-11
-7.59344e-11
-3.54025e-11
-7.65423e-11
-3.52075e-11
-7.71404e-11
-3.50115e-11
-7.77285e-11
-3.48146e-11
-7.83066e-11
-3.46167e-11
-7.88744e-11
-3.4418e-11
-7.94321e-11
-3.42185e-11
-7.99794e-11
-3.40185e-11
-8.05165e-11
-3.38178e-11
-8.10431e-11
-3.36167e-11
-8.15594e-11
-3.34152e-11
-8.20652e-11
-3.32134e-11
-8.25606e-11
-3.30114e-11
-8.30456e-11
-3.28094e-11
-8.35202e-11
-3.26074e-11
-8.39844e-11
-3.24056e-11
-8.44382e-11
-3.22041e-11
-8.48818e-11
-3.20031e-11
-8.5315e-11
-3.18026e-11
-8.57381e-11
-3.1603e-11
-8.6151e-11
-3.14044e-11
-8.65538e-11
-3.1207e-11
-8.69465e-11
-3.10111e-11
-8.73293e-11
-3.08172e-11
-8.77022e-11
-3.06258e-11
-3.04388e-11
-8.80652e-11
-6.26603e-11
-3.89887e-11
-6.33578e-11
-3.88246e-11
-6.40542e-11
-3.86603e-11
-6.47492e-11
-3.84956e-11
-6.54421e-11
-3.83305e-11
-6.61325e-11
-3.81649e-11
-6.68198e-11
-3.79986e-11
-6.75036e-11
-3.78316e-11
-6.81832e-11
-3.76638e-11
-6.88584e-11
-3.74951e-11
-6.95286e-11
-3.73254e-11
-7.01933e-11
-3.71548e-11
-7.08523e-11
-3.69832e-11
-7.15051e-11
-3.68105e-11
-7.21513e-11
-3.66367e-11
-7.27907e-11
-3.64618e-11
-7.34227e-11
-3.62858e-11
-7.40473e-11
-3.61086e-11
-7.46639e-11
-3.59303e-11
-7.52725e-11
-3.57509e-11
-7.58727e-11
-3.55704e-11
-7.64643e-11
-3.53889e-11
-7.70471e-11
-3.52062e-11
-7.7621e-11
-3.50225e-11
-7.81856e-11
-3.48379e-11
-7.87409e-11
-3.46522e-11
-7.92867e-11
-3.44657e-11
-7.98229e-11
-3.42784e-11
-8.03494e-11
-3.40902e-11
-8.08661e-11
-3.39013e-11
-8.13729e-11
-3.37118e-11
-8.18697e-11
-3.35216e-11
-8.23565e-11
-3.3331e-11
-8.28332e-11
-3.31399e-11
-8.32999e-11
-3.29485e-11
-8.37565e-11
-3.27568e-11
-8.42029e-11
-3.2565e-11
-8.46393e-11
-3.2373e-11
-8.50656e-11
-3.21811e-11
-8.54819e-11
-3.19894e-11
-8.58882e-11
-3.17979e-11
-8.62845e-11
-3.16068e-11
-8.66709e-11
-3.14162e-11
-8.70475e-11
-3.12264e-11
-8.74143e-11
-3.10375e-11
-8.77714e-11
-3.08498e-11
-8.81189e-11
-3.06636e-11
-8.84569e-11
-3.04792e-11
-8.87853e-11
-3.02973e-11
-3.01198e-11
-8.91043e-11
-6.3656e-11
-3.82343e-11
-6.44052e-11
-3.80755e-11
-6.51488e-11
-3.79167e-11
-6.58865e-11
-3.77579e-11
-6.6618e-11
-3.7599e-11
-6.7343e-11
-3.74399e-11
-6.8061e-11
-3.72806e-11
-6.87719e-11