/*--------------------------------*- C++ -*----------------------------------*\
| =========                 |                                                 |
| \\      /  F ield         | OpenFOAM: The Open Source CFD Toolbox           |
|  \\    /   O peration     | Version:  2.4.0                                 |
|   \\  /    A nd           | Web:      www.OpenFOAM.org                      |
|    \\/     M anipulation  |                                                 |
\*---------------------------------------------------------------------------*/
FoamFile
{
    version     2.0;
    format      ascii;
    class       volScalarField;
    location    "0.4";
    object      H;
}
// * * * * * * * * * * * * * * * * * * * * * * * * * * * * * * * * * * * * * //

dimensions      [0 2 -2 0 0 0 0];

internalField   nonuniform List<scalar> 
125
(
-54.9578
-54.9566
-54.9562
-54.9558
-54.958
-54.7666
-54.7655
-54.7651
-54.7646
-54.7668
-54.52
-54.5189
-54.5185
-54.5181
-54.5202
-54.2184
-54.2173
-54.2169
-54.2165
-54.2185
-53.8622
-53.8612
-53.8608
-53.8604
-53.8624
-53.4523
-53.4513
-53.4509
-53.4505
-53.4524
-52.9893
-52.9884
-52.988
-52.9876
-52.9895
-52.4744
-52.4735
-52.4731
-52.4727
-52.4745
-51.9086
-51.9077
-51.9073
-51.9069
-51.9087
-51.2931
-51.2922
-51.2919
-51.2915
-51.2932
-50.6294
-50.6285
-50.6282
-50.6278
-50.6294
-49.9189
-49.9181
-49.9178
-49.9174
-49.919
-49.1635
-49.1627
-49.1624
-49.162
-49.1635
-48.3648
-48.364
-48.3638
-48.3634
-48.3648
-47.5247
-47.5241
-47.5238
-47.5234
-47.5247
-46.6455
-46.6448
-46.6446
-46.6442
-46.6455
-45.7292
-45.7286
-45.7283
-45.728
-45.7291
-44.7781
-44.7775
-44.7773
-44.7769
-44.778
-43.7946
-43.7941
-43.7939
-43.7935
-43.7945
-42.7812
-42.7807
-42.7805
-42.7802
-42.7811
-41.7405
-41.74
-41.7398
-41.7395
-41.7404
-40.675
-40.6746
-40.6744
-40.6741
-40.6749
-39.5876
-39.5872
-39.587
-39.5867
-39.5874
-38.4809
-38.4805
-38.4803
-38.4801
-38.4807
-37.3577
-37.3574
-37.3572
-37.3569
-37.3575
)
;

boundaryField
{
    BotWall
    {
        type            zeroGradient;
    }
    FreeStream
    {
        type            zeroGradient;
    }
    FrontNBack
    {
        type            empty;
    }
    LeftSide
    {
        type            symmetryPlane;
    }
    RightSide
    {
        type            symmetryPlane;
    }
    procBoundary1to0
    {
        type            processor;
        value           nonuniform List<scalar> 5(-55.0831 -55.0819 -55.0815 -55.081 -55.0834);
    }
    procBoundary1to2
    {
        type            processor;
        value           nonuniform List<scalar> 5(-36.2176 -36.2173 -36.2172 -36.2169 -36.2174);
    }
}


// ************************************************************************* //
