/*--------------------------------*- C++ -*----------------------------------*\
| =========                 |                                                 |
| \\      /  F ield         | OpenFOAM: The Open Source CFD Toolbox           |
|  \\    /   O peration     | Version:  2.4.0                                 |
|   \\  /    A nd           | Web:      www.OpenFOAM.org                      |
|    \\/     M anipulation  |                                                 |
\*---------------------------------------------------------------------------*/
FoamFile
{
    version     2.0;
    format      ascii;
    class       volScalarField;
    location    "0.4";
    object      p;
}
// * * * * * * * * * * * * * * * * * * * * * * * * * * * * * * * * * * * * * //

dimensions      [1 -1 -2 0 0 0 0];

internalField   nonuniform List<scalar> 
125
(
-0.0144626
-0.0144626
-0.0144626
-0.0144626
-0.0144626
-0.015114
-0.015114
-0.015114
-0.015114
-0.015114
-0.0157726
-0.0157726
-0.0157726
-0.0157726
-0.0157726
-0.0164386
-0.0164386
-0.0164386
-0.0164386
-0.0164386
-0.017112
-0.017112
-0.017112
-0.017112
-0.017112
-0.0177929
-0.0177929
-0.0177929
-0.0177929
-0.0177929
-0.0184814
-0.0184814
-0.0184814
-0.0184814
-0.0184814
-0.0191776
-0.0191776
-0.0191776
-0.0191776
-0.0191776
-0.0198816
-0.0198816
-0.0198816
-0.0198816
-0.0198816
-0.0205934
-0.0205934
-0.0205934
-0.0205934
-0.0205934
-0.0213132
-0.0213132
-0.0213132
-0.0213132
-0.0213132
-0.022041
-0.022041
-0.022041
-0.022041
-0.022041
-0.0227769
-0.0227769
-0.0227769
-0.0227769
-0.0227769
-0.023521
-0.023521
-0.023521
-0.023521
-0.023521
-0.0242735
-0.0242735
-0.0242735
-0.0242735
-0.0242735
-0.0250343
-0.0250343
-0.0250343
-0.0250343
-0.0250343
-0.0258036
-0.0258036
-0.0258036
-0.0258036
-0.0258036
-0.0265815
-0.0265815
-0.0265815
-0.0265815
-0.0265815
-0.0273681
-0.0273681
-0.0273681
-0.0273681
-0.0273681
-0.0281635
-0.0281635
-0.0281635
-0.0281635
-0.0281635
-0.0289677
-0.0289677
-0.0289677
-0.0289677
-0.0289677
-0.029781
-0.029781
-0.029781
-0.029781
-0.029781
-0.0306032
-0.0306032
-0.0306033
-0.0306033
-0.0306033
-0.0314347
-0.0314347
-0.0314347
-0.0314347
-0.0314347
-0.0322755
-0.0322755
-0.0322755
-0.0322755
-0.0322755
)
;

boundaryField
{
    BotWall
    {
        type            calculated;
        value           nonuniform 0();
    }
    FreeStream
    {
        type            calculated;
        value           nonuniform 0();
    }
    FrontNBack
    {
        type            empty;
    }
    LeftSide
    {
        type            symmetryPlane;
    }
    RightSide
    {
        type            symmetryPlane;
    }
    procBoundary1to0
    {
        type            processor;
        value           nonuniform List<scalar> 5(-0.0138184 -0.0138184 -0.0138184 -0.0138184 -0.0138184);
    }
    procBoundary1to2
    {
        type            processor;
        value           nonuniform List<scalar> 5(-0.0331256 -0.0331256 -0.0331256 -0.0331256 -0.0331256);
    }
}


// ************************************************************************* //
