/*--------------------------------*- C++ -*----------------------------------*\
| =========                 |                                                 |
| \\      /  F ield         | OpenFOAM: The Open Source CFD Toolbox           |
|  \\    /   O peration     | Version:  2.4.0                                 |
|   \\  /    A nd           | Web:      www.OpenFOAM.org                      |
|    \\/     M anipulation  |                                                 |
\*---------------------------------------------------------------------------*/
FoamFile
{
    version     2.0;
    format      ascii;
    class       volScalarField;
    location    "0.4";
    object      p_rgh;
}
// * * * * * * * * * * * * * * * * * * * * * * * * * * * * * * * * * * * * * //

dimensions      [1 -1 -2 0 0 0 0];

internalField   nonuniform List<scalar> 
125
(
-7.14056e-05
-7.14045e-05
-7.14079e-05
-7.14075e-05
-7.14152e-05
-7.12128e-05
-7.12117e-05
-7.1215e-05
-7.12147e-05
-7.12223e-05
-7.10179e-05
-7.10169e-05
-7.10202e-05
-7.10199e-05
-7.10273e-05
-7.08209e-05
-7.08199e-05
-7.08231e-05
-7.08229e-05
-7.08302e-05
-7.06217e-05
-7.06207e-05
-7.06239e-05
-7.06237e-05
-7.06308e-05
-7.04202e-05
-7.04193e-05
-7.04224e-05
-7.04223e-05
-7.04292e-05
-7.02165e-05
-7.02156e-05
-7.02187e-05
-7.02186e-05
-7.02254e-05
-7.00106e-05
-7.00097e-05
-7.00127e-05
-7.00126e-05
-7.00194e-05
-6.98023e-05
-6.98015e-05
-6.98044e-05
-6.98044e-05
-6.9811e-05
-6.95917e-05
-6.95909e-05
-6.95938e-05
-6.95938e-05
-6.96003e-05
-6.93788e-05
-6.9378e-05
-6.93808e-05
-6.93809e-05
-6.93872e-05
-6.91635e-05
-6.91627e-05
-6.91655e-05
-6.91655e-05
-6.91718e-05
-6.89458e-05
-6.8945e-05
-6.89477e-05
-6.89478e-05
-6.8954e-05
-6.87256e-05
-6.87248e-05
-6.87276e-05
-6.87277e-05
-6.87338e-05
-6.8503e-05
-6.85023e-05
-6.85049e-05
-6.8505e-05
-6.85111e-05
-6.82779e-05
-6.82772e-05
-6.82798e-05
-6.82799e-05
-6.82859e-05
-6.80503e-05
-6.80496e-05
-6.80522e-05
-6.80523e-05
-6.80582e-05
-6.78201e-05
-6.78194e-05
-6.78221e-05
-6.78221e-05
-6.7828e-05
-6.75874e-05
-6.75867e-05
-6.75893e-05
-6.75894e-05
-6.75952e-05
-6.73521e-05
-6.73514e-05
-6.7354e-05
-6.73541e-05
-6.73598e-05
-6.71142e-05
-6.71135e-05
-6.71161e-05
-6.71161e-05
-6.71218e-05
-6.68736e-05
-6.68729e-05
-6.68755e-05
-6.68755e-05
-6.68811e-05
-6.66303e-05
-6.66296e-05
-6.66322e-05
-6.66322e-05
-6.66378e-05
-6.63841e-05
-6.63835e-05
-6.63861e-05
-6.6386e-05
-6.63911e-05
-6.61351e-05
-6.61344e-05
-6.6137e-05
-6.6137e-05
-6.61416e-05
)
;

boundaryField
{
    BotWall
    {
        type            fixedFluxPressure;
        gradient        nonuniform 0();
        value           nonuniform 0();
    }
    FreeStream
    {
        type            totalPressure;
        rho             rho;
        psi             none;
        gamma           1;
        p0              nonuniform 0();
        value           nonuniform 0();
    }
    FrontNBack
    {
        type            empty;
    }
    LeftSide
    {
        type            symmetryPlane;
    }
    RightSide
    {
        type            symmetryPlane;
    }
    procBoundary1to0
    {
        type            processor;
        value           nonuniform List<scalar> 5(-7.15965e-05 -7.15954e-05 -7.15988e-05 -7.15985e-05 -7.16061e-05);
    }
    procBoundary1to2
    {
        type            processor;
        value           nonuniform List<scalar> 5(-6.58831e-05 -6.58825e-05 -6.5885e-05 -6.5885e-05 -6.5889e-05);
    }
}


// ************************************************************************* //
