/*--------------------------------*- C++ -*----------------------------------*\
| =========                 |                                                 |
| \\      /  F ield         | OpenFOAM: The Open Source CFD Toolbox           |
|  \\    /   O peration     | Version:  2.4.0                                 |
|   \\  /    A nd           | Web:      www.OpenFOAM.org                      |
|    \\/     M anipulation  |                                                 |
\*---------------------------------------------------------------------------*/
FoamFile
{
    version     2.0;
    format      ascii;
    class       surfaceScalarField;
    location    "0.4";
    object      phi;
}
// * * * * * * * * * * * * * * * * * * * * * * * * * * * * * * * * * * * * * //

dimensions      [0 3 -1 0 0 0 0];

internalField   nonuniform List<scalar> 
220
(
-1.93049e-17
-6.56687e-10
-4.31987e-17
-6.56688e-10
-6.92047e-17
-6.56688e-10
-6.25403e-17
-6.56688e-10
-6.56687e-10
-2.10254e-17
-6.56687e-10
-4.61256e-17
-6.56687e-10
-7.26772e-17
-6.56688e-10
-6.495e-17
-6.56688e-10
-6.56688e-10
-2.27103e-17
-6.56687e-10
-4.90182e-17
-6.56687e-10
-7.61106e-17
-6.56688e-10
-6.73353e-17
-6.56688e-10
-6.56688e-10
-2.43584e-17
-6.56687e-10
-5.18736e-17
-6.56687e-10
-7.95009e-17
-6.56688e-10
-6.96922e-17
-6.56688e-10
-6.56688e-10
-2.59686e-17
-6.56687e-10
-5.46888e-17
-6.56687e-10
-8.28441e-17
-6.56687e-10
-7.20168e-17
-6.56688e-10
-6.56688e-10
-2.75399e-17
-6.56687e-10
-5.74612e-17
-6.56687e-10
-8.61357e-17
-6.56687e-10
-7.4305e-17
-6.56688e-10
-6.56688e-10
-2.90711e-17
-6.56687e-10
-6.01879e-17
-6.56687e-10
-8.93715e-17
-6.56687e-10
-7.65529e-17
-6.56688e-10
-6.56688e-10
-3.05615e-17
-6.56687e-10
-6.28663e-17
-6.56687e-10
-9.2547e-17
-6.56687e-10
-7.87564e-17
-6.56688e-10
-6.56688e-10
-3.20103e-17
-6.56687e-10
-6.54937e-17
-6.56687e-10
-9.56579e-17
-6.56687e-10
-8.09116e-17
-6.56688e-10
-6.56688e-10
-3.34166e-17
-6.56687e-10
-6.80675e-17
-6.56687e-10
-9.86999e-17
-6.56687e-10
-8.30143e-17
-6.56688e-10
-6.56688e-10
-3.47798e-17
-6.56687e-10
-7.05852e-17
-6.56687e-10
-1.01668e-16
-6.56687e-10
-8.50604e-17
-6.56688e-10
-6.56688e-10
-3.60995e-17
-6.56687e-10
-7.30443e-17
-6.56687e-10
-1.04559e-16
-6.56687e-10
-8.70458e-17
-6.56688e-10
-6.56688e-10
-3.73753e-17
-6.56687e-10
-7.54426e-17
-6.56687e-10
-1.07368e-16
-6.56687e-10
-8.89664e-17
-6.56688e-10
-6.56688e-10
-3.86068e-17
-6.56687e-10
-7.77778e-17
-6.56687e-10
-1.1009e-16
-6.56687e-10
-9.08181e-17
-6.56688e-10
-6.56688e-10
-3.97939e-17
-6.56686e-10
-8.00477e-17
-6.56687e-10
-1.12722e-16
-6.56687e-10
-9.25968e-17
-6.56688e-10
-6.56689e-10
-4.09365e-17
-6.56686e-10
-8.22504e-17
-6.56687e-10
-1.1526e-16
-6.56687e-10
-9.42985e-17
-6.56688e-10
-6.56689e-10
-4.20348e-17
-6.56686e-10
-8.43837e-17
-6.56687e-10
-1.17698e-16
-6.56687e-10
-9.59193e-17
-6.56688e-10
-6.56689e-10
-4.30889e-17
-6.56686e-10
-8.64461e-17
-6.56687e-10
-1.20035e-16
-6.56687e-10
-9.74554e-17
-6.56688e-10
-6.56689e-10
-4.40992e-17
-6.56686e-10
-8.84358e-17
-6.56687e-10
-1.22265e-16
-6.56687e-10
-9.8903e-17
-6.56689e-10
-6.56689e-10
-4.50662e-17
-6.56686e-10
-9.03513e-17
-6.56687e-10
-1.24386e-16
-6.56687e-10
-1.00258e-16
-6.56689e-10
-6.56689e-10
-4.59904e-17
-6.56686e-10
-9.21912e-17
-6.56687e-10
-1.26394e-16
-6.56687e-10
-1.01518e-16
-6.56689e-10
-6.56689e-10
-4.68725e-17
-6.56686e-10
-9.39543e-17
-6.56687e-10
-1.28286e-16
-6.56687e-10
-1.02681e-16
-6.56689e-10
-6.56689e-10
-4.77134e-17
-6.56686e-10
-9.56395e-17
-6.56687e-10
-1.30058e-16
-6.56687e-10
-1.03741e-16
-6.56689e-10
-6.56689e-10
-4.85138e-17
-6.56686e-10
-9.72463e-17
-6.56687e-10
-1.31708e-16
-6.56687e-10
-1.0473e-16
-6.56689e-10
-6.5669e-10
-4.92743e-17
-9.8775e-17
-1.33231e-16
-1.056e-16
)
;

boundaryField
{
    BotWall
    {
        type            calculated;
        value           nonuniform 0();
    }
    FreeStream
    {
        type            calculated;
        value           nonuniform 0();
    }
    FrontNBack
    {
        type            empty;
        value           nonuniform 0();
    }
    LeftSide
    {
        type            symmetryPlane;
        value           uniform 0;
    }
    RightSide
    {
        type            symmetryPlane;
        value           uniform 0;
    }
    procBoundary1to0
    {
        type            processor;
        value           nonuniform List<scalar> 5(6.56687e-10 6.56688e-10 6.56688e-10 6.56688e-10 6.56687e-10);
    }
    procBoundary1to2
    {
        type            processor;
        value           nonuniform List<scalar> 5(-6.56686e-10 -6.56687e-10 -6.56687e-10 -6.56689e-10 -6.5669e-10);
    }
}


// ************************************************************************* //
