/*--------------------------------*- C++ -*----------------------------------*\
| =========                 |                                                 |
| \\      /  F ield         | OpenFOAM: The Open Source CFD Toolbox           |
|  \\    /   O peration     | Version:  2.4.0                                 |
|   \\  /    A nd           | Web:      www.OpenFOAM.org                      |
|    \\/     M anipulation  |                                                 |
\*---------------------------------------------------------------------------*/
FoamFile
{
    version     2.0;
    format      ascii;
    class       volScalarField;
    location    "0.4";
    object      T;
}
// * * * * * * * * * * * * * * * * * * * * * * * * * * * * * * * * * * * * * //

dimensions      [0 0 0 1 0 0 0];

internalField   nonuniform List<scalar> 
125
(
297.97
297.97
297.97
297.97
297.97
297.97
297.97
297.97
297.97
297.97
297.97
297.97
297.97
297.97
297.97
297.97
297.97
297.97
297.97
297.97
297.97
297.97
297.97
297.97
297.97
297.971
297.971
297.971
297.971
297.971
297.971
297.971
297.971
297.971
297.971
297.971
297.971
297.971
297.971
297.971
297.971
297.971
297.971
297.971
297.971
297.972
297.972
297.972
297.972
297.972
297.972
297.972
297.972
297.972
297.972
297.973
297.973
297.973
297.973
297.973
297.973
297.973
297.973
297.973
297.973
297.973
297.973
297.973
297.973
297.973
297.974
297.974
297.974
297.974
297.974
297.974
297.974
297.974
297.974
297.974
297.975
297.975
297.975
297.975
297.975
297.975
297.975
297.975
297.975
297.975
297.976
297.976
297.976
297.976
297.976
297.976
297.976
297.976
297.976
297.976
297.977
297.977
297.977
297.977
297.977
297.978
297.978
297.978
297.978
297.978
297.978
297.978
297.978
297.978
297.978
297.979
297.979
297.979
297.979
297.979
297.979
297.979
297.979
297.979
297.979
)
;

boundaryField
{
    BotWall
    {
        type            fixedValue;
        value           nonuniform 0();
    }
    FreeStream
    {
        type            fixedValue;
        value           nonuniform 0();
    }
    FrontNBack
    {
        type            empty;
    }
    LeftSide
    {
        type            symmetryPlane;
    }
    RightSide
    {
        type            symmetryPlane;
    }
    procBoundary1to0
    {
        type            processor;
        value           nonuniform List<scalar> 5(297.97 297.97 297.97 297.97 297.97);
    }
    procBoundary1to2
    {
        type            processor;
        value           nonuniform List<scalar> 5(297.98 297.98 297.98 297.98 297.98);
    }
}


// ************************************************************************* //
