/*--------------------------------*- C++ -*----------------------------------*\
| =========                 |                                                 |
| \\      /  F ield         | OpenFOAM: The Open Source CFD Toolbox           |
|  \\    /   O peration     | Version:  2.4.0                                 |
|   \\  /    A nd           | Web:      www.OpenFOAM.org                      |
|    \\/     M anipulation  |                                                 |
\*---------------------------------------------------------------------------*/
FoamFile
{
    version     2.0;
    format      ascii;
    class       volScalarField;
    location    "2.1";
    object      alpha1;
}
// * * * * * * * * * * * * * * * * * * * * * * * * * * * * * * * * * * * * * //

dimensions      [0 0 0 0 0 0 0];

internalField   nonuniform List<scalar> 
8000
(
1
1
1
1
1
1
1
1
1
1
1
1
1
1
1
1
1
1
0.999999
0.999999
0.999997
0.999993
0.999985
0.999997
0.999956
0.201895
0.000114295
5.33531e-07
4.115e-08
7.51584e-09
2.19953e-09
1.13447e-09
7.68147e-10
5.62649e-10
4.20107e-10
3.14531e-10
2.34907e-10
1.74673e-10
1.29218e-10
9.50734e-11
6.95644e-11
5.0625e-11
3.6652e-11
2.63981e-11
1.89208e-11
1.34946e-11
9.57939e-12
6.76667e-12
4.75538e-12
3.32438e-12
1
1
1
1
1
1
1
1
1
1
1
1
1
1
1
1
1
1
1
0.999999
0.999997
0.999994
0.999986
0.999994
0.999999
0.549283
0.000190423
3.05609e-06
1.33838e-07
2.5037e-08
5.45597e-09
2.16024e-09
1.33692e-09
9.6225e-10
7.17179e-10
5.37445e-10
4.01983e-10
2.99417e-10
2.21911e-10
1.6359e-10
1.19929e-10
8.74384e-11
6.34098e-11
4.57389e-11
3.28293e-11
2.34483e-11
1.66713e-11
1.1795e-11
8.30351e-12
5.81516e-12
1
1
1
1
1
1
1
1
1
1
1
1
1
1
1
1
1
1
1
0.999999
0.999997
0.999994
0.999987
0.999993
1
0.917935
0.0209042
2.1016e-05
5.53511e-07
1.0337e-07
1.83514e-08
5.06769e-09
2.50439e-09
1.68468e-09
1.23614e-09
9.22938e-10
6.89649e-10
5.13608e-10
3.80762e-10
2.80837e-10
2.06011e-10
1.50283e-10
1.09019e-10
7.86504e-11
5.64493e-11
4.03166e-11
2.86669e-11
2.02899e-11
1.42928e-11
1.00166e-11
1
1
1
1
1
1
1
1
1
1
1
1
1
1
1
1
1
1
1
0.999999
0.999998
0.999995
0.999989
0.999992
0.999998
0.999977
0.386915
0.00126121
2.28043e-06
4.31846e-07
6.91486e-08
1.48693e-08
5.442e-09
3.17013e-09
2.23176e-09
1.64886e-09
1.22853e-09
9.14006e-10
6.7725e-10
4.99319e-10
3.66124e-10
2.669e-10
1.93411e-10
1.39324e-10
9.97882e-11
7.10957e-11
5.04205e-11
3.55962e-11
2.50132e-11
1.74834e-11
1
1
1
1
1
1
1
1
1
1
1
1
1
1
1
1
1
1
1
0.999999
0.999998
0.999996
0.999991
0.999992
0.999997
1
0.875179
0.020556
4.39471e-05
1.30593e-06
1.6602e-07
3.10191e-08
1.00981e-08
5.50299e-09
3.78767e-09
2.77994e-09
2.0675e-09
1.53775e-09
1.13962e-09
8.4042e-10
6.1636e-10
4.49328e-10
3.25509e-10
2.34297e-10
1.67578e-10
1.19153e-10
8.42894e-11
5.93544e-11
4.1609e-11
2.90004e-11
1
1
1
1
1
1
1
1
1
1
1
1
1
1
1
1
1
1
1
0.999999
0.999998
0.999996
0.999993
0.999993
0.999996
0.999999
1.00003
0.36558
0.00196352
5.55728e-06
4.91061e-07
8.18534e-08
2.18358e-08
1.01307e-08
6.54157e-09
4.71563e-09
3.4895e-09
2.59009e-09
1.91746e-09
1.41283e-09
1.03525e-09
7.53944e-10
5.45496e-10
3.91941e-10
2.79648e-10
1.98268e-10
1.39821e-10
9.81439e-11
6.8559e-11
4.76427e-11
1
1
1
1
1
1
1
1
1
1
1
1
1
1
1
1
1
1
1
0.999999
0.999998
0.999997
0.999994
0.999994
0.999996
0.999998
0.999999
0.860026
0.0161751
0.000260583
4.82412e-07
1.02268e-07
3.09672e-08
1.52984e-08
1.00773e-08
7.30292e-09
5.41574e-09
4.02566e-09
2.9825e-09
2.19867e-09
1.61162e-09
1.17393e-09
8.4932e-10
6.10065e-10
4.35021e-10
3.0791e-10
2.1659e-10
1.51587e-10
1.05618e-10
7.31974e-11
1
1
1
1
1
1
1
1
1
1
1
1
1
1
1
1
1
1
1
0.999999
0.999998
0.999997
0.999995
0.999995
0.999996
0.999998
1
1.00001
0.279206
0.00194573
8.6166e-07
1.53504e-07
4.65722e-08
2.28409e-08
1.49847e-08
1.08459e-08
8.03203e-09
5.96035e-09
4.40798e-09
3.24349e-09
2.3729e-09
1.72499e-09
1.24528e-09
8.92346e-10
6.34664e-10
4.48116e-10
3.14386e-10
2.19273e-10
1.52068e-10
1.04928e-10
1
1
1
1
1
1
1
1
1
1
1
1
1
1
1
1
1
1
1
0.999999
0.999998
0.999997
0.999996
0.999996
0.999997
0.999998
0.999999
0.999997
0.671599
0.00128611
6.03899e-07
1.47074e-07
5.22978e-08
2.88987e-08
1.98828e-08
1.45846e-08
1.08347e-08
8.04193e-09
5.94313e-09
4.36825e-09
3.19157e-09
2.3165e-09
1.66901e-09
1.19343e-09
8.46953e-10
5.96577e-10
4.17521e-10
2.90722e-10
2.01587e-10
1.39176e-10
1
1
1
1
1
1
1
1
1
1
1
1
1
1
1
1
1
1
1
0.999999
0.999999
0.999997
0.999996
0.999996
0.999997
0.999998
0.999999
1
0.904638
0.000751976
4.54687e-07
1.34373e-07
5.54169e-08
3.42384e-08
2.44789e-08
1.81106e-08
1.3458e-08
9.97122e-09
7.35181e-09
5.39045e-09
3.92882e-09
2.84505e-09
2.04591e-09
1.46001e-09
1.03402e-09
7.27164e-10
5.08368e-10
3.53826e-10
2.45206e-10
1.69244e-10
1
1
1
1
1
1
1
1
1
1
1
1
1
1
1
1
1
1
1
0.999999
0.999999
0.999998
0.999997
0.999997
0.999997
0.999998
0.999999
1
0.999871
0.0152849
1.59853e-06
1.4034e-07
6.10581e-08
4.02828e-08
2.93313e-08
2.17272e-08
1.60913e-08
1.18672e-08
8.70569e-09
6.3503e-09
4.60382e-09
3.31627e-09
2.37243e-09
1.68485e-09
1.18798e-09
8.32077e-10
5.7944e-10
4.01817e-10
2.77773e-10
1.91478e-10
1
1
1
1
1
1
1
1
1
1
1
1
1
1
1
1
1
1
1
0.999999
0.999999
0.999998
0.999997
0.999998
0.999998
0.999998
0.999998
1
0.999811
0.00967232
1.03173e-06
1.39917e-07
6.51449e-08
4.51937e-08
3.32269e-08
2.45412e-08
1.80645e-08
1.3228e-08
9.63334e-09
6.97645e-09
5.02338e-09
3.59464e-09
2.5555e-09
1.80383e-09
1.26446e-09
8.81087e-10
6.10974e-10
4.22219e-10
2.90756e-10
1.99322e-10
1
1
1
1
1
1
1
1
1
1
1
1
1
1
1
1
1
1
0.999999
0.999999
0.999999
0.999998
0.999998
0.999998
0.999998
0.999998
0.999998
1
0.767668
0.00189957
1.39352e-06
1.58227e-07
6.88685e-08
4.87746e-08
3.58959e-08
2.63104e-08
1.91687e-08
1.38775e-08
9.98316e-09
7.13675e-09
5.06889e-09
3.57646e-09
2.50742e-09
1.74548e-09
1.20662e-09
8.29719e-10
5.68197e-10
3.87185e-10
2.62181e-10
1.76412e-10
1
1
1
1
1
1
1
1
1
1
1
1
1
1
1
1
1
1
0.999999
0.999999
0.999999
0.999999
0.999999
0.999999
0.999999
0.999999
0.999996
0.998982
0.256407
0.00442378
2.95687e-06
2.21938e-07
7.08771e-08
4.90063e-08
3.59601e-08
2.6127e-08
1.88552e-08
1.35142e-08
9.61653e-09
6.7975e-09
4.7688e-09
3.29925e-09
2.2589e-09
1.53477e-09
1.03623e-09
6.95448e-10
4.6474e-10
3.09494e-10
2.05289e-10
1.35525e-10
1
1
1
1
1
1
1
1
1
1
1
1
1
1
1
1
1
0.999999
0.999999
0.999999
0.999999
0.999999
0.999999
1
0.999999
0.999925
0.955552
0.308642
0.00983408
7.89061e-05
1.17572e-06
1.32589e-07
5.5105e-08
3.97725e-08
2.88876e-08
2.06012e-08
1.45014e-08
1.01041e-08
6.91699e-09
4.66102e-09
3.10924e-09
2.06944e-09
1.37098e-09
9.06646e-10
5.99234e-10
3.95315e-10
2.60017e-10
1.70445e-10
1.11316e-10
7.24052e-11
1
1
1
1
1
1
1
1
1
1
1
1
1
1
1
1
0.999999
0.999999
1
1
1
0.999999
0.999999
0.999999
0.999538
0.783882
0.186665
0.0118446
0.000234581
2.28343e-06
3.84497e-07
5.68208e-08
3.45902e-08
2.55857e-08
1.83522e-08
1.25139e-08
8.16736e-09
5.2464e-09
3.39116e-09
2.21527e-09
1.45719e-09
9.62502e-10
6.35807e-10
4.1919e-10
2.75681e-10
1.80741e-10
1.18061e-10
7.68124e-11
4.9768e-11
3.21066e-11
1
1
1
1
1
1
1
1
1
1
1
1
1
1
0.999999
0.999999
0.999999
1
1
1
1
0.999999
0.999764
0.974645
0.447119
0.0693907
0.00267316
5.00152e-06
8.68329e-08
3.07543e-08
9.82827e-09
5.56197e-09
3.51947e-09
2.38832e-09
1.75698e-09
1.39437e-09
1.09751e-09
8.19831e-10
5.93843e-10
4.22396e-10
2.96781e-10
2.06454e-10
1.42283e-10
9.72028e-11
6.5872e-11
4.43028e-11
2.95811e-11
1.96147e-11
1.29196e-11
8.45463e-12
1
1
1
1
1
1
1
1
1
1
1
1
0.999999
0.999999
0.999999
0.999999
0.999998
1
1
1
0.999836
0.998752
0.620851
0.124608
0.00292098
0.000450678
4.76515e-05
3.06241e-07
5.42942e-08
6.4254e-09
2.56003e-09
1.6282e-09
1.10954e-09
7.74508e-10
5.53281e-10
4.01497e-10
2.90786e-10
2.07937e-10
1.47225e-10
1.03455e-10
7.22219e-11
5.00895e-11
3.45031e-11
2.36015e-11
1.60322e-11
1.08152e-11
7.24569e-12
4.82122e-12
3.18634e-12
2.09174e-12
1
1
1
1
1
1
1
1
1
1
1
0.999999
0.999999
0.999999
0.999999
0.999998
0.999993
0.999999
0.999891
0.998782
0.697151
0.148254
0.00434931
0.00221679
9.78762e-06
1.60072e-07
1.84186e-07
5.68527e-08
7.00007e-09
1.23425e-09
6.56379e-10
4.39698e-10
3.02998e-10
2.1042e-10
1.46998e-10
1.0296e-10
7.19697e-11
5.00917e-11
3.4735e-11
2.40051e-11
1.6531e-11
1.13381e-11
7.741e-12
5.25868e-12
3.55333e-12
2.38754e-12
1.59487e-12
1.05895e-12
6.98765e-13
4.58169e-13
1
1
1
1
1
1
1
1
1
0.999999
0.999999
0.999999
0.999999
0.999998
0.999999
0.999976
0.991195
0.99857
0.743139
0.130359
0.00807266
0.00266789
9.03332e-06
7.95296e-06
9.32628e-08
6.61895e-08
4.04465e-08
1.04321e-08
1.07614e-09
2.34323e-10
1.33547e-10
8.77943e-11
5.91404e-11
4.02608e-11
2.76035e-11
1.90036e-11
1.3103e-11
9.03477e-12
6.22572e-12
4.28449e-12
2.94246e-12
2.01504e-12
1.37502e-12
9.34381e-13
6.31995e-13
4.25295e-13
2.84637e-13
1.89399e-13
1.25264e-13
8.23223e-14
2.31167e-12
1.59892e-12
1.10006e-12
7.52848e-13
5.12511e-13
3.47058e-13
2.33776e-13
1.56633e-13
1.04386e-13
6.91917e-14
4.5615e-14
2.99078e-14
1.95012e-14
1.26448e-14
8.15269e-15
5.22606e-15
3.33015e-15
2.10901e-15
1.32712e-15
8.29528e-16
5.14881e-16
3.17245e-16
1.93981e-16
1.17673e-16
7.08015e-17
4.2245e-17
2.49928e-17
1.46594e-17
8.52397e-18
4.9131e-18
2.80676e-18
1.58896e-18
8.91178e-19
4.95002e-19
2.72169e-19
1.48049e-19
7.96173e-20
4.22945e-20
2.21728e-20
1.14589e-20
5.83059e-21
2.91682e-21
1.4323e-21
6.89092e-22
3.24125e-22
1.48679e-22
6.63136e-23
2.86552e-23
1.19428e-23
4.7728e-24
4.05084e-12
2.80673e-12
1.93435e-12
1.32607e-12
9.04259e-13
6.13362e-13
4.13839e-13
2.77731e-13
1.8539e-13
1.23083e-13
8.12734e-14
5.33728e-14
3.48574e-14
2.26384e-14
1.46198e-14
9.38697e-15
5.99143e-15
3.80071e-15
2.39561e-15
1.49987e-15
9.32488e-16
5.7549e-16
3.52455e-16
2.1415e-16
1.29056e-16
7.71275e-17
4.57036e-17
2.6851e-17
1.56387e-17
9.02878e-18
5.16637e-18
2.92941e-18
1.64546e-18
9.15245e-19
5.03861e-19
2.74372e-19
1.47674e-19
7.84921e-20
4.11601e-20
2.12698e-20
1.08175e-20
5.40672e-21
2.6513e-21
1.27312e-21
5.97328e-22
2.73125e-22
1.21333e-22
5.21718e-23
2.16113e-23
8.57123e-24
6.98264e-12
4.84159e-12
3.33932e-12
2.29134e-12
1.56411e-12
1.06209e-12
7.17402e-13
4.8199e-13
3.22089e-13
2.14073e-13
1.41508e-13
9.30293e-14
6.08222e-14
3.95442e-14
2.55651e-14
1.64326e-14
1.04999e-14
6.66797e-15
4.2074e-15
2.63703e-15
1.64117e-15
1.01388e-15
6.21552e-16
3.78014e-16
2.28023e-16
1.364e-16
8.09022e-17
4.75745e-17
2.77342e-17
1.60264e-17
9.17839e-18
5.20839e-18
2.92757e-18
1.62925e-18
8.97249e-19
4.88645e-19
2.6296e-19
1.39704e-19
7.3198e-20
3.77797e-20
1.91828e-20
9.56755e-21
4.67917e-21
2.23952e-21
1.04656e-21
4.76245e-22
2.10358e-22
8.98332e-23
3.6906e-23
1.44902e-23
1.21521e-11
8.39379e-12
5.77079e-12
3.95215e-12
2.69481e-12
1.82862e-12
1.23477e-12
8.2935e-13
5.54061e-13
3.68155e-13
2.43301e-13
1.59914e-13
1.04529e-13
6.79484e-14
4.39212e-14
2.82274e-14
1.80343e-14
1.14514e-14
7.22488e-15
4.52771e-15
2.81744e-15
1.74026e-15
1.06665e-15
6.4857e-16
3.91137e-16
2.33919e-16
1.38719e-16
8.15663e-17
4.75476e-17
2.74751e-17
1.57349e-17
8.92839e-18
5.01768e-18
2.79161e-18
1.53669e-18
8.36359e-19
4.4966e-19
2.38578e-19
1.24784e-19
6.42585e-20
3.25337e-20
1.61687e-20
7.87371e-21
3.74929e-21
1.74158e-21
7.86937e-22
3.44721e-22
1.45785e-22
5.92052e-23
2.29258e-23
2.0101e-11
1.38748e-11
9.53526e-12
6.52763e-12
4.45034e-12
3.01957e-12
2.03813e-12
1.36838e-12
9.13784e-13
6.06917e-13
4.00914e-13
2.63389e-13
1.72089e-13
1.11813e-13
7.22417e-14
4.64071e-14
2.96351e-14
1.88086e-14
1.18627e-14
7.43219e-15
4.62417e-15
2.85598e-15
1.75054e-15
1.0647e-15
6.42301e-16
3.8426e-16
2.27934e-16
1.34035e-16
7.81285e-17
4.51336e-17
2.5834e-17
1.46471e-17
8.22252e-18
4.56783e-18
2.50947e-18
1.36235e-18
7.30238e-19
3.8608e-19
2.01109e-19
1.03077e-19
5.19078e-20
2.5641e-20
1.24009e-20
5.85928e-21
2.6978e-21
1.20686e-21
5.22662e-22
2.18156e-22
8.7259e-23
3.31903e-23
3.29343e-11
2.2651e-11
1.54965e-11
1.05544e-11
7.16945e-12
4.85086e-12
3.2675e-12
2.19007e-12
1.46005e-12
9.68127e-13
6.3847e-13
4.18791e-13
2.73277e-13
1.774e-13
1.14554e-13
7.35836e-14
4.69947e-14
2.98331e-14
1.88147e-14
1.17838e-14
7.3263e-15
4.52011e-15
2.76645e-15
1.6791e-15
1.01063e-15
6.03172e-16
3.56937e-16
2.09419e-16
1.218e-16
7.02084e-17
4.00979e-17
2.26819e-17
1.27013e-17
7.03645e-18
3.8537e-18
2.08472e-18
1.11286e-18
5.8556e-19
3.03326e-19
1.54476e-19
7.72238e-20
3.78284e-20
1.81216e-20
8.4702e-21
3.85264e-21
1.69987e-21
7.24755e-22
2.9716e-22
1.16438e-22
4.32342e-23
5.03914e-11
3.45124e-11
2.35621e-11
1.60454e-11
1.08914e-11
7.36418e-12
4.95397e-12
3.31477e-12
2.20703e-12
1.46249e-12
9.64583e-13
6.32893e-13
4.12923e-13
2.67842e-13
1.72708e-13
1.10687e-13
7.05217e-14
4.46604e-14
2.81058e-14
1.75697e-14
1.09052e-14
6.71743e-15
4.10509e-15
2.48814e-15
1.49544e-15
8.91073e-16
5.263e-16
3.08073e-16
1.78686e-16
1.0267e-16
5.84214e-17
3.29075e-17
1.83395e-17
1.01059e-17
5.50201e-18
2.95683e-18
1.56685e-18
8.17711e-19
4.19734e-19
2.11599e-19
1.04595e-19
5.06022e-20
2.39095e-20
1.10067e-20
4.92256e-21
2.13149e-21
8.89833e-22
3.56256e-22
1.35843e-22
4.88698e-23
7.21082e-11
4.93315e-11
3.36574e-11
2.29169e-11
1.55465e-11
1.05034e-11
7.06514e-12
4.72849e-12
3.14649e-12
2.08149e-12
1.3692e-12
8.96105e-13
5.83531e-13
3.78012e-13
2.43523e-13
1.55982e-13
9.92986e-14
6.27986e-14
3.94399e-14
2.45915e-14
1.52175e-14
9.34094e-15
5.68495e-15
3.42962e-15
2.05062e-15
1.21507e-15
7.13435e-16
4.15043e-16
2.39185e-16
1.36508e-16
7.71236e-17
4.31123e-17
2.38297e-17
1.3014e-17
7.01615e-18
3.73043e-18
1.95397e-18
1.00704e-18
5.09977e-19
2.53366e-19
1.23278e-19
5.86269e-20
2.71894e-20
1.22645e-20
5.36412e-21
2.26631e-21
9.20683e-22
3.57539e-22
1.31712e-22
4.55474e-23
9.56653e-11
6.55111e-11
4.47329e-11
3.04682e-11
2.06643e-11
1.39381e-11
9.35259e-12
6.2468e-12
4.15203e-12
2.74507e-12
1.80485e-12
1.17981e-12
7.66736e-13
4.95274e-13
3.17856e-13
2.02598e-13
1.28229e-13
8.0572e-14
5.02457e-14
3.10872e-14
1.90772e-14
1.16099e-14
7.00585e-15
4.19111e-15
2.48519e-15
1.46045e-15
8.50438e-16
4.90607e-16
2.80309e-16
1.58557e-16
8.87481e-17
4.91237e-17
2.68695e-17
1.45108e-17
7.72984e-18
4.05716e-18
2.09568e-18
1.0639e-18
5.30032e-19
2.58705e-19
1.23479e-19
5.751e-20
2.60731e-20
1.14737e-20
4.88432e-21
2.00318e-21
7.87496e-22
2.94844e-22
1.04247e-22
3.44028e-23
1.16398e-10
7.98183e-11
5.45112e-11
3.70655e-11
2.50983e-11
1.69117e-11
1.13312e-11
7.54678e-12
4.99503e-12
3.28398e-12
2.14434e-12
1.39085e-12
8.96193e-13
5.73743e-13
3.64971e-13
2.30654e-13
1.44775e-13
9.02194e-14
5.57982e-14
3.42369e-14
2.08347e-14
1.25718e-14
7.52038e-15
4.45907e-15
2.62025e-15
1.52566e-15
8.80021e-16
5.02713e-16
2.84293e-16
1.59079e-16
8.80218e-17
4.81263e-17
2.59791e-17
1.38326e-17
7.25707e-18
3.74701e-18
1.90157e-18
9.47143e-19
4.62277e-19
2.20697e-19
1.02854e-19
4.66855e-20
2.05841e-20
8.78875e-21
3.62055e-21
1.43265e-21
5.41531e-22
1.94161e-22
6.54206e-23
2.04506e-23
1.3158e-10
9.00758e-11
6.13625e-11
4.15371e-11
2.79243e-11
1.86393e-11
1.23534e-11
8.13181e-12
5.31879e-12
3.45787e-12
2.23457e-12
1.43532e-12
9.16293e-13
5.81299e-13
3.66403e-13
2.29395e-13
1.42599e-13
8.79812e-14
5.38583e-14
3.27012e-14
1.96882e-14
1.17512e-14
6.95209e-15
4.07595e-15
2.36778e-15
1.36253e-15
7.76447e-16
4.37982e-16
2.44431e-16
1.34878e-16
7.35348e-17
3.95777e-17
2.1009e-17
1.09877e-17
5.65523e-18
2.86083e-18
1.42045e-18
6.91169e-19
3.29022e-19
1.52939e-19
6.92684e-20
3.04935e-20
1.30109e-20
5.36285e-21
2.12697e-21
8.07831e-22
2.92071e-22
9.97577e-23
3.18627e-23
9.38213e-24
1.35812e-10
9.18811e-11
6.17183e-11
4.11749e-11
2.7293e-11
1.79822e-11
1.17772e-11
7.66688e-12
4.96101e-12
3.19084e-12
2.03995e-12
1.29626e-12
8.18594e-13
5.13648e-13
3.20156e-13
1.98157e-13
1.21745e-13
7.42206e-14
4.48831e-14
2.69151e-14
1.60012e-14
9.42887e-15
5.5059e-15
3.18539e-15
1.82536e-15
1.0357e-15
5.81622e-16
3.23097e-16
1.77434e-16
9.62576e-17
5.15423e-17
2.72158e-17
1.41568e-17
7.24612e-18
3.64514e-18
1.79975e-18
8.70881e-19
4.1234e-19
1.90688e-19
8.59593e-20
3.76863e-20
1.60278e-20
6.59279e-21
2.61368e-21
9.94515e-22
3.61358e-22
1.24588e-22
4.04282e-23
1.22126e-23
3.38163e-24
1.18e-10
7.84675e-11
5.1876e-11
3.40958e-11
2.22797e-11
1.44757e-11
9.35215e-12
6.00754e-12
3.83671e-12
2.4359e-12
1.53728e-12
9.64228e-13
6.00978e-13
3.72115e-13
2.28822e-13
1.39693e-13
8.46359e-14
5.08741e-14
3.03296e-14
1.79285e-14
1.05056e-14
6.10069e-15
3.50998e-15
2.00014e-15
1.12844e-15
6.30022e-16
3.47901e-16
1.89889e-16
1.02368e-16
5.4462e-17
2.85689e-17
1.47615e-17
7.50475e-18
3.74975e-18
1.83898e-18
8.84012e-19
4.15899e-19
1.91179e-19
8.57065e-20
3.73944e-20
1.58417e-20
6.49886e-21
2.57374e-21
9.80396e-22
3.57642e-22
1.24275e-22
4.08597e-23
1.26008e-23
3.60219e-24
9.38432e-25
8.90131e-11
5.81624e-11
3.78062e-11
2.44447e-11
1.57216e-11
1.00579e-11
6.40037e-12
4.05095e-12
2.54977e-12
1.59572e-12
9.92738e-13
6.13807e-13
3.77076e-13
2.30087e-13
1.39405e-13
8.38387e-14
5.00319e-14
2.96178e-14
1.73873e-14
1.01195e-14
5.83722e-15
3.33601e-15
1.88828e-15
1.05813e-15
5.86718e-16
3.21729e-16
1.74357e-16
9.3317e-17
4.92837e-17
2.56616e-17
1.3161e-17
6.64153e-18
3.29411e-18
1.6039e-18
7.65635e-19
3.57813e-19
1.63459e-19
7.2868e-20
3.16388e-20
1.33516e-20
5.46298e-21
2.16128e-21
8.24111e-22
3.01721e-22
1.05583e-22
3.51177e-23
1.10238e-23
3.23594e-24
8.77121e-25
2.15536e-25
4.68934e-11
3.02358e-11
1.94063e-11
1.2397e-11
7.88124e-12
4.98574e-12
3.13806e-12
1.96475e-12
1.22338e-12
7.57376e-13
4.66046e-13
2.84959e-13
1.73076e-13
1.04387e-13
6.24984e-14
3.71335e-14
2.18876e-14
1.27947e-14
7.41518e-15
4.25921e-15
2.42379e-15
1.36598e-15
7.62048e-16
4.20614e-16
2.29562e-16
1.23808e-16
6.59364e-17
3.46488e-17
1.79503e-17
9.15969e-18
4.59929e-18
2.2701e-18
1.10016e-18
5.22868e-19
2.4338e-19
1.10792e-19
4.92477e-20
2.13383e-20
8.99479e-21
3.68076e-21
1.45856e-21
5.58114e-22
2.05538e-22
7.25655e-23
2.44445e-23
7.81106e-24
2.35017e-24
6.59392e-25
1.70281e-25
3.97826e-26
2.06209e-11
1.31839e-11
8.38978e-12
5.31347e-12
3.34862e-12
2.09964e-12
1.30957e-12
8.12297e-13
5.00937e-13
3.07048e-13
1.87003e-13
1.13129e-13
6.79582e-14
4.05244e-14
2.39805e-14
1.40775e-14
8.19567e-15
4.73026e-15
2.70568e-15
1.53318e-15
8.60301e-16
4.77802e-16
2.62519e-16
1.42607e-16
7.65447e-17
4.05679e-17
2.12139e-17
1.09366e-17
5.55379e-18
2.77552e-18
1.3637e-18
6.58044e-19
3.115e-19
1.44476e-19
6.55686e-20
2.90755e-20
1.25776e-20
5.29843e-21
2.16929e-21
8.61288e-22
3.30782e-22
1.22528e-22
4.36266e-23
1.48719e-23
4.83152e-24
1.48916e-24
4.35495e-25
1.24608e-25
4.15385e-26
2.46032e-26
5.49772e-12
3.55265e-12
2.28152e-12
1.45611e-12
9.23513e-13
5.82011e-13
3.64415e-13
2.26652e-13
1.4e-13
8.58615e-14
5.2271e-14
3.15793e-14
1.89281e-14
1.12527e-14
6.6332e-15
3.87599e-15
2.24439e-15
1.28743e-15
7.31309e-16
4.11202e-16
2.28766e-16
1.25863e-16
6.84439e-17
3.6766e-17
1.94963e-17
1.01988e-17
5.2591e-18
2.6711e-18
1.33509e-18
6.5611e-19
3.16709e-19
1.50005e-19
6.96342e-20
3.16429e-20
1.40569e-20
6.0958e-21
2.57635e-21
1.05936e-21
4.22966e-22
1.63647e-22
6.12491e-23
2.21854e-23
7.85821e-24
2.86432e-24
1.27562e-24
9.04294e-25
9.86453e-25
1.28176e-24
1.73877e-24
2.37803e-24
1.36399e-12
8.83497e-13
5.68429e-13
3.63242e-13
2.30528e-13
1.45279e-13
9.09002e-14
5.64581e-14
3.48014e-14
2.12853e-14
1.29144e-14
7.77088e-15
4.63618e-15
2.74174e-15
1.60675e-15
9.32805e-16
5.3631e-16
3.05259e-16
1.71941e-16
9.57989e-17
5.27726e-17
2.87275e-17
1.5445e-17
8.19617e-18
4.29028e-18
2.21363e-18
1.12498e-18
5.62679e-19
2.76743e-19
1.3372e-19
6.34167e-20
2.94878e-20
1.34289e-20
5.98309e-21
2.60558e-21
1.10911e-21
4.6301e-22
1.92433e-22
8.3883e-23
4.39208e-23
3.29525e-23
3.49699e-23
4.41098e-23
5.88878e-23
7.98576e-23
1.08774e-22
1.48433e-22
2.02843e-22
2.77624e-22
3.80632e-22
2.98467e-13
1.93143e-13
1.24139e-13
7.92329e-14
5.02108e-14
3.15862e-14
1.97203e-14
1.22166e-14
7.50765e-15
4.57588e-15
2.76537e-15
1.65664e-15
9.8352e-16
5.78488e-16
3.37001e-16
1.9438e-16
1.1097e-16
6.26793e-17
3.50128e-17
1.93339e-17
1.05484e-17
5.68321e-18
3.02203e-18
1.58501e-18
8.19438e-19
4.17308e-19
2.09201e-19
1.03178e-19
5.0054e-20
2.39068e-20
1.12919e-20
5.3525e-21
2.65533e-21
1.5165e-21
1.13123e-21
1.12979e-21
1.35596e-21
1.75948e-21
2.34632e-21
3.15799e-21
4.26601e-21
5.77476e-21
7.83049e-21
1.06359e-20
1.44714e-20
1.9725e-20
2.69345e-20
3.68464e-20
5.04982e-20
6.9334e-20
5.37463e-14
3.48511e-14
2.24398e-14
1.43435e-14
9.09969e-15
5.72832e-15
3.57729e-15
2.21565e-15
1.36069e-15
8.28358e-16
4.99764e-16
2.98732e-16
1.76866e-16
1.03686e-16
6.01693e-17
3.45507e-17
1.96249e-17
1.10221e-17
6.11865e-18
3.35613e-18
1.81857e-18
9.73743e-19
5.15956e-19
2.71786e-19
1.44111e-19
7.93094e-20
4.82473e-20
3.54225e-20
3.28425e-20
3.66358e-20
4.52172e-20
5.83304e-20
7.65856e-20
1.01282e-19
1.34406e-19
1.78749e-19
2.38133e-19
3.17749e-19
4.24626e-19
5.6828e-19
7.61595e-19
1.02202e-18
1.37322e-18
1.84724e-18
2.4876e-18
3.3533e-18
4.52434e-18
6.10907e-18
8.25398e-18
1.11568e-17
1.81455e-24
1.18468e-24
7.67685e-25
4.93661e-25
3.14957e-25
1.99325e-25
1.25103e-25
7.78538e-26
4.80285e-26
2.9365e-26
1.77898e-26
1.06763e-26
6.34568e-27
3.73451e-27
2.17559e-27
1.2543e-27
7.15467e-28
4.03671e-28
2.25215e-28
1.24215e-28
6.77081e-29
3.64641e-29
1.93965e-29
1.01878e-29
5.28202e-30
2.70239e-30
1.3639e-30
6.78832e-31
3.33071e-31
1.61048e-31
7.67126e-32
3.59842e-32
1.66161e-32
7.5501e-33
3.37454e-33
1.483e-33
6.40551e-34
2.71813e-34
1.13267e-34
4.63304e-35
1.85933e-35
7.31778e-36
2.82316e-36
1.06718e-36
3.95143e-37
1.43321e-37
5.09902e-38
1.7891e-38
6.30609e-39
2.36058e-39
1.06663e-39
6.73059e-40
5.79951e-40
5.87064e-40
6.29532e-40
6.87235e-40
7.54491e-40
8.30222e-40
9.14823e-40
1.00922e-39
1.11459e-39
1.23231e-39
1.3639e-39
1.51112e-39
1.67588e-39
1.86036e-39
2.06694e-39
2.29828e-39
2.55735e-39
2.84743e-39
3.17214e-39
3.53553e-39
3.94205e-39
4.39667e-39
4.90495e-39
5.47305e-39
6.10795e-39
6.81751e-39
7.61067e-39
8.49769e-39
9.49047e-39
1.06029e-38
1.18515e-38
1.32555e-38
1.48385e-38
1.66286e-38
1.86601e-38
2.09751e-38
2.36249e-38
2.66733e-38
3.01989e-38
3.42995e-38
3.90967e-38
4.47423e-38
5.14259e-38
5.93856e-38
6.89199e-38
8.04055e-38
9.43184e-38
1.11262e-37
1.32004e-37
1.57523e-37
1.89069e-37
2.28248e-37
2.77123e-37
3.3836e-37
4.15398e-37
5.12694e-37
6.36025e-37
7.92886e-37
9.93035e-37
1.24916e-36
1.57774e-36
2.00021e-36
2.54439e-36
3.24645e-36
4.15332e-36
5.3258e-36
6.8427e-36
8.80596e-36
1.13475e-35
1.46372e-35
1.88944e-35
2.44005e-35
3.15154e-35
4.06984e-35
5.25318e-35
6.77573e-35
8.73151e-35
1.12392e-34
1.44482e-34
1.85466e-34
2.37697e-34
3.04116e-34
3.88386e-34
4.95055e-34
6.29759e-34
7.99459e-34
1.01273e-33
1.28012e-33
1.61452e-33
2.03169e-33
2.55082e-33
3.19512e-33
3.99264e-33
4.977e-33
6.1883e-33
7.67407e-33
9.49012e-33
1.17015e-32
1.43834e-32
1.76218e-32
2.15137e-32
2.61682e-32
3.17056e-32
3.82577e-32
4.59663e-32
5.49824e-32
6.54633e-32
7.75704e-32
9.14646e-32
1.07302e-31
1.25227e-31
1.45368e-31
1.67826e-31
1.92668e-31
2.19919e-31
2.49552e-31
2.81477e-31
3.15539e-31
3.51506e-31
3.89068e-31
4.27834e-31
4.67332e-31
5.07015e-31
5.46267e-31
5.84415e-31
6.20744e-31
6.54518e-31
6.84999e-31
7.11473e-31
7.33276e-31
7.49818e-31
7.60612e-31
7.65293e-31
7.63639e-31
7.55583e-31
7.41221e-31
7.20813e-31
6.94774e-31
6.63664e-31
6.28165e-31
5.89057e-31
5.47189e-31
5.03445e-31
4.58714e-31
4.13854e-31
3.6967e-31
3.2688e-31
2.86101e-31
2.47834e-31
2.12457e-31
1.80223e-31
1.51269e-31
1.25621e-31
1.03212e-31
8.3895e-32
6.74656e-32
5.36754e-32
4.22508e-32
3.29077e-32
2.5364e-32
1.93496e-32
1.46138e-32
1.09303e-32
8.09955e-33
5.94949e-33
4.33494e-33
3.13571e-33
2.25418e-33
1.61242e-33
1.1493e-33
8.17658e-34
5.81672e-34
4.1454e-34
2.96505e-34
2.13195e-34
1.54295e-34
1.12481e-34
8.261e-35
6.10975e-35
4.54612e-35
3.39865e-35
2.54889e-35
1.91458e-35
1.43812e-35
1.07869e-35
8.06947e-36
6.0142e-36
4.46185e-36
3.29263e-36
2.41547e-36
1.76063e-36
1.27455e-36
9.15992e-37
6.53307e-37
4.62259e-37
3.24381e-37
2.25683e-37
1.55629e-37
1.06347e-37
7.19954e-38
4.82781e-38
3.20624e-38
2.10859e-38
1.37311e-38
8.85351e-39
5.65223e-39
3.5729e-39
2.23626e-39
1.38591e-39
8.50465e-40
5.16749e-40
3.10874e-40
1.85155e-40
1.09165e-40
6.37038e-41
3.67874e-41
2.10185e-41
1.18793e-41
6.64024e-42
3.67041e-42
2.00597e-42
1.08386e-42
5.78939e-43
3.05682e-43
1.59535e-43
8.22906e-44
4.19483e-44
2.1131e-44
1.05185e-44
5.17402e-45
2.51522e-45
1.20848e-45
5.73943e-46
2.69469e-46
1.25088e-46
5.74181e-47
2.60676e-47
1.17083e-47
5.20488e-48
2.29145e-48
9.99731e-49
4.32324e-49
1.84886e-49
7.74345e-50
3.09074e-50
1.10554e-50
3.12019e-51
5.11671e-52
3.22734e-24
2.09869e-24
1.35436e-24
8.67186e-25
5.50806e-25
3.4698e-25
2.16738e-25
1.34214e-25
8.23758e-26
5.01001e-26
3.01868e-26
1.80149e-26
1.06458e-26
6.22805e-27
3.60613e-27
2.06603e-27
1.17091e-27
6.56281e-28
3.63675e-28
1.99193e-28
1.07808e-28
5.76392e-29
3.04332e-29
1.58639e-29
8.16149e-30
4.14277e-30
2.07411e-30
1.02389e-30
4.98199e-31
2.38856e-31
1.12797e-31
5.24487e-32
2.40041e-32
1.0809e-32
4.78702e-33
2.08428e-33
8.91827e-34
3.74852e-34
1.54706e-34
6.26665e-35
2.49032e-35
9.70462e-36
3.70715e-36
1.38787e-36
5.09392e-37
1.83686e-37
6.55914e-38
2.37956e-38
9.43002e-39
4.71324e-39
3.32406e-39
3.06937e-39
3.20828e-39
3.49875e-39
3.86622e-39
4.29129e-39
4.77262e-39
5.3151e-39
5.92624e-39
6.61512e-39
7.39223e-39
8.26947e-39
9.26033e-39
1.038e-38
1.16457e-38
1.30767e-38
1.46945e-38
1.65237e-38
1.85914e-38
2.09284e-38
2.3569e-38
2.65517e-38
2.99202e-38
3.37235e-38
3.80175e-38
4.28656e-38
4.83404e-38
5.45256e-38
6.15185e-38
6.9433e-38
7.84035e-38
8.85898e-38
1.00184e-37
1.13418e-37
1.28573e-37
1.45996e-37
1.66112e-37
1.89447e-37
2.16656e-37
2.48555e-37
2.86164e-37
3.30764e-37
3.83967e-37
4.47807e-37
5.24861e-37
6.18399e-37
7.32587e-37
8.72742e-37
1.04568e-36
1.26013e-36
1.52739e-36
1.86201e-36
2.28285e-36
2.81437e-36
3.48842e-36
4.34647e-36
5.44268e-36
6.84789e-36
8.65484e-36
1.0985e-35
1.39978e-35
1.79021e-35
2.29723e-35
2.95675e-35
3.81578e-35
4.93587e-35
6.39738e-35
8.30507e-35
1.07954e-34
1.40456e-34
1.82854e-34
2.38129e-34
3.10132e-34
4.0385e-34
5.25697e-34
6.83924e-34
8.8908e-34
1.15467e-33
1.49783e-33
1.94036e-33
2.50992e-33
3.24164e-33
4.1802e-33
5.38182e-33
6.91758e-33
8.8761e-33
1.13666e-32
1.45259e-32
1.85244e-32
2.35734e-32
2.99344e-32
3.79296e-32
4.79548e-32
6.0494e-32
7.61361e-32
9.55929e-32
1.1972e-31
1.49536e-31
1.86247e-31
2.31263e-31
2.8622e-31
3.52997e-31
4.3373e-31
5.30818e-31
6.4693e-31
7.84996e-31
9.48194e-31
1.13992e-30
1.36373e-30
1.62331e-30
1.92233e-30
2.2644e-30
2.65289e-30
3.09079e-30
3.58053e-30
4.1238e-30
4.72134e-30
5.37274e-30
6.07623e-30
6.82854e-30
7.62472e-30
8.45804e-30
9.31996e-30
1.02001e-29
1.10864e-29
1.19651e-29
1.28214e-29
1.36393e-29
1.44022e-29
1.50937e-29
1.56977e-29
1.61992e-29
1.65849e-29
1.68435e-29
1.69668e-29
1.69495e-29
1.67896e-29
1.64892e-29
1.60535e-29
1.54915e-29
1.48153e-29
1.40397e-29
1.3182e-29
1.22606e-29
1.12953e-29
1.03057e-29
9.31086e-30
8.32881e-30
7.37568e-30
6.46542e-30
5.60941e-30
4.81637e-30
4.09226e-30
3.44041e-30
2.86173e-30
2.35501e-30
1.91725e-30
1.5441e-30
1.2302e-30
9.6958e-31
7.55989e-31
5.83179e-31
4.45132e-31
3.36239e-31
2.51404e-31
1.8612e-31
1.36484e-31
9.91867e-32
7.14812e-32
5.11265e-32
3.63288e-32
2.56763e-32
1.80763e-32
1.26971e-32
8.91484e-33
6.2688e-33
4.42349e-33
3.13785e-33
2.24088e-33
1.61266e-33
1.16991e-33
8.55318e-34
6.29637e-34
4.66093e-34
3.46409e-34
2.5805e-34
1.92353e-34
1.43256e-34
1.06452e-34
7.88372e-35
5.81329e-35
4.26463e-35
3.11044e-35
2.25423e-35
1.62256e-35
1.15943e-35
8.22164e-36
5.78347e-36
4.03452e-36
2.79022e-36
1.91256e-36
1.29903e-36
8.74116e-37
5.82629e-37
3.84625e-37
2.51461e-37
1.62806e-37
1.04383e-37
6.62756e-38
4.16723e-38
2.59489e-38
1.60018e-38
9.77228e-39
5.90987e-39
3.53904e-39
2.0983e-39
1.23158e-39
7.15476e-40
4.11318e-40
2.33952e-40
1.31632e-40
7.32503e-41
4.03101e-41
2.19346e-41
1.18012e-41
6.27725e-42
3.30086e-42
1.71577e-42
8.81504e-43
4.47597e-43
2.24613e-43
1.11397e-43
5.4606e-44
2.6459e-44
1.26744e-44
6.00275e-45
2.81128e-45
1.30215e-45
5.96654e-46
2.70537e-46
1.21446e-46
5.40094e-47
2.38133e-47
1.04129e-47
4.50666e-48
1.91266e-48
7.75176e-49
2.82353e-49
8.14326e-50
1.36956e-50
5.38734e-24
3.4862e-24
2.2384e-24
1.42576e-24
9.00713e-25
5.64248e-25
3.50432e-25
2.15722e-25
1.31596e-25
7.95344e-26
4.76133e-26
2.82267e-26
1.65671e-26
9.62455e-27
5.53292e-27
3.14672e-27
1.77001e-27
9.84455e-28
5.41248e-28
2.94074e-28
1.57854e-28
8.3688e-29
4.38081e-29
2.26359e-29
1.15415e-29
5.80512e-30
2.87943e-30
1.40801e-30
6.78528e-31
3.22136e-31
1.50616e-31
6.93279e-32
3.14044e-32
1.39945e-32
6.13259e-33
2.64167e-33
1.11813e-33
4.64839e-34
1.89729e-34
7.59989e-35
2.98643e-35
1.1509e-35
4.34972e-36
1.6137e-36
5.89958e-37
2.15394e-37
8.17951e-38
3.57632e-38
2.0919e-38
1.70128e-38
1.69491e-38
1.83132e-38
2.03187e-38
2.27347e-38
2.55175e-38
2.86881e-38
3.22932e-38
3.63932e-38
4.1059e-38
4.63726e-38
5.24275e-38
5.93309e-38
6.72047e-38
7.61876e-38
8.64375e-38
9.81338e-38
1.1148e-37
1.26708e-37
1.44081e-37
1.63898e-37
1.865e-37
2.12276e-37
2.41672e-37
2.752e-37
3.13452e-37
3.57115e-37
4.06995e-37
4.64038e-37
5.2937e-37
6.04334e-37
6.9055e-37
7.89983e-37
9.05036e-37
1.03866e-36
1.19452e-36
1.37715e-36
1.59224e-36
1.84693e-36
2.1502e-36
2.51342e-36
2.95099e-36
3.48128e-36
4.1277e-36
4.92027e-36
5.89753e-36
7.10914e-36
8.61931e-36
1.05113e-35
1.28932e-35
1.59061e-35
1.97343e-35
2.46192e-35
3.08771e-35
3.89241e-35
4.93072e-35
6.27467e-35
8.01909e-35
1.02889e-34
1.32487e-34
1.71151e-34
2.2173e-34
2.87973e-34
3.74801e-34
4.88673e-34
6.38052e-34
8.34019e-34
1.09107e-33
1.42815e-33
1.86998e-33
2.44871e-33
3.206e-33
4.19581e-33
5.48795e-33
7.17283e-33
9.36759e-33
1.22238e-32
1.59369e-32
2.07578e-32
2.7008e-32
3.50981e-32
4.55493e-32
5.90233e-32
7.63622e-32
9.86395e-32
1.27215e-31
1.63809e-31
2.10579e-31
2.70227e-31
3.46151e-31
4.42646e-31
5.6514e-31
7.20451e-31
9.16957e-31
1.16474e-30
1.47621e-30
1.86658e-30
2.35422e-30
2.96116e-30
3.71354e-30
4.64211e-30
5.78262e-30
7.17627e-30
8.87004e-30
1.09169e-29
1.33759e-29
1.63123e-29
1.97968e-29
2.39055e-29
2.87184e-29
3.43181e-29
4.07879e-29
4.82092e-29
5.66585e-29
6.62042e-29
7.69021e-29
8.87916e-29
1.01891e-28
1.16194e-28
1.31662e-28
1.48226e-28
1.65778e-28
1.8417e-28
2.03214e-28
2.22684e-28
2.42311e-28
2.61795e-28
2.80806e-28
2.98991e-28
3.15985e-28
3.31424e-28
3.44952e-28
3.56236e-28
3.64983e-28
3.70944e-28
3.73933e-28
3.73831e-28
3.70595e-28
3.64262e-28
3.54945e-28
3.42836e-28
3.28195e-28
3.11345e-28
2.92656e-28
2.72534e-28