/*--------------------------------*- C++ -*----------------------------------*\
| =========                 |                                                 |
| \\      /  F ield         | OpenFOAM: The Open Source CFD Toolbox           |
|  \\    /   O peration     | Version:  2.4.0                                 |
|   \\  /    A nd           | Web:      www.OpenFOAM.org                      |
|    \\/     M anipulation  |                                                 |
\*---------------------------------------------------------------------------*/
FoamFile
{
    version     2.0;
    format      ascii;
    class       volScalarField;
    location    "4.6";
    object      p_rgh;
}
// * * * * * * * * * * * * * * * * * * * * * * * * * * * * * * * * * * * * * //

dimensions      [1 -1 -2 0 0 0 0];

internalField   nonuniform List<scalar> 
8000
(
1.0071
1.00531
1.00441
1.00437
1.00414
1.00409
1.01382
1.05791
1.12472
0.963637
-0.0475002
-1.71368
0.112966
0.112644
0.112428
0.112573
0.112968
0.113504
0.114112
0.114745
0.115366
0.115954
0.116496
0.116986
0.117421
0.117799
0.118119
0.118379
0.118579
0.118719
0.118797
0.118816
0.118774
0.118673
0.118514
0.118299
0.118028
0.117703
0.117325
0.116895
0.116414
0.115884
0.115306
0.114681
0.11401
0.113295
0.112536
0.111736
0.110896
0.110016
2.52477
2.52244
2.5207
2.51993
2.51924
2.51899
2.5288
2.57282
2.63925
2.47726
1.48477
-0.475426
0.208184
0.20939
0.208796
0.208347
0.207987
0.207627
0.207232
0.206794
0.206309
0.205776
0.205197
0.204574
0.203912
0.203212
0.202478
0.201712
0.200915
0.200089
0.199234
0.198352
0.197443
0.19651
0.195552
0.194571
0.193568
0.192544
0.191501
0.190439
0.18936
0.188264
0.187153
0.186027
0.184887
0.183735
0.182571
0.181395
0.180209
0.179013
3.86007
3.85909
3.85785
3.85611
3.85323
3.84986
3.85386
3.88245
3.91892
3.75823
2.97575
0.486756
0.370581
0.370942
0.370514
0.370215
0.370009
0.369808
0.369571
0.369278
0.36892
0.368492
0.367995
0.36743
0.3668
0.366107
0.36535
0.364531
0.363648
0.362701
0.361688
0.360608
0.359462
0.35825
0.356971
0.355627
0.354219
0.352748
0.351216
0.349624
0.347974
0.346268
0.344508
0.342695
0.340831
0.338918
0.336958
0.334953
0.332904
0.330812
5.25602
5.25565
5.25451
5.25207
5.2479
5.2429
5.24376
5.2624
5.27646
5.11404
4.48669
0.996739
0.481832
0.483529
0.483569
0.484024
0.484701
0.485377
0.485928
0.486297
0.486462
0.48642
0.486181
0.485755
0.485156
0.484399
0.483496
0.482458
0.481292
0.480008
0.47861
0.477103
0.475493
0.473783
0.471977
0.470082
0.468099
0.466035
0.463894
0.46168
0.459397
0.457049
0.454641
0.452176
0.449657
0.447088
0.444472
0.441812
0.43911
0.436369
6.84915
6.84065
6.83093
6.82091
6.81079
6.80612
6.82329
6.85965
6.76667
6.12836
5.05144
0.786078
0.645552
0.642092
0.641556
0.641254
0.640803
0.640133
0.639218
0.638037
0.636591
0.634896
0.632982
0.630879
0.628618
0.626226
0.623727
0.62114
0.618477
0.615749
0.612962
0.610118
0.60722
0.604269
0.601266
0.598213
0.595111
0.591963
0.58877
0.585535
0.58226
0.578949
0.575604
0.572226
0.568818
0.565383
0.561922
0.558437
0.554929
0.5514
8.63396
8.61854
8.60244
8.5871
8.57312
8.57071
8.60289
8.64719
8.43702
7.39088
4.07154
0.780321
0.785166
0.782694
0.78114
0.779669
0.777899
0.775747
0.773208
0.770296
0.767039
0.763481
0.759669
0.755659
0.751503
0.74725
0.742939
0.738602
0.734264
0.729941
0.725642
0.72137
0.717124
0.712904
0.708703
0.704519
0.700349
0.696189
0.692037
0.687893
0.683755
0.679623
0.675497
0.671377
0.667263
0.663156
0.659055
0.65496
0.650872
0.646791
9.61713
9.58596
9.5512
9.5205
9.5053
9.53556
9.60385
9.42566
8.22333
6.23309
1.33588
0.892014
0.890348
0.889204
0.888017
0.886531
0.884629
0.882267
0.879428
0.876109
0.872322
0.868102
0.863498
0.858576
0.853409
0.848068
0.842618
0.837116
0.831609
0.826135
0.820719
0.815381
0.810131
0.804972
0.799902
0.794915
0.790006
0.785168
0.780395
0.775682
0.771023
0.766416
0.761856
0.75734
0.752867
0.748432
0.744035
0.739674
0.735346
0.73105
11.219
11.1765
11.1346
11.1032
11.0949
11.1115
11.0431
10.5335
9.5081
2.82094
0.95987
0.962053
0.960457
0.959477
0.958686
0.957655
0.95612
0.953944
0.951095
0.947632
0.943621
0.939115
0.934166
0.928834
0.923184
0.917285
0.911208
0.905027
0.898807
0.892609
0.88648
0.880467
0.8746
0.8689
0.863374
0.858021
0.852834
0.847803
0.842915
0.83816
0.833526
0.829002
0.824577
0.820243
0.81599
0.811812
0.807702
0.803653
0.79966
0.795717
9.35256
9.28833
9.22697
9.21005
9.23557
9.09794
8.22455
6.74043
1.61958
0.903189
0.905848
0.905374
0.904962
0.904288
0.903355
0.90215
0.900708
0.899144
0.897883
0.896973
0.89638
0.895917
0.895451
0.894889
0.89411
0.893032
0.891653
0.890013
0.888166
0.886163
0.884039
0.88183
0.879565
0.877245
0.874871
0.872465
0.870057
0.867665
0.865289
0.86293
0.860585
0.858253
0.855931
0.853614
0.851299
0.848983
0.846662
0.844333
0.841994
0.839641
10.8516
10.9182
11.0167
11.1606
11.3262
11.167
9.85421
1.56891
0.528947
0.600004
0.87153
0.897671
0.897285
0.89703
0.8978
0.897068
0.896385
0.895621
0.894755
0.89415
0.893954
0.893937
0.893775
0.893193
0.892227
0.891128
0.890275
0.889884
0.889995
0.890507
0.891181
0.891763
0.89211
0.892263
0.892257
0.892122
0.891912
0.89165
0.891318
0.890899
0.890409
0.889864
0.889266
0.888615
0.887911
0.887154
0.886342
0.885476
0.884553
0.883573
-0.976304
-0.703297
-0.450459
-0.227418
0.0516199
0.36608
-0.0193529
-3.02093
-11.5868
-12.3111
-3.80514
-1.40607
0.710355
0.69283
0.659538
0.658058
0.679159
0.726726
0.821249
0.890376
0.898512
0.898542
0.90316
0.907166
0.909789
0.911356
0.911887
0.911658
0.910869
0.9099
0.909749
0.910178
0.910182
0.909689
0.909737
0.910953
0.912838
0.914757
0.916542
0.918175
0.919676
0.921081
0.922377
0.923545
0.924585
0.925499
0.92629
0.926964
0.92752
0.927961
13.5483
13.6124
13.6995
13.7836
13.866
13.9451
14.0105
14.0072
13.9227
13.9884
14.8418
15.8809
6.91668
-0.176896
0.247513
-1.66078
-1.0352
-1.76174
-2.70021
-1.00684
0.612381
0.968309
0.928746
0.838497
0.766142
0.732958
0.754326
0.822909
0.877119
0.902967
0.909574
0.952444
0.975685
0.975553
0.966148
0.960718
0.960411
0.96153
0.962513
0.964015
0.966315
0.968858
0.971316
0.973563
0.975599
0.977486
0.979229
0.980819
0.982253
0.983525
14.6763
14.6927
14.7109
14.733
14.7628
14.7975
14.8416
14.8927
14.9637
15.0515
15.1541
15.2153
15.2467
15.2051
15.1511
15.1545
15.3795
16.0293
17.6608
20.1523
19.3847
6.09778
3.21615
2.6218
2.51137
1.08491
-1.92701
-3.81906
-1.41494
1.18072
1.60075
1.60915
1.46871
1.07654
0.845949
0.902363
1.02349
1.05862
1.05355
1.04637
1.04486
1.04552
1.04595
1.04642
1.04729
1.04845
1.04975
1.05097
1.05203
1.05291
19.7044
19.7311
19.76
19.7859
19.8088
19.8293
19.8479
19.8646
19.8792
19.8914
19.9009
19.9071
19.9126
19.9212
19.9463
20.0028
20.098
20.2426
20.4255
20.5888
20.7488
20.8238
20.8964
21.0135
21.177
21.3865
21.7668
22.5859
23.5377
21.3512
12.4812
7.75353
-0.617782
-2.39204
2.40925
2.89109
2.74143
1.57455
0.933168
0.974966
1.0805
1.1124
1.11202
1.10829
1.10731
1.10712
1.10703
1.10717
1.10722
1.10732
24.8812
24.8589
24.8381
24.8231
24.813
24.8072
24.8056
24.8081
24.8147
24.8255
24.8401
24.8588
24.881
24.9073
24.9373
24.972
25.0106
25.0533
25.0974
25.1423
25.1873
25.2415
25.304
25.3863
25.4948
25.6406
25.8282
26.046
26.2599
26.4904
26.6889
26.9509
27.3025
27.4785
27.1413
16.5205
10.6269
1.14197
2.01101
2.62698
2.9971
1.35605
1.0226
1.10388
1.1172
1.12099
1.14634
1.15882
1.16227
1.16271
28.117
28.0688
28.017
27.9722
27.9349
27.9037
27.8782
27.8582
27.844
27.8353
27.8323
27.835
27.8434
27.8575
27.8775
27.9033
27.9351
27.9727
28.016
28.0647
28.1219
28.1825
28.241
28.3126
28.3913
28.4671
28.5529
28.6695
28.7732
28.8278
28.9416
29.0715
29.209
29.3275
29.4821
29.6389
29.9052
30.2194
27.0484
21.149
11.5122
1.89368
2.33295
2.85065
2.51618
1.73353
1.53809
1.39662
1.24796
1.15261
31.9483
31.8754
31.8013
31.7383
31.6852
31.6401
31.6025
31.5723
31.5495
31.534
31.5259
31.5251
31.5315
31.5452
31.5662
31.5946
31.6302
31.6732
31.723
31.7881
31.8535
31.9268
32.0249
32.1143
32.2098
32.3111
32.4209
32.6841
32.516
32.6597
32.8042
32.9561
33.1145
33.2813
33.4574
33.6481
33.8388
34.0185
34.1867
34.4287
34.7793
35.1773
31.2568
21.857
14.0583
9.83146
7.91819
6.50025
5.13682
3.94161
32.6643
32.6129
32.5567
32.5061
32.4614
32.4213
32.3855
32.3538
32.3263
32.3029
32.2836
32.2684
32.2571
32.2498
32.2465
32.247
32.2515
32.2595
32.2708
32.292
32.296
32.3196
32.3476
32.3755
32.4063
32.4319
32.6646
32.7069
32.7647
32.8233
32.8883
32.941
33.0017
33.0785
33.1178
33.19
33.2649
33.3436
33.4288
33.5216
33.6052
33.6587
33.7258
33.7838
33.7066
30.782
27.3324
24.3074
20.8178
17.331
34.0554
34.0167
33.9761
33.9397
33.9072
33.8776
33.8506
33.8264
33.8048
33.786
33.7698
33.7563
33.7454
33.7371
33.7313
33.728
33.7272
33.7287
33.7327
33.7467
33.7403
33.7508
33.7644
33.7772
33.7917
33.8028
34.0434
34.1009
34.0884
34.1151
34.1434
34.162
34.1896
34.2266
34.2494
34.2827
34.3155
34.3489
34.3825
34.4162
34.4498
34.4837
34.5167
34.5433
34.5661
34.6016
34.645
34.5765
32.5584
30.927
34.2909
34.2639
34.2347
34.2086
34.1855
34.1648
34.1464
34.1301
34.1162
34.1046
34.0953
34.0883
34.0835
34.0811
34.0811
34.0833
34.0878
34.0947
34.1043
34.1156
34.1292
34.1454
34.164
34.1849
34.2079
34.2324
34.2628
34.3942
34.2631
34.2988
34.3362
34.3735
34.4125
34.4558
34.5048
34.5289
34.5747
34.622
34.671
34.7218
34.7754
34.8331
34.8927
34.9452
34.9948
35.0383
35.0442
34.8453
34.735
32.8605
0.109098
0.108144
0.107155
0.106132
0.105076
0.103989
0.102871
0.101726
0.100553
0.0993536
0.09813
0.096883
0.095614
0.0943244
0.0930154
0.0916884
0.0903446
0.0889854
0.0876121
0.0862259
0.0848281
0.0834201
0.082003
0.0805781
0.0791465
0.0777097
0.0762686
0.0748245
0.0733786
0.0719321
0.0704859
0.0690413
0.0675992
0.0661609
0.0647273
0.0632994
0.0618782
0.0604647
0.0590599
0.0576645
0.0562796
0.054906
0.0535444
0.0521955
0.0508604
0.0495408
0.0482361
0.0469417
0.0456565
0.0444062
0.177808
0.176594
0.175373
0.174145
0.17291
0.171669
0.170422
0.16917
0.167914
0.166653
0.165388
0.16412
0.162849
0.161575
0.160299
0.159021
0.15774
0.156458
0.155175
0.15389
0.152605
0.151319
0.150032
0.148745
0.147457
0.146169
0.144881
0.143594
0.142306
0.141019
0.139732
0.138445
0.13716
0.135874
0.13459
0.133306
0.132023
0.130741
0.12946
0.128181
0.126902
0.125624
0.124348
0.123073
0.1218
0.120528
0.119258
0.117989
0.116722
0.115457
0.32868
0.32651
0.324302
0.322059
0.319782
0.317473
0.315132
0.312763
0.310365
0.307941
0.305492
0.303019
0.300524
0.298007
0.295471
0.292916
0.290344
0.287755
0.285152
0.282535
0.279905
0.277263
0.27461
0.271948
0.269278
0.2666
0.263915
0.261225
0.258529
0.255831
0.253129
0.250425
0.247721
0.245016
0.242311
0.239609
0.236908
0.23421
0.231516
0.228827
0.226143
0.223466
0.220795
0.218131
0.215476
0.212831
0.210195
0.207566
0.204941
0.202342
0.433592
0.430781
0.427938
0.425065
0.422164
0.419237
0.416287
0.413313
0.410319
0.407305
0.404273
0.401225
0.398161
0.395083
0.391992
0.388889
0.385775
0.382651
0.379518
0.376377
0.373229
0.370075
0.366915
0.36375
0.360581
0.357409
0.354235
0.351058
0.34788
0.344701
0.341522
0.338343
0.335166
0.33199
0.328816
0.325644
0.322477
0.319312
0.316152
0.312997
0.309847
0.306703
0.303565
0.300434
0.29731
0.294194
0.291087
0.287986
0.284892
0.281814
0.547852
0.544285
0.540701
0.537101
0.533487
0.529858
0.526216
0.522562
0.518897
0.51522
0.511534
0.507839
0.504135
0.500423
0.496703
0.492976
0.489243
0.485504
0.481759
0.478009
0.474255
0.470496
0.466734
0.462968
0.459199
0.455428
0.451654
0.447879
0.444102
0.440325
0.436547
0.432768
0.42899
0.425213
0.421437
0.417662
0.413889
0.410118
0.406351
0.402586
0.398826
0.395069
0.391317
0.38757
0.383829
0.380095
0.376368
0.372644
0.368923
0.36522
0.642716
0.638648
0.634585
0.630529
0.626478
0.622432
0.618392
0.614356
0.610325
0.606298
0.602274
0.598255
0.594238
0.590224
0.586212
0.582203
0.578195
0.574189
0.570184
0.566181
0.562178
0.558175
0.554173
0.550171
0.546169
0.542167
0.538164
0.534161
0.530158
0.526153
0.522149
0.518144
0.514138
0.510131
0.506125
0.502117
0.49811
0.494102
0.490095
0.486088
0.482081
0.478075
0.47407
0.470066
0.466063
0.462063
0.458065
0.454068
0.450069
0.446081
0.726783
0.722544
0.718331
0.714143
0.709977
0.705831
0.701705
0.697595
0.693502
0.689422
0.685355
0.681299
0.677252
0.673214
0.669182
0.665157
0.661136
0.657118
0.653102
0.649088
0.645074
0.64106
0.637044
0.633026
0.629005
0.624981
0.620953
0.61692
0.612882
0.608838
0.604788
0.600733
0.59667
0.592601
0.588525
0.584442
0.580352
0.576255
0.57215
0.568038
0.56392
0.559794
0.555661
0.551522
0.547377
0.543226
0.539069
0.534904
0.53073
0.526558
0.791821
0.787966
0.784148
0.780363
0.776608
0.772878
0.769171
0.765482
0.76181
0.758151
0.754502
0.750861
0.747226
0.743594
0.739962
0.73633
0.732695
0.729055
0.72541
0.721756
0.718093
0.71442
0.710735
0.707038
0.703327
0.699602
0.69586
0.692103
0.688329
0.684538
0.680729
0.676902
0.673056
0.669191
0.665307
0.661404
0.657481
0.653539
0.649578
0.645597
0.641597
0.637578
0.63354
0.629483
0.625409
0.621316
0.617207
0.613078
0.608927
0.604767
0.837272
0.834886
0.832481
0.830055
0.827606
0.825132
0.822633
0.820107
0.817553
0.814969
0.812354
0.809708
0.807029
0.804316
0.801568
0.798785
0.795965
0.793109
0.790215
0.787283
0.784313
0.781304
0.778255
0.775166
0.772038
0.768869
0.765661
0.762412
0.759122
0.755793
0.752423
0.749013
0.745563
0.742073
0.738544
0.734976
0.731369
0.727724
0.72404
0.720319
0.716561
0.712767
0.708937
0.705071
0.701171
0.697237
0.693271
0.689269
0.685232
0.681169
0.882534
0.881436
0.880278
0.879059
0.877779
0.876436
0.875031
0.873563
0.872032
0.870437
0.868779
0.867056
0.865269
0.863417
0.861501
0.85952
0.857474
0.855363
0.853187
0.850947
0.848643
0.846274
0.843841
0.841344
0.838783
0.836159
0.833472
0.830723
0.827912
0.825039
0.822106
0.819112
0.816058
0.812945
0.809774
0.806545
0.803259
0.799917
0.796519
0.793067
0.789561
0.786002
0.782392
0.77873
0.775018
0.771258
0.76745
0.763593
0.759687
0.755739
0.928287
0.9285
0.928601
0.928593
0.928475
0.92825
0.927919
0.927482
0.926941
0.926297
0.925551
0.924703
0.923756
0.92271
0.921565
0.920324
0.918987
0.917555
0.916028
0.914409
0.912698
0.910895
0.909003
0.907022
0.904953
0.902797
0.900556
0.898229
0.89582
0.893328
0.890754
0.888101
0.885368
0.882558
0.879671
0.876708
0.873672
0.870562
0.86738
0.864129
0.860807
0.857418
0.853963
0.850442
0.846856
0.843209
0.8395
0.83573
0.831899
0.828013
0.984636
0.985592
0.986401
0.987066
0.987592
0.987981
0.988236
0.98836
0.988354
0.988221
0.987963
0.987581
0.987078
0.986455
0.985714
0.984856
0.983884
0.982798
0.9816
0.980291
0.978874
0.977349
0.975718
0.973983
0.972144
0.970204
0.968164
0.966025
0.963788
0.961456
0.959029
0.956509
0.953898
0.951197
0.948407
0.94553
0.942568
0.939522
0.936393
0.933183
0.929894
0.926526
0.923082
0.919564
0.915972
0.912308
0.908574
0.904771
0.900898
0.896963
1.05366
1.05429
1.05481
1.05524
1.05555
1.05576
1.05586
1.05585
1.05572
1.05549
1.05514
1.05468
1.05411
1.05342
1.05263
1.05172
1.0507
1.04956
1.04832
1.04696
1.0455
1.04392
1.04224
1.04045
1.03855
1.03655
1.03444
1.03223
1.02992
1.02751
1.02499
1.02238
1.01968
1.01687
1.01398
1.01099
1.00791
1.00474
1.00149
0.998148
0.994722
0.991213
0.987624
0.983954
0.980207
0.976384
0.972486
0.968515
0.964471
0.96036
1.10777
1.10861
1.10959
1.11053
1.11134
1.112
1.11253
1.1129
1.11313
1.11322
1.11315
1.11295
1.1126
1.1121
1.11147
1.11069
1.10978
1.10873
1.10755
1.10623
1.10478
1.1032
1.10149
1.09966
1.0977
1.09563
1.09343
1.09112
1.08869
1.08615
1.08349
1.08073
1.07786
1.07489
1.07181
1.06864
1.06536
1.06199
1.05852
1.05497
1.05132
1.04758
1.04376
1.03986
1.03587
1.0318
1.02766
1.02343
1.01914
1.01477
1.16256
1.16263
1.16277
1.16296
1.1634
1.16402
1.16465
1.16521
1.1656
1.16581
1.16583
1.16566
1.1653
1.16477
1.16407
1.16319
1.16215
1.16095
1.15959
1.15807
1.15641
1.1546
1.15265
1.15055
1.14832
1.14596
1.14347
1.14085
1.13811
1.13525
1.13228
1.12918
1.12598
1.12267
1.11925
1.11574
1.11212
1.1084
1.10458
1.10068
1.09668
1.0926
1.08843
1.08418
1.07984
1.07543
1.07094
1.06638
1.06174
1.05704
1.14618
1.17788
1.19861
1.20716
1.20956
1.21018
1.21024
1.2101
1.20987
1.20955
1.20908
1.20844
1.20762
1.20662
1.20545
1.2041
1.20257
1.20089
1.19904
1.19704
1.19489
1.19259
1.19015
1.18757
1.18486
1.18202
1.17905
1.17596
1.17275
1.16942
1.16599
1.16244
1.15879
1.15504
1.15118
1.14723
1.14318
1.13904
1.13482
1.1305
1.1261
1.12162
1.11707
1.11243
1.10772
1.10293
1.09808
1.09316
1.08817
1.08312
2.91346
2.13464
1.44629
1.28907
1.24658
1.2249
1.22372
1.22562
1.22554
1.22477
1.22395
1.22306
1.222
1.22076
1.21934
1.21773
1.21595
1.214
1.21189
1.20962
1.2072
1.20463
1.20192
1.19907
1.19609
1.19298
1.18974
1.18639
1.18291
1.17933
1.17563
1.17183
1.16793
1.16392
1.15982
1.15562
1.15134
1.14696
1.1425
1.13796
1.13334
1.12864
1.12386
1.11901
1.11409
1.1091
1.10404
1.09892
1.09374
1.0885
13.9118
10.7323
8.06216
5.76968
3.46316
1.82912
1.29942
1.21288
1.20505
1.20458
1.20371
1.20283
1.20192
1.20088
1.19967
1.19828
1.1967
1.19494
1.193
1.19088
1.1886
1.18617
1.18358
1.18084
1.17796
1.17495
1.1718
1.16853
1.16514
1.16162
1.158
1.15426
1.15041
1.14646
1.14242
1.13827
1.13404
1.12971
1.12529
1.12079
1.11621
1.11155
1.10681
1.10199
1.09711
1.09215
1.08713
1.08204
1.07689
1.07168
28.4737
25.1373
20.894
15.995
9.32281
3.80141
1.6872
1.21593
1.14617
1.14116
1.14066
1.14052
1.14047
1.14037
1.14012
1.13968
1.13904
1.13818
1.13711
1.13584
1.13438
1.13273
1.1309
1.12889
1.12672
1.12439
1.12191
1.11927
1.1165
1.11358
1.11054
1.10736
1.10406
1.10064
1.09711
1.09346
1.08971
1.08585
1.08189
1.07783
1.07367
1.06943
1.0651
1.06068
1.05617
1.05159
1.04693
1.04219
1.03739
1.03251
31.1286
28.7352
25.3427
20.1496
11.6284
4.34714
1.67394
1.10623
1.04816
1.05132
1.05219
1.05282
1.05378
1.05484
1.0558
1.05655
1.05707
1.05735
1.0574
1.05722
1.05682
1.0562
1.05538
1.05436
1.05314
1.05175
1.05017
1.04842
1.04651
1.04444
1.04221
1.03984
1.03732
1.03466
1.03186
1.02894
1.02589
1.02271
1.01942
1.01601
1.0125
1.00887
1.00515
1.00132
0.997394
0.993375
0.989264
0.985065
0.980782
0.976417
0.0435018
0.0428772
0.0422499
0.0416197
0.0409878
0.0403546
0.0397203
0.0390854
0.0384502
0.037815
0.0371802
0.036546
0.0359128
0.035281
0.0346509
0.0340227
0.0333968
0.0327736
0.0321532
0.0315361
0.0309226
0.0303129
0.0297072
0.0291061
0.0285096
0.027918
0.0273318
0.026751
0.026176
0.025607
0.0250443
0.0244881
0.0239387
0.0233962
0.0228609
0.022333
0.0218127
0.0213003
0.0207958
0.0202994
0.0198115
0.019332
0.0188612
0.0183992
0.0179461
0.0175021
0.0170673
0.0166419
0.0162258
0.0158192
0.0154222
0.0150349
0.0146573
0.0142895
0.0139315
0.0135834
0.0132451
0.0129168
0.0125984
0.0122899
0.0119914
0.0117027
0.0114238
0.0111548
0.0108956
0.0106461
0.0104062
0.010176
0.00995519
0.00974382
0.00954176
0.0093489
0.00916514
0.00899033
0.00882435
0.00866707
0.00851834
0.008378
0.00824589
0.00812185
0.00800571
0.00789729
0.00779639
0.00770284
0.00761644
0.00753698
0.00746426
0.00739807
0.0073382
0.00728443
0.00723653
0.00719429
0.00715748
0.00712587
0.00709923
0.00707732
0.0070599
0.00704676
0.00703764
0.00703231
0.00703054
0.00703208
0.00703671
0.00704418
0.00705427
0.00706675
0.00708137
0.00709793
0.00711618
0.00713592
0.00715692
0.00717897
0.00720186
0.00722538
0.00724933
0.00727352
0.00729776
0.00732186
0.00734563
0.00736891
0.00739153
0.00741333
0.00743415
0.00745385
0.00747227
0.0074893
0.00750481
0.00751867
0.00753078
0.00754102
0.00754932
0.00755557
0.0075597
0.00756163
0.00756131
0.00755867
0.00755366
0.00754624
0.00753638
0.00752405
0.00750924
0.00749191
0.00747208
0.00744974
0.0074249
0.00739756
0.00736776
0.0073355
0.00730083
0.00726376
0.00722435
0.00718263
0.00713864
0.00709244
0.00704408
0.00699361
0.00694109
0.00688658
0.00683014
0.00677184
0.00671174
0.00664991
0.00658642
0.00652133
0.00645471
0.00638665
0.00631719
0.00624643
0.00617442
0.00610123
0.00602694
0.00595161
0.00587531
0.00579811
0.00572006
0.00564125
0.00556172
0.00548154
0.00540078
0.00531948
0.0052377
0.0051555
0.00507293
0.00499005
0.0049069
0.00482353
0.00473998
0.00465631
0.00457256
0.00448876
0.00440496
0.00432121
0.00423754
0.00415398
0.00407059
0.00398739
0.00390442
0.00382172
0.00373933
0.00365729
0.00357562
0.00349437
0.00341357
0.00333326
0.00325347
0.00317423
0.00309558
0.00301756
0.00294018
0.00286349
0.0027875
0.00271226
0.00263777
0.00256407
0.00249118
0.00241912
0.0023479
0.00227754
0.00220807
0.00213948
0.0020718
0.00200504
0.00193922
0.00187433
0.0018104
0.00174743
0.00168545
0.00162446
0.00156448
0.00150552
0.00144761
0.00139075
0.00133496
0.00128026
0.00122667
0.00117418
0.00112283
0.00107261
0.00102353
0.000975601
0.000928828
0.000883212
0.000838753
0.000795452
0.000753307
0.000712318
0.000672482
0.000633796
0.000596256
0.000559857
0.000524593
0.000490454
0.000457427
0.000425498
0.000394646
0.000364849
0.000336079
0.000308305
0.000281494
0.000255608
0.000230606
0.000206448
0.000183091
0.000160491
0.000138606
0.000117396
9.68216e-05
7.68493e-05
5.74492e-05
3.85966e-05
2.0272e-05
2.46033e-06
-1.48492e-05
-3.16647e-05
-4.79926e-05
-6.38393e-05
-7.92121e-05
-9.41216e-05
-0.000108582
-0.000122613
-0.000136241
-0.000149495
-0.000162411
-0.000175025
-0.00018737
-0.000199476
-0.000211363
-0.000223047
-0.000234534
-0.000245818
-0.000256883
-0.000267703
-0.000278277
-0.000288627
-0.000298699
-0.000308162
-0.000316605
-0.000324693
-0.000335017
-0.000349045
0.114483
0.113813
0.113147
0.112479
0.11181
0.11114
0.110469
0.109797
0.109124
0.10845
0.107774
0.107097
0.106419
0.105739
0.105058
0.104375
0.103691
0.103005
0.102317
0.101628
0.100936
0.100243
0.0995486
0.0988518
0.0981531
0.0974526
0.09675
0.0960455
0.0953391
0.0946306
0.0939202
0.0932078
0.0924934
0.091777
0.0910586
0.0903383
0.0896161
0.088892
0.088166
0.0874382
0.0867085
0.0859771
0.085244
0.0845092
0.0837728
0.0830349
0.0822955
0.0815546
0.0808125
0.080069
0.0793244
0.0785787
0.0778321
0.0770845
0.0763361
0.075587
0.0748373
0.0740871
0.0733366
0.0725858
0.0718349
0.071084
0.0703333
0.0695828
0.0688327
0.0680831
0.0673343
0.0665863
0.0658392
0.0650933
0.0643486
0.0636053
0.0628637
0.0621238
0.0613857
0.0606498
0.059916
0.0591846
0.0584557
0.0577295
0.0570062
0.0562859
0.0555687
0.0548549
0.0541446
0.0534379
0.052735
0.0520361
0.0513412
0.0506506
0.0499644
0.0492828
0.0486058
0.0479337
0.0472665
0.0466044
0.0459476
0.0452961
0.04465
0.0440096
0.0433748
0.0427459
0.0421228
0.0415058
0.0408949
0.0402901
0.0396916
0.0390995
0.0385138
0.0379347
0.037362
0.036796
0.0362366
0.035684
0.0351381
0.0345989
0.0340666
0.0335411
0.0330224
0.0325106
0.0320057
0.0315076
0.0310163
0.0305319
0.0300543
0.0295835
0.0291195
0.0286621
0.0282115
0.0277675
0.0273301
0.0268993
0.0264749
0.0260569
0.0256453
0.02524
0.0248408
0.0244478
0.0240608
0.0236798
0.0233047
0.0229353
0.0225716
0.0222135
0.0218609
0.0215136
0.0211717
0.0208349
0.0205033
0.0201766
0.0198548
0.0195377
0.0192254
0.0189176
0.0186142
0.0183153
0.0180206
0.01773
0.0174435
0.017161
0.0168824
0.0166075
0.0163363
0.0160687
0.0158045
0.0155438
0.0152864
0.0150323
0.0147813
0.0145334
0.0142885
0.0140465
0.0138073
0.0135709
0.0133373
0.0131062
0.0128778
0.0126519
0.0124284
0.0122073
0.0119885
0.0117721
0.0115578
0.0113458
0.0111359
0.0109281
0.0107223
0.0105185
0.0103167
0.0101169
0.00991891
0.0097228
0.00952851
0.00933601
0.00914527
0.00895627
0.00876897
0.00858333
0.00839935
0.00821698
0.0080362
0.007857
0.00767934
0.0075032
0.00732856
0.0071554
0.00698371
0.00681347
0.00664467
0.0064773
0.00631135
0.00614682
0.0059837
0.00582201
0.00566174
0.00550291
0.00534553
0.00518961
0.00503516
0.00488222
0.00473079
0.00458091
0.00443258
0.00428582
0.00414067
0.00399713
0.00385523
0.00371497
0.00357638
0.00343948
0.00330427
0.00317078
0.00303902
0.00290902
0.00278079
0.00265436
0.00252977
0.00240704
0.00228621
0.00216732
0.0020504
0.0019355
0.00182265
0.00171191
0.0016033
0.00149687
0.00139266
0.0012907
0.00119104
0.00109372
0.000998779
0.000906264
0.000816223
0.000728707
0.000643768
0.000561462
0.000481843
0.000404963
0.000330873
0.000259617
0.000191231
0.000125742
6.3165e-05
3.49782e-06
-5.32797e-05
-0.000107209
-0.000158355
-0.000206808
-0.000252682
-0.000296113
-0.000337256
-0.000376283
-0.00041337
-0.0004487
-0.000482448
-0.000514784
-0.000545862
-0.000575818
-0.000604771
-0.00063282
-0.000660049
-0.000686534
-0.000712354
-0.0007376
-0.000762378
-0.000786822
-0.000811083
-0.000835321
-0.000859691
-0.000884334
-0.000909396
-0.000935023
-0.000961257
-0.00098789
-0.00101466
-0.00104204
-0.00107138
-0.00110208
-0.00112702
-0.00113689
0.200387
0.199029
0.197667
0.196299
0.194926
0.193548
0.192166
0.19078
0.189389
0.187994
0.186596
0.185194
0.183788
0.18238
0.180968
0.179553
0.178135
0.176715
0.175293
0.173869
0.172442
0.171014
0.169585
0.168154
0.166722
0.165289
0.163856
0.162422
0.160988
0.159553
0.158119
0.156686
0.155253
0.153821
0.15239
0.15096
0.149532
0.148106
0.146682
0.14526
0.14384
0.142423
0.141009
0.139598
0.13819
0.136786
0.135386
0.133989
0.132597
0.131209
0.129826
0.128448
0.127075
0.125707
0.124345
0.122988
0.121637
0.120293
0.118955
0.117623
0.116298
0.11498
0.113669
0.112365
0.111068
0.10978
0.108499
0.107226
0.105961
0.104705
0.103457
0.102218
0.100987
0.0997657
0.0985532
0.0973499
0.0961559
0.0949714
0.0937965
0.0926313
0.0914758
0.0903303
0.0891948
0.0880694
0.0869542
0.0858492
0.0847546
0.0836703
0.0825966
0.0815334
0.0804807
0.0794387
0.0784073
0.0773866
0.0763766
0.0753774
0.0743889
0.0734112
0.0724442
0.0714879
0.0705424
0.0696076
0.0686835
0.06777
0.0668672
0.065975
0.0650933
0.064222
0.0633612
0.0625108
0.0616707
0.0608407
0.060021
0.0592112
0.0584115
0.0576216
0.0568415
0.0560711
0.0553102
0.0545589
0.0538169
0.0530841
0.0523604
0.0516458
0.0509401
0.0502431
0.0495547
0.0488749
0.0482034
0.0475402
0.046885
0.0462379
0.0455986
0.044967
0.044343
0.0437264
0.0431171
0.042515
0.0419199
0.0413317
0.0407502
0.0401755
0.0396072
0.0390453
0.0384896
0.0379401
0.0373965
0.0368589
0.036327
0.0358007
0.03528
0.0347647
0.0342547
0.0337499
0.0332501
0.0327554
0.0322655
0.0317805
0.0313001
0.0308243
0.0303531
0.0298863
0.0294238
0.0289656
0.0285116
0.0280616
0.0276157
0.0271738
0.0267358
0.0263016
0.0258712
0.0254445
0.0250214
0.024602
0.0241861
0.0237737
0.0233647
0.0229592
0.022557
0.0221581
0.0217625
0.0213701
0.020981
0.020595
0.0202121
0.0198324
0.0194558
0.0190822
0.0187117
0.0183441
0.0179796
0.017618
0.0172594
0.0169037
0.016551
0.0162012
0.0158542
0.0155102
0.015169
0.0148307
0.0144952
0.0141627
0.0138329
0.0135061
0.013182
0.0128609
0.0125426
0.0122271
0.0119146
0.0116049
0.0112981
0.0109942
0.0106933
0.0103953
0.0101004
0.00980838
0.00951945
0.00923358
0.00895082
0.0086712
0.00839475
0.00812152
0.00785153
0.00758482
0.00732143
0.00706139
0.00680473
0.0065515
0.00630171
0.0060554
0.0058126
0.00557334
0.00533766
0.00510559
0.00487718
0.00465245
0.00443145
0.00421424
0.00400085
0.00379134
0.00358576
0.00338416
0.0031866
0.00299312
0.00280379
0.00261865
0.00243776
0.00226117
0.00208894
0.00192111
0.00175776
0.00159894
0.00144474
0.00129521
0.00115045
0.00101052
0.000875501
0.000745472
0.000620495
0.000500621
0.000385885
0.000276298
0.000171845
7.2478e-05
-2.18873e-05
-0.000111375
-0.000196148
-0.000276414
-0.000352413
-0.00042442
-0.000492735
-0.000557671
-0.000619545
-0.000678667
-0.000735329
-0.000789791
-0.000842281
-0.000892984
-0.000942045
-0.000989579
-0.00103568
-0.00108046
-0.00112403
-0.00116656
-0.00120827
-0.00124945
-0.00129042
-0.00133153
-0.0013731
-0.00141544
-0.00145891
-0.00150391
-0.0015505
-0.00159805
-0.00164588
-0.00169581
-0.00175234
-0.00181311
-0.00185576
-0.00185376
0.279468
0.277839
0.276207
0.274569
0.272925
0.271277
0.269623
0.267964
0.2663
0.264631
0.262957
0.261279
0.259596
0.257908
0.256216
0.254519
0.252818
0.251113
0.249403
0.247689
0.245972
0.24425
0.242525
0.240796
0.239064
0.237328
0.235588
0.233846
0.2321
0.230352
0.2286
0.226846
0.22509
0.223331
0.221569
0.219806
0.21804
0.216273
0.214504
0.212734
0.210962
0.209189
0.207415
0.20564
0.203865
0.202089
0.200312
0.198536
0.19676
0.194984
0.193208
0.191433
0.189659
0.187886
0.186115
0.184344
0.182576
0.180809
0.179045
0.177283
0.175524
0.173767
0.172013
0.170263
0.168516
0.166773
0.165034
0.163299
0.161569
0.159843
0.158122
0.156406
0.154696
0.152991
0.151292
0.149599
0.147913
0.146233
0.14456
0.142894
0.141235
0.139584
0.13794
0.136304
0.134677
0.133058
0.131447
0.129846
0.128253
0.12667
0.125096
0.123532
0.121978
0.120433
0.118899
0.117376
0.115863
0.114361
0.11287
0.11139
0.109921
0.108464
0.107018
0.105584
0.104162
0.102752
0.101354
0.0999677
0.0985943
0.0972332
0.0958848
0.0945489
0.0932257
0.0919153
0.0906178
0.0893331
0.0880614
0.0868027
0.085557
0.0843244
0.0831049
0.0818984
0.0807051
0.0795248
0.0783576
0.0772036
0.0760625
0.0749345
0.0738195
0.0727175
0.0716283
0.070552
0.0694885
0.0684376
0.0673995
0.0663738
0.0653607
0.0643599
0.0633715
0.0623952
0.061431
0.0604787
0.0595383
0.0586097
0.0576927
0.0567871
0.0558929
0.0550099
0.054138
0.053277
0.0524269
0.0515874
0.0507584
0.0499397
0.0491313
0.048333
0.0475445
0.0467658
0.0459968
0.0452371
0.0444868
0.0437457
0.0430135
0.0422902
0.0415755
0.0408695
0.0401718
0.0394823
0.038801
0.0381276
0.037462
0.0368041
0.0361538
0.0355108
0.0348752
0.0342466
0.0336251
0.0330104
0.0324025
0.0318013
0.0312066
0.0306183
0.0300363
0.0294605
0.0288908
0.0283271
0.0277693
0.0272173
0.026671
0.0261304
0.0255953
0.0250656
0.0245413
0.0240223
0.0235086
0.023
0.0224965
0.021998
0.0215045
0.0210159
0.0205322
0.0200533
0.0195792
0.0191098
0.0186451
0.018185
0.0177296
0.0172788
0.0168326
0.0163909
0.0159538
0.0155212
0.0150932
0.0146698
0.0142509
0.0138365
0.0134268
0.0130216
0.0126211
0.0122251
0.0118339
0.0114473
0.0110655
0.0106884
0.0103161
0.00994858
0.0095859
0.00922809
0.00887518
0.0085272
0.00818419
0.0078462
0.00751327
0.00718546
0.0068628
0.00654538
0.00623325
0.00592649
0.00562517
0.00532937
0.00503917
0.00475466
0.00447591
0.00420303
0.00393609
0.00367519
0.00342042
0.00317187
0.00292965
0.00269386
0.0024646
0.00224197
0.00202608
0.00181704
0.00161495
0.00141987
0.0012319
0.00105107
0.000877411
0.000710928
0.000551585
0.000399317
0.000254019
0.000115547
-1.62833e-05
-0.000141701
-0.000260975
-0.000374412
-0.000482347
-0.00058514
-0.000683158
-0.000776767
-0.00086632
-0.000952139
-0.00103452
-0.00111372
-0.00118995
-0.00126342
-0.0013343
-0.00140276