/*--------------------------------*- C++ -*----------------------------------*\
| =========                 |                                                 |
| \\      /  F ield         | OpenFOAM: The Open Source CFD Toolbox           |
|  \\    /   O peration     | Version:  2.4.0                                 |
|   \\  /    A nd           | Web:      www.OpenFOAM.org                      |
|    \\/     M anipulation  |                                                 |
\*---------------------------------------------------------------------------*/
FoamFile
{
    version     2.0;
    format      ascii;
    class       volScalarField;
    location    "5";
    object      H;
}
// * * * * * * * * * * * * * * * * * * * * * * * * * * * * * * * * * * * * * //

dimensions      [0 2 -2 0 0 0 0];

internalField   nonuniform List<scalar> 
500
(
-12015.5
-12015.5
-12015.5
-12015.5
-12015.5
-11584.2
-11584.1
-11584
-11584.1
-11584.2
-11148
-11147.9
-11147.8
-11147.9
-11148
-10706.9
-10706.8
-10706.6
-10706.8
-10706.9
-10260.9
-10260.7
-10260.4
-10260.7
-10260.9
-9809.76
-9809.5
-9809.14
-9809.49
-9809.76
-9353.51
-9353.2
-9352.77
-9353.18
-9353.51
-8892.05
-8891.68
-8891.18
-8891.66
-8892.05
-8425.29
-8424.87
-8424.29
-8424.85
-8425.29
-7953.16
-7952.68
-7952.03
-7952.65
-7953.16
-7475.58
-7475.03
-7474.3
-7475
-7475.58
-6992.44
-6991.84
-6991.02
-6991.8
-6992.45
-6503.68
-6503
-6502.11
-6502.96
-6503.68
-6009.19
-6008.45
-6007.46
-6008.4
-6009.2
-5508.89
-5508.07
-5506.98
-5508.01
-5508.9
-5002.68
-5001.78
-5000.59
-5001.71
-5002.69
-4490.47
-4489.47
-4488.18
-4489.4
-4490.48
-3972.15
-3971.06
-3969.65
-3970.97
-3972.16
-3447.63
-3446.43
-3444.91
-3446.33
-3447.64
-2916.8
-2915.49
-2913.83
-2915.38
-2916.82
-2379.56
-2378.13
-2376.33
-2378
-2379.58
-1835.8
-1834.24
-1832.29
-1834.09
-1835.83
-1285.42
-1283.72
-1281.6
-1283.54
-1285.46
-728.311
-726.446
-724.153
-726.244
-728.354
-18.8585
-18.6678
-18.4424
-18.6467
-18.8635
-14.1046
-13.9619
-13.7939
-13.9463
-14.1082
-14.1435
-14.0032
-13.8393
-13.9881
-14.147
-14.1794
-14.0415
-13.8815
-14.0268
-14.1827
-14.212
-14.0765
-13.9204
-14.0623
-14.2152
-14.2413
-14.1082
-13.956
-14.0945
-14.2443
-14.2671
-14.1363
-13.9879
-14.1231
-14.2699
-14.2892
-14.1608
-14.0162
-14.148
-14.2919
-14.3075
-14.1815
-14.0405
-14.1691
-14.31
-14.3218
-14.1982
-14.0608
-14.1862
-14.3242
-14.3319
-14.2107
-14.077
-14.1992
-14.3342
-14.3378
-14.2189
-14.0887
-14.2078
-14.3399
-14.3392
-14.2227
-14.0959
-14.212
-14.3412
-14.3359
-14.2217
-14.0985
-14.2114
-14.3378
-14.3278
-14.216
-14.0961
-14.2061
-14.3296
-14.3148
-14.2053
-14.0887
-14.1958
-14.3164
-14.2966
-14.1895
-14.0761
-14.1803
-14.2981
-14.2731
-14.1683
-14.0581
-14.1595
-14.2745
-14.244
-14.1416
-14.0346
-14.1331
-14.2454
-14.2093
-14.1092
-14.0053
-14.1011
-14.2106
-14.1688
-14.071
-13.9701
-14.0632
-14.17
-14.1222
-14.0267
-13.9288
-14.0192
-14.1234
-14.0695
-13.9762
-13.8813
-13.969
-14.0705
-14.0103
-13.9194
-13.8273
-13.9125
-14.0113
-13.9447
-13.8559
-13.7668
-13.8494
-13.9456
-13.8723
-13.7858
-13.6994
-13.7795
-13.8731
-13.793
-13.7088
-13.6251
-13.7028
-13.7938
-13.7067
-13.6247
-13.5437
-13.6189
-13.7074
-13.6132
-13.5334
-13.455
-13.5279
-13.6139
-13.5123
-13.4347
-13.3589
-13.4294
-13.5129
-13.4039
-13.3284
-13.2552
-13.3234
-13.4044
-13.2877
-13.2144
-13.1437
-13.2097
-13.2883
-13.1638
-13.0926
-13.0244
-13.0881
-13.1643
-13.0319
-12.9629
-12.897
-12.9586
-13.0324
-12.8919
-12.8249
-12.7614
-12.8209
-12.8923
-12.7436
-12.6788
-12.6175
-12.6749
-12.744
-12.587
-12.5242
-12.4652
-12.5206
-12.5874
-12.4219
-12.3612
-12.3044
-12.3577
-12.4223
-12.2482
-12.1895
-12.1349
-12.1863
-12.2486
-12.0659
-12.0092
-11.9567
-12.0061
-12.0662
-11.8748
-11.8201
-11.7696
-11.8172
-11.8751
-11.6749
-11.6221
-11.5737
-11.6193
-11.6752
-11.466
-11.4152
-11.3688
-11.4126
-11.4663
-11.2483
-11.1993
-11.1549
-11.1969
-11.2485
-11.0215
-10.9745
-10.9319
-10.9722
-11.0217
-10.7857
-10.7405
-10.6998
-10.7384
-10.7859
-10.5409
-10.4976
-10.4587
-10.4956
-10.5411
-10.2871
-10.2456
-10.2085
-10.2437
-10.2873
-10.0244
-9.98461
-9.94922
-9.98285
-10.0245
-9.75262
-9.71463
-9.68095
-9.71299
-9.75279
-9.472
-9.43575
-9.40372
-9.43422
-9.47216
-9.18257
-9.14803
-9.11762
-9.14661
-9.18273
-8.88443
-8.85158
-8.82275
-8.85026
-8.88458
-8.5777
-8.5465
-8.51922
-8.54528
-8.57784
-8.26252
-8.23296
-8.20718
-8.23183
-8.26266
-7.93905
-7.91109
-7.8868
-7.91005
-7.93918
-7.60748
-7.5811
-7.55825
-7.58015
-7.60761
-7.26802
-7.2432
-7.22175
-7.24232
-7.26814
-6.9209
-6.89761
-6.87754
-6.89681
-6.92102
-6.56639
-6.54461
-6.52588
-6.54388
-6.56651
-6.20478
-6.18447
-6.16705
-6.1838
-6.20489
-5.83637
-5.81751
-5.80138
-5.81691
-5.83647
-5.4615
-5.44408
-5.4292
-5.44353
-5.4616
-5.08055
-5.06453
-5.05089
-5.06405
-5.08064
-4.69392
-4.67928
-4.66684
-4.67885
-4.694
-4.30202
-4.28875
-4.27748
-4.28836
-4.3021
-3.90532
-3.89339
-3.88328
-3.89305
-3.90539
-3.5043
-3.49369
-3.48471
-3.49339
-3.50436
-3.09947
-3.09017
-3.0823
-3.08991
-3.09953
-2.69138
-2.68336
-2.6766
-2.68315
-2.69143
-2.28061
-2.27386
-2.26817
-2.27368
-2.28065
-1.86775
-1.86226
-1.85763
-1.86211
-1.86779
-1.45345
-1.44919
-1.44561
-1.44908
-1.45348
-1.03836
-1.03532
-1.03278
-1.03525
-1.03838
-0.623165
-0.621351
-0.619825
-0.621305
-0.623177
-0.208596
-0.207989
-0.207479
-0.207974
-0.2086
)
;

boundaryField
{
    BotWall
    {
        type            zeroGradient;
    }
    FreeStream
    {
        type            zeroGradient;
    }
    FrontNBack
    {
        type            empty;
    }
    LeftSide
    {
        type            symmetryPlane;
    }
    RightSide
    {
        type            symmetryPlane;
    }
}


// ************************************************************************* //
