/*--------------------------------*- C++ -*----------------------------------*\
| =========                 |                                                 |
| \\      /  F ield         | OpenFOAM: The Open Source CFD Toolbox           |
|  \\    /   O peration     | Version:  2.4.0                                 |
|   \\  /    A nd           | Web:      www.OpenFOAM.org                      |
|    \\/     M anipulation  |                                                 |
\*---------------------------------------------------------------------------*/
FoamFile
{
    version     2.0;
    format      ascii;
    class       volScalarField;
    location    "5";
    object      p;
}
// * * * * * * * * * * * * * * * * * * * * * * * * * * * * * * * * * * * * * //

dimensions      [1 -1 -2 0 0 0 0];

internalField   nonuniform List<scalar> 
500
(
0.798767
0.801584
0.803499
0.801025
0.798645
0.76894
0.771763
0.773684
0.771206
0.768815
0.738797
0.741628
0.743559
0.741074
0.738671
0.708309
0.711149
0.713091
0.710598
0.708182
0.677491
0.680341
0.682295
0.679793
0.677362
0.646317
0.649178
0.651144
0.648633
0.646188
0.614806
0.617679
0.619657
0.617137
0.614677
0.582932
0.585817
0.587807
0.585278
0.582802
0.550714
0.553612
0.555616
0.553076
0.550583
0.518124
0.521035
0.523053
0.520501
0.517992
0.485181
0.488106
0.490139
0.487576
0.485048
0.451849
0.454789
0.456837
0.454262
0.451715
0.418159
0.421115
0.423179
0.420591
0.418024
0.384124
0.387096
0.389177
0.386575
0.383988
0.349878
0.35287
0.354969
0.352351
0.349742
0.315269
0.318282
0.320402
0.317766
0.315132
0.27909
0.282122
0.284253
0.281606
0.278953
0.23864
0.241652
0.243762
0.241172
0.238503
0.196852
0.199874
0.20186
0.199331
0.196717
0.185173
0.18833
0.190454
0.187912
0.185042
0.270543
0.27484
0.278105
0.274324
0.270386
0.378066
0.38415
0.389353
0.383986
0.377847
-0.298453
-0.294867
-0.292641
-0.295321
-0.29863
-3.39753
-3.41696
-3.44149
-3.41929
-3.39709
-7.17259
-7.23452
-7.3094
-7.24173
-7.17089
-0.0180631
-0.0180602
-0.0180567
-0.0180599
-0.0180632
-0.0139261
-0.0139282
-0.0139305
-0.0139283
-0.0139261
-0.0153077
-0.015308
-0.0153083
-0.015308
-0.0153077
-0.0163581
-0.0163579
-0.0163577
-0.0163579
-0.0163581
-0.0170869
-0.0170868
-0.0170867
-0.0170868
-0.0170869
-0.017742
-0.017742
-0.0177419
-0.017742
-0.017742
-0.018416
-0.018416
-0.0184159
-0.018416
-0.018416
-0.0191104
-0.0191104
-0.0191104
-0.0191104
-0.0191104
-0.0198156
-0.0198156
-0.0198156
-0.0198156
-0.0198156
-0.0205282
-0.0205282
-0.0205282
-0.0205282
-0.0205283
-0.0212483
-0.0212483
-0.0212482
-0.0212483
-0.0212483
-0.0219763
-0.0219762
-0.0219762
-0.0219762
-0.0219763
-0.0227124
-0.0227124
-0.0227123
-0.0227124
-0.0227124
-0.0234567
-0.0234567
-0.0234567
-0.0234567
-0.0234567
-0.0242094
-0.0242094
-0.0242093
-0.0242094
-0.0242094
-0.0249705
-0.0249704
-0.0249704
-0.0249704
-0.0249705
-0.02574
-0.02574
-0.0257399
-0.02574
-0.02574
-0.0265181
-0.0265181
-0.0265181
-0.0265181
-0.0265181
-0.027305
-0.0273049
-0.0273049
-0.0273049
-0.027305
-0.0281006
-0.0281005
-0.0281005
-0.0281005
-0.0281006
-0.028905
-0.028905
-0.028905
-0.028905
-0.028905
-0.0297185
-0.0297185
-0.0297184
-0.0297185
-0.0297185
-0.030541
-0.030541
-0.030541
-0.030541
-0.030541
-0.0313727
-0.0313727
-0.0313727
-0.0313727
-0.0313727
-0.0322137
-0.0322137
-0.0322137
-0.0322137
-0.0322137
-0.0330641
-0.0330641
-0.033064
-0.0330641
-0.0330641
-0.033924
-0.0339239
-0.0339239
-0.0339239
-0.033924
-0.0347934
-0.0347934
-0.0347934
-0.0347934
-0.0347934
-0.0356726
-0.0356726
-0.0356725
-0.0356726
-0.0356726
-0.0365616
-0.0365615
-0.0365615
-0.0365615
-0.0365616
-0.0374604
-0.0374604
-0.0374604
-0.0374604
-0.0374604
-0.0383694
-0.0383693
-0.0383693
-0.0383693
-0.0383694
-0.0392884
-0.0392884
-0.0392884
-0.0392884
-0.0392884
-0.0402178
-0.0402177
-0.0402177
-0.0402177
-0.0402178
-0.0411574
-0.0411574
-0.0411574
-0.0411574
-0.0411574
-0.0421076
-0.0421076
-0.0421076
-0.0421076
-0.0421076
-0.0430684
-0.0430684
-0.0430684
-0.0430684
-0.0430684
-0.0440399
-0.0440399
-0.0440399
-0.0440399
-0.0440399
-0.0450222
-0.0450222
-0.0450222
-0.0450222
-0.0450223
-0.0460156
-0.0460155
-0.0460155
-0.0460155
-0.0460156
-0.0470199
-0.0470199
-0.0470199
-0.0470199
-0.0470199
-0.0480355
-0.0480355
-0.0480355
-0.0480355
-0.0480355
-0.0490625
-0.0490625
-0.0490624
-0.0490625
-0.0490625
-0.0501009
-0.0501008
-0.0501008
-0.0501008
-0.0501009
-0.0511508
-0.0511508
-0.0511508
-0.0511508
-0.0511508
-0.0522125
-0.0522125
-0.0522125
-0.0522125
-0.0522125
-0.0532861
-0.0532861
-0.053286
-0.0532861
-0.0532861
-0.0543716
-0.0543716
-0.0543716
-0.0543716
-0.0543716
-0.0554692
-0.0554692
-0.0554692
-0.0554692
-0.0554692
-0.0565791
-0.0565791
-0.0565791
-0.0565791
-0.0565791
-0.0577014
-0.0577014
-0.0577013
-0.0577014
-0.0577014
-0.0588362
-0.0588361
-0.0588361
-0.0588361
-0.0588362
-0.0599836
-0.0599836
-0.0599836
-0.0599836
-0.0599836
-0.0611439
-0.0611439
-0.0611438
-0.0611439
-0.0611439
-0.0623171
-0.0623171
-0.0623171
-0.0623171
-0.0623171
-0.0635034
-0.0635034
-0.0635034
-0.0635034
-0.0635034
-0.0647029
-0.0647029
-0.0647029
-0.0647029
-0.0647029
-0.0659158
-0.0659158
-0.0659158
-0.0659158
-0.0659158
-0.0671423
-0.0671423
-0.0671423
-0.0671423
-0.0671423
-0.0683824
-0.0683824
-0.0683824
-0.0683824
-0.0683824
-0.0696364
-0.0696364
-0.0696364
-0.0696364
-0.0696364
-0.0709044
-0.0709044
-0.0709044
-0.0709044
-0.0709044
-0.0721865
-0.0721865
-0.0721865
-0.0721865
-0.0721865
-0.0734829
-0.0734829
-0.0734829
-0.0734829
-0.0734829
-0.0747938
-0.0747938
-0.0747938
-0.0747938
-0.0747938
-0.0761193
-0.0761193
-0.0761193
-0.0761193
-0.0761193
-0.0774596
-0.0774596
-0.0774596
-0.0774596
-0.0774596
-0.0788149
-0.0788149
-0.0788149
-0.0788149
-0.0788149
-0.0801853
-0.0801853
-0.0801853
-0.0801853
-0.0801853
-0.081571
-0.081571
-0.081571
-0.081571
-0.081571
-0.0829721
-0.0829721
-0.0829721
-0.0829721
-0.0829721
-0.0843889
-0.0843889
-0.0843889
-0.0843889
-0.0843889
-0.0858215
-0.0858215
-0.0858215
-0.0858215
-0.0858215
-0.0872701
-0.0872701
-0.0872701
-0.0872701
-0.0872701
-0.0887348
-0.0887348
-0.0887348
-0.0887348
-0.0887348
)
;

boundaryField
{
    BotWall
    {
        type            calculated;
        value           nonuniform List<scalar> 5(0.813587 0.816404 0.818319 0.815846 0.813465);
    }
    FreeStream
    {
        type            calculated;
        value           nonuniform List<scalar> 5(-0.0894713 -0.0894713 -0.0894713 -0.0894713 -0.0894713);
    }
    FrontNBack
    {
        type            empty;
    }
    LeftSide
    {
        type            symmetryPlane;
    }
    RightSide
    {
        type            symmetryPlane;
    }
}


// ************************************************************************* //
