/*--------------------------------*- C++ -*----------------------------------*\
| =========                 |                                                 |
| \\      /  F ield         | OpenFOAM: The Open Source CFD Toolbox           |
|  \\    /   O peration     | Version:  2.4.0                                 |
|   \\  /    A nd           | Web:      www.OpenFOAM.org                      |
|    \\/     M anipulation  |                                                 |
\*---------------------------------------------------------------------------*/
FoamFile
{
    version     2.0;
    format      ascii;
    class       volScalarField;
    location    "5";
    object      p_rgh;
}
// * * * * * * * * * * * * * * * * * * * * * * * * * * * * * * * * * * * * * //

dimensions      [1 -1 -2 0 0 0 0];

internalField   nonuniform List<scalar> 
500
(
0.813587
0.816404
0.818319
0.815846
0.813465
0.813566
0.816389
0.81831
0.815832
0.813441
0.813562
0.816393
0.818324
0.815839
0.813436
0.813549
0.816389
0.818331
0.815838
0.813421
0.813545
0.816396
0.818349
0.815848
0.813417
0.813531
0.816392
0.818357
0.815847
0.813402
0.813527
0.816399
0.818377
0.815857
0.813397
0.813511
0.816395
0.818386
0.815856
0.81338
0.813506
0.816403
0.818408
0.815867
0.813375
0.813489
0.8164
0.818418
0.815866
0.813357
0.813482
0.816407
0.81844
0.815877
0.813349
0.813455
0.816395
0.818443
0.815868
0.813321
0.81344
0.816396
0.81846
0.815872
0.813306
0.813456
0.816429
0.81851
0.815908
0.813321
0.813642
0.816634
0.818734
0.816116
0.813506
0.813849
0.816862
0.818982
0.816346
0.813712
0.812875
0.815906
0.818037
0.81539
0.812737
0.808022
0.811033
0.813144
0.810553
0.807884
0.802227
0.805249
0.807236
0.804707
0.802092
0.826945
0.830102
0.832225
0.829684
0.826813
0.949116
0.953413
0.956678
0.952897
0.94896
1.09385
1.09994
1.10514
1.09977
1.09363
0.454961
0.458547
0.460773
0.458093
0.454784
-2.60607
-2.62549
-2.65002
-2.62782
-2.60563
-6.75788
-6.81542
-6.88502
-6.82213
-6.7563
-0.00367191
-0.00366899
-0.00366555
-0.00366873
-0.00367196
0.00111664
0.00111459
0.00111228
0.0011144
0.00111668
0.000393824
0.000393606
0.000393295
0.000393585
0.000393827
9.62147e-06
9.81157e-06
9.99227e-06
9.83128e-06
9.61602e-06
-4.56049e-05
-4.54964e-05
-4.53766e-05
-4.54822e-05
-4.56091e-05
-1.95425e-05
-1.95021e-05
-1.94548e-05
-1.9494e-05
-1.95454e-05
-4.82303e-06
-4.79325e-06
-4.76325e-06
-4.78666e-06
-4.82552e-06
-2.82738e-06
-2.79327e-06
-2.76123e-06
-2.78658e-06
-2.82985e-06
-3.86373e-06
-3.82764e-06
-3.79342e-06
-3.82084e-06
-3.86619e-06
-4.44408e-06
-4.40852e-06
-4.37431e-06
-4.4018e-06
-4.44649e-06
-4.51726e-06
-4.48271e-06
-4.44926e-06
-4.47613e-06
-4.51961e-06
-4.47114e-06
-4.43742e-06
-4.40474e-06
-4.43098e-06
-4.47343e-06
-4.44358e-06
-4.41058e-06
-4.37858e-06
-4.40427e-06
-4.44581e-06
-4.43622e-06
-4.40392e-06
-4.37255e-06
-4.39773e-06
-4.43839e-06
-4.43352e-06
-4.40191e-06
-4.37118e-06
-4.39585e-06
-4.43564e-06
-4.43002e-06
-4.39911e-06
-4.36901e-06
-4.39318e-06
-4.43208e-06
-4.42568e-06
-4.39546e-06
-4.36599e-06
-4.38965e-06
-4.42768e-06
-4.42111e-06
-4.39157e-06
-4.36273e-06
-4.38589e-06
-4.42306e-06
-4.41653e-06
-4.38767e-06
-4.35945e-06
-4.38211e-06
-4.41842e-06
-4.41194e-06
-4.38375e-06
-4.35615e-06
-4.37831e-06
-4.41379e-06
-4.40732e-06
-4.37979e-06
-4.3528e-06
-4.37447e-06
-4.40911e-06
-4.40266e-06
-4.37579e-06
-4.3494e-06
-4.37058e-06
-4.4044e-06
-4.39795e-06
-4.37173e-06
-4.34594e-06
-4.36665e-06
-4.39964e-06
-4.3932e-06
-4.36763e-06
-4.34244e-06
-4.36266e-06
-4.39485e-06
-4.38841e-06
-4.36347e-06
-4.33887e-06
-4.35862e-06
-4.39001e-06
-4.38358e-06
-4.35927e-06
-4.33526e-06
-4.35453e-06
-4.38513e-06
-4.3787e-06
-4.35501e-06
-4.33158e-06
-4.35039e-06
-4.3802e-06
-4.37378e-06
-4.35071e-06
-4.32786e-06
-4.3462e-06
-4.37523e-06
-4.36882e-06
-4.34635e-06
-4.32407e-06
-4.34195e-06
-4.37022e-06
-4.36381e-06
-4.34194e-06
-4.32023e-06
-4.33766e-06
-4.36517e-06
-4.35875e-06
-4.33749e-06
-4.31634e-06
-4.33331e-06
-4.36007e-06
-4.35365e-06
-4.33297e-06
-4.31239e-06
-4.3289e-06
-4.35493e-06
-4.34851e-06
-4.32841e-06
-4.30837e-06
-4.32445e-06
-4.34974e-06
-4.34331e-06
-4.32379e-06
-4.30431e-06
-4.31994e-06
-4.3445e-06
-4.33807e-06
-4.31912e-06
-4.30018e-06
-4.31537e-06
-4.33922e-06
-4.33278e-06
-4.3144e-06
-4.29599e-06
-4.31075e-06
-4.33389e-06
-4.32745e-06
-4.30962e-06
-4.29174e-06
-4.30607e-06
-4.32851e-06
-4.32206e-06
-4.30478e-06
-4.28744e-06
-4.30134e-06
-4.32309e-06
-4.31662e-06
-4.29989e-06
-4.28307e-06
-4.29655e-06
-4.31761e-06
-4.31114e-06
-4.29494e-06
-4.27864e-06
-4.2917e-06
-4.31209e-06
-4.3056e-06
-4.28994e-06
-4.27415e-06
-4.2868e-06
-4.30652e-06
-4.30001e-06
-4.28488e-06
-4.2696e-06
-4.28183e-06
-4.30089e-06
-4.29437e-06
-4.27976e-06
-4.26499e-06
-4.27681e-06
-4.29521e-06
-4.28868e-06
-4.27458e-06
-4.26031e-06
-4.27173e-06
-4.28948e-06
-4.28293e-06
-4.26934e-06
-4.25557e-06
-4.26658e-06
-4.2837e-06
-4.27713e-06
-4.26404e-06
-4.25076e-06
-4.26138e-06
-4.27787e-06
-4.27127e-06
-4.25869e-06
-4.2459e-06
-4.25612e-06
-4.27197e-06
-4.26536e-06
-4.25327e-06
-4.24096e-06
-4.25079e-06
-4.26603e-06
-4.25939e-06
-4.24779e-06
-4.23596e-06
-4.2454e-06
-4.26003e-06
-4.25337e-06
-4.24225e-06
-4.2309e-06
-4.23995e-06
-4.25397e-06
-4.24728e-06
-4.23664e-06
-4.22576e-06
-4.23444e-06
-4.24785e-06
-4.24114e-06
-4.23098e-06
-4.22056e-06
-4.22886e-06
-4.24168e-06
-4.23494e-06
-4.22524e-06
-4.2153e-06
-4.22322e-06
-4.23544e-06
-4.22868e-06
-4.21945e-06
-4.20996e-06
-4.21751e-06
-4.22915e-06
-4.22235e-06
-4.21359e-06
-4.20456e-06
-4.21173e-06
-4.22279e-06
-4.21596e-06
-4.20766e-06
-4.19909e-06
-4.20589e-06
-4.21638e-06
-4.20951e-06
-4.20167e-06
-4.19355e-06
-4.19998e-06
-4.2099e-06
-4.203e-06
-4.19561e-06
-4.18794e-06
-4.19401e-06
-4.20335e-06
-4.19642e-06
-4.18948e-06
-4.18226e-06
-4.18796e-06
-4.19674e-06
-4.18978e-06
-4.18328e-06
-4.1765e-06
-4.18185e-06
-4.19007e-06
-4.18306e-06
-4.17701e-06
-4.17068e-06
-4.17567e-06
-4.18333e-06
-4.17628e-06
-4.17068e-06
-4.16479e-06
-4.16941e-06
-4.17652e-06
-4.16943e-06
-4.16427e-06
-4.15882e-06
-4.16309e-06
-4.16964e-06
-4.16251e-06
-4.15779e-06
-4.15278e-06
-4.15669e-06
-4.16269e-06
-4.15552e-06
-4.15124e-06
-4.14667e-06
-4.15023e-06
-4.15567e-06
-4.14846e-06
-4.14462e-06
-4.14049e-06
-4.14369e-06
-4.14858e-06
-4.14132e-06
-4.13792e-06
-4.13423e-06
-4.13707e-06
-4.14141e-06
-4.13411e-06
-4.13115e-06
-4.1279e-06
-4.13038e-06
-4.13417e-06
-4.12682e-06
-4.1243e-06
-4.12149e-06
-4.12362e-06
-4.12685e-06
-4.11946e-06
-4.11738e-06
-4.11501e-06
-4.11678e-06
-4.11946e-06
-4.11201e-06
-4.11038e-06
-4.10845e-06
-4.10986e-06
-4.11198e-06
-4.10445e-06
-4.10332e-06
-4.10187e-06
-4.10288e-06
-4.10439e-06
-4.09676e-06
-4.09619e-06
-4.09527e-06
-4.09585e-06
-4.09667e-06
-4.0891e-06
-4.08895e-06
-4.08845e-06
-4.08869e-06
-4.08898e-06
-4.08216e-06
-4.08138e-06
-4.0805e-06
-4.08111e-06
-4.08208e-06
)
;

boundaryField
{
    BotWall
    {
        type            fixedFluxPressure;
        gradient        uniform 0;
        value           nonuniform List<scalar> 5(0.813587 0.816404 0.818319 0.815846 0.813465);
    }
    FreeStream
    {
        type            totalPressure;
        rho             rho;
        psi             none;
        gamma           1;
        p0              uniform 0;
        value           nonuniform List<scalar> 5(-4.07923e-06 -4.0774e-06 -4.07578e-06 -4.07706e-06 -4.07921e-06);
    }
    FrontNBack
    {
        type            empty;
    }
    LeftSide
    {
        type            symmetryPlane;
    }
    RightSide
    {
        type            symmetryPlane;
    }
}


// ************************************************************************* //
