/*--------------------------------*- C++ -*----------------------------------*\
| =========                 |                                                 |
| \\      /  F ield         | OpenFOAM: The Open Source CFD Toolbox           |
|  \\    /   O peration     | Version:  2.4.0                                 |
|   \\  /    A nd           | Web:      www.OpenFOAM.org                      |
|    \\/     M anipulation  |                                                 |
\*---------------------------------------------------------------------------*/
FoamFile
{
    version     2.0;
    format      ascii;
    class       surfaceScalarField;
    location    "5";
    object      phi;
}
// * * * * * * * * * * * * * * * * * * * * * * * * * * * * * * * * * * * * * //

dimensions      [0 3 -1 0 0 0 0];

internalField   nonuniform List<scalar> 
895
(
2.496e-17
-2.49607e-17
2.31976e-17
1.7611e-18
-1.41186e-17
3.73141e-17
-2.82335e-17
1.41133e-17
-2.82348e-17
7.92688e-17
-1.0424e-16
7.26872e-17
8.32516e-18
-4.5644e-17
1.5562e-16
-8.88835e-17
5.7333e-17
-1.17133e-16
1.38351e-16
-2.42604e-16
1.25568e-16
2.10891e-17
-8.04561e-17
3.61617e-16
-1.54336e-16
1.31192e-16
-2.71484e-16
2.02263e-16
-4.4488e-16
1.81809e-16
4.15219e-17
-1.18476e-16
6.61872e-16
-2.24736e-16
2.3743e-16
-4.96236e-16
2.7126e-16
-7.16156e-16
2.41596e-16
7.11634e-17
-1.59895e-16
1.06333e-15
-3.0035e-16
3.77861e-16
-7.96601e-16
3.45648e-16
-1.06182e-15
3.05125e-16
1.11662e-16
-2.04917e-16
1.57334e-15
-3.81491e-16
5.54411e-16
-1.17811e-15
4.25705e-16
-1.48754e-15
3.72588e-16
1.64755e-16
-2.53743e-16
2.19964e-15
-4.6845e-16
7.69094e-16
-1.64657e-15
5.11776e-16
-1.99933e-15
4.44213e-16
2.32295e-16
-3.06607e-16
2.95043e-15
-5.61583e-16
1.02405e-15
-2.20817e-15
6.0417e-16
-2.60352e-15
5.2021e-16
3.16231e-16
-3.63731e-16
3.83434e-15
-6.61209e-16
1.3215e-15
-2.8694e-15
7.03274e-16
-3.30681e-15
6.00837e-16
4.18644e-16
-4.25377e-16
4.86052e-15
-7.67732e-16
1.66383e-15
-3.63715e-15
8.09429e-16
-4.11626e-15
6.86326e-16
5.41722e-16
-4.91792e-16
6.03861e-15
-8.81502e-16
2.05352e-15
-4.51866e-15
9.23069e-16
-5.03934e-15
7.76968e-16
6.878e-16
-5.6327e-16
7.37881e-15
-1.00297e-15
2.4932e-15
-5.52165e-15
1.04458e-15
-6.08393e-15
8.73021e-16
8.59331e-16
-6.40088e-16
8.89189e-15
-1.13254e-15
2.98563e-15
-6.65421e-15
1.17443e-15
-7.25838e-15
9.7481e-16
1.05893e-15
-7.22574e-16
1.05892e-14
-1.27071e-15
3.53374e-15
-7.92494e-15
1.31307e-15
-8.57147e-15
1.08263e-15
1.28936e-15
-8.11036e-16
1.24829e-14
-1.41792e-15
4.14061e-15
-9.34287e-15
1.46103e-15
-1.00325e-14
1.19683e-15
1.55353e-15
-9.05845e-16
1.45855e-14
-1.57475e-15
4.80949e-15
-1.09176e-14
1.61879e-15
-1.16513e-14
1.31777e-15
1.85453e-15
-1.00736e-15
1.69106e-14
-1.74169e-15
5.54381e-15
-1.26593e-14
1.78698e-15
-1.34383e-14
1.44593e-15
2.19557e-15
-1.11613e-15
1.94727e-14
-1.91934e-15
6.34701e-15
-1.45787e-14
1.96599e-15
-1.54043e-14
1.58176e-15
2.57978e-15
-1.23178e-15
2.22862e-14
-2.10824e-15
7.22346e-15
-1.66869e-14
2.15628e-15
-1.75606e-14
1.72386e-15
3.01219e-15
-1.35594e-15
2.5366e-14
-2.3088e-15
8.17631e-15
-1.89957e-14
2.35836e-15
-1.9919e-14
1.87688e-15
3.49365e-15
-1.48852e-15
2.87313e-14
-2.52157e-15
9.20936e-15
-2.15173e-14
2.5742e-15
-2.24932e-14
2.03549e-15
4.03236e-15
-1.62834e-15
3.23952e-14
-2.74857e-15
1.03296e-14
-2.42659e-14
2.8105e-15
-2.53037e-14
2.21114e-15
4.63171e-15
-1.78284e-15
3.63891e-14
-2.99486e-15
1.15416e-14
-2.72608e-14
3.07247e-15
-3.80674e-14
2.41957e-15
5.28461e-15
-1.97101e-15
4.07797e-14
-3.27284e-15
1.28434e-14
-4.09695e-14
3.39234e-15
-1.89109e-10
2.72565e-15
-1.89131e-10
-2.24633e-15
-1.89161e-10
-3.62343e-15
-1.89134e-10
-1.89108e-10
3.44095e-15
-1.89112e-10
2.6724e-15
-1.8913e-10
-2.1974e-15
-1.89156e-10
-3.65745e-15
-1.89133e-10
-1.89112e-10
3.42694e-15
-1.89116e-10
2.6814e-15
-1.8913e-10
-2.21207e-15
-1.89152e-10
-3.63909e-15
-1.89131e-10
-1.89115e-10
3.29521e-15
-1.89119e-10
2.55944e-15
-1.89129e-10
-2.10658e-15
-1.89147e-10
-3.49007e-15
-1.8913e-10
-1.89119e-10
3.17508e-15
-1.89122e-10
2.46041e-15
-1.89128e-10
-2.0218e-15
-1.89142e-10
-3.35623e-15
-1.89128e-10
-1.89122e-10
3.06443e-15
-1.89125e-10
2.37484e-15
-1.89128e-10
-1.94926e-15
-1.89138e-10
-3.23367e-15
-1.89127e-10
-1.89126e-10
2.95654e-15
-1.89128e-10
2.29211e-15
-1.89127e-10
-1.87928e-15
-1.89134e-10
-3.11432e-15
-1.89126e-10
-1.89129e-10
2.849e-15
-1.89131e-10
2.20931e-15
-1.89126e-10
-1.80917e-15
-1.8913e-10
-2.99551e-15
-1.89125e-10
-1.89132e-10
2.74205e-15
-1.89134e-10
2.12679e-15
-1.89126e-10
-1.73925e-15
-1.89126e-10
-2.87756e-15
-1.89124e-10
-1.89135e-10
2.63609e-15
-1.89136e-10
2.04507e-15
-1.89125e-10
-1.66999e-15
-1.89122e-10
-2.76091e-15
-1.89123e-10
-1.89137e-10
2.53125e-15
-1.89139e-10
1.96432e-15
-1.89125e-10
-1.60154e-15
-1.89119e-10
-2.64571e-15
-1.89121e-10
-1.8914e-10
2.42758e-15
-1.89141e-10
1.88457e-15
-1.89124e-10
-1.53393e-15
-1.89115e-10
-2.532e-15
-1.8912e-10
-1.89142e-10
2.3251e-15
-1.89144e-10
1.80584e-15
-1.89123e-10
-1.46719e-15
-1.89112e-10
-2.41982e-15
-1.8912e-10
-1.89145e-10
2.22389e-15
-1.89146e-10
1.72815e-15
-1.89123e-10
-1.40133e-15
-1.89109e-10
-2.30923e-15
-1.89119e-10
-1.89147e-10
2.124e-15
-1.89148e-10
1.65156e-15
-1.89122e-10
-1.33639e-15
-1.89106e-10
-2.20028e-15
-1.89118e-10
-1.89149e-10
2.02548e-15
-1.8915e-10
1.5761e-15
-1.89122e-10
-1.27242e-15
-1.89103e-10
-2.09303e-15
-1.89117e-10
-1.89151e-10
1.92839e-15
-1.89152e-10
1.50182e-15
-1.89122e-10
-1.20944e-15
-1.891e-10
-1.98754e-15
-1.89116e-10
-1.89153e-10
1.83278e-15
-1.89154e-10
1.42874e-15
-1.89121e-10
-1.1475e-15
-1.89098e-10
-1.88385e-15
-1.89115e-10
-1.89155e-10
1.73871e-15
-1.89155e-10
1.3569e-15
-1.89121e-10
-1.08661e-15
-1.89095e-10
-1.78203e-15
-1.89115e-10
-1.89157e-10
1.64623e-15
-1.89157e-10
1.28635e-15
-1.8912e-10
-1.02682e-15
-1.89093e-10
-1.68211e-15
-1.89114e-10
-1.89159e-10
1.55539e-15
-1.89159e-10
1.2171e-15
-1.8912e-10
-9.68162e-16
-1.89091e-10
-1.58415e-15
-1.89113e-10
-1.8916e-10
1.46625e-15
-1.8916e-10
1.14921e-15
-1.8912e-10
-9.10656e-16
-1.89089e-10
-1.48821e-15
-1.89113e-10
-1.89162e-10
1.37883e-15
-1.89161e-10
1.0827e-15
-1.8912e-10
-8.54337e-16
-1.89087e-10
-1.39431e-15
-1.89112e-10
-1.89163e-10
1.29321e-15
-1.89163e-10
1.0176e-15
-1.89119e-10
-7.99232e-16
-1.89085e-10
-1.30251e-15
-1.89112e-10
-1.89165e-10
1.20941e-15
-1.89164e-10
9.53939e-16
-1.89119e-10
-7.45371e-16
-1.89083e-10
-1.21285e-15
-1.89111e-10
-1.89166e-10
1.12749e-15
-1.89165e-10
8.91751e-16
-1.89119e-10
-6.92777e-16
-1.89082e-10
-1.12537e-15
-1.89111e-10
-1.89167e-10
1.04749e-15
-1.89166e-10
8.3106e-16
-1.89119e-10
-6.41478e-16
-1.8908e-10
-1.0401e-15
-1.89111e-10
-1.89168e-10
9.69437e-16
-1.89167e-10
7.71894e-16
-1.89118e-10
-5.91497e-16
-1.89079e-10
-9.57091e-16
-1.8911e-10
-1.89169e-10
8.93384e-16
-1.89168e-10
7.14277e-16
-1.89118e-10
-5.42857e-16
-1.89078e-10
-8.76368e-16
-1.8911e-10
-1.8917e-10
8.19362e-16
-1.89169e-10
6.58232e-16
-1.89118e-10
-4.95578e-16
-1.89077e-10
-7.97965e-16
-1.8911e-10
-1.89171e-10
7.47406e-16
-1.8917e-10
6.03781e-16
-1.89118e-10
-4.49681e-16
-1.89076e-10
-7.21912e-16
-1.89109e-10
-1.89171e-10
6.77549e-16
-1.8917e-10
5.50944e-16
-1.89118e-10
-4.05185e-16
-1.89075e-10
-6.48234e-16
-1.89109e-10
-1.89172e-10
6.09819e-16
-1.89171e-10
4.99739e-16
-1.89118e-10
-3.62106e-16
-1.89074e-10
-5.76958e-16
-1.89109e-10
-1.89173e-10
5.44246e-16
-1.89171e-10
4.50183e-16
-1.89118e-10
-3.2046e-16
-1.89073e-10
-5.08104e-16
-1.89109e-10
-1.89173e-10
4.80853e-16
-1.89172e-10
4.02291e-16
-1.89117e-10
-2.80259e-16
-1.89072e-10
-4.41693e-16
-1.89108e-10
-1.89173e-10
4.19663e-16
-1.89172e-10
3.56075e-16
-1.89117e-10
-2.41518e-16
-1.89072e-10
-3.7774e-16
-1.89108e-10
-1.89174e-10
3.60697e-16
-1.89173e-10
3.11548e-16
-1.89117e-10
-2.04244e-16
-1.89071e-10
-3.1626e-16
-1.89108e-10
-1.89174e-10
3.03971e-16
-1.89173e-10
2.68717e-16
-1.89117e-10
-1.68448e-16
-1.89071e-10
-2.57263e-16
-1.89108e-10
-1.89174e-10
2.49499e-16
-1.89173e-10
2.2759e-16
-1.89117e-10
-1.34135e-16
-1.8907e-10
-2.00756e-16
-1.89108e-10
-1.89175e-10
1.97293e-16
-1.89173e-10
1.88171e-16
-1.89117e-10
-1.01309e-16
-1.8907e-10
-1.46743e-16
-1.89108e-10
-1.89175e-10
1.4736e-16
-1.89174e-10
1.50464e-16
-1.89117e-10
-6.99734e-17
-1.8907e-10
-9.52268e-17
-1.89108e-10
-1.89175e-10
9.97053e-17
-1.89174e-10
1.14469e-16
-1.89117e-10
-4.0128e-17
-1.8907e-10
-4.62032e-17
-1.89108e-10
-1.89175e-10
5.43299e-17
-1.89174e-10
8.01834e-17
-1.89117e-10
-1.17708e-17
-1.8907e-10
3.33478e-19
-1.89108e-10
-1.89175e-10
1.12316e-17
-1.89174e-10
4.76029e-17
-1.89117e-10
1.51026e-17
-1.8907e-10
4.43932e-17
-1.89108e-10
-1.89175e-10
-2.95956e-17
-1.89174e-10
1.67206e-17
-1.89117e-10
4.04989e-17
-1.8907e-10
8.59894e-17
-1.89108e-10
-1.89175e-10
-6.81616e-17
-1.89174e-10
-1.24733e-17
-1.89117e-10
6.44273e-17
-1.8907e-10
1.2514e-16
-1.89108e-10
-1.89175e-10
-1.0448e-16
-1.89174e-10
-3.99911e-17
-1.89117e-10
8.68995e-17
-1.8907e-10
1.61866e-16
-1.89108e-10
-1.89175e-10
-1.38568e-16
-1.89173e-10
-6.58479e-17
-1.89118e-10
1.0793e-16
-1.8907e-10
1.96193e-16
-1.89108e-10
-1.89174e-10
-1.70449e-16
-1.89173e-10
-9.00619e-17
-1.89118e-10
1.27536e-16
-1.8907e-10
2.28153e-16
-1.89108e-10
-1.89174e-10
-2.00149e-16
-1.89173e-10
-1.12654e-16
-1.89118e-10
1.45737e-16
-1.8907e-10
2.5778e-16
-1.89108e-10
-1.89174e-10
-2.27699e-16
-1.89173e-10
-1.33649e-16
-1.89118e-10
1.62558e-16
-1.89071e-10
2.85114e-16
-1.89109e-10
-1.89174e-10
-2.53136e-16
-1.89173e-10
-1.53074e-16
-1.89118e-10
1.78023e-16
-1.89071e-10
3.102e-16
-1.89109e-10
-1.89173e-10
-2.765e-16
-1.89172e-10
-1.70961e-16
-1.89118e-10
1.92162e-16
-1.89071e-10
3.33088e-16
-1.89109e-10
-1.89173e-10
-2.97838e-16
-1.89172e-10
-1.87343e-16
-1.89118e-10
2.05008e-16
-1.89072e-10
3.53834e-16
-1.89109e-10
-1.89173e-10
-3.17201e-16
-1.89172e-10
-2.0226e-16
-1.89118e-10
2.16598e-16
-1.89072e-10
3.72498e-16
-1.89109e-10
-1.89172e-10
-3.34648e-16
-1.89171e-10
-2.15753e-16
-1.89118e-10
2.26971e-16
-1.89073e-10
3.89148e-16
-1.89109e-10
-1.89172e-10
-3.50242e-16
-1.89171e-10
-2.27869e-16
-1.89119e-10
2.36172e-16
-1.89073e-10
4.03858e-16
-1.8911e-10
-1.89171e-10
-3.64054e-16
-1.89171e-10
-2.38659e-16
-1.89119e-10
2.44247e-16
-1.89074e-10
4.16706e-16
-1.8911e-10
-1.89171e-10
-3.76158e-16
-1.8917e-10
-2.48177e-16
-1.89119e-10
2.51249e-16
-1.89074e-10
4.27781e-16
-1.8911e-10
-1.89171e-10
-3.8664e-16
-1.8917e-10
-2.56484e-16
-1.89119e-10
2.57234e-16
-1.89075e-10
4.37177e-16
-1.8911e-10
-1.8917e-10
-3.95589e-16
-1.89169e-10
-2.63644e-16
-1.89119e-10
2.62264e-16
-1.89075e-10
4.44995e-16
-1.8911e-10
-1.8917e-10
-4.03105e-16
-1.89169e-10
-2.69727e-16
-1.89119e-10
2.66405e-16
-1.89076e-10
4.51346e-16
-1.8911e-10
-1.89169e-10
-4.09294e-16
-1.89169e-10
-2.7481e-16
-1.89119e-10
2.69726e-16
-1.89076e-10
4.56349e-16
-1.89111e-10
-1.89169e-10
-4.14272e-16
-1.89168e-10
-2.78974e-16
-1.89119e-10
2.72306e-16
-1.89077e-10
4.60131e-16
-1.89111e-10
-1.89168e-10
-4.18162e-16
-1.89168e-10
-2.82308e-16
-1.8912e-10
2.74226e-16
-1.89077e-10
4.62831e-16
-1.89111e-10
-1.89168e-10
-4.211e-16
-1.89167e-10
-2.84905e-16
-1.8912e-10
2.75575e-16
-1.89078e-10
4.64598e-16
-1.89111e-10
-1.89167e-10
-4.2323e-16
-1.89167e-10
-2.86869e-16
-1.8912e-10
2.76448e-16
-1.89078e-10
4.65591e-16
-1.89111e-10
-1.89167e-10
-4.24707e-16
-1.89167e-10
-2.88309e-16
-1.8912e-10
2.76947e-16
-1.89079e-10
4.65984e-16
-1.89112e-10
-1.89166e-10
-4.25701e-16
-1.89166e-10
-2.89345e-16
-1.8912e-10
2.77181e-16
-1.8908e-10
4.65961e-16
-1.89112e-10
-1.89166e-10
-4.26392e-16
-1.89166e-10
-2.90102e-16
-1.8912e-10
2.77269e-16
-1.8908e-10
4.65723e-16
-1.89112e-10
-1.89165e-10
-4.26974e-16
-1.89165e-10
-2.9072e-16
-1.8912e-10
2.77336e-16
-1.89081e-10
4.65485e-16
-1.89112e-10
-1.89165e-10
-4.27655e-16
-1.89165e-10
-2.91344e-16
-1.89121e-10
2.77517e-16
-1.89081e-10
4.65477e-16
-1.89112e-10
-1.89165e-10
-4.28658e-16
-1.89164e-10
-2.92131e-16
-1.89121e-10
2.77955e-16
-1.89082e-10
4.65944e-16
-1.89112e-10
-1.89164e-10
-4.30232e-16
-1.89164e-10
-2.93255e-16
-1.89121e-10
2.78809e-16
-1.89082e-10
4.67165e-16
-1.89113e-10
-1.89164e-10
-4.327e-16
-1.89164e-10
-2.94952e-16
-1.89121e-10
2.80291e-16
-1.89083e-10
4.69501e-16
-1.89113e-10
-1.89163e-10
-4.36519e-16
-2.97659e-16
2.82761e-16
4.73532e-16
)
;

boundaryField
{
    BotWall
    {
        type            calculated;
        value           nonuniform List<scalar> 5(6.0192e-22 1.15227e-21 1.73636e-21 1.40077e-21 1.07766e-21);
    }
    FreeStream
    {
        type            calculated;
        value           nonuniform List<scalar> 5(-1.89163e-10 -1.89121e-10 -1.89084e-10 -1.89113e-10 -1.89163e-10);
    }
    FrontNBack
    {
        type            empty;
        value           nonuniform 0();
    }
    LeftSide
    {
        type            symmetryPlane;
        value           uniform 0;
    }
    RightSide
    {
        type            symmetryPlane;
        value           uniform 0;
    }
}


// ************************************************************************* //
