/*--------------------------------*- C++ -*----------------------------------*\
| =========                 |                                                 |
| \\      /  F ield         | OpenFOAM: The Open Source CFD Toolbox           |
|  \\    /   O peration     | Version:  2.4.0                                 |
|   \\  /    A nd           | Web:      www.OpenFOAM.org                      |
|    \\/     M anipulation  |                                                 |
\*---------------------------------------------------------------------------*/
FoamFile
{
    version     2.0;
    format      ascii;
    class       volVectorField;
    location    "5";
    object      U;
}
// * * * * * * * * * * * * * * * * * * * * * * * * * * * * * * * * * * * * * //

dimensions      [0 1 -1 0 0 0 0];

internalField   nonuniform List<vector> 
500
(
(4.39861e-09 9.04239e-11 0)
(1.4105e-08 1.16216e-10 0)
(3.09443e-09 1.46895e-10 0)
(-1.3759e-08 1.28699e-10 0)
(-7.01148e-09 8.69897e-11 0)
(1.39525e-08 -5.4957e-10 0)
(4.36651e-08 -2.78475e-10 0)
(9.17889e-09 9.37596e-11 0)
(-4.26544e-08 -1.51163e-10 0)
(-2.1713e-08 -5.83164e-10 0)
(2.4336e-08 -2.97342e-10 0)
(7.47842e-08 5.76553e-10 0)
(1.51917e-08 1.69494e-09 0)
(-7.31351e-08 9.45509e-10 0)
(-3.7197e-08 -3.94251e-10 0)
(3.55801e-08 -2.32191e-09 0)
(1.07524e-07 -5.60298e-10 0)
(2.11322e-08 1.73247e-09 0)
(-1.05265e-07 1.7328e-10 0)
(-5.3497e-08 -2.51414e-09 0)
(4.77096e-08 -1.92292e-09 0)
(1.41943e-07 1.19177e-09 0)
(2.69993e-08 5.10978e-09 0)
(-1.39106e-07 2.41973e-09 0)
(-7.06404e-08 -2.2449e-09 0)
(6.07609e-08 -5.46428e-09 0)
(1.78112e-07 -7.03435e-10 0)
(3.27928e-08 5.31111e-09 0)
(-1.74731e-07 1.13848e-09 0)
(-8.86668e-08 -5.94748e-09 0)
(7.47589e-08 -4.93629e-09 0)
(2.16093e-07 2.05624e-09 0)
(3.85115e-08 1.0673e-08 0)
(-2.12205e-07 4.64633e-09 0)
(-1.07603e-07 -5.6172e-09 0)
(8.97452e-08 -1.01969e-08 0)
(2.55967e-07 -6.58828e-10 0)
(4.41558e-08 1.10905e-08 0)
(-2.5161e-07 2.79894e-09 0)
(-1.27496e-07 -1.11075e-08 0)
(1.05746e-07 -9.55056e-09 0)
(2.97798e-07 3.2521e-09 0)
(4.97239e-08 1.87048e-08 0)
(-2.93015e-07 7.71784e-09 0)
(-1.48373e-07 -1.073e-08 0)
(1.22807e-07 -1.67614e-08 0)
(3.41676e-07 -3.53203e-10 0)
(5.52169e-08 1.9399e-08 0)
(-3.36513e-07 5.23966e-09 0)
(-1.70285e-07 -1.82423e-08 0)
(1.40957e-07 -1.59856e-08 0)
(3.87672e-07 4.89234e-09 0)
(6.06327e-08 2.9587e-08 0)
(-3.82177e-07 1.17589e-08 0)
(-1.93264e-07 -1.78101e-08 0)
(1.60247e-07 -2.55719e-08 0)
(4.35887e-07 1.505e-10 0)
(6.59726e-08 3.04549e-08 0)
(-4.30111e-07 8.40872e-09 0)
(-2.17365e-07 -2.77734e-08 0)
(1.80707e-07 -2.50024e-08 0)
(4.86396e-07 6.584e-09 0)
(7.12345e-08 4.32188e-08 0)
(-4.80395e-07 1.63871e-08 0)
(-2.42622e-07 -2.76265e-08 0)
(2.02394e-07 -3.73446e-08 0)
(5.39311e-07 5.20084e-10 0)
(7.64201e-08 4.42363e-08 0)
(-5.33143e-07 1.19868e-08 0)
(-2.69097e-07 -4.04253e-08 0)
(2.25341e-07 -3.36312e-08 0)
(5.94717e-07 1.17125e-08 0)
(8.1527e-08 6.33572e-08 0)
(-5.88443e-07 2.50146e-08 0)
(-2.96828e-07 -3.72185e-08 0)
(2.49611e-07 -3.93761e-08 0)
(6.52734e-07 1.39729e-08 0)
(8.65575e-08 7.44673e-08 0)
(-6.46423e-07 2.92369e-08 0)
(-3.25883e-07 -4.35066e-08 0)
(2.75241e-07 -3.21252e-08 0)
(7.13461e-07 3.06859e-08 0)
(9.1509e-08 1.00922e-07 0)
(-7.07181e-07 4.80466e-08 0)
(-3.56304e-07 -3.68561e-08 0)
(3.02301e-07 -1.17174e-07 0)
(7.7703e-07 -4.4858e-08 0)
(9.63836e-08 3.55326e-08 0)
(-7.70855e-07 -2.53353e-08 0)
(-3.88167e-07 -1.2253e-07 0)
(3.30821e-07 -3.61715e-07 0)
(8.43528e-07 -2.79995e-07 0)
(1.01266e-07 -1.90291e-07 0)
(-8.37434e-07 -2.58278e-07 0)
(-4.21492e-07 -3.67711e-07 0)
(3.60824e-07 -5.2753e-07 0)
(9.12849e-07 -4.36436e-07 0)
(1.05787e-07 -3.37424e-07 0)
(-9.07244e-07 -4.12526e-07 0)
(-4.56363e-07 -5.34169e-07 0)
(3.92489e-07 1.20863e-06 0)
(9.85701e-07 1.32328e-06 0)
(1.10553e-07 1.44704e-06 0)
(-9.80306e-07 1.35097e-06 0)
(-4.92885e-07 1.20098e-06 0)
(4.26114e-07 7.71716e-06 0)
(1.0619e-06 7.89711e-06 0)
(1.15051e-07 8.09593e-06 0)
(-1.05701e-06 7.93346e-06 0)
(-5.31419e-07 7.70733e-06 0)
(4.6257e-07 1.06419e-05 0)
(1.14343e-06 1.09173e-05 0)
(1.19769e-07 1.12278e-05 0)
(-1.1386e-06 1.09658e-05 0)
(-5.72579e-07 1.06287e-05 0)
(5.01675e-07 -3.03637e-05 0)
(1.23e-06 -3.03597e-05 0)
(1.24091e-07 -3.03821e-05 0)
(-1.22609e-06 -3.03423e-05 0)
(-6.16876e-07 -3.0371e-05 0)
(5.46016e-07 -0.000235738 0)
(1.32767e-06 -0.000236662 0)
(1.29015e-07 -0.000237799 0)
(-1.32484e-06 -0.000236754 0)
(-6.67279e-07 -0.00023572 0)
(5.54321e-07 -0.000706369 0)
(1.3462e-06 -0.000705961 0)
(1.29842e-07 -0.000705531 0)
(-1.34353e-06 -0.000705914 0)
(-6.76573e-07 -0.000706382 0)
(5.44825e-07 -0.00163181 0)
(1.31939e-06 -0.00163116 0)
(1.25486e-07 -0.0016304 0)
(-1.31578e-06 -0.0016311 0)
(-6.61597e-07 -0.00163183 0)
(5.19775e-07 -0.000977344 0)
(1.25974e-06 -0.00097755 0)
(1.19816e-07 -0.000977788 0)
(-1.25494e-06 -0.000977567 0)
(-6.29545e-07 -0.000977341 0)
(4.95505e-07 -0.000909005 0)
(1.20164e-06 -0.000909126 0)
(1.14299e-07 -0.000909301 0)
(-1.19572e-06 -0.000909137 0)
(-5.98522e-07 -0.000909004 0)
(4.72714e-07 -0.000925391 0)
(1.1468e-06 -0.000925424 0)
(1.09021e-07 -0.000925506 0)
(-1.13983e-06 -0.000925425 0)
(-5.6933e-07 -0.000925393 0)
(4.50826e-07 -0.000943735 0)
(1.09416e-06 -0.00094373 0)
(1.03938e-07 -0.000943769 0)
(-1.08623e-06 -0.000943726 0)
(-5.41335e-07 -0.000943737 0)
(4.29451e-07 -0.000947306 0)
(1.0429e-06 -0.000947288 0)
(9.90125e-08 -0.00094731 0)
(-1.03407e-06 -0.000947281 0)
(-5.14102e-07 -0.000947309 0)
(4.08565e-07 -0.00094647 0)
(9.92917e-07 -0.000946438 0)
(9.42371e-08 -0.000946447 0)
(-9.83262e-07 -0.000946429 0)
(-4.87593e-07 -0.000946474 0)
(3.88203e-07 -0.000945753 0)
(9.44275e-07 -0.000945705 0)
(8.96116e-08 -0.0009457 0)
(-9.33848e-07 -0.000945694 0)
(-4.6184e-07 -0.000945758 0)
(3.6838e-07 -0.000945619 0)
(8.96993e-07 -0.000945555 0)
(8.51353e-08 -0.000945534 0)
(-8.85854e-07 -0.000945541 0)
(-4.36856e-07 -0.000945624 0)
(3.49095e-07 -0.000945667 0)
(8.51066e-07 -0.000945588 0)
(8.0806e-08 -0.000945552 0)
(-8.39273e-07 -0.000945572 0)
(-4.12634e-07 -0.000945673 0)
(3.30344e-07 -0.000945709 0)
(8.0648e-07 -0.000945615 0)
(7.66215e-08 -0.000945565 0)
(-7.94091e-07 -0.000945597 0)
(-3.89165e-07 -0.000945715 0)
(3.12124e-07 -0.000945726 0)
(7.63224e-07 -0.000945619 0)
(7.25793e-08 -0.000945555 0)
(-7.50294e-07 -0.000945598 0)
(-3.6644e-07 -0.000945733 0)
(2.94434e-07 -0.000945736 0)
(7.21288e-07 -0.000945615 0)
(6.8677e-08 -0.000945539 0)
(-7.0787e-07 -0.000945592 0)
(-3.44453e-07 -0.000945743 0)
(2.77271e-07 -0.000945745 0)
(6.80658e-07 -0.000945611 0)
(6.49122e-08 -0.000945523 0)
(-6.66805e-07 -0.000945587 0)
(-3.23195e-07 -0.000945752 0)
(2.60632e-07 -0.000945754 0)
(6.41325e-07 -0.000945609 0)
(6.12825e-08 -0.000945509 0)
(-6.27086e-07 -0.000945582 0)
(-3.0266e-07 -0.000945762 0)
(2.44515e-07 -0.000945764 0)
(6.03275e-07 -0.000945607 0)
(5.77854e-08 -0.000945495 0)
(-5.887e-07 -0.000945579 0)
(-2.82837e-07 -0.000945772 0)
(2.28917e-07 -0.000945773 0)
(5.66496e-07 -0.000945605 0)
(5.44184e-08 -0.000945483 0)
(-5.51631e-07 -0.000945575 0)
(-2.6372e-07 -0.000945781 0)
(2.13833e-07 -0.000945781 0)
(5.30973e-07 -0.000945603 0)
(5.11791e-08 -0.000945471 0)
(-5.15864e-07 -0.000945572 0)
(-2.45299e-07 -0.00094579 0)
(1.9926e-07 -0.000945789 0)
(4.96693e-07 -0.000945601 0)
(4.80648e-08 -0.00094546 0)
(-4.81383e-07 -0.000945569 0)
(-2.27564e-07 -0.000945798 0)
(1.85194e-07 -0.000945797 0)
(4.63642e-07 -0.0009456 0)
(4.50731e-08 -0.000945449 0)
(-4.48172e-07 -0.000945566 0)
(-2.10507e-07 -0.000945806 0)
(1.7163e-07 -0.000945804 0)
(4.31803e-07 -0.000945598 0)
(4.22014e-08 -0.000945439 0)
(-4.16214e-07 -0.000945563 0)
(-1.94118e-07 -0.000945813 0)
(1.58565e-07 -0.000945811 0)
(4.01162e-07 -0.000945597 0)
(3.9447e-08 -0.00094543 0)
(-3.85493e-07 -0.00094556 0)
(-1.78386e-07 -0.00094582 0)
(1.45992e-07 -0.000945817 0)
(3.71703e-07 -0.000945595 0)
(3.68075e-08 -0.000945421 0)
(-3.55989e-07 -0.000945558 0)
(-1.63303e-07 -0.000945826 0)
(1.33907e-07 -0.000945823 0)
(3.43408e-07 -0.000945594 0)
(3.42802e-08 -0.000945413 0)
(-3.27685e-07 -0.000945556 0)
(-1.48858e-07 -0.000945832 0)
(1.22304e-07 -0.000945828 0)
(3.16261e-07 -0.000945593 0)
(3.18625e-08 -0.000945405 0)
(-3.00563e-07 -0.000945554 0)
(-1.35039e-07 -0.000945837 0)
(1.11178e-07 -0.000945833 0)
(2.90244e-07 -0.000945592 0)
(2.95518e-08 -0.000945398 0)
(-2.74602e-07 -0.000945552 0)
(-1.21837e-07 -0.000945842 0)
(1.00523e-07 -0.000945838 0)
(2.6534e-07 -0.000945591 0)
(2.73455e-08 -0.000945392 0)
(-2.49784e-07 -0.00094555 0)
(-1.0924e-07 -0.000945847 0)
(9.03322e-08 -0.000945842 0)
(2.4153e-07 -0.00094559 0)
(2.5241e-08 -0.000945386 0)
(-2.26088e-07 -0.000945548 0)
(-9.72376e-08 -0.000945851 0)
(8.05991e-08 -0.000945846 0)
(2.18795e-07 -0.00094559 0)
(2.32357e-08 -0.00094538 0)
(-2.03494e-07 -0.000945547 0)
(-8.58177e-08 -0.000945855 0)
(7.1317e-08 -0.00094585 0)
(1.97115e-07 -0.000945589 0)
(2.1327e-08 -0.000945375 0)
(-1.81981e-07 -0.000945546 0)
(-7.49691e-08 -0.000945858 0)
(6.24789e-08 -0.000945853 0)
(1.76472e-07 -0.000945588 0)
(1.95123e-08 -0.00094537 0)
(-1.61527e-07 -0.000945544 0)
(-6.46798e-08 -0.000945861 0)
(5.40775e-08 -0.000945856 0)
(1.56845e-07 -0.000945588 0)
(1.77891e-08 -0.000945366 0)
(-1.42111e-07 -0.000945543 0)
(-5.4938e-08 -0.000945864 0)
(4.61052e-08 -0.000945858 0)
(1.38213e-07 -0.000945587 0)
(1.61547e-08 -0.000945363 0)
(-1.23711e-07 -0.000945543 0)
(-4.57315e-08 -0.000945866 0)
(3.85542e-08 -0.000945861 0)
(1.20556e-07 -0.000945587 0)
(1.46067e-08 -0.00094536 0)
(-1.06305e-07 -0.000945542 0)
(-3.7048e-08 -0.000945868 0)
(3.14164e-08 -0.000945862 0)
(1.03852e-07 -0.000945587 0)
(1.31424e-08 -0.000945357 0)
(-8.9869e-08 -0.000945541 0)
(-2.88749e-08 -0.00094587 0)
(2.46836e-08 -0.000945864 0)
(8.80794e-08 -0.000945586 0)
(1.17594e-08 -0.000945354 0)
(-7.43806e-08 -0.000945541 0)
(-2.11996e-08 -0.000945872 0)
(1.83471e-08 -0.000945866 0)
(7.32167e-08 -0.000945586 0)
(1.04552e-08 -0.000945352 0)
(-5.98161e-08 -0.00094554 0)
(-1.40093e-08 -0.000945873 0)
(1.23983e-08 -0.000945867 0)
(5.92413e-08 -0.000945586 0)
(9.22724e-09 -0.000945351 0)
(-4.61518e-08 -0.00094554 0)
(-7.29093e-09 -0.000945874 0)
(6.82794e-09 -0.000945867 0)
(4.61304e-08 -0.000945586 0)
(8.07312e-09 -0.00094535 0)
(-3.33635e-08 -0.00094554 0)
(-1.03144e-09 -0.000945874 0)
(1.62687e-09 -0.000945868 0)
(3.38609e-08 -0.000945586 0)
(6.99038e-09 -0.000945349 0)
(-2.14267e-08 -0.00094554 0)
(4.78251e-09 -0.000945875 0)
(-3.21444e-09 -0.000945868 0)
(2.24094e-08 -0.000945586 0)
(5.97662e-09 -0.000945348 0)
(-1.03168e-08 -0.00094554 0)
(1.01644e-08 -0.000945875 0)
(-7.70573e-09 -0.000945869 0)
(1.17522e-08 -0.000945587 0)
(5.02945e-09 -0.000945348 0)
(-8.53337e-12 -0.00094554 0)
(1.51277e-08 -0.000945875 0)
(-1.1857e-08 -0.000945869 0)
(1.86528e-09 -0.000945587 0)
(4.1465e-09 -0.000945348 0)
(9.52332e-09 -0.00094554 0)
(1.96862e-08 -0.000945874 0)
(-1.56784e-08 -0.000945868 0)
(-7.27582e-09 -0.000945587 0)
(3.32543e-09 -0.000945348 0)
(1.83044e-08 -0.00094554 0)
(2.38538e-08 -0.000945874 0)
(-1.91803e-08 -0.000945868 0)
(-1.56957e-08 -0.000945587 0)
(2.56394e-09 -0.000945348 0)
(2.63607e-08 -0.000945541 0)
(2.76446e-08 -0.000945873 0)
(-2.23735e-08 -0.000945867 0)
(-2.34195e-08 -0.000945588 0)
(1.85974e-09 -0.000945349 0)
(3.37183e-08 -0.000945541 0)
(3.10725e-08 -0.000945872 0)
(-2.52688e-08 -0.000945867 0)
(-3.04723e-08 -0.000945588 0)
(1.21057e-09 -0.00094535 0)
(4.04036e-08 -0.000945542 0)
(3.4152e-08 -0.000945871 0)
(-2.78773e-08 -0.000945866 0)
(-3.68798e-08 -0.000945588 0)
(6.14194e-10 -0.000945351 0)
(4.64435e-08 -0.000945542 0)
(3.68975e-08 -0.00094587 0)
(-3.02102e-08 -0.000945865 0)
(-4.26679e-08 -0.000945589 0)
(6.84147e-11 -0.000945353 0)
(5.18649e-08 -0.000945543 0)
(3.93236e-08 -0.000945868 0)
(-3.22792e-08 -0.000945863 0)
(-4.78627e-08 -0.000945589 0)
(-4.28954e-10 -0.000945354 0)
(5.66951e-08 -0.000945543 0)
(4.14449e-08 -0.000945867 0)
(-3.4096e-08 -0.000945862 0)
(-5.24907e-08 -0.00094559 0)
(-8.80071e-10 -0.000945356 0)
(6.09616e-08 -0.000945544 0)
(4.32763e-08 -0.000945865 0)
(-3.56726e-08 -0.000945861 0)
(-5.65788e-08 -0.00094559 0)
(-1.28708e-09 -0.000945358 0)
(6.46921e-08 -0.000945545 0)
(4.4833e-08 -0.000945864 0)
(-3.70212e-08 -0.000945859 0)
(-6.01539e-08 -0.000945591 0)
(-1.65208e-09 -0.00094536 0)
(6.79149e-08 -0.000945546 0)
(4.613e-08 -0.000945862 0)
(-3.81542e-08 -0.000945857 0)
(-6.32435e-08 -0.000945592 0)
(-1.9772e-09 -0.000945362 0)
(7.06582e-08 -0.000945546 0)
(4.71828e-08 -0.00094586 0)
(-3.90843e-08 -0.000945856 0)
(-6.58753e-08 -0.000945592 0)
(-2.26451e-09 -0.000945364 0)
(7.29507e-08 -0.000945547 0)
(4.80069e-08 -0.000945858 0)
(-3.98245e-08 -0.000945854 0)
(-6.80773e-08 -0.000945593 0)
(-2.51608e-09 -0.000945367 0)
(7.48214e-08 -0.000945548 0)
(4.8618e-08 -0.000945856 0)
(-4.03878e-08 -0.000945852 0)
(-6.9878e-08 -0.000945593 0)
(-2.73399e-09 -0.000945369 0)
(7.62997e-08 -0.000945549 0)
(4.90321e-08 -0.000945854 0)
(-4.07878e-08 -0.00094585 0)
(-7.13061e-08 -0.000945594 0)
(-2.9203e-09 -0.000945372 0)
(7.7415e-08 -0.00094555 0)
(4.92654e-08 -0.000945852 0)
(-4.1038e-08 -0.000945848 0)
(-7.23908e-08 -0.000945595 0)
(-3.07708e-09 -0.000945374 0)
(7.81976e-08 -0.000945551 0)
(4.93343e-08 -0.000945849 0)
(-4.11526e-08 -0.000945846 0)
(-7.31615e-08 -0.000945595 0)
(-3.2064e-09 -0.000945377 0)
(7.86778e-08 -0.000945552 0)
(4.92554e-08 -0.000945847 0)
(-4.11456e-08 -0.000945844 0)
(-7.36482e-08 -0.000945596 0)
(-3.31036e-09 -0.00094538 0)
(7.88864e-08 -0.000945553 0)
(4.90458e-08 -0.000945845 0)
(-4.10316e-08 -0.000945842 0)
(-7.38814e-08 -0.000945597 0)
(-3.39106e-09 -0.000945383 0)
(7.88547e-08 -0.000945553 0)
(4.87227e-08 -0.000945843 0)
(-4.08257e-08 -0.00094584 0)
(-7.3892e-08 -0.000945597 0)
(-3.45064e-09 -0.000945385 0)
(7.86147e-08 -0.000945554 0)
(4.83039e-08 -0.00094584 0)
(-4.05429e-08 -0.000945838 0)
(-7.37115e-08 -0.000945598 0)
(-3.4913e-09 -0.000945388 0)
(7.81986e-08 -0.000945555 0)
(4.78074e-08 -0.000945838 0)
(-4.01988e-08 -0.000945836 0)
(-7.3372e-08 -0.000945599 0)
(-3.51525e-09 -0.000945391 0)
(7.76395e-08 -0.000945556 0)
(4.72516e-08 -0.000945836 0)
(-3.98096e-08 -0.000945834 0)
(-7.29063e-08 -0.0009456 0)
(-3.52479e-09 -0.000945394 0)
(7.6971e-08 -0.000945557 0)
(4.66557e-08 -0.000945833 0)
(-3.93915e-08 -0.000945832 0)
(-7.23477e-08 -0.0009456 0)
(-3.52229e-09 -0.000945397 0)
(7.62276e-08 -0.000945558 0)
(4.60391e-08 -0.000945831 0)
(-3.89616e-08 -0.000945829 0)
(-7.17306e-08 -0.000945601 0)
(-3.5102e-09 -0.000945399 0)
(7.54446e-08 -0.000945559 0)
(4.54219e-08 -0.000945829 0)
(-3.85373e-08 -0.000945827 0)
(-7.10901e-08 -0.000945602 0)
(-3.49108e-09 -0.000945402 0)
(7.46581e-08 -0.00094556 0)
(4.48251e-08 -0.000945826 0)
(-3.81365e-08 -0.000945825 0)
(-7.0462e-08 -0.000945602 0)
(-3.46762e-09 -0.000945405 0)
(7.39051e-08 -0.000945561 0)
(4.42701e-08 -0.000945824 0)
(-3.77776e-08 -0.000945823 0)
(-6.98835e-08 -0.000945603 0)
(-3.44263e-09 -0.000945408 0)
(7.32241e-08 -0.000945562 0)
(4.37793e-08 -0.000945822 0)
(-3.74811e-08 -0.000945821 0)
(-6.93948e-08 -0.000945604 0)
(-3.41919e-09 -0.000945411 0)
(7.26565e-08 -0.000945563 0)
(4.33772e-08 -0.000945819 0)
(-3.72701e-08 -0.000945818 0)
(-6.90412e-08 -0.000945604 0)
(-3.40079e-09 -0.000945414 0)
(7.22492e-08 -0.000945564 0)
(4.30922e-08 -0.000945817 0)
(-3.7167e-08 -0.000945817 0)
(-6.88665e-08 -0.000945605 0)
(-3.39096e-09 -0.000945416 0)
(7.20478e-08 -0.000945565 0)
(4.29516e-08 -0.000945815 0)
)
;

boundaryField
{
    BotWall
    {
        type            fixedValue;
        value           uniform (0 0 0);
    }
    FreeStream
    {
        type            zeroGradient;
    }
    FrontNBack
    {
        type            empty;
    }
    LeftSide
    {
        type            symmetryPlane;
    }
    RightSide
    {
        type            symmetryPlane;
    }
}


// ************************************************************************* //
