/*--------------------------------*- C++ -*----------------------------------*\
| =========                 |                                                 |
| \\      /  F ield         | OpenFOAM: The Open Source CFD Toolbox           |
|  \\    /   O peration     | Version:  2.4.0                                 |
|   \\  /    A nd           | Web:      www.OpenFOAM.org                      |
|    \\/     M anipulation  |                                                 |
\*---------------------------------------------------------------------------*/
FoamFile
{
    version     2.0;
    format      ascii;
    class       volScalarField;
    location    "4.4";
    object      alpha1;
}
// * * * * * * * * * * * * * * * * * * * * * * * * * * * * * * * * * * * * * //

dimensions      [0 0 0 0 0 0 0];

internalField   nonuniform List<scalar> 
8000
(
1
1
1
1
1
1
1
1
1
0.999999
0.999999
0.999998
0.999797
0.988718
0.185885
0.00498035
0.00301648
5.74149e-05
1.97023e-05
7.25752e-06
5.14522e-06
5.14361e-06
5.14596e-06
1.04269e-05
2.92268e-05
3.3298e-05
1.86992e-05
9.70372e-06
9.70343e-06
9.70539e-06
1.53611e-05
2.31811e-05
8.74986e-06
2.44621e-05
2.8253e-05
8.31554e-06
3.85793e-06
3.85686e-06
8.60423e-06
3.29448e-05
4.0139e-05
3.36508e-05
7.99422e-06
6.90493e-06
1.91457e-05
3.19815e-05
3.20844e-05
2.12842e-05
1.88636e-06
5.304e-07
1
1
1
1
1
1
1
1
0.999999
0.999998
0.999999
0.999071
0.443883
0.00749658
0.00294282
7.64535e-05
3.0982e-05
6.97983e-06
5.14432e-06
5.14262e-06
5.14263e-06
5.1433e-06
5.96974e-06
1.80286e-05
3.3298e-05
3.32968e-05
2.65581e-05
9.70344e-06
9.70343e-06
9.70546e-06
1.59628e-05
2.31345e-05
8.80219e-06
1.76394e-05
2.82881e-05
2.52456e-05
6.81996e-06
3.85656e-06
3.85673e-06
6.71859e-06
2.78265e-05
3.50502e-05
1.73278e-05
6.8619e-06
6.90383e-06
1.30818e-05
3.04173e-05
3.00415e-05
1.08231e-05
4.88264e-06
1
1
1
1
1
1
1
0.999999
0.999997
0.999998
0.971546
0.0968318
0.000405714
0.00018999
8.14546e-05
3.46816e-05
5.15362e-06
5.14661e-06
5.1417e-06
5.1417e-06
7.04812e-06
1.09864e-05
1.1568e-05
1.37739e-05
2.16268e-05
2.87335e-05
3.14137e-05
2.58881e-05
1.84065e-05
1.05711e-05
1.05892e-05
1.47813e-05
2.1445e-05
1.76073e-05
1.43083e-05
1.75473e-05
2.19272e-05
2.18791e-05
1.23273e-05
4.55367e-06
4.54313e-06
7.69177e-06
9.9768e-06
1.51496e-05
2.46652e-05
2.46406e-05
2.44453e-05
9.17969e-06
5.0961e-06
5.57278e-06
1
1
1
1
1
1
1
0.999999
0.999999
0.999161
0.296246
0.000797585
0.000650532
0.000394076
5.7198e-05
5.72203e-05
4.08615e-05
1.94092e-05
8.60644e-06
5.14416e-06
5.14478e-06
5.14806e-06
6.20351e-06
8.11996e-06
1.63526e-05
2.8671e-05
2.79406e-05
1.58261e-05
7.92754e-06
1.39002e-05
2.9042e-05
3.34421e-05
3.05751e-05
1.9981e-05
1.42643e-05
1.25483e-05
1.39525e-05
1.876e-05
2.04849e-05
2.03454e-05
1.29664e-05
1.02921e-05
9.72118e-06
9.32576e-06
1.05554e-05
1.17789e-05
1.47314e-05
1.83438e-05
1.81542e-05
9.07805e-06
1
1
1
1
1
1
1
1
0.999999
0.999978
0.999875
0.257029
0.0380234
0.0187429
0.000974466
0.00101205
4.19879e-05
4.70832e-05
2.89373e-05
6.59786e-06
5.14594e-06
5.14594e-06
5.14627e-06
5.14727e-06
6.52697e-06
1.92423e-05
1.01619e-05
7.73919e-06
7.73344e-06
7.73164e-06
1.64103e-05
3.35812e-05
3.01471e-05
1.33646e-05
9.22184e-06
1.24479e-05
1.39009e-05
1.12318e-05
9.21895e-06
9.45706e-06
2.56066e-05
2.69944e-05
2.6965e-05
9.4537e-06
9.18186e-06
2.1348e-05
2.37586e-05
1.6243e-05
9.08659e-06
7.68213e-06
1
1
1
1
1
1
1
1
1
0.999999
0.999989
0.999774
0.999661
0.833209
0.0330326
0.065719
0.0079194
0.0101415
8.25607e-06
5.64736e-06
5.14795e-06
5.21324e-06
5.4102e-06
5.71278e-06
1.29596e-05
1.85508e-05
1.42777e-05
8.01975e-06
7.73037e-06
7.72652e-06
7.72198e-06
9.10638e-06
3.18661e-05
1.7949e-05
9.2118e-06
9.21479e-06
9.20876e-06
9.20096e-06
9.19381e-06
9.20064e-06
3.44506e-05
2.33055e-05
9.61293e-06
5.39023e-06
5.39822e-06
5.40966e-06
2.03e-05
2.86342e-05
2.87408e-05
1.68518e-05
1
1
1
1
1
1
1
1
1
1
0.999998
0.999999
0.999999
0.999997
0.999861
1
0.969509
0.954598
0.547788
0.167352
0.0357588
0.00821134
0.00395999
0.00232602
0.00137739
0.000792571
0.000456173
0.000310226
0.000229648
0.000174039
0.000121261
8.09217e-05
8.50274e-05
9.31762e-05
6.20936e-05
2.21328e-05
9.19878e-06
9.19149e-06
9.19634e-06
9.19343e-06
4.83199e-05
2.86626e-05
7.19073e-06
5.38162e-06
5.38743e-06
5.39797e-06
5.40792e-06
8.59817e-06
2.77949e-05
2.84059e-05
1
1
1
1
1
1
1
1
1
1
1
1
1
0.999999
0.999999
0.999998
1
1
1
1
0.999999
0.999096
0.968846
0.728579
0.4738
0.209673
0.0649377
0.0184192
0.0105601
0.00646089
0.00525033
0.00426021
0.00236261
0.00106983
0.00045415
0.000201921
8.59061e-05
6.86797e-05
0.000159809
0.000114018
5.71863e-05
2.1565e-05
5.38038e-06
5.37844e-06
5.47528e-06
5.49967e-06
5.41901e-06
5.41966e-06
5.42278e-06
9.94269e-06
1
1
1
1
1
1
1
1
1
1
1
1
1
1
1
1
1
1
0.999999
0.999999
1
0.999999
1
1
0.999981
0.999899
0.99957
0.995774
0.927677
0.532473
0.15196
0.0305304
0.0282034
0.0181572
0.0095708
0.00477416
0.00222806
0.00107368
0.000567285
0.000340555
0.000221359
0.000143176
8.78297e-05
5.37387e-05
3.55978e-05
2.52445e-05
1.66681e-05
7.62074e-06
5.42638e-06
5.42411e-06
1
1
1
1
1
1
1
1
1
1
1
1
1
1
1
1
1
1
1
1
1
1
1
1
0.999999
0.999997
0.999997
0.999998
0.999998
0.999951
0.999765
0.973254
0.942933
0.616526
0.208465
0.0468578
0.0359994
0.0206025
0.00913177
0.00377816
0.00173654
0.00089437
0.000495037
0.000284104
0.000165284
9.67083e-05
5.8364e-05
3.78758e-05
2.7908e-05
2.32474e-05
1
1
1
1
1
1
1
1
1
1
1
1
1
1
1
1
1
1
1
1
1
1
1
1
0.999999
0.999999
0.999997
0.999996
0.999994
0.999994
0.999998
1
1
0.999974
0.999831
0.959601
0.937501
0.63744
0.212168
0.051906
0.0316037
0.0148848
0.00585639
0.00217275
0.000851523
0.000367675
0.000181635
9.61605e-05
5.35423e-05
3.11101e-05
1
1
1
1
1
1
1
1
1
1
1
1
1
1
1
1
1
1
1
1
1
1
1
1
1
0.999999
0.999999
0.999998
0.999997
0.999996
0.999996
0.999996
0.999996
0.999997
0.999999
1
1
0.99998
0.993259
0.953628
0.858102
0.34945
0.0754204
0.0350221
0.012274
0.00374645
0.00138398
0.000600843
0.000263582
0.000118787
1
1
1
1
1
1
1
1
1
1
1
1
1
1
1
1
1
1
1
1
1
1
1
1
1
0.999999
0.999999
0.999999
0.999998
0.999998
0.999998
0.999997
0.999997
0.999997
0.999998
0.999998
0.999999
0.999999
1
1
0.999998
0.999938
0.959439
0.836708
0.289343
0.0705216
0.0291327
0.00848158
0.00290016
0.00113708
1
1
1
1
1
1
1
1
1
1
1
1
1
1
1
1
1
1
1
1
1
1
1
1
1
1
0.999999
0.999999
0.999999
0.999999
0.999999
0.999999
0.999999
0.999999
0.999999
0.999999
0.999999
0.999999
1
1
1
1
1
0.999999
0.999973
0.942707
0.601382
0.216508
0.0798602
0.0251622
1
1
1
1
1
1
1
1
1
1
1
1
1
1
1
1
1
1
1
1
1
1
1
1
1
1
1
1
1
1
1
1
1
1
1
1
1
1
1
1
1
1
1
0.999999
0.999999
1
0.999998
0.948503
0.727843
0.371241
1
1
1
1
1
1
1
1
1
1
1
1
1
1
1
1
1
1
1
1
1
1
1
1
1
1
1
1
1
1
1
1
1
1
1
1
1
1
1
1
0.999999
0.999999
0.999999
0.999997
0.999994
0.999993
0.999987
1
1
0.937831
1
1
1
1
1
1
1
1
1
1
1
1
1
1
1
1
1
1
1
1
1
1
1
1
1
1
1
1
1
1
1
1
1
1
1
1
1
1
1
1
0.999999
0.999999
0.999998
0.999995
0.999988
0.999981
0.999922
0.999852
0.999973
1
1
1
1
1
1
1
1
1
1
1
1
1
1
1
1
1
1
1
1
1
1
1
1
1
1
1
1
1
1
1
1
1
1
1
1
1
1
1
1
1
1
0.999999
0.999999
0.999997
0.999991
0.999983
0.999846
0.999553
0.999801
0.999981
1
1
1
1
1
1
1
1
1
1
1
1
1
1
1
1
1
1
1
1
1
1
1
1
1
1
1
1
1
1
1
1
1
1
1
1
1
1
1
1
1
1
0.999999
0.999998
0.999994
0.999988
0.999843
0.999553
0.999739
1
1
1
1
1
1
1
1
1
1
1
1
1
1
1
1
1
1
1
1
1
1
1
1
1
1
1
1
1
1
1
1
1
1
1
1
1
1
1
1
1
1
1
1
0.999999
0.999998
0.999995
0.999987
0.999767
0.999901
1
5.30098e-07
6.09951e-07
1.09386e-06
2.0627e-06
1.25217e-05
3.66528e-05
3.94761e-05
3.58313e-05
5.59266e-06
7.8207e-07
7.97774e-07
2.76489e-06
1.68716e-05
2.70939e-05
2.68447e-05
1.52949e-05
1.31515e-06
1.20117e-06
1.66421e-06
1.17426e-05
2.15319e-05
2.17507e-05
1.47376e-05
1.84645e-06
1.69869e-06
1.69956e-06
2.59565e-06
1.67016e-05
3.50169e-05
3.48997e-05
1.11361e-05
1.07208e-06
3.17312e-06
2.40665e-05
5.3717e-05
5.72084e-05
1.66017e-05
9.37673e-07
9.35997e-07
9.37186e-07
2.11257e-06
2.04194e-05
5.40999e-05
5.44523e-05
4.83364e-05
6.47375e-06
8.32446e-07
3.91768e-07
3.95057e-07
1.49053e-06
1.99799e-05
2.58231e-05
5.40842e-06
1.10985e-06
1.10382e-06
5.11157e-06
1.62351e-05
2.47416e-05
6.95447e-06
3.11616e-05
3.72787e-05
3.57679e-05
8.0136e-06
1.25473e-06
1.2392e-06
1.39669e-06
9.94162e-06
2.86457e-05
3.11088e-05
2.38389e-05
3.85603e-06
3.38058e-06
3.38476e-06
1.08698e-05
2.23702e-05
2.65366e-05
6.22925e-06
2.99439e-06
4.25957e-06
2.26964e-05
3.67731e-05
1.20533e-05
2.68778e-06
2.40551e-05
5.71223e-05
5.71899e-05
3.51347e-05
2.76422e-06
9.38219e-07
9.35917e-07
9.35639e-07
9.38737e-07
4.05876e-06
2.86613e-05
5.41179e-05
5.39615e-05
2.88613e-05
2.02919e-06
1.36137e-06
1.93639e-05
2.04343e-05
2.58158e-05
2.14505e-05
6.20584e-06
1.88292e-05
2.09301e-05
1.38223e-05
2.09854e-06
2.08422e-06
4.27632e-06
2.30091e-05
3.75487e-05
3.75452e-05
1.55438e-05
1.37886e-06
1.31882e-06
3.18388e-06
1.89561e-05
3.11112e-05
3.11095e-05
1.56343e-05
3.3806e-06
3.38058e-06
3.3948e-06
1.3273e-05
2.63899e-05
1.31826e-05
3.22712e-06
2.15394e-05
3.67727e-05
3.69677e-05
1.78301e-05
1.30877e-06
1.35939e-06
2.48431e-06
2.32725e-05
5.69647e-05
5.6961e-05
4.86418e-05
6.55514e-06
1.02524e-06
9.42181e-07
5.85358e-06
1.68233e-05
2.40478e-05
1.97443e-06
2.00396e-06
1.26877e-05
5.75691e-05
7.26652e-05
7.68432e-06
1.03674e-05
1.90077e-05
1.89735e-05
1.52262e-05
9.25328e-06
2.19802e-05
2.21763e-05
1.97997e-05
3.93777e-06
3.12645e-06
4.07227e-06
1.19464e-05
2.7403e-05
2.73876e-05
2.3949e-05
6.80063e-06
7.35584e-06
2.55503e-05
3.11097e-05
2.32245e-05
4.03546e-06
3.38271e-06
8.50718e-06
2.50427e-05
2.65342e-05
1.97363e-05
3.19843e-06
3.23565e-06
8.30407e-06
2.99906e-05
3.2388e-05
1.99616e-05
2.03107e-06
2.1018e-06
9.43907e-06
4.36379e-05
5.69618e-05
4.35007e-05
4.70288e-06
9.46507e-07
9.50228e-07
7.93813e-06
3.46551e-05
4.5037e-05
4.46875e-05
1.3548e-05
2.88865e-06
2.85226e-06
1.51214e-05
7.66446e-06
1.6876e-05
1.9425e-05
1.75254e-05
8.67936e-06
7.86364e-06
1.11335e-05
1.80587e-05
2.64966e-05
2.30995e-05
1.33832e-05
4.41638e-06
8.52975e-06
1.4583e-05
2.20208e-05
1.42179e-05
1.06401e-05
1.31736e-05
2.40278e-05
1.88094e-05
1.16679e-05
1.03778e-05
2.15004e-05
2.55357e-05
2.55317e-05
9.16861e-06
9.14682e-06
1.12733e-05
2.81365e-05
2.8171e-05
2.13068e-05
9.62919e-06
9.71876e-06
2.67276e-05
2.99965e-05
2.44481e-05
5.10734e-06
3.76547e-06
3.79319e-06
8.40773e-06
2.71798e-05
3.77336e-05
3.77511e-05
2.87511e-05
6.18692e-06
5.14807e-06
5.14948e-06
8.3511e-06
3.15256e-05
4.31692e-05
7.68387e-06
1.7911e-05
1.94275e-05
1.29847e-05
7.86469e-06
7.8617e-06
1.33355e-05
2.64992e-05
2.64747e-05
2.18072e-05
1.03112e-05
1.02179e-05
2.89185e-05
2.4917e-05
1.21565e-05
8.83847e-06
8.83611e-06
1.18851e-05
2.56032e-05
2.55655e-05
1.86196e-05
7.86725e-06
7.84673e-06
1.50675e-05
2.60612e-05
2.60659e-05
1.36291e-05
6.12958e-06
6.12412e-06
1.00196e-05
3.22203e-05
3.30321e-05
2.42136e-05
8.26669e-06
8.28414e-06
2.32858e-05
3.07718e-05
3.08093e-05
1.13785e-05
6.16683e-06
7.84974e-06
3.25868e-05
3.77329e-05
2.10985e-05
5.2361e-06
5.14769e-06
5.1477e-06
2.5565e-05
4.31694e-05
4.3257e-05
2.18937e-05
1.04844e-05
1.04621e-05
1.04754e-05
2.3818e-05
2.42554e-05
2.43633e-05
1.27365e-05
2.82609e-06
3.17118e-06
1.05278e-05
2.88385e-05
2.89172e-05
2.8915e-05
1.50349e-05
8.83597e-06
2.00762e-05
2.08194e-05
1.52688e-05
1.19645e-05
1.20177e-05
2.26391e-05
2.6108e-05
2.56263e-05
1.34324e-05
1.33608e-05
2.09643e-05
1.70798e-05
8.924e-06
7.21152e-06
7.22638e-06
2.70254e-05
3.38831e-05
3.37769e-05
1.98212e-05
7.74023e-06
7.73477e-06
7.73738e-06
8.04385e-06
2.5905e-05
2.94934e-05
2.97463e-05
1.26146e-05
1.05025e-05
1.02963e-05
2.66967e-05
2.73782e-05
2.73963e-05
1.21916e-05
3.20742e-06
2.66979e-05
2.6975e-05
2.66498e-05
2.69734e-05
2.6917e-05
1.73391e-05
4.83333e-06
2.31014e-06
2.3226e-06
2.31929e-06
2.32685e-06
3.17386e-06
9.3202e-06
2.85972e-05
2.89035e-05
2.6932e-05
1.71595e-05
1.72276e-05
2.16771e-05
2.4468e-05
2.44662e-05
1.40782e-05
3.58326e-06
8.43201e-06
2.49583e-05
2.51866e-05
2.35665e-05
8.37418e-06
7.21224e-06
7.18536e-06
2.64035e-05
3.23444e-05
2.98869e-05
1.23181e-05
1.20218e-05
2.06628e-05
2.78636e-05
2.77507e-05
1.93062e-05
8.74235e-06
8.72171e-06
1.12802e-05
3.01425e-05
3.03355e-05
2.69515e-05
8.06254e-06
6.82047e-06
1.83057e-05
3.3781e-05
3.37776e-05
1.39027e-05
2.6924e-05
2.18131e-05
9.56679e-06
4.11595e-06
2.33056e-06
2.31226e-06
2.32093e-06
2.31841e-06
2.31853e-06
2.31913e-06
2.32497e-06
2.66382e-06
1.98754e-05
2.89081e-05
1.68215e-05
2.00216e-05
2.44667e-05
2.44674e-05
2.44672e-05
2.44676e-05
1.81396e-05
4.03703e-06
2.33929e-06
2.34152e-06
2.71107e-06
4.31175e-06
2.2441e-05
2.73211e-05
2.66517e-05
1.44054e-05
1.43958e-05
1.46151e-05
2.81293e-05
2.81163e-05
2.81257e-05
1.49185e-05
9.53416e-06
9.49819e-06
1.78884e-05
3.01448e-05
3.03661e-05
3.03242e-05
1.32852e-05
6.68882e-06
6.71337e-06
1.54472e-05
3.37821e-05
3.37784e-05
3.37788e-05
1.99657e-05
1.62495e-05
1.1327e-05
6.32084e-06
2.33895e-06
2.32568e-06
2.70783e-06
2.31257e-06
2.31851e-06
2.31298e-06
3.17657e-06
1.76536e-05
2.45772e-05
2.45165e-05
1.52545e-05
2.61394e-06
2.88803e-06
1.49711e-05
2.44698e-05
1.18391e-05
3.71099e-06
2.34043e-06
2.33743e-06
2.33724e-06
2.33725e-06
2.33796e-06
2.33853e-06
2.34197e-06
6.74835e-06
2.94831e-05
3.11371e-05
3.11246e-05
2.82824e-05
9.30499e-06
2.88447e-06
1.33401e-05
2.81956e-05
2.81914e-05
2.81916e-05
1.24446e-05
3.14164e-06
3.9949e-06
2.0543e-05
3.00301e-05
3.00295e-05
3.00288e-05
2.48999e-05
7.20624e-06
1.2588e-06
9.33609e-07
1.86088e-05
1.11803e-05
6.46503e-06
3.71623e-06
2.52593e-06
2.55342e-06
3.76634e-06
1.22832e-05
7.93835e-06
3.32229e-06
3.04194e-06
3.04268e-06
9.06528e-06
5.66925e-06
2.37621e-06
2.37212e-06
2.37211e-06
4.88538e-06
3.42856e-06
2.33976e-06
2.33734e-06
2.33714e-06
2.33712e-06
2.37452e-06
8.44802e-06
2.3641e-05
2.59275e-05
2.60317e-05
2.59275e-05
2.45401e-05
1.04284e-05
3.58327e-06
1.94265e-06
1.94232e-06
2.117e-06
1.3974e-05
2.81939e-05
2.81926e-05
2.81889e-05
1.58284e-05
3.2625e-06
3.13273e-06
3.13117e-06
1.17976e-05
3.00331e-05
3.00306e-05
3.00295e-05
1.39776e-05
1.81514e-06
7.95546e-07
6.82156e-05
4.63275e-05
3.25296e-05
2.75823e-05
2.58909e-05
2.02816e-05
1.71174e-05
1.45684e-05
1.2254e-05
1.01698e-05
9.22028e-06
1.51384e-05
1.12478e-05
7.43471e-06
4.30857e-06
2.43984e-06
2.45596e-06
2.45035e-06
3.06855e-06
6.33468e-06
6.34763e-06
6.35787e-06
3.46545e-06
2.52486e-06
2.52448e-06
2.52705e-06
2.58331e-06
3.7878e-06
1.89566e-05
2.98404e-05
2.98081e-05
2.46741e-05
7.68885e-06
1.94188e-06
1.92176e-06
1.88244e-06
2.64601e-06
4.30161e-06
1.14524e-05
1.84701e-05
1.80244e-05
1.7908e-05
1.78701e-05
1.79085e-05
1.24233e-05
3.88682e-06
1.43254e-06
9.14459e-07
9.1034e-07
9.79555e-07
0.000493874
0.000261903
0.000144119
9.6006e-05
5.18023e-05
3.00467e-05
2.0505e-05
1.40843e-05
8.1951e-06
9.03821e-06
1.94781e-05
1.94975e-05
1.39573e-05
7.94415e-06
6.5515e-06
9.67969e-06
2.64319e-05
2.0629e-05
8.75958e-06
2.46409e-06
2.46002e-06
2.77732e-06
4.53654e-06
9.7182e-06
2.26903e-05
1.48123e-05
1.38332e-05
2.6228e-05
2.98394e-05
2.98093e-05
2.96654e-05
2.98062e-05
2.9839e-05
1.74252e-05
3.17217e-06
1.09693e-06
1.09449e-06
1.09445e-06
5.99568e-06
4.92759e-06
2.27543e-06
1.18325e-06
1.58566e-06
1.52118e-06
9.44306e-07
9.30511e-07
9.28439e-07
9.10213e-07
9.10277e-07
1.52338e-06
0.00614438
0.00143543
0.000469599
0.000249419
8.87367e-05
3.82851e-05
1.98948e-05
1.25584e-05
8.18028e-06
7.29034e-06
1.36734e-05
1.93259e-05
1.22793e-05
9.30431e-06
1.44717e-05
2.87971e-05
4.08513e-05
4.08425e-05
2.56875e-05
5.76637e-06
6.49255e-06
1.86778e-05
3.55056e-05
6.09776e-05
6.09317e-05
6.09752e-05
6.09271e-05
4.24885e-05
2.38154e-05
1.71854e-05
1.34528e-05
9.2057e-06
4.51446e-06
1.33503e-06
1.09652e-06
1.09531e-06
1.09521e-06
1.09723e-06
2.34773e-06
3.93888e-06
1.81081e-06
1.00215e-06
1.00053e-06
1.09764e-06
6.45383e-06
3.94056e-05
2.9484e-05
1.13838e-05
2.46004e-06
1.55287e-06
0.127512
0.0286833
0.00449838
0.000530367
5.9923e-05
1.38378e-05
5.22217e-06
4.27745e-06
4.64979e-06
7.60136e-06
9.26921e-06
1.59262e-05
2.07051e-05
2.37808e-05
3.17385e-05
4.08512e-05
4.08427e-05
4.08522e-05
3.42274e-05
1.23963e-05
1.82439e-05
4.27446e-05
6.09775e-05
6.09303e-05
5.01324e-05
1.94153e-05
1.65188e-05
1.65191e-05
2.37459e-05
2.7298e-05
2.73493e-05
2.44471e-05
1.49576e-05
8.40291e-06
3.45593e-06
2.96576e-06
5.29738e-06
8.604e-06
3.41584e-05
2.28158e-05
8.81413e-06
1.93265e-06
4.43144e-06
2.23213e-05
3.94046e-05
3.94018e-05
3.94033e-05
3.9399e-05
3.93998e-05
3.29144e-05
0.697504
0.267001
0.047284
0.00377955
9.17901e-05
5.30263e-06
3.35247e-06
3.95171e-06
1.03515e-05
1.47074e-05
1.73299e-05
2.74978e-05
3.77296e-05
3.74918e-05
3.59186e-05
4.08435e-05
3.70164e-05
2.45973e-05
2.0228e-05
2.96245e-05
3.31396e-05
4.34465e-05
3.29854e-05
2.23337e-05
1.58536e-05
1.1903e-05
2.36133e-05
3.17703e-05
1.89675e-05
1.89636e-05
2.5171e-05
2.90538e-05
2.51438e-05
2.04165e-05
1.76651e-05
2.9059e-05
4.09081e-05
4.63061e-05
4.6264e-05
3.06787e-05
2.04559e-05
1.77081e-05
1.6657e-05
1.36519e-05
1.11812e-05
1.67492e-05
3.19125e-05
2.07146e-05
9.40111e-06
8.26839e-06
0.980741
0.623204
0.12169
0.00699933
9.68505e-05
4.41558e-06
3.37784e-06
1.01593e-05
1.49927e-05
1.52176e-05
2.76347e-05
4.09418e-05
4.09238e-05
2.41201e-05
1.96968e-05
3.95886e-05
1.20355e-05
1.20688e-05
2.10137e-05
3.65235e-05
3.6445e-05
2.74436e-05
1.26589e-05
1.10684e-05
1.10568e-05
1.10718e-05
2.98084e-05
4.94668e-05
1.91901e-05
4.2264e-05
4.20945e-05
3.81302e-05
2.14899e-05
2.15837e-05
4.58125e-05
4.71715e-05
4.20637e-05
7.31485e-06
3.62438e-06
1.74923e-05
4.57894e-05
4.78109e-05
2.51005e-05
3.28504e-06
3.29514e-06
3.37021e-06
3.37279e-06
4.36031e-06
3.77255e-05
0.000128833
0.999981
0.633223
0.115844
0.00554903
5.81775e-05
3.50817e-06
4.09746e-06
1.30487e-05
1.52884e-05
1.30674e-05
3.43673e-05
4.09386e-05
1.45991e-05
5.17049e-06
1.9668e-05
2.75132e-05
9.95881e-06
4.12141e-05
4.93362e-05
2.95769e-05
5.12976e-06
4.76322e-06
2.13812e-05
2.63298e-05
1.36973e-05
1.62712e-05
4.94873e-05
5.52998e-05
4.61973e-05
8.04894e-06
4.42698e-06
3.10008e-05
5.29362e-05
5.30312e-05
2.06745e-05
1.15137e-06
8.62739e-07
9.44035e-07
3.80717e-06
1.52294e-05
3.7526e-05
4.78743e-05
9.08617e-06
3.26289e-06
4.3755e-06
1.14702e-05
1.14854e-05
4.65773e-06
1.21763e-05
2.18007e-05
0.818213
0.146476
0.00556274
4.45441e-05
3.76323e-06
2.88749e-06
4.35762e-06
1.3341e-05
1.53143e-05
5.10103e-06
2.07562e-05
3.03573e-05
4.78274e-06
4.55569e-06
1.6726e-05
2.33462e-05
9.30674e-06
3.07308e-05
4.93353e-05
1.14095e-05
4.08178e-06
4.32159e-06
1.62727e-05
2.64115e-05
1.20917e-05
9.49484e-06
3.9243e-05
5.52989e-05
1.92149e-05
3.63763e-06
3.63316e-06
3.98035e-06
1.60069e-05
3.09298e-05
5.48685e-06
1.11968e-06
2.01009e-06
1.97725e-05
5.02801e-05
5.02706e-05
4.86673e-05
1.27432e-05
3.28187e-06
3.33297e-06
1.12071e-05
1.14853e-05
4.43538e-06
6.74681e-06
3.82472e-05
6.39053e-05
0.261856
0.0109878
9.24451e-05
5.64128e-06
1.55045e-06
1.05359e-06
1.11463e-06
1.40032e-06
1.76086e-06
2.18203e-06
2.3866e-06
4.32695e-06
3.1971e-06
1.51225e-06
1.33619e-06
3.97858e-06
1.05571e-05
2.52442e-06
9.48947e-07
4.24414e-06
2.09873e-05
2.19013e-05
6.90794e-06
3.97128e-07
3.62615e-07
3.36059e-06
1.15558e-05
1.7015e-05
4.08927e-06
5.26979e-06
1.45268e-05
1.4546e-05
8.14975e-06
4.86037e-06
1.19081e-05
4.22933e-06
8.69315e-07
8.60432e-07
2.31479e-06
2.45348e-06
3.10659e-06
4.19955e-06
1.00596e-06
2.55404e-07
1.51877e-06
3.89408e-06
2.00287e-06
1.28052e-07
9.70293e-08
1.18807e-06
1.08489e-05
2.11367e-05
2.04498e-05
3.47177e-06
3.36044e-07
6.11357e-06
2.60066e-05
3.62365e-05
3.7587e-05
1.0582e-05
4.05196e-07
3.67588e-07
1.56668e-06
2.56431e-06
2.74317e-06
3.42552e-06
1.77033e-05
6.06975e-05
7.18446e-05
7.18096e-05
7.14055e-05
7.14645e-05
6.58168e-05
1.07731e-05
3.93215e-06
2.64428e-06
1.36941e-06
2.34207e-07
1.71881e-07
1.72535e-07
1.77557e-07
2.84276e-07
2.20839e-07
2.26188e-07
7.38481e-07
3.47901e-06
1.76994e-05
5.52089e-05
6.10424e-05
5.19826e-05
4.55181e-06
4.79811e-07
4.79544e-07
4.79536e-07
4.79618e-07
4.85622e-07
2.63116e-06
1.16678e-05
2.35861e-05
2.64469e-05
4.32777e-07
3.93463e-07
3.96411e-07
2.34605e-06
1.41962e-05
3.46278e-05
3.89856e-05
1.00919e-05
5.94896e-07
5.77254e-07
3.11464e-06
2.08549e-05
3.46938e-05
3.45548e-05
2.93515e-05
5.42619e-06
2.19272e-06
9.15354e-07
1.7178e-07
1.55241e-07
2.1669e-06
1.70477e-05
4.09145e-05
4.09427e-05
4.09168e-05
2.15615e-05
4.24694e-06
2.45519e-06
4.61481e-06
1.31882e-05
1.69313e-05
1.68556e-05
1.38267e-05
2.59685e-06
1.76037e-06
1.75886e-06
1.75925e-06
1.76231e-06
2.41624e-06
3.13706e-06
4.27367e-06
1.16909e-05
2.16037e-05
2.13527e-05
1.67868e-05
4.00986e-06
2.42655e-06
8.9316e-07
4.75544e-07
4.91166e-07
1.27846e-06
1.09959e-06
2.93206e-07
2.47485e-07
3.0023e-07
3.34369e-07
3.86272e-07
6.75303e-07
1.13358e-06
1.48637e-06
6.16672e-07
6.16053e-07
6.14983e-07
6.20707e-07
1.84579e-06
2.69009e-06
2.37542e-06
1.39389e-06
9.62947e-07
9.62167e-07
1.29946e-06
2.96779e-06
5.82287e-06
8.06546e-06
4.9664e-06
2.95377e-06
1.39637e-06
6.06491e-07
6.02354e-07
6.02328e-07
6.02394e-07
1.16007e-06
9.56063e-06
3.01199e-05
1.97832e-05
5.34131e-06
8.62824e-07
7.27719e-07
7.27528e-07
7.29347e-07
9.99333e-07
1.13264e-06
8.73402e-07
8.38967e-07
8.38773e-07
1.15871e-06
1.47798e-05
4.56778e-05
4.57039e-05
4.56723e-05
4.57059e-05
4.46087e-05
1.65434e-05
1.61101e-06
7.0443e-08
3.47473e-07
1.80277e-06
4.73815e-06
3.15452e-06
2.46232e-06
2.46081e-06
2.61331e-06
4.05188e-06
1.48102e-05
6.53808e-05
6.79886e-05
6.80654e-05
6.443e-05
2.49776e-05
7.65992e-06
3.78563e-05
3.87262e-05
1.67723e-05
2.61021e-06
2.13904e-07
1.65448e-07
1.6509e-07
1.67357e-07
1.68294e-07
2.43297e-07
3.13191e-06
6.49942e-05
8.60799e-05
5.09971e-05
4.18956e-05
9.62133e-05
5.32785e-05
1.68555e-05
3.04383e-06
9.26021e-07
9.2982e-07
1.19398e-06
1.1612e-06
5.55581e-07
4.47938e-07
3.86737e-07
2.39007e-07
2.12676e-07
2.218e-07
2.23358e-07
2.44052e-07
4.04894e-07
9.94901e-07
2.60937e-06
3.9243e-05
7.51299e-05
6.76819e-05
2.47223e-05
2.34073e-06
4.96381e-08
3.27615e-08
6.744e-08
3.2015e-06
9.13606e-06
9.29304e-06
6.07968e-06
1.01152e-06
4.99874e-07
4.86213e-06
8.99896e-05
5.58885e-05
1.37004e-05
8.86046e-07
2.23559e-08
1.80314e-08
1.77124e-08
3.2487e-08
2.55001e-06
1.01678e-05
9.66021e-06
4.61167e-06
5.07586e-07
9.05664e-07
2.02627e-05
1.46292e-05
4.52012e-06
4.11645e-07
2.51515e-08
2.29494e-08
2.33674e-08
8.32925e-08
3.28572e-07
1.89571e-07
3.9938e-08
2.91348e-08
2.93383e-08
8.49196e-08
5.70648e-08
3.81866e-08
3.73895e-08
3.7606e-08
1.19776e-07
8.66102e-08
3.88053e-08
3.71181e-08
3.7014e-08
3.68355e-08
3.68361e-08
3.91987e-08
4.79476e-08
4.86236e-08
4.02953e-08
4.01648e-08
1.11212e-07
1.42262e-06
1.41996e-06
5.52244e-07
3.66648e-07
9.87031e-07
4.24681e-06
4.60446e-06
3.3952e-06
8.09362e-07
6.44736e-07
7.89176e-07
5.0528e-06
9.1169e-06
9.10725e-06
7.07632e-06
2.16009e-06
3.2438e-07
1.07777e-07
1.70212e-07
1.15784e-06
4.3816e-06
2.01928e-06
2.30235e-07
3.87118e-07
2.07715e-06
2.29438e-06
6.64209e-07
3.81558e-07
1.23049e-06
4.89326e-06
3.42545e-06
6.47137e-07
2.20129e-07
5.50125e-07
1.78424e-06
3.80204e-06
5.08141e-05
5.57124e-05
3.22684e-06
3.66814e-07
3.57777e-07
3.68349e-07
4.47482e-07
6.96987e-07
7.23623e-07
7.22338e-07
4.01306e-06
2.48852e-05
3.63897e-05
3.63723e-05
3.63863e-05
2.40997e-05
2.23014e-06
1.99029e-06
1.85751e-06
2.21657e-06
7.79099e-06
4.21174e-05
7.12028e-05
7.14673e-05
7.12032e-05
7.0833e-05
3.2943e-05
3.5383e-06
2.15625e-06
1.51672e-06
8.05205e-07
2.68474e-07
3.37048e-07
8.49214e-06
4.5594e-05
6.2067e-05
6.21064e-05
6.20349e-05
4.72985e-05
3.6859e-06
4.81208e-07
4.79546e-07
4.79537e-07
4.79617e-07
4.85341e-07
3.57886e-06
2.63457e-05
4.76853e-05
4.76879e-05
3.4951e-05
4.05123e-06
1.33148e-06
5.56945e-06
2.85915e-05
3.96119e-05
3.96151e-05
3.73766e-05
7.1024e-06
1.09096e-06
5.73158e-07
5.7645e-07
5.72939e-07
5.79206e-07
2.87393e-06
2.19496e-05
4.32622e-05
4.32675e-05
3.00536e-05
5.77663e-06
3.38953e-06
1.85676e-06
2.35301e-06
8.65897e-06
3.05964e-05
4.09443e-05
4.09113e-05
4.09393e-05
4.09098e-05
3.71017e-05
2.0248e-05
1.67053e-05
1.57021e-05
1.29611e-05
1.00678e-05
6.90074e-06
4.10084e-06
4.47727e-06
1.12541e-05
1.13662e-05
1.06967e-05
3.31572e-06
3.4317e-06
3.61911e-06
1.60016e-05
2.83472e-05
2.83408e-05
2.83527e-05
1.54395e-05
6.32106e-06
2.66489e-06
8.85707e-07
5.35519e-07
4.50602e-07
3.66474e-07
4.74716e-07
6.1417e-07
4.99676e-07
4.84712e-07
4.83216e-07
5.66025e-07
8.97831e-07
2.57774e-06
1.67818e-06
6.07299e-07
6.06664e-07
2.6871e-06
2.05928e-06
9.65566e-07
9.62177e-07
9.62166e-07
9.62166e-07
9.62358e-07
2.93339e-06
8.94102e-06
8.96903e-06
8.97096e-06
7.71208e-06
2.29344e-06
6.06511e-07
6.0234e-07
6.02906e-07
6.05711e-07
4.96401e-06
2.9143e-05
3.19671e-05
2.59471e-05
6.80536e-06
7.77164e-07
7.27779e-07
7.36754e-07
9.34672e-06
9.73732e-06
3.4935e-06
8.44085e-07
8.41697e-07
2.07922e-06
1.65216e-05
4.571e-05
4.57006e-05
4.57039e-05
4.56725e-05
3.99672e-05
1.38125e-05
1.62087e-06
1.24395e-07
2.12575e-07
8.54144e-07
4.41115e-06
6.20129e-06
6.80059e-06
9.1651e-06
4.33028e-05
5.56949e-05
5.64517e-05
3.23292e-05
5.42286e-06
2.1246e-06
2.08577e-06
2.57577e-06
4.7928e-06
3.35198e-05
4.47001e-05
4.47146e-05
3.8114e-05
1.12727e-05
7.16065e-07
1.67641e-07
5.97553e-07
5.83932e-06
2.99766e-05
3.12853e-05
2.67117e-05
7.63654e-06
3.05788e-06
3.05039e-06
3.05307e-06
3.04841e-06
5.38875e-06
4.89529e-05
6.19413e-05
6.2002e-05
5.72739e-05
1.91991e-05
1.37874e-06
2.73724e-07
2.71698e-07
2.66214e-07
2.57908e-07
2.47747e-07
2.42234e-07
2.42425e-07
1.71781e-06
3.51933e-05
7.5126e-05
7.51301e-05
7.51248e-05
7.24876e-05
2.5122e-05
1.83453e-06
4.0087e-08
6.13412e-08
2.01738e-06
9.13691e-06
9.29325e-06
5.65953e-06
1.14159e-06
2.60326e-07
2.97356e-07
5.54054e-06
8.53497e-05
0.000120938
7.76933e-05
1.50398e-05
7.67628e-07
2.04396e-08
2.42463e-08
4.41371e-07
5.14226e-06
9.91229e-06
5.59041e-06
8.43135e-07
2.90591e-07
8.34618e-07
1.7847e-05
2.76976e-05
1.74687e-05
3.52366e-06
2.05935e-07
2.70807e-08
2.17383e-07
2.26722e-06
1.56322e-06
4.17855e-07
3.83792e-08
2.9108e-08
5.4169e-08
2.67052e-07
1.57732e-07
4.1461e-08
3.75013e-08
3.78999e-08
3.83597e-08
3.87507e-08
6.22574e-08
9.43878e-08
5.04389e-08
3.72685e-08
3.67347e-08
3.71509e-08
3.85709e-08
3.94911e-08
3.95393e-08
3.9544e-08
4.00332e-08
1.02235e-07
8.72619e-07
8.47509e-07
2.33251e-07
2.40327e-07
8.37346e-07
4.07128e-06
4.47553e-06
3.19725e-06
7.63123e-07
6.01599e-07
8.06222e-07
5.71353e-06
9.10788e-06
9.09779e-06
7.05066e-06
1.84011e-06
1.77876e-07
1.5616e-07
6.20373e-07
6.76537e-06
3.95345e-06
8.0564e-07
3.99665e-07
1.59416e-06
4.00802e-06
2.07453e-06
3.8229e-07
1.28086e-06
4.85368e-06
6.59114e-06
3.62225e-06
5.4816e-07
4.19948e-07
1.10387e-06
4.9837e-06
7.25974e-05
3.44687e-05
1.38133e-06
3.67623e-07
3.67617e-07
6.41642e-07
4.64238e-06
1.20926e-05
1.62124e-05
2.40566e-06
1.42422e-05
3.39989e-05
3.63734e-05
1.78418e-05
1.23106e-06
6.737e-07
6.70261e-07
6.11483e-06
3.42743e-05
4.88371e-05
4.88484e-05
4.88393e-05
2.91284e-05
6.76862e-06
6.75334e-06
6.76041e-06
6.88268e-06
2.21471e-05
3.4182e-05
3.37674e-05
2.3905e-05
2.11361e-06
1.05808e-06
1.69387e-05
5.40571e-05
6.21059e-05
6.20343e-05
6.2074e-05
6.20356e-05
3.51899e-05
2.45417e-06
4.80841e-07
4.79694e-07
4.7975e-07
4.86189e-07
1.90468e-06
8.47918e-06
3.19772e-05
4.76839e-05
4.76893e-05
4.76862e-05
3.31875e-05
9.69568e-06
9.75256e-06
2.39243e-05
3.96105e-05
3.96178e-05
3.9595e-05
2.42319e-05
8.77895e-06
6.36295e-06
3.91519e-06
1.52725e-06
2.77838e-06
1.54833e-05
3.81841e-05
4.32584e-05
4.32632e-05
4.32603e-05
4.32661e-05
2.73302e-05
1.61848e-05
1.35069e-05
9.79196e-06
6.00288e-06
2.65166e-06
1.7273e-06
1.72787e-06
2.6079e-06
8.79634e-06
2.38539e-05
4.10816e-05
4.1143e-05
4.11139e-05
4.11418e-05
4.03211e-05
1.53104e-05
7.75453e-06
3.29761e-06
3.29632e-06
3.29805e-06
5.65583e-06
3.55236e-06
3.91977e-06
7.55565e-06
1.76696e-05
2.83445e-05
2.83515e-05
2.83441e-05
1.50863e-05
4.20837e-06
1.23561e-06
6.25018e-07
7.29898e-07
9.22265e-07
1.81225e-06
1.48613e-06
7.60321e-07
4.82931e-07
6.1837e-07
1.37018e-06
3.44261e-06
3.5755e-06
2.50098e-06
7.33856e-07
2.51499e-06
1.51239e-06
9.64084e-07
9.62179e-07
9.62166e-07
9.62258e-07
1.03132e-06
5.22291e-06
8.96468e-06
8.97271e-06
8.96326e-06
6.66221e-06
2.08314e-06
6.09502e-07
6.05339e-07
1.05805e-06
4.18782e-06
2.01697e-05
3.19681e-05
3.19799e-05
2.29835e-05
6.4116e-06
7.47123e-07
1.62577e-06
7.75128e-06
3.71417e-05
3.02701e-05
1.17146e-05
1.22765e-06
2.1686e-06
1.73137e-05
4.57157e-05
4.56818e-05
4.57116e-05
3.93023e-05
1.43135e-05
1.92275e-06
1.34314e-06
1.32987e-06
3.57617e-06
6.16765e-06
1.36473e-05
4.40944e-05
4.55786e-05
4.55308e-05
2.79719e-05
5.02594e-06
2.67942e-06
2.66364e-06
4.33443e-06
5.97922e-06
7.8819e-06
2.30935e-05
4.47036e-05
4.47174e-05
4.47019e-05
3.64405e-05
1.02195e-05
1.44975e-06
1.39014e-06
2.07142e-06
9.90798e-06
5.28048e-05
2.88615e-05
8.08643e-06
7.59161e-06
7.61831e-06
8.22396e-06
4.96635e-05
6.20739e-05
6.20753e-05
6.20799e-05
6.20745e-05
6.20919e-05
5.08329e-05
1.18395e-05
2.49151e-06
2.32626e-06
1.97386e-05
4.31697e-05
4.37464e-05
2.13076e-05
3.66358e-06
7.93163e-06
6.46459e-05
9.74222e-05
9.92244e-05
8.31095e-05
2.89293e-05
7.52349e-06
6.2364e-06
4.84051e-06
1.25133e-06
4.48806e-07
6.6393e-07
6.01799e-06
4.40379e-06
1.98086e-06
8.49101e-07
6.18759e-07
4.1534e-07
4.35488e-07
6.31721e-06
8.7302e-05
0.000120937
0.000120862
0.000113344
3.90767e-05
3.00608e-06
3.25945e-08
1.17119e-07
3.92144e-06
3.67066e-06
1.71698e-06
3.26749e-07
2.55836e-07
2.48371e-07
4.99242e-06
2.76994e-05
2.77599e-05
1.71052e-05
2.94021e-06
5.02668e-07
5.06019e-06
1.89313e-05
1.00474e-05
2.09125e-06
1.24341e-07
3.10448e-08
2.99718e-08
1.94124e-07
8.68696e-07
4.8675e-07
1.00858e-07
3.87832e-08
3.76953e-08
3.76485e-08
3.77886e-08
1.20594e-07
3.92391e-07
2.24381e-07
4.96079e-08
3.71345e-08
3.68392e-08
3.69407e-08
4.15242e-08
4.1647e-08
4.02086e-08
4.01773e-08
4.07529e-08
9.34668e-08
1.54013e-07
1.6425e-07
2.12948e-07
3.44556e-07
2.37728e-06
4.46381e-06
3.59303e-06
9.73842e-07
6.01621e-07
6.01831e-07
1.52619e-06
8.12744e-06
9.0977e-06
9.09805e-06
3.95107e-06
4.46569e-07
1.56648e-07
9.82369e-07
6.80281e-06
5.40591e-06
1.80294e-06
4.16582e-07
1.69501e-06
4.00827e-06
3.98428e-06
1.41308e-06
1.04449e-06
2.26603e-06
6.57612e-06
6.61607e-06
4.88386e-06
1.02999e-06
8.76264e-07
3.74947e-06
3.81976e-05
5.71914e-06
6.80831e-07
4.25757e-07
1.03829e-06
1.06728e-05
4.75413e-05