/*--------------------------------*- C++ -*----------------------------------*\
| =========                 |                                                 |
| \\      /  F ield         | OpenFOAM: The Open Source CFD Toolbox           |
|  \\    /   O peration     | Version:  2.4.0                                 |
|   \\  /    A nd           | Web:      www.OpenFOAM.org                      |
|    \\/     M anipulation  |                                                 |
\*---------------------------------------------------------------------------*/
FoamFile
{
    version     2.0;
    format      ascii;
    class       volScalarField;
    location    "4.4";
    object      H;
}
// * * * * * * * * * * * * * * * * * * * * * * * * * * * * * * * * * * * * * //

dimensions      [0 2 -2 0 0 0 0];

internalField   nonuniform List<scalar> 
8000
(
-11908.3
-11257.8
-10586.6
-9882.94
-9136.38
-8338.17
-7481.77
-6563.61
-5583.99
-4547.77
-3463.14
-2334.59
-1146.54
-6.49339
-0.768194
-0.424189
-0.416501
-0.406948
-0.37128
-0.310414
-0.244392
-0.188702
-0.147184
-0.117668
-0.0970301
-0.0825364
-0.0722715
-0.0649487
-0.0597016
-0.0559379
-0.053266
-0.0514019
-0.0501237
-0.0493115
-0.0488152
-0.0485403
-0.048445
-0.0484753
-0.0485936
-0.0487853
-0.0490147
-0.0492709
-0.0495461
-0.0498636
-0.0502106
-0.050579
-0.0509562
-0.0513482
-0.0517497
-0.0521771
-11865.5
-11126.6
-10359.3
-9547.58
-8677.68
-7738.89
-6724.32
-5632.23
-4468.29
-3248.93
-2004.64
-771.44
-7.36783
-1.7428
-0.735156
-0.609046
-0.58442
-0.543521
-0.48105
-0.407392
-0.333481
-0.266964
-0.211571
-0.167799
-0.134402
-0.109491
-0.0912595
-0.078093
-0.068747
-0.0621919
-0.0576768
-0.0546278
-0.0526105
-0.0513505
-0.0506087
-0.0502119
-0.0500508
-0.0500686
-0.0502062
-0.0504258
-0.0507146
-0.0510408
-0.0513807
-0.0517552
-0.0521636
-0.052597
-0.0530572
-0.0535226
-0.0539954
-0.0544948
-11809.7
-10956.6
-10067.6
-9122.82
-8106.6
-7008.89
-5826.44
-4560.51
-3202.12
-1699.76
-9.70167
-0.456397
-1.11722
-1.70552
-1.99667
-2.02237
-1.84737
-1.57518
-1.28721
-1.02388
-0.801781
-0.622184
-0.479956
-0.369354
-0.284647
-0.220497
-0.172418
-0.136776
-0.110696
-0.0918633
-0.0784874
-0.0691346
-0.0627152
-0.058395
-0.0555699
-0.0537953
-0.0527451
-0.0521839
-0.0519516
-0.0519423
-0.0520926
-0.0523475
-0.0526727
-0.0530504
-0.0534713
-0.0539155
-0.0543861
-0.0548678
-0.0553752
-0.0559046
-11765.1
-10822.7
-9843.1
-8804.4
-7689.2
-6487.82
-5202.72
-3851.62
-2463.26
-1054.91
-13.6734
-9.39952
-7.8075
-6.61043
-5.55749
-4.65573
-3.8861
-3.23483
-2.68485
-2.21854
-1.82235
-1.48724
-1.20581
-0.971475
-0.778217
-0.620271
-0.492111
-0.389066
-0.30724
-0.243098
-0.193404
-0.155262
-0.126468
-0.105027
-0.0892851
-0.0778964
-0.0697957
-0.0641487
-0.0602994
-0.0577538
-0.0561378
-0.055185
-0.0546966
-0.0545303
-0.0545886
-0.0547963
-0.0551068
-0.0554881
-0.0559153
-0.0563712
-11792.3
-10912
-10014.5
-9087.13
-8119.6
-7106.26
-6045.71
-4942.43
-3806.62
-2652.53
-1498.96
-21.6406
-1.04247
-1.78008
-1.67466
-1.79783
-1.83911
-1.88639
-1.88536
-1.8279
-1.72071
-1.58004
-1.42354
-1.26415
-1.10958
-0.964416
-0.830518
-0.709842
-0.602864
-0.509455
-0.428921
-0.360223
-0.302006
-0.253187
-0.212728
-0.179527
-0.152525
-0.130771
-0.113435
-0.0997712
-0.0891323
-0.0809053
-0.0746319
-0.0698781
-0.0663489
-0.0637693
-0.0619135
-0.060612
-0.059747
-0.059218
-11860.7
-11118.7
-10365.3
-9592.36
-8790.64
-7950.14
-7064.35
-6128.85
-5139.98
-4096.78
-3000.27
-1852.39
-854.109
-5.80875
-1.22608
-2.35128
-1.94422
-1.77843
-1.52475
-1.48967
-1.44748
-1.38527
-1.31188
-1.23196
-1.14718
-1.05972
-0.971998
-0.886256
-0.804301
-0.727536
-0.656473
-0.591081
-0.53121
-0.476172
-0.426151
-0.381003
-0.340456
-0.304219
-0.271989
-0.243441
-0.218309
-0.196117
-0.176643
-0.159652
-0.144897
-0.132133
-0.121158
-0.111733
-0.103673
-0.0967802
-11930.2
-11329.9
-10726.6
-10117.3
-9498.05
-8864.24
-8210.62
-7532.84
-6827.91
-6094.63
-5334.68
-4553.98
-3752.81
-2925.73
-2049.32
-1155.64
-9.20741
-0.594585
-0.826614
-2.02139
-3.07823
-0.659768
-0.709545
-0.720665
-0.738743
-0.752284
-0.756125
-0.749986
-0.734947
-0.713798
-0.688088
-0.658997
-0.627765
-0.595402
-0.562427
-0.529706
-0.497871
-0.46712
-0.437537
-0.409229
-0.382489
-0.357066
-0.333123
-0.310693
-0.28971
-0.270152
-0.251981
-0.235174
-0.219668
-0.205319
-12003.4
-11552.4
-11106.4
-10666.1
-10230.8
-9798.66
-9367.57
-8934.96
-8498.09
-8054.02
-7599.55
-7131.22
-6645.15
-6137.02
-5601.98
-5034.48
-4427.78
-3773.44
-3057.86
-2273.89
-1446.16
-580.163
-5.19265
-0.167379
-0.109487
-0.116253
-0.0868465
-0.00895815
-0.0785433
-0.145138
-0.212054
-0.271808
-0.314398
-0.344702
-0.366701
-0.382315
-0.39214
-0.397056
-0.398047
-0.394705
-0.388401
-0.379987
-0.370047
-0.359048
-0.34731
-0.335126
-0.322727
-0.310289
-0.297939
-0.285789
-12046.8
-11681.3
-11317.8
-10957.1
-10599.2
-10244
-9890.88
-9539.39
-9188.84
-8838.44
-8487.24
-8134.08
-7777.49
-7415.62
-7046.1
-6665.98
-6271.57
-5858.25
-5420.32
-4950.87
-4441.93
-3884.85
-3271.24
-2593.85
-1847.9
-1055.85
-309.484
-2.35156
-0.0627557
-0.0365685
-0.0310379
-0.0699895
-0.0969636
-0.128705
-0.160841
-0.18976
-0.214474
-0.237274
-0.258047
-0.275362
-0.289154
-0.299511
-0.306772
-0.311359
-0.313644
-0.313938
-0.312551
-0.309775
-0.305907
-0.301164
-12043.8
-11670.5
-11295.4
-10918.1
-10538.8
-10158.1
-9776.97
-9396.46
-9017.77
-8642.11
-8270.53
-7903.88
-7542.69
-7187.06
-6836.66
-6490.6
-6147.42
-5805.1
-5461.01
-5111.98
-4754.36
-4384.09
-3996.92
-3588.6
-3155.35
-2694.85
-2207.96
-1700.5
-1185.76
-670.682
-213.231
-1.59599
-0.0370398
-0.0184902
-0.0120118
-0.0355386
-0.0555396
-0.0788013
-0.101564
-0.122093
-0.141476
-0.159955
-0.177542
-0.193792
-0.208254
-0.220708
-0.231039
-0.239338
-0.245896
-0.250996
-12017.6
-11591.7
-11163.1
-10731.4
-10296.8
-9860.41
-9423.85
-8989.03
-8558.06
-8133.11
-7716.26
-7309.38
-6914.03
-6531.41
-6162.29
-5806.95
-5465.23
-5136.49
-4819.69
-4513.33
-4215.48
-3923.55
-3636.6
-3352.63
-3069.57
-2785.34
-2498.16
-2206.7
-1910.13
-1607.99
-1299.89
-989.681
-680.71
-374.853
-105.346
-0.795859
-0.0189627
-0.00835172
-0.000444044
-0.021187
-0.0404093
-0.05646
-0.0692445
-0.0802454
-0.0908643
-0.101145
-0.110801
-0.119503
-0.127212
-0.133977
-11990.1
-11509.6
-11027.2
-10542.9
-10057.2
-9571.63
-9087.9
-8608.22
-8135.01
-7670.72
-7217.75
-6778.31
-6354.33
-5947.4
-5558.68
-5188.95
-4838.52
-4507.32
-4194.91
-3900.52
-3623.13
-3361.47
-3114.11
-2879.46
-2655.89
-2441.71
-2235.24
-2034.85
-1839.02
-1646.41
-1456.55
-1268.91
-1082.55
-897.33
-713.387
-531.391
-352.303
-173.21
-1.14814
-0.0158524
-0.00475369
-0.00179067
-0.00952426
-0.0185595
-0.0272102
-0.034752
-0.0423391
-0.0499769
-0.0573021
-0.064179
-11968.7
-11445.7
-10921.7
-10397
-9872.5
-9349.82
-8830.94
-8318.13
-7813.88
-7320.73
-6841.11
-6377.32
-5931.37
-5504.95
-5099.39
-4715.59
-4354.11
-4015.08
-3698.31
-3403.27
-3129.17
-2874.98
-2639.52
-2421.42
-2219.26
-2031.53
-1856.72
-1693.34
-1539.97
-1395.32
-1258.17
-1127.44
-1002.17
-881.492
-764.612
-650.63
-540.155
-432.491
-326.525
-221.87
-118.7
-23.0598
-0.157672
-0.00332705
-0.00103788
-0.00707409
-0.0134702
-0.0193792
-0.0251549
-0.0311667
-11953.1
-11399.3
-10845.4
-10292.2
-9741.01
-9193.46
-8651.69
-8118.01
-7594.85
-7084.63
-6589.69
-6112.14
-5653.87
-5216.43
-4801.03
-4408.52
-4039.4
-3693.82
-3371.62
-3072.39
-2795.42
-2539.86
-2304.66
-2088.67
-1890.65
-1709.31
-1543.34
-1391.43
-1252.31
-1124.74
-1007.56
-899.664
-800.043
-707.767
-622.002
-542.001
-467.112
-396.776
-330.561
-268.213
-209.649
-154.801
-103.492
-55.3996
-11.293
-0.0791567
-0.00759302
-0.0156287
-0.0176162
-0.0213327
-11948.2
-11385.1
-10823.3
-10264
-9708.77
-9159.49
-8618.09
-8086.62
-7567.17
-7061.7
-6572.08
-6099.97
-5646.79
-5213.7
-4801.61
-4411.13
-4042.61
-3696.16
-3371.66
-3068.79
-2787.06
-2525.82
-2284.31
-2061.69
-1857.02
-1669.32
-1497.58
-1340.78
-1197.88
-1067.86
-949.728
-842.506
-745.265
-657.12
-577.233
-504.818
-439.143
-379.521
-325.311
-275.893
-230.654
-188.968
-150.287
-114.458
-81.751
-52.4137
-26.1543
-0.171784
-0.00720424
-0.0119932
-11956.5
-11410.4
-10866.7
-10327.3
-9793.79
-9267.82
-8751.05
-8245.06
-7751.29
-7271.1
-6805.65
-6355.98
-5922.91
-5507.13
-5109.12
-4729.22
-4367.64
-4024.44
-3699.56
-3392.86
-3104.11
-2832.98
-2579.1
-2342.04
-2121.3
-1916.36
-1726.64
-1551.52
-1390.36
-1242.47
-1107.16
-983.693
-871.338
-769.35
-676.98
-593.486
-518.138
-450.216
-389
-333.783
-284.09
-239.256
-198.66
-161.678
-127.653
-95.919
-66.04
-38.6355
-16.3291
-0.114017
-11972.9
-11459.8
-10949.7
-10444.3
-9945.33
-9454.31
-8972.55
-8501.21
-8041.26
-7593.49
-7158.53
-6736.84
-6328.77
-5934.53
-5554.28
-5188.08
-4835.96
-4497.91
-4173.92
-3863.97
-3568.02
-3286.04
-3018.02
-2763.9
-2523.63
-2297.14
-2084.31
-1885
-1699
-1526.07
-1365.89
-1218.1
-1082.28
-957.943
-844.551
-741.523
-648.257
-564.11
-488.421
-420.511
-359.698
-305.302
-256.658
-213.126
-174.102
-139.01
-107.293
-78.3723
-51.5861
-26.0433
-11985.2
-11496.7
-11011.8
-10532.5
-10060.7
-9597.81
-9145.07
-8703.29
-8272.99
-7854.43
-7447.68
-7052.65
-6669.15
-6296.93
-5935.73
-5585.3
-5245.43
-4915.99
-4596.88
-4288.09
-3989.7
-3701.82
-3424.65
-3158.41
-2903.36
-2659.77
-2427.91
-2208.02
-2000.29
-1804.89
-1621.89
-1451.29
-1293
-1146.86
-1012.6
-889.869
-778.223
-677.154
-586.078
-504.354
-431.292
-366.16
-308.198
-256.622
-210.64
-169.464
-132.324
-98.4876
-67.2783
-38.0781
-11963.7
-11433.6
-10911.6
-10402.3
-9908.98
-9433.36
-8976.08
-8536.92
-8115.12
-7709.59
-7319.13
-6942.48
-6578.49
-6226.07
-5884.33
-5552.49
-5229.96
-4916.31
-4611.27
-4314.69
-4026.6
-3747.1
-3476.42
-3214.87
-2962.81
-2720.64
-2488.77
-2267.62
-2057.57
-1858.95
-1672.02
-1496.98
-1333.92
-1182.82
-1043.59
-915.996
-799.725
-694.359
-599.39
-514.235
-438.236
-370.678
-310.794
-257.77
-210.752
-168.848
-131.127
-96.6276
-64.3762
-33.3841
-11768.7
-10995.8
-10328.7
-9739.07
-9208
-8722.29
-8272.45
-7851.51
-7454.23
-7076.61
-6715.56
-6368.67
-6034.06
-5710.25
-5396.14
-5090.87
-4793.84
-4504.64
-4223.06
-3949.04
-3682.63
-3424.02
-3173.48
-2931.35
-2698.04
-2473.96
-2259.55
-2055.23
-1861.36
-1678.29
-1506.26
-1345.46
-1195.96
-1057.73
-930.668
-814.534
-709.01
-613.681
-528.052
-451.555
-383.564
-323.401
-270.353
-223.674
-182.599
-146.348
-114.136
-85.1855
-58.7427
-34.0914
-0.0526177
-0.0530669
-0.0535213
-0.0539784
-0.0544418
-0.0549166
-0.0553863
-0.0558557
-0.0563168
-0.0567924
-0.0572754
-0.0577658
-0.0582691
-0.0587785
-0.0592868
-0.0597956
-0.0603051
-0.0608268
-0.0613507
-0.0618789
-0.0624075
-0.0629255
-0.0634326
-0.0639274
-0.0644209
-0.0649058
-0.0653818
-0.0658535
-0.0663182
-0.0667621
-0.0671843
-0.0675996
-0.0680108
-0.0684162
-0.0688119
-0.0691801
-0.0695184
-0.069853
-0.0701876
-0.0705074
-0.0708121
-0.0711071
-0.0713939
-0.071653
-0.0718937
-0.0721068
-0.0723215
-0.0725296
-0.0727259
-0.072911
-0.0550258
-0.055564
-0.0561018
-0.0566613
-0.0572362
-0.057822
-0.0584193
-0.0590193
-0.0596087
-0.0602316
-0.0608506
-0.0614646
-0.0620665
-0.0626774
-0.0632951
-0.0639099
-0.0645255
-0.0651433
-0.0657456
-0.0663339
-0.0669052
-0.0674826
-0.0680568
-0.0686297
-0.0691992
-0.0697547
-0.0702915
-0.0708278
-0.0713602
-0.0718901
-0.0724077
-0.0728916
-0.0733693
-0.0738526
-0.0743258
-0.0747606
-0.0751662
-0.0755455
-0.0759304
-0.0763019
-0.0766575
-0.0769979
-0.0773247
-0.0776473
-0.0779588
-0.0782397
-0.0784964
-0.078734
-0.0789771
-0.0792161
-0.0564618
-0.0570299
-0.0576056
-0.0581891
-0.0588087
-0.0594353
-0.0600644
-0.0607005
-0.0613582
-0.0620269
-0.0627146
-0.0634079
-0.0640907
-0.0647637
-0.0654387
-0.0661291
-0.0668187
-0.067514
-0.0682036
-0.0688749
-0.0695292
-0.0701724
-0.0708171
-0.0714482
-0.0720696
-0.0726788
-0.0732528
-0.0738066
-0.0743647
-0.0749024
-0.0754033
-0.0758708
-0.0763128
-0.0767509
-0.07717
-0.0775808
-0.0779825
-0.0783435
-0.078679
-0.0789742
-0.0792723
-0.0795607
-0.0798342
-0.0800942
-0.0803329
-0.0805381
-0.0807484
-0.0809501
-0.0811603
-0.0813475
-0.0568636
-0.0573841
-0.0579307
-0.0584866
-0.059058
-0.0596433
-0.0602608
-0.0608827
-0.0615158
-0.0621477
-0.0628059
-0.0634769
-0.0641626
-0.0648634
-0.0655567
-0.066249
-0.0669289
-0.0676277
-0.0683393
-0.0690353
-0.0697104
-0.0703634
-0.0710248
-0.0716776
-0.072326
-0.0729429
-0.0735336
-0.0740931
-0.0746499
-0.0751882
-0.0757188
-0.0762109
-0.0766597
-0.0770778
-0.0774893
-0.0778808
-0.0782676
-0.0786143
-0.0789092
-0.0791551
-0.079409
-0.0796456
-0.0798639
-0.0800766
-0.0802592
-0.0804077
-0.0805168
-0.0806151
-0.0807147
-0.0808092
-0.0589428
-0.0588717
-0.058943
-0.0591249
-0.0593909
-0.0597334
-0.0601342
-0.0605813
-0.0610696
-0.061577
-0.0621042
-0.062653
-0.0632353
-0.063836
-0.0644516
-0.0650643
-0.0656922
-0.0663347
-0.0669937
-0.0676338
-0.068269
-0.0689081
-0.0695587
-0.0701927
-0.0708115
-0.0713965
-0.0719894
-0.0725671
-0.0731457
-0.0736811
-0.0741859
-0.0746593
-0.0751263
-0.0755884
-0.0760089
-0.0763897
-0.0767255
-0.0770599
-0.0773685
-0.0776557
-0.0779353
-0.0781827
-0.0783917
-0.0785685
-0.0787041
-0.0788461
-0.0789672
-0.0790711
-0.0791749
-0.0792441
-0.0909138
-0.0859576
-0.0817738
-0.0782604
-0.0753393
-0.0729336
-0.0709792
-0.0694106
-0.0681634
-0.0671944
-0.0664666
-0.0659537
-0.0656389
-0.0654618
-0.0654068
-0.0654671
-0.0656225
-0.0658604
-0.0661707
-0.0665222
-0.0669064
-0.0673224
-0.0677726
-0.06825
-0.0687446
-0.0692382
-0.0697206
-0.0702088
-0.0706996
-0.0711872
-0.0716851
-0.0721505
-0.0725883
-0.0730056
-0.0734187
-0.0738353
-0.0742216
-0.074577
-0.0748849
-0.0751872
-0.0754775
-0.0757726
-0.0760182
-0.0762158
-0.0763933
-0.0765647
-0.0767144
-0.0768763
-0.0770104
-0.0771064
-0.192049
-0.179808
-0.168566
-0.158246
-0.148801
-0.140131
-0.13221
-0.124977
-0.118399
-0.112455
-0.107097
-0.102269
-0.0979227
-0.0940438
-0.0905878
-0.0875379
-0.0848635
-0.0825209
-0.0804804
-0.0787236
-0.0772262
-0.075972
-0.0749185
-0.0740461
-0.0733331
-0.072774
-0.0723507
-0.072036
-0.0718108
-0.0716736
-0.0716103
-0.0716265
-0.0716809
-0.0717735
-0.0718869
-0.0720335
-0.0722067
-0.0723923
-0.0725872
-0.0728009
-0.0730049
-0.0732052
-0.0733869
-0.073573
-0.0737527
-0.0739337
-0.0740924
-0.0742363
-0.074354
-0.0744654
-0.273913
-0.262309
-0.251037
-0.240123
-0.229581
-0.219404
-0.209628
-0.200286
-0.191373
-0.182889
-0.174831
-0.167191
-0.159965
-0.153145
-0.146699
-0.140627
-0.134915
-0.129569
-0.12458
-0.119927
-0.115595
-0.111564
-0.10784
-0.104422
-0.101287
-0.0983987
-0.0957516
-0.0933282
-0.091137
-0.089153
-0.0873774
-0.0857716
-0.0843249
-0.0830251
-0.0818791
-0.0808728
-0.0799812
-0.079192
-0.0784885
-0.0778717
-0.0773379
-0.0768764
-0.0764837
-0.076135
-0.0758289
-0.0755568
-0.0753331
-0.0751554
-0.0750087
-0.0748826
-0.29578
-0.289872
-0.283501
-0.276814
-0.269929
-0.262913
-0.255821
-0.248706
-0.241618
-0.234596
-0.227671
-0.220862
-0.214178
-0.207661
-0.201273
-0.194995
-0.188908
-0.182999
-0.177269
-0.171725
-0.166371
-0.161201
-0.15623
-0.151482
-0.146941
-0.142596
-0.138444
-0.134501
-0.130727
-0.127126
-0.123703
-0.120478
-0.117438
-0.114581
-0.11188
-0.10934
-0.106939
-0.10469
-0.102583
-0.100614
-0.0987563
-0.0970032
-0.0953545
-0.0937912
-0.0923355
-0.0909785
-0.0897212
-0.0885503
-0.0874576
-0.0864757
-0.254791
-0.257411
-0.25896
-0.259481
-0.259014
-0.257779
-0.25592
-0.253551
-0.25077
-0.247652
-0.244268
-0.240691
-0.236906
-0.232961
-0.228864
-0.224664
-0.220426
-0.216196
-0.211931
-0.20763
-0.203346
-0.199101
-0.194902
-0.190761
-0.186685
-0.182678
-0.17874
-0.174871
-0.171088
-0.167403
-0.163787
-0.160264
-0.156829
-0.153477
-0.150246
-0.147134
-0.144119
-0.141186
-0.138338
-0.135557
-0.132868
-0.130266
-0.127754
-0.125306
-0.122929
-0.120624
-0.118382
-0.116208
-0.114135
-0.112214
-0.140001
-0.145554
-0.150912
-0.156336
-0.161957
-0.167636
-0.173212
-0.178565
-0.183533
-0.188136
-0.192373
-0.196207
-0.199603
-0.20249
-0.204856
-0.206658
-0.20782
-0.208264
-0.208101
-0.207467
-0.206459
-0.205146
-0.203585
-0.201823
-0.199906
-0.197851
-0.195664
-0.19338
-0.19102
-0.188589
-0.186092
-0.183565
-0.181024
-0.178475
-0.175925
-0.173394
-0.170857
-0.16831
-0.16577
-0.163226
-0.160706
-0.158216
-0.155738
-0.153288
-0.150856
-0.148429
-0.146028
-0.143653
-0.141351
-0.139191
-0.0705502
-0.0762938
-0.0814141
-0.0860291
-0.0902544
-0.0941884
-0.09796
-0.101663
-0.105368
-0.10913
-0.112922
-0.116741
-0.120546
-0.12438
-0.128265
-0.132238
-0.136318
-0.14053
-0.144669
-0.148621
-0.152335
-0.155801
-0.15901
-0.161961
-0.164631
-0.167002
-0.169068
-0.170817
-0.172254
-0.173296
-0.173896
-0.174092
-0.173957
-0.173578
-0.172984
-0.172204
-0.171264
-0.170188
-0.169002
-0.167709
-0.166321
-0.164857
-0.163325
-0.161733
-0.160079
-0.158378
-0.156648
-0.1549
-0.153154
-0.151471
-0.0373218
-0.0434907
-0.049476
-0.055223
-0.0606775
-0.0658975
-0.0709312
-0.0758152
-0.0805578
-0.0851462
-0.0895441
-0.0936635
-0.0974699
-0.100946
-0.104091
-0.106915
-0.109438
-0.111589
-0.113443
-0.11507
-0.11651
-0.117799
-0.118986
-0.120116
-0.121236
-0.12233
-0.123469
-0.124695
-0.125993
-0.127393
-0.128929
-0.130536
-0.13214
-0.133679
-0.135156
-0.136567
-0.137881
-0.139089
-0.140195
-0.141184
-0.142052
-0.142787
-0.143366
-0.143743
-0.143919
-0.143919
-0.143765
-0.143475
-0.143074
-0.142601
-0.0250516
-0.0296031
-0.0354013
-0.0418466
-0.0485866
-0.0556411
-0.0629013
-0.0702351
-0.0774724
-0.0844413
-0.0910011
-0.0969977
-0.102302
-0.106915
-0.110848
-0.114145
-0.116843
-0.118986
-0.120629
-0.121851
-0.122749
-0.123357
-0.123715
-0.123886
-0.123838
-0.123658
-0.123379
-0.122998
-0.122566
-0.122114
-0.121638
-0.12114
-0.120628
-0.120115
-0.119611
-0.11912
-0.118653
-0.118219
-0.117838
-0.117522
-0.117282
-0.117146
-0.117138
-0.117291
-0.117587
-0.118002
-0.118403
-0.118814
-0.119243
-0.119665
-0.0170348
-0.0237576
-0.0301186
-0.0379165
-0.0475026
-0.0577854
-0.0682097
-0.0783276
-0.0878042
-0.0964391
-0.104117
-0.110807
-0.116498
-0.121236
-0.125103
-0.12817
-0.130496
-0.132197
-0.133355
-0.134032
-0.1344
-0.134514
-0.134361
-0.133977
-0.133419
-0.132697
-0.131946
-0.131126
-0.130266
-0.129351
-0.128396
-0.127405
-0.126379
-0.12534
-0.124291
-0.123241
-0.122187
-0.121131
-0.120125
-0.119062
-0.118007
-0.116983
-0.115998
-0.11507
-0.114164
-0.113269
-0.112419
-0.11162
-0.110884
-0.110214
-0.0668641
-0.0543097
-0.0552364
-0.0562726
-0.0639587
-0.0755873
-0.0871984
-0.0978904
-0.107374
-0.115557
-0.122451
-0.128123
-0.132634
-0.136055
-0.138528
-0.140197
-0.141136
-0.141483
-0.141406
-0.141023
-0.140371
-0.139561
-0.138577
-0.137503
-0.136384
-0.135233
-0.134095
-0.132928
-0.131696
-0.130487
-0.129276
-0.128049
-0.126803
-0.125544
-0.124277
-0.123041
-0.121807
-0.120569
-0.119326
-0.118059
-0.116816
-0.11561
-0.114433
-0.11328
-0.112153
-0.111068
-0.110032
-0.108969
-0.107936
-0.106958
-0.160915
-0.145317
-0.137861
-0.117408
-0.109484
-0.113089
-0.117871
-0.123316
-0.128861
-0.133995
-0.138393
-0.141826
-0.144199
-0.145578
-0.146164
-0.146145
-0.145494
-0.144567
-0.14342
-0.142158
-0.140787
-0.139382
-0.13797
-0.136608
-0.135265
-0.133934
-0.132642
-0.131344
-0.129951
-0.128647
-0.127274
-0.125876
-0.12443
-0.122999
-0.121584
-0.120129
-0.118653
-0.117133
-0.115683
-0.114292
-0.112959
-0.111618
-0.110282
-0.108982
-0.107768
-0.106599
-0.105475
-0.1044
-0.103416
-0.102562
-10.32
-0.0790984
-0.0828132
-0.0817732
-0.0895088
-0.103119
-0.115675
-0.126492
-0.135208
-0.14177
-0.146384
-0.14919
-0.150466
-0.150693
-0.150202
-0.149162
-0.147745
-0.146303
-0.144752
-0.143154
-0.141598
-0.140181
-0.13887
-0.137594
-0.136325
-0.135096
-0.133942
-0.132725
-0.13145
-0.130089
-0.128757
-0.127445
-0.126103
-0.124686
-0.123204
-0.121724
-0.120314
-0.118955
-0.117668
-0.116472
-0.115378
-0.114354
-0.113359
-0.112495
-0.111733
-0.111064
-0.11047
-0.109956
-0.109542
-0.109218
-0.216748
-0.21095
-0.175963
-0.163427
-0.164529
-0.165558
-0.166298
-0.166689
-0.166636
-0.166128
-0.165334
-0.164172
-0.162549
-0.160773
-0.158882
-0.156873
-0.154776
-0.152826
-0.150941
-0.149063
-0.147379
-0.145842
-0.144451
-0.143178
-0.141956
-0.140826
-0.139813
-0.138778
-0.137632
-0.136495
-0.135378
-0.134234
-0.133088
-0.131937
-0.130728
-0.129559
-0.128436
-0.127378
-0.126385
-0.125394
-0.124437
-0.123477
-0.122578
-0.121739
-0.120948
-0.120183
-0.119447
-0.118759
-0.118152
-0.117594
-0.495258
-0.404106
-0.332759
-0.31142
-0.292927
-0.2769
-0.263138
-0.251248
-0.24082
-0.231483
-0.222948
-0.214976
-0.207497
-0.200486
-0.193917
-0.187765
-0.182017
-0.17662
-0.17174
-0.167363
-0.16351
-0.160074
-0.157028
-0.154414
-0.152175
-0.150233
-0.148527
-0.146968
-0.14546
-0.144033
-0.142622
-0.141154
-0.139625
-0.138055
-0.136473
-0.134833
-0.133202
-0.131597
-0.130027
-0.128501
-0.127036
-0.125642
-0.124314
-0.123067
-0.121898
-0.120804
-0.119774
-0.118805
-0.117901
-0.117051
-0.0730795
-0.0731831
-0.0732716
-0.0733489
-0.0734317
-0.0735171
-0.0736074
-0.0736896
-0.0737606
-0.0738152
-0.073874
-0.0739379
-0.0739983
-0.0740545
-0.0741065
-0.0741556
-0.0742081
-0.0742731
-0.074322
-0.0743605
-0.0743983
-0.0744346
-0.0744657
-0.074469
-0.0744903
-0.0745133
-0.0745319
-0.0745462
-0.0745578
-0.0745658
-0.0745697
-0.0745691
-0.0745637
-0.0745533
-0.0745379
-0.0745174
-0.0744956
-0.0744795
-0.0744465
-0.0743995
-0.0743305
-0.0742748
-0.0742172
-0.0741517
-0.0740777
-0.0739949
-0.0739042
-0.0738074
-0.0737017
-0.0735804
-0.0734332
-0.0732933
-0.0731383
-0.0729701
-0.072793
-0.0726077
-0.0724034
-0.0721722
-0.071936
-0.0716942
-0.071438
-0.0711737
-0.0708943
-0.0705917
-0.07027
-0.0699194
-0.0695569
-0.0691733
-0.0687645
-0.0683316
-0.067874
-0.0673976
-0.0669033
-0.0663746
-0.0658189
-0.0652245
-0.064593
-0.0639344
-0.0632328
-0.062491
-0.0617064
-0.060881
-0.0600154
-0.0591042
-0.0581544
-0.0571609
-0.0561233
-0.0550447
-0.0539276
-0.0527753
-0.0515901
-0.0503787
-0.0491471
-0.0478933
-0.0466208
-0.0453296
-0.0440346
-0.0427288
-0.041419
-0.040111
-0.0388107
-0.0375231
-0.0362526
-0.0350044
-0.0337824
-0.0325909
-0.0314346
-0.0303166
-0.029239
-0.0282047
-0.027221
-0.0262923
-0.0254179
-0.0245963
-0.0238253
-0.0230998
-0.0224098
-0.0217513
-0.0211561
-0.0206131
-0.0201161
-0.0196612
-0.0192448
-0.0188632
-0.0185136
-0.0181946
-0.0179041
-0.0176402
-0.0174012
-0.0171854
-0.0169915
-0.0168183
-0.0166656
-0.0165313
-0.0164095
-0.0163033
-0.0162127
-0.0161359
-0.0160716
-0.0160189
-0.0159773
-0.0159456
-0.0159232
-0.0159095
-0.0159036
-0.0159052
-0.0159149
-0.0159309
-0.0159508
-0.015976
-0.0160058
-0.0160394
-0.0160752
-0.0161152
-0.0161587
-0.0162047
-0.0162528
-0.0163027
-0.0163538
-0.0164063
-0.0164599
-0.0165145
-0.0165698
-0.0166268
-0.0166849
-0.0167408
-0.0167962
-0.0168504
-0.0169018
-0.0169538
-0.0170069
-0.0170574
-0.0171055
-0.0171526
-0.0171985
-0.017243
-0.0172862
-0.0173297
-0.0173757
-0.0174243
-0.0174767
-0.0175363
-0.0175997
-0.0176672
-0.0177471
-0.0178405
-0.0179432
-0.0180594
-0.0181904
-0.0183363
-0.0184972
-0.0186732
-0.0188641
-0.0190695
-0.0192885
-0.0195197
-0.0197611
-0.0200106
-0.0202656
-0.0205235
-0.0207819
-0.0210385
-0.0212914
-0.0215388
-0.02178
-0.0220105
-0.0222274
-0.0224291
-0.0226153
-0.0227833
-0.0229302
-0.0230541
-0.0231537
-0.0232275
-0.0232744
-0.0232936
-0.0232851
-0.0232494
-0.0231883
-0.0231057
-0.0229943
-0.0228579
-0.0226985
-0.0225156
-0.0223096
-0.0220813
-0.0218323
-0.0215644
-0.0212795
-0.0209789
-0.020664
-0.0203362
-0.0199975
-0.0196506
-0.0192954
-0.0189335
-0.0185661
-0.0181938
-0.0178168
-0.0174356
-0.0170509
-0.0166635
-0.0162746
-0.0158851
-0.0154965
-0.0151098
-0.0147262
-0.0143469
-0.0139729
-0.0136052
-0.0132445
-0.0128916
-0.012547
-0.0122111
-0.0118839
-0.0115653
-0.0112545
-0.0109505
-0.0106515
-0.0103553
-0.0100586
-0.00975772
-0.00944783
-0.00912345
-0.00877847
-0.00840637
-0.00800117
-0.00755799
-0.00707382
-0.00654882
-0.00598717
-0.00539783
-0.004794
-0.00419226
-0.00361077
-0.00306746
-0.00257783
-0.00215304
-0.0017992
-0.00151735
-0.00130411
-0.00115256
-0.0010536
-0.000997263
-0.000973868
-0.000974704
-0.000992563
-0.00102179
-0.00105824
-0.00109895
-0.00114196
-0.00118593
-0.00122983
-0.00127276
-0.00131345
-0.00134963
-0.00137581
-0.00137592
-0.00129294
-0.000891954
-0.079443
-0.0795679
-0.0796401
-0.0797524
-0.0798641
-0.0799729
-0.0800796
-0.0801846
-0.0802875
-0.0803886
-0.0804897
-0.0805998
-0.0807046
-0.0807983
-0.0808911
-0.0809765
-0.0810525
-0.0811423
-0.0812313
-0.0813182
-0.0814055
-0.0815078
-0.0816093
-0.0816902
-0.0817703
-0.0818507
-0.0819115
-0.0819692
-0.0820469
-0.0821228
-0.0821972
-0.0822703
-0.0823427
-0.082418
-0.0825087
-0.0825901
-0.0826554
-0.0827197
-0.0827753
-0.0828084
-0.0828638
-0.0829212
-0.0829763
-0.0830286
-0.0830775
-0.0831245
-0.0831788
-0.0832306
-0.0832627
-0.0832826
-0.0832834
-0.0832981
-0.0833105
-0.0833276
-0.0833329
-0.0833208
-0.0832992
-0.0832527
-0.0832084
-0.0831607
-0.0831031
-0.0830337
-0.0829514
-0.0828565
-0.0827569
-0.0826454
-0.0825009
-0.0823294
-0.0821273
-0.0819209
-0.0816879
-0.0814264
-0.0811376
-0.0808268
-0.0804729
-0.0800701
-0.0796259
-0.0791357
-0.0785946
-0.0779882
-0.0773252
-0.0766006
-0.0757999
-0.0749204
-0.0739581
-0.0729076
-0.0717646
-0.0705342
-0.0692073
-0.0677879
-0.0662741
-0.0646787
-0.0630013
-0.0612558
-0.0594438
-0.0575612
-0.0556259
-0.0536385
-0.051619
-0.0495805
-0.0475319
-0.0454867
-0.0434564
-0.0414533
-0.0394888
-0.0375762
-0.0357368
-0.0339775
-0.0322947
-0.03067
-0.0291708
-0.0277971
-0.0265338
-0.0253729
-0.024308
-0.0233339
-0.0224432
-0.0216314
-0.0208938
-0.0202252
-0.0196209
-0.0190764
-0.0185881
-0.0181511
-0.01776
-0.0174117
-0.0171024
-0.0168288
-0.0165893
-0.0163809
-0.016201
-0.0160475
-0.0159193
-0.015815
-0.0157288
-0.0156599
-0.0156073
-0.0155719
-0.0155515
-0.0155446
-0.0155511
-0.015568
-0.0155946
-0.0156309
-0.0156758
-0.0157287
-0.01579
-0.0158577
-0.0159295
-0.0160062
-0.0160874
-0.0161718
-0.0162583
-0.0163485
-0.0164413
-0.0165359
-0.0166318
-0.0167288
-0.0168259
-0.0169226
-0.0170189
-0.0171164
-0.0172113
-0.0173044
-0.0173945
-0.0174827
-0.0175698
-0.0176546
-0.0177365
-0.0178156
-0.017893
-0.0179658
-0.0180346
-0.0180988
-0.018158
-0.0182138
-0.0182655
-0.0183129
-0.0183568
-0.0183971
-0.0184322
-0.0184625
-0.0184875
-0.0185076
-0.0185214
-0.0185295
-0.0185333
-0.0185367
-0.0185438
-0.0185525
-0.0185652
-0.0185833
-0.0186076
-0.0186419
-0.0186875
-0.0187451
-0.018816
-0.0189012
-0.0190014
-0.0191174
-0.01925
-0.0193997
-0.0195683
-0.0197541
-0.0199568
-0.0201767
-0.0204122
-0.020661
-0.0209231
-0.0211946
-0.021471
-0.0217483
-0.0220222
-0.0222883
-0.0225427
-0.0227818
-0.0230023
-0.023201
-0.0233766
-0.0235295
-0.0236517
-0.0237418
-0.0238019
-0.023833
-0.0238333
-0.0238021
-0.0237398
-0.0236469
-0.0235241
-0.0233722
-0.0231927
-0.0229872
-0.022757
-0.0225047
-0.022231
-0.0219367
-0.0216233
-0.0212922
-0.0209439
-0.0205793
-0.0202
-0.0198075
-0.019404
-0.0189915
-0.018572
-0.0181475
-0.0177199
-0.0172909
-0.0168622
-0.0164354
-0.0160117
-0.0155924
-0.0151786
-0.0147711
-0.0143707
-0.0139777
-0.0135923
-0.013214
-0.012842
-0.0124749
-0.0121107
-0.0117464
-0.0113785
-0.0110024
-0.0106127
-0.0102032
-0.00976717
-0.00929821
-0.00879061
-0.00824029
-0.00764623
-0.00701141
-0.00634379
-0.00565622
-0.00496577
-0.00429203
-0.00365541
-0.00307448
-0.00256366
-0.00213202
-0.00178277
-0.00151382
-0.00131857
-0.00118733
-0.00110894
-0.00107196
-0.00106588
-0.00108176
-0.00111244
-0.00115255
-0.00119827
-0.00124701
-0.00129695
-0.00134674
-0.00139506
-0.00143966
-0.00147489
-0.00148287
-0.00139897
-0.000963055
-0.0814968
-0.0815616
-0.0816135
-0.0816926
-0.0817703
-0.0818461
-0.081923
-0.0820006
-0.0820734
-0.082131
-0.0822087
-0.0822925
-0.0823608
-0.0824144
-0.0824658
-0.0825331
-0.082602
-0.0826748
-0.0827642
-0.0828482
-0.0829185
-0.0829908
-0.0830527
-0.0831085
-0.0831857
-0.0832638
-0.083343
-0.083433
-0.0835264
-0.0836103
-0.0836906
-0.0837618
-0.0838522
-0.0839566
-0.0840796
-0.0841855
-0.0842846
-0.0843882
-0.0844945
-0.0845867
-0.0846687
-0.0847786
-0.0848925
-0.0850076
-0.0851235
-0.0852408
-0.0853612
-0.0854925
-0.0856229
-0.0857384
-0.0858544
-0.0859603
-0.0860526
-0.0861652
-0.0862834
-0.0864037
-0.086504
-0.0866021
-0.0866863
-0.0867603
-0.0868422
-0.0869151
-0.0869786
-0.0870355
-0.0870921
-0.0871454
-0.0871722
-0.0871806
-0.0871764
-0.0871566
-0.0871065
-0.0870356
-0.0869506
-0.0868341
-0.0866837
-0.0864953
-0.0862672
-0.0859933
-0.0856655
-0.0852798
-0.0848293
-0.0842988
-0.0836631
-0.0829291
-0.0820828
-0.0811092
-0.0799762
-0.0787113
-0.0772911
-0.0757146
-0.0739779
-0.0720839
-0.0700321
-0.0678347
-0.0655059
-0.0630643
-0.0605237
-0.0578948
-0.0552089
-0.0524762
-0.0497312
-0.0470033
-0.0443136
-0.0416905
-0.0391418
-0.0366701
-0.0343934
-0.0322936
-0.0303622
-0.0285927
-0.0269792
-0.025515
-0.024191
-0.0229987
-0.0219294
-0.0209753
-0.0201257
-0.0193723
-0.0187066
-0.0181207
-0.017607
-0.0171588
-0.0167706
-0.0164354
-0.0161476
-0.015903
-0.0156968
-0.0155256
-0.0153869
-0.0152774
-0.0151947
-0.0151363
-0.0151018
-0.0150868
-0.0150891
-0.0151071
-0.0151401
-0.0151884
-0.0152502
-0.0153242
-0.0154112
-0.015505
-0.0156064
-0.0157165
-0.0158345
-0.0159608
-0.0160925
-0.0162271
-0.0163662
-0.0165083
-0.016652
-0.0167991
-0.0169487
-0.0170997
-0.0172516
-0.0174033
-0.0175554
-0.0177073
-0.0178559
-0.0180027
-0.0181458
-0.0182865
-0.0184256
-0.0185618
-0.0186949
-0.018824
-0.018949
-0.0190708
-0.0191873
-0.0192976
-0.0194031
-0.0195029
-0.0195967
-0.0196866
-0.0197716
-0.0198507
-0.0199249
-0.019995
-0.0200561
-0.0201116
-0.0201616
-0.0202051
-0.0202426
-0.020276
-0.020301
-0.0203186
-0.0203287
-0.0203284
-0.0203163
-0.0202921
-0.0202562
-0.0202165
-0.0201731
-0.0201285
-0.0200824
-0.0200351
-0.0199877
-0.0199439
-0.019906
-0.0198774
-0.0198562
-0.0198453
-0.0198468
-0.0198631
-0.0198992
-0.0199564
-0.0200357
-0.0201387
-0.0202663
-0.0204187
-0.0205952
-0.0207937
-0.0210125
-0.0212491
-0.0215002
-0.0217623
-0.0220315
-0.0223043
-0.0225784
-0.0228445
-0.0231006
-0.0233432
-0.0235682
-0.0237764
-0.0239633
-0.0241243
-0.0242568
-0.0243583
-0.0244271
-0.0244621
-0.0244629
-0.0244292
-0.0243615
-0.0242604
-0.0241252
-0.0239569
-0.0237567
-0.0235258
-0.0232652
-0.0229758
-0.0226587
-0.0223176
-0.0219553
-0.021574
-0.0211762
-0.0207642
-0.0203402
-0.0199066
-0.0194654
-0.0190188
-0.0185687
-0.0181167
-0.0176644
-0.0172134
-0.0167648
-0.0163198
-0.0158792
-0.0154433