/*--------------------------------*- C++ -*----------------------------------*\
| =========                 |                                                 |
| \\      /  F ield         | OpenFOAM: The Open Source CFD Toolbox           |
|  \\    /   O peration     | Version:  2.4.0                                 |
|   \\  /    A nd           | Web:      www.OpenFOAM.org                      |
|    \\/     M anipulation  |                                                 |
\*---------------------------------------------------------------------------*/
FoamFile
{
    version     2.0;
    format      ascii;
    class       volVectorField;
    location    "4.4";
    object      U;
}
// * * * * * * * * * * * * * * * * * * * * * * * * * * * * * * * * * * * * * //

dimensions      [0 1 -1 0 0 0 0];

internalField   nonuniform List<vector> 
8000
(
(-9.74914e-07 -0.000182349 0)
(-7.56369e-06 -0.000544198 0)
(-1.92855e-05 -0.000904339 0)
(-3.49212e-05 -0.00126366 0)
(-5.31696e-05 -0.0016237 0)
(-7.27903e-05 -0.00198468 0)
(-9.27323e-05 -0.00234859 0)
(-0.000111963 -0.00271461 0)
(-0.000128598 -0.00308555 0)
(-0.000138011 -0.0034582 0)
(-0.000133458 -0.00383772 0)
(-0.000125606 -0.00422162 0)
(-0.000197392 -0.0046298 0)
(-0.000465693 -0.00454109 0)
(-0.00088809 -0.00439045 0)
(-0.00154239 -0.00393898 0)
(-0.00319308 0.00274369 0)
(-0.00419165 0.00402703 0)
(-0.0106295 0.0546775 0)
(-0.0124453 0.0765364 0)
(-0.0161968 0.0979763 0)
(-0.0186275 0.110323 0)
(-0.020483 0.116146 0)
(-0.0220906 0.118366 0)
(-0.023651 0.118271 0)
(-0.0252069 0.117353 0)
(-0.0268803 0.115524 0)
(-0.0287232 0.113052 0)
(-0.0306057 0.11036 0)
(-0.0325283 0.107685 0)
(-0.03453 0.105064 0)
(-0.0364239 0.102537 0)
(-0.0385002 0.099756 0)
(-0.0406135 0.0969268 0)
(-0.0424516 0.0941118 0)
(-0.0443934 0.0907005 0)
(-0.0464519 0.0868177 0)
(-0.0484513 0.0827531 0)
(-0.0505489 0.0788616 0)
(-0.0526298 0.0755073 0)
(-0.0545825 0.0726451 0)
(-0.0564827 0.0700683 0)
(-0.0585148 0.0673407 0)
(-0.0607222 0.0638691 0)
(-0.0628871 0.0604621 0)
(-0.0649412 0.0575779 0)
(-0.0669756 0.05485 0)
(-0.0690374 0.0518369 0)
(-0.0712554 0.0487778 0)
(-0.0736237 0.0453544 0)
(-7.12442e-07 -0.000130661 0)
(-8.37018e-06 -0.000401408 0)
(-2.48166e-05 -0.000681681 0)
(-5.03622e-05 -0.000972253 0)
(-8.52812e-05 -0.00127363 0)
(-0.000130067 -0.00158723 0)
(-0.000184912 -0.0019139 0)
(-0.000248147 -0.00225501 0)
(-0.000315562 -0.00261167 0)
(-0.000392516 -0.00298572 0)
(-0.0005347 -0.00338651 0)
(-0.000854918 -0.00380076 0)
(-0.00128039 -0.0043869 0)
(-0.00169074 -0.00423684 0)
(-0.0029538 0.00626396 0)
(-0.00327233 0.00713763 0)
(-0.00632429 0.0503509 0)
(-0.00747192 0.0697716 0)
(-0.0107031 0.092654 0)
(-0.0127148 0.109658 0)
(-0.0141858 0.121222 0)
(-0.0153054 0.128831 0)
(-0.0163252 0.133009 0)
(-0.0174128 0.134805 0)
(-0.0184985 0.135068 0)
(-0.0196231 0.134517 0)
(-0.0207906 0.13338 0)
(-0.0220752 0.131829 0)
(-0.0234517 0.129797 0)
(-0.024843 0.127776 0)
(-0.0262981 0.125576 0)
(-0.0276694 0.123173 0)
(-0.0291487 0.120527 0)
(-0.0307607 0.117582 0)
(-0.0322713 0.114822 0)
(-0.0337601 0.111962 0)
(-0.0353873 0.108978 0)
(-0.0371222 0.105332 0)
(-0.0388125 0.101522 0)
(-0.0406097 0.0980346 0)
(-0.042456 0.0949074 0)
(-0.0440953 0.0920238 0)
(-0.0457342 0.0897515 0)
(-0.0475061 0.0869733 0)
(-0.0492664 0.0837671 0)
(-0.0511053 0.0807985 0)
(-0.0529113 0.0777679 0)
(-0.0545941 0.0751819 0)
(-0.0563581 0.0728112 0)
(-0.0583243 0.0701783 0)
(-7.70014e-07 -8.1159e-05 0)
(-1.2427e-05 -0.000232974 0)
(-3.76588e-05 -0.000374986 0)
(-7.66893e-05 -0.000507989 0)
(-0.000129674 -0.000632101 0)
(-0.000195881 -0.000747981 0)
(-0.000272652 -0.00085483 0)
(-0.00035483 -0.000953196 0)
(-0.000454863 -0.00104177 0)
(-0.000654437 -0.00112597 0)
(-0.00106094 -0.00121015 0)
(-0.00158233 -0.00129512 0)
(-0.00204957 -0.00135324 0)
(-0.0021447 0.00938735 0)
(-0.000912603 0.0221535 0)
(-0.000539663 0.0372125 0)
(-0.0013229 0.0596434 0)
(-0.000985544 0.0834072 0)
(-0.000472214 0.10307 0)
(-2.10689e-05 0.118777 0)
(0.000218104 0.13024 0)
(0.000192849 0.13792 0)
(-6.78959e-05 0.142858 0)
(-0.000588217 0.145835 0)
(-0.00131481 0.147198 0)
(-0.00217625 0.147309 0)
(-0.00313336 0.146894 0)
(-0.00419637 0.146103 0)
(-0.00536752 0.144837 0)
(-0.00663357 0.143307 0)
(-0.00793365 0.141366 0)
(-0.00927291 0.139648 0)
(-0.0106447 0.13743 0)
(-0.0120301 0.134892 0)
(-0.0134854 0.132437 0)
(-0.014985 0.129838 0)
(-0.0164685 0.127296 0)
(-0.0179554 0.124573 0)
(-0.0195078 0.121686 0)
(-0.0211735 0.118735 0)
(-0.0228506 0.115649 0)
(-0.0244842 0.112367 0)
(-0.0261323 0.10971 0)
(-0.0277959 0.107025 0)
(-0.029433 0.104189 0)
(-0.0310492 0.101636 0)
(-0.0326427 0.098973 0)
(-0.0342644 0.0962041 0)
(-0.0359246 0.093448 0)
(-0.037601 0.0908882 0)
(-1.77391e-06 4.28986e-05 0)
(-9.9827e-06 0.000112477 0)
(-2.60151e-05 0.000168515 0)
(-5.05353e-05 0.000213264 0)
(-8.46559e-05 0.000248269 0)
(-0.000127933 0.000274477 0)
(-0.000178539 0.000292164 0)
(-0.000243063 0.000300803 0)
(-0.000372783 0.000299196 0)
(-0.0006476 0.000286428 0)
(-0.00102238 0.000278325 0)
(-0.00148089 0.000368064 0)
(-0.00213527 -0.0261917 0)
(-0.000584078 -0.0133005 0)
(-0.000194803 0.00116616 0)
(0.000837577 0.0159339 0)
(0.00391103 0.0362208 0)
(0.00738468 0.0572635 0)
(0.0114287 0.0797624 0)
(0.0147197 0.100746 0)
(0.0171538 0.118327 0)
(0.0187694 0.132074 0)
(0.0197631 0.142438 0)
(0.020265 0.149882 0)
(0.0203691 0.154668 0)
(0.020197 0.157136 0)
(0.0197988 0.1589 0)
(0.0191821 0.16002 0)
(0.0183373 0.160502 0)
(0.017339 0.159799 0)
(0.0162995 0.158364 0)
(0.0152525 0.157044 0)
(0.0141912 0.15541 0)
(0.0130721 0.15344 0)
(0.0118873 0.15144 0)
(0.0106803 0.14926 0)
(0.00944179 0.146901 0)
(0.00818118 0.144592 0)
(0.00691411 0.142231 0)
(0.00563867 0.139667 0)
(0.00430135 0.136928 0)
(0.00288116 0.13433 0)
(0.00146574 0.131128 0)
(7.21476e-05 0.12796 0)
(-0.00132684 0.124901 0)
(-0.00276333 0.121978 0)
(-0.00423471 0.119434 0)
(-0.00568429 0.116851 0)
(-0.0071081 0.11419 0)
(-0.00857881 0.111727 0)
(3.72621e-06 -2.19837e-05 0)
(1.86956e-05 -2.26049e-05 0)
(4.10315e-05 2.05391e-05 0)
(6.68916e-05 0.000108428 0)
(9.29917e-05 0.000242056 0)
(0.000116474 0.000423377 0)
(0.000135114 0.000653814 0)
(0.00014728 0.000936158 0)
(0.000150716 0.00127278 0)
(0.000130196 0.00167197 0)
(6.14179e-05 0.00214308 0)
(-0.00016297 0.00301215 0)
(-0.00112561 0.0025751 0)
(-0.00289115 -0.00187374 0)
(-0.00355673 -0.000764153 0)
(-0.000433868 -0.0294194 0)
(-0.00300181 -0.0190064 0)
(0.00173555 -0.0275521 0)
(0.0033736 0.0123553 0)
(0.00733031 0.0489651 0)
(0.0113286 0.0800786 0)
(0.0151158 0.104067 0)
(0.0191976 0.122715 0)
(0.0230914 0.136696 0)
(0.0264889 0.146711 0)
(0.0290498 0.153357 0)
(0.0310916 0.158558 0)
(0.0328257 0.16267 0)
(0.0341199 0.165445 0)
(0.0350822 0.166648 0)
(0.0357111 0.166619 0)
(0.0360103 0.165522 0)
(0.0360808 0.164194 0)
(0.0359057 0.162901 0)
(0.0354874 0.161435 0)
(0.0349034 0.159587 0)
(0.0342018 0.157483 0)
(0.0333857 0.155401 0)
(0.0324835 0.15329 0)
(0.0314895 0.151047 0)
(0.0305175 0.148621 0)
(0.0295807 0.146451 0)
(0.0286382 0.144051 0)
(0.0275987 0.141705 0)
(0.0264362 0.139342 0)
(0.0253607 0.136856 0)
(0.0243366 0.134507 0)
(0.0232721 0.132102 0)
(0.022197 0.129507 0)
(0.0211982 0.126943 0)
(-2.39643e-06 -9.09328e-05 0)
(-8.18847e-06 -0.000210049 0)
(-1.37212e-05 -0.00026792 0)
(-1.6417e-05 -0.000265359 0)
(-1.43787e-05 -0.000202722 0)
(-6.01383e-06 -7.94465e-05 0)
(1.01629e-05 0.000105202 0)
(3.60083e-05 0.000353116 0)
(7.50884e-05 0.000665954 0)
(0.000133788 0.00104709 0)
(0.000212742 0.00150014 0)
(0.000280579 0.00203218 0)
(0.000223845 0.00194622 0)
(-5.76315e-06 0.00170366 0)
(-0.000390459 0.00185442 0)
(-0.00132322 0.0015821 0)
(-0.00230267 0.0132634 0)
(-0.00449752 0.00433064 0)
(-0.00471227 0.01746 0)
(-0.00685756 0.026834 0)
(-0.000862867 0.0594487 0)
(-0.0047445 0.0225205 0)
(0.00380306 0.0379677 0)
(0.00877518 0.0621376 0)
(0.013851 0.0845512 0)
(0.0190228 0.102412 0)
(0.023764 0.115344 0)
(0.0291915 0.125844 0)
(0.034918 0.134994 0)
(0.0403668 0.142277 0)
(0.0456433 0.148065 0)
(0.0506478 0.154088 0)
(0.054567 0.159457 0)
(0.0577033 0.162845 0)
(0.0605462 0.165407 0)
(0.0627681 0.1671 0)
(0.0644292 0.167865 0)
(0.0656394 0.167781 0)
(0.0664243 0.166872 0)
(0.0667653 0.165193 0)
(0.066686 0.162919 0)
(0.0663039 0.160288 0)
(0.0656729 0.157713 0)
(0.0648418 0.155285 0)
(0.0638766 0.152791 0)
(0.062725 0.149906 0)
(0.0614831 0.147024 0)
(0.0602434 0.144043 0)
(0.0589684 0.141021 0)
(0.0576255 0.137995 0)
(9.51034e-07 -3.80788e-06 0)
(6.52667e-06 -1.41875e-05 0)
(1.8487e-05 -2.44042e-05 0)
(3.78534e-05 -3.23541e-05 0)
(6.58022e-05 -3.62284e-05 0)
(0.000103999 -3.56196e-05 0)
(0.000153781 -2.97988e-05 0)
(0.000217164 -1.99974e-05 0)
(0.000295705 -6.36537e-06 0)
(0.000392093 7.86192e-06 0)
(0.000507492 2.15139e-05 0)
(0.000641867 2.91475e-05 0)
(0.000787022 3.15754e-05 0)
(0.00092429 3.36901e-05 0)
(0.0010164 0.000115338 0)
(0.00104588 7.18792e-05 0)
(0.00105572 0.000406224 0)
(0.00113006 8.6109e-05 0)
(0.00158157 -9.59553e-05 0)
(0.00278865 -0.000400093 0)
(0.00504507 0.000226433 0)
(0.00812549 0.00745629 0)
(0.00915759 0.00766145 0)
(0.00984534 0.017946 0)
(0.0113913 0.027557 0)
(0.0144927 0.0413396 0)
(0.0160425 0.0459231 0)
(0.0187792 0.0267979 0)
(0.0262039 0.0202997 0)
(0.0328466 0.0261821 0)
(0.0366441 0.0383221 0)
(0.0409314 0.0564939 0)
(0.047598 0.0730795 0)
(0.053406 0.0885182 0)
(0.0586014 0.0996092 0)
(0.0642867 0.11007 0)
(0.0701589 0.120246 0)
(0.0753246 0.129265 0)
(0.0799919 0.138721 0)
(0.0842255 0.14757 0)
(0.0875597 0.154421 0)
(0.0903066 0.158769 0)
(0.0928833 0.162102 0)
(0.09481 0.164498 0)
(0.096101 0.165892 0)
(0.0969712 0.166348 0)
(0.0974634 0.165927 0)
(0.0975572 0.164612 0)
(0.0973092 0.162776 0)
(0.0968281 0.160582 0)
(1.65532e-06 -0.000136562 0)
(1.5731e-05 -0.000382725 0)
(4.30705e-05 -0.000603104 0)
(8.2453e-05 -0.000799191 0)
(0.000132542 -0.000971915 0)
(0.000192051 -0.00112289 0)
(0.000260177 -0.00125267 0)
(0.000335796 -0.00136321 0)
(0.000418226 -0.00145454 0)
(0.000506187 -0.00152922 0)
(0.00059898 -0.00158655 0)
(0.000695027 -0.00163006 0)
(0.000793682 -0.00165747 0)
(0.000893354 -0.00167322 0)
(0.000994629 -0.00167098 0)
(0.00109658 -0.00165535 0)
(0.00119982 -0.00161433 0)
(0.00129656 -0.00156826 0)
(0.00137612 -0.0014594 0)
(0.00142965 -0.00124409 0)
(0.0014724 -0.000799949 0)
(0.00149085 -0.000159674 0)
(0.00149599 0.00039263 0)
(0.00194481 0.00102638 0)
(0.00318521 0.00177648 0)
(0.00498525 0.00283313 0)
(0.00730817 0.00527602 0)
(0.0095365 0.00590549 0)
(0.0106184 0.00260207 0)
(0.0111191 0.0147951 0)
(0.0114713 0.0235275 0)
(0.0125539 0.0198479 0)
(0.015267 0.0145979 0)
(0.0190402 0.0156634 0)
(0.0219162 0.0202018 0)
(0.0252238 0.0254277 0)
(0.030024 0.028871 0)
(0.035868 0.0403179 0)
(0.0405244 0.0571033 0)
(0.0450432 0.0684602 0)
(0.0507797 0.0797287 0)
(0.0569273 0.0910795 0)
(0.0629424 0.102438 0)
(0.0686315 0.112971 0)
(0.0740394 0.122606 0)
(0.0792244 0.130966 0)
(0.0840687 0.138053 0)
(0.0884758 0.144061 0)
(0.0924843 0.148954 0)
(0.0960014 0.152621 0)
(3.20969e-07 -0.000193544 0)
(4.38236e-06 -0.000545217 0)
(1.29891e-05 -0.000863006 0)
(2.59892e-05 -0.00114849 0)
(4.3166e-05 -0.001403 0)
(6.41329e-05 -0.00162773 0)
(8.87446e-05 -0.00182363 0)
(0.000116531 -0.00199155 0)
(0.000147356 -0.00213212 0)
(0.000180598 -0.00224594 0)
(0.000216138 -0.00233323 0)
(0.000253174 -0.00239439 0)
(0.000291634 -0.00242919 0)
(0.000330549 -0.00243787 0)
(0.000370016 -0.00241961 0)
(0.000408974 -0.00237475 0)
(0.000447773 -0.00230166 0)
(0.000485229 -0.00220101 0)
(0.000522655 -0.00206932 0)
(0.00056156 -0.00190733 0)
(0.000607603 -0.00170951 0)
(0.000665532 -0.00148249 0)
(0.000738786 -0.00123067 0)
(0.000827537 -0.000935657 0)
(0.000924978 -0.000556404 0)
(0.00101229 -5.7309e-05 0)
(0.00106849 0.000635243 0)
(0.0010925 0.00116035 0)
(0.0011192 0.00169001 0)
(0.0013382 0.00258217 0)
(0.00200018 0.00369407 0)
(0.00323266 0.00445497 0)
(0.00436578 0.00155699 0)
(0.00460403 0.0135747 0)
(0.00451739 0.0186424 0)
(0.0047443 0.0140658 0)
(0.00616201 0.00558551 0)
(0.00807107 0.00457556 0)
(0.00898583 0.00874432 0)
(0.0109428 0.0116785 0)
(0.0138989 0.0131247 0)
(0.0171714 0.0156944 0)
(0.0207619 0.0199145 0)
(0.0249263 0.0258559 0)
(0.029612 0.0336427 0)
(0.0346882 0.0423835 0)
(0.0400555 0.0515535 0)
(0.0457653 0.06107 0)
(0.0516941 0.0705267 0)
(0.057818 0.0802067 0)
(-8.79746e-08 -0.000194671 0)
(-5.14644e-07 -0.000554075 0)
(-9.41916e-07 -0.000883921 0)
(-1.10164e-06 -0.00118466 0)
(-7.1402e-07 -0.00145667 0)
(4.43985e-07 -0.00170035 0)
(2.58449e-06 -0.00191602 0)
(5.8597e-06 -0.00210403 0)
(1.04529e-05 -0.00226457 0)
(1.64694e-05 -0.00239798 0)
(2.40931e-05 -0.00250432 0)
(3.33957e-05 -0.00258387 0)
(4.45933e-05 -0.00263655 0)
(5.77355e-05 -0.00266262 0)
(7.31094e-05 -0.0026618 0)
(9.07494e-05 -0.00263436 0)
(0.000111056 -0.00257982 0)
(0.00013406 -0.0024985 0)
(0.000160343 -0.00238966 0)
(0.000189987 -0.00225385 0)
(0.000223826 -0.0020902 0)
(0.000261908 -0.00189994 0)
(0.000305074 -0.00168219 0)
(0.000353445 -0.0014388 0)
(0.000409348 -0.00116826 0)
(0.000475099 -0.000873768 0)
(0.000554765 -0.000553194 0)
(0.000650011 -0.000214676 0)
(0.000758528 0.000147706 0)
(0.000871045 0.000585498 0)
(0.000949889 0.00100949 0)
(0.000981456 0.00135143 0)
(0.000992369 0.00162622 0)
(0.00120002 0.00247776 0)
(0.00181673 0.00311721 0)
(0.00276134 0.0033908 0)
(0.00344125 0.000779333 0)
(0.00341318 0.00943761 0)
(0.00298876 0.0136676 0)
(0.00284259 0.0102498 0)
(0.00374401 0.00318339 0)
(0.00460076 0.00331103 0)
(0.0047077 0.00429919 0)
(0.00542683 0.00321253 0)
(0.00646265 0.00156462 0)
(0.00781036 -5.41567e-05 0)
(0.00962629 -0.00112659 0)
(0.0119715 -0.00100741 0)
(0.0148678 0.000663933 0)
(0.0183583 0.00449655 0)
(-2.73227e-07 -0.000186545 0)
(-2.7197e-06 -0.000533505 0)
(-7.30958e-06 -0.000854757 0)
(-1.36777e-05 -0.00115073 0)
(-2.1355e-05 -0.00142182 0)
(-2.99289e-05 -0.00166837 0)
(-3.9007e-05 -0.00189073 0)
(-4.82335e-05 -0.00208919 0)
(-5.7234e-05 -0.00226405 0)
(-6.56714e-05 -0.00241558 0)
(-7.31753e-05 -0.00254401 0)
(-7.9422e-05 -0.00264959 0)
(-8.40357e-05 -0.00273253 0)
(-8.66991e-05 -0.00279306 0)
(-8.70197e-05 -0.00283135 0)
(-8.46801e-05 -0.00284766 0)
(-7.92584e-05 -0.00284209 0)
(-7.04325e-05 -0.00281496 0)
(-5.77387e-05 -0.0027663 0)
(-4.08499e-05 -0.00269653 0)
(-1.92544e-05 -0.00260559 0)
(7.36139e-06 -0.00249405 0)
(3.95421e-05 -0.00236172 0)
(7.75593e-05 -0.0022094 0)
(0.000122 -0.00203667 0)
(0.000173089 -0.00184481 0)
(0.000231431 -0.00163318 0)
(0.000297221 -0.00140389 0)
(0.00037112 -0.00115565 0)
(0.000453304 -0.000891197 0)
(0.000543542 -0.000607695 0)
(0.000640888 -0.000307881 0)
(0.000745575 2.14558e-05 0)
(0.000856292 0.000413599 0)
(0.000939857 0.000725893 0)
(0.000990843 0.00100569 0)
(0.00101338 0.00120542 0)
(0.00115842 0.00190407 0)
(0.00159472 0.00248906 0)
(0.00227398 0.0020625 0)
(0.00277299 0.000108228 0)
(0.00267412 0.00607279 0)
(0.00235436 0.00661549 0)
(0.00251942 0.00357724 0)
(0.00275871 0.00291738 0)
(0.00259559 0.00171899 0)
(0.00253381 -0.00132363 0)
(0.00246368 -0.00521401 0)
(0.00246002 -0.0101041 0)
(0.00270731 -0.0154102 0)
(-4.8366e-07 -0.000159743 0)
(-4.0458e-06 -0.000460579 0)
(-1.07257e-05 -0.000742729 0)
(-2.01034e-05 -0.00100618 0)
(-3.16945e-05 -0.00125094 0)
(-4.50807e-05 -0.00147703 0)
(-5.98802e-05 -0.0016845 0)
(-7.57306e-05 -0.00187341 0)
(-9.22664e-05 -0.00204384 0)
(-0.000109141 -0.00219587 0)
(-0.000125997 -0.00232962 0)
(-0.000142506 -0.00244518 0)
(-0.000158319 -0.00254267 0)
(-0.000173121 -0.00262223 0)
(-0.000186568 -0.00268399 0)
(-0.000198363 -0.00272809 0)
(-0.000208157 -0.0027547 0)
(-0.000215675 -0.00276397 0)
(-0.000220562 -0.00275607 0)
(-0.000222564 -0.0027312 0)
(-0.000221318 -0.00268952 0)
(-0.000216599 -0.00263128 0)
(-0.000208027 -0.00255663 0)
(-0.000195417 -0.00246586 0)
(-0.000178367 -0.00235911 0)
(-0.000156745 -0.00223674 0)
(-0.000130128 -0.00209882 0)
(-9.8463e-05 -0.00194582 0)
(-6.13179e-05 -0.00177771 0)
(-1.87135e-05 -0.00159512 0)
(2.98754e-05 -0.00139782 0)
(8.45298e-05 -0.00118667 0)
(0.000145993 -0.000960969 0)
(0.000214119 -0.000722083 0)
(0.000288256 -0.000468919 0)
(0.00036732 -0.000201542 0)
(0.00045124 9.22941e-05 0)
(0.000535713 0.0004268 0)
(0.000589536 0.000723852 0)
(0.000625403 0.000872741 0)
(0.000641595 0.00105562 0)
(0.00069572 0.00160072 0)
(0.000970929 0.00159736 0)
(0.00137325 0.000107603 0)
(0.00142937 0.00303839 0)
(0.00129928 0.00318813 0)
(0.00132326 0.000874027 0)
(0.00128145 3.9415e-05 0)
(0.00101054 -0.00273561 0)
(0.000561199 -0.00670541 0)
(-2.33108e-07 -0.000141053 0)
(-3.24121e-06 -0.000407762 0)
(-9.37258e-06 -0.000659207 0)
(-1.83959e-05 -0.000895515 0)
(-2.99208e-05 -0.0011168 0)
(-4.35871e-05 -0.00132315 0)
(-5.90669e-05 -0.00151466 0)
(-7.60419e-05 -0.00169144 0)
(-9.41969e-05 -0.00185355 0)
(-0.000113218 -0.0020011 0)
(-0.000132797 -0.00213416 0)
(-0.000152626 -0.00225283 0)
(-0.000172404 -0.0023572 0)
(-0.000191834 -0.00244734 0)
(-0.000210621 -0.00252337 0)
(-0.000228474 -0.00258536 0)
(-0.000245108 -0.00263343 0)
(-0.000260239 -0.00266767 0)
(-0.000273587 -0.00268819 0)
(-0.000284877 -0.00269508 0)
(-0.000293837 -0.00268847 0)
(-0.000300199 -0.00266846 0)
(-0.000303695 -0.0026352 0)
(-0.000304069 -0.00258876 0)
(-0.000301055 -0.00252931 0)
(-0.000294406 -0.00245692 0)
(-0.000283861 -0.0023718 0)
(-0.000269183 -0.00227394 0)
(-0.000250112 -0.00216365 0)
(-0.00022642 -0.00204084 0)
(-0.000197847 -0.00190588 0)
(-0.000164178 -0.00175857 0)
(-0.000125148 -0.00159945 0)
(-8.05479e-05 -0.00142813 0)
(-3.00526e-05 -0.0012454 0)
(2.67295e-05 -0.00105043 0)
(9.0273e-05 -0.000844325 0)
(0.000160802 -0.000625786 0)
(0.000237047 -0.000396441 0)
(0.0003178 -0.000149868 0)
(0.000402748 0.000128036 0)
(0.000485649 0.000390733 0)
(0.000552967 0.000516005 0)
(0.000585048 0.000640662 0)
(0.000621427 0.00098076 0)
(0.000784866 0.000506194 0)
(0.000999238 -0.000592295 0)
(0.00106697 -1.9329e-05 0)
(0.00103617 -0.000782873 0)
(0.000913004 -0.000580078 0)
(-5.88894e-07 -0.000114483 0)
(-4.79927e-06 -0.000333061 0)
(-1.27753e-05 -0.00054121 0)
(-2.41162e-05 -0.000738885 0)
(-3.83797e-05 -0.000926048 0)
(-5.52004e-05 -0.00110266 0)
(-7.42598e-05 -0.00126869 0)
(-9.52527e-05 -0.00142412 0)
(-0.000117882 -0.00156893 0)
(-0.000141856 -0.00170313 0)
(-0.000166893 -0.0018267 0)
(-0.000192716 -0.00193968 0)
(-0.000219056 -0.00204207 0)
(-0.000245647 -0.00213391 0)
(-0.000272233 -0.00221525 0)
(-0.000298556 -0.00228613 0)
(-0.000324367 -0.00234662 0)
(-0.000349414 -0.00239678 0)
(-0.000373455 -0.0024367 0)
(-0.00039624 -0.00246648 0)
(-0.000417532 -0.0024862 0)
(-0.000437079 -0.00249599 0)
(-0.000454648 -0.00249597 0)
(-0.000469983 -0.00248627 0)
(-0.00048285 -0.00246705 0)
(-0.000492985 -0.00243844 0)
(-0.000500153 -0.00240062 0)
(-0.000504079 -0.00235376 0)
(-0.00050452 -0.00229806 0)
(-0.000501185 -0.00223368 0)
(-0.000493822 -0.00216086 0)
(-0.000482117 -0.00207977 0)
(-0.000465804 -0.00199066 0)
(-0.00044454 -0.00189371 0)
(-0.00041804 -0.00178921 0)
(-0.00038593 -0.0016773 0)
(-0.000347888 -0.00155836 0)
(-0.00030347 -0.00143242 0)
(-0.00025218 -0.00130002 0)
(-0.000193459 -0.00116085 0)
(-0.000127057 -0.00101559 0)
(-5.35858e-05 -0.000863634 0)
(2.64839e-05 -0.000705564 0)
(0.000116555 -0.000521766 0)
(0.000213193 -0.000404581 0)
(0.000283299 -0.000482981 0)
(0.000317594 -0.000571877 0)
(0.000344352 -0.000640767 0)
(0.000399859 -0.000864483 0)
(0.000442197 -0.000961792 0)
(-1.74058e-07 -8.89832e-05 0)
(-2.68702e-06 -0.000261099 0)
(-7.87898e-06 -0.000427108 0)
(-1.55928e-05 -0.000586755 0)
(-2.55355e-05 -0.000739813 0)
(-3.74425e-05 -0.000886079 0)
(-5.10807e-05 -0.00102537 0)
(-6.6229e-05 -0.00115753 0)
(-8.26707e-05 -0.00128242 0)
(-0.000100193 -0.00139992 0)
(-0.000118588 -0.00150993 0)
(-0.000137651 -0.00161238 0)
(-0.000157182 -0.0017072 0)
(-0.000176984 -0.00179437 0)
(-0.000196862 -0.00187386 0)
(-0.000216625 -0.00194566 0)
(-0.000236083 -0.0020098 0)
(-0.000255048 -0.00206631 0)
(-0.000273336 -0.00211525 0)
(-0.000290761 -0.00215669 0)
(-0.000307143 -0.00219073 0)
(-0.000322297 -0.00221748 0)
(-0.000336044 -0.00223707 0)
(-0.000348204 -0.00224966 0)
(-0.000358597 -0.00225543 0)
(-0.000367044 -0.00225457 0)
(-0.000373368 -0.00224732 0)
(-0.000377387 -0.00223392 0)
(-0.000378926 -0.00221465 0)
(-0.000377802 -0.00218981 0)
(-0.000373841 -0.00215975 0)
(-0.000366855 -0.00212483 0)
(-0.000356673 -0.00208547 0)
(-0.000343102 -0.00204208 0)
(-0.00032597 -0.00199521 0)
(-0.000305079 -0.00194531 0)
(-0.000280256 -0.00189307 0)
(-0.000251294 -0.00183899 0)
(-0.000218023 -0.00178394 0)
(-0.000180222 -0.00172848 0)
(-0.000137697 -0.00167373 0)
(-9.01195e-05 -0.00162027 0)
(-3.7285e-05 -0.00156945 0)
(2.07235e-05 -0.00152176 0)
(8.29659e-05 -0.00147941 0)
(0.000147581 -0.00144211 0)
(0.000208596 -0.00144247 0)
(0.000253194 -0.00146182 0)
(0.000285143 -0.00152524 0)
(0.000319042 -0.00157176 0)
(-2.68428e-07 -7.58788e-05 0)
(-1.78673e-06 -0.000223851 0)
(-4.56e-06 -0.000367785 0)
(-8.4359e-06 -0.000507423 0)
(-1.32827e-05 -0.000642531 0)
(-1.89974e-05 -0.000772899 0)
(-2.54867e-05 -0.000898342 0)
(-3.26565e-05 -0.00101869 0)
(-4.04098e-05 -0.00113381 0)
(-4.86474e-05 -0.00124356 0)
(-5.72687e-05 -0.00134785 0)
(-6.61709e-05 -0.0014466 0)
(-7.52496e-05 -0.00153973 0)
(-8.4398e-05 -0.00162721 0)
(-9.35078e-05 -0.001709 0)
(-0.000102468 -0.00178509 0)
(-0.000111167 -0.0018555 0)
(-0.000119491 -0.00192025 0)
(-0.000127324 -0.00197937 0)
(-0.000134549 -0.00203292 0)
(-0.00014105 -0.00208099 0)
(-0.000146707 -0.00212364 0)
(-0.000151405 -0.00216099 0)
(-0.000155023 -0.00219316 0)
(-0.000157447 -0.00222027 0)
(-0.000158558 -0.00224246 0)
(-0.000158247 -0.00225991 0)
(-0.000156399 -0.00227279 0)
(-0.000152911 -0.00228128 0)
(-0.000147677 -0.00228558 0)
(-0.000140603 -0.00228591 0)
(-0.000131596 -0.0022825 0)
(-0.000120576 -0.0022756 0)
(-0.000107466 -0.00226544 0)
(-9.22079e-05 -0.00225232 0)
(-7.47439e-05 -0.00223649 0)
(-5.50465e-05 -0.00221826 0)
(-3.30833e-05 -0.00219791 0)
(-8.86817e-06 -0.0021758 0)
(1.76019e-05 -0.00215218 0)
(4.62585e-05 -0.00212746 0)
(7.7063e-05 -0.00210187 0)
(0.000109905 -0.00207591 0)
(0.000144618 -0.00204972 0)
(0.000181068 -0.0020239 0)
(0.000218826 -0.00199835 0)
(0.000257742 -0.00197361 0)
(0.000297986 -0.00194866 0)
(0.000334344 -0.00197334 0)
(0.000361522 -0.00199639 0)
(1.3692e-07 -7.293e-05 0)
(3.56261e-07 -0.000215216 0)
(5.57148e-07 -0.000353691 0)
(6.76226e-07 -0.000488109 0)
(7.07894e-07 -0.000618256 0)
(6.49427e-07 -0.000743951 0)
(4.91551e-07 -0.000865044 0)
(2.19367e-07 -0.000981409 0)
(-1.82729e-07 -0.00109295 0)
(-7.28848e-07 -0.00119958 0)
(-1.42962e-06 -0.00130127 0)
(-2.29132e-06 -0.00139797 0)
(-3.31487e-06 -0.00148969 0)
(-4.49537e-06 -0.00157642 0)
(-5.82171e-06 -0.00165821 0)
(-7.27641e-06 -0.0017351 0)
(-8.83573e-06 -0.00180715 0)
(-1.04697e-05 -0.00187443 0)
(-1.21424e-05 -0.00193703 0)
(-1.38125e-05 -0.00199506 0)
(-1.54335e-05 -0.00204862 0)
(-1.69541e-05 -0.00209784 0)
(-1.8319e-05 -0.00214284 0)
(-1.94692e-05 -0.00218378 0)
(-2.03432e-05 -0.00222079 0)
(-2.08763e-05 -0.00225403 0)
(-2.10031e-05 -0.00228368 0)
(-2.0656e-05 -0.00230989 0)
(-1.97683e-05 -0.00233284 0)
(-1.82719e-05 -0.00235272 0)
(-1.61015e-05 -0.00236971 0)
(-1.31912e-05 -0.002384 0)
(-9.47969e-06 -0.00239578 0)
(-4.90568e-06 -0.00240527 0)
(5.85031e-07 -0.00241264 0)
(7.04691e-06 -0.00241812 0)
(1.45245e-05 -0.0024219 0)
(2.3063e-05 -0.0024242 0)
(3.26949e-05 -0.00242522 0)
(4.34538e-05 -0.00242517 0)
(5.53581e-05 -0.00242425 0)
(6.84272e-05 -0.00242268 0)
(8.26634e-05 -0.00242066 0)
(9.80709e-05 -0.00241839 0)
(0.000114639 -0.00241607 0)
(0.000132371 -0.0024139 0)
(0.000151237 -0.00241204 0)
(0.000171152 -0.00241075 0)
(0.000191593 -0.00241098 0)
(0.000210479 -0.00241084 0)
(1.93812e-07 -7.35432e-05 0)
(3.55449e-06 -0.000218247 0)
(1.01023e-05 -0.000359721 0)
(1.9368e-05 -0.000497227 0)
(3.06558e-05 -0.000630207 0)
(4.33716e-05 -0.000758241 0)
(5.7033e-05 -0.000881028 0)
(7.12338e-05 -0.000998356 0)
(8.56267e-05 -0.00111009 0)
(9.99161e-05 -0.00121618 0)
(0.000113855 -0.0013166 0)
(0.000127238 -0.0014114 0)
(0.0001399 -0.00150064 0)
(0.000151712 -0.00158443 0)
(0.000162571 -0.00166291 0)
(0.000172406 -0.00173621 0)
(0.000181167 -0.0018045 0)
(0.000188826 -0.00186796 0)
(0.000195373 -0.00192676 0)
(0.000200813 -0.0019811 0)
(0.000205166 -0.00203117 0)
(0.000208462 -0.00207716 0)
(0.000210741 -0.00211928 0)
(0.000212052 -0.00215773 0)
(0.00021245 -0.0021927 0)
(0.000211994 -0.00222438 0)
(0.000210747 -0.00225298 0)
(0.000208775 -0.00227869 0)
(0.000206148 -0.00230169 0)
(0.000202931 -0.00232218 0)
(0.000199196 -0.00234034 0)
(0.000195008 -0.00235634 0)
(0.000190434 -0.00237038 0)
(0.000185537 -0.00238262 0)
(0.00018038 -0.00239324 0)
(0.000175019 -0.00240241 0)
(0.000169511 -0.00241029 0)
(0.000163904 -0.00241704 0)
(0.000158247 -0.00242282 0)
(0.00015258 -0.00242778 0)
(0.000146942 -0.00243209 0)
(0.000141364 -0.00243587 0)
(0.000135875 -0.00243927 0)
(0.000130493 -0.00244244 0)
(0.000125234 -0.00244549 0)
(0.000120111 -0.00244856 0)
(0.000115181 -0.00245178 0)
(0.000110561 -0.00245527 0)
(0.000106131 -0.00245999 0)
(0.00010073 -0.00246406 0)
(1.86809e-06 -0.000130894 0)
(1.24658e-05 -0.000364846 0)
(3.00331e-05 -0.000576017 0)
(5.25152e-05 -0.000766501 0)
(7.81014e-05 -0.000938174 0)
(0.000105468 -0.00109273 0)
(0.000133622 -0.00123172 0)
(0.000161785 -0.00135656 0)
(0.000189339 -0.00146856 0)
(0.000215804 -0.00156893 0)
(0.000240817 -0.00165873 0)
(0.000264112 -0.00173897 0)
(0.0002855 -0.00181055 0)
(0.000304857 -0.0018743 0)
(0.000322111 -0.00193095 0)
(0.000337234 -0.0019812 0)
(0.000350229 -0.00202566 0)
(0.000361128 -0.00206489 0)
(0.000369983 -0.00209941 0)
(0.000376864 -0.00212968 0)
(0.000381852 -0.00215612 0)
(0.000385037 -0.00217911 0)
(0.000386514 -0.00219902 0)
(0.000386385 -0.00221615 0)
(0.000384752 -0.00223079 0)
(0.000381716 -0.00224323 0)
(0.000377381 -0.00225369 0)
(0.000371845 -0.0022624 0)
(0.000365206 -0.00226957 0)
(0.000357558 -0.00227539 0)
(0.00034899 -0.00228003 0)
(0.000339588 -0.00228365 0)
(0.000329432 -0.0022864 0)
(0.000318598 -0.00228842 0)
(0.000307155 -0.00228984 0)
(0.000295167 -0.00229078 0)
(0.000282693 -0.00229135 0)
(0.000269786 -0.00229166 0)
(0.000256492 -0.0022918 0)
(0.000242852 -0.00229188 0)
(0.0002289 -0.00229198 0)
(0.000214666 -0.00229218 0)
(0.000200168 -0.00229256 0)
(0.000185422 -0.0022932 0)
(0.000170437 -0.00229417 0)
(0.000155236 -0.00229554 0)
(0.000139842 -0.00229736 0)
(0.000124184 -0.0022997 0)
(0.000107666 -0.00230182 0)
(8.9728e-05 -0.00230483 0)
(7.03341e-05 -0.000202471 0)
(0.000203461 -0.000542752 0)
(0.000312672 -0.000826045 0)
(0.000401986 -0.00106184 0)
(0.000475165 -0.00125797 0)
(0.000534857 -0.00142088 0)
(0.000582914 -0.00155596 0)
(0.000620883 -0.00166773 0)
(0.000650126 -0.00175998 0)
(0.000671841 -0.00183588 0)
(0.000687063 -0.00189811 0)
(0.000696691 -0.0019489 0)
(0.0007015 -0.00199012 0)
(0.000702167 -0.00202335 0)
(0.000699276 -0.00204991 0)
(0.000693337 -0.00207091 0)
(0.000684795 -0.00208727 0)
(0.000674035 -0.00209979 0)
(0.000661394 -0.00210911 0)
(0.000647165 -0.00211579 0)
(0.000631602 -0.00212029 0)
(0.00061493 -0.00212301 0)
(0.00059734 -0.00212427 0)
(0.000579002 -0.00212435 0)
(0.000560062 -0.00212347 0)
(0.000540646 -0.00212183 0)
(0.000520864 -0.0021196 0)
(0.00050081 -0.00211691 0)
(0.000480565 -0.00211387 0)
(0.000460198 -0.00211059 0)
(0.000439766 -0.00210714 0)
(0.000419319 -0.00210359 0)
(0.000398895 -0.00209999 0)
(0.000378528 -0.00209639 0)
(0.000358243 -0.00209283 0)
(0.000338058 -0.00208932 0)
(0.000317988 -0.0020859 0)
(0.00029804 -0.00208257 0)
(0.00027822 -0.00207935 0)
(0.000258525 -0.00207623 0)
(0.000238954 -0.00207321 0)
(0.000219498 -0.00207028 0)
(0.000200149 -0.00206741 0)
(0.000180898 -0.00206457 0)
(0.000161744 -0.00206173 0)
(0.000142667 -0.00205882 0)
(0.000123562 -0.00205579 0)
(0.000104211 -0.00205257 0)
(8.43987e-05 -0.00204623 0)
(6.81828e-05 -0.0020414 0)
(-0.0759634 0.041983 0)
(-0.0783688 0.0383464 0)
(-0.0807743 0.0343717 0)
(-0.0831452 0.0311766 0)
(-0.0855492 0.0284901 0)
(-0.0878478 0.0259623 0)
(-0.0900304 0.0235886 0)
(-0.0921816 0.0212782 0)
(-0.094428 0.0191476 0)
(-0.0968266 0.016515 0)
(-0.0991449 0.0134567 0)
(-0.101458 0.0102236 0)
(-0.103831 0.00725787 0)
(-0.106122 0.00454152 0)
(-0.108412 0.00191814 0)
(-0.110728 -0.000778609 0)
(-0.113116 -0.00366243 0)
(-0.115522 -0.00671147 0)
(-0.117913 -0.00976574 0)
(-0.120392 -0.012588 0)
(-0.122803 -0.0150705 0)
(-0.125158 -0.0174241 0)
(-0.127499 -0.020006 0)
(-0.129898 -0.0225616 0)
(-0.132342 -0.0251757 0)
(-0.134706 -0.0278035 0)
(-0.137092 -0.0304489 0)
(-0.139573 -0.0331192 0)
(-0.141985 -0.0357963 0)
(-0.144281 -0.0381165 0)
(-0.146586 -0.040247 0)
(-0.148928 -0.042545 0)
(-0.151239 -0.0447677 0)
(-0.153547 -0.0468029 0)
(-0.155788 -0.048997 0)
(-0.157913 -0.0514624 0)
(-0.160081 -0.0543029 0)
(-0.162425 -0.0573327 0)
(-0.164757 -0.0603879 0)
(-0.166921 -0.0633248 0)
(-0.169069 -0.0658964 0)
(-0.171216 -0.0679748 0)
(-0.173196 -0.0697695 0)
(-0.174997 -0.0714736 0)
(-0.176715 -0.0732774 0)
(-0.178456 -0.0754589 0)
(-0.180271 -0.0778708 0)
(-0.181992 -0.0802786 0)
(-0.183612 -0.0824762 0)
(-0.185232 -0.0842805 0)
(-0.0602447 0.0677193 0)
(-0.0619996 0.0653577 0)
(-0.0638571 0.0623254 0)
(-0.0658335 0.0591314 0)
(-0.0677815 0.056249 0)
(-0.0698082 0.0532487 0)
(-0.0718539 0.0499323 0)
(-0.0737283 0.0473377 0)
(-0.0757619 0.0450841 0)
(-0.0778532 0.042136 0)
(-0.0797546 0.0394155 0)
(-0.081652 0.0369544 0)
(-0.083617 0.0342293 0)
(-0.0857304 0.0312288 0)
(-0.0878039 0.0284308 0)
(-0.0898146 0.0256334 0)
(-0.0919463 0.0229537 0)
(-0.0941071 0.0204784 0)
(-0.0962328 0.0184044 0)
(-0.0983444 0.0158898 0)
(-0.100557 0.013327 0)
(-0.102847 0.0107591 0)
(-0.105096 0.00832508 0)
(-0.107423 0.00594205 0)
(-0.109745 0.0036582 0)
(-0.111997 0.00141268 0)
(-0.114279 -0.000810566 0)
(-0.11662 -0.00314027 0)
(-0.119016 -0.00557433 0)
(-0.121464 -0.00806665 0)
(-0.123743 -0.0106086 0)
(-0.125917 -0.0135621 0)
(-0.128296 -0.0166451 0)
(-0.130748 -0.019618 0)
(-0.132944 -0.022301 0)
(-0.135026 -0.0245792 0)