/*--------------------------------*- C++ -*----------------------------------*\
| =========                 |                                                 |
| \\      /  F ield         | OpenFOAM: The Open Source CFD Toolbox           |
|  \\    /   O peration     | Version:  2.4.0                                 |
|   \\  /    A nd           | Web:      www.OpenFOAM.org                      |
|    \\/     M anipulation  |                                                 |
\*---------------------------------------------------------------------------*/
FoamFile
{
    version     2.0;
    format      ascii;
    class       volScalarField;
    location    "0.8";
    object      H;
}
// * * * * * * * * * * * * * * * * * * * * * * * * * * * * * * * * * * * * * //

dimensions      [0 2 -2 0 0 0 0];

internalField   nonuniform List<scalar> 
500
(
-11698.9
-11698.9
-11698.9
-11698.9
-11698.9
-10630.6
-10630.6
-10630.6
-10630.6
-10630.6
-9550.01
-9550.01
-9550
-9550.01
-9550.01
-8456.67
-8456.66
-8456.66
-8456.66
-8456.67
-7350.15
-7350.14
-7350.14
-7350.14
-7350.15
-6230
-6229.99
-6229.99
-6229.99
-6230
-5095.74
-5095.73
-5095.73
-5095.73
-5095.75
-3946.9
-3946.89
-3946.89
-3946.89
-3946.91
-2782.98
-2782.96
-2782.96
-2782.96
-2782.98
-1603.47
-1603.45
-1603.45
-1603.45
-1603.47
-46.0955
-46.093
-46.0929
-46.0931
-46.0958
-34.7298
-34.7279
-34.7278
-34.7279
-34.7299
-35.2096
-35.2077
-35.2076
-35.2078
-35.2097
-35.6683
-35.6665
-35.6663
-35.6665
-35.6685
-36.1053
-36.1035
-36.1033
-36.1035
-36.1055
-36.5197
-36.5179
-36.5177
-36.5179
-36.5199
-36.9108
-36.909
-36.9088
-36.909
-36.911
-37.2779
-37.2761
-37.2759
-37.2761
-37.278
-37.6202
-37.6185
-37.6183
-37.6185
-37.6204
-37.9372
-37.9355
-37.9353
-37.9355
-37.9374
-38.2281
-38.2264
-38.2262
-38.2264
-38.2283
-38.4923
-38.4906
-38.4904
-38.4906
-38.4924
-38.7291
-38.7274
-38.7272
-38.7275
-38.7293
-38.938
-38.9363
-38.9361
-38.9364
-38.9381
-39.1184
-39.1168
-39.1166
-39.1168
-39.1186
-39.2698
-39.2682
-39.268
-39.2682
-39.2699
-39.3917
-39.3901
-39.3899
-39.3901
-39.3918
-39.4836
-39.482
-39.4819
-39.4821
-39.4838
-39.5452
-39.5436
-39.5435
-39.5437
-39.5453
-39.576
-39.5745
-39.5743
-39.5746
-39.5762
-39.5758
-39.5743
-39.5741
-39.5744
-39.576
-39.5443
-39.5428
-39.5426
-39.5429
-39.5444
-39.4812
-39.4798
-39.4796
-39.4799
-39.4814
-39.3865
-39.3851
-39.3849
-39.3852
-39.3866
-39.2599
-39.2586
-39.2584
-39.2587
-39.2601
-39.1016
-39.1003
-39.1001
-39.1003
-39.1017
-38.9114
-38.9101
-38.9099
-38.9102
-38.9115
-38.6895
-38.6882
-38.6881
-38.6883
-38.6896
-38.436
-38.4347
-38.4346
-38.4348
-38.4361
-38.1511
-38.1499
-38.1497
-38.1499
-38.1512
-37.8351
-37.834
-37.8338
-37.834
-37.8352
-37.4884
-37.4873
-37.4871
-37.4873
-37.4885
-37.1114
-37.1103
-37.1102
-37.1104
-37.1115
-36.7046
-36.7035
-36.7034
-36.7036
-36.7047
-36.2685
-36.2675
-36.2673
-36.2675
-36.2686
-35.8038
-35.8028
-35.8027
-35.8029
-35.8039
-35.3112
-35.3103
-35.3102
-35.3103
-35.3113
-34.7916
-34.7906
-34.7905
-34.7907
-34.7917
-34.2456
-34.2447
-34.2446
-34.2448
-34.2457
-33.6743
-33.6735
-33.6734
-33.6735
-33.6744
-33.0787
-33.0779
-33.0778
-33.078
-33.0788
-32.4598
-32.459
-32.459
-32.4591
-32.4599
-31.8187
-31.818
-31.8179
-31.818
-31.8188
-31.1567
-31.156
-31.1559
-31.156
-31.1567
-30.4748
-30.4742
-30.4741
-30.4742
-30.4749
-29.7745
-29.7739
-29.7738
-29.774
-29.7746
-29.0571
-29.0565
-29.0565
-29.0566
-29.0572
-28.3239
-28.3234
-28.3233
-28.3234
-28.324
-27.5764
-27.5759
-27.5759
-27.5759
-27.5765
-26.8161
-26.8156
-26.8155
-26.8156
-26.8161
-26.0443
-26.0438
-26.0438
-26.0439
-26.0443
-25.2626
-25.2622
-25.2622
-25.2622
-25.2627
-24.4726
-24.4722
-24.4722
-24.4722
-24.4727
-23.6758
-23.6754
-23.6754
-23.6754
-23.6758
-22.8737
-22.8733
-22.8733
-22.8734
-22.8737
-22.0678
-22.0675
-22.0675
-22.0675
-22.0678
-21.2597
-21.2594
-21.2594
-21.2595
-21.2598
-20.4509
-20.4507
-20.4507
-20.4507
-20.451
-19.6429
-19.6427
-19.6427
-19.6427
-19.6429
-18.8371
-18.8369
-18.8369
-18.8369
-18.8372
-18.035
-18.0348
-18.0348
-18.0348
-18.035
-17.2379
-17.2378
-17.2378
-17.2378
-17.2379
-16.4472
-16.447
-16.447
-16.447
-16.4472
-15.6641
-15.6639
-15.6639
-15.6639
-15.6641
-14.8898
-14.8897
-14.8897
-14.8897
-14.8898
-14.1254
-14.1253
-14.1253
-14.1253
-14.1254
-13.3721
-13.372
-13.372
-13.372
-13.3721
-12.6308
-12.6307
-12.6308
-12.6307
-12.6308
-11.9024
-11.9024
-11.9024
-11.9024
-11.9024
-11.1877
-11.1877
-11.1877
-11.1877
-11.1877
-10.4875
-10.4874
-10.4875
-10.4874
-10.4875
-9.8023
-9.80227
-9.80228
-9.80227
-9.8023
-9.13271
-9.13269
-9.13271
-9.13269
-9.13272
-8.47917
-8.47915
-8.47917
-8.47915
-8.47917
-7.842
-7.84199
-7.84201
-7.84199
-7.842
-7.22145
-7.22144
-7.22146
-7.22145
-7.22145
-6.61767
-6.61767
-6.61769
-6.61767
-6.61767
-6.03071
-6.03072
-6.03073
-6.03072
-6.03071
-5.46054
-5.46055
-5.46056
-5.46055
-5.46054
-4.90703
-4.90704
-4.90705
-4.90704
-4.90703
-4.36996
-4.36997
-4.36998
-4.36997
-4.36996
-3.84905
-3.84906
-3.84907
-3.84906
-3.84905
-3.34391
-3.34392
-3.34393
-3.34392
-3.34391
-2.85413
-2.85414
-2.85415
-2.85414
-2.85413
-2.37918
-2.37919
-2.3792
-2.37919
-2.37918
-1.91852
-1.91853
-1.91853
-1.91853
-1.91852
-1.47153
-1.47154
-1.47154
-1.47154
-1.47153
-1.03757
-1.03757
-1.03758
-1.03757
-1.03757
-0.615954
-0.615956
-0.615959
-0.615956
-0.615954
-0.205979
-0.20598
-0.20598
-0.20598
-0.205979
)
;

boundaryField
{
    BotWall
    {
        type            zeroGradient;
    }
    FreeStream
    {
        type            zeroGradient;
    }
    FrontNBack
    {
        type            empty;
    }
    LeftSide
    {
        type            symmetryPlane;
    }
    RightSide
    {
        type            symmetryPlane;
    }
}


// ************************************************************************* //
