/*--------------------------------*- C++ -*----------------------------------*\
| =========                 |                                                 |
| \\      /  F ield         | OpenFOAM: The Open Source CFD Toolbox           |
|  \\    /   O peration     | Version:  2.4.0                                 |
|   \\  /    A nd           | Web:      www.OpenFOAM.org                      |
|    \\/     M anipulation  |                                                 |
\*---------------------------------------------------------------------------*/
FoamFile
{
    version     2.0;
    format      ascii;
    class       volScalarField;
    location    "0.8";
    object      p;
}
// * * * * * * * * * * * * * * * * * * * * * * * * * * * * * * * * * * * * * //

dimensions      [1 -1 -2 0 0 0 0];

internalField   nonuniform List<scalar> 
500
(
0.306198
0.306205
0.306201
0.306204
0.306197
0.276729
0.276734
0.27673
0.276733
0.276729
0.244042
0.244045
0.244041
0.244045
0.244042
0.200762
0.20076
0.200756
0.200759
0.200761
0.155814
0.15582
0.155817
0.15582
0.155814
0.19248
0.192532
0.192528
0.192531
0.19248
0.48228
0.482399
0.482397
0.482399
0.482278
0.806715
0.806729
0.80673
0.806728
0.806712
-0.980123
-0.980665
-0.980667
-0.980665
-0.980124
-9.03712
-9.0382
-9.03822
-9.03819
-9.03709
-18.4722
-18.4724
-18.4725
-18.4724
-18.4721
-0.0168109
-0.0168105
-0.0168105
-0.0168105
-0.0168109
-0.00325171
-0.00325207
-0.00325207
-0.00325207
-0.00325171
-0.00598094
-0.00598088
-0.00598089
-0.00598088
-0.00598094
-0.00767885
-0.00767878
-0.00767879
-0.00767878
-0.00767885
-0.00841252
-0.00841252
-0.00841253
-0.00841252
-0.00841252
-0.00891796
-0.00891798
-0.00891799
-0.00891798
-0.00891796
-0.00946473
-0.00946474
-0.00946474
-0.00946474
-0.00946473
-0.0100553
-0.0100553
-0.0100553
-0.0100553
-0.0100553
-0.0106612
-0.0106612
-0.0106612
-0.0106612
-0.0106612
-0.0112724
-0.0112724
-0.0112724
-0.0112724
-0.0112724
-0.0118889
-0.0118889
-0.0118889
-0.0118889
-0.0118889
-0.012512
-0.012512
-0.012512
-0.012512
-0.012512
-0.0131421
-0.0131421
-0.0131421
-0.0131421
-0.0131421
-0.0137793
-0.0137793
-0.0137793
-0.0137793
-0.0137793
-0.0144236
-0.0144236
-0.0144236
-0.0144236
-0.0144236
-0.015075
-0.015075
-0.0150751
-0.015075
-0.015075
-0.0157338
-0.0157338
-0.0157338
-0.0157338
-0.0157338
-0.0163999
-0.0163999
-0.0163999
-0.0163999
-0.0163999
-0.0170734
-0.0170734
-0.0170735
-0.0170734
-0.0170734
-0.0177545
-0.0177545
-0.0177545
-0.0177545
-0.0177545
-0.0184432
-0.0184432
-0.0184432
-0.0184432
-0.0184432
-0.0191395
-0.0191395
-0.0191395
-0.0191395
-0.0191395
-0.0198436
-0.0198436
-0.0198436
-0.0198436
-0.0198436
-0.0205556
-0.0205556
-0.0205556
-0.0205556
-0.0205556
-0.0212755
-0.0212755
-0.0212755
-0.0212755
-0.0212755
-0.0220034
-0.0220034
-0.0220034
-0.0220034
-0.0220034
-0.0227395
-0.0227395
-0.0227395
-0.0227395
-0.0227395
-0.0234838
-0.0234838
-0.0234838
-0.0234838
-0.0234838
-0.0242364
-0.0242364
-0.0242364
-0.0242364
-0.0242364
-0.0249974
-0.0249974
-0.0249974
-0.0249974
-0.0249974
-0.0257668
-0.0257668
-0.0257668
-0.0257668
-0.0257668
-0.0265449
-0.0265449
-0.0265449
-0.0265449
-0.0265449
-0.0273316
-0.0273316
-0.0273316
-0.0273316
-0.0273316
-0.0281272
-0.0281272
-0.0281272
-0.0281272
-0.0281272
-0.0289316
-0.0289316
-0.0289316
-0.0289316
-0.0289316
-0.0297449
-0.029745
-0.029745
-0.029745
-0.0297449
-0.0305674
-0.0305674
-0.0305674
-0.0305674
-0.0305674
-0.031399
-0.031399
-0.031399
-0.031399
-0.031399
-0.0322399
-0.03224
-0.03224
-0.03224
-0.0322399
-0.0330902
-0.0330902
-0.0330903
-0.0330902
-0.0330902
-0.03395
-0.03395
-0.03395
-0.03395
-0.03395
-0.0348194
-0.0348194
-0.0348194
-0.0348194
-0.0348194
-0.0356985
-0.0356985
-0.0356985
-0.0356985
-0.0356985
-0.0365874
-0.0365874
-0.0365874
-0.0365874
-0.0365874
-0.0374862
-0.0374862
-0.0374862
-0.0374862
-0.0374862
-0.038395
-0.038395
-0.038395
-0.038395
-0.038395
-0.039314
-0.039314
-0.039314
-0.039314
-0.039314
-0.0402432
-0.0402432
-0.0402432
-0.0402432
-0.0402432
-0.0411828
-0.0411829
-0.0411829
-0.0411829
-0.0411828
-0.0421329
-0.0421329
-0.0421329
-0.0421329
-0.0421329
-0.0430936
-0.0430936
-0.0430936
-0.0430936
-0.0430936
-0.044065
-0.044065
-0.044065
-0.044065
-0.044065
-0.0450473
-0.0450473
-0.0450473
-0.0450473
-0.0450473
-0.0460405
-0.0460405
-0.0460405
-0.0460405
-0.0460405
-0.0470448
-0.0470448
-0.0470448
-0.0470448
-0.0470448
-0.0480603
-0.0480603
-0.0480603
-0.0480603
-0.0480603
-0.0490871
-0.0490871
-0.0490871
-0.0490871
-0.0490871
-0.0501254
-0.0501254
-0.0501254
-0.0501254
-0.0501254
-0.0511753
-0.0511753
-0.0511753
-0.0511753
-0.0511753
-0.0522369
-0.0522369
-0.0522369
-0.0522369
-0.0522369
-0.0533103
-0.0533103
-0.0533103
-0.0533103
-0.0533103
-0.0543958
-0.0543958
-0.0543958
-0.0543958
-0.0543958
-0.0554933
-0.0554933
-0.0554933
-0.0554933
-0.0554933
-0.0566031
-0.0566031
-0.0566031
-0.0566031
-0.0566031
-0.0577252
-0.0577252
-0.0577252
-0.0577252
-0.0577252
-0.0588599
-0.0588599
-0.0588599
-0.0588599
-0.0588599
-0.0600073
-0.0600073
-0.0600073
-0.0600073
-0.0600073
-0.0611674
-0.0611674
-0.0611674
-0.0611674
-0.0611674
-0.0623405
-0.0623405
-0.0623405
-0.0623405
-0.0623405
-0.0635267
-0.0635267
-0.0635267
-0.0635267
-0.0635267
-0.0647261
-0.0647261
-0.0647261
-0.0647261
-0.0647261
-0.0659389
-0.0659389
-0.0659389
-0.0659389
-0.0659389
-0.0671653
-0.0671653
-0.0671653
-0.0671653
-0.0671653
-0.0684053
-0.0684053
-0.0684053
-0.0684053
-0.0684053
-0.0696592
-0.0696592
-0.0696592
-0.0696592
-0.0696592
-0.070927
-0.070927
-0.070927
-0.070927
-0.070927
-0.072209
-0.072209
-0.072209
-0.072209
-0.072209
-0.0735053
-0.0735053
-0.0735053
-0.0735053
-0.0735053
-0.0748161
-0.0748161
-0.0748161
-0.0748161
-0.0748161
-0.0761415
-0.0761415
-0.0761415
-0.0761415
-0.0761415
-0.0774817
-0.0774817
-0.0774817
-0.0774817
-0.0774817
-0.0788368
-0.0788368
-0.0788368
-0.0788368
-0.0788368
-0.0802071
-0.0802071
-0.0802071
-0.0802071
-0.0802071
-0.0815926
-0.0815926
-0.0815926
-0.0815926
-0.0815926
-0.0829937
-0.0829937
-0.0829937
-0.0829937
-0.0829937
-0.0844103
-0.0844103
-0.0844103
-0.0844103
-0.0844103
-0.0858428
-0.0858428
-0.0858428
-0.0858428
-0.0858428
-0.0872912
-0.0872912
-0.0872912
-0.0872912
-0.0872912
-0.0887558
-0.0887558
-0.0887558
-0.0887558
-0.0887558
)
;

boundaryField
{
    BotWall
    {
        type            calculated;
        value           nonuniform List<scalar> 5(0.321018 0.321025 0.321021 0.321024 0.321018);
    }
    FreeStream
    {
        type            calculated;
        value           nonuniform List<scalar> 5(-0.0894922 -0.0894922 -0.0894922 -0.0894922 -0.0894922);
    }
    FrontNBack
    {
        type            empty;
    }
    LeftSide
    {
        type            symmetryPlane;
    }
    RightSide
    {
        type            symmetryPlane;
    }
}


// ************************************************************************* //
