/*--------------------------------*- C++ -*----------------------------------*\
| =========                 |                                                 |
| \\      /  F ield         | OpenFOAM: The Open Source CFD Toolbox           |
|  \\    /   O peration     | Version:  2.4.0                                 |
|   \\  /    A nd           | Web:      www.OpenFOAM.org                      |
|    \\/     M anipulation  |                                                 |
\*---------------------------------------------------------------------------*/
FoamFile
{
    version     2.0;
    format      ascii;
    class       volScalarField;
    location    "0.8";
    object      p_rgh;
}
// * * * * * * * * * * * * * * * * * * * * * * * * * * * * * * * * * * * * * //

dimensions      [1 -1 -2 0 0 0 0];

internalField   nonuniform List<scalar> 
500
(
0.321018
0.321025
0.321021
0.321024
0.321018
0.321356
0.32136
0.321356
0.32136
0.321355
0.318807
0.31881
0.318806
0.31881
0.318807
0.306001
0.305999
0.305996
0.305999
0.306001
0.291869
0.291875
0.291871
0.291875
0.291869
0.359694
0.359745
0.359742
0.359745
0.359694
0.681
0.68112
0.681117
0.681119
0.680998
1.03729
1.03731
1.03731
1.03731
1.03729
-0.717331
-0.717873
-0.717876
-0.717873
-0.717332
-8.74175
-8.74283
-8.74285
-8.74282
-8.74172
-18.3299
-18.3301
-18.3301
-18.33
-18.3298
-0.0108213
-0.010821
-0.010821
-0.010821
-0.0108213
0.00329563
0.00329527
0.00329527
0.00329528
0.00329563
0.00113042
0.00113048
0.00113047
0.00113048
0.00113042
2.82867e-06
2.8936e-06
2.88885e-06
2.89414e-06
2.82834e-06
-0.000154166
-0.000154169
-0.000154174
-0.000154168
-0.000154167
-7.64959e-05
-7.65156e-05
-7.65205e-05
-7.6515e-05
-7.6496e-05
-3.36363e-05
-3.36477e-05
-3.36525e-05
-3.3647e-05
-3.36364e-05
-2.80045e-05
-2.80098e-05
-2.80147e-05
-2.80092e-05
-2.80046e-05
-3.10276e-05
-3.10321e-05
-3.1037e-05
-3.10315e-05
-3.10276e-05
-3.26539e-05
-3.26591e-05
-3.2664e-05
-3.26585e-05
-3.26539e-05
-3.2807e-05
-3.28127e-05
-3.28175e-05
-3.28121e-05
-3.28071e-05
-3.26227e-05
-3.26284e-05
-3.26332e-05
-3.26277e-05
-3.26228e-05
-3.24945e-05
-3.25001e-05
-3.25048e-05
-3.24995e-05
-3.24945e-05
-3.24239e-05
-3.24294e-05
-3.24341e-05
-3.24287e-05
-3.24239e-05
-3.23656e-05
-3.23711e-05
-3.23758e-05
-3.23705e-05
-3.23656e-05
-3.23044e-05
-3.23098e-05
-3.23144e-05
-3.23092e-05
-3.23043e-05
-3.22401e-05
-3.22455e-05
-3.22501e-05
-3.22448e-05
-3.224e-05
-3.21745e-05
-3.21799e-05
-3.21844e-05
-3.21793e-05
-3.21745e-05
-3.21084e-05
-3.21136e-05
-3.21182e-05
-3.2113e-05
-3.21083e-05
-3.20415e-05
-3.20467e-05
-3.20512e-05
-3.20461e-05
-3.20414e-05
-3.19739e-05
-3.19791e-05
-3.19835e-05
-3.19785e-05
-3.19739e-05
-3.19056e-05
-3.19107e-05
-3.1915e-05
-3.19101e-05
-3.19055e-05
-3.18365e-05
-3.18415e-05
-3.18458e-05
-3.18409e-05
-3.18364e-05
-3.17666e-05
-3.17715e-05
-3.17758e-05
-3.17709e-05
-3.17665e-05
-3.16959e-05
-3.17008e-05
-3.17049e-05
-3.17002e-05
-3.16958e-05
-3.16244e-05
-3.16292e-05
-3.16333e-05
-3.16286e-05
-3.16243e-05
-3.15521e-05
-3.15569e-05
-3.15609e-05
-3.15563e-05
-3.1552e-05
-3.1479e-05
-3.14837e-05
-3.14876e-05
-3.14831e-05
-3.14789e-05
-3.14051e-05
-3.14097e-05
-3.14136e-05
-3.14091e-05
-3.14049e-05
-3.13303e-05
-3.13348e-05
-3.13387e-05
-3.13343e-05
-3.13302e-05
-3.12547e-05
-3.12592e-05
-3.12629e-05
-3.12586e-05
-3.12546e-05
-3.11783e-05
-3.11826e-05
-3.11863e-05
-3.11821e-05
-3.11781e-05
-3.1101e-05
-3.11052e-05
-3.11088e-05
-3.11047e-05
-3.11008e-05
-3.10228e-05
-3.1027e-05
-3.10305e-05
-3.10264e-05
-3.10226e-05
-3.09438e-05
-3.09479e-05
-3.09513e-05
-3.09473e-05
-3.09436e-05
-3.08639e-05
-3.08678e-05
-3.08712e-05
-3.08673e-05
-3.08637e-05
-3.07831e-05
-3.07869e-05
-3.07902e-05
-3.07864e-05
-3.07828e-05
-3.07013e-05
-3.07051e-05
-3.07083e-05
-3.07046e-05
-3.07011e-05
-3.06187e-05
-3.06224e-05
-3.06255e-05
-3.06219e-05
-3.06185e-05
-3.05351e-05
-3.05387e-05
-3.05418e-05
-3.05382e-05
-3.05349e-05
-3.04507e-05
-3.04542e-05
-3.04571e-05
-3.04537e-05
-3.04504e-05
-3.03652e-05
-3.03686e-05
-3.03715e-05
-3.03682e-05
-3.0365e-05
-3.02788e-05
-3.02821e-05
-3.0285e-05
-3.02817e-05
-3.02786e-05
-3.01915e-05
-3.01947e-05
-3.01974e-05
-3.01943e-05
-3.01913e-05
-3.01032e-05
-3.01063e-05
-3.01089e-05
-3.01059e-05
-3.01029e-05
-3.00139e-05
-3.00169e-05
-3.00195e-05
-3.00165e-05
-3.00136e-05
-2.99236e-05
-2.99265e-05
-2.9929e-05
-2.99261e-05
-2.99233e-05
-2.98323e-05
-2.98351e-05
-2.98375e-05
-2.98347e-05
-2.9832e-05
-2.97399e-05
-2.97427e-05
-2.9745e-05
-2.97423e-05
-2.97397e-05
-2.96466e-05
-2.96493e-05
-2.96515e-05
-2.96489e-05
-2.96464e-05
-2.95522e-05
-2.95548e-05
-2.9557e-05
-2.95544e-05
-2.9552e-05
-2.94568e-05
-2.94593e-05
-2.94614e-05
-2.94589e-05
-2.94566e-05
-2.93603e-05
-2.93627e-05
-2.93647e-05
-2.93623e-05
-2.93601e-05
-2.92627e-05
-2.92651e-05
-2.9267e-05
-2.92647e-05
-2.92625e-05
-2.91641e-05
-2.91663e-05
-2.91682e-05
-2.9166e-05
-2.91639e-05
-2.90644e-05
-2.90665e-05
-2.90683e-05
-2.90662e-05
-2.90642e-05
-2.89635e-05
-2.89656e-05
-2.89673e-05
-2.89653e-05
-2.89633e-05
-2.88616e-05
-2.88635e-05
-2.88652e-05
-2.88632e-05
-2.88614e-05
-2.87585e-05
-2.87603e-05
-2.87619e-05
-2.87601e-05
-2.87583e-05
-2.86542e-05
-2.8656e-05
-2.86576e-05
-2.86557e-05
-2.8654e-05
-2.85488e-05
-2.85505e-05
-2.8552e-05
-2.85503e-05
-2.85486e-05
-2.84423e-05
-2.84439e-05
-2.84453e-05
-2.84436e-05
-2.84421e-05
-2.83345e-05
-2.83361e-05
-2.83374e-05
-2.83358e-05
-2.83343e-05
-2.82256e-05
-2.82271e-05
-2.82283e-05
-2.82268e-05
-2.82254e-05
-2.81154e-05
-2.81169e-05
-2.81181e-05
-2.81166e-05
-2.81153e-05
-2.80041e-05
-2.80054e-05
-2.80066e-05
-2.80052e-05
-2.80039e-05
-2.78915e-05
-2.78927e-05
-2.78938e-05
-2.78925e-05
-2.78913e-05
-2.77776e-05
-2.77788e-05
-2.77799e-05
-2.77786e-05
-2.77775e-05
-2.76625e-05
-2.76636e-05
-2.76646e-05
-2.76635e-05
-2.76624e-05
-2.75461e-05
-2.75472e-05
-2.75481e-05
-2.7547e-05
-2.7546e-05
-2.74284e-05
-2.74295e-05
-2.74303e-05
-2.74293e-05
-2.74283e-05
-2.73095e-05
-2.73104e-05
-2.73112e-05
-2.73103e-05
-2.73093e-05
-2.71892e-05
-2.71901e-05
-2.71908e-05
-2.71899e-05
-2.7189e-05
-2.70675e-05
-2.70684e-05
-2.70691e-05
-2.70682e-05
-2.70674e-05
-2.69446e-05
-2.69453e-05
-2.6946e-05
-2.69452e-05
-2.69444e-05
-2.68202e-05
-2.68209e-05
-2.68215e-05
-2.68208e-05
-2.68201e-05
-2.66945e-05
-2.66952e-05
-2.66957e-05
-2.6695e-05
-2.66944e-05
-2.65674e-05
-2.6568e-05
-2.65685e-05
-2.65679e-05
-2.65673e-05
-2.64389e-05
-2.64394e-05
-2.64399e-05
-2.64393e-05
-2.64388e-05
-2.63089e-05
-2.63094e-05
-2.63098e-05
-2.63093e-05
-2.63088e-05
-2.61776e-05
-2.6178e-05
-2.61784e-05
-2.61779e-05
-2.61775e-05
-2.60447e-05
-2.60451e-05
-2.60454e-05
-2.6045e-05
-2.60446e-05
-2.59104e-05
-2.59107e-05
-2.5911e-05
-2.59107e-05
-2.59103e-05
-2.57746e-05
-2.57749e-05
-2.57751e-05
-2.57748e-05
-2.57745e-05
-2.56373e-05
-2.56376e-05
-2.56377e-05
-2.56375e-05
-2.56372e-05
-2.54985e-05
-2.54987e-05
-2.54988e-05
-2.54986e-05
-2.54984e-05
-2.53581e-05
-2.53583e-05
-2.53584e-05
-2.53582e-05
-2.53581e-05
-2.52162e-05
-2.52163e-05
-2.52163e-05
-2.52162e-05
-2.52161e-05
-2.50726e-05
-2.50727e-05
-2.50727e-05
-2.50726e-05
-2.50725e-05
)
;

boundaryField
{
    BotWall
    {
        type            fixedFluxPressure;
        gradient        uniform 0;
        value           nonuniform List<scalar> 5(0.321018 0.321025 0.321021 0.321024 0.321018);
    }
    FreeStream
    {
        type            totalPressure;
        rho             rho;
        psi             none;
        gamma           1;
        p0              uniform 0;
        value           nonuniform List<scalar> 5(-2.50003e-05 -2.50005e-05 -2.50005e-05 -2.50004e-05 -2.50003e-05);
    }
    FrontNBack
    {
        type            empty;
    }
    LeftSide
    {
        type            symmetryPlane;
    }
    RightSide
    {
        type            symmetryPlane;
    }
}


// ************************************************************************* //
