/*--------------------------------*- C++ -*----------------------------------*\
| =========                 |                                                 |
| \\      /  F ield         | OpenFOAM: The Open Source CFD Toolbox           |
|  \\    /   O peration     | Version:  2.4.0                                 |
|   \\  /    A nd           | Web:      www.OpenFOAM.org                      |
|    \\/     M anipulation  |                                                 |
\*---------------------------------------------------------------------------*/
FoamFile
{
    version     2.0;
    format      ascii;
    class       surfaceScalarField;
    location    "0.8";
    object      phi;
}
// * * * * * * * * * * * * * * * * * * * * * * * * * * * * * * * * * * * * * //

dimensions      [0 3 -1 0 0 0 0];

internalField   nonuniform List<scalar> 
895
(
7.45966e-19
-7.46207e-19
3.82951e-19
3.63158e-19
-4.16784e-19
8.00247e-19
-7.83356e-19
3.67317e-19
-7.83889e-19
2.28344e-18
-3.03868e-18
1.16596e-18
1.46576e-18
-1.26959e-18
3.21498e-18
-2.39722e-18
1.4785e-18
-3.19291e-18
3.86753e-18
-6.91671e-18
1.97062e-18
3.34644e-18
-2.14691e-18
7.31054e-18
-4.06055e-18
3.37528e-18
-7.26495e-18
5.52217e-18
-1.24501e-17
2.8082e-18
6.04373e-18
-3.06009e-18
1.31568e-17
-5.79788e-18
6.09656e-18
-1.30736e-17
7.21021e-18
-1.96717e-17
3.66599e-18
9.57169e-18
-3.99657e-18
2.07983e-17
-7.57127e-18
9.65586e-18
-2.06546e-17
8.96222e-18
-2.86448e-17
4.57021e-18
1.39487e-17
-4.98236e-18
3.03319e-17
-9.41145e-18
1.40714e-17
-3.00742e-17
1.07682e-17
-3.94227e-17
5.51084e-18
1.91931e-17
-6.0078e-18
4.18346e-17
-1.13085e-17
1.9361e-17
-4.1389e-17
1.28038e-17
-5.22338e-17
6.49508e-18
2.54924e-17
-7.08051e-18
5.53988e-17
-1.34383e-17
2.57112e-17
-5.48314e-17
1.51196e-17
-6.73575e-17
7.40134e-18
3.32055e-17
-8.08019e-18
7.08741e-17
-1.5855e-17
3.34819e-17
-7.06884e-17
1.73511e-17
-1.95455e-16
8.207e-18
4.23494e-17
-8.98063e-18
8.80617e-17
-1.82005e-17
4.27015e-17
-2.05102e-16
1.824e-17
-4.68298e-10
9.10974e-18
-4.68299e-10
-9.98145e-18
-4.68299e-10
-1.92468e-17
-4.68299e-10
-4.68298e-10
1.91673e-17
-4.68298e-10
9.68859e-18
-4.68299e-10
-1.06106e-17
-4.68299e-10
-2.01658e-17
-4.68299e-10
-4.68298e-10
2.34546e-17
-4.68298e-10
8.29234e-18
-4.68299e-10
-8.77516e-18
-4.68299e-10
-2.43335e-17
-4.68299e-10
-4.68298e-10
1.39471e-17
-4.68298e-10
7.43331e-18
-4.68299e-10
-7.43949e-18
-4.68299e-10
-1.46521e-17
-4.68299e-10
-4.68298e-10
1.02572e-17
-4.68298e-10
5.50099e-18
-4.68299e-10
-5.03877e-18
-4.68299e-10
-1.0796e-17
-4.68299e-10
-4.68298e-10
8.37364e-18
-4.68298e-10
3.699e-18
-4.68299e-10
-2.7787e-18
-4.68299e-10
-8.75037e-18
-4.68299e-10
-4.68298e-10
6.05426e-18
-4.68298e-10
2.20976e-18
-4.68299e-10
-8.42538e-19
-4.68299e-10
-6.26859e-18
-4.68299e-10
-4.68298e-10
3.35439e-18
-4.68298e-10
8.20952e-19
-4.68299e-10
9.82464e-19
-4.68299e-10
-3.40481e-18
-4.68299e-10
-4.68298e-10
7.24421e-19
-4.68298e-10
-5.43002e-19
-4.68299e-10
2.77176e-18
-4.68299e-10
-6.09821e-19
-4.68299e-10
-4.68298e-10
-1.70822e-18
-4.68298e-10
-1.85862e-18
-4.68299e-10
4.50151e-18
-4.68299e-10
1.98852e-18
-4.68299e-10
-4.68298e-10
-3.98006e-18
-4.68298e-10
-3.1015e-18
-4.68299e-10
6.14696e-18
-4.68299e-10
4.42645e-18
-4.68299e-10
-4.68298e-10
-6.12552e-18
-4.68298e-10
-4.26669e-18
-4.68299e-10
7.70285e-18
-4.68299e-10
6.73813e-18
-4.68299e-10
-4.68298e-10
-8.15049e-18
-4.68298e-10
-5.35647e-18
-4.68299e-10
9.17118e-18
-4.68299e-10
8.92919e-18
-4.68299e-10
-4.68298e-10
-1.00513e-17
-4.68298e-10
-6.37247e-18
-4.68299e-10
1.05533e-17
-4.68299e-10
1.09957e-17
-4.68299e-10
-4.68298e-10
-1.18255e-17
-4.68298e-10
-7.31494e-18
-4.68299e-10
1.18492e-17
-4.68299e-10
1.2935e-17
-4.68299e-10
-4.68298e-10
-1.34729e-17
-4.68298e-10
-8.18382e-18
-4.68299e-10
1.30586e-17
-4.68299e-10
1.47466e-17
-4.68299e-10
-4.68298e-10
-1.4994e-17
-4.68298e-10
-8.97925e-18
-4.68299e-10
1.41814e-17
-4.68299e-10
1.64307e-17
-4.68299e-10
-4.68298e-10
-1.63896e-17
-4.68298e-10
-9.70161e-18
-4.68299e-10
1.52178e-17
-4.68299e-10
1.79878e-17
-4.68299e-10
-4.68298e-10
-1.76602e-17
-4.68298e-10
-1.03514e-17
-4.68299e-10
1.61681e-17
-4.68299e-10
1.94184e-17
-4.68299e-10
-4.68298e-10
-1.8807e-17
-4.68298e-10
-1.09294e-17
-4.68299e-10
1.70329e-17
-4.68299e-10
2.07231e-17
-4.68299e-10
-4.68298e-10
-1.9831e-17
-4.68298e-10
-1.14362e-17
-4.68299e-10
1.78128e-17
-4.68299e-10
2.19028e-17
-4.68299e-10
-4.68298e-10
-2.07337e-17
-4.68298e-10
-1.18728e-17
-4.68299e-10
1.85086e-17
-4.68299e-10
2.29588e-17
-4.68299e-10
-4.68298e-10
-2.15168e-17
-4.68298e-10
-1.22403e-17
-4.68299e-10
1.91213e-17
-4.68299e-10
2.38923e-17
-4.68299e-10
-4.68298e-10
-2.2182e-17
-4.68298e-10
-1.25399e-17
-4.68299e-10
1.9652e-17
-4.68299e-10
2.47051e-17
-4.68299e-10
-4.68298e-10
-2.27315e-17
-4.68298e-10
-1.27727e-17
-4.68299e-10
2.01019e-17
-4.68299e-10
2.53989e-17
-4.68299e-10
-4.68298e-10
-2.31675e-17
-4.68298e-10
-1.29404e-17
-4.68299e-10
2.04725e-17
-4.68299e-10
2.59758e-17
-4.68299e-10
-4.68298e-10
-2.34925e-17
-4.68298e-10
-1.30444e-17
-4.68299e-10
2.07654e-17
-4.68299e-10
2.6438e-17
-4.68299e-10
-4.68298e-10
-2.37094e-17
-4.68298e-10
-1.30865e-17
-4.68299e-10
2.09823e-17
-4.68299e-10
2.67882e-17
-4.68299e-10
-4.68298e-10
-2.38208e-17
-4.68298e-10
-1.30683e-17
-4.68299e-10
2.1125e-17
-4.68299e-10
2.70288e-17
-4.68299e-10
-4.68298e-10
-2.38301e-17
-4.68298e-10
-1.2992e-17
-4.68299e-10
2.11956e-17
-4.68299e-10
2.71629e-17
-4.68299e-10
-4.68298e-10
-2.37404e-17
-4.68298e-10
-1.28593e-17
-4.68299e-10
2.11961e-17
-4.68299e-10
2.71936e-17
-4.68299e-10
-4.68298e-10
-2.35553e-17
-4.68298e-10
-1.26726e-17
-4.68299e-10
2.11289e-17
-4.68299e-10
2.71242e-17
-4.68299e-10
-4.68298e-10
-2.32784e-17
-4.68298e-10
-1.24341e-17
-4.68299e-10
2.09964e-17
-4.68299e-10
2.69581e-17
-4.68299e-10
-4.68298e-10
-2.29135e-17
-4.68298e-10
-1.21459e-17
-4.68299e-10
2.08011e-17
-4.68299e-10
2.66991e-17
-4.68299e-10
-4.68298e-10
-2.24646e-17
-4.68298e-10
-1.18107e-17
-4.68299e-10
2.05456e-17
-4.68299e-10
2.6351e-17
-4.68299e-10
-4.68298e-10
-2.1936e-17
-4.68298e-10
-1.14309e-17
-4.68299e-10
2.02327e-17
-4.68299e-10
2.59177e-17
-4.68299e-10
-4.68298e-10
-2.13317e-17
-4.68298e-10
-1.10091e-17
-4.68299e-10
1.98652e-17
-4.683e-10
2.54035e-17
-4.68299e-10
-4.68297e-10
-2.06562e-17
-4.68298e-10
-1.05479e-17
-4.68299e-10
1.94461e-17
-4.683e-10
2.48126e-17
-4.68299e-10
-4.68297e-10
-1.99141e-17
-4.68298e-10
-1.00501e-17
-4.68299e-10
1.89784e-17
-4.683e-10
2.41495e-17
-4.68299e-10
-4.68297e-10
-1.91099e-17
-4.68298e-10
-9.51838e-18
-4.68299e-10
1.84651e-17
-4.683e-10
2.34187e-17
-4.68299e-10
-4.68297e-10
-1.82484e-17
-4.68298e-10
-8.95562e-18
-4.68299e-10
1.79096e-17
-4.683e-10
2.26249e-17
-4.68299e-10
-4.68297e-10
-1.73342e-17
-4.68298e-10
-8.36466e-18
-4.68299e-10
1.73149e-17
-4.683e-10
2.17727e-17
-4.68299e-10
-4.68297e-10
-1.63722e-17
-4.68297e-10
-7.74839e-18
-4.68299e-10
1.66844e-17
-4.683e-10
2.08671e-17
-4.68299e-10
-4.68297e-10
-1.53673e-17
-4.68297e-10
-7.10971e-18
-4.68299e-10
1.60214e-17
-4.683e-10
1.99128e-17
-4.68299e-10
-4.68297e-10
-1.43244e-17
-4.68297e-10
-6.45154e-18
-4.68299e-10
1.53292e-17
-4.683e-10
1.89148e-17
-4.68299e-10
-4.68297e-10
-1.32484e-17
-4.68297e-10
-5.7768e-18
-4.68299e-10
1.46113e-17
-4.683e-10
1.78781e-17
-4.68299e-10
-4.68297e-10
-1.21442e-17
-4.68297e-10
-5.0884e-18
-4.68299e-10
1.38709e-17
-4.683e-10
1.68075e-17
-4.68299e-10
-4.68297e-10
-1.10167e-17
-4.68297e-10
-4.38922e-18
-4.68299e-10
1.31115e-17
-4.683e-10
1.57081e-17
-4.68299e-10
-4.68297e-10
-9.87065e-18
-4.68297e-10
-3.68214e-18
-4.68299e-10
1.23363e-17
-4.683e-10
1.45848e-17
-4.68299e-10
-4.68297e-10
-8.71092e-18
-4.68297e-10
-2.96996e-18
-4.68299e-10
1.15488e-17
-4.683e-10
1.34424e-17
-4.68299e-10
-4.68297e-10
-7.5422e-18
-4.68297e-10
-2.25546e-18
-4.68299e-10
1.07522e-17
-4.683e-10
1.22859e-17
-4.68299e-10
-4.68297e-10
-6.36913e-18
-4.68297e-10
-1.54135e-18
-4.68299e-10
9.94973e-18
-4.683e-10
1.11199e-17
-4.68299e-10
-4.68297e-10
-5.19621e-18
-4.68297e-10
-8.30286e-19
-4.68299e-10
9.14456e-18
-4.683e-10
9.94917e-18
-4.68299e-10
-4.68297e-10
-4.02784e-18
-4.68297e-10
-1.24816e-19
-4.68299e-10
8.33979e-18
-4.683e-10
8.77824e-18
-4.68299e-10
-4.68297e-10
-2.86828e-18
-4.68297e-10
5.72584e-19
-4.68299e-10
7.53844e-18
-4.683e-10
7.61155e-18
-4.68299e-10
-4.68297e-10
-1.72161e-18
-4.68297e-10
1.25954e-18
-4.68299e-10
6.74344e-18
-4.683e-10
6.45341e-18
-4.68299e-10
-4.68297e-10
-5.91772e-19
-4.68297e-10
1.9338e-18
-4.68299e-10
5.95759e-18
-4.683e-10
5.30793e-18
-4.68299e-10
-4.68297e-10
5.17515e-19
-4.68297e-10
2.59321e-18
-4.68299e-10
5.1836e-18
-4.683e-10
4.17908e-18
-4.68299e-10
-4.68297e-10
1.60272e-18
-4.68297e-10
3.23576e-18
-4.68299e-10
4.42403e-18
-4.683e-10
3.07062e-18
-4.68299e-10
-4.68297e-10
2.66053e-18
-4.68297e-10
3.85957e-18
-4.68299e-10
3.68131e-18
-4.683e-10
1.98611e-18
-4.68299e-10
-4.68297e-10
3.68787e-18
-4.68297e-10
4.46291e-18
-4.68299e-10
2.95774e-18
-4.683e-10
9.28889e-19
-4.68299e-10
-4.68297e-10
4.68192e-18
-4.68297e-10
5.04421e-18
-4.68299e-10
2.25545e-18
-4.683e-10
-9.79458e-20
-4.68299e-10
-4.68297e-10
5.64009e-18
-4.68297e-10
5.60204e-18
-4.68299e-10
1.5764e-18
-4.683e-10
-1.09154e-18
-4.68299e-10
-4.68297e-10
6.5601e-18
-4.68297e-10
6.13517e-18
-4.68299e-10
9.22397e-19
-4.683e-10
-2.04931e-18
-4.68299e-10
-4.68297e-10
7.43992e-18
-4.68297e-10
6.64251e-18
-4.68299e-10
2.95056e-19
-4.683e-10
-2.96894e-18
-4.68299e-10
-4.68297e-10
8.27783e-18
-4.68297e-10
7.12317e-18
-4.68299e-10
-3.0419e-19
-4.683e-10
-3.84838e-18
-4.68299e-10
-4.68297e-10
9.07241e-18
-4.68297e-10
7.57646e-18
-4.68299e-10
-8.74101e-19
-4.683e-10
-4.6859e-18
-4.68299e-10
-4.68297e-10
9.82252e-18
-4.68297e-10
8.00185e-18
-4.68299e-10
-1.41363e-18
-4.683e-10
-5.48006e-18
-4.68299e-10
-4.68297e-10
1.05274e-17
-4.68297e-10
8.39903e-18
-4.68299e-10
-1.92195e-18
-4.683e-10
-6.22971e-18
-4.68299e-10
-4.68297e-10
1.11865e-17
-4.68297e-10
8.76789e-18
-4.68299e-10
-2.39842e-18
-4.683e-10
-6.93405e-18
-4.68299e-10
-4.68297e-10
1.17998e-17
-4.68297e-10
9.10852e-18
-4.68299e-10
-2.84262e-18
-4.683e-10
-7.59257e-18
-4.68299e-10
-4.68297e-10
1.23673e-17
-4.68298e-10
9.42121e-18
-4.68299e-10
-3.25435e-18
-4.683e-10
-8.20509e-18
-4.68299e-10
-4.68297e-10
1.28897e-17
-4.68298e-10
9.70647e-18
-4.68299e-10
-3.63364e-18
-4.683e-10
-8.77178e-18
-4.68299e-10
-4.68297e-10
1.33677e-17
-4.68298e-10
9.96503e-18
-4.68299e-10
-3.98072e-18
-4.683e-10
-9.29311e-18
-4.68299e-10
-4.68297e-10
1.38027e-17
-4.68298e-10
1.01978e-17
-4.68299e-10
-4.29607e-18
-4.683e-10
-9.7699e-18
-4.68299e-10
-4.68297e-10
1.4196e-17
-4.68298e-10
1.0406e-17
-4.68299e-10
-4.58037e-18
-4.683e-10
-1.02033e-17
-4.68299e-10
-4.68297e-10
1.45497e-17
-4.68298e-10
1.05909e-17
-4.68299e-10
-4.83456e-18
-4.683e-10
-1.05948e-17
-4.68299e-10
-4.68297e-10
1.48659e-17
-4.68298e-10
1.07542e-17
-4.68299e-10
-5.05979e-18
-4.683e-10
-1.09462e-17
-4.68299e-10
-4.68297e-10
1.51473e-17
-4.68298e-10
1.08976e-17
-4.68299e-10
-5.25746e-18
-4.683e-10
-1.12598e-17
-4.68299e-10
-4.68297e-10
1.53967e-17
-4.68298e-10
1.10233e-17
-4.68299e-10
-5.42921e-18
-4.683e-10
-1.15378e-17
-4.68299e-10
-4.68297e-10
1.56175e-17
-4.68298e-10
1.11334e-17
-4.68299e-10
-5.57689e-18
-4.683e-10
-1.17833e-17
-4.68299e-10
-4.68297e-10
1.58133e-17
-4.68298e-10
1.12304e-17
-4.68299e-10
-5.70263e-18
-4.683e-10
-1.19994e-17
-4.68299e-10
-4.68297e-10
1.5988e-17
-4.68298e-10
1.1317e-17
-4.68299e-10
-5.80875e-18
-4.683e-10
-1.21894e-17
-4.68299e-10
-4.68297e-10
1.61459e-17
-4.68298e-10
1.13962e-17
-4.68299e-10
-5.89787e-18
-4.683e-10
-1.23573e-17
-4.68299e-10
-4.68297e-10
1.62917e-17
-4.68298e-10
1.1471e-17
-4.68299e-10
-5.97281e-18
-4.683e-10
-1.25072e-17
-4.68299e-10
-4.68297e-10
1.64302e-17
-4.68298e-10
1.15449e-17
-4.68299e-10
-6.03658e-18
-4.683e-10
-1.26434e-17
-4.68299e-10
-4.68297e-10
1.65665e-17
-4.68298e-10
1.16212e-17
-4.68299e-10
-6.09236e-18
-4.683e-10
-1.27705e-17
-4.68299e-10
-4.68297e-10
1.67067e-17
-4.68298e-10
1.17039e-17
-4.68299e-10
-6.14391e-18
-4.683e-10
-1.28938e-17
-4.68299e-10
-4.68297e-10
1.68592e-17
-4.68298e-10
1.17989e-17
-4.68299e-10
-6.19664e-18
-4.683e-10
-1.30211e-17
-4.68299e-10
-4.68297e-10
1.70486e-17
1.19187e-17
-6.26502e-18
-1.31745e-17
)
;

boundaryField
{
    BotWall
    {
        type            calculated;
        value           nonuniform List<scalar> 5(1.74248e-22 -5.24196e-22 -8.64803e-22 -6.51525e-22 3.18884e-22);
    }
    FreeStream
    {
        type            calculated;
        value           nonuniform List<scalar> 5(-4.68298e-10 -4.68299e-10 -4.683e-10 -4.68299e-10 -4.68297e-10);
    }
    FrontNBack
    {
        type            empty;
        value           nonuniform 0();
    }
    LeftSide
    {
        type            symmetryPlane;
        value           uniform 0;
    }
    RightSide
    {
        type            symmetryPlane;
        value           uniform 0;
    }
}


// ************************************************************************* //
