/*--------------------------------*- C++ -*----------------------------------*\
| =========                 |                                                 |
| \\      /  F ield         | OpenFOAM: The Open Source CFD Toolbox           |
|  \\    /   O peration     | Version:  2.4.0                                 |
|   \\  /    A nd           | Web:      www.OpenFOAM.org                      |
|    \\/     M anipulation  |                                                 |
\*---------------------------------------------------------------------------*/
FoamFile
{
    version     2.0;
    format      ascii;
    class       volVectorField;
    location    "0.8";
    object      U;
}
// * * * * * * * * * * * * * * * * * * * * * * * * * * * * * * * * * * * * * //

dimensions      [0 1 -1 0 0 0 0];

internalField   nonuniform List<vector> 
500
(
(2.63115e-10 8.58636e-09 0)
(2.82076e-10 8.61244e-09 0)
(-4.42865e-12 8.61281e-09 0)
(-2.97926e-10 8.61245e-09 0)
(-2.74469e-10 8.58633e-09 0)
(7.95843e-10 1.96189e-08 0)
(8.51923e-10 1.95966e-08 0)
(-1.34529e-11 1.96014e-08 0)
(-8.99755e-10 1.95966e-08 0)
(-8.30022e-10 1.96184e-08 0)
(1.33309e-09 4.75571e-08 0)
(1.42554e-09 4.76656e-08 0)
(-2.26803e-11 4.76786e-08 0)
(-1.50588e-09 4.76657e-08 0)
(-1.39041e-09 4.75559e-08 0)
(1.88279e-09 -1.3219e-07 0)
(2.01059e-09 -1.32357e-07 0)
(-3.21238e-11 -1.3233e-07 0)
(-2.12402e-09 -1.32357e-07 0)
(-1.96363e-09 -1.32192e-07 0)
(2.4339e-09 -6.48655e-07 0)
(2.59574e-09 -6.48665e-07 0)
(-4.17851e-11 -6.48622e-07 0)
(-2.74275e-09 -6.48664e-07 0)
(-2.53854e-09 -6.48657e-07 0)
(3.00009e-09 -9.63882e-07 0)
(3.19478e-09 -9.63729e-07 0)
(-5.16335e-11 -9.63664e-07 0)
(-3.37579e-09 -9.63727e-07 0)
(-3.12878e-09 -9.63883e-07 0)
(3.5759e-09 3.09898e-06 0)
(3.80207e-09 3.10153e-06 0)
(-6.16951e-11 3.10163e-06 0)
(-4.01759e-09 3.10153e-06 0)
(-3.72894e-09 3.09897e-06 0)
(4.19161e-09 1.7693e-05 0)
(4.44791e-09 1.76975e-05 0)
(-7.20037e-11 1.76976e-05 0)
(-4.6986e-09 1.76974e-05 0)
(-4.36943e-09 1.7693e-05 0)
(4.82065e-09 2.26747e-05 0)
(5.10363e-09 2.26741e-05 0)
(-8.27647e-11 2.26744e-05 0)
(-5.39081e-09 2.2674e-05 0)
(-5.02413e-09 2.26745e-05 0)
(5.37606e-09 -6.99418e-05 0)
(5.68827e-09 -6.99648e-05 0)
(-9.37625e-11 -6.99647e-05 0)
(-6.01305e-09 -6.99647e-05 0)
(-5.60611e-09 -6.99417e-05 0)
(5.71234e-09 -0.000548373 0)
(6.05719e-09 -0.000548411 0)
(-1.06061e-10 -0.000548412 0)
(-6.4246e-09 -0.000548411 0)
(-5.97269e-09 -0.000548372 0)
(6.00794e-09 -0.00176362 0)
(6.35901e-09 -0.00176359 0)
(-1.08889e-10 -0.00176359 0)
(-6.73604e-09 -0.00176359 0)
(-6.2751e-09 -0.00176362 0)
(6.41088e-09 -0.00407138 0)
(6.35059e-09 -0.00407135 0)
(-1.07653e-11 -0.00407135 0)
(-6.63635e-09 -0.00407135 0)
(-6.68315e-09 -0.00407139 0)
(4.84103e-09 -0.00241477 0)
(4.35717e-09 -0.00241483 0)
(9.09344e-11 -0.00241483 0)
(-4.53908e-09 -0.00241483 0)
(-5.10947e-09 -0.00241477 0)
(3.85931e-09 -0.0022482 0)
(2.98359e-09 -0.00224821 0)
(1.87171e-10 -0.00224821 0)
(-3.06486e-09 -0.00224821 0)
(-4.12173e-09 -0.0022482 0)
(3.20342e-09 -0.0022911 0)
(1.96264e-09 -0.00229109 0)
(2.78493e-10 -0.00229109 0)
(-1.94707e-09 -0.00229109 0)
(-3.45876e-09 -0.0022911 0)
(2.57802e-09 -0.00233704 0)
(9.98779e-10 -0.00233704 0)
(3.64998e-10 -0.00233704 0)
(-8.89756e-10 -0.00233704 0)
(-2.82491e-09 -0.00233704 0)
(1.92693e-09 -0.00234569 0)
(3.49352e-11 -0.00234569 0)
(4.46864e-10 -0.00234569 0)
(1.64485e-10 -0.00234569 0)
(-2.16387e-09 -0.00234569 0)
(1.29563e-09 -0.00234349 0)
(-8.83961e-10 -0.00234349 0)
(5.24169e-10 -0.00234349 0)
(1.17074e-09 -0.00234349 0)
(-1.52118e-09 -0.00234349 0)
(7.09262e-10 -0.00234167 0)
(-1.73332e-09 -0.00234167 0)
(5.96976e-10 -0.00234167 0)
(2.10436e-09 -0.00234167 0)
(-9.22088e-10 -0.00234167 0)
(1.68261e-10 -0.00234132 0)
(-2.51326e-09 -0.00234132 0)
(6.65355e-10 -0.00234132 0)
(2.96543e-09 -0.00234132 0)
(-3.67155e-10 -0.00234132 0)
(-3.32229e-10 -0.00234141 0)
(-3.22926e-09 -0.00234141 0)
(7.29382e-10 -0.00234141 0)
(3.75941e-09 -0.00234141 0)
(1.48381e-10 -0.00234141 0)
(-7.94866e-10 -0.00234148 0)
(-3.8846e-09 -0.00234149 0)
(7.89137e-10 -0.00234149 0)
(4.48956e-09 -0.00234149 0)
(6.2708e-10 -0.00234148 0)
(-1.22066e-09 -0.0023415 0)
(-4.48094e-09 -0.0023415 0)
(8.44705e-10 -0.0023415 0)
(5.15753e-09 -0.0023415 0)
(1.06985e-09 -0.0023415 0)
(-1.61037e-09 -0.00234149 0)
(-5.01971e-09 -0.0023415 0)
(8.96174e-10 -0.0023415 0)
(5.76476e-09 -0.0023415 0)
(1.47736e-09 -0.00234149 0)
(-1.96494e-09 -0.00234149 0)
(-5.50255e-09 -0.00234149 0)
(9.43633e-10 -0.00234149 0)
(6.31285e-09 -0.00234149 0)
(1.85047e-09 -0.00234149 0)
(-2.28545e-09 -0.00234149 0)
(-5.93122e-09 -0.00234149 0)
(9.87177e-10 -0.00234149 0)
(6.80359e-09 -0.00234149 0)
(2.19013e-09 -0.00234149 0)
(-2.57298e-09 -0.00234149 0)
(-6.30754e-09 -0.00234149 0)
(1.0269e-09 -0.00234149 0)
(7.23879e-09 -0.00234149 0)
(2.49736e-09 -0.00234149 0)
(-2.82865e-09 -0.00234149 0)
(-6.63334e-09 -0.00234149 0)
(1.06291e-09 -0.00234149 0)
(7.6203e-09 -0.00234149 0)
(2.77318e-09 -0.00234149 0)
(-3.05359e-09 -0.00234149 0)
(-6.91051e-09 -0.00234149 0)
(1.0953e-09 -0.00234149 0)
(7.95001e-09 -0.00234149 0)
(3.01861e-09 -0.00234149 0)
(-3.24891e-09 -0.00234149 0)
(-7.14092e-09 -0.00234149 0)
(1.12417e-09 -0.00234149 0)
(8.2298e-09 -0.00234149 0)
(3.23471e-09 -0.00234149 0)
(-3.41577e-09 -0.00234149 0)
(-7.32648e-09 -0.00234149 0)
(1.14964e-09 -0.00234149 0)
(8.46162e-09 -0.00234149 0)
(3.42252e-09 -0.00234149 0)
(-3.55533e-09 -0.00234149 0)
(-7.46914e-09 -0.00234149 0)
(1.17181e-09 -0.0023415 0)
(8.64743e-09 -0.00234149 0)
(3.58314e-09 -0.00234149 0)
(-3.66875e-09 -0.00234149 0)
(-7.57084e-09 -0.00234149 0)
(1.1908e-09 -0.0023415 0)
(8.7892e-09 -0.00234149 0)
(3.71764e-09 -0.00234149 0)
(-3.75721e-09 -0.00234149 0)
(-7.63354e-09 -0.00234149 0)
(1.20671e-09 -0.0023415 0)
(8.88894e-09 -0.00234149 0)
(3.82713e-09 -0.00234149 0)
(-3.8219e-09 -0.00234149 0)
(-7.65922e-09 -0.00234149 0)
(1.21966e-09 -0.0023415 0)
(8.94864e-09 -0.00234149 0)
(3.91271e-09 -0.00234149 0)
(-3.864e-09 -0.00234149 0)
(-7.64986e-09 -0.00234149 0)
(1.22976e-09 -0.0023415 0)
(8.97033e-09 -0.00234149 0)
(3.9755e-09 -0.00234149 0)
(-3.88469e-09 -0.00234149 0)
(-7.60744e-09 -0.00234149 0)
(1.23714e-09 -0.0023415 0)
(8.95604e-09 -0.00234149 0)
(4.01661e-09 -0.00234149 0)
(-3.88516e-09 -0.00234149 0)
(-7.53393e-09 -0.00234149 0)
(1.24191e-09 -0.0023415 0)
(8.90779e-09 -0.00234149 0)
(4.03718e-09 -0.00234149 0)
(-3.8666e-09 -0.00234149 0)
(-7.43132e-09 -0.00234149 0)
(1.24418e-09 -0.0023415 0)
(8.82761e-09 -0.00234149 0)
(4.03831e-09 -0.00234149 0)
(-3.83019e-09 -0.00234149 0)
(-7.30156e-09 -0.00234149 0)
(1.24408e-09 -0.0023415 0)
(8.71754e-09 -0.00234149 0)
(4.02114e-09 -0.00234149 0)
(-3.77711e-09 -0.00234149 0)
(-7.14662e-09 -0.00234149 0)
(1.24172e-09 -0.0023415 0)
(8.57957e-09 -0.00234149 0)
(3.98678e-09 -0.00234149 0)
(-3.70851e-09 -0.00234149 0)
(-6.96843e-09 -0.00234149 0)
(1.23723e-09 -0.0023415 0)
(8.41572e-09 -0.00234149 0)
(3.93635e-09 -0.00234149 0)
(-3.62555e-09 -0.00234149 0)
(-6.76892e-09 -0.00234149 0)
(1.23072e-09 -0.0023415 0)
(8.22797e-09 -0.00234149 0)
(3.87096e-09 -0.00234149 0)
(-3.52938e-09 -0.00234149 0)
(-6.54996e-09 -0.00234149 0)
(1.22231e-09 -0.0023415 0)
(8.01829e-09 -0.00234149 0)
(3.79171e-09 -0.00234149 0)
(-3.42112e-09 -0.00234149 0)
(-6.31345e-09 -0.00234149 0)
(1.21212e-09 -0.0023415 0)
(7.78862e-09 -0.00234149 0)
(3.69968e-09 -0.00234149 0)
(-3.30189e-09 -0.00234149 0)
(-6.06121e-09 -0.00234149 0)
(1.20027e-09 -0.0023415 0)
(7.54088e-09 -0.00234149 0)
(3.59596e-09 -0.00234149 0)
(-3.17278e-09 -0.00234149 0)
(-5.79504e-09 -0.00234149 0)
(1.18686e-09 -0.0023415 0)
(7.27694e-09 -0.00234149 0)
(3.4816e-09 -0.00234149 0)
(-3.03486e-09 -0.00234149 0)
(-5.51672e-09 -0.00234149 0)
(1.17202e-09 -0.0023415 0)
(6.99867e-09 -0.00234149 0)
(3.35766e-09 -0.00234149 0)
(-2.88917e-09 -0.00234149 0)
(-5.22797e-09 -0.00234149 0)
(1.15586e-09 -0.0023415 0)
(6.70787e-09 -0.00234149 0)
(3.22514e-09 -0.00234149 0)
(-2.73675e-09 -0.00234149 0)
(-4.93047e-09 -0.00234149 0)
(1.13849e-09 -0.0023415 0)
(6.40632e-09 -0.00234149 0)
(3.08507e-09 -0.00234149 0)
(-2.57859e-09 -0.00234149 0)
(-4.62585e-09 -0.0023415 0)
(1.12001e-09 -0.0023415 0)
(6.09572e-09 -0.00234149 0)
(2.93842e-09 -0.00234149 0)
(-2.41567e-09 -0.00234149 0)
(-4.3157e-09 -0.0023415 0)
(1.10055e-09 -0.0023415 0)
(5.77777e-09 -0.00234149 0)
(2.78615e-09 -0.00234149 0)
(-2.24891e-09 -0.00234149 0)
(-4.00155e-09 -0.0023415 0)
(1.08019e-09 -0.0023415 0)
(5.45408e-09 -0.00234149 0)
(2.6292e-09 -0.00234149 0)
(-2.07923e-09 -0.00234149 0)
(-3.68488e-09 -0.0023415 0)
(1.05905e-09 -0.0023415 0)
(5.12623e-09 -0.00234149 0)
(2.46846e-09 -0.00234149 0)
(-1.9075e-09 -0.00234149 0)
(-3.36709e-09 -0.0023415 0)
(1.03722e-09 -0.0023415 0)
(4.79572e-09 -0.00234149 0)
(2.30482e-09 -0.00234149 0)
(-1.73457e-09 -0.00234149 0)
(-3.04955e-09 -0.0023415 0)
(1.0148e-09 -0.0023415 0)
(4.46401e-09 -0.00234149 0)
(2.13911e-09 -0.00234149 0)
(-1.56123e-09 -0.00234149 0)
(-2.73353e-09 -0.0023415 0)
(9.91895e-10 -0.0023415 0)
(4.13248e-09 -0.00234149 0)
(1.97213e-09 -0.00234149 0)
(-1.38825e-09 -0.00234149 0)
(-2.42028e-09 -0.0023415 0)
(9.68584e-10 -0.0023415 0)
(3.80245e-09 -0.00234149 0)
(1.80467e-09 -0.00234149 0)
(-1.21635e-09 -0.00234149 0)
(-2.11093e-09 -0.0023415 0)
(9.44959e-10 -0.0023415 0)
(3.47518e-09 -0.00234149 0)
(1.63747e-09 -0.00234149 0)
(-1.04622e-09 -0.00234149 0)
(-1.80659e-09 -0.0023415 0)
(9.21108e-10 -0.0023415 0)
(3.15186e-09 -0.00234149 0)
(1.47122e-09 -0.00234149 0)
(-8.78508e-10 -0.00234149 0)
(-1.50826e-09 -0.0023415 0)
(8.97111e-10 -0.0023415 0)
(2.83359e-09 -0.00234149 0)
(1.30658e-09 -0.00234149 0)
(-7.13805e-10 -0.00234149 0)
(-1.21689e-09 -0.0023415 0)
(8.73048e-10 -0.0023415 0)
(2.52143e-09 -0.00234149 0)
(1.14418e-09 -0.00234149 0)
(-5.52674e-10 -0.00234149 0)
(-9.33344e-10 -0.0023415 0)
(8.48996e-10 -0.0023415 0)
(2.21633e-09 -0.00234149 0)
(9.84592e-10 -0.00234149 0)
(-3.95628e-10 -0.00234149 0)
(-6.58425e-10 -0.0023415 0)
(8.25026e-10 -0.0023415 0)
(1.91918e-09 -0.00234149 0)
(8.28362e-10 -0.00234149 0)
(-2.43138e-10 -0.00234149 0)
(-3.9285e-10 -0.0023415 0)
(8.01207e-10 -0.0023415 0)
(1.6308e-09 -0.00234149 0)
(6.75986e-10 -0.00234149 0)
(-9.56275e-11 -0.00234149 0)
(-1.37264e-10 -0.0023415 0)
(7.77605e-10 -0.0023415 0)
(1.35193e-09 -0.00234149 0)
(5.27917e-10 -0.00234149 0)
(4.65224e-11 -0.00234149 0)
(1.07765e-10 -0.0023415 0)
(7.54281e-10 -0.0023415 0)
(1.08323e-09 -0.00234149 0)
(3.84566e-10 -0.00234149 0)
(1.82977e-10 -0.00234149 0)
(3.41743e-10 -0.0023415 0)
(7.31296e-10 -0.0023415 0)
(8.25277e-10 -0.00234149 0)
(2.463e-10 -0.00234149 0)
(3.13446e-10 -0.00234149 0)
(5.64252e-10 -0.0023415 0)
(7.08704e-10 -0.0023415 0)
(5.78581e-10 -0.00234149 0)
(1.13443e-10 -0.00234149 0)
(4.37684e-10 -0.00234149 0)
(7.7495e-10 -0.0023415 0)
(6.86556e-10 -0.0023415 0)
(3.43569e-10 -0.00234149 0)
(-1.37241e-11 -0.00234149 0)
(5.55489e-10 -0.00234149 0)
(9.73567e-10 -0.0023415 0)
(6.64902e-10 -0.0023415 0)
(1.20594e-10 -0.00234149 0)
(-1.34965e-10 -0.00234149 0)
(6.66706e-10 -0.00234149 0)
(1.15991e-09 -0.0023415 0)
(6.43786e-10 -0.0023415 0)
(-9.00665e-11 -0.00234149 0)
(-2.50086e-10 -0.00234149 0)
(7.71219e-10 -0.00234149 0)
(1.33385e-09 -0.0023415 0)
(6.23251e-10 -0.0023415 0)
(-2.88211e-10 -0.00234149 0)
(-3.58934e-10 -0.00234149 0)
(8.68956e-10 -0.00234149 0)
(1.49534e-09 -0.0023415 0)
(6.03334e-10 -0.0023415 0)
(-4.7371e-10 -0.00234149 0)
(-4.614e-10 -0.00234149 0)
(9.59886e-10 -0.00234149 0)
(1.64439e-09 -0.0023415 0)
(5.84072e-10 -0.0023415 0)
(-6.46504e-10 -0.00234149 0)
(-5.57413e-10 -0.00234149 0)
(1.04402e-09 -0.00234149 0)
(1.78108e-09 -0.0023415 0)
(5.65497e-10 -0.0023415 0)
(-8.06607e-10 -0.00234149 0)
(-6.46944e-10 -0.00234149 0)
(1.12141e-09 -0.00234149 0)
(1.90558e-09 -0.0023415 0)
(5.47638e-10 -0.0023415 0)
(-9.54098e-10 -0.00234149 0)
(-7.30002e-10 -0.00234149 0)
(1.19213e-09 -0.00234149 0)
(2.01808e-09 -0.0023415 0)
(5.30522e-10 -0.0023415 0)
(-1.08912e-09 -0.00234149 0)
(-8.06632e-10 -0.00234149 0)
(1.25631e-09 -0.00234149 0)
(2.11886e-09 -0.0023415 0)
(5.1417e-10 -0.0023415 0)
(-1.21189e-09 -0.00234149 0)
(-8.76915e-10 -0.00234149 0)
(1.31411e-09 -0.00234149 0)
(2.20825e-09 -0.0023415 0)
(4.98605e-10 -0.0023415 0)
(-1.32268e-09 -0.00234149 0)
(-9.40968e-10 -0.00234149 0)
(1.36571e-09 -0.00234149 0)
(2.28665e-09 -0.0023415 0)
(4.83842e-10 -0.0023415 0)
(-1.42181e-09 -0.00234149 0)
(-9.98938e-10 -0.00234149 0)
(1.41133e-09 -0.00234149 0)
(2.3545e-09 -0.0023415 0)
(4.69897e-10 -0.0023415 0)
(-1.50967e-09 -0.00234149 0)
(-1.051e-09 -0.00234149 0)
(1.45124e-09 -0.00234149 0)
(2.41228e-09 -0.0023415 0)
(4.56781e-10 -0.0023415 0)
(-1.5867e-09 -0.00234149 0)
(-1.09738e-09 -0.00234149 0)
(1.48569e-09 -0.00234149 0)
(2.46056e-09 -0.0023415 0)
(4.44504e-10 -0.0023415 0)
(-1.6534e-09 -0.00234149 0)
(-1.13829e-09 -0.00234149 0)
(1.51501e-09 -0.00234149 0)
(2.49991e-09 -0.0023415 0)
(4.3307e-10 -0.0023415 0)
(-1.71031e-09 -0.00234149 0)
(-1.174e-09 -0.00234149 0)
(1.5395e-09 -0.00234149 0)
(2.53097e-09 -0.0023415 0)
(4.22484e-10 -0.0023415 0)
(-1.75802e-09 -0.00234149 0)
(-1.2048e-09 -0.00234149 0)
(1.55953e-09 -0.00234149 0)
(2.55442e-09 -0.0023415 0)
(4.12745e-10 -0.0023415 0)
(-1.79715e-09 -0.00234149 0)
(-1.231e-09 -0.00234149 0)
(1.57546e-09 -0.00234149 0)
(2.57097e-09 -0.0023415 0)
(4.03852e-10 -0.0023415 0)
(-1.82838e-09 -0.00234149 0)
(-1.25291e-09 -0.00234149 0)
(1.58768e-09 -0.00234149 0)
(2.58138e-09 -0.0023415 0)
(3.95799e-10 -0.0023415 0)
(-1.85242e-09 -0.00234149 0)
(-1.27087e-09 -0.00234149 0)
(1.59659e-09 -0.00234149 0)
(2.58643e-09 -0.0023415 0)
(3.88578e-10 -0.0023415 0)
(-1.87002e-09 -0.00234149 0)
(-1.28526e-09 -0.00234149 0)
(1.60262e-09 -0.00234149 0)
(2.58694e-09 -0.0023415 0)
(3.82179e-10 -0.0023415 0)
(-1.88195e-09 -0.00234149 0)
(-1.29644e-09 -0.00234149 0)
(1.60618e-09 -0.00234149 0)
(2.58375e-09 -0.0023415 0)
(3.76587e-10 -0.0023415 0)
(-1.88903e-09 -0.00234149 0)
(-1.30478e-09 -0.00234149 0)
(1.60773e-09 -0.00234149 0)
(2.57775e-09 -0.0023415 0)
(3.71787e-10 -0.0023415 0)
(-1.8921e-09 -0.00234149 0)
(-1.3107e-09 -0.00234149 0)
(1.60772e-09 -0.00234149 0)
(2.56981e-09 -0.0023415 0)
(3.6776e-10 -0.0023415 0)
(-1.89202e-09 -0.00234149 0)
(-1.31458e-09 -0.00234149 0)
(1.60659e-09 -0.00234149 0)
(2.56086e-09 -0.0023415 0)
(3.64483e-10 -0.0023415 0)
(-1.88966e-09 -0.00234149 0)
(-1.31682e-09 -0.00234149 0)
(1.6048e-09 -0.00234149 0)
(2.55183e-09 -0.0023415 0)
(3.6193e-10 -0.0023415 0)
(-1.88595e-09 -0.00234149 0)
(-1.31784e-09 -0.00234149 0)
(1.60287e-09 -0.00234149 0)
(2.54375e-09 -0.0023415 0)
(3.60077e-10 -0.0023415 0)
(-1.88187e-09 -0.00234149 0)
(-1.31809e-09 -0.00234149 0)
(1.6014e-09 -0.00234149 0)
(2.53783e-09 -0.0023415 0)
(3.58902e-10 -0.0023415 0)
(-1.87858e-09 -0.00234149 0)
(-1.31809e-09 -0.00234149 0)
(1.60095e-09 -0.00234149 0)
(2.5352e-09 -0.0023415 0)
(3.58374e-10 -0.0023415 0)
(-1.87719e-09 -0.00234149 0)
(-1.31836e-09 -0.00234149 0)
)
;

boundaryField
{
    BotWall
    {
        type            fixedValue;
        value           uniform (0 0 0);
    }
    FreeStream
    {
        type            zeroGradient;
    }
    FrontNBack
    {
        type            empty;
    }
    LeftSide
    {
        type            symmetryPlane;
    }
    RightSide
    {
        type            symmetryPlane;
    }
}


// ************************************************************************* //
