/*--------------------------------*- C++ -*----------------------------------*\
| =========                 |                                                 |
| \\      /  F ield         | OpenFOAM: The Open Source CFD Toolbox           |
|  \\    /   O peration     | Version:  2.4.0                                 |
|   \\  /    A nd           | Web:      www.OpenFOAM.org                      |
|    \\/     M anipulation  |                                                 |
\*---------------------------------------------------------------------------*/
FoamFile
{
    version     2.0;
    format      ascii;
    class       volScalarField;
    location    "5";
    object      H;
}
// * * * * * * * * * * * * * * * * * * * * * * * * * * * * * * * * * * * * * //

dimensions      [0 2 -2 0 0 0 0];

internalField   nonuniform List<scalar> 
125
(
-9.25539
-9.22779
-9.18001
-9.1952
-9.24709
-8.95481
-8.92842
-8.88301
-8.89736
-8.94657
-8.64558
-8.62038
-8.5773
-8.59083
-8.63743
-8.32784
-8.30383
-8.26302
-8.27577
-8.31981
-8.00174
-7.97893
-7.94036
-7.95233
-7.99387
-7.66748
-7.64586
-7.60948
-7.62071
-7.6598
-7.32528
-7.30483
-7.27061
-7.28111
-7.31781
-6.97537
-6.95609
-6.92399
-6.93378
-6.96813
-6.61801
-6.5999
-6.56987
-6.57898
-6.61104
-6.2535
-6.23655
-6.20856
-6.21699
-6.24682
-5.88214
-5.86634
-5.84036
-5.84815
-5.87578
-5.50429
-5.48964
-5.46562
-5.47278
-5.49827
-5.12031
-5.1068
-5.08472
-5.09126
-5.11465
-4.73061
-4.71822
-4.69805
-4.704
-4.72533
-4.33562
-4.32435
-4.30605
-4.31142
-4.33074
-3.93579
-3.92563
-3.90918
-3.91399
-3.93132
-3.53162
-3.52256
-3.50793
-3.51218
-3.52758
-3.12362
-3.11565
-3.10282
-3.10653
-3.12002
-2.71234
-2.70546
-2.69439
-2.69758
-2.7092
-2.29835
-2.29255
-2.28324
-2.28591
-2.29568
-1.88228
-1.87755
-1.86996
-1.87213
-1.88008
-1.46475
-1.46108
-1.4552
-1.45688
-1.46303
-1.04642
-1.04381
-1.03962
-1.04082
-1.04519
-0.628006
-0.62644
-0.623935
-0.624649
-0.627267
-0.210216
-0.209692
-0.208854
-0.209093
-0.209968
)
;

boundaryField
{
    BotWall
    {
        type            zeroGradient;
    }
    FreeStream
    {
        type            zeroGradient;
    }
    FrontNBack
    {
        type            empty;
    }
    LeftSide
    {
        type            symmetryPlane;
    }
    RightSide
    {
        type            symmetryPlane;
    }
    procBoundary3to2
    {
        type            processor;
        value           nonuniform List<scalar> 5(-9.54642 -9.51762 -9.46743 -9.48348 -9.5381);
    }
}


// ************************************************************************* //
