/*--------------------------------*- C++ -*----------------------------------*\
| =========                 |                                                 |
| \\      /  F ield         | OpenFOAM: The Open Source CFD Toolbox           |
|  \\    /   O peration     | Version:  2.4.0                                 |
|   \\  /    A nd           | Web:      www.OpenFOAM.org                      |
|    \\/     M anipulation  |                                                 |
\*---------------------------------------------------------------------------*/
FoamFile
{
    version     2.0;
    format      ascii;
    class       volScalarField;
    location    "5";
    object      p;
}
// * * * * * * * * * * * * * * * * * * * * * * * * * * * * * * * * * * * * * //

dimensions      [1 -1 -2 0 0 0 0];

internalField   nonuniform List<scalar> 
125
(
-0.0577014
-0.0577014
-0.0577013
-0.0577014
-0.0577014
-0.0588362
-0.0588362
-0.0588361
-0.0588361
-0.0588362
-0.0599836
-0.0599836
-0.0599836
-0.0599836
-0.0599836
-0.0611439
-0.0611439
-0.0611438
-0.0611439
-0.0611439
-0.0623171
-0.0623171
-0.0623171
-0.0623171
-0.0623171
-0.0635034
-0.0635034
-0.0635034
-0.0635034
-0.0635034
-0.0647029
-0.0647029
-0.0647029
-0.0647029
-0.0647029
-0.0659158
-0.0659158
-0.0659158
-0.0659158
-0.0659158
-0.0671423
-0.0671423
-0.0671423
-0.0671423
-0.0671423
-0.0683824
-0.0683824
-0.0683824
-0.0683824
-0.0683824
-0.0696364
-0.0696364
-0.0696364
-0.0696364
-0.0696364
-0.0709044
-0.0709044
-0.0709044
-0.0709044
-0.0709044
-0.0721865
-0.0721865
-0.0721865
-0.0721865
-0.0721865
-0.0734829
-0.0734829
-0.0734829
-0.0734829
-0.0734829
-0.0747938
-0.0747938
-0.0747938
-0.0747938
-0.0747938
-0.0761193
-0.0761193
-0.0761193
-0.0761193
-0.0761193
-0.0774596
-0.0774596
-0.0774596
-0.0774596
-0.0774596
-0.0788149
-0.0788149
-0.0788149
-0.0788149
-0.0788149
-0.0801853
-0.0801853
-0.0801853
-0.0801853
-0.0801853
-0.081571
-0.081571
-0.081571
-0.081571
-0.081571
-0.0829721
-0.0829721
-0.0829721
-0.0829721
-0.0829721
-0.0843889
-0.0843889
-0.0843889
-0.0843889
-0.0843889
-0.0858215
-0.0858215
-0.0858215
-0.0858215
-0.0858215
-0.0872701
-0.0872701
-0.0872701
-0.0872701
-0.0872701
-0.0887348
-0.0887348
-0.0887348
-0.0887348
-0.0887348
)
;

boundaryField
{
    BotWall
    {
        type            calculated;
        value           nonuniform 0();
    }
    FreeStream
    {
        type            calculated;
        value           nonuniform List<scalar> 5(-0.0894713 -0.0894713 -0.0894713 -0.0894713 -0.0894713);
    }
    FrontNBack
    {
        type            empty;
    }
    LeftSide
    {
        type            symmetryPlane;
    }
    RightSide
    {
        type            symmetryPlane;
    }
    procBoundary3to2
    {
        type            processor;
        value           nonuniform List<scalar> 5(-0.0565791 -0.0565791 -0.0565791 -0.0565791 -0.0565791);
    }
}


// ************************************************************************* //
