/*--------------------------------*- C++ -*----------------------------------*\
| =========                 |                                                 |
| \\      /  F ield         | OpenFOAM: The Open Source CFD Toolbox           |
|  \\    /   O peration     | Version:  2.4.0                                 |
|   \\  /    A nd           | Web:      www.OpenFOAM.org                      |
|    \\/     M anipulation  |                                                 |
\*---------------------------------------------------------------------------*/
FoamFile
{
    version     2.0;
    format      ascii;
    class       volScalarField;
    location    "5";
    object      p_rgh;
}
// * * * * * * * * * * * * * * * * * * * * * * * * * * * * * * * * * * * * * //

dimensions      [1 -1 -2 0 0 0 0];

internalField   nonuniform List<scalar> 
125
(
-4.247e-06
-4.24153e-06
-4.2255e-06
-4.23068e-06
-4.25102e-06
-4.24087e-06
-4.23566e-06
-4.22031e-06
-4.22526e-06
-4.2447e-06
-4.23469e-06
-4.22972e-06
-4.21505e-06
-4.21977e-06
-4.23833e-06
-4.22844e-06
-4.22372e-06
-4.20973e-06
-4.21422e-06
-4.23189e-06
-4.22214e-06
-4.21766e-06
-4.20433e-06
-4.20859e-06
-4.22539e-06
-4.21577e-06
-4.21153e-06
-4.19887e-06
-4.2029e-06
-4.21883e-06
-4.20934e-06
-4.20534e-06
-4.19334e-06
-4.19715e-06
-4.21221e-06
-4.20284e-06
-4.19908e-06
-4.18774e-06
-4.19132e-06
-4.20553e-06
-4.19628e-06
-4.19276e-06
-4.18207e-06
-4.18543e-06
-4.19878e-06
-4.18965e-06
-4.18637e-06
-4.17633e-06
-4.17946e-06
-4.19197e-06
-4.18296e-06
-4.17991e-06
-4.17052e-06
-4.17343e-06
-4.1851e-06
-4.1762e-06
-4.17338e-06
-4.16464e-06
-4.16732e-06
-4.17815e-06
-4.16937e-06
-4.16678e-06
-4.15868e-06
-4.16115e-06
-4.17114e-06
-4.16247e-06
-4.16011e-06
-4.15266e-06
-4.1549e-06
-4.16406e-06
-4.1555e-06
-4.15337e-06
-4.14656e-06
-4.14858e-06
-4.15691e-06
-4.14846e-06
-4.14656e-06
-4.14039e-06
-4.14219e-06
-4.14969e-06
-4.14134e-06
-4.13968e-06
-4.13414e-06
-4.13573e-06
-4.14239e-06
-4.13415e-06
-4.13272e-06
-4.12782e-06
-4.12919e-06
-4.13503e-06
-4.12689e-06
-4.12569e-06
-4.12143e-06
-4.12257e-06
-4.12758e-06
-4.11955e-06
-4.11858e-06
-4.11496e-06
-4.11588e-06
-4.12006e-06
-4.11213e-06
-4.11139e-06
-4.10842e-06
-4.10912e-06
-4.11246e-06
-4.1046e-06
-4.10413e-06
-4.10185e-06
-4.10231e-06
-4.10473e-06
-4.09694e-06
-4.09679e-06
-4.09528e-06
-4.09545e-06
-4.09685e-06
-4.08931e-06
-4.08936e-06
-4.08847e-06
-4.08844e-06
-4.08905e-06
-4.08232e-06
-4.08183e-06
-4.08048e-06
-4.08077e-06
-4.08224e-06
)
;

boundaryField
{
    BotWall
    {
        type            fixedFluxPressure;
        gradient        nonuniform 0();
        value           nonuniform 0();
    }
    FreeStream
    {
        type            totalPressure;
        rho             rho;
        psi             none;
        gamma           1;
        p0              uniform 0;
        value           nonuniform List<scalar> 5(-4.07929e-06 -4.07802e-06 -4.07568e-06 -4.07651e-06 -4.07955e-06);
    }
    FrontNBack
    {
        type            empty;
    }
    LeftSide
    {
        type            symmetryPlane;
    }
    RightSide
    {
        type            symmetryPlane;
    }
    procBoundary3to2
    {
        type            processor;
        value           nonuniform List<scalar> 5(-4.25308e-06 -4.24736e-06 -4.23064e-06 -4.23605e-06 -4.25729e-06);
    }
}


// ************************************************************************* //
