/*--------------------------------*- C++ -*----------------------------------*\
| =========                 |                                                 |
| \\      /  F ield         | OpenFOAM: The Open Source CFD Toolbox           |
|  \\    /   O peration     | Version:  2.4.0                                 |
|   \\  /    A nd           | Web:      www.OpenFOAM.org                      |
|    \\/     M anipulation  |                                                 |
\*---------------------------------------------------------------------------*/
FoamFile
{
    version     2.0;
    format      ascii;
    class       surfaceScalarField;
    location    "5";
    object      phi;
}
// * * * * * * * * * * * * * * * * * * * * * * * * * * * * * * * * * * * * * //

dimensions      [0 3 -1 0 0 0 0];

internalField   nonuniform List<scalar> 
220
(
-1.71482e-16
-1.89172e-10
-1.42573e-16
-1.89135e-10
2.04382e-16
-1.89068e-10
4.11195e-16
-1.89093e-10
-1.89184e-10
-1.95389e-16
-1.89172e-10
-1.68506e-16
-1.89135e-10
2.12875e-16
-1.89068e-10
4.37465e-16
-1.89093e-10
-1.89183e-10
-2.17476e-16
-1.89172e-10
-1.92389e-16
-1.89135e-10
2.20447e-16
-1.89069e-10
4.61109e-16
-1.89094e-10
-1.89183e-10
-2.37778e-16
-1.89172e-10
-2.1427e-16
-1.89135e-10
2.2713e-16
-1.89069e-10
4.82211e-16
-1.89094e-10
-1.89182e-10
-2.56337e-16
-1.89171e-10
-2.342e-16
-1.89135e-10
2.32957e-16
-1.8907e-10
5.00862e-16
-1.89094e-10
-1.89182e-10
-2.73199e-16
-1.89171e-10
-2.52237e-16
-1.89135e-10
2.37966e-16
-1.8907e-10
5.17157e-16
-1.89094e-10
-1.89181e-10
-2.88416e-16
-1.89171e-10
-2.68443e-16
-1.89135e-10
2.42197e-16
-1.89071e-10
5.31202e-16
-1.89095e-10
-1.89181e-10
-3.02048e-16
-1.89171e-10
-2.82888e-16
-1.89135e-10
2.45693e-16
-1.89071e-10
5.43109e-16
-1.89095e-10
-1.8918e-10
-3.14161e-16
-1.8917e-10
-2.95646e-16
-1.89135e-10
2.48502e-16
-1.89072e-10
5.52999e-16
-1.89095e-10
-1.8918e-10
-3.24826e-16
-1.8917e-10
-3.06799e-16
-1.89135e-10
2.50674e-16
-1.89072e-10
5.61004e-16
-1.89096e-10
-1.89179e-10
-3.34123e-16
-1.8917e-10
-3.16436e-16
-1.89135e-10
2.52263e-16
-1.89073e-10
5.67262e-16
-1.89096e-10
-1.89178e-10
-3.42139e-16
-1.89169e-10
-3.24652e-16
-1.89135e-10
2.53329e-16
-1.89074e-10
5.71924e-16
-1.89096e-10
-1.89178e-10
-3.48969e-16
-1.89169e-10
-3.31552e-16
-1.89135e-10
2.53932e-16
-1.89074e-10
5.75152e-16
-1.89097e-10
-1.89177e-10
-3.54715e-16
-1.89169e-10
-3.37247e-16
-1.89135e-10
2.54142e-16
-1.89075e-10
5.77119e-16
-1.89097e-10
-1.89177e-10
-3.59489e-16
-1.89168e-10
-3.41859e-16
-1.89135e-10
2.5403e-16
-1.89075e-10
5.78012e-16
-1.89097e-10
-1.89176e-10
-3.63412e-16
-1.89168e-10
-3.45518e-16
-1.89135e-10
2.53674e-16
-1.89076e-10
5.78032e-16
-1.89098e-10
-1.89176e-10
-3.66613e-16
-1.89168e-10
-3.48365e-16
-1.89135e-10
2.53156e-16
-1.89077e-10
5.77393e-16
-1.89098e-10
-1.89175e-10
-3.69233e-16
-1.89167e-10
-3.50551e-16
-1.89135e-10
2.52565e-16
-1.89077e-10
5.7633e-16
-1.89098e-10
-1.89174e-10
-3.71422e-16
-1.89167e-10
-3.52241e-16
-1.89135e-10
2.51997e-16
-1.89078e-10
5.75092e-16
-1.89099e-10
-1.89174e-10
-3.73342e-16
-1.89166e-10
-3.53612e-16
-1.89135e-10
2.51552e-16
-1.89078e-10
5.73952e-16
-1.89099e-10
-1.89173e-10
-3.75166e-16
-1.89166e-10
-3.54851e-16
-1.89135e-10
2.51341e-16
-1.89079e-10
5.73197e-16
-1.89099e-10
-1.89173e-10
-3.77078e-16
-1.89166e-10
-3.5616e-16
-1.89135e-10
2.51477e-16
-1.8908e-10
5.73137e-16
-1.89099e-10
-1.89172e-10
-3.79286e-16
-1.89165e-10
-3.57762e-16
-1.89135e-10
2.52092e-16
-1.8908e-10
5.74121e-16
-1.891e-10
-1.89172e-10
-3.82046e-16
-1.89165e-10
-3.59965e-16
-1.89135e-10
2.53351e-16
-1.89081e-10
5.76619e-16
-1.891e-10
-1.89171e-10
-3.856e-16
-3.63399e-16
2.55487e-16
5.81488e-16
)
;

boundaryField
{
    BotWall
    {
        type            calculated;
        value           nonuniform 0();
    }
    FreeStream
    {
        type            calculated;
        value           nonuniform List<scalar> 5(-1.89165e-10 -1.89135e-10 -1.89081e-10 -1.891e-10 -1.8917e-10);
    }
    FrontNBack
    {
        type            empty;
        value           nonuniform 0();
    }
    LeftSide
    {
        type            symmetryPlane;
        value           uniform 0;
    }
    RightSide
    {
        type            symmetryPlane;
        value           uniform 0;
    }
    procBoundary3to2
    {
        type            processor;
        value           nonuniform List<scalar> 5(1.89173e-10 1.89135e-10 1.89068e-10 1.89093e-10 1.89184e-10);
    }
}


// ************************************************************************* //
