/*--------------------------------*- C++ -*----------------------------------*\
| =========                 |                                                 |
| \\      /  F ield         | OpenFOAM: The Open Source CFD Toolbox           |
|  \\    /   O peration     | Version:  2.4.0                                 |
|   \\  /    A nd           | Web:      www.OpenFOAM.org                      |
|    \\/     M anipulation  |                                                 |
\*---------------------------------------------------------------------------*/
FoamFile
{
    version     2.0;
    format      ascii;
    class       volVectorField;
    location    "5";
    object      U;
}
// * * * * * * * * * * * * * * * * * * * * * * * * * * * * * * * * * * * * * //

dimensions      [0 1 -1 0 0 0 0];

internalField   nonuniform List<vector> 
125
(
(-1.68225e-08 -0.000945862 0)
(-3.76227e-08 -0.000945674 0)
(-7.18792e-09 -0.000945339 0)
(7.19243e-08 -0.000945465 0)
(5.80241e-08 -0.000945919 0)
(-1.8435e-08 -0.000945862 0)
(-4.29068e-08 -0.000945675 0)
(-9.54635e-09 -0.000945341 0)
(7.62325e-08 -0.000945466 0)
(6.05257e-08 -0.000945917 0)
(-1.98863e-08 -0.000945861 0)
(-4.76286e-08 -0.000945675 0)
(-1.16578e-08 -0.000945343 0)
(7.99574e-08 -0.000945468 0)
(6.2631e-08 -0.000945915 0)
(-2.11824e-08 -0.000945859 0)
(-5.18145e-08 -0.000945675 0)
(-1.35344e-08 -0.000945345 0)
(8.3131e-08 -0.000945469 0)
(6.43631e-08 -0.000945912 0)
(-2.23296e-08 -0.000945858 0)
(-5.54911e-08 -0.000945675 0)
(-1.51883e-08 -0.000945348 0)
(8.57857e-08 -0.00094547 0)
(6.57455e-08 -0.00094591 0)
(-2.33346e-08 -0.000945857 0)
(-5.86853e-08 -0.000945675 0)
(-1.66315e-08 -0.00094535 0)
(8.79538e-08 -0.000945471 0)
(6.68015e-08 -0.000945907 0)
(-2.42042e-08 -0.000945855 0)
(-6.14248e-08 -0.000945675 0)
(-1.78762e-08 -0.000945352 0)
(8.96681e-08 -0.000945473 0)
(6.75549e-08 -0.000945905 0)
(-2.4946e-08 -0.000945854 0)
(-6.37372e-08 -0.000945675 0)
(-1.89347e-08 -0.000945355 0)
(9.09617e-08 -0.000945474 0)
(6.80292e-08 -0.000945902 0)
(-2.55675e-08 -0.000945852 0)
(-6.5651e-08 -0.000945675 0)
(-1.98191e-08 -0.000945358 0)
(9.1868e-08 -0.000945476 0)
(6.82484e-08 -0.000945899 0)
(-2.60766e-08 -0.000945851 0)
(-6.71949e-08 -0.000945675 0)
(-2.05419e-08 -0.000945361 0)
(9.24208e-08 -0.000945477 0)
(6.82366e-08 -0.000945897 0)
(-2.64815e-08 -0.000945849 0)
(-6.83982e-08 -0.000945676 0)
(-2.11154e-08 -0.000945363 0)
(9.26541e-08 -0.000945479 0)
(6.80182e-08 -0.000945894 0)
(-2.67909e-08 -0.000945847 0)
(-6.92905e-08 -0.000945676 0)
(-2.15522e-08 -0.000945366 0)
(9.26026e-08 -0.000945481 0)
(6.76179e-08 -0.000945891 0)
(-2.70136e-08 -0.000945846 0)
(-6.9902e-08 -0.000945676 0)
(-2.18651e-08 -0.000945369 0)
(9.23014e-08 -0.000945482 0)
(6.70606e-08 -0.000945888 0)
(-2.71585e-08 -0.000945844 0)
(-7.02635e-08 -0.000945676 0)
(-2.20669e-08 -0.000945372 0)
(9.17861e-08 -0.000945484 0)
(6.6372e-08 -0.000945885 0)
(-2.72352e-08 -0.000945842 0)
(-7.04064e-08 -0.000945676 0)
(-2.21707e-08 -0.000945375 0)
(9.10929e-08 -0.000945485 0)
(6.5578e-08 -0.000945882 0)
(-2.72531e-08 -0.00094584 0)
(-7.03624e-08 -0.000945676 0)
(-2.21899e-08 -0.000945378 0)
(9.02588e-08 -0.000945487 0)
(6.47052e-08 -0.000945879 0)
(-2.72222e-08 -0.000945839 0)
(-7.01642e-08 -0.000945676 0)
(-2.21382e-08 -0.000945381 0)
(8.93216e-08 -0.000945489 0)
(6.37809e-08 -0.000945877 0)
(-2.71525e-08 -0.000945837 0)
(-6.98451e-08 -0.000945676 0)
(-2.20297e-08 -0.000945384 0)
(8.83199e-08 -0.00094549 0)
(6.28332e-08 -0.000945874 0)
(-2.70544e-08 -0.000945835 0)
(-6.94392e-08 -0.000945676 0)
(-2.18787e-08 -0.000945387 0)
(8.72933e-08 -0.000945492 0)
(6.18911e-08 -0.000945871 0)
(-2.69384e-08 -0.000945833 0)
(-6.89811e-08 -0.000945676 0)
(-2.17001e-08 -0.00094539 0)
(8.62826e-08 -0.000945493 0)
(6.09846e-08 -0.000945868 0)
(-2.68151e-08 -0.000945831 0)
(-6.85066e-08 -0.000945676 0)
(-2.15093e-08 -0.000945393 0)
(8.53295e-08 -0.000945495 0)
(6.01447e-08 -0.000945865 0)
(-2.66954e-08 -0.000945829 0)
(-6.80523e-08 -0.000945677 0)
(-2.13225e-08 -0.000945396 0)
(8.44775e-08 -0.000945497 0)
(5.9404e-08 -0.000945862 0)
(-2.65911e-08 -0.000945827 0)
(-6.76578e-08 -0.000945677 0)
(-2.11568e-08 -0.000945399 0)
(8.37735e-08 -0.000945498 0)
(5.87982e-08 -0.000945859 0)
(-2.65157e-08 -0.000945825 0)
(-6.73677e-08 -0.000945677 0)
(-2.10317e-08 -0.000945403 0)
(8.32712e-08 -0.0009455 0)
(5.83682e-08 -0.000945856 0)
(-2.64816e-08 -0.000945824 0)
(-6.72249e-08 -0.000945677 0)
(-2.09663e-08 -0.000945405 0)
(8.30223e-08 -0.000945502 0)
(5.81542e-08 -0.000945854 0)
)
;

boundaryField
{
    BotWall
    {
        type            fixedValue;
        value           nonuniform 0();
    }
    FreeStream
    {
        type            zeroGradient;
    }
    FrontNBack
    {
        type            empty;
    }
    LeftSide
    {
        type            symmetryPlane;
    }
    RightSide
    {
        type            symmetryPlane;
    }
    procBoundary3to2
    {
        type            processor;
        value           nonuniform List<vector> 5((-1.50432e-08 -0.000945863 0) (-3.17504e-08 -0.000945674 0) (-4.57045e-09 -0.000945338 0) (6.70012e-08 -0.000945464 0) (5.51029e-08 -0.000945921 0));
    }
}


// ************************************************************************* //
