/*--------------------------------*- C++ -*----------------------------------*\
| =========                 |                                                 |
| \\      /  F ield         | OpenFOAM: The Open Source CFD Toolbox           |
|  \\    /   O peration     | Version:  2.4.0                                 |
|   \\  /    A nd           | Web:      www.OpenFOAM.org                      |
|    \\/     M anipulation  |                                                 |
\*---------------------------------------------------------------------------*/
FoamFile
{
    version     2.0;
    format      ascii;
    class       volScalarField;
    location    "0.016";
    object      H;
}
// * * * * * * * * * * * * * * * * * * * * * * * * * * * * * * * * * * * * * //

dimensions      [0 2 -2 0 0 0 0];

internalField   nonuniform List<scalar> 
125
(
-11.9807
-11.3756
-10.7947
-10.2376
-9.70379
-9.19277
-8.70402
-8.23697
-7.79105
-7.36566
-6.9602
-6.57403
-6.20653
-5.85707
-5.52499
-5.20967
-4.91047
-4.62675
-4.35788
-4.10325
-3.86225
-3.63427
-3.41873
-3.21506
-3.0227
-2.84111
-2.66975
-2.50813
-2.35574
-2.21211
-2.07679
-1.94934
-1.82933
-1.71636
-1.61004
-1.51001
-1.41591
-1.32741
-1.2442
-1.16596
-1.09242
-1.0233
-0.958337
-0.8973
-0.839954
-0.786083
-0.735482
-0.687958
-0.64333
-0.601426
-0.562085
-0.525155
-0.490494
-0.457967
-0.427448
-0.398819
-0.371967
-0.346788
-0.323183
-0.301059
-0.280328
-0.260908
-0.242723
-0.225698
-0.209766
-0.194861
-0.180922
-0.167893
-0.155719
-0.144348
-0.133733
-0.123828
-0.11459
-0.105979
-0.0979563
-0.0904858
-0.0835333
-0.0770668
-0.0710557
-0.0654714
-0.0602868
-0.0554762
-0.0510157
-0.0468824
-0.0430548
-0.0395127
-0.0362371
-0.03321
-0.0304146
-0.0278349
-0.025456
-0.0232638
-0.0212452
-0.0193878
-0.01768
-0.0161109
-0.0146703
-0.0133488
-0.0121373
-0.0110277
-0.010012
-0.00908314
-0.00823427
-0.00745913
-0.00675187
-0.00610704
-0.00551961
-0.00498489
-0.00449853
-0.00405651
-0.00365511
-0.00329089
-0.00296067
-0.00266152
-0.00239073
-0.00214581
-0.00192447
-0.0017246
-0.00154426
-0.00138169
-0.00123524
-0.00110343
-0.000984889
-0.000878373
-0.000782739
)
;

boundaryField
{
    BotWall
    {
        type            zeroGradient;
    }
    FreeStream
    {
        type            zeroGradient;
    }
    FrontNBack
    {
        type            empty;
    }
    LeftSide
    {
        type            symmetryPlane;
    }
    RightSide
    {
        type            symmetryPlane;
    }
    procBoundary8to5
    {
        type            processor;
        value           nonuniform List<scalar> 
50
(
-0.0913228
-0.0843157
-0.077798
-0.071739
-0.0661096
-0.0608827
-0.0560325
-0.0515347
-0.0473664
-0.0435059
-0.0399329
-0.0366283
-0.033574
-0.0307529
-0.0281492
-0.0257477
-0.0235345
-0.0214961
-0.0196201
-0.017895
-0.0163097
-0.014854
-0.0135183
-0.0122936
-0.0111717
-0.0101446
-0.00920501
-0.00834624
-0.0075619
-0.00684611
-0.00619339
-0.00559864
-0.00505716
-0.00456455
-0.00411677
-0.00371006
-0.00334095
-0.00300623
-0.00270295
-0.00242837
-0.00217997
-0.00195545
-0.00175267
-0.00156967
-0.00140467
-0.00125601
-0.00112218
-0.00100181
-0.000893632
-0.000796489
)
;
    }
    procBoundary8to6
    {
        type            processor;
        value           nonuniform List<scalar> 
75
(
-12.0161
-11.4135
-10.8347
-10.2793
-9.74686
-9.23684
-8.74876
-8.2821
-7.8363
-7.4108
-7.00499
-6.6183
-6.2501
-5.89978
-5.56673
-5.25031
-4.94992
-4.66494
-4.39475
-4.13875
-3.89634
-3.66694
-3.44996
-3.24485
-3.05106
-2.86805
-2.69531
-2.53232
-2.3786
-2.23368
-2.09711
-1.96845
-1.84728
-1.73319
-1.62581
-1.52477
-1.42971
-1.34029
-1.25621
-1.17716
-1.10284
-1.033
-0.96736
-0.905687
-0.847746
-0.793319
-0.7422
-0.694194
-0.649118
-0.606797
-0.567069
-0.529781
-0.494787
-0.461953
-0.431149
-0.402257
-0.375161
-0.349757
-0.325944
-0.303627
-0.282718
-0.263133
-0.244795
-0.227628
-0.211564
-0.196538
-0.182486
-0.169351
-0.157079
-0.145617
-0.134917
-0.124933
-0.115621
-0.106941
-0.0988529
)
;
    }
    procBoundary8to7
    {
        type            processor;
        value           uniform -0.000696962;
    }
    procBoundary8to9
    {
        type            processor;
        value           uniform -12.6105;
    }
    procBoundary8to10
    {
        type            processor;
        value           nonuniform List<scalar> 
75
(
-0.563991
-0.526922
-0.492132
-0.459486
-0.428858
-0.400127
-0.373182
-0.347917
-0.324232
-0.302035
-0.281237
-0.261755
-0.243512
-0.226434
-0.210452
-0.195502
-0.181521
-0.168453
-0.156242
-0.144837
-0.134191
-0.124256
-0.114991
-0.106354
-0.0983077
-0.0908146
-0.0838411
-0.0773547
-0.0713251
-0.0657233
-0.0605223
-0.0556963
-0.0512212
-0.0470742
-0.0432338
-0.0396796
-0.0363926
-0.0333549
-0.0305493
-0.0279602
-0.0255723
-0.0233718
-0.0213454
-0.0194806
-0.0177659
-0.0161904
-0.0147438
-0.0134166
-0.0121999
-0.0110854
-0.0100651
-0.00913199
-0.00827916
-0.00750034
-0.00678966
-0.00614168
-0.00555131
-0.00501388
-0.00452502
-0.00408069
-0.00367717
-0.00331099
-0.00297896
-0.00267816
-0.00240585
-0.00215954
-0.00193692
-0.00173589
-0.00155449
-0.00139095
-0.00124362
-0.001111
-0.000991736
-0.000884559
-0.000788326
)
;
    }
    procBoundary8to11
    {
        type            processor;
        value           nonuniform List<scalar> 
50
(
-11.9946
-11.3907
-10.8109
-10.2547
-9.72152
-9.21103
-8.72265
-8.25584
-7.81003
-7.38465
-6.97908
-6.59273
-6.22496
-5.87515
-5.54267
-5.2269
-4.9272
-4.64294
-4.37351
-4.1183
-3.87669
-3.6481
-3.43194
-3.22765
-3.03467
-2.85247
-2.68051
-2.5183
-2.36534
-2.22115
-2.08529
-1.95731
-1.8368
-1.72335
-1.61657
-1.51611
-1.42159
-1.3327
-1.24911
-1.17052
-1.09665
-1.02722
-0.961966
-0.900656
-0.843055
-0.788946
-0.738123
-0.690393
-0.645573
-0.60349
)
;
    }
}


// ************************************************************************* //
