/*--------------------------------*- C++ -*----------------------------------*\
| =========                 |                                                 |
| \\      /  F ield         | OpenFOAM: The Open Source CFD Toolbox           |
|  \\    /   O peration     | Version:  2.4.0                                 |
|   \\  /    A nd           | Web:      www.OpenFOAM.org                      |
|    \\/     M anipulation  |                                                 |
\*---------------------------------------------------------------------------*/
FoamFile
{
    version     2.0;
    format      ascii;
    class       volScalarField;
    location    "1";
    object      H;
}
// * * * * * * * * * * * * * * * * * * * * * * * * * * * * * * * * * * * * * //

dimensions      [0 2 -2 0 0 0 0];

internalField   nonuniform List<scalar> 
125
(
-11740.1
-11740.1
-11740.1
-11740.1
-11740.1
-10754.8
-10754.8
-10754.8
-10754.8
-10754.8
-9758.18
-9758.18
-9758.18
-9758.18
-9758.18
-8750.08
-8750.07
-8750.07
-8750.07
-8750.08
-7730.14
-7730.13
-7730.13
-7730.13
-7730.14
-6698.05
-6698.04
-6698.04
-6698.04
-6698.05
-5653.47
-5653.46
-5653.46
-5653.46
-5653.47
-4596.08
-4596.07
-4596.06
-4596.06
-4596.08
-3525.51
-3525.5
-3525.5
-3525.5
-3525.51
-2441.41
-2441.4
-2441.4
-2441.4
-2441.42
-1343.41
-1343.4
-1343.39
-1343.39
-1343.42
-29.6967
-29.6957
-29.6952
-29.6953
-29.6969
-22.2539
-22.2532
-22.2528
-22.2529
-22.2541
-22.5145
-22.5138
-22.5134
-22.5135
-22.5147
-22.7665
-22.7658
-22.7654
-22.7655
-22.7667
-23.0095
-23.0088
-23.0084
-23.0085
-23.0097
-23.2432
-23.2425
-23.2422
-23.2423
-23.2434
-23.4673
-23.4666
-23.4662
-23.4663
-23.4674
-23.6813
-23.6806
-23.6803
-23.6803
-23.6814
-23.885
-23.8843
-23.8839
-23.884
-23.8851
-24.0779
-24.0772
-24.0769
-24.077
-24.078
-24.2598
-24.2591
-24.2588
-24.2589
-24.2599
-24.4303
-24.4296
-24.4293
-24.4294
-24.4304
-24.589
-24.5884
-24.588
-24.5881
-24.5891
-24.7357
-24.735
-24.7347
-24.7348
-24.7358
)
;

boundaryField
{
    BotWall
    {
        type            zeroGradient;
    }
    FreeStream
    {
        type            zeroGradient;
    }
    FrontNBack
    {
        type            empty;
    }
    LeftSide
    {
        type            symmetryPlane;
    }
    RightSide
    {
        type            symmetryPlane;
    }
    procBoundary0to1
    {
        type            processor;
        value           nonuniform List<scalar> 5(-24.8676 -24.867 -24.8667 -24.8668 -24.8677);
    }
}


// ************************************************************************* //
