/*--------------------------------*- C++ -*----------------------------------*\
| =========                 |                                                 |
| \\      /  F ield         | OpenFOAM: The Open Source CFD Toolbox           |
|  \\    /   O peration     | Version:  2.4.0                                 |
|   \\  /    A nd           | Web:      www.OpenFOAM.org                      |
|    \\/     M anipulation  |                                                 |
\*---------------------------------------------------------------------------*/
FoamFile
{
    version     2.0;
    format      ascii;
    class       surfaceScalarField;
    location    "1";
    object      phi;
}
// * * * * * * * * * * * * * * * * * * * * * * * * * * * * * * * * * * * * * //

dimensions      [0 3 -1 0 0 0 0];

internalField   nonuniform List<scalar> 
220
(
6.19868e-19
-6.19738e-19
4.41537e-19
1.78522e-19
-3.18812e-19
7.60412e-19
-7.60033e-19
4.41237e-19
-7.60015e-19
1.89011e-18
-2.51099e-18
1.34052e-18
7.26171e-19
-9.69438e-19
3.06771e-18
-2.31794e-18
1.78766e-18
-3.07946e-18
3.21587e-18
-5.7282e-18
2.27116e-18
1.66877e-18
-1.6478e-18
6.98386e-18
-3.94059e-18
4.07831e-18
-7.02153e-18
4.58192e-18
-1.03116e-17
3.22702e-18
3.02148e-18
-2.34739e-18
1.25554e-17
-5.61463e-18
7.34344e-18
-1.26376e-17
6.01152e-18
-1.63245e-17
4.21836e-18
4.81248e-18
-3.07952e-18
1.98505e-17
-7.36017e-18
1.16221e-17
-1.9999e-17
7.47048e-18
-2.37964e-17
5.23785e-18
7.04308e-18
-3.83352e-18
2.89193e-17
-9.14763e-18
1.69344e-17
-2.91478e-17
8.97884e-18
-3.27766e-17
6.3088e-18
9.71128e-18
-4.63312e-18
3.9859e-17
-1.09973e-17
2.3297e-17
-4.01461e-17
1.05412e-17
-4.3319e-17
7.42567e-18
1.28253e-17
-5.47435e-18
5.27571e-17
-1.29118e-17
3.07331e-17
-5.30586e-17
1.2359e-17
-5.56789e-17
8.58857e-18
1.65946e-17
-6.35366e-18
6.7698e-17
-1.50973e-17
3.94759e-17
-6.81564e-17
1.45245e-17
-7.02039e-17
9.66114e-18
2.14572e-17
-7.13961e-18
8.4498e-17
-1.76494e-17
4.99852e-17
-8.5806e-17
1.64022e-17
-1.38373e-16
1.06958e-17
2.71632e-17
-7.80254e-18
1.02997e-16
-2.00456e-17
6.22289e-17
-1.69123e-16
1.57634e-17
-4.30813e-10
1.21431e-17
-4.30813e-10
-8.69119e-18
-4.30814e-10
-2.02236e-17
-4.30814e-10
-4.30813e-10
1.74294e-17
-4.30813e-10
1.22485e-17
-4.30813e-10
-8.99014e-18
-4.30814e-10
-2.15536e-17
-4.30814e-10
-4.30813e-10
2.37551e-17
-4.30813e-10
1.18038e-17
-4.30813e-10
-9.58808e-18
-4.30814e-10
-2.898e-17
-4.30814e-10
-4.30813e-10
1.66313e-17
-4.30813e-10
1.16933e-17
-4.30813e-10
-1.07546e-17
-4.30814e-10
-2.26714e-17
-4.30814e-10
-4.30813e-10
1.47557e-17
-4.30813e-10
1.04994e-17
-4.30813e-10
-1.07654e-17
-4.30814e-10
-2.16622e-17
-4.30814e-10
-4.30813e-10
1.46084e-17
-4.30813e-10
9.3626e-18
-4.30813e-10
-1.07941e-17
-4.30814e-10
-2.23949e-17
-4.30814e-10
-4.30813e-10
1.39926e-17
-4.30813e-10
8.46884e-18
-4.30813e-10
-1.10454e-17
-4.30814e-10
-2.26383e-17
-4.30814e-10
-4.30813e-10
1.29094e-17
-4.30813e-10
7.61622e-18
-4.30813e-10
-1.13209e-17
-4.30814e-10
-2.23864e-17
-4.30814e-10
-4.30813e-10
1.17754e-17
-4.30813e-10
6.72896e-18
-4.30813e-10
-1.15427e-17
-4.30814e-10
-2.2057e-17
-4.30814e-10
-4.30813e-10
1.0717e-17
-4.30813e-10
5.82744e-18
-4.30813e-10
-1.17294e-17
-4.30814e-10
-2.17772e-17
-4.30814e-10
-4.30813e-10
9.70353e-18
-4.30813e-10
4.93502e-18
-4.30813e-10
-1.1903e-17
-4.30813e-10
-2.15163e-17
-4.30814e-10
-4.30813e-10
8.70328e-18
-4.30813e-10
4.05722e-18
-4.30813e-10
-1.2068e-17
-4.30813e-10
-2.12417e-17
-4.30814e-10
-4.30813e-10
7.71064e-18
-4.30813e-10
3.19266e-18
-4.30813e-10
-1.22224e-17
-4.30813e-10
-2.09473e-17
-4.30813e-10
-4.30813e-10
6.72945e-18
2.34044e-18
-1.23638e-17
-2.06371e-17
)
;

boundaryField
{
    BotWall
    {
        type            calculated;
        value           nonuniform List<scalar> 5(-1.48369e-24 -3.84304e-23 -1.17641e-22 -9.67193e-23 -2.31437e-24);
    }
    FreeStream
    {
        type            calculated;
        value           nonuniform 0();
    }
    FrontNBack
    {
        type            empty;
        value           nonuniform 0();
    }
    LeftSide
    {
        type            symmetryPlane;
        value           uniform 0;
    }
    RightSide
    {
        type            symmetryPlane;
        value           uniform 0;
    }
    procBoundary0to1
    {
        type            processor;
        value           nonuniform List<scalar> 5(-4.30813e-10 -4.30813e-10 -4.30813e-10 -4.30813e-10 -4.30813e-10);
    }
}


// ************************************************************************* //
