/*--------------------------------*- C++ -*----------------------------------*\
| =========                 |                                                 |
| \\      /  F ield         | OpenFOAM: The Open Source CFD Toolbox           |
|  \\    /   O peration     | Version:  2.4.0                                 |
|   \\  /    A nd           | Web:      www.OpenFOAM.org                      |
|    \\/     M anipulation  |                                                 |
\*---------------------------------------------------------------------------*/
FoamFile
{
    version     2.0;
    format      ascii;
    class       volVectorField;
    location    "1";
    object      U;
}
// * * * * * * * * * * * * * * * * * * * * * * * * * * * * * * * * * * * * * //

dimensions      [0 1 -1 0 0 0 0];

internalField   nonuniform List<vector> 
125
(
(1.89235e-10 -2.08631e-09 0)
(2.6416e-10 -2.09715e-09 0)
(5.62493e-11 -2.09654e-09 0)
(-2.87458e-10 -2.09691e-09 0)
(-2.67819e-10 -2.08644e-09 0)
(5.70452e-10 7.5734e-09 0)
(7.94994e-10 7.62191e-09 0)
(1.68728e-10 7.62777e-09 0)
(-8.65753e-10 7.62463e-09 0)
(-8.07048e-10 7.57195e-09 0)
(9.60598e-10 2.3282e-08 0)
(1.33497e-09 2.32678e-08 0)
(2.81423e-10 2.32861e-08 0)
(-1.45437e-09 2.32761e-08 0)
(-1.35662e-09 2.32776e-08 0)
(1.35432e-09 5.69544e-08 0)
(1.87853e-09 5.70712e-08 0)
(3.94183e-10 5.71072e-08 0)
(-2.04795e-09 5.70879e-08 0)
(-1.91127e-09 5.69454e-08 0)
(1.75919e-09 -1.29271e-07 0)
(2.43308e-09 -1.29431e-07 0)
(5.06951e-10 -1.29371e-07 0)
(-2.65358e-09 -1.29404e-07 0)
(-2.47818e-09 -1.29285e-07 0)
(2.16521e-09 -7.63475e-07 0)
(2.98914e-09 -7.63558e-07 0)
(6.2034e-10 -7.63478e-07 0)
(-3.26197e-09 -7.63524e-07 0)
(-3.04825e-09 -7.63493e-07 0)
(2.58367e-09 -1.26987e-06 0)
(3.55792e-09 -1.26966e-06 0)
(7.34466e-10 -1.26955e-06 0)
(-3.88453e-09 -1.26962e-06 0)
(-3.63308e-09 -1.26989e-06 0)
(3.01327e-09 3.1416e-06 0)
(4.13814e-09 3.14453e-06 0)
(8.49425e-10 3.14472e-06 0)
(-4.52011e-09 3.14462e-06 0)
(-4.23163e-09 3.14156e-06 0)
(3.48484e-09 2.04751e-05 0)
(4.76133e-09 2.04804e-05 0)
(9.6586e-10 2.04809e-05 0)
(-5.2005e-09 2.04807e-05 0)
(-4.87568e-09 2.0475e-05 0)
(3.97193e-09 3.15132e-05 0)
(5.39992e-09 3.15117e-05 0)
(1.08341e-09 3.15126e-05 0)
(-5.89955e-09 3.15123e-05 0)
(-5.53988e-09 3.15129e-05 0)
(4.3529e-09 -7.63767e-05 0)
(5.94173e-09 -7.64061e-05 0)
(1.20765e-09 -7.64064e-05 0)
(-6.50545e-09 -7.64064e-05 0)
(-6.10858e-09 -7.63765e-05 0)
(4.39276e-09 -0.000586246 0)
(6.14922e-09 -0.000586281 0)
(1.33754e-09 -0.000586285 0)
(-6.7804e-09 -0.000586284 0)
(-6.34549e-09 -0.000586244 0)
(4.6677e-09 -0.00158962 0)
(6.45359e-09 -0.00158959 0)
(1.36109e-09 -0.00158959 0)
(-7.09676e-09 -0.00158959 0)
(-6.65596e-09 -0.00158962 0)
(5.60466e-09 -0.00367374 0)
(7.27009e-09 -0.00367371 0)
(1.19689e-09 -0.0036737 0)
(-8.30663e-09 -0.0036737 0)
(-7.80407e-09 -0.00367374 0)
(4.61359e-09 -0.00223133 0)
(6.1154e-09 -0.00223138 0)
(1.00036e-09 -0.00223138 0)
(-7.52887e-09 -0.00223138 0)
(-6.97593e-09 -0.00223133 0)
(4.10588e-09 -0.00207534 0)
(5.44855e-09 -0.00207535 0)
(8.09768e-10 -0.00207535 0)
(-7.22056e-09 -0.00207535 0)
(-6.61921e-09 -0.00207534 0)
(3.88126e-09 -0.00210933 0)
(5.07112e-09 -0.00210933 0)
(6.26345e-10 -0.00210933 0)
(-7.18711e-09 -0.00210933 0)
(-6.53874e-09 -0.00210933 0)
(3.66116e-09 -0.00214961 0)
(4.70323e-09 -0.00214961 0)
(4.49149e-10 -0.00214961 0)
(-7.14775e-09 -0.00214961 0)
(-6.45415e-09 -0.00214961 0)
(3.38709e-09 -0.00215763 0)
(4.28534e-09 -0.00215763 0)
(2.77385e-10 -0.00215763 0)
(-7.04268e-09 -0.00215763 0)
(-6.3059e-09 -0.00215763 0)
(3.09965e-09 -0.00215584 0)
(3.85795e-09 -0.00215584 0)
(1.10983e-10 -0.00215584 0)
(-6.91246e-09 -0.00215584 0)
(-6.13454e-09 -0.00215584 0)
(2.82329e-09 -0.00215425 0)
(3.44567e-09 -0.00215425 0)
(-4.99658e-11 -0.00215425 0)
(-6.78185e-09 -0.00215425 0)
(-5.96484e-09 -0.00215425 0)
(2.55985e-09 -0.00215392 0)
(3.05042e-09 -0.00215392 0)
(-2.05393e-10 -0.00215392 0)
(-6.65297e-09 -0.00215392 0)
(-5.79885e-09 -0.00215392 0)
(2.30586e-09 -0.00215399 0)
(2.6688e-09 -0.00215399 0)
(-3.55265e-10 -0.002154 0)
(-6.52247e-09 -0.002154 0)
(-5.63324e-09 -0.00215399 0)
(2.05976e-09 -0.00215406 0)
(2.29928e-09 -0.00215406 0)
(-4.99558e-10 -0.00215406 0)
(-6.38908e-09 -0.00215406 0)
(-5.46672e-09 -0.00215406 0)
(1.82152e-09 -0.00215407 0)
(1.94185e-09 -0.00215407 0)
(-6.38249e-10 -0.00215407 0)
(-6.25294e-09 -0.00215407 0)
(-5.29945e-09 -0.00215407 0)
)
;

boundaryField
{
    BotWall
    {
        type            fixedValue;
        value           uniform (0 0 0);
    }
    FreeStream
    {
        type            zeroGradient;
    }
    FrontNBack
    {
        type            empty;
    }
    LeftSide
    {
        type            symmetryPlane;
    }
    RightSide
    {
        type            symmetryPlane;
    }
    procBoundary0to1
    {
        type            processor;
        value           nonuniform List<vector> 5((1.59138e-09 -0.00215407 0) (1.5968e-09 -0.00215407 0) (-7.71326e-10 -0.00215407 0) (-6.11468e-09 -0.00215407 0) (-5.13202e-09 -0.00215407 0));
    }
}


// ************************************************************************* //
