/*--------------------------------*- C++ -*----------------------------------*\
| =========                 |                                                 |
| \\      /  F ield         | OpenFOAM: The Open Source CFD Toolbox           |
|  \\    /   O peration     | Version:  2.4.0                                 |
|   \\  /    A nd           | Web:      www.OpenFOAM.org                      |
|    \\/     M anipulation  |                                                 |
\*---------------------------------------------------------------------------*/
FoamFile
{
    version     2.0;
    format      ascii;
    class       volScalarField;
    location    "1.6";
    object      p;
}
// * * * * * * * * * * * * * * * * * * * * * * * * * * * * * * * * * * * * * //

dimensions      [1 -1 -2 0 0 0 0];

internalField   nonuniform List<scalar> 
125
(
-0.0330743
-0.0330743
-0.0330743
-0.0330743
-0.0330743
-0.0339341
-0.0339341
-0.0339341
-0.0339341
-0.0339341
-0.0348036
-0.0348036
-0.0348036
-0.0348036
-0.0348036
-0.0356827
-0.0356827
-0.0356827
-0.0356827
-0.0356827
-0.0365717
-0.0365717
-0.0365717
-0.0365717
-0.0365717
-0.0374705
-0.0374705
-0.0374705
-0.0374705
-0.0374705
-0.0383794
-0.0383794
-0.0383794
-0.0383794
-0.0383794
-0.0392985
-0.0392985
-0.0392985
-0.0392985
-0.0392985
-0.0402278
-0.0402278
-0.0402278
-0.0402278
-0.0402278
-0.0411674
-0.0411674
-0.0411674
-0.0411674
-0.0411675
-0.0421176
-0.0421176
-0.0421176
-0.0421176
-0.0421176
-0.0430784
-0.0430784
-0.0430784
-0.0430784
-0.0430784
-0.0440498
-0.0440498
-0.0440498
-0.0440498
-0.0440498
-0.0450322
-0.0450322
-0.0450322
-0.0450322
-0.0450322
-0.0460254
-0.0460254
-0.0460254
-0.0460254
-0.0460254
-0.0470298
-0.0470298
-0.0470298
-0.0470298
-0.0470298
-0.0480454
-0.0480454
-0.0480454
-0.0480454
-0.0480454
-0.0490723
-0.0490723
-0.0490723
-0.0490723
-0.0490723
-0.0501106
-0.0501106
-0.0501106
-0.0501106
-0.0501106
-0.0511606
-0.0511606
-0.0511606
-0.0511606
-0.0511606
-0.0522223
-0.0522223
-0.0522223
-0.0522223
-0.0522223
-0.0532958
-0.0532958
-0.0532958
-0.0532958
-0.0532958
-0.0543813
-0.0543813
-0.0543813
-0.0543813
-0.0543813
-0.0554789
-0.0554789
-0.0554789
-0.0554789
-0.0554789
-0.0565887
-0.0565887
-0.0565887
-0.0565887
-0.0565887
)
;

boundaryField
{
    BotWall
    {
        type            calculated;
        value           nonuniform 0();
    }
    FreeStream
    {
        type            calculated;
        value           nonuniform 0();
    }
    FrontNBack
    {
        type            empty;
    }
    LeftSide
    {
        type            symmetryPlane;
    }
    RightSide
    {
        type            symmetryPlane;
    }
    procBoundary2to1
    {
        type            processor;
        value           nonuniform List<scalar> 5(-0.0322239 -0.0322239 -0.0322239 -0.0322239 -0.0322239);
    }
    procBoundary2to3
    {
        type            processor;
        value           nonuniform List<scalar> 5(-0.057711 -0.057711 -0.057711 -0.057711 -0.057711);
    }
}


// ************************************************************************* //
