/*--------------------------------*- C++ -*----------------------------------*\
| =========                 |                                                 |
| \\      /  F ield         | OpenFOAM: The Open Source CFD Toolbox           |
|  \\    /   O peration     | Version:  2.4.0                                 |
|   \\  /    A nd           | Web:      www.OpenFOAM.org                      |
|    \\/     M anipulation  |                                                 |
\*---------------------------------------------------------------------------*/
FoamFile
{
    version     2.0;
    format      ascii;
    class       volScalarField;
    location    "1.6";
    object      p_rgh;
}
// * * * * * * * * * * * * * * * * * * * * * * * * * * * * * * * * * * * * * //

dimensions      [1 -1 -2 0 0 0 0];

internalField   nonuniform List<scalar> 
125
(
-1.45863e-05
-1.45859e-05
-1.45858e-05
-1.45859e-05
-1.4587e-05
-1.45602e-05
-1.45598e-05
-1.45597e-05
-1.45598e-05
-1.45608e-05
-1.45338e-05
-1.45334e-05
-1.45333e-05
-1.45334e-05
-1.45343e-05
-1.45071e-05
-1.45067e-05
-1.45066e-05
-1.45067e-05
-1.45076e-05
-1.44801e-05
-1.44797e-05
-1.44796e-05
-1.44798e-05
-1.44806e-05
-1.44528e-05
-1.44524e-05
-1.44523e-05
-1.44525e-05
-1.44532e-05
-1.44252e-05
-1.44249e-05
-1.44248e-05
-1.44249e-05
-1.44256e-05
-1.43973e-05
-1.4397e-05
-1.43969e-05
-1.4397e-05
-1.43977e-05
-1.43691e-05
-1.43688e-05
-1.43687e-05
-1.43688e-05
-1.43695e-05
-1.43406e-05
-1.43403e-05
-1.43402e-05
-1.43404e-05
-1.4341e-05
-1.43118e-05
-1.43115e-05
-1.43114e-05
-1.43116e-05
-1.43122e-05
-1.42827e-05
-1.42824e-05
-1.42823e-05
-1.42824e-05
-1.4283e-05
-1.42532e-05
-1.4253e-05
-1.42529e-05
-1.4253e-05
-1.42536e-05
-1.42235e-05
-1.42232e-05
-1.42231e-05
-1.42232e-05
-1.42238e-05
-1.41934e-05
-1.41931e-05
-1.41931e-05
-1.41932e-05
-1.41937e-05
-1.41629e-05
-1.41627e-05
-1.41626e-05
-1.41627e-05
-1.41632e-05
-1.41322e-05
-1.4132e-05
-1.41319e-05
-1.4132e-05
-1.41325e-05
-1.41011e-05
-1.41009e-05
-1.41008e-05
-1.41009e-05
-1.41014e-05
-1.40697e-05
-1.40695e-05
-1.40694e-05
-1.40695e-05
-1.40699e-05
-1.40379e-05
-1.40377e-05
-1.40376e-05
-1.40377e-05
-1.40381e-05
-1.40058e-05
-1.40056e-05
-1.40055e-05
-1.40056e-05
-1.4006e-05
-1.39733e-05
-1.39731e-05
-1.39731e-05
-1.39731e-05
-1.39735e-05
-1.39405e-05
-1.39403e-05
-1.39403e-05
-1.39403e-05
-1.39407e-05
-1.39073e-05
-1.39071e-05
-1.39071e-05
-1.39071e-05
-1.39074e-05
-1.38738e-05
-1.38736e-05
-1.38736e-05
-1.38736e-05
-1.38739e-05
)
;

boundaryField
{
    BotWall
    {
        type            fixedFluxPressure;
        gradient        nonuniform 0();
        value           nonuniform 0();
    }
    FreeStream
    {
        type            totalPressure;
        rho             rho;
        psi             none;
        gamma           1;
        p0              nonuniform 0();
        value           nonuniform 0();
    }
    FrontNBack
    {
        type            empty;
    }
    LeftSide
    {
        type            symmetryPlane;
    }
    RightSide
    {
        type            symmetryPlane;
    }
    procBoundary2to1
    {
        type            processor;
        value           nonuniform List<scalar> 5(-1.46121e-05 -1.46117e-05 -1.46116e-05 -1.46118e-05 -1.46129e-05);
    }
    procBoundary2to3
    {
        type            processor;
        value           nonuniform List<scalar> 5(-1.38399e-05 -1.38397e-05 -1.38397e-05 -1.38397e-05 -1.38399e-05);
    }
}


// ************************************************************************* //
