/*--------------------------------*- C++ -*----------------------------------*\
| =========                 |                                                 |
| \\      /  F ield         | OpenFOAM: The Open Source CFD Toolbox           |
|  \\    /   O peration     | Version:  2.4.0                                 |
|   \\  /    A nd           | Web:      www.OpenFOAM.org                      |
|    \\/     M anipulation  |                                                 |
\*---------------------------------------------------------------------------*/
FoamFile
{
    version     2.0;
    format      ascii;
    class       volVectorField;
    location    "1.6";
    object      U;
}
// * * * * * * * * * * * * * * * * * * * * * * * * * * * * * * * * * * * * * //

dimensions      [0 1 -1 0 0 0 0];

internalField   nonuniform List<vector> 
125
(
(-1.33929e-09 -0.00168079 0)
(-1.7459e-09 -0.00168079 0)
(3.74459e-10 -0.00168079 0)
(2.54057e-10 -0.00168079 0)
(-2.40475e-10 -0.00168079 0)
(-1.43971e-09 -0.00168079 0)
(-1.91048e-09 -0.00168079 0)
(3.52638e-10 -0.00168079 0)
(4.56003e-10 -0.00168079 0)
(-8.34489e-11 -0.00168079 0)
(-1.53068e-09 -0.00168079 0)
(-2.06023e-09 -0.00168079 0)
(3.3205e-10 -0.00168079 0)
(6.43933e-10 -0.00168079 0)
(6.33371e-11 -0.00168079 0)
(-1.61237e-09 -0.00168079 0)
(-2.19543e-09 -0.00168079 0)
(3.12616e-10 -0.00168079 0)
(8.18085e-10 -0.00168079 0)
(2.00115e-10 -0.00168079 0)
(-1.68499e-09 -0.00168079 0)
(-2.31636e-09 -0.00168079 0)
(2.9426e-10 -0.00168079 0)
(9.78601e-10 -0.00168079 0)
(3.2702e-10 -0.00168079 0)
(-1.74873e-09 -0.00168079 0)
(-2.42333e-09 -0.00168079 0)
(2.76905e-10 -0.00168079 0)
(1.12567e-09 -0.00168079 0)
(4.44222e-10 -0.00168079 0)
(-1.80379e-09 -0.00168079 0)
(-2.51666e-09 -0.00168079 0)
(2.60473e-10 -0.00168079 0)
(1.25949e-09 -0.00168079 0)
(5.51903e-10 -0.00168079 0)
(-1.8504e-09 -0.00168079 0)
(-2.59669e-09 -0.00168079 0)
(2.44891e-10 -0.00168079 0)
(1.3803e-09 -0.00168079 0)
(6.50258e-10 -0.00168079 0)
(-1.88877e-09 -0.00168079 0)
(-2.66378e-09 -0.00168079 0)
(2.30087e-10 -0.00168079 0)
(1.48834e-09 -0.00168079 0)
(7.39494e-10 -0.00168079 0)
(-1.91916e-09 -0.00168079 0)
(-2.7183e-09 -0.00168079 0)
(2.15988e-10 -0.00168079 0)
(1.58387e-09 -0.00168079 0)
(8.19828e-10 -0.00168079 0)
(-1.9418e-09 -0.00168079 0)
(-2.76063e-09 -0.00168079 0)
(2.02526e-10 -0.00168079 0)
(1.66718e-09 -0.00168079 0)
(8.91487e-10 -0.00168079 0)
(-1.95694e-09 -0.00168079 0)
(-2.79118e-09 -0.00168079 0)
(1.89635e-10 -0.00168079 0)
(1.73858e-09 -0.00168079 0)
(9.54709e-10 -0.00168079 0)
(-1.96486e-09 -0.00168079 0)
(-2.81035e-09 -0.00168079 0)
(1.77252e-10 -0.00168079 0)
(1.79838e-09 -0.00168079 0)
(1.00974e-09 -0.00168079 0)
(-1.96583e-09 -0.00168079 0)
(-2.8186e-09 -0.00168079 0)
(1.65315e-10 -0.00168079 0)
(1.84691e-09 -0.00168079 0)
(1.05683e-09 -0.00168079 0)
(-1.96014e-09 -0.00168079 0)
(-2.81636e-09 -0.00168079 0)
(1.53768e-10 -0.00168079 0)
(1.88453e-09 -0.00168079 0)
(1.09625e-09 -0.00168079 0)
(-1.94806e-09 -0.00168079 0)
(-2.8041e-09 -0.00168079 0)
(1.42558e-10 -0.00168079 0)
(1.91162e-09 -0.00168079 0)
(1.12826e-09 -0.00168079 0)
(-1.92992e-09 -0.00168079 0)
(-2.7823e-09 -0.00168079 0)
(1.31634e-10 -0.00168079 0)
(1.92855e-09 -0.00168079 0)
(1.15314e-09 -0.00168079 0)
(-1.906e-09 -0.00168079 0)
(-2.75145e-09 -0.00168079 0)
(1.20952e-10 -0.00168079 0)
(1.93573e-09 -0.00168079 0)
(1.17119e-09 -0.00168079 0)
(-1.87665e-09 -0.00168079 0)
(-2.71205e-09 -0.00168079 0)
(1.10471e-10 -0.00168079 0)
(1.93359e-09 -0.00168079 0)
(1.18268e-09 -0.00168079 0)
(-1.84218e-09 -0.00168079 0)
(-2.66462e-09 -0.00168079 0)
(1.00154e-10 -0.00168079 0)
(1.92255e-09 -0.00168079 0)
(1.18793e-09 -0.00168079 0)
(-1.80292e-09 -0.00168079 0)
(-2.60969e-09 -0.00168079 0)
(8.99693e-11 -0.00168079 0)
(1.90307e-09 -0.00168079 0)
(1.18723e-09 -0.00168079 0)
(-1.75922e-09 -0.00168079 0)
(-2.54781e-09 -0.00168079 0)
(7.9891e-11 -0.00168079 0)
(1.87558e-09 -0.00168079 0)
(1.18087e-09 -0.00168079 0)
(-1.71144e-09 -0.00168079 0)
(-2.47953e-09 -0.00168079 0)
(6.98963e-11 -0.00168079 0)
(1.84066e-09 -0.00168079 0)
(1.16927e-09 -0.00168079 0)
(-1.65992e-09 -0.00168079 0)
(-2.4054e-09 -0.00168079 0)
(5.99712e-11 -0.00168079 0)
(1.79844e-09 -0.00168079 0)
(1.15238e-09 -0.00168079 0)
(-1.60503e-09 -0.00168079 0)
(-2.32602e-09 -0.00168079 0)
(5.00968e-11 -0.00168079 0)
(1.74997e-09 -0.00168079 0)
(1.13107e-09 -0.00168079 0)
)
;

boundaryField
{
    BotWall
    {
        type            fixedValue;
        value           nonuniform 0();
    }
    FreeStream
    {
        type            zeroGradient;
    }
    FrontNBack
    {
        type            empty;
    }
    LeftSide
    {
        type            symmetryPlane;
    }
    RightSide
    {
        type            symmetryPlane;
    }
    procBoundary2to1
    {
        type            processor;
        value           nonuniform List<vector> 5((-1.22925e-09 -0.00168079 0) (-1.56624e-09 -0.00168079 0) (3.9759e-10 -0.00168079 0) (3.82375e-11 -0.00168079 0) (-4.07616e-10 -0.00168079 0));
    }
    procBoundary2to3
    {
        type            processor;
        value           nonuniform List<vector> 5((-1.54714e-09 -0.00168079 0) (-2.24196e-09 -0.00168079 0) (4.02717e-11 -0.00168079 0) (1.69532e-09 -0.00168079 0) (1.10524e-09 -0.00168079 0));
    }
}


// ************************************************************************* //
