/*--------------------------------*- C++ -*----------------------------------*\
| =========                 |                                                 |
| \\      /  F ield         | OpenFOAM: The Open Source CFD Toolbox           |
|  \\    /   O peration     | Version:  2.4.0                                 |
|   \\  /    A nd           | Web:      www.OpenFOAM.org                      |
|    \\/     M anipulation  |                                                 |
\*---------------------------------------------------------------------------*/
FoamFile
{
    version     2.0;
    format      ascii;
    class       volScalarField;
    location    "0.4";
    object      H;
}
// * * * * * * * * * * * * * * * * * * * * * * * * * * * * * * * * * * * * * //

dimensions      [0 2 -2 0 0 0 0];

internalField   nonuniform List<scalar> 
125
(
-10.4855
-10.4856
-10.4856
-10.4855
-10.4853
-9.77118
-9.77124
-9.77125
-9.77116
-9.77098
-9.08707
-9.08713
-9.08714
-9.08705
-9.08687
-8.43278
-8.43284
-8.43285
-8.43277
-8.43259
-7.80781
-7.80787
-7.80788
-7.8078
-7.80763
-7.21156
-7.21161
-7.21162
-7.21155
-7.21139
-6.64332
-6.64337
-6.64338
-6.64331
-6.64316
-6.1023
-6.10235
-6.10236
-6.1023
-6.10215
-5.58766
-5.58771
-5.58771
-5.58765
-5.58751
-5.09847
-5.09851
-5.09851
-5.09846
-5.09833
-4.63375
-4.63379
-4.63379
-4.63374
-4.63362
-4.1925
-4.19254
-4.19254
-4.1925
-4.19238
-3.77369
-3.77372
-3.77373
-3.77368
-3.77358
-3.37625
-3.37628
-3.37628
-3.37624
-3.37615
-2.99911
-2.99914
-2.99914
-2.99911
-2.99902
-2.64121
-2.64124
-2.64124
-2.64121
-2.64113
-2.30148
-2.3015
-2.30151
-2.30148
-2.30141
-1.97887
-1.97889
-1.97889
-1.97887
-1.97881
-1.67234
-1.67236
-1.67236
-1.67233
-1.67229
-1.38087
-1.38089
-1.38089
-1.38087
-1.38083
-1.10348
-1.10349
-1.10349
-1.10347
-1.10344
-0.839189
-0.839197
-0.839197
-0.839186
-0.839161
-0.587071
-0.587076
-0.587076
-0.587068
-0.58705
-0.346213
-0.346216
-0.346216
-0.346211
-0.346201
-0.115735
-0.115736
-0.115736
-0.115734
-0.115731
)
;

boundaryField
{
    BotWall
    {
        type            zeroGradient;
    }
    FreeStream
    {
        type            zeroGradient;
    }
    FrontNBack
    {
        type            empty;
    }
    LeftSide
    {
        type            symmetryPlane;
    }
    RightSide
    {
        type            symmetryPlane;
    }
    procBoundary3to2
    {
        type            processor;
        value           nonuniform List<scalar> 5(-11.2308 -11.2308 -11.2309 -11.2308 -11.2306);
    }
}


// ************************************************************************* //
