/*--------------------------------*- C++ -*----------------------------------*\
| =========                 |                                                 |
| \\      /  F ield         | OpenFOAM: The Open Source CFD Toolbox           |
|  \\    /   O peration     | Version:  2.4.0                                 |
|   \\  /    A nd           | Web:      www.OpenFOAM.org                      |
|    \\/     M anipulation  |                                                 |
\*---------------------------------------------------------------------------*/
FoamFile
{
    version     2.0;
    format      ascii;
    class       volScalarField;
    location    "0.4";
    object      p_rgh;
}
// * * * * * * * * * * * * * * * * * * * * * * * * * * * * * * * * * * * * * //

dimensions      [1 -1 -2 0 0 0 0];

internalField   nonuniform List<scalar> 
125
(
-5.85767e-05
-5.85765e-05
-5.85779e-05
-5.85783e-05
-5.858e-05
-5.82403e-05
-5.82401e-05
-5.82415e-05
-5.82418e-05
-5.82433e-05
-5.79e-05
-5.78999e-05
-5.79012e-05
-5.79016e-05
-5.79029e-05
-5.7556e-05
-5.75559e-05
-5.75572e-05
-5.75575e-05
-5.75588e-05
-5.72082e-05
-5.72081e-05
-5.72093e-05
-5.72097e-05
-5.72109e-05
-5.68565e-05
-5.68564e-05
-5.68576e-05
-5.6858e-05
-5.68591e-05
-5.65009e-05
-5.65008e-05
-5.65019e-05
-5.65024e-05
-5.65034e-05
-5.61413e-05
-5.61412e-05
-5.61423e-05
-5.61428e-05
-5.61438e-05
-5.57777e-05
-5.57777e-05
-5.57787e-05
-5.57792e-05
-5.57802e-05
-5.54101e-05
-5.54101e-05
-5.54111e-05
-5.54116e-05
-5.54125e-05
-5.50384e-05
-5.50384e-05
-5.50394e-05
-5.50399e-05
-5.50408e-05
-5.46626e-05
-5.46626e-05
-5.46635e-05
-5.46641e-05
-5.46649e-05
-5.42826e-05
-5.42826e-05
-5.42835e-05
-5.42841e-05
-5.42849e-05
-5.38984e-05
-5.38984e-05
-5.38993e-05
-5.38999e-05
-5.39007e-05
-5.35099e-05
-5.35099e-05
-5.35107e-05
-5.35114e-05
-5.35121e-05
-5.3117e-05
-5.31171e-05
-5.31179e-05
-5.31185e-05
-5.31193e-05
-5.27198e-05
-5.27199e-05
-5.27207e-05
-5.27213e-05
-5.27221e-05
-5.23182e-05
-5.23183e-05
-5.23191e-05
-5.23197e-05
-5.23204e-05
-5.19122e-05
-5.19123e-05
-5.1913e-05
-5.19136e-05
-5.19143e-05
-5.15016e-05
-5.15017e-05
-5.15023e-05
-5.15031e-05
-5.15037e-05
-5.10864e-05
-5.10865e-05
-5.10872e-05
-5.10879e-05
-5.10885e-05
-5.06666e-05
-5.06668e-05
-5.06674e-05
-5.06681e-05
-5.06688e-05
-5.02422e-05
-5.02424e-05
-5.02429e-05
-5.02437e-05
-5.02443e-05
-4.98129e-05
-4.98131e-05
-4.98137e-05
-4.98145e-05
-4.98151e-05
-4.93784e-05
-4.93786e-05
-4.9379e-05
-4.93797e-05
-4.93803e-05
)
;

boundaryField
{
    BotWall
    {
        type            fixedFluxPressure;
        gradient        nonuniform 0();
        value           nonuniform 0();
    }
    FreeStream
    {
        type            totalPressure;
        rho             rho;
        psi             none;
        gamma           1;
        p0              uniform 0;
        value           nonuniform List<scalar> 5(-4.91598e-05 -4.91599e-05 -4.91602e-05 -4.91609e-05 -4.91614e-05);
    }
    FrontNBack
    {
        type            empty;
    }
    LeftSide
    {
        type            symmetryPlane;
    }
    RightSide
    {
        type            symmetryPlane;
    }
    procBoundary3to2
    {
        type            processor;
        value           nonuniform List<scalar> 5(-5.89095e-05 -5.89092e-05 -5.89107e-05 -5.8911e-05 -5.89131e-05);
    }
}


// ************************************************************************* //
