/*--------------------------------*- C++ -*----------------------------------*\
| =========                 |                                                 |
| \\      /  F ield         | OpenFOAM: The Open Source CFD Toolbox           |
|  \\    /   O peration     | Version:  2.4.0                                 |
|   \\  /    A nd           | Web:      www.OpenFOAM.org                      |
|    \\/     M anipulation  |                                                 |
\*---------------------------------------------------------------------------*/
FoamFile
{
    version     2.0;
    format      ascii;
    class       volVectorField;
    location    "0.4";
    object      U;
}
// * * * * * * * * * * * * * * * * * * * * * * * * * * * * * * * * * * * * * //

dimensions      [0 1 -1 0 0 0 0];

internalField   nonuniform List<vector> 
125
(
(-4.29346e-09 -0.00328342 0)
(-1.46416e-08 -0.00328343 0)
(-2.10988e-08 -0.00328343 0)
(-1.97218e-08 -0.00328345 0)
(-8.70462e-09 -0.00328346 0)
(-4.27059e-09 -0.00328342 0)
(-1.45249e-08 -0.00328343 0)
(-2.07482e-08 -0.00328343 0)
(-1.91583e-08 -0.00328345 0)
(-8.41076e-09 -0.00328346 0)
(-4.24851e-09 -0.00328342 0)
(-1.44071e-08 -0.00328343 0)
(-2.03967e-08 -0.00328343 0)
(-1.85996e-08 -0.00328345 0)
(-8.12025e-09 -0.00328346 0)
(-4.22714e-09 -0.00328342 0)
(-1.42887e-08 -0.00328343 0)
(-2.00455e-08 -0.00328343 0)
(-1.80472e-08 -0.00328345 0)
(-7.83371e-09 -0.00328346 0)
(-4.20637e-09 -0.00328342 0)
(-1.417e-08 -0.00328343 0)
(-1.96961e-08 -0.00328343 0)
(-1.7503e-08 -0.00328345 0)
(-7.5522e-09 -0.00328346 0)
(-4.18613e-09 -0.00328342 0)
(-1.40513e-08 -0.00328343 0)
(-1.93498e-08 -0.00328343 0)
(-1.69689e-08 -0.00328345 0)
(-7.27672e-09 -0.00328346 0)
(-4.16631e-09 -0.00328342 0)
(-1.39332e-08 -0.00328343 0)
(-1.9008e-08 -0.00328343 0)
(-1.64467e-08 -0.00328345 0)
(-7.00822e-09 -0.00328346 0)
(-4.14683e-09 -0.00328342 0)
(-1.38161e-08 -0.00328342 0)
(-1.8672e-08 -0.00328343 0)
(-1.59382e-08 -0.00328345 0)
(-6.74764e-09 -0.00328346 0)
(-4.12761e-09 -0.00328342 0)
(-1.37004e-08 -0.00328342 0)
(-1.83433e-08 -0.00328343 0)
(-1.54453e-08 -0.00328345 0)
(-6.49588e-09 -0.00328346 0)
(-4.10858e-09 -0.00328342 0)
(-1.35865e-08 -0.00328342 0)
(-1.80231e-08 -0.00328343 0)
(-1.49695e-08 -0.00328345 0)
(-6.2538e-09 -0.00328347 0)
(-4.0897e-09 -0.00328342 0)
(-1.34751e-08 -0.00328342 0)
(-1.7713e-08 -0.00328343 0)
(-1.45126e-08 -0.00328345 0)
(-6.02225e-09 -0.00328347 0)
(-4.07095e-09 -0.00328342 0)
(-1.33665e-08 -0.00328342 0)
(-1.74144e-08 -0.00328343 0)
(-1.40764e-08 -0.00328345 0)
(-5.80203e-09 -0.00328347 0)
(-4.05232e-09 -0.00328342 0)
(-1.32613e-08 -0.00328342 0)
(-1.71285e-08 -0.00328343 0)
(-1.36623e-08 -0.00328345 0)
(-5.59391e-09 -0.00328347 0)
(-4.03385e-09 -0.00328342 0)
(-1.31602e-08 -0.00328342 0)
(-1.68569e-08 -0.00328343 0)
(-1.3272e-08 -0.00328345 0)
(-5.39863e-09 -0.00328347 0)
(-4.01558e-09 -0.00328342 0)
(-1.30636e-08 -0.00328342 0)
(-1.6601e-08 -0.00328343 0)
(-1.29071e-08 -0.00328345 0)
(-5.21691e-09 -0.00328347 0)
(-3.99763e-09 -0.00328342 0)
(-1.29723e-08 -0.00328342 0)
(-1.63621e-08 -0.00328343 0)
(-1.25691e-08 -0.00328345 0)
(-5.04941e-09 -0.00328347 0)
(-3.98012e-09 -0.00328342 0)
(-1.28869e-08 -0.00328342 0)
(-1.61416e-08 -0.00328343 0)
(-1.22594e-08 -0.00328345 0)
(-4.89677e-09 -0.00328347 0)
(-3.96323e-09 -0.00328342 0)
(-1.28081e-08 -0.00328342 0)
(-1.59408e-08 -0.00328343 0)
(-1.19795e-08 -0.00328345 0)
(-4.7596e-09 -0.00328347 0)
(-3.94718e-09 -0.00328342 0)
(-1.27366e-08 -0.00328342 0)
(-1.57613e-08 -0.00328343 0)
(-1.17308e-08 -0.00328345 0)
(-4.63844e-09 -0.00328347 0)
(-3.93224e-09 -0.00328342 0)
(-1.26733e-08 -0.00328342 0)
(-1.56042e-08 -0.00328343 0)
(-1.15146e-08 -0.00328345 0)
(-4.53381e-09 -0.00328347 0)
(-3.91872e-09 -0.00328342 0)
(-1.26189e-08 -0.00328342 0)
(-1.54708e-08 -0.00328343 0)
(-1.13322e-08 -0.00328345 0)
(-4.44618e-09 -0.00328347 0)
(-3.907e-09 -0.00328342 0)
(-1.25742e-08 -0.00328342 0)
(-1.53625e-08 -0.00328343 0)
(-1.11847e-08 -0.00328345 0)
(-4.37594e-09 -0.00328347 0)
(-3.89754e-09 -0.00328342 0)
(-1.25401e-08 -0.00328342 0)
(-1.52805e-08 -0.00328343 0)
(-1.10735e-08 -0.00328345 0)
(-4.32343e-09 -0.00328347 0)
(-3.89095e-09 -0.00328342 0)
(-1.25178e-08 -0.00328342 0)
(-1.52264e-08 -0.00328343 0)
(-1.09996e-08 -0.00328345 0)
(-4.28889e-09 -0.00328347 0)
(-3.88784e-09 -0.00328342 0)
(-1.25081e-08 -0.00328342 0)
(-1.52012e-08 -0.00328343 0)
(-1.09641e-08 -0.00328345 0)
(-4.27234e-09 -0.00328347 0)
)
;

boundaryField
{
    BotWall
    {
        type            fixedValue;
        value           nonuniform 0();
    }
    FreeStream
    {
        type            zeroGradient;
    }
    FrontNBack
    {
        type            empty;
    }
    LeftSide
    {
        type            symmetryPlane;
    }
    RightSide
    {
        type            symmetryPlane;
    }
    procBoundary3to2
    {
        type            processor;
        value           nonuniform List<vector> 5((-4.31715e-09 -0.00328342 0) (-1.47568e-08 -0.00328343 0) (-2.14473e-08 -0.00328343 0) (-2.02867e-08 -0.00328345 0) (-8.99941e-09 -0.00328346 0));
    }
}


// ************************************************************************* //
