/*--------------------------------*- C++ -*----------------------------------*\
| =========                 |                                                 |
| \\      /  F ield         | OpenFOAM: The Open Source CFD Toolbox           |
|  \\    /   O peration     | Version:  2.4.0                                 |
|   \\  /    A nd           | Web:      www.OpenFOAM.org                      |
|    \\/     M anipulation  |                                                 |
\*---------------------------------------------------------------------------*/
FoamFile
{
    version     2.0;
    format      ascii;
    class       volScalarField;
    location    "1";
    object      H;
}
// * * * * * * * * * * * * * * * * * * * * * * * * * * * * * * * * * * * * * //

dimensions      [0 2 -2 0 0 0 0];

internalField   nonuniform List<scalar> 
125
(
-12.6663
-12.6662
-12.6661
-12.6661
-12.6662
-12.1253
-12.1252
-12.1252
-12.1252
-12.1253
-11.5816
-11.5815
-11.5814
-11.5814
-11.5815
-11.0357
-11.0356
-11.0355
-11.0355
-11.0356
-10.4883
-10.4882
-10.4882
-10.4882
-10.4883
-9.94023
-9.94015
-9.94008
-9.94009
-9.9402
-9.39211
-9.39204
-9.39197
-9.39198
-9.39208
-8.84464
-8.84457
-8.84451
-8.84452
-8.84461
-8.29849
-8.29843
-8.29837
-8.29838
-8.29846
-7.75433
-7.75427
-7.75422
-7.75422
-7.7543
-7.21279
-7.21274
-7.21269
-7.2127
-7.21277
-6.67452
-6.67447
-6.67443
-6.67443
-6.67449
-6.14012
-6.14007
-6.14004
-6.14004
-6.14009
-5.61018
-5.61014
-5.61011
-5.61011
-5.61016
-5.08529
-5.08525
-5.08522
-5.08522
-5.08527
-4.56598
-4.56595
-4.56593
-4.56593
-4.56596
-4.0528
-4.05278
-4.05275
-4.05275
-4.05279
-3.54626
-3.54623
-3.54621
-3.54621
-3.54624
-3.04684
-3.04682
-3.0468
-3.0468
-3.04682
-2.55501
-2.55499
-2.55498
-2.55498
-2.555
-2.07123
-2.07122
-2.07121
-2.07121
-2.07122
-1.59594
-1.59593
-1.59592
-1.59592
-1.59593
-1.12954
-1.12953
-1.12953
-1.12953
-1.12954
-0.672447
-0.672443
-0.672439
-0.672439
-0.672444
-0.225049
-0.225047
-0.225046
-0.225046
-0.225048
)
;

boundaryField
{
    BotWall
    {
        type            zeroGradient;
    }
    FreeStream
    {
        type            zeroGradient;
    }
    FrontNBack
    {
        type            empty;
    }
    LeftSide
    {
        type            symmetryPlane;
    }
    RightSide
    {
        type            symmetryPlane;
    }
    procBoundary3to2
    {
        type            processor;
        value           nonuniform List<scalar> 5(-13.2028 -13.2027 -13.2026 -13.2026 -13.2028);
    }
}


// ************************************************************************* //
