/*--------------------------------*- C++ -*----------------------------------*\
| =========                 |                                                 |
| \\      /  F ield         | OpenFOAM: The Open Source CFD Toolbox           |
|  \\    /   O peration     | Version:  2.4.0                                 |
|   \\  /    A nd           | Web:      www.OpenFOAM.org                      |
|    \\/     M anipulation  |                                                 |
\*---------------------------------------------------------------------------*/
FoamFile
{
    version     2.0;
    format      ascii;
    class       volScalarField;
    location    "1";
    object      p;
}
// * * * * * * * * * * * * * * * * * * * * * * * * * * * * * * * * * * * * * //

dimensions      [1 -1 -2 0 0 0 0];

internalField   nonuniform List<scalar> 
125
(
-0.0577202
-0.0577202
-0.0577202
-0.0577202
-0.0577202
-0.058855
-0.058855
-0.058855
-0.058855
-0.058855
-0.0600024
-0.0600024
-0.0600024
-0.0600024
-0.0600024
-0.0611626
-0.0611626
-0.0611626
-0.0611626
-0.0611626
-0.0623357
-0.0623357
-0.0623357
-0.0623357
-0.0623357
-0.0635219
-0.0635219
-0.0635219
-0.0635219
-0.0635219
-0.0647214
-0.0647214
-0.0647214
-0.0647214
-0.0647214
-0.0659342
-0.0659342
-0.0659342
-0.0659342
-0.0659342
-0.0671606
-0.0671606
-0.0671606
-0.0671606
-0.0671606
-0.0684007
-0.0684007
-0.0684007
-0.0684007
-0.0684007
-0.0696546
-0.0696546
-0.0696546
-0.0696546
-0.0696546
-0.0709225
-0.0709225
-0.0709225
-0.0709225
-0.0709225
-0.0722045
-0.0722045
-0.0722045
-0.0722045
-0.0722045
-0.0735009
-0.0735009
-0.0735009
-0.0735009
-0.0735009
-0.0748117
-0.0748117
-0.0748117
-0.0748117
-0.0748117
-0.0761372
-0.0761372
-0.0761372
-0.0761372
-0.0761372
-0.0774774
-0.0774774
-0.0774774
-0.0774774
-0.0774774
-0.0788326
-0.0788326
-0.0788326
-0.0788326
-0.0788326
-0.0802029
-0.0802029
-0.0802029
-0.0802029
-0.0802029
-0.0815885
-0.0815885
-0.0815885
-0.0815885
-0.0815885
-0.0829896
-0.0829896
-0.0829896
-0.0829896
-0.0829896
-0.0844063
-0.0844063
-0.0844063
-0.0844063
-0.0844063
-0.0858388
-0.0858388
-0.0858388
-0.0858388
-0.0858388
-0.0872873
-0.0872873
-0.0872873
-0.0872873
-0.0872873
-0.088752
-0.088752
-0.088752
-0.088752
-0.088752
)
;

boundaryField
{
    BotWall
    {
        type            calculated;
        value           nonuniform 0();
    }
    FreeStream
    {
        type            calculated;
        value           nonuniform List<scalar> 5(-0.0894884 -0.0894884 -0.0894884 -0.0894884 -0.0894884);
    }
    FrontNBack
    {
        type            empty;
    }
    LeftSide
    {
        type            symmetryPlane;
    }
    RightSide
    {
        type            symmetryPlane;
    }
    procBoundary3to2
    {
        type            processor;
        value           nonuniform List<scalar> 5(-0.056598 -0.056598 -0.056598 -0.056598 -0.056598);
    }
}


// ************************************************************************* //
