/*--------------------------------*- C++ -*----------------------------------*\
| =========                 |                                                 |
| \\      /  F ield         | OpenFOAM: The Open Source CFD Toolbox           |
|  \\    /   O peration     | Version:  2.4.0                                 |
|   \\  /    A nd           | Web:      www.OpenFOAM.org                      |
|    \\/     M anipulation  |                                                 |
\*---------------------------------------------------------------------------*/
FoamFile
{
    version     2.0;
    format      ascii;
    class       volScalarField;
    location    "1";
    object      p_rgh;
}
// * * * * * * * * * * * * * * * * * * * * * * * * * * * * * * * * * * * * * //

dimensions      [1 -1 -2 0 0 0 0];

internalField   nonuniform List<scalar> 
125
(
-2.31272e-05
-2.31271e-05
-2.31272e-05
-2.31272e-05
-2.31273e-05
-2.30568e-05
-2.30567e-05
-2.30568e-05
-2.30568e-05
-2.30569e-05
-2.29856e-05
-2.29855e-05
-2.29856e-05
-2.29856e-05
-2.29856e-05
-2.29136e-05
-2.29135e-05
-2.29136e-05
-2.29136e-05
-2.29136e-05
-2.28409e-05
-2.28408e-05
-2.28408e-05
-2.28409e-05
-2.28409e-05
-2.27673e-05
-2.27672e-05
-2.27673e-05
-2.27673e-05
-2.27673e-05
-2.26929e-05
-2.26928e-05
-2.26929e-05
-2.26929e-05
-2.26929e-05
-2.26177e-05
-2.26176e-05
-2.26177e-05
-2.26177e-05
-2.26177e-05
-2.25416e-05
-2.25416e-05
-2.25416e-05
-2.25417e-05
-2.25417e-05
-2.24648e-05
-2.24647e-05
-2.24648e-05
-2.24648e-05
-2.24648e-05
-2.2387e-05
-2.2387e-05
-2.2387e-05
-2.23871e-05
-2.23871e-05
-2.23084e-05
-2.23084e-05
-2.23084e-05
-2.23085e-05
-2.23085e-05
-2.2229e-05
-2.22289e-05
-2.2229e-05
-2.2229e-05
-2.2229e-05
-2.21486e-05
-2.21486e-05
-2.21486e-05
-2.21487e-05
-2.21487e-05
-2.20674e-05
-2.20674e-05
-2.20674e-05
-2.20674e-05
-2.20675e-05
-2.19853e-05
-2.19852e-05
-2.19853e-05
-2.19853e-05
-2.19853e-05
-2.19022e-05
-2.19022e-05
-2.19022e-05
-2.19023e-05
-2.19023e-05
-2.18183e-05
-2.18183e-05
-2.18183e-05
-2.18183e-05
-2.18184e-05
-2.17334e-05
-2.17334e-05
-2.17334e-05
-2.17334e-05
-2.17335e-05
-2.16475e-05
-2.16476e-05
-2.16476e-05
-2.16476e-05
-2.16476e-05
-2.15608e-05
-2.15608e-05
-2.15608e-05
-2.15608e-05
-2.15609e-05
-2.1473e-05
-2.1473e-05
-2.14731e-05
-2.14731e-05
-2.14731e-05
-2.13843e-05
-2.13843e-05
-2.13844e-05
-2.13844e-05
-2.13844e-05
-2.12946e-05
-2.12946e-05
-2.12947e-05
-2.12947e-05
-2.12947e-05
-2.12039e-05
-2.12039e-05
-2.12039e-05
-2.1204e-05
-2.1204e-05
)
;

boundaryField
{
    BotWall
    {
        type            fixedFluxPressure;
        gradient        nonuniform 0();
        value           nonuniform 0();
    }
    FreeStream
    {
        type            totalPressure;
        rho             rho;
        psi             none;
        gamma           1;
        p0              uniform 0;
        value           nonuniform List<scalar> 5(-2.11582e-05 -2.11583e-05 -2.11583e-05 -2.11583e-05 -2.11584e-05);
    }
    FrontNBack
    {
        type            empty;
    }
    LeftSide
    {
        type            symmetryPlane;
    }
    RightSide
    {
        type            symmetryPlane;
    }
    procBoundary3to2
    {
        type            processor;
        value           nonuniform List<scalar> 5(-2.31969e-05 -2.31968e-05 -2.31969e-05 -2.31969e-05 -2.31971e-05);
    }
}


// ************************************************************************* //
