/*--------------------------------*- C++ -*----------------------------------*\
| =========                 |                                                 |
| \\      /  F ield         | OpenFOAM: The Open Source CFD Toolbox           |
|  \\    /   O peration     | Version:  2.4.0                                 |
|   \\  /    A nd           | Web:      www.OpenFOAM.org                      |
|    \\/     M anipulation  |                                                 |
\*---------------------------------------------------------------------------*/
FoamFile
{
    version     2.0;
    format      ascii;
    class       surfaceScalarField;
    location    "1";
    object      phi;
}
// * * * * * * * * * * * * * * * * * * * * * * * * * * * * * * * * * * * * * //

dimensions      [0 3 -1 0 0 0 0];

internalField   nonuniform List<scalar> 
220
(
-9.80837e-18
-4.30813e-10
-1.14416e-17
-4.30813e-10
-8.27059e-18
-4.30813e-10
-3.68247e-18
-4.30814e-10
-4.30814e-10
-9.44567e-18
-4.30813e-10
-1.11364e-17
-4.30813e-10
-8.1443e-18
-4.30813e-10
-3.61962e-18
-4.30814e-10
-4.30814e-10
-9.07081e-18
-4.30813e-10
-1.08234e-17
-4.30813e-10
-8.02465e-18
-4.30813e-10
-3.56998e-18
-4.30814e-10
-4.30814e-10
-8.68566e-18
-4.30813e-10
-1.05042e-17
-4.30813e-10
-7.91144e-18
-4.30813e-10
-3.53217e-18
-4.30814e-10
-4.30814e-10
-8.29213e-18
-4.30813e-10
-1.01805e-17
-4.30813e-10
-7.8048e-18
-4.30813e-10
-3.50613e-18
-4.30814e-10
-4.30814e-10
-7.89225e-18
-4.30813e-10
-9.85403e-18
-4.30813e-10
-7.70487e-18
-4.30813e-10
-3.49138e-18
-4.30814e-10
-4.30814e-10
-7.48808e-18
-4.30813e-10
-9.52662e-18
-4.30813e-10
-7.61179e-18
-4.30813e-10
-3.48737e-18
-4.30814e-10
-4.30814e-10
-7.08177e-18
-4.30813e-10
-9.20014e-18
-4.30813e-10
-7.52576e-18
-4.30813e-10
-3.49348e-18
-4.30814e-10
-4.30814e-10
-6.67557e-18
-4.30813e-10
-8.87648e-18
-4.30813e-10
-7.44698e-18
-4.30813e-10
-3.50902e-18
-4.30814e-10
-4.30814e-10
-6.27177e-18
-4.30813e-10
-8.55762e-18
-4.30813e-10
-7.37567e-18
-4.30813e-10
-3.5333e-18
-4.30814e-10
-4.30814e-10
-5.87278e-18
-4.30813e-10
-8.24556e-18
-4.30813e-10
-7.31209e-18
-4.30813e-10
-3.56558e-18
-4.30814e-10
-4.30814e-10
-5.48104e-18
-4.30813e-10
-7.94238e-18
-4.30813e-10
-7.25651e-18
-4.30813e-10
-3.60515e-18
-4.30814e-10
-4.30814e-10
-5.09913e-18
-4.30813e-10
-7.65017e-18
-4.30813e-10
-7.2092e-18
-4.30813e-10
-3.65125e-18
-4.30814e-10
-4.30814e-10
-4.72968e-18
-4.30813e-10
-7.3711e-18
-4.30813e-10
-7.17045e-18
-4.30813e-10
-3.70315e-18
-4.30814e-10
-4.30814e-10
-4.37543e-18
-4.30813e-10
-7.10739e-18
-4.30813e-10
-7.14056e-18
-4.30813e-10
-3.76009e-18
-4.30814e-10
-4.30814e-10
-4.0392e-18
-4.30813e-10
-6.8613e-18
-4.30813e-10
-7.11983e-18
-4.30813e-10
-3.82128e-18
-4.30814e-10
-4.30814e-10
-3.72391e-18
-4.30813e-10
-6.63514e-18
-4.30813e-10
-7.10855e-18
-4.30813e-10
-3.88591e-18
-4.30814e-10
-4.30814e-10
-3.43261e-18
-4.30813e-10
-6.43129e-18
-4.30813e-10
-7.107e-18
-4.30813e-10
-3.95315e-18
-4.30814e-10
-4.30814e-10
-3.16843e-18
-4.30813e-10
-6.25218e-18
-4.30813e-10
-7.11545e-18
-4.30813e-10
-4.02212e-18
-4.30814e-10
-4.30814e-10
-2.93463e-18
-4.30813e-10
-6.1003e-18
-4.30813e-10
-7.13415e-18
-4.30813e-10
-4.09185e-18
-4.30814e-10
-4.30814e-10
-2.73461e-18
-4.30813e-10
-5.97819e-18
-4.30813e-10
-7.16329e-18
-4.30813e-10
-4.16132e-18
-4.30814e-10
-4.30814e-10
-2.57191e-18
-4.30813e-10
-5.88848e-18
-4.30813e-10
-7.20303e-18
-4.30813e-10
-4.22942e-18
-4.30814e-10
-4.30814e-10
-2.45024e-18
-4.30813e-10
-5.83389e-18
-4.30813e-10
-7.25356e-18
-4.30813e-10
-4.29501e-18
-4.30814e-10
-4.30814e-10
-2.37329e-18
-4.30813e-10
-5.81733e-18
-4.30813e-10
-7.31542e-18
-4.30813e-10
-4.35697e-18
-4.30814e-10
-4.30814e-10
-2.33851e-18
-5.84473e-18
-7.38816e-18
-4.41239e-18
)
;

boundaryField
{
    BotWall
    {
        type            calculated;
        value           nonuniform 0();
    }
    FreeStream
    {
        type            calculated;
        value           nonuniform List<scalar> 5(-4.30813e-10 -4.30813e-10 -4.30813e-10 -4.30814e-10 -4.30814e-10);
    }
    FrontNBack
    {
        type            empty;
        value           nonuniform 0();
    }
    LeftSide
    {
        type            symmetryPlane;
        value           uniform 0;
    }
    RightSide
    {
        type            symmetryPlane;
        value           uniform 0;
    }
    procBoundary3to2
    {
        type            processor;
        value           nonuniform List<scalar> 5(4.30813e-10 4.30813e-10 4.30813e-10 4.30814e-10 4.30814e-10);
    }
}


// ************************************************************************* //
