/*--------------------------------*- C++ -*----------------------------------*\
| =========                 |                                                 |
| \\      /  F ield         | OpenFOAM: The Open Source CFD Toolbox           |
|  \\    /   O peration     | Version:  2.4.0                                 |
|   \\  /    A nd           | Web:      www.OpenFOAM.org                      |
|    \\/     M anipulation  |                                                 |
\*---------------------------------------------------------------------------*/
FoamFile
{
    version     2.0;
    format      ascii;
    class       volVectorField;
    location    "1";
    object      U;
}
// * * * * * * * * * * * * * * * * * * * * * * * * * * * * * * * * * * * * * //

dimensions      [0 1 -1 0 0 0 0];

internalField   nonuniform List<vector> 
125
(
(-1.09864e-09 -0.00215406 0)
(-2.00702e-09 -0.00215407 0)
(-1.62555e-09 -0.00215407 0)
(-9.95083e-10 -0.00215407 0)
(-1.74993e-10 -0.00215407 0)
(-1.04313e-09 -0.00215406 0)
(-1.91461e-09 -0.00215407 0)
(-1.58208e-09 -0.00215407 0)
(-9.70669e-10 -0.00215407 0)
(-1.65564e-10 -0.00215407 0)
(-9.87044e-10 -0.00215406 0)
(-1.8219e-09 -0.00215407 0)
(-1.53901e-09 -0.00215407 0)
(-9.48923e-10 -0.00215407 0)
(-1.58537e-10 -0.00215407 0)
(-9.30648e-10 -0.00215406 0)
(-1.72928e-09 -0.00215407 0)
(-1.4965e-09 -0.00215407 0)
(-9.29557e-10 -0.00215407 0)
(-1.53596e-10 -0.00215407 0)
(-8.74185e-10 -0.00215406 0)
(-1.63715e-09 -0.00215407 0)
(-1.4547e-09 -0.00215407 0)
(-9.12441e-10 -0.00215407 0)
(-1.50581e-10 -0.00215407 0)
(-8.17905e-10 -0.00215406 0)
(-1.5459e-09 -0.00215407 0)
(-1.41375e-09 -0.00215407 0)
(-8.97422e-10 -0.00215407 0)
(-1.49308e-10 -0.00215407 0)
(-7.62055e-10 -0.00215406 0)
(-1.4559e-09 -0.00215407 0)
(-1.3738e-09 -0.00215407 0)
(-8.84347e-10 -0.00215407 0)
(-1.49596e-10 -0.00215407 0)
(-7.06885e-10 -0.00215406 0)
(-1.36755e-09 -0.00215407 0)
(-1.33498e-09 -0.00215407 0)
(-8.73069e-10 -0.00215407 0)
(-1.51263e-10 -0.00215407 0)
(-6.52641e-10 -0.00215406 0)
(-1.2812e-09 -0.00215407 0)
(-1.29743e-09 -0.00215407 0)
(-8.63442e-10 -0.00215407 0)
(-1.54137e-10 -0.00215407 0)
(-5.99571e-10 -0.00215406 0)
(-1.19723e-09 -0.00215407 0)
(-1.26127e-09 -0.00215407 0)
(-8.55327e-10 -0.00215407 0)
(-1.58046e-10 -0.00215407 0)
(-5.47923e-10 -0.00215406 0)
(-1.116e-09 -0.00215407 0)
(-1.22664e-09 -0.00215407 0)
(-8.48594e-10 -0.00215407 0)
(-1.62828e-10 -0.00215407 0)
(-4.97943e-10 -0.00215406 0)
(-1.03787e-09 -0.00215407 0)
(-1.19365e-09 -0.00215407 0)
(-8.43115e-10 -0.00215407 0)
(-1.68324e-10 -0.00215407 0)
(-4.49879e-10 -0.00215406 0)
(-9.63186e-10 -0.00215407 0)
(-1.16242e-09 -0.00215407 0)
(-8.3877e-10 -0.00215407 0)
(-1.74381e-10 -0.00215407 0)
(-4.03978e-10 -0.00215406 0)
(-8.92299e-10 -0.00215407 0)
(-1.13306e-09 -0.00215407 0)
(-8.35444e-10 -0.00215407 0)
(-1.80851e-10 -0.00215407 0)
(-3.60488e-10 -0.00215406 0)
(-8.25546e-10 -0.00215407 0)
(-1.10567e-09 -0.00215407 0)
(-8.33023e-10 -0.00215407 0)
(-1.87589e-10 -0.00215407 0)
(-3.19657e-10 -0.00215406 0)
(-7.63264e-10 -0.00215407 0)
(-1.08037e-09 -0.00215407 0)
(-8.31399e-10 -0.00215407 0)
(-1.94453e-10 -0.00215407 0)
(-2.81735e-10 -0.00215406 0)
(-7.05784e-10 -0.00215407 0)
(-1.05725e-09 -0.00215407 0)
(-8.30466e-10 -0.00215407 0)
(-2.01303e-10 -0.00215407 0)
(-2.46974e-10 -0.00215406 0)
(-6.53433e-10 -0.00215407 0)
(-1.0364e-09 -0.00215407 0)
(-8.30116e-10 -0.00215407 0)
(-2.07998e-10 -0.00215407 0)
(-2.15627e-10 -0.00215406 0)
(-6.06533e-10 -0.00215407 0)
(-1.01791e-09 -0.00215407 0)
(-8.30242e-10 -0.00215407 0)
(-2.14397e-10 -0.00215407 0)
(-1.87952e-10 -0.00215406 0)
(-5.65404e-10 -0.00215407 0)
(-1.00187e-09 -0.00215407 0)
(-8.30733e-10 -0.00215407 0)
(-2.20356e-10 -0.00215407 0)
(-1.6421e-10 -0.00215406 0)
(-5.30363e-10 -0.00215407 0)
(-9.8835e-10 -0.00215407 0)
(-8.31476e-10 -0.00215407 0)
(-2.25728e-10 -0.00215407 0)
(-1.44667e-10 -0.00215406 0)
(-5.01724e-10 -0.00215407 0)
(-9.77433e-10 -0.00215407 0)
(-8.32351e-10 -0.00215407 0)
(-2.3036e-10 -0.00215407 0)
(-1.29591e-10 -0.00215406 0)
(-4.79801e-10 -0.00215407 0)
(-9.69197e-10 -0.00215407 0)
(-8.33245e-10 -0.00215407 0)
(-2.34096e-10 -0.00215407 0)
(-1.19255e-10 -0.00215406 0)
(-4.6491e-10 -0.00215407 0)
(-9.63742e-10 -0.00215407 0)
(-8.34061e-10 -0.00215407 0)
(-2.3678e-10 -0.00215407 0)
(-1.13937e-10 -0.00215406 0)
(-4.57359e-10 -0.00215407 0)
(-9.61145e-10 -0.00215407 0)
(-8.34683e-10 -0.00215407 0)
(-2.38246e-10 -0.00215407 0)
)
;

boundaryField
{
    BotWall
    {
        type            fixedValue;
        value           nonuniform 0();
    }
    FreeStream
    {
        type            zeroGradient;
    }
    FrontNBack
    {
        type            empty;
    }
    LeftSide
    {
        type            symmetryPlane;
    }
    RightSide
    {
        type            symmetryPlane;
    }
    procBoundary3to2
    {
        type            processor;
        value           nonuniform List<vector> 5((-1.15334e-09 -0.00215406 0) (-2.09874e-09 -0.00215407 0) (-1.66928e-09 -0.00215407 0) (-1.02195e-09 -0.00215407 0) (-1.86647e-10 -0.00215407 0));
    }
}


// ************************************************************************* //
