/*--------------------------------*- C++ -*----------------------------------*\
| =========                 |                                                 |
| \\      /  F ield         | OpenFOAM: The Open Source CFD Toolbox           |
|  \\    /   O peration     | Version:  2.4.0                                 |
|   \\  /    A nd           | Web:      www.OpenFOAM.org                      |
|    \\/     M anipulation  |                                                 |
\*---------------------------------------------------------------------------*/
FoamFile
{
    version     2.0;
    format      ascii;
    class       surfaceScalarField;
    location    "4.4";
    object      phi;
}
// * * * * * * * * * * * * * * * * * * * * * * * * * * * * * * * * * * * * * //

dimensions      [0 3 -1 0 0 0 0];

internalField   nonuniform List<scalar> 
15580
(
4.52866e-14
-2.04276e-12
2.87203e-13
-5.95941e-12
7.68451e-13
-9.68023e-12
1.50031e-12
-1.31931e-11
2.49424e-12
-1.65015e-11
3.76233e-12
-1.96097e-11
5.3173e-12
-2.25214e-11
7.17236e-12
-2.52401e-11
9.34118e-12
-2.77689e-11
1.18377e-11
-3.01107e-11
1.46762e-11
-3.22681e-11
1.78712e-11
-3.42433e-11
2.14374e-11
-3.60384e-11
2.53895e-11
-3.76554e-11
2.9743e-11
-3.9096e-11
3.45128e-11
-4.03614e-11
3.97147e-11
-4.14531e-11
4.53639e-11
-4.23718e-11
5.1477e-11
-4.31184e-11
5.8069e-11
-4.36931e-11
6.51585e-11
-4.40967e-11
7.27579e-11
-4.43274e-11
8.08891e-11
-4.4385e-11
8.95618e-11
-4.42692e-11
9.88079e-11
-4.39802e-11
1.08632e-10
-4.35159e-11
1.19061e-10
-4.28754e-11
1.301e-10
-4.20568e-11
1.41783e-10
-4.10568e-11
1.54106e-10
-3.98732e-11
1.67154e-10
-3.85122e-11
1.80901e-10
-3.70102e-11
1.95124e-10
-3.51562e-11
2.09938e-10
-3.31826e-11
2.25545e-10
-3.10043e-11
2.41701e-10
-2.86337e-11
2.58657e-10
-2.61031e-11
2.75552e-10
-2.33176e-11
2.93782e-10
-2.0299e-11
3.11111e-10
-1.68682e-11
3.28853e-10
-1.38464e-11
3.46899e-10
-1.04708e-11
3.31457e-10
-6.51493e-12
3.92532e-10
2.17037e-12
4.62788e-10
-4.99593e-12
5.19021e-10
-2.70174e-11
7.42647e-10
8.24882e-12
1.32114e-09
-3.00152e-13
2.23021e-09
1.07656e-10
4.28358e-10
3.41951e-09
-9.31224e-14
-1.94963e-12
-4.26865e-13
-5.62566e-12
-9.83205e-13
-9.12389e-12
-1.71112e-12
-1.24652e-11
-2.56335e-12
-1.56493e-11
-3.49588e-12
-1.86771e-11
-4.46752e-12
-2.15497e-11
-5.43957e-12
-2.4268e-11
-6.37555e-12
-2.6833e-11
-7.24088e-12
-2.92454e-11
-8.00277e-12
-3.15062e-11
-8.62987e-12
-3.36162e-11
-9.09218e-12
-3.55761e-11
-9.36069e-12
-3.73869e-11
-9.4074e-12
-3.90493e-11
-9.2048e-12
-4.0564e-11
-8.72604e-12
-4.19318e-11
-7.94437e-12
-4.31535e-11
-6.83321e-12
-4.42295e-11
-5.36548e-12
-4.51609e-11
-3.51454e-12
-4.59476e-11
-1.25105e-12
-4.65909e-11
1.45466e-12
-4.70907e-11
4.63384e-12
-4.74483e-11
8.31756e-12
-4.76639e-11
1.25406e-11
-4.77389e-11
1.73381e-11
-4.76729e-11
2.2749e-11
-4.74677e-11
2.88147e-11
-4.71225e-11
3.55809e-11
-4.66394e-11
4.30852e-11
-4.60165e-11
5.13134e-11
-4.52384e-11
6.04829e-11
-4.43257e-11
7.05648e-11
-4.32645e-11
8.16381e-11
-4.20776e-11
9.37777e-11
-4.07733e-11
1.07018e-10
-3.93429e-11
1.21495e-10
-3.77952e-11
1.37321e-10
-3.6125e-11
1.54788e-10
-3.43349e-11
1.7338e-10
-3.24362e-11
1.9331e-10
-3.04012e-11
2.15071e-10
-2.82411e-11
2.43445e-10
-2.70113e-11
2.62318e-10
-2.56915e-11
2.58273e-10
-2.32584e-11
2.91718e-10
-2.52018e-11
3.21668e-10
-3.025e-11
4.62586e-10
-3.32622e-11
-2.63903e-11
9.17334e-10
-3.4618e-13
-1.60345e-12
-1.17075e-12
-4.8011e-12
-2.36254e-12
-7.9321e-12
-3.86173e-12
-1.0966e-11
-5.61202e-12
-1.3899e-11
-7.56075e-12
-1.67284e-11
-9.65864e-12
-1.94518e-11
-1.18595e-11
-2.20672e-11
-1.41196e-11
-2.45728e-11
-1.63979e-11
-2.69671e-11
-1.86553e-11
-2.92488e-11
-2.08546e-11
-3.14169e-11
-2.29599e-11
-3.34707e-11
-2.49373e-11
-3.54096e-11
-2.67534e-11
-3.72331e-11
-2.83763e-11
-3.89411e-11
-2.97744e-11
-4.05337e-11
-3.09172e-11
-4.20108e-11
-3.17737e-11
-4.3373e-11
-3.23138e-11
-4.46208e-11
-3.25065e-11
-4.57549e-11
-3.2321e-11
-4.67763e-11
-3.17255e-11
-4.76863e-11
-3.06878e-11
-4.8486e-11
-2.91741e-11
-4.91775e-11
-2.71507e-11
-4.97624e-11
-2.45802e-11
-5.02433e-11
-2.14256e-11
-5.06224e-11
-1.7645e-11
-5.09031e-11
-1.31961e-11
-5.10882e-11
-8.03049e-12
-5.11821e-11
-2.0804e-12
-5.11885e-11
4.7067e-12
-5.11128e-11
1.24023e-11
-5.096e-11
2.10619e-11
-5.07373e-11
3.07393e-11
-5.04506e-11
4.15053e-11
-5.01089e-11
5.34291e-11
-4.97191e-11
6.65963e-11
-4.92922e-11
8.10976e-11
-4.88363e-11
9.70265e-11
-4.83651e-11
1.14514e-10
-4.78887e-11
1.337e-10
-4.74271e-11
1.53677e-10
-4.6988e-11
1.74404e-10
-4.65566e-11
1.96908e-10
-4.66336e-11
2.10937e-10
-4.67599e-11
2.27562e-10
-4.74079e-11
2.42185e-10
-4.78852e-11
-4.78421e-11
2.63637e-10
4.49638e-14
-1.64842e-12
5.27102e-14
-4.80885e-12
-1.80113e-15
-7.87759e-12
-9.34098e-14
-1.08744e-11
-1.95817e-13
-1.37966e-11
-2.81946e-13
-1.66423e-11
-3.24117e-13
-1.94097e-11
-2.94187e-13
-2.20972e-11
-1.63737e-13
-2.47033e-11
9.58627e-14
-2.72267e-11
5.13293e-13
-2.96662e-11
1.11728e-12
-3.20209e-11
1.93646e-12
-3.42899e-11
2.99941e-12
-3.64725e-11
4.3345e-12
-3.85682e-11
5.96999e-12
-4.05766e-11
7.93387e-12
-4.24975e-11
1.0254e-11
-4.43309e-11
1.29577e-11
-4.60767e-11
1.60723e-11
-4.77354e-11
1.96247e-11
-4.93073e-11
2.36414e-11
-5.0793e-11
2.81484e-11
-5.21932e-11
3.31713e-11
-5.3509e-11
3.87351e-11
-5.47413e-11
4.48642e-11
-5.58915e-11
5.1582e-11
-5.69611e-11
5.89113e-11
-5.79518e-11
6.68735e-11
-5.88652e-11
7.5489e-11
-5.97038e-11
8.47765e-11
-6.04695e-11
9.47531e-11
-6.11651e-11
1.05433e-10
-6.17931e-11
1.1683e-10
-6.23566e-11
1.28951e-10
-6.28585e-11
1.41803e-10
-6.33021e-11
1.55385e-10
-6.36909e-11
1.69694e-10
-6.40283e-11
1.8472e-10
-6.43181e-11
2.00447e-10
-6.45638e-11
2.16853e-10
-6.4771e-11
2.3391e-10
-6.49453e-11
2.51577e-10
-6.50947e-11
2.69827e-10
-6.52375e-11
2.88502e-10
-6.52319e-11
3.07041e-10
-6.5172e-11
3.25345e-10
-6.51324e-11
3.41036e-10
-6.44984e-11
3.50172e-10
-6.40878e-11
-6.36203e-11
3.6595e-10
-9.14237e-14
-1.55699e-12
-2.17572e-13
-4.6827e-12
-3.16068e-13
-7.77909e-12
-3.65673e-13
-1.08248e-11
-3.44854e-13
-1.38174e-11
-2.32172e-13
-1.6755e-11
-6.34387e-15
-1.96355e-11
3.53706e-13
-2.24572e-11
8.68849e-13
-2.52184e-11
1.5597e-12
-2.79175e-11
2.4466e-12
-3.05531e-11
3.54955e-12
-3.31239e-11
4.88824e-12
-3.56286e-11
6.48187e-12
-3.80661e-11
8.34926e-12
-4.04356e-11
1.05087e-11
-4.27361e-11
1.2978e-11
-4.49668e-11
1.57743e-11
-4.71272e-11
1.89142e-11
-4.92166e-11
2.24133e-11
-5.12346e-11
2.6287e-11
-5.3181e-11
3.05493e-11
-5.50553e-11
3.52136e-11
-5.68575e-11
4.0292e-11
-5.85874e-11
4.57959e-11
-6.02451e-11
5.1735e-11
-6.18307e-11
5.81182e-11
-6.33442e-11
6.49523e-11
-6.47858e-11
7.22428e-11
-6.61558e-11
7.99934e-11
-6.74543e-11
8.82056e-11
-6.86818e-11
9.68784e-11
-6.9838e-11
1.06009e-10
-7.09234e-11
1.1559e-10
-7.19376e-11
1.25612e-10
-7.28808e-11
1.36063e-10
-7.37532e-11
1.4693e-10
-7.45576e-11
1.58197e-10
-7.52949e-11
1.69847e-10
-7.59683e-11
1.81869e-10
-7.65862e-11
1.94288e-10
-7.71901e-11
2.07103e-10
-7.77599e-11
2.19894e-10
-7.78861e-11
2.32569e-10
-7.79125e-11
2.44642e-10
-7.79096e-11
2.53171e-10
-7.68439e-11
2.53134e-10
-7.55989e-11
2.61973e-10
-7.34532e-11
2.64699e-10
-6.68139e-11
-4.42105e-11
2.4529e-10
1.32433e-13
-1.68943e-12
4.43176e-13
-4.99344e-12
9.12996e-13
-8.24891e-12
1.55515e-12
-1.14669e-11
2.38249e-12
-1.46448e-11
3.40759e-12
-1.77801e-11
4.6427e-12
-2.08706e-11
6.09986e-12
-2.39144e-11
7.79075e-12
-2.69093e-11
9.72679e-12
-2.98536e-11
1.1919e-11
-3.27454e-11
1.43783e-11
-3.55831e-11
1.71147e-11
-3.8365e-11
2.01383e-11
-4.10898e-11
2.34586e-11
-4.37559e-11
2.70846e-11
-4.63621e-11
3.10247e-11
-4.8907e-11
3.52871e-11
-5.13895e-11
3.9879e-11
-5.38085e-11
4.48076e-11
-5.61631e-11
5.00788e-11
-5.84522e-11
5.56984e-11
-6.06749e-11
6.16713e-11
-6.28303e-11
6.80017e-11
-6.49178e-11
7.46929e-11
-6.69364e-11
8.17481e-11
-6.88858e-11
8.9169e-11
-7.07651e-11
9.69571e-11
-7.2574e-11
1.05113e-10
-7.43117e-11
1.13637e-10
-7.59782e-11
1.22529e-10
-7.75735e-11
1.31791e-10
-7.91e-11
1.41428e-10
-8.05604e-11
1.51447e-10
-8.19572e-11
1.61858e-10
-8.32921e-11
1.72709e-10
-8.46035e-11
1.84084e-10
-8.59334e-11
1.96027e-10
-8.72375e-11
2.08254e-10
-8.81956e-11
2.20559e-10
-8.88906e-11
2.32215e-10
-8.91953e-11
2.4221e-10
-8.96723e-11
2.49636e-10
-9.13739e-11
2.49037e-10
-8.94713e-11
2.58442e-10
-8.75055e-11
2.64843e-10
-8.3286e-11
2.52479e-10
-6.32342e-11
2.68711e-10
-8.96859e-11
3.02373e-10
-1.00476e-10
-6.73995e-11
3.25562e-10
1.02321e-13
-1.79175e-12
4.88342e-13
-5.37946e-12
1.18619e-12
-8.94677e-12
2.19965e-12
-1.24804e-11
3.53314e-12
-1.59782e-11
5.19151e-12
-1.94384e-11
7.18005e-12
-2.28592e-11
9.50427e-12
-2.62386e-11
1.217e-11
-2.95751e-11
1.51834e-11
-3.28669e-11
1.85506e-11
-3.61126e-11
2.2278e-11
-3.93105e-11
2.63722e-11
-4.24592e-11
3.08396e-11
-4.55572e-11
3.56868e-11
-4.86031e-11
4.092e-11
-5.15952e-11
4.65456e-11
-5.45325e-11
5.25691e-11
-5.7413e-11
5.89964e-11
-6.02359e-11
6.58322e-11
-6.29989e-11
7.30814e-11
-6.57013e-11
8.0747e-11
-6.83406e-11
8.88326e-11
-7.0916e-11
9.73392e-11
-7.34244e-11
1.06268e-10
-7.58656e-11
1.15619e-10
-7.82359e-11
1.25389e-10
-8.05358e-11
1.35579e-10
-8.27638e-11
1.46194e-10
-8.49267e-11
1.5724e-10
-8.70242e-11
1.68754e-10
-8.90868e-11
1.80806e-10
-9.11523e-11
1.93527e-10
-9.32813e-11
2.06608e-10
-9.5038e-11
2.19872e-10
-9.65569e-11
2.32605e-10
-9.7591e-11
2.4382e-10
-9.85336e-11
2.52504e-10
-1.0007e-10
2.56521e-10
-1.0249e-10
2.59666e-10
-1.02162e-10
2.70688e-10
-1.00458e-10
2.78997e-10
-9.80797e-11
2.78951e-10
-9.1372e-11
2.62077e-10
-7.25987e-11
2.79355e-10
-1.04783e-10
3.25482e-10
-1.29413e-10
3.73148e-10
-1.10901e-10
3.7783e-10
-9.43674e-11
3.64755e-10
-8.7401e-11
-5.37152e-11
3.51071e-10
2.32939e-13
-2.02469e-12
8.74732e-13
-6.02125e-12
1.90723e-12
-9.97926e-12
3.33163e-12
-1.39048e-11
5.14996e-12
-1.77966e-11
7.36512e-12
-2.16536e-11
9.98077e-12
-2.54748e-11
1.30014e-11
-2.92592e-11
1.64323e-11
-3.30059e-11
2.02797e-11
-3.67142e-11
2.45503e-11
-4.03832e-11
2.92522e-11
-4.40124e-11
3.43939e-11
-4.76009e-11
3.99852e-11
-5.11484e-11
4.60361e-11
-5.4654e-11
5.25584e-11
-5.81175e-11
5.95636e-11
-6.15377e-11
6.7065e-11
-6.49145e-11
7.50754e-11
-6.82463e-11
8.36095e-11
-7.1533e-11
9.26806e-11
-7.47724e-11
1.02304e-10
-7.79645e-11
1.12495e-10
-8.11061e-11
1.23268e-10
-8.41978e-11
1.34642e-10
-8.72396e-11
1.46645e-10
-9.02391e-11
1.59311e-10
-9.32016e-11
1.72733e-10
-9.61858e-11
1.86753e-10
-9.8947e-11
2.01114e-10
-1.01385e-10
2.15454e-10
-1.03517e-10
2.28626e-10
-1.05421e-10
2.39036e-10
-1.07596e-10
2.45462e-10
-1.11499e-10
2.46772e-10
-1.12492e-10
2.60177e-10
-1.11318e-10
2.71717e-10
-1.10219e-10
2.80177e-10
-1.08619e-10
2.82616e-10
-1.04964e-10
2.81974e-10
-1.01521e-10
2.97546e-10
-1.1603e-10
3.45328e-10
-1.45861e-10
3.98926e-10
-1.44971e-10
4.49737e-10
-1.2341e-10
4.5817e-10
-1.13216e-10
4.55054e-10
-1.26296e-10
4.78627e-10
-1.34473e-10
5.0628e-10
-1.22021e-10
5.20595e-10
-1.01716e-10
-6.19651e-11
5.28845e-10
1.55605e-13
-2.18029e-12
6.57287e-13
-6.52294e-12
1.51992e-12
-1.08419e-11
2.74864e-12
-1.51335e-11
4.34878e-12
-1.93967e-11
6.32604e-12
-2.36309e-11
8.68683e-12
-2.78356e-11
1.14383e-11
-3.20107e-11
1.45888e-11
-3.61565e-11
1.81479e-11
-4.02733e-11
2.21268e-11
-4.43621e-11
2.65383e-11
-4.84239e-11
3.13975e-11
-5.24601e-11
3.67214e-11
-5.64724e-11
4.25298e-11
-6.04625e-11
4.88451e-11
-6.44328e-11
5.56924e-11
-6.8385e-11
6.31005e-11
-7.23226e-11
7.11006e-11
-7.62464e-11
7.97292e-11
-8.01616e-11
8.90233e-11
-8.40666e-11
9.90312e-11
-8.79725e-11
1.09806e-10
-9.18804e-11
1.21424e-10
-9.58159e-11
1.33948e-10
-9.9764e-11
1.46851e-10
-1.03142e-10
1.60041e-10
-1.06391e-10
1.71676e-10
-1.09119e-10
1.7893e-10
-1.12828e-10
1.75098e-10
-1.15876e-10
1.79261e-10
-1.16015e-10
1.89729e-10
-1.16124e-10
1.98652e-10
-1.16634e-10
2.041e-10
-1.16999e-10
2.09538e-10
-1.17931e-10
2.20155e-10
-1.21935e-10
2.41411e-10
-1.31474e-10
2.72655e-10
-1.39863e-10
3.02711e-10
-1.3502e-10
3.22971e-10
-1.21781e-10
3.24271e-10
-1.1733e-10
3.04007e-10
-1.25596e-10
2.98855e-10
-1.39819e-10
3.18929e-10
-1.43484e-10
3.38252e-10
-1.3254e-10
3.31236e-10
-1.19279e-10
3.19149e-10
-1.22387e-10
3.33548e-10
-1.36419e-10
3.48523e-10
-1.16691e-10
-8.69237e-11
3.73482e-10
1.5853e-13
-2.33882e-12
6.36745e-13
-7.00115e-12
1.43255e-12
-1.16377e-11
2.54185e-12
-1.62428e-11
3.96102e-12
-2.08159e-11
5.68703e-12
-2.53569e-11
7.718e-12
-2.98666e-11
1.00532e-11
-3.43459e-11
1.26934e-11
-3.87967e-11
1.56411e-11
-4.3221e-11
1.89006e-11
-4.76216e-11
2.24785e-11
-5.20018e-11
2.63834e-11
-5.6365e-11
3.06275e-11
-6.07165e-11
3.52242e-11
-6.50592e-11
4.0193e-11
-6.94015e-11
4.55528e-11
-7.37448e-11
5.13322e-11
-7.8102e-11
5.75571e-11
-8.24712e-11
6.4272e-11
-8.68765e-11
7.15206e-11
-9.13152e-11
7.93988e-11
-9.58507e-11
8.7266e-11
-9.97476e-11
9.51131e-11
-1.03663e-10
1.00661e-10
-1.07176e-10
9.70615e-11
-1.12718e-10
8.64194e-11
-1.13155e-10
9.05204e-11
-1.13518e-10
9.15139e-11
-1.13929e-10
8.94958e-11
-1.13889e-10
8.68926e-11
-1.13412e-10
8.51742e-11
-1.14406e-10
8.654e-11
-1.18e-10
8.97274e-11
-1.20186e-10
8.97325e-11
-1.17936e-10
8.55306e-11
-1.17733e-10
8.06425e-11
-1.26586e-10
8.08444e-11
-1.40065e-10
9.61658e-11
-1.50341e-10
1.30938e-10
-1.56554e-10
1.73251e-10
-1.59643e-10
2.08548e-10
-1.60893e-10
2.29551e-10
-1.60822e-10
2.48963e-10
-1.62896e-10
2.79184e-10
-1.62761e-10
3.04699e-10
-1.44794e-10
3.08834e-10
-1.26522e-10
2.89163e-10
-1.16748e-10
2.89361e-10
-1.16889e-10
-9.31408e-11
2.95578e-10
2.64743e-13
-2.60356e-12
9.8656e-13
-7.72297e-12
2.10979e-12
-1.27609e-11
3.5886e-12
-1.77216e-11
5.37974e-12
-2.2607e-11
7.44238e-12
-2.74195e-11
9.73735e-12
-3.21615e-11
1.22271e-11
-3.68357e-11
1.48752e-11
-4.14447e-11
1.76457e-11
-4.59915e-11
2.05036e-11
-5.04795e-11
2.34132e-11
-5.49114e-11
2.634e-11
-5.92918e-11
2.92463e-11
-6.36228e-11
3.2098e-11
-6.79109e-11
3.48526e-11
-7.21561e-11
3.74772e-11
-7.63694e-11
3.99269e-11
-8.05517e-11
4.21883e-11
-8.47326e-11
4.41685e-11
-8.88567e-11
4.53997e-11
-9.25464e-11
4.56501e-11
-9.61411e-11
3.9605e-11
-1.01555e-10
7.83895e-12
-1.01525e-10
-1.98655e-12
-1.01511e-10
-1.42207e-11
-1.00583e-10
-3.04671e-11
-9.691e-11
-4.63504e-11
-9.76351e-11
-4.95296e-11
-1.1075e-10
-4.7119e-11
-1.163e-10
-4.64038e-11
-1.14127e-10
-4.60014e-11
-1.14808e-10
-4.25571e-11
-1.21444e-10
-3.14307e-11
-1.31313e-10
-8.53106e-12
-1.40836e-10
2.43531e-11
-1.50618e-10
6.08852e-11
-1.63119e-10
1.00465e-10
-1.79645e-10
1.47684e-10
-1.9756e-10
2.06605e-10
-2.15474e-10
2.8064e-10
-2.33679e-10
3.69794e-10
-2.50047e-10
4.69992e-10
-2.61019e-10
5.72157e-10
-2.65061e-10
6.7092e-10
-2.61524e-10
7.77147e-10
-2.51021e-10
8.80437e-10
-2.29813e-10
9.67415e-10
-2.03726e-10
1.02304e-09
-1.72516e-10
-1.35319e-10
1.06522e-09
2.0271e-13
-2.80627e-12
7.55689e-13
-8.27595e-12
1.59251e-12
-1.35978e-11
2.63953e-12
-1.87686e-11
3.82358e-12
-2.37911e-11
5.06729e-12
-2.86632e-11
6.29411e-12
-3.33884e-11
7.41937e-12
-3.79609e-11
8.36076e-12
-4.23861e-11
9.02199e-12
-4.66527e-11
9.31281e-12
-5.07703e-11
9.11969e-12
-5.47183e-11
8.34237e-12
-5.85145e-11
6.84214e-12
-6.21226e-11
4.50861e-12
-6.55774e-11
1.17482e-12
-6.88224e-11
-3.26027e-12
-7.19343e-11
-9.10873e-12
-7.47033e-11
-1.66996e-11
-7.71417e-11
-2.64575e-11
-7.93388e-11
-4.69587e-11
-8.30687e-11
-8.64986e-11
-8.21499e-11
-1.09313e-10
-7.90107e-11
-1.49883e-10
-6.09772e-11
-1.61918e-10
-8.94751e-11
-1.85987e-10
-7.65144e-11
-1.9397e-10
-8.89265e-11
-2.11856e-10
-7.97492e-11
-2.24587e-10
-9.8019e-11
-2.24411e-10
-1.16476e-10
-2.12442e-10
-1.26097e-10
-1.90799e-10
-1.36451e-10
-1.63111e-10
-1.49131e-10
-1.30842e-10
-1.63582e-10
-9.13986e-11
-1.80279e-10
-4.50757e-11
-1.9694e-10
8.97533e-12
-2.1717e-10
7.84479e-11
-2.49118e-10
1.46228e-10
-2.6534e-10
2.12003e-10
-2.81249e-10
2.72757e-10
-2.94434e-10
3.2794e-10
-3.0523e-10
3.7738e-10
-3.10459e-10
4.22257e-10
-3.09938e-10
4.63756e-10
-3.03023e-10
5.02565e-10
-2.8983e-10
5.43131e-10
-2.70378e-10
5.84169e-10
-2.44764e-10
6.21254e-10
-2.09602e-10
-1.6242e-10
6.48356e-10
1.17319e-13
-2.92359e-12
3.6776e-13
-8.52639e-12
6.65395e-13
-1.38954e-11
9.27834e-13
-1.90311e-11
1.07546e-12
-2.39387e-11
1.02083e-12
-2.86086e-11
6.80738e-13
-3.30483e-11
-4.21177e-14
-3.72381e-11
-1.2378e-12
-4.11904e-11
-3.01866e-12
-4.48719e-11
-5.48445e-12
-4.83045e-11
-8.7685e-12
-5.14342e-11
-1.29799e-11
-5.43031e-11
-1.82701e-11
-5.68324e-11
-2.47376e-11
-5.91098e-11
-3.26657e-11
-6.08943e-11
-4.25405e-11
-6.20595e-11
-5.45097e-11
-6.29692e-11
-8.38084e-11
-6.37997e-11
-1.32054e-10
-6.08888e-11
-2.08205e-10
-7.20218e-12
-2.08559e-10
-8.17959e-11
-1.86183e-10
-1.01387e-10
-3.44608e-10
9.74483e-11
-4.00944e-10
-3.31394e-11
-4.3061e-10
-4.68483e-11
-4.58067e-10
-6.14695e-11
-4.44304e-10
-9.35125e-11
-4.26847e-10
-1.15476e-10
-3.97717e-10
-1.45605e-10
-3.42445e-10
-1.8137e-10
-2.62103e-10
-2.16793e-10
-1.69112e-10
-2.42123e-10
-6.47445e-11
-2.67949e-10
4.72067e-11
-2.9223e-10
1.64233e-10
-3.13967e-10
2.85423e-10
-3.38359e-10
3.95311e-10
-3.59006e-10
5.06002e-10
-3.76031e-10
6.1265e-10
-3.87897e-10
7.12672e-10
-3.94456e-10
8.01947e-10
-3.94505e-10
8.80073e-10
-3.88585e-10
9.448e-10
-3.74665e-10
9.95531e-10
-3.53754e-10
1.03053e-09
-3.24834e-10
1.04998e-09
-2.89826e-10
1.07518e-09
-2.69959e-10
1.11991e-09
-2.54335e-10
-2.18715e-10
1.17621e-09
-2.4935e-13
-2.67424e-12
-1.00771e-12
-7.76803e-12
-2.2583e-12
-1.26448e-11
-3.97414e-12
-1.73152e-11
-6.13316e-12
-2.17797e-11
-8.71731e-12
-2.60244e-11
-1.17136e-11
-3.00519e-11
-1.5113e-11
-3.38387e-11
-1.89125e-11
-3.7391e-11
-2.31121e-11
-4.06723e-11
-2.77193e-11
-4.36973e-11
-3.27385e-11
-4.6415e-11
-3.8179e-11
-4.88626e-11
-4.40458e-11
-5.09656e-11
-5.07937e-11
-5.23619e-11
-5.8179e-11
-5.37325e-11
-8.70342e-11
-5.55327e-11
-1.31951e-10
-5.15588e-11
-2.13629e-10
1.75695e-11
-2.12589e-10
-6.19292e-11
-2.36135e-10
1.63439e-11
-4.4663e-10
1.28699e-10
-5.93507e-10
4.54907e-11
-5.67182e-10
7.11229e-11
-6.36971e-10
3.66491e-11
-6.52104e-10
-3.17152e-11
-6.29602e-10
-8.3971e-11
-5.85241e-10
-1.37874e-10
-5.10494e-10
-1.90223e-10
-4.15208e-10
-2.40891e-10
-3.04636e-10
-2.91941e-10
-1.82762e-10
-3.38666e-10
-4.69979e-11
-3.77887e-10
9.80403e-11
-4.12988e-10
2.49466e-10
-4.43656e-10
4.05517e-10
-4.70017e-10
5.58437e-10
-4.9128e-10
7.0643e-10
-5.06998e-10
8.45824e-10
-5.15425e-10
9.78398e-10
-5.20471e-10
1.10752e-09
-5.23577e-10
1.2307e-09
-5.17685e-10
1.33846e-09
-4.96345e-10
1.43917e-09
-4.75378e-10
1.53324e-09
-4.47817e-10
1.6096e-09
-4.01204e-10
1.67988e-09
-3.60102e-10
1.73224e-09
-3.22318e-10
1.77821e-09
-3.00304e-10
-2.90286e-10
1.84978e-09
-6.79064e-13
-1.99518e-12
-2.42533e-12
-6.02176e-12
-5.02101e-12
-1.00491e-11
-8.28949e-12
-1.40467e-11
-1.20651e-11
-1.80041e-11
-1.61896e-11
-2.18999e-11
-2.05109e-11
-2.57306e-11
-2.4881e-11
-2.94687e-11
-2.91533e-11
-3.31186e-11
-3.31807e-11
-3.66449e-11
-3.68126e-11
-4.00654e-11
-3.99068e-11
-4.33208e-11
-4.31486e-11
-4.56208e-11
-4.6487e-11
-4.76273e-11
-7.24384e-11
-5.08102e-11
-1.19238e-10
-4.71202e-11
-1.8462e-10
9.51471e-12
-2.14705e-10
-2.14743e-11
-2.45712e-10
4.85765e-11
-3.50516e-10
4.2875e-11
-3.66042e-10
3.18701e-11
-3.31745e-10
9.44019e-11
-3.72985e-10
8.67307e-11
-3.37588e-10
3.57259e-11
-2.81738e-10
-1.92007e-11
-2.32743e-10
-8.07104e-11
-1.74553e-10
-1.4216e-10
-1.10986e-10
-2.01441e-10
-4.32704e-11
-2.57938e-10
2.74791e-11
-3.11641e-10
9.84635e-11
-3.62925e-10
1.70904e-10
-4.11107e-10
2.49531e-10
-4.56515e-10
3.3626e-10
-4.99717e-10
4.32548e-10
-5.39944e-10
5.38679e-10
-5.76148e-10
6.53988e-10
-6.06589e-10
7.75449e-10
-6.28459e-10
9.00126e-10
-6.40101e-10
1.01963e-09
-6.39977e-10
1.13736e-09
-6.41309e-10
1.25589e-09
-6.36213e-10
1.35916e-09
-5.99609e-10
1.47426e-09
-5.90487e-10
1.59317e-09
-5.66722e-10
1.71781e-09
-5.2584e-10
1.8353e-09
-4.77597e-10
1.95732e-09
-4.44331e-10
2.07447e-09
-4.17458e-10
-3.90567e-10
2.17475e-09
-1.03108e-13
-1.89207e-12
-3.31164e-13
-5.79371e-12
-6.20312e-13
-9.75997e-12
-9.2445e-13
-1.37426e-11
-1.20269e-12
-1.77258e-11
-1.41559e-12
-2.1687e-11
-1.51824e-12
-2.56279e-11
-1.46877e-12
-2.95182e-11
-1.21813e-12
-3.33692e-11
-7.25379e-13
-3.71377e-11
6.82015e-14
-4.08589e-11
1.23927e-12
-4.44919e-11
-1.59862e-12
-5.08038e-11
-6.80333e-11
-4.96247e-11
-8.76765e-11
-3.1632e-11
-8.96724e-11
-4.51243e-11
-4.94475e-11
-3.07102e-11
-3.84783e-11
-3.24435e-11
6.62371e-11
-5.61389e-11
1.46413e-10
-3.73006e-11
2.06598e-10
-2.83151e-11
3.21042e-10
-2.00425e-11
4.31095e-10
-2.33224e-11
5.08672e-10
-4.18512e-11
5.62438e-10
-7.29662e-11
5.92062e-10
-1.10334e-10
5.98655e-10
-1.48753e-10
5.84655e-10
-1.87442e-10
5.54628e-10
-2.27911e-10
5.14838e-10
-2.71851e-10
4.72028e-10
-3.20116e-10
4.34532e-10
-3.7361e-10
4.10228e-10
-4.32211e-10
4.0466e-10
-4.94149e-10
4.20898e-10
-5.56182e-10
4.60176e-10
-6.15426e-10
5.19591e-10
-6.66004e-10
5.94171e-10
-7.03039e-10
6.81982e-10
-7.27913e-10
7.83586e-10
-7.41581e-10
8.94627e-10
-7.52351e-10
1.01238e-09
-7.53963e-10
1.16901e-09
-7.56243e-10
1.31872e-09
-7.40192e-10
1.47522e-09
-7.2323e-10
1.64344e-09
-6.94059e-10
1.83431e-09
-6.68465e-10
2.02663e-09
-6.36648e-10
2.21154e-09
-6.02366e-10
-5.66298e-10
2.38727e-09
3.16513e-13
-2.20858e-12
1.01987e-12
-6.49707e-12
1.99321e-12
-1.07333e-11
3.17742e-12
-1.49268e-11
4.50366e-12
-1.90521e-11
5.92145e-12
-2.31048e-11
7.37102e-12
-2.70775e-11
8.81249e-12
-3.09596e-11
1.01934e-11
-3.47501e-11
1.14934e-11
-3.84377e-11
1.26102e-11
-4.19758e-11
5.88581e-12
-4.54642e-11
-4.73977e-11
-4.97173e-11
-3.00729e-11
-6.71664e-11
2.2344e-11
-8.40489e-11
5.52538e-11
-7.80341e-11
1.21591e-10
-9.70474e-11
2.29618e-10
-1.40471e-10
3.26802e-10
-1.53322e-10
4.07474e-10
-1.17974e-10
4.77873e-10
-9.87137e-11
5.41356e-10
-8.35253e-11
5.97129e-10
-7.90952e-11
6.40162e-10
-8.48846e-11
6.64666e-10
-9.74703e-11
6.64952e-10
-1.1062e-10
6.35559e-10
-1.19361e-10
5.76624e-10
-1.28506e-10
4.91165e-10
-1.42452e-10
3.82474e-10
-1.6316e-10
2.58883e-10
-1.96525e-10
1.37029e-10
-2.51756e-10
2.96543e-11
-3.24836e-10
-5.79641e-11
-4.06531e-10
-1.25808e-10
-4.88337e-10
-1.79485e-10
-5.61749e-10
-2.24367e-10
-6.21122e-10
-2.56721e-10
-6.70685e-10
-2.70605e-10
-7.14029e-10
-2.45543e-10
-7.66643e-10
-1.93177e-10
-8.04717e-10
-1.10334e-10
-8.36806e-10
-9.6592e-12
-8.56918e-10
1.23626e-10
-8.73477e-10
2.81878e-10
-8.81482e-10
4.68814e-10
-8.80995e-10
6.72656e-10
-8.72306e-10
8.9267e-10
-8.56662e-10
1.12384e-09
-8.33532e-10
-7.93863e-10
1.3514e-09
3.29365e-13
-2.53795e-12
1.59127e-12
-7.75897e-12
3.86563e-12
-1.30077e-11
7.12795e-12
-1.81891e-11
1.13389e-11
-2.3263e-11
1.64728e-11
-2.82387e-11
2.25022e-11
-3.31069e-11
2.94248e-11
-3.78822e-11
3.72357e-11
-4.2561e-11
4.60183e-11
-4.72204e-11
5.6029e-11
-5.18791e-11
-2.96144e-11
-5.6639e-11
-1.64959e-11
-6.28358e-11
2.47101e-11
-1.08372e-10
4.65943e-11
-1.05933e-10
6.54649e-11
-9.69047e-11
6.56236e-11
-9.72061e-11
2.19052e-11
-9.67524e-11
-3.54054e-11
-9.60115e-11
-5.40068e-11
-9.93722e-11
-4.77879e-11
-1.04933e-10
-2.69492e-11
-1.04364e-10
-4.7797e-12
-1.01265e-10
9.54152e-12
-9.92058e-11
1.0487e-11
-9.84158e-11
-5.72577e-13
-9.95602e-11
-1.90218e-11
-1.00912e-10
-4.70378e-11
-1.0049e-10
-9.28578e-11
-9.66318e-11
-1.61917e-10
-9.41008e-11
-2.54565e-10
-1.03877e-10
-3.75843e-10
-1.30478e-10
-5.30095e-10
-1.70585e-10
-7.13035e-10
-2.2359e-10
-9.29788e-10
-2.71585e-10
-1.18409e-09
-3.07449e-10
-1.45588e-09
-3.49327e-10
-1.72415e-09
-4.02414e-10
-1.95797e-09
-4.80213e-10
-2.15177e-09
-5.72843e-10
-2.29476e-09
-6.61724e-10
-2.39538e-09
-7.36189e-10
-2.45314e-09
-7.9916e-10
-2.47709e-09
-8.49527e-10
-2.47414e-09
-8.84431e-10
-2.44414e-09
-9.10992e-10
-2.38641e-09
-9.30035e-10
-2.30068e-09
-9.4239e-10
-2.18206e-09
-9.5216e-10
-9.73651e-10
-2.00227e-09
1.52217e-12
-4.06012e-12
5.67577e-12
-1.19126e-11
1.21424e-11
-1.94743e-11
2.06592e-11
-2.6706e-11
3.09827e-11
-3.35866e-11
4.28634e-11
-4.01193e-11
5.60629e-11
-4.63064e-11
7.03559e-11
-5.21752e-11
8.55234e-11
-5.77285e-11
1.01276e-10
-6.29729e-11
1.17252e-10
-6.78557e-11
1.80249e-10
-7.23736e-11
1.62033e-10
-7.74463e-11
1.36641e-10
-8.29805e-11
1.19349e-10
-8.86411e-11
1.10158e-10
-8.77141e-11
9.99696e-11
-8.70174e-11
8.99982e-11
-8.6781e-11
8.09396e-11
-8.69529e-11
6.89198e-11
-8.73524e-11
5.18036e-11
-8.78164e-11
3.58742e-11
-8.84346e-11
2.38733e-11
-8.92637e-11
1.46959e-11
-9.00285e-11
7.10549e-12
-9.08254e-11
-6.06301e-13
-9.18484e-11
-8.76358e-12
-9.27543e-11
-1.56933e-11
-9.35603e-11
-1.76155e-11
-9.47096e-11
-1.58396e-11
-9.58767e-11
-2.34613e-11
-9.62551e-11
-5.69926e-11
-9.69466e-11
-1.27643e-10
-9.99344e-11
-2.462e-10
-1.05034e-10
-4.0748e-10
-1.10305e-10
-6.01336e-10
-1.13593e-10
-8.33486e-10
-1.17177e-10
-1.09931e-09
-1.36589e-10
-1.38774e-09
-1.91779e-10
-1.69528e-09
-2.65305e-10
-2.01827e-09
-3.38733e-10
-2.33234e-09
-4.22121e-10
-2.60963e-09
-5.21871e-10
-2.84395e-09
-6.15208e-10
-3.03791e-09
-6.90474e-10
-3.19822e-09
-7.50674e-10
-3.32505e-09
-8.03207e-10
-3.41036e-09
-8.57079e-10
-3.45723e-09
-9.05289e-10
-9.37141e-10
-3.49374e-09
1.01051e-12
3.34915e-12
6.58804e-12
1.04861e-11
1.48561e-11
1.95095e-11
2.426e-11
2.88974e-11
3.32111e-11
3.69896e-11
4.00811e-11
4.23624e-11
1.70965e-11
-1.1332e-11
-1.81672e-11
-2.34981e-11
-2.88791e-11
-3.36747e-11
-3.68974e-11
-3.92309e-11
-4.14986e-11
-4.39991e-11
-4.70435e-11
-5.06092e-11
-5.47781e-11
-5.97954e-11
-6.54659e-11
-7.15928e-11
-7.82785e-11
-8.52939e-11
-9.16648e-11
-9.74356e-11
-1.04476e-10
-1.145e-10
-1.27682e-10
-1.42087e-10
-1.56666e-10
-1.84671e-10
-2.61679e-10
-4.0892e-10
-6.20057e-10
-8.75672e-10
-1.16041e-09
-1.46322e-09
-1.76604e-09
-2.03423e-09
-2.25027e-09
-2.41908e-09
-2.55224e-09
-2.6476e-09
4.76596e-09
9.09247e-10
5.9119e-09
1.64344e-09
6.66706e-09
2.43048e-09
7.05786e-09
3.06436e-09
7.15747e-09
3.52431e-09
7.04256e-09
3.83436e-09
6.7804e-09
4.02791e-09
6.42492e-09
4.13735e-09
6.01606e-09
4.1903e-09
5.58104e-09
4.20826e-09
5.13669e-09
4.20655e-09
4.69228e-09
4.19503e-09
4.25214e-09
4.1794e-09
3.81779e-09
4.16248e-09
3.38943e-09
4.14538e-09
2.96679e-09
4.12836e-09
2.54952e-09
4.11137e-09
2.13733e-09
4.09427e-09
1.73005e-09
4.07696e-09
1.32753e-09
4.05938e-09
9.29653e-10
4.04151e-09
5.36334e-10
4.02334e-09
1.47509e-10
4.00489e-09
-2.36884e-10
3.98613e-09
-6.16898e-10
3.96708e-09
-9.92587e-10
3.94775e-09
-1.36398e-09
3.92812e-09
-1.7311e-09
3.9082e-09
-2.09399e-09
3.88801e-09
-2.45269e-09
3.86757e-09
-2.80726e-09
3.84687e-09
-3.15774e-09
3.82591e-09
-3.50417e-09
3.8047e-09
-3.84657e-09
3.78323e-09
-4.185e-09
3.7615e-09
-4.51947e-09
3.73952e-09
-4.85002e-09
3.71728e-09
-5.17668e-09
3.69478e-09
-5.49946e-09
3.67202e-09
-5.81841e-09
3.649e-09
-6.13353e-09
3.62572e-09
-6.44484e-09
3.60218e-09
-6.75237e-09
3.57838e-09
-7.05614e-09
3.55431e-09
-7.35615e-09
3.52997e-09
-7.65243e-09
3.50535e-09
-7.94498e-09
3.48045e-09
-8.2338e-09
3.45527e-09
-8.51889e-09
3.42981e-09
3.40402e-09
-8.80024e-09
1.77747e-09
4.91128e-11
3.0003e-09
4.20606e-10
4.37097e-09
1.05981e-09
5.3758e-09
2.05953e-09
5.99663e-09
2.90348e-09
6.29908e-09
3.53191e-09
6.35694e-09
3.97004e-09
6.23872e-09
4.25557e-09
6.00208e-09
4.42694e-09
5.69187e-09
4.51847e-09
5.34043e-09
4.55798e-09
4.96933e-09
4.56613e-09
4.59173e-09
4.55701e-09
4.21484e-09
4.53937e-09
3.84209e-09
4.51813e-09
3.47476e-09
4.49569e-09
3.11312e-09
4.47301e-09
2.757e-09
4.45039e-09
2.40613e-09
4.42783e-09
2.06026e-09
4.40525e-09
1.71917e-09
4.38259e-09
1.3827e-09
4.35981e-09
1.0507e-09
4.33689e-09
7.23022e-10
4.31381e-09
3.99535e-10
4.29057e-09
8.01285e-11
4.26715e-09
-2.35302e-10
4.24355e-09
-5.46851e-10
4.21975e-09
-8.54569e-10
4.19573e-09
-1.15851e-09
4.1715e-09
-1.45873e-09
4.14709e-09
-1.7553e-09
4.12249e-09
-2.04829e-09
4.09768e-09
-2.33774e-09
4.07268e-09
-2.6237e-09
4.04746e-09
-2.90621e-09
4.02203e-09
-3.18531e-09
3.99638e-09
-3.46104e-09
3.9705e-09
-3.73342e-09
3.9444e-09
-4.00249e-09
3.91807e-09
-4.26826e-09
3.89149e-09
-4.53075e-09
3.86468e-09
-4.78999e-09
3.83762e-09
-5.04599e-09
3.81031e-09
-5.29877e-09
3.78275e-09
-5.54834e-09
3.75492e-09
-5.79471e-09
3.72682e-09
-6.03788e-09
3.69844e-09
-6.27784e-09
3.66977e-09
3.64078e-09
-6.5146e-09
3.58709e-10
-4.59595e-11
8.1399e-10
-3.46755e-11
1.75826e-09
1.15534e-10
2.73568e-09
1.08211e-09
3.49264e-09
2.14653e-09
4.01274e-09
3.0118e-09
4.31589e-09
3.66689e-09
4.43909e-09
4.13237e-09
4.42431e-09
4.44172e-09
4.31097e-09
4.63181e-09
4.13209e-09
4.73687e-09
3.91288e-09
4.78534e-09
3.67114e-09
4.79874e-09
3.41847e-09
4.79205e-09
3.16176e-09
4.77484e-09
2.90476e-09
4.75269e-09
2.64925e-09
4.72853e-09
2.39593e-09
4.70371e-09
2.14499e-09
4.67876e-09
1.89644e-09
4.6538e-09
1.65018e-09
4.62884e-09
1.40616e-09
4.60384e-09
1.16429e-09
4.57875e-09
9.24546e-10
4.55356e-09
6.8688e-10
4.52823e-09
4.51265e-10
4.50277e-09
2.17668e-10
4.47715e-09
-1.39445e-11
4.45136e-09
-2.43613e-10
4.4254e-09
-4.71353e-10
4.39924e-09
-6.9715e-10
4.37289e-09
-9.21002e-10
4.34634e-09
-1.1429e-09
4.31958e-09
-1.36285e-09
4.29262e-09
-1.58083e-09
4.26544e-09
-1.79683e-09
4.23803e-09
-2.01085e-09
4.2104e-09
-2.22287e-09
4.18253e-09
-2.43289e-09
4.15441e-09
-2.64088e-09
4.12605e-09
-2.84682e-09
4.09744e-09
-3.05071e-09
4.06857e-09
-3.25252e-09
4.03943e-09
-3.45224e-09
4.01003e-09
-3.64985e-09
3.98036e-09
-3.84533e-09
3.9504e-09
-4.03866e-09
3.92015e-09
-4.22982e-09
3.8896e-09
-4.41879e-09
3.85874e-09
3.82754e-09
-4.60556e-09
3.82885e-10
-6.2894e-11
4.02654e-10
-5.44443e-11
3.38901e-10
1.79287e-10
5.37403e-10
8.8361e-10
8.83484e-10
1.80045e-09
1.25484e-09
2.64044e-09
1.57608e-09
3.34565e-09
1.81454e-09
3.89391e-09
1.9656e-09
4.29067e-09
2.03927e-09
4.55814e-09
2.05123e-09
4.72491e-09
2.01757e-09
4.819e-09
1.95214e-09
4.86418e-09
1.86559e-09
4.87859e-09
1.76547e-09
4.87496e-09
1.65668e-09
4.86148e-09
1.5422e-09
4.84301e-09
1.42371e-09
4.82219e-09
1.30215e-09
4.80032e-09
1.17802e-09
4.77794e-09
1.0516e-09
4.75526e-09
9.23121e-10
4.73232e-09
7.92748e-10
4.70913e-09
6.60648e-10
4.68566e-09
5.26979e-10
4.6619e-09
3.91894e-10
4.63785e-09
2.55541e-10
4.6135e-09
1.18061e-10
4.58884e-09
-2.04101e-11
4.56387e-09
-1.59769e-10
4.5386e-09
-2.9991e-10
4.51303e-09
-4.40704e-10
4.48713e-09
-5.82031e-10
4.46091e-09
-7.2377e-10
4.43436e-09
-8.6581e-10
4.40748e-09
-1.00804e-09
4.38026e-09
-1.15036e-09
4.35272e-09
-1.29267e-09
4.32484e-09
-1.43488e-09
4.29662e-09
-1.57689e-09
4.26807e-09
-1.71862e-09
4.23917e-09
-1.85999e-09
4.20993e-09
-2.00091e-09
4.18035e-09
-2.14131e-09
4.15043e-09