/*--------------------------------*- C++ -*----------------------------------*\
| =========                 |                                                 |
| \\      /  F ield         | OpenFOAM: The Open Source CFD Toolbox           |
|  \\    /   O peration     | Version:  2.4.0                                 |
|   \\  /    A nd           | Web:      www.OpenFOAM.org                      |
|    \\/     M anipulation  |                                                 |
\*---------------------------------------------------------------------------*/
FoamFile
{
    version     2.0;
    format      ascii;
    class       volVectorField;
    location    "4.4";
    object      U;
}
// * * * * * * * * * * * * * * * * * * * * * * * * * * * * * * * * * * * * * //

dimensions      [0 1 -1 0 0 0 0];

internalField   nonuniform List<vector> 
8000
(
(-1.11071e-07 -0.000205938 0)
(9.37718e-07 -0.000595386 0)
(3.75292e-06 -0.000962714 0)
(8.56081e-06 -0.00130821 0)
(1.54401e-05 -0.00163223 0)
(2.44638e-05 -0.00193519 0)
(3.57332e-05 -0.00221748 0)
(4.93438e-05 -0.00247942 0)
(6.54153e-05 -0.00272131 0)
(8.40438e-05 -0.00294344 0)
(0.000105361 -0.00314606 0)
(0.000129458 -0.00332938 0)
(0.000156483 -0.00349364 0)
(0.000186514 -0.00363899 0)
(0.000219723 -0.00376562 0)
(0.000256165 -0.00387362 0)
(0.000296045 -0.00396315 0)
(0.000339387 -0.00403423 0)
(0.000386442 -0.00408698 0)
(0.000437184 -0.00412132 0)
(0.000491933 -0.00413737 0)
(0.000550588 -0.00413489 0)
(0.000613557 -0.00411382 0)
(0.000680638 -0.00407408 0)
(0.000752395 -0.00401532 0)
(0.000828498 -0.0039377 0)
(0.000909643 -0.00384107 0)
(0.000995281 -0.00372489 0)
(0.00108635 -0.00358894 0)
(0.00118205 -0.0034327 0)
(0.00128389 -0.0032554 0)
(0.00139075 -0.00306234 0)
(0.00150303 -0.00284622 0)
(0.0016189 -0.00260726 0)
(0.00174085 -0.002345 0)
(0.00186738 -0.002063 0)
(0.00200018 -0.0017567 0)
(0.00213624 -0.00143219 0)
(0.00227724 -0.00106698 0)
(0.00242224 -0.000684599 0)
(0.00257054 -0.00018034 0)
(0.00269278 7.62735e-05 0)
(0.00274243 0.000401119 0)
(0.00281834 0.00122718 0)
(0.00321002 0.000655929 0)
(0.00391713 -0.00165405 0)
(0.00455979 0.00127974 0)
(0.00677196 0.00316517 0)
(0.013611 0.023796 0)
(0.0235937 0.0854015 0)
(2.33101e-09 -0.000208717 0)
(-1.70475e-06 -0.000605658 0)
(-5.27599e-06 -0.000982571 0)
(-1.04774e-05 -0.00133974 0)
(-1.68894e-05 -0.00167747 0)
(-2.41166e-05 -0.00199621 0)
(-3.18153e-05 -0.00229632 0)
(-3.96643e-05 -0.00257818 0)
(-4.73685e-05 -0.00284209 0)
(-5.46398e-05 -0.00308837 0)
(-6.12145e-05 -0.00331724 0)
(-6.683e-05 -0.00352898 0)
(-7.12488e-05 -0.00372376 0)
(-7.42267e-05 -0.00390182 0)
(-7.55459e-05 -0.00406329 0)
(-7.49737e-05 -0.00420837 0)
(-7.23054e-05 -0.00433713 0)
(-6.73133e-05 -0.00444976 0)
(-5.97995e-05 -0.00454626 0)
(-4.95343e-05 -0.0046268 0)
(-3.63201e-05 -0.00469132 0)
(-1.99161e-05 -0.0047399 0)
(-1.03591e-07 -0.00477239 0)
(2.33761e-05 -0.00478904 0)
(5.07584e-05 -0.00478959 0)
(8.23179e-05 -0.00477425 0)
(0.000118325 -0.00474261 0)
(0.00015908 -0.0046949 0)
(0.000204918 -0.00463054 0)
(0.000256152 -0.00454975 0)
(0.000313118 -0.00445164 0)
(0.000375941 -0.00433634 0)
(0.000445435 -0.00419558 0)
(0.000522237 -0.00403888 0)
(0.00060679 -0.00386527 0)
(0.000699437 -0.00367547 0)
(0.000800839 -0.00346981 0)
(0.000911492 -0.00324458 0)
(0.00103277 -0.0029994 0)
(0.00116498 -0.00273496 0)
(0.00130829 -0.0024503 0)
(0.00146356 -0.00214622 0)
(0.00163733 -0.00181097 0)
(0.00184523 -0.00143842 0)
(0.00201604 -0.00146847 0)
(0.00209576 -0.00140798 0)
(0.00215513 -0.00141154 0)
(0.00237651 -0.00195433 0)
(0.00280051 -0.0022797 0)
(0.00418325 -0.000812807 0)
(-8.247e-07 -0.000172505 0)
(-5.40091e-06 -0.00050653 0)
(-1.34428e-05 -0.000829293 0)
(-2.43185e-05 -0.00114039 0)
(-3.74407e-05 -0.00143946 0)
(-5.23449e-05 -0.00172629 0)
(-6.86265e-05 -0.00200067 0)
(-8.59112e-05 -0.00226243 0)
(-0.000103839 -0.00251146 0)
(-0.000122074 -0.00274763 0)
(-0.000140292 -0.00297085 0)
(-0.000158193 -0.00318104 0)
(-0.00017548 -0.00337818 0)
(-0.00019188 -0.0035622 0)
(-0.000207117 -0.00373311 0)
(-0.000220939 -0.0038909 0)
(-0.000233083 -0.00403558 0)
(-0.00024331 -0.00416719 0)
(-0.000251365 -0.00428578 0)
(-0.000257016 -0.00439139 0)
(-0.000260006 -0.00448414 0)
(-0.000260101 -0.00456408 0)
(-0.000257037 -0.00463138 0)
(-0.000250574 -0.00468612 0)
(-0.000240433 -0.00472853 0)
(-0.000226359 -0.00475873 0)
(-0.000208054 -0.00477702 0)
(-0.000185236 -0.00478356 0)
(-0.000157579 -0.00477875 0)
(-0.000124759 -0.00476281 0)
(-8.6399e-05 -0.00473625 0)
(-4.2065e-05 -0.00469934 0)
(8.74753e-06 -0.00465275 0)
(6.65781e-05 -0.00459687 0)
(0.000131863 -0.00453265 0)
(0.000205106 -0.00446054 0)
(0.00028672 -0.00438173 0)
(0.000377334 -0.00429668 0)
(0.000477505 -0.00420697 0)
(0.000588006 -0.00411309 0)
(0.000709596 -0.00401715 0)
(0.000843213 -0.00391943 0)
(0.000989254 -0.00382291 0)
(0.00114823 -0.00372803 0)
(0.00131607 -0.00364047 0)
(0.00149019 -0.00353839 0)
(0.00163855 -0.003621 0)
(0.0017487 -0.00374657 0)
(0.00185358 -0.00381553 0)
(0.00198418 -0.00380289 0)
(3.04194e-07 -0.000158696 0)
(4.79874e-07 -0.000469243 0)
(2.73755e-07 -0.000772561 0)
(-3.36113e-07 -0.00106817 0)
(-1.15966e-06 -0.00135565 0)
(-1.96948e-06 -0.00163469 0)
(-2.53979e-06 -0.00190499 0)
(-2.64539e-06 -0.00216631 0)
(-2.06106e-06 -0.00241843 0)
(-5.5791e-07 -0.00266117 0)
(2.09254e-06 -0.00289437 0)
(6.1212e-06 -0.00311789 0)
(1.17563e-05 -0.00333164 0)
(1.92283e-05 -0.00353552 0)
(2.87634e-05 -0.00372947 0)
(4.05901e-05 -0.00391347 0)
(5.49312e-05 -0.00408748 0)
(7.20125e-05 -0.00425153 0)
(9.20524e-05 -0.00440562 0)
(0.000115273 -0.00454982 0)
(0.000141887 -0.0046842 0)
(0.000172111 -0.00480884 0)
(0.000206154 -0.00492387 0)
(0.000244224 -0.00502945 0)
(0.00028652 -0.00512572 0)
(0.000333245 -0.00521292 0)
(0.000384585 -0.00529124 0)
(0.000440731 -0.005361 0)
(0.000501854 -0.00542244 0)
(0.000568127 -0.00547595 0)
(0.000639702 -0.00552187 0)
(0.000716728 -0.00556068 0)
(0.000799327 -0.00559278 0)
(0.000887615 -0.0056188 0)
(0.000981671 -0.00563921 0)
(0.00108156 -0.0056548 0)
(0.00118729 -0.00566611 0)
(0.00129887 -0.00567409 0)
(0.00141624 -0.00567938 0)
(0.00153929 -0.00568313 0)
(0.00166787 -0.00568606 0)
(0.00180178 -0.00568958 0)
(0.0019408 -0.00569445 0)
(0.00208465 -0.00570239 0)
(0.00223277 -0.00571428 0)
(0.00238424 -0.00573211 0)
(0.00253492 -0.00575835 0)
(0.00267142 -0.00577099 0)
(0.00277109 -0.00577793 0)
(0.00284758 -0.00577368 0)
(-3.71688e-07 -0.000161889 0)
(-1.25911e-06 -0.000479016 0)
(-2.18879e-06 -0.000789498 0)
(-2.84005e-06 -0.00109326 0)
(-3.00495e-06 -0.00139022 0)
(-2.51411e-06 -0.00168032 0)
(-1.2017e-06 -0.00196347 0)
(1.09999e-06 -0.00223961 0)
(4.55952e-06 -0.00250866 0)
(9.34232e-06 -0.00277053 0)
(1.56132e-05 -0.00302517 0)
(2.35327e-05 -0.00327249 0)
(3.32606e-05 -0.00351244 0)
(4.49516e-05 -0.00374496 0)
(5.87589e-05 -0.00397001 0)
(7.48299e-05 -0.00418756 0)
(9.33103e-05 -0.00439756 0)
(0.000114339 -0.00460001 0)
(0.000138051 -0.0047949 0)
(0.000164576 -0.00498223 0)
(0.000194039 -0.00516201 0)
(0.000226554 -0.00533427 0)
(0.000262236 -0.00549903 0)
(0.000301183 -0.00565633 0)
(0.000343492 -0.00580623 0)
(0.000389244 -0.00594878 0)
(0.000438519 -0.00608405 0)
(0.000491374 -0.00621208 0)
(0.000547865 -0.00633298 0)
(0.000608023 -0.00644679 0)
(0.000671875 -0.00655362 0)
(0.000739417 -0.0066535 0)
(0.000810642 -0.00674654 0)
(0.0008855 -0.00683274 0)
(0.000963938 -0.00691221 0)
(0.00104585 -0.00698484 0)
(0.00113116 -0.00705076 0)
(0.00121971 -0.00710968 0)
(0.0013114 -0.00716168 0)
(0.00140613 -0.00720633 0)
(0.00150396 -0.00724386 0)
(0.00160487 -0.00727387 0)
(0.00170852 -0.00729713 0)
(0.00181318 -0.00731356 0)
(0.00191393 -0.00733121 0)
(0.00199393 -0.00728808 0)
(0.00203288 -0.00721714 0)
(0.00206111 -0.00711053 0)
(0.00209422 -0.00700587 0)
(0.00209367 -0.00691174 0)
(3.57508e-07 -0.00015714 0)
(2.01421e-06 -0.000468884 0)
(5.07572e-06 -0.000777668 0)
(9.50669e-06 -0.00108305 0)
(1.53665e-05 -0.00138463 0)
(2.27532e-05 -0.00168207 0)
(3.17691e-05 -0.00197505 0)
(4.25144e-05 -0.00226328 0)
(5.50831e-05 -0.00254651 0)
(6.95687e-05 -0.00282449 0)
(8.60597e-05 -0.00309703 0)
(0.000104645 -0.00336391 0)
(0.000125407 -0.00362496 0)
(0.000148428 -0.00388001 0)
(0.000173785 -0.00412892 0)
(0.000201553 -0.00437155 0)
(0.0002318 -0.00460777 0)
(0.000264595 -0.00483747 0)
(0.000299997 -0.00506055 0)
(0.000338067 -0.00527692 0)
(0.000378853 -0.00548651 0)
(0.000422407 -0.00568922 0)
(0.000468767 -0.00588501 0)
(0.000517973 -0.00607379 0)
(0.000570053 -0.00625555 0)
(0.000625034 -0.00643022 0)
(0.000682935 -0.00659778 0)
(0.000743768 -0.00675818 0)
(0.000807544 -0.00691142 0)
(0.00087426 -0.00705743 0)
(0.000943922 -0.00719623 0)
(0.00101653 -0.00732774 0)
(0.00109211 -0.00745193 0)
(0.0011707 -0.00756867 0)
(0.00125238 -0.0076779 0)
(0.00133736 -0.00777961 0)
(0.00142622 -0.00787411 0)
(0.00151947 -0.00796182 0)
(0.00161697 -0.00804356 0)
(0.00171673 -0.00812037 0)
(0.00181444 -0.00819822 0)
(0.00190215 -0.00829165 0)
(0.00196858 -0.00838755 0)
(0.00200022 -0.00830367 0)
(0.00203563 -0.00820571 0)
(0.00208239 -0.0080471 0)
(0.00208737 -0.00785545 0)
(0.00206474 -0.0076848 0)
(0.00213576 -0.0069782 0)
(0.00243169 -0.00425617 0)
(1.8896e-08 -0.000175086 0)
(1.8383e-06 -0.000521363 0)
(6.08956e-06 -0.000863665 0)
(1.29027e-05 -0.00120186 0)
(2.22825e-05 -0.00153582 0)
(3.42425e-05 -0.00186542 0)
(4.88209e-05 -0.00219053 0)
(6.60597e-05 -0.00251101 0)
(8.60086e-05 -0.00282674 0)
(0.000108712 -0.00313757 0)
(0.000134223 -0.00344336 0)
(0.000162586 -0.00374399 0)
(0.000193862 -0.00403929 0)
(0.000228093 -0.00432915 0)
(0.000265341 -0.00461341 0)
(0.000305647 -0.00489198 0)
(0.000349074 -0.0051647 0)
(0.000395655 -0.00543146 0)
(0.000445452 -0.00569213 0)
(0.00049849 -0.00594664 0)
(0.000554827 -0.00619481 0)
(0.000614474 -0.00643661 0)
(0.000677481 -0.00667185 0)
(0.00074384 -0.00690052 0)
(0.000813592 -0.00712244 0)
(0.0008867 -0.00733762 0)
(0.000963195 -0.00754587 0)
(0.00104302 -0.00774723 0)
(0.00112623 -0.00794147 0)
(0.0012128 -0.00812867 0)
(0.00130299 -0.00830871 0)
(0.00139723 -0.00848191 0)
(0.00149622 -0.0086487 0)
(0.00160006 -0.00881012 0)
(0.00170709 -0.00896721 0)
(0.00181288 -0.00912208 0)
(0.00191003 -0.00929037 0)
(0.00198799 -0.00948419 0)
(0.00203626 -0.00966927 0)
(0.00206821 -0.00970238 0)
(0.00212558 -0.0096564 0)
(0.00219995 -0.00962755 0)
(0.002227 -0.00963169 0)
(0.00218785 -0.00945315 0)
(0.00215863 -0.0093677 0)
(0.00227094 -0.00896318 0)
(0.00262987 -0.00689071 0)
(0.00306545 -0.00882631 0)
(0.00319338 -0.0105039 0)
(0.00313608 -0.00595299 0)
(4.43978e-07 -0.000187708 0)
(3.74862e-06 -0.000561142 0)
(1.03407e-05 -0.00093229 0)
(2.01566e-05 -0.00130082 0)
(3.3131e-05 -0.00166644 0)
(4.92639e-05 -0.00202889 0)
(6.85778e-05 -0.00238793 0)
(9.11146e-05 -0.00274334 0)
(0.000116907 -0.00309493 0)
(0.000146009 -0.00344248 0)
(0.000178464 -0.00378585 0)
(0.00021434 -0.00412483 0)
(0.000253694 -0.0044593 0)
(0.000296608 -0.00478906 0)
(0.000343153 -0.00511401 0)
(0.000393426 -0.0054339 0)
(0.000447507 -0.00574868 0)
(0.000505511 -0.00605806 0)
(0.000567527 -0.006362 0)
(0.000633681 -0.00666015 0)
(0.000704067 -0.0069525 0)
(0.000778826 -0.00723861 0)
(0.000858037 -0.00751851 0)
(0.000941869 -0.0077916 0)
(0.00103038 -0.00805798 0)
(0.00112387 -0.00831685 0)
(0.00122251 -0.00856847 0)
(0.00132688 -0.00881203 0)
(0.00143689 -0.00904882 0)
(0.00155193 -0.00927938 0)
(0.00166879 -0.0095076 0)
(0.00178073 -0.00974378 0)
(0.00187452 -0.0100026 0)
(0.00193728 -0.0102913 0)
(0.00197083 -0.0104218 0)
(0.00202915 -0.0104316 0)
(0.00212622 -0.0104475 0)
(0.00220865 -0.0105123 0)
(0.0022501 -0.0106113 0)
(0.00226175 -0.0105614 0)
(0.00231512 -0.0104316 0)
(0.00249899 -0.0101627 0)
(0.00286891 -0.00926256 0)
(0.00336316 -0.00731665 0)
(0.00373133 -0.0104031 0)
(0.00370412 -0.0140778 0)
(0.00379092 -0.0132273 0)
(0.00392971 -0.0117039 0)
(0.00409163 -0.00933724 0)
(0.00420962 -0.00498128 0)
(1.76328e-07 -0.000214289 0)
(2.63481e-06 -0.000638746 0)
(7.99266e-06 -0.00105922 0)
(1.63281e-05 -0.0014758 0)
(2.76374e-05 -0.00188854 0)
(4.19379e-05 -0.00229749 0)
(5.9278e-05 -0.00270268 0)
(7.97106e-05 -0.00310414 0)
(0.000103301 -0.00350188 0)
(0.000130118 -0.00389596 0)
(0.000160246 -0.00428636 0)
(0.00019378 -0.00467318 0)
(0.00023083 -0.00505637 0)
(0.000271528 -0.00543608 0)
(0.000316011 -0.0058122 0)
(0.000364465 -0.00618494 0)
(0.000417052 -0.00655413 0)
(0.000474026 -0.00692004 0)
(0.000535576 -0.00728238 0)
(0.000602034 -0.0076415 0)
(0.000673605 -0.00799695 0)
(0.000750734 -0.00834917 0)
(0.000833735 -0.00869743 0)
(0.000923345 -0.00904234 0)
(0.00101995 -0.00938311 0)
(0.00112376 -0.00972196 0)
(0.00123195 -0.0100601 0)
(0.00133357 -0.0104067 0)
(0.00140413 -0.0107801 0)
(0.00141745 -0.0110788 0)
(0.00142015 -0.0112314 0)
(0.00147247 -0.0113659 0)
(0.00154981 -0.0115424 0)
(0.00161013 -0.0117983 0)
(0.00165352 -0.0118843 0)
(0.00171416 -0.0117898 0)
(0.0018311 -0.011632 0)
(0.00202741 -0.0113486 0)
(0.00228369 -0.0108344 0)
(0.00251584 -0.0105508 0)
(0.00262868 -0.0124723 0)
(0.002532 -0.0163977 0)
(0.0023535 -0.0176213 0)
(0.00250571 -0.0156141 0)
(0.00268743 -0.014066 0)
(0.00267621 -0.0136993 0)
(0.00258954 -0.0133972 0)
(0.00259565 -0.0129247 0)
(0.00269762 -0.0111379 0)
(0.00284639 -0.00769951 0)
(2.29533e-07 -0.000222702 0)
(2.6331e-06 -0.000667255 0)
(7.6524e-06 -0.00111059 0)
(1.5266e-05 -0.00155235 0)
(2.53906e-05 -0.00199228 0)
(3.79816e-05 -0.00243016 0)
(5.30099e-05 -0.00286593 0)
(7.04784e-05 -0.00329949 0)
(9.03709e-05 -0.0037309 0)
(0.000112723 -0.00416019 0)
(0.000137531 -0.00458754 0)
(0.000164878 -0.00501307 0)
(0.000194773 -0.0054371 0)
(0.000227362 -0.00585984 0)
(0.000262671 -0.0062817 0)
(0.000300922 -0.006703 0)
(0.000342159 -0.00712421 0)
(0.000386687 -0.00754581 0)
(0.000434572 -0.0079682 0)
(0.000486272 -0.00839215 0)
(0.000542113 -0.00881764 0)
(0.000602938 -0.00924599 0)
(0.000668855 -0.00967704 0)
(0.000736302 -0.0101161 0)
(0.000788687 -0.0105689 0)
(0.000791279 -0.0110405 0)
(0.000739259 -0.0112724 0)
(0.000709117 -0.0114596 0)
(0.000722691 -0.0116964 0)
(0.000723996 -0.011886 0)
(0.000707217 -0.0118818 0)
(0.000689128 -0.0118308 0)
(0.000687659 -0.0117916 0)
(0.00070505 -0.011783 0)
(0.000717317 -0.011916 0)
(0.000705188 -0.0125676 0)
(0.000666373 -0.0140023 0)
(0.000615874 -0.0154044 0)
(0.000642097 -0.0152432 0)
(0.000902443 -0.0135211 0)
(0.00130474 -0.0120715 0)
(0.00155404 -0.0118145 0)
(0.00168417 -0.0121584 0)
(0.00187587 -0.0122425 0)
(0.00212654 -0.0117422 0)
(0.0023668 -0.0107805 0)
(0.0024789 -0.0111796 0)
(0.00240496 -0.0125724 0)
(0.00230695 -0.0116418 0)
(0.00230228 -0.0092836 0)
(4.76484e-07 -0.000246756 0)
(4.30226e-06 -0.000735453 0)
(1.16354e-05 -0.00121937 0)
(2.21124e-05 -0.00169859 0)
(3.52828e-05 -0.00217326 0)
(5.07865e-05 -0.00264357 0)
(6.8291e-05 -0.00310974 0)
(8.75067e-05 -0.00357206 0)
(0.000108127 -0.00403083 0)
(0.000129874 -0.00448646 0)
(0.000152458 -0.00493926 0)
(0.000175596 -0.00538985 0)
(0.000199018 -0.00583853 0)
(0.000222418 -0.00628617 0)
(0.000245541 -0.00673295 0)
(0.000268023 -0.00718023 0)
(0.000289577 -0.00762783 0)
(0.000309797 -0.00807788 0)
(0.000328755 -0.00852941 0)
(0.000347222 -0.0089858 0)
(0.000365996 -0.00944558 0)
(0.000376858 -0.00991797 0)
(0.000341449 -0.0104151 0)
(0.000197144 -0.0106591 0)
(3.31884e-05 -0.0108846 0)
(-7.17558e-05 -0.0111836 0)
(-0.000181673 -0.011201 0)
(-0.000300253 -0.011165 0)
(-0.000384794 -0.0111553 0)
(-0.000405271 -0.0110774 0)
(-0.000389834 -0.0109688 0)
(-0.000373455 -0.0111061 0)
(-0.000360438 -0.0115803 0)
(-0.000319147 -0.0119221 0)
(-0.000183613 -0.011695 0)
(8.30093e-05 -0.0114883 0)
(0.000381836 -0.012254 0)
(0.00061094 -0.0138544 0)
(0.000888094 -0.0155176 0)
(0.00134006 -0.0171201 0)
(0.00194572 -0.0187081 0)
(0.00261947 -0.0199294 0)
(0.00335976 -0.0205671 0)
(0.00416374 -0.0209889 0)
(0.00495942 -0.0207617 0)
(0.00577954 -0.018385 0)
(0.00666496 -0.0154928 0)
(0.00743535 -0.0136131 0)
(0.00802696 -0.0125465 0)
(0.00841093 -0.0100482 0)
(3.38304e-07 -0.000273008 0)
(3.32542e-06 -0.000807739 0)
(8.91974e-06 -0.00133142 0)
(1.65557e-05 -0.00184434 0)
(2.56651e-05 -0.00234674 0)
(3.54977e-05 -0.00283893 0)
(4.55884e-05 -0.00332114 0)
(5.51061e-05 -0.00379362 0)
(6.36198e-05 -0.00425664 0)
(7.01344e-05 -0.00471034 0)
(7.42431e-05 -0.00515509 0)
(7.47384e-05 -0.00559082 0)
(7.12272e-05 -0.00601818 0)
(6.22122e-05 -0.00643668 0)
(4.72474e-05 -0.0068475 0)
(2.45513e-05 -0.00724932 0)
(-5.92866e-06 -0.00764423 0)
(-4.49599e-05 -0.00802932 0)
(-9.26091e-05 -0.00840985 0)
(-0.000160821 -0.0087863 0)
(-0.000294129 -0.00915177 0)
(-0.000520298 -0.0093426 0)
(-0.000775422 -0.00955864 0)
(-0.00101643 -0.00946434 0)
(-0.00123726 -0.00943223 0)
(-0.00139534 -0.00915495 0)
(-0.00154546 -0.00869787 0)
(-0.00163877 -0.00880953 0)
(-0.00174447 -0.0103489 0)
(-0.00182945 -0.0114855 0)
(-0.00179167 -0.0116613 0)
(-0.00161751 -0.0118997 0)
(-0.00141036 -0.0128811 0)
(-0.00121897 -0.0144232 0)
(-0.000945012 -0.0160097 0)
(-0.000558784 -0.0176222 0)
(-0.000136572 -0.0195699 0)
(0.000335555 -0.022039 0)
(0.000883112 -0.0239119 0)
(0.00143541 -0.025759 0)
(0.00195073 -0.0276364 0)
(0.00241299 -0.0293348 0)
(0.00283228 -0.0304449 0)
(0.00321151 -0.0309358 0)
(0.00354534 -0.0308137 0)
(0.00385843 -0.0298796 0)
(0.0041868 -0.0278627 0)
(0.00452209 -0.0248574 0)
(0.00483857 -0.0208188 0)
(0.00508405 -0.0155221 0)
(2.81433e-07 -0.0002896 0)
(1.83401e-06 -0.000849432 0)
(4.13298e-06 -0.00139008 0)
(6.50279e-06 -0.00191134 0)
(8.34167e-06 -0.00241343 0)
(8.85368e-06 -0.00289571 0)
(7.49383e-06 -0.00335858 0)
(3.38651e-06 -0.00380069 0)
(-4.039e-06 -0.0042228 0)
(-1.57761e-05 -0.00462254 0)
(-3.24752e-05 -0.00500144 0)
(-5.52862e-05 -0.00535546 0)
(-8.50716e-05 -0.0056876 0)
(-0.000123076 -0.00599108 0)
(-0.000169706 -0.00627134 0)
(-0.000224095 -0.00651708 0)
(-0.000286212 -0.00673992 0)
(-0.000371345 -0.00692873 0)
(-0.000550345 -0.00706664 0)
(-0.000867777 -0.00709088 0)
(-0.00126936 -0.00706259 0)
(-0.00161624 -0.00708063 0)
(-0.00174316 -0.00666194 0)
(-0.00197641 -0.00459169 0)
(-0.00272971 -0.00696947 0)
(-0.0035874 -0.00672825 0)
(-0.00378074 -0.00791671 0)
(-0.00357336 -0.00747204 0)
(-0.0034253 -0.0098197 0)
(-0.00344439 -0.012215 0)
(-0.00310497 -0.0135512 0)
(-0.00247087 -0.0152495 0)
(-0.00173886 -0.0170209 0)
(-0.000951548 -0.0188302 0)
(-9.14518e-05 -0.0206634 0)
(0.000830565 -0.0225191 0)
(0.00181385 -0.024928 0)
(0.00273801 -0.0278922 0)
(0.00360057 -0.0297061 0)
(0.00448277 -0.0311121 0)
(0.00532161 -0.0320279 0)
(0.00608183 -0.032501 0)
(0.0067535 -0.0324182 0)
(0.00732512 -0.0317782 0)
(0.00779297 -0.0305629 0)
(0.0081255 -0.0288279 0)
(0.00833196 -0.0265753 0)
(0.00848978 -0.0245414 0)
(0.00873292 -0.0220972 0)
(0.00915096 -0.0180755 0)
(-3.28423e-07 -0.000294037 0)
(-4.18045e-06 -0.000854297 0)
(-1.21299e-05 -0.00138753 0)
(-2.40032e-05 -0.00189348 0)
(-3.95614e-05 -0.00237297 0)
(-5.85571e-05 -0.00282472 0)
(-8.09201e-05 -0.00324982 0)
(-0.000106487 -0.0036457 0)
(-0.000135299 -0.00401408 0)
(-0.00016727 -0.00435065 0)
(-0.000202664 -0.00465837 0)
(-0.000241443 -0.00493044 0)
(-0.00028307 -0.00517181 0)
(-0.000324671 -0.00537208 0)
(-0.000364869 -0.00554201 0)
(-0.000421971 -0.00567337 0)
(-0.000581071 -0.00574785 0)
(-0.000873102 -0.0056407 0)
(-0.00122578 -0.00540607 0)
(-0.00159494 -0.00511448 0)
(-0.00196008 9.28781e-05 0)
(-0.00250866 -0.00569512 0)
(-0.00379817 -0.0089649 0)
(-0.00535886 0.0152401 0)
(-0.0050151 0.0011071 0)
(-0.00531997 -0.00172952 0)
(-0.00524744 -0.00552922 0)
(-0.00492575 -0.00959305 0)
(-0.00440366 -0.0138564 0)
(-0.00374644 -0.018214 0)
(-0.00290911 -0.0230398 0)
(-0.00197237 -0.027755 0)
(-0.000944456 -0.0314343 0)
(0.000188121 -0.0347623 0)
(0.00137985 -0.0376877 0)
(0.00261273 -0.0401512 0)
(0.00386045 -0.04234 0)
(0.00509374 -0.044087 0)
(0.00623119 -0.0452403 0)
(0.00728618 -0.0460443 0)
(0.00834395 -0.0465625 0)
(0.00937969 -0.0463454 0)
(0.0103027 -0.0447557 0)
(0.0111205 -0.0428798 0)
(0.011881 -0.0400932 0)
(0.0126215 -0.0359074 0)
(0.0132304 -0.0319268 0)
(0.0136461 -0.0291021 0)
(0.0140008 -0.0274317 0)
(0.014496 -0.0256311 0)
(-1.34901e-06 -0.000233623 0)
(-1.09082e-05 -0.000688749 0)
(-2.82813e-05 -0.00113104 0)
(-5.20243e-05 -0.00155926 0)
(-8.0552e-05 -0.00197269 0)
(-0.000112465 -0.00236986 0)
(-0.000146544 -0.00275015 0)
(-0.000181616 -0.00311148 0)
(-0.000216649 -0.00345338 0)
(-0.000250456 -0.00377293 0)
(-0.000280944 -0.00406991 0)
(-0.000304026 -0.00433987 0)
(-0.000318098 -0.00458411 0)
(-0.00034605 -0.0048012 0)
(-0.000480491 -0.00500898 0)
(-0.000742649 -0.00503795 0)
(-0.0010554 -0.00499509 0)
(-0.00143443 -0.00461837 0)
(-0.0020858 0.00268318 0)
(-0.00240389 -0.00244284 0)
(-0.00295607 0.00549448 0)
(-0.00218814 0.0219099 0)
(-0.00383235 0.013424 0)
(-0.0029241 0.00969533 0)
(-0.00232753 0.00283309 0)
(-0.00207092 -0.00456735 0)
(-0.00164569 -0.0116523 0)
(-0.00115378 -0.0183537 0)
(-0.000622886 -0.0245642 0)
(-6.68517e-05 -0.0302701 0)
(0.000506248 -0.0356256 0)
(0.00107486 -0.040406 0)
(0.00166558 -0.0444838 0)
(0.0023271 -0.048164 0)
(0.00305725 -0.05138 0)
(0.0038626 -0.0540853 0)
(0.00474624 -0.0562259 0)
(0.00570393 -0.057697 0)
(0.00673843 -0.0583707 0)
(0.00768579 -0.0583584 0)
(0.00858957 -0.0583668 0)
(0.00959607 -0.0574692 0)
(0.0104877 -0.0541425 0)
(0.0112936 -0.0523095 0)
(0.0121967 -0.0494602 0)
(0.0132616 -0.0446146 0)
(0.0142858 -0.0398329 0)
(0.0151994 -0.036249 0)
(0.016132 -0.0339434 0)
(0.01699 -0.0323097 0)
(-2.74678e-07 -0.000169862 0)
(-1.62865e-06 -0.000521967 0)
(-3.72088e-06 -0.000884857 0)
(-6.19807e-06 -0.00125591 0)
(-8.5602e-06 -0.00163375 0)
(-1.06411e-05 -0.00201561 0)
(-1.20153e-05 -0.00240135 0)
(-1.27292e-05 -0.00278762 0)
(-1.19102e-05 -0.0031757 0)
(-7.14382e-06 -0.00356108 0)
(6.93264e-06 -0.00394706 0)
(2.32875e-05 -0.00432814 0)
(-1.80625e-05 -0.00471461 0)
(-0.000225425 -0.00477517 0)
(-0.000516182 -0.00483737 0)
(-0.000721851 -0.00437885 0)
(-0.000768025 0.00237275 0)
(-0.000575362 0.00176375 0)
(-4.59187e-05 0.00882444 0)
(0.00122274 0.00584043 0)
(0.00150768 0.0047641 0)
(0.00206997 0.00392697 0)
(0.00299377 0.00188407 0)
(0.00380105 -0.00168277 0)
(0.00435337 -0.00620143 0)
(0.00467379 -0.0111705 0)
(0.00480787 -0.0163068 0)
(0.00476995 -0.0214459 0)
(0.00458396 -0.026507 0)
(0.00429234 -0.0314822 0)
(0.0039462 -0.036417 0)
(0.00360981 -0.0413713 0)
(0.00334859 -0.0463123 0)
(0.00321869 -0.0512385 0)
(0.00325728 -0.0560422 0)
(0.00347963 -0.0605479 0)
(0.00387554 -0.064465 0)
(0.00442159 -0.0673541 0)
(0.00507431 -0.0689566 0)
(0.00583791 -0.0693475 0)
(0.00670083 -0.0694741 0)
(0.00762073 -0.0688523 0)
(0.00872323 -0.067017 0)
(0.00989217 -0.0654478 0)
(0.0110607 -0.0632302 0)
(0.0124278 -0.0595176 0)
(0.0139872 -0.0553768 0)
(0.0155077 -0.0518343 0)
(0.0169472 -0.0487679 0)
(0.0183865 -0.0456171 0)
(7.20722e-07 -0.0002176 0)
(4.87059e-06 -0.000650442 0)
(1.15691e-05 -0.00108103 0)
(2.03164e-05 -0.0015068 0)
(3.04839e-05 -0.00192597 0)
(4.15181e-05 -0.00233678 0)
(5.28071e-05 -0.00273972 0)
(6.46142e-05 -0.00313206 0)
(7.78139e-05 -0.00351482 0)
(9.41029e-05 -0.00388353 0)
(0.000102332 -0.00424121 0)
(6.19489e-05 -0.00458587 0)
(-6.99015e-05 -0.00501818 0)
(-0.000290951 -0.00507409 0)
(-0.000237252 -0.00374785 0)
(0.000247728 -0.00454727 0)
(0.00058788 -0.00619047 0)
(0.00140724 -0.0132056 0)
(0.0023211 -0.01685 0)
(0.00295719 -0.0132141 0)
(0.00356943 -0.00967499 0)
(0.00413109 -0.00682759 0)
(0.00458781 -0.00580568 0)
(0.00497722 -0.00676525 0)
(0.0052689 -0.00910626 0)
(0.00538336 -0.0117901 0)
(0.00526746 -0.0139829 0)
(0.00491255 -0.0163227 0)
(0.0043258 -0.0193306 0)
(0.00352667 -0.0230948 0)
(0.00257367 -0.0278136 0)
(0.00157634 -0.033704 0)
(0.000637434 -0.0405278 0)
(-0.000148439 -0.0480446 0)
(-0.000750138 -0.0556909 0)
(-0.00124468 -0.0630083 0)
(-0.0016621 -0.0692029 0)
(-0.0019781 -0.0737622 0)
(-0.00215324 -0.076946 0)
(-0.00211036 -0.0795406 0)
(-0.00180755 -0.0813483 0)
(-0.00127062 -0.0826277 0)
(-0.000534083 -0.0833263 0)
(0.000379322 -0.083087 0)
(0.00155044 -0.0823723 0)
(0.00297404 -0.0808853 0)
(0.00452685 -0.0791179 0)
(0.00621598 -0.076287 0)
(0.00798413 -0.0724802 0)
(0.00994552 -0.0677274 0)
(-1.71267e-08 -0.000207839 0)
(6.02376e-06 -0.000624755 0)
(1.98587e-05 -0.00104128 0)
(4.2067e-05 -0.00145388 0)
(7.19877e-05 -0.00185927 0)
(0.000109073 -0.00225835 0)
(0.000153188 -0.00264911 0)
(0.000206896 -0.00303174 0)
(0.000275033 -0.00340521 0)
(0.0003544 -0.00377493 0)
(0.000381673 -0.00413587 0)
(0.000216246 -0.004511 0)
(-0.000123355 -0.00516697 0)
(-0.000156754 -0.0106944 0)
(0.000244058 -0.0116424 0)
(0.000489645 -0.0108043 0)
(0.000559404 -0.010734 0)
(0.000374378 -0.0107444 0)
(-1.41615e-05 -0.0106338 0)
(-0.000359252 -0.0108091 0)
(-0.000460569 -0.0113092 0)
(-0.00034585 -0.0112323 0)
(-0.000146583 -0.0107917 0)
(2.46309e-05 -0.0104061 0)
(0.000101061 -0.0101919 0)
(6.99541e-05 -0.010209 0)
(-4.56779e-05 -0.0102198 0)
(-0.000236665 -0.009977 0)
(-0.000525875 -0.00934382 0)
(-0.000954313 -0.00908352 0)
(-0.0015834 -0.0110162 0)
(-0.00246307 -0.0161996 0)
(-0.00356932 -0.024073 0)
(-0.00486855 -0.0337761 0)
(-0.00647806 -0.0425709 0)
(-0.00849463 -0.049393 0)
(-0.0106373 -0.0550886 0)
(-0.0126902 -0.0602831 0)
(-0.0147034 -0.0663129 0)
(-0.0165445 -0.0735261 0)
(-0.0179034 -0.079795 0)
(-0.0188479 -0.0848932 0)
(-0.0194661 -0.0887437 0)
(-0.0197882 -0.0917974 0)
(-0.0198721 -0.0938204 0)
(-0.019757 -0.0949975 0)
(-0.0194319 -0.0952671 0)
(-0.0187885 -0.0947894 0)
(-0.0179098 -0.0938846 0)
(-0.0167445 -0.0926815 0)
(2.82226e-06 -0.000317513 0)
(2.48492e-05 -0.000952956 0)
(6.6805e-05 -0.00158592 0)
(0.000127287 -0.00220964 0)
(0.000203331 -0.00281927 0)
(0.000292203 -0.00341586 0)
(0.00039566 -0.00399951 0)
(0.000500816 -0.00457378 0)
(0.000612359 -0.00513882 0)
(0.000736677 -0.00569907 0)
(0.000907397 -0.0062516 0)
(0.00117456 -0.00679243 0)
(0.00136299 -0.00744058 0)
(0.0012478 -0.00847018 0)
(0.00104356 -0.00904754 0)
(0.000918324 -0.009022 0)
(0.000830054 -0.00899201 0)
(0.000759479 -0.00897337 0)
(0.000684306 -0.00897993 0)
(0.000600319 -0.0090361 0)
(0.000486373 -0.00912034 0)
(0.000353772 -0.00919982 0)
(0.000236831 -0.00929471 0)
(0.000149018 -0.00939683 0)
(8.23593e-05 -0.00950838 0)
(2.32563e-05 -0.00964319 0)
(-3.83416e-05 -0.00976721 0)
(-9.75341e-05 -0.00987378 0)
(-0.000134844 -0.00998806 0)
(-0.000137724 -0.0100739 0)
(-0.000150952 -0.0100727 0)
(-0.000284554 -0.0101079 0)
(-0.000657721 -0.010417 0)
(-0.00135839 -0.0111306 0)
(-0.00244827 -0.0119069 0)
(-0.00395091 -0.0123581 0)
(-0.00577231 -0.0134649 0)
(-0.00769325 -0.0177952 0)
(-0.00980541 -0.0280123 0)
(-0.0123016 -0.0408591 0)
(-0.0149077 -0.0523604 0)
(-0.0174428 -0.0619921 0)
(-0.0198384 -0.0705498 0)
(-0.0219398 -0.0775969 0)
(-0.0236225 -0.0827551 0)
(-0.0249769 -0.0867211 0)
(-0.0261395 -0.090014 0)
(-0.0270203 -0.0931947 0)
(-0.027546 -0.0962973 0)
(-0.0278832 -0.0990081 0)
(2.65603e-06 -0.000503568 0)
(1.56268e-05 -0.00144335 0)
(3.82318e-05 -0.00232274 0)
(6.70971e-05 -0.00314523 0)
(0.000100487 -0.00391149 0)
(0.000137294 -0.00462101 0)
(0.000174991 -0.00527422 0)
(0.00021243 -0.00587247 0)
(0.000249172 -0.00641608 0)
(0.000282908 -0.00690578 0)
(0.000325817 -0.00734121 0)
(0.000341246 -0.00772529 0)
(0.000240305 -0.00806069 0)
(3.01238e-05 -0.00833929 0)
(-0.000126206 -0.0085172 0)
(-0.000176595 -0.00847519 0)
(-0.000215167 -0.00836846 0)
(-0.000251282 -0.00834054 0)
(-0.000283271 -0.00841918 0)
(-0.000305778 -0.00849413 0)
(-0.000323007 -0.00852826 0)
(-0.000341506 -0.00855436 0)
(-0.000363159 -0.00858435 0)
(-0.000389278 -0.00862024 0)
(-0.000420001 -0.0086642 0)
(-0.000456204 -0.00871543 0)
(-0.000499231 -0.0087675 0)
(-0.000547626 -0.0088226 0)
(-0.000599402 -0.00889435 0)
(-0.000653381 -0.00899094 0)
(-0.000706421 -0.00911805 0)
(-0.000755528 -0.00929178 0)
(-0.00080665 -0.00952823 0)
(-0.000872622 -0.00981723 0)
(-0.00096122 -0.0101117 0)
(-0.00106874 -0.0104028 0)
(-0.00118788 -0.0108018 0)
(-0.00134925 -0.0114159 0)
(-0.00169802 -0.0121878 0)
(-0.00249009 -0.0128877 0)
(-0.00390784 -0.0147893 0)
(-0.00589829 -0.0219231 0)
(-0.00812247 -0.0346137 0)
(-0.0105179 -0.046782 0)
(-0.0130069 -0.0557814 0)
(-0.0152306 -0.0637065 0)
(-0.017185 -0.0716464 0)
(-0.018783 -0.0792378 0)
(-0.0199592 -0.0856348 0)
(-0.0208668 -0.091062 0)
(0.0335134 0.167223 0)
(0.0431906 0.24239 0)
(0.0509473 0.300963 0)
(0.0555933 0.342773 0)
(0.0574185 0.370481 0)
(0.0571826 0.387334 0)
(0.0555383 0.396438 0)
(0.0529703 0.400453 0)
(0.0498437 0.401441 0)
(0.0464225 0.400849 0)
(0.0428784 0.399577 0)
(0.03931 0.398103 0)
(0.0357665 0.396632 0)
(0.0322672 0.395213 0)
(0.0288167 0.393831 0)
(0.0254134 0.392456 0)
(0.0220544 0.391063 0)
(0.018737 0.389637 0)
(0.0154594 0.388174 0)
(0.0122204 0.386673 0)
(0.00901893 0.385135 0)
(0.00585428 0.383561 0)
(0.00272575 0.381953 0)
(-0.000367183 0.380311 0)
(-0.00342485 0.378636 0)
(-0.00644761 0.376929 0)
(-0.00943583 0.375192 0)
(-0.0123898 0.373424 0)
(-0.0153097 0.371625 0)
(-0.018196 0.369797 0)
(-0.021049 0.36794 0)
(-0.0238691 0.366054 0)
(-0.0266566 0.364139 0)
(-0.0294118 0.362196 0)
(-0.032135 0.360224 0)
(-0.0348265 0.358224 0)
(-0.0374866 0.356197 0)
(-0.0401153 0.354141 0)
(-0.0427131 0.352058 0)
(-0.0452799 0.349947 0)
(-0.0478161 0.347808 0)
(-0.0503218 0.345642 0)
(-0.0527971 0.343448 0)
(-0.0552422 0.341226 0)
(-0.0576573 0.338976 0)
(-0.0600425 0.336697 0)
(-0.062398 0.334389 0)
(-0.0647236 0.332052 0)
(-0.0670178 0.329687 0)
(-0.0692832 0.327296 0)
(0.00933667 0.0137857 0)
(0.020503 0.0855544 0)
(0.0304112 0.184486 0)
(0.0395744 0.269725 0)
(0.0461644 0.33399 0)
(0.0498182 0.379112 0)
(0.0511017 0.408712 0)
(0.0507049 0.426587 0)
(0.049169 0.436187 0)
(0.0468977 0.440368 0)
(0.0441925 0.441293 0)
(0.0412647 0.440459 0)
(0.0382484 0.438801 0)
(0.0352196 0.436831 0)
(0.0322165 0.434788 0)
(0.0292549 0.432758 0)
(0.0263391 0.430751 0)
(0.0234686 0.428755 0)
(0.0206412 0.426754 0)
(0.0178547 0.424738 0)
(0.0151072 0.422702 0)
(0.0123973 0.420643 0)
(0.00972372 0.418561 0)
(0.00708524 0.416457 0)
(0.0044808 0.414328 0)
(0.00190936 0.412177 0)
(-0.000629962 0.410003 0)