/*--------------------------------*- C++ -*----------------------------------*\
| =========                 |                                                 |
| \\      /  F ield         | OpenFOAM: The Open Source CFD Toolbox           |
|  \\    /   O peration     | Version:  2.4.0                                 |
|   \\  /    A nd           | Web:      www.OpenFOAM.org                      |
|    \\/     M anipulation  |                                                 |
\*---------------------------------------------------------------------------*/
FoamFile
{
    version     2.0;
    format      ascii;
    class       volScalarField;
    location    "0.011";
    object      p;
}
// * * * * * * * * * * * * * * * * * * * * * * * * * * * * * * * * * * * * * //

dimensions      [1 -1 -2 0 0 0 0];

internalField   nonuniform List<scalar> 
125
(
-0.0266566
-0.0268777
-0.0270996
-0.0273224
-0.027546
-0.0277704
-0.0279956
-0.0282217
-0.0284485
-0.0286763
-0.0289048
-0.0291342
-0.0293645
-0.0295956
-0.0298275
-0.0300603
-0.030294
-0.0305285
-0.0307639
-0.0310001
-0.0312373
-0.0314752
-0.0317141
-0.0319539
-0.0321945
-0.032436
-0.0326784
-0.0329217
-0.0331659
-0.033411
-0.033657
-0.0339039
-0.0341517
-0.0344004
-0.0346501
-0.0349006
-0.0351521
-0.0354045
-0.0356578
-0.0359121
-0.0361673
-0.0364234
-0.0366805
-0.0369386
-0.0371975
-0.0374575
-0.0377184
-0.0379802
-0.038243
-0.0385068
-0.0387716
-0.0390373
-0.039304
-0.0395717
-0.0398404
-0.04011
-0.0403807
-0.0406523
-0.040925
-0.0411987
-0.0414733
-0.041749
-0.0420257
-0.0423034
-0.0425821
-0.0428619
-0.0431427
-0.0434245
-0.0437074
-0.0439913
-0.0442762
-0.0445622
-0.0448492
-0.0451373
-0.0454265
-0.0457167
-0.046008
-0.0463004
-0.0465939
-0.0468884
-0.047184
-0.0474807
-0.0477785
-0.0480774
-0.0483774
-0.0486785
-0.0489807
-0.049284
-0.0495884
-0.049894
-0.0502006
-0.0505084
-0.0508174
-0.0511275
-0.0514387
-0.051751
-0.0520646
-0.0523792
-0.052695
-0.053012
-0.0533302
-0.0536495
-0.05397
-0.0542917
-0.0546146
-0.0549386
-0.0552639
-0.0555903
-0.055918
-0.0562468
-0.0565769
-0.0569082
-0.0572407
-0.0575744
-0.0579093
-0.0582455
-0.0585829
-0.0589216
-0.0592615
-0.0596027
-0.0599451
-0.0602888
-0.0606337
-0.0609799
-0.0613274
)
;

boundaryField
{
    BotWall
    {
        type            calculated;
        value           nonuniform 0();
    }
    FreeStream
    {
        type            calculated;
        value           nonuniform 0();
    }
    FrontNBack
    {
        type            empty;
    }
    LeftSide
    {
        type            symmetryPlane;
    }
    RightSide
    {
        type            symmetryPlane;
    }
    procBoundary3to0
    {
        type            processor;
        value           nonuniform List<scalar> 
50
(
-0.0457173
-0.0460086
-0.0463009
-0.0465944
-0.0468889
-0.0471845
-0.0474812
-0.0477789
-0.0480778
-0.0483778
-0.0486789
-0.0489811
-0.0492844
-0.0495888
-0.0498943
-0.050201
-0.0505088
-0.0508177
-0.0511278
-0.051439
-0.0517513
-0.0520648
-0.0523795
-0.0526953
-0.0530123
-0.0533304
-0.0536497
-0.0539702
-0.0542919
-0.0546147
-0.0549388
-0.055264
-0.0555904
-0.0559181
-0.0562469
-0.056577
-0.0569082
-0.0572407
-0.0575744
-0.0579094
-0.0582456
-0.058583
-0.0589216
-0.0592615
-0.0596027
-0.0599451
-0.0602887
-0.0606337
-0.0609799
-0.0613273
)
;
    }
    procBoundary3to1
    {
        type            processor;
        value           nonuniform List<scalar> 
75
(
-0.0266579
-0.026879
-0.027101
-0.0273237
-0.0275473
-0.0277717
-0.0279969
-0.0282229
-0.0284498
-0.0286775
-0.0289061
-0.0291355
-0.0293657
-0.0295968
-0.0298287
-0.0300615
-0.0302951
-0.0305297
-0.030765
-0.0310013
-0.0312384
-0.0314764
-0.0317152
-0.0319549
-0.0321956
-0.0324371
-0.0326795
-0.0329227
-0.0331669
-0.033412
-0.033658
-0.0339049
-0.0341527
-0.0344014
-0.034651
-0.0349016
-0.035153
-0.0354054
-0.0356587
-0.035913
-0.0361682
-0.0364243
-0.0366814
-0.0369394
-0.0371984
-0.0374583
-0.0377192
-0.037981
-0.0382438
-0.0385076
-0.0387724
-0.0390381
-0.0393048
-0.0395725
-0.0398411
-0.0401108
-0.0403814
-0.0406531
-0.0409257
-0.0411994
-0.041474
-0.0417497
-0.0420264
-0.0423041
-0.0425828
-0.0428625
-0.0431433
-0.0434251
-0.043708
-0.0439919
-0.0442768
-0.0445628
-0.0448498
-0.0451379
-0.0454271
)
;
    }
    procBoundary3to2
    {
        type            processor;
        value           uniform -0.0616762;
    }
    procBoundary3to4
    {
        type            processor;
        value           uniform -0.0264363;
    }
    procBoundary3to5
    {
        type            processor;
        value           nonuniform List<scalar> 
75
(
-0.0387722
-0.0390379
-0.0393046
-0.0395723
-0.039841
-0.0401106
-0.0403813
-0.0406529
-0.0409256
-0.0411992
-0.0414739
-0.0417496
-0.0420263
-0.042304
-0.0425827
-0.0428625
-0.0431432
-0.0434251
-0.0437079
-0.0439918
-0.0442768
-0.0445627
-0.0448498
-0.0451379
-0.0454271
-0.0457173
-0.0460086
-0.0463009
-0.0465944
-0.0468889
-0.0471845
-0.0474812
-0.047779
-0.0480779
-0.0483779
-0.048679
-0.0489812
-0.0492845
-0.0495889
-0.0498945
-0.0502011
-0.0505089
-0.0508179
-0.0511279
-0.0514392
-0.0517515
-0.052065
-0.0523797
-0.0526955
-0.0530125
-0.0533307
-0.05365
-0.0539705
-0.0542922
-0.054615
-0.0549391
-0.0552643
-0.0555908
-0.0559184
-0.0562473
-0.0565773
-0.0569086
-0.0572411
-0.0575748
-0.0579098
-0.058246
-0.0585834
-0.0589221
-0.059262
-0.0596031
-0.0599456
-0.0602892
-0.0606342
-0.0609804
-0.0613279
)
;
    }
    procBoundary3to6
    {
        type            processor;
        value           nonuniform List<scalar> 
50
(
-0.0266574
-0.0268785
-0.0271004
-0.0273232
-0.0275468
-0.0277712
-0.0279964
-0.0282224
-0.0284493
-0.028677
-0.0289056
-0.029135
-0.0293652
-0.0295963
-0.0298283
-0.0300611
-0.0302947
-0.0305292
-0.0307646
-0.0310009
-0.031238
-0.031476
-0.0317148
-0.0319546
-0.0321952
-0.0324367
-0.0326791
-0.0329224
-0.0331666
-0.0334117
-0.0336577
-0.0339046
-0.0341524
-0.0344011
-0.0346507
-0.0349013
-0.0351528
-0.0354052
-0.0356585
-0.0359128
-0.036168
-0.0364241
-0.0366812
-0.0369392
-0.0371982
-0.0374581
-0.037719
-0.0379809
-0.0382437
-0.0385075
)
;
    }
}


// ************************************************************************* //
