/*--------------------------------*- C++ -*----------------------------------*\
| =========                 |                                                 |
| \\      /  F ield         | OpenFOAM: The Open Source CFD Toolbox           |
|  \\    /   O peration     | Version:  2.4.0                                 |
|   \\  /    A nd           | Web:      www.OpenFOAM.org                      |
|    \\/     M anipulation  |                                                 |
\*---------------------------------------------------------------------------*/
FoamFile
{
    version     2.0;
    format      ascii;
    class       volScalarField;
    location    "0.011";
    object      p_rgh;
}
// * * * * * * * * * * * * * * * * * * * * * * * * * * * * * * * * * * * * * //

dimensions      [1 -1 -2 0 0 0 0];

internalField   nonuniform List<scalar> 
125
(
-0.00678492
-0.00676914
-0.00675329
-0.00673739
-0.00672143
-0.00670542
-0.00668934
-0.00667321
-0.00665701
-0.00664076
-0.00662444
-0.00660807
-0.00659164
-0.00657514
-0.00655859
-0.00654197
-0.0065253
-0.00650856
-0.00649176
-0.0064749
-0.00645798
-0.00644099
-0.00642395
-0.00640684
-0.00638966
-0.00637243
-0.00635513
-0.00633777
-0.00632034
-0.00630285
-0.0062853
-0.00626768
-0.00624999
-0.00623225
-0.00621443
-0.00619655
-0.00617861
-0.0061606
-0.00614252
-0.00612438
-0.00610617
-0.00608789
-0.00606955
-0.00605113
-0.00603265
-0.00601411
-0.00599549
-0.00597681
-0.00595806
-0.00593924
-0.00592034
-0.00590139
-0.00588236
-0.00586326
-0.00584409
-0.00582485
-0.00580554
-0.00578615
-0.0057667
-0.00574718
-0.00572758
-0.00570791
-0.00568817
-0.00566836
-0.00564848
-0.00562852
-0.00560849
-0.00558838
-0.0055682
-0.00554795
-0.00552762
-0.00550722
-0.00548674
-0.00546619
-0.00544556
-0.00542485
-0.00540407
-0.00538322
-0.00536228
-0.00534127
-0.00532018
-0.00529902
-0.00527778
-0.00525646
-0.00523506
-0.00521358
-0.00519202
-0.00517039
-0.00514867
-0.00512688
-0.005105
-0.00508304
-0.00506101
-0.00503889
-0.00501669
-0.00499441
-0.00497205
-0.00494961
-0.00492708
-0.00490447
-0.00488178
-0.004859
-0.00483614
-0.0048132
-0.00479017
-0.00476706
-0.00474386
-0.00472058
-0.00469721
-0.00467375
-0.00465021
-0.00462658
-0.00460287
-0.00457907
-0.00455518
-0.0045312
-0.00450714
-0.00448299
-0.00445875
-0.00443441
-0.00440999
-0.00438548
-0.00436088
-0.00433619
-0.00431141
)
;

boundaryField
{
    BotWall
    {
        type            fixedFluxPressure;
        gradient        nonuniform 0();
        value           nonuniform 0();
    }
    FreeStream
    {
        type            totalPressure;
        rho             rho;
        psi             none;
        gamma           1;
        p0              nonuniform 0();
        value           nonuniform 0();
    }
    FrontNBack
    {
        type            empty;
    }
    LeftSide
    {
        type            symmetryPlane;
    }
    RightSide
    {
        type            symmetryPlane;
    }
    procBoundary3to0
    {
        type            processor;
        value           nonuniform List<scalar> 
50
(
-0.00542539
-0.0054046
-0.00538372
-0.00536278
-0.00534175
-0.00532065
-0.00529948
-0.00527822
-0.00525689
-0.00523548
-0.00521398
-0.00519242
-0.00517077
-0.00514904
-0.00512723
-0.00510534
-0.00508337
-0.00506133
-0.0050392
-0.00501698
-0.00499469
-0.00497232
-0.00494986
-0.00492732
-0.0049047
-0.00488199
-0.0048592
-0.00483633
-0.00481338
-0.00479034
-0.00476721
-0.004744
-0.0047207
-0.00469732
-0.00467386
-0.0046503
-0.00462666
-0.00460294
-0.00457912
-0.00455522
-0.00453123
-0.00450715
-0.00448299
-0.00445873
-0.00443439
-0.00440996
-0.00438543
-0.00436082
-0.00433612
-0.00431132
)
;
    }
    procBoundary3to1
    {
        type            processor;
        value           nonuniform List<scalar> 
75
(
-0.00678627
-0.00677047
-0.00675462
-0.00673871
-0.00672273
-0.00670671
-0.00669062
-0.00667447
-0.00665826
-0.006642
-0.00662567
-0.00660929
-0.00659284
-0.00657634
-0.00655977
-0.00654315
-0.00652646
-0.00650971
-0.0064929
-0.00647603
-0.00645909
-0.0064421
-0.00642504
-0.00640792
-0.00639073
-0.00637349
-0.00635618
-0.00633881
-0.00632137
-0.00630387
-0.0062863
-0.00626867
-0.00625098
-0.00623322
-0.00621539
-0.0061975
-0.00617955
-0.00616153
-0.00614344
-0.00612529
-0.00610707
-0.00608878
-0.00607042
-0.006052
-0.00603351
-0.00601495
-0.00599633
-0.00597764
-0.00595887
-0.00594004
-0.00592114
-0.00590217
-0.00588313
-0.00586402
-0.00584484
-0.00582559
-0.00580627
-0.00578688
-0.00576742
-0.00574789
-0.00572828
-0.0057086
-0.00568885
-0.00566903
-0.00564913
-0.00562917
-0.00560912
-0.00558901
-0.00556882
-0.00554856
-0.00552822
-0.00550781
-0.00548732
-0.00546675
-0.00544611
)
;
    }
    procBoundary3to2
    {
        type            processor;
        value           uniform -0.00428654;
    }
    procBoundary3to4
    {
        type            processor;
        value           uniform -0.00680065;
    }
    procBoundary3to5
    {
        type            processor;
        value           nonuniform List<scalar> 
75
(
-0.00592099
-0.00590203
-0.00588299
-0.00586388
-0.00584471
-0.00582546
-0.00580615
-0.00578676
-0.0057673
-0.00574778
-0.00572818
-0.0057085
-0.00568876
-0.00566894
-0.00564905
-0.00562909
-0.00560905
-0.00558894
-0.00556876
-0.0055485
-0.00552817
-0.00550776
-0.00548728
-0.00546673
-0.00544609
-0.00542539
-0.0054046
-0.00538374
-0.00536281
-0.00534179
-0.0053207
-0.00529954
-0.00527829
-0.00525697
-0.00523556
-0.00521408
-0.00519252
-0.00517089
-0.00514917
-0.00512737
-0.00510549
-0.00508353
-0.0050615
-0.00503938
-0.00501718
-0.00499489
-0.00497253
-0.00495008
-0.00492755
-0.00490494
-0.00488225
-0.00485947
-0.00483661
-0.00481366
-0.00479063
-0.00476752
-0.00474432
-0.00472104
-0.00469767
-0.00467421
-0.00465067
-0.00462704
-0.00460333
-0.00457952
-0.00455563
-0.00453166
-0.00450759
-0.00448344
-0.0044592
-0.00443486
-0.00441044
-0.00438593
-0.00436133
-0.00433664
-0.00431186
)
;
    }
    procBoundary3to6
    {
        type            processor;
        value           nonuniform List<scalar> 
50
(
-0.00678572
-0.00676993
-0.00675408
-0.00673818
-0.00672222
-0.00670619
-0.00669011
-0.00667397
-0.00665778
-0.00664152
-0.0066252
-0.00660882
-0.00659239
-0.00657589
-0.00655933
-0.00654271
-0.00652603
-0.00650929
-0.00649249
-0.00647562
-0.0064587
-0.00644171
-0.00642466
-0.00640755
-0.00639037
-0.00637313
-0.00635583
-0.00633847
-0.00632104
-0.00630355
-0.00628599
-0.00626837
-0.00625068
-0.00623293
-0.00621512
-0.00619724
-0.00617929
-0.00616128
-0.0061432
-0.00612505
-0.00610684
-0.00608856
-0.00607022
-0.0060518
-0.00603332
-0.00601478
-0.00599616
-0.00597747
-0.00595872
-0.00593989
)
;
    }
}


// ************************************************************************* //
