/*--------------------------------*- C++ -*----------------------------------*\
| =========                 |                                                 |
| \\      /  F ield         | OpenFOAM: The Open Source CFD Toolbox           |
|  \\    /   O peration     | Version:  2.4.0                                 |
|   \\  /    A nd           | Web:      www.OpenFOAM.org                      |
|    \\/     M anipulation  |                                                 |
\*---------------------------------------------------------------------------*/
FoamFile
{
    version     2.0;
    format      ascii;
    class       volScalarField;
    location    "3.6";
    object      alpha1;
}
// * * * * * * * * * * * * * * * * * * * * * * * * * * * * * * * * * * * * * //

dimensions      [0 0 0 0 0 0 0];

internalField   nonuniform List<scalar> 
8000
(
1
1
1
1
1
1
1
1
1
1
1
1
1
1
0.999999
0.999999
0.999999
0.999998
0.999999
0.998162
0.333722
0.00498874
5.12487e-05
4.02607e-06
2.58954e-06
2.00146e-06
1.62858e-06
1.35418e-06
1.15914e-06
1.01909e-06
9.17147e-07
8.34703e-07
7.6124e-07
6.50678e-07
4.42646e-07
3.69025e-07
3.05302e-07
2.58101e-07
2.35439e-07
2.29243e-07
2.31064e-07
2.36043e-07
2.41714e-07
2.46094e-07
2.47582e-07
2.45439e-07
2.40494e-07
2.35116e-07
2.31847e-07
2.31437e-07
1
1
1
1
1
1
1
1
1
1
1
1
1
0.999999
0.999999
0.999999
0.999998
0.999998
0.979654
0.207497
0.00132405
1.1452e-05
3.65056e-06
2.9201e-06
2.42904e-06
2.01514e-06
1.6577e-06
1.36962e-06
1.16669e-06
1.01331e-06
9.0204e-07
8.10069e-07
7.91548e-07
8.44504e-07
4.80608e-07
4.10817e-07
3.4728e-07
2.79e-07
2.42449e-07
2.27025e-07
2.23023e-07
2.23822e-07
2.26873e-07
2.30282e-07
2.32212e-07
2.30962e-07
2.2592e-07
2.18541e-07
2.12062e-07
2.09102e-07
1
1
1
1
1
1
1
1
1
1
1
1
1
0.999999
0.999999
0.999999
0.999999
0.99825
0.32929
0.00295715
2.10122e-05
5.16656e-06
3.93164e-06
3.11982e-06
2.5203e-06
2.0435e-06
1.60904e-06
1.2855e-06
1.10998e-06
1.01564e-06
9.13972e-07
7.69282e-07
6.82406e-07
9.63499e-07
5.09861e-07
3.97669e-07
3.72738e-07
2.88738e-07
2.55996e-07
2.36103e-07
2.27335e-07
2.23269e-07
2.21278e-07
2.199e-07
2.18146e-07
2.15241e-07
2.10847e-07
2.05032e-07
1.98256e-07
1.9115e-07
1
1
1
1
1
1
1
1
1
1
1
1
0.999999
0.999999
0.999999
0.999996
0.961012
0.166653
0.000544605
2.26028e-05
2.26768e-05
1.10976e-05
5.28451e-06
3.42393e-06
2.52754e-06
1.7978e-06
9.11597e-07
7.93181e-07
7.26907e-07
9.4008e-07
9.4654e-07
8.00831e-07
7.19109e-07
5.59355e-07
7.55591e-07
3.69422e-07
4.37938e-07
2.88426e-07
2.8441e-07
2.61877e-07
2.44765e-07
2.34214e-07
2.26574e-07
2.19677e-07
2.12966e-07
2.0594e-07
1.98729e-07
1.91596e-07
1.84957e-07
1.79132e-07
1
1
1
1
1
1
1
1
1
1
1
1
0.999999
0.999999
0.999999
0.999696
0.622116
0.01366
0.000443309
0.000629329
0.000133709
5.22683e-06
1.23566e-06
1.23122e-06
9.41975e-07
9.28873e-07
9.07931e-07
8.21799e-07
7.07632e-07
6.09163e-07
5.59257e-07
5.20628e-07
4.75523e-07
4.2178e-07
3.74859e-07
3.55928e-07
3.34929e-07
3.16118e-07
2.97634e-07
2.84255e-07
2.70647e-07
2.56e-07
2.43668e-07
2.30914e-07
2.19157e-07
2.07799e-07
1.97507e-07
1.8839e-07
1.80482e-07
1.73774e-07
1
1
1
1
1
1
1
1
1
1
1
1
1
0.999999
0.999999
0.999988
0.999769
0.297987
0.0122882
0.0306177
0.000485429
0.000245087
2.04979e-06
1.18105e-06
5.81609e-07
5.6456e-07
5.50431e-07
5.45378e-07
5.42749e-07
5.4047e-07
5.38517e-07
5.36885e-07
5.30371e-07
5.21886e-07
5.16995e-07
5.21432e-07
5.35408e-07
5.00858e-07
4.17837e-07
4.18997e-07
4.03502e-07
3.45497e-07
3.39113e-07
3.10102e-07
2.8836e-07
2.63613e-07
2.40928e-07
2.20624e-07
2.02679e-07
1.87407e-07
1
1
1
1
1
1
1
1
1
1
1
1
1
1
1
0.999999
1
0.999485
0.999076
0.777637
0.0813531
0.0392241
0.00481563
0.00186904
0.000137641
0.000137394
6.37364e-07
7.2454e-07
8.16008e-07
8.84711e-07
9.20554e-07
9.15776e-07
8.7223e-07
7.89689e-07
6.8945e-07
6.18967e-07
1.66205e-06
2.34051e-06
5.19514e-07
8.23726e-07
1.60771e-06
4.50217e-07
7.78166e-07
6.32052e-07
6.30005e-07
5.60747e-07
4.93093e-07
4.30642e-07
3.69249e-07
3.13343e-07
1
1
1
1
1
1
1
1
1
1
1
1
1
1
1
1
1
1
1
0.999966
0.999472
0.998565
0.967477
0.432156
0.0465332
0.0304165
0.00899073
0.00113719
7.19633e-05
0.000199612
0.000129306
1.8615e-05
1.71737e-06
1.56611e-06
1.83726e-06
1.48684e-06
1.65703e-06
2.33774e-06
3.03956e-06
1.56529e-06
1.67623e-06
1.60295e-06
2.70049e-06
9.06684e-07
1.44244e-06
1.32405e-06
1.18153e-06
1.07944e-06
9.34012e-07
7.82778e-07
1
1
1
1
1
1
1
1
1
1
1
1
1
1
1
1
1
1
0.999999
0.999997
0.999998
0.999999
0.999999
0.999925
0.999497
0.999607
0.938371
0.616526
0.140706
0.023844
0.0251071
0.0097222
0.00150324
0.000468371
0.000465495
0.000230631
4.01298e-05
3.71158e-06
3.51969e-06
3.03113e-06
2.99936e-06
2.92645e-06
2.38562e-06
2.27594e-06
2.40701e-06
2.36777e-06
2.09471e-06
2.2312e-06
2.06921e-06
1.84369e-06
1
1
1
1
1
1
1
1
1
1
1
1
1
1
1
1
0.999999
0.999999
0.999999
0.999999
0.999999
0.999999
0.999998
0.999998
0.999998
0.999998
0.999998
0.999984
0.99978
0.995036
0.972891
0.728353
0.26846
0.0543884
0.0387807
0.0170459
0.00366408
0.000917593
0.00053002
0.000177072
2.1592e-05
5.13927e-06
3.56871e-06
2.39763e-06
2.44319e-06
2.69521e-06
4.23819e-06
3.17295e-06
3.26737e-06
3.06857e-06
1
1
1
1
1
1
1
1
1
1
1
1
1
1
1
0.999999
0.999998
0.999998
0.999998
0.999997
0.999997
0.999999
0.999998
0.999998
0.999998
0.999997
0.999997
0.999996
0.999997
0.999997
0.999999
0.999991
0.999852
0.978142
0.966675
0.77413
0.288078
0.0625979
0.0372146
0.0115843
0.00267823
0.00103126
0.000354212
9.53767e-05
2.06399e-05
3.60553e-06
3.60983e-06
3.67462e-06
4.02636e-06
3.11283e-06
1
1
1
1
1
1
1
1
1
1
1
1
1
1
0.999999
0.999998
0.999997
0.999996
0.999996
0.999996
0.999997
0.999997
0.999998
0.999998
0.999998
0.999998
0.999998
0.999998
0.999998
0.999998
0.999999
0.999999
1
1
1
0.99999
0.999972
0.972658
0.904084
0.425276
0.107342
0.0537448
0.0176606
0.00581338
0.00190269
0.000455416
7.67705e-05
1.05837e-05
4.58005e-06
4.28708e-06
1
1
1
1
1
1
1
1
1
1
1
1
1
1
0.999998
0.999996
0.999995
0.999995
0.999995
0.999996
0.999997
0.999998
0.999999
0.999999
0.999999
0.999999
0.999999
0.999999
0.999998
0.999998
0.999998
0.999999
0.999999
1
1
1
1
1
1
1.00001
0.983537
0.841071
0.430485
0.177186
0.0767356
0.0254383
0.00633042
0.00127586
0.000240226
5.23572e-05
1
1
1
1
1
1
1
1
1
1
1
1
1
1
0.999999
0.999997
0.999995
0.999994
0.999994
0.999996
0.999997
0.999999
1
1
1
1
0.999999
0.999998
0.999998
0.999998
0.999998
0.999998
0.999999
0.999999
0.999999
0.999999
0.999999
1
1
1
1
1.00001
0.992277
0.925854
0.70802
0.374671
0.147131
0.0408593
0.00881849
0.00155359
1
1
1
1
1
1
1
1
1
1
1
1
1
1
1
0.999998
0.999995
0.999994
0.999994
0.999995
0.999996
0.999997
0.999999
0.999999
0.999999
0.999999
0.999999
0.999999
0.999998
0.999998
0.999998
0.999998
0.999998
0.999998
0.999999
0.999998
0.999997
0.999998
0.999999
0.999998
0.999999
0.999999
1
1
0.996161
0.944306
0.744169
0.337084
0.0766924
0.00975025
1
1
1
1
1
1
1
1
1.00001
1
1
1
1
1
1
1
0.999996
0.999995
0.999995
0.999995
0.999996
0.999997
0.999998
0.999998
0.999998
0.999999
0.999998
0.999998
0.999999
0.999998
0.999998
0.999998
0.999998
0.999998
0.999998
0.999999
0.999993
0.999994
0.999996
0.999996
0.999996
0.999997
0.999996
0.99998
0.99998
0.993238
0.938009
0.698592
0.197391
0.0201777
1
1
1
1
1
0.999999
1
1.00001
1.00001
1.00001
1.00001
1.00001
1
1
1
1
0.999997
0.999996
0.999995
0.999996
0.999996
0.999996
0.999997
0.999998
0.999998
0.999998
0.999998
0.999998
0.999998
0.999998
0.999998
0.999997
0.999998
0.999999
0.999998
0.999998
0.999985
0.999988
0.999995
0.999994
0.999995
0.999997
0.999976
0.990966
0.915044
0.737158
0.392101
0.110872
0.0183962
0.00055983
1
1
1
1
0.999999
0.999999
1
1.00001
1.00001
1.00001
1
1
1.00001
1
1
0.999998
0.999997
0.999996
0.999996
0.999996
0.999996
0.999997
0.999997
0.999997
0.999997
0.999997
0.999997
0.999997
0.999997
0.999998
0.999997
0.999997
0.999997
0.999999
0.999998
1
0.999986
0.999985
0.999995
0.999989
0.999906
0.96318
0.871614
0.649785
0.351298
0.121617
0.0208171
0.000607263
0.000411618
5.57895e-05
1
1
1
1
0.999999
0.999999
1.00001
1
1.00001
1
1.00001
1.00001
1
1
0.999999
0.999998
0.999997
0.999997
0.999996
0.999996
0.999996
0.999998
0.999995
0.999996
0.999996
0.999996
0.999996
0.999997
0.999997
0.999997
0.999997
0.999997
0.999997
0.999998
0.999999
0.999999
0.999995
0.999923
0.998531
0.914615
0.712408
0.452789
0.280137
0.0564005
0.0119506
0.000484034
0.000324914
1.09017e-05
3.71036e-06
5.39348e-06
1
1
1
1
0.999998
0.999999
1.00001
1
1.00001
1
1
1
1
1
0.999998
0.999997
0.999996
0.999997
0.999995
0.999996
0.999996
0.999995
0.999995
0.999995
0.999996
0.999996
0.999996
0.999996
0.999996
0.999996
0.999996
0.999997
0.999997
0.999813
0.998221
0.999719
0.943095
0.751419
0.558015
0.274808
0.0603397
0.0145267
0.00364715
0.000198991
9.18518e-05
2.88461e-06
3.03e-06
2.71336e-06
2.80408e-06
2.53779e-06
2.32315e-07
1.89683e-07
1.82958e-07
1.75629e-07
1.68752e-07
1.62422e-07
1.25703e-07
1.22797e-07
1.17486e-07
9.07195e-08
8.87788e-08
8.0639e-08
7.30914e-08
6.63376e-08
5.99818e-08
5.41776e-08
4.90325e-08
4.41568e-08
3.96431e-08
3.552e-08
3.1811e-08
2.85491e-08
2.55004e-08
2.2723e-08
2.0186e-08
1.78817e-08
1.5794e-08
1.39079e-08
1.22095e-08
1.06869e-08
9.32738e-09
8.11836e-09
7.04724e-09
6.10165e-09
5.26964e-09
4.53985e-09
3.90162e-09
3.34511e-09
2.86132e-09
2.4421e-09
2.08006e-09
1.76855e-09
1.50159e-09
1.27376e-09
1.08021e-09
9.16622e-10
7.79119e-10
6.64283e-10
5.69102e-10
4.90927e-10
4.11812e-07
1.92041e-07
1.91799e-07
1.85965e-07
1.7981e-07
3.44019e-07
1.2963e-07
1.39925e-07
2.68815e-07
9.49386e-08
1.27329e-07
1.17804e-07
1.07437e-07
9.9875e-08
9.16247e-08
8.30439e-08
7.73489e-08
7.12065e-08
6.50825e-08
5.9025e-08
5.29786e-08
4.88725e-08
4.44701e-08
4.04668e-08
3.66731e-08
3.31542e-08
2.98971e-08
2.68844e-08
2.40936e-08
2.15244e-08
1.91691e-08
1.70199e-08
1.50675e-08
1.33012e-08
1.17091e-08
1.02791e-08
8.99852e-09
7.85498e-09
6.83662e-09
5.93224e-09
5.13146e-09
4.42464e-09
3.80285e-09
3.25774e-09
2.78152e-09
2.36697e-09
2.00737e-09
1.69654e-09
1.42881e-09
1.19905e-09
1.84188e-07
3.66249e-07
1.89562e-07
1.88207e-07
1.88248e-07
1.85359e-07
3.61491e-07
1.43756e-07
1.69735e-07
1.73359e-07
1.67915e-07
1.65199e-07
1.42022e-07
1.40024e-07
1.35541e-07
1.11865e-07
1.10178e-07
1.05321e-07
1.00162e-07
9.53833e-08
7.76999e-08
7.64694e-08
7.01821e-08
6.54807e-08
6.04338e-08
5.56552e-08
5.11784e-08
4.70406e-08
4.30612e-08
3.92959e-08
3.57418e-08
3.24067e-08
2.92925e-08
2.63996e-08
2.37246e-08
2.12612e-08
1.90008e-08
1.69331e-08
1.50466e-08
1.33301e-08
1.17727e-08
1.0364e-08
9.09426e-09
7.95391e-09
6.93356e-09
6.02402e-09
5.21629e-09
4.50159e-09
3.8715e-09
3.3181e-09
1.74146e-07
1.69808e-07
3.03753e-07
1.64285e-07
1.79531e-07
1.77995e-07
1.76734e-07
3.53482e-07
1.70813e-07
1.89303e-07
1.70676e-07
3.3375e-07
1.4433e-07
1.57607e-07
3.06119e-07
1.15432e-07
1.34437e-07
1.32652e-07
1.2614e-07
2.34676e-07
8.20876e-08
1.1702e-07
1.00535e-07
9.92824e-08
9.3182e-08
8.6976e-08
8.06654e-08
7.60114e-08
7.10322e-08
6.6243e-08
6.15553e-08
5.70206e-08
5.26493e-08
4.84657e-08
4.44847e-08
4.0717e-08
3.71676e-08
3.38364e-08
3.07184e-08
2.78055e-08
2.509e-08
2.25663e-08
2.02304e-08
1.80761e-08
1.60975e-08
1.42877e-08
1.26391e-08
1.11434e-08
9.79098e-09
8.57182e-09
1.68193e-07
1.63644e-07
1.60078e-07
1.63265e-07
1.61225e-07
1.59711e-07
1.58659e-07
1.58033e-07
1.75561e-07
3.46759e-07
1.54598e-07
1.713e-07
3.16877e-07
1.58523e-07
1.70815e-07
3.34171e-07
1.36675e-07
1.68449e-07
1.55859e-07
1.55089e-07
1.51072e-07
2.91172e-07
1.03926e-07
1.40341e-07
1.36288e-07
1.32093e-07
1.13494e-07
1.12238e-07
1.06499e-07
1.0166e-07
9.65004e-08
9.14088e-08
8.62675e-08
8.11645e-08
7.61271e-08
7.11981e-08
6.64137e-08
6.18049e-08
5.73843e-08
5.31346e-08
4.90403e-08
4.51022e-08
4.13436e-08
3.77702e-08
3.43877e-08
3.12014e-08
2.82151e-08
2.54353e-08
2.28606e-08
2.04852e-08
1.74867e-07
1.64954e-07
1.57374e-07
1.51739e-07
1.4759e-07
1.44595e-07
1.42539e-07
1.41247e-07
1.4052e-07
1.40141e-07
1.53563e-07
3.01711e-07
1.23256e-07
1.67965e-07
1.71304e-07
1.61872e-07
1.78434e-07
3.54176e-07
1.48406e-07
1.74451e-07
1.52629e-07
1.5417e-07
1.64881e-07
1.63287e-07
1.61202e-07
3.13293e-07
1.16493e-07
1.53073e-07
1.40407e-07
1.38921e-07
1.33921e-07
1.30098e-07
1.25544e-07
1.20837e-07
1.15842e-07
1.1064e-07
1.05352e-07
1.00144e-07
9.52045e-08
9.03776e-08
8.55055e-08
8.05289e-08
7.55694e-08
7.06711e-08
6.58568e-08
6.1153e-08
5.65308e-08
5.20717e-08
4.78126e-08
4.37824e-08
2.64804e-07
2.25131e-07
1.94504e-07
1.72744e-07
1.57492e-07
1.46476e-07
1.38273e-07
1.32077e-07
1.27446e-07
1.24056e-07
1.21636e-07
1.19976e-07
1.20351e-07
1.18939e-07
2.30063e-07
1.08732e-07
1.28439e-07
1.29152e-07
1.46908e-07
1.49876e-07
2.99337e-07
1.19469e-07
1.64409e-07
1.67968e-07
1.5758e-07
1.64162e-07
1.77472e-07
3.51672e-07
1.4219e-07
1.71199e-07
1.56582e-07
1.59989e-07
1.57539e-07
1.55811e-07
1.53055e-07
1.49041e-07
1.44153e-07
1.38763e-07
1.35041e-07
1.31621e-07
1.27683e-07
1.24589e-07
1.19943e-07
1.1502e-07
1.09876e-07
1.05128e-07
9.96731e-08
9.40043e-08
8.81943e-08
8.21582e-08
6.34078e-07
4.99054e-07
3.80711e-07
2.96381e-07
2.41336e-07
2.04667e-07
1.78862e-07
1.59512e-07
1.44736e-07
1.33471e-07
1.24936e-07
1.18605e-07
1.14016e-07
1.10695e-07
1.08097e-07
1.07167e-07
1.05588e-07
1.044e-07
1.0357e-07
1.03087e-07
1.02843e-07
1.16368e-07
1.17885e-07
2.29345e-07
9.11608e-08
1.33707e-07
1.37996e-07
1.31735e-07
1.56755e-07
3.12165e-07
1.14793e-07
1.66833e-07
1.55223e-07
1.69691e-07
1.50144e-07
2.25036e-07
1.4726e-07
1.53533e-07
1.53137e-07
1.37459e-07
1.91412e-07
1.51741e-07
1.57649e-07
1.55747e-07
1.47822e-07
1.50389e-07
1.4792e-07
1.44806e-07
1.4258e-07
1.28865e-07
1.58327e-06
1.30319e-06
9.50914e-07
6.68122e-07
4.88248e-07
3.77433e-07
3.06525e-07
2.54922e-07
2.15389e-07
1.84892e-07
1.60981e-07
1.42512e-07
1.28477e-07
1.17896e-07
1.09905e-07
1.03806e-07
9.90861e-08
9.53781e-08
9.24396e-08
9.01041e-08
8.82643e-08
8.6844e-08
8.57894e-08
8.50775e-08
8.73567e-08
8.71622e-08
1.64445e-07
8.00698e-08
9.67779e-08
9.71572e-08
1.11028e-07
2.16645e-07
8.18855e-08
1.22552e-07
1.26566e-07
1.29302e-07
2.56177e-07
9.25296e-08
1.46418e-07
1.52217e-07
1.45108e-07
1.54618e-07
1.58944e-07
2.1147e-07
1.13782e-07
1.59177e-07
1.62413e-07
1.52007e-07
3.03892e-07
1.3141e-07
3.119e-06
2.89239e-06
2.25004e-06
1.52199e-06
1.03067e-06
7.3936e-07
5.75415e-07
4.6326e-07
3.77429e-07
3.11868e-07
2.58567e-07
2.15756e-07
1.82361e-07
1.5696e-07
1.3798e-07
1.23856e-07
1.13351e-07
1.0541e-07
9.93114e-08
9.44959e-08
9.06278e-08
8.74911e-08
8.49437e-08
8.28929e-08
8.12638e-08
7.99524e-08
7.87865e-08
7.82497e-08
7.71785e-08
7.5944e-08
7.47515e-08
7.38868e-08
7.77096e-08
7.72591e-08
7.70737e-08
7.7028e-08
7.7165e-08
8.77796e-08
8.94124e-08
1.71742e-07
6.83653e-08
1.01327e-07
1.98729e-07
7.24329e-08
1.10423e-07
1.14174e-07
2.23202e-07
7.90795e-08
1.27259e-07
2.39616e-07
7.47815e-06
5.01328e-06
4.71492e-06
3.32766e-06
2.15963e-06
1.43705e-06
1.07455e-06
8.54037e-07
6.87582e-07
5.68605e-07
4.68803e-07
3.83717e-07
3.13443e-07
2.57312e-07
2.14039e-07
1.81096e-07
1.56677e-07
1.38432e-07
1.24959e-07
1.14658e-07
1.06596e-07
1.00173e-07
9.49504e-08
9.06006e-08
8.68896e-08
8.36578e-08
8.07971e-08
7.82328e-08
7.591e-08
7.37782e-08
7.17853e-08
6.98867e-08
6.80696e-08
6.6368e-08
6.48473e-08
6.35695e-08
6.25789e-08
6.19059e-08
6.1553e-08
6.14523e-08
6.40377e-08
6.3476e-08
6.22262e-08
6.80366e-08
6.62554e-08
6.53181e-08
6.50946e-08
7.35903e-08
1.4082e-07
5.73661e-08
6.78428e-06
9.0269e-06
7.19186e-06
4.44342e-06
2.85174e-06
1.97329e-06
1.58199e-06
1.31108e-06
1.08864e-06
9.26604e-07
7.87706e-07
6.62183e-07
5.50145e-07
4.52249e-07
3.71391e-07
3.04849e-07
2.53519e-07
2.13287e-07
1.83896e-07
1.61709e-07
1.44566e-07
1.31251e-07
1.20855e-07
1.12604e-07
1.05873e-07
1.00216e-07
9.53238e-08
9.09823e-08
8.70505e-08
8.34377e-08
8.00858e-08
7.69587e-08
7.4035e-08
7.13027e-08
6.87554e-08
6.63895e-08
6.42029e-08
6.21945e-08
6.03651e-08
5.87176e-08
5.72579e-08
5.59907e-08
5.49096e-08
5.39897e-08
5.3197e-08
5.25212e-08
5.19978e-08
5.16821e-08
5.1596e-08
5.36354e-08
2.11579e-05
1.39168e-05
1.13563e-05
7.00598e-06
4.66322e-06
3.2177e-06
2.61754e-06
2.21999e-06
1.8608e-06
1.61075e-06
1.4154e-06
1.23968e-06
1.07341e-06
9.05499e-07
7.56505e-07
6.15501e-07
5.02588e-07
4.03119e-07
3.31029e-07
2.77792e-07
2.36601e-07
2.04589e-07
1.80138e-07
1.6163e-07
1.47437e-07
1.36267e-07
1.27193e-07
1.19556e-07
1.12912e-07
1.06986e-07
1.01607e-07
9.66648e-08
9.20864e-08
8.78245e-08
8.3847e-08
8.01295e-08
7.66521e-08
7.33983e-08
7.03533e-08
6.75033e-08
6.48355e-08
6.2339e-08
6.0006e-08
5.7832e-08
5.58152e-08
5.39546e-08
5.22486e-08
5.06936e-08
4.92853e-08
4.80198e-08
0.000253716
7.60756e-05
3.8632e-05
2.15613e-05
9.53101e-06
5.408e-06
4.75745e-06
4.03907e-06
3.38809e-06
2.86102e-06
2.49761e-06
2.23957e-06
2.04349e-06
1.79954e-06
1.5777e-06
1.30566e-06
1.0882e-06
8.46785e-07
6.64708e-07
5.37304e-07
4.40242e-07
3.62699e-07
3.02388e-07
2.57423e-07
2.24413e-07
2.00023e-07
1.81686e-07
1.67438e-07
1.55841e-07
1.4601e-07
1.37419e-07
1.2973e-07
1.22729e-07
1.1628e-07
1.10298e-07
1.04724e-07
9.95086e-08
9.46172e-08
9.00214e-08
8.56996e-08
8.16345e-08
7.7811e-08
7.42161e-08
7.08387e-08
6.76697e-08
6.47014e-08
6.19285e-08
5.93466e-08
5.69485e-08
5.47124e-08
0.000850492
0.000169959
9.10662e-05
5.53209e-05
2.84668e-05
7.82738e-06
6.27104e-06
5.8487e-06
4.91577e-06
4.17634e-06
3.61467e-06
3.23104e-06
3.03957e-06
2.77145e-06
2.56011e-06
2.19248e-06
1.91451e-06
1.51232e-06
1.17537e-06
9.40252e-07
7.65175e-07
6.20244e-07
5.00995e-07
4.09022e-07
3.41085e-07
2.91706e-07
2.5598e-07
2.29821e-07
2.0986e-07
1.9392e-07
1.807e-07
1.69358e-07
1.59353e-07
1.50338e-07
1.421e-07
1.34504e-07
1.27449e-07
1.20863e-07
1.14688e-07
1.08884e-07
1.03421e-07
9.82711e-08
9.34151e-08
8.88353e-08
8.45185e-08
8.04537e-08
7.66364e-08
7.30731e-08
6.97924e-08
6.68686e-08
0.00118484
0.000181341
9.43391e-05
5.77987e-05
3.10303e-05
1.13421e-05
5.62064e-06
7.36317e-06
3.70471e-06
3.76262e-06
3.75177e-06
3.5721e-06
3.7176e-06
3.0136e-06
3.09041e-06
2.50467e-06
2.42899e-06
1.83479e-06
1.47535e-06
1.22579e-06
1.03044e-06
8.5715e-07
7.0311e-07
5.73957e-07
4.72076e-07
3.95118e-07
3.38262e-07
2.96342e-07
2.6497e-07
2.40841e-07
2.21636e-07
2.05799e-07
1.92308e-07
1.80494e-07
1.69926e-07
1.60332e-07
1.51526e-07
1.43382e-07
1.35802e-07
1.28718e-07
1.22078e-07
1.15844e-07
1.09981e-07
1.0446e-07
9.92608e-08
9.43605e-08
8.97403e-08
8.53845e-08
8.1281e-08
7.74338e-08
0.000116439
5.99931e-05
2.66099e-05
1.13312e-05
5.30445e-06
3.96415e-06
3.82887e-06
3.66996e-06
3.53757e-06
3.73043e-06
4.17643e-06
3.98698e-06
3.30188e-06
2.75078e-06
3.46086e-06
1.51166e-06
2.45264e-06
1.22072e-06
1.302e-06
1.15667e-06
9.99834e-07
8.46189e-07
7.07148e-07
5.89135e-07
4.93713e-07
4.19068e-07
3.61705e-07
3.17781e-07
2.83861e-07
2.57195e-07
2.35722e-07
2.17961e-07
2.02873e-07
1.89753e-07
1.78121e-07
1.67646e-07
1.58095e-07
1.49338e-07
1.41261e-07
1.33755e-07
1.26757e-07
1.20215e-07
1.14091e-07
1.08349e-07
1.02961e-07
9.79018e-08
9.31502e-08
8.8686e-08
8.44915e-08
8.05505e-08
1.71457e-05
7.51679e-06
3.35901e-06
2.69057e-06
3.37073e-06
4.21756e-06
3.49257e-06
2.32259e-06
3.06058e-06
4.05401e-06
3.42422e-06
1.85828e-06
1.96317e-06
1.79991e-06
1.54401e-06
1.47613e-06
1.23371e-06
1.21719e-06
1.06613e-06
9.1786e-07
7.81665e-07
6.62033e-07
5.60542e-07
4.76782e-07
4.09029e-07
3.54948e-07
3.12069e-07
2.77979e-07
2.50589e-07
2.28266e-07
2.09731e-07
1.94068e-07
1.80561e-07
1.68639e-07
1.58135e-07
1.48719e-07
1.40157e-07
1.32317e-07
1.25099e-07
1.18429e-07
1.12246e-07
1.06503e-07
1.01161e-07
9.61862e-08
9.15515e-08
8.72318e-08
8.32055e-08
7.94532e-08
7.59575e-08
7.27025e-08
5.00999e-06
2.3293e-06
2.64529e-06
2.45398e-06
2.27141e-06
2.40962e-06
3.62513e-06
9.88299e-07
1.37507e-06
1.37482e-06
1.33327e-06
1.30109e-06
1.16784e-06
1.03549e-06
9.09162e-07
7.92274e-07
6.86822e-07
5.93721e-07
5.13071e-07
4.44341e-07
3.86544e-07
3.38444e-07
2.98611e-07
2.65636e-07
2.38271e-07
2.15495e-07
1.96417e-07
1.80386e-07
1.66593e-07
1.54578e-07
1.43981e-07
1.34599e-07
1.26328e-07
1.18914e-07
1.12171e-07
1.06012e-07
1.00367e-07
9.51826e-08
9.04132e-08
8.60222e-08
8.19786e-08
7.82561e-08
7.48314e-08
7.1684e-08
6.87957e-08
6.6149e-08
6.37275e-08
6.15169e-08
5.95052e-08
5.76831e-08
2.07067e-06
2.32375e-06
3.00419e-06
7.99498e-07
1.09914e-06
1.08228e-06
9.90447e-07
9.84279e-07
8.89012e-07
7.8095e-07
6.83485e-07
5.95611e-07
5.17573e-07
4.49407e-07
3.90685e-07
3.40639e-07
2.98292e-07
2.62614e-07
2.32623e-07
2.07411e-07
1.86119e-07
1.68269e-07
1.53177e-07
1.4023e-07
1.29008e-07
1.19053e-07
1.09864e-07
1.0251e-07
9.59855e-08
9.01435e-08
8.48893e-08
8.01525e-08
7.58772e-08
7.20172e-08
6.85346e-08
6.53978e-08
6.25801e-08
6.00582e-08
5.78114e-08
5.58234e-08
5.40814e-08
5.25744e-08
5.12919e-08
5.02248e-08
4.9363e-08
4.86897e-08
4.81797e-08
4.78087e-08
4.75604e-08
4.74339e-08
4.27377e-10
3.99809e-10
3.75262e-10
3.53544e-10
3.34463e-10
3.17839e-10
3.03499e-10
2.91282e-10
2.81034e-10
2.72611e-10
2.65879e-10
2.60713e-10
2.56996e-10
2.5462e-10
2.53486e-10
2.53507e-10
2.54601e-10
2.56701e-10
2.59746e-10
2.63687e-10
2.68489e-10
2.74123e-10
2.80578e-10
2.87852e-10
2.95955e-10
3.04913e-10
3.14761e-10
3.2555e-10
3.37341e-10
3.50209e-10
3.64239e-10
3.79524e-10
3.96169e-10
4.14284e-10
4.33984e-10
4.55387e-10
4.7861e-10
5.03768e-10
5.30969e-10
5.60313e-10
5.91886e-10
6.25757e-10
6.61975e-10
7.00565e-10
7.41526e-10
7.84824e-10
8.30395e-10
8.78141e-10
9.27927e-10
9.79584e-10
1.03291e-09
1.08767e-09
1.14361e-09
1.20044e-09
1.25787e-09
1.31559e-09
1.37331e-09
1.43075e-09
1.48764e-09
1.54377e-09
1.59897e-09
1.65314e-09
1.70625e-09
1.75836e-09
1.80962e-09
1.86028e-09
1.91071e-09
1.96138e-09
2.01287e-09
2.06586e-09
2.12113e-09
2.17958e-09
2.24215e-09
2.30986e-09
2.3838e-09
2.46505e-09
2.55475e-09
2.65398e-09
2.7638e-09
2.88523e-09
3.01914e-09
3.1663e-09
3.32732e-09
3.50257e-09
3.6922e-09
3.89604e-09
4.11358e-09
4.34395e-09
4.58582e-09
4.83743e-09
5.09656e-09
5.36048e-09
5.62605e-09
5.88971e-09
6.14759e-09
6.39558e-09
6.62953e-09
6.84537e-09
7.03934e-09
7.20818e-09
7.34938e-09
7.46132e-09
7.54354e-09
7.59679e-09
7.62318e-09
7.62616e-09
7.61046e-09
7.58193e-09
7.54734e-09
7.51409e-09
7.48981e-09
7.48206e-09
7.49788e-09
7.54344e-09
7.62375e-09
7.74234e-09
7.90111e-09
8.10027e-09
8.33831e-09
8.61218e-09
8.91742e-09
9.24857e-09
9.59945e-09
9.96362e-09
1.03349e-08
1.07078e-08
1.10779e-08
1.14428e-08
1.18021e-08
1.21577e-08
1.25147e-08
1.28813e-08
1.32686e-08
1.36913e-08
1.41672e-08
1.47169e-08
1.53638e-08
1.61341e-08
1.70558e-08
1.81594e-08
1.94777e-08
2.10462e-08
2.29042e-08
2.50963e-08
2.7674e-08
3.06985e-08
3.42429e-08
3.83931e-08
4.32461e-08
4.89015e-08
5.54436e-08
6.29118e-08
7.12607e-08
8.03199e-08
8.97763e-08
9.92753e-08
1.09095e-07
1.21055e-07
1.24895e-07
2.87566e-07
5.10277e-07
1.65501e-07
3.33658e-08
2.53727e-08
2.03108e-08
1.68559e-08
1.44902e-08
1.29031e-08
1.18244e-08
1.10659e-08
1.05027e-08
1.00566e-08
9.67969e-09
9.34268e-09
9.02751e-09
8.7229e-09
8.42183e-09
8.12004e-09
7.81511e-09
7.50584e-09
7.19191e-09
6.8736e-09
6.5516e-09
6.2269e-09
5.90071e-09
5.57434e-09
5.24922e-09
4.92676e-09
4.60841e-09
4.29556e-09
3.98957e-09
3.69169e-09
3.40311e-09
3.12487e-09
2.85791e-09
2.60305e-09
2.36093e-09
2.1321e-09
1.91692e-09
1.71563e-09
1.52832e-09
1.35497e-09
1.19539e-09
1.04932e-09
9.16361e-10
7.9603e-10
6.87766e-10
5.90939e-10
5.04865e-10
4.28825e-10
3.62072e-10
3.03849e-10
2.53399e-10
2.09977e-10
1.72859e-10
1.41351e-10
1.14795e-10
9.25755e-11
7.41217e-11
5.89112e-11
4.64708e-11
3.6376e-11
2.82504e-11
2.17636e-11
1.66285e-11
1.25981e-11
9.46248e-12
7.04473e-12
5.19749e-12
3.7993e-12
2.75104e-12
1.97279e-12
1.40074e-12
9.84515e-13
6.84816e-13
4.71308e-13
3.20852e-13
2.16005e-13
1.43768e-13
9.45761e-14
6.14751e-14
3.9472e-14
2.50276e-14
1.56658e-14
9.6773e-15
5.89761e-15
3.54463e-15
2.10031e-15
1.22646e-15
7.0553e-16
3.99667e-16
2.22855e-16
1.22266e-16
6.59703e-17
3.49909e-17
1.82354e-17
9.33272e-18
4.68823e-18
2.31034e-18
1.11625e-18
5.28451e-19
2.44979e-19
1.11134e-19
4.93006e-20
2.13712e-20
9.04557e-21
3.73523e-21
1.50348e-21
5.89346e-22
2.24758e-22
8.33055e-23
2.99753e-23
1.04585e-23
3.5337e-24
1.15466e-24
3.64329e-25
1.1083e-25
3.24479e-26
9.12564e-27
2.4603e-27
6.34417e-28
1.56077e-28
3.65322e-29
8.11045e-30
1.70193e-30
3.36257e-31
6.22725e-32
1.07547e-32
1.7219e-33
2.53801e-34
3.41551e-35
4.15464e-36
4.51161e-37
4.3054e-38
3.53693e-39
2.43184e-40
1.34342e-41
5.59016e-43
1.55743e-44
2.17872e-46
1.00277e-09
9.13025e-10
8.30343e-10
7.54265e-10
6.84374e-10
6.20266e-10
5.61556e-10
5.07869e-10
4.58853e-10
4.14169e-10
3.73498e-10
3.36535e-10
3.02998e-10
2.72616e-10
2.4514e-10
2.20334e-10
1.9798e-10
1.77873e-10
1.59823e-10
1.43656e-10
1.29209e-10
1.1633e-10
1.04883e-10
9.47379e-11
8.5779e-11
7.78983e-11
7.09973e-11
6.49858e-11
5.97818e-11
5.53106e-11
5.15047e-11
4.83028e-11
4.56499e-11
4.34967e-11
4.17993e-11
4.05185e-11
3.96201e-11
3.90737e-11
3.88531e-11
3.89358e-11
3.93026e-11
3.99372e-11
4.08263e-11
4.19593e-11
4.33277e-11
4.49253e-11
4.67476e-11
4.87919e-11
5.10567e-11
5.35417e-11
5.62477e-11
5.91758e-11
6.23275e-11
6.57046e-11
6.93085e-11
7.31402e-11
7.71998e-11
8.14864e-11
8.59977e-11
9.07298e-11
9.56768e-11
1.0083e-10
1.06181e-10
1.11714e-10
1.17414e-10
1.23264e-10
1.2924e-10
1.35319e-10
1.41474e-10
1.47674e-10
1.53887e-10
1.6008e-10
1.66215e-10
1.72256e-10
1.78165e-10
1.83902e-10
1.89428e-10
1.94707e-10
1.997e-10
2.04373e-10
2.08692e-10
2.12625e-10
2.16146e-10
2.19229e-10
2.21851e-10
2.23996e-10
2.25649e-10
2.26798e-10
2.27437e-10
2.27562e-10
2.27173e-10
2.26274e-10
2.24871e-10
2.22974e-10
2.20594e-10
2.17746e-10
2.14448e-10
2.10717e-10
2.06574e-10
2.02041e-10
1.97141e-10
1.91898e-10
1.86339e-10
1.8049e-10
1.74378e-10
1.68034e-10
1.61488e-10
1.54771e-10
1.47918e-10
1.40962e-10
1.3394e-10
1.26889e-10
1.19847e-10
1.12851e-10
1.05939e-10
9.91491e-11
9.25158e-11
8.60724e-11
7.98491e-11
7.38725e-11
6.8165e-11
6.27448e-11
5.7625e-11
5.28143e-11
4.83163e-11
4.41306e-11
4.02524e-11
3.66737e-11
3.33833e-11
3.03678e-11
2.7612e-11
2.50995e-11
2.28134e-11
2.07364e-11
1.88516e-11
1.71426e-11
1.55937e-11
1.41901e-11
1.29182e-11
1.17653e-11
1.07198e-11
9.77129e-12
8.91011e-12
8.12772e-12
7.41637e-12
6.76909e-12
6.17962e-12
5.64234e-12
5.15216e-12
4.70454e-12
4.29537e-12
3.92096e-12
3.57799e-12
3.26348e-12
2.97477e-12
2.70946e-12
2.46543e-12
2.24078e-12
2.03383e-12
1.8431e-12
1.66729e-12
1.50524e-12
1.35585e-12
1.21822e-12
1.09157e-12
9.75221e-13
8.6857e-13
7.71053e-13
6.8214e-13
6.0133e-13
5.28133e-13
4.62074e-13
4.02687e-13
3.49512e-13
3.02099e-13
2.60007e-13
2.22806e-13
1.90079e-13
1.61423e-13
1.36453e-13
1.14801e-13
9.61209e-14
8.0087e-14
6.63957e-14
5.47666e-14
4.4942e-14
3.66871e-14
2.97895e-14
2.40582e-14
1.93232e-14
1.54337e-14
1.22576e-14
9.67929e-15
7.59885e-15
5.93036e-15
4.60049e-15
3.54714e-15
2.7181e-15
2.06978e-15
1.56609e-15
1.17733e-15
8.79288e-16
6.52336e-16
4.80702e-16
3.51805e-16
2.55684e-16
1.84516e-16
1.32206e-16
9.40377e-17
6.6396e-17
4.65286e-17
3.23583e-17
2.23298e-17
1.52886e-17
1.03843e-17
6.99618e-18
4.67473e-18
3.09748e-18
2.03495e-18
1.32536e-18
8.5562e-19
5.47435e-19
3.47072e-19
2.18008e-19
1.35651e-19
8.35975e-20
5.10166e-20
3.08246e-20
1.84363e-20
1.09132e-20
6.39229e-21
3.70418e-21
2.12311e-21
1.20338e-21
6.74349e-22
3.73528e-22
2.04462e-22
1.10573e-22
5.90642e-23
3.11547e-23
1.62229e-23
8.33724e-24
4.22744e-24
2.11429e-24
1.04268e-24
5.06869e-25
2.42804e-25
1.14573e-25
5.32378e-26
2.43504e-26
1.09591e-26
4.85124e-27
2.11133e-27
9.03017e-28
3.79382e-28
1.56492e-28
6.3347e-29
2.5151e-29
9.78914e-30
3.7329e-30
1.39381e-30
5.09263e-31
1.81961e-31
6.35348e-32
2.16633e-32
7.20744e-33
2.33792e-33
7.3874e-34
2.27181e-34
6.79275e-35
1.97271e-35
5.55828e-36
1.51762e-36
4.01035e-37
1.02424e-37
2.52451e-38
5.99542e-39
1.36955e-39
3.00352e-40
6.31079e-41
1.26752e-41
2.42752e-42
4.4209e-43
7.63257e-44
1.24507e-44
1.91235e-45
2.75803e-46
3.74122e-47
4.87504e-48
6.6788e-49
1.20131e-49
3.27969e-50
1.11974e-50
3.84652e-51
1.20933e-51
3.32411e-52
7.64827e-53
1.38194e-53
1.74568e-54
1.1578e-55
2.83368e-09
2.60542e-09
2.39227e-09
2.1936e-09
2.00872e-09
1.83695e-09
1.67762e-09
1.53006e-09
1.39362e-09
1.26765e-09
1.15152e-09
1.04462e-09
9.46349e-10
8.56149e-10
7.73472e-10
6.97796e-10
6.28626e-10
5.65493e-10
5.07949e-10
4.55577e-10
4.07981e-10
3.64788e-10
3.25653e-10
2.90248e-10
2.58269e-10
2.29432e-10
2.03472e-10
1.80141e-10
1.59209e-10
1.40462e-10
1.23702e-10
1.08744e-10
9.54194e-11
8.35703e-11
7.3053e-11
6.37355e-11
5.54967e-11
4.82261e-11
4.18227e-11
3.61948e-11
3.12587e-11
2.69386e-11
2.31658e-11
1.98781e-11
1.70193e-11
1.4539e-11
1.23918e-11
1.05371e-11
8.93866e-12
7.56422e-12
6.38515e-12
5.37607e-12
4.51458e-12
3.78094e-12
3.15777e-12
2.62984e-12
2.18382e-12
1.80803e-12
1.49234e-12
1.2279e-12
1.00707e-12
8.23227e-13
6.70664e-13
5.44475e-13
4.40451e-13
3.54997e-13
2.85047e-13
2.27999e-13
1.81648e-13
1.44133e-13
1.1389e-13
8.96093e-14
7.01956e-14
5.474e-14
4.24892e-14
3.28224e-14
2.523e-14
1.92953e-14
1.46791e-14
1.11069e-14
8.35706e-15
6.25179e-15
4.64906e-15
3.43602e-15
2.52342e-15
1.84111e-15
1.33426e-15
9.60228e-16
6.861e-16
4.86607e-16
3.42485e-16
2.39149e-16
1.65629e-16
1.13744e-16
7.74292e-17
5.22314e-17
3.49027e-17
2.30956e-17
1.51279e-17
9.8046e-18
6.28483e-18
3.98261e-18
2.49365e-18
1.54193e-18
9.41043e-19
5.66511e-19
3.36189e-19
1.96536e-19
1.13102e-19
6.40244e-20
3.56228e-20
1.9466e-20
1.0439e-20
5.49036e-21
2.83087e-21
1.43109e-21
7.10108e-22
3.46908e-22
1.67949e-22
8.15916e-23
4.06246e-23
2.1356e-23
1.22196e-23
7.72769e-24
5.35027e-24
3.95133e-24
3.03061e-24
2.3684e-24
1.86516e-24
1.47182e-24
1.1607e-24
9.13705e-25
7.17615e-25
5.62193e-25
4.39282e-25
3.42325e-25
2.66043e-25
2.06189e-25
1.59355e-25
1.22809e-25
9.43735e-26
7.23112e-26
5.52438e-26
4.20794e-26
3.19556e-26
2.41939e-26
1.82612e-26
1.37407e-26
1.03069e-26
7.70691e-27
5.74455e-27
4.26822e-27
3.16118e-27
2.33378e-27
1.71743e-27
1.25983e-27
9.21218e-28
6.71499e-28
4.87949e-28
3.53484e-28
2.55301e-28
1.83842e-28
1.31997e-28
9.44998e-29
6.74606e-29
4.80207e-29
3.40852e-29
2.41245e-29
1.70254e-29
1.19804e-29
8.40548e-30
5.87966e-30
4.10032e-30
2.85057e-30
1.97544e-30
1.36453e-30
9.39406e-31
6.4452e-31
4.40648e-31
3.00177e-31
2.03727e-31
1.3774e-31
9.27604e-32
6.22166e-32
4.15566e-32
2.76384e-32
1.83008e-32
1.2063e-32
7.91439e-33
5.1677e-33