/*--------------------------------*- C++ -*----------------------------------*\
| =========                 |                                                 |
| \\      /  F ield         | OpenFOAM: The Open Source CFD Toolbox           |
|  \\    /   O peration     | Version:  2.4.0                                 |
|   \\  /    A nd           | Web:      www.OpenFOAM.org                      |
|    \\/     M anipulation  |                                                 |
\*---------------------------------------------------------------------------*/
FoamFile
{
    version     2.0;
    format      ascii;
    class       volScalarField;
    location    "1.9";
    object      p_rgh;
}
// * * * * * * * * * * * * * * * * * * * * * * * * * * * * * * * * * * * * * //

dimensions      [1 -1 -2 0 0 0 0];

internalField   nonuniform List<scalar> 
125
(
-1.249e-05
-1.24897e-05
-1.24894e-05
-1.24896e-05
-1.24901e-05
-1.24724e-05
-1.2472e-05
-1.24717e-05
-1.24719e-05
-1.24724e-05
-1.24546e-05
-1.24542e-05
-1.24539e-05
-1.24541e-05
-1.24546e-05
-1.24366e-05
-1.24362e-05
-1.2436e-05
-1.24361e-05
-1.24366e-05
-1.24184e-05
-1.24181e-05
-1.24178e-05
-1.2418e-05
-1.24184e-05
-1.24e-05
-1.23997e-05
-1.23994e-05
-1.23996e-05
-1.24001e-05
-1.23815e-05
-1.23811e-05
-1.23809e-05
-1.2381e-05
-1.23815e-05
-1.23627e-05
-1.23624e-05
-1.23621e-05
-1.23623e-05
-1.23627e-05
-1.23437e-05
-1.23434e-05
-1.23432e-05
-1.23433e-05
-1.23437e-05
-1.23245e-05
-1.23242e-05
-1.2324e-05
-1.23242e-05
-1.23246e-05
-1.23052e-05
-1.23049e-05
-1.23047e-05
-1.23048e-05
-1.23052e-05
-1.22856e-05
-1.22853e-05
-1.22851e-05
-1.22852e-05
-1.22856e-05
-1.22658e-05
-1.22655e-05
-1.22653e-05
-1.22654e-05
-1.22658e-05
-1.22458e-05
-1.22455e-05
-1.22453e-05
-1.22454e-05
-1.22458e-05
-1.22255e-05
-1.22253e-05
-1.22251e-05
-1.22252e-05
-1.22255e-05
-1.22051e-05
-1.22048e-05
-1.22047e-05
-1.22048e-05
-1.22051e-05
-1.21844e-05
-1.21842e-05
-1.2184e-05
-1.21841e-05
-1.21844e-05
-1.21635e-05
-1.21633e-05
-1.21631e-05
-1.21632e-05
-1.21635e-05
-1.21424e-05
-1.21422e-05
-1.2142e-05
-1.21421e-05
-1.21424e-05
-1.21211e-05
-1.21209e-05
-1.21207e-05
-1.21208e-05
-1.21211e-05
-1.20995e-05
-1.20993e-05
-1.20991e-05
-1.20992e-05
-1.20995e-05
-1.20777e-05
-1.20775e-05
-1.20774e-05
-1.20774e-05
-1.20777e-05
-1.20557e-05
-1.20555e-05
-1.20553e-05
-1.20554e-05
-1.20557e-05
-1.20334e-05
-1.20332e-05
-1.20331e-05
-1.20332e-05
-1.20334e-05
-1.20109e-05
-1.20107e-05
-1.20106e-05
-1.20107e-05
-1.20109e-05
)
;

boundaryField
{
    BotWall
    {
        type            fixedFluxPressure;
        gradient        nonuniform 0();
        value           nonuniform 0();
    }
    FreeStream
    {
        type            totalPressure;
        rho             rho;
        psi             none;
        gamma           1;
        p0              nonuniform 0();
        value           nonuniform 0();
    }
    FrontNBack
    {
        type            empty;
    }
    LeftSide
    {
        type            symmetryPlane;
    }
    RightSide
    {
        type            symmetryPlane;
    }
    procBoundary2to1
    {
        type            processor;
        value           nonuniform List<scalar> 5(-1.25075e-05 -1.25071e-05 -1.25068e-05 -1.2507e-05 -1.25076e-05);
    }
    procBoundary2to3
    {
        type            processor;
        value           nonuniform List<scalar> 5(-1.19882e-05 -1.1988e-05 -1.19879e-05 -1.1988e-05 -1.19882e-05);
    }
}


// ************************************************************************* //
