/*--------------------------------*- C++ -*----------------------------------*\
| =========                 |                                                 |
| \\      /  F ield         | OpenFOAM: The Open Source CFD Toolbox           |
|  \\    /   O peration     | Version:  2.4.0                                 |
|   \\  /    A nd           | Web:      www.OpenFOAM.org                      |
|    \\/     M anipulation  |                                                 |
\*---------------------------------------------------------------------------*/
FoamFile
{
    version     2.0;
    format      ascii;
    class       volScalarField;
    location    "0.8";
    object      p;
}
// * * * * * * * * * * * * * * * * * * * * * * * * * * * * * * * * * * * * * //

dimensions      [1 -1 -2 0 0 0 0];

internalField   nonuniform List<scalar> 
8000
(
-0.579763
-0.583019
-0.586692
-0.590269
-0.593771
-0.597264
-0.600768
-0.604283
-0.607806
-0.611337
-0.614876
-0.618423
-0.621978
-0.625542
-0.629117
-0.6327
-0.636294
-0.639899
-0.643516
-0.647145
-0.650789
-0.654446
-0.658122
-0.66181
-0.665517
-0.669239
-0.673031
-0.676965
-0.680957
-0.683949
-0.683859
-0.683455
-0.709054
-0.813211
-0.928107
-0.603138
-0.463207
-0.458932
-0.458691
-0.458669
-0.458676
-0.458679
-0.458679
-0.458679
-0.458678
-0.458678
-0.458677
-0.458676
-0.458676
-0.458676
-0.595003
-0.598264
-0.601925
-0.605478
-0.608948
-0.6124
-0.615856
-0.619314
-0.622772
-0.626229
-0.629686
-0.633142
-0.636598
-0.640054
-0.64351
-0.646966
-0.650424
-0.653882
-0.657342
-0.660803
-0.664267
-0.667733
-0.671204
-0.674675
-0.678148
-0.681638
-0.685205
-0.688884
-0.692283
-0.693944
-0.693035
-0.699599
-0.750041
-0.864729
-0.828159
-0.541788
-0.482518
-0.481165
-0.481049
-0.481048
-0.481055
-0.481057
-0.481056
-0.481055
-0.481055
-0.481054
-0.481054
-0.481053
-0.481053
-0.481053
-0.612071
-0.615302
-0.618922
-0.62243
-0.625849
-0.629245
-0.632639
-0.63603
-0.639414
-0.642792
-0.646161
-0.649524
-0.652878
-0.656225
-0.659562
-0.662892
-0.66621
-0.669521
-0.672818
-0.676106
-0.679378
-0.682642
-0.685882
-0.689103
-0.692288
-0.695516
-0.698951
-0.702617
-0.704832
-0.700837
-0.690807
-0.717157
-0.901565
-1.23441
-0.768219
-0.518737
-0.503875
-0.50347
-0.50343
-0.503435
-0.503438
-0.503438
-0.503437
-0.503436
-0.503435
-0.503434
-0.503433
-0.503432
-0.503431
-0.503431
-0.634276
-0.637389
-0.640899
-0.644318
-0.647664
-0.651001
-0.654347
-0.657703
-0.661066
-0.664435
-0.66781
-0.671192
-0.674579
-0.677975
-0.681376
-0.684785
-0.6882
-0.691625
-0.695056
-0.698498
-0.701947
-0.705409
-0.708876
-0.712354
-0.715836
-0.719386
-0.723096
-0.726888
-0.729516
-0.728306
-0.725894
-0.753366
-0.878466
-1.03532
-0.672685
-0.529551
-0.525998
-0.525806
-0.525792
-0.525799
-0.525802
-0.525802
-0.525801
-0.525801
-0.5258
-0.5258
-0.525799
-0.525799
-0.525799
-0.525799
-0.648123
-0.651309
-0.654873
-0.658322
-0.661678
-0.665008
-0.668333
-0.671652
-0.674961
-0.67826
-0.681549
-0.684829
-0.688099
-0.691359
-0.694609
-0.697849
-0.701079
-0.704299
-0.707508
-0.710706
-0.713894
-0.71707
-0.720232
-0.723379
-0.726521
-0.729717
-0.733016
-0.736098
-0.737541
-0.736032
-0.739878
-0.78465
-0.902836
-0.914329
-0.61145
-0.549492
-0.548269
-0.54817
-0.548172
-0.548179
-0.548181
-0.54818
-0.548179
-0.548179
-0.548178
-0.548177
-0.548177
-0.548176
-0.548176
-0.548176
-0.669741
-0.672792
-0.676223
-0.679561
-0.682826
-0.686081
-0.689344
-0.692616
-0.695892
-0.699173
-0.702458
-0.705747
-0.709042
-0.712341
-0.715645
-0.718953
-0.722267
-0.725585
-0.72891
-0.732239
-0.735575
-0.738913
-0.742252
-0.745584
-0.748967
-0.75254
-0.756324
-0.759028
-0.756886
-0.749806
-0.770499
-0.914898
-1.18151
-0.841766
-0.586795
-0.570992
-0.570582
-0.570545
-0.570552
-0.570556
-0.570557
-0.570556
-0.570555
-0.570554
-0.570553
-0.570553
-0.570552
-0.570552
-0.570552
-0.570552
-0.690985
-0.693934
-0.697265
-0.700516
-0.703701
-0.706881
-0.710076
-0.713282
-0.716499
-0.719724
-0.722959
-0.726203
-0.729458
-0.73272
-0.735994
-0.739276
-0.74257
-0.745872
-0.749188
-0.752513
-0.755854
-0.7592
-0.76256
-0.765921
-0.769361
-0.773002
-0.776779
-0.779187
-0.776722
-0.771781
-0.802025
-0.956633
-1.17218
-0.753769
-0.596373
-0.593085
-0.592924
-0.592915
-0.592922
-0.592924
-0.592924
-0.592924
-0.592923
-0.592923
-0.592923
-0.592922
-0.592922
-0.592922
-0.592923
-0.592923
-0.701477
-0.704625
-0.708131
-0.711506
-0.714776
-0.718006
-0.721218
-0.724409
-0.727578
-0.730724
-0.733845
-0.736943
-0.740017
-0.743065
-0.746089
-0.749086
-0.752056
-0.754998
-0.757911
-0.760793
-0.763645
-0.766459
-0.769235
-0.771975
-0.774739
-0.777597
-0.780313
-0.781479
-0.77911
-0.779422
-0.817713
-0.943434
-1.01986
-0.688073
-0.616565
-0.61538
-0.615292
-0.615297
-0.615304
-0.615305
-0.615304
-0.615303
-0.615303
-0.615302
-0.615302
-0.615301
-0.615301
-0.6153
-0.6153
-0.6153
-0.727215
-0.730166
-0.733492
-0.736732
-0.739905
-0.743072
-0.746252
-0.749443
-0.752643
-0.755851
-0.759068
-0.762294
-0.765529
-0.768774
-0.772029
-0.775294
-0.77857
-0.781859
-0.785159
-0.788472
-0.791798
-0.795133
-0.798475
-0.801863
-0.80541
-0.809146
-0.812139
-0.811489
-0.806676
-0.821387
-0.929085
-1.14019
-0.930137
-0.65682
-0.638138
-0.6377
-0.637665
-0.637674
-0.637679
-0.63768
-0.637679
-0.637678
-0.637678
-0.637677
-0.637677
-0.637676
-0.637676
-0.637676
-0.637676
-0.637676
-0.749027
-0.751818
-0.75498
-0.758078
-0.761125
-0.76418
-0.767257
-0.770358
-0.773478
-0.776619
-0.779778
-0.782958
-0.786157
-0.789378
-0.792618
-0.795883
-0.799166
-0.802477
-0.805809
-0.809172
-0.812553
-0.815962
-0.819384
-0.822909
-0.8267
-0.83074
-0.833269
-0.829679
-0.821307
-0.852386
-1.04037
-1.34554
-0.84685
-0.663555
-0.660183
-0.660043
-0.660038
-0.660045
-0.660048
-0.660048
-0.660047
-0.660047
-0.660047
-0.660047
-0.660046
-0.660046
-0.660046
-0.660047
-0.660047
-0.660047
-0.757721
-0.760864
-0.764356
-0.767703
-0.770931
-0.774106
-0.777248
-0.780358
-0.783433
-0.786471
-0.789472
-0.792438
-0.795365
-0.798255
-0.801105
-0.803915
-0.806683
-0.809409
-0.812088
-0.814722
-0.817302
-0.819826
-0.822291
-0.82476
-0.827333
-0.829846
-0.830799
-0.827362
-0.824004
-0.858354
-1.00142
-1.15284
-0.771397
-0.683702
-0.682507
-0.682425
-0.682432
-0.682439
-0.68244
-0.682438
-0.682437
-0.682436
-0.682436
-0.682435
-0.682434
-0.682433
-0.682433
-0.682433
-0.682432
-0.682432
-0.782389
-0.785342
-0.788649
-0.791857
-0.794988
-0.798103
-0.80122
-0.804339
-0.807458
-0.810576
-0.813693
-0.81681
-0.819927
-0.823046
-0.826166
-0.829289
-0.832414
-0.835545
-0.838679
-0.84182
-0.844963
-0.848109
-0.851285
-0.854592
-0.858077
-0.861055
-0.861098
-0.857086
-0.866573
-0.950428
-1.13521
-1.03562
-0.728884
-0.705285
-0.704814
-0.704782
-0.704794
-0.7048
-0.7048
-0.7048
-0.704799
-0.704799
-0.704799
-0.704799
-0.704799
-0.704798
-0.704799
-0.704799
-0.704799
-0.704799
-0.813935
-0.816468
-0.819371
-0.822243
-0.825095
-0.827974
-0.830895
-0.833858
-0.83686
-0.839898
-0.842976
-0.846089
-0.849242
-0.852431
-0.855661
-0.858926
-0.862237
-0.865583
-0.868978
-0.872406
-0.875874
-0.879362
-0.882992
-0.887017
-0.89146
-0.893809
-0.887006
-0.871627
-0.911268
-1.18649
-1.67279
-0.983514
-0.731733
-0.727322
-0.727185
-0.727187
-0.727194
-0.727195
-0.727194
-0.727193
-0.727192
-0.727191
-0.72719
-0.727189
-0.727188
-0.727187
-0.727187
-0.727186
-0.727186
-0.727186
-0.816739
-0.819833
-0.823257
-0.826524
-0.829659
-0.83273
-0.835755
-0.838735
-0.841667
-0.844548
-0.847379
-0.850159
-0.852888
-0.855561
-0.858181
-0.860742
-0.863244
-0.865683
-0.86806
-0.870363
-0.87259
-0.874734
-0.876868
-0.879134
-0.881413
-0.881954
-0.876845
-0.869492
-0.903706
-1.07793
-1.31313
-0.858775
-0.750759
-0.749614
-0.749543
-0.749552
-0.749559
-0.74956
-0.749559
-0.749558
-0.749558
-0.749557
-0.749557
-0.749556
-0.749555
-0.749555
-0.749555
-0.749555
-0.749555
-0.749555
-0.841025
-0.84412
-0.847562
-0.850874
-0.85408
-0.857247
-0.860397
-0.863527
-0.866637
-0.869726
-0.872795
-0.875843
-0.878873
-0.881884
-0.884876
-0.88785
-0.890806
-0.893745
-0.896666
-0.899564
-0.90244
-0.90531
-0.908263
-0.911371
-0.914127
-0.914375
-0.910255
-0.91483
-0.982346
-1.15822
-1.15393
-0.803171
-0.772457
-0.77195
-0.771919
-0.771933
-0.771939
-0.771939
-0.771938
-0.771937
-0.771936
-0.771936
-0.771935
-0.771934
-0.771934
-0.771934
-0.771933
-0.771933
-0.771933
-0.771933
-0.884501
-0.886802
-0.889482
-0.892185
-0.894915
-0.897716
-0.9006
-0.903565
-0.906611
-0.909736
-0.912941
-0.916228
-0.919596
-0.92305
-0.92659
-0.93022
-0.933942
-0.937763
-0.94168
-0.945696
-0.949806
-0.954094
-0.958752
-0.963809
-0.967548
-0.964945
-0.95599
-0.984458
-1.17835
-1.53167
-1.07774
-0.800296
-0.794479
-0.794294
-0.794297
-0.794308
-0.794311
-0.79431
-0.794309
-0.794309
-0.794308
-0.794308
-0.794307
-0.794307
-0.794306
-0.794306
-0.794306
-0.794306
-0.794306
-0.794306
-0.88568
-0.888594
-0.891837
-0.894948
-0.897946
-0.900895
-0.90381
-0.906694
-0.909541
-0.912351
-0.915122
-0.917855
-0.920546
-0.923196
-0.9258
-0.92836
-0.930869
-0.933332
-0.935732
-0.93807
-0.940334
-0.942618
-0.945107
-0.947701
-0.948241
-0.941551
-0.930793
-0.970159
-1.19096
-1.51132
-0.951739
-0.817827
-0.816729
-0.816667
-0.816679
-0.816686
-0.816687
-0.816686
-0.816685
-0.816684
-0.816684
-0.816683
-0.816683
-0.816682
-0.816682
-0.816682
-0.816682
-0.816682
-0.816682
-0.816682
-0.895594
-0.898952
-0.902629
-0.906106
-0.909419
-0.912642
-0.915798
-0.918887
-0.921906
-0.924854
-0.927732
-0.93054
-0.933276
-0.93594
-0.938529
-0.941042
-0.943478
-0.945832
-0.948099
-0.950272
-0.952358
-0.95444
-0.956618
-0.958519
-0.958061
-0.952476
-0.951441
-1.00721
-1.18825
-1.27996
-0.878632
-0.83958
-0.839068
-0.839043
-0.839058
-0.839064
-0.839064
-0.839063
-0.839062
-0.839061
-0.83906
-0.83906
-0.839059
-0.839058
-0.839058
-0.839058
-0.839058
-0.839058
-0.839058
-0.839058
-0.95387
-0.956067
-0.958652
-0.961287
-0.96397
-0.966743
-0.969617
-0.972591
-0.975664
-0.978837
-0.982109
-0.985484
-0.988964
-0.992552
-0.996251
-1.00007
-1.004
-1.00806
-1.01225
-1.01656
-1.02106
-1.02591
-1.03115
-1.03554
-1.03518
-1.02946
-1.05024
-1.1962
-1.47885
-1.18535
-0.868867
-0.861623
-0.861409
-0.861416
-0.86143
-0.861434
-0.861433
-0.861432
-0.861432
-0.861432
-0.861432
-0.861431
-0.861431
-0.861431
-0.861431
-0.861431
-0.861431
-0.861432
-0.861432
-0.861432
-0.958093
-0.960715
-0.963671
-0.966545
-0.969351
-0.97214
-0.974932
-0.977722
-0.98051
-0.983291
-0.986069
-0.988837
-0.9916
-0.994351
-0.997096
-0.999826
-1.00255
-1.00525
-1.00793
-1.01057
-1.01329
-1.01635
-1.01967
-1.02055
-1.0122
-0.997484
-1.044
-1.32512
-1.75717
-1.05272
-0.884913
-0.883838
-0.883786
-0.883799
-0.883807
-0.883807
-0.883807
-0.883806
-0.883806
-0.883805
-0.883805
-0.883804
-0.883804
-0.883804
-0.883804
-0.883804
-0.883804
-0.883804
-0.883804
-0.883805
-0.458676
-0.458676
-0.458676
-0.458677
-0.458677
-0.458677
-0.458677
-0.458677
-0.458677
-0.458677
-0.458677
-0.458677
-0.458677
-0.458677
-0.458677
-0.458677
-0.458677
-0.458677
-0.458677
-0.458677
-0.458677
-0.458677
-0.458677
-0.458677
-0.458678
-0.458678
-0.458678
-0.458678
-0.458678
-0.458678
-0.458678
-0.458678
-0.458678
-0.458678
-0.458678
-0.458678
-0.458678
-0.458678
-0.458678
-0.458678
-0.458679
-0.458679
-0.458679
-0.458679
-0.458679
-0.458679
-0.458679
-0.458679
-0.458679
-0.458679
-0.481053
-0.481053
-0.481053
-0.481053
-0.481053
-0.481053
-0.481053
-0.481053
-0.481053
-0.481053
-0.481053
-0.481053
-0.481053
-0.481053
-0.481053
-0.481053
-0.481053
-0.481053
-0.481053
-0.481053
-0.481053
-0.481053
-0.481053
-0.481053
-0.481053
-0.481053
-0.481053
-0.481053
-0.481053
-0.481053
-0.481053
-0.481053
-0.481053
-0.481053
-0.481053
-0.481054
-0.481054
-0.481054
-0.481054
-0.481054
-0.481054
-0.481054
-0.481054
-0.481054
-0.481054
-0.481054
-0.481054
-0.481054
-0.481054
-0.481055
-0.503431
-0.50343
-0.50343
-0.50343
-0.50343
-0.50343
-0.503429
-0.503429
-0.503429
-0.503429
-0.503429
-0.503429
-0.503429
-0.503428
-0.503428
-0.503428
-0.503428
-0.503428
-0.503428
-0.503428
-0.503428
-0.503428
-0.503428
-0.503428
-0.503428
-0.503428
-0.503428
-0.503428
-0.503428
-0.503428
-0.503428
-0.503428
-0.503428
-0.503428
-0.503428
-0.503428
-0.503428
-0.503428
-0.503429
-0.503429
-0.503429
-0.503429
-0.503429
-0.503429
-0.503429
-0.503429
-0.503429
-0.503429
-0.503429
-0.503429
-0.5258
-0.5258
-0.5258
-0.5258
-0.5258
-0.5258
-0.5258
-0.5258
-0.5258
-0.525801
-0.525801
-0.525801
-0.525801
-0.525801
-0.525801
-0.525801
-0.525801
-0.525801
-0.525801
-0.525801
-0.525801
-0.525802
-0.525802
-0.525802
-0.525802
-0.525802
-0.525802
-0.525802
-0.525802
-0.525802
-0.525802
-0.525802
-0.525803
-0.525803
-0.525803
-0.525803
-0.525803
-0.525803
-0.525803
-0.525803
-0.525803
-0.525803
-0.525804
-0.525804
-0.525804
-0.525804
-0.525804
-0.525804
-0.525804
-0.525804
-0.548176
-0.548176
-0.548176
-0.548176
-0.548176
-0.548176
-0.548176
-0.548176
-0.548176
-0.548176
-0.548176
-0.548176
-0.548176
-0.548176
-0.548177
-0.548177
-0.548177
-0.548177
-0.548177
-0.548177
-0.548177
-0.548177
-0.548177
-0.548177
-0.548177
-0.548177
-0.548177
-0.548177
-0.548177
-0.548177
-0.548177
-0.548177
-0.548178
-0.548178
-0.548178
-0.548178
-0.548178
-0.548178
-0.548178
-0.548178
-0.548178
-0.548178
-0.548178
-0.548179
-0.548179
-0.548179
-0.548179
-0.548179
-0.548179
-0.548179
-0.570552
-0.570551
-0.570551
-0.570551
-0.570551
-0.570551
-0.570551
-0.570551
-0.570551
-0.570551
-0.570551
-0.570551
-0.570551
-0.570551
-0.570551
-0.570552
-0.570552
-0.570552
-0.570552
-0.570552
-0.570552
-0.570552
-0.570552
-0.570552
-0.570552
-0.570552
-0.570552
-0.570552
-0.570552
-0.570552
-0.570553
-0.570553
-0.570553
-0.570553
-0.570553
-0.570553
-0.570553
-0.570553
-0.570553
-0.570553
-0.570553
-0.570554
-0.570554
-0.570554
-0.570554
-0.570554
-0.570554
-0.570554
-0.570554
-0.570554
-0.592923
-0.592923
-0.592923
-0.592923
-0.592924
-0.592924
-0.592924
-0.592924
-0.592924
-0.592924
-0.592924
-0.592925
-0.592925
-0.592925
-0.592925
-0.592925
-0.592925
-0.592925
-0.592925
-0.592926
-0.592926
-0.592926
-0.592926
-0.592926
-0.592926
-0.592926
-0.592926
-0.592927
-0.592927
-0.592927
-0.592927
-0.592927
-0.592927
-0.592927
-0.592927
-0.592928
-0.592928
-0.592928
-0.592928
-0.592928
-0.592928
-0.592928
-0.592928
-0.592929
-0.592929
-0.592929
-0.592929
-0.592929
-0.592929
-0.592929
-0.6153
-0.615301
-0.615301
-0.615301
-0.615301
-0.615301
-0.615301
-0.615301
-0.615301
-0.615301
-0.615301
-0.615301
-0.615301
-0.615301
-0.615301
-0.615301
-0.615301
-0.615301
-0.615301
-0.615302
-0.615302
-0.615302
-0.615302
-0.615302
-0.615302
-0.615302
-0.615302
-0.615302
-0.615302
-0.615303
-0.615303
-0.615303
-0.615303
-0.615303
-0.615303
-0.615303
-0.615303
-0.615303
-0.615304
-0.615304
-0.615304
-0.615304
-0.615304
-0.615304
-0.615304
-0.615304
-0.615305
-0.615305
-0.615305
-0.615305
-0.637676
-0.637676
-0.637676
-0.637676
-0.637676
-0.637676
-0.637676
-0.637676
-0.637676
-0.637677
-0.637677
-0.637677
-0.637677
-0.637677
-0.637677
-0.637677
-0.637677
-0.637677
-0.637677
-0.637677
-0.637677
-0.637677
-0.637677
-0.637678
-0.637678
-0.637678
-0.637678
-0.637678
-0.637678
-0.637678
-0.637678
-0.637678
-0.637678
-0.637678
-0.637679
-0.637679
-0.637679
-0.637679
-0.637679
-0.637679
-0.637679
-0.637679
-0.637679
-0.63768
-0.63768
-0.63768
-0.63768
-0.63768
-0.63768
-0.63768
-0.660047
-0.660048
-0.660048
-0.660048
-0.660048
-0.660049
-0.660049
-0.660049
-0.660049
-0.660049
-0.66005
-0.66005
-0.66005
-0.66005
-0.66005
-0.660051
-0.660051
-0.660051
-0.660051
-0.660051
-0.660051
-0.660052
-0.660052
-0.660052
-0.660052
-0.660052
-0.660052
-0.660052
-0.660053
-0.660053
-0.660053
-0.660053
-0.660053
-0.660053
-0.660054
-0.660054
-0.660054
-0.660054
-0.660054
-0.660054
-0.660054
-0.660055
-0.660055
-0.660055
-0.660055
-0.660055
-0.660055
-0.660055
-0.660055
-0.660056
-0.682432
-0.682432
-0.682432
-0.682431
-0.682431
-0.682431
-0.682431
-0.682431
-0.682431
-0.682431
-0.682431
-0.682431
-0.682431
-0.68243
-0.68243
-0.68243
-0.68243
-0.68243
-0.68243
-0.68243
-0.68243
-0.68243
-0.68243
-0.68243
-0.68243
-0.68243
-0.68243
-0.68243
-0.68243
-0.68243
-0.68243
-0.68243
-0.68243
-0.68243
-0.682431
-0.682431
-0.682431
-0.682431
-0.682431
-0.682431
-0.682431
-0.682431
-0.682431
-0.682431
-0.682431
-0.682431
-0.682431
-0.682431
-0.682432
-0.682432
-0.7048
-0.7048
-0.7048
-0.7048
-0.7048
-0.704801
-0.704801
-0.704801
-0.704801
-0.704801
-0.704802
-0.704802
-0.704802
-0.704802
-0.704802
-0.704802
-0.704803
-0.704803
-0.704803
-0.704803
-0.704803
-0.704803
-0.704803
-0.704804
-0.704804
-0.704804
-0.704804
-0.704804
-0.704804
-0.704804
-0.704804
-0.704805
-0.704805
-0.704805
-0.704805
-0.704805
-0.704805
-0.704805
-0.704805
-0.704806
-0.704806
-0.704806
-0.704806
-0.704806
-0.704806
-0.704806
-0.704806
-0.704807
-0.704807
-0.704807
-0.727185
-0.727185
-0.727185
-0.727185
-0.727184
-0.727184
-0.727184
-0.727184
-0.727184
-0.727183
-0.727183
-0.727183
-0.727183
-0.727183
-0.727183
-0.727183
-0.727182
-0.727182
-0.727182
-0.727182
-0.727182
-0.727182
-0.727182
-0.727182
-0.727182
-0.727182
-0.727182
-0.727182
-0.727182
-0.727182
-0.727182
-0.727182
-0.727182
-0.727182
-0.727182
-0.727182
-0.727182
-0.727182
-0.727182
-0.727182
-0.727182
-0.727182
-0.727182
-0.727183
-0.727183
-0.727183
-0.727183
-0.727183
-0.727183
-0.727183
-0.749555
-0.749555
-0.749555
-0.749555
-0.749555
-0.749555
-0.749555
-0.749555
-0.749555
-0.749555
-0.749555
-0.749555
-0.749555
-0.749555
-0.749555
-0.749556
-0.749556
-0.749556
-0.749556
-0.749556
-0.749556
-0.749556
-0.749556
-0.749556
-0.749556
-0.749556
-0.749556
-0.749556
-0.749556
-0.749556
-0.749557
-0.749557
-0.749557
-0.749557
-0.749557
-0.749557
-0.749557
-0.749557
-0.749557
-0.749557
-0.749557
-0.749557
-0.749558
-0.749558
-0.749558
-0.749558
-0.749558
-0.749558
-0.749558
-0.749558
-0.771933
-0.771933
-0.771933
-0.771933
-0.771933
-0.771933
-0.771933
-0.771933
-0.771933
-0.771933
-0.771933
-0.771933
-0.771932
-0.771932
-0.771932
-0.771932
-0.771932
-0.771932
-0.771932
-0.771932
-0.771932
-0.771932
-0.771932
-0.771932
-0.771932
-0.771932
-0.771932
-0.771932
-0.771932
-0.771933
-0.771933
-0.771933
-0.771933
-0.771933
-0.771933
-0.771933
-0.771933
-0.771933
-0.771933
-0.771933
-0.771933
-0.771933
-0.771933
-0.771933
-0.771933
-0.771933
-0.771934
-0.771934
-0.771934
-0.771934
-0.794306
-0.794306
-0.794306
-0.794306
-0.794306
-0.794307
-0.794307
-0.794307
-0.794307
-0.794307
-0.794307
-0.794307
-0.794307
-0.794307
-0.794307
-0.794307
-0.794307
-0.794307
-0.794307
-0.794307
-0.794307
-0.794307
-0.794307
-0.794307
-0.794307
-0.794307
-0.794307
-0.794308
-0.794308
-0.794308
-0.794308
-0.794308
-0.794308
-0.794308
-0.794308
-0.794308
-0.794308
-0.794308
-0.794308
-0.794308
-0.794309
-0.794309
-0.794309
-0.794309
-0.794309
-0.794309
-0.794309
-0.794309
-0.794309
-0.794309
-0.816682
-0.816682
-0.816682
-0.816682
-0.816682
-0.816682
-0.816682
-0.816682
-0.816682
-0.816682
-0.816682
-0.816682
-0.816682
-0.816682
-0.816682
-0.816682
-0.816682
-0.816682
-0.816682
-0.816682
-0.816682
-0.816682
-0.816683
-0.816683
-0.816683
-0.816683
-0.816683
-0.816683
-0.816683
-0.816683
-0.816683
-0.816683
-0.816683
-0.816683
-0.816683
-0.816683
-0.816683
-0.816683
-0.816684
-0.816684
-0.816684
-0.816684
-0.816684
-0.816684
-0.816684
-0.816684
-0.816684
-0.816684
-0.816684
-0.816685
-0.839058
-0.839058
-0.839058
-0.839058
-0.839058
-0.839057
-0.839057
-0.839057
-0.839057
-0.839057
-0.839057
-0.839057
-0.839057
-0.839058
-0.839058
-0.839058
-0.839058
-0.839058
-0.839058
-0.839058
-0.839058
-0.839058
-0.839058
-0.839058
-0.839058
-0.839058
-0.839058
-0.839058
-0.839058
-0.839058
-0.839058
-0.839058
-0.839058
-0.839059
-0.839059
-0.839059
-0.839059
-0.839059
-0.839059
-0.839059
-0.839059
-0.839059
-0.839059
-0.839059
-0.839059
-0.83906
-0.83906
-0.83906
-0.83906
-0.83906
-0.861432
-0.861432
-0.861432
-0.861432
-0.861432
-0.861432
-0.861433
-0.861433
-0.861433
-0.861433
-0.861433
-0.861433
-0.861433
-0.861433
-0.861433
-0.861433
-0.861433
-0.861433
-0.861433
-0.861433
-0.861433
-0.861433
-0.861433
-0.861433
-0.861434
-0.861434
-0.861434
-0.861434
-0.861434
-0.861434
-0.861434
-0.861434
-0.861434
-0.861434
-0.861434
-0.861434
-0.861434
-0.861434
-0.861434
-0.861434
-0.861435
-0.861435
-0.861435
-0.861435
-0.861435
-0.861435
-0.861435
-0.861435
-0.861435
-0.861435
-0.883805
-0.883805
-0.883805
-0.883805
-0.883805
-0.883805
-0.883805
-0.883806
-0.883806
-0.883806
-0.883806
-0.883806
-0.883806
-0.883806
-0.883806
-0.883806
-0.883807
-0.883807
-0.883807
-0.883807
-0.883807
-0.883807
-0.883807
-0.883807
-0.883807
-0.883807
-0.883808
-0.883808
-0.883808
-0.883808
-0.883808
-0.883808
-0.883808
-0.883808
-0.883808
-0.883809
-0.883809
-0.883809
-0.883809
-0.883809
-0.883809
-0.883809
-0.883809
-0.883809
-0.883809
-0.88381
-0.88381
-0.88381
-0.88381
-0.88381
-0.458679
-0.458679
-0.45868
-0.45868
-0.45868
-0.45868
-0.45868
-0.45868
-0.45868
-0.45868
-0.45868
-0.45868
-0.45868
-0.45868
-0.458681
-0.458681
-0.458681
-0.458681
-0.458681
-0.458681
-0.458681
-0.458681
-0.458681
-0.458681
-0.458681
-0.458682
-0.458682
-0.458682
-0.458682
-0.458682
-0.458682
-0.458682
-0.458682
-0.458682
-0.458682
-0.458682
-0.458683
-0.458683
-0.458683
-0.458683
-0.458683
-0.458683
-0.458683
-0.458683
-0.458683
-0.458683
-0.458683
-0.458684
-0.458684
-0.458684
-0.458684
-0.458684
-0.458684
-0.458684
-0.458684
-0.458684
-0.458684
-0.458684
-0.458685
-0.458685
-0.458685
-0.458685
-0.458685
-0.458685
-0.458685
-0.458685
-0.458685
-0.458685
-0.458686
-0.458686
-0.458686
-0.458686
-0.458686
-0.458686
-0.458686
-0.458686
-0.458686
-0.458686
-0.458687
-0.458687
-0.458687
-0.458687
-0.458687
-0.458687
-0.458687
-0.458687
-0.458687
-0.458687
-0.458688
-0.458688
-0.458688
-0.458688
-0.458688
-0.458688
-0.458688
-0.458688
-0.458688
-0.458688
-0.458689
-0.458689
-0.458689
-0.458689
-0.458689
-0.458689
-0.458689
-0.458689
-0.458689
-0.458689
-0.45869
-0.45869
-0.45869
-0.45869
-0.45869
-0.45869
-0.45869
-0.45869
-0.45869
-0.458691
-0.458691
-0.458691
-0.458691
-0.458691
-0.458691
-0.458691
-0.458691
-0.458691
-0.458692
-0.458692
-0.458692
-0.458692
-0.458692
-0.458692
-0.458692
-0.458692
-0.458692
-0.458693
-0.458693
-0.458693
-0.458693
-0.458693
-0.458693
-0.458693
-0.458693
-0.458694
-0.458694
-0.458694
-0.458694
-0.458694
-0.458694
-0.458694
-0.458694
-0.458695
-0.458695
-0.458695
-0.458695
-0.458695
-0.458695
-0.458695
-0.458695
-0.458696
-0.458696
-0.458696
-0.458696
-0.458696
-0.458696
-0.458696
-0.458696
-0.458697
-0.458697
-0.458697
-0.458697
-0.458697
-0.458697
-0.458697
-0.458698
-0.458698
-0.458698
-0.458698
-0.458698
-0.458698
-0.458698
-0.458699
-0.458699
-0.458699
-0.458699
-0.458699
-0.458699
-0.458699
-0.4587
-0.4587
-0.4587
-0.4587
-0.4587
-0.4587
-0.458701
-0.458701
-0.458701
-0.458701
-0.458701
-0.458701
-0.458701
-0.458702
-0.458702
-0.458702
-0.458702
-0.458702
-0.458702
-0.458703
-0.458703
-0.458703
-0.458703
-0.458703
-0.458704
-0.458704
-0.458704
-0.458704
-0.458704
-0.458704
-0.458705
-0.458705
-0.458705
-0.458705
-0.458705
-0.458705
-0.458706
-0.458706
-0.458706
-0.458706
-0.458706
-0.458707
-0.458707
-0.458707
-0.458707
-0.458707
-0.458708
-0.458708
-0.458708
-0.458708
-0.458708
-0.458709
-0.458709
-0.458709
-0.458709
-0.458709
-0.45871
-0.45871
-0.45871
-0.45871
-0.458711
-0.458711
-0.458711
-0.458711
-0.458711
-0.458712
-0.458712
-0.458712
-0.458712
-0.458713
-0.458713
-0.458713
-0.458713
-0.458714
-0.458714
-0.458714
-0.458714
-0.458715
-0.458715
-0.458715
-0.458715
-0.458716
-0.458716
-0.458716
-0.458716
-0.458717
-0.458717
-0.458717
-0.458717
-0.458718
-0.458718
-0.458718
-0.458718
-0.458719
-0.458719
-0.458719
-0.45872
-0.45872
-0.45872
-0.45872
-0.458721
-0.458721
-0.458721
-0.458722
-0.458722
-0.458722
-0.458723
-0.458723
-0.458723
-0.458724
-0.458724
-0.458724
-0.481055
-0.481055
-0.481055
-0.481055
-0.481055
-0.481055
-0.481055
-0.481055
-0.481055
-0.481055
-0.481055
-0.481056
-0.481056
-0.481056
-0.481056
-0.481056
-0.481056
-0.481056
-0.481056
-0.481056
-0.481056
-0.481056
-0.481057
-0.481057
-0.481057
-0.481057
-0.481057
-0.481057
-0.481057
-0.481057
-0.481057
-0.481057
-0.481057
-0.481057
-0.481058
-0.481058
-0.481058
-0.481058
-0.481058
-0.481058
-0.481058
-0.481058
-0.481058
-0.481058
-0.481058
-0.481059
-0.481059
-0.481059
-0.481059
-0.481059
-0.481059
-0.481059
-0.481059
-0.481059
-0.481059
-0.48106
-0.48106
-0.48106
-0.48106
-0.48106
-0.48106
-0.48106
-0.48106
-0.48106
-0.48106
-0.48106
-0.481061
-0.481061
-0.481061
-0.481061
-0.481061
-0.481061
-0.481061
-0.481061
-0.481061
-0.481061
-0.481062
-0.481062
-0.481062
-0.481062
-0.481062
-0.481062
-0.481062
-0.481062
-0.481062
-0.481062
-0.481063
-0.481063
-0.481063
-0.481063
-0.481063
-0.481063
-0.481063
-0.481063
-0.481063
-0.481064
-0.481064
-0.481064
-0.481064
-0.481064
-0.481064
-0.481064
-0.481064
-0.481064
-0.481064
-0.481065
-0.481065
-0.481065
-0.481065
-0.481065
-0.481065
-0.481065
-0.481065
-0.481065
-0.481066
-0.481066
-0.481066
-0.481066
-0.481066
-0.481066
-0.481066
-0.481066
-0.481066
-0.481067
-0.481067
-0.481067
-0.481067
-0.481067
-0.481067
-0.481067
-0.481067
-0.481068
-0.481068
-0.481068
-0.481068
-0.481068
-0.481068
-0.481068
-0.481068
-0.481069
-0.481069
-0.481069
-0.481069
-0.481069
-0.481069
-0.481069
-0.481069
-0.48107
-0.48107
-0.48107
-0.48107
-0.48107
-0.48107
-0.48107
-0.48107
-0.481071
-0.481071
-0.481071
-0.481071
-0.481071
-0.481071
-0.481071
-0.481072
-0.481072
-0.481072
-0.481072
-0.481072
-0.481072
-0.481072
-0.481073
-0.481073
-0.481073
-0.481073
-0.481073
-0.481073
-0.481073
-0.481074
-0.481074
-0.481074
-0.481074
-0.481074
-0.481074
-0.481074
-0.481075
-0.481075
-0.481075
-0.481075
-0.481075
-0.481075
-0.481075
-0.481076
-0.481076
-0.481076
-0.481076
-0.481076
-0.481076
-0.481077
-0.481077
-0.481077
-0.481077
-0.481077
-0.481077
-0.481078
-0.481078
-0.481078
-0.481078
-0.481078
-0.481078
-0.481079
-0.481079
-0.481079
-0.481079
-0.481079
-0.48108
-0.48108
-0.48108
-0.48108
-0.48108
-0.48108
-0.481081
-0.481081
-0.481081
-0.481081
-0.481081
-0.481082
-0.481082
-0.481082
-0.481082
-0.481082
-0.481083
-0.481083
-0.481083
-0.481083
-0.481083
-0.481084
-0.481084
-0.481084
-0.481084
-0.481084
-0.481085
-0.481085
-0.481085
-0.481085
-0.481086
-0.481086
-0.481086
-0.481086
-0.481086
-0.481087
-0.481087
-0.481087
-0.481087
-0.481088
-0.481088
-0.481088
-0.481088
-0.481089
-0.481089
-0.481089
-0.481089
-0.48109
-0.48109
-0.48109
-0.48109
-0.481091
-0.481091
-0.481091
-0.481091
-0.481092
-0.481092
-0.481092
-0.481092
-0.481093
-0.481093
-0.481093
-0.481094
-0.481094
-0.481094
-0.481094
-0.481095
-0.481095
-0.481095
-0.481096
-0.481096
-0.481096
-0.481096
-0.481097
-0.481097
-0.481097
-0.481098
-0.481098
-0.481098
-0.481099
-0.481099
-0.481099
-0.4811
-0.4811
-0.4811
-0.481101
-0.481101
-0.503429
-0.50343
-0.50343
-0.50343
-0.50343
-0.50343
-0.50343
-0.50343
-0.50343
-0.50343
-0.50343
-0.50343
-0.503431
-0.503431
-0.503431
-0.503431
-0.503431
-0.503431
-0.503431
-0.503431
-0.503431
-0.503431
-0.503431
-0.503431
-0.503432
-0.503432
-0.503432
-0.503432
-0.503432
-0.503432
-0.503432
-0.503432
-0.503432
-0.503432
-0.503433
-0.503433
-0.503433
-0.503433
-0.503433
-0.503433
-0.503433
-0.503433
-0.503433
-0.503433
-0.503433
-0.503434
-0.503434
-0.503434
-0.503434
-0.503434
-0.503434
-0.503434
-0.503434
-0.503434
-0.503434
-0.503435
-0.503435
-0.503435
-0.503435
-0.503435
-0.503435
-0.503435
-0.503435
-0.503435
-0.503436
-0.503436
-0.503436
-0.503436
-0.503436
-0.503436
-0.503436
-0.503436
-0.503436
-0.503436
-0.503437
-0.503437
-0.503437
-0.503437
-0.503437
-0.503437
-0.503437
-0.503437
-0.503437
-0.503438
-0.503438
-0.503438
-0.503438
-0.503438
-0.503438
-0.503438
-0.503438
-0.503438
-0.503438
-0.503439
-0.503439
-0.503439
-0.503439
-0.503439
-0.503439
-0.503439
-0.503439
-0.503439
-0.50344
-0.50344
-0.50344
-0.50344
-0.50344
-0.50344
-0.50344
-0.50344
-0.503441
-0.503441
-0.503441
-0.503441
-0.503441
-0.503441
-0.503441
-0.503441
-0.503441
-0.503442
-0.503442
-0.503442
-0.503442
-0.503442
-0.503442
-0.503442
-0.503442
-0.503443
-0.503443
-0.503443
-0.503443
-0.503443
-0.503443
-0.503443
-0.503443
-0.503444
-0.503444
-0.503444
-0.503444
-0.503444
-0.503444
-0.503444
-0.503444
-0.503445
-0.503445
-0.503445
-0.503445
-0.503445
-0.503445
-0.503445
-0.503445
-0.503446
-0.503446
-0.503446
-0.503446
-0.503446
-0.503446
-0.503446
-0.503447
-0.503447
-0.503447
-0.503447
-0.503447
-0.503447
-0.503447
-0.503448
-0.503448
-0.503448
-0.503448
-0.503448
-0.503448
-0.503448
-0.503449
-0.503449
-0.503449
-0.503449
-0.503449
-0.503449
-0.503449
-0.50345
-0.50345
-0.50345
-0.50345
-0.50345
-0.50345
-0.503451
-0.503451
-0.503451
-0.503451
-0.503451
-0.503451
-0.503452
-0.503452
-0.503452
-0.503452
-0.503452
-0.503452
-0.503453
-0.503453
-0.503453
-0.503453
-0.503453
-0.503453
-0.503454
-0.503454
-0.503454
-0.503454
-0.503454
-0.503455
-0.503455
-0.503455
-0.503455
-0.503455
-0.503455
-0.503456
-0.503456
-0.503456
-0.503456
-0.503456
-0.503457
-0.503457
-0.503457
-0.503457
-0.503457
-0.503458
-0.503458
-0.503458
-0.503458
-0.503458
-0.503459
-0.503459
-0.503459
-0.503459
-0.503459
-0.50346
-0.50346
-0.50346
-0.50346
-0.503461
-0.503461
-0.503461
-0.503461
-0.503461
-0.503462
-0.503462
-0.503462
-0.503462
-0.503463
-0.503463
-0.503463
-0.503463
-0.503464
-0.503464
-0.503464
-0.503464
-0.503465
-0.503465
-0.503465
-0.503465
-0.503466
-0.503466
-0.503466
-0.503466
-0.503467
-0.503467
-0.503467
-0.503467
-0.503468
-0.503468
-0.503468
-0.503468
-0.503469
-0.503469
-0.503469
-0.50347
-0.50347
-0.50347
-0.503471
-0.503471
-0.503471
-0.503471
-0.503472
-0.503472
-0.503472
-0.503473
-0.503473
-0.503473
-0.503474
-0.503474
-0.503474
-0.503475
-0.503475
-0.503475
-0.503476
-0.503476
-0.503476
-0.503477
-0.503477
-0.503477
-0.503478
-0.525804
-0.525804
-0.525805
-0.525805
-0.525805
-0.525805
-0.525805
-0.525805
-0.525805
-0.525805
-0.525805
-0.525805
-0.525806
-0.525806
-0.525806
-0.525806
-0.525806
-0.525806
-0.525806
-0.525806
-0.525806
-0.525806
-0.525807
-0.525807
-0.525807
-0.525807
-0.525807
-0.525807
-0.525807
-0.525807
-0.525807
-0.525807
-0.525807
-0.525808
-0.525808
-0.525808
-0.525808
-0.525808
-0.525808
-0.525808
-0.525808
-0.525808
-0.525808
-0.525809
-0.525809
-0.525809
-0.525809
-0.525809
-0.525809