/*--------------------------------*- C++ -*----------------------------------*\
| =========                 |                                                 |
| \\      /  F ield         | OpenFOAM: The Open Source CFD Toolbox           |
|  \\    /   O peration     | Version:  2.4.0                                 |
|   \\  /    A nd           | Web:      www.OpenFOAM.org                      |
|    \\/     M anipulation  |                                                 |
\*---------------------------------------------------------------------------*/
FoamFile
{
    version     2.0;
    format      ascii;
    class       volVectorField;
    location    "3.3";
    object      U;
}
// * * * * * * * * * * * * * * * * * * * * * * * * * * * * * * * * * * * * * //

dimensions      [0 1 -1 0 0 0 0];

internalField   nonuniform List<vector> 
125
(
(-8.51653e-09 -0.00114741 0)
(-1.4925e-08 -0.00114741 0)
(-1.48637e-09 -0.0011474 0)
(1.61763e-08 -0.0011474 0)
(1.1074e-08 -0.00114741 0)
(-8.21587e-09 -0.00114741 0)
(-1.441e-08 -0.00114741 0)
(-1.48739e-09 -0.0011474 0)
(1.56459e-08 -0.0011474 0)
(1.075e-08 -0.00114741 0)
(-7.88925e-09 -0.00114741 0)
(-1.3841e-08 -0.00114741 0)
(-1.47646e-09 -0.00114741 0)
(1.50581e-08 -0.0011474 0)
(1.03868e-08 -0.00114741 0)
(-7.53974e-09 -0.00114741 0)
(-1.32239e-08 -0.00114741 0)
(-1.45461e-09 -0.00114741 0)
(1.44195e-08 -0.0011474 0)
(9.98887e-09 -0.00114741 0)
(-7.17048e-09 -0.00114741 0)
(-1.2565e-08 -0.00114741 0)
(-1.42288e-09 -0.00114741 0)
(1.37365e-08 -0.0011474 0)
(9.5605e-09 -0.00114741 0)
(-6.78465e-09 -0.00114741 0)
(-1.18707e-08 -0.00114741 0)
(-1.38228e-09 -0.00114741 0)
(1.30159e-08 -0.0011474 0)
(9.10611e-09 -0.00114741 0)
(-6.3855e-09 -0.00114741 0)
(-1.11474e-08 -0.00114741 0)
(-1.33385e-09 -0.00114741 0)
(1.22643e-08 -0.0011474 0)
(8.63017e-09 -0.00114741 0)
(-5.97631e-09 -0.00114741 0)
(-1.04016e-08 -0.00114741 0)
(-1.27861e-09 -0.00114741 0)
(1.14888e-08 -0.0011474 0)
(8.13715e-09 -0.00114741 0)
(-5.56043e-09 -0.00114741 0)
(-9.63979e-09 -0.00114741 0)
(-1.21758e-09 -0.00114741 0)
(1.0696e-08 -0.0011474 0)
(7.63158e-09 -0.00114741 0)
(-5.14123e-09 -0.00114741 0)
(-8.86874e-09 -0.00114741 0)
(-1.15178e-09 -0.00114741 0)
(9.89299e-09 -0.0011474 0)
(7.11802e-09 -0.00114741 0)
(-4.72212e-09 -0.00114741 0)
(-8.0951e-09 -0.00114741 0)
(-1.08222e-09 -0.00114741 0)
(9.08679e-09 -0.0011474 0)
(6.60106e-09 -0.00114741 0)
(-4.30653e-09 -0.00114741 0)
(-7.32562e-09 -0.00114741 0)
(-1.00994e-09 -0.00114741 0)
(8.28445e-09 -0.0011474 0)
(6.0853e-09 -0.00114741 0)
(-3.89794e-09 -0.00114741 0)
(-6.56707e-09 -0.00114741 0)
(-9.35939e-10 -0.00114741 0)
(7.49306e-09 -0.00114741 0)
(5.57539e-09 -0.00114741 0)
(-3.49981e-09 -0.00114741 0)
(-5.82627e-09 -0.00114741 0)
(-8.61255e-10 -0.00114741 0)
(6.71973e-09 -0.00114741 0)
(5.07598e-09 -0.00114741 0)
(-3.11566e-09 -0.00114741 0)
(-5.11002e-09 -0.00114741 0)
(-7.86908e-10 -0.00114741 0)
(5.97161e-09 -0.00114741 0)
(4.59177e-09 -0.00114741 0)
(-2.749e-09 -0.00114741 0)
(-4.42517e-09 -0.00114741 0)
(-7.13928e-10 -0.00114741 0)
(5.25586e-09 -0.00114741 0)
(4.12745e-09 -0.00114741 0)
(-2.40333e-09 -0.00114741 0)
(-3.77855e-09 -0.00114741 0)
(-6.43355e-10 -0.00114741 0)
(4.57964e-09 -0.00114741 0)
(3.68778e-09 -0.00114741 0)
(-2.08217e-09 -0.00114741 0)
(-3.17698e-09 -0.00114741 0)
(-5.76233e-10 -0.00114741 0)
(3.95013e-09 -0.00114741 0)
(3.2775e-09 -0.00114741 0)
(-1.78905e-09 -0.00114741 0)
(-2.62726e-09 -0.00114741 0)
(-5.1362e-10 -0.00114741 0)
(3.37448e-09 -0.00114741 0)
(2.9014e-09 -0.00114741 0)
(-1.52746e-09 -0.00114741 0)
(-2.13618e-09 -0.00114741 0)
(-4.56588e-10 -0.00114741 0)
(2.85986e-09 -0.00114741 0)
(2.56432e-09 -0.00114741 0)
(-1.30091e-09 -0.00114741 0)
(-1.71049e-09 -0.00114741 0)
(-4.06226e-10 -0.00114741 0)
(2.41342e-09 -0.00114741 0)
(2.27111e-09 -0.00114741 0)
(-1.11288e-09 -0.00114741 0)
(-1.35691e-09 -0.00114741 0)
(-3.63641e-10 -0.00114741 0)
(2.04228e-09 -0.00114741 0)
(2.02666e-09 -0.00114741 0)
(-9.66848e-10 -0.00114741 0)
(-1.08211e-09 -0.00114741 0)
(-3.29978e-10 -0.00114741 0)
(1.7536e-09 -0.00114741 0)
(1.83597e-09 -0.00114741 0)
(-8.66314e-10 -0.00114741 0)
(-8.92809e-10 -0.00114741 0)
(-3.06432e-10 -0.00114741 0)
(1.5546e-09 -0.00114741 0)
(1.70417e-09 -0.00114741 0)
(-8.14673e-10 -0.00114741 0)
(-7.95507e-10 -0.00114741 0)
(-2.94202e-10 -0.00114741 0)
(1.45232e-09 -0.00114741 0)
(1.63632e-09 -0.00114741 0)
)
;

boundaryField
{
    BotWall
    {
        type            fixedValue;
        value           nonuniform 0();
    }
    FreeStream
    {
        type            zeroGradient;
    }
    FrontNBack
    {
        type            empty;
    }
    LeftSide
    {
        type            symmetryPlane;
    }
    RightSide
    {
        type            symmetryPlane;
    }
    procBoundary3to2
    {
        type            processor;
        value           nonuniform List<vector> 5((-8.78822e-09 -0.00114741 0) (-1.53798e-08 -0.00114741 0) (-1.47237e-09 -0.0011474 0) (1.66431e-08 -0.0011474 0) (1.13548e-08 -0.00114741 0));
    }
}


// ************************************************************************* //
