/*--------------------------------*- C++ -*----------------------------------*\
| =========                 |                                                 |
| \\      /  F ield         | OpenFOAM: The Open Source CFD Toolbox           |
|  \\    /   O peration     | Version:  2.4.0                                 |
|   \\  /    A nd           | Web:      www.OpenFOAM.org                      |
|    \\/     M anipulation  |                                                 |
\*---------------------------------------------------------------------------*/
FoamFile
{
    version     2.0;
    format      ascii;
    class       volVectorField;
    location    "0.01";
    object      U;
}
// * * * * * * * * * * * * * * * * * * * * * * * * * * * * * * * * * * * * * //

dimensions      [0 1 -1 0 0 0 0];

internalField   nonuniform List<vector> 
125
(
(5.62717e-06 -0.0210189 0)
(5.61533e-06 -0.021019 0)
(5.60379e-06 -0.021019 0)
(5.59255e-06 -0.0210191 0)
(5.58161e-06 -0.0210191 0)
(5.57096e-06 -0.0210192 0)
(5.5606e-06 -0.0210192 0)
(5.55053e-06 -0.0210193 0)
(5.54075e-06 -0.0210193 0)
(5.53125e-06 -0.0210194 0)
(5.52204e-06 -0.0210194 0)
(5.5131e-06 -0.0210195 0)
(5.50444e-06 -0.0210195 0)
(5.49605e-06 -0.0210196 0)
(5.48793e-06 -0.0210196 0)
(5.48008e-06 -0.0210197 0)
(5.47248e-06 -0.0210197 0)
(5.46513e-06 -0.0210198 0)
(5.45803e-06 -0.0210198 0)
(5.45116e-06 -0.0210199 0)
(5.44452e-06 -0.0210199 0)
(5.4381e-06 -0.02102 0)
(5.43188e-06 -0.02102 0)
(5.42584e-06 -0.0210201 0)
(5.41998e-06 -0.0210201 0)
(5.41427e-06 -0.0210202 0)
(5.40869e-06 -0.0210202 0)
(5.40323e-06 -0.0210203 0)
(5.39785e-06 -0.0210203 0)
(5.39254e-06 -0.0210204 0)
(5.38725e-06 -0.0210204 0)
(5.38196e-06 -0.0210205 0)
(5.37663e-06 -0.0210205 0)
(5.37122e-06 -0.0210206 0)
(5.36569e-06 -0.0210206 0)
(5.35999e-06 -0.0210207 0)
(5.35408e-06 -0.0210207 0)
(5.34791e-06 -0.0210208 0)
(5.34141e-06 -0.0210208 0)
(5.33453e-06 -0.0210209 0)
(5.32721e-06 -0.0210209 0)
(5.31938e-06 -0.0210209 0)
(5.31097e-06 -0.021021 0)
(5.30191e-06 -0.021021 0)
(5.29213e-06 -0.0210211 0)
(5.28155e-06 -0.0210211 0)
(5.27008e-06 -0.0210212 0)
(5.25765e-06 -0.0210212 0)
(5.24417e-06 -0.0210213 0)
(5.22955e-06 -0.0210213 0)
(5.21371e-06 -0.0210214 0)
(5.19657e-06 -0.0210214 0)
(5.17802e-06 -0.0210214 0)
(5.15799e-06 -0.0210215 0)
(5.13639e-06 -0.0210215 0)
(5.11313e-06 -0.0210216 0)
(5.08812e-06 -0.0210216 0)
(5.0613e-06 -0.0210217 0)
(5.03257e-06 -0.0210217 0)
(5.00186e-06 -0.0210217 0)
(4.96911e-06 -0.0210218 0)
(4.93424e-06 -0.0210218 0)
(4.8972e-06 -0.0210219 0)
(4.85791e-06 -0.0210219 0)
(4.81635e-06 -0.0210219 0)
(4.77245e-06 -0.021022 0)
(4.72617e-06 -0.021022 0)
(4.67748e-06 -0.0210221 0)
(4.62636e-06 -0.0210221 0)
(4.57276e-06 -0.0210221 0)
(4.51668e-06 -0.0210222 0)
(4.45808e-06 -0.0210222 0)
(4.39696e-06 -0.0210222 0)
(4.33329e-06 -0.0210223 0)
(4.26707e-06 -0.0210223 0)
(4.19827e-06 -0.0210223 0)
(4.12688e-06 -0.0210224 0)
(4.05287e-06 -0.0210224 0)
(3.97623e-06 -0.0210224 0)
(3.89693e-06 -0.0210224 0)
(3.81492e-06 -0.0210225 0)
(3.73018e-06 -0.0210225 0)
(3.64266e-06 -0.0210225 0)
(3.55231e-06 -0.0210225 0)
(3.45909e-06 -0.0210225 0)
(3.36294e-06 -0.0210226 0)
(3.26381e-06 -0.0210226 0)
(3.16167e-06 -0.0210226 0)
(3.05647e-06 -0.0210226 0)
(2.9482e-06 -0.0210226 0)
(2.83684e-06 -0.0210226 0)
(2.72242e-06 -0.0210226 0)
(2.605e-06 -0.0210226 0)
(2.48464e-06 -0.0210227 0)
(2.36149e-06 -0.0210227 0)
(2.23571e-06 -0.0210227 0)
(2.10752e-06 -0.0210227 0)
(1.97722e-06 -0.0210227 0)
(1.84513e-06 -0.0210227 0)
(1.71167e-06 -0.0210226 0)
(1.57728e-06 -0.0210226 0)
(1.44251e-06 -0.0210226 0)
(1.30793e-06 -0.0210226 0)
(1.17416e-06 -0.0210226 0)
(1.04189e-06 -0.0210226 0)
(9.11813e-07 -0.0210226 0)
(7.84669e-07 -0.0210225 0)
(6.61194e-07 -0.0210225 0)
(5.4212e-07 -0.0210225 0)
(4.2816e-07 -0.0210225 0)
(3.19989e-07 -0.0210224 0)
(2.18229e-07 -0.0210224 0)
(1.23435e-07 -0.0210224 0)
(3.60813e-08 -0.0210223 0)
(-4.34534e-08 -0.0210223 0)
(-1.14894e-07 -0.0210223 0)
(-1.78078e-07 -0.0210222 0)
(-2.32959e-07 -0.0210222 0)
(-2.7961e-07 -0.0210222 0)
(-3.1822e-07 -0.0210221 0)
(-3.49091e-07 -0.0210221 0)
(-3.72628e-07 -0.021022 0)
(-3.89344e-07 -0.021022 0)
(-3.99864e-07 -0.021022 0)
(-4.04872e-07 -0.0210219 0)
)
;

boundaryField
{
    BotWall
    {
        type            fixedValue;
        value           nonuniform 0();
    }
    FreeStream
    {
        type            zeroGradient;
    }
    FrontNBack
    {
        type            empty;
    }
    LeftSide
    {
        type            symmetryPlane;
    }
    RightSide
    {
        type            symmetryPlane;
    }
    procBoundary0to1
    {
        type            processor;
        value           uniform (5.63931e-06 -0.0210189 0);
    }
    procBoundary0to2
    {
        type            processor;
        value           nonuniform List<vector> 
75
(
(3.29684e-06 -0.0210309 0)
(3.22981e-06 -0.0210309 0)
(3.16129e-06 -0.0210308 0)
(3.09117e-06 -0.0210308 0)
(3.01936e-06 -0.0210308 0)
(2.94575e-06 -0.0210307 0)
(2.87027e-06 -0.0210307 0)
(2.7928e-06 -0.0210307 0)
(2.71328e-06 -0.0210307 0)
(2.63161e-06 -0.0210306 0)
(2.54772e-06 -0.0210306 0)
(2.46154e-06 -0.0210306 0)
(2.373e-06 -0.0210305 0)
(2.28205e-06 -0.0210305 0)
(2.18862e-06 -0.0210305 0)
(2.09268e-06 -0.0210305 0)
(1.99418e-06 -0.0210304 0)
(1.89309e-06 -0.0210304 0)
(1.78938e-06 -0.0210304 0)
(1.68303e-06 -0.0210304 0)
(1.57401e-06 -0.0210304 0)
(1.46232e-06 -0.0210303 0)
(1.34793e-06 -0.0210303 0)
(1.23083e-06 -0.0210303 0)
(1.11101e-06 -0.0210303 0)
(9.88445e-07 -0.0210303 0)
(8.63114e-07 -0.0210303 0)
(7.34988e-07 -0.0210302 0)
(6.04035e-07 -0.0210302 0)
(4.70212e-07 -0.0210302 0)
(3.3347e-07 -0.0210302 0)
(1.93751e-07 -0.0210302 0)
(5.09888e-08 -0.0210302 0)
(-9.4888e-08 -0.0210302 0)
(-2.43956e-07 -0.0210302 0)
(-3.96295e-07 -0.0210302 0)
(-5.5198e-07 -0.0210302 0)
(-7.11084e-07 -0.0210302 0)
(-8.73664e-07 -0.0210302 0)
(-1.03976e-06 -0.0210301 0)
(-1.2094e-06 -0.0210302 0)
(-1.38255e-06 -0.0210302 0)
(-1.55917e-06 -0.0210302 0)
(-1.73914e-06 -0.0210302 0)
(-1.92231e-06 -0.0210302 0)
(-2.10844e-06 -0.0210302 0)
(-2.29725e-06 -0.0210302 0)
(-2.48835e-06 -0.0210302 0)
(-2.68129e-06 -0.0210302 0)
(-2.87553e-06 -0.0210302 0)
(-3.07045e-06 -0.0210302 0)
(-3.26533e-06 -0.0210303 0)
(-3.45939e-06 -0.0210303 0)
(-3.65179e-06 -0.0210303 0)
(-3.84161e-06 -0.0210303 0)
(-4.02789e-06 -0.0210304 0)
(-4.20965e-06 -0.0210304 0)
(-4.38589e-06 -0.0210304 0)
(-4.55563e-06 -0.0210305 0)
(-4.7179e-06 -0.0210305 0)
(-4.87179e-06 -0.0210305 0)
(-5.01647e-06 -0.0210306 0)
(-5.1512e-06 -0.0210306 0)
(-5.27534e-06 -0.0210306 0)
(-5.38838e-06 -0.0210307 0)
(-5.48997e-06 -0.0210307 0)
(-5.57988e-06 -0.0210308 0)
(-5.65806e-06 -0.0210308 0)
(-5.72461e-06 -0.0210309 0)
(-5.7798e-06 -0.0210309 0)
(-5.82403e-06 -0.0210309 0)
(-5.85785e-06 -0.021031 0)
(-5.88195e-06 -0.021031 0)
(-5.89717e-06 -0.0210311 0)
(-5.90441e-06 -0.0210311 0)
)
;
    }
    procBoundary0to3
    {
        type            processor;
        value           nonuniform List<vector> 
50
(
(6.29051e-06 -0.0210325 0)
(6.22358e-06 -0.0210325 0)
(6.15709e-06 -0.0210325 0)
(6.09105e-06 -0.0210324 0)
(6.02545e-06 -0.0210324 0)
(5.9603e-06 -0.0210324 0)
(5.8956e-06 -0.0210323 0)
(5.83135e-06 -0.0210323 0)
(5.76754e-06 -0.0210323 0)
(5.70418e-06 -0.0210322 0)
(5.64126e-06 -0.0210322 0)
(5.57879e-06 -0.0210321 0)
(5.51676e-06 -0.0210321 0)
(5.45516e-06 -0.0210321 0)
(5.394e-06 -0.021032 0)
(5.33327e-06 -0.021032 0)
(5.27296e-06 -0.021032 0)
(5.21307e-06 -0.0210319 0)
(5.15359e-06 -0.0210319 0)
(5.09451e-06 -0.0210319 0)
(5.03582e-06 -0.0210318 0)
(4.97751e-06 -0.0210318 0)
(4.91955e-06 -0.0210318 0)
(4.86195e-06 -0.0210317 0)
(4.80467e-06 -0.0210317 0)
(4.7477e-06 -0.0210317 0)
(4.69101e-06 -0.0210316 0)
(4.63458e-06 -0.0210316 0)
(4.57837e-06 -0.0210316 0)
(4.52236e-06 -0.0210315 0)
(4.46651e-06 -0.0210315 0)
(4.41079e-06 -0.0210315 0)
(4.35514e-06 -0.0210314 0)
(4.29953e-06 -0.0210314 0)
(4.2439e-06 -0.0210314 0)
(4.1882e-06 -0.0210313 0)
(4.13238e-06 -0.0210313 0)
(4.07638e-06 -0.0210313 0)
(4.02012e-06 -0.0210313 0)
(3.96354e-06 -0.0210312 0)
(3.90657e-06 -0.0210312 0)
(3.84914e-06 -0.0210312 0)
(3.79115e-06 -0.0210311 0)
(3.73253e-06 -0.0210311 0)
(3.6732e-06 -0.0210311 0)
(3.61305e-06 -0.021031 0)
(3.552e-06 -0.021031 0)
(3.48995e-06 -0.021031 0)
(3.42681e-06 -0.0210309 0)
(3.36247e-06 -0.0210309 0)
)
;
    }
}


// ************************************************************************* //
