/*--------------------------------*- C++ -*----------------------------------*\
| =========                 |                                                 |
| \\      /  F ield         | OpenFOAM: The Open Source CFD Toolbox           |
|  \\    /   O peration     | Version:  2.4.0                                 |
|   \\  /    A nd           | Web:      www.OpenFOAM.org                      |
|    \\/     M anipulation  |                                                 |
\*---------------------------------------------------------------------------*/
FoamFile
{
    version     2.0;
    format      ascii;
    class       surfaceScalarField;
    location    "1.9";
    object      phi;
}
// * * * * * * * * * * * * * * * * * * * * * * * * * * * * * * * * * * * * * //

dimensions      [0 3 -1 0 0 0 0];

internalField   nonuniform List<scalar> 
220
(
1.24784e-18
-1.24772e-18
1.0144e-18
2.33485e-19
-7.24171e-19
1.73826e-18
-1.50992e-18
7.85419e-19
-1.50975e-18
3.8285e-18
-5.07201e-18
3.08247e-18
9.86656e-19
-2.20462e-18
7.03528e-18
-4.63079e-18
3.21944e-18
-6.13481e-18
6.52445e-18
-1.15915e-17
5.22369e-18
2.29537e-18
-3.74584e-18
1.60156e-17
-7.88828e-18
7.37018e-18
-1.40173e-17
9.32543e-18
-2.09114e-17
7.4397e-18
4.18956e-18
-5.34889e-18
2.88155e-17
-1.1275e-17
1.33048e-17
-2.52864e-17
1.22511e-17
-3.31567e-17
9.73946e-18
6.70987e-18
-7.02418e-18
4.55905e-17
-1.48072e-17
2.10964e-17
-4.0088e-17
1.5289e-17
-4.84399e-17
1.2121e-17
9.88659e-18
-8.76572e-18
6.64886e-17
-1.84784e-17
3.08174e-17
-5.85609e-17
1.84665e-17
-6.69006e-17
1.4598e-17
1.37636e-17
-1.05868e-17
9.16844e-17
-2.23178e-17
4.25564e-17
-8.08735e-17
2.17675e-17
-8.86625e-17
1.71629e-17
1.83763e-17
-1.24797e-17
1.21337e-16
-2.63103e-17
5.63945e-17
-1.07179e-16
2.5222e-17
-1.13879e-16
1.98317e-17
2.37741e-17
-1.44595e-17
1.55638e-16
-3.04881e-17
7.24301e-17
-1.37663e-16
2.88e-17
-1.42674e-16
2.25973e-17
2.99838e-17
-1.65184e-17
1.94763e-16
-3.48221e-17
9.07399e-17
-1.72481e-16
3.25202e-17
-1.7519e-16
2.54818e-17
3.70283e-17
-1.86801e-17
2.38932e-16
-3.93316e-17
1.11397e-16
-2.1181e-16
3.63934e-17
-2.11579e-16
2.84809e-17
4.49459e-17
-2.09437e-17
2.88363e-16
-4.40242e-17
1.34481e-16
-2.55832e-16
4.06274e-17
-2.52204e-16
3.16206e-17
5.39566e-17
-2.3327e-17
3.43315e-16
-4.9119e-17
1.60276e-16
-3.04949e-16
4.5406e-17
-2.97608e-16
3.47199e-17
6.4645e-17
-2.56501e-17
4.03688e-16
-5.48084e-17
1.89437e-16
-3.59756e-16
5.01666e-17
-4.5081e-16
3.82226e-17
7.65889e-17
-2.81718e-17
4.70082e-16
-6.07992e-17
2.22064e-16
-5.45163e-16
5.25798e-17
-3.15503e-10
4.26261e-17
-3.15504e-10
-3.1221e-17
-3.15504e-10
-6.50437e-17
-3.15504e-10
-3.15503e-10
5.46204e-17
-3.15503e-10
4.24234e-17
-3.15504e-10
-3.14177e-17
-3.15504e-10
-6.63403e-17
-3.15504e-10
-3.15503e-10
6.03308e-17
-3.15503e-10
4.21853e-17
-3.15504e-10
-3.12968e-17
-3.15504e-10
-7.21579e-17
-3.15504e-10
-3.15503e-10
5.30908e-17
-3.15503e-10
4.13826e-17
-3.15504e-10
-3.10706e-17
-3.15504e-10
-6.43852e-17
-3.15504e-10
-3.15503e-10
5.04859e-17
-3.15503e-10
3.97277e-17
-3.15504e-10
-2.98918e-17
-3.15504e-10
-6.14081e-17
-3.15504e-10
-3.15503e-10
4.95015e-17
-3.15503e-10
3.81846e-17
-3.15504e-10
-2.8776e-17
-3.15504e-10
-6.01307e-17
-3.15504e-10
-3.15503e-10
4.81546e-17
-3.15503e-10
3.68706e-17
-3.15504e-10
-2.78816e-17
-3.15504e-10
-5.8506e-17
-3.15504e-10
-3.15503e-10
4.64011e-17
-3.15503e-10
3.55932e-17
-3.15504e-10
-2.70251e-17
-3.15504e-10
-5.64764e-17
-3.15504e-10
-3.15503e-10
4.45983e-17
-3.15503e-10
3.42851e-17
-3.15503e-10
-2.61376e-17
-3.15504e-10
-5.44056e-17
-3.15504e-10
-3.15503e-10
4.28616e-17
3.29656e-17
-2.52359e-17
-5.24074e-17
)
;

boundaryField
{
    BotWall
    {
        type            calculated;
        value           nonuniform List<scalar> 5(-3.39152e-23 5.145e-23 4.61987e-22 4.00033e-22 -7.7348e-23);
    }
    FreeStream
    {
        type            calculated;
        value           nonuniform 0();
    }
    FrontNBack
    {
        type            empty;
        value           nonuniform 0();
    }
    LeftSide
    {
        type            symmetryPlane;
        value           uniform 0;
    }
    RightSide
    {
        type            symmetryPlane;
        value           uniform 0;
    }
    procBoundary0to1
    {
        type            processor;
        value           nonuniform List<scalar> 5(-3.15503e-10 -3.15503e-10 -3.15504e-10 -3.15504e-10 -3.15503e-10);
    }
}


// ************************************************************************* //
