/*--------------------------------*- C++ -*----------------------------------*\
| =========                 |                                                 |
| \\      /  F ield         | OpenFOAM: The Open Source CFD Toolbox           |
|  \\    /   O peration     | Version:  2.4.0                                 |
|   \\  /    A nd           | Web:      www.OpenFOAM.org                      |
|    \\/     M anipulation  |                                                 |
\*---------------------------------------------------------------------------*/
FoamFile
{
    version     2.0;
    format      ascii;
    class       volScalarField;
    location    "0.009";
    object      p;
}
// * * * * * * * * * * * * * * * * * * * * * * * * * * * * * * * * * * * * * //

dimensions      [1 -1 -2 0 0 0 0];

internalField   nonuniform List<scalar> 
125
(
0.0390708
-0.0307233
0.122651
-0.800478
-0.107142
0.0250502
0.00592627
-0.00924873
-0.0123982
-0.0118354
-0.0114202
-0.011466
-0.0116501
-0.0118282
-0.0119892
-0.0121456
-0.0123028
-0.0124613
-0.0126206
-0.0127804
-0.0129409
-0.0131018
-0.0132634
-0.0134256
-0.0135884
-0.0539338
-0.0542457
-0.0545588
-0.054873
-0.0551884
-0.0555049
-0.0558226
-0.0561415
-0.0564615
-0.0567828
-0.0571052
-0.0574288
-0.0577535
-0.0580795
-0.0584067
-0.0587351
-0.0590647
-0.0593955
-0.0597275
-0.0600608
-0.0603952
-0.0607309
-0.0610679
-0.0614061
-0.0617455
-0.0620862
-0.0624281
-0.0627713
-0.0631157
-0.0634614
-0.0638084
-0.0641567
-0.0645063
-0.0648571
-0.0652092
-0.0655626
-0.0659174
-0.0662734
-0.0666307
-0.0669894
-0.0673494
-0.0677107
-0.0680733
-0.0684373
-0.0688026
-0.0691692
-0.0695372
-0.0699066
-0.0702773
-0.0706494
-0.0710228
-0.0713976
-0.0717738
-0.0721514
-0.0725304
-0.0729108
-0.0732925
-0.0736757
-0.0740603
-0.0744463
-0.0748337
-0.0752226
-0.0756128
-0.0760046
-0.0763977
-0.0767923
-0.0771884
-0.0775859
-0.0779849
-0.0783853
-0.0787872
-0.0791906
-0.0795955
-0.0800019
-0.0804098
-0.0808192
-0.08123
-0.0816424
-0.0820563
-0.0824718
-0.0828887
-0.0833072
-0.0837273
-0.0841489
-0.084572
-0.0849967
-0.085423
-0.0858508
-0.0862802
-0.0867112
-0.0871437
-0.0875779
-0.0880137
-0.088451
-0.08889
-0.0893306
-0.0897728
-0.0902166
-0.0906621
-0.0911092
)
;

boundaryField
{
    BotWall
    {
        type            calculated;
        value           uniform 0.0440142;
    }
    FreeStream
    {
        type            calculated;
        value           uniform -0.0913331;
    }
    FrontNBack
    {
        type            empty;
    }
    LeftSide
    {
        type            symmetryPlane;
    }
    RightSide
    {
        type            symmetryPlane;
    }
    procBoundary7to4
    {
        type            processor;
        value           nonuniform List<scalar> 
50
(
0.0391167
-0.0305922
0.122478
-0.799483
-0.107019
0.0250172
0.0059101
-0.00925279
-0.0123998
-0.0118376
-0.0114228
-0.0114687
-0.0116527
-0.0118309
-0.0119919
-0.0121482
-0.0123054
-0.0124639
-0.0126232
-0.012783
-0.0129434
-0.0131044
-0.013266
-0.0134281
-0.0135909
-0.0808205
-0.0812314
-0.0816438
-0.0820577
-0.0824731
-0.0828901
-0.0833086
-0.0837287
-0.0841502
-0.0845734
-0.0849981
-0.0854244
-0.0858522
-0.0862816
-0.0867126
-0.0871452
-0.0875793
-0.0880151
-0.0884525
-0.0888915
-0.0893321
-0.0897743
-0.0902181
-0.0906636
-0.0911105
)
;
    }
    procBoundary7to5
    {
        type            processor;
        value           nonuniform List<scalar> 
75
(
-0.0539355
-0.0542474
-0.0545605
-0.0548747
-0.05519
-0.0555066
-0.0558243
-0.0561431
-0.0564632
-0.0567844
-0.0571068
-0.0574303
-0.0577551
-0.0580811
-0.0584083
-0.0587366
-0.0590662
-0.059397
-0.059729
-0.0600623
-0.0603967
-0.0607324
-0.0610693
-0.0614075
-0.0617469
-0.0620876
-0.0624295
-0.0627727
-0.0631171
-0.0634628
-0.0638098
-0.0641581
-0.0645076
-0.0648585
-0.0652106
-0.065564
-0.0659187
-0.0662747
-0.0666321
-0.0669907
-0.0673507
-0.067712
-0.0680746
-0.0684386
-0.0688039
-0.0691705
-0.0695385
-0.0699079
-0.0702786
-0.0706507
-0.0710241
-0.0713989
-0.0717751
-0.0721527
-0.0725317
-0.0729121
-0.0732938
-0.073677
-0.0740616
-0.0744476
-0.074835
-0.0752239
-0.0756141
-0.0760059
-0.076399
-0.0767936
-0.0771897
-0.0775872
-0.0779862
-0.0783867
-0.0787886
-0.079192
-0.0795969
-0.0800032
-0.0804111
)
;
    }
    procBoundary7to6
    {
        type            processor;
        value           uniform -0.0137517;
    }
    procBoundary7to8
    {
        type            processor;
        value           uniform -0.053623;
    }
    procBoundary7to9
    {
        type            processor;
        value           nonuniform List<scalar> 
75
(
0.0377178
-0.0307077
0.117567
-0.784494
-0.105004
0.0245569
0.00571399
-0.00925787
-0.0123664
-0.0118134
-0.011406
-0.0114533
-0.0116371
-0.011815
-0.0119761
-0.0121325
-0.0122898
-0.0124484
-0.0126077
-0.0127677
-0.0129281
-0.0130892
-0.0132509
-0.0134131
-0.013576
-0.0710233
-0.0713981
-0.0717743
-0.0721519
-0.0725309
-0.0729112
-0.073293
-0.0736762
-0.0740608
-0.0744468
-0.0748342
-0.0752231
-0.0756134
-0.0760051
-0.0763982
-0.0767928
-0.0771889
-0.0775864
-0.0779854
-0.0783859
-0.0787878
-0.0791912
-0.0795961
-0.0800025
-0.0804104
-0.0808197
-0.0812306
-0.081643
-0.082057
-0.0824724
-0.0828894
-0.0833079
-0.0837279
-0.0841495
-0.0845727
-0.0849974
-0.0854236
-0.0858515
-0.0862809
-0.0867119
-0.0871445
-0.0875786
-0.0880144
-0.0884518
-0.0888908
-0.0893314
-0.0897736
-0.0902175
-0.0906629
-0.0911099
)
;
    }
    procBoundary7to10
    {
        type            processor;
        value           nonuniform List<scalar> 
50
(
-0.0539347
-0.0542466
-0.0545597
-0.0548739
-0.0551892
-0.0555058
-0.0558235
-0.0561423
-0.0564623
-0.0567836
-0.057106
-0.0574295
-0.0577543
-0.0580803
-0.0584074
-0.0587358
-0.0590654
-0.0593962
-0.0597282
-0.0600614
-0.0603959
-0.0607316
-0.0610685
-0.0614067
-0.0617461
-0.0620868
-0.0624287
-0.0627719
-0.0631163
-0.063462
-0.063809
-0.0641573
-0.0645068
-0.0648576
-0.0652098
-0.0655632
-0.0659179
-0.0662739
-0.0666313
-0.0669899
-0.0673499
-0.0677112
-0.0680738
-0.0684378
-0.0688031
-0.0691697
-0.0695377
-0.0699071
-0.0702778
-0.0706498
)
;
    }
}


// ************************************************************************* //
