/*--------------------------------*- C++ -*----------------------------------*\
| =========                 |                                                 |
| \\      /  F ield         | OpenFOAM: The Open Source CFD Toolbox           |
|  \\    /   O peration     | Version:  2.4.0                                 |
|   \\  /    A nd           | Web:      www.OpenFOAM.org                      |
|    \\/     M anipulation  |                                                 |
\*---------------------------------------------------------------------------*/
FoamFile
{
    version     2.0;
    format      ascii;
    class       surfaceScalarField;
    location    "0.009";
    object      phi;
}
// * * * * * * * * * * * * * * * * * * * * * * * * * * * * * * * * * * * * * //

dimensions      [0 3 -1 0 0 0 0];

internalField   nonuniform List<scalar> 
123
(
2.08716e-16
9.11072e-16
2.01477e-15
-4.05118e-09
-4.05118e-09
-4.05117e-09
-4.05116e-09
-4.05115e-09
-4.05114e-09
-4.05112e-09
-4.05111e-09
-4.05109e-09
-4.05106e-09
-4.05104e-09
-4.05101e-09
-4.05099e-09
-4.05096e-09
-4.05093e-09
-4.05089e-09
-4.05086e-09
-4.05083e-09
-4.05079e-09
-4.05075e-09
-4.05072e-09
-4.04635e-09
-4.04635e-09
-4.04635e-09
-4.04636e-09
-4.04636e-09
-4.04637e-09
-4.04637e-09
-4.04637e-09
-4.04638e-09
-4.04638e-09
-4.04638e-09
-4.04639e-09
-4.04639e-09
-4.04639e-09
-4.04639e-09
-4.0464e-09
-4.0464e-09
-4.0464e-09
-4.0464e-09
-4.04641e-09
-4.04641e-09
-4.04641e-09
-4.04641e-09
-4.04641e-09
-4.04641e-09
-4.04641e-09
-4.04642e-09
-4.04642e-09
-4.04642e-09
-4.04642e-09
-4.04642e-09
-4.04642e-09
-4.04642e-09
-4.04642e-09
-4.04642e-09
-4.04642e-09
-4.04642e-09
-4.04642e-09
-4.04642e-09
-4.04642e-09
-4.04642e-09
-4.04641e-09
-4.04641e-09
-4.04641e-09
-4.04641e-09
-4.04641e-09
-4.0464e-09
-4.0464e-09
-4.0464e-09
-4.0464e-09
-4.04639e-09
-4.04639e-09
-4.04639e-09
-4.04638e-09
-4.04638e-09
-4.04637e-09
-4.04637e-09
-4.04636e-09
-4.04636e-09
-4.04635e-09
-4.04635e-09
-4.04634e-09
-4.04634e-09
-4.04633e-09
-4.04632e-09
-4.04632e-09
-4.04631e-09
-4.0463e-09
-4.04629e-09
-4.04628e-09
-4.04628e-09
-4.04627e-09
-4.04626e-09
-4.04625e-09
-4.04624e-09
-4.04623e-09
-4.04622e-09
-4.0462e-09
-4.04619e-09
-4.04618e-09
-4.04617e-09
-4.04616e-09
-4.04614e-09
-4.04613e-09
-4.04611e-09
-4.0461e-09
-4.04608e-09
-4.04607e-09
-4.04605e-09
-4.04604e-09
-4.04602e-09
-4.046e-09
-4.04599e-09
-4.04597e-09
-4.04595e-09
-4.04593e-09
-4.04591e-09
-4.0459e-09
-4.04588e-09
)
;

boundaryField
{
    BotWall
    {
        type            calculated;
        value           uniform 0;
    }
    FreeStream
    {
        type            calculated;
        value           uniform -4.04586e-09;
    }
    FrontNBack
    {
        type            empty;
        value           nonuniform 0();
    }
    LeftSide
    {
        type            symmetryPlane;
        value           nonuniform 0();
    }
    RightSide
    {
        type            symmetryPlane;
        value           nonuniform 0();
    }
    procBoundary7to4
    {
        type            processor;
        value           nonuniform List<scalar> 
50
(
-2.98744e-17
-9.12505e-17
-1.50735e-16
-2.60459e-16
-3.49052e-16
-5.61012e-16
-8.03074e-16
-1.04192e-15
-1.27164e-15
-1.49029e-15
-1.69788e-15
-1.89418e-15
-2.07874e-15
-2.25114e-15
-2.41103e-15
-2.55814e-15
-2.69228e-15
-2.81332e-15
-2.92121e-15
-3.01596e-15
-3.09765e-15
-3.16643e-15
-3.22249e-15
-3.26612e-15
-3.29763e-15
-6.74904e-15
-7.14142e-15
-7.54524e-15
-7.9599e-15
-8.38442e-15
-8.81736e-15
-9.25684e-15
-9.70053e-15
-1.01457e-14
-1.05891e-14
-1.10274e-14
-1.14568e-14
-1.18735e-14
-1.22738e-14
-1.26539e-14
-1.30103e-14
-1.33402e-14
-1.36408e-14
-1.39103e-14
-1.41473e-14
-1.43512e-14
-1.45221e-14
-1.46609e-14
-1.47693e-14
-1.48444e-14
)
;
    }
    procBoundary7to5
    {
        type            processor;
        value           nonuniform List<scalar> 
75
(
5.16161e-15
5.09722e-15
5.03342e-15
4.97018e-15
4.90745e-15
4.84517e-15
4.7833e-15
4.72177e-15
4.66052e-15
4.59948e-15
4.53858e-15
4.47772e-15
4.41681e-15
4.35577e-15
4.29448e-15
4.23282e-15
4.17067e-15
4.10789e-15
4.04435e-15
3.97989e-15
3.91434e-15
3.84754e-15
3.77929e-15
3.70939e-15
3.63766e-15
3.56386e-15
3.48777e-15
3.40915e-15
3.32777e-15
3.24337e-15
3.1557e-15
3.06449e-15
2.96948e-15
2.8704e-15
2.76698e-15
2.65895e-15
2.54605e-15
2.42802e-15
2.3046e-15
2.17557e-15
2.04069e-15
1.89976e-15
1.75258e-15
1.59901e-15
1.43889e-15
1.27211e-15
1.09859e-15
9.18271e-16
7.31144e-16
5.37216e-16
3.36539e-16
1.29188e-16
-8.47305e-17
-3.05088e-16
-5.31734e-16
-7.64506e-16
-1.00324e-15
-1.24776e-15
-1.49793e-15
-1.75363e-15
-2.01476e-15
-2.28131e-15
-2.5533e-15
-2.83085e-15
-3.11416e-15
-3.40353e-15
-3.69933e-15
-4.00206e-15
-4.31228e-15
-4.63064e-15
-4.95783e-15
-5.29455e-15
-5.64148e-15
-5.99925e-15
-6.36834e-15
)
;
    }
    procBoundary7to6
    {
        type            processor;
        value           uniform -4.05068e-09;
    }
    procBoundary7to8
    {
        type            processor;
        value           uniform 4.04634e-09;
    }
    procBoundary7to9
    {
        type            processor;
        value           nonuniform List<scalar> 
75
(
-1.78841e-16
-6.11106e-16
-9.52961e-16
-2.17119e-15
-2.89865e-15
-4.74738e-15
-7.24668e-15
-9.67352e-15
-1.19587e-14
-1.4126e-14
-1.61951e-14
-1.8168e-14
-2.00424e-14
-2.18167e-14
-2.34903e-14
-2.50632e-14
-2.65353e-14
-2.79072e-14
-2.91795e-14
-3.03531e-14
-3.14294e-14
-3.24099e-14
-3.32963e-14
-3.40908e-14
-3.47955e-14
-3.48517e-15
-3.5122e-15
-3.53748e-15
-3.56101e-15
-3.58281e-15
-3.60292e-15
-3.62136e-15
-3.63817e-15
-3.65339e-15
-3.66706e-15
-3.67924e-15
-3.68997e-15
-3.69931e-15
-3.7073e-15
-3.71401e-15
-3.71947e-15
-3.72373e-15
-3.72685e-15
-3.72886e-15
-3.7298e-15
-3.72971e-15
-3.72863e-15
-3.72659e-15
-3.72363e-15
-3.7198e-15
-3.71513e-15
-3.70967e-15
-3.70349e-15
-3.69666e-15
-3.68926e-15
-3.6814e-15
-3.67318e-15
-3.66475e-15
-3.65625e-15
-3.64784e-15
-3.63971e-15
-3.63205e-15
-3.62504e-15
-3.6189e-15
-3.61382e-15
-3.60999e-15
-3.60759e-15
-3.60676e-15
-3.60764e-15
-3.61033e-15
-3.61487e-15
-3.62124e-15
-3.62936e-15
-3.63945e-15
-3.64757e-15
)
;
    }
    procBoundary7to10
    {
        type            processor;
        value           nonuniform List<scalar> 
50
(
-8.83468e-16
-9.38957e-16
-9.94787e-16
-1.05095e-15
-1.10744e-15
-1.16425e-15
-1.22137e-15
-1.27877e-15
-1.33646e-15
-1.3944e-15
-1.4526e-15
-1.51101e-15
-1.56964e-15
-1.62844e-15
-1.68739e-15
-1.74646e-15
-1.80562e-15
-1.86484e-15
-1.92407e-15
-1.98329e-15
-2.04243e-15
-2.10146e-15
-2.16032e-15
-2.21897e-15
-2.27735e-15
-2.3354e-15
-2.39306e-15
-2.45027e-15
-2.50696e-15
-2.56307e-15
-2.61853e-15
-2.67326e-15
-2.72719e-15
-2.78026e-15
-2.83238e-15
-2.8835e-15
-2.93353e-15
-2.9824e-15
-3.03004e-15
-3.07639e-15
-3.12138e-15
-3.16495e-15
-3.20703e-15
-3.24759e-15
-3.28656e-15
-3.32391e-15
-3.35959e-15
-3.39358e-15
-3.42586e-15
-3.45639e-15
)
;
    }
}


// ************************************************************************* //
