/*--------------------------------*- C++ -*----------------------------------*\
| =========                 |                                                 |
| \\      /  F ield         | OpenFOAM: The Open Source CFD Toolbox           |
|  \\    /   O peration     | Version:  2.4.0                                 |
|   \\  /    A nd           | Web:      www.OpenFOAM.org                      |
|    \\/     M anipulation  |                                                 |
\*---------------------------------------------------------------------------*/
FoamFile
{
    version     2.0;
    format      ascii;
    class       volScalarField;
    location    "4";
    object      H;
}
// * * * * * * * * * * * * * * * * * * * * * * * * * * * * * * * * * * * * * //

dimensions      [0 2 -2 0 0 0 0];

internalField   nonuniform List<scalar> 
125
(
-41.9046
-41.7917
-41.5667
-41.6863
-41.9151
-42.23
-42.1197
-41.8989
-42.0158
-42.2384
-42.5285
-42.4208
-42.2043
-42.3186
-42.5348
-42.7992
-42.6944
-42.4822
-42.5937
-42.8035
-43.0415
-42.9395
-42.7317
-42.8404
-43.0438
-43.2544
-43.1554
-42.952
-43.058
-43.2549
-43.4374
-43.3414
-43.1425
-43.2456
-43.4359
-43.5896
-43.4967
-43.3024
-43.4026
-43.5863
-43.7104
-43.6207
-43.4309
-43.5282
-43.7053
-43.7992
-43.7127
-43.5276
-43.622
-43.7923
-43.8553
-43.7722
-43.5917
-43.6831
-43.8468
-43.8782
-43.7985
-43.6228
-43.7112
-43.8681
-43.8675
-43.7912
-43.6202
-43.7057
-43.8558
-43.8227
-43.7498
-43.5837
-43.6661
-43.8094
-43.7433
-43.674
-43.5127
-43.5921
-43.7286
-43.6291
-43.5634
-43.4069
-43.4832
-43.6129
-43.4798
-43.4177
-43.2661
-43.3394
-43.4623
-43.2952
-43.2367
-43.09
-43.1603
-43.2764
-43.0752
-43.0203
-42.8786
-42.9457
-43.0551
-42.8196
-42.7684
-42.6316
-42.6957
-42.7984
-42.5286
-42.4811
-42.3492
-42.4103
-42.5063
-42.2022
-42.1584
-42.0315
-42.0895
-42.1788
-41.8405
-41.8004
-41.6785
-41.7335
-41.8162
-41.444
-41.4075
-41.2905
-41.3425
-41.4188
-41.0128
-40.98
-40.868
-40.9169
-40.9868
)
;

boundaryField
{
    BotWall
    {
        type            zeroGradient;
    }
    FreeStream
    {
        type            zeroGradient;
    }
    FrontNBack
    {
        type            empty;
    }
    LeftSide
    {
        type            symmetryPlane;
    }
    RightSide
    {
        type            symmetryPlane;
    }
    procBoundary1to0
    {
        type            processor;
        value           nonuniform List<scalar> 5(-41.5466 -41.4312 -41.202 -41.3243 -41.5592);
    }
    procBoundary1to2
    {
        type            processor;
        value           nonuniform List<scalar> 5(-40.5429 -40.5137 -40.4066 -40.4526 -40.5162);
    }
}


// ************************************************************************* //
