/*--------------------------------*- C++ -*----------------------------------*\
| =========                 |                                                 |
| \\      /  F ield         | OpenFOAM: The Open Source CFD Toolbox           |
|  \\    /   O peration     | Version:  2.4.0                                 |
|   \\  /    A nd           | Web:      www.OpenFOAM.org                      |
|    \\/     M anipulation  |                                                 |
\*---------------------------------------------------------------------------*/
FoamFile
{
    version     2.0;
    format      ascii;
    class       volScalarField;
    location    "4";
    object      p_rgh;
}
// * * * * * * * * * * * * * * * * * * * * * * * * * * * * * * * * * * * * * //

dimensions      [1 -1 -2 0 0 0 0];

internalField   nonuniform List<scalar> 
125
(
0.000467428
0.000467482
0.0004674
0.000467446
0.000467415
-7.6351e-06
-7.53721e-06
-7.4303e-06
-7.48939e-06
-7.64594e-06
-6.25735e-05
-6.25352e-05
-6.247e-05
-6.25068e-05
-6.25801e-05
-2.64594e-05
-2.64413e-05
-2.64089e-05
-2.64276e-05
-2.64649e-05
-8.47745e-06
-8.45606e-06
-8.43015e-06
-8.44522e-06
-8.48287e-06
-6.51434e-06
-6.48925e-06
-6.46211e-06
-6.47782e-06
-6.51977e-06
-7.91442e-06
-7.88903e-06
-7.86114e-06
-7.87726e-06
-7.91976e-06
-8.58756e-06
-8.56303e-06
-8.53543e-06
-8.55137e-06
-8.59278e-06
-8.62297e-06
-8.59916e-06
-8.57215e-06
-8.58776e-06
-8.62808e-06
-8.52602e-06
-8.50271e-06
-8.47626e-06
-8.49155e-06
-8.53102e-06
-8.45811e-06
-8.43524e-06
-8.40932e-06
-8.42431e-06
-8.46301e-06
-8.41517e-06
-8.39275e-06
-8.36733e-06
-8.38203e-06
-8.41996e-06
-8.37699e-06
-8.35502e-06
-8.3301e-06
-8.34451e-06
-8.38168e-06
-8.33717e-06
-8.31566e-06
-8.29124e-06
-8.30536e-06
-8.34176e-06
-8.29591e-06
-8.27484e-06
-8.25093e-06
-8.26476e-06
-8.3004e-06
-8.25399e-06
-8.23337e-06
-8.20995e-06
-8.2235e-06
-8.25839e-06
-8.21167e-06
-8.19149e-06
-8.16856e-06
-8.18183e-06
-8.21597e-06
-8.16894e-06
-8.1492e-06
-8.12675e-06
-8.13974e-06
-8.17315e-06
-8.12575e-06
-8.10644e-06
-8.08448e-06
-8.09719e-06
-8.12987e-06
-8.0821e-06
-8.06322e-06
-8.04173e-06
-8.05416e-06
-8.08613e-06
-8.03797e-06
-8.01951e-06
-7.99851e-06
-8.01066e-06
-8.04191e-06
-7.99337e-06
-7.97533e-06
-7.95479e-06
-7.96668e-06
-7.9972e-06
-7.94827e-06
-7.93065e-06
-7.91058e-06
-7.9222e-06
-7.95198e-06
-7.90268e-06
-7.88547e-06
-7.86586e-06
-7.87721e-06
-7.90627e-06
-7.85657e-06
-7.83977e-06
-7.82062e-06
-7.8317e-06
-7.86002e-06
)
;

boundaryField
{
    BotWall
    {
        type            fixedFluxPressure;
        gradient        nonuniform 0();
        value           nonuniform 0();
    }
    FreeStream
    {
        type            totalPressure;
        rho             rho;
        psi             none;
        gamma           1;
        p0              nonuniform 0();
        value           nonuniform 0();
    }
    FrontNBack
    {
        type            empty;
    }
    LeftSide
    {
        type            symmetryPlane;
    }
    RightSide
    {
        type            symmetryPlane;
    }
    procBoundary1to0
    {
        type            processor;
        value           nonuniform List<scalar> 5(0.00147367 0.00147315 0.00147212 0.00147269 0.00147368);
    }
    procBoundary1to2
    {
        type            processor;
        value           nonuniform List<scalar> 5(-7.80995e-06 -7.79356e-06 -7.77485e-06 -7.78568e-06 -7.81327e-06);
    }
}


// ************************************************************************* //
