/*--------------------------------*- C++ -*----------------------------------*\
| =========                 |                                                 |
| \\      /  F ield         | OpenFOAM: The Open Source CFD Toolbox           |
|  \\    /   O peration     | Version:  2.4.0                                 |
|   \\  /    A nd           | Web:      www.OpenFOAM.org                      |
|    \\/     M anipulation  |                                                 |
\*---------------------------------------------------------------------------*/
FoamFile
{
    version     2.0;
    format      ascii;
    class       surfaceScalarField;
    location    "4";
    object      phi;
}
// * * * * * * * * * * * * * * * * * * * * * * * * * * * * * * * * * * * * * //

dimensions      [0 3 -1 0 0 0 0];

internalField   nonuniform List<scalar> 
220
(
8.10184e-16
-2.03821e-10
8.76349e-16
-2.03846e-10
-4.08797e-16
-2.03869e-10
-1.01934e-15
-2.03857e-10
-2.03815e-10
7.60196e-16
-2.03822e-10
8.23513e-16
-2.03846e-10
-3.77251e-16
-2.03868e-10
-9.51116e-16
-2.03857e-10
-2.03816e-10
7.12862e-16
-2.03823e-10
7.76837e-16
-2.03846e-10
-3.49427e-16
-2.03867e-10
-8.88843e-16
-2.03856e-10
-2.03817e-10
6.66107e-16
-2.03823e-10
7.31519e-16
-2.03846e-10
-3.2259e-16
-2.03866e-10
-8.27617e-16
-2.03856e-10
-2.03818e-10
6.19709e-16
-2.03824e-10
6.86454e-16
-2.03847e-10
-2.9602e-16
-2.03865e-10
-7.66892e-16
-2.03855e-10
-2.03819e-10
5.74044e-16
-2.03824e-10
6.41888e-16
-2.03847e-10
-2.69839e-16
-2.03864e-10
-7.07256e-16
-2.03855e-10
-2.03819e-10
5.29293e-16
-2.03825e-10
5.98098e-16
-2.03847e-10
-2.44221e-16
-2.03863e-10
-6.49009e-16
-2.03854e-10
-2.0382e-10
4.85504e-16
-2.03825e-10
5.55197e-16
-2.03847e-10
-2.19244e-16
-2.03862e-10
-5.92218e-16
-2.03854e-10
-2.03821e-10
4.42714e-16
-2.03826e-10
5.13232e-16
-2.03847e-10
-1.94941e-16
-2.03861e-10
-5.36917e-16
-2.03854e-10
-2.03821e-10
4.00983e-16
-2.03826e-10
4.72244e-16
-2.03847e-10
-1.7134e-16
-2.03861e-10
-4.83167e-16
-2.03853e-10
-2.03822e-10
3.60375e-16
-2.03827e-10
4.32283e-16
-2.03847e-10
-1.48472e-16
-2.0386e-10
-4.31036e-16
-2.03853e-10
-2.03822e-10
3.20956e-16
-2.03827e-10
3.93402e-16
-2.03847e-10
-1.2637e-16
-2.0386e-10
-3.80593e-16
-2.03853e-10
-2.03822e-10
2.82786e-16
-2.03827e-10
3.55652e-16
-2.03847e-10
-1.05068e-16
-2.03859e-10
-3.31903e-16
-2.03853e-10
-2.03823e-10
2.45926e-16
-2.03827e-10
3.19083e-16
-2.03847e-10
-8.45957e-17
-2.03859e-10
-2.85028e-16
-2.03852e-10
-2.03823e-10
2.10432e-16
-2.03828e-10
2.83744e-16
-2.03847e-10
-6.49845e-17
-2.03858e-10
-2.40026e-16
-2.03852e-10
-2.03823e-10
1.76361e-16
-2.03828e-10
2.49682e-16
-2.03847e-10
-4.62626e-17
-2.03858e-10
-1.96956e-16
-2.03852e-10
-2.03823e-10
1.43767e-16
-2.03828e-10
2.16942e-16
-2.03847e-10
-2.8457e-17
-2.03858e-10
-1.5587e-16
-2.03852e-10
-2.03824e-10
1.127e-16
-2.03828e-10
1.85567e-16
-2.03847e-10
-1.15933e-17
-2.03858e-10
-1.16819e-16
-2.03852e-10
-2.03824e-10
8.32088e-17
-2.03828e-10
1.55598e-16
-2.03848e-10
4.30505e-18
-2.03858e-10
-7.98485e-17
-2.03852e-10
-2.03824e-10
5.53388e-17
-2.03828e-10
1.27073e-16
-2.03848e-10
1.92163e-17
-2.03857e-10
-4.50018e-17
-2.03852e-10
-2.03824e-10
2.91315e-17
-2.03828e-10
1.00029e-16
-2.03848e-10
3.3121e-17
-2.03857e-10
-1.23171e-17
-2.03852e-10
-2.03824e-10
4.62491e-18
-2.03828e-10
7.44971e-17
-2.03848e-10
4.60021e-17
-2.03857e-10
1.81713e-17
-2.03852e-10
-2.03824e-10
-1.8147e-17
-2.03828e-10
5.05079e-17
-2.03848e-10
5.78454e-17
-2.03857e-10
4.64354e-17
-2.03852e-10
-2.03824e-10
-3.91543e-17
-2.03828e-10
2.80874e-17
-2.03848e-10
6.86377e-17
-2.03857e-10
7.2452e-17
-2.03852e-10
-2.03824e-10
-5.83718e-17
7.25823e-18
7.83706e-17
9.62013e-17
)
;

boundaryField
{
    BotWall
    {
        type            calculated;
        value           nonuniform 0();
    }
    FreeStream
    {
        type            calculated;
        value           nonuniform 0();
    }
    FrontNBack
    {
        type            empty;
        value           nonuniform 0();
    }
    LeftSide
    {
        type            symmetryPlane;
        value           uniform 0;
    }
    RightSide
    {
        type            symmetryPlane;
        value           uniform 0;
    }
    procBoundary1to0
    {
        type            processor;
        value           nonuniform List<scalar> 5(2.0382e-10 2.03846e-10 2.0387e-10 2.03858e-10 2.03814e-10);
    }
    procBoundary1to2
    {
        type            processor;
        value           nonuniform List<scalar> 5(-2.03828e-10 -2.03848e-10 -2.03858e-10 -2.03852e-10 -2.03824e-10);
    }
}


// ************************************************************************* //
