/*--------------------------------*- C++ -*----------------------------------*\
| =========                 |                                                 |
| \\      /  F ield         | OpenFOAM: The Open Source CFD Toolbox           |
|  \\    /   O peration     | Version:  2.4.0                                 |
|   \\  /    A nd           | Web:      www.OpenFOAM.org                      |
|    \\/     M anipulation  |                                                 |
\*---------------------------------------------------------------------------*/
FoamFile
{
    version     2.0;
    format      ascii;
    class       volVectorField;
    location    "4";
    object      U;
}
// * * * * * * * * * * * * * * * * * * * * * * * * * * * * * * * * * * * * * //

dimensions      [0 1 -1 0 0 0 0];

internalField   nonuniform List<vector> 
125
(
(9.23624e-08 -0.0010395 0)
(3.55916e-07 -0.00103969 0)
(1.27007e-07 -0.00103989 0)
(-3.51933e-07 -0.00103979 0)
(-2.11533e-07 -0.00103946 0)
(8.4444e-08 -0.000970258 0)
(3.31179e-07 -0.000970399 0)
(1.194e-07 -0.00097055 0)
(-3.2576e-07 -0.000970471 0)
(-1.94858e-07 -0.000970228 0)
(7.71382e-08 -0.000995243 0)
(3.07999e-07 -0.000995358 0)
(1.12216e-07 -0.000995469 0)
(-3.01265e-07 -0.000995412 0)
(-1.79371e-07 -0.000995216 0)
(7.01081e-08 -0.00101757 0)
(2.85769e-07 -0.00101768 0)
(1.0533e-07 -0.00101778 0)
(-2.77817e-07 -0.00101773 0)
(-1.64579e-07 -0.00101754 0)
(6.32677e-08 -0.00102131 0)
(2.64229e-07 -0.00102142 0)
(9.86636e-08 -0.00102151 0)
(-2.55149e-07 -0.00102147 0)
(-1.5031e-07 -0.00102128 0)
(5.66553e-08 -0.00102007 0)
(2.43398e-07 -0.00102018 0)
(9.22074e-08 -0.00102027 0)
(-2.3328e-07 -0.00102023 0)
(-1.36591e-07 -0.00102005 0)
(5.02996e-08 -0.00101919 0)
(2.2332e-07 -0.0010193 0)
(8.59678e-08 -0.00101938 0)
(-2.12253e-07 -0.00101934 0)
(-1.23452e-07 -0.00101916 0)
(4.42077e-08 -0.00101903 0)
(2.04011e-07 -0.00101914 0)
(7.99478e-08 -0.00101922 0)
(-1.9208e-07 -0.00101918 0)
(-1.10898e-07 -0.00101901 0)
(3.83806e-08 -0.00101909 0)
(1.85472e-07 -0.00101919 0)
(7.41472e-08 -0.00101927 0)
(-1.72761e-07 -0.00101923 0)
(-9.89254e-08 -0.00101907 0)
(3.28202e-08 -0.00101913 0)
(1.67705e-07 -0.00101923 0)
(6.85652e-08 -0.0010193 0)
(-1.54296e-07 -0.00101927 0)
(-8.75306e-08 -0.0010191 0)
(2.75295e-08 -0.00101914 0)
(1.50712e-07 -0.00101924 0)
(6.32011e-08 -0.00101931 0)
(-1.36683e-07 -0.00101927 0)
(-7.67106e-08 -0.00101911 0)
(2.25111e-08 -0.00101914 0)
(1.34494e-07 -0.00101924 0)
(5.80539e-08 -0.0010193 0)
(-1.19921e-07 -0.00101927 0)
(-6.6462e-08 -0.00101911 0)
(1.77673e-08 -0.00101914 0)
(1.19053e-07 -0.00101924 0)
(5.31226e-08 -0.0010193 0)
(-1.0401e-07 -0.00101926 0)
(-5.67812e-08 -0.00101911 0)
(1.32995e-08 -0.00101914 0)
(1.04388e-07 -0.00101924 0)
(4.84061e-08 -0.00101929 0)
(-8.89447e-08 -0.00101926 0)
(-4.76634e-08 -0.00101911 0)
(9.1088e-09 -0.00101914 0)
(9.04982e-08 -0.00101924 0)
(4.3903e-08 -0.00101929 0)
(-7.47224e-08 -0.00101926 0)
(-3.91034e-08 -0.00101912 0)
(5.1957e-09 -0.00101914 0)
(7.73806e-08 -0.00101924 0)
(3.96117e-08 -0.00101929 0)
(-6.13373e-08 -0.00101926 0)
(-3.10952e-08 -0.00101912 0)
(1.56015e-09 -0.00101914 0)
(6.50321e-08 -0.00101924 0)
(3.55307e-08 -0.00101929 0)
(-4.87832e-08 -0.00101926 0)
(-2.36321e-08 -0.00101912 0)
(-1.79845e-09 -0.00101914 0)
(5.34481e-08 -0.00101924 0)
(3.16578e-08 -0.00101929 0)
(-3.70524e-08 -0.00101926 0)
(-1.67067e-08 -0.00101912 0)
(-4.88127e-09 -0.00101914 0)
(4.26227e-08 -0.00101924 0)
(2.79912e-08 -0.00101929 0)
(-2.61362e-08 -0.00101926 0)
(-1.03109e-08 -0.00101912 0)
(-7.6901e-09 -0.00101914 0)
(3.25492e-08 -0.00101924 0)
(2.45283e-08 -0.00101929 0)
(-1.60247e-08 -0.00101926 0)
(-4.43586e-09 -0.00101912 0)
(-1.02273e-08 -0.00101914 0)
(2.32192e-08 -0.00101924 0)
(2.12667e-08 -0.00101929 0)
(-6.70677e-09 -0.00101926 0)
(9.2794e-10 -0.00101912 0)
(-1.24958e-08 -0.00101914 0)
(1.46235e-08 -0.00101924 0)
(1.82037e-08 -0.00101929 0)
(1.83e-09 -0.00101926 0)
(5.79077e-09 -0.00101912 0)
(-1.44993e-08 -0.00101914 0)
(6.75153e-09 -0.00101924 0)
(1.53363e-08 -0.00101929 0)
(9.59939e-09 -0.00101926 0)
(1.01639e-08 -0.00101912 0)
(-1.62418e-08 -0.00101914 0)
(-4.08622e-10 -0.00101924 0)
(1.26612e-08 -0.00101929 0)
(1.66162e-08 -0.00101926 0)
(1.40588e-08 -0.00101912 0)
(-1.77283e-08 -0.00101914 0)
(-6.87e-09 -0.00101924 0)
(1.01751e-08 -0.00101929 0)
(2.28965e-08 -0.00101926 0)
(1.74882e-08 -0.00101912 0)
)
;

boundaryField
{
    BotWall
    {
        type            fixedValue;
        value           nonuniform 0();
    }
    FreeStream
    {
        type            zeroGradient;
    }
    FrontNBack
    {
        type            empty;
    }
    LeftSide
    {
        type            symmetryPlane;
    }
    RightSide
    {
        type            symmetryPlane;
    }
    procBoundary1to0
    {
        type            processor;
        value           nonuniform List<vector> 5((1.01098e-07 -0.00185077 0) (3.82153e-07 -0.0018508 0) (1.34926e-07 -0.00185058 0) (-3.79747e-07 -0.00185071 0) (-2.29508e-07 -0.00185073 0));
    }
    procBoundary1to2
    {
        type            processor;
        value           nonuniform List<vector> 5((-1.8964e-08 -0.00101914 0) (-1.26469e-08 -0.00101924 0) (7.87442e-09 -0.00101929 0) (2.84573e-08 -0.00101926 0) (2.04648e-08 -0.00101912 0));
    }
}


// ************************************************************************* //
