/*--------------------------------*- C++ -*----------------------------------*\
| =========                 |                                                 |
| \\      /  F ield         | OpenFOAM: The Open Source CFD Toolbox           |
|  \\    /   O peration     | Version:  2.4.0                                 |
|   \\  /    A nd           | Web:      www.OpenFOAM.org                      |
|    \\/     M anipulation  |                                                 |
\*---------------------------------------------------------------------------*/
FoamFile
{
    version     2.0;
    format      ascii;
    class       volScalarField;
    location    "0.5";
    object      alpha1;
}
// * * * * * * * * * * * * * * * * * * * * * * * * * * * * * * * * * * * * * //

dimensions      [0 0 0 0 0 0 0];

internalField   nonuniform List<scalar> 
1000
(
0.0145191
0.975179
0.0146834
0.988248
0.0146834
0.975179
0.0145189
0.044819
0.998413
0.044819
1.3566e-07
1.31558e-06
0.00213211
0.15084
0.00213212
1.3156e-06
1.35705e-07
0.00445794
0.865084
0.00445791
3.90563e-14
1.07443e-12
9.15086e-12
3.55973e-10
9.15108e-12
1.07448e-12
3.9058e-14
2.6654e-31
2.98695e-36
2.45302e-31
2.90087e-29
7.82687e-28
6.64352e-27
2.91669e-25
6.6439e-27
7.8306e-28
2.90597e-29
1.29942e-31
1.62511e-36
1.19551e-31
1.37367e-30
3.04582e-29
2.31165e-28
1.11672e-26
2.31188e-28
3.06421e-29
1.39858e-30
6.28229e-32
8.89591e-37
5.77808e-32
2.53305e-31
3.94396e-30
2.13783e-29
1.13976e-27
2.13816e-29
4.04711e-30
2.65374e-31
3.00353e-32
4.8607e-37
2.76157e-32
8.52448e-32
1.10072e-30
3.18253e-30
1.89967e-28
3.18324e-30
1.15666e-30
9.07896e-32
1.41918e-32
2.62665e-37
1.30442e-32
3.34335e-32
4.44662e-31
6.13125e-31
4.15263e-29
6.13313e-31
4.73684e-31
3.58373e-32
6.62554e-33
1.39242e-37
6.08782e-33
1.31573e-32
2.01305e-31
1.3793e-31
1.0707e-29
1.37986e-31
2.15704e-31
1.41381e-32
3.05554e-33
7.20041e-38
2.80667e-33
4.96843e-33
9.23575e-32
3.43055e-32
3.07372e-30
3.43235e-32
9.9201e-32
5.34417e-33
1.38672e-33
3.62224e-38
1.27329e-33
1.76959e-33
4.15419e-32
9.13512e-33
9.49141e-31
9.14124e-33
4.46637e-32
1.90425e-33
6.18217e-34
1.77214e-38
5.67393e-34
5.87596e-34
1.81286e-32
2.55197e-33
3.08335e-31
2.55414e-33
1.94982e-32
6.32434e-34
2.70979e-34
8.4405e-39
2.48575e-34
1.79527e-34
7.65385e-33
7.37861e-34
1.03795e-31
7.38664e-34
8.23284e-33
1.93244e-34
1.16889e-34
3.91733e-39
1.07165e-34
4.94589e-35
3.12568e-33
2.18813e-34
3.58203e-32
2.1913e-34
3.362e-33
5.32412e-35
4.96513e-35
1.77066e-39
4.5494e-35
1.18397e-35
1.23541e-33
6.61937e-35
1.25731e-32
6.633e-35
1.32868e-33
1.27462e-35
2.07742e-35
7.77219e-40
1.90228e-35
2.27035e-36
4.72828e-34
2.04028e-35
4.46184e-33
2.04688e-35
5.08467e-34
2.44476e-36
8.56046e-36
3.29486e-40
7.8335e-36
2.73042e-37
1.7528e-34
6.44465e-36
1.59337e-33
6.48107e-36
1.8847e-34
2.94247e-37
3.47246e-36
1.33896e-40
3.17528e-36
3.0031e-41
6.29675e-35
2.12576e-36
5.70476e-34
2.14835e-36
6.76983e-35
4.76506e-41
1.38559e-36
5.17317e-41
1.26599e-36
1.13095e-42
2.21081e-35
7.03804e-37
2.04158e-34
7.14717e-37
2.37669e-35
1.66053e-42
5.43426e-37
1.88653e-41
4.96072e-37
4.01932e-43
7.61391e-36
2.32549e-37
7.28475e-35
2.37193e-37
8.18485e-36
4.30521e-43
2.09369e-37
6.46693e-42
1.90927e-37
1.41405e-43
2.57428e-36
7.64166e-38
2.58622e-35
7.82476e-38
2.76738e-36
1.5187e-43
7.9226e-38
2.08625e-42
7.21608e-38
4.90376e-44
8.54885e-37
2.49086e-38
9.11878e-36
2.5593e-38
9.19119e-37
5.28617e-44
2.94409e-38
6.38472e-43
2.67779e-38
1.67511e-44
2.78917e-37
8.03996e-39
3.18824e-36
8.28545e-39
2.99946e-37
1.81437e-44
1.07436e-38
1.88028e-43
9.75572e-39
5.63886e-45
8.94204e-38
2.56729e-39
1.10387e-36
2.65246e-39
9.62007e-38
6.14385e-45
3.85032e-39
5.4162e-44
3.48947e-39
1.87442e-45
2.81765e-38
8.10715e-40
3.78032e-37
8.39441e-40
3.03313e-38
2.0569e-45
1.35545e-39
1.54332e-44
1.22557e-39
6.17695e-46
8.72875e-39
2.53231e-40
1.27918e-37
2.62689e-40
9.40445e-39
6.83544e-46
4.68887e-40
4.35646e-45
4.2279e-40
2.02931e-46
2.65954e-39
7.82896e-41
4.27306e-38
8.13393e-41
2.86886e-39
2.26732e-46
1.59476e-40
1.21009e-45
1.43325e-40
6.68883e-47
7.9743e-40
2.39807e-41
1.40809e-38
2.49467e-41
8.61589e-40
7.55278e-47
5.33701e-41
3.27518e-46
4.77775e-41
2.22407e-47
2.35475e-40
7.28675e-42
4.57441e-39
7.58806e-42
2.54966e-40
2.53928e-47
1.75923e-41
8.55249e-47
1.56759e-41
7.48055e-48
6.85509e-41
2.19941e-42
1.46439e-39
2.29222e-42
7.44313e-41
8.63459e-48
5.71905e-42
2.1342e-47
5.06839e-42
2.54242e-48
1.97009e-41
6.60315e-43
4.61815e-40
6.88618e-43
2.14666e-41
2.96472e-48
1.83642e-42
5.04056e-48
1.61724e-42
8.69324e-49
5.59909e-42
1.97411e-43
1.43455e-40
2.05975e-43
6.1278e-42
1.02297e-48
5.83479e-43
1.11674e-48
5.1015e-43
2.97257e-49
1.57697e-42
5.88226e-44
4.38983e-41
6.13994e-44
1.73515e-42
3.52547e-49
1.83783e-43
2.306e-49
1.59396e-43
1.01087e-49
4.41238e-43
1.74791e-44
1.32376e-41
1.82513e-44
4.88589e-43
1.20692e-49
5.74942e-44
4.43594e-50
4.94295e-44
3.40714e-50
1.22981e-43
5.18103e-45
3.9361e-42
5.41172e-45
1.37174e-43
4.09102e-50
1.78944e-44
8.05288e-51
1.52423e-44
1.13783e-50
3.42364e-44
1.53201e-45
1.1551e-42
1.60074e-45
3.84961e-44
1.37278e-50
5.54808e-45
1.43466e-51
4.68131e-45
3.777e-51
9.54259e-45
4.51883e-46
3.34972e-43
4.723e-46
1.08216e-44
4.5752e-51
1.7148e-45
2.68457e-52
1.4335e-45
1.25446e-51
2.66762e-45
1.32943e-46
9.61376e-44
1.38982e-46
3.05124e-45
1.52446e-51
5.28367e-46
5.58342e-53
4.37826e-46
4.20758e-52
7.48496e-46
3.90059e-47
2.73548e-44
4.07819e-47
8.63214e-46
5.12508e-52
1.62183e-46
1.27341e-53
1.33324e-46
1.44118e-52
2.10719e-46
1.14117e-47
7.7308e-45
1.193e-47
2.44844e-46
1.7575e-52
4.95276e-47
2.98127e-54
4.04326e-47
5.10893e-53
5.94342e-47
3.32811e-48
2.1737e-45
3.47798e-48
6.95081e-47
6.22791e-53
1.50206e-47
6.83009e-55
1.21909e-47
1.90677e-53
1.67566e-47
9.6704e-49
6.08854e-46
1.00987e-48
1.97016e-47
2.31908e-53
4.51481e-48
1.51488e-55
3.64695e-48
7.62357e-54
4.70901e-48
2.79698e-49
1.69992e-46
2.91778e-49
5.55986e-48
9.23702e-54
1.3421e-48
3.2261e-56
1.08009e-48
3.27125e-54
1.31516e-48
8.04137e-50
4.72961e-47
8.37702e-50
1.55768e-48
3.94982e-54
3.93775e-49
6.53136e-57
3.15996e-49
1.46301e-54
3.6399e-49
2.2938e-50
1.30969e-47
2.38555e-50
4.32084e-49
1.7646e-54
1.1382e-49
1.24388e-57
9.11439e-50
6.48003e-55
9.95744e-50
6.47696e-51
3.60205e-48
6.72336e-51
1.18384e-49
7.83024e-55
3.23588e-50
2.20532e-58
2.58717e-50
2.71389e-55
2.68654e-50
1.80573e-51
9.8127e-49
1.87069e-51
3.1972e-50
3.29133e-55
9.03569e-51
3.59866e-59
7.21622e-51
1.04892e-55
7.13562e-51
4.95702e-52
2.63966e-49
5.12495e-52
8.49689e-51
1.27718e-55
2.47524e-51
5.31897e-60
1.97527e-51
3.73481e-56
1.86299e-51
1.33629e-52
6.98974e-50
1.37883e-52
2.21902e-51
4.56316e-56
6.64559e-52
6.9341e-61
5.30044e-52
1.23721e-56
4.7753e-52
3.52841e-53
1.81646e-50
3.63397e-53
5.68831e-52
1.51566e-56
1.74724e-52
7.62412e-62
1.39309e-52
3.85234e-57
1.20052e-52
9.10449e-54
4.6203e-51
9.3608e-54
1.42995e-52
4.72827e-57
4.4954e-53
6.56322e-63
3.58342e-53
1.13801e-57
2.95773e-53
2.29112e-54
1.14757e-51
2.35201e-54
3.52236e-53
1.39856e-57
1.13113e-53
3.87915e-64
9.01553e-54
3.20986e-58
7.13611e-54
5.61319e-55
2.77786e-52
5.75461e-55
8.49632e-54
3.94808e-58
2.78198e-54
1.16515e-65
2.21723e-54
8.68327e-59
1.68504e-54
1.33698e-55
6.543e-53
1.36908e-55
2.00565e-54
1.06857e-58
6.68454e-55
1.68476e-76
5.32759e-55
2.2603e-59
3.89194e-55
3.09243e-56
1.49777e-53
3.16363e-56
4.63097e-55
2.78214e-59
1.56843e-55
1.91831e-77
1.2501e-55
5.67528e-60
8.78833e-56
6.93985e-57
3.32888e-54
7.09404e-57
1.04536e-55
6.98505e-60
3.59205e-56
2.11443e-78
2.86326e-56
1.37695e-60
1.9392e-56
1.51002e-57
7.17852e-55
1.54262e-57
2.30583e-56
1.69414e-60
8.02633e-57
2.25447e-79
6.3986e-57
3.23229e-61
4.1794e-57
3.18411e-58
1.50119e-55
3.25136e-58
4.9678e-57
3.97452e-61
1.74907e-57
2.32376e-80
1.39456e-57
7.34749e-62
8.79409e-58
6.5045e-59
3.04332e-56
6.63983e-59
1.04492e-57
9.02725e-62
3.71565e-58
2.31413e-81
2.96302e-58
1.61819e-62
1.80578e-58
1.28694e-59
5.97959e-57
1.31349e-59
2.14487e-58
1.98601e-62
7.69168e-59
2.22562e-82
6.13482e-59
3.45355e-63
3.61706e-59
2.46579e-60
1.13852e-57
2.51656e-60
4.29473e-59
4.23275e-63
1.55093e-59
2.06658e-83
1.23727e-59
7.14291e-64
7.06458e-60
4.57469e-61
2.10043e-58
4.66927e-61
8.38514e-60
8.74019e-64
3.04493e-60
1.85235e-84
2.42967e-60
1.43196e-64
1.34488e-60
8.21768e-62
3.75446e-59
8.38927e-62
1.59571e-60
1.7486e-64
5.81838e-61
1.60271e-85
4.64388e-61
2.77169e-65
2.49449e-61
1.42923e-62
6.50182e-60
1.45953e-62
2.95869e-61
3.38382e-65
1.08169e-61
1.33874e-86
8.63571e-62
5.13788e-66
4.50627e-62
2.40666e-63
1.09082e-60
2.45873e-63
5.343e-62
6.27502e-66
1.95572e-62
1.07981e-87
1.56183e-62
9.13684e-67
7.92564e-63
3.92362e-64
1.77293e-61
4.01064e-64
9.39408e-63
1.11594e-66
3.43762e-63
8.413e-89
2.74613e-63
1.5607e-67
1.3567e-63
6.19347e-65
2.79158e-62
6.33488e-65
1.60752e-63
1.90568e-67
5.87208e-64
6.33412e-90
4.69249e-64
2.56253e-68
2.25957e-64
9.46638e-66
4.25837e-63
9.68974e-66
2.67641e-64
3.12736e-68
9.74434e-65
4.61078e-91
7.78974e-65
4.04576e-69
3.66033e-65
1.40114e-66
6.2936e-64
1.43542e-66
4.33416e-65
4.93394e-69
1.57032e-65
3.24704e-92
1.25583e-65
6.1427e-70
5.76561e-66
2.00857e-67
9.0129e-65
2.05966e-67
6.82477e-66
7.48423e-70
2.45673e-66
2.21386e-93
1.96552e-66
8.96811e-71
8.82841e-67
2.78917e-68
1.25084e-65
2.86311e-68
1.04469e-66
1.09143e-70
3.73006e-67
1.46263e-94
2.98558e-67
1.25866e-71
1.31378e-67
3.75256e-69
1.68263e-66
3.85645e-69
1.55414e-67
1.52975e-71
5.4946e-68
9.37214e-96
4.39996e-68
1.6975e-72
1.89964e-68
4.89255e-70
2.19434e-67
5.0342e-70
2.2465e-68
2.05991e-72
7.85038e-69
5.83015e-97
6.28947e-69
2.19878e-73
2.66831e-69
6.1828e-71
2.77481e-68
6.3702e-71
3.1546e-69
2.66346e-73
1.08758e-69
3.52444e-98
8.71774e-70
2.7336e-74
3.64032e-70
7.57465e-72
3.40295e-69
7.81515e-72
4.30259e-70
3.30451e-74
1.46063e-70
2.0725e-99
1.1714e-70
3.25911e-75
4.82293e-71
8.99802e-73
4.04809e-70
9.29739e-73
5.69892e-71
3.93027e-75
1.90118e-71
1.18654e-100
1.52552e-71
3.72201e-76
6.20425e-72
1.0366e-73
4.67183e-71
1.07274e-73
7.3295e-72
4.47558e-76
2.3978e-72
6.61897e-102
1.92502e-72
4.06552e-77
7.7486e-73
1.15829e-74
5.23154e-72
1.20059e-74
9.15218e-73
4.87152e-77
2.92965e-73
3.59965e-103
2.35327e-73
4.23842e-78
9.39442e-74
1.25555e-75
5.68509e-73
1.30355e-75
1.10943e-73
5.05646e-78
3.46696e-74
1.90918e-104
2.78637e-74
4.20462e-79
1.1056e-74
1.32042e-76
5.99609e-74
1.37322e-76
1.30549e-74
4.98779e-79
3.97315e-75
9.87634e-106
3.19494e-75
3.95123e-80
1.26297e-75
1.34743e-77
6.13866e-75
1.40373e-77
1.49114e-75
4.65192e-80
4.40865e-76
4.98234e-107
3.54712e-76
3.49363e-81
1.40035e-76
1.33437e-78
6.10107e-76
1.39253e-78
1.65319e-76
4.07009e-81
4.73596e-77
2.45002e-108
3.81266e-77
2.87507e-82
1.50706e-77
1.28254e-79
5.88729e-77
1.34077e-79
1.77903e-77
3.29769e-82
4.92494e-78
1.1736e-109
3.96715e-78
2.16138e-83
1.57424e-78
1.19657e-80
5.51631e-78
1.25305e-80
1.85822e-78
2.42027e-83
4.95738e-79
5.47162e-111
3.99575e-79
1.45447e-84
1.59606e-79
1.08371e-81
5.0193e-79
1.1368e-81
1.88386e-79
1.61886e-84
4.82973e-80
2.48052e-112
3.89537e-80
8.96289e-86
1.57038e-80
9.528e-83
4.43521e-80
1.00114e-82
1.85346e-80
9.92167e-86
4.55349e-81
1.09232e-113
3.67504e-81
4.95815e-87
1.49898e-81
8.13105e-84
3.80559e-81
8.55717e-84
1.76909e-81
5.39527e-87
4.15303e-82
4.66732e-115
3.35417e-82
2.27449e-88
1.38702e-82
6.73203e-85
3.16971e-82
7.09551e-85
1.63687e-82
2.37924e-88
3.66152e-83
1.9331e-116
2.95934e-83
7.21426e-90
1.24217e-83
5.40167e-86
2.56052e-83
5.7012e-86
1.46586e-83
6.79668e-90
3.11599e-84
7.75286e-118
2.52028e-84
7.94007e-92
1.07356e-84
4.19116e-87
2.00239e-84
4.42896e-87
1.2668e-84
4.12725e-92
2.55261e-85
3.00769e-119
2.06615e-85
1.43711e-99
8.90915e-86
3.13185e-88
1.51055e-85
3.31285e-88
1.0512e-85
1.69911e-99
2.00342e-86
1.12723e-120
1.62283e-86
9.78644e-101
7.04234e-87
2.23837e-89
1.09229e-86
2.36945e-89
8.3085e-87
1.15362e-100
1.49498e-87
4.07331e-122
1.21187e-87
6.22212e-102
5.23864e-88
1.51356e-90
7.49261e-88
1.60285e-90
6.17974e-88
7.31063e-102
1.04837e-88
1.41396e-123
8.50443e-89
3.61962e-103
3.60458e-89
9.52776e-92
4.79832e-89
1.00907e-91
4.25147e-89
4.24047e-103
6.79394e-90
4.68036e-125
5.51501e-90
1.882e-104
2.24031e-90
5.45698e-93
2.80299e-90
5.77822e-93
2.64185e-90
2.19946e-104
3.9747e-91
1.45637e-126
3.22856e-91
8.47575e-106
1.21746e-91
2.75418e-94
1.44538e-91
2.91509e-94
1.43534e-91
9.88719e-106
2.03273e-92
4.15175e-128
1.65214e-92
3.16387e-107
5.52579e-93
1.17038e-95
6.27836e-93
1.2381e-95
6.51304e-93
3.68603e-107
8.68261e-94
1.03815e-129
7.06096e-94
9.15078e-109
1.95383e-94
3.90624e-97
2.13968e-94
4.13021e-97
2.30225e-94
1.06519e-108
2.88958e-95
2.11866e-131
2.35116e-95
1.81851e-110
4.76079e-96
9.06509e-99
5.05242e-96
9.58177e-99
5.60801e-96
2.11537e-110
6.62859e-97
3.10351e-133
5.39621e-97
1.85919e-112
5.96907e-98
1.11179e-100
6.15857e-98
1.17526e-100
7.02899e-98
2.1613e-112
7.82722e-99
2.4191e-135
6.3751e-99
)
;

boundaryField
{
    BotWall
    {
        type            constantAlphaContactAngle;
        gradient        nonuniform List<scalar> 10(4026.94 0.741916 56.6044 0.000675422 56.6044 0.74217 4026.94 4258.68 54.0372 4258.68);
        limit           gradient;
        theta0          30;
        value           nonuniform List<scalar> 10(0.0284698 0.975181 0.0148795 0.988248 0.0148795 0.975181 0.0284696 0.0595725 0.9986 0.0595726);
    }
    FreeStream
    {
        type            inletOutlet;
        inletValue      uniform 0;
        value           uniform 0;
    }
    FrontNBack
    {
        type            empty;
    }
    LeftSide
    {
        type            cyclic;
    }
    RightSide
    {
        type            cyclic;
    }
}


// ************************************************************************* //
