/*--------------------------------*- C++ -*----------------------------------*\
| =========                 |                                                 |
| \\      /  F ield         | OpenFOAM: The Open Source CFD Toolbox           |
|  \\    /   O peration     | Version:  2.4.0                                 |
|   \\  /    A nd           | Web:      www.OpenFOAM.org                      |
|    \\/     M anipulation  |                                                 |
\*---------------------------------------------------------------------------*/
FoamFile
{
    version     2.0;
    format      ascii;
    class       volScalarField;
    location    "0.5";
    object      H;
}
// * * * * * * * * * * * * * * * * * * * * * * * * * * * * * * * * * * * * * //

dimensions      [0 2 -2 0 0 0 0];

internalField   nonuniform List<scalar> 
1000
(
-2262.84
-7885.72
-2138.38
-10113.5
-2138.38
-7885.72
-2262.83
-1378.98
-8154.93
-1378.98
-1877.18
-5684.76
-2215.59
-9720.51
-2215.61
-5684.76
-1877.18
-1051.63
-143.573
-1051.63
-1797.16
-5188.3
-2050.24
-7048.62
-2050.27
-5188.31
-1797.17
-915.067
-111.536
-915.068
-1712.12
-4746.38
-1955.01
-6611.94
-1955.05
-4746.41
-1712.14
-854.25
-122.07
-854.25
-1624.24
-4350.07
-1851.76
-6192.47
-1851.81
-4350.11
-1624.27
-797.597
-130.079
-797.597
-1535.25
-3992.51
-1744.63
-5791.25
-1744.69
-3992.56
-1535.29
-744.766
-135.885
-744.765
-1446.48
-3668.26
-1636.71
-5408.88
-1636.78
-3668.32
-1446.52
-695.45
-139.778
-695.449
-1358.92
-3372.96
-1530.26
-5045.66
-1530.33
-3373.03
-1358.97
-649.382
-142.021
-649.38
-1273.37
-3103.08
-1426.86
-4701.6
-1426.94
-3103.16
-1273.42
-606.322
-142.849
-606.32
-1190.42
-2855.68
-1327.6
-4376.5
-1327.68
-2855.77
-1190.48
-566.032
-142.47
-566.03
-1110.54
-2628.35
-1233.17
-4070.01
-1233.25
-2628.44
-1110.6
-528.292
-141.073
-528.29
-1034.04
-2419.03
-1143.96
-3781.61
-1144.04
-2419.13
-1034.1
-492.911
-138.822
-492.908
-961.126
-2225.98
-1060.15
-3510.73
-1060.23
-2226.09
-961.189
-459.72
-135.866
-459.716
-891.935
-2047.7
-981.752
-3256.7
-981.83
-2047.82
-891.998
-428.571
-132.334
-428.566
-826.518
-1882.89
-908.665
-3018.8
-908.741
-1883.01
-826.582
-399.332
-128.34
-399.326
-764.877
-1730.4
-840.713
-2796.3
-840.786
-1730.53
-764.941
-371.885
-123.985
-371.878
-706.971
-1589.23
-777.667
-2588.45
-777.737
-1589.35
-707.034
-346.122
-119.356
-346.114
-652.727
-1458.47
-719.269
-2394.49
-719.336
-1458.59
-652.79
-321.945
-114.531
-321.936
-602.039
-1337.43
-665.145
-2213.65
-665.208
-1337.55
-602.1
-299.263
-109.575
-299.254
-554.716
-1225.51
-614.955
-2045.21
-615.015
-1225.63
-554.776
-277.993
-104.546
-277.983
-510.578
-1122.14
-568.393
-1888.44
-568.451
-1122.26
-510.636
-258.055
-99.4917
-258.045
-469.453
-1026.76
-525.188
-1742.64
-525.242
-1026.88
-469.51
-239.376
-94.4553
-239.365
-431.179
-938.845
-485.089
-1607.13
-485.14
-938.964
-431.233
-221.887
-89.4717
-221.876
-395.597
-857.885
-447.872
-1481.28
-447.92
-858
-395.649
-205.523
-84.5704
-205.512
-362.558
-783.394
-413.331
-1364.46
-413.376
-783.504
-362.608
-190.221
-79.7759
-190.21
-331.918
-714.912
-381.276
-1256.09
-381.318
-715.018
-331.966
-175.923
-75.1083
-175.911
-303.538
-652.004
-351.534
-1155.62
-351.573
-652.105
-303.583
-162.573
-70.5837
-162.561
-277.285
-594.261
-323.945
-1062.53
-323.981
-594.356
-277.327
-150.117
-66.2147
-150.105
-253.029
-541.296
-298.359
-976.306
-298.393
-541.386
-253.069
-138.505
-62.0106
-138.494
-230.649
-492.749
-274.64
-896.5
-274.672
-492.834
-230.687
-127.689
-57.9786
-127.678
-210.026
-448.281
-252.66
-822.67
-252.689
-448.361
-210.061
-117.623
-54.123
-117.611
-191.046
-407.578
-232.3
-754.408
-232.327
-407.652
-191.079
-108.261
-50.4464
-108.25
-173.602
-370.344
-213.449
-691.329
-213.474
-370.413
-173.633
-99.5641
-46.9497
-99.5532
-157.589
-336.307
-196.004
-633.073
-196.026
-336.371
-157.618
-91.4904
-43.6321
-91.4798
-142.91
-305.212
-179.868
-579.305
-179.889
-305.271
-142.937
-84.0023
-40.4919
-83.9921
-129.47
-276.822
-164.951
-529.71
-164.97
-276.876
-129.495
-77.0636
-37.526
-77.0537
-117.18
-250.919
-151.169
-483.994
-151.186
-250.969
-117.203
-70.6397
-34.7306
-70.6302
-105.955
-227.299
-138.443
-441.882
-138.459
-227.345
-105.976
-64.6979
-32.1012
-64.6888
-95.7164
-205.776
-126.7
-403.117
-126.714
-205.818
-95.7356
-59.2068
-29.6326
-59.1981
-86.3877
-186.176
-115.87
-367.46
-115.882
-186.214
-86.4053
-54.1371
-27.3192
-54.1288
-77.8983
-168.337
-105.888
-334.686
-105.9
-168.372
-77.9144
-49.4605
-25.1551
-49.4526
-70.1815
-152.113
-96.6957
-304.585
-96.7061
-152.145
-70.1962
-45.1506
-23.1342
-45.1431
-63.1749
-137.366
-88.2351
-276.961
-88.2444
-137.395
-63.1884
-41.1822
-21.25
-41.1751
-56.8201
-123.971
-80.4537
-251.632
-80.4621
-123.997
-56.8324
-37.5315
-19.4962
-37.5249
-51.0627
-111.811
-73.3021
-228.426
-73.3097
-111.835
-51.0739
-34.1763
-17.8662
-34.1701
-45.8519
-100.78
-66.7342
-207.183
-66.741
-100.801
-45.8621
-31.0954
-16.3536
-31.0895
-41.1405
-90.7788
-60.7067
-187.755
-60.7129
-90.7983
-41.1498
-28.2689
-14.9521
-28.2633
-36.885
-81.7179
-55.1795
-170.001
-55.185
-81.7356
-36.8935
-25.6781
-13.6552
-25.6729
-33.0449
-73.514
-50.1148
-153.792
-50.1198
-73.53
-33.0526
-23.3055
-12.457
-23.3007
-29.5828
-66.0909
-45.4775
-139.007
-45.482
-66.1053
-29.5898
-21.1347
-11.3514
-21.1302
-26.4643
-59.3786
-41.2348
-125.533
-41.2389
-59.3916
-26.4707
-19.1503
-10.3326
-19.1461
-23.6578
-53.3131
-37.3564
-113.265
-37.3601
-53.3248
-23.6636
-17.3379
-9.39499
-17.334
-21.1342
-47.8356
-33.8137
-102.104
-33.817
-47.8461
-21.1394
-15.684
-8.5333
-15.6803
-18.8669
-42.8923
-30.5803
-91.9606
-30.5833
-42.9018
-18.8716
-14.1761
-7.74234
-14.1727
-16.8313
-38.4341
-27.6317
-82.7502
-27.6343
-38.4426
-16.8356
-12.8025
-7.01721
-12.7993
-15.0053
-34.4159
-24.9449
-74.3946
-24.9473
-34.4237
-15.0092
-11.5523
-6.35324
-11.5494
-13.3685
-30.7969
-22.4988
-66.8214
-22.501
-30.8038
-13.372
-10.4155
-5.746
-10.4128
-11.9023
-27.5393
-20.2737
-59.9638
-20.2757
-27.5456
-11.9055
-9.38254
-5.1913
-9.38006
-10.5899
-24.6091
-18.2515
-53.7598
-18.2532
-24.6148
-10.5928
-8.44486
-4.68518
-8.44257
-9.41599
-21.9751
-16.4151
-48.1523
-16.4167
-21.9802
-9.41858
-7.59435
-4.22391
-7.59224
-8.36656
-19.6089
-14.749
-43.0887
-14.7504
-19.6135
-8.3689
-6.82358
-3.80399
-6.82163
-7.42907
-17.4847
-13.2387
-38.5204
-13.24
-17.4888
-7.43118
-6.12565
-3.42214
-6.12386
-6.59209
-15.579
-11.8708
-34.403
-11.872
-15.5827
-6.594
-5.49421
-3.07529
-5.49257
-5.84531
-13.8704
-10.6332
-30.6953
-10.6343
-13.8738
-5.84703
-4.92341
-2.76056
-4.92191
-5.17941
-12.3396
-9.51436
-27.3598
-9.51533
-12.3426
-5.18096
-4.40786
-2.47529
-4.40649
-4.58598
-10.969
-8.50385
-24.3619
-8.50473
-10.9717
-4.58737
-3.94259
-2.217
-3.94134
-4.05744
-9.74263
-7.59206
-21.67
-7.59285
-9.74509
-4.05869
-3.52306
-1.98337
-3.52191
-3.58696
-8.64606
-6.7701
-19.2552
-6.77082
-8.64827
-3.58808
-3.14507
-1.77227
-3.14402
-3.1684
-7.66621
-6.02985
-17.091
-6.0305
-7.66819
-3.1694
-2.80479
-1.58172
-2.80384
-2.79624
-6.79125
-5.36382
-15.1533
-5.36441
-6.79303
-2.79714
-2.49873
-1.4099
-2.49786
-2.46552
-6.01047
-4.76517
-13.4201
-4.7657
-6.01207
-2.46633
-2.22365
-1.25511
-2.22287
-2.1718
-5.31422
-4.2276
-11.8713
-4.22808
-5.31566
-2.17252
-1.97664
-1.11582
-1.97592
-1.91107
-4.69378
-3.74537
-10.4885
-3.7458
-4.69507
-1.91171
-1.755
-0.9906
-1.75435
-1.67977
-4.14126
-3.31322
-9.2553
-3.3136
-4.14241
-1.68034
-1.55629
-0.878135
-1.55571
-1.47469
-3.64957
-2.92634
-8.15645
-2.92668
-3.65061
-1.4752
-1.3783
-0.777228
-1.37777
-1.29296
-3.21233
-2.58035
-7.1783
-2.58066
-3.21325
-1.29342
-1.21898
-0.686784
-1.21851
-1.13203
-2.82377
-2.27125
-6.30842
-2.27153
-2.82459
-1.13243
-1.0765
-0.605799
-1.07608
-0.989588
-2.47871
-1.99541
-5.53557
-1.99565
-2.47944
-0.989946
-0.949183
-0.533357
-0.948801
-0.863604
-2.1725
-1.7495
-4.84957
-1.74972
-2.17316
-0.86392
-0.835507
-0.468624
-0.835165
-0.752244
-1.90096
-1.53052
-4.24124
-1.53071
-1.90154
-0.752522
-0.734094
-0.41084
-0.733788
-0.653877
-1.66033
-1.33574
-3.70228
-1.33591
-1.66084
-0.654123
-0.643696
-0.359315
-0.643424
-0.56705
-1.44724
-1.16268
-3.22521
-1.16283
-1.4477
-0.567266
-0.563183
-0.313419
-0.562941
-0.490467
-1.25867
-1.0091
-2.8033
-1.00923
-1.25907
-0.490655
-0.491533
-0.272586
-0.491319
-0.422972
-1.09191
-0.872972
-2.43048
-0.873088
-1.09227
-0.423136
-0.427824
-0.236298
-0.427635
-0.363538
-0.944545
-0.752462
-2.10131
-0.752563
-0.944854
-0.363681
-0.371222
-0.20409
-0.371056
-0.31125
-0.814396
-0.645917
-1.8109
-0.646005
-0.814666
-0.311374
-0.320976
-0.175539
-0.32083
-0.265295
-0.699526
-0.551848
-1.55487
-0.551924
-0.699761
-0.265402
-0.276408
-0.150265
-0.276281
-0.22495
-0.598203
-0.468914
-1.32929
-0.46898
-0.598407
-0.225042
-0.23691
-0.127924
-0.236799
-0.189573
-0.508878
-0.39591
-1.13065
-0.395967
-0.509053
-0.189651
-0.201931
-0.108208
-0.201836
-0.158595
-0.430167
-0.331757
-0.955799
-0.331805
-0.430318
-0.15866
-0.17098
-0.0908373
-0.170898
-0.131508
-0.360838
-0.275484
-0.801939
-0.275524
-0.360966
-0.131563
-0.143611
-0.0755623
-0.143542
-0.107867
-0.29979
-0.226225
-0.666561
-0.226259
-0.299897
-0.107912
-0.119428
-0.0621586
-0.11937
-0.0872728
-0.24604
-0.183207
-0.547428
-0.183234
-0.246129
-0.08731
-0.0980714
-0.0504248
-0.0980231
-0.0693755
-0.198713
-0.145738
-0.442547
-0.14576
-0.198787
-0.0694054
-0.0792208
-0.0401805
-0.0791814
-0.0538646
-0.157029
-0.113204
-0.350139
-0.113221
-0.157087
-0.053888
-0.0625876
-0.0312648
-0.0625561
-0.040466
-0.12029
-0.0850595
-0.268619
-0.0850726
-0.120335
-0.0404837
-0.0479126
-0.0235335
-0.0478883
-0.0289381
-0.0878729
-0.0608212
-0.196573
-0.0608307
-0.0879065
-0.0289509
-0.0349632
-0.0168584
-0.0349454
-0.0190683
-0.0592229
-0.0400619
-0.13274
-0.0400682
-0.0592458
-0.0190767
-0.0235303
-0.0111252
-0.0235182
-0.0106698
-0.0338418
-0.0224053
-0.0759932
-0.0224089
-0.033855
-0.0106746
-0.0134256
-0.00623256
-0.0134186
-0.0035791
-0.0112837
-0.00752173
-0.0253241
-0.00752293
-0.0112881
-0.0035807
-0.0044797
-0.00209068
-0.00447739
)
;

boundaryField
{
    BotWall
    {
        type            zeroGradient;
    }
    FreeStream
    {
        type            zeroGradient;
    }
    FrontNBack
    {
        type            empty;
    }
    LeftSide
    {
        type            cyclic;
    }
    RightSide
    {
        type            cyclic;
    }
}


// ************************************************************************* //
