/*--------------------------------*- C++ -*----------------------------------*\
| =========                 |                                                 |
| \\      /  F ield         | OpenFOAM: The Open Source CFD Toolbox           |
|  \\    /   O peration     | Version:  2.4.0                                 |
|   \\  /    A nd           | Web:      www.OpenFOAM.org                      |
|    \\/     M anipulation  |                                                 |
\*---------------------------------------------------------------------------*/
FoamFile
{
    version     2.0;
    format      ascii;
    class       surfaceScalarField;
    location    "0.5";
    object      phi;
}
// * * * * * * * * * * * * * * * * * * * * * * * * * * * * * * * * * * * * * //

dimensions      [0 3 -1 0 0 0 0];

internalField   nonuniform List<scalar> 
1890
(
-3.02671e-11
-1.51544e-09
-4.25616e-10
-1.02086e-09
3.46117e-10
-1.91185e-09
-3.46117e-10
2.19234e-11
4.25616e-10
-1.91185e-09
3.02694e-11
-1.02087e-09
2.56792e-11
-1.51505e-09
4.97337e-11
-1.13833e-09
-4.97326e-11
7.32696e-12
-1.13835e-09
-4.78562e-11
-1.46133e-09
-9.21006e-11
-9.76616e-10
-7.72474e-11
-1.9267e-09
7.7247e-11
-1.32571e-10
9.21001e-11
-1.9267e-09
4.78526e-11
-9.76618e-10
-6.04787e-12
-1.46115e-09
-1.68134e-11
-1.12757e-09
1.68173e-11
-1.33739e-09
-1.12779e-09
-4.40876e-11
-1.408e-09
-9.10885e-11
-9.29616e-10
-4.56118e-11
-1.97218e-09
4.56116e-11
-2.23794e-10
9.10883e-11
-1.97218e-09
4.40832e-11
-9.29612e-10
-9.24833e-12
-1.40782e-09
-5.17498e-12
-1.13164e-09
5.18057e-12
-1.34774e-09
-1.13186e-09
-3.98313e-11
-1.36158e-09
-7.77284e-11
-8.91718e-10
-3.83922e-11
-2.01151e-09
3.83929e-11
-3.00579e-10
7.77291e-11
-2.01152e-09
3.98271e-11
-8.91711e-10
-6.58792e-12
-1.3614e-09
-5.40186e-12
-1.13283e-09
5.40755e-12
-1.35855e-09
-1.13303e-09
-3.5615e-11
-1.32135e-09
-6.6072e-11
-8.61261e-10
-3.21915e-11
-2.04539e-09
3.21931e-11
-3.64964e-10
6.60735e-11
-2.0454e-09
3.56112e-11
-8.61248e-10
-4.61166e-12
-1.32118e-09
-4.58086e-12
-1.13286e-09
4.58558e-12
-1.36772e-09
-1.13306e-09
-3.15911e-11
-1.28681e-09
-5.58192e-11
-8.37033e-10
-2.69796e-11
-2.07423e-09
2.6982e-11
-4.18926e-10
5.58213e-11
-2.07424e-09
3.15876e-11
-8.37015e-10
-2.95042e-12
-1.28664e-09
-3.83149e-12
-1.13198e-09
3.83529e-12
-1.37539e-09
-1.13217e-09
-2.77718e-11
-1.25749e-09
-4.68098e-11
-8.17995e-10
-2.26184e-11
-2.09843e-09
2.26214e-11
-4.64166e-10
4.68125e-11
-2.09843e-09
2.77687e-11
-8.17971e-10
-1.55126e-12
-1.25732e-09
-3.25271e-12
-1.13028e-09
3.25571e-12
-1.3819e-09
-1.13047e-09
-2.41578e-11
-1.23298e-09
-3.89074e-11
-8.03246e-10
-1.89746e-11
-2.11836e-09
1.89782e-11
-5.02118e-10
3.89106e-11
-2.11836e-09
2.4155e-11
-8.03215e-10
-3.60448e-13
-1.23281e-09
-2.77342e-12
-1.12786e-09
2.77573e-12
-1.38744e-09
-1.12805e-09
-2.07599e-11
-1.21276e-09
-3.19775e-11
-7.92028e-10
-1.59304e-11
-2.13441e-09
1.59346e-11
-5.33983e-10
3.19811e-11
-2.13441e-09
2.07573e-11
-7.91991e-10
5.37576e-13
-1.21259e-09
-2.35359e-12
-1.12497e-09
2.35532e-12
-1.39215e-09
-1.12515e-09
-1.75869e-11
-1.19641e-09
-2.58986e-11
-7.83716e-10
-1.3387e-11
-2.14692e-09
1.33915e-11
-5.60762e-10
2.59024e-11
-2.14692e-09
1.75845e-11
-7.83674e-10
1.2404e-12
-1.19624e-09
-1.98408e-12
-1.12175e-09
1.98533e-12
-1.39612e-09
-1.12192e-09
-1.4642e-11
-1.18359e-09
-2.05658e-11
-7.77793e-10
-1.12615e-11
-2.15622e-09
1.12664e-11
-5.8329e-10
2.05698e-11
-2.15622e-09
1.46398e-11
-7.77744e-10
1.81968e-12
-1.18342e-09
-1.66249e-12
-1.11827e-09
1.66337e-12
-1.39945e-09
-1.11844e-09
-1.19234e-11
-1.17396e-09
-1.58894e-11
-7.73827e-10
-9.48454e-12
-2.16263e-09
9.48975e-12
-6.02264e-10
1.58936e-11
-2.16262e-09
1.19215e-11
-7.73771e-10
2.28477e-12
-1.17379e-09
-1.38579e-12
-1.11459e-09
1.38641e-12
-1.40222e-09
-1.11476e-09
-9.42607e-12
-1.16719e-09
-1.17927e-11
-7.7146e-10
-7.99798e-12
-2.16642e-09
8.00341e-12
-6.18265e-10
1.17971e-11
-2.16642e-09
9.42433e-12
-7.71399e-10
2.65145e-12
-1.16701e-09
-1.15017e-12
-1.11079e-09
1.15061e-12
-1.40452e-09
-1.11096e-09
-7.14201e-12
-1.16298e-09
-8.21113e-12
-7.70391e-10
-6.75304e-12
-2.16788e-09
6.75865e-12
-6.31777e-10
8.21553e-12
-2.16787e-09
7.14043e-12
-7.70324e-10
2.93429e-12
-1.16281e-09
-9.51782e-13
-1.10691e-09
9.52126e-13
-1.40643e-09
-1.10707e-09
-5.06071e-12
-1.16107e-09
-5.09257e-12
-7.70359e-10
-5.70907e-12
-2.16726e-09
5.71481e-12
-6.43201e-10
5.09695e-12
-2.16726e-09
5.05927e-12
-7.70286e-10
3.14577e-12
-1.1609e-09
-7.86956e-13
-1.10297e-09
7.87292e-13
-1.408e-09
-1.10313e-09
-3.16749e-12
-1.1612e-09
-2.40557e-12
-7.71121e-10
-4.83226e-12
-2.16484e-09
4.83808e-12
-6.52871e-10
2.4098e-12
-2.16483e-09
3.16618e-12
-7.71042e-10
3.2963e-12
-1.16103e-09
-6.52208e-13
-1.09903e-09
6.52613e-13
-1.4093e-09
-1.09918e-09
-1.43459e-12
-1.16316e-09
-2.34285e-13
-7.72321e-10
-4.09449e-12
-2.16098e-09
4.10035e-12
-6.61066e-10
2.25509e-13
-2.16095e-09
1.43338e-12
-7.7225e-10
3.39453e-12
-1.16299e-09
-5.44182e-13
-1.09509e-09
5.44729e-13
-1.41039e-09
-1.09524e-09
1.98937e-13
-1.16681e-09
2.05346e-12
-7.74176e-10
-3.4722e-12
-2.15545e-09
3.4781e-12
-6.68017e-10
-2.04887e-12
-2.15543e-09
-2.05794e-13
-7.74093e-10
3.4477e-12
-1.16664e-09
-4.59659e-13
-1.09118e-09
4.60409e-13
-1.41131e-09
-1.09133e-09
1.40553e-12
-1.17168e-09
3.90939e-12
-7.76679e-10
-2.94743e-12
-2.14859e-09
2.95333e-12
-6.73917e-10
-3.90514e-12
-2.14857e-09
-1.40677e-12
-7.76592e-10
3.46216e-12
-1.17151e-09
-3.95593e-13
-1.08732e-09
3.96592e-13
-1.41211e-09
-1.08747e-09
2.5453e-12
-1.17767e-09
5.48231e-12
-7.79616e-10
-2.50522e-12
-2.14061e-09
2.5111e-12
-6.78934e-10
-5.47828e-12
-2.14058e-09
-2.54629e-12
-7.79524e-10
3.44397e-12
-1.1775e-09
-3.49201e-13
-1.08353e-09
3.50472e-13
-1.41281e-09
-1.08367e-09
3.56231e-12
-1.18463e-09
6.81981e-12
-7.82874e-10
-2.13313e-12
-2.13165e-09
2.13896e-12
-6.83206e-10
-6.816e-12
-2.13162e-09
-3.56317e-12
-7.82777e-10
3.39852e-12
-1.18446e-09
-3.17981e-13
-1.07981e-09
3.19516e-13
-1.41344e-09
-1.07995e-09
4.45622e-12
-1.19242e-09
7.95217e-12
-7.8637e-10
-1.82084e-12
-2.12188e-09
1.8266e-12
-6.86853e-10
-7.94855e-12
-2.12185e-09
-4.45698e-12
-7.86268e-10
3.33052e-12
-1.19225e-09
-2.99734e-13
-1.07618e-09
3.0149e-13
-1.41404e-09
-1.07632e-09
5.23398e-12
-1.2009e-09
8.90364e-12
-7.9004e-10
-1.55978e-12
-2.11142e-09
1.56546e-12
-6.89978e-10
-8.90024e-12
-2.11138e-09
-5.23465e-12
-7.89934e-10
3.24411e-12
-1.20073e-09
-2.92564e-13
-1.07265e-09
2.94475e-13
-1.41463e-09
-1.07278e-09
5.90422e-12
-1.20995e-09
9.69504e-12
-7.9383e-10
-1.34282e-12
-2.10038e-09
1.3484e-12
-6.9267e-10
-9.69185e-12
-2.10034e-09
-5.90481e-12
-7.93721e-10
3.14286e-12
-1.20977e-09
-2.94854e-13
-1.06921e-09
2.96852e-13
-1.41522e-09
-1.06934e-09
6.47582e-12
-1.21945e-09
1.03446e-11
-7.97699e-10
-1.164e-12
-2.08887e-09
1.16947e-12
-6.95003e-10
-1.03416e-11
-2.08883e-09
-6.47635e-12
-7.97586e-10
3.02989e-12
-1.21928e-09
-3.05225e-13
-1.06587e-09
3.07259e-13
-1.41584e-09
-1.066e-09
6.95745e-12
-1.22932e-09
1.08685e-11
-8.0161e-10
-1.01832e-12
-2.07698e-09
1.02366e-12
-6.97045e-10
-1.08657e-11
-2.07694e-09
-6.95792e-12
-8.01494e-10
2.90792e-12
-1.22915e-09
-3.22479e-13
-1.06264e-09
3.24525e-13
-1.41648e-09
-1.06277e-09
7.35734e-12
-1.23946e-09
1.1281e-11
-8.05534e-10
-9.0158e-13
-2.0648e-09
9.06771e-13
-6.98854e-10
-1.12784e-11
-2.06476e-09
-7.35774e-12
-8.05415e-10
2.77931e-12
-1.23928e-09
-3.45562e-13
-1.05952e-09
3.47618e-13
-1.41718e-09
-1.05964e-09
7.68322e-12
-1.24979e-09
1.15951e-11
-8.09446e-10
-8.10205e-13
-2.0524e-09
8.15227e-13
-7.00479e-10
-1.15927e-11
-2.05235e-09
-7.68356e-12
-8.09324e-10
2.6461e-12
-1.24961e-09
-3.73523e-13
-1.0565e-09
3.75604e-13
-1.41792e-09
-1.05662e-09
7.94227e-12
-1.26024e-09
1.18221e-11
-8.13325e-10
-7.41109e-13
-2.03983e-09
7.45937e-13
-7.01966e-10
-1.18199e-11
-2.03978e-09
-7.94256e-12
-8.13201e-10
2.51003e-12
-1.26007e-09
-4.05496e-13
-1.05358e-09
4.07621e-13
-1.41874e-09
-1.0537e-09
8.14117e-12
-1.27075e-09
1.19724e-11
-8.17157e-10
-6.91572e-13
-2.02717e-09
6.96178e-13
-7.03354e-10
-1.19704e-11
-2.02712e-09
-8.14141e-12
-8.1703e-10
2.37264e-12
-1.27058e-09
-4.40681e-13
-1.05077e-09
4.42873e-13
-1.41962e-09
-1.05089e-09
8.28603e-12
-1.28127e-09
1.20551e-11
-8.20926e-10
-6.5914e-13
-2.01445e-09
6.63496e-13
-7.04676e-10
-1.20532e-11
-2.0144e-09
-8.28622e-12
-8.20797e-10
2.23521e-12
-1.2811e-09
-4.78345e-13
-1.04806e-09
4.80623e-13
-1.42058e-09
-1.04817e-09
8.3825e-12
-1.29175e-09
1.20784e-11
-8.24622e-10
-6.4155e-13
-2.00173e-09
6.45631e-13
-7.05964e-10
-1.20767e-11
-2.00168e-09
-8.38264e-12
-8.24491e-10
2.09885e-12
-1.29158e-09
-5.17813e-13
-1.04544e-09
5.20194e-13
-1.42162e-09
-1.04556e-09
8.43574e-12
-1.30215e-09
1.20497e-11
-8.28236e-10
-6.36696e-13
-1.98905e-09
6.40478e-13
-7.07241e-10
-1.20482e-11
-1.98899e-09
-8.43582e-12
-8.28104e-10
1.9645e-12
-1.30198e-09
-5.58469e-13
-1.04292e-09
5.60966e-13
-1.42274e-09
-1.04303e-09
8.45045e-12
-1.31243e-09
1.19756e-11
-8.31761e-10
-6.42616e-13
-1.97643e-09
6.46087e-13
-7.08529e-10
-1.19743e-11
-1.97637e-09
-8.45049e-12
-8.31628e-10
1.83293e-12
-1.31227e-09
-5.99755e-13
-1.04048e-09
6.02377e-13
-1.42394e-09
-1.0406e-09
8.43096e-12
-1.32257e-09
1.18621e-11
-8.35192e-10
-6.5751e-13
-1.96391e-09
6.60663e-13
-7.09848e-10
-1.18609e-11
-1.96385e-09
-8.43094e-12
-8.35058e-10
1.70482e-12
-1.3224e-09
-6.41168e-13
-1.03814e-09
6.43923e-13
-1.42522e-09
-1.03825e-09
8.38117e-12
-1.33253e-09
1.17144e-11
-8.38525e-10
-6.79746e-13
-1.95152e-09
6.82583e-13
-7.1121e-10
-1.17133e-11
-1.95145e-09
-8.3811e-12
-8.3839e-10
1.58068e-12
-1.33236e-09
-6.82262e-13
-1.03587e-09
6.85154e-13
-1.42659e-09
-1.03598e-09
8.30467e-12
-1.34229e-09
1.15372e-11
-8.41758e-10
-7.07875e-13
-1.93927e-09
7.10402e-13
-7.12628e-10
-1.15363e-11
-1.9392e-09
-8.30455e-12
-8.41622e-10
1.46095e-12
-1.34213e-09
-7.22642e-13
-1.03369e-09
7.25672e-13
-1.42804e-09
-1.0338e-09
8.20471e-12
-1.35184e-09
1.13348e-11
-8.44888e-10
-7.40619e-13
-1.9272e-09
7.42847e-13
-7.14112e-10
-1.1334e-11
-1.92713e-09
-8.20454e-12
-8.44751e-10
1.34598e-12
-1.35168e-09
-7.61961e-13
-1.03158e-09
7.6513e-13
-1.42957e-09
-1.03169e-09
8.08425e-12
-1.36116e-09
1.11111e-11
-8.47914e-10
-7.76869e-13
-1.91531e-09
7.78811e-13
-7.15667e-10
-1.11104e-11
-1.91524e-09
-8.08403e-12
-8.47777e-10
1.23603e-12
-1.361e-09
-7.99919e-13
-1.02955e-09
8.03225e-13
-1.43117e-09
-1.02965e-09
7.94598e-12
-1.37024e-09
1.08694e-11
-8.50838e-10
-8.15661e-13
-1.90362e-09
8.17334e-13
-7.173e-10
-1.08689e-11
-1.90355e-09
-7.9457e-12
-8.50701e-10
1.13129e-12
-1.37008e-09
-8.3626e-13
-1.02758e-09
8.39701e-13
-1.43285e-09
-1.02768e-09
7.79233e-12
-1.37906e-09
1.06129e-11
-8.53658e-10
-8.56168e-13
-1.89215e-09
8.57587e-13
-7.19014e-10
-1.06124e-11
-1.89208e-09
-7.79201e-12
-8.53521e-10
1.03188e-12
-1.3789e-09
-8.70768e-13
-1.02568e-09
8.7434e-13
-1.43459e-09
-1.02578e-09
7.62554e-12
-1.38762e-09
1.03442e-11
-8.56377e-10
-8.97676e-13
-1.88091e-09
8.98858e-13
-7.20811e-10
-1.03438e-11
-1.88084e-09
-7.62516e-12
-8.5624e-10
9.37894e-13
-1.38746e-09
-9.03262e-13
-1.02384e-09
9.0696e-13
-1.4364e-09
-1.02394e-09
7.44761e-12
-1.39591e-09
1.00658e-11
-8.58995e-10
-9.39573e-13
-1.86991e-09
9.40535e-13
-7.22691e-10
-1.00654e-11
-1.86983e-09
-7.44718e-12
-8.58858e-10
8.49345e-13
-1.39576e-09
-9.33596e-13
-1.02205e-09
9.37415e-13
-1.43827e-09
-1.02215e-09
7.26037e-12
-1.40394e-09
9.77985e-12
-8.61515e-10
-9.81333e-13
-1.85914e-09
9.82091e-13
-7.24654e-10
-9.77959e-12
-1.85907e-09
-7.25989e-12
-8.61378e-10
7.66226e-13
-1.40379e-09
-9.61654e-13
-1.02032e-09
9.65588e-13
-1.4402e-09
-1.02042e-09
7.06547e-12
-1.41169e-09
9.48836e-12
-8.63938e-10
-1.02251e-12
-1.84863e-09
1.02308e-12
-7.267e-10
-9.48816e-12
-1.84856e-09
-7.06493e-12
-8.63801e-10
6.88487e-13
-1.41154e-09
-9.87349e-13
-1.01865e-09
9.91392e-13
-1.44218e-09
-1.01875e-09
6.86441e-12
-1.41917e-09
9.19305e-12
-8.66266e-10
-1.06271e-12
-1.83838e-09
1.06311e-12
-7.28826e-10
-9.1929e-12
-1.8383e-09
-6.86382e-12
-8.6613e-10
6.16048e-13
-1.41902e-09
-1.01062e-12
-1.01702e-09
1.01476e-12
-1.4442e-09
-1.01712e-09
6.65854e-12
-1.42637e-09
8.89545e-12
-8.68503e-10
-1.10162e-12
-1.82838e-09
1.10187e-12
-7.31029e-10
-8.89535e-12
-1.82831e-09
-6.6579e-12
-8.68367e-10
5.48803e-13
-1.42623e-09
-1.03142e-12
-1.01544e-09
1.03566e-12
-1.44627e-09
-1.01554e-09
6.4491e-12
-1.4333e-09
8.59693e-12
-8.70651e-10
-1.13897e-12
-1.81864e-09
1.13907e-12
-7.33307e-10
-8.59687e-12
-1.81857e-09
-6.4484e-12
-8.70516e-10
4.86623e-13
-1.43316e-09
-1.04973e-12
-1.01391e-09
1.05406e-12
-1.44838e-09
-1.014e-09
6.23717e-12
-1.43997e-09
8.29871e-12
-8.72712e-10
-1.17451e-12
-1.80917e-09
1.17449e-12
-7.35656e-10
-8.29868e-12
-1.8091e-09
-6.23642e-12
-8.72578e-10
4.29358e-13
-1.43983e-09
-1.06556e-12
-1.01241e-09
1.06997e-12
-1.45051e-09
-1.0125e-09
6.02376e-12
-1.44636e-09
8.00185e-12
-8.74691e-10
-1.20808e-12
-1.79996e-09
1.20794e-12
-7.38072e-10
-8.00184e-12
-1.79989e-09
-6.02296e-12
-8.74557e-10
3.76845e-13
-1.44623e-09
-1.07891e-12
-1.01095e-09
1.08339e-12
-1.45267e-09
-1.01105e-09
5.80975e-12
-1.4525e-09
7.70728e-12
-8.76588e-10
-1.23951e-12
-1.79101e-09
1.23927e-12
-7.40551e-10
-7.70729e-12
-1.79094e-09
-5.8089e-12
-8.76455e-10
3.28905e-13
-1.45237e-09
-1.08982e-12
-1.00954e-09
1.09436e-12
-1.45486e-09
-1.00963e-09
5.59595e-12
-1.45838e-09
7.41582e-12
-8.78408e-10
-1.26867e-12
-1.78233e-09
1.26835e-12
-7.43088e-10
-7.41585e-12
-1.78226e-09
-5.59505e-12
-8.78276e-10
2.85347e-13
-1.45825e-09
-1.09831e-12
-1.00815e-09
1.10292e-12
-1.45706e-09
-1.00824e-09
5.38307e-12
-1.46401e-09
7.12819e-12
-8.80153e-10
-1.29549e-12
-1.77391e-09
1.2951e-12
-7.45678e-10
-7.12822e-12
-1.77383e-09
-5.38212e-12
-8.80022e-10
2.45969e-13
-1.46387e-09
-1.10446e-12
-1.0068e-09
1.10912e-12
-1.45927e-09
-1.00689e-09
5.17175e-12
-1.46938e-09
6.84499e-12
-8.81826e-10
-1.31989e-12
-1.76574e-09
1.31943e-12
-7.48318e-10
-6.84503e-12
-1.76567e-09
-5.17075e-12
-8.81696e-10
2.10554e-13
-1.46926e-09
-1.10831e-12
-1.00548e-09
1.11301e-12
-1.46149e-09
-1.00557e-09
4.96257e-12
-1.47452e-09
6.56676e-12
-8.8343e-10
-1.34182e-12
-1.75783e-09
1.34131e-12
-7.51001e-10
-6.56679e-12
-1.75776e-09
-4.96151e-12
-8.83302e-10
1.78827e-13
-1.4744e-09
-1.10993e-12
-1.00419e-09
1.11467e-12
-1.46372e-09
-1.00428e-09
4.75601e-12
-1.47942e-09
6.29395e-12
-8.84968e-10
-1.36126e-12
-1.75018e-09
1.36072e-12
-7.53723e-10
-6.29397e-12
-1.75011e-09
-4.7549e-12
-8.84841e-10
1.51296e-13
-1.4793e-09
-1.1094e-12
-1.00293e-09
1.11418e-12
-1.46594e-09
-1.00302e-09
4.55251e-12
-1.48411e-09
6.02693e-12
-8.86443e-10
-1.37821e-12
-1.74277e-09
1.37763e-12
-7.56479e-10
-6.02694e-12
-1.7427e-09
-4.55137e-12
-8.86316e-10
1.40688e-13
-1.48399e-09
-1.1068e-12
-1.00169e-09
1.11159e-12
-1.46816e-09
-1.00177e-09
4.35253e-12
-1.48856e-09
5.76603e-12
-8.87856e-10
-1.39265e-12
-1.73561e-09
1.39206e-12
-7.59263e-10
-5.76602e-12
-1.73554e-09
-4.35134e-12
-8.87731e-10
9.70595e-14
-1.48844e-09
-1.10227e-12
-1.00049e-09
1.10705e-12
-1.47037e-09
-1.00057e-09
4.15633e-12
-1.4928e-09
5.5115e-12
-8.89211e-10
-1.40462e-12
-1.7287e-09
1.40402e-12
-7.62072e-10
-5.51146e-12
-1.72863e-09
-4.15511e-12
-8.89087e-10
8.42826e-14
-1.49268e-09
-1.09581e-12
-9.99306e-10
1.1006e-12
-1.47257e-09
-9.99387e-10
3.96425e-12
-1.49682e-09
5.26355e-12
-8.90511e-10
-1.41415e-12
-1.72202e-09
1.41355e-12
-7.649e-10
-5.26348e-12
-1.72195e-09
-3.96298e-12
-8.90388e-10
6.06485e-14
-1.49671e-09
-1.08757e-12
-9.98158e-10
1.09235e-12
-1.47475e-09
-9.98237e-10
3.77653e-12
-1.50063e-09
5.02233e-12
-8.91757e-10
-1.42128e-12
-1.71558e-09
1.42069e-12
-7.67742e-10
-5.02222e-12
-1.71551e-09
-3.77522e-12
-8.91635e-10
3.98514e-14
-1.50052e-09
-1.07762e-12
-9.97041e-10
1.08239e-12
-1.47691e-09
-9.97118e-10
3.59338e-12
-1.50424e-09
4.78796e-12
-8.92951e-10
-1.42607e-12
-1.70936e-09
1.42549e-12
-7.70593e-10
-4.78782e-12
-1.7093e-09
-3.59204e-12
-8.9283e-10
2.17179e-14
-1.50413e-09
-1.06607e-12
-9.95953e-10
1.07082e-12
-1.47904e-09
-9.9603e-10
3.415e-12
-1.50766e-09
4.56052e-12
-8.94097e-10
-1.42856e-12
-1.70337e-09
1.428e-12
-7.7345e-10
-4.56034e-12
-1.70331e-09
-3.41362e-12
-8.93977e-10
6.07924e-15
-1.50755e-09
-1.05303e-12
-9.94894e-10
1.05776e-12
-1.48115e-09
-9.94969e-10
3.24153e-12
-1.51089e-09
4.34007e-12
-8.95195e-10
-1.42883e-12
-1.6976e-09
1.42831e-12
-7.76307e-10
-4.33983e-12
-1.69754e-09
-3.24011e-12
-8.95077e-10
-7.22983e-15
-1.51079e-09
-1.03859e-12
-9.93862e-10
1.04329e-12
-1.48323e-09
-9.93937e-10
3.07309e-12
-1.51394e-09
4.1266e-12
-8.96249e-10
-1.42696e-12
-1.69205e-09
1.42647e-12
-7.7916e-10
-4.12632e-12
-1.69199e-09
-3.07163e-12
-8.96132e-10
-1.83716e-14
-1.51384e-09
-1.02287e-12
-9.92858e-10
1.02754e-12
-1.48529e-09
-9.92931e-10
2.90977e-12
-1.51682e-09
3.92013e-12
-8.97259e-10
-1.42301e-12
-1.68671e-09
1.42257e-12
-7.82006e-10
-3.91979e-12
-1.68664e-09
-2.90828e-12
-8.97143e-10
-2.7505e-14
-1.51672e-09
-1.00598e-12
-9.91879e-10
1.01061e-12
-1.4873e-09
-9.91952e-10
2.75166e-12
-1.51953e-09
3.72062e-12
-8.98228e-10
-1.41709e-12
-1.68157e-09
1.41669e-12
-7.8484e-10
-3.72022e-12
-1.68151e-09
-2.75012e-12
-8.98113e-10
-3.47853e-14
-1.51944e-09
-9.88008e-13
-9.90926e-10
9.92602e-13
-1.48928e-09
-9.90997e-10
2.59879e-12
-1.52209e-09
3.52801e-12
-8.99157e-10
-1.40926e-12
-1.67663e-09
1.40892e-12
-7.87658e-10
-3.52756e-12
-1.67657e-09
-2.59722e-12
-8.99043e-10
-4.03628e-14
-1.52199e-09
-9.69073e-13
-9.89997e-10
9.73623e-13
-1.49123e-09
-9.90068e-10
2.4512e-12
-1.52449e-09
3.34225e-12
-9.00048e-10
-1.39964e-12
-1.67189e-09
1.39935e-12
-7.90457e-10
-3.34173e-12
-1.67183e-09
-2.4496e-12
-8.99936e-10
-4.43825e-14
-1.5244e-09
-9.49272e-13
-9.89092e-10
9.53777e-13
-1.49313e-09
-9.89162e-10
2.30892e-12
-1.52675e-09
3.16324e-12
-9.00902e-10
-1.3883e-12
-1.66734e-09
1.38808e-12
-7.93233e-10
-3.16266e-12
-1.66728e-09
-2.30728e-12
-9.00791e-10
-4.6984e-14
-1.52666e-09
-9.28707e-13
-9.88211e-10
9.33163e-13
-1.49499e-09
-9.88279e-10
2.17195e-12
-1.52887e-09
2.99089e-12
-9.01721e-10
-1.37537e-12
-1.66297e-09
1.37521e-12
-7.95984e-10
-2.99025e-12
-1.66291e-09
-2.17027e-12
-9.01611e-10
-4.83011e-14
-1.52878e-09
-9.07477e-13
-9.87352e-10
9.11881e-13
-1.49681e-09
-9.87419e-10
2.04026e-12
-1.53086e-09
2.8251e-12
-9.02506e-10
-1.36093e-12
-1.65879e-09
1.36085e-12
-7.98705e-10
-2.82439e-12
-1.65873e-09
-2.03855e-12
-9.02397e-10
-4.84619e-14
-1.53077e-09
-8.85678e-13
-9.86514e-10
8.90029e-13
-1.49859e-09
-9.86581e-10
1.91385e-12
-1.53272e-09
2.66574e-12
-9.03258e-10
-1.3451e-12
-1.65478e-09
1.34509e-12
-8.01396e-10
-2.66497e-12
-1.65472e-09
-1.9121e-12
-9.0315e-10
-4.75884e-14
-1.53263e-09
-8.63406e-13
-9.85699e-10
8.67702e-13
-1.50032e-09
-9.85764e-10
1.79267e-12
-1.53446e-09
2.5127e-12
-9.03978e-10
-1.32798e-12
-1.65094e-09
1.32805e-12
-8.04052e-10
-2.51185e-12
-1.65088e-09
-1.79088e-12
-9.03871e-10
-4.57972e-14
-1.53438e-09
-8.40755e-13
-9.84904e-10
8.44994e-13
-1.502e-09
-9.84969e-10
1.67668e-12
-1.53609e-09
2.36583e-12
-9.04667e-10
-1.3097e-12
-1.64726e-09
1.30985e-12
-8.06671e-10
-2.36492e-12
-1.6472e-09
-1.67486e-12
-9.04561e-10
-4.3199e-14
-1.53601e-09
-8.17816e-13
-9.84129e-10
8.21998e-13
-1.50364e-09
-9.84193e-10
1.56583e-12
-1.53762e-09
2.22501e-12
-9.05326e-10
-1.29037e-12
-1.64374e-09
1.29059e-12
-8.09252e-10
-2.22403e-12
-1.64369e-09
-1.56398e-12
-9.05221e-10
-3.98992e-14
-1.53754e-09
-7.94679e-13
-9.83374e-10
7.98803e-13
-1.50524e-09
-9.83438e-10
1.46008e-12
-1.53904e-09
2.09009e-12
-9.05956e-10
-1.27011e-12
-1.64038e-09
1.27041e-12
-8.11793e-10
-2.08904e-12
-1.64033e-09
-1.4582e-12
-9.05851e-10
-3.59984e-14
-1.53896e-09
-7.71433e-13
-9.82639e-10
7.75499e-13
-1.50678e-09
-9.82702e-10
1.35935e-12
-1.54036e-09
1.96094e-12
-9.06558e-10
-1.24904e-12
-1.63717e-09
1.24942e-12
-8.14291e-10
-1.95981e-12
-1.63712e-09
-1.35744e-12
-9.06454e-10
-3.15924e-14
-1.54028e-09
-7.48164e-13
-9.81922e-10
7.52172e-13
-1.50828e-09
-9.81984e-10
1.2636e-12
-1.5416e-09
1.8374e-12
-9.07132e-10
-1.22729e-12
-1.63411e-09
1.22775e-12
-8.16746e-10
-1.83621e-12
-1.63406e-09
-1.26165e-12
-9.07028e-10
-2.67728e-14
-1.54152e-09
-7.24959e-13
-9.81224e-10
7.2891e-13
-1.50974e-09
-9.81285e-10
1.17275e-12
-1.54274e-09
1.71936e-12
-9.07678e-10
-1.20498e-12
-1.63119e-09
1.20551e-12
-8.19157e-10
-1.71809e-12
-1.63113e-09
-1.17078e-12
-9.07576e-10
-2.16279e-14
-1.54267e-09
-7.01902e-13
-9.80544e-10
7.05797e-13
-1.51114e-09
-9.80605e-10
1.08675e-12
-1.54381e-09
1.60666e-12
-9.08198e-10
-1.18223e-12
-1.6284e-09
1.18285e-12
-8.21522e-10
-1.60533e-12
-1.62834e-09
-1.08475e-12
-9.08096e-10
-1.62423e-14
-1.54374e-09
-6.79079e-13
-9.79881e-10
6.82919e-13
-1.51251e-09
-9.79941e-10
1.00553e-12
-1.5448e-09
1.4992e-12
-9.08692e-10
-1.15919e-12
-1.62574e-09
1.15988e-12
-8.23841e-10
-1.4978e-12
-1.62569e-09
-1.0035e-12
-9.08591e-10
-1.06979e-14
-1.54473e-09
-6.56576e-13
-9.79235e-10
6.60362e-13
-1.51382e-09
-9.79295e-10
9.29055e-13
-1.54572e-09
1.39685e-12
-9.0916e-10
-1.13597e-12
-1.62321e-09
1.13674e-12
-8.26113e-10
-1.39539e-12
-1.62315e-09
-9.27e-13
-9.09059e-10
-5.07391e-15
-1.54565e-09
-6.34479e-13
-9.78605e-10
6.38213e-13
-1.5151e-09
-9.78665e-10
8.57264e-13
-1.54658e-09
1.29953e-12
-9.09602e-10
-1.1127e-12
-1.62079e-09
1.11354e-12
-8.2834e-10
-1.298e-12
-1.62074e-09
-8.55183e-13
-9.09502e-10
5.53709e-16
-1.54651e-09
-6.12878e-13
-9.77992e-10
6.16561e-13
-1.51633e-09
-9.78051e-10
7.90116e-13
-1.54737e-09
1.20716e-12
-9.10019e-10
-1.0895e-12
-1.6185e-09
1.09041e-12
-8.3052e-10
-1.20556e-12
-1.61845e-09
-7.88012e-13
-9.09919e-10
6.11243e-15
-1.5473e-09
-5.91862e-13
-9.77394e-10
5.95498e-13
-1.51751e-09
-9.77452e-10
7.27576e-13
-1.54811e-09
1.11967e-12
-9.10411e-10
-1.0665e-12
-1.61631e-09
1.06748e-12
-8.32653e-10
-1.11801e-12
-1.61626e-09
-7.25448e-13
-9.10312e-10
1.15335e-14
-1.54804e-09
-5.7153e-13
-9.76811e-10
5.75119e-13
-1.51866e-09
-9.76869e-10
6.69613e-13
-1.54879e-09
1.03703e-12
-9.10779e-10
-1.04381e-12
-1.61423e-09
1.04486e-12
-8.34742e-10
-1.03532e-12
-1.61418e-09
-6.67461e-13
-9.1068e-10
1.67528e-14
-1.54872e-09
-5.51983e-13
-9.76242e-10
5.55528e-13
-1.51977e-09
-9.763e-10
6.16201e-13
-1.54943e-09
9.59243e-13
-9.11122e-10
-1.02156e-12
-1.61225e-09
1.02268e-12
-8.36786e-10
-9.57477e-13
-1.6122e-09
-6.14027e-13
-9.11023e-10
2.17124e-14
-1.54936e-09
-5.33328e-13
-9.75687e-10
5.3683e-13
-1.52084e-09
-9.75744e-10
5.67323e-13
-1.55002e-09
8.8632e-13
-9.11441e-10
-9.99855e-13
-1.61036e-09
1.00104e-12
-8.38787e-10
-8.845e-13
-1.61032e-09
-5.65127e-13
-9.11342e-10
2.63635e-14
-1.54995e-09
-5.1568e-13
-9.75145e-10
5.19143e-13
-1.52187e-09
-9.75202e-10
5.22965e-13
-1.55057e-09
8.18311e-13
-9.11736e-10
-9.78824e-13
-1.60857e-09
9.80068e-13
-8.40746e-10
-8.1644e-13
-1.60852e-09
-5.20747e-13
-9.11638e-10
3.06684e-14
-1.5505e-09
-4.99162e-13
-9.74615e-10
5.0259e-13
-1.52287e-09
-9.74672e-10
4.83117e-13
-1.55108e-09
7.55294e-13
-9.12008e-10
-9.58582e-13
-1.60685e-09
9.59884e-13
-8.42665e-10
-7.53373e-13
-1.60681e-09
-4.80878e-13
-9.11911e-10
3.46039e-14
-1.55102e-09
-4.83908e-13
-9.74097e-10
4.87303e-13
-1.52384e-09
-9.74153e-10
4.47774e-13
-1.55156e-09
6.97373e-13
-9.12258e-10
-9.39256e-13
-1.60521e-09
9.40613e-13
-8.44544e-10
-6.95405e-13
-1.60517e-09
-4.45514e-13
-9.1216e-10
3.81645e-14
-1.5515e-09
-4.70062e-13
-9.73589e-10
4.73428e-13
-1.52479e-09
-9.73645e-10
4.16933e-13
-1.55202e-09
6.4468e-13
-9.12485e-10
-9.20976e-13
-1.60365e-09
9.22386e-13
-8.46388e-10
-6.42667e-13
-1.6036e-09
-4.14652e-13
-9.12389e-10
4.13652e-14
-1.55196e-09
-4.57781e-13
-9.73089e-10
4.61121e-13
-1.52571e-09
-9.73145e-10
3.90602e-13
-1.55245e-09
5.97371e-13
-9.12692e-10
-9.03889e-13
-1.60215e-09
9.05348e-13
-8.48197e-10
-5.95316e-13
-1.6021e-09
-3.88299e-13
-9.12596e-10
4.42445e-14
-1.55239e-09
-4.47239e-13
-9.72598e-10
4.50556e-13
-1.5266e-09
-9.72654e-10
3.68794e-13
-1.55286e-09
5.55623e-13
-9.12879e-10
-8.88153e-13
-1.6007e-09
8.89658e-13
-8.49975e-10
-5.53528e-13
-1.60066e-09
-3.66473e-13
-9.12783e-10
4.23183e-14
-1.5528e-09
-4.38628e-13
-9.72117e-10
4.41925e-13
-1.52749e-09
-9.72168e-10
3.51545e-13
-1.55325e-09
5.19618e-13
-9.13047e-10
-8.7393e-13
-1.59931e-09
8.75479e-13
-8.51724e-10
-5.17488e-13
-1.59927e-09
-3.4918e-13
-9.12951e-10
4.92844e-14
-1.5532e-09
-4.32139e-13
-9.71636e-10
4.35441e-13
-1.52835e-09
-9.71692e-10
3.38875e-13
-1.55364e-09
4.89533e-13
-9.13198e-10
-8.61365e-13
-1.59796e-09
8.62954e-13
-8.53449e-10
-4.87367e-13
-1.59792e-09
-3.36509e-13
-9.13102e-10
4.1915e-14
-1.55357e-09
-4.28027e-13
-9.71166e-10
4.31299e-13
-1.52921e-09
-9.71213e-10
3.30939e-13
-1.55401e-09
4.65537e-13
-9.13332e-10
-8.50628e-13
-1.59664e-09
8.52256e-13
-8.55151e-10
-4.63342e-13
-1.5966e-09
-3.28508e-13
-9.13237e-10
5.40483e-14
-1.55396e-09
-4.26491e-13
-9.70685e-10
4.2979e-13
-1.53007e-09
-9.70742e-10
3.27911e-13
-1.55439e-09
4.4797e-13
-9.13452e-10
-8.42271e-13
-1.59535e-09
8.43934e-13
-8.56838e-10
-4.45746e-13
-1.59531e-09
-3.25487e-13
-9.13357e-10
4.5725e-14
-1.55433e-09
-4.28004e-13
-9.70211e-10
4.3127e-13
-1.53093e-09
-9.70258e-10
3.24938e-13
4.46241e-13
-8.52682e-13
8.54404e-13
-4.43956e-13
-3.2249e-13
4.99427e-14
-4.26509e-13
4.29754e-13
)
;

boundaryField
{
    BotWall
    {
        type            calculated;
        value           nonuniform List<scalar> 10(7.90347e-10 2.70579e-13 4.46926e-10 1.20925e-17 4.46926e-10 2.70672e-13 7.89951e-10 2.39982e-10 1.61531e-12 2.40004e-10);
    }
    FreeStream
    {
        type            calculated;
        value           nonuniform List<scalar> 10(-1.55477e-09 -9.13574e-10 -1.59405e-09 -8.58545e-10 -1.59401e-09 -9.13478e-10 -1.5547e-09 -9.69735e-10 -1.53178e-09 -9.69781e-10);
    }
    FrontNBack
    {
        type            empty;
        value           nonuniform 0();
    }
    LeftSide
    {
        type            cyclic;
        value           nonuniform List<scalar> 
100
(
2.56794e-11
-6.25141e-12
-9.24763e-12
-6.58679e-12
-4.61011e-12
-2.94851e-12
-1.54899e-12
-3.57463e-13
5.39992e-13
1.243e-12
1.82237e-12
2.28749e-12
2.65417e-12
2.93696e-12
3.14836e-12
3.29877e-12
3.39686e-12
3.44988e-12
3.46415e-12
3.44575e-12
3.40009e-12
3.33187e-12
3.24523e-12
3.14375e-12
3.03055e-12
2.90836e-12
2.77952e-12
2.64608e-12
2.5098e-12
2.3722e-12
2.23456e-12
2.09801e-12
1.96346e-12
1.83172e-12
1.70343e-12
1.57912e-12
1.45924e-12
1.34413e-12
1.23404e-12
1.12916e-12
1.02964e-12
9.35537e-13
8.46888e-13
7.63678e-13
6.85857e-13
6.13346e-13
5.46038e-13
4.83805e-13
4.26496e-13
3.73947e-13
3.25978e-13
2.82395e-13
2.42991e-13
2.07537e-13
1.75731e-13
1.43801e-13
1.37243e-13
9.50935e-14
8.07573e-14
5.70971e-14
3.628e-14
1.81324e-14
2.48537e-15
-1.08268e-14
-2.1967e-14
-3.10946e-14
-3.83654e-14
-4.39299e-14
-4.79337e-14
-5.05167e-14
-5.18131e-14
-5.19512e-14
-5.10536e-14
-4.92371e-14
-4.66128e-14
-4.32866e-14
-3.93593e-14
-3.4927e-14
-3.0082e-14
-2.49124e-14
-1.95035e-14
-1.39375e-14
-8.29373e-15
-2.64873e-15
2.92463e-15
8.35755e-15
1.35861e-14
1.85525e-14
2.32081e-14
2.75154e-14
3.14512e-14
3.50101e-14
3.8207e-14
4.108e-14
4.36916e-14
4.03647e-14
4.8474e-14
4.05507e-14
5.34994e-14
4.63409e-14
)
;
    }
    RightSide
    {
        type            cyclic;
        value           nonuniform List<scalar> 
100
(
-2.56794e-11
6.25141e-12
9.24763e-12
6.58679e-12
4.61011e-12
2.94851e-12
1.54899e-12
3.57463e-13
-5.39992e-13
-1.243e-12
-1.82237e-12
-2.28749e-12
-2.65417e-12
-2.93696e-12
-3.14836e-12
-3.29877e-12
-3.39686e-12
-3.44988e-12
-3.46415e-12
-3.44575e-12
-3.40009e-12
-3.33187e-12
-3.24523e-12
-3.14375e-12
-3.03055e-12
-2.90836e-12
-2.77952e-12
-2.64608e-12
-2.5098e-12
-2.3722e-12
-2.23456e-12
-2.09801e-12
-1.96346e-12
-1.83172e-12
-1.70343e-12
-1.57912e-12
-1.45924e-12
-1.34413e-12
-1.23404e-12
-1.12916e-12
-1.02964e-12
-9.35537e-13
-8.46888e-13
-7.63678e-13
-6.85857e-13
-6.13346e-13
-5.46038e-13
-4.83805e-13
-4.26496e-13
-3.73947e-13
-3.25978e-13
-2.82395e-13
-2.42991e-13
-2.07537e-13
-1.75731e-13
-1.43801e-13
-1.37243e-13
-9.50935e-14
-8.07573e-14
-5.70971e-14
-3.628e-14
-1.81324e-14
-2.48537e-15
1.08268e-14
2.1967e-14
3.10946e-14
3.83654e-14
4.39299e-14
4.79337e-14
5.05167e-14
5.18131e-14
5.19512e-14
5.10536e-14
4.92371e-14
4.66128e-14
4.32866e-14
3.93593e-14
3.4927e-14
3.0082e-14
2.49124e-14
1.95035e-14
1.39375e-14
8.29373e-15
2.64873e-15
-2.92463e-15
-8.35755e-15
-1.35861e-14
-1.85525e-14
-2.32081e-14
-2.75154e-14
-3.14512e-14
-3.50101e-14
-3.8207e-14
-4.108e-14
-4.36916e-14
-4.03647e-14
-4.8474e-14
-4.05507e-14
-5.34994e-14
-4.63409e-14
)
;
    }
}


// ************************************************************************* //
