/*--------------------------------*- C++ -*----------------------------------*\
| =========                 |                                                 |
| \\      /  F ield         | OpenFOAM: The Open Source CFD Toolbox           |
|  \\    /   O peration     | Version:  2.4.0                                 |
|   \\  /    A nd           | Web:      www.OpenFOAM.org                      |
|    \\/     M anipulation  |                                                 |
\*---------------------------------------------------------------------------*/
FoamFile
{
    version     2.0;
    format      ascii;
    class       volScalarField;
    location    "0.5";
    object      T;
}
// * * * * * * * * * * * * * * * * * * * * * * * * * * * * * * * * * * * * * //

dimensions      [0 0 0 1 0 0 0];

internalField   nonuniform List<scalar> 
1000
(
296.93
294.776
296.989
293.865
296.989
294.776
296.93
297.396
294.666
297.396
296.968
294.875
296.828
293.937
296.828
294.875
296.968
297.461
297.941
297.461
297.012
295.148
296.873
294.125
296.873
295.148
297.012
297.497
297.939
297.497
297.059
295.391
296.925
294.365
296.925
295.391
297.059
297.53
297.933
297.53
297.107
295.609
296.982
294.596
296.982
295.609
297.107
297.562
297.928
297.562
297.156
295.805
297.041
294.816
297.041
295.805
297.156
297.591
297.925
297.591
297.205
295.983
297.1
295.026
297.1
295.983
297.205
297.618
297.923
297.618
297.253
296.146
297.159
295.226
297.159
296.146
297.253
297.643
297.922
297.643
297.3
296.294
297.216
295.415
297.216
296.294
297.3
297.667
297.921
297.667
297.346
296.43
297.27
295.594
297.27
296.43
297.346
297.689
297.922
297.689
297.389
296.555
297.322
295.763
297.322
296.555
297.389
297.71
297.922
297.71
297.432
296.67
297.371
295.921
297.371
296.67
297.432
297.729
297.924
297.729
297.472
296.776
297.417
296.07
297.417
296.776
297.472
297.747
297.925
297.747
297.51
296.874
297.46
296.21
297.46
296.874
297.51
297.764
297.927
297.764
297.546
296.965
297.5
296.34
297.5
296.965
297.546
297.78
297.929
297.78
297.58
297.049
297.538
296.463
297.538
297.049
297.579
297.796
297.932
297.796
297.611
297.126
297.572
296.577
297.572
297.126
297.611
297.81
297.934
297.81
297.641
297.198
297.605
296.684
297.605
297.198
297.641
297.823
297.937
297.823
297.669
297.265
297.634
296.783
297.634
297.265
297.669
297.835
297.94
297.835
297.695
297.326
297.662
296.876
297.662
297.326
297.695
297.847
297.943
297.847
297.719
297.383
297.688
296.962
297.687
297.383
297.719
297.858
297.945
297.858
297.742
297.436
297.711
297.042
297.711
297.435
297.742
297.868
297.948
297.868
297.763
297.484
297.733
297.116
297.733
297.484
297.763
297.878
297.951
297.878
297.783
297.528
297.754
297.186
297.754
297.528
297.782
297.887
297.954
297.887
297.801
297.569
297.773
297.25
297.773
297.569
297.801
297.895
297.956
297.895
297.818
297.607
297.79
297.309
297.79
297.607
297.818
297.903
297.959
297.903
297.833
297.642
297.807
297.365
297.807
297.642
297.833
297.911
297.961
297.911
297.848
297.673
297.822
297.416
297.822
297.673
297.848
297.917
297.964
297.917
297.861
297.702
297.836
297.463
297.836
297.702
297.861
297.924
297.966
297.924
297.873
297.729
297.849
297.507
297.849
297.729
297.873
297.93
297.968
297.93
297.885
297.754
297.861
297.548
297.861
297.754
297.885
297.935
297.97
297.935
297.895
297.776
297.872
297.585
297.872
297.776
297.895
297.94
297.972
297.94
297.905
297.796
297.883
297.62
297.883
297.796
297.905
297.945
297.974
297.945
297.913
297.815
297.892
297.652
297.892
297.815
297.913
297.95
297.976
297.95
297.921
297.832
297.901
297.682
297.901
297.832
297.921
297.954
297.978
297.954
297.929
297.848
297.909
297.709
297.909
297.848
297.929
297.958
297.979
297.958
297.936
297.862
297.917
297.734
297.917
297.862
297.936
297.961
297.981
297.961
297.942
297.875
297.924
297.757
297.924
297.875
297.942
297.964
297.982
297.964
297.947
297.887
297.93
297.778
297.93
297.887
297.947
297.967
297.984
297.967
297.953
297.898
297.936
297.798
297.936
297.898
297.952
297.97
297.985
297.97
297.957
297.907
297.942
297.816
297.942
297.907
297.957
297.973
297.986
297.973
297.961
297.916
297.947
297.833
297.947
297.916
297.961
297.975
297.987
297.975
297.965
297.924
297.951
297.848
297.951
297.924
297.965
297.977
297.988
297.977
297.969
297.932
297.956
297.862
297.956
297.932
297.969
297.979
297.989
297.979
297.972
297.939
297.96
297.874
297.96
297.939
297.972
297.981
297.99
297.981
297.975
297.945
297.963
297.886
297.963
297.945
297.975
297.983
297.991
297.983
297.977
297.95
297.967
297.897
297.967
297.95
297.977
297.984
297.992
297.984
297.98
297.955
297.97
297.907
297.97
297.955
297.98
297.986
297.992
297.986
297.982
297.96
297.972
297.915
297.972
297.96
297.982
297.987
297.993
297.987
297.984
297.964
297.975
297.924
297.975
297.964
297.984
297.988
297.994
297.988
297.985
297.967
297.977
297.931
297.977
297.967
297.985
297.989
297.994
297.989
297.987
297.971
297.979
297.938
297.979
297.971
297.987
297.99
297.995
297.99
297.988
297.974
297.981
297.944
297.981
297.974
297.988
297.991
297.995
297.991
297.99
297.976
297.983
297.949
297.983
297.976
297.99
297.992
297.996
297.992
297.991
297.979
297.985
297.955
297.985
297.979
297.991
297.993
297.996
297.993
297.992
297.981
297.986
297.959
297.986
297.981
297.992
297.994
297.997
297.994
297.993
297.983
297.988
297.963
297.988
297.983
297.993
297.994
297.997
297.994
297.993
297.985
297.989
297.967
297.989
297.985
297.993
297.995
297.997
297.995
297.994
297.986
297.99
297.97
297.99
297.986
297.994
297.995
297.997
297.995
297.995
297.988
297.991
297.974
297.991
297.988
297.995
297.996
297.998
297.996
297.995
297.989
297.992
297.976
297.992
297.989
297.995
297.996
297.998
297.996
297.996
297.99
297.993
297.979
297.993
297.99
297.996
297.997
297.998
297.997
297.996
297.991
297.993
297.981
297.993
297.991
297.996
297.997
297.998
297.997
297.997
297.992
297.994
297.983
297.994
297.992
297.997
297.997
297.998
297.997
297.997
297.993
297.995
297.985
297.995
297.993
297.997
297.998
297.999
297.998
297.997
297.994
297.995
297.987
297.995
297.994
297.997
297.998
297.999
297.998
297.998
297.995
297.996
297.988
297.996
297.995
297.998
297.998
297.999
297.998
297.998
297.995
297.996
297.989
297.996
297.995
297.998
297.998
297.999
297.998
297.998
297.996
297.997
297.991
297.997
297.996
297.998
297.998
297.999
297.998
297.998
297.996
297.997
297.992
297.997
297.996
297.998
297.999
297.999
297.999
297.999
297.997
297.997
297.993
297.997
297.997
297.999
297.999
297.999
297.999
297.999
297.997
297.998
297.993
297.998
297.997
297.999
297.999
297.999
297.999
297.999
297.997
297.998
297.994
297.998
297.997
297.999
297.999
297.999
297.999
297.999
297.998
297.998
297.995
297.998
297.998
297.999
297.999
298
297.999
297.999
297.998
297.998
297.996
297.998
297.998
297.999
297.999
298
297.999
297.999
297.998
297.999
297.996
297.999
297.998
297.999
297.999
298
297.999
297.999
297.998
297.999
297.997
297.999
297.998
297.999
297.999
298
297.999
297.999
297.999
297.999
297.997
297.999
297.999
297.999
297.999
298
297.999
298
297.999
297.999
297.997
297.999
297.999
298
298
298
298
298
297.999
297.999
297.998
297.999
297.999
298
298
298
298
298
297.999
297.999
297.998
297.999
297.999
298
298
298
298
298
297.999
297.999
297.998
297.999
297.999
298
298
298
298
298
297.999
297.999
297.998
297.999
297.999
298
298
298
298
298
297.999
298
297.999
298
297.999
298
298
298
298
298
297.999
298
297.999
298
297.999
298
298
298
298
298
298
298
297.999
298
298
298
298
298
298
298
298
298
297.999
298
298
298
298
298
298
298
298
298
297.999
298
298
298
298
298
298
298
298
298
297.999
298
298
298
298
298
298
298
298
298
297.999
298
298
298
298
298
298
298
298
298
298
298
298
298
298
298
298
298
298
298
298
298
298
298
298
298
298
298
298
298
298
298
298
298
298
298
298
298
298
298
298
298
298
298
298
298
298
298
298
298
298
298
298
298
298
298
298
298
298
298
298
298
298
298
298
298
298
298
298
298
298
298
298
298
298
298
298
298
298
298
298
298
298
298
298
298
298
298
298
298
298
298
298
298
298
298
298
298
298
298
298
298
298
298
298
298
298
)
;

boundaryField
{
    BotWall
    {
        type            fixedValue;
        value           uniform 293;
    }
    FreeStream
    {
        type            fixedValue;
        value           uniform 298;
    }
    FrontNBack
    {
        type            empty;
    }
    LeftSide
    {
        type            cyclic;
    }
    RightSide
    {
        type            cyclic;
    }
}


// ************************************************************************* //
