/*--------------------------------*- C++ -*----------------------------------*\
| =========                 |                                                 |
| \\      /  F ield         | OpenFOAM: The Open Source CFD Toolbox           |
|  \\    /   O peration     | Version:  2.4.0                                 |
|   \\  /    A nd           | Web:      www.OpenFOAM.org                      |
|    \\/     M anipulation  |                                                 |
\*---------------------------------------------------------------------------*/
FoamFile
{
    version     2.0;
    format      ascii;
    class       volVectorField;
    location    "0.5";
    object      U;
}
// * * * * * * * * * * * * * * * * * * * * * * * * * * * * * * * * * * * * * //

dimensions      [0 1 -1 0 0 0 0];

internalField   nonuniform List<vector> 
1000
(
(0.00290143 -0.0164094 0)
(-0.0305533 -0.00310402 0)
(0.000498255 -0.0133466 0)
(-2.69409e-08 8.63208e-05 0)
(-0.000498409 -0.0133466 0)
(0.0305533 -0.00310402 0)
(-0.00290121 -0.0164068 0)
(0.0193357 -0.00804491 0)
(1.71533e-08 0.000832918 0)
(-0.0193354 -0.00804503 0)
(0.00303365 -0.0176171 0)
(-0.0302976 -0.0096487 0)
(-0.0310714 -0.0218308 0)
(-5.0728e-08 5.64583e-05 0)
(0.0310713 -0.0218308 0)
(0.0302972 -0.00964875 0)
(-0.00303441 -0.0176137 0)
(-0.00395479 -0.0128103 0)
(3.83562e-08 -0.00214515 0)
(0.00395579 -0.0128115 0)
(0.00164879 -0.0151891 0)
(-0.0264415 -0.0139588 0)
(-0.0257708 -0.0208177 0)
(-1.49033e-07 -0.00181755 0)
(0.025771 -0.0208177 0)
(0.0264409 -0.0139588 0)
(-0.0016497 -0.0151873 0)
(-0.00326032 -0.0122706 0)
(5.90441e-07 -0.0132311 0)
(0.00326118 -0.0122729 0)
(0.000642926 -0.013789 0)
(-0.0228951 -0.00947743 0)
(-0.0213839 -0.0200497 0)
(-5.23294e-08 -0.00302281 0)
(0.0213844 -0.0200497 0)
(0.0228947 -0.00947737 0)
(-0.000643857 -0.0137873 0)
(-0.00298816 -0.0114353 0)
(8.46813e-07 -0.0195732 0)
(0.00298877 -0.0114374 0)
(-0.000126571 -0.0132933 0)
(-0.0196466 -0.00853752 0)
(-0.0177461 -0.020195 0)
(6.82946e-08 -0.00342873 0)
(0.0177469 -0.020195 0)
(0.0196463 -0.00853742 0)
(0.000125613 -0.0132916 0)
(-0.00260784 -0.0112635 0)
(6.85938e-07 -0.014182 0)
(0.00260823 -0.0112655 0)
(-0.000719 -0.0129964 0)
(-0.0166845 -0.00834282 0)
(-0.0147215 -0.0205656 0)
(1.78837e-07 -0.00393348 0)
(0.0147224 -0.0205656 0)
(0.0166845 -0.00834267 0)
(0.000718026 -0.0129947 0)
(-0.00224377 -0.0112912 0)
(5.11142e-07 -0.013439 0)
(0.00224399 -0.0112932 0)
(-0.00117384 -0.0127106 0)
(-0.0139931 -0.00824566 0)
(-0.0122069 -0.0208716 0)
(2.78893e-07 -0.00442353 0)
(0.012208 -0.0208716 0)
(0.0139932 -0.00824544 0)
(0.00117286 -0.0127089 0)
(-0.00192042 -0.0113091 0)
(3.66961e-07 -0.0136111 0)
(0.00192047 -0.011311 0)
(-0.00151849 -0.0124447 0)
(-0.0115547 -0.00810506 0)
(-0.0101196 -0.0210984 0)
(3.68746e-07 -0.00484607 0)
(0.0101208 -0.0210984 0)
(0.0115549 -0.00810478 0)
(0.00151751 -0.012443 0)
(-0.00163993 -0.0112947 0)
(2.44326e-07 -0.0138264 0)
(0.00163986 -0.0112966 0)
(-0.00177539 -0.0122192 0)
(-0.00935157 -0.00797303 0)
(-0.00838843 -0.021275 0)
(4.48341e-07 -0.00519567 0)
(0.00838978 -0.021275 0)
(0.00935191 -0.00797269 0)
(0.00177442 -0.0122175 0)
(-0.00139601 -0.0112665 0)
(1.41073e-07 -0.0139117 0)
(0.00139583 -0.0112683 0)
(-0.00196289 -0.0120363 0)
(-0.00736687 -0.00787248 0)
(-0.00695317 -0.0214154 0)
(5.17741e-07 -0.00548648 0)
(0.00695459 -0.0214154 0)
(0.0073673 -0.00787208 0)
(0.00196194 -0.0120346 0)
(-0.00118401 -0.0112345 0)
(5.52822e-08 -0.0139496 0)
(0.00118374 -0.0112362 0)
(-0.00209568 -0.0118913 0)
(-0.00558448 -0.00780154 0)
(-0.00576334 -0.0215234 0)
(5.77128e-07 -0.00573061 0)
(0.00576481 -0.0215234 0)
(0.00558498 -0.00780108 0)
(0.00209476 -0.0118897 0)
(-0.00100071 -0.0112004 0)
(-1.48431e-08 -0.0139802 0)
(0.00100038 -0.0112022 0)
(-0.0021854 -0.01178 0)
(-0.00398918 -0.00775328 0)
(-0.00477689 -0.0216012 0)
(6.26798e-07 -0.00593631 0)
(0.0047784 -0.0216012 0)
(0.00398973 -0.00775276 0)
(0.00218451 -0.0117784 0)
(-0.000843389 -0.0111646 0)
(-7.09619e-08 -0.0140092 0)
(0.000843007 -0.0111663 0)
(-0.00224121 -0.0116989 0)
(-0.0025667 -0.00772266 0)
(-0.00395884 -0.0216515 0)
(6.67144e-07 -0.00610979 0)
(0.00396036 -0.0216514 0)
(0.0025673 -0.00772208 0)
(0.00224035 -0.0116972 0)
(-0.000709494 -0.0111271 0)
(-1.14623e-07 -0.0140346 0)
(0.00070908 -0.0111288 0)
(-0.00227028 -0.0116447 0)
(-0.00130369 -0.00770631 0)
(-0.00328011 -0.021677 0)
(6.98639e-07 -0.00625621 0)
(0.00328163 -0.0216769 0)
(0.00130432 -0.00770567 0)
(0.00226947 -0.011643 0)
(-0.000596626 -0.0110886 0)
(-1.47266e-07 -0.0140556 0)
(0.000596194 -0.0110902 0)
(-0.00227823 -0.0116148 0)
(-0.000187669 -0.00770147 0)
(-0.00271661 -0.0216805 0)
(7.21819e-07 -0.00637993 0)
(0.00271812 -0.0216804 0)
(0.000188306 -0.00770077 0)
(0.00227746 -0.0116131 0)
(-0.000502557 -0.0110494 0)
(-1.70217e-07 -0.0140729 0)
(0.000502121 -0.011051 0)
(-0.0022694 -0.0116065 0)
(0.000793027 -0.00770543 0)
(-0.00224838 -0.0216649 0)
(7.37177e-07 -0.00648459 0)
(0.00224987 -0.0216648 0)
(-0.00079239 -0.00770467 0)
(0.00226868 -0.0116048 0)
(-0.000425236 -0.0110099 0)
(-1.84687e-07 -0.0140872 0)
(0.000424806 -0.0110115 0)
(-0.00224714 -0.0116177 0)
(0.00164927 -0.00771539 0)
(-0.00185897 -0.0216331 0)
(7.45565e-07 -0.00657325 0)
(0.00186042 -0.0216329 0)
(-0.00164864 -0.00771464 0)
(0.00224648 -0.011616 0)
(-0.000362765 -0.0109704 0)
(-1.91771e-07 -0.014099 0)
(0.000362352 -0.010972 0)
(-0.002214 -0.0116464 0)
(0.00239126 -0.00773108 0)
(-0.00153483 -0.0215854 0)
(7.49868e-07 -0.00664842 0)
(0.00153625 -0.0215852 0)
(-0.00239066 -0.00773032 0)
(0.00221339 -0.0116447 0)
(-0.000313389 -0.0109312 0)
(-1.92458e-07 -0.0141089 0)
(0.000313002 -0.0109327 0)
(-0.00217201 -0.0116894 0)
(0.00302921 -0.00775311 0)
(-0.00126533 -0.0215231 0)
(7.483e-07 -0.0067122 0)
(0.0012667 -0.0215229 0)
(-0.00302863 -0.00775226 0)
(0.00217146 -0.0116877 0)
(-0.000275488 -0.0108923 0)
(-1.87633e-07 -0.0141174 0)
(0.000275134 -0.0108938 0)
(-0.00212333 -0.0117443 0)
(0.00357306 -0.00778052 0)
(-0.00104167 -0.0214485 0)
(7.4114e-07 -0.00676639 0)
(0.00104299 -0.0214482 0)
(-0.00357252 -0.00777961 0)
(0.00212283 -0.0117426 0)
(-0.000247616 -0.010854 0)
(-1.78089e-07 -0.0141248 0)
(0.000247302 -0.0108555 0)
(-0.00206969 -0.0118094 0)
(0.00403213 -0.00781176 0)
(-0.000856544 -0.0213633 0)
(7.28968e-07 -0.00681249 0)
(0.000857809 -0.021363 0)
(-0.00403162 -0.00781081 0)
(0.00206925 -0.0118077 0)
(-0.000228456 -0.0108164 0)
(-1.64533e-07 -0.0141314 0)
(0.000228187 -0.0108179 0)
(-0.00201253 -0.0118835 0)
(0.00441507 -0.00784575 0)
(-0.000703908 -0.0212693 0)
(7.12269e-07 -0.0068518 0)
(0.000705116 -0.021269 0)
(-0.0044146 -0.00784476 0)
(0.00201215 -0.0118818 0)
(-0.00021681 -0.0107797 0)
(-1.476e-07 -0.0141375 0)
(0.000216589 -0.0107811 0)
(-0.00195305 -0.0119652 0)
(0.00472988 -0.00788174 0)
(-0.000578707 -0.0211678 0)
(6.91528e-07 -0.00688541 0)
(0.000579855 -0.0211675 0)
(-0.00472945 -0.0078807 0)
(0.00195273 -0.0119635 0)
(-0.00021159 -0.0107438 0)
(-1.27865e-07 -0.0141434 0)
(0.000211421 -0.0107452 0)
(-0.0018922 -0.0120531 0)
(0.00498392 -0.00791916 0)
(-0.000476712 -0.0210601 0)
(6.67224e-07 -0.00691428 0)
(0.000477798 -0.0210597 0)
(-0.00498353 -0.00791809 0)
(0.00189193 -0.0120514 0)
(-0.000211817 -0.010709 0)
(-1.05851e-07 -0.0141492 0)
(0.000211702 -0.0107103 0)
(-0.00183078 -0.0121462 0)
(0.00518392 -0.00795756 0)
(-0.000394367 -0.0209471 0)
(6.39825e-07 -0.00693922 0)
(0.000395392 -0.0209467 0)
(-0.00518357 -0.00795645 0)
(0.00183056 -0.0121444 0)
(-0.000216608 -0.0106751 0)
(-8.20388e-08 -0.0141552 0)
(0.000216549 -0.0106764 0)
(-0.00176941 -0.0122433 0)
(0.00533602 -0.00799654 0)
(-0.000328676 -0.0208299 0)
(6.0979e-07 -0.00696093 0)
(0.000329639 -0.0208295 0)
(-0.00533571 -0.0079954 0)
(0.00176925 -0.0122415 0)
(-0.000225172 -0.0106423 0)
(-5.68657e-08 -0.0141615 0)
(0.000225169 -0.0106435 0)
(-0.00170861 -0.0123435 0)
(0.00544579 -0.00803579 0)
(-0.0002771 -0.0207093 0)
(5.77568e-07 -0.00698005 0)
(0.000278001 -0.0207089 0)
(-0.00544552 -0.00803461 0)
(0.0017085 -0.0123418 0)
(-0.000236801 -0.0106105 0)
(-3.07255e-08 -0.0141682 0)
(0.000236855 -0.0106117 0)
(-0.00164878 -0.012446 0)
(0.00551827 -0.00807502 0)
(-0.000237481 -0.0205862 0)
(5.43593e-07 -0.00699709 0)
(0.000238323 -0.0205858 0)
(-0.00551804 -0.00807381 0)
(0.00164871 -0.0124443 0)
(-0.000250865 -0.0105798 0)
(-3.96815e-09 -0.0141754 0)
(0.000250976 -0.010581 0)
(-0.00159022 -0.0125501 0)
(0.00555804 -0.00811402 0)
(-0.00020798 -0.0204612 0)
(5.08281e-07 -0.00701255 0)
(0.000208763 -0.0204608 0)
(-0.00555784 -0.00811279 0)
(0.00159019 -0.0125484 0)
(-0.000266804 -0.0105501 0)
(2.30992e-08 -0.0141832 0)
(0.00026697 -0.0105513 0)
(-0.00153317 -0.0126551 0)
(0.00556918 -0.00815262 0)
(-0.000187023 -0.020335 0)
(4.7203e-07 -0.00702683 0)
(0.000187749 -0.0203345 0)
(-0.00556901 -0.00815136 0)
(0.00153319 -0.0126533 0)
(-0.000284123 -0.0105215 0)
(5.02096e-08 -0.0141916 0)
(0.000284344 -0.0105227 0)
(-0.00147782 -0.0127604 0)
(0.00555538 -0.00819065 0)
(-0.000173256 -0.0202079 0)
(4.35213e-07 -0.0070403 0)
(0.000173927 -0.0202074 0)
(-0.00555525 -0.00818937 0)
(0.00147787 -0.0127586 0)
(-0.000302386 -0.0104938 0)
(7.71337e-08 -0.0142008 0)
(0.000302661 -0.010495 0)
(-0.00142426 -0.0128655 0)
(0.00551996 -0.00822799 0)
(-0.000165517 -0.0200807 0)
(3.98176e-07 -0.00705328 0)
(0.000166135 -0.0200801 0)
(-0.00551985 -0.0082267 0)
(0.00142436 -0.0128638 0)
(-0.000321211 -0.0104672 0)
(1.03676e-07 -0.0142108 0)
(0.000321538 -0.0104684 0)
(-0.0013726 -0.01297 0)
(0.00546586 -0.00826456 0)
(-0.000162798 -0.0199536 0)
(3.61239e-07 -0.00706604 0)
(0.000163366 -0.019953 0)
(-0.00546577 -0.00826325 0)
(0.00137273 -0.0129683 0)
(-0.000340267 -0.0104415 0)
(1.29669e-07 -0.0142216 0)
(0.000340644 -0.0104427 0)
(-0.00132287 -0.0130734 0)
(0.00539573 -0.00830027 0)
(-0.000164232 -0.019827 0)
(3.24691e-07 -0.00707882 0)
(0.00016475 -0.0198264 0)
(-0.00539567 -0.00829895 0)
(0.00132303 -0.0130718 0)
(-0.000359266 -0.0104167 0)
(1.54976e-07 -0.0142332 0)
(0.000359691 -0.0104179 0)
(-0.0012751 -0.0131756 0)
(0.00531192 -0.00833506 0)
(-0.000169062 -0.0197012 0)
(2.88789e-07 -0.00709182 0)
(0.000169534 -0.0197006 0)
(-0.00531188 -0.00833373 0)
(0.00127529 -0.0131739 0)
(-0.00037796 -0.0103928 0)
(1.79481e-07 -0.0142456 0)
(0.000378432 -0.010394 0)
(-0.00122927 -0.0132761 0)
(0.00521654 -0.00836889 0)
(-0.000176634 -0.0195766 0)
(2.53763e-07 -0.00710519 0)
(0.000177063 -0.0195759 0)
(-0.00521652 -0.00836754 0)
(0.00122948 -0.0132745 0)
(-0.000396139 -0.0103698 0)
(2.0309e-07 -0.0142589 0)
(0.000396655 -0.0103709 0)
(-0.00118535 -0.0133748 0)
(0.00511146 -0.00840172 0)
(-0.000186379 -0.0194533 0)
(2.19814e-07 -0.00711907 0)
(0.000186767 -0.0194527 0)
(-0.00511145 -0.00840037 0)
(0.0011856 -0.0133732 0)
(-0.000413626 -0.0103476 0)
(2.25726e-07 -0.014273 0)
(0.000414184 -0.0103487 0)
(-0.00114333 -0.0134714 0)
(0.00499833 -0.00843354 0)
(-0.000197803 -0.0193317 0)
(1.87115e-07 -0.00713355 0)
(0.000198152 -0.019331 0)
(-0.00499833 -0.00843217 0)
(0.0011436 -0.0134698 0)
(-0.000430274 -0.0103261 0)
(2.47331e-07 -0.0142879 0)
(0.000430871 -0.0103272 0)
(-0.00110313 -0.0135658 0)
(0.00487863 -0.00846432 0)
(-0.000210476 -0.0192118 0)
(1.55812e-07 -0.00714874 0)
(0.000210789 -0.0192111 0)
(-0.00487865 -0.00846295 0)
(0.00110343 -0.0135642 0)
(-0.000445961 -0.0103054 0)
(2.67859e-07 -0.0143035 0)
(0.000446595 -0.0103065 0)
(-0.00106471 -0.0136578 0)
(0.00475367 -0.00849407 0)
(-0.000224026 -0.0190939 0)
(1.26028e-07 -0.00716467 0)
(0.000224305 -0.0190932 0)
(-0.0047537 -0.0084927 0)
(0.00106503 -0.0136562 0)
(-0.00046059 -0.0102854 0)
(2.87278e-07 -0.0143199 0)
(0.000461259 -0.0102865 0)
(-0.00102801 -0.0137473 0)
(0.00462461 -0.00852279 0)
(-0.00023813 -0.0189781 0)
(9.78599e-08 -0.0071814 0)
(0.000238377 -0.0189774 0)
(-0.00462465 -0.00852141 0)
(0.00102834 -0.0137457 0)
(-0.000474086 -0.0102661 0)
(3.05566e-07 -0.0143371 0)
(0.000474787 -0.0102671 0)
(-0.000992945 -0.0138342 0)
(0.00449248 -0.00855048 0)
(-0.00025251 -0.0188645 0)
(7.13837e-08 -0.00719895 0)
(0.000252728 -0.0188638 0)
(-0.00449252 -0.0085491 0)
(0.000993296 -0.0138326 0)
(-0.000486391 -0.0102474 0)
(3.22714e-07 -0.0143548 0)
(0.000487122 -0.0102484 0)
(-0.000959453 -0.0139185 0)
(0.00435817 -0.00857716 0)
(-0.000266928 -0.0187533 0)
(4.66542e-08 -0.00721733 0)
(0.000267118 -0.0187526 0)
(-0.00435821 -0.00857578 0)
(0.000959822 -0.0139169 0)
(-0.000497466 -0.0102293 0)
(3.38717e-07 -0.0143733 0)
(0.000498224 -0.0102303 0)
(-0.000927462 -0.0140001 0)
(0.00422248 -0.00860284 0)
(-0.000281178 -0.0186444 0)
(2.37071e-08 -0.00723655 0)
(0.000281344 -0.0186437 0)
(-0.00422253 -0.00860146 0)
(0.000927847 -0.0139986 0)
(-0.000507285 -0.0102117 0)
(3.53583e-07 -0.0143923 0)
(0.000508068 -0.0102127 0)
(-0.000896897 -0.0140789 0)
(0.00408612 -0.00862754 0)
(-0.000295089 -0.0185381 0)
(2.56063e-09 -0.0072566 0)
(0.000295232 -0.0185373 0)
(-0.00408617 -0.00862617 0)
(0.000897296 -0.0140775 0)
(-0.000515837 -0.0101947 0)
(3.67322e-07 -0.0144118 0)
(0.000516642 -0.0101957 0)
(-0.000867686 -0.0141551 0)
(0.0039497 -0.00865129 0)
(-0.000308515 -0.0184342 0)
(-1.6783e-08 -0.00727747 0)
(0.000308637 -0.0184335 0)
(-0.00394975 -0.00864993 0)
(0.000868099 -0.0141536 0)
(-0.000523119 -0.0101782 0)
(3.79954e-07 -0.0144318 0)
(0.000523944 -0.0101792 0)
(-0.000839758 -0.0142285 0)
(0.00381375 -0.00867411 0)
(-0.000321335 -0.018333 0)
(-3.43354e-08 -0.00729912 0)
(0.000321439 -0.0183322 0)
(-0.0038138 -0.00867275 0)
(0.000840183 -0.014227 0)
(-0.000529141 -0.0101622 0)
(3.91503e-07 -0.0144523 0)
(0.000529983 -0.0101631 0)
(-0.000813042 -0.0142992 0)
(0.00367875 -0.00869603 0)
(-0.00033345 -0.0182343 0)
(-5.01208e-08 -0.00732154 0)
(0.000333537 -0.0182336 0)
(-0.0036788 -0.00869467 0)
(0.000813478 -0.0142977 0)
(-0.00053392 -0.0101466 0)
(4.01997e-07 -0.0144732 0)
(0.000534778 -0.0101476 0)
(-0.00078747 -0.0143671 0)
(0.0035451 -0.00871707 0)
(-0.00034478 -0.0181383 0)
(-6.4174e-08 -0.00734468 0)
(0.000344853 -0.0181375 0)
(-0.00354515 -0.00871572 0)
(0.000787917 -0.0143657 0)
(-0.000537482 -0.0101315 0)
(4.1147e-07 -0.0144944 0)
(0.000538353 -0.0101324 0)
(-0.000762978 -0.0144324 0)
(0.00341315 -0.00873725 0)
(-0.000355264 -0.0180449 0)
(-7.65393e-08 -0.00736852 0)
(0.000355324 -0.0180441 0)
(-0.0034132 -0.00873591 0)
(0.000763434 -0.014431 0)
(-0.000539857 -0.0101167 0)
(4.19958e-07 -0.0145159 0)
(0.000540738 -0.0101176 0)
(-0.000739502 -0.0144951 0)
(0.00328321 -0.00875662 0)
(-0.000364855 -0.0179541 0)
(-8.72683e-08 -0.00739301 0)
(0.000364904 -0.0179533 0)
(-0.00328325 -0.00875529 0)
(0.000739965 -0.0144937 0)
(-0.000541081 -0.0101023 0)
(4.27502e-07 -0.0145376 0)
(0.000541971 -0.0101032 0)
(-0.000716981 -0.0145551 0)
(0.00315552 -0.0087752 0)
(-0.00037352 -0.0178659 0)
(-9.64194e-08 -0.0074181 0)
(0.000373558 -0.0178652 0)
(-0.00315555 -0.00877388 0)
(0.000717452 -0.0145538 0)
(-0.000541194 -0.0100883 0)
(4.34144e-07 -0.0145596 0)
(0.000542091 -0.0100892 0)
(-0.000695358 -0.0146126 0)
(0.0030303 -0.00879302 0)
(-0.000381236 -0.0177804 0)
(-1.04056e-07 -0.00744375 0)
(0.000381267 -0.0177797 0)
(-0.00303033 -0.0087917 0)
(0.000695835 -0.0146113 0)
(-0.000540242 -0.0100747 0)
(4.39928e-07 -0.0145817 0)
(0.000541143 -0.0100755 0)
(-0.000674579 -0.0146676 0)
(0.00290774 -0.0088101 0)
(-0.000387993 -0.0176975 0)
(-1.10244e-07 -0.00746991 0)
(0.000388017 -0.0176967 0)
(-0.00290776 -0.0088088 0)
(0.000675061 -0.0146663 0)
(-0.00053827 -0.0100613 0)
(4.44892e-07 -0.0146039 0)
(0.000539173 -0.0100622 0)
(-0.000654591 -0.0147202 0)
(0.00278799 -0.00882648 0)
(-0.00039379 -0.0176171 0)
(-1.15056e-07 -0.00749654 0)
(0.000393809 -0.0176164 0)
(-0.002788 -0.00882519 0)
(0.000655077 -0.0147189 0)
(-0.000535328 -0.0100483 0)
(4.49104e-07 -0.0146261 0)
(0.000536232 -0.0100491 0)
(-0.000635345 -0.0147704 0)
(0.00267116 -0.00884218 0)
(-0.000398632 -0.0175393 0)
(-1.18563e-07 -0.00752357 0)
(0.000398647 -0.0175386 0)
(-0.00267116 -0.0088409 0)
(0.000635835 -0.0147691 0)
(-0.000531466 -0.0100355 0)
(4.5256e-07 -0.0146483 0)
(0.000532369 -0.0100364 0)
(-0.000616796 -0.0148183 0)
(0.00255735 -0.00885724 0)
(-0.000402532 -0.017464 0)
(-1.20838e-07 -0.00755098 0)
(0.000402544 -0.0174633 0)
(-0.00255734 -0.00885597 0)
(0.000617289 -0.0148171 0)
(-0.000526737 -0.010023 0)
(4.54198e-07 -0.0146706 0)
(0.000527638 -0.0100239 0)
(-0.000598903 -0.014864 0)
(0.00244663 -0.00887167 0)
(-0.000405508 -0.0173912 0)
(-1.21957e-07 -0.00757869 0)
(0.000405519 -0.0173905 0)
(-0.00244662 -0.00887041 0)
(0.0005994 -0.0148628 0)
(-0.000521189 -0.0100108 0)
(4.55089e-07 -0.0146927 0)
(0.000522087 -0.0100116 0)
(-0.000581621 -0.0149074 0)
(0.00233907 -0.0088855 0)
(-0.000407585 -0.0173208 0)
(-1.21994e-07 -0.00760667 0)
(0.000407596 -0.0173201 0)
(-0.00233905 -0.00888426 0)
(0.00058212 -0.0149062 0)
(-0.00051488 -0.00999887 0)
(4.55628e-07 -0.0147147 0)
(0.000515772 -0.00999968 0)
(-0.000564913 -0.0149487 0)
(0.00223469 -0.00889877 0)
(-0.00040879 -0.0172529 0)
(-1.21024e-07 -0.00763486 0)
(0.000408802 -0.0172522 0)
(-0.00223466 -0.00889753 0)
(0.000565413 -0.0149475 0)
(-0.000507861 -0.00998723 0)
(4.55504e-07 -0.0147366 0)
(0.000508747 -0.00998803 0)
(-0.000548741 -0.0149878 0)
(0.00213352 -0.00891149 0)
(-0.000409155 -0.0171873 0)
(-1.19121e-07 -0.00766322 0)
(0.000409169 -0.0171866 0)
(-0.00213348 -0.00891026 0)
(0.000549243 -0.0149867 0)
(-0.000500187 -0.0099759 0)
(4.54735e-07 -0.0147583 0)
(0.000501065 -0.00997668 0)
(-0.000533072 -0.0150249 0)
(0.00203555 -0.00892368 0)
(-0.000408714 -0.017124 0)
(-1.16357e-07 -0.0076917 0)
(0.00040873 -0.0171234 0)
(-0.0020355 -0.00892247 0)
(0.000533574 -0.0150238 0)
(-0.00049191 -0.00996488 0)
(4.53383e-07 -0.0147798 0)
(0.000492779 -0.00996565 0)
(-0.000517872 -0.01506 0)
(0.00194079 -0.00893538 0)
(-0.000407504 -0.017063 0)
(-1.12803e-07 -0.00772026 0)
(0.000407523 -0.0170624 0)
(-0.00194073 -0.00893418 0)
(0.000518374 -0.015059 0)
(-0.000483084 -0.00995414 0)
(4.51498e-07 -0.0148011 0)
(0.000483943 -0.00995491 0)
(-0.000503112 -0.0150933 0)
(0.00184922 -0.00894659 0)
(-0.000405563 -0.0170043 0)
(-1.0853e-07 -0.00774884 0)
(0.000405587 -0.0170036 0)
(-0.00184914 -0.0089454 0)
(0.000503614 -0.0150922 0)
(-0.000473762 -0.0099437 0)
(4.49124e-07 -0.0148221 0)
(0.000474609 -0.00994445 0)
(-0.000488766 -0.0151247 0)
(0.00176081 -0.00895735 0)
(-0.000402931 -0.0169477 0)
(-1.03605e-07 -0.0077774 0)
(0.00040296 -0.016947 0)
(-0.00176072 -0.00895617 0)
(0.000489267 -0.0151236 0)
(-0.000463996 -0.00993352 0)
(4.4628e-07 -0.0148427 0)
(0.000464831 -0.00993426 0)
(-0.00047481 -0.0151543 0)
(0.00167553 -0.00896766 0)
(-0.000399651 -0.0168932 0)
(-9.80956e-08 -0.0078059 0)
(0.000399685 -0.0168925 0)
(-0.00167543 -0.0089665 0)
(0.000475309 -0.0151533 0)
(-0.000453837 -0.00992361 0)
(4.42977e-07 -0.0148631 0)
(0.000454659 -0.00992433 0)
(-0.000461221 -0.0151822 0)
(0.00159333 -0.00897755 0)
(-0.000395763 -0.0168408 0)
(-9.20652e-08 -0.00783431 0)
(0.000395804 -0.0168402 0)
(-0.00159323 -0.0089764 0)
(0.000461718 -0.0151812 0)
(-0.000443335 -0.00991395 0)
(4.39239e-07 -0.014883 0)
(0.000444144 -0.00991467 0)
(-0.000447977 -0.0152085 0)
(0.00151419 -0.00898704 0)
(-0.000391312 -0.0167904 0)
(-8.55765e-08 -0.00786258 0)
(0.000391359 -0.0167898 0)
(-0.00151407 -0.0089859 0)
(0.000448472 -0.0152076 0)
(-0.000432538 -0.00990454 0)
(4.35101e-07 -0.0149027 0)
(0.000433333 -0.00990525 0)
(-0.000435059 -0.0152333 0)
(0.00143804 -0.00899613 0)
(-0.00038634 -0.0167421 0)
(-7.86897e-08 -0.00789067 0)
(0.000386395 -0.0167414 0)
(-0.0014379 -0.008995 0)
(0.000435552 -0.0152324 0)
(-0.000421491 -0.00989538 0)
(4.30602e-07 -0.0149219 0)
(0.000422273 -0.00989607 0)
(-0.000422451 -0.0152566 0)
(0.00136483 -0.00900486 0)
(-0.000380892 -0.0166956 0)
(-7.14631e-08 -0.00791856 0)
(0.000380954 -0.016695 0)
(-0.00136469 -0.00900374 0)
(0.00042294 -0.0152557 0)
(-0.00041024 -0.00988645 0)
(4.25783e-07 -0.0149407 0)
(0.000411007 -0.00988713 0)
(-0.000410136 -0.0152785 0)
(0.00129451 -0.00901322 0)
(-0.000375011 -0.016651 0)
(-6.39529e-08 -0.0079462 0)
(0.000375081 -0.0166504 0)
(-0.00129435 -0.00901211 0)
(0.000410622 -0.0152776 0)
(-0.000398826 -0.00987774 0)
(4.20687e-07 -0.0149591 0)
(0.000399578 -0.00987842 0)
(-0.000398101 -0.015299 0)
(0.00122702 -0.00902123 0)
(-0.000368742 -0.0166083 0)
(-5.62128e-08 -0.00797357 0)
(0.000368819 -0.0166077 0)
(-0.00122685 -0.00902013 0)
(0.000398585 -0.0152981 0)
(-0.000387291 -0.00986926 0)
(4.15358e-07 -0.0149771 0)
(0.000388028 -0.00986993 0)
(-0.000386334 -0.0153182 0)
(0.0011623 -0.00902891 0)
(-0.000362128 -0.0165673 0)
(-4.82948e-08 -0.00800063 0)
(0.000362214 -0.0165667 0)
(-0.00116212 -0.00902782 0)
(0.000386815 -0.0153174 0)
(-0.000375674 -0.009861 0)
(4.09838e-07 -0.0149946 0)
(0.000376396 -0.00986166 0)
(-0.000374827 -0.0153363 0)
(0.00110029 -0.00903627 0)
(-0.000355215 -0.0165281 0)
(-4.02484e-08 -0.00802737 0)
(0.000355308 -0.0165275 0)
(-0.0011001 -0.00903519 0)
(0.000375304 -0.0153354 0)
(-0.000364013 -0.00985295 0)
(4.0417e-07 -0.0150117 0)
(0.00036472 -0.0098536 0)
(-0.000363569 -0.0153531 0)
(0.00104093 -0.00904331 0)
(-0.000348045 -0.0164905 0)
(-3.21209e-08 -0.00805375 0)
(0.000348147 -0.0164899 0)
(-0.00104073 -0.00904224 0)
(0.000364044 -0.0153523 0)
(-0.000352346 -0.0098451 0)
(3.98393e-07 -0.0150284 0)
(0.000353038 -0.00984575 0)
(-0.000352556 -0.0153688 0)
(0.00098416 -0.00905005 0)
(-0.000340663 -0.0164546 0)
(-2.39573e-08 -0.00807976 0)
(0.000340774 -0.016454 0)
(-0.000983944 -0.00904899 0)
(0.000353028 -0.015368 0)
(-0.000340706 -0.00983745 0)
(3.92546e-07 -0.0150445 0)
(0.000341383 -0.00983809 0)
(-0.00034178 -0.0153835 0)
(0.000929918 -0.0090565 0)
(-0.000333113 -0.0164202 0)
(-1.57999e-08 -0.00810537 0)
(0.000333232 -0.0164197 0)
(-0.000929691 -0.00905544 0)
(0.000342249 -0.0153827 0)
(-0.000329127 -0.00983 0)
(3.86662e-07 -0.0150602 0)
(0.000329789 -0.00983064 0)
(-0.00033124 -0.0153973 0)
(0.000878148 -0.00906265 0)
(-0.000325438 -0.0163874 0)
(-7.6888e-09 -0.00813057 0)
(0.000325565 -0.0163868 0)
(-0.000877911 -0.00906161 0)
(0.000331706 -0.0153965 0)
(-0.000317642 -0.00982275 0)
(3.80772e-07 -0.0150755 0)
(0.00031829 -0.00982337 0)
(-0.00032093 -0.01541 0)
(0.000828793 -0.00906853 0)
(-0.000317681 -0.016356 0)
(3.38857e-10 -0.00815534 0)
(0.000317815 -0.0163555 0)
(-0.000828545 -0.00906749 0)
(0.000321394 -0.0154093 0)
(-0.000306282 -0.00981567 0)
(3.74903e-07 -0.0150902 0)
(0.000306916 -0.00981629 0)
(-0.000310851 -0.0154219 0)
(0.000781798 -0.00907413 0)
(-0.000309882 -0.0163261 0)
(8.24872e-09 -0.00817967 0)
(0.000310025 -0.0163255 0)
(-0.000781541 -0.0090731 0)
(0.000311313 -0.0154212 0)
(-0.000295077 -0.00980878 0)
(3.69076e-07 -0.0151045 0)
(0.000295697 -0.0098094 0)
(-0.000301002 -0.015433 0)
(0.000737112 -0.00907946 0)
(-0.000302085 -0.0162975 0)
(1.60095e-08 -0.00820354 0)
(0.000302235 -0.016297 0)
(-0.000736846 -0.00907843 0)
(0.000301461 -0.0154322 0)
(-0.000284057 -0.00980207 0)
(3.63308e-07 -0.0151184 0)
(0.000284664 -0.00980268 0)
(-0.000291384 -0.0154433 0)
(0.000694688 -0.00908452 0)
(-0.000294329 -0.0162703 0)
(2.3593e-08 -0.00822697 0)
(0.000294485 -0.0162698 0)
(-0.000694413 -0.00908351 0)
(0.00029184 -0.0154425 0)
(-0.00027325 -0.00979553 0)
(3.57609e-07 -0.0151318 0)
(0.000273845 -0.00979613 0)
(-0.000281998 -0.0154528 0)
(0.000654481 -0.00908933 0)
(-0.000286652 -0.0162444 0)
(3.09744e-08 -0.00824992 0)
(0.000286816 -0.0162439 0)
(-0.000654198 -0.00908832 0)
(0.000282452 -0.0154521 0)
(-0.000262686 -0.00978915 0)
(3.5198e-07 -0.0151447 0)
(0.000263269 -0.00978975 0)
(-0.000272849 -0.0154617 0)
(0.000616452 -0.00909388 0)
(-0.000279093 -0.0162197 0)
(3.81323e-08 -0.00827242 0)
(0.000279263 -0.0162192 0)
(-0.000616161 -0.00909287 0)
(0.000273302 -0.015461 0)
(-0.000252394 -0.00978294 0)
(3.46413e-07 -0.0151572 0)
(0.000252966 -0.00978353 0)
(-0.000263942 -0.0154699 0)
(0.000580568 -0.00909817 0)
(-0.000271688 -0.0161961 0)
(4.50487e-08 -0.00829445 0)
(0.000271864 -0.0161956 0)
(-0.000580269 -0.00909717 0)
(0.000264394 -0.0154692 0)
(-0.000242402 -0.00977688 0)
(3.40897e-07 -0.0151693 0)
(0.000242963 -0.00977747 0)
(-0.000255287 -0.0154775 0)
(0.0005468 -0.00910222 0)
(-0.000264472 -0.0161737 0)
(5.17089e-08 -0.00831601 0)
(0.000264653 -0.0161732 0)
(-0.000546495 -0.00910122 0)
(0.000255738 -0.0154768 0)
(-0.000232739 -0.00977098 0)
(3.35457e-07 -0.015181 0)
(0.000233291 -0.00977156 0)
(-0.000246895 -0.0154846 0)
(0.000515127 -0.00910601 0)
(-0.000257477 -0.0161524 0)
(5.81015e-08 -0.00833713 0)
(0.000257664 -0.0161519 0)
(-0.000514816 -0.00910502 0)
(0.000247345 -0.0154839 0)
(-0.000223438 -0.00976522 0)
(3.30143e-07 -0.0151922 0)
(0.00022398 -0.0097658 0)
(-0.000238781 -0.0154912 0)
(0.000485535 -0.00910957 0)
(-0.000250737 -0.0161321 0)
(6.42177e-08 -0.00835779 0)
(0.000250929 -0.0161316 0)
(-0.000485218 -0.00910858 0)
(0.000239231 -0.0154905 0)
(-0.000214529 -0.0097596 0)
(3.24997e-07 -0.0152031 0)
(0.000215063 -0.00976018 0)
(-0.000230967 -0.0154973 0)
(0.000458015 -0.00911287 0)
(-0.000244282 -0.0161128 0)
(7.00512e-08 -0.00837801 0)
(0.000244478 -0.0161123 0)
(-0.000457693 -0.00911189 0)
(0.000231416 -0.0154966 0)
(-0.000206047 -0.00975412 0)
(3.20055e-07 -0.0152136 0)
(0.000206572 -0.00975469 0)
(-0.000223476 -0.015503 0)
(0.000432569 -0.00911594 0)
(-0.000238143 -0.0160944 0)
(7.55973e-08 -0.0083978 0)
(0.000238344 -0.0160939 0)
(-0.000432243 -0.00911497 0)
(0.000223925 -0.0155024 0)
(-0.000198025 -0.00974876 0)
(3.15345e-07 -0.0152238 0)
(0.000198543 -0.00974933 0)
(-0.000216342 -0.0155083 0)
(0.000409206 -0.00911878 0)
(-0.000232353 -0.0160769 0)
(8.08522e-08 -0.00841718 0)
(0.000232558 -0.0160764 0)
(-0.000408875 -0.0091178 0)
(0.000216791 -0.0155077 0)
(-0.000190501 -0.00974352 0)
(3.10886e-07 -0.0152337 0)
(0.000191012 -0.00974409 0)
(-0.000209604 -0.0155133 0)
(0.000387942 -0.00912139 0)
(-0.000226942 -0.0160601 0)
(8.5812e-08 -0.00843617 0)
(0.000227151 -0.0160597 0)
(-0.000387607 -0.00912041 0)
(0.000210054 -0.0155127 0)
(-0.000183514 -0.00973839 0)
(3.06682e-07 -0.0152432 0)
(0.000184019 -0.00973896 0)
(-0.000203311 -0.015518 0)
(0.000368803 -0.00912377 0)
(-0.000221947 -0.0160441 0)
(9.0472e-08 -0.00845478 0)
(0.000222159 -0.0160437 0)
(-0.000368465 -0.0091228 0)
(0.000203761 -0.0155173 0)
(-0.000177105 -0.00973336 0)
(3.02728e-07 -0.0152525 0)
(0.000177603 -0.00973392 0)
(-0.000197519 -0.0155224 0)
(0.000351826 -0.00912594 0)
(-0.000217404 -0.0160288 0)
(9.48253e-08 -0.00847304 0)
(0.000217619 -0.0160284 0)
(-0.000351485 -0.00912497 0)
(0.000197969 -0.0155218 0)
(-0.000171316 -0.00972841 0)
(2.99006e-07 -0.0152616 0)
(0.000171809 -0.00972897 0)
(-0.000192295 -0.0155266 0)
(0.000337055 -0.00912791 0)
(-0.000213354 -0.0160141 0)
(9.88623e-08 -0.00849094 0)
(0.000213572 -0.0160137 0)
(-0.000336712 -0.00912694 0)
(0.000192745 -0.015526 0)
(-0.000166194 -0.00972356 0)
(2.95528e-07 -0.0152705 0)
(0.000166681 -0.00972409 0)
(-0.000187715 -0.0155306 0)
(0.000324544 -0.00912967 0)
(-0.000209843 -0.016 0)
(1.02571e-07 -0.0085085 0)
(0.000210064 -0.0159996 0)
(-0.000324198 -0.00912871 0)
(0.000188164 -0.01553 0)
(-0.000161787 -0.00971877 0)
(2.93547e-07 -0.0152792 0)
(0.000162269 -0.00971931 0)
(-0.000183863 -0.0155345 0)
(0.000314358 -0.00913126 0)
(-0.000206923 -0.0159863 0)
(1.05939e-07 -0.0085259 0)
(0.000207147 -0.0159859 0)
(-0.000314011 -0.0091303 0)
(0.000184312 -0.0155339 0)
(-0.000158147 -0.00971401 0)
(2.89751e-07 -0.0152878 0)
(0.000158625 -0.00971453 0)
(-0.000180838 -0.0155384 0)
(0.000306588 -0.00913272 0)
(-0.000204663 -0.0159724 0)
(1.08953e-07 -0.00854372 0)
(0.000204889 -0.015972 0)
(-0.000306237 -0.00913176 0)
(0.000181286 -0.0155378 0)
(-0.000155334 -0.00970905 0)
(2.88911e-07 -0.0152968 0)
(0.000155807 -0.00970958 0)
(-0.000178754 -0.0155426 0)
(0.000301368 -0.00913408 0)
(-0.000203159 -0.0159582 0)
(1.11592e-07 -0.00856218 0)
(0.000203389 -0.0159577 0)
(-0.000301017 -0.00913312 0)
(0.000179202 -0.0155419 0)
(-0.000153419 -0.00970384 0)
(2.84549e-07 -0.0153062 0)
(0.000153889 -0.00970435 0)
(-0.000177726 -0.0155459 0)
(0.000298854 -0.00913518 0)
(-0.000202498 -0.0159467 0)
(1.13843e-07 -0.00857709 0)
(0.000202731 -0.0159463 0)
(-0.000298501 -0.00913422 0)
(0.000178172 -0.0155452 0)
(-0.000152478 -0.00969972 0)
(2.8346e-07 -0.0153137 0)
(0.000152944 -0.00970018 0)
)
;

boundaryField
{
    BotWall
    {
        type            fixedValue;
        value           uniform (0 0 0);
    }
    FreeStream
    {
        type            zeroGradient;
    }
    FrontNBack
    {
        type            empty;
    }
    LeftSide
    {
        type            cyclic;
    }
    RightSide
    {
        type            cyclic;
    }
}


// ************************************************************************* //
