/*--------------------------------*- C++ -*----------------------------------*\
| =========                 |                                                 |
| \\      /  F ield         | OpenFOAM: The Open Source CFD Toolbox           |
|  \\    /   O peration     | Version:  2.4.0                                 |
|   \\  /    A nd           | Web:      www.OpenFOAM.org                      |
|    \\/     M anipulation  |                                                 |
\*---------------------------------------------------------------------------*/
FoamFile
{
    version     2.0;
    format      ascii;
    class       volScalarField;
    location    "0.003";
    object      alpha1;
}
// * * * * * * * * * * * * * * * * * * * * * * * * * * * * * * * * * * * * * //

dimensions      [0 0 0 0 0 0 0];

internalField   nonuniform List<scalar> 
125
(
1
0.901722
3.34997e-63
2.34423e-69
1.15906e-75
5.03179e-82
2.15146e-88
9.12488e-95
3.58208e-101
1.21236e-107
3.51746e-114
8.97762e-121
1.89498e-127
3.2756e-134
4.57236e-141
5.05015e-148
4.2949e-155
2.7454e-162
1.38172e-169
7.59427e-177
6.16534e-184
4.67613e-191
2.07531e-198
2.91816e-206
0
0
0
0
0
0
0
0
0
0
0
0
0
0
0
0
0
0
0
0
0
0
0
0
0
0
0
0
0
0
0
0
0
0
0
0
0
0
0
0
0
0
0
0
0
0
0
0
0
0
0
0
0
0
0
0
0
0
0
0
0
0
0
0
0
0
0
0
0
0
0
0
0
0
0
0
0
0
0
0
0
0
0
0
0
0
0
0
0
0
0
0
0
0
0
0
0
0
0
0
0
)
;

boundaryField
{
    BotWall
    {
        type            fixedValue;
        value           uniform 1;
    }
    FreeStream
    {
        type            inletOutlet;
        inletValue      uniform 0;
        value           uniform 0;
    }
    FrontNBack
    {
        type            empty;
    }
    LeftSide
    {
        type            symmetryPlane;
    }
    RightSide
    {
        type            symmetryPlane;
    }
    procBoundary9to6
    {
        type            processor;
        value           uniform 0;
    }
    procBoundary9to7
    {
        type            processor;
        value           nonuniform List<scalar> 
75
(
1
0.924164
1.40983e-65
9.32227e-72
5.81309e-78
4.43536e-84
4.04721e-90
3.75248e-96
3.21125e-102
2.45662e-108
1.65649e-114
9.8403e-121
5.12369e-127
2.33109e-133
9.22668e-140
3.15119e-146
9.17603e-153
2.2397e-159
4.46959e-166
7.0395e-173
8.28945e-180
6.64573e-187
3.00023e-194
4.28869e-202
0
0
0
0
0
0
0
0
0
0
0
0
0
0
0
0
0
0
0
0
0
0
0
0
0
0
0
0
0
0
0
0
0
0
0
0
0
0
0
0
0
0
0
0
0
0
0
0
0
0
0
)
;
    }
    procBoundary9to8
    {
        type            processor;
        value           uniform 0;
    }
    procBoundary9to10
    {
        type            processor;
        value           uniform 0;
    }
    procBoundary9to11
    {
        type            processor;
        value           nonuniform List<scalar> 
75
(
1
0.911751
8.80439e-66
1.97346e-72
7.6766e-79
2.81591e-85
1.08319e-91
4.27092e-98
1.59231e-104
5.18855e-111
1.46409e-117
3.65586e-124
7.58173e-131
1.29393e-137
1.79296e-144
1.98208e-151
1.71358e-158
1.14886e-165
6.32623e-173
3.49099e-180
2.19356e-187
1.21496e-194
4.17427e-202
5.1954e-210
0
0
0
0
0
0
0
0
0
0
0
0
0
0
0
0
0
0
0
0
0
0
0
0
0
0
0
0
0
0
0
0
0
0
0
0
0
0
0
0
0
0
0
0
0
0
0
0
0
0
0
)
;
    }
}


// ************************************************************************* //
