/*--------------------------------*- C++ -*----------------------------------*\
| =========                 |                                                 |
| \\      /  F ield         | OpenFOAM: The Open Source CFD Toolbox           |
|  \\    /   O peration     | Version:  2.4.0                                 |
|   \\  /    A nd           | Web:      www.OpenFOAM.org                      |
|    \\/     M anipulation  |                                                 |
\*---------------------------------------------------------------------------*/
FoamFile
{
    version     2.0;
    format      ascii;
    class       surfaceScalarField;
    location    "0.003";
    object      phi;
}
// * * * * * * * * * * * * * * * * * * * * * * * * * * * * * * * * * * * * * //

dimensions      [0 3 -1 0 0 0 0];

internalField   nonuniform List<scalar> 
123
(
-3.14537e-12
-1.02341e-08
-1.02345e-08
-1.02348e-08
-1.0235e-08
-1.02352e-08
-1.02354e-08
-1.02355e-08
-1.02355e-08
-1.02356e-08
-1.02357e-08
-1.02358e-08
-1.02359e-08
-1.0236e-08
-1.02361e-08
-1.02362e-08
-1.02363e-08
-1.02365e-08
-1.02366e-08
-1.02367e-08
-1.02368e-08
-1.0237e-08
-1.02371e-08
-1.02372e-08
-1.02373e-08
-1.02375e-08
-1.02376e-08
-1.02377e-08
-1.02378e-08
-1.02379e-08
-1.0238e-08
-1.02381e-08
-1.02382e-08
-1.02384e-08
-1.02385e-08
-1.02386e-08
-1.02387e-08
-1.02388e-08
-1.02389e-08
-1.0239e-08
-1.02391e-08
-1.02392e-08
-1.02393e-08
-1.02394e-08
-1.02395e-08
-1.02396e-08
-1.02397e-08
-1.02398e-08
-1.02399e-08
-1.024e-08
-1.02401e-08
-1.02402e-08
-1.02403e-08
-1.02404e-08
-1.02405e-08
-1.02406e-08
-1.02407e-08
-1.02408e-08
-1.02409e-08
-1.02409e-08
-1.0241e-08
-1.02411e-08
-1.02412e-08
-1.02413e-08
-1.02414e-08
-1.02415e-08
-1.02416e-08
-1.02417e-08
-1.02418e-08
-1.02419e-08
-1.0242e-08
-1.02421e-08
-1.02422e-08
-1.02423e-08
-1.02607e-08
-1.02607e-08
-1.02607e-08
-1.02607e-08
-1.02607e-08
-1.02607e-08
-1.02607e-08
-1.02607e-08
-1.02607e-08
-1.02607e-08
-1.02607e-08
-1.02607e-08
-1.02607e-08
-1.02607e-08
-1.02607e-08
-1.02607e-08
-1.02607e-08
-1.02607e-08
-1.02607e-08
-1.02607e-08
-1.02607e-08
-1.02608e-08
-1.02608e-08
-1.02608e-08
-1.02608e-08
-1.02608e-08
-1.02608e-08
-1.02608e-08
-1.02608e-08
-1.02608e-08
-1.02608e-08
-1.02608e-08
-1.02608e-08
-1.02608e-08
-1.02608e-08
-1.02608e-08
-1.02608e-08
-1.02608e-08
-1.02608e-08
-1.02608e-08
-1.02608e-08
-1.02608e-08
-1.02608e-08
-1.02608e-08
-1.02608e-08
-1.02608e-08
-1.02608e-08
-1.02609e-08
-1.02609e-08
)
;

boundaryField
{
    BotWall
    {
        type            calculated;
        value           uniform -8.76732e-15;
    }
    FreeStream
    {
        type            calculated;
        value           uniform -1.02609e-08;
    }
    FrontNBack
    {
        type            empty;
        value           nonuniform 0();
    }
    LeftSide
    {
        type            symmetryPlane;
        value           nonuniform 0();
    }
    RightSide
    {
        type            symmetryPlane;
        value           uniform 0;
    }
    procBoundary9to6
    {
        type            processor;
        value           nonuniform List<scalar> 
50
(
1.41959e-13
1.38571e-13
1.35448e-13
1.3258e-13
1.29956e-13
1.27565e-13
1.25394e-13
1.23431e-13
1.21661e-13
1.20071e-13
1.18647e-13
1.17374e-13
1.16239e-13
1.15228e-13
1.1433e-13
1.13532e-13
1.12823e-13
1.12193e-13
1.11633e-13
1.11133e-13
1.10686e-13
1.10285e-13
1.09923e-13
1.09594e-13
1.09294e-13
1.09017e-13
1.08759e-13
1.08518e-13
1.08289e-13
1.0807e-13
1.07859e-13
1.07653e-13
1.07451e-13
1.07251e-13
1.07052e-13
1.06853e-13
1.06652e-13
1.06449e-13
1.06244e-13
1.06035e-13
1.05823e-13
1.05607e-13
1.05386e-13
1.05161e-13
1.04931e-13
1.04696e-13
1.04456e-13
1.04211e-13
1.03961e-13
1.03706e-13
)
;
    }
    procBoundary9to7
    {
        type            processor;
        value           nonuniform List<scalar> 
75
(
1.54063e-12
4.64847e-13
4.69683e-13
4.69241e-13
4.27803e-13
3.83633e-13
3.45733e-13
3.15122e-13
2.90408e-13
2.70072e-13
2.52973e-13
2.38331e-13
2.25624e-13
2.14486e-13
2.04649e-13
1.95902e-13
1.88075e-13
1.81022e-13
1.74622e-13
1.68775e-13
1.63401e-13
1.58439e-13
1.53843e-13
1.4958e-13
1.45624e-13
1.6062e-15
1.69098e-15
1.77853e-15
1.86874e-15
1.96173e-15
2.0577e-15
2.15692e-15
2.25197e-15
2.34655e-15
2.39757e-15
2.45164e-15
2.51042e-15
2.5738e-15
2.64159e-15
2.71354e-15
2.78945e-15
2.86919e-15
2.95277e-15
3.03544e-15
3.11504e-15
3.19457e-15
3.27372e-15
3.35218e-15
3.42956e-15
3.50554e-15
3.57957e-15
3.65121e-15
3.71987e-15
3.78493e-15
3.84573e-15
3.90157e-15
3.95177e-15
3.99568e-15
4.03273e-15
4.0625e-15
4.08471e-15
4.09929e-15
4.10634e-15
4.10613e-15
4.09897e-15
4.08517e-15
4.06479e-15
4.03758e-15
4.00296e-15
3.96001e-15
3.90801e-15
3.84757e-15
3.7823e-15
3.72095e-15
3.65655e-15
)
;
    }
    procBoundary9to8
    {
        type            processor;
        value           uniform -1.02424e-08;
    }
    procBoundary9to10
    {
        type            processor;
        value           uniform 1.02607e-08;
    }
    procBoundary9to11
    {
        type            processor;
        value           nonuniform List<scalar> 
75
(
1.60328e-12
-2.70798e-14
-7.37256e-14
-1.44309e-13
-1.79351e-13
-2.00784e-13
-2.10625e-13
-2.10092e-13
-2.01356e-13
-1.87026e-13
-1.69469e-13
-1.50547e-13
-1.31613e-13
-1.13591e-13
-9.70661e-14
-8.23617e-14
-6.96107e-14
-5.88139e-14
-4.98967e-14
-4.27816e-14
-3.75876e-14
-3.3595e-14
-2.95216e-14
-2.62761e-14
-2.37002e-14
-2.16562e-14
-2.0025e-14
-1.85908e-14
-1.73219e-14
-1.62942e-14
-1.55143e-14
-1.48937e-14
-1.43883e-14
-1.39687e-14
-1.36141e-14
-1.33092e-14
-1.30432e-14
-1.28078e-14
-1.25971e-14
-1.24064e-14
-1.22324e-14
-1.2073e-14
-1.19251e-14
-1.17869e-14
-1.16565e-14
-1.15326e-14
-1.14139e-14
-1.12992e-14
-1.11873e-14
-1.10774e-14
-1.09687e-14
-1.08602e-14
-1.07514e-14
-1.06417e-14
-1.05306e-14
-1.04177e-14
-1.03027e-14
-1.01852e-14
-1.00652e-14
-9.9424e-15
-9.81677e-15
-9.68824e-15
-9.55681e-15
-9.42247e-15
-9.28528e-15
-9.14529e-15
-9.00258e-15
-8.85724e-15
-8.70936e-15
-8.55905e-15
-8.40642e-15
-8.25153e-15
-8.09448e-15
-7.93531e-15
-7.77408e-15
)
;
    }
}


// ************************************************************************* //
