/*--------------------------------*- C++ -*----------------------------------*\
| =========                 |                                                 |
| \\      /  F ield         | OpenFOAM: The Open Source CFD Toolbox           |
|  \\    /   O peration     | Version:  2.4.0                                 |
|   \\  /    A nd           | Web:      www.OpenFOAM.org                      |
|    \\/     M anipulation  |                                                 |
\*---------------------------------------------------------------------------*/
FoamFile
{
    version     2.0;
    format      ascii;
    class       volScalarField;
    location    "0.2";
    object      p;
}
// * * * * * * * * * * * * * * * * * * * * * * * * * * * * * * * * * * * * * //

dimensions      [1 -1 -2 0 0 0 0];

internalField   nonuniform List<scalar> 
125
(
-0.0145472
-0.0145472
-0.0145472
-0.0145472
-0.0145472
-0.0151982
-0.0151982
-0.0151982
-0.0151982
-0.0151982
-0.0158564
-0.0158564
-0.0158564
-0.0158564
-0.0158564
-0.0165219
-0.0165219
-0.0165219
-0.0165219
-0.0165219
-0.0171949
-0.0171949
-0.0171949
-0.0171949
-0.0171949
-0.0178754
-0.0178754
-0.0178754
-0.0178754
-0.0178754
-0.0185634
-0.0185634
-0.0185634
-0.0185634
-0.0185634
-0.0192592
-0.0192592
-0.0192592
-0.0192592
-0.0192592
-0.0199627
-0.0199627
-0.0199627
-0.0199627
-0.0199627
-0.0206741
-0.0206741
-0.0206741
-0.0206741
-0.0206741
-0.0213934
-0.0213934
-0.0213934
-0.0213934
-0.0213934
-0.0221207
-0.0221207
-0.0221207
-0.0221207
-0.0221207
-0.0228562
-0.0228562
-0.0228561
-0.0228561
-0.0228561
-0.0235998
-0.0235998
-0.0235998
-0.0235998
-0.0235998
-0.0243518
-0.0243518
-0.0243518
-0.0243518
-0.0243518
-0.0251121
-0.0251121
-0.0251121
-0.0251121
-0.0251121
-0.0258809
-0.0258809
-0.0258809
-0.0258809
-0.0258809
-0.0266583
-0.0266583
-0.0266583
-0.0266583
-0.0266583
-0.0274444
-0.0274444
-0.0274444
-0.0274444
-0.0274444
-0.0282393
-0.0282393
-0.0282393
-0.0282393
-0.0282393
-0.029043
-0.029043
-0.029043
-0.029043
-0.029043
-0.0298557
-0.0298557
-0.0298557
-0.0298557
-0.0298557
-0.0306774
-0.0306774
-0.0306774
-0.0306774
-0.0306774
-0.0315084
-0.0315084
-0.0315084
-0.0315084
-0.0315084
-0.0323486
-0.0323486
-0.0323486
-0.0323486
-0.0323486
)
;

boundaryField
{
    BotWall
    {
        type            calculated;
        value           nonuniform 0();
    }
    FreeStream
    {
        type            calculated;
        value           nonuniform 0();
    }
    FrontNBack
    {
        type            empty;
    }
    LeftSide
    {
        type            symmetryPlane;
    }
    RightSide
    {
        type            symmetryPlane;
    }
    procBoundary1to0
    {
        type            processor;
        value           nonuniform List<scalar> 5(-0.0139035 -0.0139035 -0.0139035 -0.0139035 -0.0139035);
    }
    procBoundary1to2
    {
        type            processor;
        value           nonuniform List<scalar> 5(-0.0331982 -0.0331982 -0.0331982 -0.0331982 -0.0331982);
    }
}


// ************************************************************************* //
