/*--------------------------------*- C++ -*----------------------------------*\
| =========                 |                                                 |
| \\      /  F ield         | OpenFOAM: The Open Source CFD Toolbox           |
|  \\    /   O peration     | Version:  2.4.0                                 |
|   \\  /    A nd           | Web:      www.OpenFOAM.org                      |
|    \\/     M anipulation  |                                                 |
\*---------------------------------------------------------------------------*/
FoamFile
{
    version     2.0;
    format      ascii;
    class       volScalarField;
    location    "0.2";
    object      T;
}
// * * * * * * * * * * * * * * * * * * * * * * * * * * * * * * * * * * * * * //

dimensions      [0 0 0 1 0 0 0];

internalField   nonuniform List<scalar> 
125
(
297.941
297.941
297.941
297.941
297.941
297.943
297.943
297.943
297.943
297.943
297.944
297.944
297.944
297.944
297.944
297.946
297.946
297.946
297.946
297.946
297.947
297.947
297.947
297.947
297.947
297.949
297.949
297.949
297.949
297.949
297.951
297.951
297.951
297.951
297.951
297.953
297.953
297.953
297.953
297.953
297.955
297.955
297.955
297.955
297.955
297.956
297.956
297.956
297.956
297.956
297.958
297.958
297.958
297.958
297.958
297.96
297.96
297.96
297.96
297.96
297.962
297.962
297.962
297.962
297.962
297.964
297.964
297.964
297.964
297.964
297.966
297.966
297.966
297.966
297.966
297.968
297.968
297.968
297.968
297.968
297.969
297.969
297.969
297.969
297.969
297.971
297.971
297.971
297.971
297.971
297.973
297.973
297.973
297.973
297.973
297.974
297.974
297.974
297.974
297.974
297.976
297.976
297.976
297.976
297.976
297.977
297.977
297.977
297.977
297.977
297.979
297.979
297.979
297.979
297.979
297.98
297.98
297.98
297.98
297.98
297.982
297.982
297.982
297.982
297.982
)
;

boundaryField
{
    BotWall
    {
        type            fixedValue;
        value           nonuniform 0();
    }
    FreeStream
    {
        type            fixedValue;
        value           nonuniform 0();
    }
    FrontNBack
    {
        type            empty;
    }
    LeftSide
    {
        type            symmetryPlane;
    }
    RightSide
    {
        type            symmetryPlane;
    }
    procBoundary1to0
    {
        type            processor;
        value           nonuniform List<scalar> 5(297.94 297.94 297.94 297.94 297.94);
    }
    procBoundary1to2
    {
        type            processor;
        value           nonuniform List<scalar> 5(297.983 297.983 297.983 297.983 297.983);
    }
}


// ************************************************************************* //
