/*--------------------------------*- C++ -*----------------------------------*\
| =========                 |                                                 |
| \\      /  F ield         | OpenFOAM: The Open Source CFD Toolbox           |
|  \\    /   O peration     | Version:  2.4.0                                 |
|   \\  /    A nd           | Web:      www.OpenFOAM.org                      |
|    \\/     M anipulation  |                                                 |
\*---------------------------------------------------------------------------*/
FoamFile
{
    version     2.0;
    format      ascii;
    class       volScalarField;
    location    "3";
    object      alpha1;
}
// * * * * * * * * * * * * * * * * * * * * * * * * * * * * * * * * * * * * * //

dimensions      [0 0 0 0 0 0 0];

internalField   nonuniform List<scalar> 
8000
(
1
1
1
1
1
1
1
1
1
0.999999
0.999999
0.999999
0.999998
0.999998
0.999998
0.999967
0.998926
0.951296
0.54143
0.031129
0.00715197
0.000164288
4.71906e-06
2.91624e-06
9.50967e-07
8.5649e-07
8.56454e-07
8.57581e-07
2.66288e-06
4.16608e-06
4.16224e-06
1.57879e-06
1.15449e-06
1.19794e-06
2.88152e-06
2.87989e-06
2.0386e-06
8.97611e-07
9.00497e-07
1.05923e-06
4.41298e-06
9.70386e-06
9.69176e-06
6.41953e-06
1.56969e-06
1.51409e-06
1.52881e-06
1.45053e-06
1.49892e-06
2.67774e-06
1
1
1
1
1
1
1
0.999999
0.999999
0.999999
0.999998
0.999999
0.999993
0.9996
0.998438
0.858198
0.208314
0.016633
0.0115227
1.87953e-05
9.83034e-06
2.24529e-06
1.18495e-06
1.18472e-06
1.58221e-06
4.33687e-06
4.47192e-06
4.13404e-06
1.48731e-06
1.19235e-06
1.18526e-06
1.18242e-06
1.15438e-06
1.14397e-06
1.20453e-06
1.2032e-06
1.22093e-06
3.97453e-06
6.29293e-06
6.28093e-06
4.2832e-06
2.16922e-06
2.16913e-06
2.22908e-06
6.95715e-06
1.0009e-05
5.0683e-06
3.50374e-06
2.47816e-06
2.24623e-06
1
1
1
1
1
0.999999
0.999999
0.999998
0.999997
0.999999
0.999942
0.998374
0.998959
0.499891
0.0342391
0.0214846
0.000681377
0.00012168
8.86785e-05
1.388e-06
1.26983e-06
1.29487e-06
4.03662e-06
6.74526e-06
6.7518e-06
4.67142e-06
2.98108e-06
3.18505e-06
2.9317e-06
2.48779e-06
3.40114e-06
5.6051e-06
8.04304e-06
8.04973e-06
4.54709e-06
1.77419e-06
2.16519e-06
1.66682e-06
1.64298e-06
2.9464e-06
4.44368e-06
2.80399e-06
2.1708e-06
2.17666e-06
4.48298e-06
1.00055e-05
1.00073e-05
9.88794e-06
4.3487e-06
1.34736e-06
1
1
1
1
0.999999
0.999998
0.999997
0.999997
0.999962
0.999092
0.787251
0.0598092
0.0174491
0.00877875
0.000296942
0.000209756
0.000100614
6.05976e-06
1.3195e-06
1.31054e-06
1.26435e-06
1.2572e-06
1.63828e-06
1.64225e-06
1.64885e-06
5.03665e-06
3.80193e-06
2.01885e-06
2.01343e-06
2.01297e-06
2.00697e-06
2.00696e-06
2.21214e-06
7.53971e-06
7.98799e-06
7.81567e-06
3.10988e-06
1.67552e-06
1.63575e-06
1.60077e-06
1.59918e-06
1.59901e-06
4.70185e-06
9.75046e-06
9.74145e-06
3.14057e-06
4.89685e-06
9.85264e-06
9.28934e-06
5.00494e-06
1
1
1
1
0.999998
0.999994
0.999994
0.999995
0.797082
0.0393498
0.0254328
0.0084212
0.00171075
0.00171571
0.00112949
0.000741315
0.000518161
0.000364726
0.000252133
0.000167484
0.000109802
7.31173e-05
4.99823e-05
3.49869e-05
2.48295e-05
1.75735e-05
1.30007e-05
1.12711e-05
9.48314e-06
5.93356e-06
2.31989e-06
2.01178e-06
2.78688e-06
2.07418e-06
2.06685e-06
2.06672e-06
2.06717e-06
9.85687e-06
7.33096e-06
2.64763e-06
1.60259e-06
1.59882e-06
1.59862e-06
1.59377e-06
1.57294e-06
1.55862e-06
1.55872e-06
2.72675e-06
8.63357e-06
8.75279e-06
1
1
1
0.999999
0.999996
0.99999
0.999999
1.00152
0.122405
0.0952386
0.0649577
0.0558618
0.0467389
0.0443687
0.0306703
0.0240882
0.0181636
0.01352
0.0100722
0.00730952
0.00521631
0.0036473
0.00250588
0.00169306
0.00112496
0.000735802
0.000473465
0.000299238
0.000185256
0.000112299
6.76465e-05
4.06777e-05
2.30711e-05
1.01653e-05
5.8188e-06
5.34654e-06
9.54211e-06
9.91407e-06
2.8163e-06
2.16505e-06
2.16025e-06
1.63407e-06
1.55924e-06
1.68542e-06
1.84575e-06
1.86899e-06
2.57717e-06
4.74491e-06
5.26472e-06
3.28141e-06
1
1
1
0.999999
0.999996
0.999991
0.999992
1.00012
0.953674
0.65417
0.524905
0.443748
0.380577
0.338753
0.302487
0.269656
0.234043
0.201816
0.173257
0.14675
0.123019
0.10151
0.0824178
0.0657844
0.0515627
0.0396563
0.029901
0.0220888
0.0159624
0.0112397
0.00765059
0.00501969
0.00317809
0.00192559
0.00109639
0.000579169
0.000283779
0.000129427
5.38278e-05
1.95355e-05
6.20334e-06
2.67773e-06
1.69074e-06
1.84906e-06
2.59132e-06
2.39344e-06
2.57312e-06
2.90801e-06
2.09158e-06
1.78409e-06
1
1
1
0.999999
0.999998
0.999995
0.999974
0.999958
1.00006
0.999952
0.999936
0.97681
0.925855
0.90738
0.88033
0.855067
0.826256
0.791483
0.753222
0.712782
0.66947
0.622833
0.573321
0.521432
0.467806
0.413375
0.359169
0.306512
0.257024
0.212137
0.172045
0.135745
0.103761
0.076606
0.0544216
0.0369431
0.0237462
0.0143155
0.00796161
0.00397634
0.00172942
0.000633617
0.000188891
4.38684e-05
8.22528e-06
2.68421e-06
2.29197e-06
2.2854e-06
2.2806e-06
1.85652e-06
1
1
1
0.999999
0.999999
1
1
0.99998
0.999997
1.00001
0.999999
0.999997
0.999992
1.00001
0.999967
0.999976
1.00001
1.00002
0.996737
0.990971
0.985332
0.978647
0.970388
0.959971
0.946692
0.929615
0.907488
0.87881
0.841988
0.795679
0.740559
0.678854
0.610638
0.536561
0.458246
0.378491
0.300888
0.229146
0.166169
0.111977
0.0685073
0.0369736
0.0170804
0.00651526
0.00193684
0.00044238
8.42947e-05
1.62456e-05
4.24971e-06
2.25825e-06
1
1
0.999999
0.999998
0.999999
0.999998
0.999998
0.999993
0.999997
0.999999
0.999999
0.999998
0.999999
1
1
1
1
1
1
0.999998
0.999997
1
1
0.999996
0.999996
0.999996
0.999996
1
1
1
0.993741
0.986192
0.975952
0.961598
0.941138
0.9116
0.868972
0.808592
0.729381
0.63283
0.518895
0.392106
0.265132
0.156247
0.0758296
0.0288291
0.00873534
0.00234019
0.000675197
0.000214576
1
1
0.999999
0.999997
0.999998
0.999999
0.999999
0.999996
0.999999
0.999998
0.999998
0.999998
0.999998
0.999998
0.999998
0.999999
0.999999
0.999999
0.999999
0.999999
0.999999
0.999999
0.999999
0.999999
0.999999
0.999999
0.999999
1
1
1
1
1
1
1
1
1
0.999999
0.998375
0.989285
0.977185
0.955971
0.916332
0.841295
0.714212
0.535951
0.333107
0.164085
0.0652502
0.0234769
0.008891
1
1
0.999999
0.999997
0.999997
0.999999
0.999997
0.999995
0.999996
0.999999
0.999998
0.999998
0.999997
0.999997
0.999997
0.999997
0.999997
0.999997
0.999997
0.999997
0.999997
0.999997
0.999997
0.999997
0.999997
0.999998
0.999998
0.999998
0.999998
0.999998
0.999999
0.999999
0.999999
1
1
1
1
1
1
1
1
1
0.997408
0.985678
0.959841
0.879083
0.683489
0.410949
0.194794
0.0860719
1
1
0.999999
0.999996
0.999997
0.999998
0.999996
0.999994
0.999996
0.999997
0.999997
0.999996
0.999995
0.999994
0.999995
0.999995
0.999995
0.999996
0.999996
0.999996
0.999996
0.999995
0.999995
0.999995
0.999996
0.999996
0.999996
0.999997
0.999997
0.999997
0.999997
0.999998
0.999998
0.999999
1
1
1
1
1
1
1
0.999999
1
1
0.999996
0.982513
0.91617
0.743407
0.455617
0.223209
1
1
0.999999
0.999996
0.999997
0.999997
0.999996
0.999995
0.999996
0.999997
0.999996
0.999995
0.999994
0.999993
0.999993
0.999993
0.999994
0.999994
0.999994
0.999994
0.999994
0.999994
0.999994
0.999994
0.999994
0.999995
0.999995
0.999995
0.999996
0.999996
0.999996
0.999997
0.999998
0.999998
0.999999
1
1
1
1
1
0.999999
0.999999
0.999998
0.999955
0.985288
0.926158
0.824179
0.67183
0.449025
0.2328
1
1
0.999999
0.999996
0.999995
0.999995
0.999998
0.999996
0.999995
0.999996
0.999995
0.999994
0.999992
0.999992
0.999991
0.999992
0.999993
0.999993
0.999993
0.999993
0.999994
0.999993
0.999993
0.999993
0.999993
0.999994
0.999994
0.999994
0.999995
0.999995
0.999996
0.999996
0.999998
0.999999
0.999999
1
1
1
1
1
0.999991
0.999913
0.984826
0.908566
0.777885
0.604496
0.41976
0.263588
0.165308
0.102319
1
1
0.999999
0.999995
0.999993
0.999995
0.999998
0.999996
0.999993
0.999996
0.999995
0.999994
0.999992
0.999991
0.999991
0.999991
0.999992
0.999993
0.999993
0.999993
0.999993
0.999993
0.999993
0.999993
0.999993
0.999994
0.999994
0.999994
0.999995
0.999995
0.999996
0.999997
0.999998
1
0.999999
1
1
0.999999
0.999956
0.999767
0.957147
0.845031
0.690628
0.515846
0.348892
0.212582
0.117376
0.0586307
0.0291899
0.0173255
1
1
0.999998
0.999994
0.999991
0.999994
1
0.999996
0.999993
0.999996
0.999995
0.999995
0.999993
0.999992
0.999992
0.999992
0.999993
0.999993
0.999993
0.999993
0.999993
0.999994
0.999994
0.999994
0.999993
0.999994
0.999994
0.999994
0.999995
0.999995
0.999999
1
1
1
1
0.999995
0.999855
0.994831
0.890277
0.720464
0.523619
0.33465
0.191022
0.107998
0.0590583
0.0306501
0.0145953
0.00584509
0.00260726
0.00137189
1
1
0.999998
0.999993
0.99999
0.999993
1
0.999998
0.999994
0.999996
0.999996
0.999996
0.999995
0.999994
0.999994
0.999994
0.999994
0.999994
0.999994
0.999994
0.999994
0.999994
0.999994
0.999994
0.999994
0.999995
0.999995
0.999995
0.999995
0.999997
1.00001
1
1
0.999981
0.999682
0.961599
0.778496
0.542833
0.337398
0.184801
0.0993045
0.0338871
0.012846
0.00681875
0.00253913
0.000874109
0.000399615
0.000197572
0.000106418
6.33149e-05
1
1
0.999997
0.999992
0.999989
0.999994
1
1
0.999996
0.999997
0.999998
0.999997
0.999997
0.999996
0.999996
0.999996
0.999995
0.999995
0.999995
0.999995
0.999995
0.999995
0.999995
0.999995
0.999995
0.999996
0.999996
0.999996
0.999996
0.999975
1
0.999931
0.99948
0.92148
0.635615
0.354966
0.175748
0.0666728
0.0250482
0.00398237
0.00175181
0.000780799
0.000194811
6.13514e-05
2.93516e-05
1.32662e-05
6.356e-06
3.28971e-06
1.68742e-06
8.9597e-07
1
1
0.999996
0.999993
0.999992
0.999996
1
1
0.999998
0.999998
0.999998
0.999998
0.999998
0.999998
0.999997
0.999997
0.999997
0.999996
0.999996
0.999996
0.999996
0.999996
0.999996
0.999996
0.999996
0.999997
0.999997
0.999997
0.999996
0.990334
0.999252
0.830121
0.513354
0.261617
0.0389047
0.0113141
0.00425211
0.000370066
0.00010121
2.59097e-05
7.46467e-06
3.83812e-06
2.14331e-06
1.13138e-06
6.84515e-07
7.16011e-07
4.49668e-07
3.24195e-07
2.41965e-07
1.8141e-07
2.67033e-06
2.29452e-06
1.74804e-06
1.75338e-06
3.69141e-06
6.79806e-06
7.06117e-06
3.27278e-06
3.77118e-06
4.95583e-06
4.8694e-06
4.25482e-06
2.63854e-06
2.36426e-06
2.16352e-06
2.238e-06
2.1837e-06
4.0754e-06
6.06899e-06
6.08668e-06
3.51903e-06
1.23598e-06
9.36755e-07
7.30151e-07
8.11198e-07
8.56383e-07
9.60053e-07
9.75194e-07
1.65356e-06
5.44375e-06
5.70194e-06
3.40936e-06
6.5084e-07
4.91103e-07
4.89924e-07
4.24728e-07
4.08427e-07
4.17059e-07
4.008e-07
3.68907e-07
3.32711e-07
2.98027e-07
2.66727e-07
2.39142e-07
2.15124e-07
1.94302e-07
1.76172e-07
1.60208e-07
1.45969e-07
1.33136e-07
2.25266e-06
2.42996e-06
2.46961e-06
3.56021e-06
4.70207e-06
3.37395e-06
1.80858e-06
1.54549e-06
2.28297e-06
7.38484e-06
9.49666e-06
9.47997e-06
7.54846e-06
3.72623e-06
1.39709e-06
7.18928e-07
8.66448e-07
8.68316e-07
3.76924e-06
6.50541e-06
6.53014e-06
3.53306e-06
6.81907e-07
5.69249e-07
5.90243e-07
5.36537e-07
6.99203e-07
1.04415e-06
8.12614e-07
8.03513e-07
3.96843e-06
2.34519e-06
5.78783e-07
4.34241e-07
3.75184e-07
3.34601e-07
2.98537e-07
2.67927e-07
2.42948e-07
2.21868e-07
2.0289e-07
1.85042e-07
1.68074e-07
1.5208e-07
1.3721e-07
1.2355e-07
1.11111e-07
9.98513e-08
8.97032e-08
8.05889e-08
1.33973e-06
1.33958e-06
1.33958e-06
1.33972e-06
3.80473e-06
4.59498e-06
4.51405e-06
1.66802e-06
1.44499e-06
1.44498e-06
6.03703e-06
9.49591e-06
9.48457e-06
9.1457e-06
3.96264e-06
7.10306e-07
5.54391e-07
7.42267e-07
3.34503e-06
6.5343e-06
4.45885e-06
1.10504e-06
5.05239e-07
4.99931e-07
5.0176e-07
4.90522e-07
8.86763e-07
1.06908e-06
1.00188e-06
5.50049e-07
3.63086e-07
3.16554e-07
3.18206e-07
3.05495e-07
2.79005e-07
2.46767e-07
2.15294e-07
1.87397e-07
1.63483e-07
1.43091e-07
1.25654e-07
1.10694e-07
9.78143e-08
8.66708e-08
7.69698e-08
6.84676e-08
6.09708e-08
5.43302e-08
4.84316e-08
4.31862e-08
1.44336e-06
1.34045e-06
1.34025e-06
1.37486e-06
1.34047e-06
1.34041e-06
1.71273e-06
1.44776e-06
1.44517e-06
1.59878e-06
7.01831e-06
9.48098e-06
7.9896e-06
2.47617e-06
4.95127e-07
4.87541e-07
5.10529e-07
2.83595e-06
4.06428e-06
3.85099e-06
1.28461e-06
4.17201e-07
6.39685e-07
3.43496e-07
3.83137e-07
2.54433e-07
8.96162e-07
4.64369e-07
3.85093e-07
3.28182e-07
2.74399e-07
2.24947e-07
1.84946e-07
1.5582e-07
1.35259e-07
1.19906e-07
1.07203e-07
9.57938e-08
8.51899e-08
7.53364e-08
6.63143e-08
5.81967e-08
5.10018e-08
4.46942e-08
3.92021e-08
3.44363e-08
3.03042e-08
2.67193e-08
2.36046e-08
2.08947e-08
6.74045e-06
1.77554e-06
1.34181e-06
1.33994e-06
1.33991e-06
1.3401e-06
3.28742e-06
3.66125e-06
2.64767e-06
9.1061e-07
9.2451e-07
5.93877e-06
3.89701e-06
1.26602e-06
4.98313e-07
4.68101e-07
8.80396e-07
1.83378e-06
7.66446e-07
4.4154e-07
6.20567e-07
4.12971e-07
3.07089e-07
3.01715e-07
2.8446e-07
2.49272e-07
1.68515e-07
1.58145e-07
1.46616e-07
1.33062e-07
1.1906e-07
1.05494e-07
9.28133e-08
8.12804e-08
7.10136e-08
6.19985e-08
5.41341e-08
4.72831e-08
4.13085e-08
3.60906e-08
3.15302e-08
2.75461e-08
2.40702e-08
2.10433e-08
1.84131e-08
1.61327e-08
1.41598e-08
1.24567e-08
1.099e-08
9.73026e-09
2.0969e-06
1.63045e-06
1.54276e-06
1.39431e-06
1.34049e-06
1.65842e-06
2.64863e-06
1.53922e-06
1.11631e-06
9.05298e-07
8.58023e-07
6.91439e-07
6.3948e-07
5.90338e-07
5.21513e-07
4.31045e-07
3.37631e-07
2.99231e-07
3.14711e-07
2.90849e-07
2.01663e-07
1.94415e-07
1.82181e-07
1.63612e-07
1.44283e-07
1.26551e-07
1.10859e-07
9.706e-08
8.49145e-08
7.42108e-08
6.47738e-08
5.64573e-08
4.91367e-08
4.27036e-08
3.70622e-08
3.2127e-08
2.78203e-08
2.40721e-08
2.08186e-08
1.80021e-08
1.55708e-08
1.3478e-08
1.16821e-08
1.0146e-08
8.83707e-09
7.72632e-09
6.7885e-09
6.00152e-09
5.34621e-09
4.80602e-09
1.74624e-06
1.60021e-06
1.56786e-06
1.35228e-06
1.33574e-06
1.26041e-06
1.20508e-06
1.15006e-06
9.50152e-07
8.61165e-07
7.17144e-07
6.5405e-07
5.62253e-07
4.88594e-07
4.24509e-07
3.6852e-07
3.21144e-07
2.80276e-07
2.44097e-07
2.1242e-07
1.8468e-07
1.60061e-07
1.38327e-07
1.19526e-07
1.03291e-07
8.92193e-08
7.69828e-08
6.63235e-08
5.7035e-08
4.89474e-08
4.19171e-08
3.58202e-08
3.05479e-08
2.60032e-08
2.20994e-08
1.87584e-08
1.591e-08
1.34913e-08
1.1446e-08
9.72394e-09
8.28097e-09
7.07823e-09
6.0818e-09
5.26229e-09
4.5944e-09
4.0565e-09
3.63026e-09
3.30026e-09
3.05363e-09
2.87974e-09
1.73038e-06
1.6674e-06
1.61115e-06
1.46893e-06
1.39083e-06
1.31395e-06
1.22131e-06
1.10885e-06
9.89667e-07
8.56197e-07
7.16843e-07
6.05369e-07
5.13544e-07
4.38781e-07
3.75899e-07
3.22766e-07
2.76529e-07
2.36173e-07
2.02193e-07
1.72988e-07
1.4801e-07
1.25931e-07
1.06686e-07
9.06887e-08
7.71755e-08
6.55966e-08
5.56188e-08
4.70133e-08
3.96045e-08
3.3247e-08
2.7815e-08
2.31965e-08
1.92909e-08
1.60068e-08
1.32613e-08
1.09801e-08
9.09634e-09
7.55109e-09
6.29252e-09
5.27567e-09
4.46195e-09
3.81853e-09
3.31781e-09
2.93682e-09
2.65665e-09
2.46194e-09
2.34038e-09
2.28226e-09
2.2801e-09
2.32821e-09
1.6833e-06
1.6753e-06
2.02205e-06
1.59958e-06
1.43857e-06
1.37709e-06
1.30981e-06
1.21192e-06
1.05417e-06
9.00967e-07
7.27916e-07
5.98859e-07
4.97229e-07
4.16779e-07
3.51367e-07
2.97109e-07
2.51436e-07
2.12727e-07
1.79727e-07
1.50994e-07
1.26706e-07
1.0574e-07
8.75984e-08
7.32056e-08
6.12358e-08
5.10538e-08
4.23712e-08
3.49892e-08
2.87447e-08
2.34957e-08
1.91148e-08
1.54867e-08
1.25067e-08
1.00799e-08
8.12137e-09
6.55562e-09
5.31661e-09
4.34742e-09
3.59971e-09
3.03307e-09
2.6142e-09
2.31609e-09
2.1172e-09
2.00062e-09
1.95338e-09
1.96577e-09
2.03075e-09
2.14352e-09
2.30104e-09
2.50165e-09
6.37307e-05
1.68028e-05
4.31453e-06
2.23425e-06
1.50722e-06
1.33584e-06
1.31765e-06
1.43893e-06
1.23422e-06
1.04444e-06
7.94236e-07
6.31439e-07
5.10593e-07
4.18596e-07
3.45916e-07
2.86942e-07
2.38431e-07
1.98468e-07
1.65431e-07
1.37686e-07
1.13772e-07
9.33122e-08
7.54757e-08
6.17697e-08
5.0644e-08
4.12866e-08
3.34411e-08
2.6904e-08
2.14985e-08
1.70675e-08
1.34707e-08
1.05819e-08
8.28857e-09
6.49044e-09
5.09961e-09
4.04008e-09
3.24736e-09
2.66783e-09
2.25778e-09
1.98234e-09
1.81428e-09
1.73285e-09
1.72264e-09
1.77268e-09
1.87546e-09
2.02626e-09
2.22255e-09
2.46357e-09
2.74985e-09
3.08272e-09
0.00339047
0.00119204
0.0003868
0.000121492
3.98728e-05
1.43241e-05
5.40255e-06
2.13606e-06
1.79609e-06
1.49842e-06
9.95974e-07
7.4831e-07
5.79891e-07
4.5964e-07
3.6906e-07
2.98171e-07
2.42007e-07
1.9725e-07
1.61128e-07
1.31421e-07
1.06227e-07
8.57713e-08
6.89187e-08
5.49624e-08
4.40111e-08
3.4995e-08
2.76132e-08
2.16145e-08
1.67836e-08
1.29336e-08
9.90207e-09
7.54749e-09
5.74673e-09
4.39357e-09
3.39752e-09
2.68291e-09
2.18785e-09
1.86291e-09
1.66969e-09
1.57922e-09
1.57031e-09
1.62808e-09
1.74277e-09
1.9085e-09
2.12228e-09
2.38334e-09
2.69258e-09
3.05244e-09
3.46603e-09
3.93665e-09
0.038979
0.0168828
0.00663686
0.00235298
0.000791449
0.000268052
9.35822e-05
3.24398e-05
9.8782e-06
2.67284e-06
1.36909e-06
9.45272e-07
6.91239e-07
5.25139e-07
4.07605e-07
3.19603e-07
2.53134e-07
2.01794e-07
1.61277e-07
1.28775e-07
1.01591e-07
8.03901e-08
6.35717e-08
4.9977e-08
3.90153e-08
3.02213e-08
2.32136e-08
1.76754e-08
1.33419e-08
9.99134e-09
7.43705e-09
5.52221e-09
4.11536e-09
3.10704e-09
2.40738e-09
1.94396e-09
1.65989e-09
1.51179e-09
1.4677e-09
1.50503e-09
1.60863e-09
1.76919e-09
1.98199e-09
2.24538e-09
2.55987e-09
2.92758e-09
3.35206e-09
3.83833e-09
4.39109e-09
5.0145e-09
0.105715
0.0497965
0.0215359
0.00822291
0.0028791
0.000981691
0.000346615
0.000123045
3.8192e-05
8.50676e-06
1.7338e-06
1.0915e-06
7.58629e-07
5.5784e-07
4.22248e-07
3.24542e-07
2.53473e-07
1.99069e-07
1.56443e-07
1.22669e-07
9.57999e-08
7.44244e-08
5.74599e-08
4.405e-08
3.35061e-08
2.52709e-08
1.88904e-08
1.39943e-08
1.028e-08
7.50054e-09
5.45488e-09
3.9802e-09
2.94526e-09
2.24525e-09
1.79761e-09
1.53874e-09
1.42088e-09
1.40951e-09
1.48076e-09
1.61918e-09
1.81571e-09
2.06639e-09
2.37097e-09
2.73097e-09
3.1493e-09
3.62999e-09
4.1788e-09
4.80298e-09
5.50725e-09
6.2958e-09
0.11196
0.0537879
0.0239117
0.00939019
0.00336631
0.00116632
0.000425836
0.000153768
4.96665e-05
1.50306e-05
1.77046e-06
1.02358e-06
6.95964e-07
5.07665e-07
3.84895e-07
2.9762e-07
2.32006e-07
1.81038e-07
1.408e-07
1.08865e-07
8.35586e-08
6.36137e-08
4.8011e-08
3.5908e-08
2.66051e-08
1.95249e-08
1.41949e-08
1.02319e-08
7.32679e-09
5.23301e-09
3.75544e-09
2.74152e-09
2.07341e-09
1.66125e-09
1.43788e-09
1.35425e-09
1.37563e-09
1.47858e-09
1.64837e-09
1.87681e-09
2.16049e-09
2.50042e-09
2.89968e-09
3.36144e-09
3.88975e-09
4.48981e-09
5.17003e-09
5.93865e-09
6.79847e-09
7.75405e-09
0.057382
0.0301377
0.0151652
0.00697299
0.00294034
0.00115582
0.000432605
0.000152513
4.85935e-05
1.25156e-05
1.33935e-06
7.90578e-07
5.30609e-07
3.87661e-07
2.96768e-07
2.32003e-07
1.82349e-07
1.42793e-07
1.10839e-07
8.50564e-08
6.44548e-08
4.82209e-08
3.56245e-08
2.60005e-08
1.87575e-08
1.33872e-08
9.46669e-09
6.65267e-09
4.67177e-09
3.3101e-09
2.40338e-09
1.82783e-09
1.49209e-09
1.33025e-09
1.29631e-09
1.35892e-09
1.49759e-09
1.69998e-09
1.95973e-09
2.27473e-09
2.64599e-09
3.07889e-09
3.57745e-09
4.14454e-09
4.78459e-09
5.50398e-09
6.31544e-09
7.22402e-09
8.23017e-09
9.34311e-09
0.0111191
0.00601157
0.00317978
0.00167741
0.000772542
0.000310633
0.000111093
3.47365e-05
8.95555e-06
2.13314e-06
3.65967e-07
3.17648e-07
2.61367e-07
2.11924e-07
1.71563e-07
1.38618e-07
1.11187e-07
8.80532e-08
6.85839e-08
5.24345e-08
3.93301e-08
2.89615e-08
2.09642e-08
1.49437e-08
1.05126e-08
7.32159e-09
5.07451e-09
3.53162e-09
2.505e-09
1.85138e-09
1.4644e-09
1.2674e-09
1.20686e-09
1.24709e-09
1.36585e-09
1.54913e-09
1.78908e-09
2.08236e-09
2.42877e-09
2.83007e-09
3.29043e-09
3.81871e-09
4.4156e-09
5.08298e-09
5.82603e-09
6.65466e-09
7.58613e-09
8.61451e-09
9.74357e-09
1.09988e-08
0.00081228
0.000450685
0.000245251
0.000125665
5.88369e-05
2.40726e-05
8.66358e-06
2.71234e-06
4.58018e-07
3.29243e-07
2.7823e-07
2.16987e-07
1.61677e-07
1.1924e-07
8.90464e-08
6.76798e-08
5.19639e-08
3.98453e-08
3.02209e-08
2.25374e-08
1.64852e-08
1.18301e-08
8.3486e-09
5.81872e-09
4.0327e-09
2.81003e-09
2.00363e-09
1.4993e-09
1.21152e-09
1.07833e-09
1.05654e-09
1.11731e-09
1.24261e-09
1.42309e-09
1.65461e-09
1.9341e-09
2.26119e-09
2.63739e-09
3.06518e-09
3.54753e-09
4.09243e-09
4.70819e-09
5.38784e-09
6.13562e-09
6.95892e-09
7.87906e-09
8.9039e-09
1.00181e-08
1.124e-08
1.2581e-08
3.53358e-05
1.85656e-05
8.95216e-06
4.01979e-06
1.49294e-06
5.86865e-07
3.00886e-07
1.89881e-07
1.61988e-07
1.27379e-07
9.60362e-08
7.16106e-08
5.35121e-08
4.0067e-08
2.9915e-08
2.21852e-08
1.63064e-08
1.1859e-08
8.51977e-09
6.04209e-09
4.23756e-09
2.95664e-09
2.07628e-09
1.49533e-09
1.13328e-09
9.28953e-10
8.38188e-10
8.30395e-10
8.85298e-10
9.90238e-10
1.13802e-09
1.32523e-09
1.55145e-09
1.8204e-09
2.1321e-09
2.48553e-09
2.88261e-09
3.32569e-09
3.81717e-09
4.35963e-09
4.97144e-09
5.64286e-09
6.36884e-09
7.16122e-09
8.02906e-09
8.98146e-09
1.00288e-08
1.11826e-08
1.24555e-08
1.38598e-08
4.99089e-07
2.87507e-07
1.67315e-07
9.68771e-08
6.36883e-08
5.16273e-08
4.1707e-08
3.2308e-08
2.45918e-08
1.86218e-08
1.40121e-08
1.04416e-08
7.70058e-09
5.62494e-09
4.07142e-09
2.9222e-09
2.0863e-09
1.49322e-09
1.08611e-09
8.18638e-10
6.5427e-10
5.65673e-10
5.33653e-10
5.45483e-10
5.92404e-10
6.69162e-10
7.73482e-10
9.04888e-10
1.06412e-09
1.25261e-09
1.47203e-09
1.72402e-09
2.01317e-09
2.34414e-09
2.70892e-09
3.10878e-09
3.54629e-09
4.02318e-09
4.54145e-09
5.10385e-09
5.71417e-09
6.37741e-09
7.09992e-09
7.88944e-09
8.75512e-09
9.70739e-09
1.07578e-08
1.19188e-08
1.32033e-08
1.46239e-08
1.31403e-07
8.99607e-08
5.75541e-08
3.48372e-08
2.08392e-08
1.27178e-08
7.9133e-09
4.99727e-09
3.19726e-09
2.07354e-09
1.36743e-09
9.23328e-10
6.45663e-10
4.74889e-10
3.73653e-10
3.18496e-10
2.94678e-10
2.93137e-10
3.0858e-10
3.38262e-10
3.81213e-10
4.37718e-10
5.10254e-10
6.00266e-10
7.08941e-10
8.38632e-10
9.91754e-10
1.17016e-09
1.37527e-09
1.60797e-09
1.86864e-09
2.15723e-09
2.47346e-09
2.81704e-09
3.18791e-09
3.58653e-09
4.01408e-09
4.47269e-09
4.96558e-09
5.49719e-09
6.07311e-09
6.70017e-09
7.38622e-09
8.14008e-09
8.97126e-09
9.88975e-09
1.09057e-08
1.20292e-08
1.32699e-08
1.46365e-08
1.26679e-07
1.20519e-07
1.14636e-07
1.09017e-07
1.0365e-07
9.85266e-08
9.36364e-08
8.89692e-08
8.45144e-08
8.02606e-08
7.61966e-08
7.23117e-08
6.85957e-08
6.504e-08
6.16371e-08
5.83811e-08
5.52671e-08
5.22915e-08
4.94516e-08
4.67449e-08
4.41694e-08
4.17229e-08
3.9403e-08
3.72071e-08
3.51321e-08
3.31744e-08
3.13303e-08
2.95957e-08
2.7966e-08
2.6437e-08
2.50039e-08
2.36623e-08
2.24077e-08
2.12356e-08
2.01417e-08
1.91219e-08
1.81722e-08
1.72887e-08
1.64676e-08
1.57054e-08
1.49986e-08
1.43441e-08
1.37388e-08
1.31796e-08
1.2664e-08
1.21893e-08
1.17532e-08
1.13536e-08
1.09884e-08
1.06559e-08
1.03545e-08
1.0083e-08
9.83993e-09
9.6245e-09
9.43583e-09
9.27327e-09
9.13636e-09
9.02475e-09
8.93827e-09
8.87688e-09
8.84069e-09
8.82992e-09
8.84492e-09
8.88615e-09
8.95418e-09
9.04969e-09
9.17342e-09
9.32623e-09
9.50904e-09
9.72286e-09
9.96882e-09
1.02481e-08
1.05621e-08
1.09122e-08
1.12999e-08
1.17269e-08
1.2195e-08
1.27056e-08
1.32596e-08
1.38589e-08
1.4506e-08
1.52034e-08
1.59533e-08
1.67578e-08
1.76178e-08
1.85321e-08
1.95004e-08
2.05267e-08
2.1616e-08
2.27665e-08
2.39859e-08
2.53228e-08
2.67715e-08
2.82631e-08
2.9773e-08
3.13485e-08
3.32043e-08
3.52797e-08
3.73962e-08
3.94928e-08
4.15393e-08
4.35268e-08
4.5533e-08
4.76621e-08
5.05575e-08
5.72081e-08
6.42885e-08
6.76971e-08
6.8972e-08
7.03334e-08
7.1813e-08
7.31145e-08
7.41502e-08
7.52475e-08
7.79497e-08
8.49355e-08
9.39423e-08
1.00155e-07
1.01634e-07
1.011e-07
1.00555e-07
1.00745e-07
1.02619e-07
1.0373e-07
1.04694e-07
1.06581e-07
1.12858e-07
1.30155e-07
1.6442e-07
1.48001e-07
1.36113e-07
1.30497e-07
1.28271e-07
1.28336e-07
1.31363e-07
1.19479e-07
5.84718e-07
1.19441e-06
4.77767e-07
1.2981e-07
1.23873e-07
1.5693e-07
1.45185e-07
3.96849e-07
5.66426e-07
2.27309e-07
1.39557e-07
1.49103e-07
1.48233e-07
1.04766e-06
1.51556e-06
6.04906e-07
1.38362e-07
1.34038e-07
2.45448e-07
2.30354e-06
1.74136e-06
4.49944e-07
1.65394e-07
2.04593e-07
1.39988e-06
1.62855e-06
1.11323e-06
1.84302e-07
4.03172e-07
5.94256e-06
5.40196e-06
1.78078e-06
2.20748e-07
1.64808e-07
1.62579e-07
1.59291e-07
4.64481e-07
5.33038e-06
3.41871e-06
8.60666e-07
1.71308e-07
1.66345e-07
1.65698e-07
1.64195e-06
4.66457e-06
1.96258e-06
2.96781e-07
1.73113e-07
3.89382e-07
2.67729e-06
1.45762e-06
2.783e-07
1.81874e-07
1.80315e-07
1.9354e-07
1.94754e-07
4.03881e-07
3.5863e-07
2.17633e-07
2.32626e-07
2.29136e-07
2.18904e-07
6.09291e-07
4.5928e-07
2.80282e-07
4.64514e-07
3.87498e-06
5.80249e-06
3.3036e-06
5.74547e-07
2.15556e-07
2.16482e-07
2.65511e-07
3.4517e-06
5.92086e-06
3.00946e-06
5.03554e-07
2.50339e-07
2.53307e-07
2.54588e-07
2.57724e-07
2.63551e-07
2.72916e-07
2.8905e-07
3.14694e-07
1.014e-06
1.32573e-06
1.16575e-06
5.91169e-07
5.87803e-07
6.85826e-07
7.56583e-06
1.85864e-05
1.85798e-05
8.86977e-06
6.05845e-06
6.05744e-06
1.72674e-05
2.02188e-05
1.93673e-05
6.87855e-06
7.70839e-07
4.71743e-07
4.70221e-07
4.73601e-07
4.86591e-07
5.24113e-07
1.02406e-06
3.42441e-06
3.49614e-06
2.45819e-06
6.73904e-07
1.37246e-06
3.11337e-06
2.49817e-06
8.91242e-07
8.59623e-07
1.01931e-06
1.18186e-06
1.24502e-06
3.60216e-06
3.72905e-06
3.33411e-06
1.47933e-06
1.58485e-06
1.14421e-06
5.55114e-07
3.88639e-07
3.46288e-07
2.53272e-07
2.0223e-07
1.71151e-07
1.47523e-07
1.27193e-07
1.08398e-07
9.06647e-08
7.41124e-08
5.90562e-08
4.57987e-08
3.45301e-08
2.52942e-08
1.79962e-08
1.24352e-08
8.34684e-09
5.44483e-09
3.45444e-09
2.13419e-09
1.28644e-09
7.58898e-10
4.40348e-10
2.53386e-10
1.4648e-10
8.67041e-11
5.38211e-11
3.58358e-11
2.58814e-11
2.01552e-11
1.6618e-11
1.42102e-11
1.23974e-11
1.09176e-11
9.64359e-12
8.51217e-12
7.48715e-12
7.60235e-08
7.1703e-08
6.76171e-08
6.3756e-08
6.01095e-08
5.66671e-08
5.34185e-08
5.03534e-08
4.74614e-08
4.47327e-08
4.21577e-08
3.97274e-08
3.74334e-08
3.5268e-08
3.32243e-08
3.12959e-08
2.94772e-08
2.77631e-08
2.6149e-08
2.46306e-08
2.3204e-08
2.18653e-08
2.06109e-08
1.94371e-08
1.83403e-08
1.73168e-08
1.63632e-08
1.54759e-08
1.46513e-08
1.38861e-08
1.3177e-08
1.2521e-08
1.19151e-08
1.13565e-08
1.08425e-08
1.03709e-08
9.93921e-09
9.54548e-09
9.18773e-09
8.86419e-09
8.57321e-09
8.31329e-09
8.08306e-09
7.8813e-09
7.70689e-09
7.55887e-09
7.43637e-09
7.33869e-09
7.26523e-09
7.21555e-09
7.18932e-09
7.18637e-09
7.20667e-09
7.25035e-09
7.31771e-09
7.40918e-09
7.52542e-09
7.66726e-09
7.8357e-09
8.03198e-09
8.25752e-09
8.5139e-09
8.8029e-09
9.12639e-09
9.48633e-09
9.88475e-09
1.03237e-08
1.08053e-08
1.13317e-08
1.19052e-08
1.25282e-08
1.32035e-08
1.3934e-08
1.47216e-08
1.55702e-08
1.64846e-08
1.74674e-08
1.85191e-08
1.96367e-08
2.08239e-08
2.20873e-08
2.34308e-08
2.48527e-08
2.63646e-08
2.79638e-08
2.96352e-08
3.13743e-08
3.31983e-08
3.51278e-08
3.71207e-08
3.92074e-08
4.18875e-08
4.49528e-08
4.76667e-08
4.99033e-08
5.184e-08
5.56966e-08
6.03904e-08
6.38025e-08
6.66391e-08
6.934e-08
7.1807e-08
7.42104e-08
7.64939e-08
7.95974e-08
1.0991e-07
1.50486e-07
1.44061e-07
1.19697e-07
1.12842e-07
1.12294e-07
1.12157e-07
1.1163e-07
1.10399e-07
1.1171e-07
1.27425e-07
1.56927e-07
1.77947e-07
1.61665e-07
1.4501e-07
1.37616e-07
1.3487e-07
1.48241e-07
1.53275e-07
1.50928e-07
1.38053e-07
1.33938e-07
1.32886e-07
3.48116e-07
9.98186e-07
4.98122e-07
1.38075e-07
1.38431e-07
1.4345e-07
1.34453e-07
5.58914e-07
4.07558e-06
2.36149e-06
5.87874e-07
1.35386e-07
1.4059e-07
1.42594e-07
6.25329e-07
4.0144e-06
2.25058e-06
4.68871e-07
1.53126e-07
1.49815e-07
4.16652e-07
8.06975e-06
6.09879e-06
1.9035e-06
2.03709e-07
1.37036e-07
1.37327e-06
1.1076e-05
6.2704e-06
1.38343e-06
1.76661e-07
1.71459e-07
1.42656e-06
9.60206e-07
2.44821e-07
2.82781e-07
2.38807e-06
2.19639e-05
1.27092e-05
2.99277e-06
2.4748e-07
1.64469e-07
1.62939e-07
1.60147e-07
2.37287e-06
1.28424e-05
6.31368e-06
1.1366e-06
1.71709e-07
1.66633e-07
4.01791e-07
7.53545e-06
5.32535e-06
1.73146e-06
2.29658e-07
1.749e-07
1.23506e-06
4.04676e-06
2.09151e-06
3.51343e-07
1.83223e-07
1.80947e-07
1.79953e-07
2.15002e-07
1.58298e-06
1.02167e-06
2.77635e-07
2.30199e-07
2.29216e-07
2.21671e-07
4.54928e-07
2.78047e-07
2.78503e-07
1.48741e-06
5.59525e-06
5.8071e-06
3.335e-06
5.99243e-07
2.20798e-07
2.18471e-07
1.68468e-06
5.95788e-06
5.97924e-06
2.64622e-06
4.56153e-07
2.52697e-07
2.72436e-07
2.76131e-07
2.8261e-07
2.92034e-07
3.04563e-07
3.41101e-07
7.89244e-07
1.24477e-06
1.24646e-06
5.95759e-07
5.88252e-07
6.15124e-07
4.13536e-06
1.23134e-05
1.58623e-05
6.40658e-06
5.78815e-06
8.96989e-06
1.85809e-05
1.85724e-05
1.03243e-05
1.80639e-06
5.14702e-07
5.116e-07
5.36011e-07
6.4394e-07
2.15128e-06
2.74233e-06
2.57356e-06
8.8266e-07
9.97533e-07
1.03892e-06
8.24806e-07
8.20003e-07
1.37659e-06
1.03167e-06
8.19879e-07
7.78586e-07
1.09977e-06
2.40007e-06
2.87927e-06
2.78271e-06
2.34848e-06
1.93946e-06
1.07927e-06
6.89664e-07
5.81356e-07
3.87845e-07
2.73018e-07
2.29784e-07
1.92231e-07
1.61078e-07
1.37822e-07
1.17824e-07
9.95688e-08
8.26534e-08
6.71285e-08
5.32032e-08
4.10795e-08
3.0873e-08
2.25705e-08
1.604e-08
1.10791e-08
7.43883e-09
4.85758e-09
3.08808e-09
1.91461e-09
1.16123e-09
6.9255e-10
4.09689e-10
2.43784e-10
1.48953e-10
9.58705e-11
6.65143e-11
5.02161e-11
4.08873e-11
3.51759e-11
3.13037e-11
2.83636e-11
2.59131e-11
2.37459e-11
2.17683e-11
1.99357e-11
1.8219e-11
1.65903e-11
1.50161e-11
4.05688e-08
3.81013e-08
3.57759e-08
3.35855e-08
3.15236e-08
2.9584e-08
2.77609e-08
2.60486e-08
2.44417e-08
2.29351e-08
2.15236e-08
2.02025e-08
1.89671e-08
1.7813e-08
1.67357e-08
1.57314e-08
1.47961e-08
1.39261e-08
1.3118e-08
1.23686e-08
1.16746e-08
1.10331e-08
1.04413e-08
9.89658e-09
9.39633e-09
8.93818e-09
8.51985e-09
8.1392e-09
7.79422e-09
7.48305e-09
7.20397e-09
6.95539e-09
6.73585e-09
6.54406e-09
6.37882e-09
6.23909e-09
6.12396e-09
6.03262e-09
5.96438e-09
5.91869e-09
5.89508e-09
5.89322e-09
5.91287e-09
5.95391e-09
6.01633e-09
6.10026e-09
6.20594e-09
6.33375e-09
6.48423e-09
6.65812e-09
6.85631e-09
7.07994e-09
7.33037e-09
7.60918e-09
7.91823e-09
8.25971e-09
8.6361e-09
9.05024e-09
9.50529e-09
1.00047e-08
1.05522e-08
1.11518e-08
1.18072e-08
1.25224e-08
1.3301e-08
1.41464e-08
1.50619e-08
1.60508e-08
1.71167e-08
1.82638e-08
1.94944e-08
2.08182e-08
2.22382e-08
2.37505e-08
2.53718e-08
2.71201e-08
2.89913e-08
3.09728e-08
3.30306e-08
3.51884e-08
3.74641e-08
3.98459e-08
4.22625e-08
4.49005e-08
4.76953e-08
5.04606e-08
5.32323e-08
5.60828e-08
5.94035e-08
6.24274e-08
6.54888e-08
7.33842e-08
8.34062e-08
8.76485e-08
8.73803e-08
8.4652e-08
9.61912e-08
1.17208e-07
1.16092e-07
1.10911e-07
1.11738e-07
1.13335e-07
1.15052e-07
1.16104e-07
1.13591e-07
1.79918e-07
9.26672e-07
5.13944e-07