/*--------------------------------*- C++ -*----------------------------------*\
| =========                 |                                                 |
| \\      /  F ield         | OpenFOAM: The Open Source CFD Toolbox           |
|  \\    /   O peration     | Version:  2.4.0                                 |
|   \\  /    A nd           | Web:      www.OpenFOAM.org                      |
|    \\/     M anipulation  |                                                 |
\*---------------------------------------------------------------------------*/
FoamFile
{
    version     2.0;
    format      ascii;
    class       volScalarField;
    location    "3";
    object      H;
}
// * * * * * * * * * * * * * * * * * * * * * * * * * * * * * * * * * * * * * //

dimensions      [0 2 -2 0 0 0 0];

internalField   nonuniform List<scalar> 
8000
(
-11928.3
-11320.3
-10699.5
-10060.1
-9398.05
-8710.99
-7998.61
-7262.54
-6506.35
-5735.43
-4956.56
-4177.81
-3407.81
-2653.16
-1921.5
-1224.84
-459.75
-4.45165
-4.43862
-3.23448
-2.1094
-1.60946
-1.41131
-1.29407
-1.23915
-1.21999
-1.21974
-1.22885
-1.24186
-1.25643
-1.27176
-1.28762
-1.30406
-1.32096
-1.33816
-1.35534
-1.37234
-1.3889
-1.40485
-1.41997
-1.43415
-1.44718
-1.45874
-1.46877
-1.47717
-1.48404
-1.48919
-1.49271
-1.49471
-1.4953
-11876.1
-11160.9
-10425.8
-9662.1
-8864.84
-8032.19
-7165.86
-6271.03
-5356.11
-4432.36
-3512.89
-2615.63
-1769.44
-929.522
-125.35
-1.334
-0.118773
-0.384896
-0.678707
-0.773927
-0.944261
-1.04617
-1.12599
-1.18997
-1.23975
-1.27869
-1.30913
-1.3331
-1.35223
-1.36801
-1.38148
-1.3934
-1.40426
-1.41431
-1.42364
-1.43221
-1.43992
-1.4467
-1.45237
-1.45688
-1.4603
-1.46273
-1.46428
-1.46498
-1.46504
-1.46433
-1.46266
-1.4604
-1.45748
-1.4539
-11802.1
-10936.6
-10045.2
-9116.39
-8143.47
-7124.77
-6063.77
-4970
-3858.7
-2748.31
-1644.09
-498.479
-34.1847
-0.571635
-0.134521
-0.38662
-0.451217
-0.560616
-0.667769
-0.766813
-0.860132
-0.943195
-1.01569
-1.07831
-1.13157
-1.17629
-1.21358
-1.24457
-1.27022
-1.29142
-1.30892
-1.32313
-1.33442
-1.34294
-1.34927
-1.35398
-1.35756
-1.36033
-1.36261
-1.36459
-1.36634
-1.36783
-1.36924
-1.37056
-1.37176
-1.37279
-1.37335
-1.37349
-1.37295
-1.37179
-11703.2
-10637
-9536.76
-8387.44
-7180.14
-5912.84
-4591.71
-3236.91
-1894.43
-675.925
-7.25912
-0.665334
-0.425697
-0.429978
-0.411831
-0.440688
-0.489929
-0.549627
-0.613033
-0.674238
-0.730687
-0.782048
-0.828574
-0.870886
-0.909045
-0.943596
-0.974949
-1.00343
-1.0294
-1.05311
-1.07486
-1.09485
-1.11336
-1.13084
-1.14719
-1.16259
-1.17706
-1.19082
-1.20385
-1.21615
-1.22773
-1.23856
-1.24866
-1.25792
-1.26613
-1.27314
-1.27919
-1.28401
-1.28728
-1.28883
-11571.4
-10241.4
-8876.96
-7464.48
-5999.67
-4489.84
-2962.78
-1477.18
-15.6766
-1.70767
-2.08998
-2.01929
-1.89876
-1.87428
-1.78056
-1.68342
-1.59567
-1.53348
-1.48646
-1.44853
-1.41877
-1.39591
-1.37857
-1.36537
-1.35555
-1.34842
-1.34339
-1.33992
-1.33747
-1.33559
-1.33407
-1.33283
-1.33169
-1.33043
-1.32908
-1.32766
-1.32608
-1.32435
-1.3218
-1.31845
-1.31436
-1.30941
-1.3035
-1.29655
-1.28846
-1.2791
-1.26832
-1.25601
-1.24209
-1.22625
-11446.6
-9877.27
-8301.98
-6719.22
-5129.55
-3527.49
-1877.09
-167.2
-7.37262
-8.70877
-7.36929
-5.72961
-4.46581
-3.57652
-2.86742
-2.37952
-2.0342
-1.78922
-1.61769
-1.49456
-1.40625
-1.34319
-1.29925
-1.26957
-1.25018
-1.23793
-1.23029
-1.22537
-1.22172
-1.21835
-1.2146
-1.20991
-1.20379
-1.19613
-1.18765
-1.17871
-1.16893
-1.15659
-1.14085
-1.12273
-1.1025
-1.08038
-1.05677
-1.0319
-1.00588
-0.97872
-0.950447
-0.921095
-0.890672
-0.859189
-11429.8
-9844.9
-8297.39
-6800.47
-5365.88
-4007.91
-2731.45
-1481.97
-18.8437
-2.34915
-1.29684
-1.74656
-1.38902
-1.12938
-0.909054
-0.730309
-0.59975
-0.515855
-0.473422
-0.46163
-0.453978
-0.4367
-0.422362
-0.4147
-0.414121
-0.420012
-0.431362
-0.446909
-0.465148
-0.48443
-0.503199
-0.520439
-0.53559
-0.548687
-0.559695
-0.568596
-0.57522
-0.579203
-0.580171
-0.577982
-0.57283
-0.565103
-0.555169
-0.543386
-0.530009
-0.515113
-0.498843
-0.481342
-0.462751
-0.443236
-11458.4
-9930.92
-8447.34
-7032.02
-5705.79
-4486.74
-3390.18
-2427.72
-1607.11
-938.902
-423.31
-5.34017
-1.1074
-0.738846
-0.487456
-0.299495
-0.16236
-0.061398
-0.0026535
-0.00468957
-0.246292
-0.248133
-0.226119
-0.20449
-0.185663
-0.169799
-0.157201
-0.148764
-0.14609
-0.150936
-0.166325
-0.189031
-0.195349
-0.193447
-0.190543
-0.18969
-0.191378
-0.194711
-0.198364
-0.20137
-0.204224
-0.207311
-0.21007
-0.211622
-0.211463
-0.209524
-0.205958
-0.200994
-0.194884
-0.18785
-11496.7
-10044.2
-8632.96
-7290.11
-6040.04
-4902.86
-3893.13
-3019.25
-2283.06
-1680.3
-1201.84
-834.347
-561.648
-365.28
-227.779
-133.388
-68.9638
-24.6013
-0.764194
-0.478212
-0.419933
-0.371841
-0.328841
-0.288346
-0.248451
-0.208001
-0.165491
-0.120545
-0.0716267
-0.0117428
-0.00338936
-0.144882
-0.163519
-0.144409
-0.119104
-0.0962374
-0.0795311
-0.072069
-0.0793174
-0.081643
-0.0789652
-0.0750229
-0.0717489
-0.0692845
-0.0679413
-0.0681034
-0.0687082
-0.0688815
-0.0684228
-0.0673751
-11545.5
-10189.8
-8872.67
-7618.04
-6447.08
-5376.9
-4419.62
-3581.85
-2864.72
-2264.34
-1772.67
-1378.61
-1069.21
-830.771
-649.969
-514.566
-413.916
-339.163
-283.207
-240.486
-206.77
-178.986
-154.974
-133.087
-112.216
-91.7245
-70.9666
-49.9784
-28.6037
-4.22803
-0.450304
-0.359396
-0.300599
-0.241243
-0.181855
-0.123155
-0.065613
-0.00287705
-0.0660133
-0.0755058
-0.0623378
-0.044563
-0.0307687
-0.0276581
-0.0264671
-0.025585
-0.0243854
-0.0236327
-0.0236907
-0.0239671
-11597.3
-10343.5
-9122.91
-7956.04
-6860.69
-5851.28
-4938.23
-4127.6
-3421.17
-2816.75
-2308.84
-1889.39
-1548.69
-1276.18
-1061.2
-893.565
-763.952
-664.17
-587.233
-527.35
-479.839
-441
-407.973
-378.6
-351.294
-324.93
-298.753
-272.303
-245.345
-217.827
-189.837
-161.521
-133.126
-104.951
-77.3312
-50.7873
-25.9524
-0.526502
-0.225642
-0.159205
-0.101361
-0.0503167
-0.00147078
-0.0168458
-0.0178946
-0.0173028
-0.0156833
-0.014318
-0.0133955
-0.0128406
-11643.5
-10480.3
-9346.06
-8258.01
-7231.41
-6278.67
-5408.9
-4627.76
-3937.47
-3337.07
-2822.88
-2389.05
-2028.2
-1732.02
-1491.83
-1299.05
-1145.55
-1023.88
-927.424
-850.442
-788.086
-736.339
-691.942
-652.314
-615.463
-579.902
-544.573
-508.782
-472.134
-434.487
-395.899
-356.593
-316.911
-277.286
-238.204
-200.176
-163.709
-129.277
-97.3061
-68.1703
-42.3715
-20.1596
-0.292365
-0.0604887
-0.0221943
-0.0236643
-0.0183885
-0.0143499
-0.0123193
-0.0116093
-11686.4
-10608
-9554.99
-8542.38
-7583.17
-6687.89
-5864.41
-5117.78
-4450.31
-3861.8
-3349.82
-2910.14
-2537.17
-2224.4
-1964.84
-1751.33
-1576.89
-1434.9
-1319.27
-1224.52
-1145.84
-1079.1
-1020.8
-968.072
-918.591
-870.556
-822.62
-773.847
-723.661
-671.799
-618.273
-563.323
-507.38
-451.026
-394.953
-339.926
-286.744
-236.2
-189.047
-145.957
-107.51
-74.1682
-46.3685
-24.4271
-8.76259
-0.0813831
-0.0412951
-0.0229745
-0.015781
-0.0133133
-11726.7
-10727.8
-9751.18
-8809.93
-7915.21
-7076.13
-6299.52
-5589.91
-4949.6
-4378.84
-3876.03
-3438.08
-3060.68
-2738.67
-2466.33
-2237.64
-2046.58
-1887.27
-1754.15
-1642.06
-1546.34
-1462.88
-1388.08
-1318.89
-1252.79
-1187.78
-1122.31
-1055.28
-986.011
-914.194
-839.863
-763.357
-685.274
-606.435
-527.836
-450.593
-375.901
-304.963
-238.943
-178.878
-125.783
-80.0952
-43.0458
-12.7356
-0.118163
-0.0291184
-0.0108332
-0.0107722
-0.0118603
-0.0126374
-11763.7
-10837.9
-9932.03
-9057.48
-8224.01
-7439.53
-6710.02
-6039.49
-5430.12
-4882.37
-4395.12
-3965.98
-3591.5
-3267.38
-2988.81
-2750.59
-2547.42
-2374.02
-2225.29
-2096.39
-1982.88
-1880.74
-1786.4
-1696.78
-1609.32
-1521.91
-1432.97
-1341.37
-1246.45
-1147.98
-1046.13
-941.457
-834.844
-727.461
-620.71
-516.188
-415.606
-320.731
-233.37
-154.55
-88.0947
-28.2097
-0.262881
-0.00333426
-0.00164418
-0.00268243
-0.00466478
-0.00684406
-0.00912029
-0.0114645
-11797.6
-10939.1
-10098.5
-9285.99
-8510.24
-7778.23
-7095.22
-6464.77
-5888.85
-5367.89
-4901
-4486.12
-4120.24
-3799.59
-3519.87
-3276.41
-3064.36
-2878.85
-2715.1
-2568.55
-2434.98
-2310.51
-2191.7
-2075.59
-1959.65
-1841.92
-1720.91
-1595.7
-1465.84
-1331.41
-1192.96
-1051.48
-908.358
-765.282
-624.216
-487.508
-357.338
-236.706
-130.02
-26.3711
-0.273265
-0.00476901
-0.00214339
-0.00230569
-0.0037085
-0.00544189
-0.00763312
-0.0103741
-0.013475
-0.0167734
-11828.8
-11032.2
-10252.1
-9497.7
-8776.76
-8095.49
-7458.48
-6868.81
-6328.06
-5836.47
-5393.05
-4995.79
-4641.79
-4327.48
-4048.79
-3801.31
-3580.45
-3381.59
-3200.22
-3032
-2872.93
-2719.33
-2567.99
-2416.18
-2261.67
-2102.8
-1938.48
-1768.19
-1592.01
-1410.61
-1225.25
-1037.69
-849.936
-664.497
-483.243
-311.903
-144.783
-1.48047
-0.0237911
-0.00221794
-0.00586134
-0.00603509
-0.00717525
-0.0097611
-0.0134922
-0.0178759
-0.022274
-0.0261298
-0.0299888
-0.0339599
-11858.3
-11120.3
-10397.7
-9698.99
-9031.12
-8399.52
-7808.06
-7259.24
-6754.06
-6292.35
-5872.83
-5493.27
-5150.68
-4841.45
-4561.58
-4306.75
-4072.53
-3854.51
-3648.38
-3450.07
-3255.86
-3062.43
-2866.94
-2667.11
-2461.23
-2248.23
-2027.66
-1799.75
-1565.4
-1326.36
-1085.13
-845.099
-607.916
-381.644
-148.334
-1.43022
-0.0248186
-0.000522922
-0.00785431
-0.0126322
-0.0176356
-0.02374
-0.029667
-0.035698
-0.0409877
-0.0463538
-0.0518463
-0.0569748
-0.0615617
-0.065442
-11886.6
-11205
-10537.7
-9892.49
-9275.46
-8691.26
-8142.97
-7632.34
-7159.75
-6724.48
-6324.82
-5958.22
-5621.49
-5310.9
-5022.4
-4751.73
-4494.58
-4246.71
-4004.09
-3762.98
-3520.1
-3272.65
-3018.43
-2755.9
-2484.21
-2203.26
-1913.61
-1616.61
-1314.51
-1011.31
-709.66
-421.527
-122.299
-1.19705
-0.0257033
-0.0240774
-0.0230028
-0.030966
-0.0413791
-0.0489922
-0.0585654
-0.0681007
-0.0768475
-0.0846863
-0.0912103
-0.0964011
-0.10016
-0.10251
-0.103567
-0.10347
-11913.2
-11284.3
-10668.4
-10072.3
-9501.25
-8958.93
-8447.69
-7968.52
-7521.21
-7104.47
-6716.15
-6353.35
-6012.59
-5690
-5381.45
-5082.69
-4789.57
-4498.1
-4204.64
-3906
-3599.57
-3283.41
-2956.36
-2618.07
-2269.07
-1910.72
-1545.11
-1175.91
-808.822
-463.907
-80.8826
-0.871882
-0.0229318
-0.0548646
-0.0841649
-0.100291
-0.114913
-0.12566
-0.139094
-0.150258
-0.158578
-0.163939
-0.166455
-0.16628
-0.163837
-0.159615
-0.154092
-0.14768
-0.140676
-0.1333
-1.49447
-1.49232
-1.4889
-1.48428
-1.47851
-1.4716
-1.46344
-1.45397
-1.44344
-1.43169
-1.41862
-1.40426
-1.38866
-1.37184
-1.35377
-1.33442
-1.31378
-1.29191
-1.26876
-1.24432
-1.21858
-1.19166
-1.16364
-1.13452
-1.10439
-1.0733
-1.04136
-1.00867
-0.97536
-0.941604
-0.907423
-0.872998
-0.838467
-0.803984
-0.769632
-0.735532
-0.701807
-0.668572
-0.635936
-0.603998
-0.57285
-0.542575
-0.513249
-0.484937
-0.457697
-0.431581
-0.406637
-0.382907
-0.360435
-0.339267
-1.44961
-1.44458
-1.43874
-1.43205
-1.42441
-1.41566
-1.40579
-1.39473
-1.3824
-1.36879
-1.35363
-1.33689
-1.31849
-1.2984
-1.27667
-1.2533
-1.22826
-1.20158
-1.17337
-1.14365
-1.11244
-1.07982
-1.04595
-1.01103
-0.975134
-0.938427
-0.901087
-0.863291
-0.825216
-0.787066
-0.749077
-0.711321
-0.67404
-0.637423
-0.601601
-0.566711
-0.532872
-0.500188
-0.468743
-0.438607
-0.409829
-0.382444
-0.356474
-0.331926
-0.308799
-0.287082
-0.26676
-0.247819
-0.230243
-0.214029
-1.36987
-1.36696
-1.3629
-1.35752
-1.35074
-1.34228
-1.33201
-1.31977
-1.30554
-1.28915
-1.27066
-1.24985
-1.22669
-1.20126
-1.17346
-1.14351
-1.11154
-1.07764
-1.04205
-1.00491
-0.96635
-0.92664
-0.886087
-0.844902
-0.803334
-0.761645
-0.720111
-0.678985
-0.638506
-0.598882
-0.560316
-0.52298
-0.487023
-0.452568
-0.419711
-0.388518
-0.359033
-0.331274
-0.305238
-0.280904
-0.258236
-0.237184
-0.21769
-0.199689
-0.183112
-0.167887
-0.153946
-0.141223
-0.129662
-0.119215
-1.28856
-1.28631
-1.2818
-1.27484
-1.26525
-1.25286
-1.23757
-1.21923
-1.19783
-1.1733
-1.14581
-1.1153
-1.08206
-1.04621
-1.0081
-0.967948
-0.926047
-0.882805
-0.838586
-0.793767
-0.748658
-0.703688
-0.65919
-0.615465
-0.572816
-0.531497
-0.491739
-0.453706
-0.417549
-0.383366
-0.351218
-0.321129
-0.293096
-0.267089
-0.243055
-0.220925
-0.200616
-0.182035
-0.165082
-0.149654
-0.135646
-0.122956
-0.111482
-0.101128
-0.0918022
-0.0834192
-0.0759008
-0.0691766
-0.0631856
-0.0578779
-1.20832
-1.18801
-1.16528
-1.13993
-1.11191
-1.08123
-1.04799
-1.0123
-0.974273
-0.934131
-0.892166
-0.848815
-0.804259
-0.758977
-0.713372
-0.667804
-0.622656
-0.578311
-0.535097
-0.49335
-0.453323
-0.415208
-0.379163
-0.345295
-0.313662
-0.284281
-0.257133
-0.232168
-0.209312
-0.188472
-0.169539
-0.152397
-0.136924
-0.122995
-0.110488
-0.0992813
-0.0892606
-0.0803162
-0.0723454
-0.0652528
-0.0589503
-0.0533573
-0.0484004
-0.0440133
-0.0401364
-0.0367166
-0.0337069
-0.0310663
-0.0287598
-0.0267585
-0.826692
-0.793196
-0.758761
-0.723495
-0.687556
-0.651142
-0.614479
-0.577783
-0.541326
-0.505319
-0.46998
-0.435519
-0.402142
-0.370031
-0.339339
-0.310187
-0.282667
-0.256842
-0.23275
-0.210404
-0.189788
-0.170868
-0.15359
-0.137881
-0.123662
-0.11084
-0.0993201
-0.0890039
-0.0797926
-0.0715894
-0.0643011
-0.0578388
-0.0521191
-0.0470644
-0.0426034
-0.038671
-0.0352083
-0.0321624
-0.0294858
-0.0271366
-0.0250775
-0.0232759
-0.0217032
-0.0203341
-0.0191472
-0.0181234
-0.0172465
-0.0165027
-0.0158803
-0.0153695
-0.422948
-0.402036
-0.380656
-0.358965
-0.337131
-0.315317
-0.29369
-0.272411
-0.251629
-0.231484
-0.212095
-0.193569
-0.175996
-0.159498
-0.14412
-0.129888
-0.116804
-0.104853
-0.0940047
-0.0842143
-0.0754267
-0.0675785
-0.060601
-0.0544225
-0.0489708
-0.0441747
-0.0399656
-0.0362786
-0.0330532
-0.030234
-0.0277708
-0.0256187
-0.0237379
-0.0220935
-0.0206551
-0.0193968
-0.0182961
-0.017334
-0.0164948
-0.015765
-0.0151336
-0.0145913
-0.0141307
-0.0137455
-0.0134308
-0.0131824
-0.012997
-0.0128718
-0.0128045
-0.0127933
-0.180056
-0.171631
-0.162698
-0.153387
-0.143829
-0.134153
-0.124489
-0.114954
-0.105661
-0.0967067
-0.0881759
-0.0801361
-0.0726376
-0.0657139
-0.0593814
-0.0536408
-0.048479
-0.0438726
-0.0398109
-0.0362508
-0.0331458
-0.0304479
-0.0281093
-0.0260844
-0.0243305
-0.0228085
-0.0214837
-0.0203254
-0.0193075
-0.0184076
-0.0176073
-0.0168918
-0.0162489
-0.0156695
-0.0151465
-0.0146748
-0.0142508
-0.0138724
-0.0135383
-0.013248
-0.0130016
-0.0127997
-0.0126431
-0.0125328
-0.0124698
-0.0124552
-0.0124899
-0.0125748
-0.0127105
-0.0128975
-0.0658173
-0.0638338
-0.0614898
-0.0588416
-0.0559575
-0.0529053
-0.0497567
-0.0465849
-0.0434593
-0.0404418
-0.0375838
-0.0349247
-0.0324909
-0.0302969
-0.0283459
-0.0266314
-0.0251397
-0.0238512
-0.0227429
-0.0217898
-0.0209685
-0.0202572
-0.0196322
-0.019073
-0.0185622
-0.0180858
-0.0176332
-0.0171965
-0.0167708
-0.0163533
-0.0159433
-0.0155416
-0.0151503
-0.0147724
-0.0144116
-0.0140721
-0.0137583
-0.0134745
-0.013225
-0.0130141
-0.0128456
-0.0127231
-0.0126499
-0.0126288
-0.0126624
-0.0127527
-0.0129017
-0.0131107
-0.0133808
-0.0137126
-0.0241708
-0.0242343
-0.024149
-0.0239274
-0.0235879
-0.0231577
-0.0226704
-0.0221603
-0.0216587
-0.0211922
-0.0207794
-0.0204317
-0.0201532
-0.0199415
-0.0197891
-0.0196843
-0.0196133
-0.0195608
-0.0195116
-0.0194516
-0.0193681
-0.0192511
-0.0190929
-0.0188897
-0.0186405
-0.0183464
-0.0180107
-0.0176385
-0.0172361
-0.0168113
-0.0163721
-0.0159273
-0.0154856
-0.0150556
-0.0146455
-0.0142634
-0.0139164
-0.0136112
-0.0133539
-0.0131497
-0.0130032
-0.0129184
-0.0128987
-0.0129468
-0.013065
-0.0132552
-0.0135186
-0.0138563
-0.0142691
-0.0147573
-0.0126687
-0.0128322
-0.0132278
-0.013729
-0.0142604
-0.0147934
-0.0153226
-0.0158511
-0.016384
-0.0169235
-0.0174692
-0.0180165
-0.0185568
-0.0190785
-0.019568
-0.0200107
-0.0203924
-0.0207
-0.0209227
-0.0210523
-0.021084
-0.021016
-0.0208502
-0.0205913
-0.0202489
-0.0198332
-0.0193562
-0.0188307
-0.01827
-0.0176876
-0.0170971
-0.0165113
-0.0159423
-0.0154015
-0.0148992
-0.0144446
-0.0140457
-0.0137096
-0.0134422
-0.0132485
-0.0131324
-0.0130971
-0.0131451
-0.0132783
-0.013498
-0.0138051
-0.0142003
-0.0146839
-0.0152561
-0.0159169
-0.0115767
-0.0117117
-0.0118519
-0.0121736
-0.0127918
-0.0136112
-0.0145269
-0.0154887
-0.0164752
-0.0174725
-0.0184641
-0.0194293
-0.0203466
-0.0211937
-0.021949
-0.0225926
-0.0231077
-0.0234817
-0.023707
-0.0237806
-0.0237044
-0.0234856
-0.0231359
-0.02267
-0.0221044
-0.0214575
-0.020748
-0.0199954
-0.0192182
-0.0184348
-0.0176621
-0.0169158
-0.01621
-0.0155572
-0.0149683
-0.0144525
-0.0140174
-0.0136691
-0.0134125
-0.0132511
-0.0131875
-0.0132235
-0.01336
-0.0135977
-0.0139367
-0.0143768
-0.0149178
-0.0155593
-0.0163011
-0.017143
-0.0128269
-0.0131289
-0.0135464
-0.013841
-0.0142908
-0.0151097
-0.0161971
-0.0174137
-0.018692
-0.0199974
-0.0212948
-0.022542
-0.0236975
-0.0247249
-0.025593
-0.0262751
-0.0267546
-0.0270243
-0.0270847
-0.0269435
-0.0266142
-0.0261147
-0.0254668
-0.0246944
-0.0238229
-0.0228781
-0.0218855
-0.0208698
-0.019854
-0.0188594
-0.0179051
-0.0170079
-0.0161823
-0.0154403
-0.0147919
-0.0142446
-0.0138043
-0.0134752
-0.0132598
-0.0131597
-0.0131753
-0.0133064
-0.0135524
-0.0139121
-0.0143844
-0.0149682
-0.0156624
-0.0164662
-0.0173791
-0.0184007
-0.0135223
-0.0145717
-0.0155368
-0.0162408
-0.0169897
-0.0181088
-0.0195422
-0.0211159
-0.0227448
-0.024377
-0.0259496
-0.0273979
-0.0286597
-0.0296915
-0.0304638
-0.0309611
-0.03118
-0.0311274
-0.0308192
-0.0302778
-0.0295306
-0.0286084
-0.0275442
-0.0263715
-0.0251235
-0.0238324
-0.0225284
-0.0212394
-0.0199902
-0.0188027
-0.0176956
-0.0166844
-0.0157814
-0.014996
-0.0143352
-0.0138035
-0.0134034
-0.0131358
-0.0130004
-0.0129958
-0.01312
-0.0133706
-0.013745
-0.0142408
-0.0148556
-0.0155875
-0.0164349
-0.0173969
-0.018473
-0.0196631
-0.0138175
-0.0160521
-0.0180334
-0.0197167
-0.0213528
-0.0231793
-0.0251982
-0.0272905
-0.0293442
-0.0312619
-0.0329564
-0.034359
-0.0354205
-0.0361199
-0.0364539
-0.0364331
-0.0360793
-0.0354226
-0.034499
-0.0333482
-0.0320124
-0.0305343
-0.028956
-0.0273183
-0.0256591
-0.0240133
-0.0224121
-0.0208825
-0.0194475
-0.0181256
-0.0169317
-0.0158764
-0.0149674
-0.014209
-0.0136031
-0.0131494
-0.0128461
-0.0126902
-0.0126776
-0.0128041
-0.0130652
-0.0134565
-0.0139739
-0.0146139
-0.0153735
-0.0162505
-0.0172432
-0.0183508
-0.0195735
-0.0209118
-0.0200942
-0.0230357
-0.0258619
-0.0286669
-0.0313706
-0.0339965
-0.0364815
-0.0387224
-0.0406279
-0.0421297
-0.0431866
-0.0437861
-0.0439355
-0.0436572
-0.0429843
-0.0419579
-0.0406244
-0.0390339
-0.0372379
-0.0352885
-0.0332361
-0.0311289
-0.0290117
-0.026925
-0.0249044
-0.0229807
-0.0211791
-0.0195196
-0.0180175
-0.0166832
-0.0155231
-0.0145401
-0.0137339
-0.0131019
-0.0126397
-0.0123416
-0.0122009
-0.0122109
-0.0123646
-0.0126552
-0.0130766
-0.0136232
-0.0142905
-0.0150746
-0.0159726
-0.0169827
-0.0181035
-0.019335
-0.0206785
-0.0221365
-0.0378841
-0.0415662
-0.0449578
-0.0479629
-0.0505129
-0.0525548
-0.0540539
-0.0549924
-0.0553731
-0.0552188
-0.0545628
-0.0534493
-0.051929
-0.0500575
-0.0478936
-0.0454976
-0.0429297
-0.0402489
-0.037511
-0.0347684
-0.032068
-0.0294515
-0.0269546
-0.0246064
-0.02243
-0.0204425
-0.0186554
-0.0170752
-0.015704
-0.0145401
-0.0135791
-0.0128141
-0.0122368
-0.0118376
-0.0116067
-0.011534
-0.0116099
-0.0118252
-0.0121719
-0.0126425
-0.0132308
-0.0139313
-0.01474
-0.015654
-0.0166722
-0.0177947
-0.0190175
-0.0203398
-0.0217635
-0.0232907
-0.0685279
-0.0708358
-0.0723828
-0.073191
-0.0732936
-0.072736
-0.0715714
-0.0698593
-0.0676642
-0.0650537
-0.0620981
-0.0588688
-0.0554368
-0.0518712
-0.0482379
-0.0445985
-0.0410088
-0.0375185
-0.0341702
-0.0309992
-0.0280337
-0.0252948
-0.022797
-0.0205486
-0.0185524
-0.0168068
-0.015306
-0.0140415
-0.0130023
-0.0121758
-0.0115489
-0.0111078
-0.010839
-0.0107295
-0.0107671
-0.0109405
-0.0112399
-0.0116566
-0.0121838
-0.012816
-0.0135492
-0.014376
-0.0152938
-0.0163011
-0.0173973
-0.0185829
-0.0198587
-0.0212265
-0.0226887
-0.024248
-0.102362
-0.100383
-0.0976638
-0.094325
-0.0904754
-0.0862154
-0.0816387
-0.0768332
-0.0718812
-0.0668598
-0.0618397
-0.0568854
-0.0520541
-0.0473955
-0.0429516
-0.0387566
-0.034837
-0.0312118
-0.027893
-0.0248862
-0.0221914
-0.0198037
-0.0177144
-0.0159117
-0.0143808
-0.0131052
-0.0120673
-0.0112491
-0.0106325
-0.0102003
-0.00993627
-0.00982544
-0.00985442
-0.0100109
-0.0102832
-0.0106618
-0.0111384
-0.0117067
-0.0123615
-0.0130989
-0.0139164
-0.0148122
-0.0157856
-0.0168366
-0.0179659
-0.019175
-0.0204657
-0.0218405
-0.0233022
-0.0248539
-0.125713
-0.118033
-0.11035
-0.102734
-0.0952413
-0.0879197
-0.0808112
-0.0739533
-0.0673803
-0.0611222
-0.0552051
-0.0496503
-0.0444741
-0.0396876
-0.0352965
-0.0313013
-0.0276974
-0.0244759
-0.0216235
-0.0191239
-0.0169579
-0.0151042
-0.0135404
-0.0122498
-0.0112078
-0.0103909
-0.0097768
-0.00934472
-0.0090757
-0.00895261
-0.00896021
-0.00908518
-0.00931605
-0.00964309
-0.0100582
-0.0105549
-0.0111279
-0.0117734
-0.0124885
-0.0132714
-0.0141211
-0.0150375
-0.0160211
-0.0170727
-0.0181941
-0.0193871
-0.0206542
-0.0219979
-0.0234213
-0.0249277
-0.324054
-0.313088
-0.302387
-0.29195
-0.28178
-0.271874
-0.262234
-0.252857
-0.243743
-0.234889
-0.226294
-0.217955
-0.209869
-0.202033
-0.194445
-0.1871
-0.179995
-0.173125
-0.166488
-0.160078
-0.153892
-0.147924
-0.142171
-0.136627
-0.131288
-0.126149
-0.121205
-0.116451
-0.111883
-0.107496
-0.103284
-0.099244
-0.0953701
-0.0916578
-0.0881026
-0.0846999
-0.0814451
-0.0783338
-0.0753616
-0.0725244
-0.069818
-0.0672382
-0.0647811
-0.0624429
-0.0602198
-0.0581081
-0.0561042
-0.0542048
-0.0524064
-0.0507059
-0.0491001
-0.0475859
-0.0461606
-0.0448213
-0.0435652
-0.0423898
-0.0412925
-0.040271
-0.039323
-0.0384463
-0.0376387
-0.0368983
-0.036223
-0.0356111
-0.0350609
-0.0345705
-0.0341385
-0.0337634
-0.0334436
-0.0331779
-0.0329649
-0.0328035
-0.0326925
-0.0326307
-0.0326173
-0.0326511
-0.0327314
-0.0328572
-0.0330278
-0.0332423
-0.0335002
-0.0338007
-0.0341432
-0.0345272
-0.0349521
-0.0354174
-0.0359226
-0.0364672
-0.0370509
-0.0376733
-0.038334
-0.0390325
-0.0397686
-0.040542
-0.0413522
-0.042199
-0.043082
-0.0440009
-0.0449553
-0.0459449
-0.0469693
-0.0480282
-0.0491211
-0.0502477
-0.0514075
-0.0526002
-0.0538253
-0.0550824
-0.056371
-0.0576904
-0.05904
-0.0604191
-0.0618269
-0.0632628
-0.064726
-0.066216
-0.0677319
-0.0692732
-0.0708392
-0.0724286
-0.0740404
-0.0756731
-0.0773256
-0.0789967
-0.0806852
-0.08239
-0.08411
-0.0858447
-0.0875936
-0.0893569
-0.091134
-0.0929235
-0.0947233
-0.0965314
-0.0983464
-0.100168
-0.101997
-0.103835
-0.105677
-0.107524
-0.109372
-0.111219
-0.113064
-0.114908
-0.116752
-0.118589
-0.120415
-0.122223
-0.12401
-0.12578
-0.127538
-0.129277
-0.13099
-0.13267
-0.134315
-0.135934
-0.13753
-0.139095
-0.140618
-0.142086
-0.143491
-0.144822
-0.146079
-0.14727
-0.148409
-0.149525
-0.150626
-0.151716
-0.152793
-0.153848
-0.154874
-0.155872
-0.156849
-0.157826
-0.158794
-0.159765
-0.160741
-0.161717
-0.162694
-0.163684
-0.164691
-0.165709
-0.166749
-0.16781
-0.168891
-0.169995
-0.171111
-0.172241
-0.173377
-0.174509
-0.175625
-0.176716
-0.177771
-0.178779
-0.179728
-0.180604
-0.181392
-0.18208
-0.182657
-0.18311
-0.183434
-0.183627
-0.183698
-0.183634
-0.183434
-0.183115
-0.182686
-0.182154
-0.181532
-0.180847
-0.180106
-0.179323
-0.17853
-0.177745
-0.176973
-0.176219
-0.175476
-0.174724
-0.173925
-0.173022
-0.171936
-0.170563
-0.168767
-0.166393
-0.163262
-0.159183
-0.153954
-0.147395
-0.139302
-0.129504
-0.117905
-0.104495
-0.0892767
-0.0723077
-0.0536811
-0.0335693
-0.0121535
0.0102875
0.0334541
0.0570059
0.0805793
0.103741
0.125992
0.146817
0.165754
0.182422
0.196484
0.207656
0.215703
0.220453
0.221804
0.219757
0.21437
0.205745
0.194059
0.179569
0.162575
0.143385
0.122303
0.099649
0.0758046
0.0512314
0.0263235
0.00152714
-0.0226918
-0.0458654
-0.0675612
-0.0873778
-0.104963
-0.120029
-0.132363
-0.141838
-0.148418
-0.152155
-0.153187
-0.151727
-0.148049
-0.142473
-0.135349
-0.127033
-0.117882
-0.108228
-0.0983743
-0.088586
-0.0790824
-0.0700374
-0.0615791
-0.0537927
-0.0467245
-0.0403867
-0.0347624
-0.0298096
-0.0254657
-0.0216485
-0.0182572
-0.0151701
-0.0122389
-0.0092813
-0.00606939
-0.00231707
-0.202628
-0.194448
-0.186549
-0.178927
-0.171576
-0.164491
-0.157666
-0.151097
-0.144776
-0.138698
-0.132856
-0.127246
-0.12186
-0.116694
-0.111739
-0.106991
-0.102444
-0.0980911
-0.0939267
-0.089945
-0.0861402
-0.0825067
-0.0790388
-0.075731
-0.072578
-0.0695746
-0.0667156
-0.0639961
-0.0614111
-0.058956
-0.0566262
-0.0544171
-0.0523246
-0.0503443
-0.0484724
-0.0467049
-0.0450379
-0.043468
-0.0419917
-0.0406055
-0.0393063
-0.0380909
-0.0369565
-0.0359003
-0.0349194
-0.0340113
-0.0331736
-0.0324039
-0.0317
-0.0310597
-0.0304811
-0.0299621
-0.0295011
-0.0290963
-0.0287461
-0.0284489
-0.0282033
-0.028008
-0.0278618
-0.0277633
-0.0277115
-0.0277054
-0.027744
-0.0278265
-0.0279519
-0.0281196
-0.0283288
-0.0285789
-0.0288692
-0.0291994
-0.0295688
-0.0299771
-0.0304238
-0.0309086
-0.0314311
-0.0319912
-0.0325885
-0.0332229
-0.0338942
-0.0346021
-0.0353466
-0.0361276
-0.0369449
-0.0377984
-0.0386882
-0.0396141
-0.0405762
-0.0415742
-0.0426082
-0.0436782
-0.044784
-0.0459256
-0.0471029
-0.0483158
-0.0495641
-0.0508477
-0.0521663
-0.0535197
-0.0549075
-0.0563294
-0.057785
-0.0592737
-0.0607952
-0.0623488
-0.0639341
-0.0655506
-0.067198
-0.0688757
-0.0705828
-0.0723184
-0.0740811
-0.0758701
-0.0776841
-0.0795221
-0.0813831
-0.0832662
-0.0851712
-0.0870975
-0.0890443
-0.0910093
-0.09299
-0.0949843
-0.0969904
-0.0990067
-0.101032
-0.103064
-0.105102
-0.107143
-0.109191
-0.111246
-0.11331
-0.115379
-0.117449
-0.119516
-0.121578
-0.123637
-0.125699
-0.127751
-0.129798
-0.131837
-0.133865
-0.135882
-0.137894
-0.139912
-0.141924
-0.143927
-0.145911
-0.147863
-0.14978
-0.15168
-0.153539
-0.155359
-0.157136
-0.158855
-0.160521
-0.162155
-0.163734
-0.165265
-0.166736
-0.168122
-0.169408
-0.170576
-0.171627
-0.172571
-0.173436
-0.174281
-0.175047
-0.175786
-0.176506
-0.17719
-0.17783
-0.17843
-0.179009
-0.179588
-0.180135
-0.180686
-0.181245
-0.181805
-0.18237
-0.182969
-0.183575
-0.184211
-0.184886
-0.185598
-0.186353
-0.187154
-0.187987
-0.188856
-0.189754
-0.190667
-0.19158
-0.192482
-0.193363
-0.194202
-0.194988
-0.195704
-0.196333
-0.196859
-0.197273
-0.197565
-0.197733
-0.197783
-0.197721
-0.197538
-0.197247
-0.196868
-0.196421
-0.19592
-0.195391
-0.19486
-0.194332
-0.193832
-0.193386
-0.193006
-0.192689
-0.192424
-0.192185
-0.191927
-0.191584
-0.191067
-0.190261
-0.189019
-0.187166
-0.184504
-0.180821
-0.175885
-0.169477
-0.161368
-0.151348
-0.139279
-0.125147
-0.108937
-0.0907091
-0.0705939
-0.0487383
-0.0253746
-0.000865982
0.024394
0.0498517
0.074912
0.0989605
0.121426
0.141821
0.159706
0.17469
0.186432
0.19467
0.199227
0.200022
0.197086
0.190554
0.180616
0.167538
0.151635
0.13326
0.112772
0.0906202
0.0672309
0.0430743
0.0185171
-0.00592138
-0.0298258
-0.0527868
-0.0744292
-0.0943914
-0.112345
-0.128009
-0.141157
-0.151633
-0.15935
-0.164305
-0.166568
-0.166287
-0.163676
-0.15901
-0.152594
-0.144758
-0.13584
-0.126172
-0.116068
-0.105815
-0.0956608
-0.0858165
-0.0764486
-0.0676816
-0.0595995
-0.0522495
-0.0456459
-0.0397749
-0.0345991
-0.0300615
-0.0260888
-0.0225944
-0.0194795
-0.0166341
-0.013938
-0.0112609
-0.00846507
-0.00541023
-0.00196439
-0.112027
-0.106902
-0.102007
-0.0973343
-0.0928756
-0.0886238
-0.0845717
-0.080712
-0.0770378
-0.0735422
-0.0702184
-0.06706
-0.0640607
-0.0612143
-0.0585149
-0.0559566
-0.0535339
-0.0512414
-0.0490738
-0.0470262
-0.0450938
-0.0432719
-0.0415559
-0.0399418
-0.0384253
-0.0370025
-0.0356698
-0.0344234
-0.0332599
-0.0321762
-0.031169
-0.0302355
-0.0293727
-0.0285781
-0.0278491
-0.0271832
-0.0265783
-0.0260322
-0.0255428
-0.0251082
-0.0247267
-0.0243965
-0.0241161
-0.0238841
-0.0236989
-0.0235594
-0.0234643
-0.0234126
-0.0234031
-0.0234351
-0.0235075
-0.0236197
-0.0237709
-0.0239604
-0.0241877
-0.0244522
-0.0247535
-0.0250912
-0.025465
-0.0258744
-0.0263194
-0.0267997
-0.0273151
-0.0278655
-0.0284508
-0.0290711
-0.0297262
-0.0304163
-0.0311414
-0.0319015
-0.0326968
-0.0335274
-0.0343935
-0.0352952
-0.0362327
-0.0372061
-0.0382157
-0.0392617
-0.0403443
-0.0414637
-0.0426201
-0.0438137
-0.0450447
-0.0463132
-0.0476194
-0.0489635
-0.0503456
-0.0517658
-0.0532241
-0.0547206
-0.0562554
-0.0578284
-0.0594396
-0.0610888
-0.0627759
-0.0645005
-0.0662619
-0.0680597
-0.0698933
-0.071762
-0.0736648
-0.0756007
-0.0775688
-0.0795681
-0.0815978
-0.0836573
-0.0857467
-0.0878631
-0.0900062
-0.0921744
-0.0943659
-0.0965789
-0.0988122
-0.101064
-0.103332
-0.105616
-0.107918
-0.110237
-0.112569
-0.114912
-0.117261
-0.119611
-0.121962
-0.124314
-0.126662
-0.129004
-0.131336
-0.133656
-0.135971
-0.138288
-0.140599
-0.142904
-0.145197
-0.147469
-0.149722
-0.151974
-0.154195
-0.156394
-0.158571
-0.160722
-0.162843
-0.164942
-0.167055
-0.169154
-0.171247
-0.173335
-0.1754
-0.177423
-0.179402
-0.181359
-0.183232
-0.185034
-0.186765
-0.188408
-0.189999
-0.191531
-0.192941
-0.194292
-0.195568
-0.196737
-0.197782
-0.198691
-0.199463
-0.200107
-0.200674
-0.201177
-0.201556
-0.201851
-0.202108
-0.202313
-0.202456
-0.202547
-0.202624
-0.202677
-0.202686
-0.202689
-0.2027
-0.202709
-0.202738
-0.2028
-0.202874
-0.20299
-0.203164
-0.203396
-0.203709
-0.204077
-0.204512
-0.205015
-0.205573
-0.206171
-0.206792
-0.207423
-0.208056
-0.208656
-0.209218
-0.209725
-0.21016
-0.210508
-0.210763
-0.210925
-0.210997
-0.210999
-0.21092
-0.210777
-0.21059
-0.210394
-0.210204
-0.210047
-0.209954
-0.209919
-0.209956
-0.210078
-0.210293
-0.21058
-0.210909
-0.211231
-0.211473
-0.21154
-0.211317
-0.210675
-0.209447
-0.207446
-0.204462
-0.200268
-0.194636
-0.187355
-0.178203
-0.16699
-0.153616
-0.137989
-0.12015
-0.100187
-0.0781716
-0.0543103
-0.0290767
-0.003039
0.0231417
0.0487541
0.0732011
0.095908
0.116329
0.13397
0.148399
0.159276
0.166361
0.169505
0.168642
0.163783
0.155083
0.142982
0.127911
0.110315
0.0906222
0.0692388
0.0466556
0.0233595
-0.000242726
-0.0237196
-0.0466687
-0.0687191
-0.0895263
-0.108765
-0.12614
-0.141399
-0.154333
-0.164787
-0.172666
-0.17794
-0.180646
-0.180887
-0.178827
-0.174682
-0.168714
-0.161215
-0.152495
-0.142868
-0.132644
-0.122111
-0.111532
-0.101137
-0.0911163
-0.0816224
-0.0727675
-0.0646261
-0.0572383
-0.0506132
-0.0447331
-0.0395578
-0.0350283
-0.0310704
-0.027598
-0.0245151
-0.0217187
-0.0191012
-0.0165536
-0.0139705
-0.0112573
-0.00833859
-0.00517322
-0.00177185
-0.0542986
-0.0517695
-0.0493798
-0.0471236
-0.0449947
-0.0429877