/*--------------------------------*- C++ -*----------------------------------*\
| =========                 |                                                 |
| \\      /  F ield         | OpenFOAM: The Open Source CFD Toolbox           |
|  \\    /   O peration     | Version:  2.4.0                                 |
|   \\  /    A nd           | Web:      www.OpenFOAM.org                      |
|    \\/     M anipulation  |                                                 |
\*---------------------------------------------------------------------------*/
FoamFile
{
    version     2.0;
    format      ascii;
    class       volScalarField;
    location    "3";
    object      p;
}
// * * * * * * * * * * * * * * * * * * * * * * * * * * * * * * * * * * * * * //

dimensions      [1 -1 -2 0 0 0 0];

internalField   nonuniform List<scalar> 
8000
(
2.15867
2.14876
2.14286
2.14373
2.15141
2.16518
2.18539
2.21132
2.2436
2.28114
2.32737
2.38698
2.47457
2.58252
2.57482
1.59452
-1.571
-6.59869
-8.59518
-3.23161
-0.859872
-0.459901
-0.443956
-0.444932
-0.446336
-0.445994
-0.445402
-0.444919
-0.444556
-0.443461
-0.443141
-0.442889
-0.442387
-0.442145
-0.441905
-0.44167
-0.441878
-0.441664
-0.441487
-0.441402
-0.441223
-0.44087
-0.440722
-0.442147
-0.44203
-0.441944
-0.441865
-0.441762
-0.441708
-0.441658
2.19873
2.14532
2.09751
2.06506
2.04985
2.04707
2.05932
2.08251
2.12629
2.19912
2.32046
2.40471
2.12102
-0.106663
-4.20991
-10.4572
-6.4189
-0.850516
-0.146928
-0.461512
-0.450731
-0.452331
-0.45367
-0.453908
-0.454301
-0.454624
-0.454885
-0.455383
-0.455718
-0.455991
-0.456255
-0.456514
-0.456765
-0.456994
-0.457227
-0.457439
-0.457631
-0.4578
-0.457831
-0.457983
-0.45903
-0.459096
-0.459228
-0.459364
-0.459449
-0.458002
-0.46058
-0.460687
-0.4608
-0.460841
-0.93108
-0.949406
-0.965593
-0.977098
-0.984055
-0.990531
-0.984392
-0.926317
-0.768634
-0.753822
-2.19775
-7.15335
-9.10371
-7.9739
-2.39074
-1.33367
-0.508217
-0.457847
-0.457818
-0.475557
-0.475372
-0.475198
-0.475605
-0.476061
-0.476464
-0.477883
-0.478271
-0.478645
-0.478991
-0.479103
-0.479862
-0.480156
-0.479306
-0.479608
-0.480041
-0.480298
-0.480534
-0.48052
-0.480685
-0.4809
-0.480281
-0.481229
-0.481035
-0.481126
-0.481229
-0.481152
-0.481189
-0.481317
-0.481417
-0.481476
-5.31752
-5.33195
-5.35857
-5.39655
-5.44169
-5.45764
-5.42149
-5.53688
-6.65773
-9.74779
-12.598
-5.79913
-0.265142
0.490538
-0.475262
-0.465978
-0.469919
-0.483742
-0.48343
-0.483967
-0.484695
-0.485577
-0.486485
-0.487332
-0.488155
-0.488066
-0.489369
-0.490245
-0.49096
-0.491645
-0.492296
-0.492918
-0.493546
-0.494147
-0.494503
-0.495196
-0.495762
-0.496242
-0.496767
-0.497286
-0.4978
-0.498307
-0.498821
-0.49683
-0.497354
-0.494858
-0.496218
-0.4946
-0.495316
-0.49584
-8.04802
-8.03151
-8.01663
-7.98463
-7.90648
-7.7976
-8.01228
-9.34883
-10.7792
-2.37313
-0.775951
-0.659586
-0.583848
-0.58142
-0.490977
-0.478504
-0.473784
-0.481094
-0.488165
-0.492432
-0.495153
-0.497256
-0.499075
-0.500699
-0.502104
-0.503292
-0.504325
-0.505322
-0.506351
-0.507486
-0.508133
-0.508797
-0.509516
-0.510336
-0.510956
-0.51156
-0.512152
-0.509199
-0.51091
-0.511401
-0.511807
-0.512212
-0.512601
-0.512968
-0.513304
-0.513623
-0.513955
-0.5143
-0.514592
-0.514837
-6.74533
-6.63167
-6.50561
-6.37347
-6.22431
-6.30648
-6.88015
-6.99964
-5.6742
-3.83418
-0.545011
0.0775278
-0.0173245
-0.446286
-0.915306
-0.798817
-0.665972
-0.61854
-0.583432
-0.565386
-0.552022
-0.540731
-0.533079
-0.528749
-0.527024
-0.527019
-0.52794
-0.529155
-0.530305
-0.531204
-0.531859
-0.532406
-0.532893
-0.533285
-0.533648
-0.534107
-0.534523
-0.534845
-0.536457
-0.536747
-0.537083
-0.537436
-0.537695
-0.538051
-0.538335
-0.538599
-0.538856
-0.539055
-0.539037
-0.540196
-9.7594
-9.60984
-9.47172
-9.35094
-9.15058
-8.82718
-8.92977
-11.5258
-18.1009
-12.3224
-8.48252
-5.99075
-3.90415
-2.4517
-1.88725
-1.9136
-1.87887
-1.65297
-1.40258
-1.23608
-1.11829
-1.02653
-0.945059
-0.86571
-0.793762
-0.73173
-0.681176
-0.643204
-0.617218
-0.59967
-0.58551
-0.573724
-0.567123
-0.565141
-0.563936
-0.562037
-0.5606
-0.560403
-0.560806
-0.561153
-0.561386
-0.561602
-0.561792
-0.562008
-0.562334
-0.562496
-0.562675
-0.562722
-0.56312
-0.563303
1.46212
1.42723
1.40575
1.40381
1.41506
1.44779
1.50687
1.59425
1.68966
1.3204
0.750873
-4.04689
-2.47312
-0.795824
0.158988
0.256973
0.069948
-0.270302
-0.447285
-0.569095
-0.756452
-0.984749
-1.1949
-1.36233
-1.47747
-1.52999
-1.50874
-1.39687
-1.20559
-1.01895
-0.923271
-0.898648
-0.873711
-0.831055
-0.791254
-0.759031
-0.724479
-0.685017
-0.649755
-0.624246
-0.606479
-0.595395
-0.590279
-0.588751
-0.588554
-0.588643
-0.588743
-0.588816
-0.588886
-0.589019
4.15757
4.06085
3.96307
3.88796
3.8328
3.79808
3.78133
3.7983
3.81121
3.83189
3.82579
3.79861
3.76325
3.79866
3.82838
3.99013
4.08025
3.78824
3.30488
3.30662
3.48493
3.59998
3.6231
3.57357
3.42558
3.14417
2.69879
2.09006
1.37991
0.716365
0.191031
-0.227157
-0.600791
-0.914022
-1.1195
-1.19692
-1.16699
-1.09823
-1.06051
-1.05041
-1.01698
-0.936369
-0.823202
-0.718103
-0.652866
-0.624207
-0.615162
-0.613362
-0.613249
-0.613317
5.33913
5.27956
5.21658
5.16092
5.11207
5.06827
5.02908
4.9965
4.96336
4.93718
4.91536
4.90144
4.89467
4.89741
4.90967
4.92952
4.95069
4.96886
4.98585
4.99899
5.00823
5.03774
5.08781
5.1224
5.15636
5.19155
5.17946
5.23694
5.29742
5.03276
4.50974
4.42928
4.38709
4.15686
3.70123
2.99356
2.10453
1.21801
0.44413
-0.194787
-0.693421
-1.00607
-1.13253
-1.14135
-1.07292
-0.939478
-0.796557
-0.700695
-0.657151
-0.643178
5.16438
5.12269
5.07714
5.03644
5.0001
4.96792
4.93916
4.91503
4.89176
4.8728
4.85726
4.84542
4.83676
4.83165
4.82988
4.83149
4.83606
4.84369
4.85415
4.8675
4.88401
4.90334
4.92577
4.95086
4.97866
5.00944
5.04357
5.08028
5.11408
5.14385
5.17128
5.19565
5.22071
5.2514
5.29221
5.33205
5.29152
4.86908
4.39783
4.1674
3.56674
2.50098
1.31616
0.333266
-0.25251
-0.508972
-0.637267
-0.707892
-0.708421
-0.678759
5.39406
5.36189
5.32855
5.29977
5.27238
5.24811
5.22416
5.20399
5.1846
5.16777
5.15251
5.14001
5.12963
5.1212
5.11514
5.11099
5.10901
5.10912
5.11131
5.11555
5.1219
5.13036
5.14094
5.15363
5.16851
5.18561
5.20493
5.22643
5.25011
5.27616
5.30473
5.33613
5.37088
5.40966
5.4524
5.49658
5.53741
5.57564
5.61275
5.65219
5.69148
5.68357
5.24631
4.70841
4.0089
2.77945
1.49506
0.49478
-0.128678
-0.430709
4.07739
4.06196
4.04345
4.02655
4.00933
3.99364
3.97752
3.96393
3.94919
3.93645
3.9237
3.91169
3.90054
3.89026
3.88007
3.87078
3.86207
3.85391
3.84623
3.83899
3.83214
3.82564
3.81944
3.81341
3.80751
3.80167
3.79581
3.78982
3.78362
3.7771
3.77018
3.76277
3.75481
3.74621
3.73687
3.7267
3.71543
3.7038
3.69173
3.67902
3.66394
3.64506
3.62276
3.59154
3.51866
3.12174
2.52434
1.54914
0.463778
-0.191393
4.04333
4.02847
4.0139
4.00126
3.98974
3.97949
3.96971
3.96219
3.95445
3.94875
3.94282
3.93846
3.93511
3.93285
3.9315
3.931
3.93166
3.93333
3.936
3.93969
3.94436
3.95
3.95669
3.96431
3.9729
3.98251
3.99309
4.00466
4.01717
4.03068
4.04512
4.06055
4.07687
4.0942
4.11237
4.1316
4.15099
4.17224
4.19479
4.21933
4.24318
4.25861
4.23104
4.11662
3.80775
3.47554
2.88433
1.84977
0.593312
-0.197879
2.65436
2.64937
2.64292
2.63663
2.6313
2.62594
2.62247
2.61663
2.61283
2.60885
2.60466
2.6014
2.59852
2.59603
2.594
2.59196
2.59058
2.5896
2.58901
2.58882
2.58912
2.58972
2.59076
2.59226
2.59405
2.59638
2.5991
2.60232
2.60594
2.61008
2.6146
2.61971
2.62513
2.63116
2.63753
2.64533
2.65367
2.66391
2.66657
2.65309
2.55046
2.30126
1.41347
0.902802
0.681157
0.546947
0.542846
0.539197
0.240521
-0.198403
2.14953
2.14748
2.14609
2.14521
2.14557
2.14461
2.14636
2.14526
2.14687
2.14743
2.14773
2.14886
2.15027
2.15198
2.15417
2.15615
2.15869
2.16156
2.16469
2.16815
2.17188
2.17597
2.18021
2.18496
2.18982
2.19507
2.20053
2.20636
2.21237
2.21872
2.22521
2.23191
2.23882
2.24703
2.25833
2.27299
2.27528
2.22157
1.9182
1.34881
0.139335
-0.158144
-0.267579
-0.478822
-0.697774
-0.835423
-0.896041
-0.831524
-0.661832
-0.58356
0.979831
0.983612
0.987472
0.991045
0.995849
0.998007
1.00499
1.00601
1.01117
1.01326
1.01648
1.01985
1.0236
1.02747
1.03171
1.03571
1.03998
1.04448
1.04919
1.05412
1.05929
1.06478
1.07061
1.07673
1.08332
1.09015
1.09762
1.10534
1.11377
1.12226
1.13187
1.14294
1.15936
1.17883
1.18216
1.04122
0.527743
-0.677739
-1.90923
-2.02699
-1.96981
-1.77603
-1.39364
-1.00953
-0.835156
-0.851783
-0.876738
-0.86583
-0.822776
-0.785564
0.158466
0.162932
0.167848
0.172338
0.178084
0.17992
0.187861
0.189085
0.194052
0.195712
0.198385
0.200655
0.203002
0.205159
0.207342
0.209369
0.211322
0.213327
0.215452
0.217673
0.220074
0.222539
0.225685
0.228792
0.232822
0.236839
0.242045
0.247104
0.253929
0.26275
0.282797
0.293767
0.254603
-0.105973
-1.06587
-2.94837
-3.46067
-3.11381
-2.78338
-2.61779
-2.4123
-1.63497
-1.10136
-0.932767
-0.869129
-0.821012
-0.802904
-0.80467
-0.807821
-0.808799
-0.63587
-0.629284
-0.621865
-0.615299
-0.608339
-0.605774
-0.601642
-0.599195
-0.598816
-0.597609
-0.596662
-0.596634
-0.597315
-0.598849
-0.601218
-0.604521
-0.608712
-0.613921
-0.620076
-0.627285
-0.63558
-0.645069
-0.655522
-0.66738
-0.680543
-0.69585
-0.711942
-0.724315
-0.720887
-0.706839
-0.809554
-1.44078
-2.77242
-4.76778
-4.87273
-4.44621
-3.4188
-2.53951
-1.98843
-1.07683
-0.837975
-0.811174
-0.834023
-0.828237
-0.827761
-0.828329
-0.828193
-0.827967
-0.827909
-0.827923
-1.69737
-1.68338
-1.66989
-1.65936
-1.65109
-1.64765
-1.64448
-1.64358
-1.64636
-1.65019
-1.65623
-1.6648
-1.67569
-1.68917
-1.70515
-1.72396
-1.74541
-1.76999
-1.7974
-1.82828
-1.86235
-1.90038
-1.94189
-1.98862
-2.03849
-2.08917
-2.13058
-2.17515
-2.31932
-2.81228
-3.71588
-5.39527
-5.56526
-5.32496
-3.00246
-1.54647
-1.00937
-0.864052
-0.84577
-0.849152
-0.850388
-0.849058
-0.848585
-0.848647
-0.848626
-0.848659
-0.848744
-0.848819
-0.848904
-0.849
-0.441604
-0.44175
-0.441452
-0.441423
-0.44139
-0.440426
-0.440277
-0.441051
-0.441286
-0.441694
-0.441726
-0.441943
-0.441949
-0.441944
-0.441902
-0.441933
-0.441907
-0.441901
-0.440973
-0.440971
-0.441053
-0.44107
-0.441075
-0.441027
-0.441068
-0.441082
-0.441091
-0.441096
-0.4411
-0.441071
-0.440937
-0.442107
-0.442137
-0.442161
-0.442185
-0.442204
-0.442233
-0.442267
-0.442308
-0.442352
-0.442398
-0.442447
-0.442499
-0.442554
-0.442613
-0.442675
-0.442739
-0.442808
-0.442878
-0.442953
-0.460919
-0.461036
-0.4611
-0.461151
-0.460642
-0.461339
-0.461363
-0.461282
-0.461675
-0.461694
-0.461331
-0.461402
-0.462083
-0.462173
-0.462251
-0.462287
-0.462431
-0.462506
-0.462591
-0.461366
-0.461449
-0.46166
-0.461766
-0.461866
-0.461979
-0.462063
-0.462185
-0.462141
-0.462261
-0.462382
-0.461019
-0.461933
-0.462087
-0.462207
-0.462325
-0.462442
-0.462557
-0.462672
-0.462787
-0.462902
-0.463017
-0.463132
-0.463248
-0.463363
-0.463479
-0.463596
-0.463714
-0.463832
-0.46395
-0.464071
-0.48152
-0.481559
-0.481595
-0.48163
-0.481659
-0.4813
-0.481386
-0.481435
-0.481373
-0.481422
-0.481478
-0.481504
-0.481572
-0.481816
-0.481906
-0.481983
-0.481986
-0.482169
-0.482267
-0.480779
-0.481912
-0.482023
-0.482125
-0.482231
-0.48234
-0.482446
-0.482559
-0.482585
-0.482737
-0.482852
-0.482949
-0.483062
-0.483184
-0.483309
-0.483436
-0.483563
-0.483691
-0.483821
-0.483952
-0.484084
-0.484219
-0.484354
-0.484492
-0.484632
-0.484773
-0.484917
-0.485063
-0.48521
-0.485359
-0.485511
-0.496207
-0.496557
-0.496904
-0.497242
-0.497563
-0.497875
-0.498038
-0.498397
-0.498672
-0.499008
-0.499295
-0.498357
-0.499365
-0.499616
-0.499855
-0.500101
-0.500364
-0.500613
-0.500256
-0.500602
-0.500863
-0.501086
-0.50131
-0.501533
-0.501772
-0.501927
-0.501836
-0.502261
-0.50247
-0.502677
-0.502883
-0.503086
-0.503288
-0.50349
-0.503691
-0.503892
-0.504093
-0.504294
-0.504496
-0.504697
-0.504898
-0.5051
-0.505303
-0.505506
-0.50571
-0.505914
-0.50612
-0.506326
-0.506533
-0.506741
-0.51613
-0.516417
-0.516697
-0.516986
-0.517278
-0.517572
-0.517871
-0.517985
-0.518788
-0.518238
-0.518552
-0.516646
-0.517937
-0.518345
-0.518619
-0.518886
-0.519367
-0.519174
-0.519959
-0.520185
-0.520453
-0.520757
-0.521028
-0.5213
-0.52157
-0.521841
-0.522106
-0.522372
-0.522639
-0.522906
-0.523172
-0.523437
-0.523701
-0.523966
-0.524229
-0.524493
-0.524756
-0.525019
-0.525282
-0.525544
-0.525807
-0.52607
-0.526332
-0.526595
-0.526857
-0.527119
-0.527381
-0.527643
-0.527905
-0.528166
-0.540413
-0.540625
-0.540834
-0.540969
-0.541144
-0.541348
-0.541049
-0.541797
-0.541987
-0.542173
-0.542358
-0.542519
-0.542698
-0.542884
-0.543073
-0.543255
-0.543431
-0.543605
-0.543785
-0.543971
-0.544152
-0.544336
-0.544523
-0.544713
-0.544906
-0.545101
-0.545299
-0.5455
-0.545705
-0.545913
-0.546124
-0.54634
-0.546558
-0.546781
-0.547007
-0.547236
-0.547468
-0.547704
-0.547943
-0.548185
-0.548429
-0.548676
-0.548925
-0.549177
-0.549431
-0.549687
-0.549945
-0.550204
-0.550464
-0.550726
-0.563484
-0.563663
-0.563838
-0.564009
-0.564178
-0.564343
-0.564505
-0.564666
-0.564826
-0.564981
-0.565134
-0.565285
-0.565434
-0.565586
-0.565739
-0.565894
-0.566052
-0.566211
-0.566372
-0.566537
-0.566705
-0.566877
-0.567052
-0.567232
-0.567415
-0.567604
-0.567796
-0.567994
-0.568196
-0.568402
-0.568613
-0.568829
-0.569049
-0.569274
-0.569503
-0.569735
-0.569972
-0.570212
-0.570455
-0.570702
-0.570951
-0.571204
-0.571458
-0.571715
-0.571974
-0.572235
-0.572498
-0.572762
-0.573028
-0.573294
-0.589108
-0.589202
-0.589298
-0.589393
-0.589489
-0.589583
-0.589676
-0.589768
-0.58986
-0.589952
-0.590043
-0.590135
-0.590228
-0.590322
-0.590417
-0.590514
-0.590614
-0.590717
-0.590824
-0.590934
-0.591049
-0.591168
-0.591293
-0.591422
-0.591558
-0.591699
-0.591846
-0.591999
-0.592158
-0.592322
-0.592493
-0.59267
-0.592852
-0.593039
-0.593231
-0.593429
-0.59363
-0.593837
-0.594047
-0.594262
-0.59448
-0.594701
-0.594926
-0.595154
-0.595384
-0.595618
-0.595853
-0.596091
-0.596332
-0.596574
-0.613333
-0.613371
-0.613354
-0.613528
-0.61359
-0.613654
-0.613716
-0.613779
-0.613843
-0.613907
-0.613972
-0.614038
-0.614106
-0.614176
-0.614249
-0.614325
-0.614405
-0.614488
-0.614576
-0.614669
-0.614766
-0.614869
-0.614978
-0.615092
-0.615212
-0.615337
-0.615469
-0.615606
-0.615749
-0.615897
-0.616051
-0.61621
-0.616373
-0.616541
-0.616714
-0.616891
-0.617072
-0.617256
-0.617444
-0.617635
-0.617829
-0.618027
-0.618227
-0.618429
-0.618634
-0.618842
-0.619051
-0.619263
-0.619477
-0.619693
-0.640019
-0.639299
-0.638976
-0.638942
-0.638978
-0.639005
-0.639028
-0.639018
-0.639081
-0.639097
-0.639114
-0.639132
-0.639153
-0.639177
-0.639203
-0.639233
-0.639266
-0.639303
-0.639345
-0.639392
-0.639443
-0.6395
-0.639562
-0.63963
-0.639703
-0.639782
-0.639867
-0.639957
-0.640052
-0.640153
-0.640259
-0.64037
-0.640485
-0.640605
-0.640729
-0.640857
-0.640989
-0.641125
-0.641264
-0.641407
-0.641553
-0.641703
-0.641855
-0.64201
-0.642169
-0.64233
-0.642493
-0.64266
-0.642829
-0.643
-0.663491
-0.662174
-0.663192
-0.663771
-0.664091
-0.664337
-0.664491
-0.664526
-0.664533
-0.664526
-0.664509
-0.664476
-0.664443
-0.664411
-0.664379
-0.664349
-0.664321
-0.664296
-0.664274
-0.664255
-0.664241
-0.664231
-0.664227
-0.664227
-0.664233
-0.664245
-0.664262
-0.664285
-0.664314
-0.664349
-0.664389
-0.664435
-0.664486
-0.664542
-0.664604
-0.66467
-0.664741
-0.664817
-0.664897
-0.664982
-0.665071
-0.665164
-0.66526
-0.665361
-0.665466
-0.665574
-0.665686
-0.665801
-0.66592
-0.666042
-0.565142
-0.632869
-0.666822
-0.681339
-0.686482
-0.688128
-0.688655
-0.688848
-0.688917
-0.688912
-0.688872
-0.688824
-0.688774
-0.688721
-0.688666
-0.68861
-0.688551
-0.688492
-0.688433
-0.688375
-0.688319
-0.688265
-0.688213
-0.688166
-0.688122
-0.688083
-0.688049
-0.688021
-0.687997
-0.687979
-0.687966
-0.68796
-0.687958
-0.687962
-0.687972
-0.687987
-0.688008
-0.688033
-0.688064
-0.6881
-0.68814
-0.688186
-0.688236
-0.688291
-0.688351
-0.688415
-0.688483
-0.688556
-0.688633
-0.688714
-0.48079
-0.611766
-0.673056
-0.698364
-0.70715
-0.709963
-0.710893
-0.711236
-0.711351
-0.711367
-0.711345
-0.711314
-0.711282
-0.711249
-0.711211
-0.71117
-0.711125
-0.711076
-0.711025
-0.710971
-0.710916
-0.710861
-0.710805
-0.710751
-0.710698
-0.710648
-0.7106
-0.710556
-0.710516
-0.710479
-0.710447
-0.710419
-0.710395
-0.710377
-0.710363
-0.710353
-0.710349
-0.710349
-0.710354
-0.710363
-0.710377
-0.710396
-0.710419
-0.710447
-0.710479
-0.710516
-0.710556
-0.710602
-0.710651
-0.710704
-0.505248
-0.634005
-0.694617
-0.720005
-0.72905
-0.732134
-0.733245
-0.733703
-0.73389
-0.733949
-0.73394
-0.733895
-0.733837
-0.733774
-0.733707
-0.733633
-0.733553
-0.733468
-0.73338
-0.733289
-0.733196
-0.733103
-0.73301
-0.73292
-0.732832
-0.732747
-0.732666
-0.73259
-0.732518
-0.732451
-0.732389
-0.732333
-0.732283
-0.732237
-0.732197
-0.732163
-0.732134
-0.73211
-0.732092
-0.732079
-0.732071
-0.732067
-0.732069
-0.732075
-0.732087
-0.732102
-0.732122
-0.732147
-0.732176
-0.732209
-0.515225
-0.648829
-0.70697
-0.735044
-0.746887
-0.75159
-0.75351
-0.754353
-0.754755
-0.754943
-0.754995
-0.754966
-0.754902
-0.754829
-0.754747
-0.754658
-0.754561
-0.754458
-0.754352
-0.754245
-0.754136
-0.75403
-0.753925
-0.753824
-0.753727
-0.753635
-0.753548
-0.753467
-0.753391
-0.753322
-0.753258
-0.753201
-0.75315
-0.753104
-0.753065
-0.753031
-0.753002
-0.75298
-0.752962
-0.75295
-0.752943
-0.75294
-0.752943
-0.75295
-0.752962
-0.752978
-0.752998
-0.753023
-0.753052
-0.753085
-0.61989
-0.702079
-0.737483
-0.754734
-0.765505
-0.7704
-0.772484
-0.773377
-0.773709
-0.773801
-0.773818
-0.773815
-0.7738
-0.773776
-0.773743
-0.773702
-0.773655
-0.773604
-0.773551
-0.773498
-0.773445
-0.773393
-0.773345
-0.773299
-0.773257
-0.77322
-0.773186
-0.773158
-0.773133
-0.773114
-0.773099
-0.773089
-0.773084
-0.773083
-0.773086
-0.773094
-0.773105
-0.773122
-0.773142
-0.773166
-0.773194
-0.773225
-0.773261
-0.773299
-0.773342
-0.773388
-0.773437
-0.773489
-0.773544
-0.773603
-0.773951
-0.778638
-0.784343
-0.78777
-0.79012
-0.791391
-0.791854
-0.791989
-0.792037
-0.792074
-0.792115
-0.792152
-0.792179
-0.7922
-0.792216
-0.792228
-0.79224
-0.792251
-0.792262
-0.792274
-0.792287
-0.792303
-0.792321
-0.792341
-0.792365
-0.792391
-0.79242
-0.792452
-0.792487
-0.792525
-0.792566
-0.79261
-0.792656
-0.792706
-0.792758
-0.792812
-0.79287
-0.79293
-0.792992
-0.793057
-0.793124
-0.793194
-0.793266
-0.79334
-0.793416
-0.793495
-0.793575
-0.793658
-0.793743
-0.79383
-0.809162
-0.809287
-0.809306
-0.809299
-0.809304
-0.809344
-0.809433
-0.809551
-0.809675
-0.809796
-0.80991
-0.81002
-0.810127
-0.810232
-0.810335
-0.810437
-0.810537
-0.810638
-0.810737
-0.810837
-0.810937
-0.811037
-0.811137
-0.811237
-0.811338
-0.811439
-0.81154
-0.811643
-0.811745
-0.811849
-0.811953
-0.812058
-0.812163
-0.812269
-0.812376
-0.812484
-0.812592
-0.812702
-0.812812
-0.812923
-0.813035
-0.813148
-0.813261
-0.813376
-0.813491
-0.813607
-0.813724
-0.813843
-0.813962
-0.814081
-0.827956
-0.828019
-0.828121
-0.82825
-0.828393
-0.828543
-0.828695
-0.828847
-0.828997
-0.829146
-0.829294
-0.829441
-0.829586
-0.829729
-0.829872
-0.830013
-0.830152
-0.830291
-0.830428
-0.830564
-0.830699
-0.830834
-0.830968
-0.831101
-0.831233
-0.831365
-0.831497
-0.831628
-0.831759
-0.83189
-0.832021
-0.832152
-0.832283
-0.832414
-0.832545
-0.832677
-0.832808
-0.83294
-0.833072
-0.833205
-0.833337
-0.83347
-0.833604
-0.833737
-0.833872
-0.834006
-0.834141
-0.834276
-0.834412
-0.834548
-0.849101
-0.849205
-0.849312
-0.849421
-0.849532
-0.849645
-0.84976
-0.849876
-0.849993
-0.850111
-0.850229
-0.850347
-0.850466
-0.850585
-0.850705
-0.850825
-0.850945
-0.851065
-0.851186
-0.851308
-0.851429
-0.851552
-0.851675
-0.851798
-0.851923
-0.852048
-0.852173
-0.8523
-0.852427
-0.852555
-0.852684
-0.852814
-0.852945
-0.853076
-0.853209
-0.853342
-0.853476
-0.853611
-0.853747
-0.853884
-0.854021
-0.854159
-0.854298
-0.854437
-0.854578
-0.854718
-0.85486
-0.855001
-0.855144
-0.855287
-0.443014
-0.44306
-0.443107
-0.443155
-0.443203
-0.443253
-0.443304
-0.443356
-0.443409
-0.443463
-0.443518
-0.443575
-0.443632
-0.443691
-0.443751
-0.443812
-0.443874
-0.443938
-0.444003
-0.444069
-0.444136
-0.444204
-0.444274
-0.444345
-0.444417
-0.44449
-0.444565
-0.444641
-0.444719
-0.444797
-0.444877
-0.444958
-0.445041
-0.445125
-0.44521
-0.445296
-0.445384
-0.445473
-0.445564
-0.445656
-0.445749
-0.445843
-0.445939
-0.446036
-0.446134
-0.446234
-0.446335
-0.446437
-0.446541
-0.446646
-0.446752
-0.44686
-0.446969
-0.447079
-0.44719
-0.447303
-0.447417
-0.447532
-0.447649
-0.447767
-0.447886
-0.448006
-0.448127
-0.44825
-0.448374
-0.448499
-0.448626
-0.448753
-0.448882
-0.449012
-0.449143
-0.449276
-0.449409
-0.449544
-0.449679
-0.449816
-0.449954
-0.450093
-0.450233
-0.450374
-0.450516
-0.450659
-0.450803
-0.450948
-0.451094
-0.451241
-0.451389
-0.451538
-0.451687
-0.451838
-0.451989
-0.452141
-0.452293
-0.452447
-0.452601
-0.452755
-0.452911
-0.453066
-0.453223
-0.45338
-0.453537
-0.453695
-0.453853
-0.454011
-0.45417
-0.454329
-0.454488
-0.454647
-0.454806
-0.454965
-0.455125
-0.455284
-0.455444
-0.455603
-0.455763
-0.455922
-0.456081
-0.456239
-0.456396
-0.456553
-0.45671
-0.456866
-0.457021
-0.457175
-0.457328
-0.457481
-0.457632
-0.457782
-0.457922
-0.458073
-0.458217
-0.458357
-0.458494
-0.45863
-0.458764
-0.45889
-0.459004
-0.458855
-0.459282
-0.459404
-0.459523
-0.459656
-0.459774
-0.459859
-0.459901
-0.460109
-0.460213
-0.46032
-0.460423
-0.46044
-0.460345
-0.460728
-0.460814
-0.460891
-0.461011
-0.460583
-0.460846
-0.461093
-0.46102
-0.461071
-0.4611
-0.461039
-0.461266
-0.460931
-0.461021
-0.460227
-0.460384
-0.461224
-0.461205
-0.461198
-0.461198
-0.461205
-0.461223
-0.459808
-0.460493
-0.460666
-0.460672
-0.460684
-0.460703
-0.460718
-0.459675
-0.460651
-0.460678
-0.460667
-0.460779
-0.460063
-0.46051
-0.460545
-0.460563
-0.460586
-0.460611
-0.46063
-0.46061
-0.460635
-0.460664
-0.460673
-0.460677
-0.460678
-0.460584
-0.460625
-0.460573
-0.460621
-0.460614
-0.459992
-0.460753
-0.460718
-0.460681
-0.460647
-0.460629
-0.460596
-0.459814
-0.460649
-0.460592
-0.460533
-0.460475
-0.46041
-0.46034
-0.460266
-0.460189
-0.460108
-0.460025
-0.459934
-0.459753
-0.459702
-0.459595
-0.459474
-0.459374
-0.459231
-0.459012
-0.458837
-0.461298
-0.460381
-0.4603
-0.460257
-0.459486
-0.459721
-0.459755
-0.459664
-0.459598
-0.459536
-0.459459
-0.459371
-0.459273
-0.45919
-0.459055
-0.458906
-0.459065
-0.458519
-0.458564
-0.458041
-0.458064
-0.457935
-0.457771
-0.457651
-0.457494
-0.45732
-0.457159
-0.456935
-0.456841
-0.456656
-0.456454
-0.456234
-0.456024
-0.4558
-0.455582
-0.455366
-0.45515
-0.454937
-0.454727
-0.454523
-0.454324
-0.45413
-0.453942
-0.45376
-0.453584
-0.453414
-0.45325
-0.453092
-0.45294
-0.452793
-0.452652
-0.452515
-0.452384
-0.452257
-0.452134
-0.452015
-0.451901
-0.45179
-0.451683
-0.451579
-0.451478
-0.45138
-0.451285
-0.451193
-0.451104
-0.451017
-0.450932
-0.450848
-0.450766
-0.450685
-0.464166
-0.464237
-0.46431
-0.464384
-0.464459
-0.464534
-0.46461
-0.464687
-0.464765
-0.464845
-0.464925
-0.465006
-0.465088
-0.465171
-0.465255
-0.465341
-0.465427
-0.465514
-0.465603
-0.465693
-0.465783
-0.465875
-0.465968
-0.466062
-0.466158
-0.466254
-0.466352
-0.46645
-0.46655
-0.466651
-0.466754
-0.466857
-0.466962
-0.467068
-0.467175
-0.467283
-0.467393
-0.467503
-0.467615
-0.467728
-0.467843
-0.467958
-0.468075
-0.468193
-0.468312
-0.468433
-0.468555
-0.468678
-0.468802
-0.468927
-0.469054
-0.469182
-0.469311
-0.469441
-0.469573
-0.469706
-0.46984
-0.469975
-0.470112
-0.470249
-0.470388
-0.470529
-0.47067
-0.470813
-0.470956
-0.471101
-0.471247
-0.471395
-0.471543
-0.471693
-0.471844
-0.471996
-0.472149
-0.472303
-0.472458
-0.472615
-0.472772
-0.472931
-0.47309
-0.473251
-0.473412
-0.473575
-0.473738
-0.473903
-0.474068
-0.474234
-0.474401
-0.474569
-0.474738
-0.474908
-0.475078
-0.475249
-0.475421
-0.475593
-0.475766
-0.47594
-0.476114
-0.476289
-0.476464
-0.47664
-0.476816
-0.476993
-0.47717
-0.477348
-0.477526
-0.477704
-0.477872
-0.478053
-0.478237
-0.478415
-0.478595
-0.478775
-0.478956
-0.479137
-0.479318
-0.479501
-0.479678
-0.479855
-0.480039
-0.480222
-0.480402
-0.480583
-0.480765
-0.480946
-0.481128
-0.481312
-0.481494
-0.481678
-0.481861
-0.48178
-0.482184
-0.482385
-0.482573
-0.482769
-0.482967
-0.483169
-0.481866
-0.482831
-0.483069
-0.483285
-0.483508
-0.483735
-0.483961
-0.482879
-0.483831
-0.484099
-0.484292
-0.484483
-0.484775
-0.483104
-0.484088
-0.484999
-0.485174
-0.485338
-0.486034
-0.482757
-0.484861
-0.485264
-0.485083
-0.485298
-0.485149
-0.485557
-0.485536
-0.485784
-0.486029
-0.479255
-0.482998
-0.483426
-0.483635
-0.483838
-0.484036
-0.484228
-0.484425
-0.480876
-0.483414
-0.483576
-0.483695
-0.483809
-0.484005
-0.482197
-0.483037
-0.483376
-0.483402
-0.483419
-0.483819
-0.482899
-0.483601
-0.483631
-0.483661
-0.483694
-0.483725
-0.483757
-0.483412
-0.483614
-0.483668
-0.483677
-0.483685
-0.483685
-0.483614
-0.483599
-0.483575
-0.483549
-0.483502
-0.483373
-0.48406
-0.483976
-0.483775
-0.483688
-0.483598
-0.48347
-0.483328
-0.484169
-0.484028
-0.483889
-0.483768
-0.483644
-0.483519
-0.483394
-0.483266
-0.483136
-0.483008
-0.482764
-0.482618
-0.482478
-0.482314
-0.48216
-0.482008
-0.481811
-0.480688
-0.483111
-0.482693
-0.483336
-0.482603
-0.482294
-0.483836
-0.483491
-0.483217
-0.482981
-0.482774
-0.482585
-0.482394
-0.482048
-0.48193
-0.481753
-0.481596
-0.481439
-0.481244
-0.481067
-0.480791
-0.480688
-0.480474
-0.48028
-0.480122
-0.479928
-0.479634
-0.479465
-0.479287
-0.479089
-0.478885
-0.478671
-0.478453
-0.478236
-0.478018
-0.477799
-0.47758
-0.477364
-0.477151
-0.476941
-0.476735
-0.476534
-0.476338
-0.476147
-0.475961
-0.475781
-0.475606
-0.475437
-0.475274
-0.475115
-0.474961
-0.474813
-0.474669
-0.47453
-0.474395
-0.474264
-0.474137
-0.474014
-0.473895
-0.473779
-0.473666
-0.473557
-0.47345
-0.473347
-0.473246
-0.473148
-0.473053
-0.472959
-0.472868
-0.472777
-0.472687
-0.472599
-0.485632
-0.48572
-0.48581
-0.485902
-0.485993
-0.486086
-0.48618
-0.486276
-0.486372
-0.486469
-0.486567
-0.486667
-0.486768
-0.48687
-0.486973
-0.487077
-0.487182
-0.487288
-0.487396
-0.487505
-0.487615
-0.487726
-0.487839
-0.487952
-0.488067
-0.488183
-0.4883
-0.488418
-0.488538
-0.488659
-0.488781
-0.488904
-0.489029
-0.489154
-0.489281
-0.48941
-0.489539
-0.48967
-0.489801
-0.489935
-0.490069
-0.490205
-0.490341
-0.49048
-0.490619
-0.49076
-0.490901
-0.491045
-0.491189
-0.491335
-0.491482
-0.49163
-0.491779
-0.49193
-0.492082
-0.492235
-0.49239
-0.492545
-0.492702
-0.49286
-0.49302
-0.49318
-0.493342
-0.493505
-0.49367
-0.493835
-0.494002
-0.49417
-0.494339
-0.494509
-0.49468
-0.494852
-0.495026
-0.4952
-0.495376
-0.495552
-0.49573
-0.495909
-0.496088
-0.496268
-0.49645
-0.496632
-0.496815
-0.496999
-0.497184
-0.497369
-0.497555
-0.497742
-0.49793
-0.498118
-0.498307
-0.498497
-0.498686
-0.498876
-0.499067
-0.499259
-0.499453
-0.499643
-0.499838
-0.500035
-0.500232
-0.500431
-0.500631
-0.500833
-0.501036
-0.501242
-0.50107
-0.501492
-0.501702
-0.501911
-0.502121
-0.502327
-0.50253
-0.502736
-0.502938
-0.503143
-0.503333
-0.503261
-0.50384
-0.504056
-0.504275
-0.504502
-0.504732
-0.504622
-0.505046
-0.505306
-0.505544
-0.505791
-0.506045
-0.504679
-0.505836
-0.506178
-0.506279
-0.506555
-0.506847
-0.504443
-0.505785
-0.506316
-0.506555
-0.506699
-0.506894
-0.507068
-0.506437
-0.506676
-0.509198
-0.509395
-0.509495
-0.509737
-0.510008
-0.506231
-0.508054
-0.50929
-0.508033
-0.508455
-0.508862
-0.50176
-0.508215
-0.508648
-0.509027
-0.509358
-0.509751
-0.510092
-0.510438
-0.510792
-0.51117
-0.503842
-0.50679
-0.507245
-0.507532
-0.507804
-0.508073
-0.508418
-0.508694
-0.505632
-0.508347
-0.50856
-0.508156
-0.508366
-0.508604
-0.506155
-0.507612
-0.507765
-0.507437
-0.507739
-0.506194
-0.506968
-0.507106
-0.507182
-0.507252
-0.507314
-0.507368
-0.507423
-0.506567
-0.507049
-0.507087
-0.507103
-0.507126
-0.507145
-0.507159
-0.507172
-0.507196
-0.507224
-0.507025
-0.507319
-0.50731
-0.507105
-0.507073
-0.507157
-0.507088
-0.506944
-0.507408
-0.507344
-0.507238
-0.50717
-0.507073
-0.506976
-0.506862
-0.506741
-0.506605
-0.506465
-0.506165
-0.506287
-0.506116
-0.505962
-0.505829
-0.505758
-0.505608
-0.505585
-0.505401
-0.505568
-0.505234
-0.505037
-0.506103
-0.505899
-0.505646
-0.505491
-0.50544
-0.505185
-0.505062
-0.504871
-0.504683
-0.504498
-0.504305
-0.5041
-0.503914
-0.50371
-0.503487
-0.503091
-0.503023
-0.502807
-0.502647
-0.502439
-0.50218
-0.501969
-0.501786
-0.501569
-0.501347
-0.501125
-0.500902
-0.500678
-0.500453
-0.50023
-0.500007
-0.499787
-0.49957
-0.499356
-0.499145
-0.498939
-0.498738
-0.498541
-0.498349
-0.498162
-0.49798
-0.497803
-0.497631
-0.497463
-0.497301
-0.497143
-0.496989
-0.49684
-0.496695
-0.496554
-0.496418
-0.496284
-0.496155
-0.496029
-0.495906
-0.495787
-0.495671
-0.495558
-0.495447
-0.49534
-0.495236
-0.495134
-0.495034
-0.494937
-0.494842
-0.494747
-0.494654
-0.494564
-0.506904
-0.507021
-0.507141
-0.507262
-0.507383
-0.507504
-0.507627
-0.507751
-0.507875
-0.508
-0.508126
-0.508254
-0.508382
-0.508511
-0.508641
-0.508771
-0.508903
-0.509036
-0.50917
-0.509305
-0.50944
-0.509577
-0.509715
-0.509853
-0.509993
-0.510134
-0.510275
-0.510418
-0.510562
-0.510707
-0.510853
-0.511
-0.511148
-0.511297
-0.511448
-0.511599
-0.511752
-0.511905
-0.51206
-0.512216
-0.512373
-0.512532
-0.512691
-0.512852
-0.513014
-0.513177
-0.513341
-0.513507
-0.513674
-0.513842
-0.514011
-0.514181
-0.514353
-0.514526
-0.5147
-0.514875
-0.515052
-0.51523
-0.515409
-0.515589
-0.515771
-0.515954
-0.516138
-0.516323
-0.51651
-0.516697
-0.516886
-0.517076
-0.517267
-0.517459
-0.517652
-0.517847
-0.518042
-0.518238
-0.518436
-0.518634
-0.518833
-0.519033
-0.519234
-0.519436
-0.519639
-0.519842
-0.520046
-0.52025
-0.520455
-0.520661
-0.520867
-0.521073
-0.521279
-0.521486
-0.521694
-0.521901
-0.522091
-0.522302
-0.522522
-0.522713
-0.522922
-0.522897
-0.523233
-0.523438
-0.523652
-0.523853
-0.524048
-0.52424
-0.524428
-0.524554
-0.5248
-0.525368
-0.525541
-0.525737
-0.52595
-0.526059
-0.526319
-0.526492
-0.526659
-0.526836
-0.5257
-0.526426
-0.526869
-0.527025
-0.527181
-0.527407
-0.52695
-0.527352
-0.528077
-0.528228
-0.528375
-0.528572
-0.52872
-0.525421
-0.528852
-0.529021
-0.528878
-0.529332
-0.52915
-0.529373
-0.532704
-0.532876
-0.533068
-0.533307
-0.533645
-0.533964
-0.524885
-0.530149
-0.530549
-0.530833
-0.531027
-0.531432
-0.531697