/*--------------------------------*- C++ -*----------------------------------*\
| =========                 |                                                 |
| \\      /  F ield         | OpenFOAM: The Open Source CFD Toolbox           |
|  \\    /   O peration     | Version:  2.4.0                                 |
|   \\  /    A nd           | Web:      www.OpenFOAM.org                      |
|    \\/     M anipulation  |                                                 |
\*---------------------------------------------------------------------------*/
FoamFile
{
    version     2.0;
    format      ascii;
    class       volScalarField;
    location    "3";
    object      p_rgh;
}
// * * * * * * * * * * * * * * * * * * * * * * * * * * * * * * * * * * * * * //

dimensions      [1 -1 -2 0 0 0 0];

internalField   nonuniform List<scalar> 
8000
(
29.8408
29.8309
29.825
29.8258
29.8335
29.8473
29.8675
29.8934
29.9257
29.9632
30.0094
30.0691
30.1566
30.2646
30.2569
29.2757
26.0819
19.7575
6.60301
-1.92564
-0.20665
0.00309065
0.0146922
0.0136664
0.0122092
0.0125488
0.0131403
0.0136235
0.0140364
0.0151723
0.0154921
0.0156736
0.0161642
0.0164073
0.0166924
0.0169273
0.0166969
0.0168796
0.0170571
0.0171465
0.0174164
0.0179135
0.0180613
0.0165467
0.0165317
0.0166165
0.0166956
0.0167964
0.0168525
0.0169343
31.2312
31.1778
31.13
31.0975
31.0823
31.0795
31.0918
31.1149
31.1587
31.2315
31.3529
31.4371
31.1533
28.9144
24.7779
14.5266
0.00967021
0.105268
0.662948
0.0199109
0.0304355
0.0286195
0.0272502
0.0270121
0.0266303
0.026386
0.0261287
0.0256215
0.0252104
0.024929
0.0246651
0.0244058
0.0241546
0.0239246
0.0236934
0.0234813
0.0232898
0.0231999
0.0232349
0.0230825
0.0219783
0.0218518
0.02172
0.0215863
0.0216356
0.0231699
0.0204511
0.0202996
0.0201569
0.0201096
29.4517
29.4334
29.4172
29.4057
29.3987
29.3922
29.3984
29.4564
29.6141
29.6289
28.1833
23.1809
21.248
7.46587
-0.864441
-0.188469
0.0153951
0.0490417
0.048085
0.027737
0.0279191
0.0280939
0.0277687
0.0273935
0.0269903
0.0255098
0.0250713
0.0247029
0.0243501
0.0242247
0.0234922
0.0232645
0.0241875
0.0238855
0.0233474
0.0230077
0.0227839
0.022783
0.0226166
0.0224406
0.0231049
0.0221077
0.0222828
0.022192
0.0221578
0.0223996
0.0223632
0.0222309
0.0219661
0.0218168
26.4156
26.4012
26.3746
26.3366
26.2914
26.2754
26.3116
26.1962
25.0742
21.957
12.4958
-3.40702
0.80502
1.29012
0.0596244
0.0661882
0.0588411
0.0420672
0.042231
0.041694
0.0409643
0.0400825
0.0391857
0.0383387
0.0375165
0.0377109
0.0363698
0.035438
0.0347223
0.0340375
0.0333864
0.032764
0.032143
0.0317085
0.0313663
0.0306681
0.029955
0.0294298
0.0289041
0.0283841
0.0278702
0.0273629
0.0269453
0.0290945
0.0285693
0.0308594
0.0295551
0.0313268
0.0305935
0.0299356
25.0355
25.052
25.0669
25.0988
25.177
25.2857
25.071
23.7345
15.7022
-0.544884
0.599505
0.162388
0.019799
0.0223883
0.0937581
0.093602
0.0910616
0.078759
0.0680245
0.0610035
0.056406
0.0531099
0.0505374
0.0484255
0.0466909
0.0452663
0.0440844
0.043031
0.0419444
0.0406939
0.0399295
0.0392552
0.0385615
0.0377176
0.0370978
0.0364936
0.0359018
0.0391087
0.0373156
0.0366716
0.0362318
0.0358267
0.035438
0.0350701
0.034734
0.0344144
0.0340822
0.0337753
0.0336755
0.0334341
27.6885
27.8022
27.9282
28.0603
28.2094
28.127
27.5537
27.4856
-0.958769
-0.0387143
2.22504
2.53955
2.13577
1.62655
0.693651
0.587245
0.519463
0.409649
0.328001
0.252493
0.194974
0.153133
0.122133
0.0989374
0.0814248
0.0682509
0.0584468
0.0513315
0.0463215
0.0429522
0.0407855
0.0393244
0.0382421
0.0374125
0.0369023
0.0364277
0.0361538
0.035844
0.0339921
0.0336797
0.0333431
0.0329729
0.0327108
0.0323597
0.0320805
0.031818
0.0315851
0.0314591
0.0314951
0.0302687
26.0248
26.1743
26.3125
26.4332
26.6335
26.9567
26.8541
24.2626
16.053
11.2916
10.5824
10.2181
10.0816
10.0622
9.35042
8.16872
6.95016
6.04194
5.28732
4.52097
3.80366
3.13847
2.54806
2.04206
1.61353
1.25655
0.963803
0.726855
0.537243
0.388592
0.276446
0.195646
0.137438
0.095344
0.0673676
0.0510648
0.0421068
0.036872
0.0338089
0.0322547
0.0315526
0.0312129
0.0309876
0.0307773
0.0304773
0.0303087
0.0301362
0.0301004
0.029674
0.0294803
38.5966
38.5618
38.5403
38.5383
38.5495
38.5821
38.6404
38.7272
38.8265
38.4532
37.8831
32.2407
31.9537
32.9563
32.9232
32.0986
30.8594
29.2493
27.6751
26.0764
24.3073
22.3758
20.3576
18.2952
16.2216
14.1813
12.223
10.4118
8.79585
7.34327
5.9748
4.67376
3.53068
2.58164
1.81128
1.2052
0.757807
0.452865
0.256086
0.136055
0.0717659
0.042831
0.0317058
0.0279382
0.0268335
0.026542
0.0264272
0.0263548
0.0262845
0.0261357
42.6424
42.5457
42.4479
42.3728
42.3176
42.283
42.2663
42.2824
42.296
42.3171
42.3106
42.2834
42.2478
42.2839
42.312
42.4741
42.5654
42.2738
41.6663
41.4498
41.4147
41.2767
40.9872
40.5434
39.8929
38.9652
37.6823
35.9882
33.8844
31.4682
28.8567
26.1032
23.1477
20.0309
16.8614
13.7654
10.8583
8.21179
5.86601
3.82508
2.2133
1.10044
0.460699
0.165936
0.057892
0.02999
0.0254824
0.0247071
0.0243655
0.0242218
45.1744
45.1148
45.0518
44.9961
44.9472
44.9034
44.8642
44.8314
44.7985
44.7724
44.7505
44.7366
44.7298
44.7326
44.7449
44.7647
44.786
44.8041
44.8211
44.8341
44.8433
44.8731
44.9232
44.9575
44.9914
45.0266
45.0145
45.0723
45.1327
44.868
44.0997
43.7236
43.2802
42.4877
41.2305
39.3657
36.8067
33.5547
29.6777
25.2564
20.2943
15.0147
9.91393
5.63953
2.55755
0.849733
0.205474
0.0508039
0.0291212
0.0250485
46.3499
46.3083
46.2627
46.2219
46.1856
46.1534
46.1247
46.1005
46.0773
46.0583
46.0427
46.0309
46.0222
46.0172
46.0154
46.017
46.0216
46.0292
46.0397
46.053
46.0695
46.0889
46.1113
46.1364
46.1642
46.195
46.2291
46.2658
46.2996
46.3294
46.3568
46.3812
46.4063
46.437
46.4778
46.5176
46.477
45.9888
45.1494
44.4289
42.969
40.2977
36.0736
29.9435
22.1375
13.6652
6.69094
2.61715
0.924661
0.363544
47.93
47.8978
47.8644
47.8355
47.8082
47.784
47.7599
47.7397
47.7204
47.7036
47.6883
47.6758
47.6654
47.657
47.6509
47.6468
47.6448
47.6449
47.6471
47.6513
47.6577
47.6661
47.6767
47.6894
47.7043
47.7214
47.7408
47.7623
47.7859
47.812
47.8406
47.872
47.9068
47.9456
47.9883
48.0325
48.0733
48.1116
48.1487
48.1881
48.2274
48.2195
47.6738
46.6452
44.8649
40.2573
30.7909
18.3899
8.72439
3.87435
47.9637
47.9482
47.9296
47.9126
47.8955
47.8798
47.8636
47.8499
47.8353
47.8226
47.8098
47.7978
47.7866
47.7763
47.7661
47.7568
47.7481
47.74
47.7323
47.7251
47.7182
47.7117
47.7055
47.6995
47.6936
47.6878
47.6819
47.6759
47.6697
47.6632
47.6563
47.6489
47.641
47.6324
47.6231
47.613
47.6017
47.5901
47.578
47.5653
47.5502
47.5313
47.509
47.4778
47.4047
46.2533
42.7926
34.361
20.8548
10.1691
49.2799
49.2651
49.2504
49.2377
49.2262
49.216
49.2062
49.1986
49.1909
49.1852
49.1792
49.1748
49.1714
49.1691
49.1678
49.1673
49.168
49.1697
49.1723
49.176
49.1807
49.1863
49.193
49.2007
49.2093
49.2189
49.2295
49.2411
49.2536
49.2671
49.2816
49.297
49.3134
49.3307
49.3489
49.3683
49.3876
49.4089
49.4314
49.4559
49.4797
49.4952
49.4675
49.3512
48.3898
45.4271
40.2991
32.487
21.3185
10.9081
49.2413
49.2363
49.2298
49.2234
49.218
49.2127
49.2093
49.2034
49.1995
49.1956
49.1914
49.1881
49.1851
49.1826
49.1806
49.1785
49.1772
49.1762
49.1756
49.1755
49.1758
49.1764
49.1774
49.1789
49.1807
49.183
49.1858
49.189
49.1927
49.1968
49.2014
49.2065
49.212
49.2181
49.2244
49.2324
49.2406
49.2509
49.2535
49.24
49.137
48.8842
47.3052
43.3007
37.0918
29.0138
20.5459
13.3872
8.58583
5.26103
50.0868
50.0848
50.0833
50.0823
50.0826
50.0817
50.0836
50.0824
50.0839
50.0845
50.0848
50.0859
50.0872
50.0889
50.091
50.093
50.0956
50.0985
50.1016
50.1051
50.1089
50.113
50.1172
50.1219
50.1268
50.1321
50.1375
50.1434
50.1494
50.1558
50.1623
50.1691
50.176
50.1843
50.1956
50.2103
50.2126
50.1588
49.8534
49.2751
46.0564
40.4734
33.0849
24.6339
16.5442
9.98043
5.43147
2.72654
1.5083
1.02724
50.2675
50.2712
50.275
50.2784
50.2831
50.2854
50.2927
50.2935
50.2985
50.3007
50.3039
50.3072
50.3109
50.3147
50.319
50.323
50.3273
50.3318
50.3365
50.3414
50.3466
50.3521
50.3579
50.3641
50.3706
50.3775
50.385
50.3927
50.4012
50.4097
50.4195
50.4306
50.447
50.4665
50.4698
50.3286
49.8084
48.3594
42.06
33.7112
24.227
15.2613
8.68181
5.04164
2.84386
1.45025
0.647101
0.233877
0.119989
0.0973212
50.7965
50.8009
50.8057
50.81
50.8156
50.8176
50.826
50.827
50.8317
50.8335
50.8362
50.8384
50.8408
50.8429
50.845
50.847
50.849
50.851
50.8531
50.8554
50.8578
50.8602
50.8634
50.8665
50.8705
50.8746
50.8798
50.8849
50.8917
50.9006
50.9211
50.9318
50.8926
50.5311
49.5563
45.7773
36.1466
24.7576
14.8576
7.4239
3.37175
0.891341
0.377116
0.245557
0.0960729
0.0612731
0.0557513
0.0439236
0.0362335
0.0331086
51.3525
51.359
51.3663
51.3726
51.3795
51.3823
51.3868
51.3892
51.3893
51.3906
51.3916
51.3916
51.3909
51.3893
51.3869
51.3836
51.3794
51.3742
51.368
51.3608
51.3525
51.343
51.3326
51.3207
51.3075
51.2923
51.2762
51.2638
51.2672
51.2802
51.1788
50.544
49.1893
43.206
28.4856
14.5633
6.42783
1.73041
0.153339
-0.012096
0.112712
0.0898683
0.0370586
0.0360216
0.0348618
0.0334708
0.0332537
0.0333234
0.0332994
0.0332449
51.6413
51.6553
51.6686
51.679
51.6872
51.6908
51.6943
51.6952
51.6922
51.6884
51.6824
51.6738
51.6629
51.6494
51.6334
51.6146
51.5931
51.5685
51.5411
51.5102
51.4761
51.4381
51.3966
51.3499
51.3
51.2493
51.2079
51.1634
51.0191
50.0194
49.5836
39.0324
22.2463
9.28168
-0.0782213
-0.0694975
0.0971633
0.0388482
0.0430275
0.0356959
0.0334923
0.0346324
0.0350165
0.0349008
0.0348988
0.0348669
0.0347678
0.0346867
0.0345972
0.0344979
0.0169886
0.0168318
0.0171151
0.0171442
0.0172297
0.018278
0.0184346
0.0175578
0.0173363
0.0169599
0.0169263
0.0166919
0.0166422
0.0166397
0.0166759
0.0166475
0.0166719
0.0167296
0.0177115
0.0177138
0.017562
0.0174828
0.0174701
0.0175121
0.0174736
0.0174605
0.0174548
0.01745
0.0174647
0.0175962
0.0177379
0.016505
0.0164003
0.0163719
0.0163472
0.0163269
0.0162978
0.0162641
0.016222
0.0161777
0.0161308
0.0160807
0.0160276
0.0159715
0.0159124
0.0158501
0.0157847
0.0157162
0.0156452
0.0155704
0.0200311
0.0199193
0.0198566
0.0198368
0.0203783
0.0196436
0.0195745
0.0196485
0.019276
0.0194027
0.019826
0.0197554
0.0190182
0.01882
0.0186746
0.01862
0.0184798
0.0184046
0.0184027
0.0197059
0.0196232
0.0193266
0.0191395
0.0190366
0.0189236
0.0188389
0.0187211
0.0187749
0.0186483
0.0185271
0.0199801
0.01902
0.0188162
0.0186915
0.0185716
0.0184539
0.0183373
0.0182214
0.0181058
0.0179903
0.0178748
0.0177591
0.0176433
0.0175272
0.0174107
0.0172936
0.0171758
0.0170572
0.0169383
0.0168179
0.0217734
0.0217344
0.0216981
0.0216628
0.0217073
0.02209
0.0220021
0.0218677
0.0219228
0.0218746
0.0219556
0.022033
0.0219644
0.0217101
0.0214651
0.0212909
0.0212838
0.0211059
0.0210859
0.0226697
0.021474
0.0212629
0.0211428
0.0210373
0.0209279
0.0208215
0.0207205
0.0206999
0.0205459
0.0204173
0.0203145
0.0202005
0.0200788
0.0199528
0.019825
0.0196971
0.019568
0.0194378
0.0193061
0.019173
0.0190383
0.0189018
0.0187637
0.0186237
0.0184818
0.018338
0.0181922
0.0180444
0.0178952
0.0177433
0.0294582
0.0291041
0.0287579
0.0284205
0.0280982
0.027787
0.0276355
0.0272679
0.026993
0.0266619
0.0265433
0.0275588
0.0265043
0.0260809
0.0257802
0.0255344
0.0252712
0.0250956
0.0254905
0.0251382
0.0247972
0.0245472
0.0243301
0.0240977
0.0238598
0.0237004
0.0238118
0.0233732
0.0231617
0.0229527
0.0227451
0.0225404
0.0223371
0.0221346
0.0219327
0.0217311
0.0215297
0.0213283
0.0211269
0.0209253
0.0207235
0.0205213
0.0203186
0.0201153
0.0199113
0.0197065
0.0195009
0.0192945
0.0190879
0.0188796
0.0320757
0.0316276
0.0313335
0.0310442
0.0307522
0.0304581
0.0302226
0.0301212
0.0292846
0.0297779
0.0294651
0.0315337
0.0301768
0.0296828
0.0293838
0.0291163
0.028648
0.0288719
0.0280524
0.027816
0.0275537
0.027243
0.0269683
0.0266969
0.0264254
0.0261537
0.0258865
0.0256194
0.0253522
0.0250851
0.0248189
0.0245532
0.0242882
0.0240237
0.0237596
0.0234959
0.0232325
0.0229693
0.0227063
0.0224434
0.0221806
0.0219179
0.0216553
0.0213928
0.0211303
0.020868
0.0206057
0.0203436
0.0200823
0.0198211
0.030011
0.0297832
0.0295721
0.0294316
0.0292544
0.0290615
0.0293945
0.0286087
0.0284046
0.0282108
0.0280248
0.0278581
0.0276775
0.0274892
0.0272984
0.0271129
0.0269343
0.0267589
0.0265793
0.0263924
0.0262082
0.0260236
0.0258361
0.0256455
0.0254527
0.0252569
0.0250582
0.0248566
0.0246516
0.0244432
0.0242313
0.0240158
0.0237967
0.0235741
0.0233481
0.0231187
0.022886
0.0226502
0.0224113
0.0221695
0.021925
0.0216779
0.0214283
0.0211765
0.0209226
0.0206667
0.020409
0.0201498
0.0198896
0.0196274
0.0292973
0.0291136
0.0289376
0.0287588
0.0285889
0.028422
0.0282577
0.0280948
0.0279277
0.0277697
0.0276117
0.0274583
0.0273055
0.0271518
0.0269963
0.0268389
0.0266799
0.0265194
0.0263566
0.0261906
0.0260214
0.0258489
0.0256727
0.0254926
0.0253083
0.0251197
0.0249266
0.024729
0.0245267
0.0243198
0.0241083
0.0238923
0.0236718
0.0234471
0.0232182
0.0229854
0.0227488
0.0225087
0.0222652
0.0220186
0.021769
0.0215168
0.0212621
0.0210051
0.020746
0.020485
0.0202222
0.0199579
0.0196926
0.0194262
0.0260426
0.0259456
0.0258479
0.0257474
0.025649
0.0255519
0.0254556
0.0253595
0.0252632
0.0251666
0.0250698
0.0249738
0.0248778
0.0247813
0.0246837
0.0245843
0.0244826
0.0243782
0.0242706
0.0241592
0.0240436
0.0239234
0.0237983
0.023668
0.0235322
0.0233907
0.0232433
0.02309
0.0229308
0.0227657
0.0225949
0.0224183
0.0222362
0.0220488
0.0218563
0.0216589
0.0214568
0.0212504
0.0210399
0.0208254
0.0206073
0.0203858
0.020161
0.0199332
0.0197026
0.0194694
0.0192337
0.0189956
0.0187556
0.0185133
0.0241848
0.0241463
0.0241762
0.023986
0.0239181
0.0238523
0.0237872
0.023721
0.0236512
0.0235809
0.0235094
0.0234383
0.0233665
0.0232933
0.023218
0.02314
0.0230587
0.0229736
0.0228844
0.0227907
0.0226921
0.0225884
0.0224793
0.0223647
0.0222444
0.0221183
0.0219865
0.0218491
0.021706
0.0215575
0.0214037
0.0212449
0.0210812
0.0209128
0.0207401
0.0205633
0.0203825
0.020198
0.0200101
0.0198188
0.0196245
0.0194273
0.0192273
0.0190247
0.0188196
0.0186121
0.0184024
0.0181904
0.0179765
0.0177609
0.022298
0.0211799
0.0210132
0.0209658
0.0209021
0.020868
0.0208443
0.0208587
0.0207876
0.020765
0.020738
0.0207128
0.0206873
0.0206603
0.0206311
0.0205991
0.0205639
0.020525
0.0204819
0.0204343
0.0203818
0.0203243
0.0202614
0.0201932
0.0201194
0.0200401
0.0199552
0.0198649
0.0197692
0.0196683
0.0195623
0.0194515
0.0193361
0.0192161
0.0190919
0.0189637
0.0188315
0.0186957
0.0185562
0.0184134
0.0182672
0.0181179
0.0179656
0.0178102
0.0176521
0.0174911
0.0173274
0.0171609
0.0169919
0.0168205
0.156022
0.0682948
0.034662
0.0233369
0.0197111
0.0184301
0.0179155
0.0177479
0.0177276
0.0177223
0.0177184
0.0177419
0.0177681
0.0177954
0.0178231
0.0178501
0.0178758
0.0178993
0.01792
0.0179373
0.0179506
0.0179595
0.0179636
0.0179625
0.017956
0.017944
0.0179263
0.0179029
0.0178738
0.017839
0.0177986
0.0177528
0.0177016
0.0176452
0.0175837
0.0175173
0.0174462
0.0173704
0.0172902
0.0172056
0.0171168
0.0170239
0.016927
0.0168263
0.0167217
0.0166134
0.0165016
0.0163861
0.0162672
0.0161452
1.76996
0.777915
0.315362
0.121643
0.0511793
0.0276394
0.0198135
0.017063
0.0160506
0.0157542
0.0157393
0.0157695
0.0158092
0.0158548
0.0159048
0.015958
0.0160136
0.0160705
0.0161277
0.0161844
0.0162398
0.016293
0.0163435
0.0163905
0.0164334
0.016472
0.0165057
0.0165344
0.0165577
0.0165756
0.016588
0.0165949
0.0165962
0.0165919
0.0165822
0.0165671
0.0165467
0.0165211
0.0164903
0.0164545
0.0164138
0.0163682
0.0163179
0.016263
0.0162035
0.0161395
0.0160712
0.0159985
0.0159216
0.0158407
4.8087
2.26434
0.983339
0.383453
0.144031
0.0593272
0.0309876
0.0209954
0.0172188
0.0159215
0.0156505
0.0156538
0.0156713
0.0156966
0.0157281
0.0157652
0.0158072
0.0158533
0.0159028
0.0159549
0.0160087
0.0160633
0.016118
0.0161718
0.0162241
0.0162741
0.0163214
0.0163655
0.0164059
0.0164423
0.0164746
0.0165024
0.0165257
0.0165444
0.0165584
0.0165677
0.0165723
0.0165721
0.0165673
0.0165578
0.0165437
0.016525
0.0165018
0.0164741
0.016442
0.0164055
0.0163647
0.0163196
0.0162702
0.0162169
5.22486
2.50816
1.11844
0.447027
0.169996
0.0690399
0.0349871
0.0224255
0.0176073
0.0160074
0.0154266
0.0154385
0.0154817
0.015536
0.0155984
0.0156683
0.0157451
0.0158274
0.0159142
0.016004
0.0160956
0.0161879
0.0162795
0.0163696
0.0164573
0.0165418
0.0166224
0.0166987
0.0167704
0.016837
0.0168985
0.0169546
0.0170053
0.0170506
0.0170904
0.0171248
0.0171538
0.0171775
0.0171959
0.0172092
0.0172174
0.0172206
0.0172189
0.0172125
0.0172014
0.0171857
0.0171656
0.0171411
0.0171123
0.0170794
2.8854
1.50359
0.759483
0.35608
0.15948
0.0730185
0.0379644
0.0242894
0.0191261
0.0172849
0.0167211
0.016725
0.0167766
0.0168438
0.016921
0.0170076
0.0171021
0.0172027
0.0173073
0.017414
0.0175211
0.0176273
0.0177313
0.017832
0.0179286
0.0180205
0.0181072
0.0181883
0.0182636
0.018333
0.0183963
0.0184536
0.018505
0.0185504
0.01859
0.0186239
0.0186522
0.0186751
0.0186926
0.0187049
0.0187122
0.0187145
0.018712
0.0187048
0.0186931
0.018677
0.0186565
0.0186318
0.0186031
0.0185705
0.698323
0.375348
0.206444
0.118366
0.0649362
0.0382654
0.0267749
0.0222819
0.0207348
0.020321
0.0202204
0.0202216
0.0202338
0.0202553
0.0202868
0.0203263
0.0203719
0.0204215
0.0204735
0.0205263
0.0205786
0.0206294
0.0206778
0.020723
0.0207646
0.0208021
0.0208353
0.020864
0.020888
0.0209074
0.0209222
0.0209323
0.0209379
0.0209389
0.0209356
0.0209279
0.020916
0.0209
0.0208799
0.0208559
0.020828
0.0207964
0.0207611
0.0207222
0.0206799
0.0206342
0.0205852
0.020533
0.0204776
0.0204192
0.0818092
0.0595956
0.0439327
0.0347091
0.0291201
0.0261641
0.0249537
0.0245311
0.0243737
0.0243306
0.0242864
0.0242464
0.0242169
0.0241944
0.024177
0.024163
0.0241509
0.0241396
0.0241281
0.0241157
0.0241019
0.0240861
0.024068
0.0240473
0.0240239
0.0239976
0.0239685
0.0239364
0.0239013
0.0238633
0.0238224
0.0237787
0.0237321
0.0236828
0.0236307
0.023576
0.0235187
0.0234588
0.0233964
0.0233316
0.0232644
0.0231948
0.0231229
0.0230487
0.0229724
0.0228939
0.0228132
0.0227305
0.0226457
0.022559
0.0313523
0.0303929
0.0298944
0.0296565
0.0295254
0.0294399
0.029337
0.0292134
0.0290886
0.0289658
0.0288502
0.028739
0.028631
0.0285254
0.0284218
0.0283196
0.0282184
0.028118
0.028018
0.0279182
0.0278184
0.0277186
0.0276185
0.0275181
0.0274174
0.0273162
0.0272146
0.0271124
0.0270096
0.0269062
0.0268022
0.0266974
0.026592
0.0264858
0.0263789
0.0262712
0.0261627
0.0260533
0.0259432
0.0258322
0.0257203
0.0256076
0.0254941
0.0253796
0.0252643
0.0251481
0.025031
0.024913
0.024794
0.0246743
0.0331917
0.0331172
0.0330092
0.0328771
0.0327321
0.0325814
0.0324288
0.0322767
0.0321259
0.0319765
0.0318284
0.0316817
0.0315365
0.0313927
0.0312503
0.0311093
0.0309697
0.0308312
0.0306939
0.0305577
0.0304224
0.030288
0.0301543
0.0300212
0.0298887
0.0297567
0.029625
0.0294937
0.0293625
0.0292315
0.0291006
0.0289697
0.0288387
0.0287077
0.0285765
0.0284451
0.0283136
0.0281818
0.0280497
0.0279174
0.0277847
0.0276517
0.0275184
0.0273847
0.0272507
0.0271162
0.0269815
0.0268463
0.0267106
0.0265747
0.0343944
0.0342882
0.0341798
0.0340695
0.0339575
0.0338439
0.0337289
0.0336128
0.0334958
0.0333781
0.0332599
0.0331413
0.0330224
0.0329032
0.0327836
0.0326638
0.0325437
0.0324232
0.0323023
0.032181
0.0320592
0.0319368
0.0318138
0.0316902
0.031566
0.031441
0.0313153
0.0311887
0.0310614
0.0309333
0.0308043
0.0306745
0.0305438
0.0304123
0.0302799
0.0301466
0.0300125
0.0298776
0.0297419
0.0296053
0.029468
0.0293299
0.0291911
0.0290517
0.0289115
0.0287708
0.0286296
0.0284877
0.0283453
0.0282026
0.0155087
0.0154631
0.0154156
0.0153676
0.0153188
0.0152689
0.015218
0.0151659
0.0151128
0.0150585
0.0150031
0.0149466
0.0148889
0.0148301
0.0147701
0.0147089
0.0146465
0.0145829
0.0145181
0.0144521
0.0143848
0.0143163
0.0142466
0.0141756
0.0141034
0.0140298
0.013955
0.013879
0.0138016
0.0137229
0.013643
0.0135617
0.0134791
0.0133952
0.01331
0.0132235
0.0131357
0.0130465
0.012956
0.0128642
0.0127711
0.0126767
0.0125809
0.0124838
0.0123854
0.0122857
0.0121846
0.0120823
0.0119786
0.0118737
0.0117674
0.0116598
0.011551
0.0114408
0.0113294
0.0112167
0.0111027
0.0109874
0.0108709
0.0107531
0.010634
0.0105137
0.0103922
0.0102694
0.0101455
0.0100203
0.00989385
0.00976624
0.00963745
0.00950748
0.00937634
0.00924405
0.00911061
0.00897604
0.00884036
0.00870357
0.00856569
0.00842674
0.00828674
0.00814569
0.00800362
0.00786055
0.0077165
0.00757148
0.00742553
0.00727865
0.00713088
0.00698224
0.00683275
0.00668244
0.00653134
0.00637948
0.00622689
0.0060736
0.00591964
0.00576502
0.0056098
0.00545402
0.00529773
0.00514095
0.0049837
0.00482601
0.0046679
0.00450939
0.00435052
0.00419164
0.00403304
0.00387417
0.00371508
0.00355583
0.00339641
0.00323693
0.00307744
0.00291798
0.00275848
0.00259934
0.00244108
0.00228357
0.00212612
0.00196903
0.00181256
0.00165664
0.00150142
0.00134716
0.00119385
0.00104155
0.000890143
0.000740614
0.000601817
0.000450646
0.000306257
0.000166156
2.86916e-05
-0.000106935
-0.000240627
-0.000367575
-0.000469166
-0.000303289
-0.000749423
-0.000880939
-0.000999814
-0.00113264
-0.00125113
-0.0013287
-0.00136572
-0.00158338
-0.0016896
-0.00179703
-0.00189937
-0.00189173
-0.00178462
-0.00219258
-0.00229047
-0.00236755
-0.00248513
-0.00200118
-0.00227942
-0.00256159
-0.00249579
-0.00254561
-0.00254231
-0.0024751
-0.00271589
-0.00240668
-0.00249088
-0.00154625
-0.00171744
-0.00265583
-0.0026797
-0.00267361
-0.00267412
-0.00268114
-0.00269117
-0.00114384
-0.00188047
-0.00212268
-0.00214815
-0.00216049
-0.00217871
-0.0021544
-0.00102875
-0.00207827
-0.00215018
-0.00214261
-0.00224937
-0.00147071
-0.00195054
-0.00201779
-0.00203855
-0.00206148
-0.00208629
-0.00210539
-0.00207979
-0.00210627
-0.00213873
-0.00214697
-0.00215142
-0.0021531
-0.00204802
-0.00209351
-0.00204643
-0.00208937
-0.001989
-0.00131438
-0.0021438
-0.0021831
-0.00215585
-0.002122
-0.00210199
-0.00198252
-0.00113342
-0.00204791
-0.00205931
-0.00200726
-0.00194832
-0.00188374
-0.00181386
-0.00173991
-0.00166221
-0.00158109
-0.00149673
-0.00138747
-0.00119799
-0.00115095
-0.00105925
-0.00093849
-0.000836154
-0.000505415
1.31138e-05
0.000188443
-0.00253677
-0.00169664
-0.00161588
-0.00126784
-0.000415765
-0.000674318
-0.00104847
-0.00112348
-0.00106587
-0.00100375
-0.000927148
-0.000838531
-0.000739337
-0.0006429
-0.000441928
-0.000291911
-0.000479151
1.9187e-05
-7.56016e-06
0.000563504
0.00052315
0.000608797
0.000771631
0.000896281
0.00105728
0.00123318
0.00145819
0.00168575
0.00176934
0.00190364
0.00210838
0.00231657
0.00251091
0.0027295
0.00294647
0.0031602
0.00337494
0.00358744
0.00379601
0.00399993
0.00419873
0.00439203
0.00457956
0.00476116
0.00493674
0.0051063
0.00526992
0.00542771
0.00557984
0.0057265
0.0058679
0.00600427
0.00613584
0.00626284
0.00638551
0.00650405
0.00661867
0.00672955
0.00683688
0.00694084
0.00704157
0.00713924
0.007234
0.00732602
0.00741548
0.0075026
0.00758771
0.00767131
0.00775371
0.00783405
0.0167222
0.0166515
0.0165778
0.0165039
0.0164294
0.016354
0.0162777
0.0162004
0.0161222
0.016043
0.0159628
0.0158816
0.0157993
0.0157161
0.0156318
0.0155465
0.0154601
0.0153726
0.015284
0.0151943
0.0151035
0.0150116
0.0149186
0.0148244
0.0147291
0.0146327
0.0145351
0.0144363
0.0143363
0.0142352
0.0141329
0.0140294
0.0139247
0.0138188
0.0137117
0.0136034
0.0134939
0.0133832
0.0132713
0.0131581
0.0130438
0.0129282
0.0128113
0.0126933
0.012574
0.0124535
0.0123318
0.0122088
0.0120846
0.0119592
0.0118325
0.0117046
0.0115754
0.0114451
0.0113135
0.0111806
0.0110466
0.0109113
0.0107748
0.010637
0.0104981
0.0103579
0.0102165
0.0100739
0.00993015
0.00978518
0.00963902
0.00949169
0.00934319
0.00919354
0.00904273
0.00889079
0.00873772
0.00858355
0.00842827
0.00827191
0.00811449
0.00795601
0.0077965
0.00763598
0.00747446
0.00731197
0.00714852
0.00698414
0.00681886
0.00665269
0.00648566
0.0063178
0.00614913
0.00597966
0.00580941
0.00563845
0.00546686
0.00529464
0.00512174
0.00494812
0.00477388
0.00459927
0.00442411
0.00424847
0.00407229
0.00389559
0.00371841
0.00354063
0.00336235
0.00318553
0.00301824
0.00283759
0.00265261
0.00247393
0.00229428
0.00211412
0.00193355
0.00175283
0.00157121
0.00138918
0.00121226
0.00103652
0.000851325
0.000667938
0.000488105
0.000307385
0.000125056
-5.56493e-05
-0.000237623
-0.000422022
-0.000603834
-0.000787996
-0.000965299
-0.000865743
-0.00128338
-0.00149507
-0.0016831
-0.00187916
-0.00207715
-0.00226717
-0.000863845
-0.00187781
-0.00216621
-0.00239522
-0.0026179
-0.00284445
-0.00305713
-0.00187853
-0.00288066
-0.00319926
-0.00340145
-0.00359292
-0.00387718
-0.00198787
-0.00302766
-0.0040581
-0.00428201
-0.00444745
-0.00510867
-0.0015549
-0.00379576
-0.00433877
-0.00419221
-0.00440712
-0.00422221
-0.0046437
-0.00464282
-0.0048893
-0.00507433
0.00225854
-0.00174892
-0.00245454
-0.00274133
-0.00294726
-0.00314478
-0.00333714
-0.00347069
0.000376404
-0.00234751
-0.00265694
-0.00280346
-0.00291836
-0.0031075
-0.00109586
-0.00199843
-0.00244034
-0.00250904
-0.00252769
-0.00289739
-0.00189755
-0.00265508
-0.00273435
-0.00276912
-0.00280222
-0.00283375
-0.00286459
-0.00248037
-0.0026985
-0.00277352
-0.00278455
-0.00279211
-0.00279286
-0.00271455
-0.00270442
-0.00268127
-0.00262023
-0.00245591
-0.00232081
-0.00307813
-0.00307253
-0.00288255
-0.00279561
-0.00266405
-0.00241364
-0.00227081
-0.00320734
-0.00312848
-0.00299535
-0.002874
-0.00275028
-0.00262504
-0.00249896
-0.00237101
-0.00223965
-0.00209921
-0.00184206
-0.0016958
-0.00157505
-0.00141115
-0.00125664
-0.00100392
-0.000573624
0.000651095
-0.00204174
-0.00164134
-0.00219358
-0.00118621
-0.000877652
-0.00265524
-0.00255296
-0.00231564
-0.0020802
-0.00187228
-0.00168082
-0.00144611
-0.00108326
-0.00097053
-0.000841384
-0.000681615
-0.000523153
-0.000334019
-0.000157565
0.000134913
0.00022748
0.000436004
0.000628861
0.000795134
0.0010266
0.00133468
0.00150089
0.00166618
0.00185214
0.00203171
0.00223517
0.00244948
0.00266094
0.00287562
0.00309373
0.0033112
0.00352662
0.00373938
0.0039487
0.00415393
0.0043546
0.00455036
0.00474094
0.00492617
0.00510598
0.00528035
0.00544932
0.00561298
0.00577143
0.00592484
0.00607337
0.00621721
0.00635653
0.00649152
0.00662236
0.00674923
0.00687229
0.0069917
0.00710761
0.00722017
0.00732951
0.00743579
0.00753914
0.00763972
0.00773772
0.00783332
0.0079268
0.00801857
0.00810922
0.00819909
0.00828703
0.0176225
0.0175344
0.0174436
0.0173524
0.0172605
0.0171675
0.0170734
0.0169782
0.016882
0.0167846
0.0166862
0.0165866
0.0164858
0.0163839
0.0162809
0.0161768
0.0160714
0.0159649
0.0158573
0.0157484
0.0156384
0.0155272
0.0154148
0.0153012
0.0151864
0.0150704
0.0149532
0.0148348
0.0147152
0.0145943
0.0144723
0.014349
0.0142245
0.0140988
0.0139719
0.0138437
0.0137143
0.0135836
0.0134517
0.0133186
0.0131842
0.0130486
0.0129117
0.0127736
0.0126342
0.0124936
0.0123517
0.0122086
0.0120642
0.0119185
0.0117716
0.0116234
0.011474
0.0113233
0.0111714
0.0110182
0.0108637
0.010708
0.0105511
0.0103929
0.0102335
0.0100729
0.009911
0.00974794
0.00958367
0.00941822
0.00925159
0.00908379
0.00891484
0.00874476
0.00857355
0.00840124
0.00822785
0.0080534
0.0078779
0.00770137
0.00752386
0.00734537
0.00716593
0.00698557
0.00680431
0.00662218
0.00643921
0.00625543
0.00607088
0.00588557
0.00569951
0.00551273
0.00532527
0.00513702
0.00494802
0.00475858
0.00456938
0.00437952
0.0041882
0.00399664
0.00380259
0.00361316
0.00341818
0.00322164
0.00302439
0.00282562
0.00262566
0.00242378
0.00222089
0.00201676
0.00221037
0.00177672
0.00155481
0.00134635
0.00113649
0.000930717
0.000727356
0.000521635
0.000318987
0.000114056
-5.85051e-05
3.07858e-05
-0.000571814
-0.000798912
-0.00101792
-0.00124457
-0.00147293
-0.0013386
-0.00177424
-0.00204792
-0.00228669
-0.00253379
-0.00277341
-0.00129066
-0.0025071
-0.0029085
-0.0030212
-0.00329762
-0.00357274
-0.000947575
-0.00236247
-0.00300123
-0.00329284
-0.00344128
-0.00363651
-0.00380194
-0.00287259
-0.00311886
-0.00583925
-0.00612928
-0.0062371
-0.00647902
-0.00670173
-0.00251598
-0.00444641
-0.00590446
-0.00476838
-0.00518811
-0.00536756
0.00229635
-0.0046058
-0.00533233
-0.00576599
-0.0061
-0.00648784
-0.006832
-0.00717761
-0.00752436
-0.00763748
0.000308413
-0.00284118
-0.00377306
-0.00425962
-0.00454621
-0.00481479
-0.00515342
-0.00521633
-0.00188307
-0.00479905
-0.00525066
-0.00489725
-0.00510776
-0.0052628
-0.00258744
-0.00415173
-0.00446296
-0.00417715
-0.00446784
-0.00276244
-0.0035939
-0.00380793
-0.00392169
-0.00399331
-0.00405535
-0.00410955
-0.00415859
-0.00321562
-0.00373849
-0.00382149
-0.00384269
-0.00386537
-0.00388439
-0.00389772
-0.00391099
-0.00391479
-0.00382111
-0.00360034
-0.00392184
-0.00401716
-0.00383961
-0.0038077
-0.00385788
-0.00365839
-0.0035068
-0.00402354
-0.00406391
-0.00397425
-0.00390036
-0.00380545
-0.00371113
-0.00359807
-0.00347684
-0.00334187
-0.00317695
-0.00286111
-0.00301429
-0.00284542
-0.00269181
-0.00255529
-0.00236578
-0.00211397
-0.0021067
-0.0019409
-0.00207052
-0.00150926
-0.00131232
-0.00252377
-0.00258054
-0.00237268
-0.00221723
-0.00215002
-0.00188392
-0.00176738
-0.00158551
-0.00139905
-0.00121551
-0.00102886
-0.000825778
-0.000634364
-0.000433732
-0.000214263
0.000208098
0.000258744
0.000473459
0.000638559
0.00087448
0.00114195
0.00135298
0.00152551
0.00172548
0.00193568
0.00214902
0.00236331
0.00258484
0.00280748
0.00302946
0.00325076
0.00347031
0.0036871
0.0039006
0.00411034
0.00431596
0.00451712
0.00471362
0.00490529
0.00509205
0.00527386
0.00545073
0.00562271
0.00578987
0.00595233
0.0061102
0.00626361
0.00641271
0.00655763
0.00669851
0.0068355
0.00696871
0.00709828
0.00722432
0.00734695
0.00746627
0.00758241
0.00769546
0.00780554
0.00791276
0.00801725
0.00811916
0.00821864
0.00831593
0.00841135
0.00850557
0.00859885
0.00868921
0.0187165
0.0185991
0.0184789
0.0183585
0.0182376
0.0181158
0.0179932
0.0178696
0.0177452
0.0176199
0.0174936
0.0173665
0.0172384
0.0171094
0.0169795
0.0168486
0.0167168
0.016584
0.0164502
0.0163155
0.0161798
0.0160431
0.0159054
0.0157667
0.015627
0.0154863
0.0153445
0.0152017
0.0150578
0.0149129
0.014767
0.0146199
0.0144718
0.0143226
0.0141722
0.0140208
0.0138682
0.0137145
0.0135596
0.0134037
0.0132465
0.0130882
0.0129287
0.012768
0.0126061
0.012443
0.0122787
0.0121132
0.0119464
0.0117785
0.0116093
0.0114389
0.0112672
0.0110943
0.0109201
0.0107447
0.0105681
0.0103902
0.0102111
0.0100308
0.00984922
0.00966643
0.00948244
0.00929724
0.00911086
0.0089233
0.00873458
0.00854472
0.00835373
0.00816163
0.00796844
0.00777419
0.00757891
0.00738261
0.00718533