/*--------------------------------*- C++ -*----------------------------------*\
| =========                 |                                                 |
| \\      /  F ield         | OpenFOAM: The Open Source CFD Toolbox           |
|  \\    /   O peration     | Version:  2.4.0                                 |
|   \\  /    A nd           | Web:      www.OpenFOAM.org                      |
|    \\/     M anipulation  |                                                 |
\*---------------------------------------------------------------------------*/
FoamFile
{
    version     2.0;
    format      ascii;
    class       surfaceScalarField;
    location    "3";
    object      phi;
}
// * * * * * * * * * * * * * * * * * * * * * * * * * * * * * * * * * * * * * //

dimensions      [0 3 -1 0 0 0 0];

internalField   nonuniform List<scalar> 
15580
(
-1.66893e-13
-2.80463e-12
-5.40603e-13
-8.28493e-12
-1.02521e-12
-1.36565e-11
-1.54659e-12
-1.89226e-11
-2.03333e-12
-2.40888e-11
-2.42663e-12
-2.91446e-11
-2.66382e-12
-3.41025e-11
-2.70406e-12
-3.89413e-11
-2.49097e-12
-4.36845e-11
-2.00533e-12
-4.8292e-11
-1.17223e-12
-5.28248e-11
4.79773e-14
-5.72356e-11
1.76568e-12
-6.16023e-11
2.9508e-12
-6.47743e-11
3.20109e-12
-6.74164e-11
1.89552e-12
-7.05198e-11
-4.18807e-11
-7.58786e-11
-8.68794e-11
-6.37411e-11
-1.74803e-10
7.2083e-12
-1.76398e-10
-7.2225e-11
-5.70804e-10
4.21784e-10
-9.24008e-10
2.48514e-10
-1.10317e-09
1.92705e-10
-1.20252e-09
2.52551e-10
-1.28811e-09
2.53639e-10
-1.33415e-09
2.24669e-10
-1.35498e-09
2.02274e-10
-1.3687e-09
1.81816e-10
-1.37597e-09
1.64485e-10
-1.37566e-09
1.49274e-10
-1.37111e-09
1.37154e-10
-1.36109e-09
1.24905e-10
-1.34478e-09
1.12827e-10
-1.32423e-09
1.00675e-10
-1.29956e-09
8.84431e-11
-1.26921e-09
7.54828e-11
-1.23617e-09
6.3323e-11
-1.19978e-09
5.052e-11
-1.15927e-09
3.6865e-11
-1.12023e-09
2.73757e-11
-1.07941e-09
1.43937e-11
-1.03393e-09
2.62153e-12
-9.84386e-10
-1.03644e-11
-9.32904e-10
-2.46383e-11
-8.81405e-10
-3.83946e-11
-8.31757e-10
-5.16975e-11
-7.80555e-10
-6.63163e-11
-7.27015e-10
-8.20206e-11
-6.72573e-10
-9.68507e-11
-1.11725e-10
-6.17498e-10
-6.31771e-13
-2.17287e-12
-2.23793e-12
-6.67877e-12
-4.555e-12
-1.13395e-11
-7.35947e-12
-1.61181e-11
-1.03872e-11
-2.10611e-11
-1.34252e-11
-2.61066e-11
-1.61771e-11
-3.13506e-11
-1.84337e-11
-3.66846e-11
-1.98246e-11
-4.22936e-11
-2.01167e-11
-4.79999e-11
-1.87689e-11
-5.41726e-11
-1.82586e-11
-5.77459e-11
-1.64775e-11
-6.33833e-11
-2.83389e-11
-7.00795e-11
-9.19904e-11
-7.18833e-11
-1.81968e-10
1.01206e-11
-1.48541e-10
-1.09519e-10
-3.21919e-10
1.09638e-10
-5.75247e-10
2.60537e-10
-8.88658e-10
2.41186e-10
-8.79039e-10
4.12165e-10
-1.04965e-09
4.19125e-10
-1.18672e-09
3.29773e-10
-1.2118e-09
2.77633e-10
-1.20183e-09
2.43667e-10
-1.18887e-09
2.11712e-10
-1.17137e-09
1.84767e-10
-1.15182e-09
1.62271e-10
-1.12891e-09
1.41579e-10
-1.10193e-09
1.22288e-10
-1.07031e-09
1.05537e-10
-1.03503e-09
8.96263e-11
-9.97287e-10
7.50807e-11
-9.53844e-10
5.72318e-11
-9.06288e-10
4.08876e-11
-8.55986e-10
2.51806e-11
-8.01574e-10
8.91059e-12
-7.44234e-10
-6.8202e-12
-6.85056e-10
-2.23126e-11
-6.18938e-10
-3.87425e-11
-5.50552e-10
-5.3992e-11
-4.79263e-10
-6.86671e-11
-4.05773e-10
-8.38551e-11
-3.31321e-10
-9.90904e-11
-2.56202e-10
-1.13513e-10
-1.80498e-10
-1.27401e-10
-1.04427e-10
-1.42387e-10
-2.70689e-11
-1.59379e-10
5.04402e-11
-1.7436e-10
-1.88298e-10
1.27013e-10
-2.17892e-13
-1.95498e-12
-7.68686e-13
-6.12797e-12
-1.52562e-12
-1.05825e-11
-2.41301e-12
-1.52307e-11
-3.25717e-12
-2.0217e-11
-3.98658e-12
-2.53772e-11
-4.36422e-12
-3.0973e-11
-4.32028e-12
-3.67286e-11
-4.09686e-12
-4.2517e-11
-3.96223e-12
-4.81345e-11
-5.58103e-12
-5.50351e-11
-5.29011e-11
-8.09835e-11
-1.77227e-10
1.65117e-11
-1.57754e-10
-9.19658e-11
-1.35853e-10
-9.38393e-11
-5.06017e-10
3.80285e-10
-8.277e-10
2.12165e-10
-9.16694e-10
1.98632e-10
-9.28574e-10
2.72417e-10
-1.00371e-09
3.16317e-10
-8.77231e-10
2.8569e-10
-7.07802e-10
2.49696e-10
-5.89779e-10
2.1175e-10
-4.90831e-10
1.78685e-10
-3.94331e-10
1.47167e-10
-3.04911e-10
1.22292e-10
-2.20719e-10
1.00575e-10
-1.3861e-10
8.01624e-11
-5.87578e-11
6.17265e-11
1.87438e-11
4.47868e-11
9.55999e-11
2.8681e-11
1.71622e-10
1.36043e-11
2.47156e-10
-4.53344e-13
3.19676e-10
-1.5288e-11
3.8918e-10
-2.86169e-11
4.58023e-10
-4.36622e-11
5.25203e-10
-5.82692e-11
5.91616e-10
-7.32333e-11
6.57746e-10
-8.84429e-11
7.22737e-10
-1.03733e-10
7.87377e-10
-1.18632e-10
8.52496e-10
-1.33786e-10
9.17311e-10
-1.4867e-10
9.77252e-10
-1.59032e-10
1.03663e-09
-1.72891e-10
1.09379e-09
-1.84561e-10
1.1501e-09
-1.98701e-10
1.20112e-09
-2.10394e-10
1.24781e-09
-2.21053e-10
-2.30992e-10
1.29051e-09
-5.71995e-14
-1.89778e-12
-3.96965e-13
-5.78821e-12
-1.2272e-12
-9.7523e-12
-2.70067e-12
-1.37573e-11
-5.05941e-12
-1.78582e-11
-8.45414e-12
-2.19825e-11
-1.32259e-11
-2.62012e-11
-1.95702e-11
-3.03843e-11
-2.75475e-11
-3.61897e-11
-7.69983e-11
-3.87255e-11
-1.77104e-10
-8.68797e-13
-2.07697e-10
-5.07922e-11
-1.4986e-10
-4.14438e-11
-2.15044e-10
-2.67818e-11
-2.20852e-10
-8.80309e-11
1.08843e-10
5.05897e-11
1.743e-10
1.46707e-10
2.82864e-10
9.00676e-11
5.11382e-10
4.3899e-11
7.96281e-10
3.14176e-11
1.06236e-09
1.96077e-11
1.30362e-09
8.43464e-12
1.51608e-09
-7.04413e-13
1.70624e-09
-1.14783e-11
1.86989e-09
-1.64828e-11
2.01057e-09
-1.83878e-11
2.13562e-09
-2.44749e-11
2.24603e-09
-3.02487e-11
2.34369e-09
-3.59323e-11
2.43034e-09
-4.18652e-11
2.50954e-09
-5.05192e-11
2.5824e-09
-5.92488e-11
2.64889e-09
-6.69501e-11
2.70748e-09
-7.38701e-11
2.75878e-09
-7.99221e-11
2.8e-09
-8.48821e-11
2.83315e-09
-9.14142e-11
2.85782e-09
-9.79114e-11
2.87483e-09
-1.05445e-10
2.88366e-09
-1.12566e-10
2.88544e-09
-1.20417e-10
2.88035e-09
-1.28692e-10
2.86854e-09
-1.36859e-10
2.85496e-09
-1.45451e-10
2.83064e-09
-1.48572e-10
2.79726e-09
-1.51177e-10
2.75726e-09
-1.58701e-10
2.71368e-09
-1.66815e-10
2.66408e-09
-1.71458e-10
-1.75741e-10
2.60883e-09
2.13288e-13
-2.11107e-12
5.9361e-13
-6.16853e-12
9.16216e-13
-1.00749e-11
1.09056e-12
-1.39316e-11
8.58675e-13
-1.76263e-11
1.57583e-13
-2.12814e-11
-1.37014e-12
-2.46734e-11
-4.01404e-12
-2.82153e-11
-1.08101e-10
-3.23654e-11
-1.01989e-10
-4.55918e-11
-3.5147e-11
-6.77109e-11
-2.60562e-11
-5.9883e-11
4.89657e-11
-1.16466e-10
2.13858e-10
-1.91674e-10
2.49665e-10
-1.23838e-10
4.48872e-10
-1.48617e-10
7.29023e-10
-1.33443e-10
9.45301e-10
-1.26211e-10
1.1107e-09
-1.21495e-10
1.26149e-09
-1.1938e-10
1.39945e-09
-1.18351e-10
1.52434e-09
-1.16456e-10
1.63722e-09
-1.13584e-10
1.73611e-09
-1.1037e-10
1.82653e-09
-1.06899e-10
1.91203e-09
-1.03893e-10
1.98799e-09
-1.0043e-10
2.052e-09
-9.42566e-11
2.10549e-09
-8.94258e-11
2.15513e-09
-9.14993e-11
2.20145e-09
-9.68488e-11
2.24201e-09
-9.98021e-11
2.27346e-09
-9.84006e-11
2.30155e-09
-1.01957e-10
2.32723e-09
-1.05609e-10
2.34381e-09
-1.01459e-10
2.34611e-09
-9.37165e-11
2.33374e-09
-8.55364e-11
2.31126e-09
-8.29684e-11
2.28391e-09
-8.52152e-11
2.25177e-09
-8.82825e-11
2.21482e-09
-9.17337e-11
2.1736e-09
-9.56408e-11
2.12745e-09
-9.9306e-11
2.08177e-09
-1.02888e-10
2.03709e-09
-1.06498e-10
1.98895e-09
-1.10559e-10
1.93771e-09
-1.15571e-10
1.88755e-09
-1.21304e-10
-1.24773e-10
1.83658e-09
1.17147e-12
-3.28254e-12
4.79305e-12
-9.79012e-12
1.07899e-11
-1.60718e-11
1.89302e-11
-2.20718e-11
2.90589e-11
-2.77551e-11
4.09894e-11
-3.32118e-11
5.46307e-11
-3.83148e-11
7.1652e-11
-4.30621e-11
8.06826e-11
-4.85299e-11
1.09623e-10
-7.45322e-11
1.30294e-10
-8.83818e-11
1.70181e-10
-9.97701e-11
1.49535e-10
-9.58199e-11
5.12496e-11
-9.33888e-11
2.85493e-11
-1.01138e-10
-1.33628e-11
-1.06705e-10
-4.12325e-11
-1.05574e-10
-5.91963e-11
-1.08247e-10
-7.32485e-11
-1.07443e-10
-8.63082e-11
-1.0632e-10
-9.90928e-11
-1.05567e-10
-1.11208e-10
-1.0434e-10
-1.21419e-10
-1.03373e-10
-1.29561e-10
-1.02228e-10
-1.35347e-10
-1.01113e-10
-1.39146e-10
-1.00094e-10
-1.40432e-10
-9.91441e-11
-1.36406e-10
-9.82828e-11
-1.28193e-10
-9.76385e-11
-1.22239e-10
-9.7453e-11
-1.21898e-10
-9.71907e-11
-1.25814e-10
-9.58852e-11
-1.27445e-10
-9.67697e-11
-1.26792e-10
-1.02611e-10
-1.24922e-10
-1.07478e-10
-1.23574e-10
-1.02808e-10
-1.317e-10
-8.55902e-11
-1.41663e-10
-7.55729e-11
-1.41982e-10
-8.26494e-11
-1.39669e-10
-8.75289e-11
-1.36459e-10
-9.14917e-11
-1.30428e-10
-9.77649e-11
-1.22635e-10
-1.03434e-10
-1.13936e-10
-1.08005e-10
-1.04973e-10
-1.1185e-10
-9.60589e-11
-1.15412e-10
-8.71859e-11
-1.19432e-10
-7.84909e-11
-1.24266e-10
-7.11235e-11
-1.28672e-10
-1.32463e-10
-6.34333e-11
1.91037e-12
-5.19291e-12
6.68433e-12
-1.45641e-11
1.38065e-11
-2.31939e-11
2.28899e-11
-3.11553e-11
3.36411e-11
-3.85063e-11
4.56241e-11
-4.51948e-11
5.86597e-11
-5.13504e-11
7.62464e-11
-5.69505e-11
-5.2752e-11
-6.22548e-11
-7.44731e-11
-6.5195e-11
-9.92713e-11
-6.91021e-11
-1.22586e-10
-7.64557e-11
-1.34591e-10
-8.38146e-11
-1.4023e-10
-8.77494e-11
-1.53086e-10
-8.82824e-11
-1.70673e-10
-8.91177e-11
-1.85976e-10
-9.02705e-11
-2.02551e-10
-9.16723e-11
-2.17248e-10
-9.27458e-11
-2.3015e-10
-9.34187e-11
-2.418e-10
-9.39158e-11
-2.51874e-10
-9.42671e-11
-2.60598e-10
-9.46486e-11
-2.67861e-10
-9.4965e-11
-2.73645e-10
-9.53292e-11
-2.77972e-10
-9.57664e-11
-2.80721e-10
-9.63954e-11
-2.81765e-10
-9.72387e-11
-2.81297e-10
-9.81063e-11
-2.80277e-10
-9.84734e-11
-2.79278e-10
-9.81892e-11
-2.77409e-10
-9.7755e-11
-2.76948e-10
-9.72303e-11
-2.82986e-10
-9.65729e-11
-2.93893e-10
-9.65711e-11
-2.9931e-10
-9.73911e-11
-2.86793e-10
-9.81076e-11
-2.64656e-10
-9.77092e-11
-2.50051e-10
-9.72553e-11
-2.38074e-10
-9.95057e-11
-2.25303e-10
-1.04263e-10
-2.13721e-10
-1.09346e-10
-2.02575e-10
-1.1458e-10
-1.91632e-10
-1.18948e-10
-1.8298e-10
-1.20502e-10
-1.75627e-10
-1.22765e-10
-1.69299e-10
-1.25761e-10
-1.64322e-10
-1.29244e-10
-1.59801e-10
-1.33192e-10
-1.37904e-10
-1.5436e-10
-6.28136e-13
-4.56478e-12
-2.00039e-12
-1.31918e-11
-3.90294e-12
-2.12914e-11
-6.23515e-12
-2.88231e-11
-8.92499e-12
-3.58165e-11
-1.18738e-11
-4.2246e-11
-1.5054e-11
-4.81701e-11
-1.85086e-11
-5.3496e-11
-2.08937e-11
-5.82662e-11
-3.09666e-11
-6.27656e-11
-3.43525e-11
-6.72906e-11
-8.06131e-11
-7.17456e-11
-9.67905e-11
-7.5825e-11
-1.10939e-10
-7.89516e-11
-1.21402e-10
-8.1243e-11
-1.29638e-10
-8.29205e-11
-1.36831e-10
-8.4139e-11
-1.43626e-10
-8.52612e-11
-1.49355e-10
-8.70329e-11
-1.53899e-10
-8.89013e-11
-1.57599e-10
-9.0216e-11
-1.60832e-10
-9.10339e-11
-1.63876e-10
-9.16056e-11
-1.66904e-10
-9.19369e-11
-1.70149e-10
-9.20837e-11
-1.73809e-10
-9.21068e-11
-1.78094e-10
-9.21099e-11
-1.83182e-10
-9.21508e-11
-1.88938e-10
-9.23502e-11
-1.94771e-10
-9.26407e-11
-2.00005e-10
-9.29549e-11
-2.0434e-10
-9.34206e-11
-2.07577e-10
-9.3993e-11
-2.09517e-10
-9.46323e-11
-2.10673e-10
-9.54155e-11
-2.11579e-10
-9.6485e-11
-2.11753e-10
-9.79333e-11
-2.09895e-10
-9.95682e-11
-2.06181e-10
-1.00968e-10
-2.03438e-10
-1.02249e-10
-2.03697e-10
-1.04003e-10
-2.06887e-10
-1.06156e-10
-2.12829e-10
-1.08639e-10
-2.20625e-10
-1.11152e-10
-2.26918e-10
-1.14209e-10
-2.31256e-10
-1.18427e-10
-2.33241e-10
-1.23775e-10
-2.31479e-10
-1.31006e-10
-2.26465e-10
-1.38206e-10
-1.43658e-10
-2.20711e-10
-1.0287e-12
-3.53609e-12
-3.88019e-12
-1.03403e-11
-8.30054e-12
-1.6871e-11
-1.3998e-11
-2.31256e-11
-2.07154e-11
-2.90991e-11
-2.81663e-11
-3.47951e-11
-3.61255e-11
-4.02109e-11
-4.42694e-11
-4.53521e-11
-5.2317e-11
-5.02187e-11
-6.02642e-11
-5.48183e-11
-6.84072e-11
-5.91477e-11
-7.70617e-11
-6.31613e-11
-8.65054e-11
-6.68412e-11
-9.5037e-11
-7.01472e-11
-1.03903e-10
-7.30945e-11
-1.10635e-10
-7.5712e-11
-1.14831e-10
-7.81126e-11
-1.22413e-10
-8.03943e-11
-1.32948e-10
-8.25479e-11
-1.41098e-10
-8.45312e-11
-1.48339e-10
-8.62746e-11
-1.54548e-10
-8.77268e-11
-1.59783e-10
-8.8914e-11
-1.64048e-10
-8.98788e-11
-1.67359e-10
-9.06468e-11
-1.69756e-10
-9.12499e-11
-1.71359e-10
-9.17033e-11
-1.72342e-10
-9.20115e-11
-1.73277e-10
-9.18901e-11
-1.73952e-10
-9.20392e-11
-1.73914e-10
-9.3013e-11
-1.7351e-10
-9.38241e-11
-1.73329e-10
-9.41744e-11
-1.73603e-10
-9.43579e-11
-1.74552e-10
-9.4467e-11
-1.76406e-10
-9.46309e-11
-1.79304e-10
-9.50351e-11
-1.83255e-10
-9.56166e-11
-1.87891e-10
-9.63324e-11
-1.92872e-10
-9.72683e-11
-1.98332e-10
-9.85435e-11
-2.04096e-10
-1.00392e-10
-2.09628e-10
-1.03107e-10
-2.14071e-10
-1.06709e-10
-2.17394e-10
-1.10886e-10
-2.19727e-10
-1.16095e-10
-2.20822e-10
-1.2268e-10
-2.21652e-10
-1.30176e-10
-2.22627e-10
-1.37232e-10
-1.43017e-10
-2.23268e-10
-5.92702e-13
-2.94339e-12
-2.2553e-12
-8.67774e-12
-4.88893e-12
-1.42374e-11
-8.40356e-12
-1.9611e-11
-1.27066e-11
-2.4796e-11
-1.77121e-11
-2.97896e-11
-2.33317e-11
-3.45913e-11
-2.94862e-11
-3.91977e-11
-3.60962e-11
-4.36086e-11
-4.30922e-11
-4.78223e-11
-5.03998e-11
-5.18401e-11
-5.79008e-11
-5.56603e-11
-6.54582e-11
-5.92838e-11
-7.28953e-11
-6.27102e-11
-8.00469e-11
-6.59429e-11
-8.67732e-11
-6.89856e-11
-9.30407e-11
-7.18452e-11
-9.89122e-11
-7.45227e-11
-1.04437e-10
-7.70228e-11
-1.09627e-10
-7.93417e-11
-1.14553e-10
-8.14786e-11
-1.18916e-10
-8.34332e-11
-1.22373e-10
-8.52123e-11
-1.25306e-10
-8.68232e-11
-1.27657e-10
-8.82694e-11
-1.29036e-10
-8.95523e-11
-1.30701e-10
-9.06724e-11
-1.31716e-10
-9.16163e-11
-1.3028e-10
-9.24778e-11
-1.33173e-10
-9.3318e-11
-1.35639e-10
-9.41068e-11
-1.37474e-10
-9.48149e-11
-1.38635e-10
-9.53522e-11
-1.39142e-10
-9.57004e-11
-1.3907e-10
-9.59022e-11
-1.38689e-10
-9.59054e-11
-1.38537e-10
-9.56398e-11
-1.38203e-10
-9.59691e-11
-1.37805e-10
-9.67314e-11
-1.37885e-10
-9.71875e-11
-1.38845e-10
-9.75843e-11
-1.40849e-10
-9.83877e-11
-1.44457e-10
-9.94991e-11
-1.50258e-10
-1.00907e-10
-1.58449e-10
-1.02695e-10
-1.69352e-10
-1.05192e-10
-1.82873e-10
-1.09158e-10
-1.973e-10
-1.15749e-10
-2.09454e-10
-1.25077e-10
-1.3122e-10
-2.21251e-10
-3.82253e-13
-2.56113e-12
-1.52228e-12
-7.53771e-12
-3.37919e-12
-1.23805e-11
-5.89394e-12
-1.70962e-11
-9.00677e-12
-2.16832e-11
-1.26572e-11
-2.61392e-11
-1.67864e-11
-3.04621e-11
-2.13348e-11
-3.46493e-11
-2.62451e-11
-3.86984e-11
-3.14599e-11
-4.26074e-11
-3.69252e-11
-4.63748e-11
-4.25857e-11
-4.99998e-11
-4.83881e-11
-5.34814e-11
-5.42785e-11
-5.68198e-11
-6.02062e-11
-6.00151e-11
-6.61236e-11
-6.30682e-11
-7.19886e-11
-6.59801e-11
-7.77592e-11
-6.87522e-11
-8.33962e-11
-7.13858e-11
-8.88556e-11
-7.38823e-11
-9.40909e-11
-7.62432e-11
-9.90537e-11
-7.84705e-11
-1.037e-10
-8.05665e-11
-1.07989e-10
-8.25338e-11
-1.11883e-10
-8.43751e-11
-1.15342e-10
-8.60934e-11
-1.18323e-10
-8.76914e-11
-1.20767e-10
-8.91727e-11
-1.22703e-10
-9.05412e-11
-1.24224e-10
-9.17971e-11
-1.25391e-10
-9.29404e-11
-1.26241e-10
-9.39654e-11
-1.26721e-10
-9.48682e-11
-1.26769e-10
-9.56448e-11
-1.26365e-10
-9.62935e-11
-1.25417e-10
-9.68306e-11
-1.23775e-10
-9.73553e-11
-1.26049e-10
-9.78756e-11
-1.26178e-10
-9.83826e-11
-1.25763e-10
-9.88436e-11
-1.24984e-10
-9.91353e-11
-1.24356e-10
-9.9383e-11
-1.2375e-10
-1.00115e-10
-1.23713e-10
-1.00944e-10
-1.24575e-10
-1.01833e-10
-1.26863e-10
-1.02904e-10
-1.3204e-10
-1.03981e-10
-1.42668e-10
-1.05121e-10
-1.61315e-10
-1.0643e-10
-1.07874e-10
-1.84661e-10
-3.30388e-13
-2.23075e-12
-1.22106e-12
-6.64704e-12
-2.61454e-12
-1.0987e-11
-4.47501e-12
-1.52358e-11
-6.76679e-12
-1.93914e-11
-9.45409e-12
-2.34519e-11
-1.25008e-11
-2.74154e-11
-1.58706e-11
-3.12795e-11
-1.95268e-11
-3.50422e-11
-2.34327e-11
-3.87015e-11
-2.75518e-11
-4.22558e-11
-3.18479e-11
-4.57037e-11
-3.62849e-11
-4.90444e-11
-4.08276e-11
-5.22771e-11
-4.54413e-11
-5.54014e-11
-5.00928e-11
-5.84168e-11
-5.47496e-11
-6.13233e-11
-5.93811e-11
-6.41207e-11
-6.39574e-11
-6.68094e-11
-6.845e-11
-6.93898e-11
-7.28309e-11
-7.18623e-11
-7.70735e-11
-7.42279e-11
-8.11525e-11
-7.64874e-11
-8.50443e-11
-7.8642e-11
-8.87265e-11
-8.06929e-11
-9.21784e-11
-8.26415e-11
-9.53805e-11
-8.44893e-11
-9.83149e-11
-8.62383e-11
-1.00966e-10
-8.78899e-11
-1.03317e-10
-8.94466e-11
-1.05347e-10
-9.09099e-11
-1.07031e-10
-9.2282e-11
-1.08334e-10
-9.35647e-11
-1.09218e-10
-9.47608e-11
-1.09639e-10
-9.58726e-11
-1.09565e-10
-9.69044e-11
-1.09062e-10
-9.78581e-11
-1.08203e-10
-9.8735e-11
-1.07055e-10
-9.95302e-11
-1.05655e-10
-1.0024e-10
-1.03917e-10
-1.00885e-10
-1.01781e-10
-1.01528e-10
-1.02055e-10
-1.02164e-10
-1.00751e-10
-1.02724e-10
-9.91289e-11
-1.03625e-10
-9.7648e-11
-1.04385e-10
-9.65775e-11
-1.05052e-10
-9.60831e-11
-1.05616e-10
-9.63973e-11
-1.06116e-10
-1.06594e-10
-9.76769e-11
-1.09449e-13
-2.1213e-12
-4.99201e-13
-6.25728e-12
-1.17838e-12
-1.03078e-11
-2.13055e-12
-1.42836e-11
-3.33821e-12
-1.81837e-11
-4.78295e-12
-2.20071e-11
-6.44543e-12
-2.57529e-11
-8.30543e-12
-2.94195e-11
-1.0342e-11
-3.30056e-11
-1.25333e-11
-3.65102e-11
-1.4857e-11
-3.9932e-11
-1.72905e-11
-4.32703e-11
-1.98105e-11
-4.65243e-11
-2.23941e-11
-4.96935e-11
-2.50181e-11
-5.27774e-11
-2.76594e-11
-5.57756e-11
-3.0295e-11
-5.86876e-11
-3.29023e-11
-6.15134e-11
-3.5459e-11
-6.42528e-11
-3.79431e-11
-6.69057e-11
-4.03333e-11
-6.94722e-11
-4.26087e-11
-7.19524e-11
-4.47495e-11
-7.43467e-11
-4.67361e-11
-7.66553e-11
-4.85504e-11
-7.88787e-11
-5.01748e-11
-8.10171e-11
-5.15931e-11
-8.30711e-11
-5.27902e-11
-8.50411e-11
-5.37524e-11
-8.69278e-11
-5.44672e-11
-8.87317e-11
-5.49235e-11
-9.04536e-11
-5.51115e-11
-9.2094e-11
-5.50225e-11
-9.36537e-11
-5.46498e-11
-9.51335e-11
-5.39882e-11
-9.65342e-11
-5.30359e-11
-9.78567e-11
-5.17921e-11
-9.91019e-11
-5.02564e-11
-1.00271e-10
-4.84227e-11
-1.01364e-10
-4.62798e-11
-1.02383e-10
-4.3837e-11
-1.03328e-10
-4.1161e-11
-1.04204e-10
-3.83451e-11
-1.0498e-10
-3.535e-11
-1.05723e-10
-3.27509e-11
-1.06379e-10
-3.07571e-11
-1.07017e-10
-2.82295e-11
-1.0758e-10
-2.58052e-11
-1.0804e-10
-2.35296e-11
-1.08392e-10
-1.08703e-10
-2.14207e-11
-1.6831e-13
-1.95299e-12
-5.93452e-13
-5.83214e-12
-1.23926e-12
-9.66204e-12
-2.09083e-12
-1.3432e-11
-3.13331e-12
-1.71412e-11
-4.35156e-12
-2.07889e-11
-5.73076e-12
-2.43737e-11
-7.25587e-12
-2.78944e-11
-8.91161e-12
-3.13499e-11
-1.06827e-11
-3.47391e-11
-1.25538e-11
-3.80609e-11
-1.45096e-11
-4.13145e-11
-1.65348e-11
-4.44991e-11
-1.86143e-11
-4.7614e-11
-2.07332e-11
-5.06585e-11
-2.28765e-11
-5.36323e-11
-2.50297e-11
-5.65344e-11
-2.71784e-11
-5.93647e-11
-2.93087e-11
-6.21225e-11
-3.14066e-11
-6.48077e-11
-3.34592e-11
-6.74196e-11
-3.54534e-11
-6.99582e-11
-3.73771e-11
-7.2423e-11
-3.92184e-11
-7.4814e-11
-4.09664e-11
-7.71307e-11
-4.26103e-11
-7.93732e-11
-4.41407e-11
-8.15406e-11
-4.55483e-11
-8.36335e-11
-4.68255e-11
-8.56507e-11
-4.79642e-11
-8.7593e-11
-4.89593e-11
-8.94586e-11
-4.98042e-11
-9.12491e-11
-5.04963e-11
-9.29615e-11
-5.10311e-11
-9.45987e-11
-5.14091e-11
-9.61561e-11
-5.16276e-11
-9.76382e-11
-5.16914e-11
-9.9038e-11
-5.15984e-11
-1.00364e-10
-5.1355e-11
-1.01607e-10
-5.09508e-11
-1.02787e-10
-5.04638e-11
-1.03815e-10
-4.99629e-11
-1.04705e-10
-4.94975e-11
-1.05522e-10
-5.11241e-11
-1.06015e-10
-5.20113e-11
-1.06431e-10
-5.21379e-11
-1.0689e-10
-5.2265e-11
-1.07452e-10
-5.21245e-11
-1.08181e-10
-5.14457e-11
-1.0907e-10
-1.09849e-10
-5.02997e-11
-2.51516e-14
-1.92783e-12
-1.43979e-13
-5.71331e-12
-3.65212e-13
-9.44081e-12
-6.8106e-13
-1.31162e-11
-1.08372e-12
-1.67386e-11
-1.56537e-12
-2.03072e-11
-2.11784e-12
-2.38212e-11
-2.73273e-12
-2.72795e-11
-3.40151e-12
-3.06811e-11
-4.11533e-12
-3.40253e-11
-4.86531e-12
-3.73109e-11
-5.64236e-12
-4.05375e-11
-6.4373e-12
-4.37042e-11
-7.24088e-12
-4.68104e-11
-8.04378e-12
-4.98556e-11
-8.83673e-12
-5.28393e-11
-9.61034e-12
-5.57608e-11
-1.03552e-11
-5.86198e-11
-1.1062e-11
-6.14157e-11
-1.17213e-11
-6.41484e-11
-1.23239e-11
-6.6817e-11
-1.28604e-11
-6.94217e-11
-1.33217e-11
-7.19617e-11
-1.36984e-11
-7.44373e-11
-1.39818e-11
-7.68473e-11
-1.41624e-11
-7.91926e-11
-1.42316e-11
-8.14713e-11
-1.41797e-11
-8.36854e-11
-1.39987e-11
-8.58316e-11
-1.36781e-11
-8.79136e-11
-1.3211e-11
-8.99257e-11
-1.25854e-11
-9.18747e-11
-1.1796e-11
-9.37509e-11
-1.08289e-11
-9.55659e-11
-9.68115e-12
-9.73039e-11
-8.33345e-12
-9.89859e-11
-6.78117e-12
-1.0059e-10
-4.98291e-12
-1.02162e-10
-3.16804e-12
-1.03422e-10
-1.36438e-12
-1.0459e-10
7.52357e-14
-1.0566e-10
-2.07098e-12
-1.06316e-10
-3.37425e-12
-1.06305e-10
-3.07692e-12
-1.06336e-10
-3.239e-12
-1.06269e-10
-4.01268e-12
-1.06116e-10
-5.7205e-12
-1.05745e-10
-8.639e-12
-1.05262e-10
-1.23759e-11
-1.05334e-10
-1.07398e-10
-1.48265e-11
-3.43199e-14
-1.89351e-12
-1.00139e-13
-5.64749e-12
-1.8277e-13
-9.35818e-12
-2.78303e-13
-1.30206e-11
-3.8246e-13
-1.66344e-11
-4.90547e-13
-2.01991e-11
-5.97685e-13
-2.37141e-11
-6.98419e-13
-2.71788e-11
-7.87117e-13
-3.05924e-11
-8.57837e-13
-3.39545e-11
-9.04128e-13
-3.72646e-11
-9.19256e-13
-4.05223e-11
-8.96315e-13
-4.37271e-11
-8.2792e-13
-4.68788e-11
-7.06651e-13
-4.99769e-11
-5.24604e-13
-5.30214e-11
-2.73895e-13
-5.60115e-11
5.42681e-14
-5.8948e-11
4.68202e-13
-6.18297e-11
9.77574e-13
-6.46577e-11
1.59114e-12
-6.74306e-11
2.31965e-12
-7.01502e-11
3.17234e-12
-7.28144e-11
4.16132e-12
-7.54263e-11
5.29625e-12
-7.79822e-11
6.5909e-12
-8.04873e-11
8.05563e-12
-8.29361e-11
9.70608e-12
-8.53359e-11
1.15534e-11
-8.7679e-11
1.36153e-11
-8.99754e-11
1.59038e-11
-9.22142e-11
1.84383e-11
-9.44092e-11
2.12335e-11
-9.6546e-11
2.43142e-11
-9.86466e-11
2.77104e-11
-1.007e-10
3.14535e-11
-1.02729e-10
3.51798e-11
-1.04317e-10
3.88593e-11
-1.05842e-10
4.11224e-11
-1.07595e-10
3.40286e-11
-1.07567e-10
3.32783e-11
-1.0704e-10
3.33113e-11
-1.06382e-10
3.26632e-11
-1.05657e-10
3.13396e-11
-1.05013e-10
2.97723e-11
-1.04701e-10
2.82489e-11
-1.04593e-10
2.62095e-11
-1.03705e-10
2.16574e-11
-1.0071e-10
1.03089e-11
-9.3985e-11
-9.00281e-11
-7.06141e-12
4.20743e-14
-1.93559e-12
1.49055e-13
-5.75447e-12
3.14216e-13
-9.52334e-12
5.36939e-13
-1.32434e-11
8.16789e-13
-1.69143e-11
1.1537e-12
-2.05361e-11
1.54792e-12
-2.41083e-11
2.00015e-12
-2.7631e-11
2.51152e-12
-3.11038e-11
3.08358e-12
-3.45266e-11
3.71808e-12
-3.78991e-11
4.4174e-12
-4.12216e-11
5.18382e-12
-4.44935e-11
6.02011e-12
-4.77151e-11
6.92895e-12
-5.08857e-11
7.91345e-12
-5.40059e-11
8.97647e-12
-5.70746e-11
1.01213e-11
-6.00928e-11
1.13509e-11
-6.30593e-11
1.26685e-11
-6.59753e-11
1.40769e-11
-6.88391e-11
1.5579e-11
-7.16523e-11
1.71777e-11
-7.44131e-11
1.88747e-11
-7.71232e-11
2.06732e-11
-7.97807e-11
2.25731e-11
-8.23871e-11
2.45784e-11
-8.49414e-11
2.66855e-11
-8.7443e-11
2.89002e-11
-8.98936e-11
3.12124e-11
-9.22877e-11
3.36327e-11
-9.46345e-11
3.61477e-11
-9.69243e-11
3.87905e-11
-9.91888e-11
4.13992e-11
-1.01255e-10
4.38315e-11
-1.03132e-10
4.57414e-11
-1.04866e-10
4.26786e-11
-1.07492e-10
3.16166e-11
-1.06622e-10
2.93741e-11
-1.05523e-10
2.58628e-11
-1.04069e-10
2.11579e-11
-1.02335e-10
1.35392e-11
-9.87635e-11
-7.49749e-13
-9.13677e-11
-1.72855e-11
-8.84772e-11
-3.33253e-11
-8.86615e-11
-6.06889e-11
-7.72292e-11
-7.61658e-11
-8.82284e-11
-6.43939e-11
-1.12482e-10
-4.27446e-11
-1.15634e-10
-1.19992e-10
-1.27811e-11
4.24984e-14
-1.97809e-12
1.67242e-13
-5.87922e-12
3.71413e-13
-9.72751e-12
6.51982e-13
-1.35239e-11
1.00594e-12
-1.72682e-11
1.42989e-12
-2.096e-11
1.92057e-12
-2.4599e-11
2.47468e-12
-2.81851e-11
3.08919e-12
-3.17183e-11
3.76054e-12
-3.5198e-11
4.48571e-12
-3.86243e-11
5.26038e-12
-4.19963e-11
6.0815e-12
-4.53146e-11
6.94384e-12
-4.85775e-11
7.84436e-12
-5.17862e-11
8.77666e-12
-5.49382e-11
9.73797e-12
-5.80359e-11
1.07201e-11
-6.1075e-11
1.17211e-11
-6.40603e-11
1.27307e-11
-6.69848e-11
1.37482e-11
-6.98566e-11
1.47607e-11
-7.26648e-11
1.57703e-11
-7.54227e-11
1.67609e-11
-7.81138e-11
1.77396e-11
-8.07594e-11
1.86862e-11
-8.33337e-11
1.96162e-11
-8.58714e-11
2.05051e-11
-8.83319e-11
2.13836e-11
-9.07721e-11
2.22142e-11
-9.31183e-11
2.30484e-11
-9.54687e-11
2.34381e-11
-9.7314e-11
2.32639e-11
-9.90147e-11
2.17933e-11
-1.00611e-10
6.43054e-12
-1.01486e-10
-8.59442e-12
-1.00928e-10
-1.6786e-11
-9.94568e-11
-2.64136e-11
-9.69971e-11
-4.09618e-11
-9.0975e-11
-7.18018e-11
-7.32291e-11
-1.52042e-10
-2.20945e-11
-1.35843e-10
-1.14963e-10
-1.40157e-10
-8.70542e-11
-1.77405e-10
-5.1229e-11
-1.68789e-10
-9.72778e-11
-1.31124e-10
-1.14894e-10
-8.9514e-11
-1.29838e-10
-4.42328e-11
-1.57763e-10
3.55777e-11
-1.95445e-10
-2.2917e-10
1.44756e-10
5.75907e-14
-2.03568e-12
2.38801e-13
-6.06043e-12
5.38405e-13
-1.00271e-11
9.44831e-13
-1.39304e-11
1.44748e-12
-1.77709e-11
2.03575e-12
-2.15483e-11
2.70037e-12
-2.52636e-11
3.43137e-12
-2.89161e-11
4.21989e-12
-3.25068e-11
5.05605e-12
-3.60341e-11
5.93092e-12
-3.94992e-11
6.83427e-12
-4.28997e-11
7.7571e-12
-4.62375e-11
8.68843e-12
-4.95088e-11
9.61882e-12
-5.27166e-11
1.05361e-11
-5.58554e-11
1.14302e-11
-5.893e-11
1.22873e-11
-6.19321e-11
1.30963e-11
-6.48693e-11
1.38411e-11
-6.77296e-11
1.45097e-11
-7.05252e-11
1.50829e-11
-7.3238e-11
1.55476e-11
-7.58875e-11
1.58805e-11
-7.84467e-11
1.60673e-11
-8.09462e-11
1.60789e-11
-8.33453e-11
1.59041e-11
-8.56966e-11
1.55177e-11
-8.79455e-11
1.49424e-11
-9.01969e-11
1.3852e-11
-9.20279e-11
1.21208e-11
-9.37376e-11
7.85692e-12
-9.60047e-11
-1.83573e-11
-9.55508e-11
-3.39299e-11
-9.3963e-11
-4.53006e-11
-9.02483e-11
-8.09764e-11
-6.52524e-11
-1.07925e-10
-7.25084e-11
-1.22791e-10
-8.21312e-11
-2.06292e-10
-7.47374e-12
-2.02623e-10
-7.68986e-11
-2.03929e-10
-2.07879e-11
-2.69714e-10
-4.91775e-11
-2.53979e-10
-1.02789e-10
-1.74879e-10
-1.3033e-10
-1.21097e-10
-1.51059e-10
-3.93485e-11
-1.96643e-10
6.49668e-11
-2.34153e-10
1.75539e-10
-2.68335e-10
2.83181e-10
-3.03088e-10
-3.35563e-10
3.89574e-10
1.64108e-13
5.85748e-13
1.22195e-12
2.04537e-12
3.03234e-12
4.16263e-12
5.41857e-12
6.78471e-12
8.2477e-12
9.7957e-12
1.14193e-11
1.31096e-11
1.48604e-11
1.66654e-11
1.85219e-11
2.04254e-11
2.23767e-11
2.43719e-11
2.64155e-11
2.85022e-11
3.06399e-11
3.28183e-11
3.50465e-11
3.73041e-11
3.96002e-11
4.19093e-11
4.42607e-11
4.57576e-11
4.63487e-11
4.6521e-11
9.07147e-12
-4.99606e-12
-2.62261e-11
-1.13191e-10
-7.99562e-11
-2.09037e-10
-2.95664e-10
-3.58621e-10
-3.43171e-10
-3.74576e-10
-3.19757e-10
-2.56992e-10
-2.00005e-10
-1.27647e-10
-3.88654e-11
3.82462e-11
1.08648e-10
1.7249e-10
2.26445e-10
2.70415e-10
-5.60298e-10
-1.26767e-10
-5.02702e-10
-1.41449e-10
-4.44568e-10
-1.56094e-10
-3.85982e-10
-1.70097e-10
-3.26686e-10
-1.84057e-10
-2.6788e-10
-1.97409e-10
-2.07237e-10
-2.1074e-10
-1.45355e-10
-2.23018e-10
-8.36884e-11
-2.35195e-10
-1.97239e-11
-2.47306e-10
4.32724e-11
-2.57493e-10
1.07411e-10
-2.71048e-10
1.71323e-10
-2.83316e-10
2.34362e-10
-2.94478e-10
2.96253e-10
-3.04874e-10
3.56793e-10
-3.147e-10
4.15705e-10
-3.24263e-10
4.73854e-10
-3.33954e-10
5.30384e-10
-3.42793e-10
5.83814e-10
-3.50851e-10
6.35107e-10
-3.58697e-10
6.84216e-10
-3.65904e-10
7.31246e-10
-3.72847e-10
7.76444e-10
-3.79552e-10
8.19934e-10
-3.86233e-10
8.62144e-10
-3.93148e-10
9.0275e-10
-4.00054e-10
9.42046e-10
-4.07124e-10
9.79908e-10
-4.13999e-10
1.01728e-09
-4.21533e-10
1.05609e-09
-4.30213e-10
1.09381e-09
-4.35716e-10
1.13099e-09
-4.4166e-10
1.16808e-09
-4.47999e-10
1.20525e-09
-4.54647e-10
1.24297e-09
-4.61606e-10
1.28171e-09
-4.689e-10
1.32158e-09
-4.76508e-10
1.36273e-09
-4.84414e-10
1.40527e-09
-4.92622e-10
1.44928e-09
-5.01111e-10
1.49482e-09
-5.09843e-10
1.54189e-09
-5.18786e-10
1.59049e-09
-5.279e-10
1.64057e-09
-5.37136e-10
1.69209e-09
-5.46439e-10
1.74497e-09
-5.55741e-10
1.79913e-09
-5.64962e-10
1.85445e-09
-5.74004e-10
-5.82719e-10
1.91077e-09
2.01971e-10
-2.01725e-10
2.75764e-10
-2.15243e-10
3.47481e-10
-2.27811e-10
4.17524e-10
-2.4014e-10
4.85104e-10
-2.51638e-10
5.50521e-10
-2.62826e-10
6.13839e-10
-2.74058e-10
6.75095e-10
-2.84274e-10
7.33824e-10
-2.93924e-10
7.90008e-10
-3.03491e-10
8.45198e-10
-3.12683e-10
8.94426e-10
-3.20275e-10
9.38948e-10
-3.27839e-10
9.80493e-10
-3.36023e-10
1.01913e-09
-3.43507e-10
1.05516e-09
-3.50737e-10
1.08867e-09
-3.57768e-10
1.11959e-09
-3.64872e-10
1.1483e-09
-3.71501e-10
1.17494e-09
-3.775e-10
1.19837e-09
-3.82123e-10
1.2198e-09
-3.87336e-10
1.2398e-09
-3.92848e-10
1.25887e-09
-3.98617e-10
1.27729e-09
-4.04656e-10
1.29522e-09
-4.11073e-10
1.31293e-09
-4.17768e-10
1.33046e-09
-4.2465e-10
1.34845e-09
-4.31997e-10
1.36651e-09
-4.39588e-10
1.38348e-09
-4.47185e-10
1.40261e-09
-4.5485e-10
1.42406e-09
-4.63109e-10
1.4479e-09
-4.71832e-10
1.47428e-09
-4.81028e-10
1.50332e-09
-4.9065e-10
1.53507e-09
-5.00649e-10
1.56954e-09
-5.10972e-10
1.60669e-09
-5.21568e-10
1.64645e-09
-5.3238e-10
1.68869e-09
-5.43358e-10
1.7333e-09
-5.54447e-10
1.7801e-09
-5.65591e-10
1.82893e-09
-5.76731e-10
1.8796e-09
-5.87807e-10
1.93192e-09
-5.98752e-10
1.98567e-09
-6.09495e-10
2.04066e-09
-6.19952e-10
2.09668e-09
-6.30019e-10
-6.39564e-10
2.15352e-09
1.32931e-09
-2.40528e-10
1.36393e-09
-2.49866e-10
1.39497e-09
-2.58844e-10
1.42213e-09
-2.67308e-10
1.4457e-09
-2.752e-10
1.46672e-09
-2.83848e-10
1.48353e-09
-2.90874e-10
1.49585e-09
-2.96586e-10
1.50481e-09
-3.02887e-10
1.5108e-09
-3.09484e-10
1.51438e-09
-3.16262e-10
1.51698e-09
-3.22876e-10
1.51782e-09
-3.28673e-10
1.515e-09
-3.33207e-10
1.50989e-09
-3.38399e-10
1.50316e-09
-3.44008e-10
1.49553e-09
-3.50137e-10
1.48715e-09
-3.56492e-10
1.4785e-09
-3.62849e-10
1.46966e-09
-3.68657e-10
1.46171e-09
-3.74172e-10
1.45477e-09
-3.804e-10
1.4492e-09
-3.87276e-10
1.44533e-09
-3.9475e-10
1.44353e-09
-4.02858e-10
1.44428e-09
-4.11822e-10
1.44799e-09
-4.21473e-10
1.45464e-09
-4.31302e-10
1.46394e-09
-4.41297e-10
1.47629e-09
-4.51939e-10
1.49216e-09
-4.63059e-10
1.51203e-09
-4.74717e-10
1.53573e-09
-4.86809e-10
1.56321e-09
-4.99308e-10
1.59429e-09
-5.12113e-10
1.6288e-09
-5.25159e-10
1.66653e-09
-5.38373e-10
1.70724e-09
-5.51685e-10
1.75069e-09
-5.65025e-10
1.79664e-09
-5.78327e-10
1.84481e-09
-5.91529e-10
1.89494e-09
-6.0457e-10
1.94674e-09
-6.17394e-10
1.99995e-09
-6.29945e-10
2.05432e-09
-6.42171e-10
2.10958e-09
-6.54014e-10
2.1655e-09
-6.65416e-10
2.22185e-09
-6.76306e-10
2.27843e-09
-6.86593e-10
-6.96146e-10
2.33501e-09
2.55007e-09
-1.81765e-10
2.48826e-09
-1.88062e-10
2.42422e-09
-1.94798e-10
2.35862e-09
-2.01716e-10
2.29226e-09
-2.08834e-10
2.22433e-09
-2.15921e-10
2.15585e-09
-2.22389e-10
2.08869e-09
-2.29432e-10
2.02239e-09
-2.36582e-10
1.95757e-09
-2.4467e-10
1.89553e-09
-2.54222e-10
1.83863e-09
-2.65968e-10
1.78188e-09
-2.71931e-10
1.7278e-09
-2.7912e-10
1.67665e-09
-2.87256e-10
1.6289e-09
-2.96253e-10
1.58477e-09
-3.06014e-10
1.54529e-09
-3.17009e-10
1.50978e-09
-3.27332e-10
1.47762e-09
-3.36499e-10
1.45116e-09
-3.47716e-10
1.43013e-09
-3.59372e-10
1.41466e-09
-3.71804e-10
1.4048e-09
-3.84892e-10
1.40052e-09
-3.98573e-10
1.40152e-09