/*--------------------------------*- C++ -*----------------------------------*\
| =========                 |                                                 |
| \\      /  F ield         | OpenFOAM: The Open Source CFD Toolbox           |
|  \\    /   O peration     | Version:  2.4.0                                 |
|   \\  /    A nd           | Web:      www.OpenFOAM.org                      |
|    \\/     M anipulation  |                                                 |
\*---------------------------------------------------------------------------*/
FoamFile
{
    version     2.0;
    format      ascii;
    class       volVectorField;
    location    "3";
    object      U;
}
// * * * * * * * * * * * * * * * * * * * * * * * * * * * * * * * * * * * * * //

dimensions      [0 1 -1 0 0 0 0];

internalField   nonuniform List<vector> 
8000
(
(-3.95164e-07 -0.000313758 0)
(-2.62467e-06 -0.000918283 0)
(-6.11591e-06 -0.00150155 0)
(-1.02887e-05 -0.00206371 0)
(-1.44328e-05 -0.00260647 0)
(-1.81124e-05 -0.00312896 0)
(-2.06896e-05 -0.00363342 0)
(-2.19529e-05 -0.00411809 0)
(-2.12756e-05 -0.00458576 0)
(-1.86932e-05 -0.00503329 0)
(-1.35466e-05 -0.00546388 0)
(-5.68309e-06 -0.00587195 0)
(6.68687e-06 -0.00626118 0)
(2.60449e-05 -0.00662343 0)
(4.91445e-05 -0.00697089 0)
(3.56201e-05 -0.0073072 0)
(-0.00015466 -0.00761008 0)
(-0.000508506 -0.00754662 0)
(-0.000877396 -0.00761002 0)
(-0.00126867 -0.00700956 0)
(-0.00223497 0.00328932 0)
(-0.00442643 -0.00554901 0)
(-0.0111678 0.00810044 0)
(-0.010356 0.0306012 0)
(-0.00959643 0.0264929 0)
(-0.0103972 0.0235028 0)
(-0.0107611 0.0209619 0)
(-0.0109282 0.0187783 0)
(-0.0109988 0.0170012 0)
(-0.011019 0.0156005 0)
(-0.0109986 0.0144143 0)
(-0.0109402 0.0133209 0)
(-0.0108345 0.0123332 0)
(-0.0106862 0.0112823 0)
(-0.0105029 0.0102583 0)
(-0.010283 0.00924546 0)
(-0.0100297 0.00817288 0)
(-0.00974964 0.00706593 0)
(-0.0094428 0.00592314 0)
(-0.00912425 0.00491879 0)
(-0.00879834 0.00372409 0)
(-0.00845349 0.00279576 0)
(-0.0080793 0.00179559 0)
(-0.00767777 0.000591329 0)
(-0.00726084 -0.000668328 0)
(-0.00685111 -0.00196277 0)
(-0.00645053 -0.0033344 0)
(-0.00603394 -0.0047633 0)
(-0.00560019 -0.00619526 0)
(-0.00516095 -0.00765193 0)
(-1.20626e-06 -0.000244431 0)
(-1.02617e-05 -0.000734791 0)
(-2.58667e-05 -0.00122603 0)
(-4.7075e-05 -0.00171723 0)
(-7.05188e-05 -0.0022078 0)
(-9.57611e-05 -0.00269652 0)
(-0.000118907 -0.00318365 0)
(-0.000140244 -0.00366686 0)
(-0.000154973 -0.00414813 0)
(-0.000162856 -0.00462183 0)
(-0.0001562 -0.00509336 0)
(-0.00013321 -0.005556 0)
(-0.000106542 -0.00603559 0)
(-0.000168469 -0.00654101 0)
(-0.000502011 -0.00665743 0)
(-0.00097024 -0.00655927 0)
(-0.00131264 -0.00703183 0)
(-0.00158395 -0.00552327 0)
(-0.00332046 0.00218648 0)
(-0.00458975 -0.00231693 0)
(-0.00975709 0.0712137 0)
(-0.00776244 0.0447085 0)
(-0.00893519 0.0340931 0)
(-0.00962542 0.0288874 0)
(-0.00968149 0.0254969 0)
(-0.00958864 0.0227589 0)
(-0.00945118 0.0205837 0)
(-0.00929984 0.0186645 0)
(-0.00913011 0.0168896 0)
(-0.00892948 0.0152311 0)
(-0.00869565 0.0138156 0)
(-0.00842973 0.012424 0)
(-0.0081378 0.0110591 0)
(-0.00781204 0.00948349 0)
(-0.00744908 0.00796621 0)
(-0.00705844 0.0064752 0)
(-0.00663602 0.00501785 0)
(-0.00618633 0.00355448 0)
(-0.00572156 0.00204386 0)
(-0.00522416 0.000740204 0)
(-0.00468927 -0.000673694 0)
(-0.00412682 -0.00207528 0)
(-0.00354563 -0.00357774 0)
(-0.00294547 -0.00514191 0)
(-0.00233865 -0.00663115 0)
(-0.00175272 -0.00802823 0)
(-0.00115131 -0.00958991 0)
(-0.000525067 -0.0113374 0)
(9.62119e-05 -0.0129558 0)
(0.000712927 -0.0145147 0)
(-4.28949e-07 -0.000193509 0)
(-3.53124e-06 -0.000605709 0)
(-8.85151e-06 -0.00104631 0)
(-1.5554e-05 -0.00151057 0)
(-2.29201e-05 -0.0020084 0)
(-2.95944e-05 -0.00252873 0)
(-3.54833e-05 -0.00309048 0)
(-3.5914e-05 -0.00367343 0)
(-2.52443e-05 -0.00431005 0)
(3.00617e-06 -0.00496952 0)
(-9.1392e-06 -0.00571873 0)
(-0.000269602 -0.00655628 0)
(-0.000832726 -0.00644009 0)
(-0.00126998 -0.00699378 0)
(-0.00138615 -0.00698048 0)
(-0.00193729 0.00132648 0)
(-0.00344343 -0.00707642 0)
(-0.00959279 0.018523 0)
(-0.0083166 0.0458135 0)
(-0.00735713 0.04305 0)
(-0.00749619 0.0414575 0)
(-0.00626309 0.0363343 0)
(-0.00519875 0.0308734 0)
(-0.00431355 0.0259766 0)
(-0.00353292 0.0219827 0)
(-0.00279285 0.0184604 0)
(-0.00209431 0.0154144 0)
(-0.00142847 0.0128031 0)
(-0.000787527 0.0104854 0)
(-0.000159137 0.00837064 0)
(0.000461462 0.00646622 0)
(0.00107602 0.00470399 0)
(0.00167945 0.00302861 0)
(0.00226682 0.00135368 0)
(0.00283233 -0.000279187 0)
(0.00339274 -0.00196985 0)
(0.00393733 -0.0036288 0)
(0.00446792 -0.0052672 0)
(0.00499952 -0.00699974 0)
(0.00552702 -0.00876555 0)
(0.00604087 -0.01043 0)
(0.00655734 -0.0120263 0)
(0.0070804 -0.0135901 0)
(0.00758216 -0.0149538 0)
(0.00806865 -0.0164521 0)
(0.00853034 -0.0178599 0)
(0.00898059 -0.0194189 0)
(0.00940866 -0.0209109 0)
(0.00980026 -0.022237 0)
(0.0101639 -0.023466 0)
(1.34955e-07 -0.000202626 0)
(-9.68422e-07 -0.000627741 0)
(-5.41043e-06 -0.0010783 0)
(-1.43638e-05 -0.00154406 0)
(-3.00425e-05 -0.00204403 0)
(-5.1665e-05 -0.00255611 0)
(-7.68989e-05 -0.00311267 0)
(-0.000106597 -0.00367863 0)
(-0.000180849 -0.00430842 0)
(-0.000441612 -0.00474402 0)
(-0.000848023 -0.00522231 0)
(-0.00128822 -0.00694899 0)
(-0.00174997 0.00163834 0)
(-0.00144424 -0.00600763 0)
(-0.0022379 -0.00763701 0)
(-0.000391694 0.0516218 0)
(0.00111615 0.0410808 0)
(0.00186836 0.0334939 0)
(0.00322053 0.0247703 0)
(0.00528558 0.0198747 0)
(0.00743197 0.0166284 0)
(0.0094956 0.0141904 0)
(0.0113301 0.0120579 0)
(0.0129349 0.00995214 0)
(0.0143588 0.00821049 0)
(0.0155663 0.00687392 0)
(0.0166073 0.00536138 0)
(0.0175524 0.00383926 0)
(0.0183845 0.00239989 0)
(0.0191142 0.00109248 0)
(0.0197729 -0.000247399 0)
(0.0203805 -0.00158937 0)
(0.0209467 -0.00294126 0)
(0.0214444 -0.00411978 0)
(0.0218783 -0.00522405 0)
(0.0222479 -0.00638136 0)
(0.022549 -0.00767983 0)
(0.0227833 -0.00904642 0)
(0.0229478 -0.0104819 0)
(0.0230496 -0.0118597 0)
(0.0230915 -0.0132286 0)
(0.0230766 -0.0146237 0)
(0.0230069 -0.0159664 0)
(0.0229028 -0.0170597 0)
(0.0227576 -0.0179541 0)
(0.0225323 -0.0187211 0)
(0.0222268 -0.01982 0)
(0.0218885 -0.020826 0)
(0.0215214 -0.0215853 0)
(0.0211065 -0.0222853 0)
(7.6262e-07 -0.000181074 0)
(3.0661e-06 -0.00053618 0)
(5.81694e-06 -0.000878489 0)
(7.88774e-06 -0.00121355 0)
(1.00696e-05 -0.00153323 0)
(1.51894e-05 -0.00184481 0)
(1.32861e-05 -0.00213243 0)
(-5.48389e-05 -0.00241308 0)
(-0.000295474 -0.00269013 0)
(-0.000708835 -0.00275864 0)
(-0.000661529 0.000362062 0)
(-0.000670041 -0.00349626 0)
(1.61602e-05 -0.00687948 0)
(0.001261 -0.0154528 0)
(0.00170564 -0.0143432 0)
(0.00270718 -0.0165162 0)
(0.00458152 -0.0146852 0)
(0.00665669 -0.0138758 0)
(0.00832639 -0.0134057 0)
(0.00958103 -0.0128176 0)
(0.010692 -0.0126158 0)
(0.0117318 -0.012452 0)
(0.012682 -0.0121842 0)
(0.013528 -0.011909 0)
(0.0142789 -0.0114267 0)
(0.0149774 -0.0108739 0)
(0.0156254 -0.0104168 0)
(0.016186 -0.00967677 0)
(0.0166487 -0.00914898 0)
(0.0170539 -0.00933648 0)
(0.0174388 -0.00996969 0)
(0.0177884 -0.0103741 0)
(0.018073 -0.0103573 0)
(0.0183094 -0.0104734 0)
(0.0185254 -0.0106374 0)
(0.0187059 -0.0105895 0)
(0.0187881 -0.0104823 0)
(0.0187387 -0.0102595 0)
(0.0185988 -0.0101907 0)
(0.018396 -0.0102224 0)
(0.018152 -0.0103905 0)
(0.0178746 -0.0106482 0)
(0.0175607 -0.0109712 0)
(0.0172093 -0.0113215 0)
(0.0168413 -0.0114164 0)
(0.0164789 -0.0114601 0)
(0.0161086 -0.0118264 0)
(0.0157058 -0.0123372 0)
(0.0152994 -0.0127299 0)
(0.0149013 -0.0129902 0)
(8.51015e-07 -0.000226508 0)
(1.99941e-05 -0.000675332 0)
(5.68896e-05 -0.00111385 0)
(0.000115378 -0.00154974 0)
(0.000195807 -0.00196909 0)
(0.000277747 -0.00239091 0)
(0.00037188 -0.00278423 0)
(0.000487138 -0.00319021 0)
(0.000597602 -0.00383425 0)
(0.000771195 -0.00734097 0)
(0.000984517 -0.0097772 0)
(0.00122111 -0.0111692 0)
(0.00128126 -0.0110859 0)
(0.000871483 -0.0109176 0)
(0.000354162 -0.0111391 0)
(2.09374e-05 -0.0117903 0)
(-0.00023101 -0.0117363 0)
(-0.000423537 -0.0118912 0)
(-0.000538911 -0.0117288 0)
(-0.000643144 -0.0115036 0)
(-0.00074012 -0.0112926 0)
(-0.000842183 -0.011052 0)
(-0.000932969 -0.0108118 0)
(-0.00100847 -0.0105541 0)
(-0.00106506 -0.0102912 0)
(-0.00110625 -0.010046 0)
(-0.00113157 -0.00980085 0)
(-0.00112595 -0.00952625 0)
(-0.001069 -0.00930076 0)
(-0.000986516 -0.00928313 0)
(-0.000948863 -0.00934726 0)
(-0.000971297 -0.00928645 0)
(-0.00100507 -0.00947248 0)
(-0.00102353 -0.0104783 0)
(-0.00101643 -0.0112772 0)
(-0.000992374 -0.010406 0)
(-0.00101673 -0.00795622 0)
(-0.00108923 -0.00648298 0)
(-0.00113934 -0.00684637 0)
(-0.00113625 -0.00734559 0)
(-0.00111044 -0.00773401 0)
(-0.00107096 -0.0081799 0)
(-0.00101428 -0.00864504 0)
(-0.000947006 -0.00911332 0)
(-0.000876339 -0.00959122 0)
(-0.000804026 -0.010099 0)
(-0.000731447 -0.0106335 0)
(-0.000661732 -0.0111853 0)
(-0.000598631 -0.0117087 0)
(-0.00053916 -0.0120799 0)
(4.17202e-06 -0.000462574 0)
(3.00626e-05 -0.00133099 0)
(7.70808e-05 -0.00214862 0)
(0.000140632 -0.00291274 0)
(0.00022426 -0.00362949 0)
(0.000331954 -0.00429561 0)
(0.000468162 -0.0049198 0)
(0.000527 -0.00549207 0)
(0.000141524 -0.0060369 0)
(-0.000461836 -0.00660226 0)
(-0.000753241 -0.00714456 0)
(-0.000918109 -0.00788743 0)
(-0.00103628 -0.00852192 0)
(-0.00110266 -0.00890389 0)
(-0.00117457 -0.00910929 0)
(-0.00128827 -0.00925924 0)
(-0.00142361 -0.00937379 0)
(-0.00155477 -0.00951978 0)
(-0.00168242 -0.00961326 0)
(-0.00179267 -0.00964933 0)
(-0.00189149 -0.00966619 0)
(-0.00197686 -0.00967428 0)
(-0.00205292 -0.00970244 0)
(-0.00211594 -0.00973974 0)
(-0.00216872 -0.00979728 0)
(-0.00220855 -0.00987417 0)
(-0.00223757 -0.00997939 0)
(-0.00225276 -0.0101054 0)
(-0.0022557 -0.0102217 0)
(-0.00224801 -0.0102644 0)
(-0.00223735 -0.0102103 0)
(-0.00222468 -0.0101026 0)
(-0.00221652 -0.00996741 0)
(-0.00223555 -0.00983023 0)
(-0.00230033 -0.00976718 0)
(-0.00237915 -0.00976109 0)
(-0.00238379 -0.00959628 0)
(-0.00224501 -0.00931786 0)
(-0.00204774 -0.00934311 0)
(-0.00192317 -0.00967297 0)
(-0.00183773 -0.0103878 0)
(-0.00174821 -0.0112329 0)
(-0.00165917 -0.0119865 0)
(-0.00157234 -0.0124374 0)
(-0.0014956 -0.0125926 0)
(-0.00143175 -0.0127811 0)
(-0.00137744 -0.0130569 0)
(-0.00133359 -0.0134254 0)
(-0.00129706 -0.0138337 0)
(-0.00125822 -0.0142519 0)
(-1.63873e-06 -0.00053601 0)
(-9.61937e-06 -0.0015229 0)
(-2.25893e-05 -0.0024319 0)
(-3.96502e-05 -0.00326047 0)
(-6.03824e-05 -0.00401488 0)
(-8.22239e-05 -0.00468886 0)
(-0.000108387 -0.00529606 0)
(-0.000130926 -0.00582222 0)
(-0.000151495 -0.0062809 0)
(-0.000190101 -0.00661679 0)
(-0.000259781 -0.00700482 0)
(-0.000457375 -0.00752608 0)
(-0.000702613 -0.00803243 0)
(-0.000844768 -0.00835472 0)
(-0.000937857 -0.00851271 0)
(-0.00100854 -0.00861197 0)
(-0.00106814 -0.00869444 0)
(-0.00112365 -0.00878428 0)
(-0.00117347 -0.00891383 0)
(-0.00121486 -0.0090476 0)
(-0.00124727 -0.00914943 0)
(-0.00127469 -0.00921127 0)
(-0.001299 -0.00925166 0)
(-0.00132306 -0.00927011 0)
(-0.00134753 -0.00927463 0)
(-0.00137505 -0.00927074 0)
(-0.00140644 -0.00927149 0)
(-0.00144392 -0.00928392 0)
(-0.00148719 -0.00931 0)
(-0.00153492 -0.00933654 0)
(-0.00158046 -0.00936109 0)
(-0.00161921 -0.00939545 0)
(-0.00164904 -0.00944924 0)
(-0.00166989 -0.00952632 0)
(-0.00168242 -0.00963483 0)
(-0.00169072 -0.00978526 0)
(-0.00169482 -0.00997915 0)
(-0.00168923 -0.0101865 0)
(-0.00166883 -0.0103591 0)
(-0.00164275 -0.0105028 0)
(-0.00163174 -0.0106737 0)
(-0.00165033 -0.0108764 0)
(-0.00169075 -0.0111303 0)
(-0.0017167 -0.0114253 0)
(-0.00173878 -0.0117053 0)
(-0.00179708 -0.0120482 0)
(-0.00184763 -0.0123022 0)
(-0.00186041 -0.0125649 0)
(-0.00183441 -0.0129863 0)
(-0.00178956 -0.0134967 0)
(-1.64962e-06 -0.000389266 0)
(-1.69042e-05 -0.00113383 0)
(-4.59442e-05 -0.00184481 0)
(-8.68064e-05 -0.00252269 0)
(-0.000137124 -0.00316683 0)
(-0.000194283 -0.00377834 0)
(-0.000256539 -0.00435664 0)
(-0.000321226 -0.00490314 0)
(-0.000386365 -0.00541768 0)
(-0.000450318 -0.00590298 0)
(-0.000513707 -0.0063574 0)
(-0.000581337 -0.00678196 0)
(-0.000654247 -0.00715214 0)
(-0.000727349 -0.00746463 0)
(-0.00079772 -0.00772463 0)
(-0.00085801 -0.00794825 0)
(-0.000901991 -0.00813555 0)
(-0.000949357 -0.00831482 0)
(-0.00101972 -0.00851435 0)
(-0.0010961 -0.00870957 0)
(-0.00115992 -0.00886378 0)
(-0.00121405 -0.00897559 0)
(-0.00125923 -0.00905607 0)
(-0.00129726 -0.00911117 0)
(-0.0013274 -0.00914549 0)
(-0.00135001 -0.00916522 0)
(-0.00136562 -0.00917482 0)
(-0.00137572 -0.0091762 0)
(-0.00138324 -0.00916328 0)
(-0.00138952 -0.00917667 0)
(-0.00139202 -0.00924497 0)
(-0.00139006 -0.00931815 0)
(-0.0013871 -0.00936738 0)
(-0.00138682 -0.00940437 0)
(-0.00139121 -0.00943985 0)
(-0.00140196 -0.00948753 0)
(-0.00142088 -0.00955617 0)
(-0.00144869 -0.00964236 0)
(-0.00148301 -0.00974015 0)
(-0.00152107 -0.00985943 0)
(-0.00156274 -0.0100233 0)
(-0.00160809 -0.0102603 0)
(-0.00165452 -0.0105992 0)
(-0.00169851 -0.0110437 0)
(-0.00173954 -0.0115697 0)
(-0.00178002 -0.0122391 0)
(-0.00179537 -0.0131732 0)
(-0.00173306 -0.014275 0)
(-0.00170185 -0.0150293 0)
(-0.00173754 -0.0152164 0)
(-9.89198e-07 -0.000318227 0)
(-9.69382e-06 -0.000934339 0)
(-2.67433e-05 -0.00152916 0)
(-5.14642e-05 -0.00210194 0)
(-8.29341e-05 -0.00265231 0)
(-0.000120357 -0.0031799 0)
(-0.000163024 -0.00368476 0)
(-0.000210281 -0.00416653 0)
(-0.000261495 -0.00462539 0)
(-0.000316082 -0.00506119 0)
(-0.000373466 -0.00547436 0)
(-0.000432935 -0.00586466 0)
(-0.000493528 -0.00623222 0)
(-0.000553821 -0.00657673 0)
(-0.000612437 -0.00689895 0)
(-0.000668098 -0.00719911 0)
(-0.000720148 -0.00747877 0)
(-0.00076855 -0.00773873 0)
(-0.000813965 -0.00797897 0)
(-0.00085703 -0.00819743 0)
(-0.000897788 -0.00839377 0)
(-0.000935087 -0.00856839 0)
(-0.00096639 -0.00872293 0)
(-0.000992054 -0.00885794 0)
(-0.00101291 -0.00897382 0)
(-0.00102801 -0.00907066 0)
(-0.00104042 -0.00914801 0)
(-0.00104861 -0.00920417 0)
(-0.00104804 -0.00923543 0)
(-0.00105395 -0.00927976 0)
(-0.00107389 -0.00935789 0)
(-0.00109306 -0.00942405 0)
(-0.00110562 -0.00945805 0)
(-0.00111238 -0.00947013 0)
(-0.00111344 -0.00946845 0)
(-0.00111144 -0.00945635 0)
(-0.00110906 -0.00944267 0)
(-0.00110669 -0.00947083 0)
(-0.00110371 -0.00953482 0)
(-0.00110189 -0.00959587 0)
(-0.00110535 -0.00966368 0)
(-0.00111678 -0.00976747 0)
(-0.00113869 -0.00991191 0)
(-0.00117437 -0.0100946 0)
(-0.00122701 -0.01033 0)
(-0.0012993 -0.0106676 0)
(-0.00139479 -0.0112132 0)
(-0.00151435 -0.0121372 0)
(-0.00164106 -0.0134947 0)
(-0.00174026 -0.0146151 0)
(-5.31463e-07 -0.000273557 0)
(-6.37514e-06 -0.000805892 0)
(-1.82593e-05 -0.00132304 0)
(-3.58144e-05 -0.00182498 0)
(-5.8458e-05 -0.00231158 0)
(-8.56377e-05 -0.00278266 0)
(-0.000116878 -0.00323802 0)
(-0.000151703 -0.00367738 0)
(-0.000189654 -0.00410053 0)
(-0.000230265 -0.00450732 0)
(-0.000273096 -0.00489762 0)
(-0.000317707 -0.00527139 0)
(-0.000363667 -0.0056286 0)
(-0.000410541 -0.00596931 0)
(-0.000457913 -0.00629363 0)
(-0.000505381 -0.00660174 0)
(-0.000552595 -0.00689388 0)
(-0.000599216 -0.00717029 0)
(-0.000644934 -0.00743122 0)
(-0.000689409 -0.00767688 0)
(-0.000732286 -0.00790747 0)
(-0.000773163 -0.00812321 0)
(-0.000811688 -0.00832443 0)
(-0.000847503 -0.00851158 0)
(-0.00088033 -0.00868498 0)
(-0.000909815 -0.00884502 0)
(-0.00093563 -0.00899218 0)
(-0.00095737 -0.00912656 0)
(-0.000974855 -0.00924889 0)
(-0.000988456 -0.00935966 0)
(-0.000999111 -0.00945835 0)
(-0.00100726 -0.00954228 0)
(-0.00101276 -0.00961065 0)
(-0.00101493 -0.00966326 0)
(-0.001013 -0.00969989 0)
(-0.00100623 -0.00971813 0)
(-0.000997038 -0.00972439 0)
(-0.000999276 -0.00975897 0)
(-0.00100814 -0.00981241 0)
(-0.00100858 -0.00985024 0)
(-0.00100353 -0.00987588 0)
(-0.000997228 -0.00991556 0)
(-0.000991823 -0.00999008 0)
(-0.000989094 -0.0100789 0)
(-0.000991868 -0.0101797 0)
(-0.00100321 -0.0102998 0)
(-0.00102926 -0.0104362 0)
(-0.0010841 -0.010595 0)
(-0.00119095 -0.0107844 0)
(-0.00136087 -0.0109826 0)
(-6.37349e-07 -0.000235231 0)
(-5.31738e-06 -0.00069654 0)
(-1.43734e-05 -0.00114797 0)
(-2.74398e-05 -0.00158919 0)
(-4.41346e-05 -0.00201998 0)
(-6.4129e-05 -0.00244012 0)
(-8.71379e-05 -0.00284937 0)
(-0.000112877 -0.00324747 0)
(-0.000141053 -0.00363415 0)
(-0.000171376 -0.0040092 0)
(-0.000203548 -0.0043724 0)
(-0.000237282 -0.00472362 0)
(-0.000272285 -0.00506274 0)
(-0.000308274 -0.0053897 0)
(-0.000344967 -0.00570442 0)
(-0.000382094 -0.0060069 0)
(-0.000419389 -0.00629712 0)
(-0.000456604 -0.00657511 0)
(-0.000493493 -0.0068409 0)
(-0.000529826 -0.00709457 0)
(-0.000565373 -0.0073362 0)
(-0.000599921 -0.00756591 0)
(-0.000633255 -0.00778383 0)
(-0.000665187 -0.00799014 0)
(-0.000695523 -0.00818498 0)
(-0.000724102 -0.00836861 0)
(-0.000750752 -0.00854118 0)
(-0.000775336 -0.00870302 0)
(-0.000797708 -0.0088543 0)
(-0.000817755 -0.00899542 0)
(-0.000835323 -0.00912651 0)
(-0.000850249 -0.00924794 0)
(-0.000862262 -0.0093598 0)
(-0.000871081 -0.0094626 0)
(-0.000876325 -0.00955646 0)
(-0.000877744 -0.00964215 0)
(-0.000875323 -0.00971985 0)
(-0.000869726 -0.00979038 0)
(-0.000861637 -0.00985178 0)
(-0.000851157 -0.00990219 0)
(-0.000837779 -0.00994003 0)
(-0.000823038 -0.00997768 0)
(-0.000815276 -0.0100381 0)
(-0.000810467 -0.0101041 0)
(-0.00079971 -0.0101895 0)
(-0.000787237 -0.0102741 0)
(-0.000776936 -0.0103503 0)
(-0.000770201 -0.0104196 0)
(-0.000768365 -0.010487 0)
(-0.000773558 -0.0105559 0)
(-4.63468e-08 -0.000215899 0)
(-1.94171e-06 -0.000640263 0)
(-6.16888e-06 -0.00105679 0)
(-1.27007e-05 -0.0014653 0)
(-2.13785e-05 -0.00186562 0)
(-3.20287e-05 -0.00225757 0)
(-4.44979e-05 -0.00264101 0)
(-5.86293e-05 -0.00301573 0)
(-7.42579e-05 -0.00338158 0)
(-9.12135e-05 -0.0037384 0)
(-0.000109319 -0.00408606 0)
(-0.000128393 -0.00442445 0)
(-0.000148253 -0.00475348 0)
(-0.000168714 -0.0050731 0)
(-0.000189591 -0.00538326 0)
(-0.000210698 -0.0056839 0)
(-0.000231851 -0.00597501 0)
(-0.000252868 -0.00625656 0)
(-0.000273568 -0.00652857 0)
(-0.000293774 -0.00679104 0)
(-0.000313313 -0.00704399 0)
(-0.000332017 -0.00728748 0)
(-0.000349721 -0.00752155 0)
(-0.000366268 -0.00774626 0)
(-0.000381507 -0.0079617 0)
(-0.000395296 -0.00816793 0)
(-0.000407498 -0.00836506 0)
(-0.000417989 -0.00855316 0)
(-0.000426651 -0.00873239 0)
(-0.000433384 -0.00890281 0)
(-0.000438089 -0.00906463 0)
(-0.000440685 -0.00921791 0)
(-0.000441096 -0.0093629 0)
(-0.000439261 -0.00949966 0)
(-0.000435132 -0.00962852 0)
(-0.000428681 -0.00974955 0)
(-0.0004199 -0.00986316 0)
(-0.000408784 -0.00996939 0)
(-0.00039531 -0.0100687 0)
(-0.000379395 -0.010161 0)
(-0.000361031 -0.0102468 0)
(-0.000340378 -0.0103261 0)
(-0.000318009 -0.0103996 0)
(-0.000294479 -0.0104655 0)
(-0.000272189 -0.0105422 0)
(-0.000253441 -0.0106101 0)
(-0.000235569 -0.010666 0)
(-0.000216981 -0.0107082 0)
(-0.000198761 -0.0107405 0)
(-0.000180628 -0.0107683 0)
(-3.75509e-07 -0.000203719 0)
(-2.65161e-06 -0.000604313 0)
(-6.89826e-06 -0.000997934 0)
(-1.29131e-05 -0.0013846 0)
(-2.05276e-05 -0.00176432 0)
(-2.9603e-05 -0.00213707 0)
(-4.00229e-05 -0.00250278 0)
(-5.16701e-05 -0.00286136 0)
(-6.4424e-05 -0.00321273 0)
(-7.81617e-05 -0.00355679 0)
(-9.27615e-05 -0.00389348 0)
(-0.000108099 -0.00422271 0)
(-0.000124054 -0.00454444 0)
(-0.000140503 -0.00485861 0)
(-0.000157327 -0.00516518 0)
(-0.000174404 -0.0054641 0)
(-0.00019162 -0.00575533 0)
(-0.000208855 -0.00603885 0)
(-0.000226 -0.00631463 0)
(-0.000242938 -0.00658264 0)
(-0.000259569 -0.00684288 0)
(-0.000275778 -0.00709533 0)
(-0.000291477 -0.00733998 0)
(-0.000306556 -0.00757686 0)
(-0.000320939 -0.00780594 0)
(-0.000334522 -0.00802724 0)
(-0.000347244 -0.00824073 0)
(-0.000359006 -0.00844645 0)
(-0.000369769 -0.00864436 0)
(-0.000379436 -0.0088345 0)
(-0.000387994 -0.00901682 0)
(-0.00039535 -0.00919137 0)
(-0.000401521 -0.00935806 0)
(-0.000406415 -0.00951696 0)
(-0.000410087 -0.00966793 0)
(-0.000412452 -0.00981108 0)
(-0.000413604 -0.00994617 0)
(-0.000413465 -0.0100734 0)
(-0.000412127 -0.0101923 0)
(-0.000409458 -0.0103034 0)
(-0.000405518 -0.0104059 0)
(-0.00040076 -0.010501 0)
(-0.000397487 -0.0105888 0)
(-0.000402289 -0.0106593 0)
(-0.000411925 -0.0107207 0)
(-0.000417101 -0.0107803 0)
(-0.000418292 -0.0108388 0)
(-0.000417878 -0.0108931 0)
(-0.000414908 -0.0109401 0)
(-0.000408521 -0.010978 0)
(4.29464e-08 -0.000190819 0)
(-5.05539e-07 -0.000567971 0)
(-1.8523e-06 -0.000940311 0)
(-4.00224e-06 -0.00130763 0)
(-6.89182e-06 -0.00166976 0)
(-1.04462e-05 -0.00202653 0)
(-1.45994e-05 -0.00237779 0)
(-1.92861e-05 -0.00272336 0)
(-2.4438e-05 -0.00306311 0)
(-2.99861e-05 -0.0033969 0)
(-3.58595e-05 -0.0037246 0)
(-4.19855e-05 -0.00404611 0)
(-4.82924e-05 -0.00436133 0)
(-5.47045e-05 -0.00467017 0)
(-6.11498e-05 -0.00497256 0)
(-6.75508e-05 -0.00526842 0)
(-7.38372e-05 -0.00555767 0)
(-7.9928e-05 -0.00584025 0)
(-8.57559e-05 -0.0061161 0)
(-9.12358e-05 -0.00638517 0)
(-9.63061e-05 -0.00664738 0)
(-0.000100876 -0.00690272 0)
(-0.000104892 -0.00715109 0)
(-0.000108254 -0.0073925 0)
(-0.000110923 -0.00762683 0)
(-0.000112785 -0.00785412 0)
(-0.000113816 -0.00807421 0)
(-0.000113887 -0.00828717 0)
(-0.000112993 -0.00849279 0)
(-0.000110982 -0.00869121 0)
(-0.000107875 -0.00888213 0)
(-0.000103492 -0.00906579 0)
(-9.7884e-05 -0.00924173 0)
(-9.08434e-05 -0.0094104 0)
(-8.24509e-05 -0.00957106 0)
(-7.24538e-05 -0.00972449 0)
(-6.08635e-05 -0.00986948 0)
(-4.73549e-05 -0.0100074 0)
(-3.20924e-05 -0.0101365 0)
(-1.62048e-05 -0.0102602 0)
(-4.2282e-06 -0.0103784 0)
(-7.39257e-06 -0.0104674 0)
(-2.03402e-05 -0.0105169 0)
(-2.60531e-05 -0.0105495 0)
(-2.57754e-05 -0.0105756 0)
(-2.83368e-05 -0.0106083 0)
(-3.71889e-05 -0.0106536 0)
(-5.54799e-05 -0.0107253 0)
(-8.25327e-05 -0.0108311 0)
(-0.00010899 -0.0109593 0)
(-1.12208e-07 -0.000192022 0)
(-5.015e-07 -0.000570637 0)
(-1.09694e-06 -0.000943804 0)
(-1.81978e-06 -0.00131156 0)
(-2.63107e-06 -0.00167391 0)
(-3.48853e-06 -0.00203087 0)
(-4.36121e-06 -0.0023824 0)
(-5.20156e-06 -0.00272848 0)
(-5.97361e-06 -0.00306905 0)
(-6.62042e-06 -0.00340407 0)
(-7.10554e-06 -0.00373348 0)
(-7.36008e-06 -0.00405727 0)
(-7.34887e-06 -0.00437537 0)
(-6.99143e-06 -0.00468777 0)
(-6.25619e-06 -0.00499441 0)
(-5.04934e-06 -0.00529526 0)
(-3.34586e-06 -0.00559029 0)
(-1.03482e-06 -0.00587949 0)
(1.9011e-06 -0.0061628 0)
(5.5924e-06 -0.00644023 0)
(1.00462e-05 -0.00671172 0)
(1.54152e-05 -0.0069773 0)
(2.1696e-05 -0.00723689 0)
(2.90656e-05 -0.00749057 0)
(3.75113e-05 -0.0077382 0)
(4.72335e-05 -0.00797996 0)
(5.8216e-05 -0.00821558 0)
(7.06795e-05 -0.00844541 0)
(8.46129e-05 -0.008669 0)
(0.000100249 -0.00888693 0)
(0.000117592 -0.00909842 0)
(0.000136869 -0.00930452 0)
(0.000158109 -0.00950382 0)
(0.000181565 -0.00969813 0)
(0.000207476 -0.009885 0)
(0.000236356 -0.0100675 0)
(0.000268381 -0.0102421 0)
(0.000300653 -0.0104155 0)
(0.000320756 -0.0105892 0)
(0.0003026 -0.0106744 0)
(0.000272294 -0.0107243 0)
(0.00026417 -0.0107492 0)
(0.000262502 -0.0107329 0)
(0.000256439 -0.0107121 0)
(0.000245823 -0.0106792 0)
(0.000233398 -0.0106275 0)
(0.000220218 -0.0105325 0)
(0.000196777 -0.0103986 0)
(0.000137477 -0.0103055 0)
(2.1492e-05 -0.0104762 0)
(9.47832e-08 -0.000188465 0)
(6.61576e-07 -0.000561511 0)
(1.73395e-06 -0.000930469 0)
(3.28816e-06 -0.0012952 0)
(5.29924e-06 -0.0016556 0)
(7.76861e-06 -0.00201158 0)
(1.06902e-05 -0.00236303 0)
(1.40762e-05 -0.00270989 0)
(1.79256e-05 -0.00305205 0)
(2.22584e-05 -0.00338945 0)
(2.70779e-05 -0.00372204 0)
(3.24111e-05 -0.0040498 0)
(3.82667e-05 -0.00437264 0)
(4.46738e-05 -0.00469059 0)
(5.16475e-05 -0.00500355 0)
(5.92147e-05 -0.00531159 0)
(6.74003e-05 -0.00561459 0)
(7.62215e-05 -0.00591268 0)
(8.57194e-05 -0.0062057 0)
(9.58921e-05 -0.00649388 0)
(0.000106805 -0.00677695 0)
(0.000118422 -0.0070553 0)
(0.000130846 -0.00732853 0)
(0.000143991 -0.00759721 0)
(0.000158011 -0.00786076 0)
(0.00017275 -0.00812001 0)
(0.000188432 -0.00837414 0)
(0.000204808 -0.00862426 0)
(0.000222183 -0.00886928 0)
(0.000240186 -0.00911063 0)
(0.000259202 -0.00934692 0)
(0.000278794 -0.0095798 0)
(0.000299641 -0.00980768 0)
(0.000321642 -0.0100324 0)
(0.000344966 -0.0102538 0)
(0.000363019 -0.0104773 0)
(0.000354274 -0.0107046 0)
(0.000301212 -0.0107776 0)
(0.000246825 -0.0108364 0)
(0.000218951 -0.0107964 0)
(0.000189796 -0.0106948 0)
(0.000144207 -0.0105543 0)
(6.19928e-05 -0.0103839 0)
(-5.89892e-05 -0.0102827 0)
(-0.0001996 -0.0102434 0)
(-0.000365095 -0.0101772 0)
(-0.00054212 -0.0100931 0)
(-0.000612632 -0.00977848 0)
(-0.000494469 -0.00891543 0)
(-0.000243755 -0.00832781 0)
(6.6202e-08 -0.000198087 0)
(7.00558e-07 -0.000588554 0)
(2.00232e-06 -0.000973384 0)
(3.93867e-06 -0.00135267 0)
(6.49113e-06 -0.00172646 0)
(9.60146e-06 -0.00209485 0)
(1.32774e-05 -0.00245784 0)
(1.74497e-05 -0.00281554 0)
(2.21464e-05 -0.00316793 0)
(2.72778e-05 -0.0035151 0)
(3.28932e-05 -0.00385702 0)
(3.88739e-05 -0.00419377 0)
(4.52955e-05 -0.00452531 0)
(5.20024e-05 -0.00485168 0)
(5.91037e-05 -0.00517284 0)
(6.63978e-05 -0.00548884 0)
(7.40358e-05 -0.00579958 0)
(8.17601e-05 -0.00610513 0)
(8.97722e-05 -0.00640541 0)
(9.77504e-05 -0.00670042 0)
(0.000105955 -0.0069901 0)
(0.000113995 -0.00727438 0)
(0.000122195 -0.00755329 0)
(0.000130101 -0.00782661 0)
(0.000138101 -0.00809454 0)
(0.000145696 -0.00835654 0)
(0.000153325 -0.00861323 0)
(0.000160473 -0.0088634 0)
(0.0001676 -0.00910851 0)
(0.000174354 -0.00934599 0)
(0.000181422 -0.00957871 0)
(0.00018898 -0.00980212 0)
(0.000194857 -0.0100239 0)
(0.000184627 -0.0102423 0)
(0.000114299 -0.0104142 0)
(-1.41745e-06 -0.0105093 0)
(-9.80059e-05 -0.010612 0)
(-0.000169186 -0.0105001 0)
(-0.000260209 -0.0103006 0)
(-0.000444134 -0.00999943 0)
(-0.000796157 -0.00963653 0)
(-0.00115884 -0.0093689 0)
(-0.00122633 -0.0084162 0)
(-0.00126036 -0.00771253 0)
(-0.00136983 -0.00756173 0)
(-0.00129158 -0.00657189 0)
(-0.000955465 -0.00793978 0)
(-0.000592972 -0.0114873 0)
(-9.44335e-05 -0.0132959 0)
(0.000709764 -0.0148432 0)
(6.11841e-08 -0.000197014 0)
(9.82339e-07 -0.000586526 0)
(2.89151e-06 -0.000971361 0)
(5.72602e-06 -0.00135136 0)
(9.38705e-06 -0.00172643 0)
(1.37695e-05 -0.00209639 0)
(1.88036e-05 -0.00246121 0)
(2.44018e-05 -0.00282074 0)
(3.05018e-05 -0.00317499 0)
(3.70158e-05 -0.00352375 0)
(4.38826e-05 -0.00386708 0)
(5.10111e-05 -0.00420472 0)
(5.83396e-05 -0.00453683 0)
(6.57729e-05 -0.00486301 0)
(7.32451e-05 -0.00518359 0)
(8.06544e-05 -0.00549796 0)
(8.79273e-05 -0.00580673 0)
(9.49536e-05 -0.00610899 0)
(0.000101648 -0.00640575 0)
(0.000107889 -0.00669563 0)
(0.000113576 -0.00698029 0)
(0.000118574 -0.00725762 0)
(0.000122764 -0.00753028 0)
(0.000125997 -0.00779515 0)
(0.000128118 -0.00805634 0)
(0.00012892 -0.0083092 0)
(0.000128185 -0.00856008 0)
(0.00012589 -0.00880201 0)
(0.00012272 -0.00904458 0)
(0.00012023 -0.00927781 0)
(0.000114745 -0.00951087 0)
(8.2489e-05 -0.00973747 0)
(-3.75982e-05 -0.00982399 0)
(-0.000194816 -0.00983607 0)
(-0.000320017 -0.00978604 0)
(-0.000483227 -0.0095534 0)
(-0.000717223 -0.00936793 0)
(-0.000939092 -0.00898019 0)
(-0.00121362 -0.0080012 0)
(-0.00162052 -0.00583989 0)
(-0.00181362 -0.000587013 0)
(-0.00189974 -0.00868302 0)
(-0.00216989 -0.00820228 0)
(-0.00182239 -0.00467031 0)
(-0.00123996 -0.0109115 0)
(-0.000630092 -0.0144345 0)
(0.000153075 -0.0177267 0)
(0.000953009 -0.0220901 0)
(0.00180484 -0.0263743 0)
(0.00269153 -0.0304195 0)
(3.37023e-07 -0.000212366 0)
(2.61939e-06 -0.000628854 0)
(6.83316e-06 -0.00103731 0)
(1.2707e-05 -0.00143792 0)
(2.00065e-05 -0.00183094 0)
(2.85069e-05 -0.00221645 0)
(3.80973e-05 -0.0025947 0)
(4.85992e-05 -0.0029657 0)
(5.99591e-05 -0.00332961 0)
(7.20022e-05 -0.00368636 0)
(8.47344e-05 -0.00403609 0)
(9.79719e-05 -0.00437863 0)
(0.000111788 -0.00471417 0)
(0.000125974 -0.00504237 0)
(0.000140684 -0.00536347 0)
(0.00015566 -0.005677 0)
(0.000171162 -0.00598328 0)
(0.000186854 -0.00628161 0)
(0.000203118 -0.00657247 0)
(0.000219515 -0.00685487 0)
(0.000236552 -0.00712954 0)
(0.000253671 -0.00739501 0)
(0.00027147 -0.0076525 0)
(0.000289211 -0.00789981 0)
(0.000307573 -0.00813894 0)
(0.000325705 -0.00836625 0)
(0.000345247 -0.00858523 0)
(0.000366095 -0.00879058 0)
(0.000384953 -0.00899239 0)
(0.000372792 -0.00919639 0)
(0.000234082 -0.00926183 0)
(3.72903e-05 -0.00929947 0)
(-0.00014177 -0.00913761 0)
(-0.000418247 -0.0088137 0)
(-0.000777781 -0.00849277 0)
(-0.00111725 -0.005555 0)
(-0.0018386 -0.00549774 0)
(-0.0025315 -0.00633686 0)
(-0.00373922 0.00195355 0)
(-0.0031345 -0.00541737 0)
(-0.00204177 0.000560982 0)
(-0.0020649 -0.0066047 0)
(-0.00212091 -0.0125071 0)
(-0.00134789 -0.0169301 0)
(-0.000639472 -0.0211463 0)
(1.74393e-06 -0.0250318 0)
(0.000600408 -0.0284402 0)
(0.00114285 -0.0314729 0)
(0.00161387 -0.0342132 0)
(0.00200602 -0.0366982 0)
(-0.0047135 -0.00907071 0)
(-0.00425519 -0.010559 0)
(-0.00379269 -0.0120526 0)
(-0.00332348 -0.013509 0)
(-0.00284741 -0.0149607 0)
(-0.00237585 -0.016397 0)
(-0.00190777 -0.0176948 0)
(-0.00141782 -0.0189144 0)
(-0.000913388 -0.0201931 0)
(-0.000412842 -0.0213598 0)
(9.31018e-05 -0.0225191 0)
(0.000601288 -0.0239207 0)
(0.00111468 -0.0252646 0)
(0.00162553 -0.0265066 0)
(0.00212511 -0.0276593 0)
(0.0026132 -0.0287578 0)
(0.00309333 -0.029837 0)
(0.00356538 -0.0308797 0)
(0.00402244 -0.0318712 0)
(0.00445881 -0.0328538 0)
(0.00487676 -0.0337735 0)
(0.00528164 -0.0346308 0)
(0.00566733 -0.0354407 0)
(0.00603479 -0.0362113 0)
(0.00638867 -0.0369726 0)
(0.00673105 -0.0377397 0)
(0.00706135 -0.0385235 0)
(0.00738023 -0.0393086 0)
(0.00769209 -0.0400823 0)
(0.00799314 -0.0408611 0)
(0.00829218 -0.0416286 0)
(0.00859662 -0.0421969 0)
(0.00889965 -0.0427592 0)
(0.00919788 -0.0433375 0)
(0.00949296 -0.0439351 0)
(0.00979137 -0.0445463 0)
(0.0100965 -0.0451707 0)
(0.0104106 -0.0458298 0)
(0.0107345 -0.0465157 0)
(0.0110691 -0.047231 0)
(0.0114152 -0.0479737 0)
(0.0117733 -0.0487424 0)
(0.0121437 -0.0495353 0)
(0.0125265 -0.0503497 0)
(0.0129213 -0.0511818 0)
(0.0133279 -0.0520269 0)
(0.0137456 -0.052879 0)
(0.0141739 -0.053731 0)
(0.0146124 -0.0545734 0)
(0.0150595 -0.0553938 0)
(0.00131896 -0.0160431 0)
(0.00191342 -0.0175548 0)
(0.00249732 -0.0190048 0)
(0.00306793 -0.0203988 0)
(0.00361468 -0.0217424 0)