/*--------------------------------*- C++ -*----------------------------------*\
| =========                 |                                                 |
| \\      /  F ield         | OpenFOAM: The Open Source CFD Toolbox           |
|  \\    /   O peration     | Version:  2.4.0                                 |
|   \\  /    A nd           | Web:      www.OpenFOAM.org                      |
|    \\/     M anipulation  |                                                 |
\*---------------------------------------------------------------------------*/
FoamFile
{
    version     2.0;
    format      ascii;
    class       volScalarField;
    location    "4.9";
    object      T;
}
// * * * * * * * * * * * * * * * * * * * * * * * * * * * * * * * * * * * * * //

dimensions      [0 0 0 1 0 0 0];

internalField   nonuniform List<scalar> 
125
(
293.087
293.087
293.087
293.087
293.087
293.262
293.262
293.262
293.262
293.262
293.439
293.439
293.439
293.439
293.439
293.618
293.618
293.618
293.618
293.618
293.799
293.799
293.799
293.799
293.799
293.983
293.983
293.983
293.983
293.983
294.168
294.168
294.168
294.168
294.168
294.355
294.355
294.355
294.355
294.355
294.544
294.544
294.544
294.544
294.544
294.736
294.736
294.736
294.736
294.736
294.93
294.929
294.93
294.93
294.93
295.125
295.125
295.126
295.125
295.125
295.323
295.323
295.324
295.324
295.323
295.524
295.524
295.524
295.524
295.524
295.727
295.727
295.727
295.727
295.727
295.932
295.932
295.932
295.932
295.932
296.139
296.139
296.139
296.139
296.139
296.349
296.349
296.349
296.349
296.349
296.561
296.561
296.562
296.562
296.561
296.776
296.776
296.777
296.777
296.776
296.994
296.994
296.995
296.994
296.994
297.214
297.214
297.215
297.215
297.214
297.437
297.437
297.438
297.438
297.437
297.663
297.663
297.664
297.664
297.663
297.986
297.986
297.987
297.987
297.986
)
;

boundaryField
{
    BotWall
    {
        type            fixedValue;
        value           uniform 293;
    }
    FreeStream
    {
        type            fixedValue;
        value           nonuniform 0();
    }
    FrontNBack
    {
        type            empty;
    }
    LeftSide
    {
        type            symmetryPlane;
    }
    RightSide
    {
        type            symmetryPlane;
    }
    procBoundary0to1
    {
        type            processor;
        value           nonuniform List<scalar> 5(297.986 297.986 297.987 297.987 297.986);
    }
}


// ************************************************************************* //
