/*--------------------------------*- C++ -*----------------------------------*\
| =========                 |                                                 |
| \\      /  F ield         | OpenFOAM: The Open Source CFD Toolbox           |
|  \\    /   O peration     | Version:  2.4.0                                 |
|   \\  /    A nd           | Web:      www.OpenFOAM.org                      |
|    \\/     M anipulation  |                                                 |
\*---------------------------------------------------------------------------*/
FoamFile
{
    version     2.0;
    format      ascii;
    class       volScalarField;
    location    "3.8";
    object      H;
}
// * * * * * * * * * * * * * * * * * * * * * * * * * * * * * * * * * * * * * //

dimensions      [0 2 -2 0 0 0 0];

internalField   nonuniform List<scalar> 
125
(
-11980.1
-11980.1
-11980
-11980.1
-11980.1
-11477.4
-11477.4
-11477.3
-11477.4
-11477.4
-10969.1
-10969
-10969
-10969
-10969.1
-10455
-10455
-10454.9
-10455
-10455
-9935.17
-9935.11
-9935.03
-9935.07
-9935.18
-9409.41
-9409.33
-9409.24
-9409.29
-9409.42
-8877.65
-8877.56
-8877.45
-8877.51
-8877.67
-8339.8
-8339.7
-8339.57
-8339.64
-8339.82
-7795.77
-7795.65
-7795.5
-7795.58
-7795.79
-7245.45
-7245.31
-7245.14
-7245.23
-7245.47
-6688.74
-6688.59
-6688.4
-6688.5
-6688.77
-6125.54
-6125.37
-6125.16
-6125.28
-6125.57
-5555.75
-5555.56
-5555.33
-5555.45
-5555.78
-4979.25
-4979.05
-4978.79
-4978.93
-4979.29
-4395.94
-4395.71
-4395.43
-4395.59
-4395.98
-3805.7
-3805.46
-3805.15
-3805.32
-3805.75
-3208.43
-3208.15
-3207.82
-3208
-3208.47
-2603.99
-2603.69
-2603.33
-2603.53
-2604.04
-1992.28
-1991.95
-1991.56
-1991.77
-1992.33
-1373.16
-1372.81
-1372.38
-1372.62
-1373.23
-746.527
-746.141
-745.679
-745.935
-746.596
-15.6424
-15.6165
-15.5858
-15.6029
-15.6471
-11.6649
-11.6456
-11.6227
-11.6354
-11.6684
-11.6851
-11.666
-11.6436
-11.6561
-11.6883
-11.703
-11.6843
-11.6624
-11.6746
-11.7061
)
;

boundaryField
{
    BotWall
    {
        type            zeroGradient;
    }
    FreeStream
    {
        type            zeroGradient;
    }
    FrontNBack
    {
        type            empty;
    }
    LeftSide
    {
        type            symmetryPlane;
    }
    RightSide
    {
        type            symmetryPlane;
    }
    procBoundary0to1
    {
        type            processor;
        value           nonuniform List<scalar> 5(-11.7182 -11.6997 -11.6782 -11.6902 -11.7211);
    }
}


// ************************************************************************* //
