/*--------------------------------*- C++ -*----------------------------------*\
| =========                 |                                                 |
| \\      /  F ield         | OpenFOAM: The Open Source CFD Toolbox           |
|  \\    /   O peration     | Version:  2.4.0                                 |
|   \\  /    A nd           | Web:      www.OpenFOAM.org                      |
|    \\/     M anipulation  |                                                 |
\*---------------------------------------------------------------------------*/
FoamFile
{
    version     2.0;
    format      ascii;
    class       volScalarField;
    location    "4.2";
    object      H;
}
// * * * * * * * * * * * * * * * * * * * * * * * * * * * * * * * * * * * * * //

dimensions      [0 2 -2 0 0 0 0];

internalField   nonuniform List<scalar> 
8000
(
-12014
-11582.3
-11151.3
-10721.3
-10292.6
-9864.99
-9438.18
-9011.36
-8583.45
-8153.14
-7718.97
-7279.46
-6833.22
-6379.12
-5916.42
-5444.9
-4964.92
-4477.53
-3984.45
-3488
-2991
-2496.59
-2008.05
-1528.28
-1065.63
-608.054
-105.814
-0.625002
-4.46244
-4.29424
-3.45021
-2.59264
-1.96674
-1.58665
-1.29707
-1.06238
-0.882399
-0.746522
-0.642301
-0.56042
-0.494517
-0.440301
-0.39491
-0.356462
-0.323724
-0.295761
-0.271946
-0.251759
-0.234804
-0.220681
-12012.3
-11576.4
-11138.9
-10699
-10256.2
-9809.71
-9358.48
-8901.36
-8436.93
-7963.66
-7479.97
-6984.38
-6475.73
-5953.29
-5417.01
-4867.65
-4306.88
-3737.32
-3162.57
-2587.05
-2015.85
-1454.11
-910.341
-357.753
-1.85784
-0.0347691
-0.0164414
-0.233698
-0.436361
-0.503615
-0.585697
-0.558715
-0.515448
-0.473668
-0.438094
-0.408288
-0.382939
-0.360789
-0.340888
-0.322599
-0.305549
-0.289573
-0.274635
-0.260786
-0.248065
-0.236474
-0.225996
-0.216609
-0.20824
-0.200772
-12008.2
-11563.4
-11115.5
-10662.8
-10203.7
-9736.64
-9259.83
-8771.41
-8269.34
-7751.49
-7215.77
-6660.35
-6083.9
-5485.84
-4866.63
-4227.95
-3572.87
-2906
-2234
-1565.08
-906.987
-254.275
-1.39732
-0.0355198
-0.0807908
-0.124663
-0.154401
-0.196312
-0.232583
-0.258159
-0.276989
-0.289504
-0.296806
-0.300314
-0.300925
-0.299215
-0.295591
-0.29037
-0.283838
-0.276276
-0.26797
-0.259189
-0.250172
-0.241128
-0.232231
-0.223545
-0.215189
-0.207215
-0.199639
-0.192473
-12004.2
-11551.1
-11093.5
-10628.9
-10154.5
-9667.76
-9165.77
-8645.38
-8103.26
-7536
-6940.31
-6313.4
-5653.33
-4959.51
-4233.13
-3477.27
-2697.28
-1903.14
-1114.88
-361.485
-2.11176
-0.0703452
-0.104361
-0.133681
-0.148914
-0.177566
-0.21047
-0.245987
-0.274436
-0.294137
-0.306173
-0.312193
-0.313751
-0.312133
-0.3083
-0.302906
-0.296371
-0.288955
-0.280831
-0.272113
-0.262915
-0.253367
-0.243599
-0.233742
-0.223922
-0.214263
-0.204875
-0.195844
-0.187255
-0.179171
-12003.1
-11547.6
-11086.4
-10615.9
-10132
-9630.43
-9106.47
-8554.97
-7970.53
-7347.71
-6681.41
-5967.45
-5203.32
-4389.03
-3527.55
-2624.72
-1692.11
-762.866
-4.17308
-0.139319
-0.198669
-0.247351
-0.283218
-0.325537
-0.382186
-0.436019
-0.474285
-0.490823
-0.489574
-0.475758
-0.454301
-0.429164
-0.403198
-0.378196
-0.355098
-0.334202
-0.315407
-0.298405
-0.282831
-0.268323
-0.254616
-0.241525
-0.22897
-0.216932
-0.20543
-0.19451
-0.184228
-0.174632
-0.165784
-0.157709
-12002.1
-11543.6
-11077.2
-10597.6
-10099
-9575.2
-9019.43
-8424.31
-7782.12
-7085.23
-6326.76
-5501.64
-4608.48
-3652.51
-2648.4
-1616.8
-557.275
-5.53038
-4.23444
-3.53959
-2.92546
-2.48507
-2.12476
-1.82616
-1.57817
-1.36766
-1.18506
-1.02527
-0.885745
-0.765099
-0.662173
-0.575619
-0.503772
-0.444705
-0.396349
-0.356667
-0.323796
-0.296151
-0.272469
-0.251806
-0.233451
-0.216964
-0.202055
-0.188544
-0.176313
-0.165267
-0.155356
-0.146535
-0.138788
-0.132091
-12005.6
-11554.3
-11095
-10621.7
-10127.3
-9603.72
-9042.22
-8432.85
-7764.98
-7027.78
-6211.07
-5306.98
-4313.58
-3241.87
-2125.08
-1020.54
-7.64168
-5.83104
-4.52995
-3.77536
-3.12094
-2.61011
-2.18926
-1.85832
-1.57982
-1.33991
-1.13317
-0.958004
-0.811711
-0.691081
-0.592489
-0.512263
-0.446974
-0.3936
-0.349578
-0.312828
-0.281728
-0.255061
-0.231936
-0.211718
-0.193965
-0.17838
-0.164749
-0.152883
-0.142605
-0.13377
-0.126241
-0.119944
-0.114762
-0.11053
-12022.5
-11606.7
-11187.1
-10759.1
-10316.9
-9853.73
-9361.63
-8831.71
-8254.34
-7619.73
-6918.9
-6145.21
-5296.27
-4375.82
-3395.28
-2375.34
-1346.27
-12.1859
-0.785271
-1.32531
-1.09913
-1.10279
-1.03072
-0.948971
-0.86055
-0.774871
-0.697406
-0.626062
-0.560852
-0.501576
-0.447745
-0.399193
-0.355773
-0.317289
-0.283423
-0.253807
-0.228021
-0.205641
-0.186277
-0.169602
-0.155346
-0.143287
-0.133154
-0.124709
-0.11773
-0.112035
-0.107469
-0.103864
-0.101017
-0.0987613
-12041.7
-11664.3
-11284
-10898.2
-10503.6
-10096.4
-9671.75
-9223.91
-8746.31
-8231.53
-7671.5
-7057.82
-6382.28
-5637.57
-4817.5
-3922.07
-2955.64
-1939.29
-955.275
-5.6166
-1.31275
-2.11452
-1.5727
-1.33429
-1.10089
-0.9634
-0.839996
-0.733668
-0.635791
-0.543739
-0.460277
-0.388499
-0.328851
-0.280309
-0.240905
-0.20934
-0.184157
-0.164028
-0.147909
-0.135034
-0.124818
-0.116767
-0.110452
-0.105508
-0.101723
-0.0988392
-0.0966685
-0.0950614
-0.0938283
-0.0928681
-12057.6
-11712.5
-11366.3
-11018.2
-10667.2
-10312.2
-9951.47
-9582.92
-9203.93
-8811.3
-8401.19
-7968.85
-7508.45
-7014.16
-6479.66
-5898.37
-5263.27
-4567.43
-3802.75
-2968.91
-2058.91
-1102.98
-6.43993
-0.123584
-0.139659
-0.235038
-0.188957
-0.226365
-0.223932
-0.214678
-0.210517
-0.205839
-0.195898
-0.182607
-0.166694
-0.150604
-0.135869
-0.123396
-0.113214
-0.105398
-0.0996841
-0.0956465
-0.0928829
-0.091061
-0.0899353
-0.0893115
-0.089045
-0.0889985
-0.0890445
-0.0891319
-12055.6
-11706.5
-11356.9
-11006.7
-10656
-10305.1
-9954.05
-9603.08
-9252.15
-8900.89
-8548.53
-8193.77
-7834.7
-7468.74
-7092.57
-6702.05
-6292.24
-5857.37
-5391.01
-4886.39
-4336.97
-3736.95
-3082.93
-2378.56
-1632.38
-871.414
-324.89
-2.25147
-0.0651661
-0.0462663
-0.0801367
-0.0800174
-0.0796298
-0.075828
-0.073919
-0.0753388
-0.0756661
-0.0755178
-0.074904
-0.0742726
-0.0739153
-0.074032
-0.0745423
-0.0754715
-0.0767378
-0.0782069
-0.079771
-0.0813284
-0.0827799
-0.08412
-12033
-11638.1
-11241.4
-10842.8
-10442.8
-10042.5
-9643.41
-9247.25
-8855.72
-8470.43
-8092.66
-7723.32
-7362.77
-7010.84
-6666.7
-6328.88
-5995.26
-5663.12
-5329.13
-4989.41
-4639.58
-4274.68
-3889.22
-3477.44
-3034.25
-2556.8
-2051.51
-1529.14
-993.723
-458.267
-3.21873
-0.0487991
-0.0196454
-0.0153058
-0.0302007
-0.0320369
-0.033904
-0.0347783
-0.0374118
-0.0413058
-0.0453574
-0.0492878
-0.0529384
-0.0564188
-0.0598399
-0.0631383
-0.0663608
-0.0694798
-0.0724399
-0.0751876
-12000.1
-11539.6
-11077.5
-10614
-10149.9
-9686.66
-9226.25
-8770.88
-8322.88
-7884.57
-7458.03
-7045.12
-6647.28
-6265.48
-5900.21
-5551.41
-5218.53
-4900.47
-4595.68
-4302.19
-4017.68
-3739.57
-3465.21
-3191.91
-2917.08
-2638.25
-2353.19
-2060.04
-1757.81
-1446.54
-1132.45
-822.919
-519.604
-225.903
-1.52127
-0.0221827
-0.00733114
-0.00159255
-0.00675807
-0.0131596
-0.018713
-0.0236043
-0.0293752
-0.0350498
-0.0403721
-0.0452829
-0.0498472
-0.0541205
-0.0581419
-0.0619609
-11972.9
-11458.3
-10943.1
-10427.8
-9913.52
-9401.96
-8895.13
-8395.33
-7904.95
-7426.41
-6961.96
-6513.64
-6083.2
-5672.02
-5281.07
-4910.89
-4561.61
-4232.94
-3924.31
-3634.85
-3363.4
-3108.5
-2868.46
-2641.44
-2425.49
-2218.81
-2020.05
-1827.25
-1638.91
-1453.75
-1270.78
-1089.25
-908.717
-728.412
-549.671
-372.62
-192.811
-18.4388
-0.123282
-0.00448682
-0.000788767
-0.00466242
-0.0100332
-0.0148697
-0.0198867
-0.0253194
-0.0307582
-0.0360082
-0.0409814
-0.0456603
-11955.4
-11406.1
-10856.9
-10308.5
-9762.17
-9219.77
-8683.33
-8155.13
-7637.53
-7132.9
-6643.5
-6171.38
-5718.37
-5285.98
-4875.39
-4487.43
-4122.58
-3780.97
-3462.4
-3166.38
-2892.14
-2638.67
-2404.76
-2189.06
-1990.15
-1806.56
-1636.78
-1479.28
-1332.54
-1195.14
-1065.71
-943.01
-825.899
-713.205
-605.134
-500.923
-399.821
-301.086
-204.521
-107.343
-11.3202
-0.0721829
-0.00209607
-0.000797421
-0.0056791
-0.0103351
-0.0149146
-0.0195253
-0.0245595
-0.0297698
-11944.9
-11374.8
-10805.5
-10238
-9673.73
-9114.49
-8562.31
-8019.36
-7487.83
-6969.91
-6467.64
-5982.93
-5517.45
-5072.64
-4649.68
-4249.45
-3872.57
-3519.38
-3189.94
-2884.07
-2601.34
-2341.09
-2102.47
-1884.46
-1685.91
-1505.53
-1341.99
-1193.9
-1059.85
-938.465
-828.412
-728.424
-637.325
-554.032
-477.571
-407.087
-341.892
-281.498
-225.626
-174.174
-127.225
-84.4058
-44.5701
-9.01315
-0.057166
-0.00151259
-0.00421962
-0.00857876
-0.0134343
-0.0173423
-11945.3
-11376.5
-10809.5
-10245.6
-9686.41
-9133.7
-8589.2
-8054.71
-7531.93
-7022.48
-6527.86
-6049.42
-5588.36
-5145.76
-4722.51
-4319.41
-3937.08
-3576.01
-3236.55
-2918.87
-2623.01
-2348.8
-2095.93
-1863.9
-1652.06
-1459.59
-1285.56
-1128.88
-988.406
-862.92
-751.174
-651.919
-563.928
-486.021
-417.079
-356.064
-302.013
-254.017
-211.228
-173.132
-139.051
-108.344
-80.2851
-53.9377
-28.1485
-3.6069
-0.0260394
-0.000247565
-0.0061285
-0.0104806
-11952.6
-11398.7
-10848.2
-10303.1
-9765.19
-9236.13
-8717.28
-8209.75
-7714.4
-7231.9
-6762.77
-6307.43
-5866.26
-5439.63
-5027.95
-4631.65
-4251.24
-3887.26
-3540.27
-3210.83
-2899.46
-2606.62
-2332.65
-2077.8
-1842.16
-1625.66
-1428
-1248.67
-1086.99
-942.109
-813.054
-698.748
-598.043
-509.749
-432.664
-365.608
-307.436
-257.066
-213.488
-175.78
-143.11
-114.743
-90.0335
-68.4074
-49.3106
-32.1359
-16.1219
-0.0921922
-0.00177808
-0.00248039
-11939.2
-11360.4
-10790
-10232.6
-9691.33
-9167.74
-8662.31
-8174.67
-7703.99
-7249.21
-6809.23
-6383.01
-5969.71
-5568.68
-5179.55
-4802.17
-4436.66
-4083.33
-3742.71
-3415.44
-3102.28
-2804.03
-2521.48
-2255.35
-2006.27
-1774.68
-1560.89
-1364.94
-1186.68
-1025.76
-881.574
-753.365
-640.205
-541.043
-454.744
-380.123
-315.981
-261.137
-214.455
-174.865
-141.376
-113.086
-89.1809
-68.9259
-51.6425
-36.7013
-23.5814
-12.2304
-3.87847
-0.0211196
-11757.1
-10961
-10270.1
-9655.93
-9099.05
-8586.02
-8107.16
-7655.35
-7225.28
-6812.93
-6415.28
-6030.08
-5655.71
-5291.05
-4935.45
-4588.63
-4250.65
-3921.86
-3602.84
-3294.36
-2997.33
-2712.74
-2441.57
-2184.8
-1943.29
-1717.77
-1508.76
-1316.58
-1141.33
-982.846
-840.728
-714.371
-602.976
-505.59
-421.145
-348.499
-286.475
-233.897
-189.622
-152.566
-121.718
-96.1553
-75.0506
-57.6702
-43.3727
-31.5984
-21.8444
-13.6492
-6.55787
-0.0333374
-0.208991
-0.199359
-0.191428
-0.184873
-0.179396
-0.174756
-0.170747
-0.167203
-0.164016
-0.161037
-0.158211
-0.155502
-0.152872
-0.150302
-0.147775
-0.145285
-0.142838
-0.140348
-0.137883
-0.135469
-0.133112
-0.130815
-0.128591
-0.126416
-0.124293
-0.122195
-0.120077
-0.117967
-0.115867
-0.11377
-0.111639
-0.109497
-0.107385
-0.105293
-0.103219
-0.101172
-0.0991602
-0.0971968
-0.0953027
-0.0934679
-0.09171
-0.0900383
-0.0884803
-0.0870498
-0.0857535
-0.0846035
-0.0836201
-0.0828414
-0.0823221
-0.0820535
-0.194096
-0.188083
-0.182631
-0.177645
-0.173045
-0.168764
-0.164757
-0.160986
-0.157441
-0.154024
-0.150735
-0.147584
-0.144569
-0.141687
-0.138962
-0.136413
-0.13376
-0.131198
-0.12878
-0.126486
-0.124329
-0.12229
-0.120432
-0.118555
-0.116693
-0.114749
-0.112848
-0.111007
-0.109092
-0.10713
-0.10514
-0.103115
-0.101053
-0.0989499
-0.0968111
-0.0946474
-0.0924811
-0.0903299
-0.0882195
-0.0861542
-0.0841553
-0.082241
-0.0804436
-0.0787857
-0.0772856
-0.0759459
-0.0747861
-0.0738197
-0.0730559
-0.0725061
-0.185718
-0.179362
-0.173402
-0.16783
-0.162632
-0.157773
-0.153282
-0.149152
-0.145392
-0.141901
-0.138535
-0.135419
-0.132576
-0.129999
-0.127809
-0.12549
-0.123261
-0.121258
-0.119442
-0.117786
-0.116361
-0.11505
-0.113697
-0.112295
-0.110849
-0.109503
-0.108151
-0.106739
-0.105165
-0.103511
-0.101787
-0.0999826
-0.0980447
-0.09599
-0.0938497
-0.0916423
-0.0893702
-0.0870668
-0.0847529
-0.0824762
-0.0802596
-0.0781301
-0.076121
-0.0742639
-0.0725858
-0.0711066
-0.0698513
-0.068843
-0.0680972
-0.0676219
-0.171627
-0.164646
-0.158239
-0.152433
-0.147091
-0.142253
-0.137965
-0.134191
-0.130942
-0.128053
-0.125257
-0.122794
-0.120689
-0.118955
-0.117405
-0.11587
-0.114405
-0.113174
-0.112129
-0.111234
-0.110495
-0.109864
-0.10914
-0.108326
-0.107557
-0.106888
-0.106145
-0.105259
-0.104223
-0.103142
-0.101939
-0.100562
-0.0989881
-0.0972796
-0.0954205
-0.0933866
-0.0911991
-0.0889318
-0.0865998
-0.0842405
-0.0818651
-0.0794998
-0.0772042
-0.0750084
-0.0729356
-0.0710194
-0.069295
-0.0677927
-0.0665309
-0.0655254
-0.150449
-0.143966
-0.138232
-0.133177
-0.128717
-0.124811
-0.121506
-0.118719
-0.116469
-0.114483
-0.112656
-0.111101
-0.109885
-0.108924
-0.108179
-0.107425
-0.106672
-0.106085
-0.105604
-0.10523
-0.10494
-0.104795
-0.104623
-0.104386
-0.104122
-0.103991
-0.103907
-0.103743
-0.103496
-0.103223
-0.102879
-0.102384
-0.101723
-0.100908
-0.0998701
-0.0985906
-0.0970965
-0.0954195
-0.0935659
-0.0915519
-0.0893755
-0.0870651
-0.084647
-0.0821803
-0.0796934
-0.0772402
-0.0748678
-0.0726033
-0.0704761
-0.0685174
-0.12634
-0.121408
-0.117241
-0.113764
-0.110852
-0.108459
-0.10653
-0.105008
-0.103831
-0.102791
-0.101837
-0.101143
-0.100627
-0.100248
-0.0999745
-0.0997811
-0.0996015
-0.0994642
-0.0993516
-0.0993163
-0.0993187
-0.0993815
-0.0995057
-0.0995129
-0.0995338
-0.0996438
-0.0998112
-0.0999797
-0.100133
-0.100273
-0.100459
-0.100638
-0.100785
-0.100891
-0.100921
-0.100819
-0.100603
-0.100277
-0.0997936
-0.0991143
-0.0982259
-0.0971415
-0.0958671
-0.0943889
-0.0927249
-0.0908859
-0.0888814
-0.0867412
-0.0845076
-0.0822366
-0.107064
-0.104266
-0.101995
-0.100229
-0.0988485
-0.0977734
-0.0969473
-0.0963423
-0.095892
-0.095401
-0.0951083
-0.0949041
-0.0947641
-0.0946742
-0.0946259
-0.0946168
-0.0946591
-0.0947329
-0.0947923
-0.0948602
-0.0949544
-0.0950721
-0.0952002
-0.0953406
-0.0954953
-0.0956711
-0.0958764
-0.0960909
-0.0962565
-0.0964936
-0.096744
-0.0970015
-0.097262
-0.0975261
-0.0977896
-0.098011
-0.0982071
-0.0983872
-0.0985319
-0.098636
-0.0986559
-0.098591
-0.0984244
-0.0981813
-0.0978305
-0.0973612
-0.0967681
-0.096058
-0.0952198
-0.0942322
-0.096959
-0.0955892
-0.0945511
-0.0937493
-0.0931296
-0.0926475
-0.09227
-0.0919828
-0.0917744
-0.091612
-0.0914764
-0.0913984
-0.0913607
-0.0913565
-0.0913829
-0.0914417
-0.0915241
-0.0916077
-0.0917248
-0.091861
-0.092015
-0.0921662
-0.0923208
-0.0924915
-0.0926724
-0.0928638
-0.0930671
-0.0932704
-0.0934536
-0.093665
-0.0938848
-0.0940968
-0.0943052
-0.0945066
-0.0947102
-0.0949106
-0.0951081
-0.095279
-0.0954327
-0.0955555
-0.0956565
-0.0957362
-0.0957822
-0.095788
-0.095748
-0.0956582
-0.0955175
-0.0953216
-0.0950531
-0.0946865
-0.0921058
-0.091547
-0.0911013
-0.0907333
-0.0904222
-0.0901559
-0.0899334
-0.0897532
-0.0895947
-0.0894546
-0.0893461
-0.0892893
-0.0892698
-0.089292
-0.0893397
-0.0894141
-0.0895081
-0.0896317
-0.0897724
-0.0899302
-0.0900872
-0.090237
-0.0903827
-0.090531
-0.0906709
-0.0908023
-0.0909258
-0.0910338
-0.0911129
-0.0911968
-0.0912699
-0.0913379
-0.0913947
-0.0914349
-0.091461
-0.0914727
-0.0914809
-0.0914762
-0.0914568
-0.0914211
-0.0913712
-0.0913038
-0.0912062
-0.0910818
-0.090922
-0.0907395
-0.0905261
-0.0902838
-0.0900043
-0.0896589
-0.0892129
-0.0892983
-0.0893352
-0.0893096
-0.0892403
-0.0891343
-0.0890112
-0.088872
-0.0887139
-0.0885583
-0.0884139
-0.088277
-0.0881825
-0.0881231
-0.0880977
-0.0881052
-0.0881423
-0.0882036
-0.0882847
-0.0883786
-0.0884686
-0.0885399
-0.0886129
-0.0886675
-0.088699
-0.0887058
-0.0886887
-0.0886421
-0.0885571
-0.0884609
-0.0883447
-0.088215
-0.0880651
-0.0878922
-0.0877072
-0.0875194
-0.0873222
-0.0871167
-0.0868985
-0.0866675
-0.0864248
-0.0861714
-0.0859087
-0.0856223
-0.0853154
-0.0849805
-0.0846266
-0.084252
-0.0838525
-0.0834272
-0.0852965
-0.0863187
-0.087129
-0.0877241
-0.0881393
-0.0883836
-0.0885337
-0.0885752
-0.0885327
-0.0884288
-0.0882969
-0.0881229
-0.0878765
-0.0876902
-0.0875204
-0.0873753
-0.0872605
-0.0871751
-0.0871202
-0.0870945
-0.0870868
-0.0870757
-0.0870777
-0.087073
-0.0870529
-0.0870104
-0.086942
-0.0868415
-0.0866981
-0.0865256
-0.0863219
-0.0860917
-0.0858366
-0.0855454
-0.0852323
-0.0849095
-0.0845733
-0.0842273
-0.0838717
-0.0835058
-0.0831326
-0.0827525
-0.0823634
-0.0819676
-0.0815658
-0.0811563
-0.0807318
-0.0802922
-0.079835
-0.0793667
-0.0776814
-0.0798929
-0.0818195
-0.0834723
-0.0848805
-0.0859912
-0.0868455
-0.0874299
-0.0878767
-0.0881697
-0.0883377
-0.0883726
-0.0882311
-0.0880537
-0.0878327
-0.0875894
-0.0873448
-0.0870803
-0.0868078
-0.0865902
-0.0863992
-0.0862377
-0.0861066
-0.0859995
-0.0859052
-0.0858278
-0.085753
-0.0856724
-0.0855783
-0.0854658
-0.0853274
-0.0851526
-0.0849516
-0.0847221
-0.0844648
-0.0841742
-0.0838547
-0.0835101
-0.0831486
-0.0827681
-0.0823719
-0.0819629
-0.081538
-0.0811009
-0.0806563
-0.0802031
-0.0797424
-0.0792759
-0.0787991
-0.0783147
-0.0655701
-0.0689434
-0.0720535
-0.074881
-0.0774196
-0.0796773
-0.0816699
-0.08336
-0.0847519
-0.0859451
-0.0868729
-0.0875535
-0.087987
-0.0882753
-0.0884218
-0.0884576
-0.0883955
-0.0882091
-0.0878674
-0.0875494
-0.0872133
-0.0868655
-0.0865227
-0.0861988
-0.0858919
-0.085608
-0.0853545
-0.0851351
-0.0849401
-0.0847666
-0.0846027
-0.0844399
-0.0842713
-0.0840954
-0.0839096
-0.0837076
-0.0834877
-0.0832517
-0.082993
-0.082712
-0.0824086
-0.0820853
-0.0817488
-0.081396
-0.0810283
-0.0806471
-0.0802541
-0.0798511
-0.0794358
-0.0790096
-0.050058
-0.0542324
-0.0582103
-0.0619904
-0.0655569
-0.0688919
-0.0719818
-0.0748213
-0.0773813
-0.0796437
-0.0816406
-0.0833957
-0.0848884
-0.0860868
-0.0870221
-0.0877433
-0.0883039
-0.088669
-0.0888143
-0.088758
-0.0885807
-0.0883459
-0.0880309
-0.0876564
-0.0872516
-0.0868342
-0.0863961
-0.0859416
-0.0855336
-0.0851475
-0.0847862
-0.0844514
-0.0841454
-0.0838645
-0.0835969
-0.0833135
-0.0830601
-0.0828141
-0.0825695
-0.0823246
-0.0820794
-0.0818272
-0.0815627
-0.0812876
-0.0810099
-0.0807246
-0.0804311
-0.0801295
-0.07982
-0.0795021
-0.0348371
-0.0396844
-0.0443164
-0.048761
-0.0530314
-0.0571231
-0.0610203
-0.0647016
-0.0681488
-0.0713342
-0.0742365
-0.0768628
-0.0792128
-0.0812836
-0.0830637
-0.0845738
-0.0858624
-0.0868446
-0.0875957
-0.0880726
-0.0884114
-0.0885836
-0.0886164
-0.0884826
-0.0882657
-0.0879756
-0.0876458
-0.0872458
-0.0867623
-0.086321
-0.0858764
-0.085436
-0.0850064
-0.0846
-0.0842184
-0.0838368
-0.0834553
-0.0830849
-0.0827489
-0.0824256
-0.0821161
-0.0818186
-0.0815183
-0.081223
-0.0809388
-0.0806583
-0.0803828
-0.0801095
-0.0798345
-0.079551
-0.0219206
-0.0269105
-0.0317739
-0.0364431
-0.0409333
-0.0452763
-0.0494786
-0.0535284
-0.0574024
-0.0610767
-0.0645262
-0.0677343
-0.0706912
-0.0733927
-0.0758284
-0.0779982
-0.0799368
-0.0816633
-0.083136
-0.0842867
-0.0853037
-0.0861319
-0.0867931
-0.0872676
-0.0875754
-0.0877592
-0.0878605
-0.0878339
-0.0877111
-0.0874767
-0.08722
-0.0869333
-0.0866156
-0.0862756
-0.0859281
-0.0855886
-0.0852315
-0.0848571
-0.0844575
-0.0840858
-0.0837304
-0.0833904
-0.0830515
-0.0826842
-0.0823542
-0.0820321
-0.0817163
-0.0814099
-0.0811123
-0.0808137
-0.0138132
-0.0165423
-0.0201452
-0.0241226
-0.0280681
-0.0319615
-0.0358109
-0.0396028
-0.0433122
-0.0469106
-0.0503711
-0.053672
-0.0567981
-0.05974
-0.0624927
-0.0650598
-0.0674517
-0.0696831
-0.0717723
-0.0737229
-0.0755176
-0.0771547
-0.0786441
-0.0799767
-0.0811596
-0.0821849
-0.0830653
-0.0838193
-0.0844676
-0.0849989
-0.0854126
-0.0857069
-0.085923
-0.0860915
-0.0862056
-0.0862806
-0.0863124
-0.086274
-0.0861973
-0.0860551
-0.085906
-0.0857543
-0.0856049
-0.0854163
-0.085214
-0.0849855
-0.0847513
-0.0845207
-0.0842935
-0.0840841
-0.00401702
-0.00664286
-0.009213
-0.0126096
-0.016118
-0.0195878
-0.0230013
-0.0263467
-0.0296128
-0.0327879
-0.0358609
-0.0388231
-0.0416672
-0.0443898
-0.0469893
-0.0494672
-0.0518262
-0.0540681
-0.0562036
-0.058244
-0.0602053
-0.0620871
-0.0638814
-0.0655937
-0.0672193
-0.06875
-0.0701897
-0.0715371
-0.0727907
-0.0739568
-0.0750529
-0.0761047
-0.0770782
-0.0779822
-0.0788153
-0.0796003
-0.0803287
-0.0809865
-0.0815867
-0.0821439
-0.0826427
-0.083076
-0.0834584
-0.0837828
-0.084058
-0.084305
-0.084519
-0.0847011
-0.0848529
-0.0849807
-0.00890848
-0.00713437
-0.00714727
-0.00895511
-0.0112429
-0.0137315
-0.0163181
-0.018932
-0.0215305
-0.0240862
-0.0265838
-0.0290135
-0.0313713
-0.0336562
-0.0358699
-0.0380153
-0.0400961
-0.0421147
-0.0440784
-0.0459886
-0.0478399
-0.0496285
-0.051366
-0.0530536
-0.0546907
-0.0562782
-0.0578147
-0.0592981
-0.0607236
-0.0620913
-0.0634051
-0.0646715
-0.065898
-0.0671173
-0.0682797
-0.069399
-0.0704722
-0.0714916
-0.0724533
-0.0733728
-0.0742722
-0.0750883
-0.0758724
-0.0766247
-0.0773367
-0.0780046
-0.078625
-0.079198
-0.0797249
-0.0802236
-0.000336054
-0.00181704
-0.00368921
-0.0059309
-0.00819314
-0.0104382
-0.012659
-0.014848
-0.016999
-0.0191075
-0.0211706
-0.0231869
-0.0251561
-0.0270788
-0.0289561
-0.0307891
-0.0325791
-0.0343271
-0.0360341
-0.0377012
-0.0393298
-0.0409209
-0.0424751
-0.0439927
-0.0454733
-0.0469169
-0.0483235
-0.0496928
-0.051025
-0.0523202
-0.0535794
-0.054805
-0.0559942
-0.0571491
-0.0582723
-0.0593572
-0.060398
-0.061396
-0.0623566
-0.0632758
-0.0641633
-0.0650223
-0.0658445
-0.0666257
-0.0673622
-0.0680539
-0.0687051
-0.0693177
-0.0698908
-0.0704281
-0.0820006
-0.0820067
-0.082043
-0.0821279
-0.0822225
-0.0823364
-0.0824754
-0.0826353
-0.0828077
-0.0829853
-0.0831614
-0.0833286
-0.0834791
-0.0836052
-0.0836989
-0.0837526
-0.0837587
-0.08371
-0.0836001
-0.0834229
-0.0831733
-0.0828467
-0.0824399
-0.0819501
-0.081376
-0.080717
-0.0799737
-0.0791473
-0.0782402
-0.0772553
-0.0761964
-0.0750678
-0.0738739
-0.0726195
-0.0713096
-0.0699493
-0.0685433
-0.0670964
-0.0656138
-0.0641009
-0.0625629
-0.061004
-0.0594312
-0.0578401
-0.0562305
-0.0546046
-0.0529688
-0.0513251
-0.0496763
-0.0480252
-0.0463749
-0.0447282
-0.0430878
-0.0414565
-0.039837
-0.0382319
-0.0366439
-0.0350756
-0.0335296
-0.0320084
-0.0305146
-0.0290511
-0.0276192
-0.0262216
-0.0248605
-0.0235381
-0.0222554
-0.0210144
-0.0198165
-0.0186631
-0.0175551
-0.0164931
-0.0154776
-0.0145086
-0.013586
-0.0127095
-0.0118787
-0.0110934
-0.0103531
-0.00965716
-0.00900465
-0.0083946
-0.00782632
-0.0072977
-0.00680762
-0.00635469
-0.00593742
-0.00555411
-0.00520311
-0.00488273
-0.00459134
-0.00432733
-0.00408911
-0.00387509
-0.00368374
-0.00351357
-0.00336313
-0.00323104
-0.00311601
-0.00301669
-0.00293184
-0.00286032
-0.00280104
-0.00275293
-0.00271502
-0.00268624
-0.00266572
-0.00265261
-0.00264609
-0.00264536
-0.0026497
-0.0026584
-0.00267084
-0.00268643
-0.00270455
-0.00272473
-0.0027465
-0.00276942
-0.00279314
-0.00281731
-0.00284161
-0.0028658
-0.00288965
-0.00291297
-0.00293566
-0.00295747
-0.00297834
-0.00299821
-0.00301699
-0.00303465
-0.00305117
-0.00306663
-0.00308088
-0.00309398
-0.00310593
-0.00311673
-0.00312635
-0.0031348
-0.00314214
-0.00314842
-0.00315367
-0.00315792
-0.0031612
-0.00316358
-0.00316511
-0.00316585
-0.0031659
-0.00316534
-0.00316426
-0.00316287
-0.00316123
-0.00315953
-0.003158
-0.00315698
-0.00315695
-0.00315841
-0.00316188
-0.00316795
-0.00317685
-0.00318885
-0.00320414
-0.0032231
-0.00324574
-0.00327232
-0.00330285
-0.00333748
-0.0033761
-0.00341882
-0.00346644
-0.00352036
-0.00358231
-0.00365287
-0.00373177
-0.00381939
-0.00391612
-0.00402238
-0.00413809
-0.00426294
-0.00439672
-0.00454009
-0.00469305
-0.00485352
-0.00502178
-0.00519655
-0.00537683
-0.00556138
-0.00575237
-0.0059451
-0.00614353
-0.00634784
-0.00655488
-0.00676123
-0.00696381
-0.00715984
-0.00734705
-0.0075244
-0.00769155
-0.00784343
-0.00798279
-0.0081104
-0.00822545
-0.00833007
-0.00842017
-0.00849463
-0.00855587
-0.00860223
-0.00863165
-0.00865005
-0.00865981
-0.00865953
-0.00864148
-0.00860731
-0.00856332
-0.00850704
-0.00843748
-0.0083553
-0.00826285
-0.00816259
-0.00805498
-0.00794082
-0.00782087
-0.00769603
-0.00756727
-0.00743554
-0.00730169
-0.00716652
-0.00703075
-0.00689508
-0.00676012
-0.00662643
-0.00649452
-0.00636485
-0.00623782
-0.00611379
-0.00599302
-0.00587575
-0.00576218
-0.00565249
-0.00554681
-0.00544525
-0.00534788
-0.00525469
-0.00516572
-0.00508096
-0.0050004
-0.00492403
-0.00485181
-0.00478373
-0.00471975
-0.00465986
-0.00460403
-0.00455221
-0.00450436
-0.00446043
-0.0044204
-0.00438422
-0.00435185
-0.00432325
-0.00429837
-0.00427714
-0.00425949
-0.00424534
-0.00423459
-0.00422713
-0.00422286
-0.00422164
-0.00422334
-0.0042278
-0.00423485
-0.0042443
-0.00425595
-0.00426956
-0.00428492
-0.00430176
-0.00431982
-0.00433882
-0.00435847
-0.00437848
-0.00439855
-0.00441835
-0.00443759
-0.00445593
-0.00447308
-0.00448873
-0.00450258
-0.00451435
-0.00452377
-0.00453059
-0.00453458
-0.00453555
-0.00453332
-0.00452773
-0.00451868
-0.00450607
-0.00448986
-0.00447002
-0.00444644
-0.00441768
-0.0043594
-0.00386848
-0.0722721
-0.0721471
-0.0721199
-0.0721857
-0.0723383
-0.0725734
-0.072876
-0.0732355
-0.0736449
-0.0740969
-0.0745832
-0.0750955
-0.0756248
-0.0761622
-0.0766986
-0.0772252
-0.0777332
-0.0782145
-0.0786605
-0.0790615
-0.0794118
-0.0797045
-0.0799324
-0.0800894
-0.0801698
-0.0801691
-0.0800831
-0.0799088
-0.0796441
-0.07929
-0.0788428
-0.0783006
-0.077667
-0.0769456
-0.0761388
-0.0752493
-0.0742812
-0.0732387
-0.0721272
-0.0709527
-0.069725
-0.0684393
-0.0670995
-0.0657083
-0.0642698
-0.0627917
-0.0612777
-0.0597324
-0.0581612
-0.0565691
-0.0549607
-0.0533403
-0.0517117
-0.0500785
-0.0484441
-0.0468117
-0.0451846
-0.0435656
-0.0419576
-0.0403633
-0.0387854
-0.0372262
-0.0356883
-0.0341739
-0.0326853
-0.0312248
-0.0297953
-0.0283975
-0.0270329
-0.0257031
-0.0244102
-0.0231553
-0.0219395
-0.020764
-0.0196296
-0.0185372
-0.0174875
-0.0164811
-0.0155183
-0.0145994
-0.0137243
-0.0128928
-0.0121052
-0.0113597
-0.0106562
-0.00999399
-0.00937219
-0.00878964
-0.00824514
-0.00773741
-0.00726509
-0.00682679
-0.00642107
-0.00604644
-0.00570142
-0.0053845
-0.00509419
-0.00482897
-0.00458741
-0.00436812
-0.00416958
-0.00399049
-0.00382957
-0.00368555
-0.00355719
-0.00344332
-0.00334276
-0.00325444
-0.00317736
-0.0031105
-0.00305293
-0.00300377
-0.00296216
-0.00292732
-0.00289848
-0.00287493
-0.00285602
-0.00284116
-0.00282977
-0.00282132
-0.00281534
-0.00281139
-0.00280907
-0.00280804
-0.00280795
-0.0028085
-0.00280945
-0.00281057
-0.00281167
-0.00281257
-0.00281312
-0.00281324
-0.00281276
-0.00281164
-0.0028098
-0.00280719
-0.00280377
-0.0027995
-0.00279439
-0.00278844
-0.00278165
-0.00277405
-0.00276566
-0.00275654
-0.00274673
-0.00273629
-0.00272531
-0.00271386
-0.00270205
-0.00268999
-0.00267783
-0.00266573
-0.00265378
-0.0026422
-0.0026312
-0.00262101
-0.00261189
-0.00260411
-0.00259793
-0.00259361
-0.0025914
-0.0025916
-0.00259443
-0.00260033
-0.0026094
-0.00262198
-0.00263835
-0.00265878
-0.00268364
-0.0027135
-0.0027491
-0.00279105
-0.00283971
-0.00289552
-0.00295917
-0.00303138
-0.00311259
-0.00320309
-0.00330331
-0.00341391
-0.00353521
-0.00366735
-0.00381105
-0.00396561
-0.00413092
-0.00430692
-0.00449376
-0.00469163
-0.00490053
-0.00512047
-0.00535069
-0.00558956
-0.00583488
-0.00608397
-0.00633377
-0.00658212
-0.00682627
-0.00706464
-0.00729688
-0.00752107
-0.00773554
-0.00794133
-0.00813305
-0.00831171
-0.00847749
-0.00862893
-0.0087683
-0.00889488
-0.00900829
-0.00911361
-0.00920457
-0.00927831
-0.00933189
-0.00936992
-0.00939683
-0.00941104
-0.00941544
-0.00940464
-0.00937798
-0.00933384
-0.0092769
-0.00920973
-0.00913215
-0.0090445
-0.00894781
-0.00884328
-0.00873207
-0.00861522
-0.00849373
-0.0083685
-0.00824035
-0.00811012
-0.00797866
-0.00784667
-0.00771483
-0.00758373
-0.00745389
-0.00732581
-0.00719991
-0.00707661
-0.00695622
-0.00683902
-0.00672517
-0.00661484
-0.00650818
-0.00640533
-0.00630636
-0.00621135
-0.00612035
-0.00603341
-0.00595055
-0.00587178
-0.00579709
-0.00572647
-0.00565989
-0.00559735
-0.00553881
-0.00548427
-0.00543369
-0.00538704
-0.00534429
-0.00530541
-0.0052703
-0.00523892
-0.00521119
-0.00518703
-0.00516637
-0.00514905
-0.00513497
-0.00512404
-0.00511611
-0.00511103
-0.00510863
-0.00510872
-0.0051111
-0.00511557
-0.00512187
-0.00512977
-0.00513897
-0.00514922
-0.00516021
-0.00517164
-0.00518321
-0.00519459
-0.00520547
-0.00521552
-0.00522442
-0.00523185
-0.00523751
-0.0052411
-0.00524235
-0.005241
-0.00523684
-0.00522966
-0.0052193
-0.00520563
-0.0051885
-0.0051668
-0.00511927
-0.00462919
-0.0674667
-0.0674311
-0.0674862
-0.0676321
-0.0678664
-0.0681876
-0.0685946
-0.0690738
-0.0696044
-0.070168
-0.0707341
-0.0712934
-0.0718472
-0.0723937
-0.0729297
-0.0734523
-0.0739586
-0.0744459
-0.0749122
-0.0753485
-0.075753
-0.0761194
-0.0764461
-0.0767288
-0.0769617
-0.0771402
-0.07726
-0.0773179
-0.0773125
-0.0772352
-0.0770848
-0.0768616
-0.0765629
-0.0761867
-0.0757319
-0.0752007
-0.0745943
-0.0739165
-0.0731672
-0.0723407
-0.0714442
-0.0704771
-0.0694472
-0.0683565
-0.0672077
-0.066005
-0.0647531
-0.0634564
-0.0621196
-0.0607475
-0.0593449
-0.0579161
-0.0564647
-0.0549948
-0.05351
-0.0520138
-0.0505095
-0.0490001
-0.0474888
-0.0459784
-0.0444715
-0.0429707
-0.0414786
-0.039998
-0.038532
-0.0370787
-0.0356413
-0.0342231
-0.0328271
-0.0314549
-0.0301078
-0.0287876
-0.027496
-0.0262349
-0.0250059
-0.0238107
-0.0226507
-0.0215271
-0.020441
-0.0193932
-0.0183844
-0.0174149
-0.0164857
-0.0155959
-0.0147459
-0.0139356
-0.0131649
-0.0124332
-0.0117399
-0.0110845
-0.0104659
-0.00988333
-0.00933571
-0.00882197
-0.00834092
-0.00789136
-0.00747202
-0.0070816
-0.00671877
-0.0063823
-0.00607076
-0.00578284
-0.00551732
-0.00527292
-0.0050484
-0.00484254
-0.00465413
-0.00448201
-0.00432509
-0.00418228
-0.00405256
-0.00393493
-0.00382844
-0.00373218
-0.00364531
-0.00356695
-0.00349635
-0.00343278
-0.00337555
-0.00332402
-0.00327756
-0.00323561
-0.00319765
-0.00316318
-0.00313175
-0.00310291
-0.00307631
-0.00305158
-0.00302842
-0.00300652
-0.00298563
-0.00296552
-0.00294597
-0.0029268
-0.00290785
-0.00288899
-0.0028701
-0.00285108
-0.00283185
-0.00281236
-0.00279256
-0.00277241
-0.00275192
-0.00273107
-0.0027099
-0.00268843
-0.00266669
-0.00264475
-0.00262268
-0.00260057
-0.0025785
-0.00255661
-0.00253499
-0.00251379
-0.00249317
-0.00247328
-0.00245431
-0.00243644
-0.00241988
-0.00240485
-0.00239156
-0.00238026
-0.0023712
-0.00236466
-0.00236091
-0.00236028
-0.00236303
-0.0023695
-0.00238006
-0.00239513
-0.00241516
-0.00244061
-0.00247199
-0.0025098
-0.00255463
-0.00260706
-0.00266771
-0.00273712
-0.00281589
-0.00290457
-0.00300366
-0.00311363
-0.00323495
-0.00336819