/*--------------------------------*- C++ -*----------------------------------*\
| =========                 |                                                 |
| \\      /  F ield         | OpenFOAM: The Open Source CFD Toolbox           |
|  \\    /   O peration     | Version:  2.4.0                                 |
|   \\  /    A nd           | Web:      www.OpenFOAM.org                      |
|    \\/     M anipulation  |                                                 |
\*---------------------------------------------------------------------------*/
FoamFile
{
    version     2.0;
    format      ascii;
    class       volScalarField;
    location    "4.2";
    object      p_rgh;
}
// * * * * * * * * * * * * * * * * * * * * * * * * * * * * * * * * * * * * * //

dimensions      [1 -1 -2 0 0 0 0];

internalField   nonuniform List<scalar> 
8000
(
82.15
82.1466
82.1433
82.1401
82.1369
82.1333
82.1296
82.1258
82.1219
82.1178
82.1135
82.1092
82.1046
82.0998
82.0946
82.0893
82.0834
82.0772
82.07
82.0617
82.0526
82.0489
82.0669
82.1145
81.9645
80.7125
77.6336
63.1418
44.3252
4.08487
2.06577
2.76241
2.44255
2.43623
2.43314
2.42553
2.42503
2.42486
2.42476
2.42452
2.42416
2.42369
2.42314
2.42264
2.42263
2.42306
2.42192
2.4203
2.41889
2.41774
83.3201
83.2832
83.2429
83.2075
83.177
83.1505
83.1276
83.1084
83.0928
83.0809
83.0726
83.068
83.067
83.0699
83.0767
83.0872
83.1012
83.1191
83.1445
83.1886
83.2577
83.2777
82.7265
80.7037
71.9421
49.2927
6.84262
2.86958
3.4188
2.43979
2.43055
2.42652
2.42667
2.42632
2.4263
2.4261
2.42552
2.42484
2.42366
2.42266
2.42153
2.4203
2.41896
2.41782
2.41694
2.41562
2.41062
2.40818
2.40605
2.40372
85.0659
85.0191
84.9728
84.9338
84.9008
84.8727
84.8489
84.8297
84.815
84.8048
84.7993
84.7985
84.8024
84.8109
84.8232
84.8393
84.8673
84.9315
85.04
85.0023
84.0221
81.3285
67.0793
25.2766
3.26378
3.3806
2.42691
2.44438
2.45085
2.43322
2.43287
2.43296
2.43294
2.43267
2.43222
2.43158
2.43082
2.42997
2.42888
2.42708
2.42553
2.42386
2.42202
2.42011
2.42146
2.41688
2.414
2.41132
2.40835
2.40525
83.5238
83.5079
83.4857
83.4611
83.4353
83.4079
83.3789
83.3482
83.3159
83.2818
83.246
83.2081
83.1671
83.1222
83.0812
83.0704
83.1043
82.996
82.0763
79.7383
60.1597
9.35829
3.56269
3.54394
2.4775
2.49347
2.48129
2.47765
2.47749
2.47725
2.47642
2.47549
2.47451
2.47346
2.47231
2.47105
2.46967
2.46822
2.46678
2.4655
2.46267
2.46049
2.45837
2.45599
2.4535
2.45084
2.44826
2.44514
2.44184
2.43852
85.0104
84.9939
84.9756
84.9552
84.9316
84.9045
84.8738
84.8397
84.8021
84.7608
84.7153
84.6647
84.6124
84.5739
84.5667
84.5077
84.0002
82.551
68.9715
9.25327
2.98919
2.95947
2.56173
2.55105
2.53729
2.53276
2.5321
2.53128
2.5304
2.52952
2.52859
2.52761
2.52681
2.52548
2.52433
2.5231
2.52182
2.52049
2.51925
2.51818
2.51661
2.5148
2.51299
2.5112
2.5093
2.50738
2.50553
2.50374
2.50211
2.49987
84.7257
84.6988
84.6657
84.6332
84.6022
84.5722
84.5429
84.5142
84.4857
84.4561
84.4257
84.4063
84.4312
84.4963
84.3009
82.996
80.66
30.5573
2.9749
2.96028
2.70763
2.63531
2.61766
2.60898
2.60441
2.60136
2.59963
2.59848
2.59744
2.59633
2.59515
2.59397
2.59267
2.59108
2.58974
2.58807
2.58655
2.58493
2.58324
2.58263
2.57993
2.57829
2.57622
2.5741
2.57227
2.57046
2.56918
2.56648
2.56405
2.56237
87.2685
87.2692
87.2717
87.2686
87.2576
87.2388
87.2123
87.1781
87.1356
87.0844
87.0285
86.9799
86.9409
86.8104
86.2707
85.2732
46.591
2.8897
2.77357
2.76433
2.66319
2.65875
2.6601
2.65978
2.65934
2.65863
2.65789
2.65717
2.65617
2.65524
2.65429
2.65291
2.65167
2.65046
2.64902
2.64782
2.64648
2.64476
2.64336
2.64196
2.6405
2.63933
2.63861
2.63808
2.63887
2.63626
2.64047
2.63775
2.63835
2.63898
84.9957
85.0665
85.1236
85.1585
85.1749
85.1751
85.1598
85.1286
85.0813
85.0175
84.9366
84.8391
84.7317
84.6259
84.4988
84.1698
83.336
34.7227
5.8422
6.30276
2.55548
2.64675
2.67355
2.68314
2.68775
2.6867
2.68602
2.6857
2.68568
2.6865
2.6851
2.68538
2.68558
2.68566
2.68563
2.68545
2.68513
2.68476
2.68421
2.68354
2.68322
2.68399
2.6886
2.6876
2.68494
2.68899
2.68506
2.68664
2.69488
2.69249
94.611
94.5879
94.5758
94.5744
94.5806
94.5936
94.6133
94.6399
94.6737
94.7148
94.7635
94.8192
94.8805
94.9486
95.0413
95.2054
95.423
95.2581
93.3697
70.1943
-0.0845551
-1.18142
2.37411
2.74911
2.56579
2.63812
2.66924
2.68966
2.71354
2.72175
2.71952
2.71816
2.71851
2.71957
2.72095
2.72262
2.72443
2.72622
2.72798
2.7297
2.732
2.7355
2.74255
2.72914
2.73284
2.73352
2.73621
2.74053
2.74476
2.73434
95.3958
95.3819
95.3683
95.3619
95.3637
95.3732
95.3901
95.4145
95.4465
95.4862
95.5337
95.5894
95.6534
95.7267
95.8115
95.9088
96.0028
96.0498
96.0522
95.8644
95.3525
94.985
87.3679
70.6205
17
2.26199
3.27276
3.64704
3.29662
2.80643
2.76908
2.79331
2.7821
2.78199
2.78371
2.78212
2.7819
2.78271
2.78401
2.78558
2.78721
2.78912
2.79373
2.79207
2.79473
2.794
2.79761
2.8028
2.80416
2.796
97.8103
97.8403
97.8718
97.8992
97.9226
97.9429
97.9602
97.9748
97.9863
97.995
98.0005
98.003
98.0022
97.9981
97.9902
97.9787
97.9625
97.9427
97.9208
97.899
97.8674
97.8409
97.7402
97.5486
97.1518
96.7289
96.7471
83.7988
49.1742
14.146
4.49569
4.85306
4.72463
3.27938
2.88722
2.90271
2.86688
2.84636
2.84753
2.84632
2.8466
2.84756
2.84892
2.85049
2.85206
2.8538
2.8565
2.86337
2.85678
2.85858
100.672
100.684
100.697
100.712
100.727
100.743
100.761
100.78
100.8
100.822
100.845
100.87
100.895
100.922
100.951
100.98
101.011
101.042
101.075
101.109
101.144
101.182
101.225
101.28
101.349
101.425
101.54
101.579
101.297
100.457
96.7852
93.8857
70.2397
27.4351
5.72877
5.05732
4.82679
3.30235
2.9639
2.9546
2.91259
2.90221
2.90222
2.90228
2.90283
2.90373
2.90471
2.90565
2.90657
2.90781
103.185
103.18
103.176
103.175
103.177
103.182
103.189
103.198
103.21
103.225
103.243
103.263
103.286
103.311
103.34
103.372
103.406
103.444
103.485
103.53
103.578
103.63
103.686
103.747
103.813
103.884
103.962
104.05
104.143
104.235
104.322
104.44
104.352
103.804
98.3836
95.0732
70.916
22.5386
6.68796
6.0694
4.05884
3.01683
2.99124
2.95717
2.95126
2.9516
2.95171
2.95214
2.95286
2.95362
105.418
105.402
105.387
105.375
105.367
105.361
105.358
105.358
105.36
105.365
105.372
105.382
105.395
105.41
105.428
105.448
105.471
105.497
105.525
105.556
105.589
105.624
105.662
105.702
105.745
105.789
105.836
105.884
105.934
105.987
106.041
106.099
106.154
106.204
106.235
106.288
106.259
106.047
97.3479
84.7055
32.5999
7.78976
5.76918
3.55183
3.06832
3.01492
2.99042
2.98829
2.98834
2.98851
106.841
106.818
106.793
106.772
106.754
106.739
106.727
106.717
106.71
106.706
106.704
106.704
106.707
106.713
106.72
106.731
106.743
106.757
106.774
106.793
106.815
106.838
106.863
106.891
106.921
106.953
106.987
107.023
107.062
107.103
107.146
107.191
107.24
107.293
107.352
107.414
107.467
107.511
107.56
107.594
107.387
100.303
79.4025
24.5723
8.4993
5.07813
3.56393
3.13278
3.03341
3.0173
108.495
108.468
108.442
108.42
108.402
108.387
108.375
108.366
108.36
108.357
108.357
108.359
108.365
108.374
108.385
108.4
108.418
108.439
108.463
108.49
108.521
108.555
108.593
108.634
108.679
108.727
108.78
108.836
108.896
108.961
109.029
109.102
109.18
109.261
109.348
109.438
109.534
109.636
109.742
109.84
109.925
110.053
110.224
110.1
97.4888
57.0917
21.6785
9.44789
4.7685
3.28593
108.547
108.536
108.524
108.512
108.503
108.495
108.488
108.483
108.479
108.476
108.474
108.474
108.474
108.476
108.48
108.484
108.49
108.497
108.505
108.514
108.525
108.537
108.55
108.564
108.58
108.597
108.615
108.634
108.655
108.677
108.7
108.725
108.751
108.779
108.808
108.839
108.871
108.905
108.942
108.981
109.023
109.065
109.095
109.131
109.161
109.021
99.5487
71.0266
33.8999
11.8679
109.598
109.612
109.628
109.639
109.647
109.651
109.652
109.652
109.649
109.645
109.64
109.634
109.627
109.62
109.613
109.605
109.597
109.589
109.582
109.574
109.568
109.561
109.555
109.55
109.545
109.541
109.538
109.535
109.532
109.531
109.529
109.528
109.528
109.528
109.528
109.528
109.528
109.528
109.528
109.526
109.525
109.522
109.517
109.509
109.506
109.49
109.445
108.259
98.3305
62.0535
109.148
109.205
109.256
109.295
109.324
109.346
109.363
109.374
109.382
109.387
109.388
109.387
109.385
109.38
109.375
109.369
109.361
109.354
109.346
109.338
109.329
109.321
109.313
109.305
109.297
109.29
109.283
109.276
109.27
109.264
109.258
109.253
109.248
109.244
109.24
109.236
109.233
109.23
109.227
109.224
109.222
109.219
109.217
109.214
109.206
109.202
109.39
109.466
109.456
103.309
114.294
113.907
113.519
113.185
112.893
112.63
112.39
112.17
111.968
111.782
111.611
111.452
111.305
111.169
111.042
110.924
110.813
110.711
110.615
110.525
110.441
110.362
110.289
110.22
110.156
110.096
110.04
109.988
109.939
109.893
109.851
109.811
109.774
109.74
109.707
109.677
109.649
109.623
109.599
109.576
109.554
109.534
109.514
109.494
109.473
109.449
109.931
109.919
110.576
109.736
2.41653
2.41524
2.41386
2.41315
2.41118
2.40957
2.40786
2.40604
2.40973
2.4056
2.40295
2.40086
2.39875
2.39658
2.39437
2.39272
2.40463
2.39386
2.39005
2.38716
2.38451
2.3818
2.3797
2.37784
2.37691
2.37666
2.37381
2.37044
2.36679
2.36275
2.35562
2.34735
2.34193
2.33771
2.3332
2.32844
2.32346
2.31841
2.31488
2.31336
2.30717
2.29905
2.29139
2.28515
2.27876
2.27237
2.26662
2.25984
2.25032
2.24301
2.40214
2.39916
2.39614
2.39308
2.38985
2.38643
2.38283
2.37919
2.38194
2.37466
2.36952
2.365
2.36034
2.35525
2.35179
2.38666
2.35558
2.34631
2.33995
2.33351
2.32463
2.31896
2.31779
2.32386
2.31518
2.29979
2.29406
2.28691
2.2714
2.25949
2.2488
2.23812
2.22551
2.21671
2.20368
2.19033
2.17878
2.16473
2.15241
2.14269
2.12771
2.11112
2.09531
2.08079
2.06669
2.05005
2.03462
2.02035
2.00614
1.99247
2.40239
2.39842
2.39496
2.39047
2.38886
2.38253
2.37871
2.37354
2.36996
2.38041
2.35936
2.36076
2.35383
2.34939
2.40722
2.37407
2.36106
2.35232
2.34577
2.33644
2.33277
2.33132
2.32291
2.29476
2.28028
2.27161
2.25737
2.26072
2.23388
2.22077
2.20957
2.19067
2.17761
2.16018
2.14606
2.12895
2.11283
2.09538
2.07731
2.05939
2.03996
2.02139
2.0022
1.98267
1.96303
1.9431
1.92337
1.90429
1.88601
1.86843
2.43485
2.43098
2.42685
2.43201
2.42437
2.41755
2.41378
2.40558
2.40326
2.43101
2.38785
2.39742
2.38691
2.38487
2.40989
2.38725
2.37353
2.36324
2.35687
2.34272
2.33664
2.36416
2.34817
2.33333
2.33967
2.31844
2.31681
2.29822
2.28445
2.27316
2.25677
2.24627
2.23241
2.21565
2.20822
2.19184
2.17547
2.16135
2.14266
2.12717
2.11393
2.08754
2.06856
2.05003
2.03161
2.01292
1.99425
1.97614
1.95818
1.94034
2.49708
2.49534
2.49436
2.49661
2.49072
2.49835
2.49447
2.49406
2.49815
2.50636
2.47651
2.47091
2.46804
2.45063
2.47073
2.46653
2.44312
2.43924
2.43539
2.43338
2.42448
2.42573
2.43929
2.41326
2.40537
2.4024
2.38389
2.38097
2.35969
2.35349
2.34767
2.34373
2.33757
2.33083
2.32634
2.30995
2.30643
2.29709
2.28785
2.2789
2.26858
2.25038
2.23859
2.22802
2.21617
2.20472
2.19854
2.18084
2.16886
2.15735
2.56079
2.56153
2.55644
2.55278
2.54828
2.54811
2.53934
2.53913
2.56757
2.55892
2.54868
2.54344
2.54183
2.53398
2.53195
2.53173
2.52834
2.51877
2.51276
2.51394
2.5103
2.50827
2.53244
2.5014
2.50983
2.50469
2.50292
2.50657
2.49537
2.48979
2.48668
2.48334
2.4791
2.47637
2.47923
2.46697
2.46769
2.45815
2.46001
2.45778
2.44854
2.4441
2.44023
2.43528
2.43126
2.43201
2.4273
2.42153
2.42136
2.41275
2.63809
2.62793
2.62439
2.62367
2.62301
2.62102
2.62107
2.62352
2.64494
2.60332
2.60224
2.60163
2.60105
2.60047
2.59989
2.59916
2.59961
2.61177
2.60184
2.60012
2.59942
2.5992
2.59915
2.59944
2.59928
2.59949
2.60118
2.61002
2.58874
2.58902
2.58921
2.58941
2.58956
2.59022
2.59873
2.59119
2.59402
2.59468
2.59489
2.59732
2.59824
2.59467
2.59478
2.59637
2.59787
2.59946
2.60098
2.60379
2.61387
2.61585
2.68798
2.68633
2.68554
2.68468
2.68392
2.68334
2.68256
2.68194
2.68431
2.6844
2.67936
2.67897
2.6788
2.67868
2.67859
2.67915
2.68215
2.6761
2.67648
2.67545
2.68018
2.67834
2.67842
2.67971
2.68043
2.68152
2.6838
2.68814
2.68076
2.68199
2.68035
2.68201
2.68276
2.68479
2.68669
2.68727
2.69027
2.69249
2.69477
2.69646
2.69881
2.70156
2.70445
2.70756
2.71084
2.71431
2.71855
2.72394
2.73349
2.72111
2.73287
2.73407
2.73526
2.73637
2.73744
2.73842
2.73994
2.74225
2.74536
2.74037
2.74044
2.74161
2.74215
2.74384
2.7449
2.74449
2.74511
2.74631
2.74674
2.74868
2.7511
2.74868
2.74951
2.75097
2.75233
2.75386
2.7559
2.75984
2.75444
2.75604
2.75721
2.75934
2.76348
2.76517
2.76628
2.76769
2.76971
2.77175
2.77394
2.77617
2.77897
2.78218
2.78488
2.78671
2.7888
2.7922
2.79515
2.79953
2.80906
2.80137
2.79559
2.79693
2.79808
2.79808
2.79972
2.80187
2.80072
2.80298
2.80494
2.80599
2.80655
2.80632
2.80719
2.80823
2.80923
2.81026
2.81132
2.81237
2.8136
2.81846
2.82024
2.82032
2.82153
2.82278
2.82407
2.82552
2.82739
2.83102
2.82684
2.82848
2.82928
2.83154
2.83505
2.83271
2.83406
2.83592
2.83743
2.83954
2.84173
2.84318
2.84535
2.84686
2.84986
2.85201
2.85392
2.85526
2.85744
2.85981
2.86216
2.86458
2.85819
2.86263
2.86681
2.8687
2.86033
2.85972
2.86132
2.86379
2.86548
2.86707
2.87185
2.88178
2.8611
2.86296
2.8647
2.86638
2.8683
2.87017
2.87177
2.87418
2.87797
2.87491
2.87669
2.8784
2.88007
2.88167
2.88355
2.8871
2.88514
2.8869
2.8883
2.89019
2.89581
2.89296
2.8941
2.89573
2.8972
2.89888
2.90055
2.90209
2.90366
2.90527
2.90681
2.90879
2.90958
2.91158
2.91329
2.91392
2.91529
2.91706
2.91018
2.91017
2.91098
2.91163
2.91629
2.92418
2.92308
2.91964
2.92409
2.92412
2.92736
2.93954
2.91693
2.91782
2.91961
2.91764
2.92884
2.92636
2.92538
2.92685
2.9282
2.9295
2.93156
2.93341
2.93355
2.93486
2.93613
2.93739
2.93861
2.94011
2.943
2.9418
2.9431
2.94359
2.94515
2.94648
2.94595
2.94699
2.9483
2.94959
2.95096
2.95381
2.95401
2.95518
2.9565
2.95777
2.95913
2.96073
2.962
2.9633
2.95441
2.95535
2.95649
2.95703
2.95781
2.95864
2.9621
2.96442
2.96381
2.95365
2.96027
2.96038
2.95697
2.96147
2.96169
2.96301
2.9777
2.98526
2.97133
2.97146
2.97233
2.97303
2.97391
2.97538
2.97644
2.97493
2.97568
2.97662
2.97733
2.97858
2.98041
2.98133
2.98188
2.98283
2.98381
2.98477
2.98576
2.98713
2.98896
2.99004
2.99086
2.99178
2.99296
2.99415
2.99536
2.99659
2.99791
3.00032
3.00121
3.00231
2.98896
2.98952
2.99012
2.99129
2.99192
2.99299
2.99326
2.99484
2.9982
2.99675
2.99869
2.99851
3.00146
3.00268
2.99208
2.99595
2.98752
3.00312
3.00408
3.00085
2.99934
3.00036
3.00122
3.00197
3.00335
3.01061
3.01033
3.00971
3.01067
3.01156
3.01244
3.01331
3.01456
3.01661
3.02144
3.01276
3.01369
3.01474
3.01577
3.01688
3.01836
3.02106
3.02035
3.02108
3.02222
3.02341
3.02463
3.02588
3.02732
3.02842
3.01723
3.0174
3.01766
3.01809
3.01861
3.01911
3.01961
3.02017
3.02136
3.02277
3.02228
3.02306
3.02308
3.02456
3.02564
3.02733
3.03146
3.03222
3.03136
3.02754
3.02758
3.02926
3.03134
3.02398
3.0248
3.02365
3.03613
3.03805
3.03391
3.03463
3.03533
3.03607
3.03687
3.03841
3.04062
3.04309
3.03706
3.03694
3.03796
3.03893
3.04015
3.04416
3.04244
3.04313
3.04419
3.04525
3.04655
3.04874
3.05071
3.04975
3.0627
3.04438
3.04215
3.04217
3.04241
3.04275
3.04314
3.04364
3.04405
3.0446
3.04524
3.04578
3.04646
3.04824
3.04886
3.04981
3.05097
3.05587
3.06777
3.0382
3.04175
3.04225
3.0447
3.04564
3.04591
3.04586
3.04935
3.05308
3.05267
3.05053
3.05098
3.05199
3.05288
3.05365
3.05505
3.0576
3.06248
3.06097
3.05952
3.06202
3.06136
3.06335
3.0679
3.05781
3.0587
3.05953
3.06028
3.06137
3.0647
3.06496
4.62364
3.25091
3.0698
3.05635
3.05652
3.05659
3.05678
3.05696
3.05705
3.05724
3.05745
3.0577
3.05791
3.05818
3.05842
3.05871
3.05922
3.05965
3.0605
3.06537
3.06366
3.06292
3.06381
3.06413
3.06428
3.06475
3.06529
3.06625
3.06828
3.0748
3.07518
3.07315
3.07197
3.07379
3.07353
3.07539
3.0778
3.07848
3.07869
3.07719
3.08063
3.07971
3.08229
3.08304
3.08211
3.08167
3.08173
3.08279
3.08212
3.08444
19.7056
4.9819
3.15793
3.07143
3.07067
3.07048
3.07046
3.07052
3.07062
3.07075
3.0709
3.07122
3.0713
3.0715
3.07175
3.07206
3.07254
3.07317
3.07477
3.07359
3.07489
3.07597
3.07472
3.07502
3.07555
3.07607
3.07673
3.07729
3.07786
3.07848
3.07925
3.0814
3.08479
3.08518
3.08414
3.08426
3.0851
3.08535
3.08623
3.08831
3.09069
3.09162
3.09241
3.09239
3.09173
3.09193
3.09253
3.09375
3.09459
3.09584
45.6176
7.10518
3.18157
3.07777
3.07707
3.07679
3.07673
3.07677
3.07671
3.07683
3.07697
3.07705
3.07718
3.07735
3.07763
3.07797
3.07903
3.07787
3.07806
3.0783
3.07867
3.0789
3.07944
3.0809
3.08124
3.08133
3.08151
3.0819
3.08233
3.08276
3.08322
3.08371
3.08432
3.09352
3.08976
3.08937
3.08969
3.09027
3.09086
3.09212
3.1068
3.09989
3.09914
3.0994
3.10006
3.10086
3.1017
3.10257
3.10352
3.10569
42.7748
5.93064
3.12642
3.08165
3.08116
3.08087
3.08081
3.08083
3.0809
3.08097
3.08107
3.08121
3.08136
3.08154
3.08176
3.08198
3.08222
3.08249
3.08279
3.08311
3.08345
3.08385
3.08428
3.08469
3.08512
3.08556
3.08605
3.08658
3.08713
3.0877
3.08833
3.08945
3.09
3.09017
3.09086
3.09168
3.09245
3.09326
3.0956
3.09573
3.09644
3.09736
3.09825
3.09915
3.10005
3.10097
3.1021
3.10378
3.10472
3.10486
2.2378
2.2342
2.23097
2.2329
2.22641
2.21199
2.20709
2.20337
2.19971
2.196
2.19231
2.1887
2.18512
2.18159
2.17811
2.17468
2.1713
2.168
2.16476
2.16159
2.15849
2.15549
2.15258
2.14979
2.14712
2.1446
2.14222
2.14002
2.138
2.13619
2.1346
2.13323
2.13204
2.13108
2.13037
2.12995
2.12991
2.12987
2.13009
2.13066
2.13151
2.13278
2.13506
2.14142
2.1408
2.14149
2.14316
2.14533
2.14768
2.15019
2.15285
2.15563
2.15852
2.1615
2.16455
2.16765
2.17079
2.17396
2.17713
2.1803
2.18344
2.18813
2.19046
2.19421
2.1972
2.20074
2.20302
2.20515
2.20785
2.21048
2.21302
2.21548
2.21785
2.22012
2.22229
2.22461
2.22646
2.2283
2.23005
2.23171
2.23322
2.23464
2.2418
2.24113
2.24206
2.24298
2.24395
2.24484
2.24556
2.24641
2.24695
2.24756
2.24809
2.24855
2.24895
2.24927
2.24953
2.24972
2.25002
2.25048
2.24986
2.24971
2.24981
2.24952
2.25079
2.24992
2.24955
2.24921
2.24885
2.24847
2.24806
2.24764
2.24719
2.24761
2.24683
2.24631
2.24583
2.2454
2.24489
2.24467
2.24415
2.24385
2.24345
2.2431
2.2447
2.24352
2.24316
2.24295
2.24286
2.2428
2.24281
2.24449
2.244
2.24407
2.24437
2.2448
2.24532
2.24594
2.24667
2.24755
2.24857
2.24964
2.25055
2.25183
2.25329
2.25486
2.25656
2.25842
2.26042
2.26271
2.26511
2.2675
2.26987
2.27249
2.27536
2.27833
2.28145
2.28479
2.28836
2.29201
2.29575
2.30011
2.30459
2.30844
2.31197
2.31603
2.32058
2.32517
2.33005
2.33602
2.34125
2.34702
2.35222
2.36128
2.36544
2.36915
2.37517
2.38014
2.38568
2.39166
2.40003
2.4068
2.40966
2.41293
2.41738
2.42015
2.46338
2.44721
2.44469
2.44659
2.45026
2.45398
2.45731
2.46023
2.46305
2.46765
2.49991
2.48718
2.48192
2.48474
2.48525
2.49255
2.50217
2.50325
2.50343
2.50173
2.49213
2.49749
2.48149
2.51797
2.5104
2.49847
2.50142
2.48995
2.49254
2.47833
2.47254
2.4715
2.47071
2.46945
2.46763
2.46533
2.46288
2.46005
2.4568
2.4532
2.44922
2.44484
2.4401
2.43502
2.42958
2.4238
2.4177
2.41128
2.40444
2.39724
2.38975
2.38193
2.37377
2.36535
2.35656
2.34735
2.33788
2.32813
2.31808
2.30772
2.29706
2.28611
2.27487
2.26337
2.25163
2.23961
2.22725
2.21472
2.202
2.18908
2.17598
2.16271
2.14929
2.13574
2.12208
2.10841
2.09462
2.0807
2.06674
2.05283
2.03894
2.0251
2.01137
1.99761
1.98398
1.97048
1.95711
1.94392
1.9309
1.91804
1.90538
1.89297
1.88079
1.86886
1.85719
1.84579
1.83469
1.82389
1.8134
1.80321
1.79334
1.78381
1.77462
1.76578
1.7573
1.74917
1.74141
1.73402
1.727
1.72036
1.71412
1.70823
1.70285
1.69722
1.9828
1.9757
1.96855
1.96142
1.95418
1.94759
1.94158
1.93588
1.93045
1.9253
1.92046
1.91592
1.91167
1.90772
1.90409
1.90079
1.89786
1.89534
1.89446
1.89108
1.88931
1.88796
1.88693
1.88623
1.88586
1.88583
1.88614
1.8868
1.88793
1.88979
1.89451
1.8945
1.89643
1.89905
1.90219
1.90569
1.90956
1.91384
1.91863
1.92409
1.9312
1.94186
1.94697
1.95146
1.9567
1.96326
1.97055
1.9782
1.98611
1.99428
2.00267
2.01124
2.01997
2.02883
2.03775
2.04659
2.05556
2.06452
2.07345
2.08231
2.09107
2.09973
2.10827
2.11663
2.12482
2.13277
2.1407
2.14974
2.15655
2.1635
2.17042
2.17721
2.18378
2.19014
2.19627
2.20217
2.208
2.21341
2.21864
2.22368
2.22848
2.23304
2.23858
2.24143
2.24326
2.24684
2.2503
2.25358
2.25666
2.25954
2.26229
2.26474
2.26705
2.26918
2.27113
2.27292
2.27455
2.27602
2.27738
2.2802
2.28057
2.28138
2.28215
2.28285
2.28331
2.28453
2.28446
2.28473
2.28495
2.28511
2.2852
2.28523
2.28521
2.28519
2.28535
2.28503
2.28481
2.2846
2.28439
2.28416
2.28394
2.28372
2.2835
2.28335
2.28378
2.28307
2.28291
2.28283
2.28279
2.2828
2.28286
2.28321
2.28335
2.28325
2.28355
2.28394
2.28441
2.28496
2.2856
2.28638
2.28755
2.28811
2.28927
2.29028
2.29156
2.29291
2.29438
2.29601
2.29774
2.29957
2.30157
2.30506
2.30661
2.30888
2.31136
2.31398
2.31672
2.3196
2.32263
2.32583
2.32914
2.33262
2.33626
2.34163
2.34492
2.34791
2.35193
2.35618
2.36062
2.36518
2.3699
2.37477
2.37973
2.38481
2.39009
2.39543
2.40066
2.40615
2.41167
2.41729
2.42317
2.42909
2.43639
2.44583
2.45216
2.4529
2.45747
2.46293
2.46821
2.47345
2.4789
2.48441
2.48972
2.49476
2.49967
2.5058
2.51795
2.51391
2.5156
2.51884
2.52154
2.53343
2.54353
2.54563
2.54342
2.53469
2.53008
2.53193
2.5315
2.54331
2.56622
2.56752
2.52516
2.51018
2.51444
2.51357
2.51842
2.54219
2.54066
2.52594
2.52013
2.51915
2.51747
2.51508
2.51224
2.50925
2.50574
2.50179
2.49751
2.49298
2.48793
2.48246
2.47677
2.47068
2.46424
2.45749
2.45043
2.44305
2.43535
2.42735
2.41901
2.41049
2.40154
2.39211
2.38252
2.37267
2.36251
2.35206
2.34131
2.33027
2.31898
2.30742
2.29546
2.28332
2.27094
2.25833
2.2455
2.23246
2.21922
2.20581
2.19225
2.17865
2.16482
2.15072
2.13675
2.12268
2.10876
2.09478
2.0803
2.06613
2.05208
2.0381
2.0242
2.01043
1.99677
1.98327
1.96994
1.95682
1.94393
1.93121
1.91869
1.90648
1.89456
1.88291
1.87157
1.86053
1.84982
1.83945
1.82945
1.81978
1.81042
1.80144
1.79287
1.78467
1.77686
1.76945
1.76244
1.75579
1.74972
1.74305
1.85531
1.84624
1.83735
1.82874
1.82092
1.81285
1.80525
1.7985
1.79185
1.78594
1.78206
1.77428
1.76894
1.7643
1.76027
1.75667
1.75357
1.75107
1.74933
1.74811
1.74675
1.74558
1.74499
1.74512
1.74579
1.74695
1.74862
1.75093
1.75417
1.75745
1.76084
1.76428
1.76857
1.77323
1.77822
1.78512
1.7916
1.7994
1.80836
1.81664
1.82402
1.83136
1.83973
1.84906
1.85918
1.8699
1.88082
1.89255
1.9044
1.91683
1.92952
1.94244
1.95554
1.96866
1.98205
1.99555
2.0091
2.02265
2.03615
2.04958
2.06291
2.07606
2.08912
2.10209
2.11587
2.12864
2.13727
2.14831
2.15948
2.17055
2.18135
2.19183
2.20196
2.21174
2.22117
2.23023
2.23895
2.24734
2.25526
2.26286
2.27012
2.27702
2.28424
2.29001
2.29437
2.29979
2.305
2.30991
2.31451
2.31881
2.32283
2.32658
2.33002
2.33322
2.33616
2.33886
2.34132
2.34356
2.34558
2.34756
2.34928
2.35004
2.35122
2.35233
2.35322
2.35401
2.35465
2.35496
2.35527
2.35548
2.35558
2.35558
2.35549
2.35532
2.35563
2.35511
2.35469
2.35427
2.35382
2.35334
2.35283
2.35232
2.35179
2.35129
2.35116
2.35036
2.34985
2.3494
2.34898
2.3486
2.34826
2.34798
2.34802
2.34771
2.34759
2.34757
2.34762
2.34776
2.34798
2.34849
2.34882
2.34923
2.3499
2.35059
2.35146
2.35244
2.35339
2.35453
2.35581
2.35721
2.35873
2.36044
2.36245
2.36402
2.36601
2.36813
2.37028
2.37268
2.3751
2.37769
2.38043
2.38328
2.38626
2.38937
2.39259
2.39667
2.39985
2.40323
2.4069
2.41073
2.41469
2.41877
2.42298
2.4273
2.43175
2.43632
2.44102
2.44583
2.45085
2.45579
2.46098
2.46625
2.47169
2.47836
2.48744
2.49347
2.49094
2.49454
2.49982
2.50571
2.51115
2.51794
2.52358
2.52787
2.53327
2.53829
2.54303
2.54747
2.55185
2.55612
2.56325
2.57887
2.59206
2.56697
2.56267
2.56316
2.56539
2.56739
2.56885
2.57201
2.58736
2.60676
2.60786
2.58092
2.56511
2.56121
2.56077
2.55918
2.5598
2.57889
2.61134
2.60655
2.58676
2.57341
2.57061
2.5677
2.56421
2.56037
2.55629
2.55184
2.54737
2.54403
2.53611
2.52982
2.52365
2.51717
2.51037
2.5035
2.49615
2.48813
2.48019
2.4719
2.46375
2.45462
2.44522
2.4357
2.42597
2.41593
2.4056
2.39497
2.38409
2.37288
2.36138
2.34963
2.33761
2.32534
2.31282
2.30006
2.28708
2.27391
2.26056
2.24706
2.23338
2.21954
2.20562
2.1916
2.17768
2.16368
2.1494
2.13503
2.12091
2.10668
2.09265
2.07858
2.06456
2.0507
2.03699
2.02342
2.01004
1.99684
1.9839
1.97127
1.95877
1.94647
1.9345
1.92287
1.91154
1.90053
1.88991
1.87959
1.86959
1.86002
1.85081
1.84203
1.83368
1.82557
1.81797
1.81073
1.80413
1.79662
1.92729
1.91805
1.90921
1.90029
1.89173
1.88344
1.87555
1.86832
1.86334
1.85617
1.84884
1.84196
1.83599
1.83061
1.82562
1.82122
1.81735
1.81405
1.81131
1.80964
1.80705
1.80534
1.8042
1.80397
1.80404
1.80482
1.80631
1.80859
1.81116
1.81403
1.81735
1.82088
1.82514
1.83059
1.83573
1.84271
1.85083
1.85826
1.86423
1.87207
1.88067
1.89009
1.90034
1.91117
1.92417
1.93523
1.94747
1.96036
1.97371
1.98766
2.00251
2.01673
2.02947
2.0439
2.05882
2.07389
2.08903
2.10423
2.11972
2.13617
2.15204
2.16706
2.17943
2.19306
2.20682
2.22042
2.23374
2.24686
2.25984
2.2725
2.28477
2.29665
2.30812
2.31916
2.32976
2.33992
2.34971
2.35895
2.36769
2.37602
2.3839
2.39135
2.39847
2.40596
2.41113
2.41676
2.42208
2.42703
2.4316
2.4358
2.43965
2.44315
2.44632
2.44918
2.45172
2.45398
2.45595
2.45765
2.45908
2.4603
2.46215
2.46251
2.46296
2.46326
2.46341
2.46339
2.46328
2.4629
2.46242
2.46181
2.46109
2.46027
2.45934
2.45834
2.45727
2.45634
2.45493
2.45365
2.45235
2.45103
2.44968
2.44832
2.44696
2.4456
2.44438
2.443
2.44166
2.44038
2.43916
2.43797
2.43684
2.43577
2.43478
2.43385
2.43297
2.43218
2.43148
2.43086
2.43034
2.43002
2.42964
2.42933
2.42919
2.42917
2.42925
2.42966
2.42987
2.43026
2.43079
2.43143
2.4322
2.43309
2.43418
2.43521
2.43644
2.43779
2.43924
2.44098
2.44258
2.44438
2.44631
2.44835
2.45051
2.45279
2.45517
2.45768
2.4603
2.4633
2.46595
2.46886
2.47191
2.47507
2.47835
2.48173
2.48523
2.48884
2.49256
2.49641
2.50047
2.50453
2.5087
2.51305
2.51749
2.52226
2.53016
2.54033
2.53208
2.53551
2.54019
2.54512
2.54996
2.55524
2.56228
2.56585
2.56995
2.57433
2.5787
2.58291
2.58689
2.59065
2.59617
2.62828
2.62293
2.60282
2.60262
2.60549
2.60796
2.60986
2.61138
2.61255
2.61407
2.61912
2.64052
2.6619
2.66102
2.64501
2.6255
2.62001
2.61983
2.61702
2.61764
2.62393
2.65838
2.67186
2.66584
2.63747
2.61558
2.61172
2.60905
2.60585
2.60196
2.59809
2.5936
2.58731
2.58052
2.57409
2.56774
2.56105
2.55405
2.54735
2.54183
2.53448
2.52397
2.51432
2.50526
2.49631
2.48689
2.47713
2.467
2.4568
2.44611
2.4349
2.42357
2.41201
2.40017
2.38805
2.37568
2.36307
2.35024
2.33725
2.32407
2.31069
2.29717
2.28353
2.26976
2.2559
2.24242
2.22816
2.21392
2.19983
2.18571
2.1717
2.1576
2.1436
2.12966
2.11588
2.10231
2.08873
2.07505
2.06171
2.04864
2.03577
2.02313
2.01082
1.99918
1.98697
1.97532
1.96408
1.9532
1.94266
1.93248
1.92268
1.91325
1.90422
1.89566
1.8876
1.87982
1.87235
1.86565
1.85792
2.14812
2.142
2.13616
2.12973
2.12318
2.11623
2.11
2.10418
2.09849
2.093
2.08844
2.08225
2.07752
2.07294
2.06869
2.06488
2.06155
2.05816
2.05639
2.05403
2.05219
2.05085
2.04983
2.04911
2.04875
2.04954
2.05053
2.05213
2.05445
2.05747
2.06185
2.06389
2.06756
2.07268
2.07782
2.08418
2.09294
2.09509
2.10309
2.11085
2.11963
2.13011
2.13787
2.14842
2.15777
2.16901
2.18055
2.19257
2.20603
2.21843
2.23074
2.24331
2.25694
2.27027
2.28409
2.29822
2.31252
2.32655
2.34065
2.35424
2.36722
2.38007
2.39281
2.40547
2.41811
2.43064
2.44291
2.45487
2.46649
2.47772
2.48856
2.49898
2.50895
2.51847
2.52753
2.53611
2.54418
2.55178
2.5589
2.56553
2.57169
2.57739
2.58284
2.5875
2.59145
2.5953
2.59877
2.60184
2.60451
2.60681
2.60874
2.61032
2.61157
2.6125
2.61313
2.61347
2.61354
2.61335
2.61292
2.61226
2.61165
2.61047
2.60905
2.60758
2.60597
2.60421
2.60232
2.60029
2.59815
2.59591
2.59357
2.59116
2.58868
2.58613
2.58354
2.58101
2.57831
2.57561
2.57292
2.57023
2.56755
2.56488
2.56223
2.55961
2.55704
2.55455
2.55203
2.5496
2.54723
2.54494
2.54272
2.54058
2.53852
2.53655
2.53467
2.53288
2.5312
2.52961
2.52813
2.52676
2.52563
2.5244
2.52335
2.52242
2.52161
2.52094
2.52036
2.51988
2.51954
2.5193
2.5192
2.51921
2.51929
2.51953
2.51988
2.52034
2.52092
2.52165
2.52242
2.52332
2.52434
2.52546
2.52669
2.52802
2.52945
2.53099
2.53262
2.53437
2.53626
2.53815
2.54018
2.54232
2.54455
2.54688
2.54931
2.55183
2.55446
2.55718
2.56004
2.563
2.56593
2.56911
2.57234
2.57556
2.5807
2.59537
2.58701
2.58972
2.59347
2.5975
2.60165
2.60606
2.61121
2.61511
2.61745
2.62153
2.62577
2.62997
2.63405
2.63801
2.64187
2.6458
2.64993
2.65808
2.66439
2.65975
2.6568
2.65713
2.65916
2.66105
2.66237
2.66381
2.67113
2.69752
2.7146
2.71281
2.69929
2.6784
2.67205
2.67119
2.66998
2.66914
2.67027
2.6724
2.69083
2.70159
2.7017
2.70041
2.69673
2.66998
2.65159
2.64502
2.64176
2.63734
2.63194
2.62623
2.62064
2.6146
2.60807
2.60109
2.5937
2.58607
2.57992
2.57918
2.57269
2.5574
2.54203
2.53168
2.52172
2.51243
2.50311
2.49121
2.47958
2.46795
2.45599
2.44374
2.43123
2.41849
2.40561
2.39352
2.38028
2.36646
2.35284
2.3393
2.32567
2.31192
2.29809
2.28424
2.27057
2.25657
2.24263
2.22874
2.21491
2.20113
2.18743
2.17395
2.16064
2.14721
2.13399
2.12121
2.10814
2.09552
2.08321
2.0711
2.05953
2.04804
2.03668
2.02566
2.01514
2.00493
1.99509
1.98558
1.97652
1.96787
1.95966
1.95188
1.94459
1.93775
1.93169
1.92468
2.4252
2.42269
2.41927
2.41625
2.41438
2.41235
2.41037
2.4086
2.40729
2.40625
2.40438
2.40243
2.40121
2.40021
2.39935
2.39872
2.3983
2.39803
2.398
2.39823
2.39872
2.39955
2.40144
2.40314
2.40555
2.40749
2.40968
2.41515
2.41814
2.42062
2.42408
2.42816
2.43243
2.43735
2.44341
2.44968
2.45419
2.46045
2.46707
2.47423
2.48193
2.49072
2.49976
2.5053
2.51364
2.52269
2.53107
2.54026
2.54976
2.55954
2.56959
2.57945
2.58982
2.60022
2.61063
2.62101
2.63118
2.64124
2.65115
2.66097
2.67074
2.6804
2.68991
2.69924
2.70831
2.71711
2.72568
2.73386
2.74155
2.7489
2.75586
2.76239
2.76849
2.77415
2.77934
2.78407
2.78835
2.79217
2.79553
2.79844
2.80092
2.80297
2.80485
2.80588
2.80674
2.80712
2.80735
2.80702
2.80628
2.80528
2.80398
2.80238
2.80049
2.79834
2.79594
2.79331
2.79046
2.78741
2.78417
2.78077
2.77726
2.77357
2.76971
2.76579
2.76177
2.75766
2.75348
2.74924
2.74495
2.74063
2.73627
2.7319
2.72752
2.72314
2.71877
2.71443
2.71011
2.70582
2.70158
2.69739
2.69326
2.68919
2.6852
2.68127
2.67743
2.67368
2.67002
2.66645
2.66299
2.65962
2.65637
2.65322
2.65018
2.64726
2.64446
2.64178
2.63921
2.63677
2.63445
2.63225
2.63022
2.62824
2.62641
2.62471
2.62313
2.62166
2.62032
2.6191
2.61799
2.61699
2.61611
2.61535
2.61472
2.61416
2.61368
2.61334
2.6131
2.61297
2.61292
2.61298
2.61313
2.61336
2.61369
2.6141
2.6146
2.61518
2.61584
2.61658
2.61741
2.61832
2.6193
2.62037
2.62151
2.62274
2.62405
2.62545
2.62693
2.6285
2.63016
2.63203
2.63385
2.63578
2.63787
2.64007
2.64239
2.6465
2.6505
2.64947
2.65169
2.65466
2.65775