/*--------------------------------*- C++ -*----------------------------------*\
| =========                 |                                                 |
| \\      /  F ield         | OpenFOAM: The Open Source CFD Toolbox           |
|  \\    /   O peration     | Version:  2.4.0                                 |
|   \\  /    A nd           | Web:      www.OpenFOAM.org                      |
|    \\/     M anipulation  |                                                 |
\*---------------------------------------------------------------------------*/
FoamFile
{
    version     2.0;
    format      ascii;
    class       volVectorField;
    location    "4.2";
    object      U;
}
// * * * * * * * * * * * * * * * * * * * * * * * * * * * * * * * * * * * * * //

dimensions      [0 1 -1 0 0 0 0];

internalField   nonuniform List<vector> 
125
(
(-8.10624e-09 -0.00104487 0)
(-1.86858e-08 -0.00104474 0)
(-2.37284e-09 -0.00104457 0)
(3.38444e-08 -0.00104466 0)
(2.51728e-08 -0.00104488 0)
(-9.04817e-09 -0.00104487 0)
(-2.11088e-08 -0.00104474 0)
(-3.08514e-09 -0.00104457 0)
(3.58654e-08 -0.00104466 0)
(2.62737e-08 -0.00104488 0)
(-9.89893e-09 -0.00104487 0)
(-2.32798e-08 -0.00104474 0)
(-3.72101e-09 -0.00104457 0)
(3.7627e-08 -0.00104466 0)
(2.72102e-08 -0.00104488 0)
(-1.06623e-08 -0.00104487 0)
(-2.5211e-08 -0.00104474 0)
(-4.28435e-09 -0.00104457 0)
(3.91435e-08 -0.00104466 0)
(2.7992e-08 -0.00104488 0)
(-1.13423e-08 -0.00104486 0)
(-2.69144e-08 -0.00104474 0)
(-4.77901e-09 -0.00104457 0)
(4.04289e-08 -0.00104466 0)
(2.86286e-08 -0.00104488 0)
(-1.19429e-08 -0.00104486 0)
(-2.84022e-08 -0.00104474 0)
(-5.20885e-09 -0.00104458 0)
(4.14976e-08 -0.00104466 0)
(2.91298e-08 -0.00104488 0)
(-1.2468e-08 -0.00104486 0)
(-2.96866e-08 -0.00104474 0)
(-5.5777e-09 -0.00104458 0)
(4.23639e-08 -0.00104466 0)
(2.9505e-08 -0.00104488 0)
(-1.2922e-08 -0.00104486 0)
(-3.07801e-08 -0.00104474 0)
(-5.88939e-09 -0.00104458 0)
(4.3042e-08 -0.00104466 0)
(2.97639e-08 -0.00104488 0)
(-1.3309e-08 -0.00104486 0)
(-3.1695e-08 -0.00104474 0)
(-6.14774e-09 -0.00104458 0)
(4.35464e-08 -0.00104466 0)
(2.99162e-08 -0.00104488 0)
(-1.36334e-08 -0.00104486 0)
(-3.24439e-08 -0.00104474 0)
(-6.35658e-09 -0.00104458 0)
(4.38918e-08 -0.00104466 0)
(2.99716e-08 -0.00104487 0)
(-1.38996e-08 -0.00104486 0)
(-3.30397e-08 -0.00104474 0)
(-6.51978e-09 -0.00104458 0)
(4.40928e-08 -0.00104466 0)
(2.994e-08 -0.00104487 0)
(-1.41122e-08 -0.00104486 0)
(-3.3495e-08 -0.00104474 0)
(-6.6412e-09 -0.00104458 0)
(4.41642e-08 -0.00104467 0)
(2.98312e-08 -0.00104487 0)
(-1.42757e-08 -0.00104486 0)
(-3.38231e-08 -0.00104474 0)
(-6.72477e-09 -0.00104459 0)
(4.41211e-08 -0.00104467 0)
(2.96553e-08 -0.00104487 0)
(-1.4395e-08 -0.00104486 0)
(-3.40371e-08 -0.00104474 0)
(-6.77447e-09 -0.00104459 0)
(4.39787e-08 -0.00104467 0)
(2.94226e-08 -0.00104487 0)
(-1.44747e-08 -0.00104486 0)
(-3.41505e-08 -0.00104474 0)
(-6.79436e-09 -0.00104459 0)
(4.37526e-08 -0.00104467 0)
(2.91435e-08 -0.00104487 0)
(-1.45199e-08 -0.00104486 0)
(-3.41772e-08 -0.00104474 0)
(-6.78856e-09 -0.00104459 0)
(4.34586e-08 -0.00104467 0)
(2.88287e-08 -0.00104487 0)
(-1.45357e-08 -0.00104486 0)
(-3.41312e-08 -0.00104474 0)
(-6.76133e-09 -0.00104459 0)
(4.31129e-08 -0.00104467 0)
(2.84891e-08 -0.00104486 0)
(-1.45272e-08 -0.00104485 0)
(-3.40269e-08 -0.00104474 0)
(-6.71704e-09 -0.00104459 0)
(4.27322e-08 -0.00104467 0)
(2.81361e-08 -0.00104486 0)
(-1.44998e-08 -0.00104485 0)
(-3.38792e-08 -0.00104474 0)
(-6.66022e-09 -0.00104459 0)
(4.23334e-08 -0.00104467 0)
(2.77812e-08 -0.00104486 0)
(-1.4459e-08 -0.00104485 0)
(-3.37033e-08 -0.00104474 0)
(-6.59559e-09 -0.0010446 0)
(4.19343e-08 -0.00104467 0)
(2.74367e-08 -0.00104486 0)
(-1.44104e-08 -0.00104485 0)
(-3.3515e-08 -0.00104474 0)
(-6.52805e-09 -0.0010446 0)
(4.15531e-08 -0.00104467 0)
(2.71152e-08 -0.00104486 0)
(-1.43598e-08 -0.00104485 0)
(-3.33305e-08 -0.00104474 0)
(-6.46276e-09 -0.0010446 0)
(4.12086e-08 -0.00104467 0)
(2.68298e-08 -0.00104486 0)
(-1.43137e-08 -0.00104485 0)
(-3.31677e-08 -0.00104474 0)
(-6.40536e-09 -0.0010446 0)
(4.09216e-08 -0.00104467 0)
(2.65953e-08 -0.00104486 0)
(-1.42795e-08 -0.00104485 0)
(-3.30471e-08 -0.00104474 0)
(-6.36221e-09 -0.0010446 0)
(4.07161e-08 -0.00104467 0)
(2.64286e-08 -0.00104486 0)
(-1.42643e-08 -0.00104485 0)
(-3.29885e-08 -0.00104474 0)
(-6.33971e-09 -0.0010446 0)
(4.06153e-08 -0.00104467 0)
(2.63465e-08 -0.00104485 0)
)
;

boundaryField
{
    BotWall
    {
        type            fixedValue;
        value           nonuniform 0();
    }
    FreeStream
    {
        type            zeroGradient;
    }
    FrontNBack
    {
        type            empty;
    }
    LeftSide
    {
        type            symmetryPlane;
    }
    RightSide
    {
        type            symmetryPlane;
    }
    procBoundary3to2
    {
        type            processor;
        value           nonuniform List<vector> 5((-7.06939e-09 -0.00104487 0) (-1.5999e-08 -0.00104474 0) (-1.58018e-09 -0.00104457 0) (3.15499e-08 -0.00104466 0) (2.3898e-08 -0.00104489 0));
    }
}


// ************************************************************************* //
