/*--------------------------------*- C++ -*----------------------------------*\
| =========                 |                                                 |
| \\      /  F ield         | OpenFOAM: The Open Source CFD Toolbox           |
|  \\    /   O peration     | Version:  2.4.0                                 |
|   \\  /    A nd           | Web:      www.OpenFOAM.org                      |
|    \\/     M anipulation  |                                                 |
\*---------------------------------------------------------------------------*/
FoamFile
{
    version     2.0;
    format      ascii;
    class       surfaceScalarField;
    location    "0.008";
    object      phi;
}
// * * * * * * * * * * * * * * * * * * * * * * * * * * * * * * * * * * * * * //

dimensions      [0 3 -1 0 0 0 0];

internalField   nonuniform List<scalar> 
124
(
-3.84724e-09
-3.84723e-09
-3.84721e-09
-3.8472e-09
-3.84718e-09
-3.84716e-09
-3.84715e-09
-3.84713e-09
-3.84712e-09
-3.8471e-09
-3.84709e-09
-3.84707e-09
-3.84706e-09
-3.84704e-09
-3.84703e-09
-3.84701e-09
-3.847e-09
-3.84699e-09
-3.84697e-09
-3.84696e-09
-3.84694e-09
-3.84693e-09
-3.84692e-09
-3.8469e-09
-3.84689e-09
-3.84687e-09
-3.84686e-09
-3.84685e-09
-3.84683e-09
-3.84682e-09
-3.84681e-09
-3.8468e-09
-3.84678e-09
-3.84677e-09
-3.84676e-09
-3.84674e-09
-3.84673e-09
-3.84672e-09
-3.84671e-09
-3.8467e-09
-3.84668e-09
-3.84667e-09
-3.84666e-09
-3.84665e-09
-3.84664e-09
-3.84663e-09
-3.84661e-09
-3.8466e-09
-3.84659e-09
-3.84658e-09
-3.84657e-09
-3.84656e-09
-3.84655e-09
-3.84654e-09
-3.84653e-09
-3.84652e-09
-3.84651e-09
-3.8465e-09
-3.84649e-09
-3.84648e-09
-3.84647e-09
-3.84646e-09
-3.84645e-09
-3.84644e-09
-3.84643e-09
-3.84642e-09
-3.84641e-09
-3.8464e-09
-3.84639e-09
-3.84638e-09
-3.84637e-09
-3.84636e-09
-3.84635e-09
-3.84634e-09
-3.84633e-09
-3.84632e-09
-3.84632e-09
-3.84631e-09
-3.8463e-09
-3.84629e-09
-3.84628e-09
-3.84627e-09
-3.84627e-09
-3.84626e-09
-3.84625e-09
-3.84624e-09
-3.84623e-09
-3.84623e-09
-3.84622e-09
-3.84621e-09
-3.8462e-09
-3.8462e-09
-3.84619e-09
-3.84618e-09
-3.84618e-09
-3.84617e-09
-3.84616e-09
-3.84616e-09
-3.84615e-09
-3.84615e-09
-3.84614e-09
-3.84614e-09
-3.84613e-09
-3.84613e-09
-3.84612e-09
-3.84612e-09
-3.84611e-09
-3.84611e-09
-3.84611e-09
-3.8461e-09
-3.8461e-09
-3.8461e-09
-3.8461e-09
-3.8461e-09
-3.84609e-09
-3.84609e-09
-3.84609e-09
-3.84609e-09
-3.84609e-09
-3.84609e-09
-3.84609e-09
-3.84609e-09
-3.8461e-09
-3.8461e-09
)
;

boundaryField
{
    BotWall
    {
        type            calculated;
        value           nonuniform 0();
    }
    FreeStream
    {
        type            calculated;
        value           nonuniform 0();
    }
    FrontNBack
    {
        type            empty;
        value           nonuniform 0();
    }
    LeftSide
    {
        type            symmetryPlane;
        value           nonuniform 0();
    }
    RightSide
    {
        type            symmetryPlane;
        value           nonuniform 0();
    }
    procBoundary5to2
    {
        type            processor;
        value           nonuniform List<scalar> 
50
(
-3.75144e-15
-3.73887e-15
-3.72648e-15
-3.71425e-15
-3.70218e-15
-3.69024e-15
-3.67843e-15
-3.6667e-15
-3.65504e-15
-3.64339e-15
-3.63171e-15
-3.61996e-15
-3.60807e-15
-3.59599e-15
-3.58365e-15
-3.57098e-15
-3.5579e-15
-3.54434e-15
-3.53022e-15
-3.51545e-15
-3.49996e-15
-3.48366e-15
-3.46647e-15
-3.44833e-15
-3.42915e-15
-3.40888e-15
-3.38747e-15
-3.36486e-15
-3.34101e-15
-3.31592e-15
-3.28957e-15
-3.26197e-15
-3.23314e-15
-3.20313e-15
-3.172e-15
-3.13982e-15
-3.1067e-15
-3.07276e-15
-3.03812e-15
-3.00295e-15
-2.96739e-15
-2.93163e-15
-2.89583e-15
-2.86017e-15
-2.82477e-15
-2.78977e-15
-2.7552e-15
-2.72104e-15
-2.68716e-15
-2.65326e-15
)
;
    }
    procBoundary5to3
    {
        type            processor;
        value           nonuniform List<scalar> 
75
(
-3.93112e-15
-3.95339e-15
-3.97484e-15
-3.99548e-15
-4.0153e-15
-4.03429e-15
-4.05243e-15
-4.06974e-15
-4.08619e-15
-4.1018e-15
-4.11655e-15
-4.13045e-15
-4.14349e-15
-4.15568e-15
-4.16702e-15
-4.17751e-15
-4.18716e-15
-4.19597e-15
-4.20394e-15
-4.21108e-15
-4.2174e-15
-4.22291e-15
-4.22762e-15
-4.23153e-15
-4.23465e-15
-4.237e-15
-4.23859e-15
-4.23944e-15
-4.23955e-15
-4.23894e-15
-4.23763e-15
-4.23562e-15
-4.23294e-15
-4.22959e-15
-4.2256e-15
-4.22097e-15
-4.21574e-15
-4.2099e-15
-4.20349e-15
-4.19652e-15
-4.189e-15
-4.18097e-15
-4.17242e-15
-4.16339e-15
-4.15389e-15
-4.14395e-15
-4.13358e-15
-4.12281e-15
-4.11165e-15
-4.10014e-15
-4.08828e-15
-4.07611e-15
-4.06364e-15
-4.0509e-15
-4.03791e-15
-4.0247e-15
-4.0113e-15
-3.99772e-15
-3.98399e-15
-3.97015e-15
-3.9562e-15
-3.94219e-15
-3.92813e-15
-3.91404e-15
-3.89997e-15
-3.88592e-15
-3.87192e-15
-3.85799e-15
-3.84416e-15
-3.83045e-15
-3.81686e-15
-3.80343e-15
-3.79017e-15
-3.77708e-15
-3.76417e-15
)
;
    }
    procBoundary5to4
    {
        type            processor;
        value           uniform -3.8461e-09;
    }
    procBoundary5to6
    {
        type            processor;
        value           uniform 3.84726e-09;
    }
    procBoundary5to7
    {
        type            processor;
        value           nonuniform List<scalar> 
75
(
-6.90077e-15
-6.81866e-15
-6.73737e-15
-6.65688e-15
-6.57717e-15
-6.49823e-15
-6.42003e-15
-6.34255e-15
-6.26575e-15
-6.18962e-15
-6.11412e-15
-6.0392e-15
-5.96483e-15
-5.89095e-15
-5.81751e-15
-5.74444e-15
-5.67169e-15
-5.59916e-15
-5.52678e-15
-5.45444e-15
-5.38204e-15
-5.30945e-15
-5.23655e-15
-5.16317e-15
-5.08918e-15
-5.01437e-15
-4.93856e-15
-4.86154e-15
-4.78308e-15
-4.70293e-15
-4.62084e-15
-4.53651e-15
-4.44966e-15
-4.35995e-15
-4.26705e-15
-4.17061e-15
-4.07025e-15
-3.9656e-15
-3.85625e-15
-3.74181e-15
-3.62187e-15
-3.49601e-15
-3.36383e-15
-3.2249e-15
-3.07885e-15
-2.9253e-15
-2.76387e-15
-2.59425e-15
-2.41613e-15
-2.22926e-15
-2.03343e-15
-1.8285e-15
-1.61436e-15
-1.39101e-15
-1.15849e-15
-9.16959e-16
-6.66664e-16
-4.0797e-16
-1.41391e-16
1.35644e-16
4.23911e-16
7.18323e-16
1.01833e-15
1.32326e-15
1.63231e-15
1.94463e-15
2.25933e-15
2.57548e-15
2.89223e-15
3.20879e-15
3.52453e-15
3.83908e-15
4.1524e-15
4.46495e-15
4.77773e-15
)
;
    }
    procBoundary5to8
    {
        type            processor;
        value           nonuniform List<scalar> 
50
(
-1.23783e-14
-1.22366e-14
-1.20964e-14
-1.19577e-14
-1.18204e-14
-1.16847e-14
-1.15504e-14
-1.14176e-14
-1.12862e-14
-1.11562e-14
-1.10277e-14
-1.09007e-14
-1.0775e-14
-1.06507e-14
-1.05278e-14
-1.04063e-14
-1.02861e-14
-1.01673e-14
-1.00498e-14
-9.93364e-15
-9.81877e-15
-9.70518e-15
-9.59287e-15
-9.48181e-15
-9.37199e-15
-9.26339e-15
-9.156e-15
-9.0498e-15
-8.94477e-15
-8.84091e-15
-8.73819e-15
-8.6366e-15
-8.53611e-15
-8.43673e-15
-8.33843e-15
-8.24119e-15
-8.145e-15
-8.04985e-15
-7.95572e-15
-7.86259e-15
-7.77046e-15
-7.67931e-15
-7.58912e-15
-7.49988e-15
-7.41158e-15
-7.32421e-15
-7.23775e-15
-7.15219e-15
-7.06752e-15
-6.98372e-15
)
;
    }
}


// ************************************************************************* //
