/*--------------------------------*- C++ -*----------------------------------*\
| =========                 |                                                 |
| \\      /  F ield         | OpenFOAM: The Open Source CFD Toolbox           |
|  \\    /   O peration     | Version:  2.4.0                                 |
|   \\  /    A nd           | Web:      www.OpenFOAM.org                      |
|    \\/     M anipulation  |                                                 |
\*---------------------------------------------------------------------------*/
FoamFile
{
    version     2.0;
    format      ascii;
    class       volScalarField;
    location    "3.3";
    object      p;
}
// * * * * * * * * * * * * * * * * * * * * * * * * * * * * * * * * * * * * * //

dimensions      [1 -1 -2 0 0 0 0];

internalField   nonuniform List<scalar> 
8000
(
-6.71198
-6.60876
-6.50912
-6.48685
-6.61928
-6.76991
-7.47604
-3.28103
-6.01532
-5.49051
-6.5475
-6.81101
-4.79024
-2.01547
-0.822043
-0.550357
-0.574102
-0.636452
-0.682174
-0.706366
-0.697942
-0.651494
-0.607439
-0.589566
-0.583674
-0.568016
-0.549269
-0.537873
-0.534032
-0.536703
-0.545611
-0.554434
-0.557474
-0.556642
-0.555747
-0.554904
-0.555212
-0.551557
-0.520344
-0.538252
-0.553874
-0.550369
-0.544164
-0.550404
-0.548674
-0.541649
-0.53113
-0.535411
-0.542798
-0.546206
-1.76399
-1.74771
-1.7208
-1.68408
-1.63654
-1.57778
-1.51534
-1.44554
-1.38993
-1.31924
-1.14019
-0.558462
0.666298
1.03685
-5.46933
-8.62743
-8.19725
-7.66373
-6.9161
-6.40096
-6.69629
-6.97399
-5.35609
-2.31892
-0.866266
-0.426071
-0.392379
-0.492412
-0.556704
-0.593416
-0.606924
-0.445966
-0.559848
0.233465
-0.495824
-0.134262
-0.32151
-0.190843
-0.544676
-0.507804
-0.439649
-0.515883
-0.513787
-0.570659
-0.568643
-0.565435
-0.564147
-0.56322
-0.563923
-0.563686
0.556523
0.533167
0.514686
0.505977
0.506943
0.515914
0.532014
0.553698
0.586067
0.638082
0.732287
0.880028
1.06021
1.23377
1.38203
1.47631
1.57863
1.7252
1.95182
2.26785
2.6193
2.81969
2.78184
1.52937
-4.89115
-5.91778
-5.54782
-6.02566
-7.34765
-8.40924
-7.19509
-3.17676
-0.150146
0.924609
1.04216
0.147948
-0.499481
0.251482
0.206335
-0.681954
-0.602645
-0.539122
-0.534979
-0.535514
-0.498316
-0.554868
-0.553533
-0.552481
-0.551753
-0.551589
0.145334
0.153903
0.158864
0.160314
0.159054
0.15547
0.149354
0.140712
0.1292
0.114944
0.0976143
0.0766676
0.0505566
0.0188054
-0.0170213
-0.0526608
-0.0811079
-0.0947575
-0.0896576
-0.0604481
-0.00294595
0.0732873
0.13797
0.201632
0.229995
0.251538
0.306607
0.336637
0.269627
0.0167972
-0.481508
-5.28532
-7.01011
-12.024
-13.3996
-7.91615
-7.70231
-6.86324
3.28158
10.9155
-0.379863
-0.766003
-0.648933
-0.573761
-0.551589
-0.547133
-0.546711
-0.546854
-0.546839
-0.546921
2.55279
2.55539
2.5608
2.56754
2.57513
2.58356
2.59299
2.60341
2.6149
2.62738
2.64089
2.65523
2.67032
2.68585
2.70167
2.71759
2.73357
2.74942
2.76495
2.77982
2.7936
2.80565
2.81487
2.82159
2.82952
2.84391
2.87274
2.9241
2.99121
3.04864
3.1051
3.16236
3.25752
3.37054
3.20441
0.588589
-2.62742
-10.9909
-10.6105
-4.07578
-1.41133
-0.131929
-0.537017
-0.553907
-0.519029
-0.536949
-0.563972
-0.565835
-0.564126
-0.563159
3.22266
3.21038
3.19695
3.18564
3.17678
3.17006
3.1654
3.16276
3.16222
3.16376
3.16747
3.17332
3.18144
3.19177
3.20449
3.21953
3.23712
3.25713
3.27982
3.30493
3.33272
3.36282
3.39551
3.43026
3.46755
3.50689
3.54891
3.59298
3.63975
3.68815
3.73936
3.79519
3.86072
3.93459
3.99838
4.02593
4.12015
4.28955
4.6133
0.997639
-4.05253
-7.2806
-6.84502
-1.85731
-0.160649
-0.134978
-0.59957
-0.55206
-0.54182
-0.551506
4.47888
4.4524
4.42524
4.4021
4.38264
4.36619
4.35251
4.34158
4.33342
4.328
4.32531
4.32531
4.32802
4.3334
4.34148
4.35221
4.36566
4.38177
4.40063
4.42217
4.44654
4.47362
4.50365
4.53645
4.57237
4.61114
4.65324
4.69822
4.7467
4.79806
4.85308
4.91085
4.9725
5.03684
5.10607
5.18012
5.26207
5.3419
5.4079
5.46592
5.53483
5.51393
4.39397
1.15174
-4.3894
-5.29115
-2.37237
-0.997928
-0.579958
-0.531162
4.82706
4.79494
4.76132
4.73228
4.70761
4.6865
4.66868
4.65412
4.64284
4.63484
4.63008
4.62858
4.63031
4.6353
4.64352
4.65501
4.66977
4.68782
4.70919
4.73389
4.76195
4.79343
4.82834
4.86674
4.90867
4.95419
5.00335
5.05622
5.11286
5.17334
5.23774
5.30614
5.37861
5.45524
5.53612
5.62125
5.7107
5.80448
5.90342
6.00905
6.1191
6.22407
6.31693
6.44121
6.61956
6.66903
2.43545
-2.27562
-2.42795
-1.35808
4.59272
4.56434
4.53405
4.50731
4.48405
4.46358
4.44566
4.43027
4.41743
4.40712
4.39933
4.39404
4.39125
4.39095
4.39312
4.39777
4.40489
4.41448
4.42655
4.44108
4.4581
4.4776
4.4996
4.5241
4.55112
4.58067
4.61276
4.64741
4.68466
4.7245
4.76698
4.8121
4.85993
4.91048
4.96377
5.01983
5.07876
5.14054
5.20529
5.27297
5.34389
5.41872
5.49874
5.58178
5.65572
5.71615
5.80799
5.85166
4.63418
1.69063
4.18266
4.16102
4.13855
4.11881
4.10153
4.08617
4.07258
4.06077
4.05075
4.04253
4.03609
4.03143
4.02854
4.02741
4.02803
4.03039
4.03448
4.04029
4.04782
4.05705
4.06797
4.08056
4.09481
4.11071
4.12825
4.1474
4.16815
4.19047
4.21436
4.23977
4.2667
4.2951
4.32497
4.35625
4.38893
4.42293
4.45828
4.49484
4.53266
4.57155
4.61162
4.65259
4.69464
4.73751
4.78176
4.82673
4.86933
4.90004
4.9351
4.89969
3.02016
3.00765
2.99344
2.98031
2.96847
2.95765
2.94774
2.93873
2.93065
2.92348
2.91723
2.91189
2.90745
2.90391
2.90125
2.89948
2.89857
2.89851
2.89928
2.90088
2.90328
2.90646
2.9104
2.91508
2.92047
2.92654
2.93327
2.94062
2.94855
2.95703
2.96602
2.97548
2.98535
2.9956
3.00616
3.01698
3.02801
3.03916
3.0504
3.0616
3.07275
3.08369
3.09441
3.10474
3.11468
3.12421
3.13284
3.14088
3.14837
3.15383
2.39274
2.38398
2.37549
2.3682
2.36176
2.35594
2.35072
2.3461
2.34209
2.33871
2.33596
2.33382
2.33231
2.33142
2.33116
2.33153
2.33252
2.33413
2.33637
2.33924
2.34273
2.34683
2.35157
2.35692
2.36289
2.36949
2.37671
2.38454
2.39299
2.40207
2.41177
2.42208
2.43303
2.4446
2.45682
2.46966
2.48315
2.49729
2.51209
2.52756
2.54372
2.56056
2.57815
2.59642
2.61539
2.63505
2.65667
2.68019
2.70652
2.7235
0.870472
0.869178
0.866693
0.864006
0.861463
0.859078
0.856819
0.854679
0.852663
0.850777
0.849026
0.847411
0.845937
0.844604
0.843414
0.842367
0.841463
0.840703
0.840084
0.839605
0.839264
0.839057
0.838983
0.839036
0.839215
0.839513
0.839929
0.840453
0.841085
0.841813
0.84264
0.843552
0.844553
0.845627
0.846782
0.847997
0.849288
0.850627
0.852039
0.85349
0.855027
0.856608
0.858237
0.85966
0.860839
0.862972
0.871018
0.888538
0.883147
0.739174
0.265102
0.266786
0.269681
0.272515
0.274893
0.276836
0.278397
0.279601
0.280453
0.280956
0.281112
0.280923
0.28039
0.279513
0.278288
0.276714
0.274784
0.272494
0.269837
0.266802
0.263381
0.259562
0.255331
0.250676
0.245578
0.240022
0.233988
0.227456
0.220402
0.212806
0.204637
0.195874
0.186482
0.176437
0.165699
0.154243
0.14202
0.129007
0.115152
0.100437
0.0847834
0.0680745
0.0500561
0.0310307
0.0132812
0.00109297
-0.0132492
-0.0884403
-0.332952
-0.835724
-1.37075
-1.36605
-1.36263
-1.36013
-1.35801
-1.3561
-1.3544
-1.35293
-1.35169
-1.35069
-1.34992
-1.34938
-1.34906
-1.34896
-1.34909
-1.34943
-1.35
-1.35078
-1.35179
-1.35301
-1.35447
-1.35614
-1.35805
-1.36019
-1.36257
-1.3652
-1.36808
-1.37122
-1.37463
-1.37833
-1.38233
-1.38663
-1.39127
-1.39626
-1.40163
-1.40738
-1.41358
-1.42021
-1.42734
-1.43503
-1.44353
-1.45292
-1.46208
-1.4667
-1.46484
-1.48708
-1.64112
-1.98364
-1.94144
-1.43828
-1.53951
-1.53608
-1.53033
-1.5245
-1.5193
-1.5147
-1.51064
-1.5071
-1.50407
-1.50156
-1.49957
-1.4981
-1.49714
-1.49669
-1.49675
-1.49732
-1.4984
-1.49999
-1.50209
-1.50472
-1.50787
-1.51155
-1.51579
-1.52058
-1.52596
-1.53193
-1.53853
-1.54577
-1.5537
-1.56233
-1.57172
-1.58188
-1.59288
-1.60474
-1.61754
-1.63129
-1.64609
-1.66193
-1.67903
-1.69771
-1.71808
-1.73762
-1.7487
-1.751
-1.80946
-2.11964
-2.69959
-1.32115
-0.705007
-0.503918
-3.52315
-3.51542
-3.50983
-3.50566
-3.50198
-3.49856
-3.49548
-3.49279
-3.49051
-3.48866
-3.48721
-3.48617
-3.48551
-3.48521
-3.48525
-3.48561
-3.48623
-3.48709
-3.48815
-3.48936
-3.49067
-3.49202
-3.49337
-3.49464
-3.49578
-3.49671
-3.49736
-3.49765
-3.49748
-3.49678
-3.49542
-3.49332
-3.49035
-3.48639
-3.48128
-3.47489
-3.46704
-3.4577
-3.44701
-3.43475
-3.41749
-3.38616
-3.34195
-3.36624
-3.68359
-4.24314
-2.59472
-0.811518
-0.359317
-0.326063
-2.95088
-2.9325
-2.90979
-2.89035
-2.87515
-2.86325
-2.85386
-2.84651
-2.84084
-2.83652
-2.83327
-2.83081
-2.82891
-2.82735
-2.82593
-2.82448
-2.82284
-2.82089
-2.81848
-2.81552
-2.81191
-2.80757
-2.80242
-2.79642
-2.78951
-2.78166
-2.77286
-2.76309
-2.75236
-2.74069
-2.7281
-2.71466
-2.70041
-2.68544
-2.66986
-2.65378
-2.63735
-2.62077
-2.60431
-2.58831
-2.57278
-2.55643
-2.5372
-2.52249
-2.55343
-2.69545
-2.76245
-1.26224
-0.283741
-0.256894
-5.83661
-5.76498
-5.70063
-5.6528
-5.61737
-5.59092
-5.57194
-5.5596
-5.5532
-5.55206
-5.55559
-5.5633
-5.57475
-5.58959
-5.60751
-5.62826
-5.65163
-5.67746
-5.70561
-5.73598
-5.76851
-5.80315
-5.8399
-5.87878
-5.91984
-5.96315
-6.00883
-6.05701
-6.10787
-6.16163
-6.21855
-6.27894
-6.34317
-6.41166
-6.48493
-6.56356
-6.64826
-6.73985
-6.8394
-6.94784
-7.06554
-7.19189
-7.33145
-7.51326
-7.79288
-8.09348
-7.72232
-3.03078
-0.222325
-0.13456
-0.6765
-1.095
-1.51201
-1.86816
-2.17624
-2.45139
-2.70004
-2.92504
-3.12863
-3.31294
-3.47987
-3.63103
-3.76775
-3.89114
-4.00213
-4.10148
-4.18984
-4.2677
-4.33547
-4.39344
-4.44182
-4.48075
-4.51023
-4.53025
-4.54063
-4.54119
-4.53157
-4.51138
-4.48001
-4.43685
-4.38098
-4.31148
-4.22701
-4.12623
-4.00727
-3.86815
-3.70626
-3.51874
-3.30193
-3.05201
-2.76508
-2.4249
-2.03257
-1.6123
-1.21777
-0.773245
0.555697
4.34382
5.35984
0.475048
-0.546748
-0.546488
-0.546226
-0.546068
-0.54597
-0.539067
-0.542187
-0.539232
-0.540423
-0.5392
-0.5391
-0.539114
-0.538969
-0.53885
-0.538757
-0.538674
-0.538599
-0.538529
-0.538467
-0.538412
-0.538365
-0.538324
-0.53829
-0.538262
-0.53824
-0.538223
-0.538213
-0.538208
-0.538209
-0.538214
-0.538226
-0.538242
-0.538264
-0.538291
-0.538323
-0.53836
-0.538402
-0.538449
-0.538501
-0.538559
-0.538621
-0.538689
-0.538761
-0.538839
-0.538921
-0.539009
-0.539101
-0.539199
-0.539301
-0.539407
-0.562841
-0.560183
-0.559424
-0.558849
-0.557881
-0.556868
-0.556058
-0.555317
-0.554605
-0.553884
-0.553193
-0.552552
-0.551942
-0.551368
-0.55083
-0.550326
-0.549855
-0.549416
-0.549008
-0.548628
-0.548277
-0.547951
-0.54765
-0.547373
-0.547118
-0.546884
-0.54667
-0.546476
-0.5463
-0.546142
-0.546
-0.545875
-0.545764
-0.545669
-0.545588
-0.54552
-0.545466
-0.545424
-0.545395
-0.545377
-0.545371
-0.545376
-0.545391
-0.545417
-0.545453
-0.545498
-0.545553
-0.545617
-0.54569
-0.545772
-0.55146
-0.550509
-0.550916
-0.550814
-0.549093
-0.550107
-0.550099
-0.550054
-0.549989
-0.549902
-0.549817
-0.549736
-0.549658
-0.549583
-0.549512
-0.549445
-0.54938
-0.549319
-0.549262
-0.54921
-0.549161
-0.549117
-0.549078
-0.549043
-0.549014
-0.54899
-0.548971
-0.548958
-0.548951
-0.548949
-0.548954
-0.548965
-0.548982
-0.549005
-0.549035
-0.549071
-0.549114
-0.549163
-0.549219
-0.549281
-0.54935
-0.549426
-0.549508
-0.549597
-0.549693
-0.549795
-0.549904
-0.55002
-0.550141
-0.550269
-0.547171
-0.547519
-0.547905
-0.548279
-0.548606
-0.548877
-0.549145
-0.549387
-0.549607
-0.549804
-0.549983
-0.550144
-0.550289
-0.550421
-0.55054
-0.550648
-0.550747
-0.550838
-0.550922
-0.551001
-0.551076
-0.551147
-0.551215
-0.551282
-0.551347
-0.551413
-0.551479
-0.551545
-0.551614
-0.551684
-0.551758
-0.551834
-0.551914
-0.551997
-0.552085
-0.552177
-0.552274
-0.552376
-0.552483
-0.552595
-0.552712
-0.552835
-0.552964
-0.553099
-0.55324
-0.553387
-0.553541
-0.5537
-0.553865
-0.554035
-0.562746
-0.562418
-0.562041
-0.561615
-0.561175
-0.560747
-0.560346
-0.559969
-0.559608
-0.559262
-0.558922
-0.558564
-0.558246
-0.55812
-0.557847
-0.557591
-0.557353
-0.557131
-0.556924
-0.556734
-0.55656
-0.556402
-0.55626
-0.556133
-0.55602
-0.555922
-0.555837
-0.555767
-0.55571
-0.555665
-0.555635
-0.555617
-0.555612
-0.555618
-0.555636
-0.555665
-0.555706
-0.555758
-0.555821
-0.555896
-0.555982
-0.556079
-0.556186
-0.556304
-0.556433
-0.556572
-0.556722
-0.556881
-0.55705
-0.557228
-0.557259
-0.559286
-0.559369
-0.55928
-0.559226
-0.559098
-0.558883
-0.55862
-0.558339
-0.558074
-0.557813
-0.557459
-0.556724
-0.556691
-0.556528
-0.556369
-0.556222
-0.55603
-0.555908
-0.555894
-0.555808
-0.555737
-0.55568
-0.555636
-0.555607
-0.55559
-0.555586
-0.555595
-0.555616
-0.555648
-0.55569
-0.555737
-0.555817
-0.55587
-0.555964
-0.556049
-0.556147
-0.556252
-0.556368
-0.556496
-0.556634
-0.556784
-0.556946
-0.55712
-0.557304
-0.557499
-0.557705
-0.557921
-0.558147
-0.558381
-0.489708
-0.516148
-0.54401
-0.557818
-0.560619
-0.560509
-0.560174
-0.559829
-0.559458
-0.559074
-0.558645
-0.558202
-0.55782
-0.557929
-0.557622
-0.557336
-0.557072
-0.556829
-0.556609
-0.556413
-0.556237
-0.556084
-0.555952
-0.555843
-0.555755
-0.555689
-0.555645
-0.555623
-0.555623
-0.555645
-0.555689
-0.555749
-0.55585
-0.55597
-0.556111
-0.553358
-0.555261
-0.555699
-0.555871
-0.556051
-0.556241
-0.556441
-0.556651
-0.556873
-0.557106
-0.557351
-0.557607
-0.557874
-0.558152
-0.558441
-0.642987
-0.448932
-0.46299
-0.508061
-0.535569
-0.547927
-0.552683
-0.553941
-0.554041
-0.55388
-0.553649
-0.553388
-0.553123
-0.552874
-0.552651
-0.552454
-0.552279
-0.552127
-0.551998
-0.55189
-0.551804
-0.551739
-0.551694
-0.55167
-0.551665
-0.551681
-0.551715
-0.551768
-0.551839
-0.551928
-0.552029
-0.552144
-0.552281
-0.552457
-0.552647
-0.546737
-0.548632
-0.551606
-0.551926
-0.552209
-0.552491
-0.55279
-0.553107
-0.553439
-0.553786
-0.554146
-0.554518
-0.554903
-0.555298
-0.555703
0.473738
0.182474
0.0379078
-0.240404
-0.457606
-0.529213
-0.543077
-0.545198
-0.545482
-0.545437
-0.545296
-0.545119
-0.54495
-0.544802
-0.544673
-0.544561
-0.544465
-0.544385
-0.544321
-0.544275
-0.544245
-0.544232
-0.544237
-0.544259
-0.544298
-0.544354
-0.544428
-0.544519
-0.54462
-0.544739
-0.544913
-0.54512
-0.545213
-0.545172
-0.545065
-0.545447
-0.546026
-0.546593
-0.547049
-0.547447
-0.547848
-0.548256
-0.548682
-0.549118
-0.549566
-0.550027
-0.550499
-0.550984
-0.551478
-0.551984
3.90915
2.81295
1.84683
0.46003
-0.35243
-0.513324
-0.531386
-0.533433
-0.533745
-0.533784
-0.533765
-0.533753
-0.533761
-0.533785
-0.533821
-0.533862
-0.533917
-0.533992
-0.534096
-0.534219
-0.534355
-0.534506
-0.534676
-0.534864
-0.535072
-0.535289
-0.535469
-0.535698
-0.536013
-0.536251
-0.536447
-0.536
-0.536378
-0.537555
-0.538021
-0.53844
-0.538909
-0.539391
-0.53986
-0.54034
-0.540838
-0.541356
-0.54189
-0.54244
-0.543006
-0.543588
-0.544184
-0.544794
-0.545415
-0.546049
3.15633
3.09032
2.26664
0.665893
-0.339356
-0.503274
-0.518803
-0.520007
-0.520227
-0.520308
-0.520401
-0.520529
-0.52068
-0.520847
-0.520982
-0.520719
-0.520692
-0.520943
-0.521416
-0.521722
-0.52204
-0.52238
-0.522749
-0.523043
-0.523293
-0.523845
-0.522538
-0.524596
-0.524632
-0.525176
-0.524879
-0.525961
-0.526569
-0.527094
-0.527684
-0.528291
-0.528944
-0.529562
-0.530191
-0.530845
-0.531516
-0.532199
-0.532895
-0.533607
-0.534332
-0.535073
-0.535828
-0.536598
-0.537377
-0.538172
2.69116
2.54742
1.96413
0.522866
-0.375235
-0.495514
-0.503247
-0.50381
-0.504043
-0.504258
-0.504508
-0.5048
-0.504899
-0.504028
-0.501726
-0.504415
-0.504661
-0.505101
-0.50527
-0.506224
-0.506736
-0.507272
-0.507846
-0.508318
-0.508809
-0.509409
-0.509336
-0.510232
-0.510939
-0.511636
-0.512341
-0.513068
-0.513808
-0.514552
-0.515305
-0.516103
-0.516917
-0.517287
-0.518126
-0.519176
-0.520054
-0.520949
-0.521853
-0.522775
-0.523712
-0.524663
-0.525623
-0.526602
-0.527592
-0.5286
0.308962
0.162536
-0.0613401
-0.304918
-0.44938
-0.478185
-0.480232
-0.480602
-0.481019
-0.48145
-0.481917
-0.482415
-0.482947
-0.483481
-0.483968
-0.484673
-0.485343
-0.484374
-0.485697
-0.486338
-0.485727
-0.488063
-0.488854
-0.489644
-0.490248
-0.491349
-0.492199
-0.493261
-0.494208
-0.495031
-0.496023
-0.497022
-0.497939
-0.498964
-0.499934
-0.501068
-0.50182
-0.502918
-0.504078
-0.505219
-0.506373
-0.507544
-0.50873
-0.509933
-0.511108
-0.51224
-0.512361
-0.514063
-0.515384
-0.516673
-0.713632
-0.544088
-0.469109
-0.471802
-0.45639
-0.452794
-0.45341
-0.45415
-0.454827
-0.455476
-0.456152
-0.456869
-0.457623
-0.45841
-0.459229
-0.460083
-0.460968
-0.461878
-0.462823
-0.4638
-0.464803
-0.465836
-0.466914
-0.468007
-0.469118
-0.470266
-0.471447
-0.472631
-0.473884
-0.475126
-0.476382
-0.477663
-0.478988
-0.480299
-0.481696
-0.483072
-0.484417
-0.485855
-0.487328
-0.488792
-0.490269
-0.491748
-0.493258
-0.494792
-0.496326
-0.497864
-0.499164
-0.500919
-0.502525
-0.504118
-0.871454
-0.549708
-0.432291
-0.417702
-0.419844
-0.420947
-0.421757
-0.422581
-0.42346
-0.42439
-0.425364
-0.426382
-0.427443
-0.428547
-0.429692
-0.430879
-0.432107
-0.433375
-0.434684
-0.436032
-0.437417
-0.43884
-0.440299
-0.441793
-0.443323
-0.444886
-0.446482
-0.44811
-0.449765
-0.451456
-0.453173
-0.454915
-0.456683
-0.458476
-0.460297
-0.46214
-0.464005
-0.46589
-0.467796
-0.469721
-0.471665
-0.473628
-0.475609
-0.477605
-0.479613
-0.481623
-0.483654
-0.485711
-0.487598
-0.489461
-0.38934
-0.375808
-0.378034
-0.379333
-0.380193
-0.381219
-0.38232
-0.383485
-0.38471
-0.385998
-0.387351
-0.388767
-0.390245
-0.391786
-0.393387
-0.395047
-0.396765
-0.398539
-0.400368
-0.402249
-0.404182
-0.406163
-0.408191
-0.410264
-0.41238
-0.414536
-0.416732
-0.418964
-0.421232
-0.423532
-0.425863
-0.428222
-0.430609
-0.433022
-0.435457
-0.437915
-0.440393
-0.442888
-0.4454
-0.447927
-0.450467
-0.453019
-0.455582
-0.458154
-0.460734
-0.46332
-0.46591
-0.468504
-0.471084
-0.473672
-0.327745
-0.328455
-0.32902
-0.329934
-0.330937
-0.33208
-0.333359
-0.334773
-0.33632
-0.337996
-0.339795
-0.341713
-0.343744
-0.345884
-0.348126
-0.350465
-0.352897
-0.355416
-0.358016
-0.360693
-0.363441
-0.366257
-0.369134
-0.37207
-0.375058
-0.378094
-0.381175
-0.384297
-0.387455
-0.390646
-0.393866
-0.397113
-0.400383
-0.403672
-0.406978
-0.410299
-0.413631
-0.416972
-0.420321
-0.423673
-0.427029
-0.430385
-0.433739
-0.437092
-0.440438
-0.443781
-0.447114
-0.450439
-0.453734
-0.457029
-0.25666
-0.257016
-0.257623
-0.258603
-0.25994
-0.261598
-0.263553
-0.265781
-0.268265
-0.270986
-0.273927
-0.277071
-0.280402
-0.283903
-0.287561
-0.291359
-0.295285
-0.299325
-0.303468
-0.307701
-0.312015
-0.316397
-0.32084
-0.325334
-0.32987
-0.334442
-0.339042
-0.343663
-0.348299
-0.352945
-0.357596
-0.362246
-0.366893
-0.371531
-0.376157
-0.380768
-0.385361
-0.389933
-0.394482
-0.399006
-0.403503
-0.407971
-0.412408
-0.416814
-0.421187
-0.425525
-0.429829
-0.434096
-0.438303
-0.442488
-0.133056
-0.133741
-0.135474
-0.138137
-0.141656
-0.145929
-0.15084
-0.156285
-0.162182
-0.168453
-0.175036
-0.181874
-0.188919
-0.19613
-0.20347
-0.210905
-0.218406
-0.225948
-0.233508
-0.241067
-0.248609
-0.256119
-0.263585
-0.270997
-0.278346
-0.285626
-0.292829
-0.29995
-0.306987
-0.313935
-0.320792
-0.327557
-0.334228
-0.340803
-0.347283
-0.353668
-0.359958
-0.366153
-0.372253
-0.378261
-0.384176
-0.39
-0.395734
-0.40138
-0.406938
-0.412411
-0.417799
-0.423102
-0.428296
-0.433429
0.257349
0.211919
0.179738
0.14883
0.119604
0.092102
0.0662372
0.0419761
0.0183418
-0.00372844
-0.0247063
-0.0446432
-0.0636321
-0.0817196
-0.098988
-0.115477
-0.131253
-0.146357
-0.160837
-0.174734
-0.188086
-0.200927
-0.21329
-0.225205
-0.236698
-0.247796
-0.258521
-0.268894
-0.278936
-0.288665
-0.298097
-0.307248
-0.316134
-0.324767
-0.33316
-0.341326
-0.349274
-0.357015
-0.364559
-0.371915
-0.37909
-0.386094
-0.392932
-0.399612
-0.406141
-0.412523
-0.418766
-0.424872
-0.430818
-0.436659
-0.539485
-0.539539
-0.539595
-0.539654
-0.539714
-0.539776
-0.53984
-0.539907
-0.539976
-0.540047
-0.54012
-0.540195
-0.540272
-0.540352
-0.540434
-0.540518
-0.540605
-0.540694
-0.540785
-0.540879
-0.540975
-0.541073
-0.541174
-0.541277
-0.541383
-0.541491
-0.541602
-0.541715
-0.541831
-0.541949
-0.54207
-0.542194
-0.54232
-0.542449
-0.542581
-0.542715
-0.542852
-0.542992
-0.543134
-0.54328
-0.543428
-0.543579
-0.543733
-0.543889
-0.544049
-0.544211
-0.544376
-0.544545
-0.544716
-0.54489
-0.545067
-0.545247
-0.54543
-0.545617
-0.545806
-0.545998
-0.546194
-0.546392
-0.546594
-0.546799
-0.547007
-0.547218
-0.547432
-0.547649
-0.54787
-0.548094
-0.548321
-0.548552
-0.548785
-0.549022
-0.549262
-0.549506
-0.549753
-0.550003
-0.550256
-0.550513
-0.550773
-0.551037
-0.551303
-0.551574
-0.551847
-0.552124
-0.552404
-0.552688
-0.552975
-0.553266
-0.553559
-0.553857
-0.554157
-0.554462
-0.554769
-0.55508
-0.555394
-0.555712
-0.556033
-0.556358
-0.556686
-0.557017
-0.557352
-0.55769
-0.558031
-0.558376
-0.558724
-0.559076
-0.559431
-0.559789
-0.560151
-0.560516
-0.560884
-0.561256
-0.561631
-0.562009
-0.562391
-0.562776
-0.563164
-0.563555
-0.563949
-0.564347
-0.564748
-0.565152
-0.565559
-0.565969
-0.566382
-0.566799
-0.567218
-0.567641
-0.568067
-0.568495
-0.568927
-0.569361
-0.569799
-0.570239
-0.570682
-0.571128
-0.571577
-0.572028
-0.572483
-0.57294
-0.573399
-0.573862
-0.574327
-0.574794
-0.575265
-0.575737
-0.576212
-0.57669
-0.57717
-0.577652
-0.578137
-0.578624
-0.579113
-0.579605
-0.580099
-0.580594
-0.581092
-0.581592
-0.582094
-0.582598
-0.583104
-0.583612
-0.584121
-0.584632
-0.585145
-0.58566
-0.586176
-0.586694
-0.587214
-0.587735
-0.588257
-0.588781
-0.589306
-0.589832
-0.590359
-0.590888
-0.591418
-0.591948
-0.59248
-0.593013
-0.593546
-0.594081
-0.594616
-0.595152
-0.595688
-0.596225
-0.596762
-0.5973
-0.597838
-0.598377
-0.598915
-0.599454
-0.599993
-0.600532
-0.601071
-0.60161
-0.602149
-0.602687
-0.603225
-0.603763
-0.6043
-0.604836
-0.605372
-0.605907
-0.606442
-0.606975
-0.607508
-0.608039
-0.608569
-0.609099
-0.609626
-0.610153
-0.610678
-0.611201
-0.611723
-0.612243
-0.612761
-0.613278
-0.613792
-0.614304
-0.614814
-0.615322
-0.615827
-0.61633
-0.616831
-0.617328
-0.617823
-0.618315
-0.618804
-0.61929
-0.619773
-0.620252
-0.620728
-0.621201
-0.62167
-0.622135
-0.622597
-0.623054
-0.623508
-0.623957
-0.624402
-0.624843
-0.625279
-0.625711
-0.626138
-0.62656
-0.626977
-0.62739
-0.627797
-0.628198
-0.628595
-0.628986
-0.629371
-0.629751
-0.630125
-0.630493
-0.630855
-0.63121
-0.63156
-0.631903
-0.632239
-0.632569
-0.632892
-0.633209
-0.633518
-0.63382
-0.634115
-0.634403
-0.634684
-0.634957
-0.635222
-0.63548
-0.63573
-0.635972
-0.636206
-0.636432
-0.63665
-0.636859
-0.63706
-0.637253
-0.637436
-0.63761
-0.637774
-0.637929
-0.638075
-0.638211
-0.638338
-0.638453
-0.638558
-0.638653
-0.638735
-0.638807
-0.638866
-0.638913
-0.638948
-0.638971
-0.638981
-0.638979
-0.638963
-0.638935
-0.638893
-0.63884
-0.545835
-0.545879
-0.545923
-0.545971
-0.54602
-0.546073
-0.546128
-0.546187
-0.546248
-0.546311
-0.546378
-0.546447
-0.54652
-0.546595
-0.546673
-0.546753
-0.546837
-0.546924
-0.547013
-0.547106
-0.547201
-0.5473
-0.547401
-0.547506
-0.547613
-0.547723
-0.547837
-0.547953
-0.548073
-0.548196
-0.548321
-0.54845
-0.548582
-0.548718
-0.548856
-0.548997
-0.549142
-0.54929
-0.549441
-0.549596
-0.549753
-0.549914
-0.550079
-0.550246
-0.550417
-0.550592
-0.550769
-0.55095
-0.551135
-0.551322
-0.551513
-0.551708
-0.551906
-0.552108
-0.552313
-0.552521
-0.552733
-0.552949
-0.553168
-0.55339
-0.553616
-0.553846
-0.554079
-0.554316
-0.554556
-0.5548
-0.555048
-0.555299
-0.555554
-0.555813
-0.556075
-0.55634
-0.55661
-0.556883
-0.55716
-0.55744
-0.557725
-0.558013
-0.558304
-0.558599
-0.558898
-0.559201
-0.559508
-0.559818
-0.560132
-0.560449
-0.56077
-0.561095
-0.561424
-0.561757
-0.562093
-0.562433
-0.562776
-0.563124
-0.563475
-0.56383
-0.564188
-0.56455
-0.564916
-0.565285
-0.565658
-0.566035
-0.566416
-0.5668
-0.567187
-0.567579
-0.567974
-0.568372
-0.568774
-0.56918
-0.569589
-0.570002
-0.570418
-0.570838
-0.571261
-0.571688
-0.572118
-0.572552
-0.572989
-0.573429
-0.573873
-0.57432
-0.57477
-0.575224
-0.57568
-0.576141
-0.576604
-0.57707
-0.57754
-0.578013
-0.578489
-0.578968
-0.579449
-0.579934
-0.580422
-0.580913
-0.581407
-0.581904
-0.582403
-0.582905
-0.58341
-0.583918
-0.584428
-0.584941
-0.585457
-0.585975
-0.586496
-0.587019
-0.587544
-0.588072
-0.588603
-0.589135
-0.58967
-0.590207
-0.590747
-0.591288
-0.591831
-0.592377
-0.592924
-0.593473
-0.594024
-0.594577
-0.595132
-0.595689
-0.596247
-0.596806
-0.597368
-0.59793
-0.598494
-0.59906
-0.599627
-0.600195
-0.600764
-0.601334
-0.601906
-0.602478
-0.603052
-0.603626
-0.604201
-0.604777
-0.605353
-0.605931
-0.606508
-0.607087
-0.607665
-0.608244
-0.608823
-0.609403
-0.609982
-0.610562
-0.611142
-0.611721
-0.612301
-0.61288
-0.613459
-0.614037
-0.614615
-0.615193
-0.615769
-0.616345
-0.616921
-0.617495
-0.618069
-0.618641
-0.619212
-0.619782
-0.620351
-0.620918
-0.621484
-0.622048
-0.622611
-0.623172
-0.623731
-0.624288
-0.624843
-0.625395
-0.625946
-0.626494
-0.62704
-0.627583
-0.628124
-0.628661
-0.629196
-0.629728
-0.630257
-0.630783
-0.631306
-0.631825
-0.63234
-0.632852
-0.633361
-0.633865
-0.634366
-0.634862
-0.635355
-0.635843
-0.636326
-0.636806
-0.63728
-0.63775
-0.638215
-0.638675
-0.63913
-0.63958
-0.640024
-0.640463
-0.640897
-0.641324
-0.641746
-0.642163
-0.642573
-0.642977
-0.643374
-0.643765
-0.64415
-0.644528
-0.6449
-0.645264
-0.645622
-0.645972
-0.646316
-0.646652
-0.64698
-0.647301
-0.647615
-0.647921
-0.648219
-0.648509
-0.648791
-0.649064
-0.64933
-0.649588
-0.649837
-0.650078
-0.65031
-0.650534
-0.65075
-0.650957
-0.651154
-0.651341
-0.651517
-0.651685
-0.651843
-0.651993
-0.652132
-0.65226
-0.652376
-0.652482
-0.652576
-0.652658
-0.652729
-0.652786
-0.65283
-0.652862
-0.652882
-0.65289
-0.652884
-0.652863
-0.652828
-0.652779
-0.550364
-0.55043
-0.550497
-0.550567
-0.550639
-0.550714
-0.550791
-0.550871
-0.550953
-0.551038
-0.551126
-0.551216
-0.551309
-0.551405
-0.551504
-0.551605
-0.551709
-0.551816
-0.551926
-0.552039
-0.552155
-0.552274
-0.552396
-0.552521
-0.552649
-0.55278
-0.552914
-0.553051
-0.553191
-0.553335
-0.553482
-0.553632
-0.553785
-0.553942
-0.554102
-0.554265
-0.554431
-0.554601
-0.554775
-0.554952
-0.555132
-0.555316
-0.555503
-0.555694
-0.555888
-0.556086
-0.556287
-0.556492
-0.556701
-0.556913
-0.557129
-0.557348
-0.557572
-0.557798
-0.558029
-0.558263
-0.558502
-0.558743
-0.558989
-0.559239
-0.559492
-0.559749
-0.56001
-0.560275
-0.560543
-0.560816
-0.561092
-0.561373
-0.561657
-0.561945
-0.562237
-0.562533
-0.562833
-0.563137
-0.563445
-0.563757
-0.564073
-0.564392
-0.564716
-0.565044
-0.565376
-0.565712
-0.566051
-0.566395
-0.566743
-0.567095
-0.567451
-0.56781
-0.568174
-0.568542
-0.568914
-0.56929
-0.569669
-0.570053
-0.570441
-0.570833
-0.571228
-0.571628
-0.572031
-0.572439
-0.57285
-0.573266
-0.573685
-0.574108
-0.574535
-0.574966
-0.5754
-0.575839
-0.576281
-0.576727
-0.577177
-0.577631
-0.578088
-0.578549
-0.579014
-0.579482
-0.579954
-0.58043
-0.580909
-0.581392
-0.581878
-0.582368
-0.582862
-0.583359
-0.583859
-0.584362
-0.584869
-0.58538
-0.585894
-0.58641
-0.586931
-0.587454
-0.587981
-0.58851
-0.589043
-0.589579
-0.590118
-0.59066
-0.591204
-0.591752
-0.592302
-0.592856
-0.593412
-0.593971
-0.594532
-0.595096
-0.595663
-0.596232
-0.596804
-0.597378
-0.597955
-0.598534
-0.599115
-0.599698
-0.600284
-0.600872
-0.601462
-0.602054
-0.602648
-0.603244
-0.603841
-0.604441
-0.605042
-0.605645
-0.60625
-0.606856
-0.607464
-0.608073
-0.608684
-0.609296
-0.609909
-0.610524
-0.611139
-0.611756
-0.612374
-0.612992
-0.613612
-0.614232
-0.614853
-0.615475
-0.616097
-0.61672
-0.617344
-0.617967
-0.618592
-0.619216
-0.61984
-0.620465
-0.62109
-0.621714
-0.622339
-0.622963
-0.623587
-0.62421
-0.624833
-0.625455
-0.626077
-0.626698
-0.627319
-0.627938
-0.628557
-0.629174
-0.62979
-0.630405
-0.631019
-0.631631
-0.632241
-0.63285
-0.633458
-0.634063
-0.634667
-0.635268
-0.635867
-0.636465
-0.63706
-0.637652
-0.638242
-0.638829
-0.639414
-0.639996
-0.640574
-0.64115
-0.641723
-0.642292
-0.642858
-0.64342
-0.643979
-0.644534
-0.645085
-0.645633
-0.646176
-0.646715
-0.647249
-0.64778
-0.648305
-0.648826
-0.649343
-0.649854
-0.65036
-0.650861
-0.651357
-0.651848
-0.652333
-0.652812
-0.653285
-0.653753
-0.654214
-0.65467
-0.655119
-0.655562
-0.655998
-0.656427
-0.65685
-0.657266
-0.657675
-0.658077
-0.658471
-0.658858
-0.659238
-0.65961
-0.659974
-0.66033
-0.660679
-0.661019
-0.661351
-0.661676
-0.661992
-0.6623
-0.662599
-0.66289
-0.663172
-0.663445
-0.663711
-0.663965
-0.66421
-0.664448
-0.664676
-0.66489
-0.665102
-0.665306
-0.665492
-0.665669
-0.665842
-0.666005
-0.66616
-0.666306
-0.666437
-0.666561
-0.666675
-0.666775
-0.666849
-0.666899
-0.666932
-0.666953
-0.66697
-0.666976
-0.66696
-0.666921
-0.666865
-0.666796
-0.554162
-0.554248
-0.554338
-0.554429
-0.554523
-0.554619
-0.554717
-0.554818
-0.554922
-0.555029
-0.555138
-0.55525
-0.555364
-0.555482
-0.555602
-0.555725
-0.555852
-0.555981
-0.556113
-0.556248
-0.556386
-0.556527
-0.556672
-0.556819
-0.55697
-0.557124
-0.557282
-0.557442
-0.557606
-0.557773
-0.557944
-0.558118
-0.558296
-0.558477
-0.558661
-0.558849
-0.559041
-0.559236
-0.559435
-0.559637
-0.559844
-0.560053
-0.560267
-0.560484
-0.560705
-0.56093
-0.561159
-0.561392
-0.561628
-0.561869
-0.562113
-0.562361
-0.562613
-0.56287
-0.56313
-0.563394
-0.563663
-0.563935
-0.564211
-0.564492
-0.564777
-0.565065
-0.565358
-0.565655
-0.565957
-0.566262
-0.566572
-0.566886
-0.567204
-0.567526
-0.567853
-0.568184
-0.568519
-0.568859
-0.569202
-0.56955
-0.569903
-0.570259
-0.57062
-0.570985
-0.571355
-0.571729
-0.572107
-0.572489
-0.572876
-0.573267
-0.573663
-0.574062
-0.574466
-0.574875
-0.575287
-0.575704
-0.576125
-0.576551
-0.576981
-0.577415
-0.577853
-0.578295
-0.578742
-0.579193
-0.579648
-0.580107
-0.580571
-0.581038
-0.58151
-0.581985
-0.582465
-0.582949
-0.583437
-0.583929
-0.584425
-0.584925
-0.585429
-0.585937
-0.586449
-0.586964
-0.587484
-0.588007
-0.588534
-0.589065
-0.5896
-0.590138
-0.59068
-0.591226
-0.591775
-0.592328
-0.592884
-0.593444
-0.594007
-0.594574
-0.595144
-0.595717
-0.596294
-0.596874
-0.597457
-0.598043
-0.598633
-0.599225
-0.599821
-0.600419
-0.601021
-0.601625
-0.602233
-0.602843
-0.603456
-0.604071
-0.604689
-0.60531
-0.605933
-0.606559
-0.607188
-0.607818
-0.608451
-0.609086
-0.609724
-0.610364
-0.611005
-0.611649
-0.612295
-0.612943
-0.613592
-0.614244
-0.614897
-0.615551
-0.616208
-0.616866
-0.617525
-0.618186
-0.618848
-0.619512
-0.620176
-0.620842
-0.621509
-0.622177