/*--------------------------------*- C++ -*----------------------------------*\
| =========                 |                                                 |
| \\      /  F ield         | OpenFOAM: The Open Source CFD Toolbox           |
|  \\    /   O peration     | Version:  2.4.0                                 |
|   \\  /    A nd           | Web:      www.OpenFOAM.org                      |
|    \\/     M anipulation  |                                                 |
\*---------------------------------------------------------------------------*/
FoamFile
{
    version     2.0;
    format      ascii;
    class       volScalarField;
    location    "3.3";
    object      p_rgh;
}
// * * * * * * * * * * * * * * * * * * * * * * * * * * * * * * * * * * * * * //

dimensions      [1 -1 -2 0 0 0 0];

internalField   nonuniform List<scalar> 
8000
(
74.984
75.0872
75.1868
75.2091
75.0738
75.0507
73.6374
78.2593
50.5365
31.698
15.7055
5.42695
1.50693
1.68918
1.99597
1.81571
1.44799
1.1217
0.894239
0.759943
0.708826
0.726921
0.755273
0.774848
0.780901
0.795839
0.813322
0.823404
0.825986
0.822398
0.813585
0.804985
0.802923
0.803707
0.806372
0.809054
0.807603
0.809504
0.853971
0.832268
0.806685
0.804394
0.809613
0.804711
0.81719
0.848356
0.859584
0.855348
0.834284
0.81222
81.2823
81.2986
81.3255
81.3622
81.4098
81.4685
81.531
81.6007
81.6564
81.7271
81.9061
82.4877
83.7047
83.9867
74.181
58.5677
47.8642
39.6957
32.9031
26.0092
16.9494
7.41954
2.45312
2.32073
2.71988
2.69713
2.30416
1.78642
1.3864
1.12618
1.00991
1.08333
1.01254
2.04438
1.15684
1.36786
1.24862
1.41407
0.927633
0.888766
0.945822
0.885103
0.8872
0.81752
0.812367
0.814246
0.815322
0.815493
0.813204
0.812642
84.9532
84.9298
84.9113
84.9026
84.9036
84.9125
84.9284
84.9501
84.9825
85.0347
85.1289
85.2767
85.4569
85.6304
85.7787
85.873
85.9753
86.1219
86.3485
86.6645
87.016
87.2072
87.1285
85.3188
73.227
61.7392
50.131
38.4173
25.7862
12.0932
3.48718
2.40592
3.60454
3.90476
4.16089
2.91707
1.49062
1.99756
2.27896
1.03338
0.868719
0.882425
0.885367
0.883961
0.931546
0.853952
0.847536
0.846445
0.846721
0.846875
85.8923
85.9009
85.9059
85.9073
85.9061
85.9025
85.8963
85.8876
85.8761
85.8619
85.8446
85.8236
85.7975
85.7658
85.73
85.6943
85.6659
85.6522
85.6573
85.6865
85.744
85.8203
85.885
85.9486
85.977
85.9985
86.0536
86.0816
86.0095
85.7404
85.2217
76.9018
73.6518
54.2128
16.0902
0.258736
-0.382644
-0.5783
6.64486
18.2512
4.93242
2.36039
1.31324
0.984579
0.921213
0.905072
0.894218
0.885599
0.87979
0.876461
89.6501
89.6527
89.6582
89.6649
89.6725
89.6809
89.6903
89.7008
89.7122
89.7247
89.7382
89.7526
89.7677
89.7832
89.799
89.8149
89.8309
89.8467
89.8623
89.8771
89.8909
89.903
89.9122
89.9189
89.9268
89.9412
89.9701
90.0214
90.0885
90.146
90.2024
90.2597
90.3549
90.4679
90.3007
86.7211
82.6329
58.8854
11.0751
3.37632
3.86592
2.93786
1.41428
1.09328
1.04273
0.966152
0.904725
0.889463
0.886754
0.88526
91.6704
91.6581
91.6446
91.6333
91.6245
91.6178
91.6131
91.6105
91.6099
91.6115
91.6152
91.621
91.6291
91.6394
91.6522
91.6672
91.6848
91.7048
91.7275
91.7526
91.7804
91.8105
91.8431
91.8779
91.9152
91.9545
91.9965
92.0406
92.0874
92.1358
92.187
92.2428
92.3084
92.3823
92.4461
92.4736
92.5678
92.7372
93.0611
87.2211
77.6635
52.8786
15.2501
5.03793
4.48561
2.45492
1.19645
1.03701
0.984156
0.94906
94.2769
94.2504
94.2233
94.2001
94.1807
94.1642
94.1505
94.1396
94.1315
94.126
94.1233
94.1233
94.1261
94.1314
94.1395
94.1502
94.1637
94.1798
94.1986
94.2202
94.2445
94.2716
94.3016
94.3344
94.3703
94.4091
94.4512
94.4962
94.5447
94.596
94.6511
94.7088
94.7705
94.8348
94.9041
94.9781
95.0601
95.1399
95.2059
95.264
95.3329
95.312
93.3498
87.309
72.1535
27.3918
7.40646
4.53277
2.21072
1.45909
95.9755
95.9433
95.9097
95.8807
95.856
95.8349
95.8171
95.8025
95.7912
95.7832
95.7785
95.777
95.7787
95.7837
95.7919
95.8034
95.8181
95.8362
95.8575
95.8822
95.9103
95.9418
95.9767
96.0151
96.057
96.1025
96.1517
96.2045
96.2612
96.3217
96.3861
96.4545
96.527
96.6036
96.6845
96.7696
96.8591
96.9528
97.0518
97.1574
97.2675
97.3724
97.4653
97.5896
97.768
97.8139
90.6631
65.5464
27.6999
12.6403
97.0915
97.0631
97.0328
97.006
96.9828
96.9623
96.9444
96.929
96.9162
96.9059
96.8981
96.8928
96.89
96.8897
96.8918
96.8965
96.9036
96.9132
96.9252
96.9398
96.9568
96.9763
96.9983
97.0228
97.0498
97.0793
97.1114
97.1461
97.1833
97.2232
97.2657
97.3108
97.3586
97.4092
97.4624
97.5185
97.5774
97.6392
97.7039
97.7716
97.8425
97.9173
97.9974
98.0804
98.1544
98.2149
98.3067
98.3504
96.6768
80.2749
98.0317
98.0101
97.9876
97.9679
97.9506
97.9352
97.9217
97.9099
97.8998
97.8916
97.8852
97.8805
97.8776
97.8765
97.8771
97.8794
97.8835
97.8893
97.8969
97.9061
97.917
97.9296
97.9439
97.9598
97.9773
97.9964
98.0172
98.0395
98.0634
98.0888
98.1157
98.1441
98.174
98.2053
98.2379
98.2719
98.3072
98.3438
98.3816
98.4204
98.4604
98.5014
98.5434
98.5862
98.6304
98.6754
98.7181
98.7489
98.7842
98.7488
98.2196
98.2071
98.1929
98.1797
98.1679
98.1571
98.1472
98.1382
98.1301
98.1229
98.1167
98.1113
98.1069
98.1033
98.1007
98.0989
98.098
98.0979
98.0987
98.1003
98.1027
98.1059
98.1098
98.1145
98.1199
98.126
98.1327
98.14
98.148
98.1564
98.1654
98.1749
98.1847
98.195
98.2055
98.2163
98.2273
98.2384
98.2496
98.2608
98.2718
98.2827
98.2933
98.3035
98.3134
98.3228
98.3315
98.3396
98.3473
98.353
98.9425
98.9338
98.9253
98.918
98.9115
98.9057
98.9005
98.8959
98.8919
98.8885
98.8857
98.8836
98.8821
98.8812
98.8809
98.8813
98.8823
98.8839
98.8861
98.889
98.8925
98.8966
98.9013
98.9067
98.9127
98.9193
98.9265
98.9343
98.9428
98.9518
98.9615
98.9718
98.9828
98.9944
99.0066
99.0194
99.0329
99.047
99.0617
99.0771
99.0932
99.11
99.1274
99.1455
99.1643
99.1837
99.2052
99.2288
99.2553
99.2727
98.7706
98.7693
98.7668
98.7641
98.7616
98.7592
98.7569
98.7548
98.7528
98.7509
98.7491
98.7475
98.7461
98.7447
98.7435
98.7425
98.7416
98.7408
98.7402
98.7397
98.7394
98.7392
98.7391
98.7392
98.7393
98.7396
98.74
98.7406
98.7412
98.7419
98.7428
98.7437
98.7447
98.7457
98.7469
98.7481
98.7494
98.7507
98.7521
98.7535
98.755
98.7565
98.7581
98.7593
98.7602
98.762
98.7698
98.7872
98.7818
98.6387
99.5156
99.5173
99.5201
99.523
99.5254
99.5273
99.5289
99.5301
99.5309
99.5314
99.5316
99.5314
99.5309
99.53
99.5288
99.5272
99.5253
99.523
99.5203
99.5173
99.5138
99.51
99.5058
99.5011
99.496
99.4905
99.4845
99.4779
99.4709
99.4633
99.4551
99.4463
99.4369
99.4269
99.4162
99.4047
99.3925
99.3795
99.3656
99.3509
99.3352
99.3185
99.3004
99.2812
99.2633
99.2507
99.2359
99.1606
98.9139
93.0125
99.2301
99.2348
99.2382
99.2407
99.2428
99.2447
99.2464
99.2479
99.2491
99.2501
99.2509
99.2514
99.2518
99.2519
99.2517
99.2514
99.2508
99.25
99.249
99.2478
99.2463
99.2447
99.2428
99.2406
99.2382
99.2356
99.2327
99.2296
99.2262
99.2225
99.2185
99.2142
99.2095
99.2046
99.1992
99.1934
99.1872
99.1806
99.1735
99.1658
99.1573
99.1479
99.1387
99.134
99.1356
99.1126
98.9584
98.603
78.0597
25.5091
100.412
100.415
100.421
100.427
100.432
100.436
100.441
100.444
100.447
100.45
100.452
100.453
100.454
100.454
100.454
100.454
100.453
100.451
100.449
100.446
100.443
100.44
100.435
100.431
100.425
100.419
100.413
100.405
100.397
100.389
100.379
100.369
100.358
100.346
100.334
100.32
100.305
100.289
100.272
100.253
100.233
100.214
100.202
100.2
100.141
99.8253
99.1752
56.5386
12.1264
2.03137
99.7784
99.7861
99.7917
99.7958
99.7995
99.8029
99.806
99.8087
99.811
99.8129
99.8143
99.8153
99.816
99.8163
99.8163
99.8159
99.8153
99.8144
99.8134
99.8121
99.8108
99.8095
99.8081
99.8069
99.8057
99.8048
99.8041
99.8039
99.804
99.8047
99.8061
99.8082
99.8112
99.8151
99.8202
99.8266
99.8345
99.8438
99.8545
99.8668
99.884
99.9153
99.9595
99.9351
99.6178
99.0153
47.4865
3.51846
1.39552
1.39461
101.701
101.719
101.742
101.762
101.777
101.789
101.798
101.805
101.811
101.815
101.819
101.821
101.823
101.825
101.826
101.827
101.829
101.831
101.833
101.836
101.84
101.844
101.849
101.855
101.862
101.87
101.879
101.889
101.899
101.911
101.924
101.937
101.951
101.966
101.982
101.998
102.015
102.031
102.048
102.064
102.079
102.095
102.115
102.129
102.098
101.955
90.3732
13.0152
1.69784
1.48643
100.166
100.237
100.302
100.349
100.385
100.411
100.43
100.443
100.449
100.45
100.447
100.439
100.427
100.413
100.395
100.374
100.351
100.325
100.297
100.266
100.234
100.199
100.162
100.123
100.082
100.039
99.9934
99.9452
99.8943
99.8406
99.7836
99.7233
99.659
99.5905
99.5173
99.4386
99.3539
99.2624
99.1628
99.0544
98.9367
98.8103
98.6707
98.4889
98.2093
97.9087
93.2484
9.24669
3.82898
1.62128
106.676
106.258
105.841
105.484
105.176
104.901
104.653
104.428
104.224
104.04
103.873
103.722
103.585
103.461
103.35
103.251
103.163
103.085
103.017
102.959
102.911
102.872
102.842
102.822
102.812
102.811
102.821
102.841
102.873
102.916
102.972
103.041
103.126
103.226
103.345
103.484
103.646
103.834
104.051
104.301
104.587
104.928
105.32
105.74
106.135
106.579
107.908
111.696
91.0038
2.85434
0.806796
0.806715
0.806979
0.807142
0.807348
0.815397
0.811744
0.814083
0.813114
0.814588
0.814687
0.814364
0.814263
0.81437
0.814463
0.814542
0.814611
0.814674
0.814731
0.814783
0.814829
0.814869
0.814902
0.81493
0.814952
0.814968
0.814979
0.814983
0.814983
0.814977
0.814966
0.814949
0.814927
0.814901
0.814869
0.814832
0.814789
0.814742
0.81469
0.814633
0.81457
0.814503
0.81443
0.814353
0.81427
0.814183
0.81409
0.813993
0.813891
0.813785
0.813242
0.815549
0.816336
0.817254
0.819006
0.820038
0.820848
0.821274
0.821438
0.821952
0.822534
0.823069
0.823666
0.824233
0.824763
0.825257
0.82572
0.826153
0.826558
0.826935
0.827285
0.82761
0.82791
0.828186
0.828441
0.828675
0.828888
0.829082
0.829258
0.829417
0.829558
0.829684
0.829794
0.829889
0.82997
0.830038
0.830092
0.830134
0.830163
0.830181
0.830187
0.830182
0.830167
0.830141
0.830105
0.83006
0.830005
0.829941
0.829868
0.829787
0.846969
0.847758
0.847448
0.848202
0.85019
0.848996
0.848524
0.848206
0.848046
0.848103
0.848175
0.84825
0.848319
0.848384
0.848445
0.848505
0.848564
0.848621
0.848675
0.848726
0.848772
0.848815
0.848853
0.848886
0.848914
0.848937
0.848955
0.848968
0.848975
0.848976
0.848971
0.848961
0.848943
0.84892
0.84889
0.848854
0.848811
0.848762
0.848707
0.848644
0.848575
0.848499
0.848417
0.848328
0.848232
0.84813
0.848021
0.847905
0.847784
0.847656
0.874699
0.873733
0.873118
0.872621
0.872158
0.871707
0.871292
0.870989
0.870765
0.870564
0.87038
0.870214
0.870056
0.869915
0.86979
0.869677
0.869575
0.869481
0.869394
0.869312
0.869236
0.869162
0.869091
0.869022
0.868954
0.868887
0.868819
0.868751
0.868682
0.86861
0.868536
0.86846
0.86838
0.868296
0.868208
0.868115
0.868018
0.867917
0.86781
0.867698
0.86758
0.867457
0.867328
0.867193
0.867052
0.866904
0.866751
0.866592
0.866427
0.866256
0.883891
0.882921
0.882373
0.882159
0.882188
0.882353
0.882604
0.882886
0.883147
0.883485
0.883813
0.884161
0.884506
0.884592
0.884859
0.885114
0.88535
0.88557
0.885773
0.885962
0.886133
0.886288
0.886428
0.886552
0.886661
0.886756
0.886837
0.886904
0.88696
0.887002
0.887033
0.88705
0.887054
0.887046
0.887027
0.886997
0.886956
0.886903
0.886839
0.886764
0.886678
0.886581
0.886473
0.886355
0.886226
0.886087
0.885937
0.885778
0.885609
0.885431
0.929125
0.917967
0.912486
0.909701
0.908183
0.907353
0.906956
0.906817
0.90681
0.90705
0.907308
0.90764
0.908469
0.908474
0.908565
0.908722
0.908864
0.909044
0.909187
0.909185
0.909268
0.909336
0.90939
0.909429
0.909455
0.909468
0.909468
0.909455
0.909431
0.909397
0.909354
0.909305
0.909229
0.909183
0.909087
0.908994
0.908893
0.908786
0.908668
0.908538
0.908398
0.908246
0.908083
0.907909
0.907724
0.907528
0.907322
0.907106
0.90688
0.906646
1.21464
1.07955
1.00196
0.960287
0.94198
0.934171
0.930651
0.929135
0.9286
0.928581
0.928835
0.929266
0.929742
0.929552
0.929855
0.930137
0.930396
0.930633
0.930853
0.931046
0.931218
0.931368
0.931496
0.931602
0.931686
0.931748
0.931788
0.931806
0.931803
0.931778
0.931732
0.93167
0.931571
0.931455
0.931388
0.934752
0.93253
0.931771
0.93154
0.931357
0.931164
0.930962
0.93075
0.930527
0.930293
0.930048
0.929791
0.929523
0.929245
0.928955
6.1532
3.01132
1.69171
1.21103
1.0531
0.997085
0.974048
0.964028
0.959642
0.9577
0.956868
0.956546
0.956792
0.957018
0.957226
0.957413
0.957578
0.957723
0.957848
0.957951
0.958033
0.958094
0.958135
0.958155
0.958155
0.958136
0.958098
0.958041
0.957966
0.957874
0.957769
0.957652
0.957516
0.957365
0.957924
0.965595
0.963398
0.959206
0.958058
0.95757
0.957285
0.956986
0.956668
0.956334
0.955987
0.955626
0.955252
0.954867
0.954471
0.954065
53.5266
29.297
13.3625
5.11278
2.13402
1.29233
1.0688
1.00925
0.993946
0.989268
0.987376
0.987421
0.987496
0.987577
0.98766
0.98774
0.987814
0.987878
0.98793
0.987968
0.987991
0.987998
0.987988
0.987961
0.987916
0.987854
0.987774
0.987678
0.987572
0.987449
0.987284
0.987241
0.98798
0.98952
0.989671
0.989285
0.988045
0.986104
0.985149
0.984701
0.984303
0.983894
0.983468
0.983031
0.982581
0.98212
0.981646
0.98116
0.980665
0.980158
97.1398
84.5243
61.3209
29.7453
8.39983
2.20819
1.18152
1.04497
1.02524
1.02139
1.02137
1.0213
1.02119
1.02109
1.02099
1.02089
1.0208
1.02069
1.02057
1.02043
1.02029
1.02013
1.01995
1.01976
1.01955
1.01932
1.01913
1.0189
1.01867
1.01877
1.0192
1.01992
1.01954
1.01811
1.01723
1.01655
1.01579
1.01515
1.01467
1.01419
1.01369
1.01317
1.01263
1.01208
1.01152
1.01093
1.01034
1.00972
1.0091
1.00847
98.3557
98.2897
93.9961
59.7557
15.5775
2.73011
1.18325
1.06369
1.05739
1.05731
1.05717
1.057
1.0568
1.05656
1.0564
1.05656
1.05679
1.05654
1.05585
1.0554
1.05506
1.05471
1.05431
1.05399
1.05371
1.05326
1.05489
1.05254
1.05242
1.05188
1.05237
1.05118
1.05044
1.04987
1.04928
1.04867
1.048
1.04737
1.04673
1.04607
1.04539
1.04471
1.04401
1.04329
1.04257
1.04182
1.04107
1.04029
1.03951
1.03872
99.2406
99.0922
88.2611
48.0985
10.779
1.9899
1.1334
1.09655
1.09607
1.09565
1.0953
1.09495
1.0948
1.09543
1.09832
1.0952
1.09491
1.09447
1.09438
1.09332
1.09282
1.09227
1.09168
1.09119
1.09068
1.09027
1.09047
1.08953
1.08848
1.08773
1.08701
1.08627
1.08553
1.08478
1.08402
1.08322
1.08247
1.08222
1.08138
1.08019
1.07922
1.07833
1.07742
1.0765
1.07556
1.07461
1.07365
1.07266
1.07167
1.07066
98.1916
76.0991
34.854
8.03196
1.95937
1.19533
1.14296
1.14173
1.14105
1.14047
1.13998
1.13944
1.13886
1.13829
1.13778
1.1371
1.13645
1.13774
1.13607
1.13542
1.13642
1.13378
1.13297
1.13217
1.13152
1.13052
1.12967
1.12857
1.12757
1.12672
1.12574
1.12476
1.12386
1.12283
1.12184
1.12073
1.12004
1.11894
1.11766
1.11649
1.11532
1.11414
1.11294
1.11174
1.11055
1.1094
1.10951
1.10772
1.10627
1.10497
52.2814
17.7098
4.18735
1.58969
1.1958
1.19139
1.19075
1.18996
1.18925
1.18858
1.1879
1.18718
1.18642
1.18563
1.18481
1.18396
1.18307
1.18215
1.18122
1.18023
1.17924
1.17821
1.1771
1.17602
1.17489
1.17375
1.17257
1.17138
1.17016
1.16893
1.16768
1.16641
1.16508
1.16376
1.16237
1.16103
1.1597
1.15826
1.15677
1.15529
1.1538
1.15232
1.15081
1.14928
1.14775
1.14633
1.14508
1.14329
1.14151
1.1399
4.3085
1.58479
1.24774
1.2516
1.24669
1.24544
1.24461
1.24378
1.2429
1.24196
1.24098
1.23996
1.2389
1.23779
1.23665
1.23546
1.23423
1.23296
1.23165
1.2303
1.22892
1.2275
1.22604
1.22454
1.22301
1.22145
1.21986
1.21823
1.21657
1.21488
1.21317
1.21143
1.20966
1.20787
1.20605
1.20421
1.20235
1.20047
1.19857
1.19665
1.19471
1.19275
1.19077
1.18878
1.18679
1.18479
1.18276
1.1807
1.17877
1.17699
1.31214
1.31672
1.31135
1.30979
1.30882
1.30755
1.30641
1.30524
1.30401
1.30271
1.30136
1.29994
1.29846
1.29692
1.29531
1.29365
1.29193
1.29016
1.28833
1.28645
1.28451
1.28253
1.2805
1.27843
1.27632
1.27416
1.27196
1.26973
1.26746
1.26516
1.26283
1.26047
1.25809
1.25568
1.25324
1.25078
1.24831
1.24581
1.2433
1.24077
1.23824
1.23568
1.23312
1.23055
1.22797
1.22539
1.2228
1.22021
1.21763
1.21505
1.38431
1.38323
1.38267
1.38145
1.38026
1.37904
1.37774
1.37632
1.37476
1.37308
1.37128
1.36936
1.36733
1.36519
1.36294
1.3606
1.35817
1.35565
1.35305
1.35037
1.34762
1.3448
1.34193
1.33899
1.336
1.33297
1.32989
1.32676
1.32361
1.32042
1.3172
1.31395
1.31068
1.30739
1.30408
1.30076
1.29743
1.29409
1.29075
1.28739
1.28404
1.28069
1.27733
1.27399
1.27063
1.2673
1.26396
1.26066
1.25735
1.25408
1.47713
1.47655
1.47586
1.47487
1.47353
1.47187
1.46991
1.46768
1.46519
1.46247
1.45952
1.45637
1.45304
1.44953
1.44587
1.44207
1.43815
1.4341
1.42996
1.42573
1.42141
1.41703
1.41259
1.40809
1.40356
1.39899
1.39439
1.38976
1.38513
1.38048
1.37583
1.37118
1.36653
1.3619
1.35727
1.35266
1.34807
1.3435
1.33895
1.33442
1.32993
1.32546
1.32103
1.31662
1.31225
1.30791
1.30361
1.29934
1.29514
1.29096
1.62281
1.62212
1.62038
1.61772
1.61419
1.60992
1.605
1.59956
1.59365
1.58737
1.58078
1.57394
1.56689
1.55968
1.55233
1.5449
1.53739
1.52985
1.52229
1.51473
1.50719
1.49968
1.49221
1.4848
1.47745
1.47017
1.46297
1.45584
1.44881
1.44186
1.435
1.42824
1.42157
1.41499
1.40851
1.40213
1.39584
1.38964
1.38354
1.37753
1.37162
1.36579
1.36006
1.35441
1.34886
1.34338
1.338
1.33269
1.3275
1.32237
2.03637
1.99047
1.95805
1.92709
1.89786
1.87034
1.84444
1.82028
1.79657
1.77453
1.7535
1.73358
1.71456
1.69649
1.67919
1.66271
1.64692
1.63182
1.61733
1.60343
1.59008
1.57724
1.56487
1.55296
1.54146
1.53036
1.51964
1.50927
1.49922
1.4895
1.48006
1.47091
1.46203
1.45339
1.445
1.43683
1.42889
1.42115
1.4136
1.40625
1.39907
1.39207
1.38523
1.37855
1.37202
1.36564
1.35939
1.35329
1.34734
1.3415
0.813706
0.813652
0.813596
0.813538
0.813478
0.813415
0.813351
0.813284
0.813216
0.813145
0.813072
0.812997
0.812919
0.812839
0.812757
0.812673
0.812587
0.812498
0.812406
0.812313
0.812217
0.812118
0.812018
0.811914
0.811809
0.8117
0.81159
0.811476
0.81136
0.811242
0.811121
0.810997
0.810871
0.810742
0.810611
0.810476
0.810339
0.810199
0.810057
0.809912
0.809764
0.809613
0.809459
0.809302
0.809143
0.80898
0.808815
0.808647
0.808476
0.808301
0.808124
0.807944
0.807761
0.807575
0.807386
0.807193
0.806998
0.806799
0.806598
0.806393
0.806185
0.805974
0.805759
0.805542
0.805321
0.805097
0.80487
0.80464
0.804406
0.804169
0.803929
0.803686
0.803439
0.803189
0.802935
0.802678
0.802418
0.802155
0.801888
0.801618
0.801344
0.801067
0.800787
0.800503
0.800216
0.799926
0.799632
0.799335
0.799034
0.79873
0.798422
0.798111
0.797797
0.797479
0.797158
0.796834
0.796506
0.796174
0.79584
0.795502
0.79516
0.794815
0.794467
0.794115
0.79376
0.793402
0.79304
0.792675
0.792307
0.791935
0.79156
0.791182
0.790801
0.790416
0.790028
0.789637
0.789242
0.788845
0.788444
0.78804
0.787633
0.787222
0.786809
0.786392
0.785973
0.78555
0.785125
0.784696
0.784265
0.78383
0.783393
0.782953
0.782509
0.782063
0.781615
0.781163
0.780709
0.780252
0.779792
0.77933
0.778865
0.778397
0.777927
0.777454
0.776979
0.776501
0.776021
0.775539
0.775054
0.774567
0.774078
0.773586
0.773093
0.772597
0.772099
0.771599
0.771097
0.770593
0.770088
0.76958
0.76907
0.768559
0.768046
0.767531
0.767015
0.766497
0.765978
0.765457
0.764935
0.764411
0.763886
0.76336
0.762832
0.762303
0.761774
0.761243
0.760711
0.760179
0.759645
0.759111
0.758576
0.75804
0.757504
0.756967
0.756429
0.755891
0.755353
0.754815
0.754276
0.753737
0.753198
0.752659
0.75212
0.751582
0.751043
0.750505
0.749967
0.749429
0.748892
0.748355
0.74782
0.747284
0.74675
0.746217
0.745684
0.745153
0.744622
0.744093
0.743565
0.743039
0.742514
0.741991
0.741469
0.740949
0.740431
0.739914
0.7394
0.738888
0.738378
0.73787
0.737365
0.736862
0.736362
0.735864
0.735369
0.734877
0.734388
0.733902
0.73342
0.73294
0.732464
0.731992
0.731523
0.731058
0.730596
0.730139
0.729685
0.729236
0.728791
0.72835
0.727914
0.727483
0.727056
0.726633
0.726216
0.725804
0.725397
0.724995
0.724599
0.724208
0.723823
0.723443
0.723069
0.722702
0.72234
0.721984
0.721635
0.721292
0.720956
0.720626
0.720303
0.719987
0.719677
0.719375
0.71908
0.718792
0.718511
0.718238
0.717973
0.717715
0.717465
0.717223
0.716989
0.716763
0.716545
0.716335
0.716134
0.715942
0.715759
0.715585
0.71542
0.715265
0.715119
0.714982
0.714856
0.71474
0.714635
0.714541
0.714457
0.714386
0.714326
0.714279
0.714244
0.714221
0.714211
0.714213
0.714228
0.714257
0.714299
0.714352
0.829723
0.82968
0.829635
0.829588
0.829538
0.829485
0.82943
0.829372
0.829311
0.829247
0.82918
0.829111
0.829039
0.828964
0.828886
0.828805
0.828721
0.828634
0.828545
0.828452
0.828357
0.828258
0.828157
0.828053
0.827945
0.827835
0.827721
0.827605
0.827485
0.827363
0.827237
0.827108
0.826976
0.826841
0.826702
0.826561
0.826416
0.826268
0.826117
0.825962
0.825805
0.825644
0.825479
0.825312
0.825141
0.824967
0.824789
0.824608
0.824424
0.824236
0.824045
0.82385
0.823652
0.823451
0.823246
0.823037
0.822825
0.82261
0.822391
0.822168
0.821942
0.821712
0.821479
0.821242
0.821002
0.820758
0.82051
0.820259
0.820004
0.819746
0.819484
0.819218
0.818948
0.818675
0.818398
0.818118
0.817834
0.817546
0.817254
0.816959
0.81666
0.816357
0.816051
0.815741
0.815427
0.815109
0.814788
0.814463
0.814134
0.813801
0.813465
0.813125
0.812782
0.812434
0.812083
0.811729
0.81137
0.811008
0.810642
0.810273
0.8099
0.809523
0.809143
0.808758
0.808371
0.807979
0.807584
0.807186
0.806784
0.806378
0.805969
0.805556
0.80514
0.80472
0.804297
0.80387
0.80344
0.803007
0.80257
0.802129
0.801686
0.801239
0.800788
0.800335
0.799878
0.799418
0.798954
0.798488
0.798018
0.797545
0.79707
0.796591
0.796109
0.795624
0.795136
0.794645
0.794151
0.793655
0.793155
0.792653
0.792148
0.79164
0.79113
0.790617
0.790101
0.789583
0.789062
0.788539
0.788014
0.787486
0.786955
0.786423
0.785888
0.785351
0.784812
0.78427
0.783727
0.783182
0.782634
0.782085
0.781534
0.780981
0.780426
0.77987
0.779312
0.778752
0.778191
0.777628
0.777064
0.776498
0.775932
0.775364
0.774794
0.774224
0.773653
0.77308
0.772507
0.771932
0.771357
0.770782
0.770205
0.769628
0.76905
0.768472
0.767893
0.767314
0.766735
0.766156
0.765576
0.764996
0.764417
0.763837
0.763258
0.762679
0.7621
0.761522
0.760944
0.760366
0.75979
0.759214
0.758638
0.758064
0.757491
0.756918
0.756347
0.755777
0.755208
0.754641
0.754075
0.753511
0.752949
0.752388
0.751829
0.751272
0.750718
0.750165
0.749615
0.749067
0.748521
0.747978
0.747438
0.7469
0.746365
0.745833
0.745305
0.744779
0.744257
0.743738
0.743223
0.742711
0.742203
0.741699
0.741198
0.740702
0.74021
0.739722
0.739239
0.73876
0.738286
0.737817
0.737352
0.736892
0.736438
0.735989
0.735545
0.735106
0.734673
0.734246
0.733825
0.733409
0.732999
0.732596
0.732199
0.731808
0.731424
0.731046
0.730675
0.730311
0.729954
0.729604
0.729261
0.728925
0.728597
0.728276
0.727962
0.727657
0.727359
0.727069
0.726787
0.726513
0.726247
0.725989
0.72574
0.725499
0.725267
0.725043
0.724827
0.724619
0.724422
0.724235
0.724058
0.72389
0.723731
0.723581
0.723441
0.723312
0.723195
0.723089
0.722994
0.72291
0.722839
0.72278
0.722735
0.722702
0.722681
0.722673
0.722678
0.722698
0.722732
0.72278
0.847561
0.847495
0.847428
0.847358
0.847286
0.847211
0.847134
0.847054
0.846972
0.846887
0.846799
0.846709
0.846616
0.84652
0.846421
0.84632
0.846216
0.846109
0.845999
0.845886
0.84577
0.845651
0.845529
0.845404
0.845276
0.845145
0.845011
0.844874
0.844734
0.84459
0.844443
0.844293
0.84414
0.843983
0.843823
0.84366
0.843494
0.843324
0.84315
0.842973
0.842793
0.842609
0.842422
0.842231
0.842037
0.841839
0.841638
0.841433
0.841224
0.841012
0.840796
0.840577
0.840353
0.840127
0.839896
0.839662
0.839423
0.839182
0.838936
0.838686
0.838433
0.838176
0.837915
0.83765
0.837382
0.837109
0.836833
0.836552
0.836268
0.83598
0.835688
0.835392
0.835092
0.834788
0.83448
0.834168
0.833852
0.833533
0.833209
0.832881
0.832549
0.832213
0.831874
0.83153
0.831182
0.83083
0.830474
0.830115
0.829751
0.829383
0.829011
0.828635
0.828256
0.827872
0.827484
0.827092
0.826697
0.826297
0.825894
0.825486
0.825075
0.824659
0.82424
0.823817
0.82339
0.822959
0.822525
0.822086
0.821644
0.821198
0.820748
0.820294
0.819837
0.819376
0.818911
0.818443
0.817971
0.817495
0.817016
0.816533
0.816047
0.815557
0.815063
0.814566
0.814066
0.813563
0.813056
0.812545
0.812031
0.811515
0.810994
0.810471
0.809944
0.809415
0.808882
0.808346
0.807807
0.807265
0.806721
0.806173
0.805623
0.805069
0.804513
0.803954
0.803393
0.802829
0.802262
0.801693
0.801121
0.800547
0.79997
0.799391
0.79881
0.798227
0.797641
0.797053
0.796463
0.795871
0.795277
0.794681
0.794084
0.793484
0.792883
0.79228
0.791675
0.791069
0.790461
0.789852
0.789241
0.788629
0.788016
0.787402
0.786786
0.786169
0.785552
0.784933
0.784313
0.783693
0.783072
0.78245
0.781828
0.781205
0.780582
0.779958
0.779334
0.77871
0.778085
0.77746
0.776836
0.776211
0.775587
0.774963
0.774339
0.773716
0.773093
0.77247
0.771849
0.771228
0.770607
0.769988
0.76937
0.768752
0.768136
0.767521
0.766908
0.766296
0.765685
0.765077
0.76447
0.763864
0.763261
0.762659
0.76206
0.761463
0.760869
0.760276
0.759687
0.7591
0.758515
0.757934
0.757355
0.75678
0.756208
0.755639
0.755073
0.754511
0.753953
0.753398
0.752847
0.7523
0.751758
0.751219
0.750685
0.750155
0.74963
0.74911
0.748594
0.748084
0.747578
0.747078
0.746583
0.746094
0.74561
0.745132
0.744659
0.744193
0.743732
0.743278
0.74283
0.742389
0.741954
0.741526
0.741105
0.74069
0.740283
0.739883
0.739491
0.739106
0.738728
0.738358
0.737996
0.737642
0.737295
0.736957
0.736626
0.736303
0.735989
0.735682
0.735384
0.735094
0.734813
0.734541
0.734277
0.734024
0.73378
0.733545
0.733322
0.733113
0.7329
0.732691
0.732502
0.732327
0.732157
0.731996
0.731837
0.731689
0.731554
0.731426
0.731307
0.731202
0.731122
0.731066
0.731029
0.731004
0.730985
0.730977
0.730991
0.731026
0.731078
0.73114
0.86613
0.866043
0.865954
0.865863
0.865769
0.865673
0.865575
0.865473
0.86537
0.865263
0.865154
0.865042
0.864927
0.86481
0.86469
0.864566
0.86444
0.864311
0.864179
0.864044
0.863906
0.863764
0.86362
0.863472
0.863322
0.863168
0.86301
0.86285
0.862686
0.862518
0.862348
0.862174
0.861996
0.861815
0.861631
0.861443
0.861251
0.861056
0.860857
0.860654
0.860448
0.860238
0.860025
0.859807
0.859586
0.859361
0.859133
0.8589
0.858664
0.858423
0.858179
0.857931
0.857678
0.857422
0.857162
0.856898
0.856629
0.856357
0.85608
0.8558
0.855515
0.855226
0.854933
0.854636
0.854335
0.85403
0.85372
0.853406
0.853088
0.852765
0.852439
0.852108
0.851773
0.851433
0.85109
0.850742
0.850389
0.850033
0.849672
0.849306
0.848937
0.848563
0.848185
0.847802
0.847416
0.847025
0.846629
0.846229
0.845825
0.845417
0.845004
0.844588
0.844166
0.843741
0.843311
0.842877
0.842439
0.841997
0.84155
0.841099
0.840644
0.840185
0.839721
0.839254
0.838782
0.838306
0.837826
0.837343
0.836855
0.836363
0.835867
0.835367
0.834863
0.834355
0.833843
0.833327
0.832808
0.832285
0.831757
0.831227
0.830692
0.830154
0.829612
0.829066
0.828517
0.827964
0.827408
0.826848
0.826285
0.825718
0.825148
0.824575
0.823998
0.823418
0.822835
0.822249
0.821659
0.821067
0.820471
0.819872
0.819271
0.818666
0.818059
0.817449
0.816836
0.816221
0.815603
0.814982
0.814358
0.813733
0.813104
0.812474
0.811841
0.811205
0.810568
0.809928
0.809287
0.808643
0.807997
0.807349
0.8067
0.806048
0.805395
0.80474
0.804084
0.803426
0.802767
0.802106
0.801444
0.80078
0.800116
0.79945
0.798783
0.798115
0.797446
0.796776
0.796106
0.795435
0.794763
0.79409
0.793418
0.792744
0.792071
0.791397
0.790723
0.790048
0.789374
0.7887
0.788026
0.787352
0.786679
0.786006
0.785333
0.784661
0.78399
0.783319
0.78265
0.781981
0.781313
0.780647
0.779981
0.779317
0.778654
0.777993
0.777333
0.776675
0.776019
0.775365
0.774713
0.774063
0.773415
0.772769
0.772126
0.771485
0.770847
0.770212
0.76958
0.76895
0.768324
0.767701
0.767081
0.766464
0.765851
0.765242
0.764636
0.764035
0.763437
0.762843
0.762254
0.761669
0.761089
0.760513
0.759942
0.759376
0.758814
0.758258
0.757707
0.757162
0.756622
0.756088
0.755559
0.755036
0.75452
0.754009
0.753505
0.753007
0.752516
0.752031
0.751553
0.751082
0.750618
0.750161
0.749712
0.749271
0.748837
0.748411
0.747993
0.747584
0.747183
0.74679
0.746406
0.746031
0.745665
0.745308
0.744955
0.744634
0.744282
0.744
0.74365
0.743408
0.74306
0.742847
0.742515
0.742229
0.741973
0.741727
0.741496
0.74132
0.741183
0.741024
0.740653
0.74047
0.740281
0.740257
0.74019
0.740046
0.739896
0.739766
0.739619
0.739475
0.739335
0.739166
0.739013
0.738949
0.738881
0.7388
0.738733
0.738697
0.738684
0.738711
0.885299
0.88521
0.885118
0.885024
0.884927
0.884827
0.884723
0.884616
0.884505
0.884391
0.884274
0.884153
0.884028
0.8839
0.883768
0.883633
0.883494
0.883351
0.883205
0.883054
0.882901
0.882743
0.882582
0.882416
0.882247
0.882074
0.881897
0.881717
0.881532
0.881343
0.881151
0.880954
0.880753
0.880548
0.880339
0.880126
0.879909
0.879688
0.879463
0.879233
0.878999
0.878761
0.878519
0.878272
0.878021
0.877766
0.877506
0.877242
0.876974
0.876701
0.876424
0.876142
0.875856
0.875565
0.87527
0.874971
0.874666
0.874358
0.874045
0.873727
0.873404
0.873078
0.872746
0.87241
0.872069
0.871724
0.871374
0.871019
0.87066
0.870296
0.869927
0.869554
0.869176
0.868794
0.868406
0.868014
0.867618
0.867216
0.86681
0.8664
0.865984
0.865564
0.86514
0.86471
0.864276
0.863838
0.863394
0.862946
0.862494
0.862037
0.861575
0.861108
0.860637
0.860162
0.859682
0.859197
0.858708
0.858214
0.857716
0.857213
0.856706
0.856195
0.855679
0.855159
0.854634
0.854105
0.853571
0.853034
0.852492
0.851946
0.851395
0.850841
0.850282
0.849719
0.849152
0.848581
0.848006
0.847427
0.846844
0.846257
0.845666
0.845072
0.844473
0.843871
0.843265
0.842655
0.842042
0.841425
0.840805
0.840181
0.839553
0.838922
0.838288
0.83765
0.837009
0.836365
0.835718
0.835067
0.834413
0.833757
0.833097
0.832434
0.831769
0.8311
0.830429
0.829755
0.829079
0.8284
0.827718
0.827034
0.826347
0.825658
0.824967
0.824273
0.823578
0.82288
0.82218
0.821478
0.820774
0.820069
0.819361
0.818652
0.817941
0.817228
0.816514
0.815799
0.815082
0.814364
0.813644
0.812924
0.812202
0.811479
0.810756
0.810031
0.809306
0.80858
0.807853
0.807126
0.806398
0.80567
0.804941
0.804212
0.803483
0.802755
0.802026
0.801297
0.800568
0.79984
0.799112
0.798384
0.797657
0.796931
0.796205
0.79548
0.794756
0.794033
0.793311
0.79259
0.791871
0.791153
0.790436
0.789721
0.789008
0.788297
0.787587
0.786879
0.786174
0.785471
0.78477
0.784071
0.783375
0.782682
0.781991
0.781304
0.780619
0.779937
0.779259
0.778584
0.777912
0.777244
0.776579
0.775919
0.775262
0.774609
0.77396
0.773316
0.772676
0.772041
0.77141
0.770784
0.770163
0.769547
0.768936
0.768331
0.767731
0.767136
0.766548
0.765965
0.765388
0.764817
0.764252
0.763694
0.763142
0.762597
0.762059
0.761528