/*--------------------------------*- C++ -*----------------------------------*\
| =========                 |                                                 |
| \\      /  F ield         | OpenFOAM: The Open Source CFD Toolbox           |
|  \\    /   O peration     | Version:  2.4.0                                 |
|   \\  /    A nd           | Web:      www.OpenFOAM.org                      |
|    \\/     M anipulation  |                                                 |
\*---------------------------------------------------------------------------*/
FoamFile
{
    version     2.0;
    format      ascii;
    class       volVectorField;
    location    "3.3";
    object      U;
}
// * * * * * * * * * * * * * * * * * * * * * * * * * * * * * * * * * * * * * //

dimensions      [0 1 -1 0 0 0 0];

internalField   nonuniform List<vector> 
8000
(
(1.71789e-06 -0.000183556 0)
(1.63923e-05 -0.000498867 0)
(4.46304e-05 -0.000761674 0)
(8.25047e-05 -0.000974059 0)
(0.00011968 -0.00112115 0)
(0.000143614 -0.00121678 0)
(0.000201271 -0.00119717 0)
(0.000359049 -0.00112339 0)
(0.000962631 -0.00100909 0)
(0.00241762 -0.000864619 0)
(0.00449814 -0.000608486 0)
(0.00694479 5.81064e-05 0)
(0.00915208 0.00266901 0)
(0.00982881 0.00813806 0)
(0.0089315 0.00836262 0)
(0.0083466 0.0107562 0)
(0.00837105 0.0124292 0)
(0.0088634 0.0135345 0)
(0.00967972 0.0159957 0)
(0.0106225 0.0206189 0)
(0.0116795 0.0266624 0)
(0.0139494 0.0314709 0)
(0.0134288 0.0201329 0)
(0.0129193 -0.00827299 0)
(0.0173036 -0.0109669 0)
(0.0202663 -0.00134581 0)
(0.019836 0.00593954 0)
(0.0193172 0.00839129 0)
(0.0190776 0.00651716 0)
(0.0180901 0.00101537 0)
(0.0161716 -0.00765285 0)
(0.016684 -0.01738 0)
(0.017323 -0.00943561 0)
(0.0166626 0.00902433 0)
(0.0148458 -0.00413208 0)
(0.0151988 -0.0202624 0)
(0.0155647 -0.0184279 0)
(0.0155389 -0.00501455 0)
(0.0152306 0.00306973 0)
(0.0151725 0.00335557 0)
(0.0153876 0.0021733 0)
(0.015858 0.00386384 0)
(0.016308 0.00800402 0)
(0.0170647 0.0157679 0)
(0.0181346 0.0196074 0)
(0.0192253 0.0214512 0)
(0.0208386 0.0221664 0)
(0.0225128 0.0223693 0)
(0.0235565 0.0225669 0)
(0.0242329 0.0226504 0)
(-1.86108e-07 -0.000250542 0)
(7.44246e-07 -0.000699464 0)
(4.67981e-06 -0.00109734 0)
(1.23928e-05 -0.00144654 0)
(2.5576e-05 -0.00174647 0)
(4.49706e-05 -0.00199974 0)
(7.28225e-05 -0.00220256 0)
(0.000109822 -0.00236378 0)
(0.000156604 -0.00249484 0)
(0.000209539 -0.00254726 0)
(0.000268738 -0.00245567 0)
(0.000346975 -0.00217393 0)
(0.000484235 -0.00163004 0)
(0.00065403 -0.00103618 0)
(0.000813341 -0.000728954 0)
(0.00112517 -0.000448284 0)
(0.00168422 -0.000188326 0)
(0.00236496 9.98961e-05 0)
(0.00317196 0.000509207 0)
(0.00424096 0.00104596 0)
(0.0056761 0.00177397 0)
(0.00745805 0.00295883 0)
(0.00913887 0.00546606 0)
(0.0096513 0.00630205 0)
(0.00888132 0.00637297 0)
(0.00822445 0.0109972 0)
(0.00801625 0.0157747 0)
(0.00805964 0.0192386 0)
(0.00817993 0.0217427 0)
(0.00788187 0.0221268 0)
(0.00697659 0.0147023 0)
(0.00624389 -0.00429598 0)
(0.00626054 -0.00664383 0)
(0.00624731 -0.00141515 0)
(0.00594324 -0.00246216 0)
(0.00433282 -0.00704143 0)
(0.00236583 -0.00619857 0)
(0.00129215 -0.00489943 0)
(0.000771368 -0.00237947 0)
(-0.00065896 -0.00291181 0)
(-0.00210325 -0.00972489 0)
(-0.00226718 -0.00920504 0)
(-0.00228531 -0.00863921 0)
(-0.00202053 -0.00745157 0)
(-0.00132851 -0.00552687 0)
(-0.000321409 -0.00434499 0)
(0.000518451 -0.00712429 0)
(0.00131992 -0.000424224 0)
(0.00226469 0.00609652 0)
(0.00326977 0.0119638 0)
(-7.3431e-07 -0.000199748 0)
(-5.18282e-06 -0.000573633 0)
(-1.25462e-05 -0.000920842 0)
(-2.19707e-05 -0.00124004 0)
(-3.22107e-05 -0.00153062 0)
(-4.25875e-05 -0.00179164 0)
(-5.19907e-05 -0.00202323 0)
(-6.01421e-05 -0.0022247 0)
(-6.61108e-05 -0.00239683 0)
(-6.90961e-05 -0.00253883 0)
(-6.50376e-05 -0.00265218 0)
(-4.84936e-05 -0.00273748 0)
(-1.20142e-05 -0.00280061 0)
(4.70186e-05 -0.00285161 0)
(0.000124884 -0.00290395 0)
(0.000214114 -0.00292503 0)
(0.000311477 -0.00288025 0)
(0.000416285 -0.00274688 0)
(0.000532761 -0.00251561 0)
(0.000665384 -0.00218672 0)
(0.00081804 -0.00175262 0)
(0.00098151 -0.00117622 0)
(0.00113254 -0.000441906 0)
(0.00125107 9.80247e-05 0)
(0.0014298 0.000565088 0)
(0.00182692 0.00115762 0)
(0.00249883 0.0017721 0)
(0.00339004 0.00242064 0)
(0.00439488 0.00319302 0)
(0.00543186 0.00434241 0)
(0.00634445 0.00494651 0)
(0.00668508 0.00434221 0)
(0.00627824 0.00381522 0)
(0.00599769 0.0112313 0)
(0.00566632 0.0219508 0)
(0.00503608 0.0229093 0)
(0.00455884 0.0205698 0)
(0.00447837 0.0198057 0)
(0.00459833 0.0246159 0)
(0.00469521 0.0341781 0)
(0.00367569 0.0241566 0)
(0.00321554 0.00818483 0)
(0.0032948 0.000900679 0)
(0.00309803 0.00199308 0)
(0.00278901 0.00188122 0)
(0.00251766 0.000318717 0)
(0.00213941 -0.00108874 0)
(0.0018684 -0.00168016 0)
(0.00186311 -0.000877409 0)
(0.00202107 0.0012276 0)
(4.92722e-07 -0.00019495 0)
(2.36114e-06 -0.000559932 0)
(5.3314e-06 -0.000899614 0)
(9.23614e-06 -0.00121379 0)
(1.40452e-05 -0.00150201 0)
(1.99276e-05 -0.00176419 0)
(2.69767e-05 -0.00199985 0)
(3.54715e-05 -0.00220913 0)
(4.55201e-05 -0.00239148 0)
(5.74663e-05 -0.00254729 0)
(7.1423e-05 -0.002676 0)
(8.77231e-05 -0.00277846 0)
(0.000106271 -0.00285447 0)
(0.000127009 -0.00290556 0)
(0.000149303 -0.00293159 0)
(0.000173185 -0.00293367 0)
(0.00019937 -0.00291091 0)
(0.000230017 -0.00286475 0)
(0.000267627 -0.00279517 0)
(0.000315546 -0.00270525 0)
(0.000377151 -0.00259689 0)
(0.000456645 -0.00247524 0)
(0.000556646 -0.00234441 0)
(0.000677071 -0.00221246 0)
(0.000813683 -0.00207866 0)
(0.000965656 -0.00190768 0)
(0.00113326 -0.00167964 0)
(0.00131506 -0.00137535 0)
(0.00150422 -0.00098106 0)
(0.00168701 -0.000465785 0)
(0.00183449 -9.57669e-05 0)
(0.00199458 0.000184022 0)
(0.00219663 0.000455583 0)
(0.00249409 0.000967573 0)
(0.0030651 0.0017234 0)
(0.00420572 0.00263729 0)
(0.00555932 -0.00187876 0)
(0.0061182 -0.00252735 0)
(0.00730661 -0.00426514 0)
(0.00874257 -6.65886e-08 0)
(0.00965835 0.000150044 0)
(0.0103781 2.13919e-05 0)
(0.010519 3.6797e-05 0)
(0.0102885 0.000422653 0)
(0.0101263 0.000949263 0)
(0.0101459 0.00144699 0)
(0.0100437 0.00225047 0)
(0.00983118 0.00319422 0)
(0.00956166 0.00433523 0)
(0.00931181 0.00591248 0)
(-1.90259e-07 -0.000213808 0)
(-2.06081e-07 -0.000611754 0)
(3.21651e-07 -0.00098108 0)
(1.56107e-06 -0.00132292 0)
(3.64885e-06 -0.00163813 0)
(6.68537e-06 -0.00192738 0)
(1.08536e-05 -0.00219122 0)
(1.63045e-05 -0.00243015 0)
(2.32731e-05 -0.00264455 0)
(3.19452e-05 -0.00283486 0)
(4.25883e-05 -0.00300132 0)
(5.54082e-05 -0.00314439 0)
(7.0671e-05 -0.00326418 0)
(8.85723e-05 -0.00336122 0)
(0.000109335 -0.00343544 0)
(0.000133149 -0.00348746 0)
(0.000160216 -0.00351705 0)
(0.000190758 -0.00352514 0)
(0.000224922 -0.00351141 0)
(0.000262903 -0.00347741 0)
(0.00030465 -0.00342269 0)
(0.000350209 -0.00334963 0)
(0.000399118 -0.00325752 0)
(0.000451103 -0.00314967 0)
(0.000505366 -0.00302444 0)
(0.000562377 -0.00288558 0)
(0.000622745 -0.00273063 0)
(0.000689031 -0.00256526 0)
(0.000762965 -0.00238696 0)
(0.00084682 -0.00220362 0)
(0.000938497 -0.0020128 0)
(0.00103624 -0.00182121 0)
(0.00113917 -0.00161092 0)
(0.00125292 -0.00137153 0)
(0.00137134 -0.00109425 0)
(0.00143552 -0.000747537 0)
(0.0013927 -0.000809233 0)
(0.00130495 -0.000514651 0)
(0.00118118 -0.000180893 0)
(0.000911922 0.00117704 0)
(0.000917258 -4.9755e-05 0)
(0.00106332 0.0035833 0)
(0.000855252 0.00636186 0)
(0.00048119 0.00310995 0)
(0.000962078 -0.0008239 0)
(0.00101275 0.00325091 0)
(0.000585226 0.00437161 0)
(0.000758028 0.00344159 0)
(0.00103905 0.00382407 0)
(0.00126415 0.00505848 0)
(-1.08186e-07 -0.000202539 0)
(-1.8435e-06 -0.00058333 0)
(-5.35006e-06 -0.000940237 0)
(-1.04484e-05 -0.00127381 0)
(-1.68147e-05 -0.00158454 0)
(-2.41859e-05 -0.00187282 0)
(-3.22597e-05 -0.00213903 0)
(-4.08188e-05 -0.00238352 0)
(-4.95484e-05 -0.00260663 0)
(-5.82534e-05 -0.00280869 0)
(-6.65969e-05 -0.00298997 0)
(-7.44128e-05 -0.00315081 0)
(-8.13379e-05 -0.00329142 0)
(-8.72429e-05 -0.00341211 0)
(-9.17324e-05 -0.00351304 0)
(-9.47217e-05 -0.00359453 0)
(-9.57761e-05 -0.00365663 0)
(-9.48675e-05 -0.00369972 0)
(-9.1524e-05 -0.00372373 0)
(-8.57989e-05 -0.00372914 0)
(-7.71993e-05 -0.00371568 0)
(-6.58901e-05 -0.00368401 0)
(-5.13805e-05 -0.00363357 0)
(-3.39713e-05 -0.00356525 0)
(-1.31924e-05 -0.00347805 0)
(1.05412e-05 -0.0033733 0)
(3.76838e-05 -0.00324931 0)
(6.77151e-05 -0.00310828 0)
(0.000100991 -0.00294765 0)
(0.000136805 -0.00277099 0)
(0.000175278 -0.00257425 0)
(0.000215596 -0.00236269 0)
(0.000258177 -0.00212952 0)
(0.000303116 -0.00188277 0)
(0.00035024 -0.00161265 0)
(0.00039772 -0.00133153 0)
(0.000441889 -0.00102097 0)
(0.00048825 -0.00067256 0)
(0.000552155 -0.000282389 0)
(0.000611048 -3.37615e-05 0)
(0.000629482 6.66471e-05 0)
(0.000698366 0.000450689 0)
(0.000905269 0.000926049 0)
(0.00121048 0.000803387 0)
(0.00136382 -0.000285565 0)
(0.00124284 0.00356734 0)
(0.00109328 0.00327622 0)
(0.00134291 -0.000595449 0)
(0.00166629 0.000396856 0)
(0.00180162 0.000110924 0)
(-4.92567e-07 -0.000185602 0)
(-4.45321e-06 -0.000534621 0)
(-1.20895e-05 -0.000862187 0)
(-2.30373e-05 -0.00116916 0)
(-3.68513e-05 -0.00145623 0)
(-5.31572e-05 -0.00172398 0)
(-7.16155e-05 -0.0019729 0)
(-9.19145e-05 -0.00220345 0)
(-0.00011373 -0.00241601 0)
(-0.000136768 -0.00261093 0)
(-0.000160712 -0.00278852 0)
(-0.000185288 -0.00294906 0)
(-0.000210184 -0.00309279 0)
(-0.000235149 -0.00321994 0)
(-0.000259869 -0.00333071 0)
(-0.000284118 -0.00342529 0)
(-0.000307571 -0.00350384 0)
(-0.000330033 -0.00356654 0)
(-0.000351161 -0.0036135 0)
(-0.000370794 -0.00364487 0)
(-0.000388562 -0.00366077 0)
(-0.000404348 -0.0036613 0)
(-0.00041774 -0.00364658 0)
(-0.000428674 -0.00361667 0)
(-0.00043668 -0.00357167 0)
(-0.000441758 -0.00351163 0)
(-0.00044336 -0.0034366 0)
(-0.000441565 -0.00334661 0)
(-0.00043574 -0.00324169 0)
(-0.000426059 -0.00312181 0)
(-0.000411807 -0.00298692 0)
(-0.000393258 -0.00283699 0)
(-0.000369612 -0.00267182 0)
(-0.000341214 -0.00249145 0)
(-0.000307182 -0.00229545 0)
(-0.000267796 -0.00208408 0)
(-0.000221935 -0.00185625 0)
(-0.000169602 -0.00161244 0)
(-0.000110512 -0.00135115 0)
(-4.71228e-05 -0.00107544 0)
(1.78477e-05 -0.000772385 0)
(8.3276e-05 -0.000434523 0)
(0.000137172 -7.63247e-05 0)
(0.000181896 0.000141471 0)
(0.000205698 0.000370513 0)
(0.000250563 0.00090525 0)
(0.000426352 0.000601224 0)
(0.000589007 -0.000422172 0)
(0.000558786 -2.42633e-05 0)
(0.000548069 -0.00090836 0)
(-5.31557e-07 -0.000150924 0)
(-5.24171e-06 -0.000438065 0)
(-1.44718e-05 -0.000710649 0)
(-2.78295e-05 -0.000968911 0)
(-4.48102e-05 -0.00121303 0)
(-6.49823e-05 -0.00144313 0)
(-8.79817e-05 -0.00165936 0)
(-0.00011346 -0.00186185 0)
(-0.000141089 -0.00205074 0)
(-0.000170542 -0.00222616 0)
(-0.000201513 -0.00238824 0)
(-0.000233694 -0.00253711 0)
(-0.000266799 -0.00267288 0)
(-0.000300535 -0.00279567 0)
(-0.00033463 -0.00290559 0)
(-0.0003688 -0.00300275 0)
(-0.000402787 -0.00308724 0)
(-0.000436312 -0.00315918 0)
(-0.000469125 -0.00321863 0)
(-0.00050095 -0.00326572 0)
(-0.000531543 -0.00330049 0)
(-0.000560627 -0.00332307 0)
(-0.000587961 -0.00333349 0)
(-0.000613266 -0.00333188 0)
(-0.000636301 -0.00331824 0)
(-0.000656778 -0.00329272 0)
(-0.000674453 -0.00325528 0)
(-0.00068903 -0.00320609 0)
(-0.000700254 -0.00314507 0)
(-0.000707819 -0.00307239 0)
(-0.000711448 -0.00298794 0)
(-0.000710824 -0.0028919 0)
(-0.000705641 -0.00278408 0)
(-0.000695565 -0.00266469 0)
(-0.000680246 -0.00253344 0)
(-0.000659334 -0.00239057 0)
(-0.000632421 -0.00223566 0)
(-0.000599144 -0.00206904 0)
(-0.00055901 -0.00189007 0)
(-0.000511483 -0.00169919 0)
(-0.000455912 -0.00149524 0)
(-0.000391744 -0.00127868 0)
(-0.000319559 -0.00104793 0)
(-0.000239783 -0.000801128 0)
(-0.000149583 -0.000521631 0)
(-4.64307e-05 -0.000250674 0)
(3.88143e-05 -0.000241143 0)
(8.3602e-05 -0.000191688 0)
(0.000113096 -0.000275506 0)
(0.000159565 -0.000580491 0)
(-4.22588e-07 -0.00012181 0)
(-4.49068e-06 -0.000354834 0)
(-1.25974e-05 -0.000577433 0)
(-2.44554e-05 -0.000789837 0)
(-3.96516e-05 -0.000992193 0)
(-5.78322e-05 -0.00118459 0)
(-7.86886e-05 -0.00136709 0)
(-0.000101929 -0.00153976 0)
(-0.000127266 -0.00170266 0)
(-0.000154421 -0.00185584 0)
(-0.000183121 -0.00199935 0)
(-0.000213101 -0.00213325 0)
(-0.000244099 -0.00225758 0)
(-0.000275861 -0.00237241 0)
(-0.000308137 -0.0024778 0)
(-0.00034068 -0.0025738 0)
(-0.000373246 -0.00266049 0)
(-0.000405596 -0.00273795 0)
(-0.00043749 -0.00280625 0)
(-0.000468694 -0.00286548 0)
(-0.000498967 -0.00291574 0)
(-0.000528079 -0.00295713 0)
(-0.000555789 -0.00298976 0)
(-0.000581865 -0.00301375 0)
(-0.000606063 -0.00302922 0)
(-0.00062815 -0.00303634 0)
(-0.000647875 -0.00303521 0)
(-0.000664999 -0.00302605 0)
(-0.000679262 -0.00300895 0)
(-0.000690419 -0.00298419 0)
(-0.000698196 -0.00295186 0)
(-0.000702337 -0.00291229 0)
(-0.000702552 -0.00286555 0)
(-0.000698569 -0.00281207 0)
(-0.000690077 -0.00275186 0)
(-0.000676785 -0.00268549 0)
(-0.000658352 -0.00261286 0)
(-0.000634464 -0.00253477 0)
(-0.000604744 -0.0024509 0)
(-0.000568853 -0.00236241 0)
(-0.000526366 -0.00226862 0)
(-0.000476871 -0.00217124 0)
(-0.000419767 -0.00206903 0)
(-0.000354491 -0.00196437 0)
(-0.000280783 -0.00185507 0)
(-0.00019934 -0.00174502 0)
(-0.000111807 -0.0016308 0)
(-1.81013e-05 -0.00150227 0)
(5.98924e-05 -0.00153335 0)
(0.000115951 -0.00156689 0)
(-3.97464e-07 -9.48044e-05 0)
(-3.57012e-06 -0.000278521 0)
(-9.7495e-06 -0.000456239 0)
(-1.8693e-05 -0.000627901 0)
(-3.0104e-05 -0.000793414 0)
(-4.37354e-05 -0.000952664 0)
(-5.93715e-05 -0.00110555 0)
(-7.68048e-05 -0.001252 0)
(-9.58288e-05 -0.00139193 0)
(-0.000116241 -0.00152529 0)
(-0.00013784 -0.00165204 0)
(-0.000160429 -0.00177215 0)
(-0.000183814 -0.0018856 0)
(-0.000207804 -0.00199238 0)
(-0.000232208 -0.0020925 0)
(-0.000256841 -0.00218597 0)
(-0.000281516 -0.00227283 0)
(-0.000306052 -0.0023531 0)
(-0.000330266 -0.00242684 0)
(-0.000353982 -0.0024941 0)
(-0.000377017 -0.00255496 0)
(-0.000399202 -0.0026095 0)
(-0.000420355 -0.0026578 0)
(-0.000440312 -0.00269998 0)
(-0.000458892 -0.00273614 0)
(-0.000475937 -0.00276642 0)
(-0.000491266 -0.00279094 0)
(-0.000504728 -0.00280988 0)
(-0.000516142 -0.00282337 0)
(-0.000525364 -0.00283161 0)
(-0.000532213 -0.00283478 0)
(-0.000536556 -0.00283309 0)
(-0.000538208 -0.00282674 0)
(-0.000537049 -0.00281598 0)
(-0.000532892 -0.00280104 0)
(-0.000525635 -0.0027822 0)
(-0.000515085 -0.00275969 0)
(-0.00050116 -0.00273387 0)
(-0.000483664 -0.00270495 0)
(-0.000462536 -0.00267339 0)
(-0.00043758 -0.00263935 0)
(-0.000408759 -0.00260343 0)
(-0.000375881 -0.00256566 0)
(-0.000338925 -0.00252691 0)
(-0.00029769 -0.00248699 0)
(-0.000252119 -0.00244711 0)
(-0.00020216 -0.00240659 0)
(-0.000148195 -0.00236704 0)
(-9.1645e-05 -0.0023271 0)
(-3.52714e-05 -0.00228519 0)
(-1.05888e-07 -8.1106e-05 0)
(-1.77177e-06 -0.000238692 0)
(-5.28343e-06 -0.000391702 0)
(-1.05736e-05 -0.000540217 0)
(-1.74798e-05 -0.000684244 0)
(-2.58533e-05 -0.000823745 0)
(-3.55603e-05 -0.000958683 0)
(-4.64709e-05 -0.00108902 0)
(-5.84549e-05 -0.00121471 0)
(-7.13813e-05 -0.00133573 0)
(-8.51198e-05 -0.00145205 0)
(-9.95404e-05 -0.00156364 0)
(-0.000114514 -0.00167051 0)
(-0.000129913 -0.00177263 0)
(-0.000145609 -0.00187001 0)
(-0.000161476 -0.00196267 0)
(-0.000177389 -0.00205061 0)
(-0.000193224 -0.00213387 0)
(-0.000208858 -0.00221248 0)
(-0.000224169 -0.00228649 0)
(-0.000239039 -0.00235594 0)
(-0.000253348 -0.0024209 0)
(-0.000266981 -0.00248144 0)
(-0.000279822 -0.00253764 0)
(-0.000291758 -0.00258959 0)
(-0.00030268 -0.00263739 0)
(-0.000312479 -0.00268114 0)
(-0.000321049 -0.00272096 0)
(-0.000328288 -0.00275697 0)
(-0.000334096 -0.00278931 0)
(-0.000338374 -0.0028181 0)
(-0.000341033 -0.00284352 0)
(-0.000341979 -0.0028657 0)
(-0.000341132 -0.00288482 0)
(-0.000338406 -0.00290103 0)
(-0.000333732 -0.00291454 0)
(-0.000327032 -0.00292551 0)
(-0.000318253 -0.00293415 0)
(-0.000307326 -0.00294065 0)
(-0.000294217 -0.00294521 0)
(-0.000278866 -0.00294804 0)
(-0.000261265 -0.00294938 0)
(-0.000241366 -0.00294941 0)
(-0.000219188 -0.0029484 0)
(-0.000194703 -0.00294654 0)
(-0.000167964 -0.00294413 0)
(-0.000138964 -0.00294136 0)
(-0.000107772 -0.00293857 0)
(-7.44027e-05 -0.00293582 0)
(-3.89346e-05 -0.00293344 0)
(-2.33675e-07 -6.92953e-05 0)
(-1.59855e-06 -0.000205091 0)
(-4.12045e-06 -0.000338046 0)
(-7.6792e-06 -0.000468162 0)
(-1.21691e-05 -0.000595373 0)
(-1.75116e-05 -0.000719586 0)
(-2.36365e-05 -0.000840714 0)
(-3.0475e-05 -0.000958673 0)
(-3.79567e-05 -0.00107339 0)
(-4.60115e-05 -0.0011848 0)
(-5.45696e-05 -0.00129284 0)
(-6.35614e-05 -0.00139748 0)
(-7.29179e-05 -0.00149867 0)
(-8.25708e-05 -0.00159638 0)
(-9.24519e-05 -0.0016906 0)
(-0.000102494 -0.00178132 0)
(-0.000112631 -0.00186852 0)
(-0.000122796 -0.00195223 0)
(-0.000132926 -0.00203244 0)
(-0.000142955 -0.0021092 0)
(-0.000152822 -0.00218252 0)
(-0.000162464 -0.00225244 0)
(-0.00017182 -0.00231902 0)
(-0.000180833 -0.00238231 0)
(-0.000189442 -0.00244237 0)
(-0.000197592 -0.00249927 0)
(-0.000205227 -0.00255309 0)
(-0.000212293 -0.00260391 0)
(-0.000218736 -0.00265183 0)
(-0.000224507 -0.00269695 0)
(-0.000229551 -0.00273935 0)
(-0.000233823 -0.00277917 0)
(-0.00023727 -0.00281651 0)
(-0.000239848 -0.00285149 0)
(-0.000241505 -0.00288423 0)
(-0.000242199 -0.00291487 0)
(-0.000241875 -0.00294351 0)
(-0.000240494 -0.00297031 0)
(-0.000237996 -0.00299537 0)
(-0.000234341 -0.00301883 0)
(-0.000229464 -0.00304079 0)
(-0.00022332 -0.00306139 0)
(-0.000215837 -0.0030807 0)
(-0.000206962 -0.00309886 0)
(-0.000196615 -0.00311588 0)
(-0.000184739 -0.00313188 0)
(-0.000171225 -0.00314681 0)
(-0.000155883 -0.00316077 0)
(-0.00013841 -0.00317352 0)
(-0.0001189 -0.00318506 0)
(9.76541e-08 -6.64346e-05 0)
(6.09647e-08 -0.000196451 0)
(-2.6064e-07 -0.00032366 0)
(-9.16474e-07 -0.000448148 0)
(-1.8876e-06 -0.00056992 0)
(-3.14751e-06 -0.000688939 0)
(-4.6687e-06 -0.000805166 0)
(-6.42648e-06 -0.000918556 0)
(-8.3949e-06 -0.00102907 0)
(-1.05479e-05 -0.00113665 0)
(-1.28582e-05 -0.00124128 0)
(-1.52987e-05 -0.00134293 0)
(-1.78414e-05 -0.00144155 0)
(-2.04585e-05 -0.00153715 0)
(-2.31215e-05 -0.0016297 0)
(-2.58026e-05 -0.0017192 0)
(-2.8473e-05 -0.00180564 0)
(-3.11054e-05 -0.00188904 0)
(-3.36712e-05 -0.0019694 0)
(-3.61439e-05 -0.00204674 0)
(-3.84955e-05 -0.00212109 0)
(-4.07009e-05 -0.00219248 0)
(-4.2733e-05 -0.00226095 0)
(-4.45687e-05 -0.00232656 0)
(-4.61817e-05 -0.00238936 0)
(-4.75513e-05 -0.00244941 0)
(-4.86524e-05 -0.00250679 0)
(-4.94671e-05 -0.00256158 0)
(-4.9971e-05 -0.00261388 0)
(-5.01493e-05 -0.00266379 0)
(-4.99783e-05 -0.00271142 0)
(-4.94458e-05 -0.0027569 0)
(-4.85283e-05 -0.00280037 0)
(-4.72161e-05 -0.00284197 0)
(-4.54846e-05 -0.00288189 0)
(-4.33259e-05 -0.00292027 0)
(-4.07131e-05 -0.00295736 0)
(-3.76381e-05 -0.00299329 0)
(-3.40698e-05 -0.00302841 0)
(-2.99977e-05 -0.00306285 0)
(-2.53833e-05 -0.00309702 0)
(-2.02083e-05 -0.00313106 0)
(-1.44248e-05 -0.00316552 0)
(-8.01179e-06 -0.00320048 0)
(-9.36285e-07 -0.00323671 0)
(6.85766e-06 -0.00327418 0)
(1.56861e-05 -0.00331392 0)
(2.63555e-05 -0.0033557 0)
(3.89089e-05 -0.00340113 0)
(4.80335e-05 -0.00345043 0)
(-1.02777e-07 -6.45308e-05 0)
(2.85664e-09 -0.000191282 0)
(4.62855e-07 -0.000315688 0)
(1.30613e-06 -0.000437786 0)
(2.49333e-06 -0.000557541 0)
(3.97745e-06 -0.000674888 0)
(5.72475e-06 -0.000789768 0)
(7.70717e-06 -0.000902115 0)
(9.90237e-06 -0.00101187 0)
(1.22913e-05 -0.00111899 0)
(1.48579e-05 -0.00122343 0)
(1.75892e-05 -0.00132515 0)
(2.04743e-05 -0.00142412 0)
(2.35046e-05 -0.00152031 0)
(2.6673e-05 -0.00161372 0)
(2.99743e-05 -0.00170433 0)
(3.34037e-05 -0.00179214 0)
(3.69578e-05 -0.00187715 0)
(4.06333e-05 -0.00195936 0)
(4.44277e-05 -0.00203878 0)
(4.83377e-05 -0.00211544 0)
(5.23604e-05 -0.00218935 0)
(5.64915e-05 -0.00226056 0)
(6.07267e-05 -0.00232908 0)
(6.50592e-05 -0.00239497 0)
(6.94823e-05 -0.00245827 0)
(7.39853e-05 -0.00251903 0)
(7.85574e-05 -0.00257732 0)
(8.31829e-05 -0.00263321 0)
(8.78452e-05 -0.00268676 0)
(9.2522e-05 -0.00273808 0)
(9.71889e-05 -0.00278722 0)
(0.000101815 -0.00283434 0)
(0.000106367 -0.00287949 0)
(0.000110802 -0.00292285 0)
(0.000115075 -0.00296449 0)
(0.00011913 -0.00300465 0)
(0.000122905 -0.00304336 0)
(0.00012633 -0.00308096 0)
(0.000129322 -0.00311746 0)
(0.000131794 -0.00315328 0)
(0.000133631 -0.00318841 0)
(0.000134711 -0.00322342 0)
(0.000134868 -0.00325819 0)
(0.00013405 -0.00329354 0)
(0.000132443 -0.00332911 0)
(0.000130371 -0.00336608 0)
(0.000125788 -0.00340429 0)
(0.000108838 -0.00344684 0)
(6.90225e-05 -0.00348909 0)
(2.48854e-07 -7.304e-05 0)
(1.12678e-06 -0.000214651 0)
(2.51613e-06 -0.000352026 0)
(4.28944e-06 -0.000485457 0)
(6.39776e-06 -0.000615123 0)
(8.812e-06 -0.000741149 0)
(1.15126e-05 -0.000863636 0)
(1.44751e-05 -0.000982656 0)
(1.76753e-05 -0.00109827 0)
(2.10888e-05 -0.00121051 0)
(2.46911e-05 -0.00131943 0)
(2.84583e-05 -0.00142506 0)
(3.23665e-05 -0.00152743 0)
(3.63929e-05 -0.00162657 0)
(4.05144e-05 -0.0017225 0)
(4.47091e-05 -0.00181525 0)
(4.89548e-05 -0.00190484 0)
(5.32307e-05 -0.00199129 0)
(5.75149e-05 -0.00207463 0)
(6.17876e-05 -0.00215487 0)
(6.60269e-05 -0.00223204 0)
(7.02131e-05 -0.00230615 0)
(7.43239e-05 -0.00237724 0)
(7.83391e-05 -0.00244531 0)
(8.22349e-05 -0.0025104 0)
(8.59897e-05 -0.00257252 0)
(8.95767e-05 -0.0026317 0)
(9.2972e-05 -0.00268795 0)
(9.61445e-05 -0.00274129 0)
(9.90664e-05 -0.00279176 0)
(0.0001017 -0.00283935 0)
(0.000104012 -0.0028841 0)
(0.000105957 -0.00292601 0)
(0.000107492 -0.00296512 0)
(0.000108561 -0.00300141 0)
(0.000109111 -0.00303492 0)
(0.000109069 -0.00306562 0)
(0.00010837 -0.00309355 0)
(0.000106924 -0.00311867 0)
(0.000104643 -0.00314103 0)
(0.000101406 -0.00316054 0)
(9.70737e-05 -0.00317728 0)
(9.15107e-05 -0.00319113 0)
(8.47985e-05 -0.00320216 0)
(7.7366e-05 -0.00321013 0)
(6.88457e-05 -0.0032152 0)
(5.35034e-05 -0.00321808 0)
(1.48328e-05 -0.00322126 0)
(-3.54784e-05 -0.00321855 0)
(-7.427e-05 -0.00319596 0)
(-1.77655e-07 -6.97421e-05 0)
(3.96487e-08 -0.000206391 0)
(9.40717e-07 -0.000340097 0)
(2.58546e-06 -0.00047088 0)
(4.90642e-06 -0.000598693 0)
(7.81424e-06 -0.000723478 0)
(1.1235e-05 -0.000845186 0)
(1.50983e-05 -0.000963753 0)
(1.93383e-05 -0.00107913 0)
(2.38911e-05 -0.00119125 0)
(2.86949e-05 -0.0013001 0)
(3.36909e-05 -0.00140564 0)
(3.88228e-05 -0.00150784 0)
(4.40377e-05 -0.00160671 0)
(4.92851e-05 -0.00170223 0)
(5.45185e-05 -0.00179441 0)
(5.96933e-05 -0.00188325 0)
(6.47691e-05 -0.00196876 0)
(6.97069e-05 -0.00205096 0)
(7.44728e-05 -0.00212986 0)
(7.90328e-05 -0.00220548 0)
(8.33588e-05 -0.00227784 0)
(8.74212e-05 -0.00234696 0)
(9.11974e-05 -0.00241286 0)
(9.46612e-05 -0.00247556 0)
(9.77952e-05 -0.00253508 0)
(0.000100575 -0.00259143 0)
(0.000102989 -0.00264464 0)
(0.000105013 -0.00269471 0)
(0.000106638 -0.00274165 0)
(0.000107841 -0.00278546 0)
(0.000108618 -0.00282614 0)
(0.00010894 -0.00286368 0)
(0.000108811 -0.00289807 0)
(0.000108191 -0.00292927 0)
(0.000107099 -0.00295726 0)
(0.00010547 -0.00298198 0)
(0.000103355 -0.00300338 0)
(0.000100644 -0.00302138 0)
(9.74059e-05 -0.00303589 0)
(9.34451e-05 -0.00304681 0)
(8.89107e-05 -0.00305399 0)
(8.40752e-05 -0.00305724 0)
(8.0092e-05 -0.00305626 0)
(7.58829e-05 -0.00305096 0)
(6.00525e-05 -0.00304221 0)
(4.43063e-06 -0.0030324 0)
(-6.12977e-05 -0.00302299 0)
(-9.85401e-05 -0.0030103 0)
(-0.000183286 -0.00299999 0)
(4.24044e-07 -8.47815e-05 0)
(1.85785e-06 -0.000247844 0)
(4.1071e-06 -0.00040467 0)
(6.95025e-06 -0.000555599 0)
(1.02836e-05 -0.000700856 0)
(1.40251e-05 -0.000840637 0)
(1.80937e-05 -0.000975116 0)
(2.23932e-05 -0.00110442 0)
(2.68226e-05 -0.00122868 0)
(3.12774e-05 -0.001348 0)
(3.56529e-05 -0.00146247 0)
(3.98455e-05 -0.00157222 0)
(4.3754e-05 -0.00167733 0)
(4.72801e-05 -0.00177792 0)
(5.03304e-05 -0.00187408 0)
(5.28146e-05 -0.00196592 0)
(5.46487e-05 -0.00205353 0)
(5.5752e-05 -0.00213702 0)
(5.60507e-05 -0.00221646 0)
(5.54733e-05 -0.00229197 0)
(5.39567e-05 -0.00236361 0)
(5.14382e-05 -0.00243149 0)
(4.78647e-05 -0.00249567 0)
(4.31816e-05 -0.00255623 0)
(3.73459e-05 -0.00261324 0)
(3.03097e-05 -0.00266677 0)
(2.20404e-05 -0.00271688 0)
(1.24962e-05 -0.00276361 0)
(1.65576e-06 -0.00280701 0)
(-1.05171e-05 -0.00284713 0)
(-2.40304e-05 -0.002884 0)
(-3.89146e-05 -0.00291763 0)
(-5.51609e-05 -0.00294805 0)
(-7.27931e-05 -0.00297526 0)
(-9.17791e-05 -0.00299926 0)
(-0.000112134 -0.00302003 0)
(-0.000133791 -0.00303755 0)
(-0.000156756 -0.00305177 0)
(-0.000180941 -0.00306265 0)
(-0.000206382 -0.00307006 0)
(-0.000232847 -0.00307396 0)
(-0.000259747 -0.00307411 0)
(-0.000285615 -0.00307047 0)
(-0.000311783 -0.00306268 0)
(-0.000352198 -0.00305089 0)
(-0.000436455 -0.00303491 0)
(-0.00052887 -0.00301146 0)
(-0.000575538 -0.00295768 0)
(-0.000621882 -0.00235989 0)
(-0.000531134 0.00443867 0)
(-1.31659e-07 -7.69873e-05 0)
(2.32019e-06 -0.000228491 0)
(7.63204e-06 -0.000376543 0)
(1.55036e-05 -0.000520432 0)
(2.52906e-05 -0.000659596 0)
(3.64099e-05 -0.000793645 0)
(4.83831e-05 -0.000922299 0)
(6.0804e-05 -0.00104534 0)
(7.33232e-05 -0.00116261 0)
(8.56368e-05 -0.00127402 0)
(9.74869e-05 -0.00137955 0)
(0.000108653 -0.00147921 0)
(0.000118954 -0.00157303 0)
(0.000128236 -0.00166112 0)
(0.000136381 -0.00174355 0)
(0.00014329 -0.00182046 0)
(0.00014889 -0.00189196 0)
(0.000153128 -0.00195819 0)
(0.000155968 -0.00201928 0)
(0.00015739 -0.00207538 0)
(0.000157388 -0.00212663 0)
(0.000155964 -0.00217315 0)
(0.000153138 -0.00221508 0)
(0.000148927 -0.00225256 0)
(0.000143366 -0.0022857 0)
(0.000136487 -0.00231464 0)
(0.000128333 -0.00233949 0)
(0.000118944 -0.00236038 0)
(0.000108369 -0.00237743 0)
(9.6649e-05 -0.00239078 0)
(8.38369e-05 -0.00240054 0)
(6.99719e-05 -0.00240687 0)
(5.51044e-05 -0.00240992 0)
(3.92697e-05 -0.00240987 0)
(2.25115e-05 -0.00240691 0)
(4.85893e-06 -0.00240128 0)
(-1.36546e-05 -0.00239324 0)
(-3.30074e-05 -0.00238312 0)
(-5.31849e-05 -0.00237127 0)
(-7.41805e-05 -0.00235817 0)
(-9.60041e-05 -0.0023443 0)
(-0.000118582 -0.00233034 0)
(-0.000141646 -0.00231704 0)
(-0.000164965 -0.00230547 0)
(-0.0001898 -0.00229673 0)
(-0.000222519 -0.00229171 0)
(-0.00026868 -0.00228933 0)
(-0.000322876 -0.00229752 0)
(-0.000366794 -0.00239699 0)
(-0.000360463 -0.00320112 0)
(2.31822e-06 -0.000139654 0)
(1.48074e-05 -0.000389549 0)
(3.53829e-05 -0.000615207 0)
(6.16907e-05 -0.000818995 0)
(9.17158e-05 -0.00100303 0)
(0.000124019 -0.00116923 0)
(0.000157518 -0.00131933 0)
(0.000191368 -0.00145488 0)
(0.000224897 -0.00157727 0)
(0.000257588 -0.00168777 0)
(0.000289049 -0.00178755 0)
(0.000318999 -0.00187764 0)
(0.000347236 -0.001959 0)
(0.000373637 -0.00203249 0)
(0.000398128 -0.0020989 0)
(0.000420692 -0.00215892 0)
(0.000441336 -0.00221319 0)
(0.000460109 -0.00226227 0)
(0.000477068 -0.00230669 0)
(0.000492304 -0.00234687 0)
(0.000505896 -0.00238324 0)
(0.000517956 -0.00241614 0)
(0.000528567 -0.00244588 0)
(0.000537844 -0.00247271 0)
(0.000545857 -0.00249689 0)
(0.000552708 -0.00251857 0)
(0.000558436 -0.00253794 0)
(0.000563112 -0.0025551 0)
(0.00056672 -0.00257015 0)
(0.000569281 -0.00258313 0)
(0.000570695 -0.0025941 0)
(0.000570903 -0.00260301 0)
(0.000569682 -0.00260988 0)
(0.000566852 -0.0026146 0)
(0.000562011 -0.00261713 0)
(0.000554801 -0.00261729 0)
(0.000544561 -0.00261501 0)
(0.00053067 -0.00261002 0)
(0.000512079 -0.00260224 0)
(0.000487794 -0.00259135 0)
(0.000456236 -0.00257726 0)
(0.000416047 -0.00255981 0)
(0.000365133 -0.00253921 0)
(0.00030025 -0.00251668 0)
(0.000213572 -0.00249476 0)
(9.47397e-05 -0.00248287 0)
(-3.29559e-05 -0.00248311 0)
(-0.000159925 -0.00263245 0)
(-0.00016185 -0.00452104 0)
(-0.00062292 -0.00482031 0)
(6.95514e-05 -0.000222544 0)
(0.000200574 -0.000596397 0)
(0.000305534 -0.000907843 0)
(0.000388864 -0.00116744 0)
(0.000454639 -0.00138388 0)
(0.000505715 -0.00156433 0)
(0.000544058 -0.00171473 0)
(0.000571305 -0.00184007 0)
(0.000588895 -0.0019445 0)
(0.00059808 -0.0020315 0)
(0.000599945 -0.00210398 0)
(0.000595417 -0.00216439 0)
(0.000585304 -0.00221474 0)
(0.000570289 -0.00225673 0)
(0.00055098 -0.00229178 0)
(0.000527884 -0.00232103 0)
(0.000501463 -0.00234546 0)
(0.000472093 -0.00236583 0)
(0.000440133 -0.00238275 0)
(0.000405865 -0.00239672 0)
(0.000369579 -0.00240807 0)
(0.00033149 -0.00241705 0)
(0.000291851 -0.00242378 0)
(0.000250829 -0.00242827 0)
(0.00020867 -0.00243044 0)
(0.000165513 -0.00243006 0)
(0.000121625 -0.00242681 0)
(7.71375e-05 -0.0024202 0)
(3.23722e-05 -0.00240962 0)
(-1.25308e-05 -0.00239424 0)
(-5.71498e-05 -0.0023731 0)
(-0.000101313 -0.00234487 0)
(-0.000144445 -0.00230809 0)
(-0.000186311 -0.00226078 0)
(-0.000226111 -0.00220079 0)
(-0.000263498 -0.00212519 0)
(-0.000297361 -0.00203081 0)
(-0.000327158 -0.0019134 0)
(-0.000351348 -0.00176834 0)
(-0.000369074 -0.00158951 0)
(-0.00037866 -0.00137007 0)
(-0.000376941 -0.00110146 0)
(-0.000363687 -0.00077327 0)
(-0.000334057 -0.000373595 0)
(-0.000292569 0.000115095 0)
(-0.000243059 0.000701173 0)
(-0.000153564 0.0014207 0)
(9.09983e-05 0.00221321 0)
(0.000729597 0.00322719 0)
(0.00179395 0.00551692 0)
(0.0243696 0.022302 0)
(0.0239463 0.0216798 0)
(0.0234533 0.0214157 0)
(0.0228806 0.0216702 0)
(0.0221504 0.0223087 0)
(0.0213681 0.0231766 0)
(0.0205589 0.023535 0)
(0.0196148 0.0238092 0)
(0.0186345 0.0244843 0)
(0.0176929 0.0251759 0)
(0.0167487 0.0256482 0)
(0.0157752 0.0260089 0)
(0.0147805 0.0262763 0)
(0.0138051 0.0264462 0)
(0.012859 0.026529 0)
(0.0119344 0.026539 0)
(0.0110349 0.0264965 0)
(0.0101642 0.0264215 0)
(0.00932369 0.0263303 0)
(0.00851335 0.0262349 0)
(0.00773261 0.0261439 0)
(0.00698056 0.0260626 0)
(0.00625604 0.0259939 0)
(0.00555771 0.0259387 0)
(0.00488417 0.0258969 0)
(0.00423399 0.0258674 0)
(0.00360581 0.025849 0)
(0.00299831 0.02584 0)
(0.00241026 0.025839 0)
(0.00184048 0.0258446 0)
(0.0012879 0.0258556 0)
(0.000751519 0.025871 0)
(0.000230421 0.0258899 0)
(-0.000276226 0.0259117 0)
(-0.00076917 0.0259357 0)
(-0.00124913 0.0259613 0)
(-0.00171678 0.0259882 0)
(-0.00217275 0.0260159 0)
(-0.00261763 0.0260443 0)
(-0.00305193 0.0260731 0)
(-0.00347615 0.0261023 0)
(-0.00389076 0.026132 0)
(-0.00429618 0.0261622 0)