/*--------------------------------*- C++ -*----------------------------------*\
| =========                 |                                                 |
| \\      /  F ield         | OpenFOAM: The Open Source CFD Toolbox           |
|  \\    /   O peration     | Version:  2.4.0                                 |
|   \\  /    A nd           | Web:      www.OpenFOAM.org                      |
|    \\/     M anipulation  |                                                 |
\*---------------------------------------------------------------------------*/
FoamFile
{
    version     2.0;
    format      ascii;
    class       volScalarField;
    location    "0.7";
    object      p;
}
// * * * * * * * * * * * * * * * * * * * * * * * * * * * * * * * * * * * * * //

dimensions      [1 -1 -2 0 0 0 0];

internalField   nonuniform List<scalar> 
125
(
0.287924
0.28793
0.287929
0.287929
0.287922
0.253265
0.253267
0.253264
0.253264
0.253263
0.201521
0.201515
0.201513
0.201512
0.201519
0.140047
0.140052
0.140049
0.140049
0.140045
0.203036
0.203117
0.203115
0.203114
0.203034
0.715542
0.715738
0.715739
0.715739
0.715537
1.46458
1.46458
1.46459
1.4646
1.46457
-0.981527
-0.98251
-0.982507
-0.982507
-0.981533
-14.7633
-14.765
-14.765
-14.765
-14.7632
-34.1823
-34.181
-34.1812
-34.1813
-34.1821
-0.0171235
-0.0171231
-0.0171231
-0.0171231
-0.0171235
-0.00263883
-0.00263924
-0.00263924
-0.00263924
-0.00263883
-0.00532638
-0.00532632
-0.00532632
-0.00532632
-0.00532638
-0.00708826
-0.00708818
-0.00708818
-0.00708818
-0.00708827
-0.00784596
-0.00784595
-0.00784595
-0.00784595
-0.00784596
-0.00834627
-0.00834629
-0.00834629
-0.00834629
-0.00834628
-0.00888358
-0.00888359
-0.00888359
-0.00888359
-0.00888359
-0.00946642
-0.00946642
-0.00946642
-0.00946642
-0.00946642
-0.0100656
-0.0100656
-0.0100656
-0.0100656
-0.0100656
-0.0106702
-0.0106702
-0.0106702
-0.0106702
-0.0106702
-0.01128
-0.01128
-0.01128
-0.01128
-0.01128
-0.0118962
-0.0118962
-0.0118962
-0.0118962
-0.0118962
-0.0125193
-0.0125193
-0.0125193
-0.0125193
-0.0125193
-0.0131494
-0.0131494
-0.0131494
-0.0131494
-0.0131494
-0.0137866
-0.0137866
-0.0137866
-0.0137866
-0.0137866
)
;

boundaryField
{
    BotWall
    {
        type            calculated;
        value           nonuniform List<scalar> 5(0.302744 0.30275 0.302749 0.302749 0.302742);
    }
    FreeStream
    {
        type            calculated;
        value           nonuniform 0();
    }
    FrontNBack
    {
        type            empty;
    }
    LeftSide
    {
        type            symmetryPlane;
    }
    RightSide
    {
        type            symmetryPlane;
    }
    procBoundary0to1
    {
        type            processor;
        value           nonuniform List<scalar> 5(-0.0144309 -0.0144309 -0.0144309 -0.0144309 -0.0144309);
    }
}


// ************************************************************************* //
