/*--------------------------------*- C++ -*----------------------------------*\
| =========                 |                                                 |
| \\      /  F ield         | OpenFOAM: The Open Source CFD Toolbox           |
|  \\    /   O peration     | Version:  2.4.0                                 |
|   \\  /    A nd           | Web:      www.OpenFOAM.org                      |
|    \\/     M anipulation  |                                                 |
\*---------------------------------------------------------------------------*/
FoamFile
{
    version     2.0;
    format      ascii;
    class       volScalarField;
    location    "0.7";
    object      T;
}
// * * * * * * * * * * * * * * * * * * * * * * * * * * * * * * * * * * * * * //

dimensions      [0 0 0 1 0 0 0];

internalField   nonuniform List<scalar> 
125
(
293.247
293.247
293.247
293.247
293.247
293.743
293.743
293.743
293.743
293.743
294.246
294.246
294.246
294.246
294.246
294.754
294.754
294.754
294.754
294.754
295.268
295.268
295.268
295.268
295.268
295.788
295.788
295.788
295.788
295.788
296.315
296.315
296.315
296.315
296.315
296.848
296.848
296.848
296.848
296.848
297.388
297.388
297.388
297.388
297.388
297.988
297.988
297.988
297.988
297.988
297.988
297.988
297.988
297.988
297.988
297.988
297.988
297.988
297.988
297.988
297.988
297.988
297.988
297.988
297.988
297.988
297.988
297.988
297.988
297.988
297.988
297.988
297.988
297.988
297.988
297.988
297.988
297.988
297.988
297.988
297.988
297.988
297.988
297.988
297.988
297.988
297.988
297.988
297.988
297.988
297.987
297.987
297.987
297.987
297.987
297.987
297.987
297.987
297.987
297.987
297.987
297.987
297.987
297.987
297.987
297.987
297.987
297.987
297.987
297.987
297.987
297.987
297.987
297.987
297.987
297.987
297.987
297.987
297.987
297.987
297.987
297.987
297.987
297.987
297.987
)
;

boundaryField
{
    BotWall
    {
        type            fixedValue;
        value           uniform 293;
    }
    FreeStream
    {
        type            fixedValue;
        value           nonuniform 0();
    }
    FrontNBack
    {
        type            empty;
    }
    LeftSide
    {
        type            symmetryPlane;
    }
    RightSide
    {
        type            symmetryPlane;
    }
    procBoundary0to1
    {
        type            processor;
        value           nonuniform List<scalar> 5(297.987 297.987 297.987 297.987 297.987);
    }
}


// ************************************************************************* //
