/*--------------------------------*- C++ -*----------------------------------*\
| =========                 |                                                 |
| \\      /  F ield         | OpenFOAM: The Open Source CFD Toolbox           |
|  \\    /   O peration     | Version:  2.4.0                                 |
|   \\  /    A nd           | Web:      www.OpenFOAM.org                      |
|    \\/     M anipulation  |                                                 |
\*---------------------------------------------------------------------------*/
FoamFile
{
    version     2.0;
    format      ascii;
    class       volVectorField;
    location    "0.7";
    object      U;
}
// * * * * * * * * * * * * * * * * * * * * * * * * * * * * * * * * * * * * * //

dimensions      [0 1 -1 0 0 0 0];

internalField   nonuniform List<vector> 
125
(
(1.61202e-10 3.53899e-08 0)
(2.16755e-10 3.53918e-08 0)
(6.47236e-11 3.53926e-08 0)
(-2.47849e-10 3.53924e-08 0)
(-2.56201e-10 3.53895e-08 0)
(4.85946e-10 8.64082e-08 0)
(6.52859e-10 8.64438e-08 0)
(1.94564e-10 8.64497e-08 0)
(-7.47108e-10 8.64478e-08 0)
(-7.72312e-10 8.6406e-08 0)
(8.17375e-10 -1.56723e-07 0)
(1.09612e-09 -1.56956e-07 0)
(3.25132e-10 -1.56941e-07 0)
(-1.25488e-09 -1.56947e-07 0)
(-1.29722e-09 -1.56729e-07 0)
(1.14925e-09 -1.08881e-06 0)
(1.54004e-09 -1.08915e-06 0)
(4.56273e-10 -1.08912e-06 0)
(-1.76489e-09 -1.08914e-06 0)
(-1.82479e-09 -1.08882e-06 0)
(1.48904e-09 -1.93781e-06 0)
(1.99192e-09 -1.93764e-06 0)
(5.87891e-10 -1.9376e-06 0)
(-2.28406e-09 -1.93763e-06 0)
(-2.36206e-09 -1.93782e-06 0)
(1.84182e-09 4.02924e-06 0)
(2.45731e-09 4.03289e-06 0)
(7.20654e-10 4.03298e-06 0)
(-2.81821e-09 4.03295e-06 0)
(-2.91505e-09 4.0292e-06 0)
(2.24188e-09 2.8884e-05 0)
(2.97114e-09 2.8891e-05 0)
(8.55404e-10 2.88913e-05 0)
(-3.4028e-09 2.88913e-05 0)
(-3.5195e-09 2.88839e-05 0)
(2.65965e-09 4.94231e-05 0)
(3.50323e-09 4.94202e-05 0)
(9.92194e-10 4.94208e-05 0)
(-4.00945e-09 4.94209e-05 0)
(-4.14773e-09 4.94227e-05 0)
(2.91993e-09 -0.000104051 0)
(3.88508e-09 -0.000104092 0)
(1.13687e-09 -0.000104092 0)
(-4.46965e-09 -0.000104093 0)
(-4.63041e-09 -0.000104051 0)
(2.7209e-09 -0.000779438 0)
(3.80349e-09 -0.000779478 0)
(1.27687e-09 -0.000779481 0)
(-4.4641e-09 -0.000779481 0)
(-4.6471e-09 -0.000779436 0)
(3.03391e-09 -0.00193462 0)
(4.13477e-09 -0.00193458 0)
(1.29936e-09 -0.00193458 0)
(-4.80756e-09 -0.00193458 0)
(-4.99476e-09 -0.00193462 0)
(4.27401e-09 -0.0044682 0)
(5.20487e-09 -0.00446815 0)
(9.86086e-10 -0.00446815 0)
(-6.55811e-09 -0.00446815 0)
(-6.5863e-09 -0.0044682 0)
(3.252e-09 -0.00275128 0)
(3.99023e-09 -0.00275135 0)
(6.48628e-10 -0.00275135 0)
(-6.00577e-09 -0.00275135 0)
(-5.87395e-09 -0.00275128 0)
(2.76548e-09 -0.00255851 0)
(3.31651e-09 -0.00255853 0)
(3.20429e-10 -0.00255853 0)
(-5.96259e-09 -0.00255853 0)
(-5.67517e-09 -0.00255851 0)
(2.60173e-09 -0.00259656 0)
(2.97173e-09 -0.00259655 0)
(2.31196e-12 -0.00259655 0)
(-6.2218e-09 -0.00259655 0)
(-5.78324e-09 -0.00259656 0)
(2.44555e-09 -0.00264454 0)
(2.63997e-09 -0.00264454 0)
(-3.06467e-10 -0.00264454 0)
(-6.46646e-09 -0.00264454 0)
(-5.88128e-09 -0.00264454 0)
(2.22702e-09 -0.00265436 0)
(2.25072e-09 -0.00265436 0)
(-6.06475e-10 -0.00265436 0)
(-6.62601e-09 -0.00265436 0)
(-5.89871e-09 -0.00265436 0)
(1.99054e-09 -0.00265233 0)
(1.84842e-09 -0.00265233 0)
(-8.97661e-10 -0.00265233 0)
(-6.74504e-09 -0.00265233 0)
(-5.88017e-09 -0.00265233 0)
(1.76377e-09 -0.00265043 0)
(1.46087e-09 -0.00265044 0)
(-1.17984e-09 -0.00265044 0)
(-6.85165e-09 -0.00265044 0)
(-5.85381e-09 -0.00265043 0)
(1.54904e-09 -0.00265003 0)
(1.09049e-09 -0.00265003 0)
(-1.45287e-09 -0.00265003 0)
(-6.94855e-09 -0.00265004 0)
(-5.82241e-09 -0.00265003 0)
(1.34256e-09 -0.00265012 0)
(7.33577e-10 -0.00265012 0)
(-1.71661e-09 -0.00265012 0)
(-7.03238e-09 -0.00265012 0)
(-5.78263e-09 -0.00265012 0)
(1.14257e-09 -0.0026502 0)
(3.8843e-10 -0.0026502 0)
(-1.97098e-09 -0.0026502 0)
(-7.10179e-09 -0.0026502 0)
(-5.7332e-09 -0.0026502 0)
(9.49033e-10 -0.00265021 0)
(5.50645e-11 -0.00265021 0)
(-2.21586e-09 -0.00265021 0)
(-7.15701e-09 -0.00265021 0)
(-5.67438e-09 -0.00265021 0)
(7.62195e-10 -0.00265021 0)
(-2.66206e-10 -0.00265021 0)
(-2.45116e-09 -0.00265021 0)
(-7.19887e-09 -0.00265021 0)
(-5.60702e-09 -0.00265021 0)
(5.82185e-10 -0.00265021 0)
(-5.75228e-10 -0.00265021 0)
(-2.6768e-09 -0.00265021 0)
(-7.22787e-09 -0.00265021 0)
(-5.53171e-09 -0.00265021 0)
)
;

boundaryField
{
    BotWall
    {
        type            fixedValue;
        value           uniform (0 0 0);
    }
    FreeStream
    {
        type            zeroGradient;
    }
    FrontNBack
    {
        type            empty;
    }
    LeftSide
    {
        type            symmetryPlane;
    }
    RightSide
    {
        type            symmetryPlane;
    }
    procBoundary0to1
    {
        type            processor;
        value           nonuniform List<vector> 5((4.08998e-10 -0.0026502 0) (-8.71951e-10 -0.00265021 0) (-2.89271e-09 -0.00265021 0) (-7.24471e-09 -0.00265021 0) (-5.44913e-09 -0.00265021 0));
    }
}


// ************************************************************************* //
