/*--------------------------------*- C++ -*----------------------------------*\
| =========                 |                                                 |
| \\      /  F ield         | OpenFOAM: The Open Source CFD Toolbox           |
|  \\    /   O peration     | Version:  2.4.0                                 |
|   \\  /    A nd           | Web:      www.OpenFOAM.org                      |
|    \\/     M anipulation  |                                                 |
\*---------------------------------------------------------------------------*/
FoamFile
{
    version     2.0;
    format      ascii;
    class       volScalarField;
    location    "1.4";
    object      H;
}
// * * * * * * * * * * * * * * * * * * * * * * * * * * * * * * * * * * * * * //

dimensions      [0 2 -2 0 0 0 0];

internalField   nonuniform List<scalar> 
125
(
-11.6636
-11.6634
-11.6633
-11.6634
-11.6636
-11.2149
-11.2147
-11.2145
-11.2146
-11.2149
-10.7594
-10.7592
-10.7591
-10.7592
-10.7594
-10.2978
-10.2976
-10.2975
-10.2976
-10.2978
-9.83058
-9.83042
-9.8303
-9.83038
-9.83059
-9.35827
-9.35812
-9.35801
-9.35808
-9.35828
-8.88144
-8.88129
-8.88119
-8.88125
-8.88144
-8.40065
-8.40052
-8.40042
-8.40048
-8.40066
-7.9165
-7.91638
-7.91629
-7.91635
-7.91651
-7.42959
-7.42948
-7.42939
-7.42945
-7.4296
-6.94053
-6.94042
-6.94035
-6.9404
-6.94054
-6.44993
-6.44984
-6.44976
-6.44981
-6.44994
-5.95843
-5.95834
-5.95827
-5.95832
-5.95844
-5.46666
-5.46658
-5.46652
-5.46655
-5.46666
-4.97526
-4.97519
-4.97513
-4.97517
-4.97526
-4.48488
-4.48482
-4.48477
-4.4848
-4.48489
-3.99619
-3.99613
-3.99609
-3.99611
-3.99619
-3.50983
-3.50978
-3.50974
-3.50977
-3.50983
-3.02648
-3.02643
-3.0264
-3.02642
-3.02648
-2.54679
-2.54676
-2.54673
-2.54675
-2.5468
-2.07145
-2.07142
-2.0714
-2.07141
-2.07145
-1.60113
-1.6011
-1.60109
-1.6011
-1.60113
-1.13649
-1.13648
-1.13647
-1.13647
-1.13649
-0.678231
-0.678221
-0.678214
-0.678219
-0.678231
-0.227021
-0.227018
-0.227015
-0.227017
-0.227021
)
;

boundaryField
{
    BotWall
    {
        type            zeroGradient;
    }
    FreeStream
    {
        type            zeroGradient;
    }
    FrontNBack
    {
        type            empty;
    }
    LeftSide
    {
        type            symmetryPlane;
    }
    RightSide
    {
        type            symmetryPlane;
    }
    procBoundary3to2
    {
        type            processor;
        value           nonuniform List<scalar> 5(-12.1044 -12.1042 -12.104 -12.1041 -12.1044);
    }
}


// ************************************************************************* //
