/*--------------------------------*- C++ -*----------------------------------*\
| =========                 |                                                 |
| \\      /  F ield         | OpenFOAM: The Open Source CFD Toolbox           |
|  \\    /   O peration     | Version:  2.4.0                                 |
|   \\  /    A nd           | Web:      www.OpenFOAM.org                      |
|    \\/     M anipulation  |                                                 |
\*---------------------------------------------------------------------------*/
FoamFile
{
    version     2.0;
    format      ascii;
    class       volScalarField;
    location    "1.4";
    object      p_rgh;
}
// * * * * * * * * * * * * * * * * * * * * * * * * * * * * * * * * * * * * * //

dimensions      [1 -1 -2 0 0 0 0];

internalField   nonuniform List<scalar> 
125
(
-1.62693e-05
-1.62692e-05
-1.62686e-05
-1.62687e-05
-1.62674e-05
-1.62283e-05
-1.62282e-05
-1.62276e-05
-1.62277e-05
-1.62266e-05
-1.61869e-05
-1.61869e-05
-1.61863e-05
-1.61864e-05
-1.61854e-05
-1.61452e-05
-1.61451e-05
-1.61446e-05
-1.61446e-05
-1.61439e-05
-1.61031e-05
-1.6103e-05
-1.61024e-05
-1.61025e-05
-1.61018e-05
-1.60605e-05
-1.60604e-05
-1.60599e-05
-1.60599e-05
-1.60593e-05
-1.60174e-05
-1.60174e-05
-1.60169e-05
-1.60169e-05
-1.60163e-05
-1.59739e-05
-1.59738e-05
-1.59734e-05
-1.59734e-05
-1.59729e-05
-1.59299e-05
-1.59299e-05
-1.59294e-05
-1.59294e-05
-1.5929e-05
-1.58854e-05
-1.58854e-05
-1.5885e-05
-1.5885e-05
-1.58846e-05
-1.58405e-05
-1.58404e-05
-1.58401e-05
-1.584e-05
-1.58397e-05
-1.5795e-05
-1.5795e-05
-1.57946e-05
-1.57946e-05
-1.57943e-05
-1.57491e-05
-1.5749e-05
-1.57487e-05
-1.57487e-05
-1.57484e-05
-1.57026e-05
-1.57026e-05
-1.57023e-05
-1.57023e-05
-1.5702e-05
-1.56557e-05
-1.56556e-05
-1.56554e-05
-1.56553e-05
-1.56551e-05
-1.56082e-05
-1.56081e-05
-1.56079e-05
-1.56079e-05
-1.56077e-05
-1.55602e-05
-1.55601e-05
-1.55599e-05
-1.55599e-05
-1.55597e-05
-1.55116e-05
-1.55116e-05
-1.55114e-05
-1.55114e-05
-1.55113e-05
-1.54626e-05
-1.54626e-05
-1.54624e-05
-1.54624e-05
-1.54622e-05
-1.54129e-05
-1.54129e-05
-1.54128e-05
-1.54128e-05
-1.54127e-05
-1.53628e-05
-1.53628e-05
-1.53627e-05
-1.53627e-05
-1.53626e-05
-1.53121e-05
-1.53121e-05
-1.5312e-05
-1.5312e-05
-1.53119e-05
-1.52608e-05
-1.52608e-05
-1.52608e-05
-1.52608e-05
-1.52607e-05
-1.5209e-05
-1.5209e-05
-1.5209e-05
-1.5209e-05
-1.52089e-05
-1.51566e-05
-1.51566e-05
-1.51566e-05
-1.51566e-05
-1.51566e-05
)
;

boundaryField
{
    BotWall
    {
        type            fixedFluxPressure;
        gradient        nonuniform 0();
        value           nonuniform 0();
    }
    FreeStream
    {
        type            totalPressure;
        rho             rho;
        psi             none;
        gamma           1;
        p0              uniform 0;
        value           nonuniform List<scalar> 5(-1.51302e-05 -1.51303e-05 -1.51303e-05 -1.51303e-05 -1.51303e-05);
    }
    FrontNBack
    {
        type            empty;
    }
    LeftSide
    {
        type            symmetryPlane;
    }
    RightSide
    {
        type            symmetryPlane;
    }
    procBoundary3to2
    {
        type            processor;
        value           nonuniform List<scalar> 5(-1.63102e-05 -1.63102e-05 -1.63095e-05 -1.63096e-05 -1.63079e-05);
    }
}


// ************************************************************************* //
