/*--------------------------------*- C++ -*----------------------------------*\
| =========                 |                                                 |
| \\      /  F ield         | OpenFOAM: The Open Source CFD Toolbox           |
|  \\    /   O peration     | Version:  2.4.0                                 |
|   \\  /    A nd           | Web:      www.OpenFOAM.org                      |
|    \\/     M anipulation  |                                                 |
\*---------------------------------------------------------------------------*/
FoamFile
{
    version     2.0;
    format      ascii;
    class       volVectorField;
    location    "1.4";
    object      U;
}
// * * * * * * * * * * * * * * * * * * * * * * * * * * * * * * * * * * * * * //

dimensions      [0 1 -1 0 0 0 0];

internalField   nonuniform List<vector> 
125
(
(-1.25124e-09 -0.00182155 0)
(-2.14063e-09 -0.00182155 0)
(-9.55302e-10 -0.00182155 0)
(2.09569e-10 -0.00182155 0)
(3.96108e-10 -0.00182155 0)
(-1.21348e-09 -0.00182155 0)
(-2.08075e-09 -0.00182155 0)
(-9.41346e-10 -0.00182155 0)
(2.0856e-10 -0.00182155 0)
(3.97618e-10 -0.00182155 0)
(-1.174e-09 -0.00182155 0)
(-2.01819e-09 -0.00182155 0)
(-9.27078e-10 -0.00182155 0)
(2.03745e-10 -0.00182155 0)
(3.96054e-10 -0.00182155 0)
(-1.13305e-09 -0.00182155 0)
(-1.95337e-09 -0.00182155 0)
(-9.12582e-10 -0.00182155 0)
(1.95486e-10 -0.00182155 0)
(3.91707e-10 -0.00182155 0)
(-1.09091e-09 -0.00182155 0)
(-1.88674e-09 -0.00182155 0)
(-8.97941e-10 -0.00182155 0)
(1.84093e-10 -0.00182155 0)
(3.84821e-10 -0.00182155 0)
(-1.04785e-09 -0.00182155 0)
(-1.81874e-09 -0.00182155 0)
(-8.83241e-10 -0.00182155 0)
(1.6989e-10 -0.00182155 0)
(3.7565e-10 -0.00182155 0)
(-1.00415e-09 -0.00182155 0)
(-1.74981e-09 -0.00182155 0)
(-8.68566e-10 -0.00182155 0)
(1.53204e-10 -0.00182155 0)
(3.64447e-10 -0.00182155 0)
(-9.6008e-10 -0.00182155 0)
(-1.68041e-09 -0.00182155 0)
(-8.53998e-10 -0.00182155 0)
(1.34361e-10 -0.00182155 0)
(3.51469e-10 -0.00182155 0)
(-9.15932e-10 -0.00182155 0)
(-1.61098e-09 -0.00182155 0)
(-8.39621e-10 -0.00182155 0)
(1.13691e-10 -0.00182155 0)
(3.36971e-10 -0.00182155 0)
(-8.71988e-10 -0.00182155 0)
(-1.54199e-09 -0.00182155 0)
(-8.25516e-10 -0.00182155 0)
(9.15237e-11 -0.00182155 0)
(3.21209e-10 -0.00182155 0)
(-8.28535e-10 -0.00182155 0)
(-1.47388e-09 -0.00182155 0)
(-8.11762e-10 -0.00182155 0)
(6.81896e-11 -0.00182155 0)
(3.04437e-10 -0.00182155 0)
(-7.85863e-10 -0.00182155 0)
(-1.40713e-09 -0.00182155 0)
(-7.9844e-10 -0.00182155 0)
(4.40206e-11 -0.00182155 0)
(2.86913e-10 -0.00182155 0)
(-7.44265e-10 -0.00182155 0)
(-1.34218e-09 -0.00182155 0)
(-7.85626e-10 -0.00182155 0)
(1.93492e-11 -0.00182155 0)
(2.68893e-10 -0.00182155 0)
(-7.04034e-10 -0.00182155 0)
(-1.2795e-09 -0.00182155 0)
(-7.73397e-10 -0.00182155 0)
(-5.4907e-12 -0.00182155 0)
(2.50634e-10 -0.00182155 0)
(-6.65467e-10 -0.00182155 0)
(-1.21955e-09 -0.00182155 0)
(-7.61828e-10 -0.00182155 0)
(-3.01642e-11 -0.00182155 0)
(2.32395e-10 -0.00182155 0)
(-6.28863e-10 -0.00182155 0)
(-1.16278e-09 -0.00182155 0)
(-7.50991e-10 -0.00182155 0)
(-5.4335e-11 -0.00182155 0)
(2.14437e-10 -0.00182155 0)
(-5.94523e-10 -0.00182155 0)
(-1.10966e-09 -0.00182155 0)
(-7.40957e-10 -0.00182155 0)
(-7.76646e-11 -0.00182155 0)
(1.97021e-10 -0.00182155 0)
(-5.6275e-10 -0.00182155 0)
(-1.06063e-09 -0.00182155 0)
(-7.31796e-10 -0.00182155 0)
(-9.98126e-11 -0.00182155 0)
(1.80413e-10 -0.00182155 0)
(-5.33851e-10 -0.00182155 0)
(-1.01617e-09 -0.00182155 0)
(-7.23575e-10 -0.00182155 0)
(-1.20436e-10 -0.00182155 0)
(1.64882e-10 -0.00182155 0)
(-5.08136e-10 -0.00182155 0)
(-9.76729e-10 -0.00182155 0)
(-7.16359e-10 -0.00182155 0)
(-1.39186e-10 -0.00182155 0)
(1.50702e-10 -0.00182155 0)
(-4.85916e-10 -0.00182155 0)
(-9.42755e-10 -0.00182155 0)
(-7.10211e-10 -0.00182155 0)
(-1.55714e-10 -0.00182155 0)
(1.38152e-10 -0.00182155 0)
(-4.67509e-10 -0.00182155 0)
(-9.14705e-10 -0.00182155 0)
(-7.05192e-10 -0.00182155 0)
(-1.69662e-10 -0.00182155 0)
(1.27517e-10 -0.00182155 0)
(-4.53242e-10 -0.00182155 0)
(-8.93045e-10 -0.00182155 0)
(-7.01366e-10 -0.00182155 0)
(-1.80661e-10 -0.00182155 0)
(1.19099e-10 -0.00182155 0)
(-4.43467e-10 -0.00182155 0)
(-8.78276e-10 -0.00182155 0)
(-6.98817e-10 -0.00182155 0)
(-1.88327e-10 -0.00182155 0)
(1.13219e-10 -0.00182155 0)
(-4.38526e-10 -0.00182155 0)
(-8.70869e-10 -0.00182155 0)
(-6.97609e-10 -0.00182155 0)
(-1.92275e-10 -0.00182155 0)
(1.10202e-10 -0.00182155 0)
)
;

boundaryField
{
    BotWall
    {
        type            fixedValue;
        value           nonuniform 0();
    }
    FreeStream
    {
        type            zeroGradient;
    }
    FrontNBack
    {
        type            empty;
    }
    LeftSide
    {
        type            symmetryPlane;
    }
    RightSide
    {
        type            symmetryPlane;
    }
    procBoundary3to2
    {
        type            processor;
        value           nonuniform List<vector> 5((-1.287e-09 -0.00182155 0) (-2.19739e-09 -0.00182155 0) (-9.68873e-10 -0.00182155 0) (2.06477e-10 -0.00182155 0) (3.91296e-10 -0.00182155 0));
    }
}


// ************************************************************************* //
