/*--------------------------------*- C++ -*----------------------------------*\
| =========                 |                                                 |
| \\      /  F ield         | OpenFOAM: The Open Source CFD Toolbox           |
|  \\    /   O peration     | Version:  2.4.0                                 |
|   \\  /    A nd           | Web:      www.OpenFOAM.org                      |
|    \\/     M anipulation  |                                                 |
\*---------------------------------------------------------------------------*/
FoamFile
{
    version     2.0;
    format      ascii;
    class       volScalarField;
    location    "1.4";
    object      H;
}
// * * * * * * * * * * * * * * * * * * * * * * * * * * * * * * * * * * * * * //

dimensions      [0 2 -2 0 0 0 0];

internalField   nonuniform List<scalar> 
125
(
-11815.7
-11815.7
-11815.7
-11815.7
-11815.7
-10982.4
-10982.4
-10982.4
-10982.4
-10982.4
-10139.7
-10139.7
-10139.7
-10139.7
-10139.7
-9287.31
-9287.31
-9287.3
-9287.31
-9287.31
-8425.08
-8425.08
-8425.07
-8425.08
-8425.08
-7552.78
-7552.77
-7552.76
-7552.77
-7552.78
-6670.16
-6670.15
-6670.15
-6670.15
-6670.16
-5777.01
-5777
-5776.99
-5776.99
-5777.01
-4873.07
-4873.06
-4873.05
-4873.05
-4873.07
-3958.1
-3958.09
-3958.08
-3958.08
-3958.1
-3031.85
-3031.83
-3031.82
-3031.82
-3031.85
-2094.04
-2094.02
-2094.01
-2094.02
-2094.04
-1144.42
-1144.4
-1144.39
-1144.39
-1144.42
-24.5214
-24.5201
-24.5192
-24.5196
-24.5216
-18.3538
-18.3528
-18.3521
-18.3525
-18.354
-18.5369
-18.5359
-18.5353
-18.5356
-18.5371
-18.7144
-18.7134
-18.7128
-18.7131
-18.7146
-18.8861
-18.8851
-18.8845
-18.8848
-18.8862
-19.0517
-19.0507
-19.0501
-19.0504
-19.0518
-19.2109
-19.21
-19.2094
-19.2097
-19.2111
-19.3636
-19.3627
-19.3621
-19.3624
-19.3637
-19.5094
-19.5085
-19.5079
-19.5082
-19.5095
-19.6481
-19.6472
-19.6466
-19.6469
-19.6482
-19.7794
-19.7785
-19.7779
-19.7782
-19.7795
-19.9031
-19.9022
-19.9016
-19.9019
-19.9032
)
;

boundaryField
{
    BotWall
    {
        type            zeroGradient;
    }
    FreeStream
    {
        type            zeroGradient;
    }
    FrontNBack
    {
        type            empty;
    }
    LeftSide
    {
        type            symmetryPlane;
    }
    RightSide
    {
        type            symmetryPlane;
    }
    procBoundary0to1
    {
        type            processor;
        value           nonuniform List<scalar> 5(-20.0173 -20.0164 -20.0159 -20.0162 -20.0174);
    }
}


// ************************************************************************* //
