/*--------------------------------*- C++ -*----------------------------------*\
| =========                 |                                                 |
| \\      /  F ield         | OpenFOAM: The Open Source CFD Toolbox           |
|  \\    /   O peration     | Version:  2.4.0                                 |
|   \\  /    A nd           | Web:      www.OpenFOAM.org                      |
|    \\/     M anipulation  |                                                 |
\*---------------------------------------------------------------------------*/
FoamFile
{
    version     2.0;
    format      ascii;
    class       volScalarField;
    location    "0.2";
    object      H;
}
// * * * * * * * * * * * * * * * * * * * * * * * * * * * * * * * * * * * * * //

dimensions      [0 2 -2 0 0 0 0];

internalField   nonuniform List<scalar> 
8000
(
-11629.3
-10436.9
-9271.52
-8149.6
-7085.86
-6092.47
-5178.77
-4350.98
-3612.31
-2963.02
-2400.84
-1921.35
-1518.47
-1184.98
-913.018
-694.503
-521.512
-386.566
-282.835
-204.256
-145.593
-102.428
-71.1231
-48.7429
-32.9705
-22.0119
-14.505
-9.43445
-6.05711
-3.83868
-2.40149
-1.48314
-0.904289
-0.544349
-0.323531
-0.189867
-0.110027
-0.0629651
-0.0355855
-0.0198632
-0.0109511
-0.00596387
-0.00320834
-0.00170494
-0.000894732
-0.000463042
-0.000234879
-0.000113723
-4.60157e-05
-4.24191e-07
-11629.3
-10436.9
-9271.52
-8149.6
-7085.86
-6092.47
-5178.77
-4350.98
-3612.31
-2963.02
-2400.84
-1921.35
-1518.47
-1184.98
-913.018
-694.502
-521.511
-386.566
-282.835
-204.256
-145.593
-102.428
-71.123
-48.7428
-32.9704
-22.0119
-14.505
-9.43443
-6.0571
-3.83867
-2.40148
-1.48314
-0.904286
-0.544347
-0.32353
-0.189866
-0.110027
-0.0629648
-0.0355853
-0.0198631
-0.0109511
-0.00596384
-0.00320833
-0.00170493
-0.000894727
-0.000463039
-0.000234878
-0.000113722
-4.60154e-05
-4.24189e-07
-11629.3
-10436.9
-9271.52
-8149.6
-7085.86
-6092.47
-5178.77
-4350.98
-3612.31
-2963.02
-2400.84
-1921.35
-1518.47
-1184.98
-913.017
-694.502
-521.511
-386.566
-282.835
-204.256
-145.593
-102.428
-71.1229
-48.7428
-32.9704
-22.0119
-14.505
-9.43441
-6.05709
-3.83866
-2.40148
-1.48313
-0.904284
-0.544346
-0.323529
-0.189865
-0.110027
-0.0629646
-0.0355852
-0.019863
-0.010951
-0.00596382
-0.00320831
-0.00170493
-0.000894722
-0.000463036
-0.000234876
-0.000113721
-4.60151e-05
-4.24121e-07
-11629.3
-10436.9
-9271.52
-8149.6
-7085.86
-6092.47
-5178.77
-4350.98
-3612.31
-2963.02
-2400.84
-1921.35
-1518.47
-1184.98
-913.017
-694.502
-521.511
-386.565
-282.834
-204.256
-145.593
-102.428
-71.1229
-48.7427
-32.9704
-22.0118
-14.505
-9.4344
-6.05708
-3.83865
-2.40147
-1.48313
-0.904282
-0.544345
-0.323529
-0.189865
-0.110026
-0.0629644
-0.0355851
-0.019863
-0.010951
-0.0059638
-0.0032083
-0.00170492
-0.00089472
-0.000463035
-0.000234876
-0.000113721
-4.6015e-05
-4.24143e-07
-11629.3
-10436.9
-9271.52
-8149.6
-7085.86
-6092.47
-5178.77
-4350.98
-3612.31
-2963.02
-2400.84
-1921.35
-1518.47
-1184.98
-913.017
-694.502
-521.511
-386.565
-282.834
-204.256
-145.593
-102.428
-71.1228
-48.7427
-32.9704
-22.0118
-14.505
-9.4344
-6.05708
-3.83865
-2.40147
-1.48313
-0.904282
-0.544345
-0.323529
-0.189865
-0.110026
-0.0629645
-0.0355852
-0.019863
-0.010951
-0.00596382
-0.00320831
-0.00170493
-0.000894723
-0.000463037
-0.000234877
-0.000113721
-4.60153e-05
-4.24131e-07
-11629.3
-10436.9
-9271.52
-8149.6
-7085.86
-6092.47
-5178.77
-4350.98
-3612.31
-2963.02
-2400.84
-1921.35
-1518.47
-1184.98
-913.017
-694.502
-521.511
-386.565
-282.834
-204.256
-145.593
-102.428
-71.1229
-48.7428
-32.9704
-22.0119
-14.505
-9.43441
-6.05709
-3.83866
-2.40148
-1.48314
-0.904286
-0.544347
-0.32353
-0.189866
-0.110027
-0.0629649
-0.0355854
-0.0198632
-0.0109511
-0.00596388
-0.00320835
-0.00170495
-0.000894735
-0.000463044
-0.000234881
-0.000113723
-4.60162e-05
-4.24083e-07
-11629.3
-10436.9
-9271.52
-8149.6
-7085.86
-6092.47
-5178.77
-4350.98
-3612.31
-2963.02
-2400.84
-1921.35
-1518.47
-1184.98
-913.017
-694.502
-521.511
-386.566
-282.835
-204.256
-145.593
-102.428
-71.1231
-48.7429
-32.9705
-22.0119
-14.505
-9.43446
-6.05713
-3.83869
-2.4015
-1.48315
-0.904294
-0.544352
-0.323534
-0.189868
-0.110029
-0.0629659
-0.035586
-0.0198636
-0.0109513
-0.00596401
-0.00320843
-0.00170499
-0.000894761
-0.000463058
-0.000234888
-0.000113727
-4.6018e-05
-4.24206e-07
-11629.3
-10436.9
-9271.52
-8149.6
-7085.86
-6092.47
-5178.77
-4350.98
-3612.31
-2963.02
-2400.84
-1921.35
-1518.47
-1184.98
-913.018
-694.503
-521.512
-386.567
-282.835
-204.257
-145.593
-102.429
-71.1234
-48.7432
-32.9707
-22.0121
-14.5051
-9.43455
-6.05719
-3.83873
-2.40153
-1.48317
-0.904309
-0.544362
-0.32354
-0.189873
-0.110031
-0.0629676
-0.0355871
-0.0198642
-0.0109517
-0.00596424
-0.00320856
-0.00170507
-0.000894805
-0.000463083
-0.000234902
-0.000113735
-4.60211e-05
-4.24202e-07
-11629.3
-10436.9
-9271.52
-8149.6
-7085.86
-6092.47
-5178.77
-4350.99
-3612.31
-2963.02
-2400.84
-1921.35
-1518.47
-1184.98
-913.02
-694.505
-521.514
-386.568
-282.837
-204.258
-145.594
-102.429
-71.124
-48.7436
-32.9711
-22.0124
-14.5054
-9.4347
-6.0573
-3.83881
-2.40158
-1.48321
-0.904334
-0.544379
-0.323552
-0.18988
-0.110036
-0.0629705
-0.0355889
-0.0198653
-0.0109524
-0.00596463
-0.00320879
-0.0017052
-0.000894879
-0.000463124
-0.000234925
-0.000113747
-4.60263e-05
-4.2431e-07
-11629.3
-10436.9
-9271.52
-8149.6
-7085.86
-6092.47
-5178.77
-4350.99
-3612.31
-2963.02
-2400.85
-1921.36
-1518.47
-1184.98
-913.023
-694.508
-521.516
-386.57
-282.839
-204.26
-145.596
-102.431
-71.1249
-48.7444
-32.9716
-22.0128
-14.5057
-9.43494
-6.05748
-3.83894
-2.40167
-1.48327
-0.904376
-0.544407
-0.32357
-0.189892
-0.110043
-0.0629752
-0.0355918
-0.0198671
-0.0109534
-0.00596525
-0.00320915
-0.00170541
-0.000894998
-0.00046319
-0.000234961
-0.000113765
-4.60347e-05
-4.24289e-07
-11629.3
-10436.9
-9271.52
-8149.61
-7085.86
-6092.48
-5178.77
-4350.99
-3612.32
-2963.03
-2400.85
-1921.36
-1518.48
-1184.99
-913.028
-694.513
-521.521
-386.574
-282.842
-204.263
-145.598
-102.433
-71.1265
-48.7456
-32.9726
-22.0135
-14.5062
-9.43534
-6.05776
-3.83914
-2.40181
-1.48336
-0.904441
-0.544451
-0.323598
-0.18991
-0.110055
-0.0629825
-0.0355963
-0.0198698
-0.0109551
-0.00596622
-0.00320972
-0.00170573
-0.000895181
-0.000463293
-0.000235017
-0.000113795
-4.60475e-05
-4.24466e-07
-11629.3
-10436.9
-9271.53
-8149.61
-7085.86
-6092.48
-5178.78
-4351
-3612.32
-2963.04
-2400.86
-1921.37
-1518.49
-1185
-913.036
-694.52
-521.527
-386.58
-282.847
-204.267
-145.602
-102.436
-71.1289
-48.7475
-32.9741
-22.0147
-14.5071
-9.43595
-6.0582
-3.83945
-2.40203
-1.48351
-0.904541
-0.544517
-0.323642
-0.189938
-0.110073
-0.0629936
-0.0356031
-0.019874
-0.0109576
-0.00596769
-0.00321057
-0.00170622
-0.000895457
-0.000463447
-0.000235101
-0.000113838
-4.60668e-05
-4.24679e-07
-11629.3
-10436.9
-9271.53
-8149.61
-7085.87
-6092.49
-5178.79
-4351.01
-3612.33
-2963.05
-2400.87
-1921.38
-1518.5
-1185.01
-913.049
-694.532
-521.538
-386.59
-282.855
-204.274
-145.608
-102.44
-71.1326
-48.7504
-32.9763
-22.0164
-14.5083
-9.43687
-6.05886
-3.83992
-2.40236
-1.48374
-0.904692
-0.544617
-0.323707
-0.18998
-0.1101
-0.0630102
-0.0356134
-0.0198802
-0.0109613
-0.00596987
-0.00321184
-0.00170695
-0.000895867
-0.000463674
-0.000235225
-0.000113903
-4.60952e-05
-4.24992e-07
-11629.3
-10436.9
-9271.53
-8149.62
-7085.88
-6092.5
-5178.8
-4351.02
-3612.35
-2963.07
-2400.89
-1921.4
-1518.52
-1185.03
-913.068
-694.549
-521.554
-386.603
-282.867
-204.284
-145.616
-102.447
-71.1381
-48.7547
-32.9796
-22.0189
-14.5102
-9.43823
-6.05984
-3.84061
-2.40284
-1.48407
-0.904913
-0.544764
-0.323803
-0.190042
-0.110138
-0.0630345
-0.0356283
-0.0198892
-0.0109667
-0.00597304
-0.00321367
-0.001708
-0.00089646
-0.000464003
-0.000235404
-0.000113997
-4.61362e-05
-4.254e-07
-11629.3
-10437
-9271.54
-8149.62
-7085.89
-6092.51
-5178.82
-4351.04
-3612.38
-2963.1
-2400.92
-1921.43
-1518.55
-1185.06
-913.096
-694.575
-521.577
-386.624
-282.885
-204.299
-145.628
-102.457
-71.1461
-48.761
-32.9844
-22.0225
-14.5129
-9.4402
-6.06125
-3.8416
-2.40353
-1.48454
-0.905231
-0.544974
-0.32394
-0.19013
-0.110194
-0.0630691
-0.0356495
-0.019902
-0.0109743
-0.00597753
-0.00321628
-0.00170949
-0.000897298
-0.000464468
-0.000235657
-0.000114128
-4.61939e-05
-4.26022e-07
-11629.3
-10437
-9271.54
-8149.63
-7085.9
-6092.53
-5178.84
-4351.08
-3612.41
-2963.14
-2400.97
-1921.48
-1518.59
-1185.1
-913.135
-694.611
-521.609
-386.653
-282.91
-204.32
-145.646
-102.471
-71.1573
-48.7698
-32.9912
-22.0276
-14.5167
-9.44296
-6.06323
-3.843
-2.40449
-1.4852
-0.905673
-0.545267
-0.32413
-0.190252
-0.110271
-0.0631171
-0.0356789
-0.0199198
-0.0109849
-0.00598374
-0.00321987
-0.00171154
-0.00089845
-0.000465107
-0.000236004
-0.000114308
-4.62727e-05
-4.26824e-07
-11629.3
-10437
-9271.55
-8149.65
-7085.92
-6092.56
-5178.88
-4351.12
-3612.46
-2963.19
-2401.03
-1921.54
-1518.65
-1185.16
-913.19
-694.661
-521.655
-386.692
-282.944
-204.349
-145.67
-102.491
-71.1728
-48.7818
-33.0004
-22.0346
-14.5218
-9.44671
-6.06592
-3.84489
-2.4058
-1.48609
-0.906272
-0.545662
-0.324387
-0.190416
-0.110375
-0.0631815
-0.0357183
-0.0199436
-0.010999
-0.00599203
-0.00322466
-0.00171427
-0.000899984
-0.000465956
-0.000236464
-0.000114547
-4.63769e-05
-4.28019e-07
-11629.3
-10437
-9271.57
-8149.67
-7085.96
-6092.6
-5178.93
-4351.18
-3612.53
-2963.27
-2401.1
-1921.62
-1518.74
-1185.24
-913.263
-694.729
-521.715
-386.745
-282.99
-204.387
-145.701
-102.516
-71.1931
-48.7977
-33.0126
-22.0437
-14.5286
-9.45163
-6.06943
-3.84736
-2.40751
-1.48725
-0.907051
-0.546176
-0.324721
-0.190629
-0.110509
-0.0632648
-0.0357692
-0.0199742
-0.0110172
-0.00600269
-0.00323081
-0.00171776
-0.000901946
-0.00046704
-0.000237051
-0.000114851
-4.65091e-05
-4.29355e-07
-11629.3
-10437
-9271.58
-8149.7
-7086
-6092.66
-5179
-4351.26
-3612.62
-2963.36
-2401.21
-1921.72
-1518.84
-1185.34
-913.356
-694.814
-521.792
-386.813
-283.047
-204.436
-145.741
-102.549
-71.2188
-48.8177
-33.0279
-22.0552
-14.5371
-9.45779
-6.07383
-3.85044
-2.40964
-1.4887
-0.908018
-0.546812
-0.325133
-0.190892
-0.110674
-0.0633671
-0.0358317
-0.0200118
-0.0110395
-0.00601568
-0.00323829
-0.00172202
-0.000904326
-0.000468352
-0.000237759
-0.000115217
-4.66678e-05
-4.31047e-07
-11629.3
-10437
-9271.61
-8149.74
-7086.05
-6092.73
-5179.08
-4351.36
-3612.73
-2963.48
-2401.33
-1921.85
-1518.96
-1185.46
-913.47
-694.918
-521.885
-386.894
-283.117
-204.494
-145.789
-102.587
-71.2495
-48.8416
-33.0461
-22.0689
-14.5471
-9.46506
-6.079
-3.85407
-2.41214
-1.49039
-0.909146
-0.547552
-0.325612
-0.191197
-0.110865
-0.0634851
-0.0359035
-0.0200548
-0.0110649
-0.0060305
-0.0032468
-0.00172683
-0.000907016
-0.00046983
-0.000238555
-0.000115626
-4.68444e-05
-4.32884e-07
-9.70511e-08
-8.09502e-08
-6.75701e-08
-5.63462e-08
-4.69285e-08
-3.90895e-08
-3.25152e-08
-2.70328e-08
-2.2438e-08
-1.86521e-08
-1.54574e-08
-1.28024e-08
-1.05989e-08
-8.77103e-09
-7.25193e-09
-5.97429e-09
-4.93689e-09
-4.06345e-09
-3.36529e-09
-2.75125e-09
-2.26949e-09
-1.86076e-09
-1.5091e-09
-1.25588e-09
-1.00113e-09
-8.47792e-10
-6.74353e-10
-5.76433e-10
-4.73466e-10
-3.68213e-10
-2.8363e-10
-2.61874e-10
-1.97207e-10
-1.65638e-10
-1.41662e-10
-1.26389e-10
-5.44916e-11
-5.2764e-11
-6.67014e-11
-4.14384e-11
-6.03614e-11
-4.8997e-11
-4.12759e-11
-5.86201e-11
-3.75582e-11
-1.18989e-11
6.4547e-13
2.19341e-12
8.60783e-13
6.30946e-14
-9.7074e-08
-8.0969e-08
-6.75625e-08
-5.63519e-08
-4.69567e-08
-3.90994e-08
-3.25043e-08
-2.70501e-08
-2.24554e-08
-1.86508e-08
-1.54484e-08
-1.28133e-08
-1.06065e-08
-8.76958e-09
-7.24931e-09
-5.97703e-09
-4.94118e-09
-4.06455e-09
-3.3652e-09
-2.74668e-09
-2.26945e-09
-1.86552e-09
-1.51382e-09
-1.25815e-09
-1.00093e-09
-8.49655e-10
-6.79124e-10
-5.6734e-10
-4.66493e-10
-3.67883e-10
-2.91785e-10
-2.63815e-10
-1.98207e-10
-1.60271e-10
-1.53425e-10
-1.26889e-10
-5.41973e-11
-5.24434e-11
-4.44599e-11
-6.43732e-11
-3.99647e-11
-5.96099e-11
-5.13968e-11
-4.87957e-11
-3.90264e-11
-1.20791e-11
8.44237e-13
2.27053e-12
8.64367e-13
5.72104e-14
-9.70308e-08
-8.10127e-08
-6.7592e-08
-5.63624e-08
-4.69614e-08
-3.91134e-08
-3.25165e-08
-2.70331e-08
-2.24825e-08
-1.86492e-08
-1.54499e-08
-1.28268e-08
-1.05953e-08
-8.77877e-09
-7.25291e-09
-5.98822e-09
-4.92752e-09
-4.07782e-09
-3.3614e-09
-2.74929e-09
-2.26997e-09
-1.86157e-09
-1.51269e-09
-1.26174e-09
-9.98562e-10
-8.50422e-10
-6.72699e-10
-5.74748e-10
-4.636e-10
-3.77048e-10
-2.89381e-10
-2.64642e-10
-1.93032e-10
-1.56606e-10
-1.5558e-10
-1.27394e-10
-4.65406e-11
-5.23494e-11
-6.67275e-11
-4.62758e-11
-6.16569e-11
-3.82287e-11
-6.11868e-11
-3.82411e-11
-4.43313e-11
-1.28151e-11
6.98162e-13
2.29079e-12
8.76154e-13
4.80291e-14
-9.70193e-08
-8.09829e-08
-6.75749e-08
-5.63661e-08
-4.69639e-08
-3.91182e-08
-3.25124e-08
-2.70296e-08
-2.24875e-08
-1.86566e-08
-1.54556e-08
-1.28279e-08
-1.06079e-08
-8.76869e-09
-7.26067e-09
-5.99143e-09
-4.92562e-09
-4.07829e-09
-3.36879e-09
-2.74669e-09
-2.2678e-09
-1.86304e-09
-1.51374e-09
-1.26066e-09
-1.00567e-09
-8.48293e-10
-6.69663e-10
-5.77068e-10
-4.7355e-10
-3.64074e-10
-2.95756e-10
-2.56887e-10
-2.02438e-10
-1.45896e-10
-1.64028e-10
-1.29647e-10
-5.64211e-11
-4.66446e-11
-6.17382e-11
-5.60976e-11
-4.38973e-11
-4.64441e-11
-5.44437e-11
-3.78709e-11
-4.90977e-11
-1.36036e-11
5.02171e-13
2.20489e-12
8.70354e-13
6.99612e-14
-9.70184e-08
-8.09727e-08
-6.75609e-08
-5.63576e-08
-4.69631e-08
-3.91115e-08
-3.25133e-08
-2.70366e-08
-2.24953e-08
-1.86627e-08
-1.54551e-08
-1.28195e-08
-1.06016e-08
-8.78694e-09
-7.25197e-09
-6.00496e-09
-4.93128e-09
-4.08095e-09
-3.36825e-09
-2.74986e-09
-2.26051e-09
-1.86908e-09
-1.51197e-09
-1.26903e-09
-1.00697e-09
-8.49465e-10
-6.76153e-10
-5.67802e-10
-4.66483e-10
-3.68044e-10
-2.96267e-10
-2.631e-10
-1.95037e-10
-1.65899e-10
-1.39727e-10
-1.34672e-10
-5.31571e-11
-5.56144e-11
-5.71505e-11
-5.60862e-11
-5.72078e-11
-3.40197e-11
-4.71875e-11
-4.83966e-11
-4.64032e-11
-1.42558e-11
2.4689e-13
2.22284e-12
9.18835e-13
8.40149e-14
-9.69129e-08
-8.08927e-08
-6.75624e-08
-5.62969e-08
-4.69153e-08
-3.90789e-08
-3.2524e-08
-2.70375e-08
-2.24674e-08
-1.86614e-08
-1.54591e-08
-1.28207e-08
-1.0603e-08
-8.78915e-09
-7.25373e-09
-6.00624e-09
-4.93537e-09
-4.08853e-09
-3.36362e-09
-2.75492e-09
-2.26109e-09
-1.86591e-09
-1.51103e-09
-1.26824e-09
-1.00787e-09
-8.48568e-10
-6.78829e-10
-5.68631e-10
-4.71705e-10
-3.61921e-10
-3.05087e-10
-2.52374e-10
-2.06566e-10
-1.47688e-10
-1.64273e-10
-1.22799e-10
-5.85503e-11
-4.56526e-11
-6.72241e-11
-4.62561e-11
-5.775e-11
-3.47221e-11
-5.30232e-11
-5.18389e-11
-4.1586e-11
-1.37443e-11
1.11044e-13
2.09121e-12
9.03026e-13
1.09699e-13
-9.68556e-08
-8.07325e-08
-6.73782e-08
-5.61992e-08
-4.68375e-08
-3.9028e-08
-3.24607e-08
-2.69971e-08
-2.24091e-08
-1.86388e-08
-1.54564e-08
-1.28168e-08
-1.05907e-08
-8.77782e-09
-7.26384e-09
-5.99313e-09
-4.93351e-09
-4.08835e-09
-3.36425e-09
-2.75716e-09
-2.26251e-09
-1.86302e-09
-1.52344e-09
-1.26646e-09
-9.99461e-10
-8.53933e-10
-6.72683e-10
-5.77419e-10
-4.74105e-10
-3.68347e-10
-2.95845e-10
-2.51616e-10
-2.0852e-10
-1.51908e-10
-1.6156e-10
-1.24684e-10
-5.37933e-11
-5.26019e-11
-5.39774e-11
-5.03242e-11
-5.95523e-11
-3.8281e-11
-5.98259e-11
-3.78079e-11
-4.77107e-11
-1.38428e-11
2.55984e-13
2.23928e-12
9.32754e-13
8.89428e-14
-9.65797e-08
-8.03855e-08
-6.71398e-08
-5.59844e-08
-4.66615e-08
-3.88782e-08
-3.23644e-08
-2.69059e-08
-2.23856e-08
-1.85647e-08
-1.54153e-08
-1.27588e-08
-1.06017e-08
-8.75575e-09
-7.24135e-09
-5.97417e-09
-4.93597e-09
-4.06953e-09
-3.3628e-09
-2.74996e-09
-2.26592e-09
-1.86793e-09
-1.51457e-09
-1.26177e-09
-1.00835e-09
-8.55327e-10
-6.8126e-10
-5.68014e-10
-4.67657e-10
-3.61429e-10
-3.06195e-10
-2.5106e-10
-2.1093e-10
-1.43401e-10
-1.59949e-10
-1.3138e-10
-5.04099e-11
-4.83656e-11
-6.72391e-11
-4.7844e-11
-6.01825e-11
-4.06665e-11
-5.65634e-11
-3.85796e-11
-4.59541e-11
-1.38767e-11
2.89643e-13
2.21569e-12
9.08212e-13
8.06455e-14
-9.61979e-08
-7.98504e-08
-6.66775e-08
-5.56228e-08
-4.63865e-08
-3.86476e-08
-3.21639e-08
-2.67521e-08
-2.22634e-08
-1.8469e-08
-1.53335e-08
-1.27162e-08
-1.05344e-08
-8.73147e-09
-7.19773e-09
-5.95797e-09
-4.91455e-09
-4.066e-09
-3.3432e-09
-2.73976e-09
-2.26386e-09
-1.85995e-09
-1.51142e-09
-1.25894e-09
-1.00456e-09
-8.48835e-10
-6.70637e-10
-5.7707e-10
-4.71873e-10
-3.68249e-10
-2.88965e-10
-2.66148e-10
-1.97803e-10
-1.4375e-10
-1.68854e-10
-1.24653e-10
-6.14262e-11
-5.13855e-11
-4.48467e-11
-6.63625e-11
-4.56186e-11
-4.64286e-11
-5.46122e-11
-3.83338e-11
-4.91782e-11
-1.36185e-11
5.70467e-13
2.26999e-12
8.871e-13
6.35028e-14
-9.54549e-08
-7.89855e-08
-6.60013e-08
-5.50525e-08
-4.59381e-08
-3.82622e-08
-3.18544e-08
-2.65249e-08
-2.20642e-08
-1.83249e-08
-1.52018e-08
-1.26191e-08
-1.04332e-08
-8.65652e-09
-7.16879e-09
-5.91916e-09
-4.88246e-09
-4.02993e-09
-3.30948e-09
-2.75214e-09
-2.24242e-09
-1.84739e-09
-1.50884e-09
-1.24977e-09
-1.0008e-09
-8.38982e-10
-6.77452e-10
-5.7086e-10
-4.65241e-10
-3.74032e-10
-2.95258e-10
-2.50989e-10
-2.04623e-10
-1.53841e-10
-1.55935e-10
-1.26019e-10
-4.86145e-11
-6.31621e-11
-5.50738e-11
-4.86468e-11
-4.92454e-11
-5.8679e-11
-3.36561e-11
-6.19452e-11
-3.96501e-11
-1.19824e-11
6.6777e-13
2.19673e-12
8.74632e-13
7.05703e-14
-9.44682e-08
-7.76833e-08
-6.49322e-08
-5.4198e-08
-4.52476e-08
-3.77019e-08
-3.14201e-08
-2.61336e-08
-2.17592e-08
-1.80817e-08
-1.50133e-08
-1.24622e-08
-1.03395e-08
-8.54483e-09
-7.07994e-09
-5.85844e-09
-4.82522e-09
-4.00126e-09
-3.27089e-09
-2.7045e-09
-2.23753e-09
-1.82717e-09
-1.51469e-09
-1.22443e-09
-9.91658e-10
-8.37802e-10
-6.68385e-10
-5.66958e-10
-4.59983e-10
-3.78321e-10
-2.73339e-10
-2.69954e-10
-1.87932e-10
-1.66885e-10
-1.42004e-10
-1.28232e-10
-6.32263e-11
-5.50837e-11
-4.35373e-11
-6.49033e-11
-4.00314e-11
-5.96529e-11
-3.99815e-11
-5.82511e-11
-3.80908e-11
-1.22686e-11
5.39091e-13
2.19434e-12
8.79417e-13
7.38309e-14
-9.29464e-08
-7.57956e-08
-6.34102e-08
-5.2979e-08
-4.42275e-08
-3.68887e-08
-3.07734e-08
-2.56048e-08
-2.13542e-08
-1.77387e-08
-1.47212e-08
-1.22414e-08
-1.01563e-08
-8.40748e-09
-6.97681e-09
-5.7545e-09
-4.75299e-09
-3.92487e-09
-3.26464e-09
-2.64809e-09
-2.20501e-09
-1.80079e-09
-1.50421e-09
-1.2088e-09
-9.8858e-10
-8.16699e-10
-6.60005e-10
-5.67603e-10
-4.69746e-10
-3.58239e-10
-2.85693e-10
-2.56493e-10
-1.95652e-10
-1.51411e-10
-1.51522e-10
-1.2714e-10
-4.78275e-11
-5.87797e-11
-5.11995e-11
-6.54558e-11
-3.46033e-11
-5.78484e-11
-4.05558e-11
-4.92814e-11
-4.51665e-11
-1.33404e-11
6.34436e-13
2.25397e-12
8.62545e-13
5.13414e-14
-9.07836e-08
-7.31939e-08
-6.13021e-08
-5.12506e-08
-4.28524e-08
-3.5781e-08
-2.98482e-08
-2.48707e-08
-2.07353e-08
-1.72646e-08
-1.43442e-08
-1.1931e-08
-9.90974e-09
-8.21375e-09
-6.79402e-09
-5.62896e-09
-4.66348e-09
-3.84622e-09
-3.1717e-09
-2.63224e-09
-2.13439e-09
-1.77952e-09
-1.46453e-09
-1.18935e-09
-9.87033e-10
-7.91642e-10
-6.82338e-10
-5.17236e-10
-4.64502e-10
-3.69709e-10
-2.70039e-10
-2.63552e-10
-1.84538e-10
-1.51866e-10
-1.57317e-10
-1.17276e-10
-5.39638e-11
-4.53727e-11
-6.68138e-11
-4.73384e-11
-4.97363e-11
-6.28193e-11
-3.1529e-11
-5.85626e-11
-3.75316e-11
-1.16423e-11
7.94682e-13
2.17046e-12
8.13829e-13
4.85543e-14
-8.7685e-08
-6.97456e-08
-5.8473e-08
-4.89416e-08
-4.09817e-08
-3.4273e-08
-2.8621e-08
-2.39268e-08
-1.9931e-08
-1.66167e-08
-1.3821e-08
-1.15181e-08
-9.56857e-09
-7.93547e-09
-6.59785e-09
-5.45589e-09
-4.51179e-09
-3.74571e-09
-3.08445e-09
-2.54256e-09
-2.11678e-09
-1.71961e-09
-1.39829e-09
-1.18869e-09
-9.76942e-10
-7.69948e-10
-6.55842e-10
-5.03572e-10
-4.56996e-10
-3.5425e-10
-2.74418e-10
-2.58041e-10
-1.71243e-10
-1.7117e-10
-1.46774e-10
-1.08013e-10
-5.91581e-11
-5.20215e-11
-5.38823e-11
-4.39269e-11
-5.8133e-11
-4.89686e-11
-4.91562e-11
-4.79017e-11
-3.87439e-11
-1.11405e-11
1.07965e-12
2.12611e-12
7.50296e-13
3.21243e-14
-8.36618e-08
-6.53864e-08
-5.48866e-08
-4.6069e-08
-3.86334e-08
-3.23413e-08
-2.70605e-08
-2.26669e-08
-1.89223e-08
-1.5791e-08
-1.31664e-08
-1.09628e-08
-9.13519e-09
-7.59155e-09
-6.31313e-09
-5.23419e-09
-4.33389e-09
-3.59374e-09
-2.97177e-09
-2.44422e-09
-2.03027e-09
-1.6649e-09
-1.39957e-09
-1.11342e-09
-9.29641e-10
-7.69229e-10
-6.25914e-10
-4.85695e-10
-4.39553e-10
-3.57643e-10
-2.69792e-10
-2.575e-10
-1.6627e-10
-1.50901e-10
-1.71766e-10
-8.73183e-11
-5.43847e-11
-5.39935e-11
-5.68853e-11
-4.77041e-11
-5.63734e-11
-4.57633e-11
-4.15603e-11
-5.03404e-11
-3.93172e-11
-1.06105e-11
1.26859e-12
2.03666e-12
6.78203e-13
1.9406e-14
-7.85646e-08
-6.01871e-08
-5.06651e-08
-4.26051e-08
-3.57907e-08
-3.00571e-08
-2.51767e-08
-2.11337e-08
-1.76769e-08
-1.47946e-08
-1.2354e-08
-1.0306e-08
-8.59552e-09
-7.16465e-09
-5.94925e-09
-4.95909e-09
-4.10997e-09
-3.3998e-09
-2.83286e-09
-2.33887e-09
-1.92958e-09
-1.60507e-09
-1.30942e-09
-1.08505e-09
-8.90057e-10
-7.60269e-10
-5.83686e-10
-4.66994e-10
-4.01999e-10
-3.68199e-10
-2.50235e-10
-2.66939e-10
-1.45771e-10
-1.71126e-10
-1.46198e-10
-7.89046e-11
-5.18684e-11
-6.40672e-11
-4.33526e-11
-5.57632e-11
-5.00588e-11
-4.83919e-11
-5.29252e-11
-3.94119e-11
-3.85768e-11
-9.4804e-12
1.56491e-12
1.9603e-12
6.03985e-13
-7.4326e-16
-7.25621e-08
-5.44627e-08
-4.59182e-08
-3.8708e-08
-3.2602e-08
-2.74467e-08
-2.30714e-08
-1.93694e-08
-1.62492e-08
-1.36035e-08
-1.14212e-08
-9.54905e-09
-7.95883e-09
-6.66173e-09
-5.54937e-09
-4.60549e-09
-3.85757e-09
-3.19122e-09
-2.65083e-09
-2.20863e-09
-1.80978e-09
-1.50609e-09
-1.24339e-09
-1.00759e-09
-8.74886e-10
-6.94786e-10
-5.69954e-10
-4.65943e-10
-3.69983e-10
-3.38919e-10
-2.64385e-10
-2.31803e-10
-1.42016e-10
-1.63252e-10
-1.56861e-10
-6.33711e-11
-4.96058e-11
-7.01311e-11
-4.34919e-11
-4.64027e-11
-4.72488e-11
-4.81043e-11
-5.17741e-11
-4.87735e-11
-3.14314e-11
-6.47535e-12
1.89138e-12
1.74935e-12
4.9008e-13
-1.58421e-14
-6.59728e-08
-4.84815e-08
-4.10021e-08
-3.46438e-08
-2.92261e-08
-2.46781e-08
-2.07942e-08
-1.75004e-08
-1.47223e-08
-1.23478e-08
-1.03783e-08
-8.70047e-09
-7.29559e-09
-6.07822e-09
-5.10129e-09
-4.24068e-09
-3.5427e-09
-2.95623e-09
-2.45223e-09
-2.01808e-09
-1.7148e-09
-1.38389e-09
-1.15905e-09
-9.73936e-10
-7.76912e-10
-6.67961e-10
-5.30103e-10
-4.69801e-10
-3.51657e-10
-2.91598e-10
-2.56843e-10
-2.05236e-10
-1.55274e-10
-1.51841e-10
-1.39513e-10
-5.53379e-11
-5.67351e-11
-5.53067e-11
-5.52467e-11
-5.43368e-11
-3.56615e-11
-6.02357e-11
-5.3315e-11
-4.87731e-11
-1.98049e-11
-1.94984e-12
2.32063e-12
1.40418e-12
2.98607e-13
-5.17733e-14
-5.92597e-08
-4.27185e-08
-3.62154e-08
-3.06632e-08
-2.59409e-08
-2.19335e-08
-1.85162e-08
-1.56237e-08
-1.31721e-08
-1.10774e-08
-9.31844e-09
-7.83611e-09
-6.55661e-09
-5.5119e-09
-4.60656e-09
-3.86163e-09
-3.23278e-09
-2.68093e-09
-2.23986e-09
-1.85723e-09
-1.53873e-09
-1.29728e-09
-1.08821e-09
-8.75324e-10
-7.58088e-10
-5.8412e-10
-4.71747e-10
-4.13733e-10
-3.76315e-10
-2.65397e-10
-2.55713e-10
-1.69357e-10
-1.53895e-10
-1.60377e-10
-1.05686e-10
-5.01329e-11
-6.36093e-11
-4.51597e-11
-6.4969e-11
-3.88191e-11
-5.83138e-11
-4.01412e-11
-6.09519e-11
-4.18755e-11
-1.55816e-11
-6.331e-13
2.31481e-12
1.16614e-12
1.86835e-13
-6.43969e-14
-5.2938e-08
-3.75424e-08
-3.18824e-08
-2.70464e-08
-2.29124e-08
-1.93791e-08
-1.64002e-08
-1.38565e-08
-1.17003e-08
-9.86765e-09
-8.31976e-09
-6.98113e-09
-5.87697e-09
-4.93369e-09
-4.1363e-09
-3.47707e-09
-2.89553e-09
-2.42519e-09
-2.02708e-09
-1.70779e-09
-1.37892e-09
-1.18763e-09
-9.82626e-10
-7.81587e-10
-6.81823e-10
-5.72402e-10
-4.71728e-10
-3.53074e-10
-3.20395e-10
-2.61502e-10
-2.31474e-10
-1.42588e-10
-1.64827e-10
-1.61424e-10
-7.0467e-11
-4.75528e-11
-5.45239e-11
-6.60262e-11
-3.87491e-11
-5.71703e-11
-4.82773e-11
-4.73794e-11
-4.932e-11
-4.05795e-11
-1.19217e-11
1.08223e-12
2.30231e-12
8.31598e-13
3.77514e-14
-7.98054e-14
-6.17702e-14
-6.50426e-14
-3.89867e-14
-1.37661e-14
5.69764e-16
5.06725e-15
4.25109e-15
1.97555e-15
2.17411e-16
-5.60421e-16
-6.29831e-16
-4.02466e-16
-1.58156e-16
-6.88788e-18
5.00065e-17
5.07395e-17
3.15674e-17
1.3069e-17
1.99415e-18
-2.33725e-18
-2.80936e-18
-1.87317e-18
-8.6139e-19
-2.20797e-19
5.68044e-20
1.16874e-19
8.89179e-20
4.6139e-20
1.58604e-20
1.04735e-21
-3.5712e-21
-3.51276e-21
-2.16176e-21
-9.63293e-22
-2.58855e-22
4.38792e-23
1.19631e-22
1.00371e-22
5.84816e-23
2.39694e-23
3.93765e-24
-4.16688e-24
-5.31321e-24
-3.6682e-24
-1.69258e-24
-3.66247e-25
2.19105e-25
3.21571e-25
2.21786e-25
9.65953e-26
1.55365e-26
-1.68772e-26
-1.97865e-26
-1.20461e-26
-4.32858e-27
-2.41809e-29
1.30302e-27
1.116e-27
5.5019e-28
1.2765e-28
-5.71529e-29
-8.49956e-29
-5.31325e-29
-1.86461e-29
2.40414e-31
5.55232e-30
4.37868e-30
1.91019e-30
2.76998e-31
-3.16964e-31
-3.24593e-31
-1.64433e-31
-3.78263e-32
1.57887e-32
2.2266e-32
1.26271e-32
3.57133e-33
-6.6823e-34
-1.43427e-33
-8.85744e-34
-2.79901e-34
2.26235e-35
8.74253e-35
5.72229e-35
1.9109e-35
-5.65313e-37
-5.07035e-36
-3.4096e-36
-1.15181e-36
1.53942e-38
2.81009e-37
1.87039e-37
6.12427e-38
-1.67574e-39
-1.48923e-38
-9.40156e-39
-2.83881e-39
2.16116e-40
7.49545e-40
4.28911e-40
1.11451e-40
-1.99773e-41
-3.525e-41
-1.74443e-41
-3.44956e-42
1.4049e-42
1.5098e-42
6.11957e-43
6.51252e-44
-7.86714e-44
-5.68398e-44
-1.73387e-44
7.67394e-46
3.54988e-45
1.78752e-45
3.33044e-46
-1.341e-46
-1.27161e-46
-4.29776e-47
-7.01838e-49
6.7163e-48
3.45066e-48
6.17883e-49
-2.45037e-49
-2.13019e-49
-6.28341e-50
2.93474e-51
1.06834e-50
4.4013e-51
4.23028e-52
-4.38517e-52
-2.49283e-52
-4.63205e-53
1.41948e-53
1.20688e-53
3.08878e-54
-3.06311e-55
-5.1346e-55
-1.63589e-55
-4.62934e-58
1.9531e-56
7.41052e-57
4.77911e-58
-6.73071e-58
-2.96753e-58
-3.12365e-59
2.12746e-59
1.06996e-59
1.4204e-60
-6.24999e-61
-3.51413e-61
-5.28318e-62
1.73231e-62
1.05963e-62
1.69096e-63
-4.60229e-64
-2.94865e-64
-4.75225e-65
1.18784e-65
7.59352e-66
1.17993e-66
-2.99697e-67
-1.80998e-67
-2.57667e-68
7.35908e-69
3.98093e-69
4.86188e-70
-1.7336e-70
-8.02341e-71
-7.5901e-72
3.8401e-72
1.46486e-72
8.66837e-74
-7.82903e-74
-2.3813e-74
-3.3128e-76
1.4394e-75
3.35881e-76
-1.56573e-77
-2.34069e-77
-3.93525e-78
5.43423e-79
3.29958e-79
3.47707e-80
-1.11047e-80
-3.93351e-81
-1.55223e-82
1.70719e-82
3.81561e-83
-1.58379e-84
-2.07986e-84
-2.77393e-85
4.83641e-86
2.01513e-86
1.11488e-87
-6.7984e-88
-1.50546e-88
4.87299e-90
6.68395e-90
7.80956e-91
-1.41801e-91
-4.87099e-92
-1.55435e-93
1.51205e-93
2.53538e-94
-1.81299e-95
-1.06704e-95
-7.50303e-97
2.4381e-97
5.24751e-98
-1.11475e-99
-1.67028e-99
-1.58716e-100
2.90052e-101
7.53832e-102
3.98376e-104
-1.92641e-103
-2.11207e-104
2.63447e-105
7.79335e-106
1.45058e-107
-1.66806e-107
-1.92257e-108
1.88816e-109
5.89921e-110
1.36244e-111
-1.09502e-111
-1.23366e-112
1.09084e-113
3.29229e-114
6.94847e-116
-5.45909e-116
-5.63463e-117
5.07126e-118
1.35496e-118
1.92833e-120
-2.05659e-120
-1.82832e-121
1.85449e-122
4.09362e-123
1.46338e-125
-5.80048e-125
-4.16315e-126
5.17681e-127
9.00579e-128
-9.26314e-130
-1.21104e-129
-6.47096e-131
1.07507e-131
1.42625e-132
-3.92091e-134
-1.84976e-134
-6.43298e-136
1.63079e-136
1.60014e-137
-7.90193e-139
-2.04258e-139
-3.26327e-141
1.7848e-141
1.24012e-142
-9.9102e-144
-1.60999e-144
5.66546e-147
1.39672e-146
6.32277e-148
-8.28651e-149
-8.91592e-150
2.24772e-151
7.75322e-152
1.85348e-153
-4.74405e-154
-3.3862e-155
1.78057e-156
3.02495e-157
1.13048e-159
-1.88038e-159
-8.41212e-161
8.0177e-162
8.18467e-163
-1.42093e-164
-5.17616e-165
-1.19757e-166
2.33542e-167
1.49982e-168
-6.47438e-170
-9.86482e-171
-3.63389e-173
4.58371e-173
1.76733e-174
-1.47888e-175
-1.28776e-176
2.10182e-178
6.1515e-179
1.13955e-180
-2.11697e-181
-1.12313e-182
4.62032e-184
5.65487e-185
3.73788e-188
-2.08259e-187
-6.46324e-14
-6.58981e-14
-3.87702e-14
-1.32858e-14
9.05212e-16
5.17372e-15
4.20196e-15
1.87192e-15
1.26851e-16
-6.13156e-16
-6.4824e-16
-4.00571e-16
-1.48983e-16
1.81335e-18
5.54392e-17
5.30408e-17
3.19253e-17
1.26191e-17
1.43254e-18
-2.72897e-18
-2.99894e-18
-1.92569e-18
-8.50012e-19
-1.93478e-19
7.86962e-20
1.28724e-19
9.31757e-20
4.64868e-20
1.49159e-20
8.40754e-23
-4.17453e-21
-3.78478e-21
-2.23641e-21
-9.52773e-22
-2.2675e-22
7.12345e-23
1.36008e-22
1.07592e-22
6.02045e-23
2.32447e-23
2.63064e-24
-5.20639e-24
-5.87906e-24
-3.85783e-24
-1.67959e-24
-2.88616e-25
2.88007e-25
3.59716e-25
2.33963e-25
9.50504e-26
1.00945e-26
-2.12887e-26
-2.19682e-26
-1.25601e-26
-4.08183e-27
3.56117e-28
1.55603e-27
1.21522e-27
5.5641e-28
1.02208e-28
-8.06062e-29
-9.69418e-29
-5.5992e-29
-1.74178e-29
2.10849e-30
6.71636e-30
4.7738e-30
1.88814e-30
1.4422e-31
-4.16524e-31
-3.65401e-31
-1.68201e-31
-2.92252e-32
2.35412e-32
2.5864e-32
1.32479e-32
3.05805e-33
-1.2268e-33
-1.71701e-33
-9.48169e-34
-2.51404e-34
6.00915e-35
1.07524e-34
6.22236e-35
1.76017e-35
-2.91164e-36
-6.36768e-36
-3.74792e-36
-1.07207e-36
1.52889e-37
3.57022e-37
2.06634e-37
5.67787e-38
-9.22489e-39
-1.89217e-38
-1.03661e-38
-2.5717e-39
6.03466e-40
9.41339e-40
4.67978e-40
9.52753e-41
-3.83788e-41
-4.33236e-41
-1.86263e-41
-2.52688e-42
2.19972e-42
1.80142e-42
6.28386e-43
1.81858e-44
-1.08989e-43
-6.53177e-44
-1.64749e-44
2.81469e-45
4.52534e-45
1.95291e-45
2.4934e-46
-2.07737e-46
-1.51526e-46
-4.31147e-47
3.32325e-48
8.78192e-48
3.82756e-48
4.7138e-49
-3.76371e-49
-2.53304e-49
-6.17082e-50
9.58257e-51
1.35859e-50
4.74386e-51
1.55727e-52
-6.05868e-52
-2.84786e-52
-3.84463e-53
2.23736e-53
1.44369e-53
2.98757e-54
-6.54599e-55
-6.4022e-55
-1.70009e-55
1.2672e-56
2.53564e-56
8.05077e-57
3.40742e-59
-9.10271e-58
-3.32585e-58
-1.76521e-59
2.99903e-59
1.22718e-59
1.03868e-60
-9.17519e-61
-4.10069e-61
-4.27861e-62
2.63681e-62
1.25181e-62
1.4361e-63
-7.19493e-64
-3.51007e-64
-4.10705e-65
1.87944e-65
9.0648e-66
1.01284e-66
-4.71622e-67
-2.15571e-67
-2.135e-68
1.13352e-68
4.70388e-69
3.70486e-70
-2.58442e-70
-9.34542e-71
-4.7001e-72
5.50862e-72
1.66868e-72
2.01117e-74
-1.0786e-73
-2.62384e-74
1.04847e-75
1.9039e-75
3.51381e-76
-4.09125e-77
-2.96997e-77
-3.75275e-78
9.45147e-79
4.00226e-79
2.63021e-80
-1.65623e-80
-4.51817e-81
2.02058e-83
2.32572e-82
4.0495e-83
-4.19056e-84
-2.6415e-84
-2.50817e-85
7.84298e-86
2.38685e-86
3.96892e-88
-9.51341e-88
-1.62422e-88
1.41572e-89
8.53614e-90
6.88761e-91
-2.25589e-91
-5.7036e-92
3.49279e-94
2.06577e-93
2.60857e-94
-3.59902e-95
-1.31986e-95
-4.88515e-97
3.56227e-97
5.79828e-98
-3.86058e-99
-2.15369e-99
-1.34879e-100
4.53226e-101
8.68655e-102
-2.74487e-103
-2.56363e-103
-1.97317e-104
4.37523e-105