/*--------------------------------*- C++ -*----------------------------------*\
| =========                 |                                                 |
| \\      /  F ield         | OpenFOAM: The Open Source CFD Toolbox           |
|  \\    /   O peration     | Version:  2.4.0                                 |
|   \\  /    A nd           | Web:      www.OpenFOAM.org                      |
|    \\/     M anipulation  |                                                 |
\*---------------------------------------------------------------------------*/
FoamFile
{
    version     2.0;
    format      ascii;
    class       volVectorField;
    location    "0.2";
    object      U;
}
// * * * * * * * * * * * * * * * * * * * * * * * * * * * * * * * * * * * * * //

dimensions      [0 1 -1 0 0 0 0];

internalField   nonuniform List<vector> 
8000
(
(3.57441e-13 -0.000342793 0)
(4.60535e-12 -0.00101431 0)
(1.41377e-11 -0.00167177 0)
(2.94128e-11 -0.00231519 0)
(5.07463e-11 -0.00294459 0)
(7.85068e-11 -0.00355999 0)
(1.12998e-10 -0.00416141 0)
(1.54528e-10 -0.00474886 0)
(2.03322e-10 -0.00532237 0)
(2.596e-10 -0.00588194 0)
(3.23519e-10 -0.0064276 0)
(3.95225e-10 -0.00695937 0)
(4.74813e-10 -0.00747726 0)
(5.62368e-10 -0.00798129 0)
(6.57931e-10 -0.00847147 0)
(7.61537e-10 -0.00894783 0)
(8.73175e-10 -0.00941037 0)
(9.92843e-10 -0.00985912 0)
(1.12048e-09 -0.0102941 0)
(1.25606e-09 -0.0107153 0)
(1.39949e-09 -0.0111228 0)
(1.55069e-09 -0.0115165 0)
(1.70955e-09 -0.0118965 0)
(1.87598e-09 -0.0122628 0)
(2.04982e-09 -0.0126154 0)
(2.23097e-09 -0.0129543 0)
(2.41925e-09 -0.0132796 0)
(2.61455e-09 -0.0135912 0)
(2.81664e-09 -0.0138892 0)
(3.02544e-09 -0.0141736 0)
(3.24065e-09 -0.0144443 0)
(3.46222e-09 -0.0147014 0)
(3.68979e-09 -0.0149449 0)
(3.92337e-09 -0.0151749 0)
(4.16248e-09 -0.0153912 0)
(4.4072e-09 -0.015594 0)
(4.65696e-09 -0.0157833 0)
(4.9119e-09 -0.015959 0)
(5.17133e-09 -0.0161211 0)
(5.43549e-09 -0.0162697 0)
(5.70351e-09 -0.0164048 0)
(5.97577e-09 -0.0165263 0)
(6.25121e-09 -0.0166343 0)
(6.53018e-09 -0.0167288 0)
(6.81118e-09 -0.0168098 0)
(7.09505e-09 -0.0168773 0)
(7.38349e-09 -0.0169313 0)
(7.68281e-09 -0.0169718 0)
(7.98704e-09 -0.0169987 0)
(8.19667e-09 -0.0170122 0)
(-8.47975e-13 -0.000342793 0)
(-7.70874e-12 -0.00101431 0)
(-2.04626e-11 -0.00167177 0)
(-3.80507e-11 -0.00231519 0)
(-5.93183e-11 -0.00294459 0)
(-8.31973e-11 -0.00355999 0)
(-1.08836e-10 -0.00416141 0)
(-1.35395e-10 -0.00474886 0)
(-1.62156e-10 -0.00532237 0)
(-1.88404e-10 -0.00588194 0)
(-2.13532e-10 -0.0064276 0)
(-2.36938e-10 -0.00695937 0)
(-2.58115e-10 -0.00747726 0)
(-2.76557e-10 -0.00798129 0)
(-2.91847e-10 -0.00847147 0)
(-3.0356e-10 -0.00894783 0)
(-3.11356e-10 -0.00941037 0)
(-3.14874e-10 -0.00985913 0)
(-3.13846e-10 -0.0102941 0)
(-3.07961e-10 -0.0107153 0)
(-2.97013e-10 -0.0111228 0)
(-2.80726e-10 -0.0115165 0)
(-2.58954e-10 -0.0118965 0)
(-2.31439e-10 -0.0122628 0)
(-1.9809e-10 -0.0126154 0)
(-1.58657e-10 -0.0129544 0)
(-1.13099e-10 -0.0132796 0)
(-6.11599e-11 -0.0135912 0)
(-2.85121e-12 -0.0138892 0)
(6.21074e-11 -0.0141736 0)
(1.33647e-10 -0.0144443 0)
(2.12087e-10 -0.0147014 0)
(2.97296e-10 -0.0149449 0)
(3.8965e-10 -0.0151749 0)
(4.88944e-10 -0.0153912 0)
(5.95628e-10 -0.015594 0)
(7.09413e-10 -0.0157833 0)
(8.30839e-10 -0.015959 0)
(9.59513e-10 -0.0161211 0)
(1.09609e-09 -0.0162697 0)
(1.24005e-09 -0.0164048 0)
(1.39219e-09 -0.0165263 0)
(1.55182e-09 -0.0166343 0)
(1.7198e-09 -0.0167288 0)
(1.89505e-09 -0.0168098 0)
(2.07887e-09 -0.0168773 0)
(2.27263e-09 -0.0169313 0)
(2.4823e-09 -0.0169718 0)
(2.70352e-09 -0.0169988 0)
(2.85904e-09 -0.0170122 0)
(-2.07229e-12 -0.000342793 0)
(-2.03827e-11 -0.00101431 0)
(-5.60343e-11 -0.00167177 0)
(-1.07304e-10 -0.00231519 0)
(-1.72089e-10 -0.00294459 0)
(-2.48555e-10 -0.00355999 0)
(-3.35232e-10 -0.00416141 0)
(-4.30713e-10 -0.00474886 0)
(-5.33744e-10 -0.00532237 0)
(-6.43105e-10 -0.00588194 0)
(-7.57705e-10 -0.0064276 0)
(-8.765e-10 -0.00695937 0)
(-9.98547e-10 -0.00747726 0)
(-1.12295e-09 -0.00798128 0)
(-1.2489e-09 -0.00847147 0)
(-1.37562e-09 -0.00894783 0)
(-1.5024e-09 -0.00941037 0)
(-1.62859e-09 -0.00985912 0)
(-1.75356e-09 -0.0102941 0)
(-1.87674e-09 -0.0107153 0)
(-1.99757e-09 -0.0111228 0)
(-2.11554e-09 -0.0115165 0)
(-2.23016e-09 -0.0118965 0)
(-2.34097e-09 -0.0122628 0)
(-2.44751e-09 -0.0126154 0)
(-2.54935e-09 -0.0129544 0)
(-2.64604e-09 -0.0132796 0)
(-2.73719e-09 -0.0135912 0)
(-2.82234e-09 -0.0138892 0)
(-2.90109e-09 -0.0141736 0)
(-2.97299e-09 -0.0144443 0)
(-3.03759e-09 -0.0147014 0)
(-3.09445e-09 -0.0149449 0)
(-3.14303e-09 -0.0151749 0)
(-3.18289e-09 -0.0153912 0)
(-3.21338e-09 -0.015594 0)
(-3.23404e-09 -0.0157833 0)
(-3.24408e-09 -0.015959 0)
(-3.24304e-09 -0.0161211 0)
(-3.22987e-09 -0.0162697 0)
(-3.20418e-09 -0.0164048 0)
(-3.16452e-09 -0.0165263 0)
(-3.11069e-09 -0.0166343 0)
(-3.04076e-09 -0.0167288 0)
(-2.95501e-09 -0.0168098 0)
(-2.85037e-09 -0.0168773 0)
(-2.7249e-09 -0.0169313 0)
(-2.56985e-09 -0.0169718 0)
(-2.39092e-09 -0.0169988 0)
(-2.26142e-09 -0.0170122 0)
(-3.10077e-12 -0.000342793 0)
(-3.02234e-11 -0.00101431 0)
(-8.315e-11 -0.00167177 0)
(-1.59506e-10 -0.00231519 0)
(-2.56365e-10 -0.00294459 0)
(-3.7121e-10 -0.00355999 0)
(-5.02013e-10 -0.00416141 0)
(-6.46848e-10 -0.00474886 0)
(-8.03971e-10 -0.00532236 0)
(-9.71694e-10 -0.00588194 0)
(-1.14849e-09 -0.0064276 0)
(-1.33288e-09 -0.00695937 0)
(-1.52355e-09 -0.00747725 0)
(-1.71921e-09 -0.00798128 0)
(-1.91869e-09 -0.00847147 0)
(-2.12087e-09 -0.00894782 0)
(-2.32471e-09 -0.00941037 0)
(-2.52921e-09 -0.00985912 0)
(-2.73345e-09 -0.0102941 0)
(-2.93651e-09 -0.0107153 0)
(-3.13756e-09 -0.0111228 0)
(-3.33576e-09 -0.0115165 0)
(-3.53033e-09 -0.0118965 0)
(-3.72044e-09 -0.0122628 0)
(-3.90538e-09 -0.0126154 0)
(-4.08432e-09 -0.0129543 0)
(-4.25655e-09 -0.0132796 0)
(-4.42121e-09 -0.0135912 0)
(-4.57759e-09 -0.0138892 0)
(-4.72475e-09 -0.0141736 0)
(-4.86195e-09 -0.0144443 0)
(-4.98815e-09 -0.0147014 0)
(-5.10253e-09 -0.0149449 0)
(-5.20391e-09 -0.0151749 0)
(-5.29136e-09 -0.0153912 0)
(-5.36352e-09 -0.015594 0)
(-5.41928e-09 -0.0157833 0)
(-5.45707e-09 -0.015959 0)
(-5.47556e-09 -0.0161211 0)
(-5.47287e-09 -0.0162697 0)
(-5.44739e-09 -0.0164048 0)
(-5.39687e-09 -0.0165263 0)
(-5.31938e-09 -0.0166343 0)
(-5.2124e-09 -0.0167288 0)
(-5.0739e-09 -0.0168098 0)
(-4.89995e-09 -0.0168773 0)
(-4.68286e-09 -0.0169313 0)
(-4.41032e-09 -0.0169718 0)
(-4.09185e-09 -0.0169988 0)
(-3.87001e-09 -0.0170122 0)
(-2.94061e-12 -0.000342793 0)
(-2.84964e-11 -0.00101431 0)
(-7.80698e-11 -0.00167177 0)
(-1.4919e-10 -0.00231519 0)
(-2.3881e-10 -0.00294459 0)
(-3.44248e-10 -0.00355999 0)
(-4.63275e-10 -0.00416141 0)
(-5.93732e-10 -0.00474886 0)
(-7.33629e-10 -0.00532236 0)
(-8.81014e-10 -0.00588194 0)
(-1.03408e-09 -0.0064276 0)
(-1.19105e-09 -0.00695936 0)
(-1.3503e-09 -0.00747725 0)
(-1.51022e-09 -0.00798128 0)
(-1.66929e-09 -0.00847146 0)
(-1.82606e-09 -0.00894782 0)
(-1.97911e-09 -0.00941037 0)
(-2.1271e-09 -0.00985912 0)
(-2.26867e-09 -0.0102941 0)
(-2.40256e-09 -0.0107153 0)
(-2.52745e-09 -0.0111228 0)
(-2.64215e-09 -0.0115165 0)
(-2.74533e-09 -0.0118965 0)
(-2.83586e-09 -0.0122628 0)
(-2.91234e-09 -0.0126154 0)
(-2.9737e-09 -0.0129543 0)
(-3.01842e-09 -0.0132796 0)
(-3.04548e-09 -0.0135912 0)
(-3.0532e-09 -0.0138892 0)
(-3.04059e-09 -0.0141736 0)
(-3.00576e-09 -0.0144443 0)
(-2.94779e-09 -0.0147014 0)
(-2.86445e-09 -0.0149449 0)
(-2.75493e-09 -0.0151749 0)
(-2.61659e-09 -0.0153912 0)
(-2.44876e-09 -0.015594 0)
(-2.24831e-09 -0.0157833 0)
(-2.01472e-09 -0.015959 0)
(-1.74429e-09 -0.0161211 0)
(-1.4367e-09 -0.0162697 0)
(-1.0876e-09 -0.0164048 0)
(-6.9677e-10 -0.0165263 0)
(-2.59416e-10 -0.0166343 0)
(2.24305e-10 -0.0167288 0)
(7.58803e-10 -0.0168098 0)
(1.34662e-09 -0.0168773 0)
(2.00328e-09 -0.0169313 0)
(2.74714e-09 -0.0169718 0)
(3.54434e-09 -0.0169988 0)
(4.06959e-09 -0.0170122 0)
(-1.45169e-12 -0.000342793 0)
(-1.33249e-11 -0.00101431 0)
(-3.49663e-11 -0.00167177 0)
(-6.41954e-11 -0.00231519 0)
(-9.84642e-11 -0.00294459 0)
(-1.35383e-10 -0.00355999 0)
(-1.72825e-10 -0.00416141 0)
(-2.08709e-10 -0.00474886 0)
(-2.4104e-10 -0.00532236 0)
(-2.67886e-10 -0.00588193 0)
(-2.87341e-10 -0.0064276 0)
(-2.97611e-10 -0.00695936 0)
(-2.96863e-10 -0.00747725 0)
(-2.83421e-10 -0.00798128 0)
(-2.55495e-10 -0.00847146 0)
(-2.11512e-10 -0.00894782 0)
(-1.4969e-10 -0.00941037 0)
(-6.8546e-11 -0.00985912 0)
(3.37357e-11 -0.0102941 0)
(1.58555e-10 -0.0107153 0)
(3.07808e-10 -0.0111228 0)
(4.82812e-10 -0.0115165 0)
(6.85597e-10 -0.0118965 0)
(9.17389e-10 -0.0122628 0)
(1.18042e-09 -0.0126154 0)
(1.47579e-09 -0.0129543 0)
(1.80601e-09 -0.0132796 0)
(2.17205e-09 -0.0135912 0)
(2.57675e-09 -0.0138892 0)
(3.02089e-09 -0.0141736 0)
(3.50777e-09 -0.0144443 0)
(4.03788e-09 -0.0147014 0)
(4.6151e-09 -0.0149449 0)
(5.23954e-09 -0.0151749 0)
(5.91577e-09 -0.0153913 0)
(6.64343e-09 -0.015594 0)
(7.42785e-09 -0.0157833 0)
(8.26813e-09 -0.015959 0)
(9.17042e-09 -0.0161211 0)
(1.01332e-08 -0.0162697 0)
(1.11635e-08 -0.0164048 0)
(1.22593e-08 -0.0165263 0)
(1.34279e-08 -0.0166344 0)
(1.46664e-08 -0.0167289 0)
(1.59805e-08 -0.0168099 0)
(1.73726e-08 -0.0168773 0)
(1.887e-08 -0.0169313 0)
(2.0505e-08 -0.0169718 0)
(2.22005e-08 -0.0169988 0)
(2.32965e-08 -0.0170122 0)
(7.51133e-13 -0.000342793 0)
(1.17651e-11 -0.00101431 0)
(3.80599e-11 -0.00167177 0)
(8.17542e-11 -0.00231519 0)
(1.44801e-10 -0.00294459 0)
(2.29236e-10 -0.00355999 0)
(3.37047e-10 -0.00416141 0)
(4.70187e-10 -0.00474886 0)
(6.30545e-10 -0.00532236 0)
(8.19921e-10 -0.00588193 0)
(1.04014e-09 -0.0064276 0)
(1.29288e-09 -0.00695936 0)
(1.57993e-09 -0.00747725 0)
(1.90291e-09 -0.00798128 0)
(2.26362e-09 -0.00847147 0)
(2.66359e-09 -0.00894782 0)
(3.10471e-09 -0.00941037 0)
(3.58847e-09 -0.00985912 0)
(4.11684e-09 -0.0102941 0)
(4.69133e-09 -0.0107153 0)
(5.31407e-09 -0.0111228 0)
(5.98653e-09 -0.0115165 0)
(6.71111e-09 -0.0118965 0)
(7.48927e-09 -0.0122628 0)
(8.32371e-09 -0.0126154 0)
(9.21587e-09 -0.0129544 0)
(1.01689e-08 -0.0132796 0)
(1.11841e-08 -0.0135912 0)
(1.22652e-08 -0.0138892 0)
(1.34135e-08 -0.0141736 0)
(1.46332e-08 -0.0144443 0)
(1.59256e-08 -0.0147014 0)
(1.72957e-08 -0.014945 0)
(1.87443e-08 -0.0151749 0)
(2.02778e-08 -0.0153913 0)
(2.18965e-08 -0.0155941 0)
(2.36078e-08 -0.0157833 0)
(2.54117e-08 -0.015959 0)
(2.7317e-08 -0.0161211 0)
(2.93231e-08 -0.0162697 0)
(3.14405e-08 -0.0164048 0)
(3.36682e-08 -0.0165263 0)
(3.60176e-08 -0.0166344 0)
(3.84861e-08 -0.0167289 0)
(4.10838e-08 -0.0168099 0)
(4.38165e-08 -0.0168774 0)
(4.67388e-08 -0.0169313 0)
(4.99129e-08 -0.0169718 0)
(5.32162e-08 -0.0169988 0)
(5.53799e-08 -0.0170123 0)
(4.93342e-12 -0.000342793 0)
(5.76866e-11 -0.00101431 0)
(1.70759e-10 -0.00167177 0)
(3.45906e-10 -0.00231519 0)
(5.83795e-10 -0.00294459 0)
(8.85661e-10 -0.00355999 0)
(1.25305e-09 -0.00416141 0)
(1.68755e-09 -0.00474886 0)
(2.19065e-09 -0.00532236 0)
(2.76379e-09 -0.00588194 0)
(3.40841e-09 -0.0064276 0)
(4.1259e-09 -0.00695937 0)
(4.91774e-09 -0.00747726 0)
(5.78531e-09 -0.00798129 0)
(6.73019e-09 -0.00847147 0)
(7.7538e-09 -0.00894783 0)
(8.85789e-09 -0.00941038 0)
(1.0044e-08 -0.00985913 0)
(1.1314e-08 -0.0102941 0)
(1.26697e-08 -0.0107153 0)
(1.41133e-08 -0.0111228 0)
(1.56466e-08 -0.0115165 0)
(1.72725e-08 -0.0118965 0)
(1.89927e-08 -0.0122628 0)
(2.08108e-08 -0.0126154 0)
(2.27288e-08 -0.0129544 0)
(2.47507e-08 -0.0132796 0)
(2.6879e-08 -0.0135913 0)
(2.91184e-08 -0.0138892 0)
(3.14716e-08 -0.0141736 0)
(3.39444e-08 -0.0144443 0)
(3.65396e-08 -0.0147014 0)
(3.92644e-08 -0.014945 0)
(4.21214e-08 -0.0151749 0)
(4.51197e-08 -0.0153913 0)
(4.82619e-08 -0.0155941 0)
(5.15589e-08 -0.0157833 0)
(5.5013e-08 -0.015959 0)
(5.86377e-08 -0.0161212 0)
(6.24349e-08 -0.0162698 0)
(6.64212e-08 -0.0164048 0)
(7.05979e-08 -0.0165264 0)
(7.49846e-08 -0.0166344 0)
(7.95789e-08 -0.0167289 0)
(8.43994e-08 -0.0168099 0)
(8.94571e-08 -0.0168774 0)
(9.48539e-08 -0.0169314 0)
(1.00705e-07 -0.0169719 0)
(1.06824e-07 -0.0169989 0)
(1.10893e-07 -0.0170123 0)
(1.2662e-11 -0.000342794 0)
(1.41547e-10 -0.00101431 0)
(4.11935e-10 -0.00167177 0)
(8.24328e-10 -0.00231519 0)
(1.37651e-09 -0.0029446 0)
(2.06772e-09 -0.00356 0)
(2.8983e-09 -0.00416142 0)
(3.86872e-09 -0.00474887 0)
(4.97945e-09 -0.00532237 0)
(6.2309e-09 -0.00588195 0)
(7.62363e-09 -0.00642761 0)
(9.15814e-09 -0.00695938 0)
(1.08352e-08 -0.00747727 0)
(1.26555e-08 -0.0079813 0)
(1.46201e-08 -0.00847149 0)
(1.67299e-08 -0.00894785 0)
(1.89864e-08 -0.0094104 0)
(2.13909e-08 -0.00985915 0)
(2.39452e-08 -0.0102941 0)
(2.66511e-08 -0.0107153 0)
(2.95111e-08 -0.0111228 0)
(3.25273e-08 -0.0115165 0)
(3.57031e-08 -0.0118965 0)
(3.90409e-08 -0.0122629 0)
(4.25452e-08 -0.0126155 0)
(4.6219e-08 -0.0129544 0)
(5.00678e-08 -0.0132797 0)
(5.40952e-08 -0.0135913 0)
(5.83081e-08 -0.0138893 0)
(6.27105e-08 -0.0141736 0)
(6.73112e-08 -0.0144444 0)
(7.21147e-08 -0.0147015 0)
(7.71317e-08 -0.014945 0)
(8.23671e-08 -0.015175 0)
(8.78343e-08 -0.0153913 0)
(9.35384e-08 -0.0155941 0)
(9.94957e-08 -0.0157834 0)
(1.05711e-07 -0.0159591 0)
(1.12205e-07 -0.0161212 0)
(1.18983e-07 -0.0162698 0)
(1.26068e-07 -0.0164049 0)
(1.33466e-07 -0.0165265 0)
(1.41206e-07 -0.0166345 0)
(1.49285e-07 -0.016729 0)
(1.57733e-07 -0.01681 0)
(1.66566e-07 -0.0168775 0)
(1.75957e-07 -0.0169315 0)
(1.86102e-07 -0.016972 0)
(1.96712e-07 -0.016999 0)
(2.03817e-07 -0.0170124 0)
(2.59645e-11 -0.000342795 0)
(2.85334e-10 -0.00101431 0)
(8.24461e-10 -0.00167178 0)
(1.64113e-09 -0.0023152 0)
(2.72751e-09 -0.00294461 0)
(4.07882e-09 -0.00356001 0)
(5.69274e-09 -0.00416143 0)
(7.5673e-09 -0.00474889 0)
(9.7007e-09 -0.00532239 0)
(1.20911e-08 -0.00588197 0)
(1.4737e-08 -0.00642764 0)
(1.76369e-08 -0.00695941 0)
(2.079e-08 -0.0074773 0)
(2.41953e-08 -0.00798133 0)
(2.78525e-08 -0.00847152 0)
(3.17612e-08 -0.00894789 0)
(3.5922e-08 -0.00941044 0)
(4.03353e-08 -0.00985919 0)
(4.50023e-08 -0.0102942 0)
(4.99243e-08 -0.0107154 0)
(5.51037e-08 -0.0111229 0)
(6.05426e-08 -0.0115166 0)
(6.62446e-08 -0.0118966 0)
(7.22128e-08 -0.0122629 0)
(7.84524e-08 -0.0126155 0)
(8.49675e-08 -0.0129545 0)
(9.1765e-08 -0.0132797 0)
(9.88499e-08 -0.0135914 0)
(1.06232e-07 -0.0138893 0)
(1.13916e-07 -0.0141737 0)
(1.21915e-07 -0.0144444 0)
(1.30235e-07 -0.0147016 0)
(1.38891e-07 -0.0149451 0)
(1.47892e-07 -0.0151751 0)
(1.57255e-07 -0.0153914 0)
(1.6699e-07 -0.0155942 0)
(1.77118e-07 -0.0157835 0)
(1.8765e-07 -0.0159592 0)
(1.98612e-07 -0.0161213 0)
(2.10015e-07 -0.0162699 0)
(2.21893e-07 -0.016405 0)
(2.34254e-07 -0.0165266 0)
(2.47142e-07 -0.0166346 0)
(2.60551e-07 -0.0167291 0)
(2.74525e-07 -0.0168101 0)
(2.89089e-07 -0.0168776 0)
(3.04518e-07 -0.0169316 0)
(3.21128e-07 -0.0169721 0)
(3.38471e-07 -0.0169991 0)
(3.50121e-07 -0.0170126 0)
(4.81055e-11 -0.000342797 0)
(5.2278e-10 -0.00101432 0)
(1.50383e-09 -0.00167179 0)
(2.98365e-09 -0.00231522 0)
(4.94424e-09 -0.00294463 0)
(7.37336e-09 -0.00356004 0)
(1.02635e-08 -0.00416146 0)
(1.36079e-08 -0.00474892 0)
(1.74004e-08 -0.00532243 0)
(2.16346e-08 -0.00588201 0)
(2.6305e-08 -0.00642768 0)
(3.14064e-08 -0.00695946 0)
(3.69343e-08 -0.00747735 0)
(4.28846e-08 -0.00798139 0)
(4.9254e-08 -0.00847158 0)
(5.60396e-08 -0.00894795 0)
(6.32394e-08 -0.00941051 0)
(7.08519e-08 -0.00985927 0)
(7.88766e-08 -0.0102942 0)
(8.73134e-08 -0.0107155 0)
(9.61635e-08 -0.0111229 0)
(1.05428e-07 -0.0115167 0)
(1.15111e-07 -0.0118967 0)
(1.25215e-07 -0.012263 0)
(1.35746e-07 -0.0126156 0)
(1.46708e-07 -0.0129546 0)
(1.5811e-07 -0.0132798 0)
(1.69958e-07 -0.0135915 0)
(1.82264e-07 -0.0138895 0)
(1.95036e-07 -0.0141738 0)
(2.08289e-07 -0.0144446 0)
(2.22033e-07 -0.0147017 0)
(2.36288e-07 -0.0149452 0)
(2.51064e-07 -0.0151752 0)
(2.66388e-07 -0.0153916 0)
(2.82271e-07 -0.0155944 0)
(2.98745e-07 -0.0157836 0)
(3.15822e-07 -0.0159593 0)
(3.33544e-07 -0.0161215 0)
(3.5192e-07 -0.0162701 0)
(3.71004e-07 -0.0164052 0)
(3.90804e-07 -0.0165268 0)
(4.11384e-07 -0.0166348 0)
(4.32734e-07 -0.0167293 0)
(4.54916e-07 -0.0168104 0)
(4.77966e-07 -0.0168779 0)
(5.02309e-07 -0.0169319 0)
(5.28432e-07 -0.0169724 0)
(5.55646e-07 -0.0169994 0)
(5.73936e-07 -0.0170129 0)
(8.3447e-11 -0.000342801 0)
(9.00358e-10 -0.00101433 0)
(2.58223e-09 -0.00167181 0)
(5.11187e-09 -0.00231525 0)
(8.45403e-09 -0.00294466 0)
(1.25836e-08 -0.00356008 0)
(1.74837e-08 -0.00416151 0)
(2.31393e-08 -0.00474898 0)
(2.9536e-08 -0.00532249 0)
(3.66596e-08 -0.00588208 0)
(4.44976e-08 -0.00642776 0)
(5.30376e-08 -0.00695954 0)
(6.22689e-08 -0.00747745 0)
(7.21814e-08 -0.00798149 0)
(8.27665e-08 -0.00847169 0)
(9.40162e-08 -0.00894806 0)
(1.05924e-07 -0.00941062 0)
(1.18484e-07 -0.00985939 0)
(1.31693e-07 -0.0102944 0)
(1.45547e-07 -0.0107156 0)
(1.60046e-07 -0.0111231 0)
(1.75187e-07 -0.0115168 0)
(1.90974e-07 -0.0118968 0)
(2.07408e-07 -0.0122632 0)
(2.24494e-07 -0.0126158 0)
(2.42237e-07 -0.0129547 0)
(2.60647e-07 -0.01328 0)
(2.7973e-07 -0.0135917 0)
(2.995e-07 -0.0138897 0)
(3.19968e-07 -0.014174 0)
(3.41152e-07 -0.0144448 0)
(3.63066e-07 -0.0147019 0)
(3.85735e-07 -0.0149455 0)
(4.09173e-07 -0.0151754 0)
(4.33414e-07 -0.0153918 0)
(4.58474e-07 -0.0155946 0)
(4.84396e-07 -0.0157839 0)
(5.11197e-07 -0.0159596 0)
(5.38932e-07 -0.0161218 0)
(5.67615e-07 -0.0162704 0)
(5.97318e-07 -0.0164055 0)
(6.28052e-07 -0.0165271 0)
(6.59908e-07 -0.0166351 0)
(6.92866e-07 -0.0167297 0)
(7.27013e-07 -0.0168107 0)
(7.62397e-07 -0.0168782 0)
(7.99657e-07 -0.0169322 0)
(8.39519e-07 -0.0169728 0)
(8.80946e-07 -0.0169998 0)
(9.08771e-07 -0.0170133 0)
(1.37808e-10 -0.000342808 0)
(1.47904e-09 -0.00101435 0)
(4.23258e-09 -0.00167184 0)
(8.36529e-09 -0.00231529 0)
(1.38142e-08 -0.00294472 0)
(2.05332e-08 -0.00356015 0)
(2.84902e-08 -0.00416159 0)
(3.7656e-08 -0.00474907 0)
(4.80029e-08 -0.0053226 0)
(5.95038e-08 -0.0058822 0)
(7.2134e-08 -0.00642789 0)
(8.58697e-08 -0.00695968 0)
(1.0069e-07 -0.00747759 0)
(1.16573e-07 -0.00798165 0)
(1.33503e-07 -0.00847186 0)
(1.51463e-07 -0.00894824 0)
(1.70438e-07 -0.00941081 0)
(1.90415e-07 -0.00985959 0)
(2.11385e-07 -0.0102946 0)
(2.33338e-07 -0.0107158 0)
(2.56268e-07 -0.0111233 0)
(2.80169e-07 -0.0115171 0)
(3.05041e-07 -0.0118971 0)
(3.30882e-07 -0.0122634 0)
(3.57696e-07 -0.0126161 0)
(3.85485e-07 -0.012955 0)
(4.14259e-07 -0.0132803 0)
(4.44025e-07 -0.013592 0)
(4.74799e-07 -0.01389 0)
(5.0659e-07 -0.0141743 0)
(5.39424e-07 -0.0144451 0)
(5.73314e-07 -0.0147023 0)
(6.08292e-07 -0.0149458 0)
(6.44377e-07 -0.0151758 0)
(6.81611e-07 -0.0153922 0)
(7.20013e-07 -0.015595 0)
(7.59642e-07 -0.0157843 0)
(8.00515e-07 -0.01596 0)
(8.42708e-07 -0.0161222 0)
(8.86235e-07 -0.0162708 0)
(9.31196e-07 -0.016406 0)
(9.776e-07 -0.0165276 0)
(1.02557e-06 -0.0166356 0)
(1.07507e-06 -0.0167302 0)
(1.12623e-06 -0.0168112 0)
(1.17909e-06 -0.0168788 0)
(1.23461e-06 -0.0169328 0)
(1.29382e-06 -0.0169733 0)
(1.3552e-06 -0.0170004 0)
(1.3964e-06 -0.0170139 0)
(2.18578e-10 -0.000342819 0)
(2.33618e-09 -0.00101439 0)
(6.67408e-09 -0.00167189 0)
(1.31742e-08 -0.00231536 0)
(2.17308e-08 -0.00294481 0)
(3.22655e-08 -0.00356026 0)
(4.47221e-08 -0.00416172 0)
(5.90494e-08 -0.00474922 0)
(7.51984e-08 -0.00532277 0)
(9.31218e-08 -0.00588239 0)
(1.12776e-07 -0.00642809 0)
(1.34118e-07 -0.0069599 0)
(1.57111e-07 -0.00747783 0)
(1.81717e-07 -0.0079819 0)
(2.07906e-07 -0.00847212 0)
(2.35645e-07 -0.00894852 0)
(2.64908e-07 -0.00941111 0)
(2.9567e-07 -0.0098599 0)
(3.27911e-07 -0.0102949 0)
(3.61611e-07 -0.0107162 0)
(3.96756e-07 -0.0111237 0)
(4.33332e-07 -0.0115174 0)
(4.71331e-07 -0.0118975 0)
(5.10746e-07 -0.0122638 0)
(5.51576e-07 -0.0126165 0)
(5.93819e-07 -0.0129555 0)
(6.37484e-07 -0.0132808 0)
(6.82573e-07 -0.0135924 0)
(7.29104e-07 -0.0138904 0)
(7.77084e-07 -0.0141748 0)
(8.26544e-07 -0.0144456 0)
(8.77494e-07 -0.0147028 0)
(9.29977e-07 -0.0149464 0)
(9.84009e-07 -0.0151763 0)
(1.03965e-06 -0.0153928 0)
(1.0969e-06 -0.0155956 0)
(1.15586e-06 -0.0157849 0)
(1.21653e-06 -0.0159606 0)
(1.27902e-06 -0.0161228 0)
(1.34333e-06 -0.0162715 0)
(1.40961e-06 -0.0164066 0)
(1.47784e-06 -0.0165283 0)
(1.5482e-06 -0.0166364 0)
(1.62062e-06 -0.0167309 0)
(1.69527e-06 -0.016812 0)
(1.77221e-06 -0.0168796 0)
(1.85278e-06 -0.0169336 0)
(1.93846e-06 -0.0169742 0)
(2.02705e-06 -0.0170013 0)
(2.0865e-06 -0.0170148 0)
(3.33999e-10 -0.000342836 0)
(3.55919e-09 -0.00101444 0)
(1.01548e-08 -0.00167198 0)
(2.00252e-08 -0.00231548 0)
(3.30024e-08 -0.00294496 0)
(4.89596e-08 -0.00356044 0)
(6.7805e-08 -0.00416193 0)
(8.9454e-08 -0.00474945 0)
(1.13826e-07 -0.00532303 0)
(1.40844e-07 -0.00588267 0)
(1.70435e-07 -0.0064284 0)
(2.02528e-07 -0.00696023 0)
(2.37062e-07 -0.00747819 0)
(2.73975e-07 -0.00798228 0)
(3.13213e-07 -0.00847253 0)
(3.54723e-07 -0.00894895 0)
(3.98459e-07 -0.00941156 0)
(4.44377e-07 -0.00986038 0)
(4.92441e-07 -0.0102954 0)
(5.42614e-07 -0.0107167 0)
(5.94868e-07 -0.0111242 0)
(6.49177e-07 -0.011518 0)
(7.0552e-07 -0.0118981 0)
(7.6388e-07 -0.0122644 0)
(8.24248e-07 -0.0126171 0)
(8.86611e-07 -0.0129561 0)
(9.50974e-07 -0.0132814 0)
(1.01733e-06 -0.0135931 0)
(1.0857e-06 -0.0138911 0)
(1.15608e-06 -0.0141756 0)
(1.2285e-06 -0.0144464 0)
(1.30298e-06 -0.0147036 0)
(1.37955e-06 -0.0149472 0)
(1.45824e-06 -0.0151772 0)
(1.5391e-06 -0.0153936 0)
(1.62215e-06 -0.0155965 0)
(1.70748e-06 -0.0157858 0)
(1.79511e-06 -0.0159616 0)
(1.88516e-06 -0.0161238 0)
(1.97763e-06 -0.0162725 0)
(2.07269e-06 -0.0164076 0)
(2.17033e-06 -0.0165293 0)
(2.27076e-06 -0.0166374 0)
(2.37388e-06 -0.016732 0)
(2.47989e-06 -0.0168131 0)
(2.58886e-06 -0.0168807 0)
(2.70263e-06 -0.0169348 0)
(2.82325e-06 -0.0169754 0)
(2.94765e-06 -0.0170025 0)
(3.03112e-06 -0.0170161 0)
(4.93335e-10 -0.000342862 0)
(5.24172e-09 -0.00101451 0)
(1.4938e-08 -0.0016721 0)
(2.94333e-08 -0.00231565 0)
(4.84709e-08 -0.00294518 0)
(7.18562e-08 -0.0035607 0)
(9.9446e-08 -0.00416223 0)
(1.31108e-07 -0.0047498 0)
(1.66718e-07 -0.00532341 0)
(2.06152e-07 -0.00588309 0)
(2.49298e-07 -0.00642886 0)
(2.96046e-07 -0.00696073 0)
(3.46297e-07 -0.00747872 0)
(3.99953e-07 -0.00798285 0)
(4.56929e-07 -0.00847313 0)
(5.1714e-07 -0.00894959 0)
(5.80512e-07 -0.00941223 0)
(6.46973e-07 -0.00986108 0)
(7.1646e-07 -0.0102961 0)
(7.88913e-07 -0.0107174 0)
(8.64284e-07 -0.011125 0)
(9.42522e-07 -0.0115188 0)
(1.02359e-06 -0.0118989 0)
(1.10746e-06 -0.0122653 0)
(1.19409e-06 -0.012618 0)
(1.28347e-06 -0.012957 0)
(1.37558e-06 -0.0132824 0)
(1.47041e-06 -0.0135941 0)
(1.56796e-06 -0.0138922 0)
(1.66823e-06 -0.0141766 0)
(1.77124e-06 -0.0144474 0)
(1.87699e-06 -0.0147047 0)
(1.98552e-06 -0.0149483 0)
(2.09684e-06 -0.0151783 0)
(2.21102e-06 -0.0153948 0)
(2.32807e-06 -0.0155977 0)
(2.44808e-06 -0.0157871 0)
(2.57106e-06 -0.0159629 0)
(2.69715e-06 -0.0161251 0)
(2.82634e-06 -0.0162739 0)
(2.95882e-06 -0.0164091 0)
(3.09456e-06 -0.0165307 0)
(3.23382e-06 -0.0166389 0)
(3.37643e-06 -0.0167336 0)
(3.52263e-06 -0.0168147 0)
(3.67251e-06 -0.0168823 0)
(3.82848e-06 -0.0169365 0)
(3.9933e-06 -0.0169771 0)
(4.16282e-06 -0.0170043 0)
(4.27661e-06 -0.017018 0)
(7.02412e-10 -0.0003429 0)
(7.4493e-09 -0.00101462 0)
(2.12107e-08 -0.00167228 0)
(4.17652e-08 -0.0023159 0)
(6.87377e-08 -0.00294549 0)
(1.01842e-07 -0.00356107 0)
(1.40865e-07 -0.00416267 0)
(1.85611e-07 -0.00475029 0)
(2.35892e-07 -0.00532396 0)
(2.91527e-07 -0.0058837 0)
(3.52346e-07 -0.00642952 0)
(4.18187e-07 -0.00696145 0)
(4.88899e-07 -0.00747949 0)
(5.64339e-07 -0.00798367 0)
(6.44372e-07 -0.008474 0)
(7.28873e-07 -0.0089505 0)
(8.17727e-07 -0.00941318 0)
(9.10822e-07 -0.00986207 0)
(1.00806e-06 -0.0102972 0)
(1.10935e-06 -0.0107185 0)
(1.21461e-06 -0.0111261 0)
(1.32375e-06 -0.01152 0)
(1.43672e-06 -0.0119001 0)
(1.55344e-06 -0.0122666 0)
(1.67388e-06 -0.0126193 0)
(1.79797e-06 -0.0129584 0)
(1.92569e-06 -0.0132838 0)
(2.057e-06 -0.0135955 0)
(2.19189e-06 -0.0138936 0)
(2.33033e-06 -0.0141781 0)
(2.47232e-06 -0.014449 0)
(2.61785e-06 -0.0147062 0)
(2.76696e-06 -0.0149499 0)
(2.91962e-06 -0.01518 0)
(3.0759e-06 -0.0153965 0)
(3.23578e-06 -0.0155994 0)
(3.39937e-06 -0.0157888 0)
(3.56664e-06 -0.0159647 0)
(3.73774e-06 -0.016127 0)
(3.91262e-06 -0.0162758 0)
(4.0915e-06 -0.016411 0)
(4.2743e-06 -0.0165327 0)
(4.46132e-06 -0.0166409 0)
(4.6523e-06 -0.0167356 0)
(4.8475e-06 -0.0168168 0)
(5.04699e-06 -0.0168845 0)
(5.25384e-06 -0.0169387 0)
(5.47162e-06 -0.0169794 0)
(5.69491e-06 -0.0170067 0)
(5.84495e-06 -0.0170204 0)
(9.64447e-10 -0.000342953 0)
(1.02038e-08 -0.00101478 0)
(2.90277e-08 -0.00167253 0)
(5.71213e-08 -0.00231625 0)
(9.39583e-08 -0.00294593 0)
(1.39135e-07 -0.0035616 0)
(1.9235e-07 -0.00416328 0)
(2.53322e-07 -0.00475098 0)
(3.21785e-07 -0.00532473 0)
(3.97481e-07 -0.00588455 0)
(4.80167e-07 -0.00643044 0)
(5.6961e-07 -0.00696244 0)
(6.65594e-07 -0.00748055 0)
(7.67911e-07 -0.00798479 0)
(8.76369e-07 -0.00847519 0)
(9.90785e-07 -0.00895175 0)
(1.11099e-06 -0.0094145 0)
(1.23682e-06 -0.00986345 0)
(1.36812e-06 -0.0102986 0)
(1.50477e-06 -0.01072 0)
(1.64662e-06 -0.0111277 0)
(1.79356e-06 -0.0115216 0)
(1.94549e-06 -0.0119018 0)
(2.10229e-06 -0.0122683 0)
(2.26388e-06 -0.0126211 0)
(2.43017e-06 -0.0129602 0)
(2.6011e-06 -0.0132856 0)
(2.7766e-06 -0.0135974 0)
(2.95662e-06 -0.0138956 0)
(3.14109e-06 -0.0141801 0)
(3.33e-06 -0.014451 0)
(3.5233e-06 -0.0147084 0)
(3.72099e-06 -0.0149521 0)
(3.92301e-06 -0.0151822 0)
(4.12942e-06 -0.0153988 0)
(4.34014e-06 -0.0156018 0)
(4.55527e-06 -0.0157912 0)
(4.77473e-06 -0.0159671 0)
(4.99866e-06 -0.0161295 0)
(5.22694e-06 -0.0162783 0)
(5.4598e-06 -0.0164136 0)
(5.69708e-06 -0.0165354 0)
(5.93908e-06 -0.0166436 0)
(6.18543e-06 -0.0167384 0)
(6.43635e-06 -0.0168196 0)
(6.69187e-06 -0.0168874 0)
(6.95572e-06 -0.0169417 0)
(7.2323e-06 -0.0169824 0)
(7.51484e-06 -0.0170097 0)
(7.70495e-06 -0.0170235 0)
(1.26489e-09 -0.000343024 0)
(1.33626e-08 -0.00101498 0)
(3.79917e-08 -0.00167287 0)
(7.47299e-08 -0.00231671 0)
(1.22876e-07 -0.00294651 0)
(1.81891e-07 -0.0035623 0)
(2.51366e-07 -0.0041641 0)
(3.30925e-07 -0.00475191 0)
(4.20207e-07 -0.00532577 0)
(5.18862e-07 -0.00588568 0)
(6.26559e-07 -0.00643168 0)
(7.42982e-07 -0.00696376 0)
(8.67835e-07 -0.00748197 0)
(1.00083e-06 -0.0079863 0)
(1.14171e-06 -0.00847678 0)
(1.29021e-06 -0.00895343 0)
(1.44611e-06 -0.00941626 0)
(1.60916e-06 -0.00986529 0)
(1.77916e-06 -0.0103005 0)
(1.95592e-06 -0.010722 0)
(2.13924e-06 -0.0111297 0)
(2.32894e-06 -0.0115237 0)
(2.52487e-06 -0.011904 0)
(2.72687e-06 -0.0122705 0)
(2.93481e-06 -0.0126234 0)
(3.14853e-06 -0.0129626 0)
(3.36793e-06 -0.0132881 0)
(3.59289e-06 -0.0136 0)
(3.82332e-06 -0.0138982 0)
(4.05909e-06 -0.0141828 0)
(4.30015e-06 -0.0144537 0)
(4.54639e-06 -0.0147111 0)
(4.79777e-06 -0.0149549 0)
(5.05419e-06 -0.0151851 0)
(5.31563e-06 -0.0154017 0)
(5.58198e-06 -0.0156048 0)
(5.85328e-06 -0.0157943 0)
(6.12937e-06 -0.0159702 0)
(6.41034e-06 -0.0161326 0)
(6.69601e-06 -0.0162815 0)
(6.98653e-06 -0.0164169 0)
(7.28165e-06 -0.0165387 0)
(7.5816e-06 -0.016647 0)
(7.88588e-06 -0.0167419 0)
(8.19459e-06 -0.0168232 0)
(8.50767e-06 -0.016891 0)
(8.82933e-06 -0.0169453 0)
(9.16471e-06 -0.0169861 0)
(9.50572e-06 -0.0170135 0)
(9.7355e-06 -0.0170273 0)
(1.5798e-09 -0.000343115 0)
(1.66833e-08 -0.00101525 0)
(4.7415e-08 -0.00167331 0)
(9.32369e-08 -0.00231731 0)
(1.53259e-07 -0.00294727 0)
(2.26793e-07 -0.0035632 0)
(3.13314e-07 -0.00416514 0)
(4.12336e-07 -0.00475309 0)
(5.23389e-07 -0.00532708 0)
(6.46018e-07 -0.00588713 0)
(7.79791e-07 -0.00643325 0)
(9.24293e-07 -0.00696545 0)
(1.07913e-06 -0.00748377 0)
(1.24393e-06 -0.00798822 0)
(1.41833e-06 -0.00847881 0)
(1.602e-06 -0.00895556 0)
(1.7946e-06 -0.00941849 0)
(1.99583e-06 -0.00986762 0)
(2.2054e-06 -0.010303 0)
(2.42302e-06 -0.0107245 0)
(2.64844e-06 -0.0111323 0)
(2.88138e-06 -0.0115264 0)
(3.12163e-06 -0.0119068 0)
(3.36893e-06 -0.0122734 0)
(3.6231e-06 -0.0126263 0)
(3.88389e-06 -0.0129656 0)
(4.15114e-06 -0.0132912 0)
(4.42464e-06 -0.0136031 0)
(4.70422e-06 -0.0139014 0)
(4.98969e-06 -0.0141861 0)
(5.28092e-06 -0.0144571 0)
(5.57772e-06 -0.0147146 0)
(5.87996e-06 -0.0149584 0)
(6.18747e-06 -0.0151887 0)
(6.50014e-06 -0.0154054 0)
(6.81779e-06 -0.0156085 0)
(7.14034e-06 -0.015798 0)
(7.46758e-06 -0.0159741 0)
(7.79947e-06 -0.0161365 0)
(8.13575e-06 -0.0162855 0)
(8.47646e-06 -0.0164209 0)
(8.82127e-06 -0.0165428 0)
(9.17025e-06 -0.0166512 0)
(9.52281e-06 -0.0167461 0)
(9.87887e-06 -0.0168274 0)
(1.02383e-05 -0.0168953 0)
(1.06056e-05 -0.0169497 0)
(1.09864e-05 -0.0169906 0)
(1.13718e-05 -0.017018 0)
(1.16321e-05 -0.0170318 0)
(8.31865e-09 -0.0170119 0)
(-1.24086e-07 -0.0166299 0)
(-1.29006e-06 -0.016064 0)
(-1.99467e-06 -0.0155053 0)
(-2.54621e-06 -0.0149545 0)
(-2.99008e-06 -0.0144124 0)
(-3.35246e-06 -0.0138797 0)
(-3.64358e-06 -0.0133572 0)
(-3.87485e-06 -0.0128454 0)
(-4.05804e-06 -0.012345 0)
(-4.20414e-06 -0.0118563 0)
(-4.32292e-06 -0.0113799 0)
(-4.42301e-06 -0.0109161 0)
(-4.51208e-06 -0.0104653 0)
(-4.59688e-06 -0.0100278 0)
(-4.68333e-06 -0.00960374 0)
(-4.77661e-06 -0.00919334 0)
(-4.88115e-06 -0.00879673 0)
(-5.00078e-06 -0.00841399 0)
(-5.1387e-06 -0.00804516 0)
(-5.29759e-06 -0.00769023 0)
(-5.47963e-06 -0.00734915 0)
(-5.68657e-06 -0.00702183 0)
(-5.91975e-06 -0.00670816 0)
(-6.18014e-06 -0.00640797 0)
(-6.46841e-06 -0.00612108 0)
(-6.78493e-06 -0.00584727 0)
(-7.12982e-06 -0.0055863 0)
(-7.50298e-06 -0.0053379 0)
(-7.90412e-06 -0.00510178 0)
(-8.33277e-06 -0.00487763 0)
(-8.78834e-06 -0.00466513 0)
(-9.27012e-06 -0.00446393 0)
(-9.77727e-06 -0.00427368 0)
(-1.03089e-05 -0.00409403 0)
(-1.08641e-05 -0.00392459 0)
(-1.14418e-05 -0.003765 0)
(-1.2041e-05 -0.00361486 0)
(-1.26606e-05 -0.0034738 0)
(-1.32996e-05 -0.00334142 0)
(-1.39568e-05 -0.00321735 0)
(-1.46314e-05 -0.0031012 0)
(-1.53221e-05 -0.00299259 0)
(-1.60279e-05 -0.00289115 0)
(-1.67479e-05 -0.0027965 0)
(-1.74812e-05 -0.00270827 0)
(-1.82266e-05 -0.00262612 0)
(-1.89834e-05 -0.0025497 0)
(-1.97509e-05 -0.00247866 0)
(-2.05278e-05 -0.00241268 0)
(2.95137e-09 -0.0170119 0)
(-1.05043e-07 -0.016619 0)
(-1.02982e-06 -0.0160551 0)
(-1.56379e-06 -0.0154981 0)
(-1.95843e-06 -0.0149487 0)
(-2.25415e-06 -0.0144078 0)
(-2.47567e-06 -0.0138762 0)
(-2.63435e-06 -0.0133545 0)
(-2.74214e-06 -0.0128434 0)
(-2.81107e-06 -0.0123435 0)
(-2.85221e-06 -0.0118552 0)
(-2.87545e-06 -0.011379 0)
(-2.88947e-06 -0.0109154 0)