/*--------------------------------*- C++ -*----------------------------------*\
| =========                 |                                                 |
| \\      /  F ield         | OpenFOAM: The Open Source CFD Toolbox           |
|  \\    /   O peration     | Version:  2.4.0                                 |
|   \\  /    A nd           | Web:      www.OpenFOAM.org                      |
|    \\/     M anipulation  |                                                 |
\*---------------------------------------------------------------------------*/
FoamFile
{
    version     2.0;
    format      ascii;
    class       volScalarField;
    location    "0.2";
    object      p_rgh;
}
// * * * * * * * * * * * * * * * * * * * * * * * * * * * * * * * * * * * * * //

dimensions      [1 -1 -2 0 0 0 0];

internalField   nonuniform List<scalar> 
8000
(
53.7912
53.7913
53.7914
53.7916
53.7917
53.7918
53.7919
53.792
53.7921
53.7922
53.7923
53.7924
53.7924
53.7925
53.7926
53.7926
53.7927
53.7927
53.7928
53.7928
53.7929
53.7929
53.7929
53.7929
53.7929
53.793
53.793
53.793
53.793
53.7929
53.7929
53.7929
53.7929
53.7928
53.7928
53.7928
53.7927
53.7927
53.7926
53.7926
53.7925
53.7924
53.7924
53.7923
53.7922
53.7921
53.7921
53.7922
53.7917
53.7826
55.1227
55.1229
55.123
55.1232
55.1233
55.1234
55.1235
55.1237
55.1238
55.1239
55.124
55.1241
55.1242
55.1242
55.1243
55.1244
55.1244
55.1245
55.1245
55.1246
55.1246
55.1247
55.1247
55.1247
55.1247
55.1247
55.1247
55.1247
55.1247
55.1247
55.1247
55.1247
55.1247
55.1246
55.1246
55.1245
55.1245
55.1244
55.1244
55.1243
55.1243
55.1242
55.1241
55.124
55.1239
55.1239
55.1238
55.1239
55.1234
55.1095
56.4552
56.4553
56.4555
56.4556
56.4558
56.4559
56.4561
56.4562
56.4563
56.4564
56.4565
56.4566
56.4567
56.4568
56.4568
56.4569
56.457
56.457
56.4571
56.4571
56.4571
56.4572
56.4572
56.4572
56.4572
56.4572
56.4572
56.4572
56.4572
56.4571
56.4571
56.457
56.457
56.4569
56.4569
56.4568
56.4567
56.4566
56.4565
56.4564
56.4563
56.4562
56.4561
56.4559
56.4558
56.4556
56.4555
56.4554
56.455
56.4349
57.789
57.7892
57.7893
57.7895
57.7896
57.7897
57.7899
57.79
57.7901
57.7902
57.7903
57.7904
57.7904
57.7905
57.7906
57.7906
57.7907
57.7907
57.7908
57.7908
57.7908
57.7909
57.7909
57.7909
57.7909
57.7909
57.7909
57.7909
57.7909
57.7908
57.7908
57.7908
57.7907
57.7907
57.7906
57.7906
57.7905
57.7904
57.7903
57.7902
57.7901
57.79
57.7899
57.7898
57.7896
57.7895
57.7893
57.7891
57.7889
57.7614
59.1243
59.1244
59.1245
59.1246
59.1247
59.1248
59.1248
59.1249
59.125
59.1251
59.1251
59.1252
59.1252
59.1253
59.1253
59.1254
59.1254
59.1254
59.1255
59.1255
59.1255
59.1256
59.1256
59.1256
59.1256
59.1256
59.1256
59.1256
59.1256
59.1257
59.1257
59.1256
59.1256
59.1256
59.1256
59.1256
59.1256
59.1256
59.1256
59.1255
59.1255
59.1255
59.1254
59.1254
59.1253
59.1253
59.1251
59.1248
59.1251
59.0721
60.4608
60.4608
60.4608
60.4608
60.4608
60.4608
60.4608
60.4608
60.4608
60.4608
60.4608
60.4608
60.4608
60.4608
60.4608
60.4608
60.4608
60.4608
60.4608
60.4608
60.4608
60.4608
60.4608
60.4608
60.4608
60.4608
60.4608
60.4609
60.4609
60.4609
60.4609
60.4609
60.461
60.461
60.4611
60.4611
60.4611
60.4612
60.4612
60.4613
60.4613
60.4614
60.4615
60.4615
60.4616
60.4616
60.4614
60.461
60.4622
60.0304
61.7978
61.7976
61.7975
61.7973
61.7972
61.797
61.7969
61.7968
61.7966
61.7965
61.7964
61.7963
61.7962
61.7961
61.796
61.7959
61.7959
61.7958
61.7957
61.7957
61.7957
61.7956
61.7956
61.7956
61.7956
61.7956
61.7956
61.7956
61.7957
61.7957
61.7958
61.7959
61.796
61.7961
61.7962
61.7963
61.7964
61.7966
61.7967
61.7969
61.7971
61.7973
61.7975
61.7978
61.798
61.7982
61.7979
61.7975
61.7996
59.848
63.1348
63.1344
63.134
63.1336
63.1333
63.133
63.1326
63.1323
63.132
63.1318
63.1315
63.1312
63.131
63.1307
63.1305
63.1303
63.1301
63.1299
63.1298
63.1296
63.1295
63.1294
63.1293
63.1292
63.1291
63.1291
63.1291
63.1291
63.1291
63.1291
63.1291
63.1292
63.1293
63.1294
63.1295
63.1297
63.1298
63.13
63.1303
63.1305
63.1308
63.1311
63.1314
63.1318
63.1322
63.1324
63.132
63.1313
63.126
57.8184
64.4693
64.4687
64.4681
64.4674
64.4669
64.4663
64.4657
64.4652
64.4647
64.4642
64.4637
64.4633
64.4629
64.4624
64.462
64.4617
64.4613
64.461
64.4607
64.4604
64.4601
64.4598
64.4596
64.4594
64.4592
64.459
64.4589
64.4588
64.4587
64.4586
64.4586
64.4586
64.4586
64.4586
64.4587
64.4588
64.4589
64.4591
64.4592
64.4595
64.4597
64.46
64.4603
64.4607
64.4611
64.4612
64.4603
64.4595
64.3774
53.5241
65.8022
65.8014
65.8004
65.7996
65.7987
65.7979
65.7971
65.7963
65.7956
65.7948
65.7941
65.7934
65.7928
65.7921
65.7915
65.7909
65.7903
65.7897
65.7892
65.7887
65.7882
65.7877
65.7872
65.7868
65.7864
65.786
65.7857
65.7854
65.7851
65.7848
65.7846
65.7844
65.7842
65.7841
65.7839
65.7839
65.7838
65.7838
65.7838
65.7839
65.784
65.7841
65.7843
65.7846
65.7849
65.7846
65.7829
65.782
65.3322
46.8459
67.1301
67.129
67.1278
67.1266
67.1255
67.1244
67.1233
67.1223
67.1212
67.1202
67.1193
67.1183
67.1174
67.1165
67.1156
67.1147
67.1139
67.1131
67.1123
67.1116
67.1108
67.1101
67.1095
67.1088
67.1082
67.1076
67.107
67.1065
67.106
67.1055
67.105
67.1046
67.1042
67.1038
67.1035
67.1031
67.1029
67.1026
67.1024
67.1022
67.102
67.1018
67.1017
67.1018
67.1017
67.1007
67.0979
67.0929
65.4725
37.7638
68.4576
68.4562
68.4547
68.4532
68.4518
68.4504
68.4491
68.4477
68.4464
68.4451
68.4438
68.4425
68.4412
68.44
68.4387
68.4375
68.4364
68.4352
68.434
68.4329
68.4318
68.4307
68.4296
68.4286
68.4275
68.4265
68.4255
68.4245
68.4236
68.4226
68.4217
68.4207
68.4198
68.4189
68.418
68.4171
68.4162
68.4153
68.4144
68.4135
68.4126
68.4117
68.4108
68.41
68.4089
68.4062
68.4018
68.3608
63.8662
26.3983
69.7774
69.7757
69.7737
69.7718
69.77
69.7682
69.7665
69.7648
69.7631
69.7614
69.7598
69.7582
69.7566
69.755
69.7535
69.752
69.7505
69.7491
69.7477
69.7464
69.745
69.7437
69.7425
69.7413
69.7401
69.7389
69.7378
69.7367
69.7357
69.7347
69.7337
69.7328
69.7319
69.7311
69.7303
69.7296
69.7288
69.7282
69.7276
69.727
69.7265
69.726
69.7257
69.7255
69.7246
69.7216
69.7175
69.4494
58.5605
14.064
71.1044
71.102
71.0995
71.0971
71.0947
71.0925
71.0902
71.088
71.0859
71.0838
71.0817
71.0797
71.0778
71.0758
71.074
71.0721
71.0704
71.0686
71.067
71.0653
71.0638
71.0623
71.0608
71.0594
71.058
71.0567
71.0555
71.0543
71.0532
71.0522
71.0512
71.0503
71.0494
71.0487
71.048
71.0473
71.0468
71.0463
71.0459
71.0456
71.0454
71.0454
71.0456
71.0457
71.0444
71.0402
71.0309
69.416
45.2159
5.09405
72.4097
72.4069
72.4039
72.4009
72.3981
72.3953
72.3925
72.3898
72.3871
72.3844
72.3817
72.3791
72.3766
72.374
72.3715
72.3691
72.3667
72.3643
72.3619
72.3596
72.3573
72.355
72.3528
72.3506
72.3485
72.3464
72.3443
72.3423
72.3402
72.3383
72.3363
72.3344
72.3326
72.3307
72.3289
72.3272
72.3255
72.3238
72.3221
72.3205
72.3189
72.3174
72.3161
72.3141
72.3094
72.3023
72.1507
64.535
24.0767
1.38584
73.7248
73.7215
73.7178
73.7143
73.7109
73.7076
73.7043
73.7011
73.6979
73.6947
73.6916
73.6885
73.6855
73.6825
73.6796
73.6767
73.6738
73.671
73.6682
73.6655
73.6629
73.6602
73.6577
73.6551
73.6527
73.6502
73.6479
73.6455
73.6432
73.641
73.6388
73.6367
73.6346
73.6326
73.6306
73.6287
73.6268
73.6249
73.6232
73.6214
73.6198
73.6184
73.6169
73.6134
73.6061
73.5886
71.6985
47.4506
7.2912
0.317338
75.0208
75.017
75.0127
75.0086
75.0046
75.0006
74.9967
74.9929
74.9891
74.9853
74.9815
74.9778
74.9741
74.9705
74.9669
74.9634
74.9599
74.9564
74.953
74.9497
74.9463
74.9431
74.9398
74.9366
74.9335
74.9304
74.9273
74.9243
74.9214
74.9185
74.9156
74.9128
74.9101
74.9074
74.9047
74.9021
74.8996
74.8971
74.8946
74.8923
74.8901
74.8881
74.8849
74.8777
74.8674
74.3503
61.9472
19.7309
1.45769
0.0639657
76.3205
76.3161
76.3111
76.3063
76.3017
76.2971
76.2926
76.2881
76.2836
76.2792
76.2748
76.2704
76.2661
76.2618
76.2576
76.2534
76.2493
76.2452
76.2411
76.2371
76.2331
76.2291
76.2252
76.2214
76.2175
76.2138
76.21
76.2063
76.2027
76.1991
76.1955
76.192
76.1886
76.1851
76.1818
76.1784
76.1751
76.1719
76.1687
76.1657
76.1629
76.1593
76.1521
76.1406
75.9323
69.0533
33.0551
3.87798
0.249028
0.0112945
77.6081
77.603
77.5973
77.5917
77.5864
77.5811
77.5759
77.5707
77.5655
77.5603
77.5553
77.5502
77.5452
77.5402
77.5353
77.5304
77.5255
77.5207
77.516
77.5112
77.5065
77.5019
77.4973
77.4928
77.4883
77.4838
77.4794
77.475
77.4707
77.4664
77.4622
77.458
77.4539
77.4498
77.4457
77.4418
77.4378
77.4339
77.4302
77.4268
77.4228
77.4155
77.4029
77.2643
72.5613
42.4812
7.0904
0.555996
0.0377767
0.00228393
78.8939
78.8881
78.8816
78.8754
78.8693
78.8633
78.8573
78.8513
78.8454
78.8395
78.8336
78.8278
78.822
78.8163
78.8106
78.8049
78.7993
78.7937
78.7881
78.7826
78.7771
78.7716
78.7662
78.7608
78.7555
78.7502
78.7449
78.7397
78.7345
78.7294
78.7243
78.7192
78.7142
78.7092
78.7043
78.6994
78.6946
78.6899
78.6855
78.6805
78.6723
78.6582
78.5199
74.4018
47.3518
9.71277
0.877516
0.0730203
0.00543843
0.00123296
1.59854
0.00118365
0.000681837
0.000678665
0.000678655
0.000678437
0.000678194
0.000677966
0.000677755
0.00067756
0.000677377
0.000677207
0.000677051
0.000676908
0.000676779
0.000676662
0.000676559
0.00067647
0.000676394
0.000676332
0.000676282
0.000676247
0.000676224
0.000676215
0.000676219
0.000676235
0.000676265
0.000676307
0.000676362
0.000676429
0.000676508
0.000676599
0.000676701
0.000676815
0.00067694
0.000677076
0.000677222
0.000677378
0.000677545
0.000677721
0.000677906
0.0006781
0.000678304
0.000678515
0.000678735
0.000678963
0.000679199
0.000679441
0.000679689
0.000679947
1.94565
0.00146612
0.000691777
0.00068583
0.000685869
0.00068567
0.000685453
0.000685253
0.000685073
0.000684911
0.000684765
0.000684636
0.000684523
0.000684426
0.000684345
0.00068428
0.000684231
0.000684198
0.00068418
0.000684178
0.000684192
0.00068422
0.000684264
0.000684322
0.000684395
0.000684482
0.000684584
0.000684699
0.000684828
0.00068497
0.000685125
0.000685292
0.000685472
0.000685664
0.000685867
0.000686082
0.000686307
0.000686543
0.000686789
0.000687045
0.000687311
0.000687586
0.000687869
0.000688161
0.000688462
0.00068877
0.000689085
0.000689407
0.000689734
0.000690071
2.17483
0.00169162
0.000698647
0.00069043
0.00069057
0.000690459
0.000690332
0.00069022
0.000690129
0.000690058
0.000690004
0.000689969
0.000689951
0.00068995
0.000689968
0.000690002
0.000690054
0.000690123
0.000690209
0.000690311
0.00069043
0.000690564
0.000690714
0.00069088
0.000691061
0.000691257
0.000691467
0.000691691
0.000691929
0.000692181
0.000692445
0.000692722
0.000693011
0.000693312
0.000693624
0.000693947
0.000694281
0.000694625
0.000694979
0.000695342
0.000695714
0.000696094
0.000696483
0.00069688
0.000697284
0.000697695
0.000698113
0.000698536
0.000698962
0.000699399
2.2361
0.00167829
0.000700552
0.000692761
0.000692998
0.000693054
0.000693102
0.00069316
0.000693234
0.000693324
0.00069343
0.000693552
0.000693689
0.000693843
0.000694013
0.0006942
0.000694403
0.000694622
0.000694856
0.000695107
0.000695373
0.000695655
0.000695952
0.000696263
0.000696589
0.000696929
0.000697283
0.00069765
0.00069803
0.000698423
0.000698828
0.000699245
0.000699673
0.000700111
0.000700561
0.00070102
0.000701489
0.000701966
0.000702453
0.000702948
0.00070345
0.00070396
0.000704477
0.000705
0.00070553
0.000706066
0.000706607
0.000707151
0.000707697
0.000708254
1.94398
0.00134615
0.000699354
0.000695238
0.000695391
0.000695547
0.000695728
0.00069592
0.000696123
0.000696341
0.000696575
0.000696826
0.000697094
0.000697378
0.00069768
0.000697999
0.000698335
0.000698688
0.000699058
0.000699445
0.000699849
0.000700269
0.000700705
0.000701157
0.000701623
0.000702105
0.000702601
0.000703111
0.000703635
0.000704171
0.000704719
0.00070528
0.000705851
0.000706434
0.000707026
0.000707628
0.000708239
0.000708859
0.000709487
0.000710122
0.000710765
0.000711413
0.000712068
0.000712729
0.000713394
0.000714065
0.000714739
0.000715415
0.000716092
0.000716778
1.28693
0.00100564
0.000700834
0.000699232
0.00069884
0.000698907
0.000699149
0.000699408
0.000699671
0.000699951
0.000700254
0.000700579
0.000700928
0.000701299
0.000701692
0.000702108
0.000702545
0.000703004
0.000703485
0.000703986
0.000704508
0.000705049
0.00070561
0.00070619
0.000706787
0.000707402
0.000708034
0.000708681
0.000709344
0.000710021
0.000710712
0.000711416
0.000712132
0.000712859
0.000713597
0.000714345
0.000715103
0.000715869
0.000716643
0.000717424
0.000718212
0.000719006
0.000719805
0.000720609
0.000721418
0.00072223
0.000723045
0.000723861
0.000724674
0.000725499
0.658538
0.00081938
0.000703306
0.000702373
0.000701377
0.000701342
0.000701667
0.00070202
0.000702368
0.000702733
0.000703129
0.000703557
0.000704014
0.0007045
0.000705015
0.000705557
0.000706127
0.000706724
0.000707346
0.000707993
0.000708664
0.000709358
0.000710074
0.000710812
0.00071157
0.000712347
0.000713143
0.000713956
0.000714785
0.00071563
0.000716488
0.000717361
0.000718245
0.000719141
0.000720048
0.000720964
0.000721888
0.000722821
0.000723761
0.000724707
0.000725658
0.000726614
0.000727574
0.000728538
0.000729504
0.000730473
0.000731443
0.000732411
0.000733374
0.000734348
0.257365
0.000733646
0.000706542
0.000705343
0.000703787
0.000703689
0.00070414
0.000704632
0.000705105
0.000705597
0.000706125
0.000706692
0.000707295
0.000707933
0.000708605
0.000709309
0.000710044
0.00071081
0.000711606
0.000712429
0.000713279
0.000714154
0.000715053
0.000715975
0.000716919
0.000717883
0.000718865
0.000719866
0.000720882
0.000721914
0.00072296
0.000724019
0.000725089
0.000726169
0.000727259
0.000728358
0.000729463
0.000730575
0.000731693
0.000732815
0.00073394
0.000735069
0.000736199
0.000737331
0.000738464
0.000739597
0.000740728
0.000741855
0.000742975
0.000744105
0.0819725
0.000702713
0.000708405
0.000707086
0.000705484
0.000705553
0.000706253
0.000706994
0.000707704
0.000708426
0.000709182
0.000709975
0.000710802
0.000711662
0.000712555
0.000713479
0.000714433
0.000715416
0.000716427
0.000717465
0.000718529
0.000719617
0.000720727
0.000721859
0.000723011
0.000724182
0.00072537
0.000726575
0.000727794
0.000729026
0.00073027
0.000731526
0.000732791
0.000734064
0.000735345
0.000736632
0.000737924
0.00073922
0.000740519
0.00074182
0.000743122
0.000744425
0.000745728
0.000747029
0.000748328
0.000749626
0.000750919
0.000752205
0.00075348
0.000754763
0.0271064
0.000702064
0.000712318
0.000710988
0.000709942
0.000710404
0.000711373
0.000712354
0.000713301
0.000714256
0.000715238
0.00071625
0.00071729
0.000718357
0.000719451
0.000720573
0.00072172
0.000722894
0.000724092
0.000725315
0.000726561
0.000727828
0.000729117
0.000730425
0.000731752
0.000733097
0.000734457
0.000735832
0.000737221
0.000738622
0.000740033
0.000741455
0.000742885
0.000744322
0.000745765
0.000747213
0.000748665
0.000750119
0.000751575
0.000753032
0.000754488
0.000755943
0.000757397
0.000758847
0.000760294
0.000761737
0.000763174
0.000764601
0.000766015
0.000767438
0.0125089
0.000714024
0.00072187
0.000719771
0.000718946
0.000719627
0.000720697
0.000721746
0.000722766
0.000723801
0.00072487
0.000725971
0.000727103
0.000728267
0.00072946
0.000730684
0.000731937
0.000733218
0.000734528
0.000735864
0.000737225
0.000738611
0.00074002
0.000741451
0.000742903
0.000744373
0.000745861
0.000747365
0.000748884
0.000750416
0.00075196
0.000753514
0.000755077
0.000756648
0.000758224
0.000759806
0.000761391
0.000762979
0.000764567
0.000766156
0.000767744
0.00076933
0.000770912
0.000772491
0.000774065
0.000775634
0.000777195
0.000778745
0.000780279
0.000781821
0.00735716
0.000732335
0.000737321
0.000733903
0.000732882
0.000733575
0.000734602
0.000735582
0.000736542
0.000737537
0.00073858
0.00073967
0.000740804
0.000741979
0.000743196
0.000744453
0.000745749
0.000747082
0.00074845
0.000749853
0.000751287
0.000752752
0.000754245
0.000755765
0.00075731
0.000758878
0.000760467
0.000762075
0.0007637
0.000765341
0.000766996
0.000768662
0.000770339
0.000772024
0.000773716
0.000775413
0.000777115
0.000778819
0.000780523
0.000782228
0.000783931
0.000785632
0.000787328
0.00078902
0.000790706
0.000792386
0.000794057
0.000795715
0.000797355
0.000799004
0.00422406
0.000748546
0.000750099
0.000745245
0.000744326
0.000745444
0.000746811
0.000748057
0.000749262
0.000750496
0.000751772
0.000753088
0.000754442
0.000755833
0.000757259
0.000758721
0.000760218
0.000761748
0.00076331
0.000764902
0.000766523
0.000768172
0.000769846
0.000771544
0.000773264
0.000775003
0.000776761
0.000778535
0.000780323
0.000782124
0.000783936
0.000785756
0.000787583
0.000789416
0.000791253
0.000793091
0.000794931
0.00079677
0.000798606
0.000800439
0.000802267
0.00080409
0.000805905
0.000807712
0.000809511
0.0008113
0.000813077
0.000814837
0.000816576
0.000818321
0.00214651
0.000776603
0.000772985
0.000765558
0.000764289
0.000765589
0.000767052
0.000768311
0.000769513
0.00077075
0.000772037
0.000773368
0.000774741
0.000776154
0.000777608
0.000779103
0.000780636
0.000782208
0.000783817
0.000785461
0.000787138
0.000788848
0.000790587
0.000792354
0.000794146
0.000795962
0.000797799
0.000799656
0.000801529
0.000803416
0.000805317
0.000807227
0.000809146
0.000811071
0.000813
0.000814932
0.000816864
0.000818795
0.000820724
0.000822648
0.000824567
0.000826479
0.000828382
0.000830276
0.000832159
0.000834031
0.000835889
0.000837728
0.000839544
0.000841366
0.00130055
0.000815415
0.000807065
0.000796801
0.000794699
0.000795716
0.000796867
0.000797769
0.000798625
0.000799546
0.000800546
0.000801615
0.000802748
0.000803942
0.000805197
0.00080651
0.000807879
0.000809303
0.000810779
0.000812304
0.000813875
0.000815491
0.000817148
0.000818844
0.000820575
0.000822338
0.000824131
0.000825951
0.000827794
0.000829659
0.000831542
0.00083344
0.000835351
0.000837272
0.000839202
0.000841137
0.000843075
0.000845014
0.000846953
0.000848889
0.000850821
0.000852746
0.000854664
0.000856573
0.000858471
0.000860358
0.000862231
0.000864085
0.000865914
0.000867749
0.000963392
0.000841352
0.000830828
0.000819821
0.000817899
0.000819267
0.00082072
0.000821885
0.000822995
0.000824171
0.000825424
0.000826743
0.000828123
0.000829562
0.000831056
0.000832605
0.000834206
0.000835856
0.000837552
0.000839293
0.000841075
0.000842895
0.00084475
0.000846637
0.000848554
0.000850497
0.000852464
0.000854451
0.000856455
0.000858474
0.000860504
0.000862544
0.000864591
0.000866641
0.000868693
0.000870745
0.000872793
0.000874837
0.000876874
0.000878902
0.00088092
0.000882926
0.000884919
0.000886897
0.000888859
0.000890805
0.000892732
0.000894633
0.000896506
0.00089838
0.000872442
0.00086557
0.000855478
0.000847394
0.000846737
0.000848478
0.000850189
0.000851654
0.000853076
0.00085455
0.000856084
0.000857669
0.000859303
0.000860982
0.000862707
0.000864475
0.000866284
0.000868131
0.000870016
0.000871934
0.000873883
0.00087586
0.000877863
0.000879889
0.000881935
0.000883998
0.000886076
0.000888165
0.000890263
0.000892367
0.000894474
0.000896583
0.000898691
0.000900796
0.000902895
0.000904986
0.000907068
0.000909138
0.000911195
0.000913237
0.000915263
0.000917272
0.000919261
0.000921231
0.00092318
0.000925107
0.000927011
0.000928886
0.000930727
0.000932563
0.000905962
0.000898022
0.000888763
0.000885737
0.00088695
0.000888908
0.000890647
0.000892247
0.00089385
0.000895495
0.000897182
0.000898906
0.000900668
0.000902466
0.000904301
0.00090617
0.000908073
0.000910007
0.00091197
0.00091396
0.000915974
0.00091801
0.000920064
0.000922135
0.000924218
0.000926312
0.000928414
0.00093052
0.000932629
0.000934738
0.000936844
0.000938945
0.000941038
0.000943122
0.000945195
0.000947254
0.000949298
0.000951325
0.000953334
0.000955322
0.00095729
0.000959234
0.000961156
0.000963053
0.000964925
0.000966771
0.000968589
0.000970374
0.000972123
0.000973867
0.000961412
0.000945336
0.000939474
0.000939434
0.000941174
0.000942846
0.000944304
0.000945711
0.000947145
0.000948614
0.000950116
0.00095165
0.000953216
0.000954816
0.00095645
0.000958116
0.000959814
0.000961542
0.000963297
0.000965079
0.000966883
0.000968709
0.000970553
0.000972412
0.000974284
0.000976166
0.000978055
0.000979949
0.000981844
0.000983739
0.00098563
0.000987516
0.000989395
0.000991263
0.000993119
0.000994961
0.000996788
0.000998597
0.00100039
0.00100216
0.00100391
0.00100563
0.00100733
0.00100901
0.00101066
0.00101229
0.00101389
0.00101545
0.00101699
0.0010185
0.00102122
0.00100967
0.00100822
0.00100941
0.00101079
0.00101193
0.00101298
0.00101404
0.00101514
0.00101626
0.00101741
0.0010186
0.00101981
0.00102106
0.00102234
0.00102366
0.001025
0.00102638
0.00102778
0.00102921
0.00103066
0.00103213
0.00103362
0.00103513
0.00103665
0.00103819
0.00103973
0.00104127
0.00104282
0.00104437
0.00104592
0.00104746
0.001049
0.00105052
0.00105204
0.00105354
0.00105503
0.00105651
0.00105796
0.0010594
0.00106082
0.00106221
0.00106358
0.00106493
0.00106626
0.00106756
0.00106884
0.00107008
0.0010713
0.00107251
0.000680163
0.000680328
0.0006805
0.000680674
0.00068085
0.000681028
0.000681209
0.000681391
0.000681576
0.000681764
0.000681953
0.000682145
0.000682339
0.000682535
0.000682734
0.000682934
0.000683137
0.000683342
0.000683549
0.000683759
0.00068397
0.000684184
0.0006844
0.000684618
0.000684838
0.00068506
0.000685284
0.00068551
0.000685739
0.000685969
0.000686202
0.000686436
0.000686673
0.000686911
0.000687152
0.000687394
0.000687639
0.000687885
0.000688134
0.000688385
0.000688637
0.000688892
0.000689148
0.000689406
0.000689667
0.000689929
0.000690193
0.000690459
0.000690727
0.000690997
0.000691269
0.000691542
0.000691818
0.000692095
0.000692375
0.000692656
0.000692939
0.000693224
0.000693511
0.000693799
0.00069409
0.000694382
0.000694676
0.000694972
0.00069527
0.000695569
0.000695871
0.000696174
0.000696479
0.000696785
0.000697094
0.000697404
0.000697716
0.00069803
0.000698345
0.000698662
0.000698981
0.000699302
0.000699624
0.000699948
0.000700274
0.000700601
0.00070093
0.000701261
0.000701594
0.000701928
0.000702264
0.000702601
0.00070294
0.000703281
0.000703623
0.000703967
0.000704313
0.00070466
0.000705009
0.000705359
0.000705711
0.000706064
0.000706419
0.000706775
0.000707133
0.000707493
0.000707854
0.000708217
0.000708581
0.000708946
0.000709313
0.000709682
0.000710052
0.000710423
0.000710796
0.00071117
0.000711545
0.000711922
0.000712301
0.000712681
0.000713062
0.000713444
0.000713828
0.000714213
0.0007146
0.000714988
0.000715377
0.000715768
0.00071616
0.000716553
0.000716947
0.000717343
0.00071774
0.000718138
0.000718537
0.000718938
0.00071934
0.000719743
0.000720147
0.000720553
0.00072096
0.000721367
0.000721777
0.000722187
0.000722598
0.000723011
0.000723425
0.00072384
0.000724256
0.000724673
0.000725091
0.00072551
0.000725931
0.000726353
0.000726776
0.000727199
0.000727624
0.00072805
0.000728478
0.000728906
0.000729335
0.000729766
0.000730197
0.00073063
0.000731064
0.000731499
0.000731935
0.000732372
0.00073281
0.000733249
0.000733689
0.00073413
0.000734573
0.000735016
0.000735461
0.000735907
0.000736354
0.000736802
0.000737251
0.000737701
0.000738153
0.000738605
0.000739059
0.000739514
0.00073997
0.000740427
0.000740886
0.000741346
0.000741807
0.000742269
0.000742732
0.000743197
0.000743663
0.00074413
0.000744599
0.000745069
0.00074554
0.000746013
0.000746487
0.000746963
0.00074744
0.000747918
0.000748398
0.00074888
0.000749363
0.000749847
0.000750334
0.000750821
0.000751311
0.000751802
0.000752295
0.00075279
0.000753286
0.000753785
0.000754285
0.000754787
0.000755291
0.000755797
0.000756305
0.000756816
0.000757328
0.000757842
0.000758359
0.000758878
0.000759399
0.000759923
0.000760449
0.000760977
0.000761508
0.000762041
0.000762577
0.000763116
0.000763658
0.000764202
0.000764749
0.000765299
0.000765852
0.000766408
0.000766968
0.00076753
0.000768096
0.000768664
0.000769237
0.000769813
0.000770392
0.000770975
0.000771561
0.000772152
0.000772746
0.000773344
0.000773947
0.000774553
0.000775163
0.000775778
0.000776397
0.000777021
0.000777649
0.000778282
0.00077892
0.000779562
0.00078021
0.000780862
0.00078152
0.000782182
0.000782851
0.000783524
0.000784204
0.000784889
0.000785579
0.000786276
0.000786979
0.000787687
0.000788402
0.000789124
0.000789852
0.000790587
0.000791328
0.000792076
0.000792831
0.000793594
0.000794364
0.000795141
0.000795925
0.000796718
0.000797518
0.000798326
0.000799142
0.000799967
0.0008008
0.000801641
0.000802492
0.000803351
0.000804219
0.000805097
0.000805984
0.000806881
0.000807787
0.000808704
0.00080963
0.000810567
0.000811516
0.000812477
0.000813447
0.000814403
0.000690354
0.000690568
0.000690792
0.000691017
0.000691245
0.000691474
0.000691705
0.000691939
0.000692175
0.000692414
0.000692654
0.000692897
0.000693142
0.00069339
0.00069364
0.000693891
0.000694145
0.000694402
0.00069466
0.00069492
0.000695183
0.000695448
0.000695714
0.000695983
0.000696254
0.000696527
0.000696802
0.000697079
0.000697358
0.000697639
0.000697922
0.000698207
0.000698494
0.000698783
0.000699074
0.000699367
0.000699662
0.000699959
0.000700257
0.000700558
0.00070086
0.000701164
0.00070147
0.000701778
0.000702088
0.0007024
0.000702713
0.000703028
0.000703345
0.000703664
0.000703985
0.000704307
0.000704632
0.000704958
0.000705285
0.000705615
0.000705946
0.000706279
0.000706614
0.00070695
0.000707288
0.000707628
0.000707969
0.000708313
0.000708657
0.000709004
0.000709352
0.000709702
0.000710053
0.000710406
0.000710761
0.000711117
0.000711475
0.000711835
0.000712196
0.000712559
0.000712923
0.000713289
0.000713656
0.000714025
0.000714395
0.000714767
0.000715141
0.000715515
0.000715892
0.00071627
0.000716649
0.00071703
0.000717412
0.000717796
0.000718181
0.000718567
0.000718955
0.000719344
0.000719735
0.000720127
0.000720521
0.000720915
0.000721311
0.000721709
0.000722107
0.000722507
0.000722909
0.000723311
0.000723715
0.00072412
0.000724526
0.000724934
0.000725343
0.000725753
0.000726164
0.000726576
0.000726989
0.000727404
0.00072782
0.000728237
0.000728655
0.000729074
0.000729494
0.000729916
0.000730338
0.000730761
0.000731186
0.000731612
0.000732038
0.000732466
0.000732894
0.000733324
0.000733755
0.000734186
0.000734619
0.000735052
0.000735487
0.000735922
0.000736358
0.000736796
0.000737234
0.000737673
0.000738113
0.000738554
0.000738995
0.000739438
0.000739881
0.000740326
0.000740771
0.000741217
0.000741664
0.000742111
0.00074256
0.000743009
0.000743459
0.00074391
0.000744362
0.000744815
0.000745268
0.000745722
0.000746177
0.000746633
0.000747089
0.000747547
0.000748005
0.000748464
0.000748923
0.000749384
0.000749845
0.000750307
0.00075077
0.000751234
0.000751699
0.000752164
0.00075263
0.000753097
0.000753565
0.000754033
0.000754503
0.000754973
0.000755444
0.000755917
0.00075639
0.000756863
0.000757338
0.000757814
0.00075829
0.000758768
0.000759247
0.000759726
0.000760207
0.000760688
0.000761171
0.000761654
0.000762139
0.000762625
0.000763112
0.0007636
0.000764089
0.000764579
0.000765071
0.000765564
0.000766058
0.000766554
0.00076705
0.000767548
0.000768048
0.000768549
0.000769051
0.000769555
0.000770061
0.000770568
0.000771076
0.000771587
0.000772099
0.000772612
0.000773128
0.000773645
0.000774164
0.000774685
0.000775208
0.000775734
0.000776261
0.00077679
0.000777321
0.000777855
0.000778391
0.000778929
0.00077947
0.000780013
0.000780559
0.000781107
0.000781658
0.000782211
0.000782768
0.000783327
0.000783889
0.000784454
0.000785022
0.000785594
0.000786168
0.000786746
0.000787327
0.000787912
0.0007885
0.000789092
0.000789688
0.000790287
0.00079089
0.000791497
0.000792109
0.000792724
0.000793344
0.000793968
0.000794596
0.000795229
0.000795867
0.000796509
0.000797157
0.000797809
0.000798466
0.000799129
0.000799796
0.00080047
0.000801148
0.000801833
0.000802523
0.000803219
0.000803921
0.000804629
0.000805343
0.000806064
0.000806791
0.000807525
0.000808266
0.000809013
0.000809768
0.00081053
0.000811299
0.000812075
0.000812859
0.000813651
0.000814451
0.000815259
0.000816075
0.000816899
0.000817732
0.000818574
0.000819425
0.000820284
0.000821153
0.000822031
0.000822919
0.000823816
0.000824724
0.000825641
0.000826569
0.000827507
0.000828457
0.000829417
0.000830389
0.000831375
0.000832369
0.000833351
0.000699763
0.000700039
0.000700327
0.000700617
0.000700908
0.0007012
0.000701495
0.000701792
0.000702092
0.000702394
0.000702697
0.000703003
0.000703312
0.000703622
0.000703934
0.000704249
0.000704565
0.000704884
0.000705204
0.000705527
0.000705851
0.000706178
0.000706506
0.000706837
0.000707169
0.000707503
0.000707839
0.000708178
0.000708517
0.000708859
0.000709203
0.000709548
0.000709895
0.000710244
0.000710595
0.000710947
0.000711302
0.000711658
0.000712015
0.000712375
0.000712736
0.000713099
0.000713463
0.000713829
0.000714197
0.000714567
0.000714938
0.000715311
0.000715685
0.000716061
0.000716438
0.000716817
0.000717198
0.00071758
0.000717964
0.000718349
0.000718736
0.000719125
0.000719514
0.000719906
0.000720299
0.000720693
0.000721089
0.000721486
0.000721885
0.000722285
0.000722686
0.000723089
0.000723493
0.000723899
0.000724306
0.000724715
0.000725125
0.000725536
0.000725948
0.000726362
0.000726777
0.000727194
0.000727611
0.00072803
0.000728451
0.000728872
0.000729295
0.000729719
0.000730144
0.000730571
0.000730998
0.000731427
0.000731857
0.000732288
0.00073272
0.000733154
0.000733588
0.000734024
0.00073446
0.000734898
0.000735337
0.000735777
0.000736218
0.00073666
0.000737102
0.000737546
0.000737991
0.000738437
0.000738884
0.000739332
0.000739781
0.00074023
0.000740681
0.000741132
0.000741584
0.000742037
0.000742491
0.000742946
0.000743402
0.000743858
0.000744316
0.000744774
0.000745232
0.000745692
0.000746152
0.000746613
0.000747075
0.000747537
0.000748
0.000748464
0.000748929
0.000749394
0.00074986
0.000750326
0.000750793
0.000751261
0.000751729
0.000752198
0.000752667
0.000753137
0.000753608
0.000754079
0.000754551
0.000755023
0.000755496
0.000755969
0.000756442
0.000756917
0.000757391
0.000757867
0.000758342
0.000758819
0.000759295
0.000759772
0.00076025
0.000760728
0.000761207
0.000761686
0.000762165
0.000762645
0.000763125
0.000763606
0.000764087
0.000764569
0.000765051
0.000765533
0.000766016
0.0007665
0.000766984
0.000767468
0.000767953
0.000768438
0.000768924
0.00076941
0.000769897
0.000770384
0.000770872
0.00077136
0.000771849
0.000772338
0.000772828
0.000773318
0.000773809
0.000774301
0.000774793
0.000775285
0.000775779
0.000776273
0.000776767
0.000777263
0.000777759
0.000778255
0.000778753
0.000779251
0.00077975
0.00078025