/*--------------------------------*- C++ -*----------------------------------*\
| =========                 |                                                 |
| \\      /  F ield         | OpenFOAM: The Open Source CFD Toolbox           |
|  \\    /   O peration     | Version:  2.4.0                                 |
|   \\  /    A nd           | Web:      www.OpenFOAM.org                      |
|    \\/     M anipulation  |                                                 |
\*---------------------------------------------------------------------------*/
FoamFile
{
    version     2.0;
    format      ascii;
    class       volScalarField;
    location    "0.003";
    object      p;
}
// * * * * * * * * * * * * * * * * * * * * * * * * * * * * * * * * * * * * * //

dimensions      [1 -1 -2 0 0 0 0];

internalField   nonuniform List<scalar> 
125
(
-0.0924634
-0.0926625
-0.0928598
-0.0930556
-0.0932499
-0.0934427
-0.0936341
-0.093824
-0.0940125
-0.0941995
-0.0943851
-0.0945692
-0.0947519
-0.0949331
-0.0951128
-0.0952911
-0.0954679
-0.0956432
-0.0958171
-0.0959895
-0.0961604
-0.0963299
-0.0964978
-0.0966643
-0.0968293
-0.0969928
-0.0971549
-0.0973154
-0.0974744
-0.097632
-0.0977881
-0.0979426
-0.0980957
-0.0982473
-0.0983974
-0.098546
-0.0986931
-0.0988387
-0.0989828
-0.0991254
-0.0992666
-0.0994062
-0.0995443
-0.0996809
-0.0998161
-0.0999497
-0.100082
-0.100213
-0.100342
-0.100469
-0.100596
-0.10072
-0.100843
-0.100965
-0.101085
-0.101204
-0.101321
-0.101437
-0.101551
-0.101664
-0.101776
-0.101885
-0.101994
-0.102101
-0.102206
-0.10231
-0.102413
-0.102514
-0.102613
-0.102712
-0.102808
-0.102904
-0.102997
-0.10309
-0.103181
-0.10327
-0.103358
-0.103445
-0.10353
-0.103614
-0.103697
-0.103777
-0.103857
-0.103935
-0.104012
-0.104087
-0.104161
-0.104234
-0.104305
-0.104375
-0.104443
-0.104511
-0.104576
-0.104641
-0.104704
-0.104765
-0.104825
-0.104884
-0.104942
-0.104998
-0.105053
-0.105107
-0.105159
-0.10521
-0.10526
-0.105308
-0.105355
-0.105401
-0.105445
-0.105488
-0.10553
-0.105571
-0.10561
-0.105648
-0.105685
-0.105721
-0.105755
-0.105788
-0.10582
-0.105851
-0.10588
-0.105908
-0.105934
-0.105959
-0.105983
)
;

boundaryField
{
    BotWall
    {
        type            calculated;
        value           nonuniform 0();
    }
    FreeStream
    {
        type            calculated;
        value           nonuniform 0();
    }
    FrontNBack
    {
        type            empty;
    }
    LeftSide
    {
        type            symmetryPlane;
    }
    RightSide
    {
        type            symmetryPlane;
    }
    procBoundary1to0
    {
        type            processor;
        value           uniform -0.106004;
    }
    procBoundary1to2
    {
        type            processor;
        value           uniform -0.0922624;
    }
    procBoundary1to3
    {
        type            processor;
        value           nonuniform List<scalar> 
75
(
-0.147288
-0.146869
-0.146453
-0.14604
-0.145629
-0.145221
-0.144815
-0.144413
-0.144013
-0.143616
-0.143221
-0.14283
-0.142441
-0.142055
-0.141671
-0.141291
-0.140912
-0.140537
-0.140164
-0.139794
-0.139427
-0.139062
-0.1387
-0.13834
-0.137983
-0.137629
-0.137277
-0.136928
-0.136581
-0.136237
-0.135895
-0.135556
-0.13522
-0.134886
-0.134554
-0.134225
-0.133898
-0.133574
-0.133252
-0.132933
-0.132616
-0.132301
-0.131989
-0.131679
-0.131371
-0.131066
-0.130763
-0.130462
-0.130164
-0.129868
-0.129574
-0.129283
-0.128993
-0.128706
-0.128421
-0.128138
-0.127858
-0.127579
-0.127303
-0.127029
-0.126756
-0.126486
-0.126218
-0.125952
-0.125689
-0.125427
-0.125167
-0.124909
-0.124653
-0.124399
-0.124147
-0.123897
-0.123649
-0.123402
-0.123158
)
;
    }
    procBoundary1to4
    {
        type            processor;
        value           nonuniform List<scalar> 
50
(
-0.171655
-0.171098
-0.170545
-0.169994
-0.169445
-0.1689
-0.168357
-0.167817
-0.16728
-0.166746
-0.166215
-0.165686
-0.16516
-0.164637
-0.164117
-0.1636
-0.163086
-0.162574
-0.162065
-0.161559
-0.161057
-0.160556
-0.160059
-0.159565
-0.159073
-0.158584
-0.158099
-0.157616
-0.157136
-0.156658
-0.156184
-0.155713
-0.155244
-0.154778
-0.154315
-0.153855
-0.153398
-0.152944
-0.152492
-0.152043
-0.151598
-0.151155
-0.150715
-0.150277
-0.149843
-0.149411
-0.148982
-0.148555
-0.148131
-0.147709
)
;
    }
}


// ************************************************************************* //
