/*--------------------------------*- C++ -*----------------------------------*\
| =========                 |                                                 |
| \\      /  F ield         | OpenFOAM: The Open Source CFD Toolbox           |
|  \\    /   O peration     | Version:  2.4.0                                 |
|   \\  /    A nd           | Web:      www.OpenFOAM.org                      |
|    \\/     M anipulation  |                                                 |
\*---------------------------------------------------------------------------*/
FoamFile
{
    version     2.0;
    format      ascii;
    class       volScalarField;
    location    "3.4";
    object      p;
}
// * * * * * * * * * * * * * * * * * * * * * * * * * * * * * * * * * * * * * //

dimensions      [1 -1 -2 0 0 0 0];

internalField   nonuniform List<scalar> 
8000
(
-3.15034
-3.10995
-3.05278
-2.98322
-2.90531
-2.82286
-2.66011
-2.80214
-2.83616
-2.63777
-1.43099
0.566717
-4.10991
-10.0222
-10.131
-9.40299
-8.0415
-6.81726
-6.78865
-7.31361
-6.23304
-3.34078
-1.7204
-1.21483
-1.13265
-1.21778
-1.29166
-1.33784
-1.36433
-1.37092
-1.36811
-1.36302
-1.34015
-1.30994
-1.29483
-1.30349
-1.31523
-1.31909
-1.32035
-1.31759
-1.31586
-1.32096
-1.32327
-1.31035
-1.30429
-1.37639
-1.36766
-1.36036
-1.35924
-1.35867
-0.894408
-0.909712
-0.921245
-0.923364
-0.915408
-0.901349
-0.881652
-0.847366
-0.779428
-0.650103
-0.47365
-0.315079
-0.172014
-0.111636
-0.0622509
0.0216574
0.1797
0.426386
0.785978
1.23674
1.6231
1.86219
-4.99205
-7.26253
-6.39119
-5.82965
-6.33679
-8.24768
-9.47581
-6.7338
-2.01395
-0.827736
-0.730624
-0.754241
-0.879559
-1.08853
-1.32211
-1.4451
-1.39571
-1.33405
-1.31138
-1.30774
-1.31202
-1.31668
-1.33666
-1.34526
-1.3299
-1.35144
-1.36974
-1.37895
1.16045
1.1524
1.14657
1.14485
1.14692
1.15246
1.16127
1.17338
1.18877
1.2076
1.2282
1.24895
1.27051
1.29732
1.33597
1.39489
1.47934
1.59438
1.74831
1.94045
2.14314
2.34759
2.52805
2.67759
2.85618
3.09027
3.36336
3.59515
3.66996
3.66438
0.619863
-6.39065
-6.04607
-5.22644
-7.16634
-7.6467
-1.8633
-0.121566
0.391845
0.0455029
-0.791357
-1.5436
-1.51255
-1.39515
-1.36986
-1.39088
-1.40822
-1.40724
-1.4048
-1.40198
2.10089
2.09247
2.08367
2.07705
2.07283
2.07081
2.07085
2.07296
2.07699
2.08296
2.09061
2.0998
2.11015
2.12171
2.13425
2.14799
2.16253
2.17806
2.19383
2.20978
2.22433
2.23798
2.25309
2.27468
2.30795
2.36179
2.44126
2.55266
2.67897
2.80665
2.95653
3.11464
3.32958
3.56724
3.52809
2.68724
-0.814252
-3.71595
-7.16508
-8.33181
-7.27992
-1.26113
0.274623
0.25131
-0.787819
-1.43298
-1.4486
-1.4086
-1.4015
-1.40591
3.38464
3.36856
3.35304
3.34078
3.33144
3.32461
3.32019
3.31821
3.31869
3.32165
3.32711
3.33507
3.34556
3.3586
3.37422
3.3924
3.41317
3.43639
3.46204
3.48987
3.51977
3.55139
3.58462
3.61918
3.65501
3.6917
3.72915
3.76669
3.80394
3.84005
3.87769
3.92274
3.97987
4.04694
4.11025
4.17483
4.2556
4.39095
4.53854
4.49048
2.79683
1.27701
-5.18437
-6.7328
-5.92476
-2.02509
-0.429832
-0.781072
-1.36543
-1.46078
3.55363
3.53326
3.51099
3.49144
3.47485
3.46072
3.44887
3.43928
3.43196
3.42688
3.42406
3.42346
3.42509
3.42891
3.43495
3.44315
3.45356
3.46608
3.48083
3.49765
3.51671
3.53781
3.56117
3.58653
3.61421
3.6438
3.67569
3.70926
3.74505
3.78214
3.8213
3.86135
3.90342
3.94577
3.99002
4.03435
4.08254
4.13332
4.18636
4.23832
4.28901
4.37441
4.49711
4.54685
2.68055
0.654533
-5.5343
-5.0631
-2.66498
-1.56422
4.23095
4.20086
4.1701
4.14353
4.12062
4.10058
4.0832
4.06846
4.05637
4.04692
4.04008
4.03583
4.03414
4.03502
4.03842
4.04435
4.05279
4.06373
4.07715
4.09307
4.11145
4.13232
4.15564
4.18146
4.20974
4.24053
4.2738
4.30963
4.34798
4.38895
4.4325
4.47882
4.52766
4.57932
4.63368
4.69083
4.75069
4.81332
4.87875
4.94721
5.01906
5.09347
5.16896
5.24407
5.31319
5.44952
5.62056
5.28488
-0.0784662
-3.19545
3.54322
3.51672
3.48769
3.46169
3.43886
3.41857
3.40058
3.38484
3.37136
3.36011
3.35109
3.34427
3.33963
3.33716
3.33684
3.33867
3.34263
3.34872
3.35693
3.36725
3.3797
3.39426
3.41095
3.42975
3.45069
3.47377
3.49902
3.52642
3.55602
3.58782
3.62186
3.65815
3.69676
3.73769
3.78103
3.82679
3.87508
3.92592
3.97944
4.0357
4.09478
4.15674
4.22197
4.29111
4.36444
4.43593
4.49235
4.55497
4.63987
4.61206
3.2889
3.26812
3.24697
3.22857
3.21253
3.1983
3.18577
3.17493
3.16581
3.15841
3.15272
3.14874
3.14646
3.14589
3.14701
3.14984
3.15437
3.1606
3.16854
3.17819
3.18955
3.20262
3.21742
3.23396
3.25223
3.27225
3.29404
3.31759
3.34293
3.37006
3.39901
3.42977
3.46239
3.49684
3.53317
3.57137
3.61146
3.65343
3.69731
3.74306
3.79073
3.84023
3.8916
3.94477
3.99974
4.05638
4.1145
4.17229
4.22789
4.28927
1.94429
1.93538
1.92492
1.91512
1.90624
1.89812
1.89069
1.88393
1.87787
1.87251
1.86786
1.86391
1.86067
1.85813
1.8563
1.85515
1.8547
1.85493
1.85583
1.85738
1.85957
1.8624
1.86583
1.86985
1.87445
1.87959
1.88524
1.89139
1.89799
1.90502
1.91245
1.92022
1.92831
1.93667
1.94525
1.95401
1.9629
1.97186
1.98084
1.98978
1.99864
2.00735
2.01587
2.02414
2.03211
2.03976
2.04723
2.0543
2.06192
2.06873
1.27528
1.26904
1.26306
1.25796
1.25348
1.24948
1.24594
1.24287
1.2403
1.23822
1.23664
1.23557
1.23501
1.23495
1.23539
1.23634
1.23778
1.23972
1.24214
1.24503
1.24839
1.2522
1.25645
1.26112
1.2662
1.27168
1.27752
1.2837
1.2902
1.29701
1.30407
1.31137
1.31886
1.32652
1.33429
1.34215
1.35003
1.3579
1.36567
1.37333
1.38077
1.38796
1.39477
1.40117
1.40684
1.41168
1.41633
1.42361
1.43618
1.43889
-0.0757309
-0.077648
-0.0802982
-0.0829623
-0.0854694
-0.0878403
-0.090099
-0.0922484
-0.0942834
-0.0961993
-0.0979923
-0.0996591
-0.101196
-0.1026
-0.103867
-0.104995
-0.105979
-0.106818
-0.107506
-0.108041
-0.10842
-0.108641
-0.108696
-0.108585
-0.108301
-0.107843
-0.107202
-0.106378
-0.105362
-0.104152
-0.102737
-0.101114
-0.0992714
-0.0972033
-0.0949008
-0.0923494
-0.0895472
-0.0864652
-0.0831131
-0.079434
-0.075464
-0.0711523
-0.0666784
-0.0618676
-0.0559319
-0.0461437
-0.0332002
-0.0380928
-0.120387
-0.406311
-0.962244
-0.963411
-0.964222
-0.964666
-0.964852
-0.964816
-0.964551
-0.96405
-0.963302
-0.962302
-0.961043
-0.959517
-0.957716
-0.955635
-0.95326
-0.950587
-0.947603
-0.944301
-0.940665
-0.936691
-0.932359
-0.927665
-0.922586
-0.917117
-0.911233
-0.904929
-0.898176
-0.890969
-0.883273
-0.875084
-0.866364
-0.857107
-0.847267
-0.836842
-0.825777
-0.814071
-0.801662
-0.788544
-0.774639
-0.759947
-0.744468
-0.728402
-0.711637
-0.6923
-0.664977
-0.629281
-0.630027
-0.827288
-1.87302
-2.3048
-2.17749
-2.1749
-2.17232
-2.1703
-2.16882
-2.16782
-2.16727
-2.16717
-2.16752
-2.16832
-2.16958
-2.17129
-2.17345
-2.17606
-2.17913
-2.18265
-2.18662
-2.19105
-2.19594
-2.20129
-2.20709
-2.21336
-2.2201
-2.22731
-2.23498
-2.24314
-2.25176
-2.26088
-2.27048
-2.28058
-2.29116
-2.30227
-2.31384
-2.32599
-2.33858
-2.35177
-2.36538
-2.37963
-2.39432
-2.41006
-2.42659
-2.44263
-2.45103
-2.44849
-2.47748
-2.70473
-3.30266
-3.60152
-3.44894
-2.85595
-3.31152
-3.30989
-3.30865
-3.30778
-3.30709
-3.30655
-3.30615
-3.30592
-3.30585
-3.30596
-3.30623
-3.30669
-3.30732
-3.30812
-3.3091
-3.31026
-3.31158
-3.31309
-3.31475
-3.31659
-3.31858
-3.32073
-3.32303
-3.32549
-3.32808
-3.33082
-3.33367
-3.33666
-3.33974
-3.34296
-3.34624
-3.34966
-3.35311
-3.35669
-3.36025
-3.36394
-3.36756
-3.37144
-3.37558
-3.37992
-3.38115
-3.37321
-3.36253
-3.42525
-3.72737
-4.59806
-4.17851
-3.13552
-2.04363
-1.71121
-3.98865
-3.98355
-3.97716
-3.97147
-3.96685
-3.96324
-3.96056
-3.95881
-3.95798
-3.95809
-3.95912
-3.96108
-3.96397
-3.96778
-3.97251
-3.97816
-3.98474
-3.99222
-4.00064
-4.00998
-4.02026
-4.03147
-4.04363
-4.05674
-4.07084
-4.0859
-4.10198
-4.11904
-4.13718
-4.15633
-4.17661
-4.19793
-4.22044
-4.244
-4.26882
-4.29478
-4.32241
-4.35157
-4.38084
-4.40325
-4.41571
-4.46449
-4.71706
-5.2666
-4.51877
-2.68179
-1.95776
-1.73009
-1.6932
-1.69134
-5.60883
-5.59841
-5.58955
-5.58268
-5.5771
-5.57251
-5.56893
-5.56639
-5.56491
-5.56449
-5.56513
-5.56682
-5.56956
-5.57334
-5.57815
-5.58398
-5.59082
-5.59867
-5.60751
-5.61734
-5.62815
-5.63995
-5.65271
-5.66646
-5.68116
-5.69685
-5.7135
-5.73113
-5.74971
-5.76929
-5.78981
-5.81132
-5.83377
-5.85719
-5.88158
-5.90716
-5.93371
-5.95969
-5.98103
-6.00063
-6.06025
-6.25874
-6.51747
-5.67375
-2.81111
-1.80205
-1.7154
-1.7162
-1.71676
-1.71684
-5.21912
-5.1984
-5.17447
-5.15497
-5.14059
-5.1303
-5.12327
-5.11903
-5.11721
-5.11749
-5.11958
-5.12322
-5.12817
-5.13423
-5.14122
-5.14899
-5.15742
-5.1664
-5.17585
-5.1857
-5.1959
-5.20643
-5.21728
-5.22848
-5.24004
-5.25203
-5.26451
-5.2776
-5.2914
-5.30608
-5.32179
-5.33877
-5.35721
-5.37745
-5.39972
-5.42452
-5.45227
-5.48349
-5.51745
-5.55217
-5.58967
-5.65926
-5.83281
-6.07378
-5.15784
-2.47381
-1.91455
-1.72398
-1.70825
-1.74053
-7.49155
-7.42748
-7.37057
-7.32902
-7.29887
-7.27688
-7.26156
-7.25206
-7.24764
-7.24761
-7.25137
-7.2584
-7.26828
-7.28063
-7.29514
-7.31155
-7.32967
-7.3493
-7.37033
-7.39265
-7.41622
-7.44098
-7.46698
-7.49421
-7.52279
-7.55277
-7.58435
-7.61765
-7.65296
-7.69046
-7.73061
-7.77363
-7.82016
-7.87053
-7.92559
-7.98582
-8.05238
-8.12588
-8.20781
-8.29884
-8.40211
-8.52148
-8.6616
-8.80353
-8.87625
-8.87441
-7.8021
-2.65172
-1.51108
-1.7664
-2.2911
-2.72575
-3.15974
-3.53072
-3.85146
-4.13737
-4.39495
-4.627
-4.8357
-5.02315
-5.19119
-5.34137
-5.47496
-5.59302
-5.69638
-5.78576
-5.86168
-5.92456
-5.97469
-6.01225
-6.03732
-6.04988
-6.04981
-6.0369
-6.01082
-5.97117
-5.91737
-5.8488
-5.76459
-5.66382
-5.54529
-5.40769
-5.24933
-5.0684
-4.86258
-4.62932
-4.3655
-4.06752
-3.73079
-3.35082
-2.92111
-2.43559
-1.88529
-1.25226
-0.523793
0.289721
0.961074
-2.20329
-7.5853
-1.78696
-1.35934
-1.35918
-1.35914
-1.35931
-1.35972
-1.36012
-1.36056
-1.36252
-1.36411
-1.36378
-1.36653
-1.36582
-1.36544
-1.36504
-1.36465
-1.36428
-1.36393
-1.36354
-1.36316
-1.36283
-1.36251
-1.36221
-1.36185
-1.36153
-1.36125
-1.36098
-1.36074
-1.3605
-1.36027
-1.36004
-1.35982
-1.3596
-1.35937
-1.35912
-1.35888
-1.35862
-1.35834
-1.35804
-1.3577
-1.35737
-1.35706
-1.35677
-1.3565
-1.35626
-1.35604
-1.35584
-1.35566
-1.3555
-1.35536
-1.35524
-1.38178
-1.38195
-1.38263
-1.38328
-1.38469
-1.38263
-1.35341
-1.38027
-1.37894
-1.37824
-1.37874
-1.37995
-1.38107
-1.38061
-1.38246
-1.3822
-1.38088
-1.38531
-1.37859
-1.38362
-1.38302
-1.3827
-1.38383
-1.3836
-1.38322
-1.38238
-1.38228
-1.3818
-1.3816
-1.38118
-1.38105
-1.38075
-1.38
-1.38027
-1.3797
-1.37916
-1.3787
-1.37821
-1.37783
-1.37746
-1.3771
-1.37676
-1.37644
-1.37614
-1.37589
-1.37566
-1.37547
-1.37531
-1.37519
-1.3751
-1.40298
-1.4063
-1.40545
-1.39653
-1.37142
-1.32678
-1.28583
-1.26728
-1.31273
-1.36609
-1.39703
-1.40644
-1.40849
-1.40891
-1.40939
-1.41028
-1.41099
-1.41171
-1.41254
-1.4134
-1.40523
-1.41253
-1.41334
-1.4141
-1.41495
-1.41586
-1.41682
-1.41782
-1.41888
-1.42
-1.4212
-1.42249
-1.42347
-1.42498
-1.4268
-1.43076
-1.30454
-1.36763
-1.3733
-1.37497
-1.37648
-1.37794
-1.37931
-1.38054
-1.38166
-1.3827
-1.38365
-1.38453
-1.38533
-1.38607
-1.40972
-1.41051
-1.37029
-1.40856
-1.4229
-1.43746
-1.42823
-1.42813
-1.42638
-1.43291
-1.43864
-1.43965
-1.43931
-1.43889
-1.43859
-1.43822
-1.43787
-1.43737
-1.437
-1.43658
-1.4361
-1.43558
-1.43509
-1.43458
-1.43409
-1.4336
-1.43302
-1.43242
-1.43178
-1.4311
-1.43038
-1.42949
-1.42794
-1.42481
-1.41904
-1.41473
-1.41316
-1.41407
-1.41793
-1.41994
-1.42031
-1.41997
-1.41959
-1.41974
-1.41941
-1.41937
-1.41918
-1.41903
-1.41893
-1.41887
-1.46625
-1.4667
-1.46731
-1.46833
-1.46841
-1.46788
-1.46713
-1.46629
-1.46571
-1.46543
-1.46547
-1.4654
-1.46526
-1.46514
-1.4651
-1.46427
-1.46484
-1.4649
-1.46498
-1.46501
-1.46485
-1.46532
-1.46559
-1.46596
-1.4664
-1.4669
-1.46747
-1.46809
-1.46893
-1.46966
-1.47047
-1.47133
-1.4722
-1.47305
-1.38069
-1.4314
-1.43452
-1.43473
-1.43566
-1.43712
-1.43782
-1.43814
-1.43875
-1.43884
-1.43943
-1.43973
-1.44
-1.44023
-1.44044
-1.44063
-1.41136
-1.41791
-1.43224
-1.46138
-1.47741
-1.48151
-1.48186
-1.48188
-1.48186
-1.48179
-1.48131
-1.48141
-1.48153
-1.4811
-1.48115
-1.48031
-1.48076
-1.48081
-1.48085
-1.4809
-1.48096
-1.481
-1.48029
-1.48038
-1.48049
-1.48054
-1.48056
-1.48058
-1.48059
-1.48057
-1.48053
-1.48058
-1.4809
-1.46504
-1.47458
-1.47413
-1.47341
-1.47328
-1.47311
-1.47291
-1.47263
-1.47231
-1.47199
-1.47168
-1.47138
-1.47109
-1.47082
-1.47058
-1.47035
-1.47014
-2.62084
-1.78722
-1.43461
-1.41793
-1.45961
-1.48644
-1.49734
-1.50133
-1.50263
-1.50299
-1.50307
-1.50306
-1.50302
-1.50297
-1.50292
-1.50286
-1.50282
-1.50278
-1.50273
-1.50267
-1.50259
-1.50254
-1.50247
-1.50241
-1.50213
-1.50205
-1.50166
-1.50161
-1.50145
-1.50144
-1.50133
-1.50116
-1.49043
-1.49547
-1.4952
-1.49484
-1.49457
-1.49438
-1.49421
-1.49406
-1.49393
-1.49381
-1.49371
-1.49363
-1.49356
-1.49349
-1.49346
-1.49344
-1.49343
-1.49342
2.13679
0.134693
-0.641302
-0.856328
-1.22355
-1.45057
-1.50803
-1.51803
-1.51994
-1.52043
-1.52058
-1.5206
-1.52057
-1.5204
-1.52042
-1.52037
-1.5203
-1.52023
-1.52015
-1.52006
-1.51995
-1.51984
-1.51972
-1.51951
-1.51942
-1.51925
-1.5191
-1.51893
-1.51872
-1.51846
-1.51807
-1.51738
-1.51709
-1.51726
-1.51749
-1.51753
-1.51748
-1.5174
-1.51732
-1.51726
-1.51733
-1.51731
-1.51732
-1.51733
-1.51731
-1.51723
-1.51748
-1.5176
-1.51774
-1.5179
4.36436
4.3815
3.13306
1.63005
-0.422529
-1.37675
-1.52743
-1.54056
-1.54206
-1.5424
-1.54252
-1.54253
-1.5425
-1.5421
-1.54226
-1.54228
-1.54239
-1.54235
-1.54232
-1.54227
-1.54222
-1.54217
-1.5421
-1.54205
-1.54201
-1.54197
-1.54192
-1.54188
-1.54181
-1.54171
-1.53483
-1.53901
-1.53929
-1.53929
-1.53942
-1.53945
-1.53941
-1.53935
-1.53929
-1.53922
-1.53911
-1.53905
-1.53915
-1.53906
-1.5389
-1.53848
-1.53871
-1.53865
-1.5386
-1.53857
2.06853
2.05103
1.95609
1.43508
0.0602021
-1.32205
-1.54518
-1.56082
-1.5617
-1.56174
-1.56188
-1.56233
-1.56219
-1.56229
-1.56224
-1.56219
-1.56215
-1.56211
-1.56206
-1.56199
-1.56193
-1.56189
-1.56183
-1.56177
-1.5617
-1.56164
-1.56158
-1.56152
-1.55967
-1.56076
-1.56067
-1.56052
-1.5604
-1.56007
-1.55895
-1.55947
-1.55943
-1.55935
-1.55927
-1.5592
-1.55911
-1.55906
-1.55861
-1.55894
-1.5587
-1.55867
-1.55883
-1.55883
-1.55884
-1.55884
1.3519
1.04349
0.586865
-0.0301195
-0.98146
-1.49903
-1.58256
-1.5869
-1.58704
-1.58722
-1.5872
-1.58726
-1.58713
-1.58696
-1.58497
-1.58557
-1.58564
-1.58539
-1.58541
-1.58281
-1.58364
-1.58378
-1.58381
-1.58383
-1.58384
-1.58385
-1.58386
-1.58336
-1.58394
-1.5839
-1.58388
-1.58386
-1.58382
-1.58379
-1.58287
-1.58328
-1.58327
-1.58324
-1.58321
-1.58317
-1.58312
-1.58308
-1.58304
-1.58282
-1.58278
-1.58275
-1.58269
-1.58263
-1.58257
-1.5825
-1.11943
-1.4856
-1.53104
-1.50413
-1.56826
-1.60658
-1.60847
-1.60767
-1.6077
-1.60771
-1.60769
-1.60765
-1.60756
-1.60748
-1.60749
-1.6072
-1.60766
-1.60771
-1.6075
-1.60478
-1.60664
-1.60666
-1.60668
-1.60647
-1.60613
-1.60447
-1.60579
-1.60544
-1.60544
-1.60639
-1.60639
-1.60639
-1.60639
-1.60639
-1.60639
-1.6064
-1.60641
-1.60643
-1.60645
-1.60648
-1.60652
-1.60657
-1.60662
-1.60664
-1.60672
-1.60681
-1.60692
-1.60701
-1.60719
-1.60715
-2.26745
-2.05088
-1.80266
-1.68371
-1.63694
-1.6284
-1.62843
-1.6285
-1.6285
-1.62847
-1.62847
-1.62845
-1.62842
-1.62838
-1.62835
-1.62832
-1.62829
-1.62751
-1.62832
-1.62863
-1.62864
-1.62858
-1.62854
-1.62849
-1.62776
-1.62872
-1.62906
-1.62897
-1.62893
-1.62806
-1.6291
-1.62929
-1.62925
-1.62924
-1.62921
-1.62918
-1.62914
-1.62913
-1.62911
-1.62908
-1.62906
-1.62797
-1.62921
-1.62919
-1.62917
-1.62915
-1.62914
-1.62913
-1.62909
-1.62912
-2.08671
-1.73966
-1.65801
-1.64976
-1.64999
-1.6502
-1.6502
-1.6502
-1.65022
-1.65023
-1.65025
-1.65026
-1.65027
-1.65028
-1.65029
-1.6503
-1.65031
-1.65031
-1.65032
-1.65032
-1.65032
-1.65032
-1.65032
-1.65032
-1.65032
-1.65033
-1.65033
-1.65032
-1.65032
-1.65032
-1.65033
-1.65031
-1.65032
-1.65029
-1.65028
-1.65029
-1.6496
-1.64962
-1.64979
-1.64851
-1.64948
-1.64949
-1.64949
-1.64952
-1.64952
-1.64951
-1.6495
-1.64949
-1.64947
-1.64945
-1.67704
-1.67238
-1.6727
-1.67289
-1.67292
-1.67289
-1.67287
-1.67285
-1.67284
-1.67282
-1.6728
-1.67278
-1.67277
-1.67275
-1.67273
-1.67272
-1.6727
-1.67269
-1.67268
-1.67266
-1.67265
-1.67264
-1.67263
-1.67262
-1.67261
-1.6726
-1.67259
-1.67259
-1.67258
-1.67257
-1.67256
-1.67255
-1.67254
-1.67254
-1.67253
-1.67252
-1.67252
-1.67251
-1.6725
-1.67248
-1.67247
-1.67245
-1.67244
-1.67242
-1.67242
-1.67241
-1.6724
-1.67239
-1.67238
-1.67237
-1.69194
-1.69288
-1.69292
-1.69303
-1.69314
-1.69324
-1.69332
-1.6934
-1.69348
-1.69356
-1.69361
-1.69367
-1.69372
-1.69377
-1.69381
-1.69385
-1.69389
-1.69392
-1.69395
-1.69398
-1.694
-1.69402
-1.69404
-1.69405
-1.69407
-1.69408
-1.69409
-1.69409
-1.6941
-1.6941
-1.6941
-1.6941
-1.69409
-1.69409
-1.69408
-1.69407
-1.69406
-1.69405
-1.69403
-1.69402
-1.694
-1.69398
-1.69396
-1.69394
-1.69392
-1.6939
-1.69388
-1.69385
-1.69383
-1.6938
-1.71682
-1.71688
-1.71698
-1.71706
-1.71708
-1.71714
-1.71717
-1.71639
-1.71645
-1.71652
-1.71656
-1.71654
-1.71656
-1.71661
-1.71663
-1.71665
-1.71666
-1.71667
-1.71668
-1.71668
-1.71669
-1.71669
-1.71669
-1.71669
-1.71669
-1.71668
-1.71668
-1.71668
-1.71667
-1.71667
-1.71666
-1.71665
-1.71665
-1.71664
-1.71663
-1.71662
-1.71661
-1.7166
-1.71659
-1.71658
-1.71657
-1.71656
-1.71654
-1.71653
-1.71652
-1.7165
-1.71648
-1.71647
-1.71645
-1.71644
-1.7404
-1.74023
-1.74014
-1.74009
-1.74004
-1.73999
-1.73995
-1.7399
-1.73985
-1.7398
-1.73976
-1.73972
-1.73967
-1.73963
-1.73959
-1.73954
-1.73951
-1.73947
-1.73943
-1.73939
-1.73936
-1.73932
-1.73929
-1.73926
-1.73923
-1.7392
-1.73917
-1.73914
-1.73912
-1.73909
-1.73906
-1.73904
-1.73902
-1.73899
-1.73897
-1.73894
-1.73892
-1.7389
-1.73887
-1.73885
-1.73883
-1.7388
-1.73878
-1.73876
-1.73873
-1.73871
-1.73869
-1.73866
-1.73864
-1.73861
-1.76167
-1.76248
-1.76281
-1.7628
-1.76274
-1.76268
-1.76263
-1.76258
-1.76253
-1.76248
-1.76242
-1.76237
-1.76231
-1.76226
-1.76221
-1.76216
-1.76211
-1.76207
-1.76202
-1.76198
-1.76194
-1.7619
-1.76186
-1.76182
-1.76178
-1.76175
-1.76171
-1.76168
-1.76165
-1.76161
-1.76158
-1.76155
-1.76152
-1.76149
-1.76146
-1.76143
-1.76141
-1.76138
-1.76135
-1.76132
-1.7613
-1.76127
-1.76124
-1.76122
-1.76119
-1.76116
-1.76114
-1.76111
-1.76108
-1.76106
-1.78439
-1.7841
-1.78419
-1.78424
-1.78426
-1.78429
-1.78416
-1.78416
-1.78392
-1.78411
-1.78411
-1.7841
-1.78414
-1.78413
-1.78412
-1.7841
-1.78409
-1.78407
-1.78405
-1.78403
-1.78401
-1.78399
-1.78397
-1.78395
-1.78393
-1.78391
-1.78389
-1.78386
-1.78384
-1.78382
-1.7838
-1.78378
-1.78375
-1.78373
-1.78371
-1.78369
-1.78366
-1.78364
-1.78362
-1.78359
-1.78357
-1.78355
-1.78352
-1.7835
-1.78347
-1.78345
-1.78343
-1.7834
-1.78338
-1.78335
-1.35515
-1.35509
-1.35503
-1.35498
-1.35494
-1.35489
-1.35486
-1.35482
-1.35479
-1.35477
-1.35475
-1.35473
-1.35472
-1.35471
-1.3547
-1.3547
-1.3547
-1.3547
-1.3547
-1.35471
-1.35472
-1.35474
-1.35475
-1.35477
-1.35479
-1.35482
-1.35484
-1.35487
-1.3549
-1.35493
-1.35497
-1.355
-1.35504
-1.35508
-1.35512
-1.35516
-1.35521
-1.35526
-1.3553
-1.35535
-1.35541
-1.35546
-1.35551
-1.35557
-1.35563
-1.35569
-1.35575
-1.35581
-1.35587
-1.35593
-1.356
-1.35606
-1.35613
-1.3562
-1.35627
-1.35634
-1.35641
-1.35649
-1.35656
-1.35663
-1.35671
-1.35679
-1.35686
-1.35694
-1.35702
-1.3571
-1.35718
-1.35727
-1.35735
-1.35743
-1.35752
-1.3576
-1.35769
-1.35777
-1.35786
-1.35795
-1.35804
-1.35813
-1.35821
-1.3583
-1.3584
-1.35849
-1.35858
-1.35867
-1.35876
-1.35886
-1.35895
-1.35905
-1.35914
-1.35924
-1.35933
-1.35943
-1.35952
-1.35962
-1.35972
-1.35982
-1.35991
-1.36001
-1.36011
-1.36021
-1.36031
-1.36041
-1.36051
-1.36061
-1.36071
-1.36081
-1.36091
-1.36101
-1.36112
-1.36122
-1.36132
-1.36142
-1.36152
-1.36163
-1.36173
-1.36183
-1.36194
-1.36204
-1.36214
-1.36225
-1.36235
-1.36245
-1.36256
-1.36266
-1.36276
-1.36287
-1.36297
-1.36308
-1.36318
-1.36328
-1.36339
-1.36349
-1.36359
-1.3637
-1.3638
-1.3639
-1.36401
-1.36411
-1.36421
-1.36431
-1.36442
-1.36452
-1.36462
-1.36472
-1.36482
-1.36492
-1.36502
-1.36512
-1.36522
-1.36532
-1.36542
-1.36552
-1.36561
-1.36571
-1.36581
-1.3659
-1.366
-1.3661
-1.36619
-1.36628
-1.36638
-1.36647
-1.36656
-1.36665
-1.36674
-1.36683
-1.36692
-1.36701
-1.3671
-1.36719
-1.36727
-1.36736
-1.36744
-1.36753
-1.36761
-1.36769
-1.36777
-1.36785
-1.36793
-1.36801
-1.36809
-1.36816
-1.36824
-1.36831
-1.36839
-1.36846
-1.36853
-1.3686
-1.36867
-1.36874
-1.3688
-1.36887
-1.36893
-1.369
-1.36906
-1.36912
-1.36918
-1.36924
-1.3693
-1.36935
-1.36941
-1.36946
-1.36951
-1.36957
-1.36962
-1.36967
-1.36971
-1.36976
-1.36981
-1.36985
-1.36989
-1.36994
-1.36998
-1.37002
-1.37005
-1.37009
-1.37013
-1.37016
-1.37019
-1.37023
-1.37026
-1.37029
-1.37031
-1.37034
-1.37037
-1.37039
-1.37041
-1.37044
-1.37046
-1.37048
-1.37049
-1.37051
-1.37052
-1.37054
-1.37055
-1.37056
-1.37057
-1.37058
-1.37059
-1.37059
-1.3706
-1.3706
-1.3706
-1.3706
-1.3706
-1.3706
-1.3706
-1.3706
-1.37059
-1.37059
-1.37058
-1.37057
-1.37056
-1.37055
-1.37054
-1.37052
-1.37051
-1.37049
-1.37048
-1.37046
-1.37044
-1.37042
-1.3704
-1.37037
-1.37035
-1.37033
-1.3703
-1.37028
-1.37025
-1.37022
-1.37019
-1.37016
-1.37014
-1.37011
-1.37008
-1.37005
-1.37003
-1.37
-1.36997
-1.36994
-1.3699
-1.36987
-1.36984
-1.3698
-1.36976
-1.36973
-1.36969
-1.36965
-1.36961
-1.36957
-1.36953
-1.36949
-1.36945
-1.3694
-1.36936
-1.36931
-1.36927
-1.36922
-1.36917
-1.36912
-1.37506
-1.37503
-1.37499
-1.37496
-1.37494
-1.37492
-1.3749
-1.37489
-1.37488
-1.37488
-1.37488
-1.37489
-1.3749
-1.37491
-1.37493
-1.37495
-1.37498
-1.37501
-1.37504
-1.37508
-1.37511
-1.37516
-1.3752
-1.37525
-1.3753
-1.37535
-1.37541
-1.37547
-1.37553
-1.37559
-1.37566
-1.37572
-1.37579
-1.37587
-1.37594
-1.37601
-1.37609
-1.37617
-1.37625
-1.37633
-1.37642
-1.3765
-1.37659
-1.37667
-1.37676
-1.37685
-1.37694
-1.37703
-1.37713
-1.37722
-1.37731
-1.37741
-1.3775
-1.3776
-1.3777
-1.3778
-1.3779
-1.37799
-1.37809
-1.37819
-1.3783
-1.3784
-1.3785
-1.3786
-1.3787
-1.37881
-1.37891
-1.37902
-1.37912
-1.37923
-1.37933
-1.37944
-1.37954
-1.37965
-1.37976
-1.37986
-1.37997
-1.38008
-1.38018
-1.38029
-1.3804
-1.38051
-1.38062
-1.38073
-1.38084
-1.38094
-1.38105
-1.38116
-1.38127
-1.38138
-1.38149
-1.38161
-1.38172
-1.38183
-1.38194
-1.38205
-1.38216
-1.38227
-1.38238
-1.3825
-1.38261
-1.38272
-1.38283
-1.38294
-1.38306
-1.38317
-1.38328
-1.38339
-1.38351
-1.38362
-1.38373
-1.38385
-1.38396
-1.38407
-1.38418
-1.3843
-1.38441
-1.38452
-1.38463
-1.38475
-1.38486
-1.38497
-1.38508
-1.3852
-1.38531
-1.38542
-1.38553
-1.38564
-1.38575
-1.38586
-1.38597
-1.38608
-1.38619
-1.3863
-1.38641
-1.38652
-1.38663
-1.38674
-1.38685
-1.38696
-1.38706
-1.38717
-1.38728
-1.38738
-1.38749
-1.38759
-1.3877
-1.3878
-1.3879
-1.38801
-1.38811
-1.38821
-1.38831
-1.38841
-1.38851
-1.38861
-1.38871
-1.38881
-1.3889
-1.389
-1.38909
-1.38919
-1.38928
-1.38938
-1.38947
-1.38956
-1.38965
-1.38974
-1.38983
-1.38992
-1.39
-1.39009
-1.39017
-1.39026
-1.39034
-1.39042
-1.3905
-1.39058
-1.39066
-1.39074
-1.39082
-1.39089
-1.39097
-1.39104
-1.39111
-1.39118
-1.39126
-1.39132
-1.39139
-1.39146
-1.39152
-1.39159
-1.39165
-1.39171
-1.39177
-1.39183
-1.39189
-1.39195
-1.39201
-1.39206
-1.39211
-1.39217
-1.39222
-1.39227
-1.39232
-1.39236
-1.39241
-1.39245
-1.3925
-1.39254
-1.39258
-1.39262
-1.39266
-1.39269
-1.39273
-1.39276
-1.3928
-1.39283
-1.39286
-1.39289
-1.39292
-1.39294
-1.39297
-1.39299
-1.39302
-1.39304
-1.39306
-1.39308
-1.39309
-1.39311
-1.39313
-1.39314
-1.39315
-1.39316
-1.39317
-1.39318
-1.39319
-1.3932
-1.3932
-1.39321
-1.39321
-1.39321
-1.39321
-1.39321
-1.3932
-1.3932
-1.39319
-1.39319
-1.39318
-1.39317
-1.39316
-1.39315
-1.39313
-1.39312
-1.39311
-1.39309
-1.39308
-1.39306
-1.39303
-1.39302
-1.393
-1.39297
-1.39294
-1.39292
-1.39289
-1.39287
-1.39284
-1.39281
-1.39278
-1.39274
-1.39271
-1.39268
-1.39265
-1.39262
-1.39258
-1.39255
-1.39252
-1.39249
-1.39245
-1.39242
-1.39239
-1.39235
-1.39232
-1.39228
-1.39223
-1.39219
-1.39215
-1.39211
-1.39207
-1.39204
-1.39199
-1.39194
-1.39189
-1.39185
-1.3918
-1.39175
-1.3917
-1.39165
-1.39159
-1.39154
-1.38662
-1.38701
-1.38742
-1.38782
-1.38821
-1.38859
-1.38896
-1.38932
-1.38968
-1.39002
-1.39036
-1.3907
-1.39102
-1.39134
-1.39165
-1.39195
-1.39225
-1.39254
-1.39282
-1.39309
-1.39336
-1.39363
-1.39388
-1.39413
-1.39438
-1.39462
-1.39485
-1.39508
-1.39531
-1.39553
-1.39574
-1.39595
-1.39616
-1.39636
-1.39655
-1.39675
-1.39694
-1.39712
-1.3973
-1.39748
-1.39766
-1.39783
-1.398
-1.39816
-1.39833
-1.39849
-1.39865
-1.3988
-1.39895
-1.39911
-1.39925
-1.3994
-1.39954
-1.39969
-1.39983
-1.39997
-1.40011
-1.40024
-1.40038
-1.40051
-1.40064
-1.40077
-1.4009
-1.40103
-1.40116
-1.40128
-1.40141
-1.40153
-1.40166
-1.40178
-1.4019
-1.40202
-1.40215
-1.40227
-1.40239
-1.4025
-1.40262
-1.40274
-1.40286
-1.40298
-1.40309
-1.40321
-1.40333
-1.40344
-1.40356
-1.40367
-1.40379
-1.4039
-1.40402
-1.40413
-1.40424
-1.40436
-1.40447
-1.40459
-1.4047
-1.40481
-1.40493
-1.40504
-1.40515
-1.40527
-1.40538
-1.40549
-1.4056
-1.40572
-1.40583
-1.40594
-1.40605
-1.40617
-1.40628
-1.40639
-1.4065
-1.40661
-1.40673
-1.40684
-1.40695
-1.40706
-1.40717
-1.40728
-1.4074
-1.40751
-1.40762
-1.40773
-1.40784
-1.40795
-1.40806
-1.40817
-1.40828
-1.40839
-1.4085
-1.40861
-1.40872
-1.40883
-1.40894
-1.40904
-1.40915
-1.40926
-1.40937
-1.40947
-1.40958
-1.40969
-1.40979
-1.4099
-1.41
-1.41011
-1.41021
-1.41032
-1.41042
-1.41052
-1.41062
-1.41072
-1.41083
-1.41093
-1.41103
-1.41112
-1.41122
-1.41132
-1.41142
-1.41151
-1.41161
-1.4117
-1.4118
-1.41189
-1.41198
-1.41208
-1.41217
-1.41226
-1.41235
-1.41243
-1.41252
-1.41261
-1.41269
-1.41278
-1.41286
-1.41294
-1.41302
-1.4131
-1.41318
-1.41326
-1.41334
-1.41342
-1.41349
-1.41357
-1.41364
-1.41371
-1.41378
-1.41385
-1.41392
-1.41399
-1.41405
-1.41412
-1.41418
-1.41424
-1.4143
-1.41436
-1.41442
-1.41448
-1.41454
-1.41459
-1.41464
-1.4147
-1.41475
-1.4148
-1.41485
-1.41489
-1.41494
-1.41498
-1.41503
-1.41507
-1.41511
-1.41515
-1.41519
-1.41522
-1.41526
-1.41527
-1.41532
-1.41536
-1.41539
-1.41539
-1.41544
-1.41548
-1.41551
-1.41549
-1.41556
-1.4156
-1.41562
-1.41563
-1.41565
-1.41565
-1.41565
-1.41569
-1.4157
-1.41563
-1.41573
-1.41575
-1.41575
-1.41575
-1.41575
-1.41575
-1.41575
-1.41575
-1.41574
-1.41575
-1.41574
-1.41574
-1.41571
-1.41571
-1.41572
-1.41571
-1.41568
-1.41566
-1.41569
-1.41568
-1.41567
-1.41564
-1.41562
-1.41559
-1.41553
-1.41556
-1.41546
-1.41551
-1.41541
-1.41542
-1.4154
-1.41536
-1.41533
-1.41529
-1.41515
-1.41516
-1.41514
-1.4151
-1.41504
-1.41499
-1.41484
-1.41468
-1.41493
-1.41485
-1.41495
-1.41489
-1.415
-1.41488
-1.41486
-1.41471
-1.41443
-1.41483
-1.41477
-1.41473
-1.41458
-1.41454
-1.41453
-1.4145
-1.41446
-1.41443
-1.41439
-1.41435
-1.41432
-1.41427
-1.4142
-1.41413
-1.41406
-1.41398
-1.41886
-1.41886
-1.41886
-1.41886
-1.41886
-1.41887
-1.41889
-1.4189
-1.41893
-1.41896
-1.41899
-1.41902
-1.41906
-1.41911
-1.41916
-1.41921
-1.41926
-1.41932
-1.41938
-1.41944
-1.41951
-1.41958
-1.41965
-1.41972
-1.4198
-1.41988
-1.41996
-1.42004
-1.42013
-1.42021
-1.4203
-1.42039
-1.42048
-1.42058
-1.42067
-1.42077
-1.42086
-1.42096
-1.42106
-1.42116
-1.42126
-1.42136
-1.42147
-1.42157
-1.42167
-1.42178
-1.42188
-1.42199
-1.4221
-1.4222
-1.42231
-1.42242
-1.42253
-1.42263
-1.42274
-1.42285
-1.42296
-1.42307
-1.42318
-1.42329
-1.4234
-1.42351
-1.42362
-1.42373
-1.42384
-1.42396
-1.42407
-1.42418
-1.42429
-1.4244
-1.42451
-1.42462
-1.42474
-1.42485
-1.42496
-1.42507
-1.42518
-1.4253
-1.42541
-1.42552
-1.42563
-1.42575
-1.42586
-1.42597
-1.42608
-1.4262
-1.42631
-1.42642
-1.42654
-1.42665
-1.42676
-1.42688
-1.42699
-1.42711
-1.42722
-1.42733
-1.42745
-1.42756
-1.42768
-1.42779
-1.42791
-1.42802
-1.42814
-1.42825
-1.42836
-1.42848
-1.42859
-1.42871
-1.42882
-1.42894
-1.42905
-1.42917
-1.42928
-1.4294
-1.42951
-1.42963
-1.42974
-1.42985
-1.42997
-1.43008
-1.4302
-1.43031
-1.43042
-1.43054
-1.43065
-1.43076
-1.43087
-1.43099
-1.4311
-1.43121
-1.43132
-1.43143
-1.43154
-1.43165
-1.43176
-1.43187
-1.43198
-1.43209
-1.4322
-1.43231
-1.43241
-1.43252
-1.43263
-1.43273
-1.43284
-1.43294
-1.43304
-1.43315
-1.43325
-1.43335
-1.43345
-1.43355
-1.43365
-1.43375
-1.43385
-1.43395
-1.43405
-1.43414
-1.43424
-1.43433
-1.43442
-1.43452
-1.43461
-1.4347
-1.43479
-1.43488
-1.43497
-1.43505
-1.43514
-1.43523
-1.43531
-1.43539
-1.43548
-1.43556
-1.43564
-1.43572
-1.43579
-1.43587
-1.43595
-1.43602
-1.43609
-1.43617
-1.43624
-1.43631
-1.43638
-1.43645
-1.43651
-1.43658
-1.43664
-1.4367
-1.43677
-1.43683
-1.43689
-1.43695
-1.437
-1.43706
-1.43711
-1.43717
-1.43722
-1.43727
-1.43732
-1.43737
-1.43741
-1.43746
-1.43751
-1.43755
-1.43759
-1.43763
-1.43767
-1.43771
-1.43775
-1.43778
-1.43782
-1.43785
-1.43788
-1.43791
-1.43794
-1.43797
-1.438
-1.43802
-1.43805
-1.43807
-1.43809
-1.43811
-1.43813
-1.43815
-1.43817
-1.43818
-1.4382
-1.43821
-1.43822
-1.43823
-1.43824
-1.43825
-1.43826
-1.43826
-1.43826
-1.43827
-1.43827
-1.43827
-1.43827
-1.43827
-1.43826
-1.43826
-1.43825
-1.43824
-1.43824
-1.43822
-1.43821
-1.4382
-1.43819
-1.43817
-1.43816
-1.43814
-1.43812
-1.4381
-1.43808
-1.43806
-1.43804
-1.43801
-1.43798
-1.43795
-1.43792
-1.43789
-1.43775
-1.4378
-1.43782
-1.43778
-1.43776
-1.43773
-1.43769
-1.43764
-1.43758
-1.43736
-1.43746
-1.43745
-1.43742
-1.4374
-1.43732
-1.43729
-1.43717
-1.43713
-1.437
-1.43696
-1.43717
-1.43655
-1.43665
-1.43656
-1.43641
-1.43633
-1.43666
-1.43666
-1.43654
-1.43666
-1.43653
-1.43664
-1.43657
-1.43652
-1.43646
-1.43639
-1.44078
-1.4409
-1.44103
-1.44116
-1.44128
-1.44141
-1.44153
-1.44165
-1.44177
-1.4419
-1.44202
-1.44214
-1.44226
-1.44238
-1.44249
-1.44261
-1.44272
-1.44284
-1.44295
-1.44306
-1.44317
-1.44328
-1.44339
-1.4435
-1.4436
-1.44371
-1.44381
-1.44392
-1.44402
-1.44412
-1.44422
-1.44432
-1.44442
-1.44452
-1.44462
-1.44471
-1.44481
-1.44491
-1.445
-1.4451
-1.44519
-1.44528
-1.44538
-1.44547
-1.44556
-1.44566
-1.44575
-1.44584
-1.44593
-1.44602
-1.44611
-1.4462
-1.44629
-1.44639
-1.44648
-1.44657
-1.44666
-1.44675
-1.44684
-1.44693
-1.44702
-1.44711
-1.44721
-1.4473
-1.44739
-1.44748
-1.44757
-1.44767
-1.44776
-1.44785
-1.44795
-1.44804
-1.44814
-1.44823
-1.44833
-1.44842
-1.44852
-1.44861
-1.44871
-1.44881
-1.4489
-1.449
-1.4491
-1.4492
-1.44929
-1.44939
-1.44949
-1.44959
-1.44969
-1.44979
-1.44989
-1.44999
-1.45009
-1.45019
-1.4503
-1.4504
-1.4505
-1.4506
-1.4507
-1.45081
-1.45091
-1.45101
-1.45112
-1.45122
-1.45133
-1.45143
-1.45153
-1.45164
-1.45174