/*--------------------------------*- C++ -*----------------------------------*\
| =========                 |                                                 |
| \\      /  F ield         | OpenFOAM: The Open Source CFD Toolbox           |
|  \\    /   O peration     | Version:  2.4.0                                 |
|   \\  /    A nd           | Web:      www.OpenFOAM.org                      |
|    \\/     M anipulation  |                                                 |
\*---------------------------------------------------------------------------*/
FoamFile
{
    version     2.0;
    format      ascii;
    class       surfaceScalarField;
    location    "3.4";
    object      phi;
}
// * * * * * * * * * * * * * * * * * * * * * * * * * * * * * * * * * * * * * //

dimensions      [0 3 -1 0 0 0 0];

internalField   nonuniform List<scalar> 
15580
(
2.12245e-13
-2.49408e-12
1.13729e-12
-7.04561e-12
2.95016e-12
-1.11256e-11
5.8136e-12
-1.47356e-11
9.93969e-12
-1.78716e-11
1.52424e-11
-2.05796e-11
2.17644e-11
-2.29085e-11
2.81339e-11
-2.47323e-11
3.3975e-11
-2.58207e-11
3.84239e-11
-2.56037e-11
5.40476e-11
-2.39953e-11
8.18085e-11
-2.26296e-11
9.75794e-11
-2.12334e-11
1.52794e-10
-2.12954e-11
2.20837e-10
-2.09702e-11
3.0138e-10
-1.99972e-11
4.13308e-10
-1.7851e-11
5.82204e-10
-1.46103e-11
8.14974e-10
-1.02389e-11
1.09941e-09
-4.44075e-12
1.27691e-09
1.60682e-11
1.17477e-09
3.89852e-11
1.07814e-09
2.34937e-11
1.04141e-09
5.64718e-11
1.04257e-09
8.62742e-11
1.06606e-09
1.07506e-10
1.09664e-09
1.37258e-10
1.12028e-09
1.80149e-10
1.12066e-09
2.2255e-10
1.15666e-09
1.7208e-10
1.27669e-09
3.73953e-11
1.33016e-09
2.71615e-11
1.33041e-09
5.34586e-11
1.2785e-09
1.04564e-10
1.13293e-09
1.70608e-10
9.09267e-10
2.10019e-10
6.88171e-10
2.17119e-10
5.10557e-10
1.7208e-10
3.64036e-10
1.16077e-10
2.4694e-10
7.56615e-11
1.48296e-10
8.07831e-11
6.84905e-11
1.43712e-10
2.57614e-11
1.93844e-10
-2.04182e-11
2.41164e-10
-3.90035e-11
2.8489e-10
-3.72397e-11
3.00686e-10
-1.15588e-10
3.89522e-10
-6.66078e-11
2.80993e-10
-4.2491e-11
2.89768e-10
2.99244e-10
-2.96229e-11
-2.01002e-13
-2.29308e-12
-7.135e-13
-6.53312e-12
-1.40208e-12
-1.04371e-11
-2.12549e-12
-1.40122e-11
-2.73287e-12
-1.72642e-11
-3.11672e-12
-2.01958e-11
-3.2118e-12
-2.28134e-11
-2.82522e-12
-2.51189e-11
-1.52794e-12
-2.7118e-11
1.68548e-12
-2.88171e-11
7.93951e-12
-3.02493e-11
1.67832e-11
-3.14733e-11
2.80764e-11
-3.25266e-11
4.01134e-11
-3.33324e-11
5.29081e-11
-3.37649e-11
6.65837e-11
-3.36728e-11
8.17325e-11
-3.2997e-11
9.88321e-11
-3.17148e-11
1.18446e-10
-2.97355e-11
1.40996e-10
-2.69108e-11
1.65444e-10
-2.37553e-11
1.91463e-10
-2.05343e-11
2.17387e-10
-1.76355e-11
2.82905e-10
-1.51778e-11
3.77269e-10
-1.22389e-11
4.91018e-10
-8.7362e-12
6.31991e-10
-4.91957e-12
8.12564e-10
-7.508e-13
1.02938e-09
5.60179e-12
1.17676e-09
2.46326e-11
1.20453e-09
9.62899e-12
1.23328e-09
-1.59242e-12
1.20846e-09
7.82756e-11
1.17667e-09
1.36359e-10
1.1699e-09
1.77381e-10
1.18372e-09
1.96194e-10
1.26703e-09
1.33806e-10
1.36436e-09
7.47515e-11
1.4224e-09
5.80372e-11
1.41264e-09
8.54191e-11
1.34941e-09
1.44019e-10
1.36677e-09
1.26351e-10
1.53469e-09
2.59242e-11
1.69159e-09
8.42601e-11
1.87006e-09
1.06422e-10
2.05741e-09
1.13338e-10
2.37022e-09
7.67151e-11
2.54293e-09
1.08283e-10
2.72901e-09
1.0368e-10
1.13613e-10
2.91465e-09
-1.20964e-13
-2.17212e-12
-4.00049e-13
-6.25403e-12
-7.76113e-13
-1.0061e-11
-1.19958e-12
-1.35887e-11
-1.6246e-12
-1.68392e-11
-2.00546e-12
-1.98149e-11
-2.30124e-12
-2.25177e-11
-2.46995e-12
-2.49502e-11
-2.47342e-12
-2.71145e-11
-2.27604e-12
-2.90145e-11
-1.87084e-12
-3.06545e-11
-1.30431e-12
-3.20398e-11
-6.53534e-13
-3.31773e-11
8.16186e-14
-3.40675e-11
1.03048e-12
-3.47138e-11
2.47307e-12
-3.51153e-11
4.75778e-12
-3.52818e-11
8.26014e-12
-3.52171e-11
1.34683e-11
-3.49437e-11
2.10311e-11
-3.44735e-11
3.11234e-11
-3.38476e-11
4.36842e-11
-3.30951e-11
5.82461e-11
-3.21973e-11
7.41375e-11
-3.10691e-11
9.15252e-11
-2.96271e-11
1.10548e-10
-2.77473e-11
1.31119e-10
-2.54294e-11
1.53011e-10
-2.2501e-11
1.72744e-10
-1.91029e-11
1.95901e-10
-1.57111e-11
2.12573e-10
-1.19179e-11
2.17494e-10
-8.11234e-12
2.98684e-10
-3.56351e-12
4.32573e-10
2.30268e-12
5.99494e-10
1.03828e-11
7.79577e-10
1.60798e-11
8.95007e-10
1.83762e-11
9.82128e-10
-1.23694e-11
9.7692e-10
6.32454e-11
9.35198e-10
1.27141e-10
9.44671e-10
1.34546e-10
9.85823e-10
8.51985e-11
9.57716e-10
5.40318e-11
9.91524e-10
5.04519e-11
9.96214e-10
1.01731e-10
9.93317e-10
1.16235e-10
9.82448e-10
8.75843e-11
1.03937e-09
5.13596e-11
1.10487e-09
3.81816e-11
2.07737e-11
1.19771e-09
-7.81824e-14
-2.09393e-12
-3.10959e-13
-6.02125e-12
-6.69785e-13
-9.70217e-12
-1.1143e-12
-1.31442e-11
-1.60423e-12
-1.63493e-11
-2.09953e-12
-1.93196e-11
-2.55955e-12
-2.20576e-11
-2.94407e-12
-2.45657e-11
-3.21259e-12
-2.6846e-11
-3.32605e-12
-2.8901e-11
-3.24758e-12
-3.0733e-11
-2.94293e-12
-3.23445e-11
-2.38264e-12
-3.37376e-11
-1.53501e-12
-3.49152e-11
-3.6997e-13
-3.58789e-11
1.14689e-12
-3.66322e-11
3.04246e-12
-3.71773e-11
5.34481e-12
-3.75195e-11
8.06242e-12
-3.76614e-11
1.11994e-11
-3.76105e-11
1.47214e-11
-3.73697e-11
1.85751e-11
-3.69488e-11
2.27263e-11
-3.63485e-11
2.72344e-11
-3.55772e-11
3.22399e-11
-3.46326e-11
3.80209e-11
-3.35283e-11
4.48543e-11
-3.22628e-11
5.32133e-11
-3.086e-11
6.34277e-11
-2.93173e-11
7.5394e-11
-2.76774e-11
8.93913e-11
-2.59151e-11
1.05247e-10
-2.3968e-11
1.23412e-10
-2.17245e-11
1.44303e-10
-1.91435e-11
1.67089e-10
-1.64874e-11
1.7646e-10
-1.37958e-11
2.04334e-10
-1.11138e-11
1.98901e-10
-7.69412e-12
2.65352e-10
-3.48416e-12
3.9192e-10
5.14048e-13
5.19155e-10
7.31046e-12
5.9977e-10
4.5839e-12
6.6433e-10
-1.05287e-11
6.37018e-10
7.77639e-11
6.39486e-10
9.9263e-11
6.90128e-10
6.55938e-11
7.48595e-10
2.91166e-11
7.7003e-10
2.99246e-11
7.59135e-10
4.90767e-11
5.43745e-11
7.25534e-10
-1.83066e-13
-1.91087e-12
-6.53653e-13
-5.55067e-12
-1.36016e-12
-8.99566e-12
-2.26428e-12
-1.22401e-11
-3.32814e-12
-1.52854e-11
-4.51418e-12
-1.81336e-11
-5.78531e-12
-2.07865e-11
-7.10463e-12
-2.32464e-11
-8.43555e-12
-2.55151e-11
-9.74164e-12
-2.75949e-11
-1.09868e-11
-2.94879e-11
-1.2135e-11
-3.11962e-11
-1.31506e-11
-3.2722e-11
-1.39979e-11
-3.40679e-11
-1.46411e-11
-3.52356e-11
-1.5045e-11
-3.62284e-11
-1.51745e-11
-3.70478e-11
-1.49966e-11
-3.76974e-11
-1.44795e-11
-3.81785e-11
-1.35946e-11
-3.84954e-11
-1.23156e-11
-3.86487e-11
-1.06207e-11
-3.86437e-11
-8.48947e-12
-3.84797e-11
-5.90324e-12
-3.81634e-11
-2.84357e-12
-3.76922e-11
7.03982e-13
-3.70758e-11
4.75041e-12
-3.63092e-11
9.2973e-12
-3.54069e-11
1.43397e-11
-3.43597e-11
1.98511e-11
-3.31888e-11
2.58143e-11
-3.18783e-11
3.23037e-11
-3.04574e-11
3.94771e-11
-2.88979e-11
4.75812e-11
-2.72476e-11
5.65575e-11
-2.54636e-11
6.63755e-11
-2.36138e-11
7.68757e-11
-2.16138e-11
8.86725e-11
-1.94908e-11
1.02408e-10
-1.72129e-11
1.1739e-10
-1.47974e-11
1.24653e-10
-1.24361e-11
1.38361e-10
-9.75001e-12
1.33736e-10
-6.12146e-12
2.15003e-10
-3.57745e-12
3.09624e-10
4.64256e-12
3.7732e-10
-2.10226e-12
4.1362e-10
-7.18357e-12
4.08211e-10
3.53339e-11
4.26925e-10
3.03629e-11
1.79597e-11
4.63339e-10
-1.83131e-13
-1.72774e-12
-7.40388e-13
-4.99341e-12
-1.64826e-12
-8.08779e-12
-2.86814e-12
-1.10202e-11
-4.3616e-12
-1.37919e-11
-6.09069e-12
-1.64045e-11
-8.01779e-12
-1.88594e-11
-1.01059e-11
-2.11583e-11
-1.23182e-11
-2.33028e-11
-1.46188e-11
-2.52944e-11
-1.69719e-11
-2.71348e-11
-1.93425e-11
-2.88256e-11
-2.1696e-11
-3.03685e-11
-2.39986e-11
-3.17652e-11
-2.62167e-11
-3.30175e-11
-2.83181e-11
-3.4127e-11
-3.02703e-11
-3.50956e-11
-3.20427e-11
-3.5925e-11
-3.3604e-11
-3.66171e-11
-3.49259e-11
-3.71736e-11
-3.59779e-11
-3.75966e-11
-3.67341e-11
-3.78876e-11
-3.71648e-11
-3.8049e-11
-3.72463e-11
-3.80819e-11
-3.69495e-11
-3.79891e-11
-3.6254e-11
-3.77713e-11
-3.51317e-11
-3.74315e-11
-3.35685e-11
-3.69701e-11
-3.15379e-11
-3.63903e-11
-2.90349e-11
-3.56918e-11
-2.60353e-11
-3.48779e-11
-2.25448e-11
-3.39478e-11
-1.8538e-11
-3.29048e-11
-1.4038e-11
-3.17476e-11
-9.0221e-12
-3.04795e-11
-3.53665e-12
-2.90993e-11
2.45845e-12
-2.76089e-11
8.97475e-12
-2.60071e-11
1.60558e-11
-2.4294e-11
2.37289e-11
-2.24705e-11
3.18191e-11
-2.05262e-11
4.05341e-11
-1.84652e-11
5.07286e-11
-1.63159e-11
6.11059e-11
-1.39049e-11
7.18465e-11
-1.18858e-11
7.88789e-11
-9.36771e-12
7.71594e-11
-5.52301e-12
1.15307e-10
-2.81792e-12
1.53376e-10
-7.70582e-12
-1.25707e-11
1.83906e-10
-3.15705e-13
-1.41203e-12
-1.16691e-12
-4.1422e-12
-2.49232e-12
-6.76238e-12
-4.2479e-12
-9.26464e-12
-6.39077e-12
-1.16491e-11
-8.87922e-12
-1.3916e-11
-1.16726e-11
-1.6066e-11
-1.47314e-11
-1.80995e-11
-1.8017e-11
-2.00172e-11
-2.14917e-11
-2.18197e-11
-2.51186e-11
-2.35078e-11
-2.88618e-11
-2.50824e-11
-3.2686e-11
-2.65443e-11
-3.65568e-11
-2.78944e-11
-4.04405e-11
-2.91338e-11
-4.4304e-11
-3.02635e-11
-4.81152e-11
-3.12845e-11
-5.18419e-11
-3.21982e-11
-5.54535e-11
-3.30056e-11
-5.89189e-11
-3.37081e-11
-6.22086e-11
-3.43069e-11
-6.52926e-11
-3.48036e-11
-6.81422e-11
-3.51994e-11
-7.07281e-11
-3.5496e-11
-7.30225e-11
-3.56947e-11
-7.49963e-11
-3.57975e-11
-7.66224e-11
-3.58055e-11
-7.78714e-11
-3.57211e-11
-7.87164e-11
-3.55453e-11
-7.91273e-11
-3.52809e-11
-7.90767e-11
-3.49285e-11
-7.8533e-11
-3.44915e-11
-7.74677e-11
-3.39702e-11
-7.5847e-11
-3.33683e-11
-7.36407e-11
-3.26858e-11
-7.08129e-11
-3.1927e-11
-6.73307e-11
-3.10912e-11
-6.31544e-11
-3.01834e-11
-5.82461e-11
-2.92023e-11
-5.25631e-11
-2.81535e-11
-4.60542e-11
-2.70351e-11
-3.86654e-11
-2.5854e-11
-3.03735e-11
-2.46078e-11
-2.09746e-11
-2.33038e-11
-1.09237e-11
-2.19368e-11
1.90734e-13
-2.04821e-11
1.39519e-11
-1.92981e-11
2.62401e-11
-1.8485e-11
3.58683e-11
-1.75595e-11
-1.74931e-11
4.06931e-11
-2.3983e-13
-1.1722e-12
-9.61684e-13
-3.42035e-12
-2.13942e-12
-5.58464e-12
-3.73375e-12
-7.6703e-12
-5.70664e-12
-9.67617e-12
-8.02125e-12
-1.16014e-11
-1.06418e-11
-1.34454e-11
-1.35337e-11
-1.52076e-11
-1.66632e-11
-1.68877e-11
-1.99973e-11
-1.84856e-11
-2.35041e-11
-2.0001e-11
-2.71524e-11
-2.14341e-11
-3.09118e-11
-2.2785e-11
-3.47524e-11
-2.40538e-11
-3.86451e-11
-2.52411e-11
-4.25614e-11
-2.63471e-11
-4.64733e-11
-2.73726e-11
-5.03535e-11
-2.83181e-11
-5.41746e-11
-2.91844e-11
-5.79105e-11
-2.99723e-11
-6.15345e-11
-3.06828e-11
-6.50211e-11
-3.1317e-11
-6.83444e-11
-3.18761e-11
-7.14791e-11
-3.23613e-11
-7.43998e-11
-3.2774e-11
-7.70814e-11
-3.31158e-11
-7.94986e-11
-3.33883e-11
-8.16263e-11
-3.35934e-11
-8.34387e-11
-3.37329e-11
-8.49107e-11
-3.38089e-11
-8.60155e-11
-3.38237e-11
-8.67272e-11
-3.37798e-11
-8.70178e-11
-3.36795e-11
-8.68601e-11
-3.3526e-11
-8.62241e-11
-3.33219e-11
-8.50803e-11
-3.30707e-11
-8.33961e-11
-3.27755e-11
-8.11389e-11
-3.24405e-11
-7.82723e-11
-3.20689e-11
-7.47599e-11
-3.16659e-11
-7.05604e-11
-3.12346e-11
-6.56326e-11
-3.07819e-11
-5.99302e-11
-3.03102e-11
-5.34056e-11
-2.98284e-11
-4.60042e-11
-2.93382e-11
-3.76342e-11
-2.88521e-11
-2.85612e-11
-2.8371e-11
-1.91413e-11
-2.79049e-11
-9.15222e-12
-2.75561e-11
-2.73416e-11
1.2921e-12
-2.19927e-13
-9.52276e-13
-8.07873e-13
-2.8324e-12
-1.72212e-12
-4.67039e-12
-2.93578e-12
-6.45665e-12
-4.4224e-12
-8.18955e-12
-6.15602e-12
-9.86779e-12
-8.11117e-12
-1.14902e-11
-1.02628e-11
-1.30559e-11
-1.25864e-11
-1.45641e-11
-1.50578e-11
-1.60142e-11
-1.76534e-11
-1.74055e-11
-2.03497e-11
-1.87377e-11
-2.3124e-11
-2.00106e-11
-2.59538e-11
-2.1224e-11
-2.8817e-11
-2.23779e-11
-3.16919e-11
-2.34723e-11
-3.45572e-11
-2.45073e-11
-3.7392e-11
-2.54833e-11
-4.01757e-11
-2.64007e-11
-4.28882e-11
-2.72598e-11
-4.55097e-11
-2.80613e-11
-4.80209e-11
-2.88059e-11
-5.04028e-11
-2.94942e-11
-5.26368e-11
-3.01273e-11
-5.47047e-11
-3.0706e-11
-5.6589e-11
-3.12316e-11
-5.82722e-11
-3.17051e-11
-5.97376e-11
-3.21279e-11
-6.0969e-11
-3.25015e-11
-6.19505e-11
-3.28274e-11
-6.26669e-11
-3.31073e-11
-6.31036e-11
-3.33431e-11
-6.32465e-11
-3.35367e-11
-6.30823e-11
-3.36902e-11
-6.25981e-11
-3.3806e-11
-6.17824e-11
-3.38865e-11
-6.06237e-11
-3.39342e-11
-5.91122e-11
-3.3952e-11
-5.72382e-11
-3.39428e-11
-5.49942e-11
-3.39099e-11
-5.23724e-11
-3.38564e-11
-4.93681e-11
-3.37861e-11
-4.59758e-11
-3.37026e-11
-4.21942e-11
-3.361e-11
-3.80202e-11
-3.35122e-11
-3.34582e-11
-3.34141e-11
-2.85098e-11
-3.33194e-11
-2.31807e-11
-3.32341e-11
-1.75758e-11
-3.3161e-11
-3.31037e-11
-1.18137e-11
-6.66608e-14
-8.85615e-13
-2.97005e-13
-2.60206e-12
-6.92577e-13
-4.27482e-12
-1.24077e-12
-5.90845e-12
-1.92858e-12
-7.50174e-12
-2.74261e-12
-9.05376e-12
-3.66913e-12
-1.05637e-11
-4.69412e-12
-1.2031e-11
-5.80335e-12
-1.34549e-11
-6.98238e-12
-1.48351e-11
-8.21664e-12
-1.61712e-11
-9.49144e-12
-1.74629e-11
-1.0792e-11
-1.871e-11
-1.21037e-11
-1.99124e-11
-1.34115e-11
-2.10701e-11
-1.47008e-11
-2.2183e-11
-1.59568e-11
-2.32513e-11
-1.71649e-11
-2.42752e-11
-1.83106e-11
-2.52549e-11
-1.93796e-11
-2.61909e-11
-2.03575e-11
-2.70834e-11
-2.12303e-11
-2.7933e-11
-2.19843e-11
-2.87402e-11
-2.2606e-11
-2.95057e-11
-2.30819e-11
-3.02301e-11
-2.33993e-11
-3.09142e-11
-2.35455e-11
-3.15589e-11
-2.35084e-11
-3.21651e-11
-2.32761e-11
-3.27338e-11
-2.28375e-11
-3.3266e-11
-2.21818e-11
-3.37631e-11
-2.12987e-11
-3.42261e-11
-2.01788e-11
-3.46566e-11
-1.88132e-11
-3.50558e-11
-1.71937e-11
-3.54255e-11
-1.5313e-11
-3.57672e-11
-1.31646e-11
-3.60826e-11
-1.07429e-11
-3.63738e-11
-8.04322e-12
-3.66425e-11
-5.06203e-12
-3.68911e-11
-1.79693e-12
-3.71215e-11
1.75357e-12
-3.73366e-11
5.58935e-12
-3.75383e-11
9.70956e-12
-3.77302e-11
1.41114e-11
-3.79139e-11
1.87914e-11
-3.80941e-11
2.37442e-11
-3.82722e-11
2.89645e-11
-3.84544e-11
3.44458e-11
-3.86423e-11
-3.88462e-11
4.01883e-11
-7.34441e-14
-8.12171e-13
-2.54386e-13
-2.42112e-12
-5.25542e-13
-4.00367e-12
-8.80092e-13
-5.5539e-12
-1.31082e-12
-7.07101e-12
-1.8102e-12
-8.55438e-12
-2.37044e-12
-1.00035e-11
-2.98356e-12
-1.14178e-11
-3.64134e-12
-1.27971e-11
-4.33541e-12
-1.41411e-11
-5.05726e-12
-1.54494e-11
-5.79825e-12
-1.6722e-11
-6.54965e-12
-1.79586e-11
-7.30266e-12
-1.91594e-11
-8.04844e-12
-2.03243e-11
-8.77809e-12
-2.14533e-11
-9.48273e-12
-2.25467e-11
-1.01535e-11
-2.36045e-11
-1.07814e-11
-2.4627e-11
-1.13578e-11
-2.56145e-11
-1.18738e-11
-2.65674e-11
-1.23208e-11
-2.7486e-11
-1.26902e-11
-2.83708e-11
-1.29734e-11
-2.92224e-11
-1.31623e-11
-3.00412e-11
-1.32487e-11
-3.08279e-11
-1.32245e-11
-3.15831e-11
-1.3082e-11
-3.23075e-11
-1.28139e-11
-3.30019e-11
-1.24126e-11
-3.36673e-11
-1.18716e-11
-3.43041e-11
-1.11841e-11
-3.49136e-11
-1.03441e-11
-3.54965e-11
-9.34598e-12
-3.6054e-11
-8.18476e-12
-3.65867e-11
-6.85572e-12
-3.70962e-11
-5.35554e-12
-3.75828e-11
-3.68089e-12
-3.80484e-11
-1.83038e-12
-3.8493e-11
1.97441e-13
-3.89189e-11
2.40134e-12
-3.93254e-11
4.78031e-12
-3.97156e-11
7.32965e-12
-4.00877e-11
1.00451e-11
-4.04457e-11
1.29174e-11
-4.07862e-11
1.59381e-11
-4.11148e-11
1.9092e-11
-4.14261e-11
2.23668e-11
-4.17291e-11
2.57397e-11
-4.20153e-11
-4.2279e-11
2.91725e-11
-6.62361e-15
-8.05547e-13
-4.99781e-14
-2.37776e-12
-1.35846e-13
-3.9178e-12
-2.61313e-13
-5.42843e-12
-4.23283e-13
-6.90904e-12
-6.18508e-13
-8.35916e-12
-8.43603e-13
-9.77837e-12
-1.09506e-12
-1.11664e-11
-1.36926e-12
-1.25229e-11
-1.66249e-12
-1.38478e-11
-1.97094e-12
-1.51409e-11
-2.29072e-12
-1.64022e-11
-2.61787e-12
-1.76315e-11
-2.94834e-12
-1.88289e-11
-3.27802e-12
-1.99946e-11
-3.60273e-12
-2.11286e-11
-3.91819e-12
-2.22312e-11
-4.22008e-12
-2.33026e-11
-4.50398e-12
-2.43431e-11
-4.76539e-12
-2.53531e-11
-4.9997e-12
-2.63331e-11
-5.20224e-12
-2.72835e-11
-5.36816e-12
-2.82049e-11
-5.49255e-12
-2.9098e-11
-5.5703e-12
-2.99634e-11
-5.59619e-12
-3.0802e-11
-5.56476e-12
-3.16145e-11
-5.47042e-12
-3.24019e-11
-5.30726e-12
-3.31651e-11
-5.06925e-12
-3.39053e-11
-4.74993e-12
-3.46234e-11
-4.34274e-12
-3.53208e-11
-3.84057e-12
-3.59986e-11
-3.23624e-12
-3.66584e-11
-2.52197e-12
-3.7301e-11
-1.68985e-12
-3.79283e-11
-7.315e-13
-3.85411e-11
3.61776e-13
-3.91417e-11
1.59877e-12
-3.973e-11
2.98897e-12
-4.03091e-11
4.54113e-12
-4.08776e-11
6.26548e-12
-4.144e-11
8.16977e-12
-4.1992e-11
1.02648e-11
-4.25406e-11
1.25562e-11
-4.30777e-11
1.50578e-11
-4.36164e-11
1.77759e-11
-4.41442e-11
2.04431e-11
-4.43963e-11
2.30394e-11
-4.46115e-11
-4.46336e-11
2.23131e-11
-1.94674e-14
-7.8608e-13
-5.92062e-14
-2.33802e-12
-1.11853e-13
-3.86515e-12
-1.7565e-13
-5.36464e-12
-2.49073e-13
-6.83562e-12
-3.30811e-13
-8.27742e-12
-4.19701e-13
-9.68948e-12
-5.14695e-13
-1.10714e-11
-6.14797e-13
-1.24228e-11
-7.19048e-13
-1.37436e-11
-8.26468e-13
-1.50335e-11
-9.36072e-13
-1.62926e-11
-1.0468e-12
-1.75208e-11
-1.15757e-12
-1.87182e-11
-1.26716e-12
-1.9885e-11
-1.37433e-12
-2.10215e-11
-1.47767e-12
-2.21279e-11
-1.57572e-12
-2.32045e-11
-1.66682e-12
-2.4252e-11
-1.74929e-12
-2.52706e-11
-1.82115e-12
-2.62612e-11
-1.88045e-12
-2.72242e-11
-1.9249e-12
-2.81605e-11
-1.95223e-12
-2.90707e-11
-1.95977e-12
-2.99559e-11
-1.94495e-12
-3.08168e-11
-1.90465e-12
-3.16548e-11
-1.83596e-12
-3.24706e-11
-1.73528e-12
-3.32658e-11
-1.59935e-12
-3.40412e-11
-1.42401e-12
-3.47988e-11
-1.20562e-12
-3.55392e-11
-9.39399e-13
-3.62649e-11
-6.21306e-13
-3.69764e-11
-2.4584e-13
-3.76764e-11
1.91507e-13
-3.83657e-11
6.9707e-13
-3.90467e-11
1.27592e-12
-3.97206e-11
1.9354e-12
-4.03895e-11
2.68129e-12
-4.1055e-11
3.52215e-12
-4.17185e-11
4.46473e-12
-4.23825e-11
5.51951e-12
-4.30467e-11
6.69558e-12
-4.37167e-11
8.00662e-12
-4.43887e-11
9.40745e-12
-4.50172e-11
1.08909e-11
-4.56276e-11
1.23448e-11
-4.69218e-11
3.2819e-12
-4.58615e-11
-4.49096e-11
3.44095e-12
2.8019e-14
-8.14099e-13
1.04115e-13
-2.41412e-12
2.21544e-13
-3.98258e-12
3.74444e-13
-5.51754e-12
5.57535e-13
-7.01871e-12
7.6601e-13
-8.4859e-12
9.95476e-13
-9.91895e-12
1.24191e-12
-1.13178e-11
1.50162e-12
-1.26825e-11
1.77119e-12
-1.40132e-11
2.0475e-12
-1.53098e-11
2.32765e-12
-1.65727e-11
2.60897e-12
-1.78021e-11
2.889e-12
-1.89982e-11
3.16545e-12
-2.01615e-11
3.43625e-12
-2.12922e-11
3.69944e-12
-2.2391e-11
3.95328e-12
-2.34584e-11
4.19611e-12
-2.44948e-11
4.42645e-12
-2.5501e-11
4.64292e-12
-2.64777e-11
4.84421e-12
-2.74255e-11
5.02912e-12
-2.83454e-11
5.19641e-12
-2.9238e-11
5.34495e-12
-3.01044e-11
5.47339e-12
-3.09452e-11
5.58051e-12
-3.17619e-11
5.66458e-12
-3.25546e-11
5.72412e-12
-3.33253e-11
5.75662e-12
-3.40737e-11
5.76008e-12
-3.48022e-11
5.73076e-12
-3.55099e-11
5.6659e-12
-3.62e-11
5.55985e-12
-3.68704e-11
5.40895e-12
-3.75255e-11
5.20485e-12
-3.81616e-11
4.94292e-12
-3.87848e-11
4.6112e-12
-3.93888e-11
4.20437e-12
-3.99826e-11
3.70567e-12
-4.05563e-11
3.10986e-12
-4.11226e-11
2.39455e-12
-4.16672e-11
1.55799e-12
-4.22102e-11
5.71752e-13
-4.27305e-11
-6.16151e-13
-4.32008e-11
-2.12338e-12
-4.37314e-11
-1.29156e-11
-4.38433e-11
-2.25598e-11
-4.34027e-11
-2.88351e-11
-3.96324e-11
-2.39391e-11
-4.9806e-11
2.55235e-14
-8.39622e-13
7.72605e-14
-2.46586e-12
1.45427e-13
-4.05075e-12
2.27404e-13
-5.59951e-12
3.20122e-13
-7.11143e-12
4.20125e-13
-8.5859e-12
5.23621e-13
-1.00224e-11
6.26532e-13
-1.14207e-11
7.24524e-13
-1.27805e-11
8.13069e-13
-1.41017e-11
8.87465e-13
-1.53842e-11
9.42887e-13
-1.66281e-11
9.74401e-13
-1.78336e-11
9.7701e-13
-1.90008e-11
9.45667e-13
-2.01301e-11
8.75314e-13
-2.12219e-11
7.60892e-13
-2.22766e-11
5.97367e-13
-2.32948e-11
3.79755e-13
-2.42772e-11
1.03102e-13
-2.52243e-11
-2.37441e-13
-2.61371e-11
-6.4672e-13
-2.70162e-11
-1.12941e-12
-2.78627e-11
-1.69027e-12
-2.86771e-11
-2.33377e-12
-2.94609e-11
-3.06464e-12
-3.02144e-11
-3.88719e-12
-3.09394e-11
-4.8062e-12
-3.16356e-11
-5.82584e-12
-3.23057e-11
-6.95114e-12
-3.29484e-11
-8.18615e-12
-3.35672e-11
-9.53637e-12
-3.41597e-11
-1.10058e-11
-3.47306e-11
-1.26007e-11
-3.52755e-11
-1.43249e-11
-3.58013e-11
-1.6186e-11
-3.63006e-11
-1.81876e-11
-3.67832e-11
-2.03386e-11
-3.72378e-11
-2.26428e-11
-3.76785e-11
-2.51104e-11
-3.80887e-11
-2.77442e-11
-3.84888e-11
-3.05581e-11
-3.88534e-11
-3.35611e-11
-3.92072e-11
-3.6777e-11
-3.95145e-11
-4.11e-11
-4.00055e-11
-5.7989e-11
-4.02131e-11
-6.13042e-11
-4.06631e-11
-6.35971e-11
-4.11109e-11
-6.94014e-11
-3.38279e-11
2.97675e-11
-1.23107e-10
2.90991e-14
-8.68721e-13
1.58842e-13
-2.5956e-12
3.93255e-13
-4.28516e-12
7.17865e-13
-5.92412e-12
1.11862e-12
-7.51219e-12
1.58183e-12
-9.0491e-12
2.09409e-12
-1.05347e-11
2.6424e-12
-1.1969e-11
3.21405e-12
-1.33522e-11
3.7967e-12
-1.46844e-11
4.37835e-12
-1.59659e-11
4.9473e-12
-1.71971e-11
5.49212e-12
-1.83784e-11
6.00167e-12
-1.95104e-11
6.46502e-12
-2.05935e-11
6.87145e-12
-2.16283e-11
7.21038e-12
-2.26155e-11
7.47138e-12
-2.35558e-11
7.64406e-12
-2.44499e-11
7.71816e-12
-2.52984e-11
7.68329e-12
-2.61023e-11
7.52922e-12
-2.68621e-11
7.24542e-12
-2.75789e-11
6.82162e-12
-2.82533e-11
6.24699e-12
-2.88863e-11
5.5112e-12
-2.94786e-11
4.60303e-12
-3.00312e-11
3.51219e-12
-3.05448e-11
2.22707e-12
-3.10206e-11
7.37679e-13
-3.1459e-11
-9.67925e-13
-3.18616e-11
-2.89892e-12
-3.22287e-11
-5.06736e-12
-3.25622e-11
-7.48082e-12
-3.28621e-11
-1.01511e-11
-3.3131e-11
-1.30829e-11
-3.33688e-11
-1.6287e-11
-3.3579e-11
-1.97636e-11
-3.37611e-11
-2.35216e-11
-3.39206e-11
-2.75546e-11
-3.40556e-11
-3.18714e-11
-3.41721e-11
-3.64578e-11
-3.42669e-11
-4.1302e-11
-3.4363e-11
-5.53635e-11
-3.44872e-11
-6.99604e-11
-3.45189e-11
-7.59178e-11
-3.42556e-11
-8.69655e-11
-2.96254e-11
-5.33764e-11
-7.46874e-11
3.5027e-12
-9.07069e-11
-5.34865e-11
8.67567e-11
1.43411e-13
-1.01213e-12
4.60362e-13
-2.91255e-12
9.03243e-13
-4.72804e-12
1.45537e-12
-6.47625e-12
2.09859e-12
-8.1554e-12
2.81385e-12
-9.76437e-12
3.58174e-12
-1.13026e-11
4.38265e-12
-1.277e-11
5.19713e-12
-1.41667e-11
6.00595e-12
-1.54932e-11
6.79028e-12
-1.67502e-11
7.53168e-12
-1.79385e-11
8.21215e-12
-1.90589e-11
8.81408e-12
-2.01123e-11
9.32022e-12
-2.10996e-11
9.71352e-12
-2.20216e-11
9.97716e-12
-2.28792e-11
1.00943e-11
-2.36729e-11
1.00479e-11
-2.44035e-11
9.82081e-12
-2.50713e-11
9.39537e-12
-2.56768e-11
8.75319e-12
-2.622e-11
7.87526e-12
-2.6701e-11
6.74132e-12
-2.71194e-11
5.33016e-12
-2.74751e-11
3.61881e-12
-2.77672e-11
1.58303e-12
-2.79954e-11
-8.03767e-13
-2.8158e-11
-3.56973e-12
-2.82546e-11
-6.74602e-12
-2.82827e-11
-1.03656e-11
-2.8242e-11
-1.44653e-11
-2.8129e-11
-1.90838e-11
-2.79437e-11
-2.42647e-11
-2.76812e-11
-3.00533e-11
-2.73424e-11
-3.65013e-11
-2.69208e-11
-4.36615e-11
-2.64188e-11
-5.15955e-11
-2.58271e-11
-6.03647e-11
-2.51515e-11
-7.00413e-11
-2.4379e-11
-8.06906e-11
-2.35227e-11
-9.23921e-11
-2.25654e-11
-1.1086e-10
-2.15181e-11
-1.35425e-10
-2.03136e-11
-1.5014e-10
-1.98038e-11
-1.65501e-10
-1.88949e-11
-1.75744e-10
-1.9326e-11
-1.70929e-10
-7.95029e-11
-1.12202e-10
-1.49434e-10
-1.69636e-10
3.94813e-12
1.65573e-13
-1.1777e-12
7.40719e-13
-3.4877e-12
1.69079e-12
-5.67812e-12
2.92786e-12
-7.71332e-12
4.37512e-12
-9.60266e-12
5.96562e-12
-1.13549e-11
7.64114e-12
-1.29781e-11
9.35138e-12
-1.44802e-11
1.10532e-11
-1.58685e-11
1.271e-11
-1.71499e-11
1.42908e-11
-1.8331e-11
1.57698e-11
-1.94174e-11
1.71256e-11
-2.04148e-11
1.8341e-11
-2.13277e-11
1.9402e-11
-2.21606e-11
2.02976e-11
-2.29172e-11
2.10193e-11
-2.36008e-11
2.15604e-11
-2.42141e-11
2.19162e-11
-2.47593e-11
2.20827e-11
-2.52379e-11
2.20572e-11
-2.56513e-11
2.1837e-11
-2.59998e-11
2.14197e-11
-2.62837e-11
2.08024e-11
-2.65021e-11
1.99816e-11
-2.66544e-11
1.89525e-11
-2.67381e-11
1.77091e-11
-2.6752e-11
1.62429e-11
-2.66917e-11
1.45436e-11
-2.65553e-11
1.25973e-11
-2.63364e-11
1.03878e-11
-2.60325e-11
7.89339e-12
-2.56346e-11
5.0896e-12
-2.51399e-11
1.94469e-12
-2.45363e-11
-1.57659e-12
-2.38212e-11
-5.51923e-12
-2.29781e-11
-9.93219e-12
-2.20058e-11
-1.48774e-11
-2.0882e-11
-2.04207e-11
-1.96081e-11
-2.66457e-11
-1.8154e-11
-3.36417e-11
-1.65267e-11
-4.15219e-11
-1.46852e-11
-5.03944e-11
-1.26457e-11
-6.34732e-11
-1.03542e-11
-8.62828e-11
-6.09694e-12
-9.84988e-11
-6.92096e-12
-1.12448e-10
-5.37634e-12
-1.38809e-10
-5.3107e-11
-1.41568e-10
-1.46358e-10
-1.19306e-10
-1.91899e-10
8.72286e-13
-2.04999e-12
2.81447e-12
-5.42988e-12
5.43601e-12
-8.29966e-12
8.51034e-12
-1.07876e-11
1.18558e-11
-1.29481e-11
1.53275e-11
-1.48265e-11
1.88113e-11
-1.64619e-11
2.22187e-11
-1.78877e-11
2.54828e-11
-1.91325e-11
2.85539e-11
-2.02211e-11
3.13973e-11
-2.11744e-11
3.399e-11
-2.20102e-11
3.63192e-11
-2.27439e-11
3.83798e-11
-2.33883e-11
4.01737e-11
-2.39545e-11
4.17081e-11
-2.44516e-11
4.29944e-11
-2.48872e-11
4.40478e-11
-2.52675e-11
4.48859e-11
-2.55974e-11
4.55286e-11
-2.58806e-11
4.59971e-11
-2.61198e-11
4.6314e-11
-2.63166e-11
4.65018e-11
-2.64715e-11
4.65838e-11
-2.6584e-11
4.65819e-11
-2.66525e-11
4.65181e-11
-2.66743e-11
4.64117e-11
-2.66456e-11
4.62813e-11
-2.65614e-11
4.61409e-11
-2.64149e-11
4.60026e-11
-2.61981e-11
4.58713e-11
-2.59012e-11
4.57489e-11
-2.55122e-11
4.5626e-11
-2.50169e-11
4.54884e-11
-2.43986e-11
4.53044e-11
-2.36372e-11
4.50354e-11
-2.27092e-11
4.46166e-11
-2.1587e-11
4.39725e-11
-2.02378e-11
4.29882e-11
-1.86239e-11
4.15341e-11
-1.66999e-11
3.94207e-11
-1.44133e-11
3.64396e-11
-1.17041e-11
3.22898e-11
-8.49585e-12
2.66409e-11
-4.7053e-12
2.14057e-11
-8.55489e-13
1.08594e-11
3.68695e-12
-1.14775e-11
1.02519e-11
-7.45553e-11
9.97458e-12
-2.08044e-10
-1.18039e-11
-2.37632e-12
-3.24808e-10
1.735e-11
3.13201e-11
4.24205e-11
5.10328e-11
5.74847e-11
6.20582e-11
6.49963e-11
6.65086e-11
6.67761e-11
6.5955e-11
6.41806e-11
6.15704e-11
5.82265e-11
5.42382e-11
4.96837e-11
4.46321e-11
3.91449e-11
3.32774e-11
2.70801e-11
2.05995e-11
1.38796e-11
6.96299e-12
-1.08518e-13
-7.2925e-12
-1.4545e-11
-2.18193e-11
-2.90649e-11
-3.62263e-11
-4.32412e-11
-5.00393e-11
-5.65405e-11
-6.26527e-11
-6.82697e-11
-7.32683e-11
-7.75055e-11
-8.08146e-11
-8.30016e-11
-8.38395e-11
-8.30633e-11
-8.03632e-11
-7.53765e-11
-6.76807e-11
-5.67765e-11
-4.20819e-11
-2.35374e-11
-4.50419e-13
2.59258e-11
5.44992e-11
5.7256e-11
2.54953e-11
-3.09426e-11
3.02647e-10
-6.07426e-11
3.12836e-10
-1.27231e-10
3.27666e-10
-2.49078e-10
3.59656e-10
-4.47496e-10
4.1201e-10
-6.93674e-10
4.37351e-10
-9.58354e-10
4.37166e-10
-1.20321e-09
4.04043e-10
-1.40001e-09
3.48215e-10
-1.47195e-09
2.20974e-10
-1.49719e-09
1.58837e-10
-1.50291e-09
1.29311e-10
-1.49129e-09
1.04482e-10
-1.46925e-09
8.77359e-11
-1.44315e-09
7.83351e-11
-1.41642e-09
7.26562e-11
-1.39479e-09
7.21989e-11
-1.36866e-09
6.31638e-11
-1.34018e-09
5.84597e-11
-1.32029e-09
6.62091e-11
-1.30493e-09
7.02279e-11
-1.30101e-09
7.83584e-11
-1.28981e-09
6.78912e-11
-1.28027e-09
6.60012e-11
-1.27471e-09
6.79636e-11
-1.27421e-09
7.20639e-11
-1.27949e-09
7.7508e-11
-1.29032e-09
8.31096e-11
-1.30589e-09
8.81788e-11
-1.32621e-09
9.35741e-11
-1.35159e-09
9.96038e-11
-1.3812e-09
1.05111e-10
-1.41611e-09
1.1139e-10
-1.4518e-09
1.1325e-10
-1.4899e-09
1.16792e-10
-1.53163e-09
1.22024e-10
-1.57048e-09
1.2109e-10
-1.59952e-09
1.1341e-10
-1.61118e-09
9.82264e-11
-1.61036e-09
8.80025e-11
-1.60123e-09
8.20046e-11
-1.58703e-09
7.93095e-11
-1.57019e-09
7.91373e-11
-1.5525e-09
8.08314e-11
-1.53519e-09
8.38634e-11
-1.51916e-09
8.78516e-11
-1.50499e-09
9.25136e-11
-1.49311e-09
9.76362e-11
-1.48379e-09
1.03076e-10
1.0879e-10
-1.47741e-09
3.07494e-09
1.42349e-10
3.19601e-09
1.9177e-10
3.27444e-09
2.49236e-10
3.32813e-09
3.05964e-10
3.34056e-09
3.99581e-10
3.29929e-09
4.7862e-10
3.19294e-09
5.43513e-10
3.00178e-09
5.9521e-10
2.97299e-09
3.77003e-10
2.91986e-09
2.74104e-10
2.83466e-09
2.44038e-10
2.75443e-09
2.0954e-10
2.68327e-09
1.75646e-10
2.62214e-09
1.48862e-10
2.5704e-09
1.30078e-10
2.52628e-09
1.16776e-10
2.49201e-09
1.0647e-10
2.44802e-09
1.07152e-10
2.39507e-09
1.1141e-10
2.35081e-09
1.10467e-10
2.31024e-09
1.10795e-10
2.27419e-09
1.14416e-10
2.21708e-09
1.24999e-10
2.14861e-09
1.34471e-10
2.07028e-09
1.46294e-10
1.98329e-09
1.59049e-10
1.88964e-09
1.71165e-10
1.79e-09
1.82745e-10
1.68391e-09
1.94267e-10
1.57201e-09
2.05481e-10
1.45533e-09
2.16283e-10
1.33409e-09
2.26352e-10
1.21174e-09
2.3374e-10
1.07803e-09
2.46961e-10
9.2983e-10
2.64987e-10
7.70599e-10
2.81255e-10
6.00118e-10
2.91571e-10
4.61327e-10
2.52201e-10
3.3577e-10
2.23783e-10
2.26945e-10
1.96828e-10
1.34677e-10
1.74272e-10
5.64196e-11
1.57567e-10
-1.03174e-11
1.45874e-10
-6.76346e-11
1.38149e-10
-1.17397e-10
1.33626e-10
-1.61186e-10
1.3164e-10
-2.00346e-10
1.31673e-10
-2.36152e-10
1.33442e-10
-2.69715e-10
1.36639e-10
1.41309e-10
-3.02234e-10
1.27942e-09
6.06403e-11
1.38185e-09
8.93355e-11
1.52929e-09
1.01794e-10
1.71734e-09
1.1792e-10
1.99432e-09
1.22597e-10
2.32863e-09
1.44308e-10
2.74394e-09
1.2821e-10
3.33352e-09
5.62809e-12
3.65465e-09
5.5875e-11
3.84639e-09
8.23629e-11
3.96758e-09
1.22846e-10
4.01125e-09
1.65868e-10
3.99695e-09
1.89944e-10
3.94667e-09
1.99142e-10
3.87413e-09
2.02628e-10
3.78686e-09
2.04045e-10
3.68804e-09
2.05283e-10
3.58526e-09
2.09934e-10
3.48569e-09
2.10981e-10
3.38392e-09
2.12232e-10
3.28545e-09
2.09265e-10
3.18183e-09
2.18041e-10
3.08177e-09
2.2506e-10
2.9845e-09
2.31737e-10
2.89358e-09
2.37219e-10
2.81194e-09
2.40681e-10
2.74061e-09
2.42498e-10
2.68078e-09
2.42572e-10
2.63414e-09
2.40913e-10
2.60207e-09
2.37551e-10
2.58564e-09
2.32706e-10
2.58477e-09
2.27224e-10
2.59359e-09
2.24917e-10
2.62121e-09
2.19349e-10
2.6492e-09
2.36991e-10
2.65945e-09
2.71009e-10
2.65648e-09
2.94541e-10
2.6182e-09
2.90482e-10
2.55413e-09
2.87846e-10
2.46787e-09
2.83089e-10
2.36254e-09
2.79605e-10
2.24397e-09
2.76133e-10
2.11767e-09
2.72181e-10
1.98716e-09
2.68651e-10
1.85559e-09
2.65203e-10
1.72559e-09
2.6164e-10
1.59845e-09
2.58814e-10
1.47501e-09
2.56876e-10
1.35583e-09
2.55824e-10
2.55368e-10
1.24177e-09
7.3686e-10
4.93148e-11
7.78355e-10
4.78406e-11
8.29223e-10
5.09259e-11
9.17762e-10
2.93813e-11
1.00629e-09
3.40656e-11
1.10799e-09
4.26092e-11
1.20681e-09
2.93961e-11
1.2126e-09
-1.69916e-13
1.26345e-09
5.02464e-12
1.30343e-09
4.2391e-11
1.34603e-09
8.02447e-11
1.38667e-09
1.25223e-10
1.41169e-09
1.64929e-10
1.41696e-09
1.93867e-10
1.40515e-09
2.14443e-10
1.38071e-09
2.28479e-10
1.34612e-09
2.39875e-10
1.30918e-09
2.46876e-10
1.26279e-09
2.57375e-10
1.21327e-09
2.61748e-10
1.15739e-09
2.65143e-10
1.1065e-09
2.6893e-10
1.05982e-09
2.71747e-10
1.01931e-09
2.72243e-10
9.86889e-10
2.6964e-10
9.63041e-10
2.64529e-10
9.49217e-10
2.56322e-10
9.47075e-10
2.44715e-10
9.5906e-10
2.28928e-10
9.88244e-10
2.08367e-10
1.03848e-09
1.82468e-10
1.11468e-09
1.51022e-10
1.22529e-09
1.14311e-10
1.35955e-09
8.5087e-11
1.53657e-09
5.99697e-11
1.73385e-09
7.37364e-11
1.94399e-09
8.43957e-11
2.10247e-09
1.32004e-10
2.22574e-09
1.64572e-10
2.30826e-09