/*--------------------------------*- C++ -*----------------------------------*\
| =========                 |                                                 |
| \\      /  F ield         | OpenFOAM: The Open Source CFD Toolbox           |
|  \\    /   O peration     | Version:  2.4.0                                 |
|   \\  /    A nd           | Web:      www.OpenFOAM.org                      |
|    \\/     M anipulation  |                                                 |
\*---------------------------------------------------------------------------*/
FoamFile
{
    version     2.0;
    format      ascii;
    class       volVectorField;
    location    "3.4";
    object      U;
}
// * * * * * * * * * * * * * * * * * * * * * * * * * * * * * * * * * * * * * //

dimensions      [0 1 -1 0 0 0 0];

internalField   nonuniform List<vector> 
8000
(
(-1.55463e-07 -0.000271492 0)
(3.89409e-06 -0.000752076 0)
(1.44572e-05 -0.00117103 0)
(3.28255e-05 -0.00153227 0)
(6.06443e-05 -0.00183316 0)
(9.92526e-05 -0.00207984 0)
(0.000147719 -0.00227841 0)
(0.00019759 -0.0024519 0)
(0.00023992 -0.00248782 0)
(0.000279738 -0.00232261 0)
(0.000370748 -0.00184956 0)
(0.000528091 -0.00117502 0)
(0.000694464 -0.000945137 0)
(0.000970494 -0.000794287 0)
(0.0014405 -0.000647913 0)
(0.00203404 -0.000472263 0)
(0.00280843 -0.000165937 0)
(0.00393285 0.000268565 0)
(0.00551249 0.000885764 0)
(0.00749712 0.00183204 0)
(0.00945534 0.00415649 0)
(0.0102071 0.00660049 0)
(0.00933131 0.0062481 0)
(0.00849077 0.010101 0)
(0.00824063 0.0145139 0)
(0.0083421 0.0181609 0)
(0.00859439 0.0224582 0)
(0.00890739 0.0279702 0)
(0.00932911 0.032699 0)
(0.008779 0.0266466 0)
(0.00918073 0.00903128 0)
(0.010589 0.00231595 0)
(0.0113367 0.00255251 0)
(0.0108035 0.00576125 0)
(0.00976121 0.0112116 0)
(0.0080648 0.0154395 0)
(0.00587651 0.0178705 0)
(0.00449531 0.0156731 0)
(0.00369405 0.0115754 0)
(0.00271419 0.00820727 0)
(0.00153345 0.0125084 0)
(0.000749287 0.0251723 0)
(0.000288529 0.0355683 0)
(-1.79885e-05 0.0404208 0)
(-0.000206108 0.0440305 0)
(-0.000277945 0.0466588 0)
(-0.000555896 0.0549916 0)
(-0.00079439 0.0437015 0)
(-0.000447847 0.0424129 0)
(-0.000288874 0.0418148 0)
(-3.12375e-07 -0.000235357 0)
(-3.36429e-06 -0.000669157 0)
(-8.23763e-06 -0.00106659 0)
(-1.42174e-05 -0.00142813 0)
(-1.96572e-05 -0.00175479 0)
(-2.40588e-05 -0.00204687 0)
(-2.60998e-05 -0.00230577 0)
(-2.59176e-05 -0.00253143 0)
(-2.01989e-05 -0.00272523 0)
(-3.77839e-06 -0.0028873 0)
(3.28844e-05 -0.00302131 0)
(9.40696e-05 -0.00313843 0)
(0.000176674 -0.00326318 0)
(0.000270188 -0.00337412 0)
(0.000370127 -0.00342257 0)
(0.000475098 -0.00338572 0)
(0.000589761 -0.00325035 0)
(0.000717156 -0.00301701 0)
(0.000864869 -0.00267652 0)
(0.00103469 -0.00220197 0)
(0.0012225 -0.00152703 0)
(0.00140733 -0.000922047 0)
(0.00160855 -0.00052066 0)
(0.00196436 -4.1845e-05 0)
(0.00258125 0.000427202 0)
(0.00343498 0.000893609 0)
(0.00447476 0.00137143 0)
(0.00570239 0.00192143 0)
(0.00714781 0.00269876 0)
(0.00871338 0.00420217 0)
(0.00980956 0.00263495 0)
(0.0100338 0.00251383 0)
(0.0098694 0.0119364 0)
(0.00961906 0.0208817 0)
(0.00941005 0.0276019 0)
(0.00929791 0.0302268 0)
(0.0094942 0.0233941 0)
(0.0104497 0.0132433 0)
(0.0116782 0.0069437 0)
(0.0119011 0.00523295 0)
(0.0106649 0.0085566 0)
(0.00975759 0.00614001 0)
(0.0112799 -0.00304977 0)
(0.0129751 0.00759803 0)
(0.0145409 0.013296 0)
(0.0158692 0.0145835 0)
(0.0176797 0.0152823 0)
(0.0195044 0.0154933 0)
(0.0208622 0.0161352 0)
(0.0225621 0.0176971 0)
(-2.85601e-07 -0.000221656 0)
(-1.89924e-06 -0.000634884 0)
(-4.56454e-06 -0.00101802 0)
(-7.8422e-06 -0.00137131 0)
(-1.13404e-05 -0.00169487 0)
(-1.46459e-05 -0.00198897 0)
(-1.74464e-05 -0.00225366 0)
(-1.93752e-05 -0.00248925 0)
(-2.01372e-05 -0.00269584 0)
(-1.93895e-05 -0.00287389 0)
(-1.69741e-05 -0.00302404 0)
(-1.29815e-05 -0.0031473 0)
(-8.03256e-06 -0.00324476 0)
(-2.64175e-06 -0.00331659 0)
(3.67012e-06 -0.00336309 0)
(1.26451e-05 -0.00338384 0)
(2.67569e-05 -0.00338034 0)
(4.90944e-05 -0.00335294 0)
(8.30899e-05 -0.00330554 0)
(0.000133315 -0.00323984 0)
(0.000203472 -0.0031633 0)
(0.000295351 -0.00308085 0)
(0.000403825 -0.00300343 0)
(0.000526137 -0.00289383 0)
(0.00065919 -0.00273219 0)
(0.000805754 -0.00249442 0)
(0.000965665 -0.0021846 0)
(0.00113608 -0.00178264 0)
(0.00130867 -0.00125893 0)
(0.0014731 -0.000617721 0)
(0.00159829 -0.000178277 0)
(0.00170074 0.000372443 0)
(0.00204351 0.00117181 0)
(0.00284876 0.00206436 0)
(0.00396595 0.00303473 0)
(0.00526453 0.0037822 0)
(0.00673559 0.00359057 0)
(0.00782893 0.00143417 0)
(0.00804766 0.00985756 0)
(0.00777184 0.0188033 0)
(0.00747376 0.0213118 0)
(0.00749089 0.0164449 0)
(0.00792102 0.00949355 0)
(0.00822931 0.00673913 0)
(0.00773842 0.00900146 0)
(0.00761518 0.0092331 0)
(0.00788366 0.00458484 0)
(0.00815643 0.00468284 0)
(0.00855002 0.00360994 0)
(0.00915564 0.00213945 0)
(-9.14885e-08 -0.000215329 0)
(-1.33224e-06 -0.000619754 0)
(-3.72739e-06 -0.000998027 0)
(-6.99645e-06 -0.00135029 0)
(-1.08257e-05 -0.00167682 0)
(-1.48372e-05 -0.00197787 0)
(-1.87555e-05 -0.00225374 0)
(-2.21943e-05 -0.00250464 0)
(-2.49093e-05 -0.00273084 0)
(-2.6484e-05 -0.00293254 0)
(-2.67283e-05 -0.00311005 0)
(-2.522e-05 -0.00326355 0)
(-2.18692e-05 -0.00339332 0)
(-1.62452e-05 -0.00349953 0)
(-8.32192e-06 -0.0035824 0)
(2.41538e-06 -0.00364214 0)
(1.59283e-05 -0.00367911 0)
(3.2776e-05 -0.00369378 0)
(5.27432e-05 -0.00368671 0)
(7.63072e-05 -0.00365866 0)
(0.000102866 -0.0036105 0)
(0.000132599 -0.00354322 0)
(0.000164438 -0.00345763 0)
(0.000199011 -0.00335411 0)
(0.000236446 -0.00323314 0)
(0.000279225 -0.00309541 0)
(0.000328902 -0.00294231 0)
(0.000389327 -0.00277577 0)
(0.000462531 -0.00259793 0)
(0.000551626 -0.00241227 0)
(0.000655139 -0.00222288 0)
(0.00077352 -0.00202023 0)
(0.000911559 -0.00176058 0)
(0.00107276 -0.00142949 0)
(0.00124504 -0.00101856 0)
(0.00137833 -0.000677783 0)
(0.00149945 -0.000368184 0)
(0.00161435 -6.17393e-05 0)
(0.00185843 0.000669618 0)
(0.00244102 0.00141029 0)
(0.0033862 0.00212379 0)
(0.00456179 0.00152505 0)
(0.00529699 0.00110956 0)
(0.00541323 0.0102387 0)
(0.00511233 0.0148824 0)
(0.00512562 0.0124677 0)
(0.00577349 0.00727443 0)
(0.00627062 0.00537093 0)
(0.0060757 0.00530364 0)
(0.00591868 0.00486502 0)
(-3.761e-07 -0.000200893 0)
(-2.9257e-06 -0.000580686 0)
(-7.62123e-06 -0.000938606 0)
(-1.41307e-05 -0.00127475 0)
(-2.20838e-05 -0.00158922 0)
(-3.11636e-05 -0.00188222 0)
(-4.10639e-05 -0.00215394 0)
(-5.15023e-05 -0.00240463 0)
(-6.2172e-05 -0.00263447 0)
(-7.27977e-05 -0.00284372 0)
(-8.30686e-05 -0.00303257 0)
(-9.27211e-05 -0.00320132 0)
(-0.00010144 -0.00335012 0)
(-0.000108972 -0.00347935 0)
(-0.000114994 -0.00358911 0)
(-0.000119265 -0.00367987 0)
(-0.000121451 -0.00375168 0)
(-0.00012134 -0.00380511 0)
(-0.000118598 -0.00384011 0)
(-0.00011307 -0.00385743 0)
(-0.000104433 -0.00385683 0)
(-9.26133e-05 -0.00383931 0)
(-7.73084e-05 -0.00380428 0)
(-5.85211e-05 -0.00375311 0)
(-3.59174e-05 -0.00368474 0)
(-9.57627e-06 -0.00360121 0)
(2.08619e-05 -0.00350091 0)
(5.51573e-05 -0.00338694 0)
(9.3628e-05 -0.00325684 0)
(0.000135719 -0.00311528 0)
(0.000181704 -0.00295826 0)
(0.000231171 -0.00279228 0)
(0.00028576 -0.00261078 0)
(0.000346323 -0.00242405 0)
(0.00041481 -0.00222319 0)
(0.000489618 -0.00202362 0)
(0.000571125 -0.00180666 0)
(0.00066028 -0.0015869 0)
(0.000765305 -0.00131247 0)
(0.000879624 -0.00106088 0)
(0.000968128 -0.000748425 0)
(0.00103601 -0.000516276 0)
(0.00111029 -0.000185554 0)
(0.00132837 0.000443377 0)
(0.00187548 0.00118188 0)
(0.00271756 0.00045644 0)
(0.00334116 2.32617e-05 0)
(0.00340862 0.00415991 0)
(0.0033329 0.00505346 0)
(0.00349885 0.00431994 0)
(-2.26985e-07 -0.000184138 0)
(-3.08966e-06 -0.000533701 0)
(-8.90841e-06 -0.000864775 0)
(-1.74713e-05 -0.00117753 0)
(-2.84031e-05 -0.00147213 0)
(-4.13766e-05 -0.00174876 0)
(-5.60732e-05 -0.00200764 0)
(-7.22122e-05 -0.00224894 0)
(-8.94805e-05 -0.00247287 0)
(-0.000107611 -0.00267961 0)
(-0.000126288 -0.00286937 0)
(-0.000145263 -0.00304233 0)
(-0.000164216 -0.00319872 0)
(-0.000182922 -0.00333871 0)
(-0.000201054 -0.00346255 0)
(-0.000218416 -0.0035704 0)
(-0.00023467 -0.00366254 0)
(-0.000249657 -0.00373909 0)
(-0.000263021 -0.0038004 0)
(-0.000274649 -0.00384654 0)
(-0.000284159 -0.00387791 0)
(-0.000291496 -0.00389453 0)
(-0.00029624 -0.00389686 0)
(-0.000298406 -0.00388486 0)
(-0.000297521 -0.00385904 0)
(-0.000293683 -0.00381928 0)
(-0.00028636 -0.00376619 0)
(-0.000275765 -0.00369952 0)
(-0.000261301 -0.00361996 0)
(-0.000243329 -0.0035271 0)
(-0.000221191 -0.00342174 0)
(-0.00019541 -0.00330327 0)
(-0.000165249 -0.00317256 0)
(-0.000131411 -0.00302893 0)
(-9.31351e-05 -0.00287339 0)
(-5.13455e-05 -0.0027052 0)
(-5.19821e-06 -0.00252518 0)
(4.45463e-05 -0.00233252 0)
(9.91581e-05 -0.00212784 0)
(0.00015774 -0.00191142 0)
(0.000220738 -0.00168318 0)
(0.000288283 -0.0014402 0)
(0.000363887 -0.00117868 0)
(0.000448968 -0.000920031 0)
(0.000534959 -0.000584981 0)
(0.000599939 -0.000417819 0)
(0.000636259 -9.40501e-05 0)
(0.000715135 0.000336519 0)
(0.000996352 -6.71917e-05 0)
(0.0013435 -0.000754537 0)
(-5.96114e-07 -0.000158112 0)
(-5.09568e-06 -0.000460094 0)
(-1.37348e-05 -0.000747926 0)
(-2.61248e-05 -0.00102168 0)
(-4.1816e-05 -0.00128144 0)
(-6.04288e-05 -0.00152732 0)
(-8.16386e-05 -0.00175943 0)
(-0.000105124 -0.00197792 0)
(-0.000130579 -0.00218288 0)
(-0.000157692 -0.00237446 0)
(-0.000186174 -0.00255278 0)
(-0.000215723 -0.00271797 0)
(-0.000246065 -0.00287015 0)
(-0.00027691 -0.00300949 0)
(-0.000307999 -0.00313608 0)
(-0.000339048 -0.00325011 0)
(-0.000369817 -0.00335166 0)
(-0.000400025 -0.00344094 0)
(-0.000429447 -0.00351803 0)
(-0.000457807 -0.00358314 0)
(-0.000484896 -0.00363635 0)
(-0.00051044 -0.00367787 0)
(-0.000534243 -0.00370778 0)
(-0.000556031 -0.00372633 0)
(-0.000575621 -0.00373353 0)
(-0.000592738 -0.00372969 0)
(-0.000607206 -0.00371478 0)
(-0.00061875 -0.00368913 0)
(-0.000627196 -0.00365268 0)
(-0.000632265 -0.0036058 0)
(-0.000633776 -0.00354834 0)
(-0.000631449 -0.00348072 0)
(-0.000625083 -0.00340272 0)
(-0.000614397 -0.00331477 0)
(-0.000599157 -0.00321656 0)
(-0.000579091 -0.00310855 0)
(-0.000553918 -0.00299032 0)
(-0.000523373 -0.00286231 0)
(-0.000487104 -0.00272401 0)
(-0.000444846 -0.00257588 0)
(-0.000396138 -0.00241729 0)
(-0.000340681 -0.00224861 0)
(-0.000277917 -0.00206918 0)
(-0.000207876 -0.00187956 0)
(-0.00013013 -0.00167913 0)
(-4.35793e-05 -0.00146757 0)
(5.81781e-05 -0.00122861 0)
(0.000164895 -0.00111085 0)
(0.000247373 -0.00115055 0)
(0.0003054 -0.00118579 0)
(-3.1841e-07 -0.00012746 0)
(-4.01927e-06 -0.000373056 0)
(-1.15508e-05 -0.000609248 0)
(-2.26847e-05 -0.000835944 0)
(-3.70346e-05 -0.00105307 0)
(-5.42633e-05 -0.00126059 0)
(-7.40754e-05 -0.00145846 0)
(-9.61941e-05 -0.00164669 0)
(-0.000120345 -0.00182526 0)
(-0.000146265 -0.0019942 0)
(-0.000173691 -0.00215352 0)
(-0.000202374 -0.00230326 0)
(-0.000232064 -0.00244346 0)
(-0.000262524 -0.00257417 0)
(-0.000293514 -0.00269546 0)
(-0.000324808 -0.0028074 0)
(-0.000356175 -0.00291006 0)
(-0.000387399 -0.00300355 0)
(-0.000418256 -0.00308795 0)
(-0.000448539 -0.00316338 0)
(-0.000478028 -0.00322996 0)
(-0.000506525 -0.0032878 0)
(-0.000533813 -0.00333707 0)
(-0.000559698 -0.00337789 0)
(-0.000583968 -0.00341045 0)
(-0.00060643 -0.00343489 0)
(-0.000626873 -0.00345143 0)
(-0.000645105 -0.00346025 0)
(-0.000660915 -0.00346157 0)
(-0.000674106 -0.00345563 0)
(-0.000684464 -0.00344265 0)
(-0.000691786 -0.00342293 0)
(-0.00069585 -0.00339672 0)
(-0.000696439 -0.00336436 0)
(-0.000693324 -0.00332613 0)
(-0.000686266 -0.00328245 0)
(-0.00067502 -0.0032336 0)
(-0.000659321 -0.00318011 0)
(-0.000638903 -0.00312225 0)
(-0.000613458 -0.00306072 0)
(-0.000582702 -0.00299573 0)
(-0.000546277 -0.00292819 0)
(-0.000503866 -0.00285826 0)
(-0.000455025 -0.00278714 0)
(-0.000399266 -0.00271482 0)
(-0.000336362 -0.00264287 0)
(-0.000266486 -0.00257117 0)
(-0.000191034 -0.00250242 0)
(-0.000110793 -0.00243407 0)
(-2.93598e-05 -0.00240858 0)
(-4.28068e-07 -0.000104299 0)
(-3.53573e-06 -0.00030701 0)
(-9.4937e-06 -0.000503667 0)
(-1.80465e-05 -0.000694088 0)
(-2.89087e-05 -0.000878118 0)
(-4.18453e-05 -0.00105563 0)
(-5.66514e-05 -0.00122653 0)
(-7.31278e-05 -0.00139074 0)
(-9.10774e-05 -0.00154817 0)
(-0.000110305 -0.00169878 0)
(-0.00013062 -0.00184253 0)
(-0.000151834 -0.00197938 0)
(-0.000173762 -0.00210933 0)
(-0.000196223 -0.00223237 0)
(-0.000219039 -0.00234851 0)
(-0.000242034 -0.00245776 0)
(-0.000265037 -0.00256015 0)
(-0.000287878 -0.00265574 0)
(-0.000310393 -0.00274456 0)
(-0.000332418 -0.00282669 0)
(-0.000353793 -0.00290218 0)
(-0.000374363 -0.00297114 0)
(-0.000393972 -0.00303365 0)
(-0.000412473 -0.00308982 0)
(-0.000429716 -0.00313978 0)
(-0.000445561 -0.00318364 0)
(-0.000459863 -0.00322157 0)
(-0.000472493 -0.00325371 0)
(-0.00048331 -0.00328023 0)
(-0.000492195 -0.00330134 0)
(-0.000499014 -0.00331721 0)
(-0.000503658 -0.00332809 0)
(-0.000506 -0.00333419 0)
(-0.000505945 -0.00333579 0)
(-0.000503371 -0.00333312 0)
(-0.0004982 -0.00332651 0)
(-0.000490318 -0.00331624 0)
(-0.000479663 -0.00330267 0)
(-0.000466131 -0.00328612 0)
(-0.000449682 -0.003267 0)
(-0.000430222 -0.00324565 0)
(-0.000407737 -0.00322256 0)
(-0.00038215 -0.00319809 0)
(-0.000353462 -0.00317281 0)
(-0.000321645 -0.00314707 0)
(-0.000286672 -0.00312157 0)
(-0.000248598 -0.00309661 0)
(-0.000207498 -0.00307295 0)
(-0.000163641 -0.00305066 0)
(-0.000117833 -0.00303048 0)
(-3.81101e-08 -8.92639e-05 0)
(-1.17349e-06 -0.000264081 0)
(-3.65184e-06 -0.000434999 0)
(-7.43779e-06 -0.000601816 0)
(-1.24092e-05 -0.000764359 0)
(-1.84456e-05 -0.000922485 0)
(-2.54361e-05 -0.00107607 0)
(-3.32704e-05 -0.00122501 0)
(-4.18358e-05 -0.00136922 0)
(-5.10179e-05 -0.00150863 0)
(-6.07002e-05 -0.00164316 0)
(-7.0766e-05 -0.00177277 0)
(-8.10971e-05 -0.00189741 0)
(-9.15756e-05 -0.00201708 0)
(-0.000102083 -0.00213174 0)
(-0.000112501 -0.00224139 0)
(-0.000122711 -0.00234603 0)
(-0.000132597 -0.00244569 0)
(-0.000142041 -0.00254037 0)
(-0.000150929 -0.00263012 0)
(-0.000159144 -0.00271497 0)
(-0.000166575 -0.00279498 0)
(-0.00017311 -0.0028702 0)
(-0.000178639 -0.0029407 0)
(-0.000183055 -0.00300657 0)
(-0.000186254 -0.00306788 0)
(-0.000188133 -0.00312473 0)
(-0.000188594 -0.00317724 0)
(-0.000187539 -0.00322552 0)
(-0.000184878 -0.00326969 0)
(-0.000180521 -0.00330989 0)
(-0.000174385 -0.00334627 0)
(-0.000166393 -0.003379 0)
(-0.000156467 -0.00340824 0)
(-0.000144543 -0.00343418 0)
(-0.000130555 -0.00345702 0)
(-0.000114452 -0.00347697 0)
(-9.61804e-05 -0.00349426 0)
(-7.57038e-05 -0.00350913 0)
(-5.29857e-05 -0.00352183 0)
(-2.80053e-05 -0.00353265 0)
(-7.43369e-07 -0.00354186 0)
(2.88019e-05 -0.00354979 0)
(6.06303e-05 -0.00355675 0)
(9.47239e-05 -0.00356312 0)
(0.000131057 -0.00356922 0)
(0.000169594 -0.00357551 0)
(0.000210299 -0.00358234 0)
(0.000253176 -0.00359021 0)
(0.000298194 -0.00359944 0)
(-1.72066e-07 -8.54699e-05 0)
(-1.14873e-06 -0.000252782 0)
(-2.94187e-06 -0.000416431 0)
(-5.45855e-06 -0.000576344 0)
(-8.61791e-06 -0.00073246 0)
(-1.23547e-05 -0.000884737 0)
(-1.66091e-05 -0.00103314 0)
(-2.13185e-05 -0.00117764 0)
(-2.64187e-05 -0.00131821 0)
(-3.18428e-05 -0.00145484 0)
(-3.75238e-05 -0.00158752 0)
(-4.33923e-05 -0.00171623 0)
(-4.93797e-05 -0.00184098 0)
(-5.54147e-05 -0.00196178 0)
(-6.14279e-05 -0.00207862 0)
(-6.7347e-05 -0.00219152 0)
(-7.31024e-05 -0.00230051 0)
(-7.8621e-05 -0.0024056 0)
(-8.38341e-05 -0.00250684 0)
(-8.86683e-05 -0.00260424 0)
(-9.30561e-05 -0.00269785 0)
(-9.69244e-05 -0.00278772 0)
(-0.000100208 -0.0028739 0)
(-0.000102834 -0.00295644 0)
(-0.000104741 -0.0030354 0)
(-0.000105856 -0.00311086 0)
(-0.000106122 -0.00318289 0)
(-0.000105469 -0.00325156 0)
(-0.000103843 -0.00331695 0)
(-0.000101177 -0.00337917 0)
(-9.74243e-05 -0.00343831 0)
(-9.25195e-05 -0.00349446 0)
(-8.64249e-05 -0.00354775 0)
(-7.90795e-05 -0.00359829 0)
(-7.04555e-05 -0.00364619 0)
(-6.04982e-05 -0.0036916 0)
(-4.91926e-05 -0.00373465 0)
(-3.64931e-05 -0.0037755 0)
(-2.24004e-05 -0.00381427 0)
(-6.88192e-06 -0.0038512 0)
(1.00414e-05 -0.00388636 0)
(2.83846e-05 -0.00392007 0)
(4.81018e-05 -0.00395236 0)
(6.91826e-05 -0.00398366 0)
(9.15433e-05 -0.00401393 0)
(0.000115119 -0.00404376 0)
(0.000139787 -0.00407299 0)
(0.000165588 -0.00410243 0)
(0.000192843 -0.00413175 0)
(0.000221582 -0.00416245 0)
(3.24484e-08 -7.89819e-05 0)
(-1.5657e-07 -0.000234447 0)
(-6.66766e-07 -0.000387308 0)
(-1.5124e-06 -0.000537447 0)
(-2.66793e-06 -0.000684761 0)
(-4.10381e-06 -0.000829167 0)
(-5.79223e-06 -0.000970593 0)
(-7.70557e-06 -0.00110898 0)
(-9.81549e-06 -0.00124428 0)
(-1.20928e-05 -0.00137645 0)
(-1.45071e-05 -0.00150546 0)
(-1.7028e-05 -0.00163127 0)
(-1.96237e-05 -0.00175388 0)
(-2.22624e-05 -0.00187327 0)
(-2.49112e-05 -0.00198942 0)
(-2.75373e-05 -0.00210235 0)
(-3.01063e-05 -0.00221206 0)
(-3.25848e-05 -0.00231856 0)
(-3.49365e-05 -0.00242186 0)
(-3.71273e-05 -0.002522 0)
(-3.91189e-05 -0.00261899 0)
(-4.08765e-05 -0.00271289 0)
(-4.23593e-05 -0.00280372 0)
(-4.35315e-05 -0.00289153 0)
(-4.43493e-05 -0.00297636 0)
(-4.47758e-05 -0.00305828 0)
(-4.47633e-05 -0.00313734 0)
(-4.42731e-05 -0.00321361 0)
(-4.32536e-05 -0.00328714 0)
(-4.16628e-05 -0.00335803 0)
(-3.94453e-05 -0.00342631 0)
(-3.6554e-05 -0.00349211 0)
(-3.293e-05 -0.00355544 0)
(-2.85194e-05 -0.00361646 0)
(-2.32608e-05 -0.00367515 0)
(-1.70907e-05 -0.00373168 0)
(-9.94785e-06 -0.00378601 0)
(-1.75584e-06 -0.00383833 0)
(7.54238e-06 -0.00388852 0)
(1.80391e-05 -0.00393682 0)
(2.97828e-05 -0.00398301 0)
(4.28813e-05 -0.00402738 0)
(5.73606e-05 -0.00406954 0)
(7.33298e-05 -0.00410988 0)
(9.08166e-05 -0.00414777 0)
(0.000110107 -0.00418369 0)
(0.000131511 -0.00421662 0)
(0.000154856 -0.00424735 0)
(0.000176042 -0.00427496 0)
(0.000181634 -0.00430309 0)
(-5.90179e-08 -8.07316e-05 0)
(-2.89874e-07 -0.000239033 0)
(-6.57784e-07 -0.000394187 0)
(-1.12825e-06 -0.000546176 0)
(-1.68096e-06 -0.000694982 0)
(-2.30443e-06 -0.000840593 0)
(-2.98883e-06 -0.000983001 0)
(-3.7267e-06 -0.0011222 0)
(-4.50859e-06 -0.0012582 0)
(-5.32844e-06 -0.00139099 0)
(-6.1765e-06 -0.00152058 0)
(-7.04731e-06 -0.00164698 0)
(-7.93002e-06 -0.00177021 0)
(-8.81916e-06 -0.00189028 0)
(-9.70208e-06 -0.00200722 0)
(-1.05729e-05 -0.00212105 0)
(-1.14166e-05 -0.00223181 0)
(-1.22266e-05 -0.00233954 0)
(-1.29851e-05 -0.00244428 0)
(-1.36846e-05 -0.00254609 0)
(-1.43041e-05 -0.00264503 0)
(-1.48349e-05 -0.00274115 0)
(-1.52525e-05 -0.00283454 0)
(-1.55467e-05 -0.00292528 0)
(-1.56892e-05 -0.00301345 0)
(-1.56681e-05 -0.00309916 0)
(-1.54513e-05 -0.00318252 0)
(-1.50242e-05 -0.00326363 0)
(-1.43513e-05 -0.00334265 0)
(-1.34145e-05 -0.00341969 0)
(-1.21752e-05 -0.00349494 0)
(-1.06105e-05 -0.00356851 0)
(-8.6795e-06 -0.00364063 0)
(-6.35265e-06 -0.00371143 0)
(-3.58832e-06 -0.00378115 0)
(-3.47154e-07 -0.00384996 0)
(3.41106e-06 -0.00391806 0)
(7.73954e-06 -0.00398572 0)
(1.26751e-05 -0.00405304 0)
(1.82913e-05 -0.00412041 0)
(2.46158e-05 -0.00418777 0)
(3.17349e-05 -0.00425571 0)
(3.96391e-05 -0.00432382 0)
(4.84945e-05 -0.00439309 0)
(5.86241e-05 -0.00446235 0)
(7.09716e-05 -0.00453335 0)
(8.47786e-05 -0.00460443 0)
(9.20554e-05 -0.00468129 0)
(6.62266e-05 -0.00464836 0)
(3.12032e-05 -0.00460791 0)
(4.93744e-08 -7.72058e-05 0)
(4.56435e-07 -0.000229631 0)
(1.22729e-06 -0.000379886 0)
(2.31701e-06 -0.000527784 0)
(3.67178e-06 -0.00067317 0)
(5.24804e-06 -0.000815919 0)
(7.0081e-06 -0.000955928 0)
(8.91959e-06 -0.00109312 0)
(1.0951e-05 -0.00122743 0)
(1.30749e-05 -0.0013588 0)
(1.52641e-05 -0.00148722 0)
(1.74958e-05 -0.00161266 0)
(1.97465e-05 -0.00173511 0)
(2.19969e-05 -0.00185456 0)
(2.4227e-05 -0.00197103 0)
(2.64202e-05 -0.00208453 0)
(2.85598e-05 -0.00219511 0)
(3.06313e-05 -0.00230277 0)
(3.26213e-05 -0.00240758 0)
(3.45164e-05 -0.00250958 0)
(3.63071e-05 -0.00260883 0)
(3.79795e-05 -0.00270539 0)
(3.95283e-05 -0.00279934 0)
(4.09373e-05 -0.00289074 0)
(4.22059e-05 -0.00297971 0)
(4.33127e-05 -0.00306629 0)
(4.42626e-05 -0.00315064 0)
(4.50246e-05 -0.0032328 0)
(4.56103e-05 -0.00331295 0)
(4.5974e-05 -0.00339112 0)
(4.61343e-05 -0.00346753 0)
(4.60244e-05 -0.0035422 0)
(4.56712e-05 -0.00361536 0)
(4.49792e-05 -0.00368704 0)
(4.39836e-05 -0.00375749 0)
(4.25532e-05 -0.00382671 0)
(4.07319e-05 -0.003895 0)
(3.83482e-05 -0.00396232 0)
(3.54509e-05 -0.00402898 0)
(3.18108e-05 -0.00409493 0)
(2.74374e-05 -0.00416051 0)
(2.20855e-05 -0.00422564 0)
(1.61177e-05 -0.00429059 0)
(1.02282e-05 -0.00435527 0)
(4.33382e-06 -0.00442004 0)
(-9.83531e-06 -0.00448593 0)
(-5.95029e-05 -0.00453384 0)
(-0.000133066 -0.00458614 0)
(-0.000199552 -0.00449912 0)
(-0.000271953 -0.00435408 0)
(7.98517e-08 -8.62752e-05 0)
(3.77929e-07 -0.000254207 0)
(8.56519e-07 -0.000417674 0)
(1.46492e-06 -0.000576792 0)
(2.17197e-06 -0.00073166 0)
(2.9502e-06 -0.000882361 0)
(3.77223e-06 -0.00102897 0)
(4.60588e-06 -0.00117156 0)
(5.41877e-06 -0.00131019 0)
(6.17364e-06 -0.00144493 0)
(6.83556e-06 -0.00157583 0)
(7.36384e-06 -0.00170295 0)
(7.72245e-06 -0.00182635 0)
(7.86785e-06 -0.0019461 0)
(7.76442e-06 -0.00206224 0)
(7.36604e-06 -0.00217485 0)
(6.63911e-06 -0.00228399 0)
(5.53483e-06 -0.00238974 0)
(4.02324e-06 -0.00249216 0)
(2.05236e-06 -0.00259134 0)
(-4.02425e-07 -0.00268735 0)
(-3.39731e-06 -0.00278029 0)
(-6.94974e-06 -0.00287023 0)
(-1.11218e-05 -0.00295726 0)
(-1.59218e-05 -0.0030415 0)
(-2.14199e-05 -0.00312298 0)
(-2.76134e-05 -0.00320185 0)
(-3.45835e-05 -0.00327813 0)
(-4.23143e-05 -0.00335199 0)
(-5.09016e-05 -0.00342337 0)
(-6.03144e-05 -0.00349253 0)
(-7.06672e-05 -0.00355926 0)
(-8.19116e-05 -0.00362397 0)
(-9.41855e-05 -0.00368621 0)
(-0.000107421 -0.00374662 0)
(-0.000121783 -0.00380443 0)
(-0.000137182 -0.0038606 0)
(-0.000153819 -0.00391391 0)
(-0.000171601 -0.00396581 0)
(-0.000190792 -0.00401439 0)
(-0.000211174 -0.00406189 0)
(-0.00023252 -0.00410532 0)
(-0.000253905 -0.00414809 0)
(-0.000277623 -0.00418649 0)
(-0.00031609 -0.00422785 0)
(-0.000389202 -0.00424589 0)
(-0.000462739 -0.00423037 0)
(-0.000498206 -0.00415781 0)
(-0.000538593 -0.00370219 0)
(-0.000666541 -0.00197784 0)
(-4.22485e-08 -7.91854e-05 0)
(5.78292e-07 -0.00023527 0)
(2.02769e-06 -0.000388756 0)
(4.27761e-06 -0.000539366 0)
(7.2055e-06 -0.000686861 0)
(1.06903e-05 -0.000831039 0)
(1.46185e-05 -0.00097173 0)
(1.88872e-05 -0.00110879 0)
(2.33912e-05 -0.00124212 0)
(2.80337e-05 -0.00137162 0)
(3.27134e-05 -0.00149723 0)
(3.73403e-05 -0.00161891 0)
(4.18162e-05 -0.00173661 0)
(4.60578e-05 -0.00185033 0)
(4.99686e-05 -0.00196007 0)
(5.3472e-05 -0.00206585 0)
(5.6471e-05 -0.00216768 0)
(5.88956e-05 -0.00226562 0)
(6.06462e-05 -0.00235971 0)
(6.16596e-05 -0.00245001 0)
(6.18305e-05 -0.00253661 0)
(6.11032e-05 -0.00261954 0)
(5.93637e-05 -0.00269896 0)
(5.65646e-05 -0.00277488 0)
(5.25804e-05 -0.00284748 0)
(4.73737e-05 -0.00291677 0)
(4.08041e-05 -0.00298297 0)
(3.28473e-05 -0.00304604 0)
(2.33457e-05 -0.00310628 0)
(1.22914e-05 -0.00316355 0)
(-4.91552e-07 -0.00321826 0)
(-1.49901e-05 -0.00327013 0)
(-3.13972e-05 -0.00331973 0)
(-4.96739e-05 -0.0033666 0)
(-7.00231e-05 -0.00341148 0)
(-9.23762e-05 -0.00345367 0)
(-0.000116954 -0.00349418 0)
(-0.000143685 -0.00353196 0)
(-0.000172762 -0.0035684 0)
(-0.000203685 -0.00360197 0)
(-0.000235666 -0.00363448 0)
(-0.000268761 -0.00366393 0)
(-0.000311472 -0.00369334 0)
(-0.00038959 -0.00372097 0)
(-0.000484772 -0.00375237 0)
(-0.000562398 -0.00377487 0)
(-0.000622405 -0.00382647 0)
(-0.000715433 -0.00391709 0)
(-0.00056083 -0.00267324 0)
(0.000733379 0.00748234 0)
(3.98415e-07 -9.97551e-05 0)
(2.17657e-06 -0.000291637 0)
(5.20362e-06 -0.000476103 0)
(9.22487e-06 -0.000653326 0)
(1.40518e-05 -0.000823473 0)
(1.95255e-05 -0.000986695 0)
(2.54976e-05 -0.00114314 0)
(3.18107e-05 -0.00129294 0)
(3.83119e-05 -0.00143624 0)
(4.4842e-05 -0.00157317 0)
(5.12531e-05 -0.00170386 0)
(5.7391e-05 -0.00182842 0)
(6.31157e-05 -0.00194697 0)
(6.82784e-05 -0.00205962 0)
(7.27468e-05 -0.00216649 0)
(7.63762e-05 -0.00226767 0)
(7.904e-05 -0.00236326 0)
(8.05941e-05 -0.00245336 0)
(8.09141e-05 -0.00253806 0)
(7.9852e-05 -0.00261746 0)
(7.72812e-05 -0.00269161 0)
(7.30443e-05 -0.00276063 0)
(6.70071e-05 -0.00282455 0)
(5.89966e-05 -0.00288349 0)
(4.8865e-05 -0.00293747 0)
(3.64169e-05 -0.00298662 0)
(2.14847e-05 -0.00303092 0)
(3.84301e-06 -0.00307055 0)
(-1.67024e-05 -0.00310544 0)
(-4.04143e-05 -0.00313583 0)
(-6.7521e-05 -0.00316161 0)
(-9.83306e-05 -0.00318311 0)
(-0.000133113 -0.00320017 0)
(-0.000172228 -0.00321323 0)
(-0.000216 -0.0032221 0)
(-0.000264859 -0.0032274 0)
(-0.000319212 -0.00322887 0)
(-0.000379506 -0.00322741 0)
(-0.000445927 -0.00322273 0)
(-0.000518533 -0.00321606 0)
(-0.000598871 -0.00320712 0)
(-0.000694768 -0.00319761 0)
(-0.00081905 -0.00318736 0)
(-0.000947947 -0.0031776 0)
(-0.00106563 -0.00316399 0)
(-0.00120408 -0.00312993 0)
(-0.0014732 -0.00260954 0)
(-0.00180931 -0.0118671 0)
(-0.00118557 -0.0180644 0)
(-0.000343021 -0.014638 0)
(8.93738e-09 -9.44506e-05 0)
(2.99154e-06 -0.000278641 0)
(9.11094e-06 -0.000457286 0)
(1.79651e-05 -0.000629699 0)
(2.88459e-05 -0.00079538 0)
(4.11293e-05 -0.000953954 0)
(5.43049e-05 -0.00110516 0)
(6.79415e-05 -0.00124884 0)
(8.167e-05 -0.00138488 0)
(9.51719e-05 -0.00151326 0)
(0.00010818 -0.00163399 0)
(0.000120465 -0.00174709 0)
(0.000131844 -0.00185262 0)
(0.00014216 -0.00195064 0)
(0.000151291 -0.00204123 0)
(0.000159137 -0.00212444 0)
(0.000165622 -0.00220034 0)
(0.000170683 -0.00226896 0)
(0.000174281 -0.00233036 0)
(0.000176375 -0.00238449 0)
(0.000176948 -0.00243139 0)
(0.000175967 -0.00247095 0)
(0.000173426 -0.00250318 0)
(0.00016929 -0.00252786 0)
(0.000163551 -0.00254498 0)
(0.000156157 -0.00255418 0)
(0.000147087 -0.00255544 0)
(0.000136261 -0.00254825 0)
(0.000123631 -0.0025326 0)
(0.000109071 -0.00250774 0)
(9.24946e-05 -0.00247373 0)
(7.3716e-05 -0.00242953 0)
(5.25895e-05 -0.00237532 0)
(2.88519e-05 -0.00230966 0)
(2.27957e-06 -0.00223295 0)
(-2.74918e-05 -0.00214322 0)
(-6.07981e-05 -0.00204126 0)
(-9.81417e-05 -0.00192431 0)
(-0.00013996 -0.00179382 0)
(-0.000186705 -0.00164594 0)
(-0.000238662 -0.0014832 0)
(-0.000297238 -0.00130005 0)
(-0.00036831 -0.00110009 0)
(-0.000461209 -0.000874473 0)
(-0.000566937 -0.000601404 0)
(-0.000671673 -0.000563093 0)
(-0.000811328 -0.000443538 0)
(-0.00118929 -0.00687549 0)
(-0.00142876 -0.0198698 0)
(-0.00080605 -0.0191492 0)
(2.1409e-06 -0.000158917 0)
(1.34618e-05 -0.000444072 0)
(3.18389e-05 -0.00070209 0)
(5.50079e-05 -0.000935549 0)
(8.10504e-05 -0.00114675 0)
(0.000108594 -0.00133776 0)
(0.000136618 -0.00151045 0)
(0.000164338 -0.00166654 0)
(0.000191139 -0.00180758 0)
(0.000216566 -0.00193499 0)
(0.00024028 -0.00205004 0)
(0.000262063 -0.00215387 0)
(0.000281766 -0.0022475 0)
(0.000299331 -0.00233181 0)
(0.000314737 -0.0024076 0)
(0.000328036 -0.00247556 0)
(0.000339287 -0.00253628 0)
(0.00034862 -0.00259025 0)
(0.000356142 -0.00263787 0)
(0.000362031 -0.00267949 0)
(0.000366424 -0.00271534 0)
(0.000369531 -0.00274558 0)
(0.000371493 -0.00277029 0)
(0.00037254 -0.00278948 0)
(0.000372802 -0.00280307 0)
(0.000372515 -0.0028109 0)
(0.000371778 -0.00281275 0)
(0.00037082 -0.00280828 0)
(0.000369687 -0.00279709 0)
(0.000368582 -0.00277867 0)
(0.000367467 -0.00275245 0)
(0.000366494 -0.00271769 0)
(0.0003655 -0.00267366 0)
(0.000364544 -0.00261938 0)
(0.000363286 -0.00255393 0)
(0.000361622 -0.00247601 0)
(0.000358964 -0.00238459 0)
(0.00035495 -0.00227795 0)
(0.000348631 -0.00215499 0)
(0.000339284 -0.00201356 0)
(0.000325389 -0.00185264 0)
(0.000305495 -0.00166967 0)
(0.000276917 -0.0014636 0)
(0.000237383 -0.00123067 0)
(0.000188687 -0.000968611 0)
(0.000133618 -0.000928845 0)
(5.26237e-05 -0.000836823 0)
(-0.000172102 -0.00147065 0)
(-0.000589284 -0.00466586 0)
(-0.00157584 -0.00473909 0)
(6.93041e-05 -0.000226435 0)
(0.000198715 -0.000607765 0)
(0.000300361 -0.000926365 0)
(0.000378786 -0.00119273 0)
(0.000438246 -0.00141551 0)
(0.000481722 -0.00160183 0)
(0.0005113 -0.00175767 0)
(0.000528712 -0.00188802 0)
(0.000535494 -0.00199709 0)
(0.000532983 -0.00208838 0)
(0.000522347 -0.00216483 0)
(0.000504585 -0.00222891 0)
(0.000480576 -0.00228266 0)
(0.000451076 -0.00232778 0)
(0.000416758 -0.00236567 0)
(0.000378198 -0.00239749 0)
(0.000335929 -0.00242417 0)
(0.000290399 -0.00244646 0)
(0.000242046 -0.00246493 0)
(0.000191237 -0.00248001 0)
(0.000138354 -0.00249198 0)
(8.37152e-05 -0.002501 0)
(2.76863e-05 -0.00250709 0)
(-2.94339e-05 -0.00251014 0)
(-8.72592e-05 -0.00250991 0)
(-0.000145479 -0.00250603 0)
(-0.00020365 -0.00249795 0)
(-0.000261417 -0.00248498 0)
(-0.000318234 -0.00246618 0)
(-0.000373665 -0.00244047 0)
(-0.000427007 -0.0024064 0)
(-0.000477696 -0.00236235 0)
(-0.000524807 -0.00230617 0)
(-0.000567584 -0.00223549 0)
(-0.000604793 -0.00214719 0)
(-0.000635396 -0.00203787 0)
(-0.000657757 -0.00190302 0)
(-0.00067042 -0.00173776 0)
(-0.000671159 -0.0015356 0)
(-0.000658067 -0.00128961 0)
(-0.000627943 -0.000990234 0)
(-0.000578376 -0.000628056 0)
(-0.000505103 -0.000188939 0)
(-0.000403746 0.000340046 0)
(-0.000269223 0.000977418 0)
(-9.72961e-05 0.00174496 0)
(0.000112341 0.00267166 0)
(0.000307201 0.00356412 0)
(0.000453476 0.0047727 0)
(0.000548363 0.00723443 0)
(-0.000204711 0.0391253 0)
(-0.000291781 0.0356931 0)
(-0.00065452 0.0317945 0)
(-0.0014113 0.0276581 0)
(-0.00271559 0.0234391 0)
(-0.00433657 0.0192554 0)
(-0.0065985 0.0156679 0)
(-0.00901358 0.013326 0)
(-0.0105595 0.0118994 0)
(-0.0115186 0.0109393 0)
(-0.0119344 0.00992246 0)
(-0.0120553 0.00932537 0)
(-0.0120015 0.00895338 0)
(-0.0118518 0.00870795 0)
(-0.0116542 0.0085505 0)
(-0.0114391 0.00834438 0)
(-0.0112438 0.0081708 0)
(-0.0110497 0.00750213 0)
(-0.0108316 0.0071847 0)
(-0.0106332 0.007608 0)
(-0.0104909 0.00781346 0)
(-0.010419 0.00791436 0)
(-0.010356 0.00683339 0)
(-0.0102775 0.00618789 0)
(-0.0102132 0.0058116 0)
(-0.0101855 0.00560174 0)
(-0.0102043 0.00552597 0)
(-0.010269 0.00550449 0)
(-0.0103751 0.0054959 0)
(-0.0105192 0.00554395 0)
(-0.0107027 0.00566988 0)
(-0.0109232 0.00584496 0)
(-0.0111831 0.00605875 0)
(-0.0114655 0.00608383 0)
(-0.0117646 0.00620079 0)
(-0.012086 0.00641993 0)
(-0.0124251 0.0067187 0)