/*--------------------------------*- C++ -*----------------------------------*\
| =========                 |                                                 |
| \\      /  F ield         | OpenFOAM: The Open Source CFD Toolbox           |
|  \\    /   O peration     | Version:  2.4.0                                 |
|   \\  /    A nd           | Web:      www.OpenFOAM.org                      |
|    \\/     M anipulation  |                                                 |
\*---------------------------------------------------------------------------*/
FoamFile
{
    version     2.0;
    format      ascii;
    class       volScalarField;
    location    "0.4";
    object      H;
}
// * * * * * * * * * * * * * * * * * * * * * * * * * * * * * * * * * * * * * //

dimensions      [0 2 -2 0 0 0 0];

internalField   nonuniform List<scalar> 
8000
(
-11805.7
-10960.2
-10124.3
-9304.03
-8505.26
-7733.27
-6992.79
-6287.89
-5621.93
-4997.49
-4416.39
-3879.7
-3387.75
-2940.2
-2536.1
-2173.98
-1851.91
-1567.59
-1318.5
-1101.89
-914.933
-754.777
-618.601
-503.677
-407.408
-327.364
-261.305
-207.19
-163.188
-127.672
-99.2165
-76.586
-58.72
-44.7187
-33.8263
-25.4142
-18.9649
-14.0562
-10.347
-7.56404
-5.49067
-3.95625
-2.82763
-2.00156
-1.39846
-0.95711
-0.630283
-0.381091
-0.179906
-0.00165901
-11805.7
-10960.2
-10124.3
-9304.02
-8505.25
-7733.27
-6992.79
-6287.89
-5621.93
-4997.48
-4416.38
-3879.69
-3387.74
-2940.19
-2536.1
-2173.98
-1851.9
-1567.59
-1318.5
-1101.89
-914.932
-754.776
-618.6
-503.676
-407.407
-327.364
-261.305
-207.19
-163.187
-127.671
-99.2163
-76.5859
-58.7199
-44.7186
-33.8262
-25.4141
-18.9649
-14.0562
-10.3469
-7.56404
-5.49067
-3.95626
-2.82763
-2.00156
-1.39846
-0.957115
-0.630289
-0.381097
-0.179912
-0.00165914
-11805.7
-10960.2
-10124.3
-9304.02
-8505.25
-7733.26
-6992.79
-6287.89
-5621.92
-4997.48
-4416.39
-3879.69
-3387.74
-2940.2
-2536.1
-2173.98
-1851.9
-1567.59
-1318.5
-1101.89
-914.933
-754.778
-618.602
-503.677
-407.408
-327.365
-261.306
-207.191
-163.188
-127.672
-99.217
-76.5865
-58.7205
-44.7191
-33.8266
-25.4145
-18.9651
-14.0564
-10.3471
-7.56419
-5.49079
-3.95635
-2.82771
-2.00162
-1.39851
-0.957155
-0.630321
-0.38112
-0.179925
-0.00165922
-11805.7
-10960.2
-10124.3
-9304.02
-8505.25
-7733.26
-6992.79
-6287.89
-5621.93
-4997.48
-4416.39
-3879.7
-3387.75
-2940.2
-2536.1
-2173.98
-1851.91
-1567.6
-1318.5
-1101.89
-914.936
-754.781
-618.605
-503.68
-407.411
-327.367
-261.308
-207.193
-163.19
-127.674
-99.2185
-76.5878
-58.7216
-44.7201
-33.8274
-25.4152
-18.9657
-14.0569
-10.3475
-7.56452
-5.49106
-3.95657
-2.82788
-2.00176
-1.39863
-0.957248
-0.630396
-0.381176
-0.179955
-0.00165949
-11805.7
-10960.2
-10124.3
-9304.02
-8505.26
-7733.27
-6992.79
-6287.9
-5621.93
-4997.49
-4416.39
-3879.7
-3387.75
-2940.21
-2536.11
-2173.99
-1851.92
-1567.61
-1318.51
-1101.9
-914.946
-754.79
-618.614
-503.689
-407.419
-327.375
-261.315
-207.199
-163.195
-127.679
-99.2226
-76.5913
-58.7246
-44.7226
-33.8296
-25.417
-18.9672
-14.0581
-10.3485
-7.56533
-5.49171
-3.95709
-2.8283
-2.0021
-1.39891
-0.957487
-0.6306
-0.38134
-0.18005
-0.00166034
-11805.7
-10960.2
-10124.3
-9304.03
-8505.26
-7733.27
-6992.8
-6287.9
-5621.94
-4997.5
-4416.41
-3879.72
-3387.77
-2940.23
-2536.13
-2174.01
-1851.94
-1567.63
-1318.53
-1101.92
-914.965
-754.808
-618.63
-503.704
-407.433
-327.388
-261.327
-207.21
-163.205
-127.687
-99.2301
-76.5978
-58.7302
-44.7273
-33.8335
-25.4203
-18.9699
-14.0603
-10.3503
-7.56678
-5.49287
-3.95802
-2.82906
-2.00274
-1.39948
-0.958034
-0.631149
-0.381867
-0.180431
-0.001664
-11805.7
-10960.2
-10124.3
-9304.03
-8505.27
-7733.28
-6992.81
-6287.92
-5621.96
-4997.52
-4416.43
-3879.74
-3387.8
-2940.26
-2536.16
-2174.04
-1851.97
-1567.66
-1318.56
-1101.95
-914.996
-754.838
-618.659
-503.731
-407.458
-327.411
-261.347
-207.228
-163.222
-127.702
-99.2426
-76.6086
-58.7394
-44.7351
-33.8401
-25.4257
-18.9744
-14.064
-10.3533
-7.56915
-5.49478
-3.95958
-2.83037
-2.00393
-1.40067
-0.959392
-0.632833
-0.383918
-0.182339
-0.00171129
-11805.7
-10960.2
-10124.3
-9304.04
-8505.28
-7733.3
-6992.83
-6287.94
-5621.99
-4997.55
-4416.47
-3879.78
-3387.84
-2940.3
-2536.21
-2174.1
-1852.02
-1567.71
-1318.62
-1102
-915.046
-754.885
-618.704
-503.773
-407.497
-327.446
-261.379
-207.257
-163.247
-127.724
-99.2619
-76.6252
-58.7535
-44.747
-33.85
-25.4339
-18.9811
-14.0695
-10.3577
-7.57273
-5.49769
-3.962
-2.83252
-2.00607
-1.40319
-0.962861
-0.638166
-0.392259
-0.193179
-0.00927826
-11805.7
-10960.2
-10124.3
-9304.05
-8505.29
-7733.32
-6992.85
-6287.97
-5622.03
-4997.6
-4416.52
-3879.84
-3387.91
-2940.37
-2536.29
-2174.17
-1852.1
-1567.79
-1318.69
-1102.08
-915.119
-754.955
-618.769
-503.834
-407.553
-327.497
-261.426
-207.298
-163.284
-127.756
-99.2898
-76.6491
-58.7738
-44.7641
-33.8643
-25.4457
-18.9908
-14.0773
-10.3641
-7.57787
-5.5019
-3.9656
-2.83588
-2.00975
-1.40806
-0.970555
-0.652044
-0.420106
-0.25401
-0.141933
-11805.7
-10960.2
-10124.3
-9304.06
-8505.31
-7733.34
-6992.89
-6288.02
-5622.08
-4997.67
-4416.59
-3879.93
-3388
-2940.47
-2536.39
-2174.28
-1852.21
-1567.9
-1318.8
-1102.18
-915.22
-755.051
-618.86
-503.918
-407.631
-327.568
-261.49
-207.355
-163.334
-127.8
-99.3278
-76.6817
-58.8015
-44.7874
-33.8837
-25.4617
-19.0039
-14.0879
-10.3727
-7.58483
-5.50765
-3.97057
-2.84065
-2.01509
-1.41517
-0.981238
-0.668675
-0.444615
-0.284919
-0.171094
-11805.7
-10960.2
-10124.3
-9304.08
-8505.34
-7733.38
-6992.94
-6288.08
-5622.16
-4997.75
-4416.69
-3880.04
-3388.12
-2940.6
-2536.52
-2174.42
-1852.35
-1568.04
-1318.94
-1102.32
-915.354
-755.179
-618.98
-504.03
-407.734
-327.662
-261.574
-207.43
-163.4
-127.858
-99.3776
-76.7243
-58.8376
-44.8177
-33.9089
-25.4825
-19.0209
-14.1017
-10.3838
-7.59384
-5.51505
-3.97691
-2.84652
-2.02118
-1.42226
-0.990036
-0.679547
-0.45702
-0.296904
-0.179314
-11805.7
-10960.2
-10124.3
-9304.11
-8505.38
-7733.43
-6993
-6288.16
-5622.25
-4997.87
-4416.82
-3880.18
-3388.27
-2940.76
-2536.7
-2174.6
-1852.53
-1568.23
-1319.13
-1102.5
-915.524
-755.341
-619.133
-504.172
-407.864
-327.78
-261.68
-207.525
-163.483
-127.93
-99.4401
-76.7777
-58.8828
-44.8556
-33.9403
-25.5083
-19.0419
-14.1188
-10.3976
-7.60492
-5.52405
-3.9844
-2.85303
-2.02721
-1.42823
-0.996191
-0.685811
-0.462878
-0.301355
-0.180979
-11805.7
-10960.2
-10124.3
-9304.14
-8505.42
-7733.49
-6993.08
-6288.26
-5622.37
-4998.01
-4416.98
-3880.36
-3388.47
-2940.97
-2536.91
-2174.82
-1852.76
-1568.45
-1319.35
-1102.72
-915.732
-755.539
-619.318
-504.344
-408.021
-327.923
-261.808
-207.638
-163.583
-128.017
-99.515
-76.8416
-58.9367
-44.9007
-33.9777
-25.5391
-19.067
-14.139
-10.4138
-7.61793
-5.53447
-3.99282
-2.85996
-2.03308
-1.43333
-1.00068
-0.689636
-0.465771
-0.302838
-0.180424
-11805.7
-10960.2
-10124.4
-9304.18
-8505.48
-7733.57
-6993.18
-6288.38
-5622.52
-4998.17
-4417.17
-3880.57
-3388.7
-2941.21
-2537.17
-2175.08
-1853.02
-1568.72
-1319.61
-1102.97
-915.974
-755.767
-619.532
-504.541
-408.202
-328.087
-261.955
-207.769
-163.697
-128.116
-99.6001
-76.914
-58.9978
-44.9517
-34.0199
-25.5737
-19.0952
-14.1617
-10.432
-7.6324
-5.54595
-4.00193
-2.86722
-2.0389
-1.438
-1.00437
-0.692385
-0.467469
-0.303254
-0.179222
-11805.7
-10960.3
-10124.4
-9304.23
-8505.55
-7733.66
-6993.3
-6288.52
-5622.68
-4998.36
-4417.39
-3880.8
-3388.95
-2941.48
-2537.45
-2175.37
-1853.32
-1569.01
-1319.89
-1103.24
-916.237
-756.016
-619.764
-504.756
-408.398
-328.263
-262.112
-207.908
-163.819
-128.222
-99.6907
-76.991
-59.0626
-45.0057
-34.0646
-25.6102
-19.1248
-14.1856
-10.451
-7.64748
-5.55784
-4.01126
-2.87452
-2.04459
-1.44239
-1.00765
-0.694644
-0.46869
-0.30332
-0.177929
-11805.7
-10960.3
-10124.4
-9304.28
-8505.62
-7733.76
-6993.42
-6288.67
-5622.86
-4998.57
-4417.61
-3881.05
-3389.21
-2941.76
-2537.74
-2175.66
-1853.61
-1569.3
-1320.18
-1103.52
-916.5
-756.264
-619.995
-504.968
-408.591
-328.437
-262.268
-208.045
-163.939
-128.325
-99.779
-77.0659
-59.1254
-45.0579
-34.1075
-25.6453
-19.1532
-14.2083
-10.4691
-7.66178
-5.56905
-4.01999
-2.88128
-2.04977
-1.44628
-1.01045
-0.696459
-0.469538
-0.30315
-0.176626
-11805.7
-10960.3
-10124.5
-9304.34
-8505.7
-7733.85
-6993.54
-6288.81
-5623.02
-4998.75
-4417.82
-3881.28
-3389.46
-2942.01
-2538
-2175.93
-1853.88
-1569.56
-1320.43
-1103.77
-916.733
-756.482
-620.198
-505.154
-408.76
-328.589
-262.402
-208.163
-164.041
-128.413
-99.8543
-77.1294
-59.1785
-45.1019
-34.1436
-25.6746
-19.1767
-14.2271
-10.484
-7.67345
-5.57814
-4.027
-2.88663
-2.05376
-1.44916
-1.01236
-0.697463
-0.469661
-0.302394
-0.175018
-11805.7
-10960.3
-10124.5
-9304.39
-8505.76
-7733.93
-6993.63
-6288.93
-5623.15
-4998.9
-4417.98
-3881.45
-3389.63
-2942.2
-2538.19
-2176.12
-1854.07
-1569.75
-1320.62
-1103.94
-916.901
-756.64
-620.343
-505.287
-408.88
-328.696
-262.497
-208.246
-164.113
-128.474
-99.9061
-77.1727
-59.2143
-45.1313
-34.1674
-25.6938
-19.192
-14.2392
-10.4934
-7.68071
-5.58367
-4.03115
-2.88964
-2.05581
-1.45032
-1.01264
-0.696797
-0.467953
-0.299677
-0.171737
-11805.7
-10960.3
-10124.5
-9304.41
-8505.8
-7733.98
-6993.68
-6288.98
-5623.21
-4998.96
-4418.05
-3881.52
-3389.72
-2942.29
-2538.28
-2176.22
-1854.17
-1569.85
-1320.71
-1104.03
-916.988
-756.721
-620.418
-505.355
-408.941
-328.749
-262.543
-208.285
-164.146
-128.502
-99.9288
-77.191
-59.2289
-45.1427
-34.1763
-25.7005
-19.197
-14.2428
-10.496
-7.68248
-5.58479
-4.03171
-2.88965
-2.05521
-1.44892
-1.01008
-0.692491
-0.461153
-0.289837
-0.159587
-11805.7
-10960.3
-10124.5
-9304.4
-8505.77
-7733.95
-6993.65
-6288.95
-5623.18
-4998.94
-4418.03
-3881.51
-3389.71
-2942.28
-2538.28
-2176.22
-1854.17
-1569.85
-1320.71
-1104.03
-916.986
-756.717
-620.412
-505.346
-408.93
-328.737
-262.529
-208.271
-164.131
-128.487
-99.914
-77.1768
-59.2156
-45.1304
-34.1651
-25.6905
-19.1882
-14.2352
-10.4894
-7.67682
-5.57987
-4.0273
-2.88542
-2.05068
-1.44333
-1.00222
-0.680289
-0.441134
-0.255786
-0.0884949
-0.000380994
-0.000346281
-0.000315094
-0.000286582
-0.000260528
-0.000236731
-0.000215006
-0.000195183
-0.000177103
-0.000160622
-0.000145606
-0.00013193
-0.000119482
-0.000108157
-9.78584e-05
-8.84981e-05
-7.99948e-05
-7.2274e-05
-6.5267e-05
-5.89111e-05
-5.31487e-05
-4.7927e-05
-4.31977e-05
-3.89163e-05
-3.50426e-05
-3.15393e-05
-2.83727e-05
-2.55118e-05
-2.29285e-05
-2.05969e-05
-1.84936e-05
-1.65972e-05
-1.48882e-05
-1.33487e-05
-1.19628e-05
-1.07157e-05
-9.59399e-06
-8.58564e-06
-7.67962e-06
-6.86594e-06
-6.13555e-06
-5.48025e-06
-4.8926e-06
-4.36587e-06
-3.89398e-06
-3.47142e-06
-3.09322e-06
-2.75488e-06
-2.45235e-06
-2.18196e-06
-0.00038092
-0.000346189
-0.000315036
-0.000286555
-0.000260527
-0.000236754
-0.000215049
-0.000195241
-0.000177174
-0.000160701
-0.00014569
-0.000132018
-0.00011957
-0.000108244
-9.79424e-05
-8.85784e-05
-8.00706e-05
-7.23449e-05
-6.53328e-05
-5.89718e-05
-5.32043e-05
-4.79778e-05
-4.32439e-05
-3.89583e-05
-3.50807e-05
-3.15738e-05
-2.8404e-05
-2.55403e-05
-2.29544e-05
-2.06205e-05
-1.85151e-05
-1.66169e-05
-1.49062e-05
-1.33653e-05
-1.1978e-05
-1.07296e-05
-9.60684e-06
-8.59749e-06
-7.69054e-06
-6.87602e-06
-6.14484e-06
-5.48881e-06
-4.90049e-06
-4.37314e-06
-3.90067e-06
-3.47757e-06
-3.09887e-06
-2.76006e-06
-2.45708e-06
-2.18628e-06
-0.000380899
-0.000346235
-0.000315186
-0.000286803
-0.000260864
-0.000237164
-0.000215516
-0.00019575
-0.000177707
-0.000161244
-0.00014623
-0.000132543
-0.000120074
-0.000108719
-9.83844e-05
-8.89848e-05
-8.04403e-05
-7.26778e-05
-6.563e-05
-5.9235e-05
-5.34357e-05
-4.81799e-05
-4.34192e-05
-3.91097e-05
-3.52107e-05
-3.16851e-05
-2.84989e-05
-2.5621e-05
-2.30228e-05
-2.06785e-05
-1.85643e-05
-1.66585e-05
-1.49414e-05
-1.33952e-05
-1.20035e-05
-1.07515e-05
-9.62563e-06
-8.61371e-06
-7.70463e-06
-6.88832e-06
-6.15566e-06
-5.49838e-06
-4.909e-06
-4.38075e-06
-3.90751e-06
-3.48375e-06
-3.10447e-06
-2.76515e-06
-2.46173e-06
-2.19052e-06
-0.000380791
-0.000346559
-0.000316104
-0.000288267
-0.000262797
-0.000239471
-0.000218097
-0.000198505
-0.000180546
-0.000164089
-0.000149016
-0.00013522
-0.000122603
-0.000111074
-0.00010055
-9.09536e-05
-8.22119e-05
-7.42571e-05
-6.70258e-05
-6.04588e-05
-5.45008e-05
-4.91004e-05
-4.42098e-05
-3.97845e-05
-3.57834e-05
-3.21685e-05
-2.89048e-05
-2.59601e-05
-2.33049e-05
-2.09121e-05
-1.87569e-05
-1.68166e-05
-1.50709e-05
-1.35007e-05
-1.20893e-05
-1.08209e-05
-9.68174e-06
-8.65894e-06
-7.74101e-06
-6.91755e-06
-6.17912e-06
-5.5172e-06
-4.92411e-06
-4.39289e-06
-3.91729e-06
-3.49166e-06
-3.11089e-06
-2.77039e-06
-2.46604e-06
-2.19409e-06
-0.000378646
-0.000347019
-0.00032047
-0.000295955
-0.000273117
-0.00025171
-0.000231578
-0.000212628
-0.00019481
-0.000178095
-0.000162465
-0.000147899
-0.000134374
-0.000121861
-0.000110323
-9.97199e-05
-9.0004e-05
-8.11267e-05
-7.30367e-05
-6.56818e-05
-5.90098e-05
-5.29695e-05
-4.75109e-05
-4.25858e-05
-3.81485e-05
-3.41556e-05
-3.05666e-05
-2.73438e-05
-2.4452e-05
-2.18591e-05
-1.95356e-05
-1.74545e-05
-1.55913e-05
-1.39239e-05
-1.2432e-05
-1.10975e-05
-9.90415e-06
-8.83715e-06
-7.88332e-06
-7.03078e-06
-6.2689e-06
-5.58814e-06
-4.97996e-06
-4.43671e-06
-3.95155e-06
-3.51834e-06
-3.13159e-06
-2.7864e-06
-2.47836e-06
-2.20354e-06
-0.000373848
-0.000361056
-0.000354996
-0.000346847
-0.000335754
-0.000321634
-0.0003049
-0.000286216
-0.000266314
-0.00024588
-0.000225494
-0.000205609
-0.000186554
-0.000168547
-0.000151723
-0.000136146
-0.000121832
-0.000108761
-9.68912e-05
-8.61614e-05
-7.65023e-05
-6.78384e-05
-6.00916e-05
-5.31839e-05
-4.70391e-05
-4.15841e-05
-3.67496e-05
-3.24709e-05
-2.86885e-05
-2.53474e-05
-2.23982e-05
-1.97959e-05
-1.75002e-05
-1.54751e-05
-1.36887e-05
-1.21124e-05
-1.07212e-05
-9.49296e-06
-8.40807e-06
-7.44938e-06
-6.6018e-06
-5.85206e-06
-5.18855e-06
-4.60104e-06
-4.08059e-06
-3.61933e-06
-3.21035e-06
-2.8476e-06
-2.52573e-06
-2.24005e-06
-0.00038531
-0.000502553
-0.000607478
-0.000676018
-0.000708161
-0.000709685
-0.000688083
-0.000650642
-0.000603581
-0.000551761
-0.000498716
-0.000446844
-0.000397646
-0.000351965
-0.000310186
-0.000272391
-0.000238483
-0.000208254
-0.000181444
-0.000157769
-0.000136944
-0.000118687
-0.000102732
-8.88284e-05
-7.67434e-05
-6.62634e-05
-5.71935e-05
-4.93574e-05
-4.2597e-05
-3.67715e-05
-3.17559e-05
-2.74402e-05
-2.37282e-05
-2.05357e-05
-1.77899e-05
-1.54274e-05
-1.33936e-05
-1.16417e-05
-1.01313e-05
-8.82766e-06
-7.7013e-06
-6.72686e-06
-5.88271e-06
-5.15039e-06
-4.51416e-06
-3.96057e-06
-3.47817e-06
-3.05718e-06
-2.68923e-06
-2.36719e-06
-0.004051
-0.0023007
-0.00252325
-0.00273992
-0.00276661
-0.00265094
-0.0024521
-0.00221376
-0.00196475
-0.00172277
-0.00149771
-0.00129426
-0.00111376
-0.00095561
-0.000818174
-0.00069936
-0.000596981
-0.000508951
-0.000433372
-0.000368565
-0.000313063
-0.000265595
-0.000225056
-0.000190492
-0.00016107
-0.000136068
-0.000114859
-9.6895e-05
-8.17031e-05
-6.88731e-05
-5.80512e-05
-4.8933e-05
-4.12573e-05
-3.48007e-05
-2.93728e-05
-2.48114e-05
-2.0979e-05
-1.77592e-05
-1.50536e-05
-1.27791e-05
-1.08659e-05
-9.25531e-06
-7.89808e-06
-6.75293e-06
-5.78532e-06
-4.9664e-06
-4.27204e-06
-3.68214e-06
-3.1799e-06
-2.75134e-06
-0.0255678
-0.01975
-0.0166949
-0.0140517
-0.0117939
-0.00987797
-0.00826124
-0.00690389
-0.00576895
-0.00482276
-0.0040353
-0.00338028
-0.00283511
-0.00238071
-0.0020012
-0.00168349
-0.00141687
-0.00119266
-0.00100377
-0.000844431
-0.000709923
-0.000596346
-0.000500461
-0.000419559
-0.000351356
-0.00029392
-0.000245609
-0.000205026
-0.000170979
-0.000142455
-0.000118589
-9.86473e-05
-8.20053e-05
-6.81343e-05
-5.65864e-05
-4.69832e-05
-3.90054e-05
-3.2384e-05
-2.6893e-05
-2.23426e-05
-1.85739e-05
-1.54538e-05
-1.28713e-05
-1.07339e-05
-8.96455e-06
-7.49935e-06
-6.28525e-06
-5.27832e-06
-4.44224e-06
-3.747e-06
-0.0272246
-0.0212112
-0.0188265
-0.0166445
-0.0146597
-0.0128648
-0.0112508
-0.00980723
-0.00852265
-0.00738487
-0.00638149
-0.00550021
-0.00472906
-0.00405662
-0.00347213
-0.00296563
-0.00252793
-0.00215068
-0.00182634
-0.00154813
-0.00131001
-0.00110665
-0.000933301
-0.000785828
-0.000660598
-0.000554449
-0.00046463
-0.000388763
-0.000324789
-0.000270936
-0.00022568
-0.000187713
-0.000155916
-0.000129331
-0.000107141
-8.86501e-05
-7.32678e-05
-6.04919e-05
-4.98977e-05
-4.1126e-05
-3.3874e-05
-2.78866e-05
-2.29498e-05
-1.88841e-05
-1.55393e-05
-1.27901e-05
-1.05322e-05
-8.67867e-06
-7.15769e-06
-5.90969e-06
-0.0245814
-0.0189947
-0.0172544
-0.0156254
-0.0141052
-0.0126926
-0.0113856
-0.0101814
-0.00907642
-0.00806674
-0.00714782
-0.00631479
-0.00556254
-0.00488579
-0.00427921
-0.00373748
-0.00325537
-0.00282778
-0.00244981
-0.00211681
-0.00182435
-0.0015683
-0.00134482
-0.00115034
-0.0009816
-0.000835607
-0.000709652
-0.000601286
-0.000508304
-0.000428737
-0.000360827
-0.000303016
-0.000253928
-0.000212351
-0.000177222
-0.000147613
-0.000122716
-0.00010183
-8.43492e-05
-6.97508e-05
-5.75863e-05
-4.74717e-05
-3.9079e-05
-3.21287e-05
-2.63841e-05
-2.16445e-05
-1.77409e-05
-1.45308e-05
-1.18948e-05
-9.73299e-06
-0.021049
-0.0160571
-0.0147677
-0.0135502
-0.0124011
-0.0113198
-0.0103056
-0.00935726
-0.00847331
-0.00765207
-0.0068916
-0.00618971
-0.00554403
-0.00495204
-0.00441106
-0.00391834
-0.00347106
-0.00306636
-0.0027014
-0.00237335
-0.00207943
-0.00181694
-0.00158327
-0.00137592
-0.00119251
-0.00103078
-0.000888616
-0.000764036
-0.000655199
-0.000560404
-0.000478088
-0.000406823
-0.000345306
-0.00029236
-0.000246922
-0.000208039
-0.000174861
-0.000146629
-0.000122672
-0.000102398
-8.52873e-05
-7.08846e-05
-5.87926e-05
-4.86662e-05
-4.0207e-05
-3.31575e-05
-2.72965e-05
-2.24345e-05
-1.84099e-05
-1.50852e-05
-0.01769
-0.0133192
-0.0123314
-0.0113977
-0.0105129
-0.00967616
-0.00888657
-0.00814315
-0.00744487
-0.00679059
-0.00617913
-0.00560916
-0.00507931
-0.00458811
-0.00413402
-0.00371542
-0.00333067
-0.00297805
-0.00265584
-0.0023623
-0.00209567
-0.00185422
-0.00163624
-0.00144004
-0.00126398
-0.00110649
-0.000966031
-0.000841147
-0.000730451
-0.000632632
-0.000546454
-0.000470763
-0.000404484
-0.000346624
-0.000296263
-0.000252562
-0.000214752
-0.000182137
-0.000154084
-0.000130026
-0.000109454
-9.19137e-05
-7.70001e-05
-6.43552e-05
-5.36634e-05
-4.46475e-05
-3.70649e-05
-3.07043e-05
-2.53822e-05
-2.09399e-05
-0.0148434
-0.0110486
-0.0102578
-0.0095157
-0.00881274
-0.00814767
-0.00751931
-0.00692653
-0.00636824
-0.00584337
-0.00535085
-0.00488962
-0.00445859
-0.00405667
-0.00368276
-0.00333572
-0.0030144
-0.00271764
-0.00244426
-0.00219309
-0.00196292
-0.00175258
-0.00156088
-0.00138666
-0.00122877
-0.00108608
-0.000957503
-0.000841973
-0.000738469
-0.000646009
-0.000563656
-0.00049052
-0.000425762
-0.00036859
-0.000318265
-0.000274096
-0.000235446
-0.000201723
-0.000172386
-0.000146938
-0.00012493
-0.000105951
-8.96314e-05
-7.56383e-05
-6.3674e-05
-5.3473e-05
-4.47992e-05
-3.74443e-05
-3.12242e-05
-2.59777e-05
-0.0125653
-0.00926622
-0.00860268
-0.00798936
-0.00741025
-0.00686374
-0.00634838
-0.00586283
-0.00540583
-0.00497623
-0.00457289
-0.00419476
-0.00384081
-0.00351005
-0.00320152
-0.00291425
-0.0026473
-0.00239977
-0.00217071
-0.00195923
-0.00176442
-0.00158539
-0.00142126
-0.00127116
-0.00113424
-0.00100966
-0.00089661
-0.000794284
-0.000701917
-0.000618765
-0.000544113
-0.000477276
-0.000417603
-0.000364474
-0.000317305
-0.000275543
-0.000238675
-0.000206218
-0.000177725
-0.000152785
-0.000131015
-0.000112067
-9.56205e-05
-8.13862e-05
-6.91005e-05
-5.85262e-05
-4.94498e-05
-4.16804e-05
-3.50476e-05
-2.94003e-05
-0.0108019
-0.00790938
-0.0073259
-0.00679901
-0.0063039
-0.00583871
-0.00540176
-0.0049915
-0.00460652
-0.00424551
-0.00390724
-0.00359057
-0.00329444
-0.00301783
-0.00275981
-0.00251945
-0.0022959
-0.0020883
-0.00189587
-0.0017178
-0.00155335
-0.00140178
-0.00126236
-0.00113439
-0.0010172
-0.000910112
-0.00081249
-0.000723705
-0.000643153
-0.000570251
-0.000504436
-0.000445171
-0.000391941
-0.000344254
-0.000301645
-0.000263675
-0.000229928
-0.000200014
-0.000173571
-0.000150259
-0.000129762
-0.00011179
-9.60732e-05
-8.23666e-05
-7.04452e-05
-6.01043e-05
-5.11585e-05
-4.34401e-05
-3.67983e-05
-3.1098e-05
-0.00946259
-0.00689222
-0.00635562
-0.00588561
-0.00544669
-0.00503676
-0.00465389
-0.00429631
-0.00396239
-0.00365061
-0.00335961
-0.00308811
-0.00283496
-0.00259906
-0.00237944
-0.00217516
-0.00198534
-0.00180919
-0.00164592
-0.00149481
-0.00135516
-0.00122632
-0.00110765
-0.000998545
-0.000898422
-0.000806719
-0.0007229
-0.000646446
-0.000576859
-0.000513662
-0.000456398
-0.000404628
-0.000357936
-0.000315923
-0.000278212
-0.000244446
-0.000214287
-0.000187418
-0.000163539
-0.000142373
-0.000123657
-0.000107152
-9.26328e-05
-7.98942e-05
-6.87464e-05
-5.90159e-05
-5.05444e-05
-4.3188e-05
-3.68162e-05
-3.13114e-05
-0.00842803
-0.00610677
-0.00559187
-0.00515651
-0.00475444
-0.00438282
-0.00403904
-0.00372072
-0.00342572
-0.00315211
-0.00289819
-0.00266244
-0.00244351
-0.00224021
-0.00205146
-0.00187631
-0.00171386
-0.00156331
-0.00142392
-0.00129499
-0.00117588
-0.00106599
-0.000964733
-0.000871579
-0.000786014
-0.000707551
-0.000635727
-0.0005701
-0.00051025
-0.000455775
-0.000406293
-0.000361442
-0.000320876
-0.000284265
-0.000251297
-0.000221676
-0.000195124
-0.000171378
-0.000150192
-0.000131334
-0.000114589
-9.97564e-05
-8.66493e-05
-7.50956e-05
-6.4936e-05
-5.60244e-05
-4.82267e-05
-4.14205e-05
-3.54943e-05
-3.03472e-05
-0.00737184
-0.00528971
-0.00479371
-0.00439088
-0.00402791
-0.00369946
-0.00340108
-0.0031289
-0.00287958
-0.0026503
-0.00243872
-0.00224294
-0.00206141
-0.00189288
-0.00173632
-0.00159086
-0.00145575
-0.00133034
-0.00121402
-0.00110625
-0.00100651
-0.000914317
-0.000829223
-0.000750791
-0.000678612
-0.000612295
-0.000551468
-0.000495773
-0.000444871
-0.000398437
-0.000356161
-0.000317746
-0.000282912
-0.000251391
-0.000222927
-0.00019728
-0.000174222
-0.000153537
-0.000135023
-0.00011849
-0.000103759
-9.06645e-05
-7.90519e-05
-6.87774e-05
-5.97084e-05
-5.17224e-05
-4.47066e-05
-3.85578e-05
-3.31818e-05
-2.84925e-05
-0.00398678
-0.00313132
-0.0030369
-0.00289386
-0.00272428
-0.00255218
-0.00238733
-0.00223252
-0.00208749
-0.00195098
-0.00182167
-0.00169853
-0.00158093
-0.00146853
-0.0013612
-0.00125896
-0.00116184
-0.00106989
-0.000983124
-0.000901517
-0.000824997
-0.000753453
-0.000686742
-0.000624698
-0.000567135
-0.000513858
-0.000464662
-0.000419339
-0.000377679
-0.000339474
-0.000304516
-0.000272603
-0.000243535
-0.000217119
-0.000193169
-0.000171504
-0.000151952
-0.000134346
-0.000118531
-0.000104357
-9.16836e-05
-8.03782e-05
-7.03167e-05
-6.13835e-05
-5.34705e-05
-4.64778e-05
-4.03129e-05
-3.48906e-05
-3.01326e-05
-2.59674e-05
-1.99644e-06
-1.87424e-06
-1.75869e-06
-1.64946e-06
-1.54627e-06
-1.44882e-06
-1.35684e-06
-1.27006e-06
-1.18824e-06
-1.11113e-06
-1.03849e-06
-9.70092e-07
-9.05732e-07
-8.45198e-07
-7.88293e-07
-7.34826e-07
-6.84618e-07
-6.37494e-07
-5.93289e-07
-5.51844e-07
-5.13009e-07
-4.76639e-07
-4.42596e-07
-4.10751e-07
-3.80977e-07
-3.53156e-07
-3.27175e-07
-3.02927e-07
-2.80308e-07
-2.59223e-07
-2.39578e-07
-2.21287e-07
-2.04266e-07
-1.88437e-07
-1.73726e-07
-1.60062e-07
-1.47378e-07
-1.35612e-07
-1.24705e-07
-1.146e-07
-1.05244e-07
-9.65876e-08
-8.85836e-08
-8.11879e-08
-7.43588e-08
-6.80572e-08
-6.22463e-08
-5.68916e-08
-5.19608e-08
-4.74235e-08
-4.32512e-08
-3.94174e-08
-3.58971e-08
-3.2667e-08
-2.97055e-08
-2.69921e-08
-2.4508e-08
-2.22355e-08
-2.01581e-08
-1.82606e-08
-1.65288e-08
-1.49493e-08
-1.351e-08
-1.21994e-08
-1.10071e-08
-9.92308e-09
-8.93848e-09
-8.04485e-09
-7.23449e-09
-6.50024e-09
-5.83552e-09
-5.23425e-09
-4.69086e-09
-4.20019e-09
-3.75754e-09
-3.35852e-09
-2.99918e-09
-2.67588e-09
-2.38525e-09
-2.12422e-09
-1.88998e-09
-1.68e-09
-1.49195e-09
-1.32367e-09
-1.17329e-09
-1.03893e-09
-9.19092e-10
-8.12278e-10
-7.17158e-10
-6.3253e-10
-5.57309e-10
-4.90509e-10
-4.31314e-10
-3.78823e-10
-3.324e-10
-2.91302e-10
-2.55034e-10
-2.22981e-10
-1.94756e-10
-1.69918e-10
-1.4808e-10
-1.28823e-10
-1.11942e-10
-9.71556e-11
-8.42129e-11
-7.28901e-11
-6.29896e-11
-5.43379e-11
-4.67926e-11
-4.015e-11
-3.43995e-11
-2.9428e-11
-2.51349e-11
-2.14319e-11
-1.82418e-11
-1.54977e-11
-1.31406e-11
-1.11193e-11
-9.38871e-12
-7.90969e-12
-6.64796e-12
-5.5737e-12
-4.66093e-12
-3.88707e-12
-3.23248e-12
-2.68014e-12
-2.21527e-12
-1.8251e-12
-1.49856e-12
-1.22611e-12
-9.99518e-13
-8.11699e-13
-6.56568e-13
-5.2891e-13
-4.24268e-13
-3.38837e-13
-2.69384e-13
-2.13168e-13
-1.67872e-13
-1.31548e-13
-1.02559e-13
-7.95409e-14
-6.13586e-14
-4.70727e-14
-3.591e-14
-2.72369e-14
-2.05371e-14
-1.53923e-14
-1.14657e-14
-8.48733e-15
-6.24261e-15
-4.56175e-15
-3.31144e-15
-2.38765e-15
-1.70979e-15
-1.21586e-15
-8.58506e-16
-6.01833e-16
-4.18825e-16
-2.89312e-16
-1.98349e-16
-1.34952e-16
-9.11101e-17
-6.10306e-17
-4.05582e-17
-2.67371e-17
-1.74828e-17
-1.13378e-17
-7.29157e-18
-4.64994e-18
-2.94012e-18
-1.84304e-18
-1.14528e-18
-7.05437e-19
-4.30659e-19
-2.60554e-19
-1.5621e-19
-9.27968e-20
-5.4617e-20
-3.1846e-20
-1.83941e-20
-1.05235e-20
-5.96293e-21
-3.34614e-21
-1.85941e-21
-1.0231e-21
-5.5736e-22
-3.00604e-22
-1.60494e-22
-8.48187e-23
-4.43672e-23
-2.29687e-23
-1.17673e-23
-5.96564e-24
-2.99254e-24
-1.48523e-24
-7.29269e-25
-3.54234e-25
-1.70204e-25
-8.08899e-26
-3.80221e-26
-1.76752e-26
-8.12545e-27
-3.69368e-27
-1.66023e-27
-7.37816e-28
-3.24168e-28
-1.40801e-28
-6.04542e-29
-2.56571e-29
-1.07627e-29
-4.46212e-30
-1.82828e-30
-7.40279e-31
-2.96195e-31
-1.17102e-31
-4.57435e-32
-1.76542e-32
-6.73125e-33
-2.53541e-33
-9.43373e-34
-3.46717e-34
-1.25864e-34
-4.51274e-35
-1.59797e-35
-5.58805e-36
-1.92973e-36
-6.58041e-37
-2.21569e-37
-7.36618e-38
-2.41786e-38
-7.8353e-39
-2.50664e-39
-7.9163e-40
-2.46787e-40
-7.59408e-41
-2.30652e-41
-6.91434e-42
-2.04567e-42
-5.97296e-43
-1.72106e-43
-4.89367e-44
-1.37305e-44
-3.80131e-45
-1.03838e-45
-2.79857e-46
-7.44141e-47
-1.95207e-47
-5.05175e-48
-1.28966e-48
-3.2477e-49
-8.06735e-50
-1.97662e-50
-4.77678e-51
-1.13855e-51
-2.67645e-52
-6.20497e-53
-1.41866e-53
-3.19862e-54
-7.11174e-55
-1.55921e-55
-3.37083e-56
-7.18552e-57
-1.51027e-57
-3.12979e-58
-6.39479e-59
-1.28818e-59
-2.55832e-60
-5.00896e-61
-9.66823e-62
-1.83967e-62
-3.45078e-63
-6.38071e-64
-1.16301e-64
-2.08957e-65
-3.70062e-66
-6.45995e-67
-1.11151e-67
-1.88504e-68
-3.15094e-69
-5.19119e-70
-8.42932e-71
-1.349e-71
-2.12773e-72
-3.30751e-73
-5.06712e-74
-7.65049e-75
-1.13837e-75
-1.66929e-76
-2.41234e-77
-3.43553e-78
-4.82163e-79
-6.66864e-80
-9.08905e-81
-1.22077e-81
-1.61578e-82
-2.10747e-83
-2.70881e-84
-3.43738e-85
-4.81294e-86
-2.00047e-06
-1.87808e-06
-1.76233e-06
-1.65293e-06
-1.54956e-06
-1.45194e-06
-1.3598e-06
-1.27288e-06
-1.19091e-06
-1.11365e-06
-1.04087e-06
-9.7235e-07
-9.07865e-07
-8.47212e-07
-7.90193e-07
-7.36617e-07
-6.86305e-07
-6.39082e-07
-5.94782e-07
-5.53247e-07
-5.14326e-07
-4.77874e-07
-4.43754e-07
-4.11835e-07
-3.81992e-07
-3.54105e-07
-3.28061e-07
-3.03754e-07
-2.81079e-07
-2.59941e-07
-2.40246e-07
-2.21908e-07
-2.04843e-07
-1.88973e-07
-1.74223e-07
-1.60522e-07
-1.47804e-07
-1.36007e-07
-1.25069e-07
-1.14936e-07
-1.05554e-07
-9.68732e-08
-8.88465e-08
-8.14296e-08
-7.45808e-08
-6.82609e-08
-6.2433e-08
-5.70626e-08
-5.21173e-08
-4.75665e-08
-4.33818e-08
-3.95365e-08
-3.60056e-08
-3.27658e-08
-2.97953e-08
-2.70737e-08
-2.45821e-08
-2.23026e-08
-2.02189e-08
-1.83156e-08
-1.65785e-08
-1.49942e-08
-1.35504e-08
-1.22359e-08
-1.10398e-08
-9.95253e-09
-8.96489e-09
-8.06854e-09
-7.25569e-09
-6.51918e-09
-5.85244e-09
-5.24936e-09
-4.70433e-09
-4.21216e-09
-3.76817e-09
-3.36797e-09
-3.00757e-09
-2.68329e-09
-2.39178e-09
-2.12999e-09
-1.89508e-09
-1.68448e-09
-1.49589e-09
-1.32711e-09
-1.17631e-09
-1.04158e-09
-9.21403e-10
-8.14279e-10
-7.18878e-10
-6.34005e-10
-5.58589e-10
-4.91599e-10
-4.32249e-10
-3.79599e-10
-3.33046e-10
-2.91816e-10
-2.55457e-10
-2.23328e-10
-1.95026e-10
-1.70088e-10
-1.48186e-10
-1.28884e-10
-1.11968e-10
-9.71441e-11
-8.41547e-11
-7.27713e-11
-6.27921e-11
-5.40381e-11
-4.64309e-11
-3.9757e-11
-3.39971e-11
-2.90316e-11
-2.47547e-11
-2.10746e-11
-1.79116e-11
-1.51964e-11
-1.2869e-11
-1.08768e-11
-9.17411e-12
-7.72129e-12
-6.48377e-12
-5.43158e-12
-4.5387e-12
-3.78258e-12
-3.14369e-12
-2.60511e-12
-2.15223e-12
-1.77242e-12
-1.45477e-12
-1.18991e-12
-9.69752e-13
-7.87353e-13
-6.36763e-13
-5.12886e-13
-4.11373e-13
-3.28517e-13
-2.61171e-13
-2.06669e-13
-1.62758e-13
-1.27547e-13
-9.9447e-14
-7.71349e-14
-5.95095e-14
-4.56604e-14
-3.48379e-14
-2.64282e-14
-1.99309e-14
-1.49409e-14
-1.11317e-14
-8.24193e-15
-6.06349e-15
-4.43191e-15
-3.21797e-15
-2.32083e-15
-1.66237e-15
-1.18245e-15
-8.35141e-16
-5.85612e-16
-4.07649e-16
-2.8167e-16
-1.93164e-16
-1.31461e-16
-8.87788e-17
-5.9486e-17
-3.9543e-17
-2.60753e-17
-1.7055e-17
-1.10635e-17
-7.1172e-18
-4.54003e-18
-2.87144e-18
-1.80049e-18
-1.11915e-18
-6.89534e-19
-4.21066e-19
-2.54819e-19
-1.52814e-19
-9.08031e-20
-5.34576e-20
-3.11781e-20
-1.80129e-20
-1.0308e-20
-5.84227e-21
-3.27923e-21
-1.82266e-21
-1.00312e-21
-5.46599e-22
-2.94866e-22
-1.57465e-22
-8.32359e-23
-4.35484e-23
-2.25493e-23
-1.15548e-23
-5.85902e-24
-2.9396e-24
-1.45922e-24
-7.16624e-25
-3.4815e-25
-1.67308e-25
-7.9526e-26
-3.73866e-26
-1.73822e-26
-7.99189e-27
-3.63343e-27
-1.63336e-27
-7.25958e-28
-3.18993e-28
-1.38568e-28
-5.95012e-29
-2.52549e-29
-1.05949e-29
-4.39289e-30
-1.80004e-30
-7.28892e-31
-2.91656e-31
-1.15313e-31
-4.50468e-32
-1.7386e-32
-6.6292e-33
-2.49704e-33
-9.29115e-34
-3.41482e-34
-1.23965e-34
-4.44466e-35
-1.57385e-35
-5.50368e-36
-1.90057e-36
-6.48086e-37
-2.18212e-37
-7.25438e-38
-2.38109e-38
-7.71585e-39
-2.46833e-39
-7.79494e-40
-2.42992e-40
-7.47689e-41
-2.2708e-41
-6.80686e-42
-2.01374e-42
-5.87935e-43
-1.69397e-43
-4.8163e-44
-1.35124e-44
-3.74064e-45
-1.02173e-45
-2.75346e-46
-7.32087e-47
-1.92029e-47
-4.96906e-48
-1.26844e-48
-3.19398e-49
-7.93318e-50
-1.94357e-50
-4.69647e-51
-1.1193e-51
-2.63095e-52
-6.09889e-53
-1.39427e-53
-3.14332e-54
-6.98809e-55
-1.53195e-55
-3.31156e-56
-7.05846e-57
-1.48341e-57
-3.07382e-58
-6.27978e-59
-1.26488e-59
-2.51178e-60
-4.91733e-61
-9.49035e-62
-1.80563e-62
-3.38657e-63
-6.26129e-64
-1.14112e-64
-2.05001e-65
-3.63016e-66
-6.33626e-67
-1.09011e-67
-1.84853e-68
-3.08955e-69
-5.08946e-70
-8.26317e-71
-1.32225e-71
-2.08529e-72
-3.24115e-73
-4.96485e-74
-7.49516e-75
-1.11511e-75
-1.63499e-76