/*--------------------------------*- C++ -*----------------------------------*\
| =========                 |                                                 |
| \\      /  F ield         | OpenFOAM: The Open Source CFD Toolbox           |
|  \\    /   O peration     | Version:  2.4.0                                 |
|   \\  /    A nd           | Web:      www.OpenFOAM.org                      |
|    \\/     M anipulation  |                                                 |
\*---------------------------------------------------------------------------*/
FoamFile
{
    version     2.0;
    format      ascii;
    class       volScalarField;
    location    "0.4";
    object      p_rgh;
}
// * * * * * * * * * * * * * * * * * * * * * * * * * * * * * * * * * * * * * //

dimensions      [1 -1 -2 0 0 0 0];

internalField   nonuniform List<scalar> 
8000
(
0.664153
0.664311
0.664127
0.664121
0.664118
0.664116
0.664114
0.664113
0.664111
0.66411
0.664109
0.664108
0.664106
0.664105
0.664104
0.664103
0.664102
0.664101
0.6641
0.664099
0.664098
0.664097
0.664096
0.664094
0.664093
0.664092
0.66409
0.664089
0.664088
0.664086
0.664084
0.664083
0.664081
0.66408
0.664078
0.664076
0.664075
0.664073
0.664071
0.664069
0.664068
0.664066
0.664064
0.664062
0.664062
0.664069
0.66408
0.664048
0.663854
0.663025
1.99173
1.99173
1.99172
1.99172
1.99171
1.99171
1.99171
1.9917
1.9917
1.9917
1.9917
1.9917
1.9917
1.9917
1.9917
1.9917
1.9917
1.9917
1.9917
1.9917
1.9917
1.9917
1.9917
1.9917
1.9917
1.9917
1.9917
1.9917
1.9917
1.9917
1.99171
1.99171
1.99171
1.99171
1.99172
1.99172
1.99172
1.99173
1.99173
1.99173
1.99174
1.99174
1.99175
1.99175
1.99176
1.99177
1.99179
1.99176
1.99157
1.98949
3.31965
3.31965
3.31965
3.31967
3.31965
3.31965
3.31965
3.31964
3.31964
3.31964
3.31964
3.31964
3.31964
3.31964
3.31964
3.31963
3.31963
3.31963
3.31963
3.31963
3.31963
3.31963
3.31963
3.31962
3.31962
3.31962
3.31962
3.31962
3.31962
3.31962
3.31961
3.31961
3.31961
3.31961
3.31961
3.31961
3.3196
3.3196
3.3196
3.3196
3.3196
3.31959
3.31959
3.31959
3.31959
3.3196
3.31961
3.31958
3.31937
3.31618
4.64734
4.64734
4.64734
4.64734
4.64734
4.64734
4.64734
4.64734
4.64734
4.64734
4.64734
4.64734
4.64734
4.64734
4.64734
4.64734
4.64734
4.64734
4.64734
4.64734
4.64734
4.64734
4.64734
4.64733
4.64733
4.64733
4.64733
4.64733
4.64733
4.64733
4.64733
4.64733
4.64733
4.64733
4.64733
4.64733
4.64733
4.64733
4.64733
4.64733
4.64733
4.64733
4.64733
4.64732
4.64732
4.64733
4.64735
4.64732
4.6471
4.64322
5.97516
5.97516
5.97516
5.97516
5.97516
5.97517
5.97517
5.97517
5.97517
5.97517
5.97518
5.97518
5.97518
5.97518
5.97518
5.97518
5.97518
5.97518
5.97518
5.97518
5.97518
5.97518
5.97518
5.97518
5.97518
5.97518
5.97518
5.97518
5.97517
5.97517
5.97517
5.97517
5.97517
5.97516
5.97516
5.97516
5.97515
5.97515
5.97515
5.97514
5.97514
5.97513
5.97513
5.97512
5.97512
5.97512
5.97514
5.97511
5.97487
5.97119
7.30289
7.3029
7.3029
7.30291
7.30291
7.30292
7.30292
7.30293
7.30293
7.30294
7.30294
7.30295
7.30295
7.30296
7.30296
7.30296
7.30297
7.30297
7.30297
7.30297
7.30297
7.30298
7.30298
7.30298
7.30298
7.30298
7.30298
7.30298
7.30298
7.30298
7.30298
7.30298
7.30298
7.30298
7.30298
7.30297
7.30297
7.30297
7.30297
7.30296
7.30296
7.30296
7.30295
7.30295
7.30295
7.30295
7.30298
7.30296
7.30268
7.29973
8.6307
8.63071
8.63072
8.63073
8.63074
8.63075
8.63076
8.63077
8.63078
8.63079
8.6308
8.6308
8.63081
8.63082
8.63082
8.63083
8.63084
8.63084
8.63084
8.63085
8.63085
8.63085
8.63086
8.63086
8.63086
8.63086
8.63086
8.63086
8.63086
8.63085
8.63085
8.63085
8.63084
8.63084
8.63084
8.63083
8.63083
8.63082
8.63081
8.63081
8.6308
8.6308
8.63079
8.63078
8.63078
8.63079
8.63082
8.63082
8.63051
8.62862
9.95852
9.95854
9.95856
9.95858
9.9586
9.95861
9.95863
9.95865
9.95866
9.95868
9.9587
9.95871
9.95872
9.95874
9.95875
9.95876
9.95877
9.95878
9.95879
9.9588
9.95881
9.95881
9.95882
9.95883
9.95883
9.95884
9.95884
9.95884
9.95885
9.95885
9.95885
9.95885
9.95884
9.95884
9.95884
9.95883
9.95883
9.95882
9.95881
9.9588
9.95879
9.95878
9.95876
9.95874
9.95872
9.95871
9.95871
9.95873
9.95869
9.95826
11.2864
11.2864
11.2865
11.2865
11.2865
11.2866
11.2866
11.2866
11.2866
11.2867
11.2867
11.2867
11.2867
11.2867
11.2868
11.2868
11.2868
11.2868
11.2868
11.2868
11.2868
11.2868
11.2869
11.2869
11.2869
11.2869
11.2869
11.2869
11.2869
11.2869
11.2869
11.2869
11.2869
11.2869
11.2868
11.2868
11.2868
11.2868
11.2868
11.2868
11.2868
11.2868
11.2867
11.2867
11.2867
11.2867
11.2867
11.2868
11.2865
11.2851
12.6145
12.6145
12.6146
12.6146
12.6146
12.6147
12.6147
12.6148
12.6148
12.6148
12.6149
12.6149
12.6149
12.6149
12.615
12.615
12.615
12.615
12.6151
12.6151
12.6151
12.6151
12.6151
12.6151
12.6151
12.6152
12.6152
12.6152
12.6152
12.6152
12.6152
12.6152
12.6152
12.6152
12.6152
12.6152
12.6151
12.6151
12.6151
12.6151
12.6151
12.6151
12.6151
12.615
12.615
12.615
12.615
12.6151
12.6148
12.6129
13.9427
13.9428
13.9428
13.9429
13.943
13.943
13.9431
13.9431
13.9432
13.9432
13.9433
13.9433
13.9433
13.9434
13.9434
13.9434
13.9435
13.9435
13.9435
13.9436
13.9436
13.9436
13.9436
13.9436
13.9437
13.9437
13.9437
13.9437
13.9437
13.9437
13.9437
13.9437
13.9437
13.9437
13.9437
13.9437
13.9437
13.9437
13.9437
13.9436
13.9436
13.9436
13.9436
13.9436
13.9435
13.9435
13.9436
13.9436
13.9432
13.9409
15.2713
15.2713
15.2714
15.2715
15.2716
15.2717
15.2717
15.2718
15.2719
15.2719
15.272
15.272
15.2721
15.2721
15.2722
15.2722
15.2723
15.2723
15.2723
15.2724
15.2724
15.2724
15.2725
15.2725
15.2725
15.2725
15.2726
15.2726
15.2726
15.2726
15.2726
15.2726
15.2726
15.2726
15.2726
15.2726
15.2726
15.2726
15.2726
15.2725
15.2725
15.2725
15.2725
15.2724
15.2724
15.2724
15.2724
15.2726
15.2721
15.2693
16.6002
16.6003
16.6004
16.6005
16.6006
16.6007
16.6008
16.6008
16.6009
16.601
16.6011
16.6011
16.6012
16.6013
16.6013
16.6014
16.6014
16.6015
16.6015
16.6016
16.6016
16.6017
16.6017
16.6017
16.6018
16.6018
16.6018
16.6019
16.6019
16.6019
16.6019
16.6019
16.6019
16.6019
16.6019
16.6019
16.6019
16.6019
16.6019
16.6019
16.6019
16.6018
16.6018
16.6018
16.6017
16.6017
16.6018
16.6019
16.6014
16.5981
17.9296
17.9297
17.9298
17.93
17.9301
17.9302
17.9303
17.9304
17.9305
17.9306
17.9307
17.9307
17.9308
17.9309
17.931
17.931
17.9311
17.9312
17.9312
17.9313
17.9314
17.9314
17.9314
17.9315
17.9315
17.9316
17.9316
17.9316
17.9317
17.9317
17.9317
17.9317
17.9317
17.9318
17.9318
17.9318
17.9318
17.9318
17.9318
17.9317
17.9317
17.9317
17.9317
17.9317
17.9316
17.9316
17.9317
17.9319
17.9313
17.9277
19.2596
19.2597
19.2598
19.26
19.2601
19.2602
19.2603
19.2604
19.2606
19.2607
19.2608
19.2609
19.261
19.261
19.2611
19.2612
19.2613
19.2614
19.2614
19.2615
19.2616
19.2616
19.2617
19.2618
19.2618
19.2619
19.2619
19.262
19.262
19.262
19.2621
19.2621
19.2621
19.2621
19.2622
19.2622
19.2622
19.2622
19.2622
19.2622
19.2622
19.2622
19.2622
19.2621
19.2621
19.2621
19.2622
19.2624
19.2618
19.2581
20.5902
20.5903
20.5905
20.5906
20.5907
20.5909
20.591
20.5911
20.5912
20.5913
20.5915
20.5916
20.5917
20.5918
20.5919
20.592
20.5921
20.5921
20.5922
20.5923
20.5924
20.5925
20.5925
20.5926
20.5927
20.5927
20.5928
20.5928
20.5929
20.5929
20.593
20.593
20.5931
20.5931
20.5931
20.5932
20.5932
20.5932
20.5932
20.5932
20.5933
20.5933
20.5933
20.5933
20.5933
20.5933
20.5934
20.5936
20.5931
20.5894
21.9214
21.9215
21.9217
21.9218
21.922
21.9221
21.9222
21.9223
21.9224
21.9226
21.9227
21.9228
21.9229
21.923
21.9231
21.9232
21.9233
21.9234
21.9235
21.9236
21.9237
21.9237
21.9238
21.9239
21.924
21.9241
21.9241
21.9242
21.9243
21.9243
21.9244
21.9245
21.9245
21.9246
21.9247
21.9247
21.9248
21.9249
21.9249
21.925
21.925
21.9251
21.9251
21.9252
21.9252
21.9253
21.9255
21.9257
21.9254
21.9222
23.2532
23.2533
23.2535
23.2536
23.2537
23.2538
23.2539
23.2541
23.2542
23.2543
23.2544
23.2545
23.2546
23.2547
23.2548
23.2549
23.255
23.2551
23.2552
23.2553
23.2554
23.2555
23.2555
23.2556
23.2557
23.2558
23.2559
23.256
23.2561
23.2562
23.2563
23.2564
23.2564
23.2565
23.2566
23.2567
23.2568
23.2569
23.257
23.2571
23.2572
23.2573
23.2574
23.2575
23.2576
23.2578
23.258
23.2583
23.2581
23.2558
24.5853
24.5854
24.5855
24.5856
24.5857
24.5858
24.5859
24.586
24.5861
24.5862
24.5863
24.5864
24.5865
24.5865
24.5866
24.5867
24.5868
24.5869
24.5869
24.587
24.5871
24.5871
24.5872
24.5873
24.5874
24.5874
24.5875
24.5876
24.5876
24.5877
24.5877
24.5878
24.5879
24.5879
24.588
24.588
24.5881
24.5881
24.5882
24.5882
24.5883
24.5883
24.5883
24.5884
24.5884
24.5884
24.5885
24.5886
24.5884
24.587
25.9177
25.9177
25.9178
25.9179
25.918
25.918
25.9181
25.9182
25.9182
25.9183
25.9184
25.9184
25.9185
25.9185
25.9186
25.9186
25.9187
25.9187
25.9188
25.9188
25.9189
25.9189
25.919
25.919
25.9191
25.9191
25.9192
25.9192
25.9192
25.9193
25.9193
25.9193
25.9194
25.9194
25.9194
25.9194
25.9195
25.9195
25.9195
25.9195
25.9195
25.9195
25.9195
25.9194
25.9194
25.9194
25.9194
25.9192
25.9189
25.9185
4.96529e-05
-1.12544e-06
-7.66281e-07
-7.71097e-07
-7.60809e-07
-7.50852e-07
-7.42068e-07
-7.32007e-07
-7.20029e-07
-7.06389e-07
-6.91444e-07
-6.75474e-07
-6.58717e-07
-6.41403e-07
-6.23753e-07
-6.05979e-07
-5.88282e-07
-5.7085e-07
-5.53856e-07
-5.37458e-07
-5.218e-07
-5.07008e-07
-4.93192e-07
-4.80449e-07
-4.68856e-07
-4.58479e-07
-4.49368e-07
-4.41556e-07
-4.35067e-07
-4.29912e-07
-4.26087e-07
-4.23582e-07
-4.22375e-07
-4.22435e-07
-4.23726e-07
-4.26202e-07
-4.29815e-07
-4.34508e-07
-4.40223e-07
-4.46897e-07
-4.54467e-07
-4.62864e-07
-4.7202e-07
-4.81863e-07
-4.92322e-07
-5.03353e-07
-5.14972e-07
-5.27146e-07
-5.39127e-07
-5.48707e-07
0.000166114
-4.00411e-06
-3.56641e-06
-3.5913e-06
-3.59485e-06
-3.59881e-06
-3.60982e-06
-3.62606e-06
-3.64595e-06
-3.66888e-06
-3.6946e-06
-3.72287e-06
-3.75342e-06
-3.786e-06
-3.82038e-06
-3.85636e-06
-3.89374e-06
-3.93234e-06
-3.972e-06
-4.01258e-06
-4.05394e-06
-4.09595e-06
-4.13851e-06
-4.1815e-06
-4.22484e-06
-4.26843e-06
-4.31219e-06
-4.35606e-06
-4.39995e-06
-4.44381e-06
-4.48757e-06
-4.53117e-06
-4.57457e-06
-4.61771e-06
-4.66054e-06
-4.70302e-06
-4.74509e-06
-4.78672e-06
-4.82787e-06
-4.86849e-06
-4.90856e-06
-4.94802e-06
-4.98685e-06
-5.02502e-06
-5.06249e-06
-5.09924e-06
-5.13512e-06
-5.16994e-06
-5.20395e-06
-5.23975e-06
0.000293415
-5.71615e-06
-5.28454e-06
-5.37347e-06
-5.41681e-06
-5.45021e-06
-5.48943e-06
-5.53384e-06
-5.58147e-06
-5.63158e-06
-5.68396e-06
-5.73844e-06
-5.79479e-06
-5.85276e-06
-5.91211e-06
-5.97261e-06
-6.03404e-06
-6.0962e-06
-6.15891e-06
-6.222e-06
-6.28531e-06
-6.34871e-06
-6.41207e-06
-6.47529e-06
-6.53827e-06
-6.60091e-06
-6.66315e-06
-6.72491e-06
-6.78614e-06
-6.84678e-06
-6.90678e-06
-6.9661e-06
-7.02471e-06
-7.08257e-06
-7.13965e-06
-7.19592e-06
-7.25135e-06
-7.30591e-06
-7.35959e-06
-7.41236e-06
-7.4642e-06
-7.51508e-06
-7.56498e-06
-7.61388e-06
-7.66177e-06
-7.70862e-06
-7.75446e-06
-7.79926e-06
-7.84255e-06
-7.88347e-06
0.000512157
-4.32156e-06
-4.66378e-06
-5.27013e-06
-5.62463e-06
-5.90838e-06
-6.19055e-06
-6.46973e-06
-6.73904e-06
-6.9971e-06
-7.24491e-06
-7.48351e-06
-7.71361e-06
-7.93576e-06
-8.15039e-06
-8.3579e-06
-8.55863e-06
-8.75287e-06
-8.94088e-06
-9.12289e-06
-9.29911e-06
-9.46972e-06
-9.63488e-06
-9.79477e-06
-9.94952e-06
-1.00993e-05
-1.02442e-05
-1.03843e-05
-1.05199e-05
-1.0651e-05
-1.07777e-05
-1.09001e-05
-1.10184e-05
-1.11327e-05
-1.12431e-05
-1.13496e-05
-1.14524e-05
-1.15515e-05
-1.16472e-05
-1.17393e-05
-1.18282e-05
-1.19137e-05
-1.19961e-05
-1.20754e-05
-1.21516e-05
-1.22249e-05
-1.22952e-05
-1.23626e-05
-1.2427e-05
-1.24903e-05
0.00200942
-8.2537e-06
-9.25108e-06
-9.85027e-06
-1.01285e-05
-1.03693e-05
-1.06315e-05
-1.08942e-05
-1.1145e-05
-1.1383e-05
-1.16098e-05
-1.18268e-05
-1.20349e-05
-1.22348e-05
-1.24271e-05
-1.26123e-05
-1.2791e-05
-1.29634e-05
-1.31301e-05
-1.32913e-05
-1.34473e-05
-1.35984e-05
-1.37447e-05
-1.38864e-05
-1.40238e-05
-1.41568e-05
-1.42857e-05
-1.44106e-05
-1.45316e-05
-1.46487e-05
-1.47621e-05
-1.48718e-05
-1.49779e-05
-1.50804e-05
-1.51796e-05
-1.52753e-05
-1.53677e-05
-1.54568e-05
-1.55428e-05
-1.56256e-05
-1.57053e-05
-1.5782e-05
-1.58557e-05
-1.59265e-05
-1.59945e-05
-1.60597e-05
-1.61222e-05
-1.61819e-05
-1.62387e-05
-1.62921e-05
0.007087
-1.96344e-05
-2.00395e-05
-2.0014e-05
-1.99207e-05
-1.98733e-05
-1.98692e-05
-1.98782e-05
-1.98906e-05
-1.99059e-05
-1.99247e-05
-1.99471e-05
-1.99728e-05
-2.00015e-05
-2.0033e-05
-2.0067e-05
-2.01035e-05
-2.01422e-05
-2.01831e-05
-2.02258e-05
-2.02703e-05
-2.03165e-05
-2.0364e-05
-2.04128e-05
-2.04627e-05
-2.05135e-05
-2.0565e-05
-2.06171e-05
-2.06696e-05
-2.07223e-05
-2.07751e-05
-2.08278e-05
-2.08803e-05
-2.09324e-05
-2.09841e-05
-2.10351e-05
-2.10854e-05
-2.11349e-05
-2.11835e-05
-2.12311e-05
-2.12776e-05
-2.13229e-05
-2.1367e-05
-2.14098e-05
-2.14513e-05
-2.14914e-05
-2.153e-05
-2.15671e-05
-2.16026e-05
-2.16377e-05
0.0193068
-2.46107e-05
-2.49681e-05
-2.4652e-05
-2.45225e-05
-2.44617e-05
-2.44414e-05
-2.44362e-05
-2.44391e-05
-2.44498e-05
-2.44676e-05
-2.44918e-05
-2.45213e-05
-2.45552e-05
-2.45928e-05
-2.46335e-05
-2.46769e-05
-2.47224e-05
-2.47697e-05
-2.48185e-05
-2.48684e-05
-2.49193e-05
-2.49708e-05
-2.50229e-05
-2.50753e-05
-2.51278e-05
-2.51803e-05
-2.52326e-05
-2.52847e-05
-2.53363e-05
-2.53873e-05
-2.54377e-05
-2.54874e-05
-2.55361e-05
-2.55839e-05
-2.56306e-05
-2.56761e-05
-2.57205e-05
-2.57635e-05
-2.58051e-05
-2.58453e-05
-2.5884e-05
-2.59212e-05
-2.59568e-05
-2.59907e-05
-2.6023e-05
-2.60537e-05
-2.60826e-05
-2.61097e-05
-2.61344e-05
0.0435641
-2.39207e-05
-2.68539e-05
-2.66519e-05
-2.68749e-05
-2.71583e-05
-2.74438e-05
-2.77098e-05
-2.79545e-05
-2.8181e-05
-2.83917e-05
-2.85881e-05
-2.87713e-05
-2.89424e-05
-2.91025e-05
-2.92524e-05
-2.9393e-05
-2.95251e-05
-2.96493e-05
-2.97664e-05
-2.98768e-05
-2.99811e-05
-3.00798e-05
-3.01733e-05
-3.02619e-05
-3.03462e-05
-3.04263e-05
-3.05025e-05
-3.05751e-05
-3.06442e-05
-3.07102e-05
-3.07731e-05
-3.0833e-05
-3.08902e-05
-3.09446e-05
-3.09965e-05
-3.10458e-05
-3.10927e-05
-3.11371e-05
-3.11792e-05
-3.1219e-05
-3.12565e-05
-3.12917e-05
-3.13247e-05
-3.13555e-05
-3.1384e-05
-3.14104e-05
-3.14346e-05
-3.14566e-05
-3.1477e-05
0.0868176
-2.69014e-05
-3.51019e-05
-3.42858e-05
-3.41766e-05
-3.41897e-05
-3.42407e-05
-3.42979e-05
-3.43568e-05
-3.44186e-05
-3.44838e-05
-3.45519e-05
-3.46221e-05
-3.46938e-05
-3.47666e-05
-3.48401e-05
-3.49138e-05
-3.49874e-05
-3.50606e-05
-3.51332e-05
-3.5205e-05
-3.52757e-05
-3.53452e-05
-3.54134e-05
-3.54801e-05
-3.55453e-05
-3.56088e-05
-3.56706e-05
-3.57305e-05
-3.57886e-05
-3.58448e-05
-3.58991e-05
-3.59513e-05
-3.60015e-05
-3.60496e-05
-3.60956e-05
-3.61394e-05
-3.6181e-05
-3.62204e-05
-3.62576e-05
-3.62925e-05
-3.63251e-05
-3.63554e-05
-3.63833e-05
-3.64089e-05
-3.64321e-05
-3.64529e-05
-3.64714e-05
-3.64874e-05
-3.65007e-05
0.155482
-1.59195e-05
-4.08363e-05
-3.99817e-05
-3.98084e-05
-3.98249e-05
-3.9882e-05
-3.99425e-05
-4.00022e-05
-4.00634e-05
-4.01271e-05
-4.0193e-05
-4.02607e-05
-4.03298e-05
-4.03999e-05
-4.04709e-05
-4.05423e-05
-4.06139e-05
-4.06854e-05
-4.07567e-05
-4.08275e-05
-4.08976e-05
-4.09668e-05
-4.1035e-05
-4.1102e-05
-4.11677e-05
-4.12319e-05
-4.12945e-05
-4.13554e-05
-4.14146e-05
-4.14718e-05
-4.15271e-05
-4.15803e-05
-4.16314e-05
-4.16803e-05
-4.1727e-05
-4.17713e-05
-4.18132e-05
-4.18528e-05
-4.18898e-05
-4.19243e-05
-4.19563e-05
-4.19856e-05
-4.20124e-05
-4.20364e-05
-4.20578e-05
-4.20765e-05
-4.20924e-05
-4.21055e-05
-4.21162e-05
0.258073
1.98686e-05
-4.54711e-05
-4.50798e-05
-4.48265e-05
-4.48862e-05
-4.49896e-05
-4.50924e-05
-4.51906e-05
-4.52873e-05
-4.53841e-05
-4.54809e-05
-4.55775e-05
-4.56738e-05
-4.57696e-05
-4.58647e-05
-4.5959e-05
-4.60524e-05
-4.61446e-05
-4.62355e-05
-4.63249e-05
-4.64128e-05
-4.64989e-05
-4.65831e-05
-4.66652e-05
-4.67453e-05
-4.6823e-05
-4.68984e-05
-4.69713e-05
-4.70416e-05
-4.71092e-05
-4.71741e-05
-4.72361e-05
-4.72952e-05
-4.73513e-05
-4.74044e-05
-4.74544e-05
-4.75012e-05
-4.75447e-05
-4.75851e-05
-4.76221e-05
-4.76558e-05
-4.76861e-05
-4.7713e-05
-4.77365e-05
-4.77566e-05
-4.77732e-05
-4.77864e-05
-4.77961e-05
-4.78021e-05
0.403929
9.67084e-05
-5.03015e-05
-5.10267e-05
-5.06046e-05
-5.06771e-05
-5.08057e-05
-5.09335e-05
-5.10559e-05
-5.11763e-05
-5.12964e-05
-5.14163e-05
-5.15355e-05
-5.1654e-05
-5.17714e-05
-5.18877e-05
-5.20027e-05
-5.21162e-05
-5.22279e-05
-5.23378e-05
-5.24455e-05
-5.25511e-05
-5.26542e-05
-5.27547e-05
-5.28524e-05
-5.29473e-05
-5.30391e-05
-5.31278e-05
-5.32131e-05
-5.32951e-05
-5.33735e-05
-5.34484e-05
-5.35195e-05
-5.35868e-05
-5.36503e-05
-5.37099e-05
-5.37654e-05
-5.3817e-05
-5.38644e-05
-5.39077e-05
-5.39468e-05
-5.39817e-05
-5.40124e-05
-5.40388e-05
-5.4061e-05
-5.40789e-05
-5.40926e-05
-5.41019e-05
-5.4107e-05
-5.4108e-05
0.601756
0.000217704
-5.42786e-05
-5.67461e-05
-5.62738e-05
-5.64222e-05
-5.66268e-05
-5.68262e-05
-5.70172e-05
-5.72028e-05
-5.73847e-05
-5.75629e-05
-5.77374e-05
-5.79081e-05
-5.80749e-05
-5.82378e-05
-5.83968e-05
-5.85516e-05
-5.87022e-05
-5.88486e-05
-5.89905e-05
-5.91279e-05
-5.92607e-05
-5.93887e-05
-5.9512e-05
-5.96303e-05
-5.97436e-05
-5.98518e-05
-5.99548e-05
-6.00526e-05
-6.01451e-05
-6.02322e-05
-6.0314e-05
-6.03903e-05
-6.04611e-05
-6.05265e-05
-6.05863e-05
-6.06406e-05
-6.06894e-05
-6.07326e-05
-6.07704e-05
-6.08025e-05
-6.08292e-05
-6.08504e-05
-6.08661e-05
-6.08764e-05
-6.08812e-05
-6.08808e-05
-6.08751e-05
-6.08638e-05
0.857672
0.000584672
-6.02144e-05
-6.33753e-05
-6.30094e-05
-6.32516e-05
-6.35472e-05
-6.38316e-05
-6.41035e-05
-6.43645e-05
-6.46158e-05
-6.48579e-05
-6.50909e-05
-6.53153e-05
-6.55313e-05
-6.57391e-05
-6.59389e-05
-6.61309e-05
-6.63151e-05
-6.64916e-05
-6.66606e-05
-6.6822e-05
-6.6976e-05
-6.71225e-05
-6.72617e-05
-6.73934e-05
-6.75178e-05
-6.76349e-05
-6.77446e-05
-6.78471e-05
-6.79423e-05
-6.80302e-05
-6.8111e-05
-6.81846e-05
-6.82511e-05
-6.83105e-05
-6.83628e-05
-6.84081e-05
-6.84465e-05
-6.8478e-05
-6.85027e-05
-6.85206e-05
-6.85319e-05
-6.85364e-05
-6.85344e-05
-6.8526e-05
-6.85111e-05
-6.84899e-05
-6.84628e-05
-6.84291e-05
1.17273
0.00138185
-6.9631e-05
-7.33921e-05
-7.30359e-05
-7.32041e-05
-7.34699e-05
-7.37341e-05
-7.39867e-05
-7.42269e-05
-7.44556e-05
-7.46736e-05
-7.48813e-05
-7.50792e-05
-7.52674e-05
-7.54463e-05
-7.56161e-05
-7.57771e-05
-7.59295e-05
-7.60734e-05
-7.62089e-05
-7.63362e-05
-7.64553e-05
-7.65664e-05
-7.66695e-05
-7.67647e-05
-7.6852e-05
-7.69315e-05
-7.70032e-05
-7.70672e-05
-7.71235e-05
-7.71722e-05
-7.72133e-05
-7.72469e-05
-7.7273e-05
-7.72916e-05
-7.73029e-05
-7.73069e-05
-7.73037e-05
-7.72932e-05
-7.72757e-05
-7.72511e-05
-7.72196e-05
-7.71812e-05
-7.7136e-05
-7.70841e-05
-7.70256e-05
-7.69609e-05
-7.68901e-05
-7.68121e-05
1.53988
0.00283885
-8.15283e-05
-8.60805e-05
-8.56323e-05
-8.56059e-05
-8.57629e-05
-8.59399e-05
-8.61086e-05
-8.62654e-05
-8.64118e-05
-8.65488e-05
-8.66769e-05
-8.67961e-05
-8.69066e-05
-8.70085e-05
-8.71022e-05
-8.71876e-05
-8.7265e-05
-8.73345e-05
-8.73962e-05
-8.74502e-05
-8.74966e-05
-8.75354e-05
-8.75668e-05
-8.75907e-05
-8.76072e-05
-8.76164e-05
-8.76182e-05
-8.76129e-05
-8.76002e-05
-8.75804e-05
-8.75535e-05
-8.75194e-05
-8.74783e-05
-8.74301e-05
-8.73749e-05
-8.73129e-05
-8.72439e-05
-8.71682e-05
-8.70857e-05
-8.69966e-05
-8.69009e-05
-8.67986e-05
-8.66899e-05
-8.65748e-05
-8.64535e-05
-8.63265e-05
-8.61942e-05
-8.60544e-05
1.94072
0.00514552
-9.44972e-05
-0.000100123
-9.95709e-05
-9.93342e-05
-9.93624e-05
-9.943e-05
-9.94926e-05
-9.95446e-05
-9.95882e-05
-9.96245e-05
-9.96536e-05
-9.96754e-05
-9.969e-05
-9.96971e-05
-9.9697e-05
-9.96896e-05
-9.9675e-05
-9.96532e-05
-9.96243e-05
-9.95883e-05
-9.95453e-05
-9.94953e-05
-9.94384e-05
-9.93746e-05
-9.9304e-05
-9.92266e-05
-9.91423e-05
-9.90514e-05
-9.89537e-05
-9.88494e-05
-9.87384e-05
-9.86209e-05
-9.84968e-05
-9.83662e-05
-9.82292e-05
-9.80857e-05
-9.7936e-05
-9.77799e-05
-9.76177e-05
-9.74493e-05
-9.72749e-05
-9.70944e-05
-9.69081e-05
-9.67159e-05
-9.65181e-05
-9.63152e-05
-9.61081e-05
-9.58932e-05
2.33987
0.00811421
-0.000106962
-0.000114375
-0.000113795
-0.000113426
-0.000113358
-0.000113333
-0.000113305
-0.000113267
-0.000113221
-0.00011317
-0.000113112
-0.000113047
-0.000112976
-0.000112897
-0.000112812
-0.000112719
-0.000112619
-0.000112511
-0.000112397
-0.000112275
-0.000112146
-0.00011201
-0.000111867
-0.000111717
-0.00011156
-0.000111396
-0.000111225
-0.000111047
-0.000110863
-0.000110672
-0.000110474
-0.00011027
-0.00011006
-0.000109843
-0.000109619
-0.00010939
-0.000109155
-0.000108913
-0.000108666
-0.000108412
-0.000108153
-0.000107889
-0.000107619
-0.000107343
-0.000107062
-0.000106777
-0.000106488
-0.000106192
2.66772
0.0106837
-0.000116457
-0.000127797
-0.000127322
-0.000126955
-0.000126864
-0.000126799
-0.000126727
-0.000126645
-0.000126553
-0.000126454
-0.000126345
-0.000126228
-0.000126102
-0.000125967
-0.000125823
-0.00012567
-0.000125508
-0.000125337
-0.000125157
-0.000124968
-0.00012477
-0.000124564
-0.000124349
-0.000124126
-0.000123895
-0.000123655
-0.000123408
-0.000123153
-0.00012289
-0.000122619
-0.000122341
-0.000122057
-0.000121764
-0.000121465
-0.00012116
-0.000120847
-0.000120529
-0.000120204
-0.000119872
-0.000119535
-0.000119192
-0.000118843
-0.000118489
-0.000118129
-0.000117765
-0.000117396
-0.000117025
-0.000116644
2.86431
0.0118006
-0.000123346
-0.000141613
-0.000141287
-0.000140971
-0.000140843
-0.000140708
-0.000140566
-0.000140416
-0.000140256
-0.000140087
-0.000139908
-0.000139719
-0.000139521
-0.000139312
-0.000139093
-0.000138865
-0.000138626
-0.000138377
-0.000138119
-0.000137851
-0.000137574
-0.000137287
-0.00013699
-0.000136685
-0.000136371
-0.000136048
-0.000135717
-0.000135377
-0.000135029
-0.000134673
-0.00013431
-0.000133938
-0.00013356
-0.000133174
-0.000132781
-0.000132382
-0.000131976
-0.000131564
-0.000131145
-0.000130721
-0.000130291
-0.000129855
-0.000129414
-0.000128967
-0.000128516
-0.000128061
-0.000127605
-0.000127139
-5.5293e-07
-5.5987e-07
-5.69818e-07
-5.80223e-07
-5.90492e-07
-6.00708e-07
-6.10964e-07
-6.21274e-07
-6.31625e-07
-6.42004e-07
-6.52401e-07
-6.62808e-07
-6.73217e-07
-6.8362e-07
-6.94008e-07
-7.04375e-07
-7.14713e-07
-7.25015e-07
-7.35275e-07
-7.45485e-07
-7.55639e-07
-7.65732e-07
-7.75758e-07
-7.8571e-07
-7.95585e-07
-8.05376e-07
-8.15079e-07
-8.24689e-07
-8.34202e-07
-8.43613e-07
-8.52919e-07
-8.62117e-07
-8.71201e-07
-8.8017e-07
-8.8902e-07
-8.97748e-07
-9.06351e-07
-9.14827e-07
-9.23174e-07
-9.31388e-07
-9.39469e-07
-9.47415e-07
-9.55223e-07
-9.62891e-07
-9.7042e-07
-9.77807e-07
-9.85051e-07
-9.92152e-07
-9.99108e-07
-1.00592e-06
-1.01258e-06
-1.0191e-06
-1.02547e-06
-1.03169e-06
-1.03777e-06
-1.0437e-06
-1.04948e-06
-1.05511e-06
-1.0606e-06
-1.06593e-06
-1.07112e-06
-1.07617e-06
-1.08106e-06
-1.08581e-06
-1.09042e-06
-1.09488e-06
-1.09919e-06
-1.10336e-06
-1.10739e-06
-1.11128e-06
-1.11502e-06
-1.11862e-06
-1.12208e-06
-1.12541e-06
-1.12859e-06
-1.13164e-06
-1.13455e-06
-1.13732e-06
-1.13996e-06
-1.14246e-06
-1.14483e-06
-1.14707e-06
-1.14918e-06
-1.15116e-06
-1.15301e-06
-1.15473e-06
-1.15633e-06
-1.1578e-06
-1.15914e-06
-1.16037e-06
-1.16146e-06
-1.16244e-06
-1.1633e-06
-1.16403e-06
-1.16465e-06
-1.16515e-06
-1.16554e-06
-1.16581e-06
-1.16597e-06
-1.16601e-06
-1.16594e-06
-1.16576e-06
-1.16547e-06
-1.16507e-06
-1.16456e-06
-1.16395e-06
-1.16323e-06
-1.1624e-06
-1.16147e-06
-1.16044e-06
-1.15931e-06
-1.15807e-06
-1.15674e-06
-1.1553e-06
-1.15377e-06
-1.15214e-06
-1.15042e-06
-1.1486e-06
-1.14668e-06
-1.14467e-06
-1.14257e-06
-1.14038e-06
-1.13809e-06
-1.13572e-06
-1.13325e-06
-1.1307e-06
-1.12806e-06
-1.12533e-06
-1.12252e-06
-1.11962e-06
-1.11664e-06
-1.11357e-06
-1.11042e-06
-1.10718e-06
-1.10387e-06
-1.10047e-06
-1.097e-06
-1.09344e-06
-1.0898e-06
-1.08609e-06
-1.08229e-06
-1.07842e-06
-1.07447e-06
-1.07045e-06
-1.06635e-06
-1.06218e-06
-1.05793e-06
-1.0536e-06
-1.0492e-06
-1.04473e-06
-1.04019e-06
-1.03557e-06
-1.03088e-06
-1.02612e-06
-1.02129e-06
-1.01638e-06
-1.01141e-06
-1.00637e-06
-1.00125e-06
-9.9607e-07
-9.90817e-07
-9.85495e-07
-9.80105e-07
-9.74646e-07
-9.69119e-07
-9.63524e-07
-9.57861e-07
-9.52131e-07
-9.46333e-07
-9.40468e-07
-9.34536e-07
-9.28538e-07
-9.22472e-07
-9.1634e-07
-9.10142e-07
-9.03877e-07
-8.97546e-07
-8.91149e-07
-8.84686e-07
-8.78157e-07
-8.71562e-07
-8.64901e-07
-8.58175e-07
-8.51383e-07
-8.44525e-07
-8.37601e-07
-8.30612e-07
-8.23558e-07
-8.16438e-07
-8.09252e-07
-8.02001e-07
-7.94685e-07
-7.87302e-07
-7.79855e-07
-7.72342e-07
-7.64763e-07
-7.57119e-07
-7.49409e-07
-7.41633e-07
-7.33792e-07
-7.25886e-07
-7.17913e-07
-7.09875e-07
-7.01772e-07
-6.93602e-07
-6.85367e-07
-6.77066e-07
-6.687e-07
-6.60267e-07
-6.51769e-07
-6.43205e-07
-6.34575e-07
-6.25879e-07
-6.17117e-07
-6.08289e-07
-5.99395e-07
-5.90435e-07
-5.81409e-07
-5.72318e-07
-5.6316e-07
-5.53936e-07
-5.44646e-07
-5.3529e-07
-5.25868e-07
-5.1638e-07
-5.06825e-07
-4.97205e-07
-4.87518e-07
-4.77765e-07
-4.67946e-07
-4.58061e-07
-4.4811e-07
-4.38092e-07
-4.28009e-07
-4.17859e-07
-4.07642e-07
-3.97359e-07
-3.8701e-07
-3.76595e-07
-3.66113e-07
-3.55564e-07
-3.44949e-07
-3.34268e-07
-3.23519e-07
-3.12704e-07
-3.01821e-07
-2.90872e-07
-2.79855e-07
-2.68771e-07
-2.57619e-07
-2.464e-07
-2.35112e-07
-2.23756e-07
-2.12332e-07
-2.00838e-07
-1.89276e-07
-1.77643e-07
-1.65941e-07
-1.54168e-07
-1.42325e-07
-1.30409e-07
-1.18422e-07
-1.06361e-07
-9.42271e-08
-8.20186e-08
-6.97348e-08
-5.73749e-08
-4.49377e-08
-3.24221e-08
-1.9827e-08
-7.15117e-09
5.60687e-09
1.84485e-08
3.13754e-08
4.43891e-08
5.74915e-08
7.06843e-08
8.39695e-08
9.73493e-08
1.10826e-07
1.24401e-07
1.38077e-07
1.51857e-07
1.65743e-07
1.79738e-07
1.93843e-07
2.08061e-07
2.22395e-07
2.36847e-07
2.51418e-07
2.66112e-07
2.80928e-07
2.95868e-07
3.10933e-07
3.2612e-07
3.41431e-07
3.56876e-07
3.72463e-07
3.88102e-07
4.03463e-07
-5.27203e-06
-5.29402e-06
-5.31494e-06
-5.33521e-06
-5.35517e-06
-5.37489e-06
-5.39436e-06
-5.41354e-06
-5.43245e-06
-5.45106e-06
-5.46939e-06
-5.48742e-06
-5.50514e-06
-5.52257e-06
-5.53969e-06
-5.55649e-06
-5.57298e-06
-5.58914e-06
-5.60499e-06
-5.6205e-06
-5.63569e-06
-5.65053e-06
-5.66505e-06
-5.67922e-06
-5.69304e-06
-5.70652e-06
-5.71965e-06
-5.73242e-06
-5.74484e-06
-5.75691e-06
-5.76861e-06
-5.77996e-06
-5.79093e-06
-5.80155e-06
-5.8118e-06
-5.82168e-06
-5.83119e-06
-5.84033e-06
-5.8491e-06
-5.85749e-06
-5.86552e-06
-5.87317e-06
-5.88045e-06
-5.88735e-06
-5.89388e-06
-5.90003e-06
-5.90582e-06
-5.91123e-06
-5.91626e-06
-5.92093e-06
-5.92522e-06
-5.92914e-06
-5.93269e-06
-5.93587e-06
-5.93869e-06
-5.94114e-06
-5.94322e-06
-5.94494e-06
-5.94629e-06
-5.94729e-06
-5.94792e-06
-5.9482e-06
-5.94812e-06
-5.94769e-06
-5.9469e-06
-5.94577e-06
-5.94428e-06
-5.94245e-06
-5.94028e-06
-5.93776e-06
-5.9349e-06
-5.9317e-06
-5.92816e-06
-5.92429e-06
-5.92009e-06
-5.91556e-06
-5.9107e-06
-5.90551e-06
-5.9e-06
-5.89416e-06
-5.88801e-06
-5.88153e-06
-5.87474e-06
-5.86764e-06
-5.86022e-06
-5.85249e-06
-5.84446e-06
-5.83611e-06
-5.82746e-06
-5.81851e-06
-5.80926e-06
-5.79971e-06
-5.78985e-06
-5.77971e-06
-5.76926e-06
-5.75852e-06
-5.7475e-06
-5.73618e-06
-5.72457e-06
-5.71267e-06
-5.70049e-06
-5.68802e-06
-5.67526e-06
-5.66223e-06
-5.64891e-06
-5.63531e-06
-5.62143e-06
-5.60727e-06
-5.59284e-06
-5.57813e-06
-5.56314e-06
-5.54788e-06
-5.53234e-06
-5.51653e-06
-5.50045e-06
-5.4841e-06
-5.46748e-06
-5.45058e-06
-5.43342e-06
-5.41598e-06
-5.39828e-06
-5.38032e-06
-5.36208e-06
-5.34358e-06
-5.32481e-06
-5.30578e-06
-5.28648e-06
-5.26692e-06
-5.24709e-06
-5.227e-06
-5.20665e-06
-5.18604e-06
-5.16516e-06
-5.14402e-06
-5.12263e-06
-5.10097e-06
-5.07905e-06
-5.05688e-06
-5.03444e-06
-5.01175e-06
-4.9888e-06
-4.96559e-06
-4.94213e-06
-4.91841e-06
-4.89443e-06
-4.8702e-06
-4.84572e-06
-4.82098e-06
-4.79599e-06
-4.77074e-06
-4.74525e-06
-4.7195e-06
-4.69351e-06
-4.66726e-06
-4.64077e-06
-4.61403e-06
-4.58704e-06
-4.5598e-06
-4.53232e-06
-4.50459e-06
-4.47662e-06
-4.44841e-06
-4.41995e-06
-4.39126e-06
-4.36232e-06
-4.33314e-06
-4.30373e-06
-4.27408e-06
-4.24419e-06
-4.21407e-06
-4.18371e-06
-4.15312e-06
-4.1223e-06
-4.09125e-06
-4.05997e-06
-4.02846e-06
-3.99673e-06
-3.96477e-06
-3.93258e-06
-3.90017e-06
-3.86755e-06
-3.8347e-06
-3.80163e-06
-3.76834e-06
-3.73484e-06
-3.70112e-06
-3.66719e-06
-3.63305e-06
-3.5987e-06
-3.56414e-06
-3.52937e-06
-3.4944e-06
-3.45922e-06
-3.42384e-06
-3.38826e-06
-3.35248e-06
-3.3165e-06
-3.28033e-06
-3.24396e-06
-3.20739e-06
-3.17064e-06
-3.1337e-06
-3.09656e-06
-3.05924e-06
-3.02174e-06
-2.98405e-06
-2.94618e-06
-2.90813e-06
-2.86991e-06
-2.8315e-06
-2.79292e-06
-2.75417e-06
-2.71524e-06
-2.67615e-06
-2.63688e-06
-2.59745e-06
-2.55785e-06
-2.51809e-06
-2.47817e-06
-2.43808e-06
-2.39784e-06
-2.35743e-06
-2.31687e-06
-2.27616e-06
-2.23529e-06
-2.19427e-06
-2.1531e-06
-2.11178e-06
-2.07031e-06
-2.02869e-06
-1.98693e-06
-1.94503e-06
-1.90298e-06
-1.86079e-06
-1.81846e-06
-1.77599e-06
-1.73338e-06
-1.69063e-06
-1.64775e-06
-1.60473e-06
-1.56158e-06
-1.5183e-06
-1.47488e-06
-1.43134e-06
-1.38766e-06
-1.34385e-06
-1.29991e-06
-1.25585e-06
-1.21166e-06
-1.16734e-06
-1.12289e-06
-1.07832e-06
-1.03362e-06
-9.888e-07
-9.43853e-07
-8.98783e-07
-8.53588e-07
-8.0827e-07
-7.62829e-07
-7.17265e-07
-6.71578e-07
-6.25768e-07
-5.79834e-07
-5.33779e-07
-4.876e-07
-4.41298e-07
-3.94872e-07
-3.48324e-07
-3.01651e-07
-2.54855e-07
-2.07934e-07
-1.60888e-07
-1.13717e-07
-6.642e-08
-1.89961e-08
2.85552e-08
7.62347e-08
1.24043e-07
1.71982e-07
2.20052e-07
2.68254e-07
3.16591e-07
3.65062e-07
4.13671e-07
4.62418e-07
5.11306e-07
5.60337e-07
6.09514e-07
6.58839e-07
7.08314e-07
7.57945e-07
8.07733e-07
8.57684e-07
9.078e-07
9.58084e-07
1.00855e-06
1.05925e-06
1.11022e-06
1.16122e-06
1.21124e-06
-7.91293e-06
-7.93595e-06
-7.96066e-06
-7.98531e-06
-8.00958e-06
-8.03353e-06
-8.05724e-06
-8.08071e-06
-8.10393e-06
-8.1269e-06
-8.14961e-06
-8.17206e-06
-8.19423e-06
-8.21612e-06
-8.23773e-06
-8.25905e-06
-8.28007e-06
-8.30079e-06
-8.32121e-06
-8.34131e-06
-8.36109e-06
-8.38055e-06
-8.39967e-06
-8.41846e-06
-8.43691e-06
-8.45501e-06
-8.47276e-06
-8.49015e-06
-8.50718e-06
-8.52384e-06
-8.54013e-06
-8.55604e-06
-8.57157e-06
-8.58671e-06
-8.60147e-06
-8.61583e-06
-8.62978e-06
-8.64334e-06
-8.65649e-06
-8.66923e-06
-8.68156e-06
-8.69347e-06
-8.70496e-06
-8.71603e-06
-8.72668e-06
-8.73689e-06
-8.74668e-06
-8.75603e-06
-8.76494e-06
-8.77342e-06
-8.78146e-06
-8.78905e-06