/*--------------------------------*- C++ -*----------------------------------*\
| =========                 |                                                 |
| \\      /  F ield         | OpenFOAM: The Open Source CFD Toolbox           |
|  \\    /   O peration     | Version:  2.4.0                                 |
|   \\  /    A nd           | Web:      www.OpenFOAM.org                      |
|    \\/     M anipulation  |                                                 |
\*---------------------------------------------------------------------------*/
FoamFile
{
    version     2.0;
    format      ascii;
    class       volVectorField;
    location    "0.4";
    object      U;
}
// * * * * * * * * * * * * * * * * * * * * * * * * * * * * * * * * * * * * * //

dimensions      [0 1 -1 0 0 0 0];

internalField   nonuniform List<vector> 
8000
(
(-1.66607e-10 -0.000351767 0)
(-9.77484e-10 -0.00104122 0)
(-2.31661e-09 -0.00171658 0)
(-4.0247e-09 -0.00237787 0)
(-6.07273e-09 -0.00302507 0)
(-8.43394e-09 -0.00365819 0)
(-1.10692e-08 -0.00427724 0)
(-1.39458e-08 -0.0048822 0)
(-1.70364e-08 -0.00547308 0)
(-2.03174e-08 -0.00604989 0)
(-2.3768e-08 -0.00661262 0)
(-2.73692e-08 -0.00716127 0)
(-3.11048e-08 -0.00769585 0)
(-3.49595e-08 -0.00821635 0)
(-3.89203e-08 -0.00872277 0)
(-4.2975e-08 -0.00921512 0)
(-4.71134e-08 -0.0096934 0)
(-5.13251e-08 -0.0101576 0)
(-5.56022e-08 -0.0106077 0)
(-5.99357e-08 -0.0110438 0)
(-6.4319e-08 -0.0114658 0)
(-6.8744e-08 -0.0118737 0)
(-7.32052e-08 -0.0122675 0)
(-7.7695e-08 -0.0126473 0)
(-8.22086e-08 -0.013013 0)
(-8.67385e-08 -0.0133646 0)
(-9.128e-08 -0.0137022 0)
(-9.58257e-08 -0.0140257 0)
(-1.00371e-07 -0.0143351 0)
(-1.04907e-07 -0.0146304 0)
(-1.09429e-07 -0.0149117 0)
(-1.13928e-07 -0.0151789 0)
(-1.18399e-07 -0.0154321 0)
(-1.2283e-07 -0.0156712 0)
(-1.27214e-07 -0.0158962 0)
(-1.3154e-07 -0.0161071 0)
(-1.35798e-07 -0.016304 0)
(-1.39974e-07 -0.0164868 0)
(-1.44055e-07 -0.0166556 0)
(-1.48026e-07 -0.0168103 0)
(-1.51866e-07 -0.0169509 0)
(-1.55561e-07 -0.0170774 0)
(-1.59095e-07 -0.0171899 0)
(-1.62477e-07 -0.0172883 0)
(-1.6563e-07 -0.0173727 0)
(-1.68221e-07 -0.017443 0)
(-1.69591e-07 -0.0174992 0)
(-1.70638e-07 -0.0175414 0)
(-1.79715e-07 -0.0175695 0)
(-2.09601e-07 -0.0175835 0)
(-1.46126e-11 -0.000351759 0)
(-4.99751e-10 -0.0010412 0)
(-1.49754e-09 -0.00171655 0)
(-2.92955e-09 -0.00237783 0)
(-4.74836e-09 -0.00302502 0)
(-6.91407e-09 -0.00365814 0)
(-9.40053e-09 -0.00427717 0)
(-1.21815e-08 -0.00488213 0)
(-1.52317e-08 -0.00547301 0)
(-1.85273e-08 -0.00604981 0)
(-2.20466e-08 -0.00661254 0)
(-2.57691e-08 -0.00716119 0)
(-2.96761e-08 -0.00769576 0)
(-3.37499e-08 -0.00821626 0)
(-3.79745e-08 -0.00872268 0)
(-4.23343e-08 -0.00921503 0)
(-4.68153e-08 -0.0096933 0)
(-5.14034e-08 -0.0101575 0)
(-5.60863e-08 -0.0106076 0)
(-6.08511e-08 -0.0110437 0)
(-6.56866e-08 -0.0114657 0)
(-7.05806e-08 -0.0118736 0)
(-7.55224e-08 -0.0122674 0)
(-8.05002e-08 -0.0126472 0)
(-8.55035e-08 -0.0130129 0)
(-9.05203e-08 -0.0133645 0)
(-9.55401e-08 -0.0137021 0)
(-1.0055e-07 -0.0140256 0)
(-1.05539e-07 -0.014335 0)
(-1.10493e-07 -0.0146303 0)
(-1.15401e-07 -0.0149116 0)
(-1.20245e-07 -0.0151788 0)
(-1.25014e-07 -0.015432 0)
(-1.29688e-07 -0.0156711 0)
(-1.34252e-07 -0.0158961 0)
(-1.38685e-07 -0.016107 0)
(-1.42967e-07 -0.0163039 0)
(-1.47075e-07 -0.0164867 0)
(-1.50983e-07 -0.0166555 0)
(-1.54665e-07 -0.0168102 0)
(-1.58087e-07 -0.0169508 0)
(-1.6122e-07 -0.0170773 0)
(-1.64034e-07 -0.0171898 0)
(-1.66521e-07 -0.0172883 0)
(-1.6859e-07 -0.0173726 0)
(-1.69878e-07 -0.0174429 0)
(-1.69674e-07 -0.0174992 0)
(-1.68818e-07 -0.0175413 0)
(-1.75768e-07 -0.0175694 0)
(-2.04198e-07 -0.0175835 0)
(-5.7485e-11 -0.000351759 0)
(-3.68433e-10 -0.0010412 0)
(-9.31947e-10 -0.00171655 0)
(-1.7163e-09 -0.00237782 0)
(-2.69374e-09 -0.00302502 0)
(-3.84623e-09 -0.00365813 0)
(-5.16311e-09 -0.00427717 0)
(-6.63323e-09 -0.00488212 0)
(-8.24441e-09 -0.005473 0)
(-9.98422e-09 -0.0060498 0)
(-1.18398e-08 -0.00661253 0)
(-1.37981e-08 -0.00716117 0)
(-1.5846e-08 -0.00769574 0)
(-1.79704e-08 -0.00821624 0)
(-2.01578e-08 -0.00872266 0)
(-2.23949e-08 -0.00921501 0)
(-2.46684e-08 -0.00969328 0)
(-2.69646e-08 -0.0101575 0)
(-2.927e-08 -0.0106076 0)
(-3.1571e-08 -0.0110437 0)
(-3.38535e-08 -0.0114656 0)
(-3.61037e-08 -0.0118736 0)
(-3.83071e-08 -0.0122674 0)
(-4.04494e-08 -0.0126472 0)
(-4.25152e-08 -0.0130129 0)
(-4.44898e-08 -0.0133645 0)
(-4.63569e-08 -0.013702 0)
(-4.81008e-08 -0.0140255 0)
(-4.97038e-08 -0.014335 0)
(-5.11493e-08 -0.0146303 0)
(-5.2418e-08 -0.0149116 0)
(-5.34923e-08 -0.0151788 0)
(-5.43502e-08 -0.015432 0)
(-5.49733e-08 -0.0156711 0)
(-5.53367e-08 -0.0158961 0)
(-5.54209e-08 -0.016107 0)
(-5.51971e-08 -0.0163039 0)
(-5.46455e-08 -0.0164867 0)
(-5.3732e-08 -0.0166555 0)
(-5.24367e-08 -0.0168102 0)
(-5.07174e-08 -0.0169508 0)
(-4.85575e-08 -0.0170774 0)
(-4.59202e-08 -0.0171899 0)
(-4.28194e-08 -0.0172883 0)
(-3.91638e-08 -0.0173727 0)
(-3.46121e-08 -0.017443 0)
(-2.83821e-08 -0.0174992 0)
(-2.12323e-08 -0.0175414 0)
(-2.17872e-08 -0.0175695 0)
(-4.61315e-08 -0.0175835 0)
(9.69744e-12 -0.000351756 0)
(-3.81081e-11 -0.00104119 0)
(-1.61951e-10 -0.00171654 0)
(-3.61182e-10 -0.00237781 0)
(-6.1971e-10 -0.003025 0)
(-9.1937e-10 -0.00365811 0)
(-1.24638e-09 -0.00427714 0)
(-1.58821e-09 -0.0048821 0)
(-1.93168e-09 -0.00547297 0)
(-2.26348e-09 -0.00604977 0)
(-2.5698e-09 -0.00661249 0)
(-2.83697e-09 -0.00716114 0)
(-3.05078e-09 -0.00769571 0)
(-3.19721e-09 -0.00821621 0)
(-3.26144e-09 -0.00872263 0)
(-3.22899e-09 -0.00921497 0)
(-3.08426e-09 -0.00969324 0)
(-2.81221e-09 -0.0101574 0)
(-2.39619e-09 -0.0106076 0)
(-1.82053e-09 -0.0110436 0)
(-1.06723e-09 -0.0114656 0)
(-1.19949e-10 -0.0118735 0)
(1.04103e-09 -0.0122674 0)
(2.43276e-09 -0.0126471 0)
(4.0771e-09 -0.0130128 0)
(5.99176e-09 -0.0133645 0)
(8.20127e-09 -0.013702 0)
(1.07239e-08 -0.0140255 0)
(1.35875e-08 -0.0143349 0)
(1.68106e-08 -0.0146303 0)
(2.04253e-08 -0.0149116 0)
(2.44499e-08 -0.0151788 0)
(2.89217e-08 -0.015432 0)
(3.38581e-08 -0.0156711 0)
(3.93029e-08 -0.0158961 0)
(4.52719e-08 -0.016107 0)
(5.18165e-08 -0.0163039 0)
(5.89496e-08 -0.0164868 0)
(6.67325e-08 -0.0166555 0)
(7.51737e-08 -0.0168102 0)
(8.4348e-08 -0.0169508 0)
(9.42554e-08 -0.0170774 0)
(1.0497e-07 -0.0171899 0)
(1.16451e-07 -0.0172884 0)
(1.28825e-07 -0.0173727 0)
(1.42423e-07 -0.017443 0)
(1.58197e-07 -0.0174993 0)
(1.75528e-07 -0.0175415 0)
(1.85462e-07 -0.0175696 0)
(1.68192e-07 -0.0175837 0)
(1.75395e-11 -0.000351758 0)
(2.85532e-10 -0.00104119 0)
(8.65317e-10 -0.00171654 0)
(1.76009e-09 -0.00237782 0)
(2.9645e-09 -0.00302501 0)
(4.47593e-09 -0.00365812 0)
(6.29642e-09 -0.00427716 0)
(8.42862e-09 -0.00488211 0)
(1.0877e-08 -0.00547299 0)
(1.36462e-08 -0.00604979 0)
(1.67433e-08 -0.00661252 0)
(2.01752e-08 -0.00716117 0)
(2.39515e-08 -0.00769574 0)
(2.80813e-08 -0.00821624 0)
(3.25767e-08 -0.00872266 0)
(3.74488e-08 -0.00921501 0)
(4.27121e-08 -0.00969328 0)
(4.838e-08 -0.0101575 0)
(5.44697e-08 -0.0106076 0)
(6.09963e-08 -0.0110437 0)
(6.798e-08 -0.0114657 0)
(7.54379e-08 -0.0118736 0)
(8.33935e-08 -0.0122674 0)
(9.18656e-08 -0.0126472 0)
(1.00882e-07 -0.0130129 0)
(1.10462e-07 -0.0133645 0)
(1.20638e-07 -0.0137021 0)
(1.31431e-07 -0.0140256 0)
(1.4288e-07 -0.014335 0)
(1.55005e-07 -0.0146304 0)
(1.67851e-07 -0.0149117 0)
(1.8144e-07 -0.0151789 0)
(1.95823e-07 -0.0154321 0)
(2.11022e-07 -0.0156712 0)
(2.27096e-07 -0.0158962 0)
(2.44068e-07 -0.0161072 0)
(2.62005e-07 -0.0163041 0)
(2.80926e-07 -0.0164869 0)
(3.00914e-07 -0.0166557 0)
(3.21983e-07 -0.0168104 0)
(3.44232e-07 -0.016951 0)
(3.67666e-07 -0.0170776 0)
(3.92388e-07 -0.0171901 0)
(4.18351e-07 -0.0172886 0)
(4.45705e-07 -0.017373 0)
(4.74806e-07 -0.0174433 0)
(5.06867e-07 -0.0174996 0)
(5.41577e-07 -0.0175418 0)
(5.69494e-07 -0.0175699 0)
(5.64207e-07 -0.017584 0)
(8.42114e-11 -0.00035176 0)
(8.58261e-10 -0.0010412 0)
(2.4455e-09 -0.00171656 0)
(4.83361e-09 -0.00237784 0)
(7.99786e-09 -0.00302503 0)
(1.19244e-08 -0.00365815 0)
(1.66082e-08 -0.00427719 0)
(2.20458e-08 -0.00488215 0)
(2.82357e-08 -0.00547304 0)
(3.51772e-08 -0.00604985 0)
(4.28717e-08 -0.00661258 0)
(5.13216e-08 -0.00716123 0)
(6.05316e-08 -0.00769581 0)
(7.05076e-08 -0.00821631 0)
(8.12576e-08 -0.00872274 0)
(9.27908e-08 -0.0092151 0)
(1.05119e-07 -0.00969338 0)
(1.18255e-07 -0.0101576 0)
(1.32213e-07 -0.0106077 0)
(1.47011e-07 -0.0110438 0)
(1.62667e-07 -0.0114658 0)
(1.79201e-07 -0.0118737 0)
(1.96637e-07 -0.0122676 0)
(2.14999e-07 -0.0126474 0)
(2.34315e-07 -0.0130131 0)
(2.54612e-07 -0.0133647 0)
(2.75925e-07 -0.0137023 0)
(2.98283e-07 -0.0140258 0)
(3.21728e-07 -0.0143352 0)
(3.46293e-07 -0.0146306 0)
(3.72026e-07 -0.0149119 0)
(3.98964e-07 -0.0151792 0)
(4.27162e-07 -0.0154323 0)
(4.56662e-07 -0.0156714 0)
(4.87527e-07 -0.0158965 0)
(5.19801e-07 -0.0161075 0)
(5.5356e-07 -0.0163044 0)
(5.88846e-07 -0.0164872 0)
(6.25753e-07 -0.016656 0)
(6.64317e-07 -0.0168108 0)
(7.04659e-07 -0.0169514 0)
(7.46805e-07 -0.017078 0)
(7.90885e-07 -0.0171905 0)
(8.36854e-07 -0.017289 0)
(8.84892e-07 -0.0173734 0)
(9.35388e-07 -0.0174438 0)
(9.89932e-07 -0.0175001 0)
(1.04865e-06 -0.0175423 0)
(1.10151e-06 -0.0175705 0)
(1.11293e-06 -0.0175846 0)
(1.49652e-10 -0.000351768 0)
(1.64741e-09 -0.00104122 0)
(4.74026e-09 -0.00171659 0)
(9.40545e-09 -0.00237789 0)
(1.55834e-08 -0.0030251 0)
(2.32351e-08 -0.00365823 0)
(3.23376e-08 -0.00427728 0)
(4.2872e-08 -0.00488226 0)
(5.48221e-08 -0.00547315 0)
(6.81734e-08 -0.00604997 0)
(8.29144e-08 -0.00661272 0)
(9.90361e-08 -0.00716139 0)
(1.16533e-07 -0.00769598 0)
(1.354e-07 -0.00821649 0)
(1.55639e-07 -0.00872294 0)
(1.7725e-07 -0.00921531 0)
(2.00239e-07 -0.0096936 0)
(2.24614e-07 -0.0101578 0)
(2.50385e-07 -0.010608 0)
(2.77565e-07 -0.0110441 0)
(3.06172e-07 -0.0114661 0)
(3.36225e-07 -0.011874 0)
(3.67747e-07 -0.0122679 0)
(4.00763e-07 -0.0126477 0)
(4.35305e-07 -0.0130134 0)
(4.71402e-07 -0.0133651 0)
(5.09093e-07 -0.0137027 0)
(5.48416e-07 -0.0140262 0)
(5.89418e-07 -0.0143356 0)
(6.32141e-07 -0.014631 0)
(6.76645e-07 -0.0149124 0)
(7.22975e-07 -0.0151796 0)
(7.71206e-07 -0.0154328 0)
(8.21386e-07 -0.0156719 0)
(8.73605e-07 -0.015897 0)
(9.27915e-07 -0.016108 0)
(9.84425e-07 -0.0163049 0)
(1.04319e-06 -0.0164878 0)
(1.10433e-06 -0.0166566 0)
(1.16791e-06 -0.0168114 0)
(1.2341e-06 -0.0169521 0)
(1.30293e-06 -0.0170787 0)
(1.37459e-06 -0.0171913 0)
(1.44903e-06 -0.0172898 0)
(1.52649e-06 -0.0173742 0)
(1.6074e-06 -0.0174446 0)
(1.69387e-06 -0.0175009 0)
(1.78671e-06 -0.0175432 0)
(1.87487e-06 -0.0175714 0)
(1.90993e-06 -0.0175855 0)
(2.60434e-10 -0.00035178 0)
(2.81393e-09 -0.00104126 0)
(8.06891e-09 -0.00171666 0)
(1.59758e-08 -0.00237797 0)
(2.64252e-08 -0.00302521 0)
(3.9343e-08 -0.00365836 0)
(5.46818e-08 -0.00427744 0)
(7.24012e-08 -0.00488244 0)
(9.24646e-08 -0.00547335 0)
(1.14838e-07 -0.0060502 0)
(1.39492e-07 -0.00661296 0)
(1.66402e-07 -0.00716165 0)
(1.95546e-07 -0.00769626 0)
(2.26909e-07 -0.0082168 0)
(2.60476e-07 -0.00872327 0)
(2.96241e-07 -0.00921566 0)
(3.34198e-07 -0.00969397 0)
(3.74348e-07 -0.0101582 0)
(4.16695e-07 -0.0106084 0)
(4.61246e-07 -0.0110445 0)
(5.08016e-07 -0.0114665 0)
(5.57019e-07 -0.0118745 0)
(6.0828e-07 -0.0122684 0)
(6.61821e-07 -0.0126482 0)
(7.17677e-07 -0.0130139 0)
(7.75877e-07 -0.0133656 0)
(8.36468e-07 -0.0137033 0)
(8.99488e-07 -0.0140268 0)
(9.64994e-07 -0.0143363 0)
(1.03303e-06 -0.0146317 0)
(1.10367e-06 -0.0149131 0)
(1.17697e-06 -0.0151803 0)
(1.25301e-06 -0.0154336 0)
(1.33185e-06 -0.0156727 0)
(1.41361e-06 -0.0158978 0)
(1.49833e-06 -0.0161089 0)
(1.58616e-06 -0.0163058 0)
(1.67715e-06 -0.0164887 0)
(1.77147e-06 -0.0166576 0)
(1.86917e-06 -0.0168124 0)
(1.97047e-06 -0.0169531 0)
(2.07539e-06 -0.0170798 0)
(2.18419e-06 -0.0171924 0)
(2.29677e-06 -0.0172909 0)
(2.41388e-06 -0.0173754 0)
(2.53449e-06 -0.0174458 0)
(2.66121e-06 -0.0175022 0)
(2.7936e-06 -0.0175445 0)
(2.9417e-06 -0.0175728 0)
(3.08069e-06 -0.017587 0)
(4.14018e-10 -0.000351802 0)
(4.43387e-09 -0.00104132 0)
(1.26812e-08 -0.00171676 0)
(2.50633e-08 -0.00237812 0)
(4.13974e-08 -0.00302539 0)
(6.15554e-08 -0.00365858 0)
(8.5453e-08 -0.0042777 0)
(1.13016e-07 -0.00488273 0)
(1.44177e-07 -0.00547369 0)
(1.78872e-07 -0.00605056 0)
(2.17046e-07 -0.00661336 0)
(2.58646e-07 -0.00716209 0)
(3.03631e-07 -0.00769673 0)
(3.51962e-07 -0.00821731 0)
(4.03609e-07 -0.0087238 0)
(4.58545e-07 -0.00921623 0)
(5.16751e-07 -0.00969458 0)
(5.78213e-07 -0.0101589 0)
(6.42926e-07 -0.0106091 0)
(7.10884e-07 -0.0110452 0)
(7.82095e-07 -0.0114673 0)
(8.56565e-07 -0.0118753 0)
(9.34314e-07 -0.0122692 0)
(1.01536e-06 -0.012649 0)
(1.09973e-06 -0.0130148 0)
(1.18746e-06 -0.0133665 0)
(1.27858e-06 -0.0137042 0)
(1.37315e-06 -0.0140278 0)
(1.47121e-06 -0.0143373 0)
(1.57281e-06 -0.0146328 0)
(1.67803e-06 -0.0149142 0)
(1.78692e-06 -0.0151815 0)
(1.89958e-06 -0.0154347 0)
(2.01606e-06 -0.0156739 0)
(2.13648e-06 -0.0158991 0)
(2.26089e-06 -0.0161102 0)
(2.38944e-06 -0.0163072 0)
(2.52218e-06 -0.0164901 0)
(2.6593e-06 -0.016659 0)
(2.80081e-06 -0.0168139 0)
(2.94697e-06 -0.0169546 0)
(3.09778e-06 -0.0170814 0)
(3.25351e-06 -0.017194 0)
(3.41406e-06 -0.0172926 0)
(3.57956e-06 -0.0173772 0)
(3.75045e-06 -0.0174477 0)
(3.92953e-06 -0.0175041 0)
(4.11968e-06 -0.0175465 0)
(4.31409e-06 -0.0175748 0)
(4.43924e-06 -0.0175891 0)
(5.95822e-10 -0.000351834 0)
(6.38515e-09 -0.00104142 0)
(1.82624e-08 -0.00171692 0)
(3.60868e-08 -0.00237833 0)
(5.95903e-08 -0.00302566 0)
(8.85816e-08 -0.00365891 0)
(1.22932e-07 -0.00427808 0)
(1.62528e-07 -0.00488317 0)
(2.07262e-07 -0.00547418 0)
(2.57036e-07 -0.00605111 0)
(3.11757e-07 -0.00661396 0)
(3.71344e-07 -0.00716273 0)
(4.35723e-07 -0.00769743 0)
(5.04827e-07 -0.00821805 0)
(5.78601e-07 -0.0087246 0)
(6.56992e-07 -0.00921707 0)
(7.39962e-07 -0.00969547 0)
(8.27475e-07 -0.0101598 0)
(9.19506e-07 -0.01061 0)
(1.01603e-06 -0.0110462 0)
(1.11705e-06 -0.0114683 0)
(1.22255e-06 -0.0118764 0)
(1.33254e-06 -0.0122704 0)
(1.44702e-06 -0.0126503 0)
(1.56602e-06 -0.0130161 0)
(1.68956e-06 -0.0133679 0)
(1.81768e-06 -0.0137056 0)
(1.95041e-06 -0.0140292 0)
(2.0878e-06 -0.0143388 0)
(2.2299e-06 -0.0146343 0)
(2.37679e-06 -0.0149157 0)
(2.52851e-06 -0.0151831 0)
(2.68517e-06 -0.0154364 0)
(2.84681e-06 -0.0156757 0)
(3.01357e-06 -0.0159009 0)
(3.1855e-06 -0.016112 0)
(3.36275e-06 -0.0163091 0)
(3.54539e-06 -0.0164921 0)
(3.7336e-06 -0.0166611 0)
(3.92741e-06 -0.016816 0)
(4.1271e-06 -0.0169568 0)
(4.33265e-06 -0.0170836 0)
(4.54441e-06 -0.0171963 0)
(4.76217e-06 -0.017295 0)
(4.98617e-06 -0.0173796 0)
(5.21665e-06 -0.0174502 0)
(5.45716e-06 -0.0175067 0)
(5.71231e-06 -0.0175492 0)
(5.97521e-06 -0.0175776 0)
(6.15108e-06 -0.0175919 0)
(8.14783e-10 -0.000351879 0)
(8.72062e-09 -0.00104155 0)
(2.49338e-08 -0.00171713 0)
(4.92573e-08 -0.00237863 0)
(8.13201e-08 -0.00302605 0)
(1.20855e-07 -0.00365937 0)
(1.6768e-07 -0.00427862 0)
(2.21633e-07 -0.00488378 0)
(2.8256e-07 -0.00547487 0)
(3.50316e-07 -0.00605187 0)
(4.24769e-07 -0.00661479 0)
(5.05795e-07 -0.00716364 0)
(5.93283e-07 -0.0076984 0)
(6.87131e-07 -0.00821909 0)
(7.87251e-07 -0.00872571 0)
(8.9356e-07 -0.00921825 0)
(1.00599e-06 -0.00969671 0)
(1.12448e-06 -0.0101611 0)
(1.24897e-06 -0.0106114 0)
(1.37944e-06 -0.0110477 0)
(1.51583e-06 -0.0114698 0)
(1.65814e-06 -0.0118779 0)
(1.80635e-06 -0.012272 0)
(1.96044e-06 -0.012652 0)
(2.12044e-06 -0.0130179 0)
(2.28634e-06 -0.0133697 0)
(2.45818e-06 -0.0137075 0)
(2.63597e-06 -0.0140312 0)
(2.81977e-06 -0.0143408 0)
(3.00961e-06 -0.0146364 0)
(3.20556e-06 -0.0149179 0)
(3.40767e-06 -0.0151853 0)
(3.61604e-06 -0.0154387 0)
(3.83071e-06 -0.0156781 0)
(4.05183e-06 -0.0159033 0)
(4.27943e-06 -0.0161145 0)
(4.5137e-06 -0.0163117 0)
(4.75466e-06 -0.0164948 0)
(5.00255e-06 -0.0166638 0)
(5.25738e-06 -0.0168188 0)
(5.51945e-06 -0.0169597 0)
(5.78874e-06 -0.0170866 0)
(6.06563e-06 -0.0171994 0)
(6.34986e-06 -0.0172982 0)
(6.64169e-06 -0.0173829 0)
(6.94139e-06 -0.0174535 0)
(7.25337e-06 -0.0175101 0)
(7.58347e-06 -0.0175527 0)
(7.92375e-06 -0.0175812 0)
(8.15455e-06 -0.0175957 0)
(1.06234e-09 -0.00035194 0)
(1.13714e-08 -0.00104173 0)
(3.25093e-08 -0.00171743 0)
(6.42158e-08 -0.00237904 0)
(1.06002e-07 -0.00302656 0)
(1.57515e-07 -0.00365999 0)
(2.18511e-07 -0.00427934 0)
(2.88771e-07 -0.00488461 0)
(3.68088e-07 -0.00547579 0)
(4.56266e-07 -0.00605288 0)
(5.53121e-07 -0.0066159 0)
(6.58485e-07 -0.00716484 0)
(7.72202e-07 -0.0076997 0)
(8.94129e-07 -0.00822048 0)
(1.02414e-06 -0.00872718 0)
(1.16211e-06 -0.00921981 0)
(1.30794e-06 -0.00969836 0)
(1.46153e-06 -0.0101628 0)
(1.62281e-06 -0.0106132 0)
(1.7917e-06 -0.0110496 0)
(1.96815e-06 -0.0114718 0)
(2.1521e-06 -0.01188 0)
(2.34352e-06 -0.0122741 0)
(2.54237e-06 -0.0126542 0)
(2.74865e-06 -0.0130202 0)
(2.96235e-06 -0.0133721 0)
(3.18347e-06 -0.0137099 0)
(3.41201e-06 -0.0140337 0)
(3.64802e-06 -0.0143435 0)
(3.8915e-06 -0.0146391 0)
(4.14253e-06 -0.0149207 0)
(4.40112e-06 -0.0151882 0)
(4.66736e-06 -0.0154417 0)
(4.9413e-06 -0.0156811 0)
(5.22304e-06 -0.0159065 0)
(5.51263e-06 -0.0161178 0)
(5.81022e-06 -0.016315 0)
(6.11584e-06 -0.0164982 0)
(6.42971e-06 -0.0166674 0)
(6.75181e-06 -0.0168224 0)
(7.08244e-06 -0.0169635 0)
(7.42156e-06 -0.0170904 0)
(7.76953e-06 -0.0172033 0)
(8.12605e-06 -0.0173022 0)
(8.49129e-06 -0.017387 0)
(8.86556e-06 -0.0174578 0)
(9.2541e-06 -0.0175145 0)
(9.66406e-06 -0.0175572 0)
(1.00861e-05 -0.0175858 0)
(1.03744e-05 -0.0176004 0)
(1.32518e-09 -0.000352017 0)
(1.41701e-08 -0.00104196 0)
(4.05016e-08 -0.0017178 0)
(7.99942e-08 -0.00237955 0)
(1.32036e-07 -0.00302721 0)
(1.96184e-07 -0.00366078 0)
(2.7213e-07 -0.00428026 0)
(3.59596e-07 -0.00488565 0)
(4.5832e-07 -0.00547696 0)
(5.68048e-07 -0.00605418 0)
(6.88545e-07 -0.00661732 0)
(8.19589e-07 -0.00716637 0)
(9.60979e-07 -0.00770135 0)
(1.11252e-06 -0.00822224 0)
(1.27405e-06 -0.00872906 0)
(1.4454e-06 -0.00922179 0)
(1.62643e-06 -0.00970045 0)
(1.817e-06 -0.010165 0)
(2.017e-06 -0.0106155 0)
(2.22632e-06 -0.011052 0)
(2.44486e-06 -0.0114743 0)
(2.67255e-06 -0.0118826 0)
(2.90932e-06 -0.0122769 0)
(3.1551e-06 -0.012657 0)
(3.40985e-06 -0.0130231 0)
(3.67354e-06 -0.0133751 0)
(3.94613e-06 -0.0137131 0)
(4.22762e-06 -0.014037 0)
(4.518e-06 -0.0143468 0)
(4.81726e-06 -0.0146426 0)
(5.12543e-06 -0.0149243 0)
(5.44252e-06 -0.0151919 0)
(5.76858e-06 -0.0154455 0)
(6.10363e-06 -0.015685 0)
(6.44774e-06 -0.0159105 0)
(6.80092e-06 -0.0161219 0)
(7.16331e-06 -0.0163192 0)
(7.53489e-06 -0.0165025 0)
(7.91584e-06 -0.0166718 0)
(8.30613e-06 -0.0168269 0)
(8.70599e-06 -0.0169681 0)
(9.11537e-06 -0.0170952 0)
(9.53456e-06 -0.0172082 0)
(9.96321e-06 -0.0173072 0)
(1.04014e-05 -0.0173921 0)
(1.08494e-05 -0.017463 0)
(1.13131e-05 -0.0175199 0)
(1.18011e-05 -0.0175627 0)
(1.23029e-05 -0.0175914 0)
(1.26484e-05 -0.0176061 0)
(1.57168e-09 -0.000352111 0)
(1.68347e-08 -0.00104223 0)
(4.8131e-08 -0.00171826 0)
(9.50772e-08 -0.00238018 0)
(1.56945e-07 -0.00302801 0)
(2.33208e-07 -0.00366174 0)
(3.23497e-07 -0.00428138 0)
(4.27478e-07 -0.00488693 0)
(5.44832e-07 -0.00547839 0)
(6.75252e-07 -0.00605576 0)
(8.18451e-07 -0.00661905 0)
(9.74157e-07 -0.00716824 0)
(1.14212e-06 -0.00770336 0)
(1.3221e-06 -0.00822439 0)
(1.51388e-06 -0.00873134 0)
(1.71725e-06 -0.00922421 0)
(1.93203e-06 -0.009703 0)
(2.15804e-06 -0.0101677 0)
(2.39512e-06 -0.0106184 0)
(2.64312e-06 -0.0110549 0)
(2.90191e-06 -0.0114774 0)
(3.17137e-06 -0.0118858 0)
(3.45139e-06 -0.0122802 0)
(3.74186e-06 -0.0126604 0)
(4.04272e-06 -0.0130267 0)
(4.35386e-06 -0.0133788 0)
(4.67525e-06 -0.0137169 0)
(5.00681e-06 -0.0140409 0)
(5.34851e-06 -0.0143508 0)
(5.70029e-06 -0.0146467 0)
(6.06215e-06 -0.0149285 0)
(6.43404e-06 -0.0151963 0)
(6.81597e-06 -0.01545 0)
(7.20791e-06 -0.0156896 0)
(7.60989e-06 -0.0159152 0)
(8.02187e-06 -0.0161267 0)
(8.44392e-06 -0.0163242 0)
(8.87599e-06 -0.0165076 0)
(9.31817e-06 -0.016677 0)
(9.77039e-06 -0.0168323 0)
(1.02328e-05 -0.0169736 0)
(1.07053e-05 -0.0171008 0)
(1.11881e-05 -0.0172139 0)
(1.16808e-05 -0.0173131 0)
(1.21832e-05 -0.0173981 0)
(1.26957e-05 -0.0174691 0)
(1.32246e-05 -0.0175261 0)
(1.37795e-05 -0.0175691 0)
(1.43494e-05 -0.017598 0)
(1.47453e-05 -0.0176128 0)
(1.77529e-09 -0.000352221 0)
(1.8989e-08 -0.00104256 0)
(5.42873e-08 -0.00171879 0)
(1.07245e-07 -0.00238091 0)
(1.77046e-07 -0.00302894 0)
(2.63105e-07 -0.00366286 0)
(3.65005e-07 -0.00428269 0)
(4.82374e-07 -0.00488842 0)
(6.14848e-07 -0.00548006 0)
(7.62079e-07 -0.0060576 0)
(9.23736e-07 -0.00662106 0)
(1.09951e-06 -0.00717042 0)
(1.2891e-06 -0.0077057 0)
(1.49223e-06 -0.00822689 0)
(1.70864e-06 -0.008734 0)
(1.93808e-06 -0.00922702 0)
(2.18033e-06 -0.00970596 0)
(2.43516e-06 -0.0101708 0)
(2.70238e-06 -0.0106216 0)
(2.98179e-06 -0.0110583 0)
(3.27323e-06 -0.011481 0)
(3.57652e-06 -0.0118895 0)
(3.89152e-06 -0.012284 0)
(4.21808e-06 -0.0126644 0)
(4.55607e-06 -0.0130308 0)
(4.90538e-06 -0.013383 0)
(5.26589e-06 -0.0137212 0)
(5.63749e-06 -0.0140454 0)
(6.0201e-06 -0.0143555 0)
(6.41362e-06 -0.0146515 0)
(6.81797e-06 -0.0149334 0)
(7.23308e-06 -0.0152013 0)
(7.65887e-06 -0.0154551 0)
(8.09527e-06 -0.0156949 0)
(8.54224e-06 -0.0159206 0)
(8.99968e-06 -0.0161323 0)
(9.46757e-06 -0.0163299 0)
(9.9458e-06 -0.0165134 0)
(1.04344e-05 -0.0166829 0)
(1.09331e-05 -0.0168384 0)
(1.14421e-05 -0.0169798 0)
(1.19612e-05 -0.0171071 0)
(1.24903e-05 -0.0172204 0)
(1.30291e-05 -0.0173196 0)
(1.35771e-05 -0.0174048 0)
(1.41346e-05 -0.017476 0)
(1.4708e-05 -0.0175331 0)
(1.53074e-05 -0.0175762 0)
(1.5922e-05 -0.0176052 0)
(1.63529e-05 -0.0176202 0)
(1.86775e-09 -0.000352341 0)
(2.00681e-08 -0.00104291 0)
(5.74352e-08 -0.00171937 0)
(1.13542e-07 -0.00238172 0)
(1.87543e-07 -0.00302996 0)
(2.7883e-07 -0.00366409 0)
(3.86974e-07 -0.00428412 0)
(5.11582e-07 -0.00489006 0)
(6.52275e-07 -0.00548189 0)
(8.0868e-07 -0.00605962 0)
(9.80444e-07 -0.00662326 0)
(1.16723e-06 -0.00717281 0)
(1.3687e-06 -0.00770827 0)
(1.58457e-06 -0.00822963 0)
(1.81453e-06 -0.00873691 0)
(2.0583e-06 -0.00923011 0)
(2.31563e-06 -0.00970921 0)
(2.58624e-06 -0.0101742 0)
(2.86991e-06 -0.0106252 0)
(3.1664e-06 -0.0110621 0)
(3.4755e-06 -0.0114848 0)
(3.79699e-06 -0.0118936 0)
(4.13068e-06 -0.0122882 0)
(4.47638e-06 -0.0126688 0)
(4.83391e-06 -0.0130352 0)
(5.20309e-06 -0.0133877 0)
(5.58376e-06 -0.013726 0)
(5.97577e-06 -0.0140503 0)
(6.37895e-06 -0.0143605 0)
(6.79316e-06 -0.0146567 0)
(7.21825e-06 -0.0149388 0)
(7.65408e-06 -0.0152068 0)
(8.10052e-06 -0.0154608 0)
(8.55741e-06 -0.0157007 0)
(9.02463e-06 -0.0159265 0)
(9.50203e-06 -0.0161383 0)
(9.98946e-06 -0.016336 0)
(1.04868e-05 -0.0165197 0)
(1.09938e-05 -0.0166893 0)
(1.15104e-05 -0.0168449 0)
(1.20364e-05 -0.0169864 0)
(1.25716e-05 -0.0171139 0)
(1.31159e-05 -0.0172273 0)
(1.36687e-05 -0.0173267 0)
(1.42293e-05 -0.017412 0)
(1.47981e-05 -0.0174832 0)
(1.53808e-05 -0.0175404 0)
(1.59878e-05 -0.0175836 0)
(1.66088e-05 -0.0176127 0)
(1.70482e-05 -0.0176278 0)
(1.82624e-09 -0.000352464 0)
(1.96097e-08 -0.00104327 0)
(5.6168e-08 -0.00171996 0)
(1.11118e-07 -0.00238254 0)
(1.83666e-07 -0.003031 0)
(2.73243e-07 -0.00366535 0)
(3.79442e-07 -0.0042856 0)
(5.01888e-07 -0.00489174 0)
(6.40206e-07 -0.00548377 0)
(7.94024e-07 -0.0060617 0)
(9.62979e-07 -0.00662554 0)
(1.14672e-06 -0.00717527 0)
(1.34489e-06 -0.00771091 0)
(1.55717e-06 -0.00823246 0)
(1.78323e-06 -0.00873992 0)
(2.02274e-06 -0.00923328 0)
(2.2754e-06 -0.00971256 0)
(2.5409e-06 -0.0101778 0)
(2.81895e-06 -0.0106289 0)
(3.10925e-06 -0.0110659 0)
(3.41154e-06 -0.0114888 0)
(3.72552e-06 -0.0118977 0)
(4.05094e-06 -0.0122925 0)
(4.38752e-06 -0.0126732 0)
(4.735e-06 -0.0130398 0)
(5.09313e-06 -0.0133924 0)
(5.46165e-06 -0.0137309 0)
(5.84033e-06 -0.0140553 0)
(6.2289e-06 -0.0143657 0)
(6.62713e-06 -0.014662 0)
(7.03477e-06 -0.0149442 0)
(7.4516e-06 -0.0152123 0)
(7.87736e-06 -0.0154664 0)
(8.31183e-06 -0.0157065 0)
(8.75475e-06 -0.0159324 0)
(9.20592e-06 -0.0161444 0)
(9.66507e-06 -0.0163422 0)
(1.0132e-05 -0.016526 0)
(1.06065e-05 -0.0166957 0)
(1.10883e-05 -0.0168514 0)
(1.15771e-05 -0.016993 0)
(1.20729e-05 -0.0171206 0)
(1.25752e-05 -0.0172341 0)
(1.3084e-05 -0.0173336 0)
(1.35981e-05 -0.017419 0)
(1.41184e-05 -0.0174903 0)
(1.46495e-05 -0.0175476 0)
(1.52015e-05 -0.0175909 0)
(1.5766e-05 -0.0176201 0)
(1.61697e-05 -0.0176352 0)
(1.58686e-09 -0.000352578 0)
(1.73183e-08 -0.00104361 0)
(4.98036e-08 -0.00172052 0)
(9.87611e-08 -0.00238331 0)
(1.6353e-07 -0.00303198 0)
(2.43634e-07 -0.00366654 0)
(3.38724e-07 -0.00428698 0)
(4.48474e-07 -0.00489331 0)
(5.72539e-07 -0.00548554 0)
(7.10575e-07 -0.00606366 0)
(8.62231e-07 -0.00662767 0)
(1.02716e-06 -0.00717758 0)
(1.20501e-06 -0.0077134 0)
(1.39543e-06 -0.00823511 0)
(1.59807e-06 -0.00874273 0)
(1.8126e-06 -0.00923626 0)
(2.03864e-06 -0.00971569 0)
(2.27587e-06 -0.010181 0)
(2.52394e-06 -0.0106323 0)
(2.78249e-06 -0.0110695 0)
(3.05118e-06 -0.0114925 0)
(3.32967e-06 -0.0119015 0)
(3.61761e-06 -0.0122965 0)
(3.91465e-06 -0.0126773 0)
(4.22045e-06 -0.0130441 0)
(4.53467e-06 -0.0133967 0)
(4.85694e-06 -0.0137354 0)
(5.18694e-06 -0.0140599 0)
(5.52429e-06 -0.0143704 0)
(5.86868e-06 -0.0146667 0)
(6.21972e-06 -0.0149491 0)
(6.57711e-06 -0.0152173 0)
(6.94046e-06 -0.0154715 0)
(7.30947e-06 -0.0157116 0)
(7.68373e-06 -0.0159377 0)
(8.06299e-06 -0.0161497 0)
(8.44682e-06 -0.0163476 0)
(8.835e-06 -0.0165315 0)
(9.22709e-06 -0.0167013 0)
(9.62294e-06 -0.016857 0)
(1.00221e-05 -0.0169987 0)
(1.04245e-05 -0.0171264 0)
(1.08296e-05 -0.0172399 0)
(1.12373e-05 -0.0173395 0)
(1.16468e-05 -0.0174249 0)
(1.20588e-05 -0.0174963 0)
(1.24765e-05 -0.0175537 0)
(1.29082e-05 -0.017597 0)
(1.3348e-05 -0.0176263 0)
(1.3665e-05 -0.0176415 0)
(1.37814e-09 -0.000352674 0)
(1.49772e-08 -0.0010439 0)
(4.29661e-08 -0.00172099 0)
(8.50436e-08 -0.00238396 0)
(1.40585e-07 -0.00303281 0)
(2.09131e-07 -0.00366755 0)
(2.9034e-07 -0.00428816 0)
(3.83895e-07 -0.00489466 0)
(4.89468e-07 -0.00548705 0)
(6.0673e-07 -0.00606533 0)
(7.35353e-07 -0.0066295 0)
(8.75008e-07 -0.00717956 0)
(1.02537e-06 -0.00771552 0)
(1.1861e-06 -0.00823738 0)
(1.35687e-06 -0.00874513 0)
(1.53736e-06 -0.00923879 0)
(1.72723e-06 -0.00971835 0)
(1.92614e-06 -0.0101838 0)
(2.13376e-06 -0.0106352 0)
(2.34974e-06 -0.0110725 0)
(2.57374e-06 -0.0114957 0)
(2.80541e-06 -0.0119048 0)
(3.0444e-06 -0.0122998 0)
(3.29034e-06 -0.0126807 0)
(3.54288e-06 -0.0130476 0)
(3.80164e-06 -0.0134004 0)
(4.06624e-06 -0.0137391 0)
(4.33629e-06 -0.0140637 0)
(4.6114e-06 -0.0143742 0)
(4.89116e-06 -0.0146707 0)
(5.17514e-06 -0.014953 0)
(5.46291e-06 -0.0152214 0)
(5.75403e-06 -0.0154756 0)
(6.04805e-06 -0.0157158 0)
(6.34445e-06 -0.0159419 0)
(6.64277e-06 -0.0161539 0)
(6.94246e-06 -0.0163519 0)
(7.243e-06 -0.0165358 0)
(7.54377e-06 -0.0167056 0)
(7.84424e-06 -0.0168614 0)
(8.14368e-06 -0.0170031 0)
(8.44154e-06 -0.0171307 0)
(8.73694e-06 -0.0172443 0)
(9.02922e-06 -0.0173438 0)
(9.31712e-06 -0.0174293 0)
(9.6003e-06 -0.0175007 0)
(9.8797e-06 -0.017558 0)
(1.01591e-05 -0.0176013 0)
(1.04333e-05 -0.0176306 0)
(1.06261e-05 -0.0176458 0)
(1.09825e-09 -0.00035276 0)
(1.12995e-08 -0.00104415 0)
(3.19841e-08 -0.0017214 0)
(6.27923e-08 -0.00238453 0)
(1.03151e-07 -0.00303353 0)
(1.52634e-07 -0.00366841 0)
(2.10905e-07 -0.00428917 0)
(2.77661e-07 -0.0048958 0)
(3.52592e-07 -0.00548833 0)
(4.35394e-07 -0.00606673 0)
(5.25765e-07 -0.00663103 0)
(6.23405e-07 -0.00718121 0)
(7.28014e-07 -0.00771729 0)
(8.39294e-07 -0.00823926 0)
(9.56942e-07 -0.00874712 0)
(1.08065e-06 -0.00924089 0)
(1.21011e-06 -0.00972055 0)
(1.34501e-06 -0.0101861 0)
(1.48502e-06 -0.0106376 0)
(1.6298e-06 -0.011075 0)
(1.77902e-06 -0.0114982 0)
(1.93232e-06 -0.0119074 0)
(2.08933e-06 -0.0123025 0)
(2.24967e-06 -0.0126835 0)
(2.41293e-06 -0.0130505 0)
(2.57871e-06 -0.0134033 0)
(2.74655e-06 -0.013742 0)
(2.916e-06 -0.0140667 0)
(3.08655e-06 -0.0143773 0)
(3.25771e-06 -0.0146738 0)
(3.4289e-06 -0.0149562 0)
(3.59957e-06 -0.0152246 0)
(3.76903e-06 -0.0154788 0)
(3.93669e-06 -0.015719 0)
(4.10173e-06 -0.0159451 0)
(4.26348e-06 -0.0161572 0)
(4.42098e-06 -0.0163551 0)
(4.57347e-06 -0.016539 0)
(4.71978e-06 -0.0167088 0)
(4.85909e-06 -0.0168645 0)
(4.98993e-06 -0.0170062 0)
(5.11141e-06 -0.0171338 0)
(5.22167e-06 -0.0172473 0)
(5.31974e-06 -0.0173467 0)
(5.40332e-06 -0.0174321 0)
(5.47197e-06 -0.0175033 0)
(5.52327e-06 -0.0175605 0)
(5.55436e-06 -0.0176037 0)
(5.54812e-06 -0.0176327 0)
(5.4914e-06 -0.0176477 0)
(-2.52577e-07 -0.0175835 0)
(-2.81695e-07 -0.0173791 0)
(1.9808e-07 -0.0170173 0)
(4.40071e-07 -0.0166567 0)
(6.94997e-07 -0.0162975 0)
(9.4662e-07 -0.01594 0)
(1.18979e-06 -0.0155845 0)
(1.41923e-06 -0.0152313 0)
(1.63295e-06 -0.0148805 0)
(1.82942e-06 -0.0145324 0)
(2.00703e-06 -0.0141873 0)
(2.16424e-06 -0.0138454 0)
(2.29964e-06 -0.0135069 0)
(2.41207e-06 -0.013172 0)
(2.50058e-06 -0.0128409 0)
(2.56446e-06 -0.0125137 0)
(2.60323e-06 -0.0121907 0)
(2.6166e-06 -0.0118721 0)
(2.60453e-06 -0.0115579 0)
(2.56716e-06 -0.0112484 0)
(2.50482e-06 -0.0109437 0)
(2.418e-06 -0.010644 0)
(2.30737e-06 -0.0103493 0)
(2.1737e-06 -0.0100597 0)
(2.01791e-06 -0.00977544 0)
(1.84101e-06 -0.00949652 0)
(1.64412e-06 -0.00922306 0)
(1.4284e-06 -0.00895512 0)
(1.19509e-06 -0.00869277 0)
(9.45453e-07 -0.00843606 0)
(6.80788e-07 -0.00818503 0)
(4.02407e-07 -0.00793973 0)
(1.11619e-07 -0.00770017 0)
(-1.90271e-07 -0.00746638 0)
(-5.0198e-07 -0.00723837 0)
(-8.22252e-07 -0.00701613 0)
(-1.14986e-06 -0.00679966 0)
(-1.48363e-06 -0.00658894 0)
(-1.82242e-06 -0.00638394 0)
(-2.16514e-06 -0.00618464 0)
(-2.51075e-06 -0.00599101 0)
(-2.85826e-06 -0.00580298 0)
(-3.20674e-06 -0.00562052 0)
(-3.5553e-06 -0.00544357 0)
(-3.90308e-06 -0.00527206 0)
(-4.24932e-06 -0.00510592 0)
(-4.59335e-06 -0.00494508 0)
(-4.93473e-06 -0.00478946 0)
(-5.2726e-06 -0.00463898 0)
(-5.60461e-06 -0.00449354 0)
(-2.46722e-07 -0.0175834 0)
(-2.48732e-07 -0.0173865 0)
(5.18044e-07 -0.0170246 0)
(1.06573e-06 -0.0166637 0)
(1.62708e-06 -0.0163043 0)
(2.20143e-06 -0.0159465 0)
(2.78293e-06 -0.0155907 0)
(3.36104e-06 -0.0152371 0)
(3.92888e-06 -0.0148859 0)
(4.48124e-06 -0.0145374 0)
(5.01354e-06 -0.0141918 0)
(5.52164e-06 -0.0138494 0)
(6.00186e-06 -0.0135103 0)
(6.451e-06 -0.0131748 0)
(6.86628e-06 -0.0128431 0)
(7.24535e-06 -0.0125154 0)
(7.58626e-06 -0.0121918 0)