/*--------------------------------*- C++ -*----------------------------------*\
| =========                 |                                                 |
| \\      /  F ield         | OpenFOAM: The Open Source CFD Toolbox           |
|  \\    /   O peration     | Version:  2.4.0                                 |
|   \\  /    A nd           | Web:      www.OpenFOAM.org                      |
|    \\/     M anipulation  |                                                 |
\*---------------------------------------------------------------------------*/
FoamFile
{
    version     2.0;
    format      ascii;
    class       surfaceScalarField;
    location    "0.005";
    object      phi;
}
// * * * * * * * * * * * * * * * * * * * * * * * * * * * * * * * * * * * * * //

dimensions      [0 3 -1 0 0 0 0];

internalField   nonuniform List<scalar> 
123
(
5.82745e-16
2.19239e-15
-5.60382e-09
-5.60381e-09
-5.6038e-09
-5.60379e-09
-5.60376e-09
-5.60373e-09
-5.6037e-09
-5.60366e-09
-5.60361e-09
-5.60356e-09
-5.60351e-09
-5.60345e-09
-5.60339e-09
-5.60333e-09
-5.60326e-09
-5.60319e-09
-5.60312e-09
-5.60305e-09
-5.60298e-09
-5.6029e-09
-5.60282e-09
-5.60275e-09
-5.60267e-09
-5.60259e-09
-5.60251e-09
-5.60244e-09
-5.60236e-09
-5.60228e-09
-5.6022e-09
-5.60213e-09
-5.60205e-09
-5.60198e-09
-5.6019e-09
-5.60183e-09
-5.60176e-09
-5.60169e-09
-5.60162e-09
-5.60155e-09
-5.60148e-09
-5.60142e-09
-5.60135e-09
-5.60129e-09
-5.60123e-09
-5.60117e-09
-5.60111e-09
-5.60105e-09
-5.60099e-09
-5.60093e-09
-5.60088e-09
-5.60083e-09
-5.60077e-09
-5.60072e-09
-5.60067e-09
-5.60062e-09
-5.60057e-09
-5.60052e-09
-5.60047e-09
-5.60043e-09
-5.60038e-09
-5.60033e-09
-5.60029e-09
-5.60024e-09
-5.6002e-09
-5.60016e-09
-5.60012e-09
-5.60007e-09
-5.60003e-09
-5.59999e-09
-5.59995e-09
-5.59991e-09
-5.59987e-09
-5.59983e-09
-5.59979e-09
-5.59975e-09
-5.59971e-09
-5.59967e-09
-5.59963e-09
-5.5996e-09
-5.59956e-09
-5.59952e-09
-5.59948e-09
-5.59945e-09
-5.59941e-09
-5.59937e-09
-5.59934e-09
-5.5993e-09
-5.59927e-09
-5.59923e-09
-5.5992e-09
-5.59916e-09
-5.59913e-09
-5.59909e-09
-5.59906e-09
-5.59902e-09
-5.59899e-09
-5.59895e-09
-5.59892e-09
-5.59567e-09
-5.59567e-09
-5.59566e-09
-5.59566e-09
-5.59565e-09
-5.59565e-09
-5.59565e-09
-5.59565e-09
-5.59565e-09
-5.59565e-09
-5.59566e-09
-5.59566e-09
-5.59566e-09
-5.59567e-09
-5.59568e-09
-5.59568e-09
-5.59569e-09
-5.5957e-09
-5.59571e-09
-5.59572e-09
-5.59573e-09
-5.59574e-09
-5.59575e-09
-5.59576e-09
)
;

boundaryField
{
    BotWall
    {
        type            calculated;
        value           uniform -2.98003e-21;
    }
    FreeStream
    {
        type            calculated;
        value           uniform -5.59577e-09;
    }
    FrontNBack
    {
        type            empty;
        value           nonuniform 0();
    }
    LeftSide
    {
        type            symmetryPlane;
        value           nonuniform 0();
    }
    RightSide
    {
        type            symmetryPlane;
        value           nonuniform 0();
    }
    procBoundary4to1
    {
        type            processor;
        value           nonuniform List<scalar> 
50
(
-5.91982e-14
-5.80464e-14
-5.69346e-14
-5.58645e-14
-5.48373e-14
-5.38535e-14
-5.29136e-14
-5.20175e-14
-5.11647e-14
-5.03547e-14
-4.95865e-14
-4.8859e-14
-4.81708e-14
-4.75205e-14
-4.69065e-14
-4.63272e-14
-4.57807e-14
-4.52654e-14
-4.47793e-14
-4.43207e-14
-4.38878e-14
-4.34788e-14
-4.3092e-14
-4.27258e-14
-4.23784e-14
-4.20484e-14
-4.17344e-14
-4.14348e-14
-4.11485e-14
-4.08743e-14
-4.06109e-14
-4.03573e-14
-4.01126e-14
-3.98759e-14
-3.96463e-14
-3.94232e-14
-3.92058e-14
-3.89936e-14
-3.87859e-14
-3.85824e-14
-3.83826e-14
-3.81861e-14
-3.79925e-14
-3.78017e-14
-3.76133e-14
-3.7427e-14
-3.72428e-14
-3.70605e-14
-3.68798e-14
-3.67007e-14
)
;
    }
    procBoundary4to2
    {
        type            processor;
        value           nonuniform List<scalar> 
75
(
-6.46867e-16
-1.79341e-15
-4.55602e-15
-6.27627e-15
-1.23795e-14
-1.94346e-14
-2.61421e-14
-3.23872e-14
-3.8205e-14
-4.36329e-14
-4.86808e-14
-5.33518e-14
-5.76503e-14
-6.1583e-14
-6.51576e-14
-6.83827e-14
-7.12679e-14
-7.38233e-14
-7.60602e-14
-7.79903e-14
-7.9626e-14
-8.09805e-14
-8.20671e-14
-8.28998e-14
-8.3493e-14
-8.38612e-14
-8.40191e-14
-8.39815e-14
-8.37634e-14
-8.33794e-14
-8.28442e-14
-8.21723e-14
-8.13777e-14
-8.04743e-14
-7.94755e-14
-7.83941e-14
-7.72426e-14
-7.60328e-14
-7.47759e-14
-7.34825e-14
-7.21625e-14
-7.08253e-14
-6.94794e-14
-6.81326e-14
-6.67921e-14
-6.54645e-14
-6.41554e-14
-6.28701e-14
-6.1613e-14
-6.0388e-14
-3.81659e-15
-3.72918e-15
-3.63112e-15
-3.52244e-15
-3.40346e-15
-3.27482e-15
-3.13753e-15
-2.99293e-15
-2.84268e-15
-2.68875e-15
-2.53329e-15
-2.37865e-15
-2.22724e-15
-2.08147e-15
-1.94363e-15
-1.81582e-15
-1.69986e-15
-1.59722e-15
-1.50895e-15
-1.43565e-15
-1.37745e-15
-1.33405e-15
-1.30472e-15
-1.2883e-15
-1.28123e-15
)
;
    }
    procBoundary4to3
    {
        type            processor;
        value           uniform -5.59889e-09;
    }
    procBoundary4to5
    {
        type            processor;
        value           uniform 5.59568e-09;
    }
    procBoundary4to6
    {
        type            processor;
        value           nonuniform List<scalar> 
75
(
6.08535e-15
6.08519e-15
6.07001e-15
6.04099e-15
5.99932e-15
5.94618e-15
5.88273e-15
5.81012e-15
5.72948e-15
5.64189e-15
5.54841e-15
5.45005e-15
5.34778e-15
5.24251e-15
5.13511e-15
5.02638e-15
4.91706e-15
4.80787e-15
4.69941e-15
4.59228e-15
4.48697e-15
4.38396e-15
4.28362e-15
4.18632e-15
4.09233e-15
4.0019e-15
3.91522e-15
3.83246e-15
3.75371e-15
3.67905e-15
3.60852e-15
3.54213e-15
3.47986e-15
3.42165e-15
3.36744e-15
3.31716e-15
3.27069e-15
3.22793e-15
3.18876e-15
3.15304e-15
3.12066e-15
3.09147e-15
3.06534e-15
3.04214e-15
3.02173e-15
3.00399e-15
2.98878e-15
2.976e-15
2.96554e-15
2.95729e-15
2.95114e-15
2.94701e-15
2.94481e-15
2.94445e-15
2.94588e-15
2.94902e-15
2.95381e-15
2.9602e-15
2.96814e-15
2.9776e-15
2.98853e-15
3.00089e-15
3.01467e-15
3.02983e-15
3.04636e-15
3.06422e-15
3.0834e-15
3.10389e-15
3.12567e-15
3.14871e-15
3.17302e-15
3.19857e-15
3.22536e-15
3.25338e-15
3.28261e-15
)
;
    }
    procBoundary4to7
    {
        type            processor;
        value           nonuniform List<scalar> 
50
(
6.41222e-17
1.83768e-16
3.82167e-16
5.25156e-16
9.79762e-16
1.47381e-15
1.95047e-15
2.40097e-15
2.8231e-15
3.2177e-15
3.58514e-15
3.92548e-15
4.23881e-15
4.52533e-15
4.78538e-15
5.0194e-15
5.22791e-15
5.41154e-15
5.57101e-15
5.70709e-15
5.82067e-15
5.91267e-15
5.98407e-15
6.03593e-15
6.06931e-15
-1.84519e-15
-1.31196e-15
-7.32097e-16
-1.06545e-16
5.5998e-16
1.26523e-15
2.00443e-15
2.77096e-15
3.55706e-15
4.35398e-15
5.15218e-15
5.94159e-15
6.71197e-15
7.45323e-15
8.15578e-15
8.81093e-15
9.41116e-15
9.95041e-15
1.04243e-14
1.08303e-14
1.11677e-14
1.14376e-14
1.16427e-14
1.17879e-14
1.18671e-14
)
;
    }
}


// ************************************************************************* //
