/*--------------------------------*- C++ -*----------------------------------*\
| =========                 |                                                 |
| \\      /  F ield         | OpenFOAM: The Open Source CFD Toolbox           |
|  \\    /   O peration     | Version:  2.4.0                                 |
|   \\  /    A nd           | Web:      www.OpenFOAM.org                      |
|    \\/     M anipulation  |                                                 |
\*---------------------------------------------------------------------------*/
FoamFile
{
    version     2.0;
    format      ascii;
    class       volVectorField;
    location    "0.005";
    object      U;
}
// * * * * * * * * * * * * * * * * * * * * * * * * * * * * * * * * * * * * * //

dimensions      [0 1 -1 0 0 0 0];

internalField   nonuniform List<vector> 
125
(
(7.52722e-07 -0.000294648 0)
(2.20858e-06 0.00109994 0)
(4.60855e-06 -0.0041031 0)
(6.92659e-06 -0.0303603 0)
(1.52481e-05 -0.0372914 0)
(2.37325e-05 -0.02912 0)
(3.17702e-05 -0.0275802 0)
(3.92786e-05 -0.0277186 0)
(4.62449e-05 -0.0279735 0)
(5.26899e-05 -0.0280367 0)
(5.8629e-05 -0.0280295 0)
(6.40741e-05 -0.0280196 0)
(6.90371e-05 -0.028017 0)
(7.35313e-05 -0.028017 0)
(7.75707e-05 -0.028017 0)
(8.11707e-05 -0.0280168 0)
(8.4347e-05 -0.0280165 0)
(8.71163e-05 -0.0280161 0)
(8.94957e-05 -0.0280158 0)
(9.15032e-05 -0.0280154 0)
(9.3157e-05 -0.0280151 0)
(9.44759e-05 -0.0280147 0)
(9.54787e-05 -0.0280143 0)
(9.61846e-05 -0.0280139 0)
(9.6613e-05 -0.0280135 0)
(9.67832e-05 -0.0280132 0)
(9.67144e-05 -0.0280128 0)
(9.64256e-05 -0.0280124 0)
(9.59356e-05 -0.028012 0)
(9.52629e-05 -0.0280116 0)
(9.44256e-05 -0.0280112 0)
(9.34412e-05 -0.0280108 0)
(9.23267e-05 -0.0280105 0)
(9.10985e-05 -0.0280101 0)
(8.97722e-05 -0.0280097 0)
(8.83628e-05 -0.0280093 0)
(8.68846e-05 -0.028009 0)
(8.53508e-05 -0.0280086 0)
(8.37741e-05 -0.0280083 0)
(8.21662e-05 -0.0280079 0)
(8.0538e-05 -0.0280076 0)
(7.88994e-05 -0.0280073 0)
(7.72596e-05 -0.0280069 0)
(7.56268e-05 -0.0280066 0)
(7.40085e-05 -0.0280063 0)
(7.24113e-05 -0.028006 0)
(7.0841e-05 -0.0280057 0)
(6.93026e-05 -0.0280054 0)
(6.78005e-05 -0.0280051 0)
(6.63382e-05 -0.0280048 0)
(6.49186e-05 -0.0280045 0)
(6.35442e-05 -0.0280043 0)
(6.22166e-05 -0.028004 0)
(6.0937e-05 -0.0280037 0)
(5.97062e-05 -0.0280035 0)
(5.85244e-05 -0.0280032 0)
(5.73915e-05 -0.028003 0)
(5.6307e-05 -0.0280027 0)
(5.52702e-05 -0.0280025 0)
(5.42799e-05 -0.0280022 0)
(5.33349e-05 -0.028002 0)
(5.24337e-05 -0.0280018 0)
(5.15746e-05 -0.0280016 0)
(5.07559e-05 -0.0280013 0)
(4.99758e-05 -0.0280011 0)
(4.92322e-05 -0.0280009 0)
(4.85233e-05 -0.0280007 0)
(4.78471e-05 -0.0280005 0)
(4.72015e-05 -0.0280003 0)
(4.65848e-05 -0.0280001 0)
(4.59948e-05 -0.0279998 0)
(4.54299e-05 -0.0279996 0)
(4.48882e-05 -0.0279994 0)
(4.43679e-05 -0.0279992 0)
(4.38676e-05 -0.027999 0)
(4.33855e-05 -0.0279988 0)
(4.29202e-05 -0.0279987 0)
(4.24704e-05 -0.0279985 0)
(4.20347e-05 -0.0279983 0)
(4.16121e-05 -0.0279981 0)
(4.12013e-05 -0.0279979 0)
(4.08013e-05 -0.0279977 0)
(4.04112e-05 -0.0279975 0)
(4.00302e-05 -0.0279973 0)
(3.96575e-05 -0.0279971 0)
(3.92924e-05 -0.027997 0)
(3.89342e-05 -0.0279968 0)
(3.85823e-05 -0.0279966 0)
(3.82364e-05 -0.0279964 0)
(3.78959e-05 -0.0279962 0)
(3.75603e-05 -0.0279961 0)
(3.72294e-05 -0.0279959 0)
(3.69029e-05 -0.0279957 0)
(3.65804e-05 -0.0279955 0)
(3.62617e-05 -0.0279954 0)
(3.59466e-05 -0.0279952 0)
(3.5635e-05 -0.027995 0)
(3.53266e-05 -0.0279949 0)
(3.50213e-05 -0.0279947 0)
(3.47191e-05 -0.0279945 0)
(1.40218e-07 -0.0279784 0)
(3.77375e-07 -0.0279783 0)
(6.33175e-07 -0.0279783 0)
(9.06904e-07 -0.0279783 0)
(1.1973e-06 -0.0279783 0)
(1.50253e-06 -0.0279783 0)
(1.8202e-06 -0.0279783 0)
(2.14739e-06 -0.0279783 0)
(2.48069e-06 -0.0279783 0)
(2.81628e-06 -0.0279783 0)
(3.15007e-06 -0.0279783 0)
(3.47779e-06 -0.0279783 0)
(3.79513e-06 -0.0279783 0)
(4.09793e-06 -0.0279783 0)
(4.38228e-06 -0.0279784 0)
(4.64472e-06 -0.0279784 0)
(4.8823e-06 -0.0279784 0)
(5.09275e-06 -0.0279785 0)
(5.27453e-06 -0.0279785 0)
(5.42686e-06 -0.0279786 0)
(5.54975e-06 -0.0279786 0)
(5.64397e-06 -0.0279787 0)
(5.71099e-06 -0.0279787 0)
(5.75294e-06 -0.0279788 0)
(5.77243e-06 -0.0279787 0)
)
;

boundaryField
{
    BotWall
    {
        type            fixedValue;
        value           uniform (0 0 0);
    }
    FreeStream
    {
        type            zeroGradient;
    }
    FrontNBack
    {
        type            empty;
    }
    LeftSide
    {
        type            symmetryPlane;
    }
    RightSide
    {
        type            symmetryPlane;
    }
    procBoundary4to1
    {
        type            processor;
        value           nonuniform List<vector> 
50
(
(4.2739e-05 -0.0279259 0)
(4.16316e-05 -0.0279262 0)
(4.05664e-05 -0.0279265 0)
(3.95443e-05 -0.0279267 0)
(3.85657e-05 -0.027927 0)
(3.76305e-05 -0.0279273 0)
(3.67387e-05 -0.0279276 0)
(3.58896e-05 -0.0279278 0)
(3.50824e-05 -0.0279281 0)
(3.4316e-05 -0.0279283 0)
(3.35894e-05 -0.0279286 0)
(3.29011e-05 -0.0279288 0)
(3.22496e-05 -0.0279291 0)
(3.16333e-05 -0.0279293 0)
(3.10507e-05 -0.0279296 0)
(3.04999e-05 -0.0279298 0)
(2.99793e-05 -0.02793 0)
(2.94871e-05 -0.0279302 0)
(2.90215e-05 -0.0279305 0)
(2.85809e-05 -0.0279307 0)
(2.81636e-05 -0.0279309 0)
(2.77679e-05 -0.0279311 0)
(2.73923e-05 -0.0279313 0)
(2.70352e-05 -0.0279316 0)
(2.66953e-05 -0.0279318 0)
(2.63711e-05 -0.027932 0)
(2.60613e-05 -0.0279322 0)
(2.57648e-05 -0.0279324 0)
(2.54803e-05 -0.0279326 0)
(2.52069e-05 -0.0279328 0)
(2.49436e-05 -0.027933 0)
(2.46894e-05 -0.0279332 0)
(2.44435e-05 -0.0279334 0)
(2.42052e-05 -0.0279336 0)
(2.39738e-05 -0.0279338 0)
(2.37487e-05 -0.027934 0)
(2.35292e-05 -0.0279342 0)
(2.33149e-05 -0.0279344 0)
(2.31054e-05 -0.0279346 0)
(2.29001e-05 -0.0279348 0)
(2.26989e-05 -0.027935 0)
(2.25013e-05 -0.0279352 0)
(2.2307e-05 -0.0279354 0)
(2.21159e-05 -0.0279356 0)
(2.19277e-05 -0.0279357 0)
(2.17422e-05 -0.0279359 0)
(2.15593e-05 -0.0279361 0)
(2.13787e-05 -0.0279363 0)
(2.12005e-05 -0.0279365 0)
(2.10245e-05 -0.0279367 0)
)
;
    }
    procBoundary4to2
    {
        type            processor;
        value           nonuniform List<vector> 
75
(
(6.57116e-07 -0.000287228 0)
(1.92963e-06 0.00106964 0)
(4.08373e-06 -0.00406074 0)
(5.92272e-06 -0.030365 0)
(1.19224e-05 -0.0370035 0)
(1.81871e-05 -0.0289983 0)
(2.41346e-05 -0.0274791 0)
(2.96842e-05 -0.0276154 0)
(3.4821e-05 -0.0278664 0)
(3.9562e-05 -0.027929 0)
(4.39191e-05 -0.0279223 0)
(4.79007e-05 -0.0279131 0)
(5.15152e-05 -0.027911 0)
(5.47721e-05 -0.0279116 0)
(5.7682e-05 -0.0279123 0)
(6.02559e-05 -0.0279127 0)
(6.25059e-05 -0.0279131 0)
(6.44443e-05 -0.0279134 0)
(6.60844e-05 -0.0279138 0)
(6.74398e-05 -0.0279142 0)
(6.85244e-05 -0.0279146 0)
(6.93526e-05 -0.027915 0)
(6.99392e-05 -0.0279154 0)
(7.02989e-05 -0.0279158 0)
(7.04468e-05 -0.0279162 0)
(7.03979e-05 -0.0279166 0)
(7.01672e-05 -0.027917 0)
(6.97696e-05 -0.0279175 0)
(6.92199e-05 -0.0279179 0)
(6.85325e-05 -0.0279183 0)
(6.77217e-05 -0.0279187 0)
(6.68011e-05 -0.0279191 0)
(6.57842e-05 -0.0279195 0)
(6.46838e-05 -0.0279199 0)
(6.35123e-05 -0.0279203 0)
(6.22816e-05 -0.0279207 0)
(6.10027e-05 -0.0279211 0)
(5.96863e-05 -0.0279215 0)
(5.83423e-05 -0.0279219 0)
(5.69799e-05 -0.0279222 0)
(5.56076e-05 -0.0279226 0)
(5.42333e-05 -0.027923 0)
(5.28641e-05 -0.0279233 0)
(5.15067e-05 -0.0279237 0)
(5.01667e-05 -0.027924 0)
(4.88493e-05 -0.0279243 0)
(4.75591e-05 -0.0279247 0)
(4.62999e-05 -0.027925 0)
(4.50751e-05 -0.0279253 0)
(4.38874e-05 -0.0279256 0)
(2.89634e-06 -0.0279776 0)
(2.57885e-06 -0.0279776 0)
(2.23486e-06 -0.0279775 0)
(1.86519e-06 -0.0279775 0)
(1.47144e-06 -0.0279775 0)
(1.05602e-06 -0.0279775 0)
(6.22208e-07 -0.0279774 0)
(1.74029e-07 -0.0279774 0)
(-2.83761e-07 -0.0279774 0)
(-7.45809e-07 -0.0279774 0)
(-1.20632e-06 -0.0279774 0)
(-1.65923e-06 -0.0279774 0)
(-2.09841e-06 -0.0279774 0)
(-2.5179e-06 -0.0279774 0)
(-2.91212e-06 -0.0279775 0)
(-3.27608e-06 -0.0279775 0)
(-3.60557e-06 -0.0279775 0)
(-3.89731e-06 -0.0279775 0)
(-4.14911e-06 -0.0279776 0)
(-4.35985e-06 -0.0279776 0)
(-4.52957e-06 -0.0279776 0)
(-4.65939e-06 -0.0279777 0)
(-4.75147e-06 -0.0279777 0)
(-4.80884e-06 -0.0279778 0)
(-4.83528e-06 -0.0279777 0)
)
;
    }
    procBoundary4to3
    {
        type            processor;
        value           uniform (3.44197e-05 -0.0279944 0);
    }
    procBoundary4to5
    {
        type            processor;
        value           uniform (-7.80899e-08 -0.0279784 0);
    }
    procBoundary4to6
    {
        type            processor;
        value           nonuniform List<vector> 
75
(
(-8.46601e-05 -0.0280189 0)
(-8.4636e-05 -0.0280185 0)
(-8.44215e-05 -0.0280181 0)
(-8.40328e-05 -0.0280177 0)
(-8.34856e-05 -0.0280173 0)
(-8.27955e-05 -0.0280169 0)
(-8.19774e-05 -0.0280165 0)
(-8.1046e-05 -0.0280162 0)
(-8.00152e-05 -0.0280158 0)
(-7.88984e-05 -0.0280154 0)
(-7.77085e-05 -0.028015 0)
(-7.64576e-05 -0.0280146 0)
(-7.51571e-05 -0.0280142 0)
(-7.38178e-05 -0.0280139 0)
(-7.24498e-05 -0.0280135 0)
(-7.10623e-05 -0.0280131 0)
(-6.96639e-05 -0.0280128 0)
(-6.82624e-05 -0.0280124 0)
(-6.6865e-05 -0.0280121 0)
(-6.54779e-05 -0.0280117 0)
(-6.4107e-05 -0.0280114 0)
(-6.27572e-05 -0.0280111 0)
(-6.1433e-05 -0.0280107 0)
(-6.01379e-05 -0.0280104 0)
(-5.88752e-05 -0.0280101 0)
(-5.76474e-05 -0.0280098 0)
(-5.64566e-05 -0.0280095 0)
(-5.53043e-05 -0.0280092 0)
(-5.41916e-05 -0.0280089 0)
(-5.31192e-05 -0.0280086 0)
(-5.20874e-05 -0.0280083 0)
(-5.10961e-05 -0.028008 0)
(-5.0145e-05 -0.0280077 0)
(-4.92335e-05 -0.0280074 0)
(-4.83606e-05 -0.0280072 0)
(-4.75254e-05 -0.0280069 0)
(-4.67266e-05 -0.0280066 0)
(-4.59627e-05 -0.0280064 0)
(-4.52325e-05 -0.0280061 0)
(-4.45341e-05 -0.0280059 0)
(-4.38662e-05 -0.0280056 0)
(-4.32269e-05 -0.0280053 0)
(-4.26146e-05 -0.0280051 0)
(-4.20277e-05 -0.0280049 0)
(-4.14644e-05 -0.0280046 0)
(-4.09232e-05 -0.0280044 0)
(-4.04023e-05 -0.0280041 0)
(-3.99004e-05 -0.0280039 0)
(-3.94158e-05 -0.0280036 0)
(-3.89473e-05 -0.0280034 0)
(-3.84933e-05 -0.0280032 0)
(-3.80528e-05 -0.028003 0)
(-3.76244e-05 -0.0280027 0)
(-3.7207e-05 -0.0280025 0)
(-3.67996e-05 -0.0280023 0)
(-3.64013e-05 -0.028002 0)
(-3.60111e-05 -0.0280018 0)
(-3.56282e-05 -0.0280016 0)
(-3.52518e-05 -0.0280014 0)
(-3.48814e-05 -0.0280012 0)
(-3.45162e-05 -0.0280009 0)
(-3.41558e-05 -0.0280007 0)
(-3.37995e-05 -0.0280005 0)
(-3.34471e-05 -0.0280003 0)
(-3.3098e-05 -0.0280001 0)
(-3.27519e-05 -0.0279999 0)
(-3.24086e-05 -0.0279997 0)
(-3.20677e-05 -0.0279995 0)
(-3.17291e-05 -0.0279992 0)
(-3.13924e-05 -0.027999 0)
(-3.10577e-05 -0.0279988 0)
(-3.07246e-05 -0.0279986 0)
(-3.03932e-05 -0.0279984 0)
(-3.00633e-05 -0.0279982 0)
(-2.97348e-05 -0.027998 0)
)
;
    }
    procBoundary4to7
    {
        type            processor;
        value           nonuniform List<vector> 
50
(
(-6.19067e-07 -0.00029504 0)
(-1.81934e-06 0.00110154 0)
(-3.7905e-06 -0.00410536 0)
(-5.79462e-06 -0.03036 0)
(-1.31447e-05 -0.0373067 0)
(-2.05775e-05 -0.0291264 0)
(-2.7608e-05 -0.0275856 0)
(-3.41722e-05 -0.0277241 0)
(-4.02615e-05 -0.0279793 0)
(-4.58943e-05 -0.0280425 0)
(-5.10844e-05 -0.0280353 0)
(-5.58429e-05 -0.0280254 0)
(-6.01811e-05 -0.0280228 0)
(-6.41108e-05 -0.0280228 0)
(-6.76452e-05 -0.0280228 0)
(-7.07976e-05 -0.0280226 0)
(-7.35824e-05 -0.0280223 0)
(-7.60143e-05 -0.0280219 0)
(-7.81084e-05 -0.0280216 0)
(-7.98804e-05 -0.0280212 0)
(-8.13463e-05 -0.0280209 0)
(-8.25224e-05 -0.0280205 0)
(-8.34252e-05 -0.0280201 0)
(-8.40713e-05 -0.0280197 0)
(-8.44774e-05 -0.0280193 0)
(-1.59413e-06 -0.0279677 0)
(-1.40342e-06 -0.0279677 0)
(-1.19781e-06 -0.0279677 0)
(-9.7794e-07 -0.0279677 0)
(-7.44877e-07 -0.0279677 0)
(-5.00135e-07 -0.0279676 0)
(-2.4567e-07 -0.0279676 0)
(1.61491e-08 -0.0279676 0)
(2.82579e-07 -0.0279675 0)
(5.50572e-07 -0.0279675 0)
(8.16858e-07 -0.0279674 0)
(1.07805e-06 -0.0279674 0)
(1.33073e-06 -0.0279673 0)
(1.57163e-06 -0.0279673 0)
(1.79765e-06 -0.0279672 0)
(2.00609e-06 -0.0279672 0)
(2.19464e-06 -0.0279671 0)
(2.36153e-06 -0.027967 0)
(2.50557e-06 -0.027967 0)
(2.62619e-06 -0.0279669 0)
(2.72343e-06 -0.0279668 0)
(2.79792e-06 -0.0279667 0)
(2.85085e-06 -0.0279667 0)
(2.8839e-06 -0.0279666 0)
(2.89915e-06 -0.0279664 0)
)
;
    }
}


// ************************************************************************* //
