/*--------------------------------*- C++ -*----------------------------------*\
| =========                 |                                                 |
| \\      /  F ield         | OpenFOAM: The Open Source CFD Toolbox           |
|  \\    /   O peration     | Version:  2.4.0                                 |
|   \\  /    A nd           | Web:      www.OpenFOAM.org                      |
|    \\/     M anipulation  |                                                 |
\*---------------------------------------------------------------------------*/
FoamFile
{
    version     2.0;
    format      ascii;
    class       volScalarField;
    location    "4.3";
    object      H;
}
// * * * * * * * * * * * * * * * * * * * * * * * * * * * * * * * * * * * * * //

dimensions      [0 2 -2 0 0 0 0];

internalField   nonuniform List<scalar> 
8000
(
-11387.8
-9699.61
-8005.44
-6312.58
-4640.91
-3028.01
-1536.29
-11.3331
-12.4312
-9.26196
-7.17802
-5.67049
-4.53566
-3.72705
-3.15184
-2.68068
-2.31204
-2.02458
-1.79153
-1.59907
-1.43587
-1.29348
-1.16602
-1.04934
-0.940622
-0.838305
-0.741466
-0.649836
-0.563709
-0.483795
-0.410946
-0.345925
-0.289258
-0.241126
-0.201341
-0.169416
-0.144514
-0.125566
-0.111169
-0.100351
-0.092151
-0.0862706
-0.0822181
-0.0796205
-0.0782713
-0.0780569
-0.0789061
-0.0808333
-0.0838854
-0.0882355
-11272.6
-9372.58
-7509.7
-5689.67
-3890.26
-2057.96
-293.246
-4.39866
-0.848486
-1.36208
-1.29535
-1.14242
-0.903903
-0.682264
-0.519906
-0.414549
-0.357216
-0.343738
-0.329568
-0.309828
-0.288431
-0.268022
-0.249421
-0.232665
-0.217513
-0.203642
-0.190744
-0.1785
-0.166484
-0.154196
-0.141426
-0.128331
-0.115314
-0.102867
-0.091342
-0.0810238
-0.0721306
-0.0647903
-0.0588
-0.0538566
-0.0500747
-0.0471952
-0.0450698
-0.0435906
-0.0426607
-0.0422008
-0.0421186
-0.0423629
-0.0429795
-0.0439876
-11266.7
-9369.48
-7554.64
-5866.59
-4342.25
-3013.34
-1909.82
-1060.57
-460.298
-3.47344
-0.777487
-0.59936
-0.437045
-0.298172
-0.195899
-0.108747
-0.0297859
-0.202241
-0.24939
-0.238787
-0.212806
-0.185306
-0.15959
-0.136399
-0.11631
-0.100395
-0.0901658
-0.0882424
-0.0987058
-0.108912
-0.106486
-0.0981959
-0.0881104
-0.0782698
-0.0695698
-0.062395
-0.0566621
-0.0519879
-0.0482248
-0.0450363
-0.0422241
-0.0398133
-0.0378139
-0.0362419
-0.0351051
-0.0342826
-0.0338484
-0.033781
-0.0340916
-0.0347952
-11364.5
-9662.76
-8043.65
-6551.22
-5217.74
-4062.56
-3092.09
-2301.1
-1676.08
-1196.72
-839.45
-578.487
-390.167
-254.238
-154.879
-80.1267
-18.8915
-0.566577
-0.414889
-0.365317
-0.319605
-0.276611
-0.235784
-0.19609
-0.15611
-0.114788
-0.0697485
-0.0179529
-0.00167701
-0.135263
-0.137729
-0.119696
-0.098811
-0.0793865
-0.0635348
-0.0542912
-0.0558448
-0.0604613
-0.0581744
-0.0524658
-0.046047
-0.040439
-0.0362127
-0.033445
-0.0317356
-0.030542
-0.0297428
-0.0293911
-0.0294952
-0.0300484
-11483.7
-10012.2
-8600.9
-7282.82
-6083.26
-5018.68
-4096.47
-3315.64
-2668.39
-2142.04
-1721
-1388.59
-1128.45
-925.623
-767.144
-642.291
-542.518
-461.238
-393.365
-335.185
-284.002
-237.88
-195.452
-155.785
-118.245
-82.3848
-47.3256
-11.1848
-0.37501
-0.275111
-0.233253
-0.192336
-0.152048
-0.11185
-0.0694284
-0.0251202
-0.00117486
-0.0762627
-0.0758559
-0.0619296
-0.0465296
-0.0343819
-0.0334605
-0.0325222
-0.0298157
-0.0267077
-0.024964
-0.0243881
-0.0242557
-0.0243932
-11585.9
-10312.6
-9082.04
-7918.21
-6840.09
-5861.17
-4989.17
-4226.31
-3570.02
-3013.9
-2548.84
-2164.11
-1848.39
-1590.55
-1380.19
-1208.11
-1066.37
-948.378
-848.789
-763.357
-688.776
-622.505
-562.613
-507.65
-456.527
-408.433
-362.765
-319.077
-277.072
-236.46
-197.08
-158.852
-121.769
-85.7697
-50.3424
-16.7142
-0.305035
-0.173514
-0.131382
-0.0917584
-0.0513747
-0.00104559
-0.0314115
-0.0372185
-0.0318981
-0.0243941
-0.0231141
-0.0222087
-0.0207538
-0.0202401
-11664.4
-10544.4
-9456.13
-8417.79
-7444.12
-6546.13
-5730.86
-5001.54
-4357.94
-3796.91
-3313.09
-2899.55
-2548.48
-2251.78
-2001.5
-1790.2
-1611.15
-1458.48
-1327.15
-1212.96
-1112.46
-1022.86
-941.913
-867.847
-799.264
-735.074
-674.434
-616.705
-561.414
-508.219
-456.896
-407.305
-359.384
-313.12
-268.539
-225.691
-184.661
-145.485
-108.278
-73.0184
-38.5286
-0.355066
-0.10926
-0.0699644
-0.0357529
-0.000612978
-0.0143164
-0.0222784
-0.0251684
-0.02482
-11728.2
-10733.3
-9762.86
-8830.93
-7949.12
-7126.38
-6368.88
-5680.01
-5060.64
-4509.42
-4023.2
-3597.49
-3226.89
-2905.54
-2627.47
-2386.84
-2178.2
-1996.56
-1837.49
-1697.15
-1572.22
-1459.88
-1357.78
-1263.95
-1176.76
-1094.89
-1017.26
-942.997
-871.451
-802.124
-734.677
-668.905
-604.728
-542.169
-481.345
-422.447
-365.727
-311.473
-259.997
-211.615
-166.644
-125.424
-88.3437
-55.5089
-26.4731
-0.187502
-0.0151124
-0.0298831
-0.0339989
-0.0336564
-11783.1
-10896.2
-10029
-9192.4
-8395.64
-7645.86
-6948.15
-6305.59
-5719.37
-5189.01
-4712.67
-4287.44
-3909.63
-3575.07
-3279.37
-3018.14
-2787.08
-2582.19
-2399.76
-2236.41
-2089.13
-1955.27
-1832.48
-1718.71
-1612.19
-1511.43
-1415.12
-1322.23
-1231.88
-1143.41
-1056.36
-970.431
-885.487
-801.562
-718.834
-637.615
-558.334
-481.521
-407.79
-337.819
-272.329
-212.069
-157.767
-110.081
-69.5941
-36.5145
-10.6826
-0.059634
-0.0547943
-0.0456317
-11830.2
-11036.2
-10258.1
-9504.97
-8784.08
-8101.22
-7460.57
-6864.73
-6314.91
-5811.03
-5352
-4935.88
-4560.12
-4221.75
-3917.53
-3644.16
-3398.3
-3176.75
-2976.4
-2794.36
-2627.94
-2474.64
-2332.19
-2198.55
-2071.87
-1950.53
-1833.1
-1718.39
-1605.42
-1493.42
-1381.85
-1270.38
-1158.91
-1047.55
-936.625
-826.65
-718.337
-612.558
-510.333
-412.806
-321.154
-236.888
-161.166
-95.2597
-41.0848
-0.228727
-0.00180661
-0.0190711
-0.0260067
-0.0257757
-11871.4
-11158.8
-10459.4
-9780.52
-9128.08
-8506.76
-7919.91
-7369.71
-6857.24
-6382.64
-5945.26
-5543.8
-5176.49
-4841.15
-4535.39
-4256.63
-4002.23
-3769.54
-3555.93
-3358.84
-3175.81
-3004.51
-2842.75
-2688.5
-2539.89
-2395.25
-2253.1
-2112.25
-1971.68
-1830.62
-1688.54
-1545.21
-1400.66
-1255.19
-1109.37
-964.069
-820.396
-679.685
-543.433
-413.566
-291.5
-180.897
-80.3539
-0.467583
-0.00430115
-5.45842e-05
-0.00262064
-0.00509495
-0.00777084
-0.0108162
-11906.4
-11263.1
-10630.9
-10015.7
-9422.47
-8854.99
-8316.05
-7807.52
-7330.4
-6884.93
-6470.71
-6086.79
-5731.82
-5404.07
-5101.57
-4822.14
-4563.48
-4323.21
-4098.93
-3888.27
-3688.88
-3498.55
-3315.14
-3136.7
-2961.42
-2787.73
-2614.23
-2439.79
-2263.53
-2084.85
-1903.44
-1719.3
-1532.79
-1344.59
-1155.74
-967.673
-782.266
-601.593
-426.882
-264.907
-104.557
-0.596336
-0.00662913
-8.4223e-05
-0.00287648
-0.00534001
-0.00822656
-0.0117299
-0.0152708
-0.0183093
-11935.3
-11349.3
-10772.8
-10211
-9667.95
-9147
-8650.44
-8179.83
-7735.96
-7318.98
-6928.47
-6563.52
-6222.8
-5904.66
-5607.2
-5328.32
-5065.79
-4817.3
-4580.56
-4353.27
-4133.22
-3918.33
-3706.62
-3496.31
-3285.82
-3073.79
-2859.07
-2640.82
-2418.45
-2191.71
-1960.66
-1725.76
-1487.87
-1248.21
-1008.48
-771.397
-541.107
-322.124
-93.0132
-0.562843
-0.00808028
-0.00490042
-0.00506623
-0.00842703
-0.0127088
-0.0166317
-0.0200859
-0.0233652
-0.0266915
-0.0300821
-11959.4
-11421.3
-10892
-10376
-9877.09
-9397.81
-8940.03
-8504.78
-8092.42
-7702.69
-7334.78
-6987.49
-6659.23
-6348.16
-6052.23
-5769.29
-5497.09
-5233.43
-4976.13
-4723.13
-4472.48
-4222.41
-3971.33
-3717.86
-3460.83
-3199.31
-2932.62
-2660.32
-2382.3
-2098.75
-1810.22
-1517.69
-1222.96
-926.608
-631.685
-339.477
-73.4904
-0.468249
-0.00810082
-0.0122448
-0.012617
-0.0150674
-0.0180847
-0.0212109
-0.0248898
-0.0286422
-0.0323188
-0.0357727
-0.0388946
-0.041635
-11981
-11486.1
-10999.5
-10525.3
-10066.4
-9624.78
-9201.49
-8796.8
-8410.37
-8041.31
-7688.3
-7349.69
-7023.6
-6708.02
-6400.84
-6099.98
-5803.4
-5509.2
-5215.62
-4921.08
-4624.23
-4323.9
-4019.17
-3709.31
-3393.8
-3072.33
-2744.78
-2411.24
-2072.04
-1728.23
-1380.54
-1029.14
-683.983
-320.876
-1.8567
-0.0268104
-0.00420019
-0.0131162
-0.0166898
-0.0205417
-0.023375
-0.0272563
-0.0312677
-0.0350521
-0.0385231
-0.0416315
-0.0443405
-0.0466501
-0.0486035
-0.0502442
-11999.5
-11541.1
-11089.4
-10647.7
-10218
-9801.5
-9398.41
-9008.35
-8630.36
-8263.07
-7904.79
-7553.64
-7207.66
-6864.89
-6523.48
-6181.7
-5838.04
-5491.24
-5140.3
-4784.51
-4423.41
-4056.79
-3684.66
-3307.21
-2924.74
-2537.57
-2146.25
-1751.71
-1353.32
-960.07
-555.064
-100.997
-0.632845
-0.0192763
-0.01554
-0.0141423
-0.0182686
-0.0223418
-0.0278797
-0.0330277
-0.0375665
-0.0414566
-0.0447081
-0.0474617
-0.0497713
-0.051658
-0.0531351
-0.0542281
-0.0549802
-0.0554371
-12012.1
-11577.9
-11147.7
-10723.4
-10306.1
-9896.06
-9492.96
-9095.89
-8703.54
-8314.31
-7926.46
-7538.21
-7147.86
-6753.89
-6355.04
-5950.36
-5539.3
-5121.66
-4697.6
-4267.64
-3832.59
-3393.45
-2951.44
-2507.77
-2063.62
-1617.88
-1174.51
-739.176
-266.735
-1.53755
-0.0335153
-0.0112967
-0.0242349
-0.0300426
-0.0313487
-0.0354605
-0.0393394
-0.0429438
-0.0462212
-0.0490467
-0.0515059
-0.0535653
-0.0551877
-0.0563068
-0.0569603
-0.0572201
-0.057174
-0.0568647
-0.0563225
-0.0555975
-12017.1
-11591.7
-11167.2
-10743.9
-10321.9
-9900.59
-9479
-9055.92
-8629.88
-8199.31
-7762.69
-7318.65
-6866.12
-6404.39
-5933.25
-5452.96
-4964.32
-4468.62
-3967.54
-3463.11
-2957.56
-2453.25
-1952.9
-1457.41
-974.583
-455.281
-2.50656
-0.0445355
-0.0190463
-0.0356809
-0.0386878
-0.0374987
-0.0410002
-0.0445541
-0.0479333
-0.0510687
-0.053786
-0.0561401
-0.058049
-0.0594068
-0.0601908
-0.0604182
-0.0600818
-0.0592852
-0.0580915
-0.0566551
-0.0550227
-0.0531808
-0.0511928
-0.0492169
-12014.3
-11582.1
-11147.9
-10710.2
-10268.1
-9819.99
-9364.57
-8900.26
-8425.52
-7938.97
-7439.44
-6926.23
-6399.13
-5858.58
-5305.72
-4742.42
-4171.23
-3595.23
-3017.87
-2442.62
-1872.58
-1311.15
-764.434
-176.321
-1.06124
-0.0317506
-0.0371205
-0.0319298
-0.0341438
-0.0404993
-0.0472955
-0.0530945
-0.0576722
-0.0609963
-0.0633727
-0.064905
-0.0655646
-0.0653579
-0.0643785
-0.0627671
-0.0606044
-0.0579927
-0.0552354
-0.0524126
-0.0496795
-0.0469747
-0.0445179
-0.0423561
-0.0404734
-0.0387576
-12004.5
-11551.8
-11094.4
-10629.5
-10154.8
-9668.39
-9168.08
-8652.05
-8118.67
-7566.65
-6995.22
-6404.28
-5794.61
-5167.99
-4527.28
-3876.47
-3220.46
-2564.8
-1915.25
-1277.89
-556.057
-3.54154
-0.0539981
-0.0226155
-0.0545667
-0.0701932
-0.0707006
-0.0750889
-0.077973
-0.0789341
-0.0783789
-0.0769246
-0.074836
-0.0719952
-0.0685599
-0.0647739
-0.0608307
-0.0570477
-0.0535818
-0.050526
-0.0478261
-0.0454887
-0.0435312
-0.0419268
-0.0405444
-0.039322
-0.0383211
-0.0375781
-0.0369373
-0.0364216
-0.0942941
-0.101716
-0.109113
-0.115178
-0.119507
-0.12173
-0.122021
-0.120555
-0.117536
-0.113132
-0.107544
-0.10092
-0.0936536
-0.0860913
-0.0785353
-0.0712521
-0.0644218
-0.05813
-0.0523969
-0.0472053
-0.0425273
-0.038328
-0.034562
-0.0311759
-0.0281162
-0.0253367
-0.0228004
-0.020479
-0.0183505
-0.016398
-0.0146081
-0.0129702
-0.0114751
-0.0101147
-0.00888161
-0.00776854
-0.00676827
-0.00587352
-0.00507694
-0.00437115
-0.00374878
-0.00320257
-0.00272543
-0.00231055
-0.00195143
-0.001642
-0.00137659
-0.00115016
-0.000958584
-0.000799932
-0.0454939
-0.0475688
-0.0503306
-0.0541199
-0.0584892
-0.0631387
-0.0678649
-0.0724016
-0.0764181
-0.0797102
-0.0823185
-0.0838902
-0.0844279
-0.0839328
-0.0823188
-0.079595
-0.0759229
-0.071567
-0.0668031
-0.0618833
-0.0570552
-0.0524178
-0.0480149
-0.0439087
-0.0401029
-0.0365826
-0.033328
-0.0303186
-0.0275346
-0.0249581
-0.0225732
-0.0203661
-0.0183251
-0.0164402
-0.0147026
-0.0131048
-0.0116399
-0.0103015
-0.00908329
-0.00797903
-0.0069824
-0.00608696
-0.00528612
-0.00457319
-0.00394148
-0.00338433
-0.0028953
-0.0024684
-0.00209898
-0.00178673
-0.0358945
-0.0373784
-0.0392205
-0.0414179
-0.0438829
-0.0466056
-0.0496082
-0.0529706
-0.0566831
-0.0604555
-0.0640405
-0.0672863
-0.0700371
-0.0721697
-0.0735521
-0.074073
-0.0736772
-0.0724039
-0.0703725
-0.0677801
-0.0648649
-0.0616519
-0.0582817
-0.0547731
-0.0512453
-0.0477576
-0.0443504
-0.0410583
-0.0379037
-0.0348989
-0.0320496
-0.0293567
-0.0268186
-0.0244324
-0.0221942
-0.0201
-0.0181458
-0.0163276
-0.0146415
-0.0130832
-0.0116489
-0.0103339
-0.00913357
-0.00804284
-0.00705625
-0.00616802
-0.00537223
-0.00466325
-0.00403729
-0.00349836
-0.0310477
-0.0324879
-0.0342867
-0.0364362
-0.0388757
-0.0415165
-0.0442463
-0.0469721
-0.0496576
-0.052288
-0.0548583
-0.0571832
-0.0590846
-0.060594
-0.0618297
-0.0627058
-0.0631962
-0.0632834
-0.0630025
-0.0623045
-0.0612358
-0.0598423
-0.0581835
-0.056286
-0.0541768
-0.0518787
-0.0494253
-0.0468592
-0.044223
-0.0415563
-0.0388933
-0.0362631
-0.0336891
-0.0311896
-0.0287785
-0.0264662
-0.02426
-0.0221647
-0.0201836
-0.0183183
-0.0165696
-0.0149371
-0.0134195
-0.0120149
-0.0107207
-0.00953351
-0.00844966
-0.00746558
-0.00658022
-0.00580452
-0.0248368
-0.025604
-0.0266593
-0.0279165
-0.0293965
-0.0310251
-0.0327539
-0.0344424
-0.0360531
-0.0376558
-0.0391761
-0.0406464
-0.0421017
-0.0434696
-0.0447406
-0.0458055
-0.0468468
-0.0477735
-0.0483515
-0.0486212
-0.0487845
-0.0488152
-0.0486601
-0.0483023
-0.0477254
-0.0469206
-0.0458858
-0.04463
-0.0431723
-0.0415383
-0.0397586
-0.0378662
-0.0358946
-0.033875
-0.0318359
-0.029802
-0.0277938
-0.0258284
-0.0239196
-0.0220779
-0.0203117
-0.0186271
-0.0170285
-0.0155188
-0.0140998
-0.0127721
-0.0115355
-0.0103902
-0.0093394
-0.00840183
-0.0203563
-0.0206369
-0.0210108
-0.0214287
-0.0219121
-0.0225065
-0.0231755
-0.0239098
-0.0247023
-0.0255505
-0.0264671
-0.0274454
-0.0283996
-0.0293882
-0.0304058
-0.0313911
-0.0323901
-0.0334905
-0.0345891
-0.0356092
-0.036576
-0.0374444
-0.0381274
-0.038613
-0.0388819
-0.0390334
-0.0389901
-0.0387427
-0.0382927
-0.0376387
-0.0367919
-0.0357727
-0.0346062
-0.0333191
-0.0319373
-0.0304859
-0.0289874
-0.0274621
-0.0259278
-0.0243996
-0.0228903
-0.0214107
-0.0199697
-0.0185743
-0.0172303
-0.0159421
-0.0147135
-0.0135483
-0.012454
-0.0114566
-0.022942
-0.021418
-0.020885
-0.0209169
-0.0211791
-0.0215671
-0.022048
-0.0225983
-0.0231943
-0.0238215
-0.024458
-0.0250686
-0.025613
-0.0261525
-0.0266643
-0.0271503
-0.027617
-0.0280821
-0.0285739
-0.0290869
-0.0296121
-0.0301244
-0.0306095
-0.0310769
-0.0315488
-0.0320228
-0.0324689
-0.03285
-0.0331155
-0.0332194
-0.0331417
-0.0328812
-0.0324495
-0.0318653
-0.0311499
-0.0303252
-0.0294118
-0.0284275
-0.0273879
-0.026307
-0.0251973
-0.0240703
-0.0229359
-0.0218028
-0.0206784
-0.0195691
-0.0184808
-0.0174194
-0.0163951
-0.0154379
-0.0317084
-0.0290107
-0.0258966
-0.0238601
-0.0232076
-0.0232657
-0.0236193
-0.0241392
-0.024788
-0.0255379
-0.0263542
-0.0272019
-0.0280036
-0.0287811
-0.0295004
-0.03015
-0.0307133
-0.0311548
-0.0314825
-0.0316979
-0.0318305
-0.0318842
-0.0318637
-0.0317914
-0.0316964
-0.0316131
-0.0315515
-0.0314871
-0.0314489
-0.0314259
-0.0313973
-0.0313393
-0.0312347
-0.0310713
-0.0308227
-0.0304967
-0.0300844
-0.0295983
-0.0290424
-0.0284206
-0.0277396
-0.0270073
-0.0262319
-0.0254216
-0.0245843
-0.0237271
-0.0228566
-0.0219796
-0.0211067
-0.0202687
-0.0385951
-0.0340074
-0.030177
-0.0268374
-0.0251672
-0.0249278
-0.0253578
-0.0260763
-0.0269655
-0.0279866
-0.0290997
-0.0302489
-0.031374
-0.0324602
-0.0334638
-0.0343311
-0.0350366
-0.0355956
-0.0359934
-0.0362334
-0.0363276
-0.0362882
-0.0361359
-0.0358943
-0.0356035
-0.0352064
-0.0347548
-0.0342605
-0.0337341
-0.0332286
-0.0327537
-0.0323202
-0.0319324
-0.0315888
-0.0312907
-0.0309999
-0.0307192
-0.0304388
-0.0301453
-0.0298266
-0.0294754
-0.0290863
-0.0286611
-0.0281926
-0.0276807
-0.0271267
-0.0265366
-0.0259148
-0.02527
-0.0246292
-0.0240644
-0.0231401
-0.0224797
-0.0217394
-0.0220141
-0.0232391
-0.0248041
-0.0264725
-0.0281769
-0.0298922
-0.0315935
-0.0332398
-0.0347802
-0.0362025
-0.0374659
-0.0385268
-0.0393819
-0.0400183
-0.040441
-0.0406428
-0.0406374
-0.0404359
-0.0400786
-0.0395785
-0.0389607
-0.0382554
-0.0374818
-0.0366203
-0.0357457
-0.0348816
-0.0340378
-0.0332274
-0.0324668
-0.0317765
-0.0311736
-0.0306689
-0.0302635
-0.0299439
-0.0296667
-0.0294348
-0.0292257
-0.0290084
-0.028793
-0.0285677
-0.0283196
-0.0280414
-0.0277294
-0.0273827
-0.0270054
-0.0266141
-0.0140247
-0.0168964
-0.018825
-0.0204194
-0.0225704
-0.0249484
-0.0272902
-0.0295478
-0.0316992
-0.0337317
-0.0356415
-0.0374242
-0.0390522
-0.0405352
-0.0418471
-0.0429714
-0.0439002
-0.0446182
-0.0451065
-0.0453697
-0.0453928
-0.0451802
-0.0447479
-0.0441212
-0.0433291
-0.0424024
-0.0413895
-0.0403238
-0.0391941
-0.0380287
-0.0368297
-0.035679
-0.0345773
-0.033541
-0.0326004
-0.031772
-0.0310123
-0.0303211
-0.0296989
-0.0291293
-0.0286675
-0.0282769
-0.0279449
-0.0276576
-0.0273972
-0.0271482
-0.0269035
-0.0266555
-0.0263998
-0.0261372
-0.0211416
-0.0237767
-0.0264066
-0.0291442
-0.0317493
-0.0340996
-0.0361688
-0.0379725
-0.0395822
-0.04106
-0.0424499
-0.0437661
-0.045006
-0.0461894
-0.0472942
-0.0483019
-0.0491921
-0.0499315
-0.0504975
-0.0508871
-0.0510855
-0.0510955
-0.0509072
-0.050516
-0.0499305
-0.0491561
-0.0482097
-0.0471134
-0.0458901
-0.0445739
-0.0431725
-0.0417109
-0.0402536
-0.0388423
-0.0374937
-0.0361862
-0.0349409
-0.0337837
-0.0327409
-0.0318195
-0.0309523
-0.0301262
-0.0293907
-0.0287453
-0.0281701
-0.0276593
-0.0272046
-0.026796
-0.0264239
-0.0260833
-0.0333879
-0.0364442
-0.0391596
-0.0414911
-0.043447
-0.045107
-0.0465347
-0.0477944
-0.0489328
-0.0499756
-0.0509405
-0.0518224
-0.0526279
-0.0533514
-0.0539907
-0.0545212
-0.0549336
-0.0552315
-0.0553914
-0.0554223
-0.0553105
-0.0550571
-0.0546637
-0.0541293
-0.0534544
-0.0526402
-0.0516938
-0.0506146
-0.049405
-0.0480796
-0.0466633
-0.045181
-0.0436555
-0.042115
-0.0405873
-0.0391115
-0.0377349
-0.0364102
-0.0351408
-0.0339636
-0.0328694
-0.031825
-0.0309177
-0.0301062
-0.0293834
-0.0287432
-0.0281783
-0.0276808
-0.027244
-0.0268737
-0.0440169
-0.0460479
-0.047781
-0.0492702
-0.0505583
-0.0516827
-0.0526653
-0.0535043
-0.0542103
-0.0548052
-0.0552871
-0.0556622
-0.0559372
-0.0561129
-0.0561947
-0.0561889
-0.056106
-0.0559577
-0.0557566
-0.0555208
-0.055253
-0.0548655
-0.0544122
-0.0539028
-0.0533206
-0.0526453
-0.0518924
-0.0510095
-0.0499949
-0.0488828
-0.0476741
-0.0463699
-0.044986
-0.0435622
-0.0420518
-0.0405345
-0.039052
-0.0376097
-0.0362159
-0.0348918
-0.0336849
-0.0325585
-0.0314904
-0.0305215
-0.0296413
-0.0288196
-0.0280999
-0.0274843
-0.0269436
-0.0264628
-0.0516041
-0.052707
-0.0535809
-0.05425
-0.0547392
-0.0550685
-0.055271
-0.0553778
-0.0553783
-0.0552738
-0.0550987
-0.0548435
-0.0545111
-0.0541399
-0.0537225
-0.0532526
-0.0527249
-0.0521725
-0.0515991
-0.0510086
-0.050411
-0.0497073
-0.0489766
-0.0482308
-0.0474628
-0.0466756
-0.0458015
-0.0448611
-0.0438423
-0.0428031
-0.0417464
-0.0406647
-0.0395636
-0.0384827
-0.0373311
-0.0361364
-0.0349069
-0.0337119
-0.0325862
-0.0315266
-0.0305381
-0.0296222
-0.0287902
-0.0280783
-0.027391
-0.0267745
-0.0262282
-0.0257205
-0.0252637
-0.0248844
-0.0556459
-0.0556558
-0.0555088
-0.0552195
-0.0548018
-0.0542866
-0.0537124
-0.0530489
-0.0523171
-0.0515089
-0.0506175
-0.049677
-0.0486803
-0.0476253
-0.0465426
-0.0453369
-0.0440822
-0.0428279
-0.0415939
-0.0403928
-0.0392507
-0.0381151
-0.0369932
-0.0358931
-0.0348656
-0.0339049
-0.0329635
-0.0320814
-0.031263
-0.0305267
-0.0298539
-0.0292159
-0.0285898
-0.0279928
-0.0274403
-0.0269504
-0.0265093
-0.0261401
-0.0258712
-0.0257202
-0.0256211
-0.0255546
-0.0255054
-0.0255186
-0.0255728
-0.025653
-0.0257639
-0.0259159
-0.026107
-0.0263323
-0.0547317
-0.0537366
-0.0525946
-0.0513472
-0.0500006
-0.0485424
-0.0470499
-0.0455084
-0.0439525
-0.0423439
-0.0407251
-0.0391823
-0.0377295
-0.0362996
-0.0349392
-0.0336998
-0.0325914
-0.0315205
-0.0305028
-0.0296376
-0.0288862
-0.0282341
-0.0277103
-0.0273258
-0.0270335
-0.0268222
-0.0266854
-0.0266443
-0.0267077
-0.0268491
-0.0270963
-0.0274006
-0.027747
-0.0281565
-0.028593
-0.0291057
-0.0297139
-0.0303917
-0.0311006
-0.0318237
-0.0325541
-0.033272
-0.0339072
-0.0344661
-0.0349387
-0.0353197
-0.0357402
-0.0361545
-0.0365657
-0.0369586
-0.0471853
-0.045128
-0.0431158
-0.0412277
-0.0394502
-0.0377334
-0.0361882
-0.0348099
-0.033534
-0.0322598
-0.0312274
-0.030356
-0.0296546
-0.0291332
-0.0288034
-0.0286654
-0.0286499
-0.0287901
-0.0290381
-0.0294518
-0.0300252
-0.0307148
-0.031511
-0.0323991
-0.0333165
-0.0342383
-0.0352125
-0.0362313
-0.0372288
-0.0382003
-0.0391563
-0.0401013
-0.041016
-0.0418721
-0.0426726
-0.0433896
-0.0440779
-0.0446588
-0.0452004
-0.0457465
-0.0462541
-0.0467014
-0.0470832
-0.0474071
-0.0476424
-0.047758
-0.0478937
-0.0479981
-0.0480672
-0.0480934
-0.0371979
-0.0358433
-0.0347165
-0.0337808
-0.0330005
-0.0323415
-0.0318592
-0.0315529
-0.0313521
-0.0311483
-0.0311727
-0.0313329
-0.0316463
-0.0321099
-0.0326467
-0.033308
-0.0340337
-0.0349
-0.0359086
-0.0370412
-0.0383089
-0.0396587
-0.0409859
-0.0423986
-0.0438776
-0.0453716
-0.0468653
-0.0483324
-0.0497369
-0.0510763
-0.0522784
-0.0533142
-0.0541619
-0.0548413
-0.05552
-0.0561188
-0.0566314
-0.0570881
-0.05747
-0.0577745
-0.0579984
-0.0581519
-0.0582571
-0.0583034
-0.0582833
-0.058202
-0.058101
-0.0579572
-0.0577779
-0.0575725
-0.0360029
-0.0357732
-0.0356832
-0.0357236
-0.0358885
-0.0361775
-0.0366251
-0.0372019
-0.0378138
-0.0384565
-0.0392766
-0.0402206
-0.041267
-0.0422904
-0.0433449
-0.0443778
-0.045462
-0.0466403
-0.0478602
-0.0491558
-0.0505439
-0.0519116
-0.0532779
-0.0546956
-0.0562438
-0.0578499
-0.0594902
-0.0611362
-0.0627494
-0.0642992
-0.0657762
-0.06718
-0.0684819
-0.0695586
-0.0704005
-0.0709855
-0.0714928
-0.0718951
-0.0721756
-0.0723643
-0.0724388
-0.0724165
-0.0723321
-0.072151
-0.0718677
-0.0714833
-0.0710597
-0.0705943
-0.0700894
-0.069522
-0.000706849
-0.000634694
-0.000568891
-0.000508997
-0.000454585
-0.000405251
-0.00036061
-0.000320296
-0.000283964
-0.000251289
-0.000221962
-0.000195699
-0.000172228
-0.000151301
-0.000132684
-0.000116161
-0.000101531
-8.86113e-05
-7.72312e-05
-6.72354e-05
-5.84819e-05
-5.0841e-05
-4.41952e-05
-3.8438e-05
-3.34736e-05
-2.92158e-05
-2.55878e-05
-2.25215e-05
-1.99567e-05
-1.7841e-05
-1.6129e-05
-1.47819e-05
-1.37674e-05
-1.30595e-05
-1.26376e-05
-1.24873e-05
-1.25994e-05
-1.29707e-05
-1.36036e-05
-1.45063e-05
-1.56931e-05
-1.71848e-05
-1.90086e-05
-2.11992e-05
-2.37983e-05
-2.68556e-05
-3.04286e-05
-3.45827e-05
-3.93914e-05
-4.49353e-05
-5.13014e-05
-5.85819e-05
-6.68717e-05
-7.62661e-05
-8.68569e-05
-9.87288e-05
-0.000111954
-0.000126586
-0.000142656
-0.000160166
-0.000179079
-0.000199324
-0.000220782
-0.000243292
-0.000266651
-0.000290615
-0.000314909
-0.000339236
-0.000363289
-0.000386768
-0.00040939
-0.000430907
-0.000451119
-0.000469881
-0.000487117
-0.000502811
-0.000516975
-0.000529684
-0.000541084
-0.000551324
-0.000560676
-0.000569245
-0.000577031
-0.000584272
-0.000590979
-0.000597353
-0.000603529
-0.000609538
-0.000615446
-0.000621429
-0.000627385
-0.000632976
-0.000638212
-0.000643193
-0.00064796
-0.000652505
-0.000656738
-0.000660552
-0.000663826
-0.00066645
-0.000668296
-0.000669286
-0.000669375
-0.000668567
-0.0006669
-0.000664495
-0.000661601
-0.000658691
-0.000655466
-0.000651395
-0.000647239
-0.000642924
-0.000638815
-0.000634556
-0.000629987
-0.000625049
-0.000619856
-0.000614558
-0.000609236
-0.000604112
-0.000599337
-0.00059477
-0.000590553
-0.000586865
-0.000583874
-0.000581628
-0.000580264
-0.000579946
-0.000580779
-0.000582657
-0.000585533
-0.000589482
-0.000594436
-0.000600431
-0.000607539
-0.000615807
-0.00062508
-0.000635134
-0.000645963
-0.000657421
-0.0006694
-0.000681807
-0.000694527
-0.000707437
-0.000720295
-0.000732589
-0.000744275
-0.000755266
-0.000765287
-0.00077417
-0.000781757
-0.000787669
-0.000791953
-0.000794452
-0.000795494
-0.000794977
-0.000792771
-0.000788879
-0.000783404
-0.000776344
-0.000767608
-0.000757323
-0.00074589
-0.00073317
-0.000719088
-0.000703756
-0.000687357
-0.000670071
-0.000651981
-0.000633263
-0.000614027
-0.000594338
-0.000574328
-0.000554121
-0.000533771
-0.000513315
-0.000492716
-0.000471948
-0.000451093
-0.00043027
-0.000409609
-0.000389233
-0.000369227
-0.000349638
-0.00033052
-0.00031194
-0.000293968
-0.000276664
-0.00026007
-0.000244207
-0.000229084
-0.000214705
-0.000201073
-0.000188179
-0.000176013
-0.000164552
-0.000153773
-0.000143643
-0.000134129
-0.000125195
-0.000116803
-0.000108914
-0.000101493
-9.45037e-05
-8.79123e-05
-8.16879e-05
-7.58025e-05
-7.02312e-05
-6.49521e-05
-5.99467e-05
-5.51995e-05
-5.06981e-05
-4.64322e-05
-4.23943e-05
-3.85782e-05
-3.49795e-05
-3.15947e-05
-2.8421e-05
-2.54559e-05
-2.26966e-05
-2.01401e-05
-1.77827e-05
-1.56201e-05
-1.36467e-05
-1.18564e-05
-1.02417e-05
-8.79437e-06
-7.50548e-06
-6.36523e-06
-5.36337e-06
-4.48925e-06
-3.73207e-06
-3.081e-06
-2.52538e-06
-2.05486e-06
-1.65953e-06
-1.33004e-06
-1.05765e-06
-8.34345e-07
-6.52834e-07
-5.06568e-07
-3.89741e-07
-2.97264e-07
-2.2473e-07
-1.68366e-07
-1.24983e-07
-9.19116e-08
-6.69483e-08
-4.82932e-08
-3.4494e-08
-2.43919e-08
-1.70739e-08
-1.18295e-08
-8.11191e-09
-5.5059e-09
-3.69977e-09
-2.46221e-09
-1.6242e-09
-1.06323e-09
-6.92079e-10
-4.49524e-10
-2.92946e-10
-1.92854e-10
-1.30147e-10
-9.10617e-11
-6.69223e-11
-5.24023e-11
-4.35879e-11
-3.79222e-11
-3.44386e-11
-3.22346e-11
-3.07648e-11
-2.97343e-11
-2.89806e-11
-2.84219e-11
-2.79963e-11
-2.76705e-11
-2.74239e-11
-2.72414e-11
-2.71109e-11
-2.70213e-11
-2.69629e-11
-2.69272e-11
-2.69073e-11
-2.68978e-11
-2.68946e-11
-2.68949e-11
-2.68969e-11
-2.68996e-11
-2.6903e-11
-2.6907e-11
-2.69118e-11
-2.69176e-11
-2.69244e-11
-2.69322e-11
-2.69407e-11
-2.69492e-11
-2.69568e-11
-2.69625e-11
-2.69654e-11
-0.00160241
-0.00145573
-0.00132023
-0.0011953
-0.00108032
-0.000974708
-0.000877879
-0.000789276
-0.000708356
-0.000634599
-0.000567503
-0.000506589
-0.000451397
-0.000401494
-0.000356464
-0.000315918
-0.000279485
-0.000246821
-0.000217599
-0.000191515
-0.000168286
-0.000147649
-0.000129359
-0.000113191
-9.89382e-05
-8.64092e-05
-7.54303e-05
-6.58426e-05
-5.75022e-05
-5.02789e-05
-4.4056e-05
-3.87289e-05
-3.42048e-05
-3.04021e-05
-2.72497e-05
-2.46864e-05
-2.26608e-05
-2.11305e-05
-2.00618e-05
-1.94301e-05
-1.9219e-05
-1.94207e-05
-2.00359e-05
-2.1074e-05
-2.25528e-05
-2.44993e-05
-2.69492e-05
-2.99473e-05
-3.35472e-05
-3.78112e-05
-4.28095e-05
-4.86194e-05
-5.5324e-05
-6.301e-05
-7.17654e-05
-8.16761e-05
-9.28222e-05
-0.000105273
-0.000119084
-0.000134288
-0.000150893
-0.000168874
-0.000188174
-0.000208693
-0.000230292
-0.000252793
-0.000275981
-0.000299607
-0.000323401
-0.00034708
-0.000370358
-0.000392964
-0.000414649
-0.000435203
-0.000454462
-0.000472314
-0.000488701
-0.000503614
-0.00051709
-0.000529201
-0.000540074
-0.000549838
-0.00055865
-0.000566658
-0.00057383
-0.00058036
-0.000586274
-0.000591831
-0.000597136
-0.000602178
-0.000606977
-0.000611553
-0.000615928
-0.000620036
-0.000623851
-0.000627362
-0.000630578
-0.000633411
-0.000635901
-0.000637864
-0.000639294
-0.000640088
-0.000640177
-0.00063943
-0.000637786
-0.000635303
-0.000632017
-0.000628011
-0.0006234
-0.000618314
-0.000612714
-0.000606628
-0.000600234
-0.000593538
-0.000586475
-0.000579055
-0.00057129
-0.000563223
-0.000554912
-0.000546454
-0.000537948
-0.000529537
-0.000521318
-0.000513369
-0.0005058
-0.000498714
-0.000492298
-0.000486655
-0.000481917
-0.000478212
-0.000475577
-0.000474053
-0.000473657
-0.000474448
-0.000476476
-0.000479802
-0.00048448
-0.000490492
-0.000497766
-0.000506222
-0.000515799
-0.000526463
-0.000538221
-0.000551133
-0.000565258
-0.000580583
-0.00059699
-0.00061429
-0.00063233
-0.00065088
-0.000669735
-0.00068872
-0.00070763
-0.000725939
-0.000743447
-0.000759942
-0.000775031
-0.000788477
-0.000800138
-0.000809621
-0.000816758
-0.000821461
-0.00082409
-0.000824553
-0.00082278
-0.000818884
-0.000812995
-0.000805152
-0.000795519
-0.000784384
-0.000771784
-0.000757844
-0.000742776
-0.000726658
-0.000709542
-0.000691706
-0.00067334
-0.000654221
-0.000634377
-0.000613927
-0.000593021
-0.000571787
-0.000550321
-0.000528706
-0.000506962
-0.000485181
-0.000463496
-0.000442043
-0.000420939
-0.000400249
-0.000379985
-0.000360187
-0.000340916
-0.000322239
-0.000304215
-0.00028689
-0.000270289
-0.000254423
-0.000239292
-0.000224892
-0.00021121
-0.000198231
-0.000185928
-0.000174271
-0.000163227
-0.00015276
-0.000142833
-0.000133411
-0.000124459
-0.000115944
-0.000107837
-0.000100112
-9.27464e-05
-8.57209e-05
-7.90208e-05
-7.26344e-05
-6.65538e-05
-6.07735e-05
-5.52905e-05
-5.01034e-05
-4.52119e-05
-4.06162e-05
-3.63162e-05
-3.23115e-05
-2.86003e-05
-2.51796e-05
-2.20444e-05
-1.91882e-05
-1.66024e-05
-1.42767e-05
-1.21991e-05
-1.03559e-05
-8.73247e-06
-7.31303e-06
-6.08131e-06
-5.02067e-06
-4.11452e-06
-3.34655e-06
-2.701e-06
-2.16286e-06
-1.71805e-06
-1.35355e-06
-1.05749e-06
-8.1915e-07
-6.29024e-07
-4.78755e-07
-3.61101e-07
-2.69861e-07
-1.99791e-07
-1.46508e-07
-1.06396e-07
-7.65055e-08
-5.44623e-08
-3.8377e-08
-2.67647e-08
-1.84725e-08
-1.26164e-08
-8.52692e-09
-5.7039e-09
-3.77759e-09
-2.47864e-09
-1.61299e-09
-1.04317e-09
-6.72715e-10
-4.34749e-10
-2.83799e-10
-1.89052e-10
-1.30253e-10
-9.43685e-11
-7.24618e-11
-5.94739e-11
-5.19641e-11
-4.75545e-11
-4.4667e-11
-4.29715e-11
-4.19585e-11
-4.1324e-11
-4.09125e-11
-4.06393e-11
-4.04636e-11
-4.03461e-11
-4.02659e-11
-4.02112e-11
-4.01747e-11
-4.01513e-11
-4.01374e-11
-4.01307e-11
-4.01292e-11
-4.01321e-11
-4.01386e-11
-4.01484e-11
-4.0161e-11
-4.01763e-11
-4.0194e-11
-4.02136e-11
-4.02348e-11
-4.02571e-11
-4.02797e-11
-4.03021e-11
-4.03245e-11
-0.00317864
-0.00291841
-0.00267526
-0.00244849
-0.00223736
-0.00204117
-0.00185918
-0.00169069
-0.00153497
-0.00139133
-0.00125908
-0.00113753
-0.00102603
-0.000923941
-0.000830647
-0.000745551
-0.00066808
-0.000597688
-0.00053385
-0.000476069
-0.000423874
-0.000376819
-0.000334481
-0.000296467
-0.000262405
-0.000231949
-0.000204775
-0.000180586
-0.000159102
-0.000140068
-0.000123249
-0.00010843
-9.54135e-05
-8.40209e-05
-7.40909e-05
-6.54782e-05
-5.80533e-05
-5.17011e-05
-4.6321e-05
-4.18255e-05
-3.81402e-05
-3.52032e-05
-3.29645e-05
-3.1386e-05
-3.04408e-05
-3.01135e-05
-3.03999e-05
-3.13063e-05
-3.28503e-05
-3.50595e-05
-3.79718e-05
-4.16344e-05
-4.61032e-05
-5.14412e-05
-5.77171e-05
-6.50034e-05
-7.33731e-05
-8.28971e-05
-9.36403e-05
-0.000105657
-0.000118988
-0.000133652
-0.000149647
-0.000166941
-0.000185469
-0.000205135
-0.000225805
-0.000247315
-0.000269466
-0.000292035
-0.000314783
-0.000337458
-0.000359808