/*--------------------------------*- C++ -*----------------------------------*\
| =========                 |                                                 |
| \\      /  F ield         | OpenFOAM: The Open Source CFD Toolbox           |
|  \\    /   O peration     | Version:  2.4.0                                 |
|   \\  /    A nd           | Web:      www.OpenFOAM.org                      |
|    \\/     M anipulation  |                                                 |
\*---------------------------------------------------------------------------*/
FoamFile
{
    version     2.0;
    format      ascii;
    class       volScalarField;
    location    "0.013";
    object      H;
}
// * * * * * * * * * * * * * * * * * * * * * * * * * * * * * * * * * * * * * //

dimensions      [0 2 -2 0 0 0 0];

internalField   nonuniform List<scalar> 
125
(
-1.79558
-1.68877
-1.58723
-1.49078
-1.39923
-1.3124
-1.23012
-1.15221
-1.07849
-1.00879
-0.942947
-0.880796
-0.822175
-0.766927
-0.714898
-0.665941
-0.619909
-0.576662
-0.536063
-0.49798
-0.462284
-0.428853
-0.397567
-0.36831
-0.340974
-0.315451
-0.291639
-0.269441
-0.248764
-0.229518
-0.211617
-0.19498
-0.179531
-0.165194
-0.1519
-0.139582
-0.128178
-0.117626
-0.107872
-0.0988601
-0.0905413
-0.0828676
-0.075794
-0.0692786
-0.0632814
-0.0577654
-0.0526955
-0.048039
-0.0437652
-0.0398455
-0.036253
-0.0329627
-0.0299515
-0.0271974
-0.0246803
-0.0223814
-0.0202833
-0.0183696
-0.0166255
-0.015037
-0.0135912
-0.0122761
-0.0110809
-0.00999523
-0.00900982
-0.008116
-0.00730583
-0.00657198
-0.00590772
-0.00530688
-0.00476377
-0.00427319
-0.00383038
-0.00343096
-0.00307094
-0.00274667
-0.0024548
-0.0021923
-0.00195638
-0.0017445
-0.00155436
-0.00138385
-0.00123107
-0.00109428
-0.000971897
-0.000862492
-0.000764766
-0.000677543
-0.000599758
-0.000530447
-0.000468737
-0.000413842
-0.000365051
-0.000321722
-0.000283278
-0.000249198
-0.000219015
-0.000192306
-0.000168693
-0.000147838
-0.000129435
-0.000113211
-9.89232e-05
-8.63515e-05
-7.53012e-05
-6.55978e-05
-5.70858e-05
-4.96265e-05
-4.30964e-05
-3.73859e-05
-3.23972e-05
-2.80438e-05
-2.42489e-05
-2.09444e-05
-1.80702e-05
-1.55729e-05
-1.34056e-05
-1.15267e-05
-9.89984e-06
-8.49272e-06
-7.27711e-06
-6.22815e-06
-5.32412e-06
-4.54585e-06
-3.87668e-06
)
;

boundaryField
{
    BotWall
    {
        type            zeroGradient;
    }
    FreeStream
    {
        type            zeroGradient;
    }
    FrontNBack
    {
        type            empty;
    }
    LeftSide
    {
        type            symmetryPlane;
    }
    RightSide
    {
        type            symmetryPlane;
    }
    procBoundary3to0
    {
        type            processor;
        value           nonuniform List<scalar> 
50
(
-0.00268786
-0.00240195
-0.00214483
-0.00191378
-0.00170629
-0.00152012
-0.00135319
-0.00120364
-0.00106975
-0.000949981
-0.000842925
-0.000747311
-0.000661984
-0.000585899
-0.000518112
-0.000457768
-0.000404095
-0.000356397
-0.000314045
-0.000276474
-0.000243172
-0.000213683
-0.000187592
-0.000164529
-0.000144163
-0.000126195
-0.000110357
-9.64115e-05
-8.41433e-05
-7.33616e-05
-6.38958e-05
-5.55938e-05
-4.83199e-05
-4.19534e-05
-3.6387e-05
-3.15253e-05
-2.72835e-05
-2.35866e-05
-2.03682e-05
-1.75694e-05
-1.51382e-05
-1.30287e-05
-1.12004e-05
-9.61756e-06
-8.24888e-06
-7.06673e-06
-6.04688e-06
-5.16811e-06
-4.41177e-06
-3.76162e-06
)
;
    }
    procBoundary3to1
    {
        type            processor;
        value           nonuniform List<scalar> 
75
(
-1.78547
-1.67877
-1.57737
-1.48108
-1.38972
-1.3031
-1.22105
-1.14337
-1.0699
-1.00047
-0.934893
-0.873017
-0.814675
-0.75971
-0.707966
-0.659293
-0.613544
-0.570577
-0.530256
-0.492446
-0.457018
-0.42385
-0.39282
-0.363813
-0.336719
-0.31143
-0.287845
-0.265866
-0.245399
-0.226355
-0.208648
-0.192197
-0.176925
-0.162757
-0.149623
-0.137458
-0.126198
-0.115783
-0.106158
-0.0972684
-0.0890645
-0.081499
-0.0745271
-0.068107
-0.0621991
-0.0567667
-0.0517748
-0.0471911
-0.0429852
-0.0391286
-0.0355947
-0.032359
-0.0293981
-0.0266908
-0.0242169
-0.0219579
-0.0198966
-0.0180169
-0.0163041
-0.0147443
-0.0133248
-0.012034
-0.0108609
-0.00979558
-0.00882875
-0.00795192
-0.00715726
-0.00643755
-0.00578618
-0.00519707
-0.00466463
-0.00418376
-0.00374975
-0.00335833
-0.00300556
)
;
    }
    procBoundary3to2
    {
        type            processor;
        value           uniform -3.30205e-06;
    }
    procBoundary3to4
    {
        type            processor;
        value           uniform -1.90785;
    }
    procBoundary3to5
    {
        type            processor;
        value           nonuniform List<scalar> 
75
(
-0.0363176
-0.0330214
-0.0300047
-0.0272457
-0.0247241
-0.0224211
-0.0203192
-0.0184021
-0.0166549
-0.0150635
-0.0136151
-0.0122977
-0.0111003
-0.0100128
-0.00902562
-0.00813023
-0.00731863
-0.00658349
-0.00591807
-0.00531618
-0.00477212
-0.00428069
-0.0038371
-0.00343699
-0.00307634
-0.00275151
-0.00245914
-0.00219618
-0.00195984
-0.0017476
-0.00155713
-0.00138632
-0.00123328
-0.00109624
-0.000973648
-0.00086405
-0.000766153
-0.000678777
-0.000600854
-0.00053142
-0.000469601
-0.000414608
-0.00036573
-0.000322323
-0.00028381
-0.000249669
-0.00021943
-0.000192673
-0.000169017
-0.000148123
-0.000129686
-0.000113433
-9.91179e-05
-8.65227e-05
-7.54515e-05
-6.57297e-05
-5.72014e-05
-4.97277e-05
-4.3185e-05
-3.74633e-05
-3.24648e-05
-2.81029e-05
-2.43004e-05
-2.09893e-05
-1.81092e-05
-1.56069e-05
-1.34351e-05
-1.15524e-05
-9.92208e-06
-8.51201e-06
-7.29381e-06
-6.24263e-06
-5.33662e-06
-4.55664e-06
-3.88603e-06
)
;
    }
    procBoundary3to6
    {
        type            processor;
        value           nonuniform List<scalar> 
50
(
-1.79777
-1.69085
-1.58922
-1.49267
-1.40103
-1.31411
-1.23175
-1.15375
-1.07995
-1.01017
-0.944257
-0.882035
-0.823345
-0.768031
-0.71594
-0.666922
-0.620833
-0.577531
-0.536879
-0.498746
-0.463003
-0.429527
-0.398197
-0.3689
-0.341525
-0.315965
-0.292119
-0.269888
-0.24918
-0.229904
-0.211976
-0.195313
-0.179839
-0.16548
-0.152164
-0.139826
-0.128403
-0.117834
-0.108063
-0.0990357
-0.0907026
-0.0830155
-0.0759296
-0.0694027
-0.0633949
-0.057869
-0.0527899
-0.048125
-0.0438434
-0.0399165
)
;
    }
}


// ************************************************************************* //
