/*--------------------------------*- C++ -*----------------------------------*\
| =========                 |                                                 |
| \\      /  F ield         | OpenFOAM: The Open Source CFD Toolbox           |
|  \\    /   O peration     | Version:  2.4.0                                 |
|   \\  /    A nd           | Web:      www.OpenFOAM.org                      |
|    \\/     M anipulation  |                                                 |
\*---------------------------------------------------------------------------*/
FoamFile
{
    version     2.0;
    format      ascii;
    class       volScalarField;
    location    "0.013";
    object      p;
}
// * * * * * * * * * * * * * * * * * * * * * * * * * * * * * * * * * * * * * //

dimensions      [1 -1 -2 0 0 0 0];

internalField   nonuniform List<scalar> 
125
(
-0.06029
-0.0603999
-0.06051
-0.0606204
-0.0607312
-0.0608423
-0.0609537
-0.0610654
-0.0611775
-0.0612898
-0.0614025
-0.0615155
-0.0616289
-0.0617426
-0.0618565
-0.0619709
-0.0620855
-0.0622005
-0.0623158
-0.0624315
-0.0625475
-0.0626638
-0.0627805
-0.0628975
-0.0630148
-0.0631325
-0.0632505
-0.0633689
-0.0634876
-0.0636066
-0.063726
-0.0638458
-0.0639659
-0.0640864
-0.0642072
-0.0643283
-0.0644498
-0.0645717
-0.064694
-0.0648165
-0.0649395
-0.0650628
-0.0651865
-0.0653105
-0.0654349
-0.0655597
-0.0656849
-0.0658104
-0.0659363
-0.0660625
-0.0661892
-0.0663162
-0.0664436
-0.0665714
-0.0666995
-0.066828
-0.066957
-0.0670863
-0.067216
-0.067346
-0.0674765
-0.0676074
-0.0677386
-0.0678703
-0.0680023
-0.0681348
-0.0682676
-0.0684009
-0.0685345
-0.0686686
-0.0688031
-0.0689379
-0.0690732
-0.0692089
-0.069345
-0.0694815
-0.0696185
-0.0697558
-0.0698936
-0.0700318
-0.0701704
-0.0703095
-0.0704489
-0.0705888
-0.0707292
-0.0708699
-0.0710112
-0.0711528
-0.0712949
-0.0714374
-0.0715803
-0.0717238
-0.0718676
-0.0720119
-0.0721567
-0.0723019
-0.0724475
-0.0725936
-0.0727402
-0.0728872
-0.0730347
-0.0731827
-0.0733311
-0.07348
-0.0736293
-0.0737791
-0.0739294
-0.0740802
-0.0742315
-0.0743832
-0.0745354
-0.0746881
-0.0748413
-0.074995
-0.0751492
-0.0753039
-0.075459
-0.0756147
-0.0757709
-0.0759275
-0.0760847
-0.0762424
-0.0764005
-0.0765592
-0.0767184
)
;

boundaryField
{
    BotWall
    {
        type            calculated;
        value           nonuniform 0();
    }
    FreeStream
    {
        type            calculated;
        value           nonuniform 0();
    }
    FrontNBack
    {
        type            empty;
    }
    LeftSide
    {
        type            symmetryPlane;
    }
    RightSide
    {
        type            symmetryPlane;
    }
    procBoundary3to0
    {
        type            processor;
        value           nonuniform List<scalar> 
50
(
-0.0719928
-0.0721047
-0.0722171
-0.07233
-0.0724434
-0.0725573
-0.0726718
-0.0727868
-0.0729024
-0.0730185
-0.0731351
-0.0732522
-0.0733699
-0.0734881
-0.0736069
-0.0737262
-0.0738461
-0.0739665
-0.0740874
-0.0742089
-0.0743309
-0.0744535
-0.0745767
-0.0747004
-0.0748246
-0.0749494
-0.0750748
-0.0752007
-0.0753273
-0.0754543
-0.075582
-0.0757102
-0.0758389
-0.0759683
-0.0760982
-0.0762287
-0.0763598
-0.0764914
-0.0766236
-0.0767564
-0.0768898
-0.0770238
-0.0771584
-0.0772935
-0.0774293
-0.0775656
-0.0777025
-0.0778401
-0.0779782
-0.0781169
)
;
    }
    procBoundary3to1
    {
        type            processor;
        value           nonuniform List<scalar> 
75
(
-0.0649632
-0.0650407
-0.0651187
-0.0651971
-0.0652758
-0.065355
-0.0654346
-0.0655145
-0.0655949
-0.0656757
-0.0657569
-0.0658385
-0.0659205
-0.066003
-0.0660858
-0.0661691
-0.0662528
-0.0663369
-0.0664215
-0.0665065
-0.0665918
-0.0666777
-0.0667639
-0.0668506
-0.0669377
-0.0670253
-0.0671133
-0.0672017
-0.0672906
-0.0673799
-0.0674696
-0.0675598
-0.0676504
-0.0677415
-0.0678331
-0.0679251
-0.0680175
-0.0681104
-0.0682037
-0.0682975
-0.0683918
-0.0684865
-0.0685817
-0.0686774
-0.0687735
-0.0688701
-0.0689671
-0.0690646
-0.0691626
-0.0692611
-0.06936
-0.0694595
-0.0695594
-0.0696597
-0.0697606
-0.069862
-0.0699638
-0.0700661
-0.0701689
-0.0702722
-0.070376
-0.0704803
-0.070585
-0.0706903
-0.0707961
-0.0709024
-0.0710091
-0.0711164
-0.0712242
-0.0713325
-0.0714413
-0.0715506
-0.0716604
-0.0717707
-0.0718815
)
;
    }
    procBoundary3to2
    {
        type            processor;
        value           uniform -0.0768782;
    }
    procBoundary3to4
    {
        type            processor;
        value           uniform -0.0601805;
    }
    procBoundary3to5
    {
        type            processor;
        value           nonuniform List<scalar> 
75
(
-0.0652248
-0.0653566
-0.0654887
-0.0656213
-0.0657542
-0.0658876
-0.0660213
-0.0661555
-0.0662901
-0.0664251
-0.0665605
-0.0666963
-0.0668326
-0.0669692
-0.0671063
-0.0672438
-0.0673817
-0.06752
-0.0676588
-0.067798
-0.0679376
-0.0680777
-0.0682181
-0.0683591
-0.0685004
-0.0686422
-0.0687844
-0.0689271
-0.0690702
-0.0692138
-0.0693578
-0.0695022
-0.0696471
-0.0697925
-0.0699383
-0.0700845
-0.0702313
-0.0703784
-0.0705261
-0.0706742
-0.0708228
-0.0709718
-0.0711213
-0.0712713
-0.0714217
-0.0715727
-0.0717241
-0.0718759
-0.0720283
-0.0721811
-0.0723345
-0.0724883
-0.0726426
-0.0727974
-0.0729527
-0.0731085
-0.0732648
-0.0734216
-0.0735788
-0.0737366
-0.0738949
-0.0740537
-0.0742131
-0.0743729
-0.0745332
-0.0746941
-0.0748555
-0.0750174
-0.0751798
-0.0753428
-0.0755063
-0.0756703
-0.0758349
-0.076
-0.0761656
)
;
    }
    procBoundary3to6
    {
        type            processor;
        value           nonuniform List<scalar> 
50
(
-0.0591137
-0.0592273
-0.0593412
-0.0594554
-0.05957
-0.0596849
-0.0598002
-0.0599158
-0.0600317
-0.060148
-0.0602646
-0.0603816
-0.0604989
-0.0606165
-0.0607345
-0.0608529
-0.0609716
-0.0610906
-0.06121
-0.0613298
-0.0614499
-0.0615704
-0.0616912
-0.0618124
-0.0619339
-0.0620558
-0.0621781
-0.0623007
-0.0624237
-0.0625471
-0.0626708
-0.0627949
-0.0629194
-0.0630443
-0.0631695
-0.0632951
-0.063421
-0.0635474
-0.0636741
-0.0638012
-0.0639287
-0.0640566
-0.0641849
-0.0643135
-0.0644425
-0.064572
-0.0647018
-0.064832
-0.0649625
-0.0650935
)
;
    }
}


// ************************************************************************* //
