/*--------------------------------*- C++ -*----------------------------------*\
| =========                 |                                                 |
| \\      /  F ield         | OpenFOAM: The Open Source CFD Toolbox           |
|  \\    /   O peration     | Version:  2.4.0                                 |
|   \\  /    A nd           | Web:      www.OpenFOAM.org                      |
|    \\/     M anipulation  |                                                 |
\*---------------------------------------------------------------------------*/
FoamFile
{
    version     2.0;
    format      ascii;
    class       volScalarField;
    location    "3.1";
    object      H;
}
// * * * * * * * * * * * * * * * * * * * * * * * * * * * * * * * * * * * * * //

dimensions      [0 2 -2 0 0 0 0];

internalField   nonuniform List<scalar> 
8000
(
-11806.6
-10954.3
-10086.1
-9194.44
-8274.41
-7324.57
-6347.1
-5347.84
-4335.4
-3317.79
-2296.63
-1275.36
-341.289
-9.26983
-6.74683
-5.7255
-5.01954
-4.61309
-4.45216
-4.27348
-4.1049
-3.97519
-3.86004
-3.73636
-3.59279
-3.43341
-3.26539
-3.09432
-2.92456
-2.75963
-2.60081
-2.45
-2.30819
-2.17519
-2.05044
-1.9331
-1.82239
-1.71757
-1.61757
-1.52188
-1.42981
-1.34099
-1.25499
-1.17162
-1.09076
-1.01225
-0.936197
-0.862784
-0.792209
-0.72476
-11740.4
-10757.2
-9764.01
-8758.17
-7740.16
-6714.1
-5687.85
-4673.32
-3686.81
-2748.72
-1879.01
-1079.38
-23.2523
-19.0277
-15.9538
-13.4813
-11.6059
-10.0495
-8.74116
-7.6471
-6.74875
-6.00579
-5.3755
-4.83144
-4.35727
-3.94072
-3.57189
-3.24298
-2.94783
-2.68095
-2.43921
-2.22203
-2.02836
-1.85486
-1.69573
-1.55041
-1.41757
-1.29587
-1.18412
-1.08114
-0.985948
-0.897777
-0.81606
-0.740341
-0.670268
-0.605472
-0.545703
-0.490747
-0.440395
-0.394441
-11681.7
-10589
-9507.24
-8441.79
-7398.17
-6381.68
-5396.26
-4443.36
-3522.51
-2636.12
-1792.59
-979.118
-14.1169
-0.685707
-4.8064
-4.91849
-4.09582
-3.36531
-2.82527
-2.43034
-2.1265
-1.89304
-1.71042
-1.56434
-1.44213
-1.33692
-1.2455
-1.16574
-1.09559
-1.03222
-0.972569
-0.914639
-0.857758
-0.80185
-0.746798
-0.692889
-0.640635
-0.590463
-0.54274
-0.497699
-0.455335
-0.415657
-0.378627
-0.344195
-0.312298
-0.282872
-0.25584
-0.231118
-0.208617
-0.188242
-11646.2
-10485.3
-9343.81
-8231.89
-7157.61
-6127.79
-5148.51
-4225.27
-3363.21
-2567.8
-1845.42
-1200.39
-619.543
-90.2804
-1.52314
-0.0307119
-0.723673
-0.736561
-0.630027
-0.520338
-0.433413
-0.374745
-0.343905
-0.333241
-0.314267
-0.292577
-0.274068
-0.260749
-0.252546
-0.248331
-0.246315
-0.244359
-0.240423
-0.234625
-0.228386
-0.22246
-0.216626
-0.210261
-0.202927
-0.194546
-0.185312
-0.175466
-0.165242
-0.154902
-0.144663
-0.134689
-0.125114
-0.116046
-0.10757
-0.0997481
-11614.2
-10387.8
-9178.67
-8000.74
-6868.38
-5795.59
-4795.26
-3878.51
-3054.15
-2328.2
-1703.95
-1181.29
-757.255
-428.157
-187.791
-2.39108
-0.516817
-0.356803
-0.245882
-0.15931
-0.087473
-0.0237313
-0.00324451
-0.15091
-0.179727
-0.166355
-0.144663
-0.123881
-0.106843
-0.0958453
-0.0938749
-0.106024
-0.11374
-0.111019
-0.104393
-0.0975493
-0.0917635
-0.0868975
-0.0825703
-0.0795681
-0.0777868
-0.0763298
-0.0746562
-0.0726663
-0.0704271
-0.0680502
-0.065645
-0.063291
-0.0610487
-0.0589672
-11585.6
-10304.1
-9046.16
-7830.08
-6674.72
-5597.89
-4614.76
-3736.56
-2969.91
-2316.37
-1772.81
-1331.86
-983.103
-714.059
-511.371
-361.774
-253.017
-174.049
-116.244
-72.9277
-38.74
-9.8683
-0.51285
-0.375377
-0.324212
-0.274444
-0.224438
-0.173651
-0.121708
-0.0677623
-0.00228476
-0.00234097
-0.116754
-0.110475
-0.0893712
-0.0684852
-0.053929
-0.0553856
-0.0557387
-0.0527063
-0.0482245
-0.0439352
-0.0412526
-0.0404033
-0.0402173
-0.0401579
-0.0401515
-0.0402067
-0.0403402
-0.0405655
-11593.1
-10329
-9094.15
-7908.24
-6789.69
-5754.55
-4815.3
-3980.04
-3252.17
-2630.55
-2110.07
-1682.51
-1337.58
-1063.86
-849.779
-684.261
-557.264
-460.049
-385.286
-327.027
-280.582
-242.349
-209.644
-180.457
-153.4
-127.563
-102.332
-77.3761
-52.6662
-28.2957
-0.637435
-0.323373
-0.258677
-0.197224
-0.137356
-0.076801
-0.0127579
-0.0525358
-0.0592739
-0.0487998
-0.0352225
-0.0299564
-0.0277591
-0.0265127
-0.0253633
-0.0255586
-0.0266013
-0.0278632
-0.0292248
-0.0306652
-11626.4
-10429
-9260.31
-8138.34
-7079.23
-6096.46
-5200.17
-4396.81
-3689.07
-3076.07
-2553.84
-2115.97
-1754.31
-1459.71
-1222.66
-1033.85
-884.54
-766.848
-673.889
-599.819
-539.802
-489.936
-447.15
-409.092
-374.018
-340.684
-308.258
-276.23
-244.347
-212.552
-180.93
-149.673
-118.997
-89.2306
-60.6451
-32.7043
-4.57759
-0.228609
-0.127096
-0.0702098
-0.023455
-0.0257983
-0.0214272
-0.022566
-0.0230087
-0.0226647
-0.0223406
-0.0227172
-0.0236768
-0.0251123
-11664.7
-10543
-9447.02
-8392.59
-7393.7
-6461.97
-5606.22
-4832.25
-4142.82
-3537.78
-3014.46
-2568.11
-2192.4
-1880
-1623.06
-1413.63
-1244.03
-1107.1
-996.372
-906.138
-831.515
-768.412
-713.487
-664.082
-618.148
-574.171
-531.095
-488.252
-445.294
-402.137
-358.902
-315.867
-273.421
-232.023
-192.165
-154.34
-119.007
-86.5317
-56.98
-30.55
-9.17262
-0.144578
-0.022499
-0.0308409
-0.0295142
-0.0264882
-0.0241138
-0.0230683
-0.0231119
-0.0237535
-11702.7
-10656
-9632.27
-8645.41
-7707.44
-6828.38
-6015.9
-5275.18
-4608.93
-4017.5
-3499.16
-3050.42
-2666.4
-2341.25
-2068.53
-1841.52
-1653.56
-1498.25
-1369.63
-1262.29
-1171.45
-1092.96
-1023.32
-959.651
-899.665
-841.599
-784.184
-726.579
-668.328
-609.3
-549.644
-489.732
-430.114
-371.471
-314.564
-260.19
-209.142
-162.166
-119.945
-83.0725
-52.0717
-27.2299
-9.06766
-0.084852
-0.055534
-0.0379564
-0.0295212
-0.0257244
-0.024761
-0.0252469
-11738.9
-10763.6
-9808.96
-8886.98
-8008.26
-7181.53
-6413.47
-5708.71
-5069.78
-4497.28
-3990.07
-3545.49
-3159.71
-2827.96
-2544.87
-2304.75
-2101.77
-1930.24
-1784.71
-1660.11
-1551.83
-1455.79
-1368.45
-1286.83
-1208.48
-1131.52
-1054.53
-976.601
-897.243
-816.361
-734.209
-651.34
-568.558
-486.859
-407.38
-331.335
-259.957
-194.433
-135.936
-85.2125
-43.3606
-7.20559
-0.0682068
-0.0554286
-0.0311868
-0.0209347
-0.0190554
-0.0203518
-0.0229282
-0.0257473
-11773
-10865.5
-9976.59
-9117.19
-8296.55
-7522.25
-6800.09
-6134.07
-5526.45
-4977.82
-4487.35
-4052.88
-3671.25
-3338.45
-3049.91
-2800.68
-2585.64
-2399.68
-2237.8
-2095.31
-1967.83
-1851.42
-1742.64
-1638.5
-1536.58
-1434.96
-1332.26
-1227.6
-1120.57
-1011.24
-900.078
-787.915
-675.904
-565.459
-458.198
-355.85
-260.302
-173.067
-97.805
-30.165
-0.282118
-0.00327637
-0.00463325
-0.00596337
-0.00834194
-0.0117324
-0.0159365
-0.0206548
-0.0253747
-0.0297481
-11805.2
-10961.7
-10135.1
-9335.27
-8570.39
-7847.1
-7170.45
-6543.9
-5969.35
-5447.32
-4977.02
-4556.59
-4183.19
-3853.28
-3562.76
-3307.17
-3081.83
-2882.03
-2703.13
-2540.72
-2390.67
-2249.25
-2113.16
-1979.6
-1846.3
-1711.54
-1574.17
-1433.57
-1289.67
-1142.9
-994.2
-844.94
-696.819
-551.836
-412.443
-280.596
-161.145
-44.9652
-0.429203
-0.0063652
-0.00493435
-0.00480743
-0.00703947
-0.0106366
-0.0155601
-0.0214759
-0.0279246
-0.0341531
-0.0396399
-0.0453064
-11835.4
-11051.5
-10283.3
-9539.4
-8827.24
-8152.67
-7520.07
-6932.36
-6391.1
-5896.56
-5447.86
-5043.1
-4679.58
-4353.89
-4062.12
-3800.03
-3563.19
-3347.11
-3147.41
-2959.9
-2780.72
-2606.4
-2433.97
-2260.97
-2085.55
-1906.44
-1723.03
-1535.29
-1343.81
-1149.74
-954.777
-761.074
-571.237
-387.409
-215.834
-44.4015
-0.453526
-0.00829
-0.00989682
-0.00910603
-0.0115833
-0.017169
-0.0246559
-0.0324014
-0.0400159
-0.0471125
-0.0548965
-0.0629838
-0.0710108
-0.0788421
-11863.6
-11135.9
-10422.5
-9731.55
-9069.48
-8441.46
-7851.19
-7301.03
-6792.02
-6324.06
-5895.96
-5505.63
-5150.22
-4826.29
-4529.92
-4256.94
-4003.04
-3763.89
-3535.36
-3313.56
-3094.98
-2876.62
-2656.03
-2431.39
-2201.54
-1966.04
-1725.14
-1479.78
-1231.56
-982.688
-735.833
-494.33
-260.703
-21.0216
-0.238727
-0.00667494
-0.0162308
-0.0189409
-0.0244
-0.0328243
-0.0401023
-0.0499201
-0.06016
-0.0706582
-0.081499
-0.0921143
-0.102314
-0.111917
-0.120827
-0.128939
-11890
-11214.5
-10552.2
-9910.19
-9294.3
-8708.91
-8157.06
-7640.46
-7159.58
-6713.8
-6301.5
-5920.24
-5566.87
-5237.77
-4928.92
-4636.14
-4355.21
-4082.02
-3812.76
-3543.97
-3272.75
-2996.8
-2714.53
-2425.1
-2128.48
-1825.38
-1517.31
-1206.51
-895.753
-588.961
-280.413
-2.85021
-0.0491516
-0.00291999
-0.0216478
-0.0331787
-0.0444773
-0.0556072
-0.0650792
-0.0780757
-0.091434
-0.104895
-0.118366
-0.131584
-0.144203
-0.155949
-0.166637
-0.176102
-0.184219
-0.190867
-11914.5
-11287.8
-10672.8
-10075.9
-9502.12
-8954.92
-8436.53
-7947.96
-7488.94
-7058.24
-6653.74
-6272.54
-5911.22
-5565.94
-5232.65
-4907.23
-4585.71
-4264.38
-3939.98
-3609.79
-3271.83
-2924.88
-2568.61
-2203.59
-1831.14
-1453.28
-1072.78
-693.647
-311.338
-2.92642
-0.0546444
-0.00142563
-0.0238079
-0.0428232
-0.0638161
-0.0809846
-0.100092
-0.119072
-0.137334
-0.155066
-0.172184
-0.188471
-0.203687
-0.217612
-0.230026
-0.24074
-0.249603
-0.256512
-0.261412
-0.264295
-11936.9
-11354.3
-10781.8
-10224.8
-9687.02
-9171.19
-8678.57
-8209.31
-7762.42
-7336.02
-6927.46
-6533.47
-6150.4
-5774.35
-5401.38
-5027.7
-4649.84
-4264.8
-3870.24
-3464.57
-3047.11
-2618.26
-2179.5
-1733.03
-1281.14
-826.551
-370.615
-3.52225
-0.0684415
-0.0379345
-0.0432347
-0.061036
-0.0855706
-0.108369
-0.132642
-0.157412
-0.181611
-0.204859
-0.227543
-0.249169
-0.269264
-0.287517
-0.303645
-0.317397
-0.328576
-0.337051
-0.342754
-0.345686
-0.345909
-0.34354
-11956.2
-11411.5
-10874.7
-10349.8
-9839.46
-9345.24
-8867.46
-8405.41
-7957.42
-7521.05
-7093.25
-6670.56
-6249.3
-5825.79
-5396.53
-4958.39
-4508.83
-4046
-3568.89
-3077.43
-2572.77
-2057.7
-1535.84
-1007.12
-474.399
-4.47611
-0.0883259
-0.0888604
-0.0877106
-0.10346
-0.124056
-0.1491
-0.175325
-0.202973
-0.230553
-0.259626
-0.290668
-0.321543
-0.350249
-0.375914
-0.398128
-0.41662
-0.43121
-0.441834
-0.448482
-0.45126
-0.45032
-0.445885
-0.438238
-0.427701
-11970.5
-11453.5
-10941.6
-10437.3
-9941.85
-9455.75
-8978.39
-8508.33
-8043.32
-7580.52
-7116.71
-6648.46
-6172.38
-5685.33
-5184.67
-4668.45
-4135.56
-3585.84
-3020.14
-2440.64
-1851.69
-1260.68
-674.317
-29.7595
-0.419183
-0.494163
-0.392636
-0.356926
-0.349996
-0.366068
-0.393965
-0.428091
-0.461765
-0.49557
-0.527921
-0.556865
-0.580745
-0.599726
-0.613934
-0.623473
-0.62841
-0.628809
-0.624839
-0.61674
-0.604829
-0.589428
-0.570904
-0.549664
-0.526139
-0.500772
-0.660534
-0.599755
-0.542647
-0.489325
-0.439882
-0.394373
-0.352798
-0.315109
-0.281209
-0.250963
-0.2242
-0.200726
-0.180324
-0.162771
-0.147842
-0.135315
-0.124979
-0.116638
-0.110109
-0.10523
-0.101857
-0.099865
-0.0991469
-0.0996148
-0.101197
-0.103837
-0.107494
-0.112136
-0.117744
-0.124309
-0.13183
-0.140317
-0.149763
-0.160162
-0.171516
-0.183825
-0.197083
-0.211282
-0.226406
-0.242432
-0.259327
-0.277053
-0.295559
-0.314786
-0.334666
-0.355124
-0.376073
-0.397421
-0.41908
-0.440944
-0.352688
-0.314922
-0.280932
-0.250505
-0.22342
-0.199467
-0.178425
-0.16008
-0.144221
-0.13064
-0.119139
-0.109529
-0.101634
-0.0952896
-0.0903458
-0.0866688
-0.0841402
-0.0826575
-0.082134
-0.0824983
-0.0836936
-0.0856766
-0.0884166
-0.0918943
-0.0961002
-0.101033
-0.106699
-0.11311
-0.120282
-0.128233
-0.136983
-0.146553
-0.156962
-0.168225
-0.180356
-0.193362
-0.207247
-0.222005
-0.237624
-0.254086
-0.271361
-0.289412
-0.308192
-0.327646
-0.347708
-0.368305
-0.389358
-0.410777
-0.432482
-0.45434
-0.169898
-0.153484
-0.138899
-0.126039
-0.1148
-0.105077
-0.0967626
-0.0897532
-0.0839455
-0.0792393
-0.0755391
-0.0727552
-0.0708047
-0.0696133
-0.0691153
-0.0692549
-0.0699863
-0.0712738
-0.0730917
-0.0754238
-0.0782629
-0.08161
-0.0854734
-0.0898678
-0.0948131
-0.100334
-0.106457
-0.113211
-0.120629
-0.128739
-0.137571
-0.147154
-0.157511
-0.168665
-0.180632
-0.193425
-0.207049
-0.221505
-0.236785
-0.252874
-0.269752
-0.287387
-0.305741
-0.324766
-0.344407
-0.364599
-0.38527
-0.406337
-0.42772
-0.449312
-0.0926264
-0.0862326
-0.0805796
-0.0756663
-0.0714796
-0.067996
-0.0651838
-0.0630053
-0.0614186
-0.0603804
-0.0598474
-0.0597786
-0.0601365
-0.0608886
-0.0620086
-0.0634768
-0.0652804
-0.0674142
-0.0698797
-0.0726854
-0.0758459
-0.0793814
-0.0833169
-0.0876815
-0.0925072
-0.0978285
-0.103681
-0.110101
-0.117124
-0.124785
-0.133117
-0.142149
-0.151909
-0.162421
-0.173701
-0.185766
-0.198624
-0.212277
-0.226723
-0.241953
-0.257951
-0.274695
-0.292155
-0.310294
-0.329067
-0.348423
-0.368301
-0.388637
-0.409358
-0.43039
-0.0570901
-0.055454
-0.0540873
-0.0530096
-0.0522315
-0.0517556
-0.0515774
-0.0516865
-0.0520685
-0.0527067
-0.0535835
-0.0546822
-0.0559887
-0.0574922
-0.0591863
-0.06107
-0.0631477
-0.0654294
-0.0679311
-0.070674
-0.0736844
-0.076993
-0.0806345
-0.0846465
-0.0890689
-0.0939432
-0.0993115
-0.105216
-0.111697
-0.118795
-0.126546
-0.134986
-0.144145
-0.15405
-0.164723
-0.176184
-0.188445
-0.201512
-0.215387
-0.230066
-0.245538
-0.261785
-0.278783
-0.296499
-0.314895
-0.333925
-0.353535
-0.373663
-0.394242
-0.415196
-0.0408944
-0.0413374
-0.0419043
-0.0426016
-0.0434322
-0.0443957
-0.0454888
-0.046705
-0.0480359
-0.0494721
-0.0510043
-0.0526245
-0.0543269
-0.0561093
-0.0579734
-0.059926
-0.0619789
-0.0641496
-0.0664609
-0.0689412
-0.0716236
-0.0745458
-0.0777496
-0.0812795
-0.0851827
-0.0895078
-0.0943039
-0.0996202
-0.105505
-0.112005
-0.119164
-0.127024
-0.135622
-0.144993
-0.155166
-0.166165
-0.17801
-0.190715
-0.204286
-0.218724
-0.234024
-0.250171
-0.267145
-0.284915
-0.303443
-0.322683
-0.342579
-0.363067
-0.384073
-0.405515
-0.0321734
-0.0337432
-0.0353705
-0.0370509
-0.0387814
-0.0405584
-0.0423761
-0.0442281
-0.0461062
-0.0480013
-0.0499051
-0.0518101
-0.0537111
-0.0556064
-0.0574982
-0.0593938
-0.0613061
-0.0632541
-0.0652627
-0.0673629
-0.0695915
-0.0719905
-0.0746062
-0.0774888
-0.0806912
-0.0842681
-0.0882752
-0.0927681
-0.0978017
-0.103429
-0.109702
-0.116667
-0.12437
-0.13285
-0.142145
-0.152285
-0.163296
-0.175199
-0.188008
-0.20173
-0.216366
-0.231909
-0.248344
-0.265647
-0.283785
-0.302716
-0.322389
-0.342741
-0.363701
-0.38519
-0.0268906
-0.0288964
-0.0310459
-0.0332859
-0.0355836
-0.0379163
-0.0402657
-0.0426135
-0.0449441
-0.0472411
-0.049489
-0.0516735
-0.0537824
-0.0558073
-0.0577447
-0.0595969
-0.061373
-0.0630894
-0.0647701
-0.0664465
-0.0681571
-0.0699465
-0.071865
-0.0739672
-0.0763109
-0.0789563
-0.0819644
-0.0853962
-0.0893119
-0.0937697
-0.0988254
-0.104532
-0.110937
-0.118087
-0.126022
-0.134777
-0.144384
-0.154867
-0.166247
-0.178536
-0.191743
-0.205868
-0.220904
-0.236839
-0.253648
-0.271303
-0.289762
-0.308977
-0.328891
-0.349434
-0.0248256
-0.0263897
-0.0284302
-0.0308244
-0.0334403
-0.0361853
-0.0389978
-0.0418338
-0.0446546
-0.0474234
-0.050105
-0.0526687
-0.0550873
-0.0573392
-0.0594097
-0.0612928
-0.0629913
-0.0645181
-0.0658956
-0.0671559
-0.0683396
-0.069495
-0.0706768
-0.0719445
-0.0733616
-0.0749932
-0.0769057
-0.0791648
-0.081835
-0.0849782
-0.0886534
-0.092916
-0.0978171
-0.103404
-0.109718
-0.116797
-0.124673
-0.133374
-0.142921
-0.153333
-0.164621
-0.176791
-0.189843
-0.203772
-0.218567
-0.234208
-0.250671
-0.267925
-0.285929
-0.304638
-0.0262933
-0.0277039
-0.0295956
-0.0319936
-0.0347682
-0.0377746
-0.0409142
-0.0441271
-0.0473583
-0.050548
-0.0536286
-0.0565431
-0.059243
-0.0616896
-0.0638552
-0.0657251
-0.0672977
-0.0685844
-0.0696091
-0.0704073
-0.0710244
-0.0715143
-0.0719376
-0.0723601
-0.0728507
-0.0734801
-0.074319
-0.0754373
-0.0769024
-0.0787787
-0.0811267
-0.0840027
-0.0874583
-0.0915402
-0.09629
-0.101744
-0.107935
-0.114889
-0.122628
-0.13117
-0.140527
-0.150708
-0.161716
-0.173551
-0.186207
-0.199674
-0.213935
-0.22897
-0.244753
-0.261253
-0.0283886
-0.0309705
-0.0337982
-0.0369871
-0.0404452
-0.0440463
-0.0477018
-0.0513753
-0.0550182
-0.0585639
-0.0619251
-0.0650208
-0.067791
-0.0701914
-0.0721921
-0.0737822
-0.0749677
-0.0757689
-0.0762192
-0.0763635
-0.0762558
-0.0759582
-0.0755382
-0.0750676
-0.074621
-0.0742729
-0.0740966
-0.0741635
-0.0745416
-0.0752948
-0.0764828
-0.0781601
-0.0803764
-0.0831759
-0.0865978
-0.0906761
-0.0954397
-0.100912
-0.107113
-0.114059
-0.121759
-0.130224
-0.139456
-0.149458
-0.160224
-0.17175
-0.184023
-0.197032
-0.210756
-0.225174
-0.0338839
-0.0381181
-0.0426108
-0.0472878
-0.0519219
-0.056411
-0.0607829
-0.0650121
-0.0690368
-0.0727619
-0.0761067
-0.0789923
-0.081379
-0.0832457
-0.0845891
-0.0854217
-0.0857704
-0.0856749
-0.0851854
-0.0843614
-0.0832691
-0.0819803
-0.0805699
-0.0791147
-0.0776911
-0.0763744
-0.075237
-0.0743477
-0.073771
-0.0735663
-0.0737882
-0.0744857
-0.0757029
-0.0774792
-0.079849
-0.0828431
-0.0864879
-0.0908002
-0.0957885
-0.101467
-0.107846
-0.114934
-0.122733
-0.131245
-0.140468
-0.150396
-0.161022
-0.172338
-0.184331
-0.196988
-0.0512973
-0.0574094
-0.063455
-0.0693087
-0.0748799
-0.0799501
-0.0845568
-0.0886736
-0.0922426
-0.0952148
-0.097563
-0.0992728
-0.100349
-0.10081
-0.100686
-0.10002
-0.0988649
-0.0972834
-0.0953449
-0.0931245
-0.0907006
-0.0881533
-0.0855628
-0.0830071
-0.0805612
-0.0782961
-0.0762773
-0.0745649
-0.0732129
-0.0722693
-0.0717762
-0.0717699
-0.0722818
-0.0733385
-0.0749622
-0.0771719
-0.0799833
-0.0834096
-0.0874619
-0.0921496
-0.0974809
-0.103462
-0.1101
-0.117399
-0.125347
-0.133931
-0.143154
-0.153011
-0.163496
-0.1746
-0.0863166
-0.0933175
-0.0996861
-0.105371
-0.110333
-0.11454
-0.117958
-0.120568
-0.12237
-0.123375
-0.12361
-0.123112
-0.121929
-0.120121
-0.117756
-0.114912
-0.111669
-0.108116
-0.104339
-0.100426
-0.0964638
-0.0925339
-0.0887137
-0.0850746
-0.0816814
-0.0785919
-0.0758566
-0.0735192
-0.0716164
-0.0701784
-0.0692301
-0.0687907
-0.0688754
-0.0694955
-0.0706593
-0.0723727
-0.0746398
-0.0774636
-0.0808461
-0.0847888
-0.089293
-0.0943603
-0.0999917
-0.106189
-0.112952
-0.120284
-0.128184
-0.136653
-0.145691
-0.155296
-0.136086
-0.142192
-0.147226
-0.151169
-0.154022
-0.155801
-0.156534
-0.156265
-0.155049
-0.152955
-0.150063
-0.146464
-0.142257
-0.137543
-0.132429
-0.127021
-0.121423
-0.115734
-0.110049
-0.104455
-0.0990338
-0.0938551
-0.088982
-0.0844682
-0.0803589
-0.0766908
-0.073493
-0.0707876
-0.0685902
-0.0669112
-0.0657561
-0.0651269
-0.0650225
-0.0654395
-0.0663731
-0.0678175
-0.0697666
-0.0722142
-0.0751547
-0.0785831
-0.0824952
-0.086888
-0.0917593
-0.0971079
-0.102933
-0.109236
-0.116017
-0.123277
-0.131018
-0.139239
-0.195988
-0.199583
-0.201675
-0.202313
-0.201569
-0.199534
-0.196315
-0.192031
-0.186812
-0.180794
-0.174117
-0.166918
-0.159336
-0.151501
-0.14354
-0.135568
-0.127692
-0.120007
-0.1126
-0.105542
-0.0988963
-0.0927124
-0.0870306
-0.0818813
-0.0772855
-0.0732565
-0.0698004
-0.0669175
-0.064603
-0.0628482
-0.0616417
-0.0609696
-0.0608169
-0.0611681
-0.0620076
-0.0633202
-0.0650919
-0.0673096
-0.069962
-0.0730393
-0.0765335
-0.0804382
-0.0847487
-0.0894621
-0.0945767
-0.100092
-0.106009
-0.11233
-0.119055
-0.126189
-0.265198
-0.264199
-0.261405
-0.256975
-0.25108
-0.243901
-0.235625
-0.22644
-0.216534
-0.20609
-0.195282
-0.184277
-0.173227
-0.162272
-0.151536
-0.141129
-0.131146
-0.121664
-0.112748
-0.104448
-0.0967994
-0.089827
-0.0835439
-0.0779539
-0.0730525
-0.0688284
-0.0652647
-0.0623405
-0.0600316
-0.0583118
-0.057154
-0.0565307
-0.056415
-0.0567811
-0.0576045
-0.0588628
-0.0605357
-0.0626051
-0.0650555
-0.0678735
-0.0710485
-0.0745718
-0.0784372
-0.0826403
-0.0871786
-0.0920513
-0.0972588
-0.102803
-0.108686
-0.114911
-0.338764
-0.331813
-0.322933
-0.312384
-0.300433
-0.287344
-0.273379
-0.258787
-0.243806
-0.228656
-0.213536
-0.198627
-0.184086
-0.17005
-0.156633
-0.143926
-0.132002
-0.120913
-0.110693
-0.101362
-0.0929246
-0.0853728
-0.0786895
-0.0728486
-0.0678177
-0.0635598
-0.0600343
-0.057199
-0.0550108
-0.053427
-0.0524062
-0.0519088
-0.0518976
-0.0523382
-0.0531993
-0.0544528
-0.0560737
-0.0580405
-0.0603345
-0.0629405
-0.0658456
-0.06904
-0.0725162
-0.0762689
-0.0802948
-0.0845925
-0.0891621
-0.0940049
-0.0991234
-0.104521
-0.414627
-0.399388
-0.382361
-0.363923
-0.344437
-0.324251
-0.303687
-0.283039
-0.262573
-0.242521
-0.223084
-0.204428
-0.18669
-0.169975
-0.154361
-0.139898
-0.126615
-0.114518
-0.103597
-0.0938269
-0.085169
-0.0775758
-0.0709926
-0.0653598
-0.0606149
-0.0566941
-0.0535339
-0.0510726
-0.0492507
-0.0480123
-0.047305
-0.0470809
-0.0472961
-0.0479116
-0.0488924
-0.050208
-0.0518321
-0.053742
-0.0559187
-0.0583465
-0.0610124
-0.0639064
-0.0670204
-0.0703488
-0.0738881
-0.0776363
-0.0815929
-0.0857585
-0.0901349
-0.0947246
-0.474003
-0.446262
-0.417959
-0.389478
-0.361166
-0.333336
-0.306259
-0.280166
-0.255247
-0.231652
-0.209495
-0.188852
-0.16977
-0.152266
-0.136333
-0.121942
-0.109045
-0.0975818
-0.0874801
-0.0786596
-0.0710348
-0.0645176
-0.059019
-0.0544515
-0.0507304
-0.0477746
-0.0455081
-0.04386
-0.0427654
-0.0421651
-0.0420059
-0.0422403
-0.0428264
-0.0437277
-0.0449127
-0.0463544
-0.0480301
-0.0499208
-0.0520109
-0.0542879
-0.0567417
-0.0593648
-0.0621467
-0.0650828
-0.0681708
-0.0714093
-0.074798
-0.078337
-0.0820273
-0.0858703
-0.458092
-0.470069
-0.482085
-0.49412
-0.506146
-0.518139
-0.530075
-0.541932
-0.553686
-0.565312
-0.576788
-0.588089
-0.599196
-0.610137
-0.620864
-0.631239
-0.641293
-0.650941
-0.660351
-0.669427
-0.678127
-0.68643
-0.694322
-0.701777
-0.708766
-0.71527
-0.721305
-0.726837
-0.731859
-0.736409
-0.740436
-0.743845
-0.746635
-0.74893
-0.750761
-0.752219
-0.753187
-0.753294
-0.752797
-0.75132
-0.74943
-0.747195
-0.744471
-0.741219
-0.737447
-0.733168
-0.728398
-0.723156
-0.717462
-0.711338
-0.70481
-0.697902
-0.690643
-0.683066
-0.675228
-0.667163
-0.658829
-0.650236
-0.641406
-0.632383
-0.623313
-0.614154
-0.604948
-0.595718
-0.586407
-0.576974
-0.56761
-0.558299
-0.549039
-0.539862
-0.530799
-0.521747
-0.512721
-0.503733
-0.494739
-0.485893
-0.477135
-0.468447
-0.459833
-0.451295
-0.442829
-0.434436
-0.426128
-0.417909
-0.40975
-0.401669
-0.393646
-0.385738
-0.377922
-0.370201
-0.362591
-0.355085
-0.347679
-0.340377
-0.333195
-0.326168
-0.319248
-0.31246
-0.305757
-0.299208
-0.292823
-0.286579
-0.280479
-0.274523
-0.268711
-0.263043
-0.257525
-0.25216
-0.246913
-0.241783
-0.236754
-0.231863
-0.227113
-0.222501
-0.218005
-0.213616
-0.209325
-0.205156
-0.201109
-0.197176
-0.19335
-0.18962
-0.185988
-0.182453
-0.179025
-0.175694
-0.172463
-0.169323
-0.166251
-0.163286
-0.160411
-0.157621
-0.154915
-0.15229
-0.149744
-0.147274
-0.144865
-0.142525
-0.140252
-0.138039
-0.135883
-0.133785
-0.131733
-0.129721
-0.127745
-0.125811
-0.123919
-0.122063
-0.12024
-0.11845
-0.116688
-0.11495
-0.113234
-0.111538
-0.109867
-0.108217
-0.106585
-0.104968
-0.103366
-0.101776
-0.100198
-0.0986314
-0.0970767
-0.095528
-0.0939825
-0.0924367
-0.0908971
-0.0893613
-0.0878255
-0.086289
-0.0847521
-0.0832112
-0.0816632
-0.080108
-0.0785446
-0.0769762
-0.0754001
-0.0738169
-0.0722288
-0.0706361
-0.0690302
-0.0674179
-0.0658017
-0.064176
-0.0625412
-0.0608978
-0.0592482
-0.0575944
-0.0559363
-0.0542746
-0.05261
-0.0509448
-0.0492779
-0.0476021
-0.0459152
-0.0442016
-0.0424613
-0.0406857
-0.0388732
-0.0370255
-0.0351474
-0.0332453
-0.0313267
-0.0294004
-0.0274745
-0.0255562
-0.0236515
-0.0217616
-0.0198798
-0.0180019
-0.0161029
-0.0141633
-0.0121721
-0.0101274
-0.0080326
-0.0058966
-0.00373295
-0.00155734
0.000614492
0.00276728
0.00488701
0.00696164
0.00898196
0.0109428
0.012843
0.0146818
0.0164367
0.0180837
0.0195975
0.0209591
0.0221515
0.0231587
0.0239644
0.0245473
0.0248943
0.0249955
0.0248514
0.0244678
0.0238526
0.0230189
0.0219661
0.0206809
0.0191651
0.0174299
0.015495
0.0133838
0.0111192
0.00872837
0.00624034
0.00368392
0.00107612
-0.00156236
-0.0042049
-0.00682008
-0.00938184
-0.0118725
-0.0142853
-0.016607
-0.0188201
-0.0209035
-0.0228348
-0.0245917
-0.0261544
-0.0275077
-0.0286399
-0.0295409
-0.0302019
-0.0306153
-0.0307772
-0.0306876
-0.0303509
-0.0297757
-0.0289745
-0.0279636
-0.0267626
-0.0253945
-0.0238845
-0.0222598
-0.0205489
-0.0187813
-0.0169865
-0.0151939
-0.0134315
-0.0117254
-0.0100994
-0.00857394
-0.00716592
-0.00588816
-0.00474915
-0.00375291
-0.00289913
-0.00218338
-0.00159761
-0.00113077
-0.000769573
-0.000499335
-0.000304842
-0.000171166
-8.43839e-05
-3.21338e-05
-0.47166
-0.48376
-0.495875
-0.507982
-0.520059
-0.532085
-0.544039
-0.555896
-0.567635
-0.579231
-0.590661
-0.601901
-0.612963
-0.623853
-0.634397
-0.644612
-0.654407
-0.663983
-0.673211
-0.682054
-0.690502
-0.698508
-0.70605
-0.713127
-0.719718
-0.725798
-0.73135
-0.736359
-0.740845
-0.744813
-0.748156
-0.750718
-0.752814
-0.754422
-0.755776
-0.75643
-0.756118
-0.754671
-0.752897
-0.750811
-0.748155
-0.744936
-0.741123
-0.73678
-0.731916
-0.726548
-0.720694
-0.714377
-0.707621
-0.70045
-0.692892
-0.684976
-0.676744
-0.668278
-0.659551
-0.65051
-0.641236
-0.631723
-0.622166
-0.612518
-0.602794
-0.593034
-0.583282
-0.573553
-0.563791
-0.554007
-0.544283
-0.534697
-0.525227
-0.515933
-0.50673
-0.497571
-0.488446
-0.479569
-0.470845
-0.462258
-0.453806
-0.445489
-0.437315
-0.429267
-0.421327
-0.413483
-0.405764
-0.398174
-0.390691
-0.383322
-0.376058
-0.368886
-0.361808
-0.354838
-0.348006
-0.341249
-0.334591
-0.327979
-0.321502
-0.315167
-0.30895
-0.302852
-0.296879
-0.291032
-0.285314
-0.279725
-0.274266
-0.268933
-0.263724
-0.258646
-0.253696
-0.248826
-0.244043
-0.239336
-0.234762
-0.230295
-0.225931
-0.221671
-0.217518
-0.213462
-0.209471
-0.205599
-0.201829
-0.198159
-0.194575
-0.19107
-0.187663
-0.184341
-0.181105
-0.177941
-0.174842
-0.171806
-0.16885
-0.165965
-0.163149
-0.160398
-0.157711
-0.155082
-0.152511
-0.14999
-0.147512
-0.14508
-0.142687
-0.14033
-0.138005
-0.135711
-0.133436
-0.131169
-0.12892
-0.126696
-0.124491
-0.122309
-0.12014
-0.117982
-0.115834
-0.1137
-0.111588
-0.109494
-0.107419
-0.105363
-0.103325
-0.101303
-0.0992954
-0.0973013
-0.0953182
-0.0933452
-0.091382
-0.0894221
-0.0874602
-0.0855017
-0.0835548
-0.0816161
-0.0796861
-0.0777645
-0.0758464
-0.073931
-0.0720184
-0.0701135
-0.0682161
-0.0663248
-0.064439
-0.0625584
-0.0606833
-0.0588128
-0.0569391
-0.0550656
-0.0532001
-0.0513401
-0.0494878
-0.0476454
-0.0458154
-0.0439996
-0.0421996
-0.0404159
-0.0386485
-0.0368968
-0.035158
-0.0334253
-0.0316914
-0.0299673
-0.0282595
-0.026572
-0.0249088
-0.0232735
-0.0216695
-0.0200998
-0.0185673
-0.0170743
-0.0156218
-0.0142094
-0.0128346
-0.0114931
-0.0101776
-0.00888657
-0.00764273
-0.00646317
-0.00535717
-0.00432484
-0.00336555
-0.00248041
-0.0016766
-0.000960151
-0.000335327
0.000194897
0.000628843
0.000966414
0.00120959
0.00136278
0.00143229
0.00142019
0.00130021
0.00105716
0.000686141
0.000192661
-0.000421986
-0.00115757
-0.00201402
-0.00298762
-0.00407235
-0.00525909
-0.00653634
-0.0078907
-0.009308
-0.0107753
-0.0122849
-0.0138383
-0.0154297
-0.0170484
-0.01868
-0.0203077
-0.0219133
-0.0234779
-0.0249827
-0.0264106
-0.0277472
-0.0289787
-0.0300914
-0.031073
-0.031913
-0.0326035
-0.0331388
-0.0335143
-0.0337266
-0.0337733
-0.0336537
-0.0333683
-0.0329197
-0.0323123
-0.0315525
-0.0306482
-0.0296092
-0.028447
-0.0271742
-0.0258054
-0.0243558
-0.0228418
-0.0212807
-0.0196897
-0.0180865
-0.0164885
-0.0149124
-0.0133741
-0.0118884
-0.0104688
-0.00912693
-0.00787266
-0.00671381
-0.00565602
-0.00470271
-0.00385506
-0.00311207
-0.00247069
-0.00192604
-0.00147163
-0.00109971
-0.000801615
-0.000568113
-0.000389809
-0.000257487
-0.000162421
-9.66396e-05
-5.31098e-05
-2.58552e-05
-9.99393e-06
-0.466568
-0.478634
-0.49072
-0.502813
-0.514893
-0.526943
-0.538944
-0.550873
-0.562709
-0.57443
-0.586011
-0.597427
-0.608658
-0.619718
-0.630571
-0.641072
-0.651215
-0.661054
-0.670579
-0.679737
-0.688507
-0.696861
-0.70476
-0.71218
-0.719111
-0.725523
-0.731396
-0.736711
-0.741488
-0.745705
-0.749281
-0.752036
-0.75432
-0.756046
-0.757361
-0.758185
-0.757558
-0.756219
-0.754647
-0.752484
-0.749807
-0.746589
-0.742447
-0.737799
-0.732701
-0.72707
-0.720918
-0.714266
-0.707136
-0.699555
-0.691554
-0.683166
-0.674457
-0.665472
-0.656176
-0.646501
-0.636682
-0.626764
-0.616737
-0.606639
-0.596519
-0.586448
-0.576381
-0.566315
-0.556243
-0.546314
-0.536533
-0.526886
-0.517394
-0.508093
-0.498979
-0.489894
-0.481029
-0.472392
-0.46395
-0.455691
-0.447603
-0.43968
-0.431933
-0.424353
-0.416929
-0.409654
-0.40252
-0.395526
-0.388671
-0.381956
-0.375307
-0.368733
-0.362203
-0.35575
-0.349449
-0.343249
-0.337151
-0.331157
-0.325262
-0.31948
-0.313815
-0.308268
-0.30284
-0.29753
-0.292338
-0.287261
-0.282295
-0.277435
-0.272678
-0.268025
-0.26347
-0.258983
-0.254513
-0.25017
-0.245918
-0.241756
-0.237684
-0.233705
-0.229817
-0.226006
-0.222247
-0.218594
-0.215024
-0.211536
-0.208129
-0.204801
-0.201548
-0.198367
-0.195255
-0.192207
-0.189204
-0.186246
-0.183355
-0.18052
-0.17774
-0.175011
-0.172331
-0.169696
-0.167102
-0.164543
-0.162014
-0.159512
-0.157033
-0.154573
-0.152126
-0.14969
-0.14726
-0.144822
-0.142386
-0.139959
-0.13754
-0.135127
-0.132707
-0.130279
-0.127849
-0.125436
-0.123039
-0.120663
-0.118312
-0.115985
-0.113684
-0.111407
-0.109153
-0.10692
-0.104706
-0.102508
-0.100325
-0.0981553
-0.0959903
-0.093835
-0.0917046
-0.0895971
-0.0875144
-0.0854559
-0.0834182
-0.0813982
-0.0794078
-0.0774468
-0.0755168
-0.0736182
-0.0717503
-0.0699119
-0.0681021
-0.0663192
-0.0645573
-0.0628118
-0.0610923
-0.0593979
-0.0577319
-0.0560983
-0.0545008
-0.0529429
-0.0514268
-0.0499539
-0.0485243
-0.0471371
-0.04579
-0.0444801
-0.043206
-0.0419687
-0.0407759
-0.039631
-0.0385357
-0.0374931
-0.0365056
-0.0355748
-0.0347017
-0.0338864
-0.0331282
-0.0324252
-0.0317747
-0.0311732
-0.0306163
-0.030104
-0.0296479
-0.0292538
-0.0289232
-0.0286549
-0.0284468
-0.0282969
-0.0282087
-0.0281825
-0.0282176
-0.0283115
-0.0284606
-0.0286601
-0.0289043
-0.0291871
-0.0295017
-0.029845
-0.0302218
-0.0306339
-0.0310801
-0.0315575
-0.0320623
-0.032589
-0.0331312
-0.0336831
-0.0342385
-0.0347901
-0.0353302
-0.0358506
-0.0363434
-0.0368009
-0.0372168
-0.0375849
-0.0378993
-0.0381538
-0.0383418
-0.0384572
-0.0384937
-0.0384458
-0.0383085
-0.0380777
-0.0377503
-0.0373239
-0.0367976
-0.0361715
-0.0354468
-0.0346259
-0.0337123
-0.0327104
-0.0316255
-0.0304639
-0.0292328
-0.0279401
-0.0265945
-0.0252052
-0.023782
-0.022335
-0.0208745
-0.019411
-0.0179548
-0.0165162
-0.0151051
-0.0137308
-0.0124021
-0.0111271
-0.00991284
-0.00876548
-0.0076901
-0.00669064
-0.00576986
-0.00492932
-0.00416938
-0.00348924
-0.00288702
-0.0023598
-0.00190378
-0.00151438
-0.00118641
-0.000914226
-0.000691892
-0.000513371
-0.000372676