/*--------------------------------*- C++ -*----------------------------------*\
| =========                 |                                                 |
| \\      /  F ield         | OpenFOAM: The Open Source CFD Toolbox           |
|  \\    /   O peration     | Version:  2.4.0                                 |
|   \\  /    A nd           | Web:      www.OpenFOAM.org                      |
|    \\/     M anipulation  |                                                 |
\*---------------------------------------------------------------------------*/
FoamFile
{
    version     2.0;
    format      ascii;
    class       volVectorField;
    location    "3.1";
    object      U;
}
// * * * * * * * * * * * * * * * * * * * * * * * * * * * * * * * * * * * * * //

dimensions      [0 1 -1 0 0 0 0];

internalField   nonuniform List<vector> 
8000
(
(1.05092e-06 -0.000176214 0)
(6.96958e-06 -0.000515663 0)
(1.74688e-05 -0.00084013 0)
(3.14453e-05 -0.00114907 0)
(4.80404e-05 -0.00144242 0)
(6.65754e-05 -0.00171845 0)
(8.62458e-05 -0.00197602 0)
(0.000106533 -0.00221305 0)
(0.000127215 -0.00242801 0)
(0.000149162 -0.00261831 0)
(0.000170185 -0.00278182 0)
(0.000174041 -0.00291657 0)
(0.000127849 -0.00302448 0)
(4.38913e-05 -0.00315546 0)
(-4.16404e-05 -0.00325124 0)
(0.000180714 -0.00320433 0)
(0.000566097 -0.00332637 0)
(0.000956887 -0.00343201 0)
(0.00204192 -0.0129024 0)
(0.00319322 -0.0123673 0)
(0.00473307 -0.0105733 0)
(0.00647791 -0.0113123 0)
(0.00810928 -0.0129657 0)
(0.00932799 -0.013703 0)
(0.010216 -0.0132523 0)
(0.0108925 -0.0122152 0)
(0.0114231 -0.0115622 0)
(0.0118691 -0.0116311 0)
(0.0122373 -0.0109857 0)
(0.012476 -0.0102841 0)
(0.0126474 -0.0102999 0)
(0.0128127 -0.0105991 0)
(0.0129375 -0.0111406 0)
(0.0129806 -0.0116421 0)
(0.0129378 -0.0123584 0)
(0.0128209 -0.0132082 0)
(0.0126322 -0.0141521 0)
(0.0123838 -0.0150825 0)
(0.0120916 -0.0162496 0)
(0.0117561 -0.0174207 0)
(0.0113625 -0.0185546 0)
(0.0109156 -0.0197187 0)
(0.0104417 -0.0208715 0)
(0.00993904 -0.0219505 0)
(0.00942053 -0.0229822 0)
(0.00889271 -0.0241289 0)
(0.00834955 -0.0253254 0)
(0.00780893 -0.0265867 0)
(0.00726672 -0.0279048 0)
(0.00673505 -0.0292517 0)
(3.47494e-07 -0.00018566 0)
(6.15565e-06 -0.000544707 0)
(2.00656e-05 -0.000888771 0)
(4.16835e-05 -0.00122024 0)
(7.13963e-05 -0.00154019 0)
(0.000108481 -0.00184754 0)
(0.000153348 -0.00213903 0)
(0.000205401 -0.00241371 0)
(0.000267313 -0.0026679 0)
(0.000340333 -0.00290177 0)
(0.000422495 -0.00311472 0)
(0.000473558 -0.00330923 0)
(0.000411048 -0.00355173 0)
(0.000131724 -0.00432434 0)
(0.000217216 -0.0114303 0)
(0.000737056 -0.0136024 0)
(0.0011174 -0.0123943 0)
(0.00123337 -0.011298 0)
(0.0011071 -0.0113069 0)
(0.000854729 -0.0110762 0)
(0.000727364 -0.0108242 0)
(0.000708438 -0.0106828 0)
(0.000662294 -0.0104495 0)
(0.000534308 -0.0103585 0)
(0.00038113 -0.0102609 0)
(0.000273477 -0.0100802 0)
(0.000235372 -0.00987477 0)
(0.000209394 -0.00978089 0)
(0.000160476 -0.00921888 0)
(0.000133198 -0.00939877 0)
(0.0001513 -0.0112057 0)
(0.000225426 -0.0130803 0)
(0.000304101 -0.0130152 0)
(0.000296949 -0.0119122 0)
(0.000249114 -0.0120662 0)
(0.000217351 -0.0124574 0)
(0.000190821 -0.0129258 0)
(0.000164816 -0.0134651 0)
(0.000118241 -0.0142321 0)
(4.06894e-05 -0.0148983 0)
(-6.00247e-05 -0.0155677 0)
(-0.000177155 -0.0163572 0)
(-0.000310721 -0.0172347 0)
(-0.000455742 -0.0181402 0)
(-0.000599347 -0.0191124 0)
(-0.00074206 -0.0201889 0)
(-0.000886298 -0.0213836 0)
(-0.00102928 -0.02269 0)
(-0.00116862 -0.0240632 0)
(-0.00129963 -0.0255035 0)
(2.61624e-06 -0.000275612 0)
(2.42356e-05 -0.000810204 0)
(6.59147e-05 -0.00132924 0)
(0.000126035 -0.00183202 0)
(0.000202543 -0.0023216 0)
(0.000293385 -0.00278964 0)
(0.000397606 -0.00324047 0)
(0.000511688 -0.00366667 0)
(0.000640483 -0.00407596 0)
(0.000777272 -0.0044611 0)
(0.000950345 -0.00482788 0)
(0.00113378 -0.00516784 0)
(0.00106416 -0.00551444 0)
(0.000792264 -0.00620139 0)
(0.00064774 -0.00762795 0)
(0.000426196 -0.00879915 0)
(0.000229178 -0.00905297 0)
(0.000115846 -0.00926342 0)
(5.6783e-05 -0.00955162 0)
(-6.45791e-06 -0.00975187 0)
(-7.63285e-05 -0.00993897 0)
(-0.000145006 -0.0101129 0)
(-0.000199933 -0.0101966 0)
(-0.000245721 -0.0102323 0)
(-0.000289679 -0.0102453 0)
(-0.000331442 -0.01028 0)
(-0.000364469 -0.0103244 0)
(-0.000380023 -0.0103439 0)
(-0.000371403 -0.0102872 0)
(-0.000352973 -0.0101495 0)
(-0.00037189 -0.010089 0)
(-0.000478678 -0.0102902 0)
(-0.000663633 -0.0105425 0)
(-0.000810379 -0.0104905 0)
(-0.000869352 -0.0110331 0)
(-0.000943665 -0.0118451 0)
(-0.00104364 -0.0127356 0)
(-0.00115156 -0.0136203 0)
(-0.00125687 -0.0143109 0)
(-0.0013612 -0.014763 0)
(-0.00146671 -0.0153317 0)
(-0.00157434 -0.016039 0)
(-0.00168743 -0.0168669 0)
(-0.00180267 -0.0178194 0)
(-0.00191622 -0.0188859 0)
(-0.00202673 -0.0200427 0)
(-0.00213385 -0.0213016 0)
(-0.00223891 -0.0226534 0)
(-0.00234166 -0.0240893 0)
(-0.00244184 -0.0256101 0)
(1.44438e-06 -0.000463509 0)
(1.49295e-05 -0.00133098 0)
(4.06753e-05 -0.00214227 0)
(7.70612e-05 -0.00289754 0)
(0.000122943 -0.00360135 0)
(0.000176376 -0.00425069 0)
(0.000235882 -0.004851 0)
(0.000301716 -0.00539725 0)
(0.000370666 -0.00589606 0)
(0.000447291 -0.00634132 0)
(0.000535237 -0.00673909 0)
(0.000600704 -0.00707965 0)
(0.000623558 -0.00737136 0)
(0.000623528 -0.00772019 0)
(0.000605514 -0.00805439 0)
(0.00055262 -0.00845709 0)
(0.00049869 -0.00873035 0)
(0.000475847 -0.00890926 0)
(0.000444976 -0.0089881 0)
(0.000397664 -0.0090156 0)
(0.000345119 -0.00903311 0)
(0.000284711 -0.00904287 0)
(0.000219461 -0.00905663 0)
(0.000156952 -0.00907852 0)
(9.5536e-05 -0.00912082 0)
(3.77255e-05 -0.00918284 0)
(-2.15794e-05 -0.00926941 0)
(-8.03669e-05 -0.00937432 0)
(-0.000138051 -0.00949824 0)
(-0.000187369 -0.00963591 0)
(-0.000225203 -0.0097809 0)
(-0.000254499 -0.00990505 0)
(-0.000287357 -0.0100131 0)
(-0.000329878 -0.0101458 0)
(-0.000381748 -0.0103155 0)
(-0.000445065 -0.0105132 0)
(-0.000529604 -0.0107821 0)
(-0.000634587 -0.011172 0)
(-0.00076518 -0.0117774 0)
(-0.000916859 -0.0126185 0)
(-0.00107844 -0.0133367 0)
(-0.00125645 -0.0138299 0)
(-0.00143009 -0.0146005 0)
(-0.0015866 -0.0155364 0)
(-0.00173614 -0.0165725 0)
(-0.0018878 -0.0177049 0)
(-0.00204555 -0.0189386 0)
(-0.00221051 -0.0202744 0)
(-0.00238242 -0.0217071 0)
(-0.00256037 -0.0232312 0)
(-1.3716e-06 -0.000452185 0)
(-8.67534e-06 -0.0013047 0)
(-2.17723e-05 -0.00210556 0)
(-3.92505e-05 -0.00285428 0)
(-6.02171e-05 -0.00355263 0)
(-8.35932e-05 -0.00420333 0)
(-0.000109011 -0.00480827 0)
(-0.000135362 -0.0053672 0)
(-0.000162324 -0.00588072 0)
(-0.000188898 -0.00634699 0)
(-0.000214608 -0.00676711 0)
(-0.000238117 -0.00713823 0)
(-0.000258015 -0.00745982 0)
(-0.000273649 -0.00772392 0)
(-0.000299252 -0.00793239 0)
(-0.000390448 -0.00817946 0)
(-0.00050449 -0.00841223 0)
(-0.000569742 -0.00855714 0)
(-0.00061112 -0.0086149 0)
(-0.000641222 -0.00864125 0)
(-0.000664535 -0.0086446 0)
(-0.000682664 -0.00866868 0)
(-0.000693114 -0.00874211 0)
(-0.000697335 -0.00882265 0)
(-0.000697896 -0.00888334 0)
(-0.000699315 -0.00892593 0)
(-0.000703124 -0.00895593 0)
(-0.000712044 -0.00898046 0)
(-0.000726571 -0.00900981 0)
(-0.000748542 -0.00905079 0)
(-0.000777437 -0.00910233 0)
(-0.000811721 -0.00916029 0)
(-0.000848255 -0.00923004 0)
(-0.000888195 -0.00932455 0)
(-0.000933106 -0.00945988 0)
(-0.000983939 -0.00964912 0)
(-0.00103941 -0.00990133 0)
(-0.00110002 -0.0102113 0)
(-0.00116863 -0.01058 0)
(-0.00125555 -0.0110449 0)
(-0.00136582 -0.011639 0)
(-0.00145428 -0.0123334 0)
(-0.00152505 -0.0130795 0)
(-0.00169777 -0.0140447 0)
(-0.00188745 -0.0150149 0)
(-0.00203979 -0.016028 0)
(-0.00216241 -0.0171352 0)
(-0.00229497 -0.0183254 0)
(-0.00245688 -0.0196088 0)
(-0.00264796 -0.020995 0)
(-8.26834e-07 -0.000373634 0)
(-1.04705e-05 -0.00109345 0)
(-2.91962e-05 -0.00178528 0)
(-5.60416e-05 -0.00244588 0)
(-8.97399e-05 -0.00307264 0)
(-0.000129037 -0.00366557 0)
(-0.000173045 -0.00422516 0)
(-0.000220817 -0.00475148 0)
(-0.000271477 -0.00524477 0)
(-0.000324098 -0.00570512 0)
(-0.000377748 -0.00613254 0)
(-0.000431393 -0.00652784 0)
(-0.000483866 -0.00689153 0)
(-0.000534076 -0.00722451 0)
(-0.000581417 -0.00752754 0)
(-0.000626526 -0.007801 0)
(-0.000670479 -0.00803803 0)
(-0.000712017 -0.00823473 0)
(-0.000746457 -0.00839265 0)
(-0.000771878 -0.0085212 0)
(-0.000783814 -0.0086192 0)
(-0.000782367 -0.00872402 0)
(-0.000793907 -0.00885318 0)
(-0.000825656 -0.00896652 0)
(-0.000854989 -0.00904113 0)
(-0.000875625 -0.00908326 0)
(-0.000890498 -0.00909818 0)
(-0.000900054 -0.00909295 0)
(-0.000905975 -0.0090705 0)
(-0.000911198 -0.00903469 0)
(-0.000916316 -0.00903725 0)
(-0.000919438 -0.00908494 0)
(-0.000921801 -0.00912451 0)
(-0.000927362 -0.00914407 0)
(-0.000939515 -0.00916916 0)
(-0.000960269 -0.00921691 0)
(-0.000991518 -0.00929206 0)
(-0.00103393 -0.009394 0)
(-0.00108864 -0.00953192 0)
(-0.00115841 -0.00973321 0)
(-0.00124464 -0.0100413 0)
(-0.00134658 -0.0104932 0)
(-0.00146302 -0.0110886 0)
(-0.00159731 -0.012023 0)
(-0.00171943 -0.0137657 0)
(-0.0017801 -0.0155644 0)
(-0.00192034 -0.0163227 0)
(-0.00214234 -0.0166233 0)
(-0.00238761 -0.017259 0)
(-0.00263788 -0.0181737 0)
(-9.06746e-07 -0.000314329 0)
(-8.64257e-06 -0.00092274 0)
(-2.37637e-05 -0.00151142 0)
(-4.56846e-05 -0.00207904 0)
(-7.35831e-05 -0.00262414 0)
(-0.000106665 -0.00314668 0)
(-0.00014427 -0.00364666 0)
(-0.000185738 -0.00412385 0)
(-0.000230411 -0.00457814 0)
(-0.000277658 -0.00500937 0)
(-0.000326826 -0.0054174 0)
(-0.000377308 -0.00580235 0)
(-0.000428501 -0.0061643 0)
(-0.000479856 -0.00650352 0)
(-0.000530813 -0.0068202 0)
(-0.000580823 -0.00711473 0)
(-0.000629217 -0.00738729 0)
(-0.000675221 -0.00763826 0)
(-0.00071794 -0.00786796 0)
(-0.000756676 -0.00807736 0)
(-0.000791057 -0.00826693 0)
(-0.000821385 -0.00843812 0)
(-0.000848596 -0.00859115 0)
(-0.000873263 -0.00872299 0)
(-0.000894976 -0.00883171 0)
(-0.000913156 -0.00891864 0)
(-0.000927169 -0.00898318 0)
(-0.000936066 -0.0090258 0)
(-0.000938904 -0.00904392 0)
(-0.00093832 -0.00903961 0)
(-0.000951 -0.00905869 0)
(-0.00097297 -0.00910246 0)
(-0.000986917 -0.00912364 0)
(-0.000993989 -0.00911416 0)
(-0.000996227 -0.00909091 0)
(-0.000997474 -0.00905701 0)
(-0.000999348 -0.00906736 0)
(-0.00100107 -0.00912059 0)
(-0.00100531 -0.00917548 0)
(-0.00101644 -0.00924915 0)
(-0.00103788 -0.00936336 0)
(-0.00107315 -0.00951794 0)
(-0.00112731 -0.00973152 0)
(-0.00120735 -0.0100698 0)
(-0.00133017 -0.0106911 0)
(-0.00151642 -0.0118912 0)
(-0.00172555 -0.0134155 0)
(-0.00190362 -0.0137842 0)
(-0.00212943 -0.0140789 0)
(-0.00240981 -0.0148158 0)
(-4.91718e-07 -0.000274514 0)
(-6.12511e-06 -0.000808952 0)
(-1.75468e-05 -0.00132895 0)
(-3.44571e-05 -0.00183332 0)
(-5.62979e-05 -0.002321 0)
(-8.25354e-05 -0.00279193 0)
(-0.000112734 -0.0032461 0)
(-0.000146458 -0.00368338 0)
(-0.000183271 -0.00410373 0)
(-0.00022275 -0.00450703 0)
(-0.000264459 -0.00489323 0)
(-0.000307987 -0.00526228 0)
(-0.000352913 -0.0056142 0)
(-0.000398847 -0.00594903 0)
(-0.00044539 -0.00626682 0)
(-0.00049218 -0.0065677 0)
(-0.000538837 -0.00685177 0)
(-0.000585026 -0.00711921 0)
(-0.000630389 -0.00737023 0)
(-0.000674631 -0.00760507 0)
(-0.000717445 -0.00782398 0)
(-0.000758591 -0.00802725 0)
(-0.000797799 -0.00821509 0)
(-0.000834776 -0.00838773 0)
(-0.000869171 -0.00854529 0)
(-0.000900567 -0.00868808 0)
(-0.000928566 -0.00881628 0)
(-0.000952657 -0.0089303 0)
(-0.000972492 -0.00903041 0)
(-0.000987838 -0.00911712 0)
(-0.000999407 -0.00919063 0)
(-0.0010078 -0.0092495 0)
(-0.00101371 -0.00929084 0)
(-0.00101642 -0.00931335 0)
(-0.00101485 -0.00931722 0)
(-0.00100824 -0.00929871 0)
(-0.00100111 -0.00930929 0)
(-0.00100059 -0.00934468 0)
(-0.00100259 -0.0093656 0)
(-0.00100238 -0.00937726 0)
(-0.00100197 -0.0094289 0)
(-0.00100273 -0.00950053 0)
(-0.00100716 -0.00958402 0)
(-0.00101994 -0.00968062 0)
(-0.00104896 -0.00978988 0)
(-0.00111585 -0.00992738 0)
(-0.0012552 -0.0101046 0)
(-0.00144548 -0.0102541 0)
(-0.00162322 -0.01037 0)
(-0.00180271 -0.010505 0)
(-6.00574e-07 -0.000234349 0)
(-5.3052e-06 -0.000693877 0)
(-1.44362e-05 -0.00114424 0)
(-2.77049e-05 -0.00158452 0)
(-4.47071e-05 -0.00201383 0)
(-6.5092e-05 -0.00243184 0)
(-8.85705e-05 -0.00283831 0)
(-0.000114849 -0.00323294 0)
(-0.000143635 -0.00361549 0)
(-0.000174642 -0.00398572 0)
(-0.000207578 -0.00434342 0)
(-0.000242161 -0.00468844 0)
(-0.000278106 -0.00502064 0)
(-0.000315137 -0.00533993 0)
(-0.000352979 -0.00564623 0)
(-0.000391368 -0.00593952 0)
(-0.000430037 -0.00621979 0)
(-0.000468736 -0.00648705 0)
(-0.000507214 -0.00674136 0)
(-0.000545237 -0.00698277 0)
(-0.000582571 -0.00721138 0)
(-0.000618999 -0.00742728 0)
(-0.000654304 -0.00763061 0)
(-0.000688284 -0.00782149 0)
(-0.000720729 -0.00800011 0)
(-0.000751447 -0.00816663 0)
(-0.000780238 -0.00832131 0)
(-0.000806922 -0.00846433 0)
(-0.000831317 -0.00859605 0)
(-0.000853254 -0.00871666 0)
(-0.000872562 -0.00882661 0)
(-0.000889034 -0.008926 0)
(-0.000902384 -0.00901535 0)
(-0.00091222 -0.00909466 0)
(-0.000918152 -0.00916473 0)
(-0.000920032 -0.00922563 0)
(-0.000918382 -0.00927852 0)
(-0.000914044 -0.00932273 0)
(-0.000907374 -0.00935485 0)
(-0.000897011 -0.00937208 0)
(-0.000885204 -0.00941724 0)
(-0.000878089 -0.00947507 0)
(-0.000872877 -0.00954854 0)
(-0.000865558 -0.00961569 0)
(-0.000858759 -0.00967438 0)
(-0.000854233 -0.00972857 0)
(-0.000853906 -0.00978714 0)
(-0.000860671 -0.00985438 0)
(-0.000873411 -0.00992518 0)
(-0.000888675 -0.0100014 0)
(-4.50487e-08 -0.000216406 0)
(-1.88557e-06 -0.000641157 0)
(-5.97698e-06 -0.00105787 0)
(-1.23399e-05 -0.00146601 0)
(-2.08233e-05 -0.00186506 0)
(-3.12644e-05 -0.00225487 0)
(-4.35216e-05 -0.00263531 0)
(-5.74423e-05 -0.00300623 0)
(-7.28685e-05 -0.00336749 0)
(-8.96348e-05 -0.00371896 0)
(-0.000107568 -0.0040605 0)
(-0.000126493 -0.004392 0)
(-0.000146229 -0.00471337 0)
(-0.000166594 -0.00502455 0)
(-0.000187405 -0.00532548 0)
(-0.000208476 -0.00561611 0)
(-0.000229625 -0.00589642 0)
(-0.000250669 -0.0061664 0)
(-0.00027143 -0.00642606 0)
(-0.00029173 -0.00667542 0)
(-0.000311396 -0.00691452 0)
(-0.000330258 -0.0071434 0)
(-0.000348155 -0.00736214 0)
(-0.000364922 -0.0075708 0)
(-0.000380413 -0.00776947 0)
(-0.000394473 -0.00795825 0)
(-0.000406973 -0.00813727 0)
(-0.000417772 -0.00830664 0)
(-0.000426762 -0.00846653 0)
(-0.000433819 -0.00861707 0)
(-0.00043886 -0.00875848 0)
(-0.000441778 -0.0088909 0)
(-0.000442515 -0.00901461 0)
(-0.00044098 -0.00912977 0)
(-0.000437149 -0.00923674 0)
(-0.00043096 -0.00933572 0)
(-0.000422418 -0.00942715 0)
(-0.000411444 -0.00951115 0)
(-0.000397982 -0.0095882 0)
(-0.000382035 -0.00965836 0)
(-0.000364075 -0.00972247 0)
(-0.000345364 -0.00978038 0)
(-0.000329267 -0.00984628 0)
(-0.000316627 -0.00990199 0)
(-0.00030381 -0.00994476 0)
(-0.00029004 -0.00997497 0)
(-0.000275969 -0.00999938 0)
(-0.000261566 -0.0100248 0)
(-0.000250281 -0.0100538 0)
(-0.000242948 -0.0100864 0)
(-3.52333e-07 -0.000204232 0)
(-2.53136e-06 -0.000605402 0)
(-6.60724e-06 -0.000999353 0)
(-1.24244e-05 -0.0013858 0)
(-1.98255e-05 -0.00176447 0)
(-2.86837e-05 -0.0021353 0)
(-3.88942e-05 -0.00249824 0)
(-5.03453e-05 -0.00285321 0)
(-6.29255e-05 -0.00320016 0)
(-7.65184e-05 -0.00353899 0)
(-9.10088e-05 -0.00386963 0)
(-0.000106277 -0.00419202 0)
(-0.000122207 -0.00450611 0)
(-0.000138678 -0.00481183 0)
(-0.000155577 -0.00510915 0)
(-0.000172781 -0.00539804 0)
(-0.000190182 -0.00567845 0)
(-0.00020766 -0.00595036 0)
(-0.000225114 -0.00621374 0)
(-0.000242427 -0.00646858 0)
(-0.000259508 -0.00671486 0)
(-0.000276245 -0.0069526 0)
(-0.000292559 -0.00718176 0)
(-0.000308344 -0.00740238 0)
(-0.000323538 -0.00761444 0)
(-0.00033804 -0.00781797 0)
(-0.000351807 -0.00801294 0)
(-0.000364742 -0.00819942 0)
(-0.00037683 -0.00837738 0)
(-0.000387977 -0.00854689 0)
(-0.000398194 -0.00870791 0)
(-0.000407391 -0.00886055 0)
(-0.000415611 -0.00900472 0)
(-0.00042277 -0.00914062 0)
(-0.000428947 -0.00926804 0)
(-0.000434066 -0.0093873 0)
(-0.000438197 -0.00949805 0)
(-0.000441168 -0.00960076 0)
(-0.000442932 -0.00969494 0)
(-0.000443965 -0.00978174 0)
(-0.000447555 -0.00986162 0)
(-0.000463743 -0.00991512 0)
(-0.000483646 -0.00996395 0)
(-0.000493982 -0.0100129 0)
(-0.000499479 -0.0100581 0)
(-0.000502808 -0.0100938 0)
(-0.000504221 -0.0101162 0)
(-0.000504527 -0.0101313 0)
(-0.00050413 -0.0101486 0)
(-0.000503815 -0.0101725 0)
(6.56073e-08 -0.000192607 0)
(-4.14722e-07 -0.000572054 0)
(-1.66794e-06 -0.000945657 0)
(-3.74035e-06 -0.00131313 0)
(-6.58232e-06 -0.00167422 0)
(-1.01325e-05 -0.00202882 0)
(-1.4339e-05 -0.00237682 0)
(-1.91453e-05 -0.00271814 0)
(-2.44979e-05 -0.00305267 0)
(-3.03355e-05 -0.00338031 0)
(-3.66009e-05 -0.00370096 0)
(-4.32274e-05 -0.00401454 0)
(-5.01574e-05 -0.00432096 0)
(-5.73198e-05 -0.00462014 0)
(-6.46595e-05 -0.004912 0)
(-7.21016e-05 -0.00519649 0)
(-7.95957e-05 -0.0054735 0)
(-8.70628e-05 -0.00574299 0)
(-9.446e-05 -0.00600487 0)
(-0.000101704 -0.00625909 0)
(-0.000108762 -0.00650557 0)
(-0.000115546 -0.00674428 0)
(-0.000122036 -0.0069751 0)
(-0.000128136 -0.00719805 0)
(-0.000133844 -0.00741297 0)
(-0.000139051 -0.00761994 0)
(-0.000143776 -0.00781873 0)
(-0.000147893 -0.00800951 0)
(-0.000151446 -0.00819197 0)
(-0.000154287 -0.00836641 0)
(-0.000156483 -0.00853237 0)
(-0.000157866 -0.00869037 0)
(-0.000158526 -0.00883972 0)
(-0.000158262 -0.00898129 0)
(-0.000157106 -0.00911395 0)
(-0.000154727 -0.00923919 0)
(-0.000151109 -0.00935534 0)
(-0.000147076 -0.00946562 0)
(-0.000147253 -0.00957002 0)
(-0.000165281 -0.00964184 0)
(-0.000194342 -0.00968607 0)
(-0.000214185 -0.00970642 0)
(-0.000226968 -0.00972574 0)
(-0.000243185 -0.0097576 0)
(-0.000266771 -0.00980963 0)
(-0.000298267 -0.00988978 0)
(-0.000330279 -0.00996951 0)
(-0.000355692 -0.0100237 0)
(-0.00037499 -0.0100575 0)
(-0.000390439 -0.0100988 0)
(-1.31243e-07 -0.000193187 0)
(-5.46606e-07 -0.000573058 0)
(-1.17156e-06 -0.0009465 0)
(-1.94989e-06 -0.00131344 0)
(-2.86253e-06 -0.00167379 0)
(-3.89474e-06 -0.00202758 0)
(-5.03952e-06 -0.00237478 0)
(-6.27496e-06 -0.0027154 0)
(-7.58888e-06 -0.00304943 0)
(-8.95063e-06 -0.00337683 0)
(-1.03456e-05 -0.00369756 0)
(-1.17332e-05 -0.00401162 0)
(-1.30994e-05 -0.00431894 0)
(-1.43933e-05 -0.00461951 0)
(-1.56033e-05 -0.00491325 0)
(-1.66662e-05 -0.00520017 0)
(-1.75761e-05 -0.00548017 0)
(-1.82541e-05 -0.00575325 0)
(-1.8702e-05 -0.00601929 0)
(-1.88219e-05 -0.00627833 0)
(-1.86262e-05 -0.00653021 0)
(-1.79931e-05 -0.00677503 0)
(-1.69482e-05 -0.00701254 0)
(-1.53395e-05 -0.00724295 0)
(-1.32086e-05 -0.0074659 0)
(-1.03666e-05 -0.00768178 0)
(-6.87117e-06 -0.00789002 0)
(-2.49009e-06 -0.0080913 0)
(2.70259e-06 -0.00828473 0)
(8.9804e-06 -0.00847147 0)
(1.62529e-05 -0.00865011 0)
(2.48504e-05 -0.00882253 0)
(3.4812e-05 -0.00898647 0)
(4.67223e-05 -0.00914494 0)
(6.07453e-05 -0.00929468 0)
(7.51619e-05 -0.00944193 0)
(8.05356e-05 -0.00958626 0)
(5.12067e-05 -0.00966463 0)
(4.98456e-06 -0.00970532 0)
(-2.27291e-05 -0.00971306 0)
(-4.11225e-05 -0.00968496 0)
(-6.51085e-05 -0.00964488 0)
(-9.96365e-05 -0.00957799 0)
(-0.000149726 -0.00948498 0)
(-0.000218425 -0.00938341 0)
(-0.000328027 -0.00931225 0)
(-0.00050751 -0.00934781 0)
(-0.000696878 -0.00954475 0)
(-0.000798647 -0.00972608 0)
(-0.000800512 -0.00986553 0)
(1.22896e-07 -0.000190934 0)
(5.61508e-07 -0.000566921 0)
(1.26936e-06 -0.000936974 0)
(2.19243e-06 -0.00130098 0)
(3.30817e-06 -0.00165883 0)
(4.62412e-06 -0.00201052 0)
(6.12901e-06 -0.00235598 0)
(7.83975e-06 -0.00269522 0)
(9.74137e-06 -0.00302817 0)
(1.18597e-05 -0.00335484 0)
(1.41785e-05 -0.00367516 0)
(1.67382e-05 -0.00398914 0)
(1.95215e-05 -0.00429671 0)
(2.2586e-05 -0.00459791 0)
(2.59136e-05 -0.00489262 0)
(2.95827e-05 -0.00518094 0)
(3.35736e-05 -0.00546271 0)
(3.79918e-05 -0.00573809 0)
(4.28169e-05 -0.00600685 0)
(4.81873e-05 -0.00626928 0)
(5.40817e-05 -0.00652503 0)
(6.06792e-05 -0.00677457 0)
(6.79576e-05 -0.00701738 0)
(7.61454e-05 -0.0072542 0)
(8.52219e-05 -0.00748424 0)
(9.5472e-05 -0.00770868 0)
(0.00010688 -0.00792626 0)
(0.00011978 -0.00813885 0)
(0.000134161 -0.00834446 0)
(0.000150425 -0.00854597 0)
(0.000168817 -0.00874019 0)
(0.000190206 -0.0089315 0)
(0.000215088 -0.00911542 0)
(0.000239735 -0.0093013 0)
(0.000245901 -0.00948971 0)
(0.00019077 -0.00955626 0)
(0.000114687 -0.009599 0)
(7.55098e-05 -0.00957243 0)
(4.8731e-05 -0.00947769 0)
(5.79867e-06 -0.00933658 0)
(-9.63286e-05 -0.00911454 0)
(-0.00032824 -0.00883684 0)
(-0.000614868 -0.00873033 0)
(-0.000767934 -0.0083259 0)
(-0.000917248 -0.00776377 0)
(-0.0010575 -0.00687582 0)
(-0.00101561 -0.00552264 0)
(-0.000874699 -0.00696611 0)
(-0.00079003 -0.00927487 0)
(-0.000608022 -0.0105156 0)
(-7.94578e-09 -0.000195866 0)
(5.30238e-07 -0.000580983 0)
(1.76245e-06 -0.000959502 0)
(3.69033e-06 -0.00133141 0)
(6.26277e-06 -0.00169668 0)
(9.44444e-06 -0.00205537 0)
(1.32018e-05 -0.00240748 0)
(1.7527e-05 -0.00275308 0)
(2.24006e-05 -0.00309216 0)
(2.78351e-05 -0.00342483 0)
(3.38223e-05 -0.00375104 0)
(4.03988e-05 -0.00407097 0)
(4.75677e-05 -0.00438455 0)
(5.53939e-05 -0.00469202 0)
(6.38911e-05 -0.00499326 0)
(7.31568e-05 -0.0052886 0)
(8.32171e-05 -0.00557787 0)
(9.42051e-05 -0.00586155 0)
(0.000106164 -0.00613937 0)
(0.000119263 -0.00641202 0)
(0.000133569 -0.00667905 0)
(0.00014928 -0.0069415 0)
(0.000166502 -0.00719861 0)
(0.000185447 -0.00745195 0)
(0.000206277 -0.00770024 0)
(0.000229175 -0.0079459 0)
(0.000254343 -0.00818675 0)
(0.000281923 -0.00842651 0)
(0.000312523 -0.00866144 0)
(0.000347167 -0.00889726 0)
(0.000387242 -0.0091287 0)
(0.000426054 -0.00936757 0)
(0.000430899 -0.00961695 0)
(0.000335548 -0.00966565 0)
(0.000220382 -0.00969721 0)
(0.000169523 -0.00957815 0)
(0.00010607 -0.00935707 0)
(-2.64172e-05 -0.00910473 0)
(-0.000246172 -0.00876207 0)
(-0.000572096 -0.00814255 0)
(-0.000971733 -0.00680798 0)
(-0.00118313 -0.00253616 0)
(-0.00135427 -0.00635017 0)
(-0.00171833 -0.00580008 0)
(-0.00179065 -0.00419035 0)
(-0.00152961 -0.00836611 0)
(-0.00117367 -0.00934431 0)
(-0.000747115 -0.0113365 0)
(-0.00032279 -0.0146618 0)
(0.000182891 -0.0177703 0)
(1.56946e-07 -0.000201133 0)
(9.41568e-07 -0.000596035 0)
(2.37974e-06 -0.000983661 0)
(4.42661e-06 -0.00136412 0)
(7.06032e-06 -0.00173752 0)
(1.02947e-05 -0.00210403 0)
(1.41323e-05 -0.00246378 0)
(1.86044e-05 -0.00281699 0)
(2.37206e-05 -0.00316375 0)
(2.9526e-05 -0.00350434 0)
(3.60433e-05 -0.00383884 0)
(4.33299e-05 -0.00416761 0)
(5.14263e-05 -0.00449066 0)
(6.03938e-05 -0.00480847 0)
(7.02973e-05 -0.005121 0)
(8.11876e-05 -0.00542888 0)
(9.31633e-05 -0.00573194 0)
(0.000106241 -0.00603108 0)
(0.000120563 -0.00632593 0)
(0.000136081 -0.00661774 0)
(0.000152991 -0.0069058 0)
(0.000171141 -0.00719181 0)
(0.00019078 -0.00747466 0)
(0.000211589 -0.0077565 0)
(0.000233816 -0.00803579 0)
(0.000256987 -0.00831499 0)
(0.000281763 -0.00859209 0)
(0.000308631 -0.00886949 0)
(0.000338153 -0.00914611 0)
(0.000360206 -0.0094278 0)
(0.000335886 -0.00972657 0)
(0.000231127 -0.00976808 0)
(0.000115244 -0.00981481 0)
(-6.38123e-07 -0.00955702 0)
(-0.000263632 -0.00913789 0)
(-0.000626584 -0.00885648 0)
(-0.000875172 -0.00741562 0)
(-0.00133494 -0.00571302 0)
(-0.00174828 -0.00421715 0)
(-0.00233292 0.00131858 0)
(-0.00233793 -0.00598817 0)
(-0.00193654 0.00315338 0)
(-0.0018683 -0.00188736 0)
(-0.0020537 -0.00615097 0)
(-0.00167677 -0.00919802 0)
(-0.00127257 -0.0123507 0)
(-0.000859068 -0.0153826 0)
(-0.000423902 -0.018205 0)
(2.20948e-06 -0.0208453 0)
(0.000401005 -0.0232986 0)
(-3.71903e-08 -0.000202996 0)
(6.00841e-07 -0.000602544 0)
(2.10035e-06 -0.00099559 0)
(4.46695e-06 -0.00138215 0)
(7.63275e-06 -0.00176225 0)
(1.15448e-05 -0.00213604 0)
(1.61696e-05 -0.00250362 0)
(2.14844e-05 -0.00286525 0)
(2.7485e-05 -0.00322102 0)
(3.41469e-05 -0.00357126 0)
(4.1485e-05 -0.00391605 0)
(4.94456e-05 -0.0042558 0)
(5.80605e-05 -0.00459052 0)
(6.72152e-05 -0.00492065 0)
(7.6953e-05 -0.00524612 0)
(8.70555e-05 -0.00556741 0)
(9.75683e-05 -0.00588433 0)
(0.000108117 -0.00619733 0)
(0.000118734 -0.00650614 0)
(0.000128834 -0.00681099 0)
(0.000138405 -0.00711163 0)
(0.000146569 -0.00740775 0)
(0.000153166 -0.00769952 0)
(0.000157023 -0.00798526 0)
(0.00015835 -0.0082662 0)
(0.000157308 -0.00853797 0)
(0.000154249 -0.0088055 0)
(0.000136716 -0.00906453 0)
(5.47855e-05 -0.00931203 0)
(-0.000111315 -0.00938242 0)
(-0.000318001 -0.00946373 0)
(-0.000612725 -0.00908745 0)
(-0.000975705 -0.00881361 0)
(-0.00110914 -0.00753422 0)
(-0.0013481 0.000531908 0)
(-0.00236511 -0.00719356 0)
(-0.00497877 0.00299248 0)
(-0.00527882 0.00355449 0)
(-0.00480082 0.000218665 0)
(-0.00476652 0.000206084 0)
(-0.00489509 -0.00295149 0)
(-0.00460797 -0.00585344 0)
(-0.00407775 -0.00881151 0)
(-0.00357785 -0.0117702 0)
(-0.00310189 -0.014661 0)
(-0.00264439 -0.0174507 0)
(-0.00220168 -0.0201202 0)
(-0.0017746 -0.0226558 0)
(-0.00136469 -0.0250496 0)
(-0.000972865 -0.0272971 0)
(2.80848e-07 -0.000214727 0)
(1.19223e-06 -0.000634042 0)
(2.585e-06 -0.0010438 0)
(4.27087e-06 -0.0014447 0)
(6.2559e-06 -0.00183724 0)
(8.42407e-06 -0.00222201 0)
(1.08681e-05 -0.00259935 0)
(1.34095e-05 -0.00296976 0)
(1.62016e-05 -0.00333342 0)
(1.89679e-05 -0.00369065 0)
(2.19429e-05 -0.00404148 0)
(2.47151e-05 -0.00438603 0)
(2.76186e-05 -0.00472421 0)
(3.0059e-05 -0.00505573 0)
(3.24831e-05 -0.00538045 0)
(3.40612e-05 -0.00569746 0)
(3.53563e-05 -0.00600669 0)
(3.52563e-05 -0.00630622 0)
(3.44209e-05 -0.00659637 0)
(3.13944e-05 -0.00687359 0)
(2.68125e-05 -0.00713921 0)
(1.88866e-05 -0.00738707 0)
(8.78828e-06 -0.00762042 0)
(-3.73629e-06 -0.00782897 0)
(-1.72396e-05 -0.00802098 0)
(-4.64088e-05 -0.00818475 0)
(-0.000147515 -0.00832376 0)
(-0.000342447 -0.00835013 0)
(-0.000574418 -0.00833816 0)
(-0.000883755 -0.00794205 0)
(-0.00137857 -0.00732829 0)
(-0.00169487 -0.000185117 0)
(-0.00228696 -0.00641225 0)
(-0.00383672 -0.00978177 0)
(-0.00559999 0.0340962 0)
(-0.0052537 0.0178299 0)
(-0.005324 0.0112442 0)
(-0.00526311 0.00569618 0)
(-0.00503949 0.000754993 0)
(-0.00465185 -0.00361588 0)
(-0.0041669 -0.00757877 0)
(-0.00365903 -0.0112641 0)
(-0.00314294 -0.0147373 0)
(-0.00263121 -0.0179891 0)
(-0.00212936 -0.0210274 0)
(-0.00164326 -0.0238518 0)
(-0.00117787 -0.0264585 0)
(-0.000736016 -0.0288523 0)
(-0.000320289 -0.0310402 0)
(6.75334e-05 -0.033031 0)
(-3.54391e-07 -0.000207891 0)
(-1.43016e-06 -0.000616154 0)
(-2.9088e-06 -0.001017 0)
(-4.62392e-06 -0.00141053 0)
(-6.47134e-06 -0.00179694 0)
(-8.5223e-06 -0.00217623 0)
(-1.0722e-05 -0.00254871 0)
(-1.32295e-05 -0.00291418 0)
(-1.59608e-05 -0.00327312 0)
(-1.91534e-05 -0.00362491 0)
(-2.26622e-05 -0.00397035 0)
(-2.68043e-05 -0.0043081 0)
(-3.13385e-05 -0.00463957 0)
(-3.66684e-05 -0.00496212 0)
(-4.24165e-05 -0.0052782 0)
(-4.90785e-05 -0.00558309 0)
(-5.61023e-05 -0.00588107 0)
(-6.41165e-05 -0.00616414 0)
(-7.24323e-05 -0.0064396 0)
(-8.18102e-05 -0.00669453 0)
(-9.06545e-05 -0.00694093 0)
(-9.78864e-05 -0.0071583 0)
(-0.000100717 -0.00736638 0)
(-0.00011358 -0.00753011 0)
(-0.000192764 -0.00769756 0)
(-0.000382609 -0.0077037 0)
(-0.000605398 -0.00766535 0)
(-0.000855043 -0.00738718 0)
(-0.00140538 -0.00651858 0)
(-0.00213718 0.00366807 0)
(-0.00270393 -0.00546788 0)
(-0.00318861 0.00518417 0)
(-0.00270319 0.0264951 0)
(-0.00375092 0.0187244 0)
(-0.00277074 0.013437 0)
(-0.00152866 0.0077307 0)
(-0.000563653 0.00228842 0)
(0.000256506 -0.00269975 0)
(0.000967538 -0.00719246 0)
(0.00160328 -0.0112459 0)
(0.00217897 -0.014891 0)
(0.00269378 -0.0181975 0)
(0.00315315 -0.0212766 0)
(0.00355885 -0.0240939 0)
(0.00390993 -0.0266705 0)
(0.00421231 -0.0290261 0)
(0.00446616 -0.0311589 0)
(0.00467615 -0.0330829 0)
(0.00484532 -0.0348118 0)
(0.00497671 -0.036359 0)
(4.9682e-07 -0.00020948 0)
(3.14706e-06 -0.000621257 0)
(7.61754e-06 -0.00102547 0)
(1.34335e-05 -0.00142187 0)
(2.0123e-05 -0.00181017 0)
(2.73203e-05 -0.00219031 0)
(3.46613e-05 -0.00256221 0)
(4.18525e-05 -0.00292589 0)
(4.85544e-05 -0.00328145 0)
(5.45186e-05 -0.00362889 0)
(5.94304e-05 -0.00396854 0)
(6.30857e-05 -0.00430015 0)
(6.5212e-05 -0.00462446 0)
(6.56445e-05 -0.00494059 0)
(6.42066e-05 -0.00524994 0)
(6.07381e-05 -0.00555052 0)
(5.51706e-05 -0.00584485 0)
(4.71173e-05 -0.00612908 0)
(3.70404e-05 -0.00640751 0)
(2.63933e-05 -0.00667314 0)
(2.10935e-05 -0.00693332 0)
(1.8267e-05 -0.00717955 0)
(-2.57967e-05 -0.00743388 0)
(-0.000261391 -0.00746586 0)
(-0.000561374 -0.00749088 0)
(-0.000772154 -0.00725313 0)
(-0.0012623 -0.00603908 0)
(-0.00177638 0.00378414 0)
(-0.00187138 0.000103446 0)
(-0.00146097 0.0131603 0)
(-0.00139256 0.00847788 0)
(-0.00121785 0.00420519 0)
(-0.000337922 0.00139892 0)
(0.000976681 -0.0015472 0)
(0.00220703 -0.00464798 0)
(0.00328188 -0.00769579 0)
(0.00418261 -0.0106575 0)
(0.00493692 -0.0135087 0)
(0.00556867 -0.0162376 0)
(0.00609723 -0.0188812 0)
(0.00653506 -0.0213609 0)
(0.00689379 -0.0235847 0)
(0.00717366 -0.0255987 0)
(0.00738218 -0.0274756 0)
(0.00752719 -0.0292266 0)
(0.00761451 -0.0308336 0)
(0.00765137 -0.0322986 0)
(0.00764376 -0.0336285 0)
(0.00759699 -0.0348315 0)
(0.00751608 -0.0359161 0)
(0.00622018 -0.0304803 0)
(0.0057163 -0.0316995 0)
(0.00524446 -0.0330437 0)
(0.00481221 -0.0344831 0)
(0.00441376 -0.0360092 0)
(0.00404871 -0.0376148 0)
(0.00371804 -0.0392884 0)
(0.00342066 -0.0410302 0)
(0.00315394 -0.0428251 0)
(0.00291627 -0.0446545 0)
(0.00270784 -0.0465097 0)
(0.00252614 -0.0483734 0)
(0.00236757 -0.0502343 0)
(0.00222796 -0.0520801 0)
(0.00210321 -0.0538979 0)
(0.00198961 -0.0556751 0)
(0.00188382 -0.0574008 0)
(0.00178289 -0.0590652 0)
(0.00168418 -0.06066 0)
(0.00158543 -0.0621785 0)
(0.00148471 -0.0636155 0)
(0.00138037 -0.0649674 0)
(0.00127108 -0.0662319 0)
(0.00115573 -0.0674081 0)
(0.00103346 -0.0684964 0)
(0.00090361 -0.0694981 0)
(0.000765741 -0.0704156 0)
(0.000619562 -0.071252 0)
(0.000464937 -0.0720113 0)
(0.00030186 -0.072698 0)
(0.000130435 -0.0733168 0)
(-4.91414e-05 -0.073873 0)
(-0.000236589 -0.074372 0)
(-0.000431568 -0.0748193 0)
(-0.000633684 -0.0752202 0)
(-0.000842492 -0.0755801 0)
(-0.0010575 -0.075904 0)
(-0.00127816 -0.0761969 0)
(-0.00150389 -0.0764632 0)
(-0.00173403 -0.0767071 0)
(-0.00196787 -0.0769324 0)
(-0.00220466 -0.0771428 0)
(-0.00244359 -0.0773419 0)