/*--------------------------------*- C++ -*----------------------------------*\
| =========                 |                                                 |
| \\      /  F ield         | OpenFOAM: The Open Source CFD Toolbox           |
|  \\    /   O peration     | Version:  2.4.0                                 |
|   \\  /    A nd           | Web:      www.OpenFOAM.org                      |
|    \\/     M anipulation  |                                                 |
\*---------------------------------------------------------------------------*/
FoamFile
{
    version     2.0;
    format      ascii;
    class       surfaceScalarField;
    location    "0.7";
    object      phi;
}
// * * * * * * * * * * * * * * * * * * * * * * * * * * * * * * * * * * * * * //

dimensions      [0 3 -1 0 0 0 0];

internalField   nonuniform List<scalar> 
15580
(
-3.61173e-14
-2.86616e-12
-1.4297e-13
-8.45773e-12
-3.20093e-13
-1.39078e-11
-5.67526e-13
-1.92158e-11
-8.85311e-13
-2.43812e-11
-1.27349e-12
-2.94038e-11
-1.73212e-12
-3.42831e-11
-2.26124e-12
-3.90188e-11
-2.86092e-12
-4.36104e-11
-3.5312e-12
-4.80576e-11
-4.27215e-12
-5.236e-11
-5.08382e-12
-5.65172e-11
-5.96629e-12
-6.05288e-11
-6.91959e-12
-6.43944e-11
-7.94382e-12
-6.81137e-11
-9.03902e-12
-7.16862e-11
-1.02053e-11
-7.51116e-11
-1.14426e-11
-7.83895e-11
-1.27512e-11
-8.15194e-11
-1.4131e-11
-8.45011e-11
-1.55821e-11
-8.73341e-11
-1.71046e-11
-9.0018e-11
-1.86985e-11
-9.25525e-11
-2.0364e-11
-9.49371e-11
-2.21011e-11
-9.71716e-11
-2.39098e-11
-9.92554e-11
-2.57901e-11
-1.01188e-10
-2.77423e-11
-1.0297e-10
-2.97662e-11
-1.046e-10
-3.18619e-11
-1.06077e-10
-3.40295e-11
-1.07403e-10
-3.62689e-11
-1.08575e-10
-3.85801e-11
-1.09595e-10
-4.09633e-11
-1.1046e-10
-4.34183e-11
-1.11172e-10
-4.59449e-11
-1.1173e-10
-4.86922e-11
-1.12135e-10
-5.39262e-11
-1.12399e-10
-5.66394e-11
-1.12544e-10
-5.93805e-11
-1.12598e-10
-6.212e-11
-1.12649e-10
-6.48539e-11
-1.12708e-10
-6.75746e-11
-1.12779e-10
-7.02856e-11
-1.12791e-10
-7.29741e-11
-1.12714e-10
-7.56355e-11
-1.1255e-10
-7.82664e-11
-1.123e-10
-8.08639e-11
-1.11968e-10
-8.34256e-11
-1.11557e-10
-1.11071e-10
-8.59493e-11
-3.42688e-14
-2.83189e-12
-1.38406e-13
-8.3536e-12
-3.12895e-13
-1.37333e-11
-5.57802e-13
-1.89709e-11
-8.7319e-13
-2.40659e-11
-1.25912e-12
-2.90179e-11
-1.71563e-12
-3.38266e-11
-2.24278e-12
-3.84917e-11
-2.8406e-12
-4.30126e-11
-3.50913e-12
-4.73891e-11
-4.24841e-12
-5.16207e-11
-5.05846e-12
-5.57071e-11
-5.93932e-12
-5.96479e-11
-6.891e-12
-6.34427e-11
-7.91352e-12
-6.70912e-11
-9.00691e-12
-7.05928e-11
-1.01712e-11
-7.39473e-11
-1.14063e-11
-7.71543e-11
-1.27124e-11
-8.02134e-11
-1.40894e-11
-8.31241e-11
-1.55373e-11
-8.58862e-11
-1.70561e-11
-8.84992e-11
-1.86458e-11
-9.09627e-11
-2.03065e-11
-9.32765e-11
-2.20381e-11
-9.544e-11
-2.38407e-11
-9.74529e-11
-2.57142e-11
-9.93148e-11
-2.76587e-11
-1.01025e-10
-2.96742e-11
-1.02584e-10
-3.17607e-11
-1.03991e-10
-3.39183e-11
-1.05245e-10
-3.61469e-11
-1.06347e-10
-3.84466e-11
-1.07295e-10
-4.08173e-11
-1.0809e-10
-4.32593e-11
-1.0873e-10
-4.57735e-11
-1.09216e-10
-4.93143e-11
-1.09548e-10
-5.37089e-11
-1.09761e-10
-5.64029e-11
-1.0985e-10
-5.91035e-11
-1.09897e-10
-6.18022e-11
-1.0995e-10
-6.44844e-11
-1.10026e-10
-6.7147e-11
-1.10116e-10
-6.97973e-11
-1.10141e-10
-7.24296e-11
-1.10081e-10
-7.50413e-11
-1.09938e-10
-7.76287e-11
-1.09712e-10
-8.01879e-11
-1.09408e-10
-8.27158e-11
-1.09029e-10
-1.08577e-10
-8.52098e-11
-3.60201e-14
-2.79587e-12
-1.43204e-13
-8.24641e-12
-3.21253e-13
-1.35553e-11
-5.7015e-13
-1.8722e-11
-8.89882e-13
-2.37461e-11
-1.28044e-12
-2.86273e-11
-1.74181e-12
-3.33653e-11
-2.27398e-12
-3.79595e-11
-2.87695e-12
-4.24096e-11
-3.5507e-12
-4.67153e-11
-4.29522e-12
-5.08762e-11
-5.1105e-12
-5.48919e-11
-5.9965e-12
-5.87619e-11
-6.95321e-12
-6.2486e-11
-7.98059e-12
-6.60638e-11
-9.0786e-12
-6.94948e-11
-1.02472e-11
-7.27787e-11
-1.14863e-11
-7.59152e-11
-1.27959e-11
-7.89038e-11
-1.4176e-11
-8.17441e-11
-1.56263e-11
-8.44358e-11
-1.7147e-11
-8.69786e-11
-1.87378e-11
-8.93719e-11
-2.03988e-11
-9.16155e-11
-2.21298e-11
-9.3709e-11
-2.39307e-11
-9.56519e-11
-2.58016e-11
-9.74439e-11
-2.77424e-11
-9.90846e-11
-2.9753e-11
-1.00574e-10
-3.18334e-11
-1.01911e-10
-3.39837e-11
-1.03095e-10
-3.62039e-11
-1.04127e-10
-3.84942e-11
-1.05005e-10
-4.08548e-11
-1.05729e-10
-4.32849e-11
-1.063e-10
-4.57807e-11
-1.0672e-10
-5.17106e-11
-1.06994e-10
-5.43553e-11
-1.07147e-10
-5.70049e-11
-1.072e-10
-5.9655e-11
-1.07247e-10
-6.22963e-11
-1.07309e-10
-6.48954e-11
-1.07426e-10
-6.74713e-11
-1.0754e-10
-7.00386e-11
-1.07573e-10
-7.25944e-11
-1.07525e-10
-7.51351e-11
-1.07397e-10
-7.76565e-11
-1.07191e-10
-8.01546e-11
-1.0691e-10
-8.2626e-11
-1.06557e-10
-1.06135e-10
-8.50675e-11
-3.49421e-14
-2.76092e-12
-1.40159e-13
-8.1412e-12
-3.158e-13
-1.33796e-11
-5.61894e-13
-1.84759e-11
-8.78465e-13
-2.34296e-11
-1.26554e-12
-2.82403e-11
-1.72312e-12
-3.29077e-11
-2.25123e-12
-3.74314e-11
-2.84988e-12
-4.1811e-11
-3.51907e-12
-4.60461e-11
-4.25879e-12
-5.01365e-11
-5.06905e-12
-5.40816e-11
-5.94982e-12
-5.78812e-11
-6.9011e-12
-6.15347e-11
-7.92285e-12
-6.5042e-11
-9.01507e-12
-6.84026e-11
-1.01777e-11
-7.16161e-11
-1.14107e-11
-7.46822e-11
-1.27141e-11
-7.76004e-11
-1.40877e-11
-8.03705e-11
-1.55316e-11
-8.29919e-11
-1.70457e-11
-8.54645e-11
-1.86298e-11
-8.77877e-11
-2.0284e-11
-8.99613e-11
-2.20082e-11
-9.19848e-11
-2.38023e-11
-9.38578e-11
-2.56662e-11
-9.558e-11
-2.75998e-11
-9.7151e-11
-2.96031e-11
-9.85703e-11
-3.16761e-11
-9.98376e-11
-3.38185e-11
-1.00953e-10
-3.60304e-11
-1.01915e-10
-3.83114e-11
-1.02724e-10
-4.06622e-11
-1.03378e-10
-4.30853e-11
-1.03877e-10
-4.59782e-11
-1.04221e-10
-5.1098e-11
-1.04448e-10
-5.36972e-11
-1.04548e-10
-5.63055e-11
-1.04592e-10
-5.8912e-11
-1.04641e-10
-6.15002e-11
-1.04721e-10
-6.40568e-11
-1.0487e-10
-6.66083e-11
-1.04989e-10
-6.91502e-11
-1.05031e-10
-7.16797e-11
-1.04996e-10
-7.4193e-11
-1.04884e-10
-7.66867e-11
-1.04697e-10
-7.91574e-11
-1.04439e-10
-8.16027e-11
-1.04112e-10
-1.03718e-10
-8.40201e-11
-3.45887e-14
-2.72634e-12
-1.38597e-13
-8.03719e-12
-3.12158e-13
-1.32061e-11
-5.55351e-13
-1.82327e-11
-8.68246e-13
-2.31167e-11
-1.2509e-12
-2.78576e-11
-1.70337e-12
-3.24552e-11
-2.2257e-12
-3.6909e-11
-2.81792e-12
-4.12188e-11
-3.48006e-12
-4.5384e-11
-4.21212e-12
-4.94044e-11
-5.01411e-12
-5.32796e-11
-5.88603e-12
-5.70092e-11
-6.82786e-12
-6.05929e-11
-7.83958e-12
-6.40303e-11
-8.92114e-12
-6.7321e-11
-1.00725e-11
-7.04647e-11
-1.12936e-11
-7.34611e-11
-1.25843e-11
-7.63097e-11
-1.39446e-11
-7.90102e-11
-1.53743e-11
-8.15622e-11
-1.68734e-11
-8.39655e-11
-1.84415e-11
-8.62196e-11
-2.00786e-11
-8.83242e-11
-2.17843e-11
-9.02791e-11
-2.35584e-11
-9.20837e-11
-2.54005e-11
-9.37378e-11
-2.73103e-11
-9.52412e-11
-2.92873e-11
-9.65933e-11
-3.13309e-11
-9.7794e-11
-3.34404e-11
-9.8843e-11
-3.56154e-11
-9.97398e-11
-3.7855e-11
-1.00484e-10
-4.0157e-11
-1.01076e-10
-4.25159e-11
-1.01518e-10
-4.93756e-11
-1.01814e-10
-5.2704e-11
-1.01983e-10
-5.52102e-11
-1.02041e-10
-5.77143e-11
-1.02088e-10
-6.0207e-11
-1.02148e-10
-6.26463e-11
-1.02281e-10
-6.50523e-11
-1.02464e-10
-6.746e-11
-1.02581e-10
-6.98659e-11
-1.02626e-10
-7.22655e-11
-1.02596e-10
-7.46553e-11
-1.02494e-10
-7.70321e-11
-1.02321e-10
-7.93931e-11
-1.02078e-10
-8.17358e-11
-1.01769e-10
-1.01396e-10
-8.40578e-11
-3.53817e-14
-2.69095e-12
-1.40938e-13
-7.93163e-12
-3.16468e-13
-1.30305e-11
-5.61953e-13
-1.79872e-11
-8.77378e-13
-2.28012e-11
-1.26272e-12
-2.74723e-11
-1.71796e-12
-3.2e-11
-2.24307e-12
-3.63839e-11
-2.83804e-12
-4.06238e-11
-3.50282e-12
-4.47192e-11
-4.23739e-12
-4.86698e-11
-5.04171e-12
-5.24753e-11
-5.91574e-12
-5.61352e-11
-6.85944e-12
-5.96492e-11
-7.87276e-12
-6.3017e-11
-8.95565e-12
-6.62381e-11
-1.01081e-11
-6.93123e-11
-1.13299e-11
-7.22392e-11
-1.26211e-11
-7.50184e-11
-1.39817e-11
-7.76496e-11
-1.54114e-11
-8.01325e-11
-1.69103e-11
-8.24666e-11
-1.84782e-11
-8.46517e-11
-2.0115e-11
-8.66874e-11
-2.18206e-11
-8.85734e-11
-2.3595e-11
-9.03094e-11
-2.54378e-11
-9.1895e-11
-2.73491e-11
-9.33299e-11
-2.93287e-11
-9.46138e-11
-3.13763e-11
-9.57464e-11
-3.34919e-11
-9.67274e-11
-3.56753e-11
-9.75564e-11
-3.79263e-11
-9.82331e-11
-4.02453e-11
-9.87575e-11
-4.27834e-11
-9.91311e-11
-4.87074e-11
-9.93698e-11
-5.12031e-11
-9.9487e-11
-5.37114e-11
-9.95331e-11
-5.62172e-11
-9.95819e-11
-5.87029e-11
-9.96623e-11
-6.11383e-11
-9.98457e-11
-6.35691e-11
-1.00033e-10
-6.59954e-11
-1.00155e-10
-6.84148e-11
-1.00206e-10
-7.08246e-11
-1.00186e-10
-7.32221e-11
-1.00096e-10
-7.56051e-11
-9.99377e-11
-7.79712e-11
-9.97123e-11
-8.03183e-11
-9.94224e-11
-9.907e-11
-8.26443e-11
-3.38382e-14
-2.65711e-12
-1.36308e-13
-7.82916e-12
-3.07765e-13
-1.28591e-11
-5.48263e-13
-1.77467e-11
-8.57838e-13
-2.24917e-11
-1.23651e-12
-2.70936e-11
-1.68428e-12
-3.15522e-11
-2.20115e-12
-3.58671e-11
-2.78708e-12
-4.00379e-11
-3.44205e-12
-4.40643e-11
-4.16601e-12
-4.79459e-11
-4.9589e-12
-5.16824e-11
-5.82066e-12
-5.52734e-11
-6.75122e-12
-5.87187e-11
-7.7505e-12
-6.20177e-11
-8.81841e-12
-6.51702e-11
-9.95487e-12
-6.81759e-11
-1.11598e-11
-7.10343e-11
-1.2433e-11
-7.37452e-11
-1.37745e-11
-7.63082e-11
-1.51841e-11
-7.87228e-11
-1.66618e-11
-8.0989e-11
-1.82074e-11
-8.31061e-11
-1.98208e-11
-8.5074e-11
-2.1502e-11
-8.68922e-11
-2.32508e-11
-8.85605e-11
-2.50673e-11
-9.00785e-11
-2.69512e-11
-9.14459e-11
-2.89027e-11
-9.26623e-11
-3.09217e-11
-9.37274e-11
-3.30082e-11
-9.46409e-11
-3.51621e-11
-9.54025e-11
-3.73839e-11
-9.60114e-11
-3.96745e-11
-9.64669e-11
-4.36032e-11
-9.67709e-11
-4.83497e-11
-9.69632e-11
-5.08062e-11
-9.70305e-11
-5.32685e-11
-9.70708e-11
-5.5726e-11
-9.71245e-11
-5.81345e-11
-9.72538e-11
-6.04971e-11
-9.74831e-11
-6.28597e-11
-9.76705e-11
-6.52231e-11
-9.77913e-11
-6.75856e-11
-9.78437e-11
-6.99443e-11
-9.78277e-11
-7.22961e-11
-9.77446e-11
-7.46378e-11
-9.75961e-11
-7.69663e-11
-9.73839e-11
-7.92787e-11
-9.71099e-11
-9.67762e-11
-8.15725e-11
-3.55509e-14
-2.62156e-12
-1.41112e-13
-7.7236e-12
-3.16232e-13
-1.2684e-11
-5.60773e-13
-1.75022e-11
-8.74599e-13
-2.21778e-11
-1.25758e-12
-2.67106e-11
-1.70958e-12
-3.11002e-11
-2.23047e-12
-3.53462e-11
-2.82011e-12
-3.94482e-11
-3.47837e-12
-4.3406e-11
-4.2051e-12
-4.72192e-11
-5.00015e-12
-5.08873e-11
-5.86335e-12
-5.44102e-11
-6.79456e-12
-5.77875e-11
-7.79358e-12
-6.10187e-11
-8.86023e-12
-6.41036e-11
-9.99431e-12
-6.70418e-11
-1.11956e-11
-6.9833e-11
-1.2464e-11
-7.24769e-11
-1.37991e-11
-7.4973e-11
-1.52007e-11
-7.73212e-11
-1.66687e-11
-7.9521e-11
-1.82027e-11
-8.15721e-11
-1.98024e-11
-8.34742e-11
-2.14677e-11
-8.5227e-11
-2.31982e-11
-8.68301e-11
-2.49936e-11
-8.82831e-11
-2.68536e-11
-8.95859e-11
-2.87779e-11
-9.0738e-11
-3.07662e-11
-9.17391e-11
-3.28183e-11
-9.25888e-11
-3.4934e-11
-9.32868e-11
-3.71117e-11
-9.38336e-11
-3.93471e-11
-9.42314e-11
-4.63616e-11
-9.44869e-11
-4.87472e-11
-9.46184e-11
-5.11152e-11
-9.46625e-11
-5.34805e-11
-9.47055e-11
-5.58273e-11
-9.47776e-11
-5.8105e-11
-9.49761e-11
-6.03731e-11
-9.52151e-11
-6.26517e-11
-9.53918e-11
-6.49391e-11
-9.55039e-11
-6.72319e-11
-9.55509e-11
-6.95261e-11
-9.55335e-11
-7.18176e-11
-9.54531e-11
-7.41027e-11
-9.5311e-11
-7.63777e-11
-9.51089e-11
-7.86395e-11
-9.48481e-11
-9.45302e-11
-8.08855e-11
-3.33639e-14
-2.5882e-12
-1.34266e-13
-7.6227e-12
-3.02985e-13
-1.25152e-11
-5.3954e-13
-1.72656e-11
-8.43933e-13
-2.18734e-11
-1.21616e-12
-2.63384e-11
-1.65619e-12
-3.06602e-11
-2.16399e-12
-3.48384e-11
-2.73951e-12
-3.88727e-11
-3.38271e-12
-4.27628e-11
-4.09349e-12
-4.65084e-11
-4.8718e-12
-5.0109e-11
-5.71754e-12
-5.35645e-11
-6.63061e-12
-5.68744e-11
-7.61091e-12
-6.00384e-11
-8.65833e-12
-6.30562e-11
-9.77274e-12
-6.59274e-11
-1.0954e-11
-6.86517e-11
-1.2202e-11
-7.12288e-11
-1.35167e-11
-7.36584e-11
-1.48978e-11
-7.59401e-11
-1.63453e-11
-7.80735e-11
-1.78589e-11
-8.00585e-11
-1.94387e-11
-8.18945e-11
-2.10843e-11
-8.35813e-11
-2.27958e-11
-8.51186e-11
-2.45731e-11
-8.65059e-11
-2.64159e-11
-8.77431e-11
-2.83243e-11
-8.88296e-11
-3.0298e-11
-8.97654e-11
-3.2337e-11
-9.05498e-11
-3.44417e-11
-9.11821e-11
-3.6614e-11
-9.16613e-11
-3.92851e-11
-9.19891e-11
-4.534e-11
-9.22006e-11
-4.7675e-11
-9.22834e-11
-5.00179e-11
-9.23196e-11
-5.2358e-11
-9.23654e-11
-5.46595e-11
-9.24761e-11
-5.69147e-11
-9.27209e-11
-5.918e-11
-9.29499e-11
-6.14534e-11
-9.31184e-11
-6.37323e-11
-9.3225e-11
-6.60132e-11
-9.327e-11
-6.82924e-11
-9.32543e-11
-7.05666e-11
-9.31789e-11
-7.28328e-11
-9.30449e-11
-7.50881e-11
-9.28535e-11
-7.73302e-11
-9.26061e-11
-9.23039e-11
-7.95565e-11
-3.37094e-14
-2.55449e-12
-1.34412e-13
-7.522e-12
-3.01992e-13
-1.23477e-11
-5.36476e-13
-1.70311e-11
-8.37876e-13
-2.1572e-11
-1.20619e-12
-2.59701e-11
-1.6414e-12
-3.02249e-11
-2.14348e-12
-3.43363e-11
-2.71239e-12
-3.83038e-11
-3.34807e-12
-4.21271e-11
-4.05046e-12
-4.5806e-11
-4.81947e-12
-4.934e-11
-5.65501e-12
-5.27289e-11
-6.55699e-12
-5.59724e-11
-7.52527e-12
-5.90701e-11
-8.55975e-12
-6.20217e-11
-9.66027e-12
-6.48269e-11
-1.08267e-11
-6.74853e-11
-1.20588e-11
-6.99967e-11
-1.33565e-11
-7.23607e-11
-1.47194e-11
-7.45771e-11
-1.61475e-11
-7.66455e-11
-1.76404e-11
-7.85655e-11
-1.91979e-11
-8.0337e-11
-2.08196e-11
-8.19596e-11
-2.25053e-11
-8.34329e-11
-2.42544e-11
-8.47568e-11
-2.60666e-11
-8.59309e-11
-2.79413e-11
-8.69549e-11
-2.98781e-11
-8.78286e-11
-3.18762e-11
-8.85516e-11
-3.39345e-11
-8.91239e-11
-3.60496e-11
-8.95462e-11
-4.23297e-11
-8.98223e-11
-4.64075e-11
-8.99817e-11
-4.86615e-11
-9.00294e-11
-5.09133e-11
-9.00678e-11
-5.31509e-11
-9.01279e-11
-5.53184e-11
-9.03085e-11
-5.74644e-11
-9.05749e-11
-5.96241e-11
-9.07902e-11
-6.17945e-11
-9.0948e-11
-6.39721e-11
-9.10474e-11
-6.61538e-11
-9.10883e-11
-6.83369e-11
-9.10712e-11
-7.05188e-11
-9.0997e-11
-7.26968e-11
-9.08668e-11
-7.48686e-11
-9.06817e-11
-7.70316e-11
-9.0443e-11
-9.0152e-11
-7.91835e-11
-3.317e-14
-2.52132e-12
-1.32897e-13
-7.42227e-12
-2.99245e-13
-1.21813e-11
-5.32192e-13
-1.67982e-11
-8.31706e-13
-2.12725e-11
-1.19774e-12
-2.56041e-11
-1.63023e-12
-2.97925e-11
-2.1291e-12
-3.38374e-11
-2.69428e-12
-3.77386e-11
-3.32567e-12
-4.14957e-11
-4.02317e-12
-4.51085e-11
-4.78666e-12
-4.85765e-11
-5.61602e-12
-5.18996e-11
-6.51111e-12
-5.50773e-11
-7.47181e-12
-5.81094e-11
-8.49797e-12
-6.09955e-11
-9.58944e-12
-6.37354e-11
-1.07461e-11
-6.63287e-11
-1.19677e-11
-6.87751e-11
-1.32542e-11
-7.10743e-11
-1.46053e-11
-7.3226e-11
-1.6021e-11
-7.52298e-11
-1.75011e-11
-7.70855e-11
-1.90454e-11
-7.87927e-11
-2.06538e-11
-8.03511e-11
-2.23262e-11
-8.17605e-11
-2.40626e-11
-8.30204e-11
-2.58629e-11
-8.41306e-11
-2.77271e-11
-8.50907e-11
-2.96555e-11
-8.59002e-11
-3.16482e-11
-8.6559e-11
-3.37042e-11
-8.70678e-11
-3.59678e-11
-8.743e-11
-4.33219e-11
-8.76553e-11
-4.55485e-11
-8.77551e-11
-4.77891e-11
-8.77888e-11
-5.00285e-11
-8.78283e-11
-5.22347e-11
-8.79216e-11
-5.43695e-11
-8.81738e-11
-5.65086e-11
-8.84358e-11
-5.86562e-11
-8.86425e-11
-6.08116e-11
-8.87927e-11
-6.2973e-11
-8.88861e-11
-6.51381e-11
-8.89232e-11
-6.73045e-11
-8.89048e-11
-6.94696e-11
-8.88319e-11
-7.16309e-11
-8.87056e-11
-7.37857e-11
-8.85269e-11
-7.59316e-11
-8.82972e-11
-8.80175e-11
-7.80661e-11
-3.29193e-14
-2.4884e-12
-1.31708e-13
-7.32348e-12
-2.96355e-13
-1.20167e-11
-5.26829e-13
-1.65677e-11
-8.23093e-13
-2.09763e-11
-1.18511e-12
-2.5242e-11
-1.61282e-12
-2.93647e-11
-2.10618e-12
-3.3344e-11
-2.66513e-12
-3.71797e-11
-3.28959e-12
-4.08713e-11
-3.97949e-12
-4.44186e-11
-4.73474e-12
-4.78213e-11
-5.55526e-12
-5.10791e-11
-6.44095e-12
-5.41916e-11
-7.39172e-12
-5.71586e-11
-8.40745e-12
-5.99798e-11
-9.48805e-12
-6.26548e-11
-1.06334e-11
-6.51833e-11
-1.18434e-11
-6.75651e-11
-1.31179e-11
-6.97998e-11
-1.44567e-11
-7.18871e-11
-1.58599e-11
-7.38266e-11
-1.73272e-11
-7.56182e-11
-1.88585e-11
-7.72614e-11
-2.04538e-11
-7.87559e-11
-2.21129e-11
-8.01014e-11
-2.38358e-11
-8.12976e-11
-2.56223e-11
-8.23441e-11
-2.74722e-11
-8.32407e-11
-2.93854e-11
-8.3987e-11
-3.13629e-11
-8.45815e-11
-3.34092e-11
-8.50215e-11
-3.65487e-11
-8.53092e-11
-4.27448e-11
-8.55024e-11
-4.4939e-11
-8.55609e-11
-4.71381e-11
-8.55897e-11
-4.93305e-11
-8.56359e-11
-5.14657e-11
-8.57865e-11
-5.35677e-11
-8.60718e-11
-5.5679e-11
-8.63245e-11
-5.77995e-11
-8.6522e-11
-5.99279e-11
-8.66642e-11
-6.20623e-11
-8.67517e-11
-6.42003e-11
-8.67852e-11
-6.63393e-11
-8.67658e-11
-6.84769e-11
-8.66944e-11
-7.06104e-11
-8.65721e-11
-7.27374e-11
-8.63999e-11
-7.48556e-11
-8.6179e-11
-8.59103e-11
-7.69628e-11
-3.27944e-14
-2.45561e-12
-1.30734e-13
-7.22554e-12
-2.93628e-13
-1.18538e-11
-5.21404e-13
-1.63399e-11
-8.1399e-13
-2.06837e-11
-1.17131e-12
-2.48847e-11
-1.59327e-12
-2.89428e-11
-2.07978e-12
-3.28575e-11
-2.63075e-12
-3.66287e-11
-3.24604e-12
-4.0256e-11
-3.92553e-12
-4.37391e-11
-4.66905e-12
-4.70778e-11
-5.47646e-12
-5.02717e-11
-6.34754e-12
-5.33205e-11
-7.28208e-12
-5.62241e-11
-8.27985e-12
-5.8982e-11
-9.34058e-12
-6.15941e-11
-1.04639e-11
-6.406e-11
-1.16496e-11
-6.63794e-11
-1.28972e-11
-6.85522e-11
-1.42063e-11
-7.0578e-11
-1.55763e-11
-7.24566e-11
-1.70067e-11
-7.41877e-11
-1.84968e-11
-7.57712e-11
-2.0046e-11
-7.72068e-11
-2.16531e-11
-7.84942e-11
-2.33173e-11
-7.96334e-11
-2.50373e-11
-8.06241e-11
-2.68122e-11
-8.14659e-11
-2.86401e-11
-8.2159e-11
-3.05175e-11
-8.27041e-11
-3.24349e-11
-8.31041e-11
-4.24784e-11
-8.33642e-11
-4.54843e-11
-8.34925e-11
-4.75145e-11
-8.35308e-11
-4.95349e-11
-8.35693e-11
-5.15269e-11
-8.36439e-11
-5.34304e-11
-8.3883e-11
-5.53344e-11
-8.41677e-11
-5.72616e-11
-8.43973e-11
-5.92095e-11
-8.45741e-11
-6.11749e-11
-8.46988e-11
-6.31545e-11
-8.47721e-11
-6.51452e-11
-8.47945e-11
-6.71439e-11
-8.4767e-11
-6.91478e-11
-8.46905e-11
-7.11539e-11
-8.45659e-11
-7.31597e-11
-8.43941e-11
-7.51627e-11
-8.4176e-11
-8.39126e-11
-7.71603e-11
-3.09741e-14
-2.42463e-12
-1.2459e-13
-7.13193e-12
-2.81182e-13
-1.16972e-11
-5.00897e-13
-1.61202e-11
-7.83847e-13
-2.04007e-11
-1.13011e-12
-2.45385e-11
-1.53974e-12
-2.85331e-11
-2.01275e-12
-3.23845e-11
-2.54912e-12
-3.60923e-11
-3.14883e-12
-3.96563e-11
-3.81182e-12
-4.30761e-11
-4.53803e-12
-4.63516e-11
-5.32738e-12
-4.94823e-11
-6.17978e-12
-5.24681e-11
-7.09514e-12
-5.53087e-11
-8.0734e-12
-5.80038e-11
-9.11445e-12
-6.0553e-11
-1.02182e-11
-6.29562e-11
-1.13847e-11
-6.5213e-11
-1.26138e-11
-6.73231e-11
-1.39056e-11
-6.92862e-11
-1.52601e-11
-7.11022e-11
-1.66773e-11
-7.27705e-11
-1.81574e-11
-7.42911e-11
-1.97004e-11
-7.56637e-11
-2.13067e-11
-7.6888e-11
-2.29762e-11
-7.79639e-11
-2.47091e-11
-7.88911e-11
-2.65053e-11
-7.96697e-11
-2.8365e-11
-8.02994e-11
-3.02876e-11
-8.07814e-11
-3.2431e-11
-8.11183e-11
-4.0387e-11
-8.13279e-11
-4.24716e-11
-8.1408e-11
-4.4563e-11
-8.14394e-11
-4.66515e-11
-8.14808e-11
-4.86961e-11
-8.15992e-11
-5.07003e-11
-8.18788e-11
-5.27177e-11
-8.21503e-11
-5.4746e-11
-8.2369e-11
-5.67847e-11
-8.25353e-11
-5.88325e-11
-8.2651e-11
-6.08872e-11
-8.27173e-11
-6.29465e-11
-8.27352e-11
-6.50079e-11
-8.27056e-11
-6.70691e-11
-8.26294e-11
-6.91276e-11
-8.25074e-11
-7.11811e-11
-8.23406e-11
-7.32274e-11
-8.21297e-11
-8.18757e-11
-7.52644e-11
-3.26464e-14
-2.39199e-12
-1.30172e-13
-7.0344e-12
-2.92334e-13
-1.1535e-11
-5.18975e-13
-1.58936e-11
-8.09938e-13
-2.01098e-11
-1.16507e-12
-2.41833e-11
-1.58423e-12
-2.8114e-11
-2.06726e-12
-3.19015e-11
-2.61403e-12
-3.55456e-11
-3.22441e-12
-3.90459e-11
-3.89826e-12
-4.24023e-11
-4.63545e-12
-4.56144e-11
-5.43586e-12
-4.86819e-11
-6.29936e-12
-5.16046e-11
-7.22583e-12
-5.43822e-11
-8.21515e-12
-5.70144e-11
-9.2672e-12
-5.9501e-11
-1.03819e-11
-6.18415e-11
-1.1559e-11
-6.40358e-11
-1.27986e-11
-6.60835e-11
-1.41005e-11
-6.79843e-11
-1.54647e-11
-6.9738e-11
-1.68911e-11
-7.13442e-11
-1.83797e-11
-7.28025e-11
-1.99305e-11
-7.41129e-11
-2.15437e-11
-7.52748e-11
-2.32194e-11
-7.62882e-11
-2.49577e-11
-7.71528e-11
-2.67589e-11
-7.78685e-11
-2.86244e-11
-7.8434e-11
-3.05579e-11
-7.88479e-11
-3.44162e-11
-7.91124e-11
-4.07753e-11
-7.92857e-11
-4.28559e-11
-7.93273e-11
-4.49407e-11
-7.93546e-11
-4.70114e-11
-7.94101e-11
-4.89877e-11
-7.96229e-11
-5.09241e-11
-7.99425e-11
-5.28689e-11
-8.02056e-11
-5.48232e-11
-8.04147e-11
-5.67866e-11
-8.0572e-11
-5.8758e-11
-8.06796e-11
-6.07365e-11
-8.07389e-11
-6.27203e-11
-8.07514e-11
-6.47078e-11
-8.07181e-11
-6.66969e-11
-8.06402e-11
-6.86856e-11
-8.05187e-11
-7.06718e-11
-8.03544e-11
-7.26534e-11
-8.01481e-11
-7.99007e-11
-7.46283e-11
-3.19353e-14
-2.36005e-12
-1.27348e-13
-6.93899e-12
-2.85976e-13
-1.13764e-11
-5.07622e-13
-1.56719e-11
-7.92074e-13
-1.98253e-11
-1.13913e-12
-2.38363e-11
-1.54859e-12
-2.77045e-11
-2.02027e-12
-3.14298e-11
-2.55396e-12
-3.50119e-11
-3.14948e-12
-3.84504e-11
-3.8066e-12
-4.17451e-11
-4.5251e-12
-4.48959e-11
-5.30469e-12
-4.79023e-11
-6.14507e-12
-5.07642e-11
-7.04589e-12
-5.34814e-11
-8.00673e-12
-5.60536e-11
-9.02712e-12
-5.84806e-11
-1.01065e-11
-6.07621e-11
-1.12443e-11
-6.2898e-11
-1.24397e-11
-6.48881e-11
-1.36919e-11
-6.67321e-11
-1.5e-11
-6.84299e-11
-1.63628e-11
-6.99813e-11
-1.77792e-11
-7.13861e-11
-1.92479e-11
-7.26441e-11
-2.07676e-11
-7.37551e-11
-2.2337e-11
-7.47188e-11
-2.39551e-11
-7.55347e-11
-2.5621e-11
-7.62026e-11
-2.73317e-11
-7.67232e-11
-2.90807e-11
-7.7099e-11
-3.93921e-11
-7.73366e-11
-4.13089e-11
-7.74387e-11
-4.31665e-11
-7.74697e-11
-4.50181e-11
-7.7503e-11
-4.68492e-11
-7.7579e-11
-4.86803e-11
-7.77918e-11
-5.05732e-11
-7.80496e-11
-5.25007e-11
-7.82781e-11
-5.44493e-11
-7.84661e-11
-5.64115e-11
-7.86098e-11
-5.83829e-11
-7.87082e-11
-6.03602e-11
-7.87617e-11
-6.23404e-11
-7.87711e-11
-6.43213e-11
-7.87373e-11
-6.63003e-11
-7.86612e-11
-6.82756e-11
-7.85435e-11
-7.0245e-11
-7.8385e-11
-7.22068e-11
-7.81863e-11
-7.79483e-11
-7.41592e-11
-3.04477e-14
-2.3296e-12
-1.2246e-13
-6.84698e-12
-2.76235e-13
-1.12226e-11
-4.9175e-13
-1.54564e-11
-7.6898e-13
-1.95481e-11
-1.1079e-12
-2.34974e-11
-1.50846e-12
-2.7304e-11
-1.97065e-12
-3.09676e-11
-2.49441e-12
-3.44881e-11
-3.0797e-12
-3.78651e-11
-3.72648e-12
-4.10984e-11
-4.43469e-12
-4.41877e-11
-5.20427e-12
-4.71327e-11
-6.03516e-12
-4.99334e-11
-6.92729e-12
-5.25893e-11
-7.88057e-12
-5.51003e-11
-8.89493e-12
-5.74662e-11
-9.97028e-12
-5.96868e-11
-1.11065e-11
-6.17618e-11
-1.23036e-11
-6.3691e-11
-1.35613e-11
-6.54744e-11
-1.48796e-11
-6.71116e-11
-1.62584e-11
-6.86025e-11
-1.76976e-11
-6.99469e-11
-1.91971e-11
-7.11447e-11
-2.07568e-11
-7.21955e-11
-2.23766e-11
-7.3099e-11
-2.40564e-11
-7.38549e-11
-2.57965e-11
-7.44625e-11
-2.75975e-11
-7.49223e-11
-2.97194e-11
-7.52369e-11
-3.84505e-11
-7.54338e-11
-4.0394e-11
-7.54951e-11
-4.23435e-11
-7.55202e-11
-4.42853e-11
-7.55613e-11
-4.61614e-11
-7.57028e-11
-4.79912e-11
-7.5962e-11
-4.9836e-11
-7.62048e-11
-5.16974e-11
-7.64167e-11
-5.35742e-11
-7.65893e-11
-5.54649e-11
-7.6719e-11
-5.73678e-11
-7.68052e-11
-5.92809e-11
-7.68486e-11
-6.1202e-11
-7.685e-11
-6.31288e-11
-7.68105e-11
-6.5059e-11
-7.6731e-11
-6.69903e-11
-7.66122e-11
-6.89203e-11
-7.64549e-11
-7.0847e-11
-7.62597e-11
-7.60272e-11
-7.27681e-11
-3.19618e-14
-2.29764e-12
-1.26698e-13
-6.75224e-12
-2.83784e-13
-1.10655e-11
-5.0314e-13
-1.52371e-11
-7.84675e-13
-1.92665e-11
-1.12829e-12
-2.31537e-11
-1.53387e-12
-2.68984e-11
-2.00129e-12
-3.05002e-11
-2.53043e-12
-3.3959e-11
-3.12115e-12
-3.72744e-11
-3.77332e-12
-4.04462e-11
-4.4868e-12
-4.34742e-11
-5.26148e-12
-4.63581e-11
-6.09723e-12
-4.90976e-11
-6.99396e-12
-5.16926e-11
-7.95159e-12
-5.41427e-11
-8.97007e-12
-5.64477e-11
-1.00494e-11
-5.86075e-11
-1.11895e-11
-6.06216e-11
-1.23905e-11
-6.249e-11
-1.36525e-11
-6.42124e-11
-1.49757e-11
-6.57885e-11
-1.63602e-11
-6.7218e-11
-1.78064e-11
-6.85008e-11
-1.93145e-11
-6.96365e-11
-2.0885e-11
-7.0625e-11
-2.25179e-11
-7.1466e-11
-2.42136e-11
-7.21592e-11
-2.59727e-11
-7.27034e-11
-2.77976e-11
-7.30973e-11
-3.26852e-11
-7.33433e-11
-3.92382e-11
-7.34976e-11
-4.12043e-11
-7.3529e-11
-4.31703e-11
-7.35542e-11
-4.51174e-11
-7.36142e-11
-4.69944e-11
-7.38258e-11
-4.88506e-11
-7.41058e-11
-5.07e-11
-7.43554e-11
-5.25507e-11
-7.45659e-11
-5.44061e-11
-7.4734e-11
-5.62666e-11
-7.48586e-11
-5.81314e-11
-7.49404e-11
-5.99996e-11
-7.49804e-11
-6.18698e-11
-7.49797e-11
-6.37408e-11
-7.49395e-11
-6.56111e-11
-7.48607e-11
-6.74792e-11
-7.47441e-11
-6.93436e-11
-7.45905e-11
-7.12028e-11
-7.44005e-11
-7.41747e-11
-7.30553e-11
-2.875e-14
-2.26889e-12
-1.16475e-13
-6.66451e-12
-2.63737e-13
-1.09183e-11
-4.70622e-13
-1.50302e-11
-7.3716e-13
-1.9e-11
-1.06333e-12
-2.28276e-11
-1.44906e-12
-2.65127e-11
-1.89423e-12
-3.0055e-11
-2.39868e-12
-3.34545e-11
-2.96222e-12
-3.67108e-11
-3.5846e-12
-3.98238e-11
-4.26556e-12
-4.27932e-11
-5.00479e-12
-4.56188e-11
-5.80196e-12
-4.83004e-11
-6.65669e-12
-5.08378e-11
-7.56859e-12
-5.32308e-11
-8.53722e-12
-5.54791e-11
-9.56215e-12
-5.75826e-11
-1.06429e-11
-5.95409e-11
-1.17789e-11
-6.1354e-11
-1.29696e-11
-6.30216e-11
-1.42145e-11
-6.45435e-11
-1.5513e-11
-6.59195e-11
-1.68643e-11
-6.71495e-11
-1.82677e-11
-6.8233e-11
-1.97227e-11
-6.91701e-11
-2.12285e-11
-6.99602e-11
-2.27844e-11
-7.06033e-11
-2.43873e-11
-7.11004e-11
-2.603e-11
-7.14547e-11
-3.72583e-11
-7.16751e-11
-3.90736e-11
-7.17546e-11
-4.08251e-11
-7.17774e-11
-4.25725e-11
-7.18068e-11
-4.42886e-11
-7.18981e-11
-4.59826e-11
-7.21318e-11
-4.77151e-11
-7.23733e-11
-4.94834e-11
-7.2587e-11
-5.12826e-11
-7.27667e-11
-5.31071e-11
-7.29095e-11
-5.49512e-11
-7.30145e-11
-5.68095e-11
-7.30821e-11
-5.86776e-11
-7.31123e-11
-6.05518e-11
-7.31056e-11
-6.2429e-11
-7.30624e-11
-6.43064e-11
-7.29833e-11
-6.61818e-11
-7.28687e-11
-6.80532e-11
-7.27192e-11
-6.99185e-11
-7.25352e-11
-7.23172e-11
-7.1776e-11
-3.23632e-14
-1.28123e-13
-2.86572e-13
-5.07339e-13
-7.90106e-13
-1.13461e-12
-1.54061e-12
-2.00791e-12
-2.53633e-12
-3.12572e-12
-3.77593e-12
-4.48684e-12
-5.25834e-12
-6.09032e-12
-6.98269e-12
-7.93536e-12
-8.94823e-12
-1.00212e-11
-1.11543e-11
-1.23473e-11
-1.36003e-11
-1.49131e-11
-1.62856e-11
-1.77179e-11
-1.92097e-11
-2.07611e-11
-2.23718e-11
-2.40421e-11
-2.57731e-11
-2.80141e-11
-3.7705e-11
-3.95638e-11
-4.14243e-11
-4.32683e-11
-4.50287e-11
-4.67574e-11
-4.8489e-11
-5.02294e-11
-5.19805e-11
-5.37422e-11
-5.55135e-11
-5.72931e-11
-5.90794e-11
-6.08709e-11
-6.26659e-11
-6.44627e-11
-6.62594e-11
-6.80544e-11
-6.98459e-11
-7.16322e-11
-8.84331e-11
-1.10514e-10
-9.08753e-11
-1.09888e-10
-9.32744e-11
-1.09197e-10
-9.5629e-11
-1.08444e-10
-9.79379e-11
-1.0763e-10
-1.002e-10
-1.0676e-10
-1.02415e-10
-1.05836e-10
-1.04581e-10
-1.0486e-10
-1.06698e-10
-1.03835e-10
-1.08766e-10
-1.02765e-10
-1.10784e-10
-1.01652e-10
-1.12752e-10
-1.00498e-10
-1.1467e-10
-9.93072e-11
-1.16538e-10
-9.80814e-11
-1.18355e-10
-9.68236e-11
-1.20123e-10
-9.55365e-11
-1.2184e-10
-9.42228e-11
-1.23507e-10
-9.2885e-11
-1.25125e-10
-9.15257e-11
-1.26694e-10
-9.01475e-11
-1.28214e-10
-8.87528e-11
-1.29686e-10
-8.7344e-11
-1.3111e-10
-8.59234e-11
-1.32487e-10
-8.44932e-11
-1.33818e-10
-8.30558e-11
-1.35102e-10
-8.16131e-11
-1.36342e-10
-8.01671e-11
-1.37536e-10
-7.872e-11
-1.38687e-10
-7.72735e-11
-1.39795e-10
-7.58294e-11
-1.4086e-10
-7.43894e-11
-1.41883e-10
-7.29553e-11
-1.42866e-10
-7.15285e-11
-1.43809e-10
-7.01105e-11
-1.44712e-10
-6.87027e-11
-1.45577e-10
-6.73064e-11
-1.46404e-10
-6.5923e-11
-1.47194e-10
-6.45534e-11
-1.47948e-10
-6.31989e-11
-1.48667e-10
-6.18604e-11
-1.49351e-10
-6.05388e-11
-1.50002e-10
-5.9235e-11
-1.50619e-10
-5.79498e-11
-1.51204e-10
-5.6684e-11
-1.51757e-10
-5.5438e-11
-1.5228e-10
-5.42126e-11
-1.52773e-10
-5.30083e-11
-1.53236e-10
-5.18255e-11
-1.5367e-10
-5.06648e-11
-4.95264e-11
-1.54077e-10
-8.76675e-11
-1.08056e-10
-9.00871e-11
-1.07469e-10
-9.24668e-11
-1.06817e-10
-9.48053e-11
-1.06105e-10
-9.71011e-11
-1.05334e-10
-9.93533e-11
-1.04508e-10
-1.01561e-10
-1.03628e-10
-1.03723e-10
-1.02698e-10
-1.05839e-10
-1.0172e-10
-1.07908e-10
-1.00696e-10
-1.09929e-10
-9.96301e-11
-1.11903e-10
-9.85243e-11
-1.13829e-10
-9.73813e-11
-1.15707e-10
-9.62037e-11
-1.17536e-10
-9.49943e-11
-1.19317e-10
-9.37555e-11
-1.2105e-10
-9.24901e-11
-1.22734e-10
-9.12006e-11
-1.24371e-10
-8.98894e-11
-1.25959e-10
-8.8559e-11
-1.275e-10
-8.72118e-11
-1.28994e-10
-8.58501e-11
-1.30441e-10
-8.44762e-11
-1.31842e-10
-8.30924e-11
-1.33197e-10
-8.17007e-11
-1.34507e-10
-8.03032e-11
-1.35772e-10
-7.8902e-11
-1.36993e-10
-7.74989e-11
-1.38171e-10
-7.60958e-11
-1.39306e-10
-7.46945e-11
-1.40399e-10
-7.32966e-11
-1.4145e-10
-7.19038e-11
-1.42461e-10
-7.05177e-11
-1.43432e-10
-6.91397e-11
-1.44363e-10
-6.77711e-11
-1.45256e-10
-6.64133e-11
-1.46112e-10
-6.50676e-11
-1.4693e-10
-6.3735e-11
-1.47712e-10
-6.24167e-11
-1.48459e-10
-6.11137e-11
-1.49171e-10
-5.98269e-11
-1.49849e-10
-5.85571e-11
-1.50493e-10
-5.73052e-11
-1.51105e-10
-5.60719e-11
-1.51686e-10
-5.48578e-11
-1.52235e-10
-5.36635e-11
-1.52754e-10
-5.24895e-11
-1.53243e-10
-5.13365e-11
-1.53703e-10
-5.02047e-11
-4.90947e-11
-1.54134e-10
-8.74769e-11
-1.05647e-10
-8.98521e-11
-1.05093e-10
-9.21911e-11
-1.04478e-10
-9.44925e-11
-1.03804e-10
-9.6755e-11
-1.03072e-10
-9.89771e-11
-1.02286e-10
-1.01158e-10
-1.01447e-10
-1.03296e-10
-1.00559e-10
-1.05392e-10
-9.96243e-11
-1.07443e-10
-9.86448e-11
-1.0945e-10
-9.76234e-11
-1.11412e-10
-9.65627e-11
-1.13328e-10
-9.54652e-11
-1.15198e-10
-9.43335e-11
-1.17022e-10
-9.31703e-11
-1.18799e-10
-9.19779e-11
-1.20531e-10
-9.07589e-11
-1.22215e-10
-8.95158e-11
-1.23854e-10
-8.82509e-11
-1.25446e-10
-8.69668e-11
-1.26992e-10
-8.56656e-11
-1.28493e-10
-8.43497e-11
-1.29948e-10
-8.30213e-11
-1.31357e-10
-8.16826e-11
-1.32723e-10
-8.03356e-11
-1.34043e-10
-7.89824e-11
-1.35321e-10
-7.76249e-11
-1.36554e-10
-7.6265e-11
-1.37746e-10
-7.49046e-11
-1.38895e-10
-7.35454e-11
-1.40002e-10
-7.21891e-11
-1.41069e-10
-7.08372e-11
-1.42095e-10
-6.94913e-11
-1.43082e-10
-6.81528e-11
-1.4403e-10
-6.68231e-11
-1.4494e-10
-6.55035e-11
-1.45812e-10
-6.41953e-11
-1.46648e-10
-6.28995e-11
-1.47447e-10
-6.16173e-11
-1.48211e-10
-6.03496e-11
-1.48941e-10
-5.90975e-11
-1.49636e-10
-5.78616e-11
-1.50299e-10
-5.6643e-11
-1.50928e-10
-5.54421e-11
-1.51526e-10
-5.42598e-11
-1.52093e-10
-5.30967e-11
-1.52629e-10
-5.19531e-11
-1.53136e-10
-5.08298e-11
-1.53614e-10
-4.97272e-11
-4.86455e-11
-1.54063e-10
-8.64075e-11
-1.03259e-10
-8.87631e-11
-1.02738e-10
-9.10852e-11
-1.02156e-10
-9.33722e-11
-1.01517e-10
-9.56227e-11
-1.00822e-10
-9.78353e-11
-1.00073e-10
-1.00009e-10