/*--------------------------------*- C++ -*----------------------------------*\
| =========                 |                                                 |
| \\      /  F ield         | OpenFOAM: The Open Source CFD Toolbox           |
|  \\    /   O peration     | Version:  2.4.0                                 |
|   \\  /    A nd           | Web:      www.OpenFOAM.org                      |
|    \\/     M anipulation  |                                                 |
\*---------------------------------------------------------------------------*/
FoamFile
{
    version     2.0;
    format      ascii;
    class       volVectorField;
    location    "0.7";
    object      U;
}
// * * * * * * * * * * * * * * * * * * * * * * * * * * * * * * * * * * * * * //

dimensions      [0 1 -1 0 0 0 0];

internalField   nonuniform List<vector> 
8000
(
(-5.63917e-08 -0.000288468 0)
(-5.9492e-07 -0.000851249 0)
(-1.71246e-06 -0.00139985 0)
(-3.40783e-06 -0.00193423 0)
(-5.66978e-06 -0.00245436 0)
(-8.49442e-06 -0.00296019 0)
(-1.18815e-05 -0.00345169 0)
(-1.58325e-05 -0.00392882 0)
(-2.03474e-05 -0.00439155 0)
(-2.54274e-05 -0.00483984 0)
(-3.10718e-05 -0.00527364 0)
(-3.72826e-05 -0.00569292 0)
(-4.40585e-05 -0.00609764 0)
(-5.14021e-05 -0.00648777 0)
(-5.93114e-05 -0.00686327 0)
(-6.77898e-05 -0.00722409 0)
(-7.68344e-05 -0.0075702 0)
(-8.64499e-05 -0.00790156 0)
(-9.66319e-05 -0.00821813 0)
(-0.000107387 -0.00851988 0)
(-0.000118708 -0.00880676 0)
(-0.000130605 -0.00907874 0)
(-0.000143068 -0.00933578 0)
(-0.000156109 -0.00957785 0)
(-0.000169715 -0.00980489 0)
(-0.000183902 -0.0100169 0)
(-0.000198653 -0.0102138 0)
(-0.000213989 -0.0103956 0)
(-0.000229886 -0.0105622 0)
(-0.000246373 -0.0107136 0)
(-0.00026342 -0.0108498 0)
(-0.000281073 -0.0109707 0)
(-0.000299262 -0.0110764 0)
(-0.000317943 -0.0111667 0)
(-0.000336947 -0.0112416 0)
(-0.000356893 -0.0113011 0)
(-0.000380279 -0.0113453 0)
(-0.000409341 -0.0113745 0)
(-0.000435639 -0.0113915 0)
(-0.000453665 -0.0113987 0)
(-0.000481184 -0.0114035 0)
(-0.000516567 -0.0114093 0)
(-0.000556082 -0.0114158 0)
(-0.000563193 -0.0114155 0)
(-0.000573534 -0.0114064 0)
(-0.000593339 -0.0113885 0)
(-0.000615232 -0.011362 0)
(-0.000636586 -0.011327 0)
(-0.000657286 -0.0112841 0)
(-0.000677598 -0.0112336 0)
(-4.88346e-08 -0.000284856 0)
(-5.6957e-07 -0.000840436 0)
(-1.66573e-06 -0.00138185 0)
(-3.34002e-06 -0.00190906 0)
(-5.58212e-06 -0.00242203 0)
(-8.3881e-06 -0.00292071 0)
(-1.17578e-05 -0.00340508 0)
(-1.56924e-05 -0.00387507 0)
(-2.0192e-05 -0.00433067 0)
(-2.52576e-05 -0.00477183 0)
(-3.08885e-05 -0.0051985 0)
(-3.70861e-05 -0.00561066 0)
(-4.38493e-05 -0.00600826 0)
(-5.11798e-05 -0.00639125 0)
(-5.90761e-05 -0.00675962 0)
(-6.75403e-05 -0.0071133 0)
(-7.65702e-05 -0.00745227 0)
(-8.61687e-05 -0.00777649 0)
(-9.63327e-05 -0.00808591 0)
(-0.000107066 -0.0083805 0)
(-0.000118364 -0.00866021 0)
(-0.000130232 -0.00892502 0)
(-0.000142665 -0.00917488 0)
(-0.000155668 -0.00940975 0)
(-0.000169236 -0.00962959 0)
(-0.000183375 -0.00983436 0)
(-0.000198076 -0.010024 0)
(-0.000213351 -0.0101986 0)
(-0.000229187 -0.0103579 0)
(-0.000245601 -0.0105021 0)
(-0.00026258 -0.0106309 0)
(-0.00028014 -0.0107445 0)
(-0.000298211 -0.0108428 0)
(-0.000316705 -0.0109256 0)
(-0.000335694 -0.0109931 0)
(-0.000356438 -0.0110451 0)
(-0.000381874 -0.0110818 0)
(-0.000408304 -0.0111049 0)
(-0.000431349 -0.0111167 0)
(-0.000452268 -0.0111215 0)
(-0.000484545 -0.0111263 0)
(-0.000523786 -0.0111331 0)
(-0.000549232 -0.0111413 0)
(-0.000552355 -0.0111432 0)
(-0.000567967 -0.0111368 0)
(-0.000589054 -0.0111218 0)
(-0.000610565 -0.0110984 0)
(-0.000631377 -0.0110669 0)
(-0.00065172 -0.0110276 0)
(-0.000671782 -0.0109809 0)
(-5.51481e-08 -0.00028145 0)
(-5.94496e-07 -0.000830178 0)
(-1.71712e-06 -0.00136471 0)
(-3.42185e-06 -0.00188501 0)
(-5.69778e-06 -0.00239104 0)
(-8.5395e-06 -0.00288276 0)
(-1.19476e-05 -0.00336014 0)
(-1.59214e-05 -0.00382315 0)
(-2.04623e-05 -0.00427174 0)
(-2.55688e-05 -0.00470588 0)
(-3.12425e-05 -0.00512553 0)
(-3.74811e-05 -0.00553066 0)
(-4.4287e-05 -0.00592122 0)
(-5.1657e-05 -0.00629718 0)
(-5.95945e-05 -0.0066585 0)
(-6.80949e-05 -0.00700515 0)
(-7.71628e-05 -0.00733708 0)
(-8.67922e-05 -0.00765426 0)
(-9.69893e-05 -0.00795665 0)
(-0.000107746 -0.00824421 0)
(-0.00011907 -0.0085169 0)
(-0.000130951 -0.0087747 0)
(-0.000143401 -0.00901755 0)
(-0.000156404 -0.00924542 0)
(-0.000169977 -0.00945827 0)
(-0.000184099 -0.00965608 0)
(-0.000198793 -0.00983879 0)
(-0.000214031 -0.0100064 0)
(-0.000229846 -0.0101588 0)
(-0.000246203 -0.010296 0)
(-0.000263155 -0.010418 0)
(-0.000280635 -0.0105247 0)
(-0.000298588 -0.0106161 0)
(-0.000316748 -0.0106921 0)
(-0.000335618 -0.0107528 0)
(-0.000358022 -0.0107981 0)
(-0.00038907 -0.0108282 0)
(-0.000417859 -0.010846 0)
(-0.000435904 -0.0108536 0)
(-0.000461463 -0.0108581 0)
(-0.000495055 -0.0108637 0)
(-0.000534087 -0.0108731 0)
(-0.000542138 -0.0108828 0)
(-0.000550822 -0.0108853 0)
(-0.000569415 -0.0108797 0)
(-0.000590476 -0.0108659 0)
(-0.000611191 -0.0108443 0)
(-0.000631349 -0.0108149 0)
(-0.000651202 -0.0107783 0)
(-0.000670838 -0.0107346 0)
(-5.14113e-08 -0.000277764 0)
(-5.78984e-07 -0.000819166 0)
(-1.68414e-06 -0.00134641 0)
(-3.36788e-06 -0.00185945 0)
(-5.61971e-06 -0.00235825 0)
(-8.4349e-06 -0.00284277 0)
(-1.18137e-05 -0.00331297 0)
(-1.57563e-05 -0.00376881 0)
(-2.02635e-05 -0.00421025 0)
(-2.53346e-05 -0.00463725 0)
(-3.09705e-05 -0.00504977 0)
(-3.71702e-05 -0.00544778 0)
(-4.39346e-05 -0.00583123 0)
(-5.12625e-05 -0.00620009 0)
(-5.91551e-05 -0.00655432 0)
(-6.76105e-05 -0.00689388 0)
(-7.66306e-05 -0.00721873 0)
(-8.62125e-05 -0.00752884 0)
(-9.6359e-05 -0.00782417 0)
(-0.000107066 -0.00810468 0)
(-0.000118338 -0.00837033 0)
(-0.000130168 -0.00862109 0)
(-0.000142563 -0.00885691 0)
(-0.000155514 -0.00907776 0)
(-0.000169031 -0.00928359 0)
(-0.000183101 -0.00947438 0)
(-0.000197736 -0.00965007 0)
(-0.000212921 -0.00981064 0)
(-0.000228675 -0.00995602 0)
(-0.00024498 -0.0100862 0)
(-0.00026186 -0.0102011 0)
(-0.000279254 -0.0103007 0)
(-0.000297093 -0.010385 0)
(-0.000315325 -0.0104538 0)
(-0.000334821 -0.0105072 0)
(-0.00035812 -0.0105454 0)
(-0.000384961 -0.0105697 0)
(-0.000410266 -0.0105824 0)
(-0.000430195 -0.0105872 0)
(-0.000461019 -0.0105915 0)
(-0.000498405 -0.0105985 0)
(-0.000525696 -0.0106125 0)
(-0.000527917 -0.0106244 0)
(-0.000542192 -0.0106284 0)
(-0.000562431 -0.0106245 0)
(-0.00058333 -0.0106126 0)
(-0.000603608 -0.0105931 0)
(-0.000623467 -0.0105663 0)
(-0.000643104 -0.0105325 0)
(-0.000662548 -0.0104918 0)
(-5.1184e-08 -0.000274415 0)
(-5.72815e-07 -0.000809064 0)
(-1.66494e-06 -0.00132951 0)
(-3.32878e-06 -0.00183572 0)
(-5.55416e-06 -0.00232765 0)
(-8.33697e-06 -0.00280527 0)
(-1.16775e-05 -0.00326855 0)
(-1.55766e-05 -0.00371745 0)
(-2.00347e-05 -0.00415194 0)
(-2.50521e-05 -0.00457197 0)
(-3.06288e-05 -0.00497751 0)
(-3.67651e-05 -0.00536853 0)
(-4.34607e-05 -0.00574499 0)
(-5.07158e-05 -0.00610685 0)
(-5.853e-05 -0.00645407 0)
(-6.69033e-05 -0.00678663 0)
(-7.5835e-05 -0.00710447 0)
(-8.53251e-05 -0.00740757 0)
(-9.53723e-05 -0.00769589 0)
(-0.000105977 -0.00796939 0)
(-0.000117137 -0.00822804 0)
(-0.000128853 -0.00847179 0)
(-0.000141121 -0.00870062 0)
(-0.000153943 -0.00891448 0)
(-0.000167314 -0.00911334 0)
(-0.000181235 -0.00929716 0)
(-0.000195698 -0.0094659 0)
(-0.000210708 -0.00961954 0)
(-0.000226257 -0.00975801 0)
(-0.000242368 -0.00988131 0)
(-0.000259006 -0.00998937 0)
(-0.000276032 -0.0100822 0)
(-0.000293081 -0.0101597 0)
(-0.000310551 -0.0102218 0)
(-0.000332259 -0.0102686 0)
(-0.0003672 -0.0103002 0)
(-0.000401381 -0.0103192 0)
(-0.000422695 -0.0103273 0)
(-0.000447008 -0.0103314 0)
(-0.00047829 -0.0103366 0)
(-0.000514951 -0.0103469 0)
(-0.000524455 -0.0103637 0)
(-0.000531205 -0.0103752 0)
(-0.000548198 -0.0103795 0)
(-0.000568022 -0.0103763 0)
(-0.000587671 -0.0103656 0)
(-0.000606833 -0.0103478 0)
(-0.00062576 -0.0103229 0)
(-0.000644558 -0.0102912 0)
(-0.000663217 -0.010253 0)
(-5.36835e-08 -0.000270827 0)
(-5.84515e-07 -0.000798336 0)
(-1.69064e-06 -0.00131167 0)
(-3.37187e-06 -0.00181078 0)
(-5.61662e-06 -0.00229565 0)
(-8.42063e-06 -0.00276621 0)
(-1.17829e-05 -0.00322245 0)
(-1.57046e-05 -0.00366432 0)
(-2.01846e-05 -0.00409178 0)
(-2.5224e-05 -0.0045048 0)
(-3.0821e-05 -0.00490333 0)
(-3.69772e-05 -0.00528735 0)
(-4.36901e-05 -0.00565682 0)
(-5.09618e-05 -0.0060117 0)
(-5.87891e-05 -0.00635195 0)
(-6.71751e-05 -0.00667754 0)
(-7.61152e-05 -0.00698844 0)
(-8.56138e-05 -0.0072846 0)
(-9.56645e-05 -0.007566 0)
(-0.000106274 -0.0078326 0)
(-0.000117433 -0.00808437 0)
(-0.00012915 -0.00832126 0)
(-0.000141414 -0.00854326 0)
(-0.000154237 -0.00875033 0)
(-0.000167603 -0.00894243 0)
(-0.000181528 -0.00911954 0)
(-0.00019599 -0.00928162 0)
(-0.000211014 -0.00942865 0)
(-0.000226574 -0.00956061 0)
(-0.000242709 -0.00967746 0)
(-0.000259352 -0.00977919 0)
(-0.000276432 -0.00986575 0)
(-0.000293761 -0.00993716 0)
(-0.000312027 -0.00999338 0)
(-0.00033418 -0.0100346 0)
(-0.000363141 -0.0100612 0)
(-0.000391218 -0.0100759 0)
(-0.000410158 -0.0100816 0)
(-0.000438875 -0.0100863 0)
(-0.000473835 -0.0100933 0)
(-0.000503473 -0.0101093 0)
(-0.00050513 -0.0101274 0)
(-0.000517616 -0.0101392 0)
(-0.000536695 -0.0101439 0)
(-0.00055674 -0.0101413 0)
(-0.000576251 -0.0101316 0)
(-0.000595385 -0.0101149 0)
(-0.000614354 -0.0100914 0)
(-0.000633198 -0.0100614 0)
(-0.000651893 -0.010025 0)
(-4.88391e-08 -0.000267413 0)
(-5.61745e-07 -0.000788063 0)
(-1.63946e-06 -0.00129451 0)
(-3.28415e-06 -0.00178673 0)
(-5.4854e-06 -0.00226467 0)
(-8.23921e-06 -0.00272831 0)
(-1.1545e-05 -0.00317761 0)
(-1.54037e-05 -0.00361254 0)
(-1.98147e-05 -0.00403305 0)
(-2.47786e-05 -0.00443912 0)
(-3.02941e-05 -0.00483071 0)
(-3.6362e-05 -0.00520778 0)
(-4.29803e-05 -0.00557029 0)
(-5.01503e-05 -0.00591822 0)
(-5.78692e-05 -0.00625152 0)
(-6.61388e-05 -0.00657016 0)
(-7.49558e-05 -0.00687411 0)
(-8.43222e-05 -0.00716332 0)
(-9.42341e-05 -0.00743776 0)
(-0.000104694 -0.00769741 0)
(-0.000115698 -0.00794221 0)
(-0.000127248 -0.00817214 0)
(-0.00013934 -0.00838717 0)
(-0.000151978 -0.00858725 0)
(-0.000165155 -0.00877235 0)
(-0.000178877 -0.00894243 0)
(-0.000193135 -0.00909747 0)
(-0.000207941 -0.00923742 0)
(-0.000223291 -0.00936225 0)
(-0.000239192 -0.00947192 0)
(-0.000255561 -0.0095664 0)
(-0.000272249 -0.00964563 0)
(-0.000289365 -0.00970957 0)
(-0.000308668 -0.00975821 0)
(-0.000334442 -0.00979177 0)
(-0.000362026 -0.00981239 0)
(-0.000386147 -0.00982165 0)
(-0.000409395 -0.00982545 0)
(-0.000441159 -0.00983013 0)
(-0.000478497 -0.00984006 0)
(-0.000490821 -0.00986143 0)
(-0.000495279 -0.00988043 0)
(-0.000511181 -0.00989291 0)
(-0.00053062 -0.00989849 0)
(-0.000550065 -0.00989707 0)
(-0.000569034 -0.00988872 0)
(-0.000587789 -0.00987362 0)
(-0.000606451 -0.00985196 0)
(-0.000625013 -0.00982396 0)
(-0.000643444 -0.00978983 0)
(-5.47188e-08 -0.000263947 0)
(-5.86442e-07 -0.000777676 0)
(-1.69141e-06 -0.00127721 0)
(-3.36721e-06 -0.00176252 0)
(-5.60243e-06 -0.00223357 0)
(-8.39031e-06 -0.00269032 0)
(-1.1731e-05 -0.00313273 0)
(-1.56223e-05 -0.00356078 0)
(-2.00653e-05 -0.00397443 0)
(-2.50564e-05 -0.00437364 0)
(-3.05976e-05 -0.00475838 0)
(-3.66839e-05 -0.00512861 0)
(-4.33185e-05 -0.0054843 0)
(-5.04951e-05 -0.00582542 0)
(-5.8218e-05 -0.00615192 0)
(-6.64791e-05 -0.00646378 0)
(-7.52847e-05 -0.00676097 0)
(-8.46241e-05 -0.00704344 0)
(-9.45062e-05 -0.00731117 0)
(-0.000104917 -0.00756411 0)
(-0.000115869 -0.00780225 0)
(-0.000127343 -0.00802553 0)
(-0.000139357 -0.00823394 0)
(-0.000151886 -0.00842743 0)
(-0.000164954 -0.00860598 0)
(-0.000178528 -0.00876955 0)
(-0.000192641 -0.00891811 0)
(-0.000207257 -0.00905163 0)
(-0.000222431 -0.00917008 0)
(-0.000238086 -0.00927342 0)
(-0.000254134 -0.00936163 0)
(-0.000270213 -0.00943468 0)
(-0.000286909 -0.00949253 0)
(-0.000307991 -0.00953523 0)
(-0.000340612 -0.00956296 0)
(-0.000372546 -0.00957893 0)
(-0.0003909 -0.00958486 0)
(-0.000416689 -0.00958876 0)
(-0.000448235 -0.00959492 0)
(-0.000479532 -0.0096114 0)
(-0.000481568 -0.00963509 0)
(-0.000491785 -0.00965327 0)
(-0.000509365 -0.00966488 0)
(-0.000528385 -0.00966978 0)
(-0.000547056 -0.00966803 0)
(-0.00056543 -0.00965976 0)
(-0.000583713 -0.00964516 0)
(-0.000601946 -0.00962439 0)
(-0.000620097 -0.00959761 0)
(-0.000638134 -0.00956501 0)
(-4.83504e-08 -0.000260425 0)
(-5.53652e-07 -0.000767133 0)
(-1.61455e-06 -0.00125967 0)
(-3.23256e-06 -0.001738 0)
(-5.39748e-06 -0.00220209 0)
(-8.10465e-06 -0.0026519 0)
(-1.13539e-05 -0.00308739 0)
(-1.51452e-05 -0.00350854 0)
(-1.94787e-05 -0.00391531 0)
(-2.43535e-05 -0.00430765 0)
(-2.97698e-05 -0.00468555 0)
(-3.57261e-05 -0.00504895 0)
(-4.22228e-05 -0.00539784 0)
(-4.92579e-05 -0.00573217 0)
(-5.6832e-05 -0.00605191 0)
(-6.49426e-05 -0.00635703 0)
(-7.35907e-05 -0.00664749 0)
(-8.2773e-05 -0.00692326 0)
(-9.24914e-05 -0.0071843 0)
(-0.000102741 -0.0074306 0)
(-0.000113526 -0.0076621 0)
(-0.000124839 -0.00787877 0)
(-0.000136686 -0.00808059 0)
(-0.000149057 -0.00826752 0)
(-0.000161962 -0.00843953 0)
(-0.000175386 -0.00859658 0)
(-0.000189346 -0.00873864 0)
(-0.000203828 -0.00886567 0)
(-0.000218855 -0.00897765 0)
(-0.000234366 -0.00907454 0)
(-0.000250258 -0.00915628 0)
(-0.000266423 -0.00922284 0)
(-0.000283809 -0.0092742 0)
(-0.000305725 -0.00931059 0)
(-0.000333532 -0.00933341 0)
(-0.000361713 -0.00934444 0)
(-0.000383103 -0.00934835 0)
(-0.000413138 -0.00935246 0)
(-0.000448329 -0.00936124 0)
(-0.000464747 -0.00938425 0)
(-0.000467154 -0.00940764 0)
(-0.000481445 -0.00942485 0)
(-0.000500028 -0.00943571 0)
(-0.000518878 -0.00944025 0)
(-0.000537282 -0.00943855 0)
(-0.000555483 -0.00943074 0)
(-0.000573624 -0.00941696 0)
(-0.000591707 -0.00939732 0)
(-0.000609701 -0.00937195 0)
(-0.00062758 -0.00934101 0)
(-5.09864e-08 -0.000257174 0)
(-5.5705e-07 -0.000757346 0)
(-1.6128e-06 -0.00124332 0)
(-3.21815e-06 -0.00171506 0)
(-5.36286e-06 -0.00217254 0)
(-8.04239e-06 -0.00261572 0)
(-1.12567e-05 -0.00304458 0)
(-1.50058e-05 -0.00345907 0)
(-1.92899e-05 -0.00385917 0)
(-2.41083e-05 -0.00424485 0)
(-2.94608e-05 -0.00461607 0)
(-3.53465e-05 -0.00497279 0)
(-4.1765e-05 -0.005315 0)
(-4.87152e-05 -0.00564264 0)
(-5.61966e-05 -0.0059557 0)
(-6.42078e-05 -0.00625414 0)
(-7.27482e-05 -0.00653792 0)
(-8.18162e-05 -0.00680702 0)
(-9.14107e-05 -0.00706139 0)
(-0.00010153 -0.00730101 0)
(-0.000112173 -0.00752585 0)
(-0.000123338 -0.00773586 0)
(-0.000135022 -0.00793102 0)
(-0.000147225 -0.0081113 0)
(-0.000159941 -0.00827665 0)
(-0.000173171 -0.00842705 0)
(-0.000186913 -0.00856246 0)
(-0.000201184 -0.00868285 0)
(-0.000215959 -0.00878819 0)
(-0.0002311 -0.00887844 0)
(-0.000246265 -0.00895355 0)
(-0.000261782 -0.00901348 0)
(-0.000281264 -0.00905825 0)
(-0.000313285 -0.00908808 0)
(-0.000346622 -0.00910584 0)
(-0.000370009 -0.00911249 0)
(-0.00039599 -0.0091157 0)
(-0.000426404 -0.00912067 0)
(-0.000458137 -0.00913497 0)
(-0.00046074 -0.00916105 0)
(-0.000468411 -0.00918317 0)
(-0.000484596 -0.00919953 0)
(-0.000502686 -0.00920993 0)
(-0.000520505 -0.00921435 0)
(-0.000538013 -0.00921285 0)
(-0.000555447 -0.00920552 0)
(-0.000572875 -0.00919247 0)
(-0.000590276 -0.0091738 0)
(-0.000607621 -0.00914963 0)
(-0.000624885 -0.0091201 0)
(-4.90141e-08 -0.000253746 0)
(-5.49421e-07 -0.000747086 0)
(-1.59634e-06 -0.00122625 0)
(-3.19084e-06 -0.0016912 0)
(-5.32162e-06 -0.0021419 0)
(-7.98492e-06 -0.00257833 0)
(-1.11789e-05 -0.00300045 0)
(-1.49049e-05 -0.00340822 0)
(-1.91607e-05 -0.00380162 0)
(-2.39479e-05 -0.00418061 0)
(-2.92628e-05 -0.00454517 0)
(-3.5108e-05 -0.00489525 0)
(-4.14785e-05 -0.00523083 0)
(-4.83779e-05 -0.00555188 0)
(-5.57998e-05 -0.00585836 0)
(-6.37493e-05 -0.00615024 0)
(-7.2218e-05 -0.00642749 0)
(-8.12132e-05 -0.00669009 0)
(-9.07236e-05 -0.00693799 0)
(-0.00010076 -0.00717118 0)
(-0.000111307 -0.00738962 0)
(-0.000122379 -0.00759328 0)
(-0.000133957 -0.00778213 0)
(-0.00014606 -0.00795615 0)
(-0.000158663 -0.00811531 0)
(-0.000171795 -0.00825959 0)
(-0.000185427 -0.00838895 0)
(-0.000199609 -0.00850338 0)
(-0.000214267 -0.00860285 0)
(-0.00022929 -0.00868734 0)
(-0.000244359 -0.00875684 0)
(-0.000260239 -0.00881134 0)
(-0.000281158 -0.00885094 0)
(-0.000313066 -0.00887601 0)
(-0.00034585 -0.00888944 0)
(-0.000365658 -0.00889402 0)
(-0.000393239 -0.00889789 0)
(-0.000425525 -0.00890534 0)
(-0.000446912 -0.00892724 0)
(-0.000447563 -0.00895343 0)
(-0.000459746 -0.00897435 0)
(-0.000477061 -0.00898963 0)
(-0.000494974 -0.00899916 0)
(-0.000512485 -0.00900295 0)
(-0.000529808 -0.00900105 0)
(-0.000547111 -0.00899358 0)
(-0.000564412 -0.00898062 0)
(-0.000581681 -0.0089623 0)
(-0.000598889 -0.00893875 0)
(-0.000616016 -0.00891009 0)
(-4.89481e-08 -0.000250512 0)
(-5.44931e-07 -0.000737359 0)
(-1.58159e-06 -0.00121001 0)
(-3.15931e-06 -0.00166843 0)
(-5.26738e-06 -0.00211259 0)
(-7.90135e-06 -0.00254247 0)
(-1.10604e-05 -0.00295803 0)
(-1.47449e-05 -0.00335925 0)
(-1.89541e-05 -0.00374609 0)
(-2.3688e-05 -0.00411852 0)
(-2.89454e-05 -0.00447652 0)
(-3.47264e-05 -0.00482005 0)
(-4.10294e-05 -0.00514908 0)
(-4.78548e-05 -0.00546358 0)
(-5.52004e-05 -0.00576351 0)
(-6.30671e-05 -0.00604886 0)
(-7.1452e-05 -0.00631958 0)
(-8.03568e-05 -0.00657564 0)
(-8.97773e-05 -0.00681701 0)
(-9.97166e-05 -0.00704366 0)
(-0.000110169 -0.00725556 0)
(-0.000121139 -0.00745266 0)
(-0.000132619 -0.00763495 0)
(-0.000144616 -0.00780237 0)
(-0.000157119 -0.0079549 0)
(-0.000170141 -0.00809249 0)
(-0.000183675 -0.00821512 0)
(-0.000197736 -0.00832272 0)
(-0.000212248 -0.00841528 0)
(-0.000227064 -0.0084927 0)
(-0.000242152 -0.00855494 0)
(-0.000258961 -0.00860194 0)
(-0.000281774 -0.00863414 0)
(-0.000310005 -0.00865396 0)
(-0.000338593 -0.00866181 0)
(-0.000363414 -0.00866424 0)
(-0.000394139 -0.00866782 0)
(-0.000427486 -0.00867943 0)
(-0.000432863 -0.0087074 0)
(-0.000437745 -0.0087333 0)
(-0.000452755 -0.00875368 0)
(-0.00047041 -0.00876845 0)
(-0.000487928 -0.00877763 0)
(-0.000505099 -0.00878129 0)
(-0.000522183 -0.00877952 0)
(-0.000539274 -0.00877245 0)
(-0.000556358 -0.00876016 0)
(-0.000573406 -0.00874277 0)
(-0.000590392 -0.00872039 0)
(-0.000607298 -0.00869313 0)
(-4.95355e-08 -0.000247154 0)
(-5.42013e-07 -0.000727315 0)
(-1.56858e-06 -0.00119331 0)
(-3.12859e-06 -0.00164509 0)
(-5.21135e-06 -0.00208264 0)
(-7.81172e-06 -0.00250591 0)
(-1.09292e-05 -0.00291489 0)
(-1.45631e-05 -0.00330954 0)
(-1.87135e-05 -0.00368982 0)
(-2.33785e-05 -0.00405571 0)
(-2.85582e-05 -0.00440718 0)
(-3.42501e-05 -0.00474419 0)
(-4.04548e-05 -0.00506671 0)
(-4.71684e-05 -0.00537472 0)
(-5.43923e-05 -0.00566819 0)
(-6.2121e-05 -0.00594707 0)
(-7.03568e-05 -0.00621135 0)
(-7.90922e-05 -0.006461 0)
(-8.83311e-05 -0.00669598 0)
(-9.80626e-05 -0.00691626 0)
(-0.000108293 -0.00712182 0)
(-0.000119007 -0.00731263 0)
(-0.000130214 -0.00748865 0)
(-0.000141891 -0.00764986 0)
(-0.000154054 -0.00779623 0)
(-0.000166681 -0.00792774 0)
(-0.000179818 -0.00804435 0)
(-0.000193397 -0.00814605 0)
(-0.000207194 -0.00823279 0)
(-0.000220571 -0.00830455 0)
(-0.00023416 -0.00836129 0)
(-0.000254431 -0.00840305 0)
(-0.000296421 -0.00843003 0)
(-0.000340909 -0.00844565 0)
(-0.000364567 -0.00845069 0)
(-0.000391245 -0.0084537 0)
(-0.000418608 -0.00845958 0)
(-0.000440516 -0.00847969 0)
(-0.000440133 -0.00850898 0)
(-0.000449668 -0.00853341 0)
(-0.00046501 -0.0085524 0)
(-0.000481309 -0.00856597 0)
(-0.00049733 -0.00857418 0)
(-0.00051322 -0.00857713 0)
(-0.000529156 -0.0085749 0)
(-0.000545161 -0.00856761 0)
(-0.000561205 -0.00855534 0)
(-0.000577258 -0.00853822 0)
(-0.000593299 -0.00851633 0)
(-0.000609306 -0.00848979 0)
(-4.51482e-08 -0.000244 0)
(-5.1368e-07 -0.000717841 0)
(-1.49808e-06 -0.0011775 0)
(-3.00015e-06 -0.00162294 0)
(-5.01182e-06 -0.00205415 0)
(-7.52898e-06 -0.00247108 0)
(-1.05529e-05 -0.00287371 0)
(-1.4083e-05 -0.00326202 0)
(-1.8121e-05 -0.00363597 0)
(-2.26649e-05 -0.00399554 0)
(-2.77165e-05 -0.0043407 0)
(-3.32726e-05 -0.00467142 0)
(-3.93359e-05 -0.00498767 0)
(-4.5902e-05 -0.00528944 0)
(-5.29745e-05 -0.00557669 0)
(-6.05477e-05 -0.00584939 0)
(-6.86268e-05 -0.00610752 0)
(-7.72042e-05 -0.00635106 0)
(-8.62877e-05 -0.00657998 0)
(-9.58674e-05 -0.00679425 0)
(-0.000105954 -0.00699385 0)
(-0.000116535 -0.00717878 0)
(-0.000127626 -0.00734898 0)
(-0.000139209 -0.00750447 0)
(-0.000151307 -0.00764521 0)
(-0.000163903 -0.0077712 0)
(-0.000177039 -0.00788242 0)
(-0.000190651 -0.00797888 0)
(-0.000204602 -0.00806054 0)
(-0.000218589 -0.00812745 0)
(-0.000233442 -0.0081796 0)
(-0.000253622 -0.0082172 0)
(-0.000285167 -0.00824079 0)
(-0.000319803 -0.00825217 0)
(-0.000342232 -0.00825615 0)
(-0.000370876 -0.00826023 0)
(-0.000402548 -0.00826947 0)
(-0.000413247 -0.0082954 0)
(-0.000415462 -0.00832212 0)
(-0.000428736 -0.00834375 0)
(-0.000445502 -0.00836029 0)
(-0.000462387 -0.00837183 0)
(-0.00047892 -0.00837841 0)
(-0.000495357 -0.00838009 0)
(-0.000511821 -0.00837696 0)
(-0.00052831 -0.00836908 0)
(-0.000544794 -0.00835653 0)
(-0.000561247 -0.0083394 0)
(-0.000577651 -0.00831778 0)
(-0.000593988 -0.00829174 0)
(-4.91877e-08 -0.000240896 0)
(-5.39704e-07 -0.000708501 0)
(-1.56194e-06 -0.0011619 0)
(-3.11457e-06 -0.00160106 0)
(-5.18651e-06 -0.00202596 0)
(-7.77173e-06 -0.00243657 0)
(-1.08695e-05 -0.00283288 0)
(-1.44782e-05 -0.00321485 0)
(-1.8598e-05 -0.00358245 0)
(-2.32265e-05 -0.00393568 0)
(-2.8364e-05 -0.00427448 0)
(-3.4008e-05 -0.00459885 0)
(-4.01592e-05 -0.00490874 0)
(-4.68145e-05 -0.00520414 0)
(-5.39753e-05 -0.00548501 0)
(-6.16379e-05 -0.00575131 0)
(-6.98046e-05 -0.00600303 0)
(-7.84705e-05 -0.00624012 0)
(-8.76395e-05 -0.00646256 0)
(-9.7305e-05 -0.0066703 0)
(-0.000107473 -0.00686332 0)
(-0.000118135 -0.00704158 0)
(-0.0001293 -0.00720505 0)
(-0.000140955 -0.00735368 0)
(-0.000153119 -0.00748744 0)
(-0.000165784 -0.0076063 0)
(-0.000178967 -0.00771026 0)
(-0.000192568 -0.00779925 0)
(-0.000206387 -0.0078733 0)
(-0.000220473 -0.00793231 0)
(-0.000236928 -0.00797641 0)
(-0.000261415 -0.00800595 0)
(-0.000291323 -0.00802395 0)
(-0.000320738 -0.00802986 0)
(-0.000349508 -0.00803201 0)
(-0.000381154 -0.0080361 0)
(-0.000409997 -0.00805221 0)
(-0.000407976 -0.00808376 0)
(-0.000414768 -0.0081113 0)
(-0.000429658 -0.00813315 0)
(-0.0004461 -0.00814963 0)
(-0.000462187 -0.008161 0)
(-0.000478015 -0.00816745 0)
(-0.000493834 -0.00816912 0)
(-0.000509709 -0.00816613 0)
(-0.000525617 -0.00815856 0)
(-0.000541533 -0.00814654 0)
(-0.000557437 -0.00813013 0)
(-0.000573312 -0.00810943 0)
(-0.000589143 -0.00808452 0)
(-4.80993e-08 -0.000237502 0)
(-5.28012e-07 -0.00069838 0)
(-1.52793e-06 -0.00114511 0)
(-3.04689e-06 -0.00157766 0)
(-5.07252e-06 -0.00199599 0)
(-7.59999e-06 -0.00240009 0)
(-1.06261e-05 -0.00278992 0)
(-1.41516e-05 -0.00316545 0)
(-1.81727e-05 -0.00352666 0)
(-2.26909e-05 -0.00387351 0)
(-2.77007e-05 -0.00420597 0)
(-3.32051e-05 -0.00452403 0)
(-3.91963e-05 -0.00482764 0)
(-4.5679e-05 -0.00511679 0)
(-5.26418e-05 -0.00539145 0)
(-6.00929e-05 -0.00565159 0)
(-6.80141e-05 -0.00589718 0)
(-7.64208e-05 -0.0061282 0)
(-8.52823e-05 -0.00634462 0)
(-9.4628e-05 -0.00654641 0)
(-0.000104406 -0.00673356 0)
(-0.000114667 -0.00690603 0)
(-0.000125329 -0.00706381 0)
(-0.000136473 -0.00720686 0)
(-0.000147995 -0.00733516 0)
(-0.000160022 -0.00744868 0)
(-0.000172395 -0.00754742 0)
(-0.000184966 -0.00763132 0)
(-0.000197054 -0.00770037 0)
(-0.000209455 -0.00775453 0)
(-0.000228759 -0.00779385 0)
(-0.000268782 -0.00781852 0)
(-0.000311896 -0.00783217 0)
(-0.000332726 -0.00783598 0)
(-0.000357728 -0.00783877 0)
(-0.000383701 -0.0078457 0)
(-0.000398482 -0.00786936 0)
(-0.000399615 -0.00789865 0)
(-0.000411351 -0.00792369 0)
(-0.000427147 -0.00794399 0)
(-0.000443328 -0.00795939 0)
(-0.000459207 -0.00796995 0)
(-0.000474992 -0.00797577 0)
(-0.000490804 -0.00797698 0)
(-0.000506647 -0.0079737 0)
(-0.00052249 -0.00796604 0)
(-0.000538312 -0.00795408 0)
(-0.000554094 -0.00793793 0)
(-0.000569823 -0.00791765 0)
(-0.000585483 -0.00789333 0)
(-4.41967e-08 -0.00023454 0)
(-5.05217e-07 -0.000689465 0)
(-1.47238e-06 -0.00113022 0)
(-2.94682e-06 -0.00155677 0)
(-4.91881e-06 -0.00196911 0)
(-7.38416e-06 -0.00236721 0)
(-1.03422e-05 -0.00275103 0)
(-1.37934e-05 -0.00312055 0)
(-1.7737e-05 -0.00347576 0)
(-2.21736e-05 -0.00381661 0)
(-2.71017e-05 -0.0041431 0)
(-3.25221e-05 -0.00445519 0)
(-3.84329e-05 -0.00475286 0)
(-4.48355e-05 -0.00503609 0)
(-5.1727e-05 -0.00530487 0)
(-5.91096e-05 -0.00555917 0)
(-6.69794e-05 -0.00579897 0)
(-7.53396e-05 -0.00602426 0)
(-8.41848e-05 -0.00623502 0)
(-9.35198e-05 -0.00643123 0)
(-0.000103337 -0.00661289 0)
(-0.000113644 -0.00677998 0)
(-0.000124428 -0.00693248 0)
(-0.000135704 -0.00707039 0)
(-0.000147462 -0.00719369 0)
(-0.000159731 -0.00730236 0)
(-0.000172453 -0.00739636 0)
(-0.000185455 -0.00747566 0)
(-0.000198444 -0.00754021 0)
(-0.000212392 -0.00759002 0)
(-0.000232269 -0.0076252 0)
(-0.000264299 -0.0076468 0)
(-0.000301433 -0.00765578 0)
(-0.00032748 -0.0076587 0)
(-0.000357178 -0.00766207 0)
(-0.000386511 -0.00767181 0)
(-0.000387681 -0.0076942 0)
(-0.000391586 -0.00771698 0)
(-0.000404972 -0.00773741 0)
(-0.000420632 -0.00775439 0)
(-0.000436124 -0.00776733 0)
(-0.00045136 -0.00777605 0)
(-0.000466597 -0.00778053 0)
(-0.000481921 -0.00778083 0)
(-0.000497313 -0.007777 0)
(-0.000512747 -0.00776911 0)
(-0.000528198 -0.00775722 0)
(-0.000543647 -0.0077414 0)
(-0.000559079 -0.00772169 0)
(-0.000574474 -0.00769817 0)
(-4.94963e-08 -0.000231322 0)
(-5.26936e-07 -0.000679844 0)
(-1.51802e-06 -0.00111422 0)
(-3.02155e-06 -0.00153442 0)
(-5.02619e-06 -0.00194042 0)
(-7.52792e-06 -0.00233218 0)
(-1.05247e-05 -0.00270968 0)
(-1.40173e-05 -0.00307289 0)
(-1.80033e-05 -0.00342178 0)
(-2.24835e-05 -0.00375633 0)
(-2.74548e-05 -0.0040765 0)
(-3.29183e-05 -0.00438227 0)
(-3.88704e-05 -0.00467361 0)
(-4.53132e-05 -0.0049505 0)
(-5.22424e-05 -0.00521291 0)
(-5.9661e-05 -0.00546082 0)
(-6.75644e-05 -0.00569419 0)
(-7.59567e-05 -0.00591302 0)
(-8.4833e-05 -0.00611726 0)
(-9.4199e-05 -0.0063069 0)
(-0.000104049 -0.00648191 0)
(-0.00011439 -0.00664227 0)
(-0.000125217 -0.00678795 0)
(-0.000136545 -0.00691893 0)
(-0.000148378 -0.00703517 0)
(-0.000160724 -0.00713666 0)
(-0.000173458 -0.00722336 0)
(-0.000186296 -0.00729524 0)
(-0.000199374 -0.00735221 0)
(-0.000215673 -0.00739433 0)
(-0.00024274 -0.00742202 0)
(-0.000275848 -0.00743874 0)
(-0.000306853 -0.00744345 0)
(-0.000339409 -0.00744543 0)
(-0.000372307 -0.00745019 0)
(-0.000393565 -0.0074685 0)
(-0.00038851 -0.00749685 0)
(-0.000397127 -0.00752276 0)
(-0.000412006 -0.00754486 0)
(-0.000427618 -0.00756257 0)
(-0.000442734 -0.00757573 0)
(-0.000457629 -0.00758441 0)
(-0.00047253 -0.00758874 0)
(-0.000487475 -0.00758887 0)
(-0.000502442 -0.00758492 0)
(-0.00051741 -0.00757702 0)
(-0.000532367 -0.00756526 0)
(-0.0005473 -0.00754971 0)
(-0.000562198 -0.00753046 0)
(-0.000577047 -0.00750756 0)
(-4.0521e-08 -0.000228288 0)
(-4.78263e-07 -0.000670724 0)
(-1.40301e-06 -0.001099 0)
(-2.81626e-06 -0.0015131 0)
(-4.71154e-06 -0.00191301 0)
(-7.08223e-06 -0.00229868 0)
(-9.93118e-06 -0.00267011 0)
(-1.32537e-05 -0.00302726 0)
(-1.70541e-05 -0.00337012 0)
(-2.13246e-05 -0.00369866 0)
(-2.6071e-05 -0.00401286 0)
(-3.12824e-05 -0.00431268 0)
(-3.69668e-05 -0.00459812 0)
(-4.31096e-05 -0.00486914 0)
(-4.9722e-05 -0.00512572 0)
(-5.67847e-05 -0.00536784 0)
(-6.43131e-05 -0.00559548 0)
(-7.2282e-05 -0.0058086 0)
(-8.07129e-05 -0.0060072 0)
(-8.95726e-05 -0.00619124 0)
(-9.889e-05 -0.0063607 0)
(-0.000108621 -0.00651556 0)
(-0.000118807 -0.00665579 0)
(-0.000129401 -0.00678138 0)
(-0.000140482 -0.00689228 0)
(-0.000151944 -0.0069885 0)
(-0.000163578 -0.00706998 0)
(-0.000174705 -0.00713671 0)
(-0.000186199 -0.00718863 0)
(-0.000205242 -0.00722584 0)
(-0.000246031 -0.00724853 0)
(-0.000292288 -0.00726019 0)
(-0.000315819 -0.00726287 0)
(-0.000342292 -0.00726524 0)
(-0.000368107 -0.00727285 0)
(-0.000374065 -0.0072966 0)
(-0.000375845 -0.0073232 0)
(-0.000387684 -0.00734691 0)
(-0.000402509 -0.00736689 0)
(-0.000417475 -0.00738279 0)
(-0.000432249 -0.00739456 0)
(-0.000447043 -0.00740225 0)
(-0.000461938 -0.00740593 0)
(-0.000476909 -0.0074057 0)
(-0.00049192 -0.00740162 0)
(-0.000506944 -0.00739378 0)
(-0.00052196 -0.00738225 0)
(-0.00053695 -0.00736709 0)
(-0.000551901 -0.00734837 0)
(-0.000566795 -0.00732615 0)
(-5.00668e-08 -0.000225409 0)
(-5.33668e-07 -0.00066206 0)
(-1.53465e-06 -0.00108453 0)
(-3.04957e-06 -0.00149281 0)
(-5.06532e-06 -0.00188688 0)
(-7.57565e-06 -0.00226672 0)
(-1.05781e-05 -0.00263231 0)
(-1.40717e-05 -0.00298363 0)
(-1.80548e-05 -0.00332066 0)
(-2.25264e-05 -0.00364339 0)
(-2.7485e-05 -0.00395179 0)
(-3.29298e-05 -0.00424584 0)
(-3.88597e-05 -0.00452552 0)
(-4.52737e-05 -0.00479082 0)
(-5.21716e-05 -0.00504172 0)
(-5.95515e-05 -0.00527818 0)
(-6.74144e-05 -0.00550021 0)
(-7.57573e-05 -0.00570776 0)
(-8.45828e-05 -0.00590084 0)
(-9.3886e-05 -0.00607941 0)
(-0.000103671 -0.00624346 0)
(-0.000113931 -0.00639298 0)
(-0.000124675 -0.00652794 0)
(-0.0001359 -0.00664832 0)
(-0.000147632 -0.00675412 0)
(-0.000159804 -0.00684531 0)
(-0.000172215 -0.00692187 0)
(-0.000184573 -0.00698377 0)
(-0.00019808 -0.00703106 0)
(-0.000218398 -0.00706398 0)
(-0.000251823 -0.007084 0)
(-0.000292177 -0.00709115 0)
(-0.000323376 -0.00709324 0)
(-0.000355338 -0.0070964 0)
(-0.000380468 -0.00710816 0)
(-0.000374555 -0.00713132 0)
(-0.000380225 -0.0071532 0)
(-0.000393733 -0.00717232 0)
(-0.000408532 -0.00718826 0)
(-0.000422909 -0.00720086 0)
(-0.000437055 -0.00721005 0)
(-0.000451227 -0.00721581 0)
(-0.000465479 -0.00721812 0)
(-0.000479792 -0.00721696 0)
(-0.000494142 -0.00721235 0)
(-0.000508513 -0.00720431 0)
(-0.00052289 -0.00719288 0)
(-0.000537261 -0.00717807 0)
(-0.00055161 -0.00715994 0)
(-0.000565925 -0.00713853 0)
(-0.000697612 -0.0111759 0)
(-0.000717316 -0.0111113 0)
(-0.000736686 -0.01104 0)
(-0.000755704 -0.0109625 0)
(-0.00077436 -0.0108789 0)
(-0.000792647 -0.0107896 0)
(-0.000810555 -0.0106948 0)
(-0.00082808 -0.0105948 0)
(-0.000845215 -0.0104899 0)
(-0.000861957 -0.0103805 0)
(-0.000878302 -0.0102667 0)
(-0.000894247 -0.0101489 0)
(-0.000909792 -0.0100273 0)
(-0.000924934 -0.00990219 0)
(-0.000939674 -0.00977392 0)
(-0.000954012 -0.00964272 0)