/*--------------------------------*- C++ -*----------------------------------*\
| =========                 |                                                 |
| \\      /  F ield         | OpenFOAM: The Open Source CFD Toolbox           |
|  \\    /   O peration     | Version:  2.4.0                                 |
|   \\  /    A nd           | Web:      www.OpenFOAM.org                      |
|    \\/     M anipulation  |                                                 |
\*---------------------------------------------------------------------------*/
FoamFile
{
    version     2.0;
    format      ascii;
    class       surfaceScalarField;
    location    "1.5";
    object      phi;
}
// * * * * * * * * * * * * * * * * * * * * * * * * * * * * * * * * * * * * * //

dimensions      [0 3 -1 0 0 0 0];

internalField   nonuniform List<scalar> 
220
(
-3.87267e-17
-3.21537e-10
-8.93506e-18
-3.21542e-10
2.00448e-17
-3.21544e-10
1.37283e-17
-3.21543e-10
-3.21537e-10
-4.35794e-17
-3.21537e-10
-1.08274e-17
-3.21542e-10
2.27019e-17
-3.21544e-10
1.67087e-17
-3.21543e-10
-3.21537e-10
-4.79969e-17
-3.21537e-10
-1.24496e-17
-3.21542e-10
2.5146e-17
-3.21544e-10
1.92723e-17
-3.21543e-10
-3.21536e-10
-5.19636e-17
-3.21537e-10
-1.37971e-17
-3.21542e-10
2.73694e-17
-3.21544e-10
2.14106e-17
-3.21543e-10
-3.21536e-10
-5.54679e-17
-3.21537e-10
-1.48667e-17
-3.21542e-10
2.9365e-17
-3.21544e-10
2.31189e-17
-3.21543e-10
-3.21536e-10
-5.8501e-17
-3.21537e-10
-1.56573e-17
-3.21542e-10
3.11269e-17
-3.21544e-10
2.43955e-17
-3.21543e-10
-3.21536e-10
-6.10565e-17
-3.21537e-10
-1.61691e-17
-3.21542e-10
3.26505e-17
-3.21544e-10
2.52411e-17
-3.21543e-10
-3.21536e-10
-6.31303e-17
-3.21537e-10
-1.64044e-17
-3.21542e-10
3.39323e-17
-3.21544e-10
2.56593e-17
-3.21543e-10
-3.21536e-10
-6.47212e-17
-3.21537e-10
-1.63674e-17
-3.21542e-10
3.49702e-17
-3.21544e-10
2.56562e-17
-3.21543e-10
-3.21536e-10
-6.58304e-17
-3.21536e-10
-1.60639e-17
-3.21542e-10
3.57633e-17
-3.21544e-10
2.52407e-17
-3.21543e-10
-3.21536e-10
-6.64621e-17
-3.21536e-10
-1.55018e-17
-3.21542e-10
3.63122e-17
-3.21544e-10
2.44244e-17
-3.21543e-10
-3.21536e-10
-6.66234e-17
-3.21536e-10
-1.46905e-17
-3.21542e-10
3.66188e-17
-3.21544e-10
2.3222e-17
-3.21543e-10
-3.21536e-10
-6.63242e-17
-3.21536e-10
-1.36415e-17
-3.21542e-10
3.66863e-17
-3.21544e-10
2.16505e-17
-3.21543e-10
-3.21536e-10
-6.5577e-17
-3.21536e-10
-1.23678e-17
-3.21542e-10
3.65193e-17
-3.21544e-10
1.97296e-17
-3.21542e-10
-3.21536e-10
-6.43972e-17
-3.21536e-10
-1.08843e-17
-3.21542e-10
3.61239e-17
-3.21545e-10
1.74815e-17
-3.21542e-10
-3.21536e-10
-6.28029e-17
-3.21536e-10
-9.20717e-18
-3.21542e-10
3.55076e-17
-3.21545e-10
1.49308e-17
-3.21542e-10
-3.21536e-10
-6.08148e-17
-3.21536e-10
-7.3542e-18
-3.21542e-10
3.46789e-17
-3.21545e-10
1.21041e-17
-3.21542e-10
-3.21536e-10
-5.84557e-17
-3.21536e-10
-5.34437e-18
-3.21542e-10
3.36477e-17
-3.21545e-10
9.02984e-18
-3.21542e-10
-3.21536e-10
-5.57509e-17
-3.21536e-10
-3.19781e-18
-3.21542e-10
3.2425e-17
-3.21545e-10
5.73823e-18
-3.21542e-10
-3.21536e-10
-5.27275e-17
-3.21536e-10
-9.35558e-19
-3.21542e-10
3.1023e-17
-3.21545e-10
2.26082e-18
-3.21542e-10
-3.21536e-10
-4.94147e-17
-3.21536e-10
1.42057e-18
-3.21542e-10
2.94548e-17
-3.21545e-10
-1.36996e-18
-3.21542e-10
-3.21536e-10
-4.58428e-17
-3.21536e-10
3.84822e-18
-3.21543e-10
2.77344e-17
-3.21545e-10
-5.12244e-18
-3.21542e-10
-3.21536e-10
-4.20437e-17
-3.21536e-10
6.32472e-18
-3.21543e-10
2.58783e-17
-3.21545e-10
-8.96105e-18
-3.21542e-10
-3.21536e-10
-3.80501e-17
-3.21536e-10
8.82748e-18
-3.21543e-10
2.38995e-17
-3.21545e-10
-1.28593e-17
-3.21542e-10
-3.21536e-10
-3.38954e-17
1.1334e-17
2.18165e-17
-1.6773e-17
)
;

boundaryField
{
    BotWall
    {
        type            calculated;
        value           nonuniform 0();
    }
    FreeStream
    {
        type            calculated;
        value           nonuniform 0();
    }
    FrontNBack
    {
        type            empty;
        value           nonuniform 0();
    }
    LeftSide
    {
        type            symmetryPlane;
        value           uniform 0;
    }
    RightSide
    {
        type            symmetryPlane;
        value           uniform 0;
    }
    procBoundary1to0
    {
        type            processor;
        value           nonuniform List<scalar> 5(3.21537e-10 3.21541e-10 3.21544e-10 3.21543e-10 3.21537e-10);
    }
    procBoundary1to2
    {
        type            processor;
        value           nonuniform List<scalar> 5(-3.21536e-10 -3.21543e-10 -3.21545e-10 -3.21542e-10 -3.21536e-10);
    }
}


// ************************************************************************* //
