/*--------------------------------*- C++ -*----------------------------------*\
| =========                 |                                                 |
| \\      /  F ield         | OpenFOAM: The Open Source CFD Toolbox           |
|  \\    /   O peration     | Version:  2.4.0                                 |
|   \\  /    A nd           | Web:      www.OpenFOAM.org                      |
|    \\/     M anipulation  |                                                 |
\*---------------------------------------------------------------------------*/
FoamFile
{
    version     2.0;
    format      ascii;
    class       volScalarField;
    location    "1.5";
    object      T;
}
// * * * * * * * * * * * * * * * * * * * * * * * * * * * * * * * * * * * * * //

dimensions      [0 0 0 1 0 0 0];

internalField   nonuniform List<scalar> 
125
(
297.946
297.946
297.946
297.946
297.946
297.946
297.946
297.946
297.946
297.946
297.947
297.947
297.947
297.947
297.947
297.948
297.948
297.948
297.948
297.948
297.948
297.948
297.948
297.948
297.948
297.949
297.949
297.949
297.949
297.949
297.95
297.95
297.95
297.95
297.95
297.951
297.951
297.951
297.951
297.951
297.951
297.951
297.951
297.951
297.951
297.952
297.952
297.952
297.952
297.952
297.953
297.953
297.953
297.953
297.953
297.955
297.955
297.955
297.955
297.955
297.956
297.956
297.956
297.956
297.956
297.957
297.957
297.957
297.957
297.957
297.958
297.958
297.958
297.958
297.958
297.959
297.959
297.959
297.959
297.959
297.961
297.961
297.961
297.961
297.961
297.962
297.962
297.962
297.962
297.962
297.963
297.963
297.963
297.963
297.963
297.965
297.965
297.965
297.965
297.965
297.966
297.966
297.966
297.966
297.966
297.967
297.967
297.967
297.967
297.967
297.969
297.969
297.969
297.969
297.969
297.97
297.97
297.97
297.97
297.97
297.971
297.971
297.971
297.971
297.971
)
;

boundaryField
{
    BotWall
    {
        type            fixedValue;
        value           nonuniform 0();
    }
    FreeStream
    {
        type            fixedValue;
        value           nonuniform 0();
    }
    FrontNBack
    {
        type            empty;
    }
    LeftSide
    {
        type            symmetryPlane;
    }
    RightSide
    {
        type            symmetryPlane;
    }
    procBoundary1to0
    {
        type            processor;
        value           nonuniform List<scalar> 5(297.946 297.946 297.946 297.946 297.946);
    }
    procBoundary1to2
    {
        type            processor;
        value           nonuniform List<scalar> 5(297.973 297.973 297.973 297.973 297.973);
    }
}


// ************************************************************************* //
