/*--------------------------------*- C++ -*----------------------------------*\
| =========                 |                                                 |
| \\      /  F ield         | OpenFOAM: The Open Source CFD Toolbox           |
|  \\    /   O peration     | Version:  2.4.0                                 |
|   \\  /    A nd           | Web:      www.OpenFOAM.org                      |
|    \\/     M anipulation  |                                                 |
\*---------------------------------------------------------------------------*/
FoamFile
{
    version     2.0;
    format      ascii;
    class       volScalarField;
    location    "0.002";
    object      H;
}
// * * * * * * * * * * * * * * * * * * * * * * * * * * * * * * * * * * * * * //

dimensions      [0 2 -2 0 0 0 0];

internalField   nonuniform List<scalar> 
125
(
-8882.25
-239.653
-177.714
-175.375
-172.958
-170.294
-167.366
-164.178
-160.739
-157.058
-153.151
-149.035
-144.729
-140.255
-135.634
-130.888
-126.041
-121.116
-116.135
-111.12
-106.094
-101.078
-96.0909
-91.1525
-86.2804
-81.4912
-76.7999
-72.2204
-67.765
-63.4444
-59.2682
-55.2442
-51.3788
-47.6773
-44.1432
-40.7792
-37.5865
-34.5651
-31.7141
-29.0317
-26.5151
-24.1606
-21.9641
-19.9207
-18.025
-16.2712
-14.6533
-13.1647
-11.7991
-10.5496
1.57138e-72
-6.8706e-73
-6.63211e-74
-3.58365e-75
-2.06216e-76
-2.71538e-77
-3.30085e-78
-1.78522e-79
-1.04767e-80
-4.0466e-81
-6.01299e-82
-2.70607e-83
-1.46597e-84
-8.80354e-85
-1.56699e-85
-1.36138e-86
-1.32552e-87
-2.56909e-88
-4.07705e-89
-4.63147e-90
-5.20838e-91
-7.18172e-92
-9.839e-93
-1.18953e-93
-1.39053e-94
-1.71107e-95
-2.12354e-96
-2.52583e-97
-2.93011e-98
-3.41798e-99
-3.98735e-100
-4.57271e-101
-5.16182e-102
-5.79139e-103
-6.46228e-104
-7.13541e-105
-7.79102e-106
-8.43673e-107
-9.06843e-108
-9.66219e-109
-1.02003e-109
-1.06793e-110
-1.10943e-111
-1.14329e-112
-1.16853e-113
-1.18494e-114
-1.19254e-115
-1.19118e-116
-1.1809e-117
-1.16212e-118
-1.13549e-119
-1.1017e-120
-1.06151e-121
-1.01581e-122
-9.65604e-124
-9.11867e-125
-8.55558e-126
-7.97616e-127
-7.38938e-128
-6.80347e-129
-6.22574e-130
-5.66261e-131
-5.11953e-132
-4.60099e-133
-4.11049e-134
-3.65062e-135
-3.22312e-136
-2.82893e-137
-2.46833e-138
-2.14097e-139
-1.84602e-140
-1.58222e-141
-1.34804e-142
-1.14473e-143
-1.16953e-144
)
;

boundaryField
{
    BotWall
    {
        type            zeroGradient;
    }
    FreeStream
    {
        type            zeroGradient;
    }
    FrontNBack
    {
        type            empty;
    }
    LeftSide
    {
        type            symmetryPlane;
    }
    RightSide
    {
        type            symmetryPlane;
    }
    procBoundary2to0
    {
        type            processor;
        value           nonuniform List<scalar> 
75
(
-3.46098e-72
-4.51838e-73
-5.86314e-74
-7.56937e-75
-9.7151e-76
-1.23884e-76
-1.57032e-77
-1.98003e-78
-2.48343e-79
-3.09735e-80
-3.84167e-81
-4.74014e-82
-5.81906e-83
-7.10659e-84
-8.63382e-85
-1.04358e-85
-1.25504e-86
-1.50171e-87
-1.78765e-88
-2.11712e-89
-2.49445e-90
-2.92381e-91
-3.40909e-92
-3.95385e-93
-4.5611e-94
-5.2331e-95
-5.97113e-96
-6.77532e-97
-7.6445e-98
-8.57595e-99
-9.56527e-100
-1.06063e-100
-1.1691e-101
-1.28094e-102
-1.395e-103
-1.50991e-104
-1.62421e-105
-1.73628e-106
-1.84442e-107
-1.94688e-108
-2.04194e-109
-2.12787e-110
-2.20309e-111
-2.26614e-112
-2.31575e-113
-2.35089e-114
-2.3708e-115
-2.37502e-116
-2.36339e-117
-2.3361e-118
-2.29362e-119
-2.23675e-120
-2.16655e-121
-2.08434e-122
-1.99163e-123
-1.89008e-124
-1.78146e-125
-1.6676e-126
-1.55031e-127
-1.43138e-128
-1.31247e-129
-1.19515e-130
-1.0808e-131
-9.70634e-133
-8.65666e-134
-7.66699e-135
-6.74335e-136
-5.8898e-137
-5.10854e-138
-4.40008e-139
-3.7635e-140
-3.19659e-141
-2.69624e-142
-2.2639e-143
-2.26606e-144
)
;
    }
    procBoundary2to1
    {
        type            processor;
        value           uniform -9.40954;
    }
    procBoundary2to3
    {
        type            processor;
        value           uniform -7.69378e-70;
    }
    procBoundary2to4
    {
        type            processor;
        value           nonuniform List<scalar> 
75
(
-8859.21
-232.135
-172.641
-170.715
-168.487
-165.998
-163.252
-160.247
-156.989
-153.486
-149.756
-145.813
-141.679
-137.373
-132.916
-128.332
-123.642
-118.869
-114.036
-109.164
-104.275
-99.389
-94.5267
-89.7066
-84.9464
-80.2628
-75.6708
-71.1844
-66.816
-62.5766
-58.4758
-54.5218
-50.7213
-47.0796
-43.6008
-40.2876
-37.1416
-34.163
-31.3513
-28.7047
-26.2208
-23.8962
-21.7268
-19.7081
-17.8348
-16.1014
-14.5018
-13.0299
-11.6792
-10.4432
3.04128e-121
-1.38646e-121
-9.13239e-123
-3.63198e-124
-1.79348e-125
-1.54794e-126
-1.12664e-127
-5.70007e-129
-4.91713e-130
-5.95492e-131
-4.20967e-132
-2.28199e-133
-2.98407e-134
-4.10872e-135
-3.72718e-136
-3.10974e-137
-3.30676e-138
-3.59014e-139
-3.38983e-140
-3.07055e-141
-2.9248e-142
-2.79619e-143
-2.55846e-144
-2.29719e-145
-2.58505e-146
)
;
    }
    procBoundary2to5
    {
        type            processor;
        value           nonuniform List<scalar> 
50
(
-4.83821e-72
-6.28744e-73
-8.13946e-74
-1.04953e-74
-1.34781e-75
-1.72366e-76
-2.19495e-77
-2.78278e-78
-3.51202e-79
-4.41163e-80
-5.51504e-81
-6.86029e-82
-8.49023e-83
-1.04526e-83
-1.27996e-84
-1.55879e-85
-1.88775e-86
-2.27312e-87
-2.72128e-88
-3.2386e-89
-3.83123e-90
-4.50484e-91
-5.2644e-92
-6.11387e-93
-7.05596e-94
-8.09176e-95
-9.22051e-96
-1.04393e-96
-1.17429e-97
-1.31234e-98
-1.45705e-99
-1.60709e-100
-1.76091e-101
-1.91669e-102
-2.0724e-103
-2.22583e-104
-2.37466e-105
-2.51648e-106
-2.64889e-107
-2.76951e-108
-2.87612e-109
-2.9667e-110
-3.03946e-111
-3.09295e-112
-3.12608e-113
-3.13817e-114
-3.12896e-115
-3.09861e-116
-3.04668e-117
-2.91342e-118
)
;
    }
}


// ************************************************************************* //
