/*--------------------------------*- C++ -*----------------------------------*\
| =========                 |                                                 |
| \\      /  F ield         | OpenFOAM: The Open Source CFD Toolbox           |
|  \\    /   O peration     | Version:  2.4.0                                 |
|   \\  /    A nd           | Web:      www.OpenFOAM.org                      |
|    \\/     M anipulation  |                                                 |
\*---------------------------------------------------------------------------*/
FoamFile
{
    version     2.0;
    format      ascii;
    class       volScalarField;
    location    "0.002";
    object      p_rgh;
}
// * * * * * * * * * * * * * * * * * * * * * * * * * * * * * * * * * * * * * //

dimensions      [1 -1 -2 0 0 0 0];

internalField   nonuniform List<scalar> 
125
(
2948.15
-1.5602
0.385508
0.746019
0.697375
0.660341
0.653005
0.654635
0.655835
0.655922
0.655681
0.655447
0.655241
0.655034
0.654814
0.654579
0.654331
0.654071
0.653798
0.653511
0.653212
0.6529
0.652575
0.652237
0.651886
0.651521
0.651144
0.650753
0.650349
0.649932
0.649501
0.649057
0.648599
0.648128
0.647644
0.647146
0.646634
0.646109
0.64557
0.645018
0.644451
0.643871
0.643277
0.642669
0.642047
0.641411
0.640762
0.6401
0.639425
0.638738
0.26391
0.260478
0.257044
0.253608
0.250169
0.246728
0.243283
0.239835
0.236383
0.232928
0.22947
0.226007
0.22254
0.219069
0.215594
0.212115
0.20863
0.205141
0.201647
0.198148
0.194644
0.191134
0.187619
0.184098
0.180571
0.177038
0.173499
0.169954
0.166403
0.162845
0.15928
0.155708
0.152129
0.148543
0.14495
0.141349
0.137741
0.134124
0.1305
0.126868
0.123227
0.119578
0.11592
0.112253
0.108578
0.104893
0.101199
0.0974955
0.0937822
0.0900591
0.0863259
0.0825825
0.0788286
0.0750641
0.0712889
0.0675027
0.0637053
0.0598966
0.0560764
0.0522444
0.0484005
0.0445445
0.0406761
0.0367952
0.0329016
0.028995
0.0250753
0.0211421
0.0171953
0.0132347
0.00926006
0.0052711
0.00126726
-0.00275027
-0.00680711
)
;

boundaryField
{
    BotWall
    {
        type            fixedFluxPressure;
        gradient        uniform 0;
        value           uniform 2948.15;
    }
    FreeStream
    {
        type            totalPressure;
        rho             rho;
        psi             none;
        gamma           1;
        p0              uniform 0;
        value           uniform -0.00885229;
    }
    FrontNBack
    {
        type            empty;
    }
    LeftSide
    {
        type            symmetryPlane;
    }
    RightSide
    {
        type            symmetryPlane;
    }
    procBoundary2to0
    {
        type            processor;
        value           nonuniform List<scalar> 
75
(
0.280647
0.277286
0.273912
0.270523
0.267121
0.263704
0.260274
0.25683
0.253371
0.249899
0.246413
0.242913
0.239398
0.23587
0.232328
0.228772
0.225202
0.221618
0.21802
0.214408
0.210782
0.207142
0.203488
0.19982
0.196137
0.192441
0.188731
0.185006
0.181267
0.177514
0.173747
0.169966
0.16617
0.162361
0.158536
0.154698
0.150845
0.146978
0.143097
0.139201
0.13529
0.131366
0.127426
0.123472
0.119504
0.115521
0.111523
0.10751
0.103483
0.0994409
0.095384
0.0913122
0.0872255
0.0831238
0.0790071
0.0748754
0.0707285
0.0665664
0.0623892
0.0581967
0.0539888
0.0497656
0.045527
0.0412729
0.0370032
0.032718
0.0284172
0.0241007
0.0197686
0.0154207
0.0110571
0.00667756
0.00228161
-0.00212949
-0.00658413
)
;
    }
    procBoundary2to1
    {
        type            processor;
        value           uniform 0.638037;
    }
    procBoundary2to3
    {
        type            processor;
        value           uniform 0.26734;
    }
    procBoundary2to4
    {
        type            processor;
        value           nonuniform List<scalar> 
75
(
1.69149
-1.13265
0.866392
1.23255
1.1781
1.13555
1.12347
1.12059
1.11727
1.11283
1.10808
1.10335
1.09867
1.09401
1.08935
1.0847
1.08005
1.07541
1.07077
1.06614
1.06152
1.0569
1.05229
1.04768
1.04308
1.03848
1.03389
1.02931
1.02472
1.02015
1.01558
1.01102
1.00646
1.0019
0.997357
0.992816
0.988281
0.983753
0.979232
0.974717
0.970209
0.965708
0.961213
0.956726
0.952246
0.947773
0.943307
0.938849
0.934398
0.929955
0.0727214
0.0695276
0.0663231
0.0631077
0.0598812
0.0566435
0.0533945
0.0501342
0.0468624
0.0435792
0.0402844
0.0369781
0.0336601
0.0303305
0.0269891
0.023636
0.0202711
0.0168943
0.0135055
0.0101047
0.00669175
0.0032665
-0.000171537
-0.00362116
-0.00710429
)
;
    }
    procBoundary2to5
    {
        type            processor;
        value           nonuniform List<scalar> 
50
(
0.218745
0.216079
0.213403
0.210716
0.20802
0.205313
0.202596
0.199868
0.197131
0.194383
0.191625
0.188857
0.186078
0.18329
0.180491
0.177681
0.174862
0.172032
0.169192
0.166341
0.16348
0.160609
0.157727
0.154835
0.151932
0.149019
0.146096
0.143162
0.140217
0.137262
0.134297
0.131321
0.128334
0.125337
0.122328
0.11931
0.11628
0.11324
0.110189
0.107127
0.104054
0.100971
0.0978763
0.0947708
0.0916544
0.0885269
0.0853882
0.0822383
0.0790769
0.0759046
)
;
    }
}


// ************************************************************************* //
