/*--------------------------------*- C++ -*----------------------------------*\
| =========                 |                                                 |
| \\      /  F ield         | OpenFOAM: The Open Source CFD Toolbox           |
|  \\    /   O peration     | Version:  2.4.0                                 |
|   \\  /    A nd           | Web:      www.OpenFOAM.org                      |
|    \\/     M anipulation  |                                                 |
\*---------------------------------------------------------------------------*/
FoamFile
{
    version     2.0;
    format      ascii;
    class       volScalarField;
    location    "0.011";
    object      p;
}
// * * * * * * * * * * * * * * * * * * * * * * * * * * * * * * * * * * * * * //

dimensions      [1 -1 -2 0 0 0 0];

internalField   nonuniform List<scalar> 
125
(
-0.0121896
-0.0123574
-0.0125259
-0.012695
-0.0128647
-0.013035
-0.0132059
-0.0133775
-0.0135497
-0.0137226
-0.0138961
-0.0140702
-0.014245
-0.0144204
-0.0145964
-0.0147731
-0.0149505
-0.0151285
-0.0153071
-0.0154865
-0.0156664
-0.0158471
-0.0160284
-0.0162104
-0.016393
-0.0165763
-0.0167603
-0.016945
-0.0171304
-0.0173164
-0.0175031
-0.0176905
-0.0178786
-0.0180674
-0.0182569
-0.0184471
-0.018638
-0.0188296
-0.0190219
-0.0192149
-0.0194086
-0.019603
-0.0197982
-0.019994
-0.0201906
-0.0203879
-0.020586
-0.0207847
-0.0209842
-0.0211844
-0.0213854
-0.0215871
-0.0217896
-0.0219928
-0.0221967
-0.0224014
-0.0226069
-0.0228131
-0.02302
-0.0232278
-0.0234362
-0.0236455
-0.0238555
-0.0240663
-0.0242779
-0.0244903
-0.0247034
-0.0249174
-0.0251321
-0.0253476
-0.0255639
-0.025781
-0.0259989
-0.0262176
-0.0264371
-0.0266574
-0.0268785
-0.0271004
-0.0273232
-0.0275468
-0.0277712
-0.0279964
-0.0282224
-0.0284493
-0.028677
-0.0289056
-0.029135
-0.0293652
-0.0295963
-0.0298283
-0.0300611
-0.0302947
-0.0305292
-0.0307646
-0.0310009
-0.031238
-0.031476
-0.0317148
-0.0319546
-0.0321952
-0.0324367
-0.0326791
-0.0329224
-0.0331666
-0.0334117
-0.0336577
-0.0339046
-0.0341524
-0.0344011
-0.0346507
-0.0349013
-0.0351528
-0.0354052
-0.0356585
-0.0359128
-0.036168
-0.0364241
-0.0366812
-0.0369392
-0.0371982
-0.0374581
-0.037719
-0.0379809
-0.0382437
-0.0385075
)
;

boundaryField
{
    BotWall
    {
        type            calculated;
        value           nonuniform 0();
    }
    FreeStream
    {
        type            calculated;
        value           nonuniform 0();
    }
    FrontNBack
    {
        type            empty;
    }
    LeftSide
    {
        type            symmetryPlane;
    }
    RightSide
    {
        type            symmetryPlane;
    }
    procBoundary6to3
    {
        type            processor;
        value           nonuniform List<scalar> 
50
(
-0.0266566
-0.0268777
-0.0270996
-0.0273224
-0.027546
-0.0277704
-0.0279956
-0.0282217
-0.0284485
-0.0286763
-0.0289048
-0.0291342
-0.0293645
-0.0295956
-0.0298275
-0.0300603
-0.030294
-0.0305285
-0.0307639
-0.0310001
-0.0312373
-0.0314752
-0.0317141
-0.0319539
-0.0321945
-0.032436
-0.0326784
-0.0329217
-0.0331659
-0.033411
-0.033657
-0.0339039
-0.0341517
-0.0344004
-0.0346501
-0.0349006
-0.0351521
-0.0354045
-0.0356578
-0.0359121
-0.0361673
-0.0364234
-0.0366805
-0.0369386
-0.0371975
-0.0374575
-0.0377184
-0.0379802
-0.038243
-0.0385068
)
;
    }
    procBoundary6to4
    {
        type            processor;
        value           nonuniform List<scalar> 
75
(
-0.0121867
-0.0123545
-0.012523
-0.0126922
-0.0128619
-0.0130323
-0.0132033
-0.0133749
-0.0135471
-0.01372
-0.0138935
-0.0140677
-0.0142425
-0.0144179
-0.014594
-0.0147708
-0.0149482
-0.0151262
-0.0153049
-0.0154843
-0.0156643
-0.015845
-0.0160263
-0.0162083
-0.016391
-0.0165743
-0.0167584
-0.0169431
-0.0171285
-0.0173145
-0.0175013
-0.0176887
-0.0178769
-0.0180657
-0.0182552
-0.0184454
-0.0186363
-0.0188279
-0.0190203
-0.0192133
-0.019407
-0.0196015
-0.0197967
-0.0199926
-0.0201892
-0.0203865
-0.0205846
-0.0207833
-0.0209829
-0.0211831
-0.0213841
-0.0215858
-0.0217883
-0.0219915
-0.0221955
-0.0224002
-0.0226057
-0.0228119
-0.0230189
-0.0232267
-0.0234352
-0.0236445
-0.0238545
-0.0240653
-0.0242769
-0.0244893
-0.0247025
-0.0249164
-0.0251312
-0.0253467
-0.025563
-0.0257801
-0.025998
-0.0262167
-0.0264363
)
;
    }
    procBoundary6to5
    {
        type            processor;
        value           uniform -0.0387722;
    }
    procBoundary6to7
    {
        type            processor;
        value           uniform -0.0120223;
    }
    procBoundary6to8
    {
        type            processor;
        value           nonuniform List<scalar> 
75
(
-0.0213824
-0.0215841
-0.0217866
-0.0219898
-0.0221937
-0.0223985
-0.0226039
-0.0228101
-0.0230171
-0.0232249
-0.0234334
-0.0236426
-0.0238527
-0.0240635
-0.0242751
-0.0244875
-0.0247006
-0.0249146
-0.0251293
-0.0253448
-0.0255611
-0.0257782
-0.0259962
-0.0262149
-0.0264344
-0.0266547
-0.0268758
-0.0270978
-0.0273206
-0.0275441
-0.0277685
-0.0279938
-0.0282198
-0.0284467
-0.0286745
-0.028903
-0.0291325
-0.0293627
-0.0295938
-0.0298258
-0.0300586
-0.0302922
-0.0305268
-0.0307622
-0.0309984
-0.0312355
-0.0314735
-0.0317124
-0.0319522
-0.0321928
-0.0324343
-0.0326767
-0.03292
-0.0331642
-0.0334093
-0.0336554
-0.0339023
-0.0341501
-0.0343988
-0.0346484
-0.034899
-0.0351505
-0.0354029
-0.0356562
-0.0359105
-0.0361657
-0.0364219
-0.036679
-0.036937
-0.037196
-0.0374559
-0.0377168
-0.0379787
-0.0382415
-0.0385053
)
;
    }
    procBoundary6to9
    {
        type            processor;
        value           nonuniform List<scalar> 
50
(
-0.0121843
-0.0123522
-0.0125207
-0.0126898
-0.0128596
-0.01303
-0.013201
-0.0133726
-0.0135449
-0.0137178
-0.0138913
-0.0140655
-0.0142403
-0.0144158
-0.0145919
-0.0147686
-0.014946
-0.0151241
-0.0153028
-0.0154821
-0.0156622
-0.0158429
-0.0160242
-0.0162062
-0.0163889
-0.0165723
-0.0167563
-0.0169411
-0.0171265
-0.0173125
-0.0174993
-0.0176868
-0.0178749
-0.0180637
-0.0182533
-0.0184435
-0.0186344
-0.0188261
-0.0190184
-0.0192114
-0.0194052
-0.0195997
-0.0197949
-0.0199908
-0.0201874
-0.0203847
-0.0205828
-0.0207816
-0.0209811
-0.0211814
)
;
    }
}


// ************************************************************************* //
