/*--------------------------------*- C++ -*----------------------------------*\
| =========                 |                                                 |
| \\      /  F ield         | OpenFOAM: The Open Source CFD Toolbox           |
|  \\    /   O peration     | Version:  2.4.0                                 |
|   \\  /    A nd           | Web:      www.OpenFOAM.org                      |
|    \\/     M anipulation  |                                                 |
\*---------------------------------------------------------------------------*/
FoamFile
{
    version     2.0;
    format      ascii;
    class       volScalarField;
    location    "0.3";
    object      alpha1;
}
// * * * * * * * * * * * * * * * * * * * * * * * * * * * * * * * * * * * * * //

dimensions      [0 0 0 0 0 0 0];

internalField   nonuniform List<scalar> 
1000
(
0.0143745
0.974751
0.0149424
0.988565
0.0149424
0.974751
0.0143745
0.0510969
0.996404
0.0510969
4.60844e-08
1.46696e-06
0.00225017
0.1536
0.00225017
1.46697e-06
4.60842e-08
0.00577948
0.982304
0.00577948
5.5774e-14
1.58732e-12
1.33769e-11
4.92802e-10
1.33768e-11
1.58734e-12
5.57744e-14
7.63104e-74
2.78657e-72
7.63348e-74
3.33435e-59
1.00866e-57
9.07352e-57
3.93221e-55
9.07342e-57
1.00867e-57
3.33438e-59
5.33959e-80
1.63484e-116
2.62198e-85
3.69234e-67
1.15923e-65
1.06964e-64
5.43278e-63
1.06962e-64
1.15924e-65
3.69239e-67
4.36261e-81
1.50452e-120
2.09772e-86
2.04356e-73
6.77671e-72
6.54238e-71
3.9142e-69
6.54217e-71
6.77676e-72
2.04359e-73
2.49388e-82
1.13013e-121
8.91045e-88
2.97824e-78
1.06035e-76
1.09297e-75
7.72749e-74
1.09292e-75
1.06036e-76
2.97831e-78
4.1116e-86
8.84742e-123
8.76408e-90
4.68492e-82
1.81844e-80
2.04045e-79
1.70688e-77
2.04031e-79
1.81845e-80
4.6851e-82
2.25692e-89
6.34039e-124
1.09188e-90
5.17243e-85
2.21867e-83
2.75968e-82
2.72444e-80
2.75944e-82
2.21868e-83
5.17274e-85
3.29356e-91
4.11085e-125
2.74061e-91
2.66718e-87
1.28167e-85
1.79968e-84
2.08359e-82
1.79948e-84
1.28169e-85
2.66742e-87
3.76094e-91
2.38154e-126
3.78027e-91
3.78604e-89
2.07831e-87
3.36861e-86
4.55255e-84
3.36813e-86
2.07836e-87
3.7865e-89
1.7748e-92
1.21498e-127
1.77863e-92
9.49269e-91
6.12843e-89
1.18164e-87
1.86165e-85
1.18144e-87
6.12862e-89
9.4941e-91
7.42114e-94
5.36601e-129
7.43004e-94
3.18624e-92
2.52248e-90
6.04309e-89
1.1096e-86
6.04184e-89
2.52257e-90
3.18674e-92
3.31627e-95
2.01297e-130
3.31868e-95
1.19372e-93
1.23253e-91
3.9303e-90
8.40626e-88
3.92935e-90
1.23255e-91
1.19389e-93
1.47254e-96
6.30447e-132
1.47321e-96
4.21081e-95
6.26796e-93
3.00648e-91
7.48202e-89
3.00565e-91
6.26765e-93
4.21123e-95
5.69362e-98
1.6479e-133
5.69499e-98
1.05904e-96
2.79603e-94
2.57736e-92
7.45135e-90
2.57658e-92
2.79506e-94
1.05908e-96
1.45213e-99
3.81851e-135
1.45178e-99
8.37284e-99
1.04348e-95
2.397e-93
8.03915e-91
2.39622e-93
1.0408e-95
8.37365e-99
8.20666e-102
9.24235e-137
8.15724e-102
3.44383e-102
5.19753e-97
2.36562e-94
9.18558e-92
2.3648e-94
5.16924e-97
3.89306e-102
1.54159e-104
2.57273e-138
1.34149e-104
3.68823e-109
2.22207e-98
2.44041e-95
1.09323e-92
2.43954e-95
2.20211e-98
2.95916e-105
1.28837e-107
6.92756e-140
8.55798e-111
1.46518e-120
6.7578e-100
2.60021e-96
1.33828e-93
2.59929e-96
6.70033e-100
4.78437e-111
1.038e-112
1.45344e-141
9.54967e-118
5.00933e-121
7.81237e-108
2.83535e-97
1.66846e-94
2.83439e-97
2.0827e-105
4.99596e-121
2.96784e-118
1.98841e-143
2.99245e-118
1.69504e-121
1.48218e-108
3.1419e-98
2.1017e-95
3.14093e-98
1.45825e-108
1.68705e-121
9.11168e-119
1.30395e-145
9.18658e-119
5.60302e-122
2.87929e-109
3.51878e-99
2.65752e-96
3.51785e-99
2.83316e-109
5.56849e-122
2.73938e-119
3.17963e-148
2.76168e-119
1.80447e-122
5.50854e-110
3.96622e-100
3.35482e-97
3.96541e-100
5.42101e-110
1.79142e-122
8.06143e-120
4.00224e-149
8.12643e-120
5.65601e-123
1.03793e-110
4.48483e-101
4.20862e-98
4.48426e-101
1.02157e-110
5.61045e-123
2.3211e-120
4.95921e-150
2.33961e-120
1.72511e-123
1.92592e-111
5.07481e-102
5.22592e-99
5.07463e-102
1.89583e-111
1.71005e-123
6.536e-121
6.04052e-151
6.58754e-121
5.121e-124
3.5185e-112
5.7351e-103
6.40084e-100
5.73548e-103
3.46404e-112
5.07336e-124
1.79921e-121
7.22415e-152
1.81323e-121
1.48013e-124
6.32707e-113
6.46191e-104
7.70988e-101
6.46303e-104
6.23006e-113
1.46564e-124
4.83973e-122
8.47536e-153
4.87692e-122
4.16765e-125
1.11947e-113
7.24656e-105
9.10823e-102
7.24858e-105
1.10248e-113
4.12521e-125
1.27157e-122
9.7473e-154
1.28121e-122
1.14391e-125
1.94804e-114
8.07255e-106
1.05285e-102
8.0756e-106
1.91877e-114
1.13195e-125
3.26177e-123
1.09831e-154
3.28612e-123
3.06212e-126
3.3323e-115
8.91243e-107
1.18829e-103
8.91656e-107
3.28278e-115
3.02981e-126
8.16527e-124
1.21198e-155
8.22532e-124
8.00051e-127
5.60035e-116
9.72546e-108
1.30704e-104
9.73061e-108
5.51806e-116
7.91685e-127
1.99389e-124
1.3093e-156
2.00832e-124
2.02851e-127
9.24178e-117
1.04574e-108
1.39873e-105
1.04635e-108
9.10759e-117
2.00796e-127
4.7475e-125
1.38432e-157
4.78133e-125
4.94989e-128
1.49655e-117
1.10441e-109
1.45413e-106
1.10508e-109
1.47509e-117
4.90165e-128
1.10177e-125
1.43212e-158
1.1095e-125
1.16351e-128
2.3765e-118
1.14183e-110
1.46659e-107
1.14254e-110
2.34285e-118
1.15258e-128
2.49114e-126
1.44938e-159
2.50832e-126
2.63813e-129
3.69819e-119
1.1521e-111
1.43329e-108
1.15281e-111
3.64653e-119
2.61423e-129
5.48527e-127
1.43471e-160
5.52246e-127
5.77495e-130
5.63554e-120
1.13121e-112
1.35585e-109
1.13189e-112
5.55791e-120
5.72451e-130
1.1757e-127
1.38885e-161
1.18353e-127
1.2215e-130
8.40335e-121
1.07811e-113
1.24031e-110
1.07874e-113
8.28925e-121
1.21119e-130
2.45181e-128
1.31463e-162
2.46785e-128
2.49828e-131
1.2252e-121
9.95178e-115
1.09627e-111
9.95733e-115
1.20881e-121
2.47783e-131
4.97224e-129
1.21662e-163
5.00414e-129
4.94277e-132
1.74524e-122
8.88075e-116
9.35517e-113
8.88544e-116
1.72225e-122
4.90348e-132
9.80082e-130
1.10072e-164
9.86247e-130
9.46146e-133
2.42687e-123
7.64963e-117
7.70262e-114
7.65344e-117
2.39541e-123
9.38847e-133
1.87664e-130
9.73546e-166
1.88821e-130
1.75228e-133
3.29173e-124
6.35212e-118
6.11534e-115
6.35509e-118
3.24977e-124
1.73917e-133
3.48871e-131
8.4177e-167
3.50976e-131
3.13942e-134
4.35136e-125
5.07957e-119
4.67914e-116
5.08179e-119
4.29683e-125
3.11665e-134
6.29301e-132
7.11553e-168
6.33015e-132
5.43998e-135
5.60116e-126
3.90833e-120
3.44882e-117
3.90992e-120
5.53219e-126
5.40174e-135
1.10078e-132
5.88068e-169
1.10713e-132
9.11393e-136
7.01465e-127
2.89135e-121
2.44762e-118
2.89245e-121
6.92982e-127
9.05185e-136
1.86603e-133
4.75212e-170
1.87655e-133
1.47572e-136
8.53943e-128
2.05542e-122
1.67194e-119
2.05614e-122
8.43806e-128
1.46598e-136
3.06362e-134
3.75498e-171
3.08049e-134
2.30829e-137
1.00963e-128
1.40337e-123
1.09886e-120
1.40383e-123
9.97867e-129
2.29354e-137
4.86815e-135
2.90123e-172
4.8943e-135
3.48613e-138
1.15828e-129
9.19903e-125
6.94664e-122
9.20182e-125
1.14504e-129
3.46455e-138
7.48181e-136
2.19166e-173
7.521e-136
5.0807e-139
1.28822e-130
5.78706e-126
4.22265e-123
5.78868e-126
1.27379e-130
5.05022e-139
1.11137e-136
1.61844e-174
1.11704e-136
7.14118e-140
1.38772e-131
3.49299e-127
2.46753e-124
3.49389e-127
1.37248e-131
7.09971e-140
1.59443e-137
1.168e-175
1.60235e-137
9.67397e-141
1.44659e-132
2.02239e-128
1.38584e-125
2.02287e-128
1.43102e-132
9.61972e-141
2.20763e-138
8.23514e-177
2.21827e-138
1.26222e-141
1.45789e-133
1.12302e-129
7.47931e-127
1.12327e-129
1.44251e-133
1.2554e-141
2.94771e-139
5.67077e-178
2.96149e-139
1.58511e-142
1.41918e-134
5.98043e-131
3.87844e-128
5.98163e-131
1.40451e-134
1.57684e-142
3.79261e-140
3.8125e-179
3.80976e-140
1.91446e-143
1.33316e-135
3.05409e-132
1.9323e-129
3.05464e-132
1.31965e-135
1.90485e-143
4.69824e-141
2.50163e-180
4.71873e-141
2.22209e-144
1.2074e-136
1.49573e-133
9.24949e-131
1.49598e-133
1.19542e-136
2.21138e-144
5.59903e-142
1.60142e-181
5.62249e-142
2.47659e-145
1.05328e-137
7.02582e-135
4.25418e-132
7.02686e-135
1.04304e-137
2.46516e-145
6.41353e-143
9.99613e-183
6.43923e-143
2.64825e-146
8.84188e-139
3.16576e-136
1.88027e-133
3.16617e-136
8.75777e-139
2.6366e-146
7.05512e-144
6.08025e-184
7.08203e-144
2.71458e-147
7.13572e-140
1.36861e-137
7.98729e-135
1.36876e-137
7.0694e-140
2.70325e-147
7.44634e-145
3.60113e-185
7.4732e-145
2.66501e-148
5.53099e-141
5.67796e-139
3.26154e-136
5.67851e-139
5.48085e-141
2.65452e-148
7.53375e-146
2.07506e-186
7.55927e-146
2.50355e-149
4.11349e-142
2.26099e-140
1.28043e-137
2.26117e-140
4.07721e-142
2.49431e-149
7.29962e-147
1.16241e-187
7.32266e-147
2.2484e-150
2.93244e-143
8.6428e-142
4.83314e-139
8.64335e-142
2.90735e-143
2.24067e-150
6.76701e-148
6.32605e-189
6.78675e-148
1.92863e-151
2.00183e-144
3.1715e-143
1.75398e-140
3.17165e-143
1.98526e-144
1.9225e-151
5.99631e-149
3.34264e-190
6.01233e-149
1.57861e-152
1.30729e-145
1.11699e-144
6.11815e-142
1.11703e-144
1.29686e-145
1.57402e-152
5.07393e-150
1.71388e-191
5.08621e-150
1.23183e-153
8.15912e-147
3.77411e-146
2.05002e-143
3.77414e-146
8.09645e-147
1.22857e-153
4.096e-151
8.52192e-193
4.10489e-151
9.15527e-155
4.86216e-148
1.22245e-147
6.5918e-145
1.22243e-147
4.8263e-148
9.13338e-155
3.1515e-152
4.10687e-194
3.15756e-152
6.47502e-156
2.76397e-149
3.79247e-149
2.03146e-146
3.7923e-149
2.74443e-149
6.46115e-156
2.30892e-153
1.91738e-195
2.31281e-153
4.35383e-157
1.49754e-150
1.12629e-150
5.99272e-148
1.1262e-150
1.48739e-150
4.34556e-157
1.60929e-154
8.66971e-197
1.61163e-154
2.78092e-158
7.72685e-152
3.20292e-152
1.69074e-149
3.20247e-152
7.67671e-152
2.77627e-158
1.06612e-155
3.79509e-198
1.06744e-155
1.68589e-159
3.79378e-153
8.73595e-154
4.56083e-151
8.73408e-154
3.77016e-153
1.68344e-159
6.70741e-157
1.60654e-199
6.71428e-157
9.69291e-161
1.77125e-154
2.29281e-155
1.17654e-152
2.29206e-155
1.76065e-154
9.68088e-161
4.0043e-158
6.56209e-201
4.00758e-158
5.28122e-162
7.85865e-156
5.82035e-157
2.90346e-154
5.81748e-157
7.81338e-156
5.27583e-162
2.26668e-159
2.57814e-202
2.26805e-159
2.72496e-163
3.31159e-157
1.43924e-158
6.85398e-156
1.43819e-158
3.29324e-157
2.72283e-163
1.2157e-160
9.71387e-204
1.21615e-160
1.33055e-164
1.32474e-158
3.49871e-160
1.54656e-157
3.49501e-160
1.31772e-158
1.32987e-164
6.1734e-162
3.50549e-205
6.17406e-162
6.14388e-166
5.02852e-160
8.45383e-162
3.33157e-159
8.44152e-162
5.00324e-160
6.14263e-166
2.96601e-163
1.21314e-206
2.96543e-163
2.68093e-167
1.81037e-161
2.05326e-163
6.84304e-161
2.0494e-163
1.80186e-161
2.68128e-167
1.34722e-164
4.03694e-208
1.34651e-164
1.10465e-168
6.1787e-163
5.05278e-165
1.33939e-162
5.04141e-165
6.15194e-163
1.10519e-168
5.78055e-166
1.29341e-209
5.77543e-166
4.29452e-170
1.9979e-164
1.26081e-166
2.49894e-164
1.25767e-166
1.99002e-164
4.29819e-170
2.34095e-167
3.97842e-211
2.33802e-167
1.57408e-171
6.11655e-166
3.16579e-168
4.44762e-166
3.15766e-168
6.0948e-166
1.576e-171
8.94024e-169
1.16612e-212
8.92576e-169
5.43606e-173
1.77181e-167
7.8942e-170
7.55242e-168
7.87457e-170
1.76621e-167
5.44469e-173
3.21767e-170
3.22684e-214
3.21127e-170
1.76817e-174
4.85452e-169
1.92789e-171
1.22238e-169
1.92349e-171
4.84109e-169
1.77163e-174
1.09087e-171
8.36658e-216
1.08829e-171
5.4161e-176
1.25802e-170
4.55893e-173
1.88323e-171
4.54987e-173
1.25503e-170
5.4287e-176
3.48299e-173
2.02577e-217
3.47346e-173
1.56239e-177
3.08426e-172
1.03555e-174
2.75984e-173
1.03385e-174
3.07818e-172
1.5666e-177
1.04729e-174
4.58064e-219
1.04403e-174
4.24492e-179
7.15688e-174
2.24772e-176
3.84812e-175
2.24489e-176
7.14562e-174
4.2579e-179
2.96562e-176
9.67944e-221
2.9553e-176
1.08616e-180
1.57234e-175
4.64639e-178
5.10303e-177
4.64239e-178
1.57049e-175
1.08987e-180
7.90733e-178
1.91065e-222
7.87689e-178
2.61638e-182
3.27022e-177
9.12516e-180
6.42702e-179
9.12108e-180
3.26767e-177
2.62624e-182
1.98429e-179
3.5179e-224
1.97592e-179
5.9303e-184
6.43563e-179
1.69938e-181
7.67614e-181
1.69933e-181
6.43317e-179
5.95467e-184
4.68353e-181
6.0258e-226
4.66209e-181
1.26456e-185
1.198e-180
2.99765e-183
8.68739e-183
2.99884e-183
1.19802e-180
1.27017e-185
1.03943e-182
9.56182e-228
1.0343e-182
2.53752e-187
2.11016e-182
5.008e-185
9.31916e-185
5.01214e-185
2.11103e-182
2.5496e-187
2.16932e-184
1.39628e-229
2.15784e-184
4.79363e-189
3.51832e-184
7.92566e-187
9.50924e-187
7.93564e-187
3.52114e-184
4.81794e-189
4.25842e-186
1.85641e-231
4.23437e-186
8.5298e-191
5.55539e-186
1.1888e-188
9.40904e-189
1.19081e-188
5.56201e-186
8.57561e-191
7.86512e-188
2.2083e-233
7.81799e-188
1.43061e-192
8.31157e-188
1.69123e-190
9.78715e-191
1.69482e-190
8.32466e-188
1.43871e-192
1.36735e-189
2.28394e-235
1.35869e-189
2.26339e-194
1.17893e-189
2.28428e-192
1.32282e-192
2.29012e-192
1.18124e-189
2.27683e-194
2.23872e-191
1.96074e-237
2.22378e-191
3.38095e-196
1.5863e-191
2.93286e-194
2.68438e-194
2.94165e-194
1.59002e-191
3.40199e-196
3.45407e-193
1.30065e-239
3.42982e-193
4.77261e-198
2.02591e-193
3.58486e-196
6.49192e-196
3.59729e-196
2.0315e-193
4.80386e-198
5.02524e-195
6.0926e-242
4.98801e-195
6.36969e-200
2.45645e-195
4.1765e-198
1.42368e-197
4.19326e-198
2.46446e-195
6.414e-200
6.89589e-197
1.96882e-244
6.84155e-197
8.02314e-202
2.82419e-197
4.63372e-200
2.49858e-199
4.65538e-200
2.83515e-197
8.0831e-202
8.90825e-199
4.0461e-247
8.83292e-199
9.43831e-204
3.05385e-199
4.8554e-202
3.413e-201
4.8814e-202
3.06768e-199
9.51377e-204
1.072e-200
2.23778e-250
1.06232e-200
9.99493e-206
3.00816e-201
4.65542e-204
3.74976e-203
4.68252e-204
3.0231e-201
1.00782e-205
1.1584e-202
4.29824e-256
1.14749e-202
8.58078e-208
2.44452e-203
3.70185e-206
3.08592e-205
3.72453e-206
2.45733e-203
8.65394e-208
1.01272e-204
4.90732e-263
1.00295e-204
4.50765e-210
1.21865e-205
1.84814e-208
1.4426e-207
1.85984e-208
1.22526e-205
4.54666e-210
5.31845e-207
3.70546e-266
5.26631e-207
)
;

boundaryField
{
    BotWall
    {
        type            constantAlphaContactAngle;
        gradient        nonuniform List<scalar> 10(3997.88 2.51855 59.876 0.000681866 59.8759 2.5186 3997.88 4250.61 14.048 4250.61);
        limit           gradient;
        theta0          30;
        value           nonuniform List<scalar> 10(0.0282245 0.97476 0.0151498 0.988565 0.0151498 0.97476 0.0282245 0.0658225 0.996453 0.0658225);
    }
    FreeStream
    {
        type            inletOutlet;
        inletValue      uniform 0;
        value           uniform 0;
    }
    FrontNBack
    {
        type            empty;
    }
    LeftSide
    {
        type            cyclic;
    }
    RightSide
    {
        type            cyclic;
    }
}


// ************************************************************************* //
