/*--------------------------------*- C++ -*----------------------------------*\
| =========                 |                                                 |
| \\      /  F ield         | OpenFOAM: The Open Source CFD Toolbox           |
|  \\    /   O peration     | Version:  2.4.0                                 |
|   \\  /    A nd           | Web:      www.OpenFOAM.org                      |
|    \\/     M anipulation  |                                                 |
\*---------------------------------------------------------------------------*/
FoamFile
{
    version     2.0;
    format      ascii;
    class       volScalarField;
    location    "0.3";
    object      H;
}
// * * * * * * * * * * * * * * * * * * * * * * * * * * * * * * * * * * * * * //

dimensions      [0 2 -2 0 0 0 0];

internalField   nonuniform List<scalar> 
1000
(
-2266.91
-7796.3
-2129.74
-10174.2
-2129.74
-7796.31
-2266.91
-1303.28
-8617.16
-1303.28
-1879.35
-5616.19
-2233.15
-9783.74
-2233.15
-5616.21
-1879.37
-1182.79
-2721.98
-1182.79
-1796.85
-5115.34
-2062.3
-7088.62
-2062.29
-5115.39
-1796.89
-1029.03
-1968.66
-1029.03
-1709.85
-4670.76
-1965.53
-6643.54
-1965.52
-4670.84
-1709.9
-973.572
-1808.24
-973.569
-1620.52
-4273.14
-1860.44
-6216.01
-1860.43
-4273.25
-1620.58
-919.946
-1659.88
-919.943
-1530.54
-3915.35
-1751.44
-5807.26
-1751.43
-3915.49
-1530.61
-868.221
-1522.77
-868.217
-1441.21
-3591.76
-1641.8
-5418.08
-1641.78
-3591.92
-1441.29
-818.448
-1396.17
-818.444
-1353.51
-3297.82
-1533.85
-5048.84
-1533.84
-3298.01
-1353.6
-770.655
-1279.35
-770.65
-1268.16
-3029.86
-1429.25
-4699.61
-1429.23
-3030.07
-1268.26
-724.856
-1171.65
-724.85
-1185.71
-2784.84
-1329.08
-4370.2
-1329.06
-2785.07
-1185.81
-681.048
-1072.42
-681.043
-1106.52
-2560.25
-1234.01
-4060.23
-1234
-2560.49
-1106.63
-639.214
-981.069
-639.208
-1030.88
-2353.94
-1144.42
-3769.15
-1144.4
-2354.19
-1030.99
-599.322
-897.023
-599.316
-958.939
-2164.09
-1060.43
-3496.3
-1060.42
-2164.36
-959.047
-561.338
-819.752
-561.331
-890.776
-1989.15
-982.022
-3240.94
-982.01
-1989.43
-890.885
-525.222
-748.757
-525.215
-826.409
-1827.75
-909.051
-3002.29
-909.041
-1828.03
-826.518
-490.931
-683.569
-490.924
-765.808
-1678.7
-841.304
-2779.5
-841.295
-1678.98
-765.915
-458.418
-623.75
-458.412
-708.904
-1540.95
-778.518
-2571.75
-778.512
-1541.23
-709.009
-427.634
-568.888
-427.628
-655.603
-1413.6
-720.362
-2378.18
-720.358
-1413.88
-655.705
-398.525
-518.602
-398.518
-605.756
-1295.95
-666.452
-2197.98
-666.449
-1296.22
-605.855
-371.035
-472.535
-371.029
-559.17
-1187.36
-616.445
-2030.32
-616.444
-1187.62
-559.265
-345.108
-430.354
-345.102
-515.665
-1087.2
-570.039
-1874.44
-570.039
-1087.46
-515.756
-320.685
-391.751
-320.679
-475.072
-994.909
-526.958
-1729.57
-526.96
-995.153
-475.158
-297.705
-356.44
-297.7
-437.231
-909.922
-486.954
-1595
-486.957
-910.155
-437.312
-276.111
-324.155
-276.105
-401.99
-831.718
-449.803
-1470.07
-449.807
-831.938
-402.066
-255.841
-294.651
-255.836
-369.205
-759.803
-415.3
-1354.12
-415.305
-760.011
-369.276
-236.836
-267.701
-236.831
-338.737
-693.713
-383.258
-1246.55
-383.263
-693.908
-338.803
-219.038
-243.095
-219.033
-310.456
-633.013
-353.506
-1146.8
-353.511
-633.195
-310.517
-202.388
-220.638
-202.384
-284.234
-577.297
-325.886
-1054.35
-325.892
-577.465
-284.291
-186.83
-200.154
-186.826
-259.952
-526.185
-300.252
-968.698
-300.259
-526.34
-260.005
-172.307
-181.476
-172.304
-237.494
-479.324
-276.471
-889.381
-276.477
-479.466
-237.541
-158.766
-164.455
-158.763
-216.747
-436.383
-254.418
-815.97
-254.424
-436.513
-216.79
-146.154
-148.95
-146.151
-197.606
-397.058
-233.975
-748.065
-233.981
-397.176
-197.645
-134.419
-134.833
-134.417
-179.969
-361.063
-215.035
-685.289
-215.04
-361.17
-180.004
-123.513
-121.987
-123.51
-163.738
-328.137
-197.497
-627.293
-197.502
-328.233
-163.77
-113.386
-110.303
-113.384
-148.821
-298.035
-181.266
-573.749
-181.271
-298.121
-148.849
-103.993
-99.6809
-103.992
-135.127
-270.53
-166.254
-524.351
-166.258
-270.607
-135.153
-95.2908
-90.0303
-95.2893
-122.574
-245.413
-152.378
-478.813
-152.382
-245.482
-122.597
-87.2357
-81.2668
-87.2344
-111.079
-222.491
-139.561
-436.867
-139.564
-222.552
-111.099
-79.7878
-73.3134
-79.7866
-100.566
-201.584
-127.729
-398.26
-127.732
-201.638
-100.584
-72.9084
-66.0994
-72.9074
-90.9634
-182.527
-116.814
-362.757
-116.816
-182.575
-90.9791
-66.5608
-59.5597
-66.56
-82.2016
-165.167
-106.752
-330.138
-106.755
-165.209
-82.2153
-60.7101
-53.635
-60.7094
-74.2163
-149.363
-97.4842
-300.195
-97.4862
-149.4
-74.2284
-55.3228
-48.2704
-55.3223
-66.947
-134.984
-88.9529
-272.733
-88.9546
-135.017
-66.9575
-50.3674
-43.4161
-50.367
-60.3367
-121.911
-81.1057
-247.569
-81.1071
-121.939
-60.3458
-45.814
-39.0262
-45.8137
-54.332
-110.031
-73.8931
-224.533
-73.8943
-110.056
-54.34
-41.6343
-35.0586
-41.634
-48.8833
-99.2442
-67.2689
-203.464
-67.2699
-99.2655
-48.8902
-37.8014
-31.475
-37.8013
-43.9441
-89.4553
-61.1897
-184.213
-61.1905
-89.4738
-43.9501
-34.2903
-28.2401
-34.2902
-39.4713
-80.5782
-55.6149
-166.638
-55.6156
-80.5942
-39.4765
-31.077
-25.3219
-31.077
-35.4249
-72.5331
-50.5068
-150.609
-50.5073
-72.5469
-35.4293
-28.1394
-22.6911
-28.1394
-31.7676
-65.2471
-45.8298
-136.003
-45.8303
-65.2589
-31.7714
-25.4564
-20.3207
-25.4564
-28.4652
-58.6528
-41.5511
-122.706
-41.5514
-58.663
-28.4685
-23.0083
-18.1863
-23.0084
-25.486
-52.6886
-37.6398
-110.612
-37.6401
-52.6974
-25.4888
-20.7769
-16.2657
-20.777
-22.8007
-47.2981
-34.0673
-99.6224
-34.0675
-47.3056
-22.8031
-18.7449
-14.5385
-18.745
-20.3825
-42.4292
-30.8069
-89.645
-30.807
-42.4357
-20.3846
-16.8963
-12.9862
-16.8964
-18.2068
-38.0346
-27.8338
-80.5949
-27.8339
-38.0401
-18.2085
-15.2162
-11.5919
-15.2163
-16.2507
-34.0707
-25.1249
-72.3934
-25.125
-34.0754
-16.2522
-13.6906
-10.3404
-13.6908
-14.4937
-30.4978
-22.6589
-64.9677
-22.659
-30.5018
-14.4949
-12.3068
-9.21775
-12.3069
-12.9167
-27.2796
-20.4159
-58.2506
-20.4159
-27.283
-12.9177
-11.0527
-8.21132
-11.0528
-11.5025
-24.3828
-18.3775
-52.1798
-18.3775
-24.3856
-11.5033
-9.91717
-7.30964
-9.91734
-10.2351
-21.7772
-16.5266
-46.6982
-16.5266
-21.7796
-10.2358
-8.89008
-6.50233
-8.89025
-9.10032
-19.4351
-14.8476
-41.7531
-14.8475
-19.4371
-9.1009
-7.96191
-5.77996
-7.96207
-8.08497
-17.3313
-13.3257
-37.2961
-13.3256
-17.3331
-8.08545
-7.1239
-5.13403
-7.12407
-7.17718
-15.4431
-11.9475
-33.2828
-11.9475
-15.4445
-7.17757
-6.36801
-4.5568
-6.36817
-6.36616
-13.7494
-10.7007
-29.6722
-10.7006
-13.7506
-6.36647
-5.68683
-4.04131
-5.68698
-5.64211
-12.2313
-9.57366
-26.4271
-9.5736
-12.2323
-5.64236
-5.07353
-3.58125
-5.07368
-4.99618
-10.8716
-8.55591
-23.5132
-8.55585
-10.8724
-4.99638
-4.52186
-3.17093
-4.522
-4.42035
-9.65462
-7.63771
-20.899
-7.63765
-9.65531
-4.4205
-4.02609
-2.80521
-4.02622
-3.90739
-8.56622
-6.81011
-18.5561
-6.81004
-8.56678
-3.9075
-3.58095
-2.47947
-3.58108
-3.45074
-7.59349
-6.06489
-16.4582
-6.06482
-7.59395
-3.45083
-3.18165
-2.18952
-3.18177
-3.04452
-6.72479
-5.39449
-14.5815
-5.39443
-6.72517
-3.04458
-2.82378
-1.93161
-2.8239
-2.68341
-5.94957
-4.79201
-12.9043
-4.79195
-5.94987
-2.68345
-2.50335
-1.70235
-2.50346
-2.36263
-5.25827
-4.2511
-11.4068
-4.25104
-5.25851
-2.36265
-2.21669
-1.4987
-2.21679
-2.07787
-4.64228
-3.76595
-10.0711
-3.7659
-4.64247
-2.07788
-1.96048
-1.31793
-1.96058
-1.82527
-4.09381
-3.33126
-8.88079
-3.3312
-4.09395
-1.82527
-1.73169
-1.15758
-1.73178
-1.60135
-3.60582
-2.94217
-7.82106
-2.94212
-3.60593
-1.60134
-1.52757
-1.01543
-1.52766
-1.40299
-3.17197
-2.59426
-6.8785
-2.59421
-3.17205
-1.40298
-1.34563
-0.889526
-1.34571
-1.22742
-2.78654
-2.2835
-6.04095
-2.28345
-2.7866
-1.2274
-1.1836
-0.778083
-1.18367
-1.07211
-2.4444
-2.00621
-5.29741
-2.00616
-2.44444
-1.07209
-1.03943
-0.679515
-1.0395
-0.934845
-2.14091
-1.75905
-4.63794
-1.75901
-2.14094
-0.934821
-0.91127
-0.592401
-0.911331
-0.813609
-1.87191
-1.53898
-4.05357
-1.53895
-1.87193
-0.813584
-0.797443
-0.515472
-0.797499
-0.706616
-1.63367
-1.34326
-3.53622
-1.34323
-1.63367
-0.706591
-0.696437
-0.44759
-0.696488
-0.612269
-1.42282
-1.16938
-3.07861
-1.16935
-1.42281
-0.612244
-0.606888
-0.387741
-0.606934
-0.529141
-1.23635
-1.01509
-2.67419
-1.01506
-1.23634
-0.529116
-0.527567
-0.335021
-0.527609
-0.455961
-1.07157
-0.878329
-2.31707
-0.878305
-1.07155
-0.455938
-0.457368
-0.28862
-0.457405
-0.391597
-0.926054
-0.757266
-2.00197
-0.757245
-0.926038
-0.391576
-0.395296
-0.247821
-0.39533
-0.335041
-0.79765
-0.650231
-1.72416
-0.650211
-0.797633
-0.335021
-0.34046
-0.211981
-0.34049
-0.285396
-0.68442
-0.555723
-1.47939
-0.555705
-0.684403
-0.285378
-0.292057
-0.180531
-0.292084
-0.241865
-0.584637
-0.472393
-1.26387
-0.472378
-0.58462
-0.241848
-0.24937
-0.152965
-0.249393
-0.203739
-0.496759
-0.399029
-1.07421
-0.399015
-0.496743
-0.203724
-0.211755
-0.12883
-0.211775
-0.170392
-0.41941
-0.334542
-0.907389
-0.334531
-0.419394
-0.170379
-0.178636
-0.107729
-0.178653
-0.141265
-0.351362
-0.27796
-0.760694
-0.27795
-0.351348
-0.141254
-0.149499
-0.0893056
-0.149514
-0.115866
-0.291522
-0.22841
-0.631722
-0.228402
-0.291509
-0.115857
-0.123883
-0.0732464
-0.123896
-0.0937589
-0.238915
-0.185115
-0.518328
-0.185108
-0.238904
-0.0937508
-0.101378
-0.0592731
-0.101388
-0.0745569
-0.192672
-0.14738
-0.418602
-0.147374
-0.192662
-0.0745502
-0.0816159
-0.0471398
-0.0816247
-0.0579195
-0.152019
-0.114588
-0.330841
-0.114583
-0.152011
-0.0579142
-0.0642699
-0.0366289
-0.064277
-0.0435464
-0.116266
-0.0861904
-0.25353
-0.086187
-0.11626
-0.0435423
-0.0490471
-0.0275488
-0.0490525
-0.0311728
-0.0847962
-0.061702
-0.185317
-0.0616995
-0.0847915
-0.0311698
-0.0356856
-0.0197304
-0.0356896
-0.0205661
-0.0570588
-0.0406931
-0.124996
-0.0406914
-0.0570555
-0.0205641
-0.0239516
-0.013025
-0.0239543
-0.0115221
-0.0325601
-0.0227851
-0.0714877
-0.0227841
-0.0325581
-0.011521
-0.0136355
-0.00730182
-0.013637
-0.00386231
-0.0108569
-0.00764579
-0.0238236
-0.00764547
-0.0108562
-0.00386193
-0.00454907
-0.00244642
-0.00454959
)
;

boundaryField
{
    BotWall
    {
        type            zeroGradient;
    }
    FreeStream
    {
        type            zeroGradient;
    }
    FrontNBack
    {
        type            empty;
    }
    LeftSide
    {
        type            cyclic;
    }
    RightSide
    {
        type            cyclic;
    }
}


// ************************************************************************* //
