/*--------------------------------*- C++ -*----------------------------------*\
| =========                 |                                                 |
| \\      /  F ield         | OpenFOAM: The Open Source CFD Toolbox           |
|  \\    /   O peration     | Version:  2.4.0                                 |
|   \\  /    A nd           | Web:      www.OpenFOAM.org                      |
|    \\/     M anipulation  |                                                 |
\*---------------------------------------------------------------------------*/
FoamFile
{
    version     2.0;
    format      ascii;
    class       volScalarField;
    location    "0.3";
    object      p;
}
// * * * * * * * * * * * * * * * * * * * * * * * * * * * * * * * * * * * * * //

dimensions      [1 -1 -2 0 0 0 0];

internalField   nonuniform List<scalar> 
1000
(
1.1499
93.7957
0.792928
1.05294
0.79293
93.7957
1.1499
0.331356
1.99475
0.331356
-0.00128418
-0.019101
0.0224721
0.0362205
0.0224723
-0.0191009
-0.00128415
0.547448
1.36562
0.547448
-0.00115251
0.0107828
-0.00561695
0.000428418
-0.00561663
0.0107828
-0.00115247
0.00198271
-0.0289149
0.00198276
-0.00383458
0.00577545
-0.0080108
0.00223642
-0.00801049
0.00577546
-0.00383452
0.000163096
0.00391439
0.000163154
-0.00516416
0.00216841
-0.00957299
0.00152121
-0.00957269
0.00216842
-0.00516409
-0.00125483
-0.00127998
-0.00125477
-0.00579291
0.000854916
-0.0102475
0.000677368
-0.0102472
0.00085493
-0.00579284
-0.00201208
-0.00495085
-0.00201201
-0.00634987
0.000205987
-0.0107379
-4.44372e-06
-0.0107377
0.000206002
-0.00634978
-0.00260005
-0.0061463
-0.00259998
-0.00696682
-0.000477717
-0.0112704
-0.000630061
-0.0112701
-0.000477701
-0.00696672
-0.00320993
-0.00664108
-0.00320985
-0.00761757
-0.00123618
-0.0118413
-0.00126911
-0.011841
-0.00123616
-0.00761746
-0.00385
-0.00719171
-0.00384991
-0.00827767
-0.00200911
-0.0124249
-0.00193022
-0.0124247
-0.0020091
-0.00827755
-0.00450294
-0.00783849
-0.00450285
-0.00894236
-0.00277312
-0.0130129
-0.00260693
-0.0130127
-0.00277311
-0.00894222
-0.00516139
-0.00851428
-0.00516129
-0.00961294
-0.00352839
-0.013605
-0.00329489
-0.0136048
-0.00352837
-0.00961279
-0.00582437
-0.0091924
-0.00582426
-0.01029
-0.00427858
-0.014202
-0.00399243
-0.0142017
-0.00427856
-0.0102898
-0.00649247
-0.00987161
-0.00649236
-0.0109733
-0.00502561
-0.014804
-0.00469874
-0.0148038
-0.00502559
-0.0109731
-0.00716604
-0.0105545
-0.00716592
-0.0116626
-0.00577013
-0.0154115
-0.00541315
-0.0154113
-0.00577011
-0.0116624
-0.00784515
-0.011242
-0.00784501
-0.0123579
-0.00651277
-0.0160246
-0.00613505
-0.0160244
-0.00651275
-0.0123577
-0.00852979
-0.0119342
-0.00852964
-0.0130592
-0.0072565
-0.0166409
-0.00686395
-0.0166408
-0.00725647
-0.013059
-0.00921999
-0.0126311
-0.00921983
-0.0137649
-0.00800525
-0.0172586
-0.00759949
-0.0172585
-0.00800521
-0.0137647
-0.00991579
-0.0133326
-0.00991562
-0.0144738
-0.00875881
-0.0178796
-0.00834138
-0.0178795
-0.00875877
-0.0144735
-0.0106172
-0.0140388
-0.010617
-0.0151871
-0.00951588
-0.0185045
-0.00908944
-0.0185044
-0.00951584
-0.0151869
-0.0113243
-0.0147497
-0.0113241
-0.0159052
-0.0102767
-0.0191335
-0.00984351
-0.0191334
-0.0102767
-0.0159049
-0.012037
-0.0154652
-0.0120368
-0.0166278
-0.0110418
-0.0197669
-0.0106035
-0.0197667
-0.0110417
-0.0166275
-0.0127555
-0.0161855
-0.0127552
-0.0173549
-0.0118113
-0.0204048
-0.0113692
-0.0204047
-0.0118113
-0.0173546
-0.0134796
-0.0169106
-0.0134794
-0.0180864
-0.0125855
-0.0210476
-0.0121408
-0.0210475
-0.0125854
-0.0180861
-0.0142096
-0.0176405
-0.0142093
-0.0188224
-0.0133644
-0.0216956
-0.012918
-0.0216955
-0.0133644
-0.018822
-0.0149452
-0.0183752
-0.0149449
-0.0195629
-0.0141482
-0.022349
-0.013701
-0.0223488
-0.0141481
-0.0195625
-0.0156867
-0.0191147
-0.0156864
-0.0203079
-0.0149369
-0.0230078
-0.0144896
-0.0230077
-0.0149368
-0.0203075
-0.016434
-0.0198591
-0.0164337
-0.0210575
-0.0157306
-0.0236725
-0.015284
-0.0236723
-0.0157305
-0.0210571
-0.0171871
-0.0206084
-0.0171867
-0.0218118
-0.0165293
-0.0243429
-0.016084
-0.0243428
-0.0165293
-0.0218113
-0.0179461
-0.0213626
-0.0179457
-0.0225708
-0.0173333
-0.0250194
-0.0168897
-0.0250193
-0.0173332
-0.0225703
-0.0187109
-0.0221218
-0.0187104
-0.0233345
-0.0181423
-0.025702
-0.0177011
-0.0257019
-0.0181423
-0.0233339
-0.0194816
-0.0228859
-0.0194811
-0.0241025
-0.0189567
-0.0263909
-0.0185182
-0.0263908
-0.0189566
-0.0241019
-0.0202585
-0.0236551
-0.0202581
-0.0248748
-0.0197763
-0.027086
-0.0193411
-0.0270859
-0.0197762
-0.0248744
-0.0210419
-0.0244292
-0.0210415
-0.0256516
-0.0206013
-0.0277876
-0.0201696
-0.0277875
-0.0206012
-0.0256511
-0.0218317
-0.0252085
-0.0218313
-0.0264331
-0.0214317
-0.0284956
-0.0210039
-0.0284955
-0.0214316
-0.0264327
-0.0226275
-0.0259928
-0.0226272
-0.0272195
-0.0222675
-0.0292102
-0.0218439
-0.0292101
-0.0222675
-0.0272191
-0.0234295
-0.0267822
-0.0234292
-0.0280107
-0.0231089
-0.0299314
-0.0226897
-0.0299313
-0.0231088
-0.0280104
-0.0242376
-0.0275769
-0.0242373
-0.0288069
-0.0239557
-0.0306593
-0.0235412
-0.0306592
-0.0239556
-0.0288065
-0.025052
-0.0283767
-0.0250517
-0.0296079
-0.0248081
-0.0313939
-0.0243985
-0.0313938
-0.024808
-0.0296076
-0.0258726
-0.0291817
-0.0258724
-0.0304139
-0.0256661
-0.0321352
-0.0252616
-0.0321351
-0.025666
-0.0304136
-0.0266995
-0.029992
-0.0266993
-0.0312249
-0.0265298
-0.0328834
-0.0261306
-0.0328833
-0.0265297
-0.0312246
-0.0275328
-0.0308076
-0.0275325
-0.0320409
-0.0273992
-0.0336384
-0.0270053
-0.0336383
-0.0273991
-0.0320407
-0.0283724
-0.0316285
-0.0283722
-0.0328621
-0.0282743
-0.0344003
-0.027886
-0.0344002
-0.0282742
-0.0328618
-0.0292184
-0.0324548
-0.0292182
-0.0336884
-0.0291552
-0.035169
-0.0287725
-0.0351689
-0.0291551
-0.0336882
-0.0300708
-0.0332865
-0.0300706
-0.0345199
-0.0300419
-0.0359447
-0.029665
-0.0359446
-0.0300418
-0.0345197
-0.0309297
-0.0341236
-0.0309295
-0.0353567
-0.0309344
-0.0367273
-0.0305634
-0.0367272
-0.0309344
-0.0353565
-0.0317951
-0.0349662
-0.031795
-0.0361988
-0.0318329
-0.037517
-0.0314678
-0.0375169
-0.0318328
-0.0361986
-0.032667
-0.0358143
-0.0326669
-0.0370462
-0.0327373
-0.0383136
-0.0323783
-0.0383135
-0.0327373
-0.037046
-0.0335455
-0.036668
-0.0335454
-0.037899
-0.0336478
-0.0391172
-0.0332948
-0.0391171
-0.0336477
-0.0378988
-0.0344306
-0.0375273
-0.0344305
-0.0387573
-0.0345642
-0.0399279
-0.0342174
-0.0399278
-0.0345641
-0.0387571
-0.0353224
-0.0383922
-0.0353223
-0.0396211
-0.0354868
-0.0407456
-0.0351462
-0.0407455
-0.0354867
-0.039621
-0.0362208
-0.0392627
-0.0362207
-0.0404905
-0.0364154
-0.0415704
-0.0360812
-0.0415703
-0.0364154
-0.0404904
-0.0371259
-0.040139
-0.0371259
-0.0413655
-0.0373503
-0.0424023
-0.0370223
-0.0424022
-0.0373502
-0.0413654
-0.0380378
-0.041021
-0.0380378
-0.0422462
-0.0382913
-0.0432413
-0.0379698
-0.0432412
-0.0382913
-0.0422461
-0.0389565
-0.0419088
-0.0389565
-0.0431327
-0.0392387
-0.0440875
-0.0389235
-0.0440874
-0.0392386
-0.0431325
-0.039882
-0.0428025
-0.039882
-0.0440249
-0.0401923
-0.0449408
-0.0398836
-0.0449407
-0.0401922
-0.0440248
-0.0408144
-0.043702
-0.0408143
-0.044923
-0.0411523
-0.0458013
-0.0408501
-0.0458012
-0.0411522
-0.0449229
-0.0417537
-0.0446075
-0.0417536
-0.0458269
-0.0421187
-0.0466689
-0.0418231
-0.0466689
-0.0421187
-0.0458268
-0.0426999
-0.0455189
-0.0426998
-0.0467369
-0.0430916
-0.0475438
-0.0428025
-0.0475437
-0.0430916
-0.0467368
-0.0436531
-0.0464363
-0.043653
-0.0476529
-0.044071
-0.0484259
-0.0437884
-0.0484259
-0.044071
-0.0476528
-0.0446133
-0.0473598
-0.0446132
-0.0485749
-0.045057
-0.0493153
-0.0447809
-0.0493152
-0.0450569
-0.0485748
-0.0455805
-0.0482894
-0.0455805
-0.0495031
-0.0460496
-0.050212
-0.0457801
-0.0502119
-0.0460495
-0.049503
-0.0465549
-0.0492252
-0.0465549
-0.0504375
-0.0470488
-0.0511159
-0.0467859
-0.0511158
-0.0470488
-0.0504374
-0.0475364
-0.0501671
-0.0475364
-0.0513781
-0.0480548
-0.0520272
-0.0477984
-0.0520271
-0.0480548
-0.051378
-0.0485251
-0.0511153
-0.0485251
-0.052325
-0.0490676
-0.0529458
-0.0488177
-0.0529457
-0.0490675
-0.052325
-0.049521
-0.0520698
-0.049521
-0.0532783
-0.0500871
-0.0538718
-0.0498438
-0.0538717
-0.0500871
-0.0532783
-0.0505242
-0.0530306
-0.0505242
-0.0542381
-0.0511136
-0.0548051
-0.0508768
-0.0548051
-0.0511136
-0.054238
-0.0515347
-0.0539978
-0.0515347
-0.0552043
-0.052147
-0.0557459
-0.0519168
-0.0557459
-0.052147
-0.0552042
-0.0525526
-0.0549715
-0.0525526
-0.056177
-0.0531874
-0.0566942
-0.0529636
-0.0566941
-0.0531873
-0.056177
-0.0535778
-0.0559516
-0.0535778
-0.0571564
-0.0542348
-0.0576499
-0.0540176
-0.0576498
-0.0542348
-0.0571563
-0.0546105
-0.0569383
-0.0546105
-0.0581424
-0.0552894
-0.0586131
-0.0550786
-0.058613
-0.0552893
-0.0581423
-0.0556507
-0.0579316
-0.0556507
-0.0591351
-0.0563511
-0.0595838
-0.0561467
-0.0595838
-0.056351
-0.0591351
-0.0566984
-0.0589316
-0.0566983
-0.0601346
-0.05742
-0.0605621
-0.057222
-0.0605621
-0.0574199
-0.0601346
-0.0577536
-0.0599382
-0.0577536
-0.0611409
-0.0584962
-0.061548
-0.0583046
-0.0615479
-0.0584961
-0.0611409
-0.0588165
-0.0609517
-0.0588165
-0.0621542
-0.0595797
-0.0625415
-0.0593944
-0.0625414
-0.0595797
-0.0621541
-0.0598871
-0.0619719
-0.0598871
-0.0631743
-0.0606706
-0.0635426
-0.0604916
-0.0635426
-0.0606706
-0.0631743
-0.0609653
-0.062999
-0.0609653
-0.0642015
-0.061769
-0.0645514
-0.0615962
-0.0645514
-0.0617689
-0.0642015
-0.0620514
-0.064033
-0.0620514
-0.0652357
-0.0628748
-0.0655679
-0.0627083
-0.0655679
-0.0628748
-0.0652357
-0.0631452
-0.065074
-0.0631452
-0.0662771
-0.0639883
-0.0665922
-0.0638279
-0.0665921
-0.0639882
-0.0662771
-0.0642469
-0.066122
-0.0642469
-0.0673256
-0.0651093
-0.0676242
-0.0649551
-0.0676242
-0.0651093
-0.0673256
-0.0653565
-0.0671772
-0.0653565
-0.0683814
-0.0662381
-0.068664
-0.06609
-0.068664
-0.066238
-0.0683814
-0.066474
-0.0682395
-0.066474
-0.0694445
-0.0673746
-0.0697117
-0.0672325
-0.0697117
-0.0673745
-0.0694445
-0.0675996
-0.0693089
-0.0675996
-0.0705149
-0.0685189
-0.0707672
-0.0683828
-0.0707672
-0.0685188
-0.0705149
-0.0687332
-0.0703857
-0.0687332
-0.0715928
-0.069671
-0.0718307
-0.0695409
-0.0718307
-0.069671
-0.0715928
-0.0698749
-0.0714698
-0.0698749
-0.0726782
-0.0708311
-0.0729021
-0.0707069
-0.0729021
-0.0708311
-0.0726781
-0.0710247
-0.0725613
-0.0710247
-0.073771
-0.0719992
-0.0739815
-0.0718809
-0.0739815
-0.0719992
-0.073771
-0.0721828
-0.0736602
-0.0721828
-0.0748715
-0.0731754
-0.0750689
-0.0730629
-0.0750689
-0.0731754
-0.0748715
-0.0733491
-0.0747667
-0.0733491
-0.0759797
-0.0743597
-0.0761644
-0.0742529
-0.0761643
-0.0743597
-0.0759797
-0.0745237
-0.0758807
-0.0745237
-0.0770955
-0.0755521
-0.0772679
-0.0754511
-0.0772679
-0.0755521
-0.0770955
-0.0757067
-0.0770024
-0.0757067
-0.0782192
-0.0767528
-0.0783796
-0.0766574
-0.0783796
-0.0767528
-0.0782192
-0.076898
-0.0781318
-0.076898
-0.0793506
-0.0779619
-0.0794995
-0.0778721
-0.0794994
-0.0779618
-0.0793506
-0.0780979
-0.0792689
-0.0780979
-0.08049
-0.0791793
-0.0806275
-0.079095
-0.0806275
-0.0791793
-0.08049
-0.0793063
-0.0804139
-0.0793063
-0.0816374
-0.0804051
-0.0817638
-0.0803264
-0.0817638
-0.0804051
-0.0816374
-0.0805232
-0.0815667
-0.0805232
-0.0827928
-0.0816394
-0.0829084
-0.0815662
-0.0829084
-0.0816395
-0.0827928
-0.0817488
-0.0827276
-0.0817487
-0.0839562
-0.0828824
-0.0840613
-0.0828145
-0.0840613
-0.0828824
-0.0839562
-0.082983
-0.0838964
-0.082983
-0.0851278
-0.0841339
-0.0852226
-0.0840714
-0.0852226
-0.084134
-0.0851278
-0.084226
-0.0850733
-0.084226
-0.0863077
-0.0853942
-0.086392
-0.0853372
-0.086392
-0.0853942
-0.0863078
-0.0854777
-0.0862587
-0.0854777
-0.0874961
-0.0866633
-0.087569
-0.0866124
-0.087569
-0.0866633
-0.0874961
-0.0867381
-0.087453
-0.0867381
-0.0886927
-0.0879413
-0.0887551
-0.0878957
-0.0887551
-0.0879413
-0.0886927
-0.0880076
-0.0886551
-0.0880076
-0.0898957
-0.0892279
-0.0899578
-0.0891806
-0.0899578
-0.0892279
-0.0898957
-0.0892878
-0.0898583
-0.0892878
)
;

boundaryField
{
    BotWall
    {
        type            calculated;
        value           nonuniform List<scalar> 10(1.15047 93.8139 0.793513 1.07144 0.793515 93.8139 1.15047 0.332606 2.0134 0.332607);
    }
    FreeStream
    {
        type            calculated;
        value           nonuniform List<scalar> 10(-0.0904978 -0.089873 -0.0905682 -0.0898195 -0.0905682 -0.0898731 -0.0904979 -0.0899313 -0.0904562 -0.0899313);
    }
    FrontNBack
    {
        type            empty;
    }
    LeftSide
    {
        type            cyclic;
    }
    RightSide
    {
        type            cyclic;
    }
}


// ************************************************************************* //
