/*--------------------------------*- C++ -*----------------------------------*\
| =========                 |                                                 |
| \\      /  F ield         | OpenFOAM: The Open Source CFD Toolbox           |
|  \\    /   O peration     | Version:  2.4.0                                 |
|   \\  /    A nd           | Web:      www.OpenFOAM.org                      |
|    \\/     M anipulation  |                                                 |
\*---------------------------------------------------------------------------*/
FoamFile
{
    version     2.0;
    format      ascii;
    class       volScalarField;
    location    "0.3";
    object      p_rgh;
}
// * * * * * * * * * * * * * * * * * * * * * * * * * * * * * * * * * * * * * //

dimensions      [1 -1 -2 0 0 0 0];

internalField   nonuniform List<scalar> 
1000
(
1.15047
93.8139
0.793513
1.07144
0.793515
93.8139
1.15047
0.332606
2.0134
0.332607
-0.000352168
-0.0181689
0.0235286
0.0456521
0.0235289
-0.0181688
-0.000352133
0.5487
1.42091
0.5487
0.000405939
0.0123412
-0.0040585
0.00198687
-0.00405818
0.0123412
0.000405987
0.00354116
-0.0273565
0.00354122
-0.00164528
0.00796475
-0.00582151
0.00442571
-0.0058212
0.00796475
-0.00164523
0.00235239
0.00610368
0.00235245
-0.00233959
0.00499298
-0.00674843
0.00434577
-0.00674813
0.00499299
-0.00233952
0.00156974
0.00154459
0.0015698
-0.00232861
0.00431922
-0.00678323
0.00414167
-0.00678294
0.00431923
-0.00232853
0.00145222
-0.00148655
0.00145229
-0.00224133
0.00431452
-0.00662941
0.00410409
-0.00662913
0.00431453
-0.00224125
0.00150848
-0.00203777
0.00150855
-0.00220953
0.00427957
-0.00651308
0.00412723
-0.00651281
0.00427959
-0.00220943
0.00154736
-0.00188379
0.00154744
-0.00220697
0.00417443
-0.00643069
0.0041415
-0.00643043
0.00417444
-0.00220686
0.00156061
-0.00178111
0.0015607
-0.00220916
0.0040594
-0.0063564
0.00413829
-0.00635615
0.00405942
-0.00220904
0.00156557
-0.00176998
0.00156567
-0.00221132
0.00395792
-0.00628186
0.00412411
-0.00628163
0.00395793
-0.00221118
0.00156965
-0.00178324
0.00156975
-0.00221471
0.00386983
-0.00620681
0.00410333
-0.00620659
0.00386985
-0.00221457
0.00157385
-0.00179418
0.00157396
-0.00221987
0.00379152
-0.00613186
0.00407766
-0.00613165
0.00379154
-0.00221971
0.00157762
-0.00180151
0.00157774
-0.00222657
0.00372108
-0.00605729
0.00404794
-0.00605709
0.0037211
-0.00222639
0.00158064
-0.00180778
0.00158077
-0.00223454
0.0036579
-0.00598345
0.00401488
-0.00598326
0.00365792
-0.00223436
0.00158288
-0.00181396
0.00158302
-0.00224378
0.00360139
-0.0059104
0.00397911
-0.00591021
0.00360141
-0.00224358
0.00158437
-0.00182006
0.00158452
-0.00225413
0.00354861
-0.00583583
0.00394116
-0.00583566
0.00354864
-0.00225391
0.00158513
-0.00182598
0.00158529
-0.002264
0.00349568
-0.00575772
0.00390144
-0.00575756
0.00349571
-0.00226377
0.00158514
-0.00183169
0.00158531
-0.00227215
0.00344282
-0.00567802
0.00386024
-0.00567787
0.00344285
-0.0022719
0.00158441
-0.00183717
0.0015846
-0.00227989
0.00339136
-0.00559731
0.0038178
-0.00559716
0.0033914
-0.00227962
0.00158296
-0.00184241
0.00158316
-0.00228738
0.0033411
-0.00551573
0.00377431
-0.00551559
0.00334115
-0.0022871
0.00158079
-0.00184741
0.00158101
-0.00229443
0.00329162
-0.00543348
0.00372992
-0.00543335
0.00329167
-0.00229412
0.00157792
-0.00185216
0.00157815
-0.0023009
0.00324267
-0.00535082
0.00368475
-0.0053507
0.00324273
-0.00230058
0.00157435
-0.00185664
0.0015746
-0.00230676
0.00319415
-0.005268
0.00363887
-0.00526788
0.00319421
-0.00230641
0.0015701
-0.00186086
0.00157037
-0.00231199
0.00314599
-0.00518521
0.00359238
-0.0051851
0.00314605
-0.00231162
0.00156517
-0.00186479
0.00156547
-0.00231659
0.00309811
-0.00510266
0.00354532
-0.00510254
0.00309818
-0.0023162
0.00155959
-0.00186842
0.00155991
-0.00232056
0.00305048
-0.00502048
0.00349774
-0.00502037
0.00305055
-0.00232014
0.00155337
-0.00187176
0.00155371
-0.00232391
0.00300306
-0.00493882
0.00344968
-0.00493871
0.00300313
-0.00232345
0.00154651
-0.00187478
0.00154689
-0.00232666
0.0029558
-0.00485779
0.00340118
-0.00485768
0.00295588
-0.00232617
0.00153908
-0.00187747
0.00153948
-0.00232884
0.00290869
-0.00477748
0.00335226
-0.00477738
0.00290877
-0.00232832
0.00153109
-0.00187984
0.00153153
-0.0023304
0.00286171
-0.00469798
0.00330295
-0.00469787
0.00286179
-0.00232983
0.00152249
-0.00188186
0.00152297
-0.00233094
0.00281483
-0.00461935
0.00325329
-0.00461924
0.00281492
-0.00233041
0.00151298
-0.00188353
0.00151342
-0.00233047
0.00276804
-0.00454164
0.00320332
-0.00454154
0.00276813
-0.00232998
0.00150252
-0.00188484
0.00150291
-0.00232892
0.00272134
-0.00446491
0.00315305
-0.00446481
0.00272143
-0.00232846
0.00149101
-0.00188579
0.00149138
-0.00232668
0.00267471
-0.0043892
0.00310252
-0.00438909
0.0026748
-0.00232625
0.00147889
-0.00188636
0.00147923
-0.0023238
0.00262814
-0.00431453
0.00305176
-0.00431442
0.00262823
-0.0023234
0.00146619
-0.00188655
0.0014665
-0.00232023
0.00258164
-0.00424092
0.00300081
-0.00424082
0.00258173
-0.00231986
0.00145287
-0.00188635
0.00145316
-0.00231596
0.00253519
-0.00416841
0.00294967
-0.0041683
0.00253528
-0.0023156
0.00143891
-0.00188577
0.00143918
-0.00231098
0.0024888
-0.00409698
0.00289838
-0.00409687
0.00248889
-0.00231064
0.00142431
-0.00188479
0.00142456
-0.00230529
0.00244246
-0.00402665
0.00284696
-0.00402655
0.00244255
-0.00230498
0.00140908
-0.0018834
0.0014093
-0.00229891
0.00239616
-0.00395743
0.00279542
-0.00395732
0.00239625
-0.00229862
0.00139322
-0.00188161
0.00139343
-0.00229184
0.00234992
-0.00388929
0.00274378
-0.00388919
0.00235001
-0.00229156
0.00137674
-0.00187941
0.00137693
-0.00228409
0.00230372
-0.00382225
0.00269205
-0.00382214
0.00230381
-0.00228383
0.00135965
-0.00187679
0.00135982
-0.00227567
0.00225757
-0.00375628
0.00264025
-0.00375617
0.00225765
-0.00227542
0.00134195
-0.00187375
0.00134211
-0.00226658
0.00221146
-0.00369137
0.00258838
-0.00369126
0.00221155
-0.00226635
0.00132365
-0.00187028
0.0013238
-0.00225684
0.0021654
-0.0036275
0.00253645
-0.0036274
0.00216548
-0.00225662
0.00130476
-0.00186638
0.00130489
-0.00224645
0.00211937
-0.00356467
0.00248448
-0.00356457
0.00211945
-0.00224625
0.00128528
-0.00186204
0.0012854
-0.00223544
0.00207339
-0.00350284
0.00243246
-0.00350274
0.00207347
-0.00223525
0.00126521
-0.00185727
0.00126532
-0.0022238
0.00202745
-0.003442
0.00238041
-0.0034419
0.00202752
-0.00222362
0.00124458
-0.00185206
0.00124468
-0.00221155
0.00198154
-0.00338212
0.00232833
-0.00338202
0.00198161
-0.00221138
0.00122338
-0.00184641
0.00122347
-0.0021987
0.00193566
-0.00332318
0.00227622
-0.00332309
0.00193574
-0.00219855
0.00120161
-0.0018403
0.00120169
-0.00218527
0.00188982
-0.00326517
0.00222408
-0.00326507
0.00188989
-0.00218512
0.00117929
-0.00183375
0.00117937
-0.00217125
0.00184401
-0.00320804
0.00217193
-0.00320795
0.00184407
-0.00217112
0.00115643
-0.00182675
0.0011565
-0.00215668
0.00179822
-0.00315179
0.00211976
-0.0031517
0.00179828
-0.00215655
0.00113302
-0.00181929
0.00113308
-0.00214155
0.00175245
-0.00309638
0.00206757
-0.00309629
0.00175251
-0.00214143
0.00110908
-0.00181139
0.00110913
-0.00212588
0.0017067
-0.00304179
0.00201537
-0.0030417
0.00170676
-0.00212577
0.00108461
-0.00180302
0.00108465
-0.00210969
0.00166097
-0.00298799
0.00196315
-0.00298791
0.00166102
-0.00210958
0.00105961
-0.0017942
0.00105965
-0.00209297
0.00161524
-0.00293496
0.00191092
-0.00293488
0.0016153
-0.00209287
0.0010341
-0.00178492
0.00103414
-0.00207575
0.00156952
-0.00288268
0.00185868
-0.0028826
0.00156957
-0.00207566
0.00100808
-0.00177519
0.00100811
-0.00205804
0.0015238
-0.00283112
0.00180642
-0.00283104
0.00152385
-0.00205795
0.000981546
-0.001765
0.000981578
-0.00203985
0.00147807
-0.00278025
0.00175414
-0.00278017
0.00147812
-0.00203976
0.000954518
-0.00175435
0.000954546
-0.00202119
0.00143234
-0.00273005
0.00170185
-0.00272998
0.00143238
-0.0020211
0.000926995
-0.00174324
0.00092702
-0.00200206
0.00138658
-0.00268049
0.00164953
-0.00268042
0.00138663
-0.00200198
0.000898984
-0.00173168
0.000899006
-0.00198249
0.00134081
-0.00263156
0.0015972
-0.00263149
0.00134085
-0.00198242
0.00087049
-0.00171967
0.000870509
-0.00196248
0.00129501
-0.00258323
0.00154484
-0.00258316
0.00129505
-0.00196241
0.000841518
-0.0017072
0.000841535
-0.00194204
0.00124917
-0.00253547
0.00149246
-0.0025354
0.00124921
-0.00194198
0.000812073
-0.00169429
0.000812088
-0.00192119
0.00120329
-0.00248826
0.00144005
-0.0024882
0.00120333
-0.00192113
0.000782161
-0.00168092
0.000782175
-0.00189993
0.00115736
-0.00244158
0.0013876
-0.00244152
0.0011574
-0.00189987
0.000751787
-0.00166711
0.000751798
-0.00187827
0.00111139
-0.00239541
0.00133513
-0.00239535
0.00111142
-0.00187822
0.000720955
-0.00165286
0.000720965
-0.00185622
0.00106535
-0.00234972
0.00128261
-0.00234966
0.00106538
-0.00185617
0.00068967
-0.00163817
0.000689679
-0.0018338
0.00101924
-0.00230449
0.00123004
-0.00230444
0.00101927
-0.00183375
0.000657937
-0.00162303
0.000657945
-0.001811
0.000973058
-0.0022597
0.00117743
-0.00225965
0.000973086
-0.00181095
0.000625761
-0.00160747
0.000625767
-0.00178784
0.000926795
-0.00221534
0.00112477
-0.00221529
0.000926821
-0.0017878
0.000593145
-0.00159147
0.000593151
-0.00176433
0.000880443
-0.00217137
0.00107205
-0.00217133
0.000880468
-0.00176429
0.000560095
-0.00157505
0.0005601
-0.00174047
0.000833995
-0.00212778
0.00101927
-0.00212774
0.000834018
-0.00174043
0.000526615
-0.0015582
0.00052662
-0.00171627
0.000787445
-0.00208455
0.000966425
-0.00208451
0.000787466
-0.00171624
0.000492709
-0.00154094
0.000492713
-0.00169175
0.000740783
-0.00204166
0.000913504
-0.00204162
0.000740803
-0.00169171
0.00045838
-0.00152326
0.000458384
-0.00166689
0.000694004
-0.00199908
0.000860505
-0.00199905
0.000694022
-0.00166686
0.000423634
-0.00150517
0.000423637
-0.00164173
0.0006471
-0.00195681
0.000807421
-0.00195677
0.000647116
-0.0016417
0.000388474
-0.00148668
0.000388477
-0.00161625
0.000600062
-0.00191481
0.000754248
-0.00191478
0.000600077
-0.00161622
0.000352904
-0.00146779
0.000352906
-0.00159046
0.000552884
-0.00187308
0.000700977
-0.00187305
0.000552898
-0.00159044
0.000316927
-0.00144851
0.000316929
-0.00156438
0.000505558
-0.00183158
0.000647604
-0.00183156
0.00050557
-0.00156436
0.000280548
-0.00142884
0.00028055
-0.00153801
0.000458076
-0.00179031
0.000594121
-0.00179029
0.000458087
-0.00153799
0.00024377
-0.00140878
0.000243772
-0.00151135
0.000410431
-0.00174924
0.000540522
-0.00174922
0.00041044
-0.00151133
0.000206597
-0.00138835
0.000206599
-0.00148441
0.000362614
-0.00170836
0.000486799
-0.00170834
0.000362622
-0.00148439
0.000169033
-0.00136755
0.000169034
-0.00145719
0.000314618
-0.00166765
0.000432945
-0.00166763
0.000314625
-0.00145718
0.00013108
-0.00134639
0.000131082
-0.0014297
0.000266435
-0.00162708
0.000378954
-0.00162706
0.00026644
-0.00142969
9.27432e-05
-0.00132487
9.2745e-05
-0.00140195
0.000218056
-0.00158665
0.000324817
-0.00158663
0.000218061
-0.00140194
5.40255e-05
-0.00130301
5.40272e-05
-0.00137393
0.000169474
-0.00154632
0.000270526
-0.00154631
0.000169477
-0.00137392
1.49304e-05
-0.0012808
1.49321e-05
-0.00134565
0.00012068
-0.00150609
0.000216075
-0.00150608
0.000120682
-0.00134565
-2.45383e-05
-0.00125825
-2.45366e-05
-0.00131713
7.16665e-05
-0.00146593
0.000161455
-0.00146592
7.16675e-05
-0.00131712
-6.4377e-05
-0.00123538
-6.43752e-05
-0.00128835
2.24245e-05
-0.00142583
0.000106656
-0.00142582
2.24244e-05
-0.00128835
-0.000104582
-0.0012122
-0.00010458
-0.00125934
-2.70542e-05
-0.00138576
5.16711e-05
-0.00138575
-2.70553e-05
-0.00125934
-0.000145149
-0.0011887
-0.000145148
-0.00123008
-7.67771e-05
-0.00134572
-3.49654e-06
-0.00134571
-7.67794e-05
-0.00123008
-0.000186078
-0.0011649
-0.000186076
-0.00120058
-0.000126751
-0.00130571
-5.88389e-05
-0.0013057
-0.000126755
-0.00120059
-0.000227369
-0.00114077
-0.000227366
-0.00117086
-0.000176985
-0.00126568
-0.000114409
-0.00126568
-0.000176989
-0.00117087
-0.000269004
-0.00111637
-0.000269002
-0.001141
-0.000227495
-0.00122528
-0.000170481
-0.00122529
-0.000227501
-0.00114101
-0.00031092
-0.00109199
-0.000310918
-0.00111111
-0.000278319
-0.00118402
-0.000227402
-0.00118402
-0.000278326
-0.00111112
-0.00035305
-0.00106803
-0.000353047
-0.00108083
-0.000329435
-0.00114323
-0.000283833
-0.00114324
-0.000329443
-0.00108084
-0.000395724
-0.00104324
-0.000395721
-0.0010484
-0.000380584
-0.00111048
-0.000333287
-0.00111049
-0.00038059
-0.00104842
-0.000440447
-0.00101103
-0.000440444
)
;

boundaryField
{
    BotWall
    {
        type            fixedFluxPressure;
        gradient        uniform 0;
        value           nonuniform List<scalar> 10(1.15047 93.8139 0.793513 1.07144 0.793515 93.8139 1.15047 0.332606 2.0134 0.332607);
    }
    FreeStream
    {
        type            totalPressure;
        rho             rho;
        psi             none;
        gamma           1;
        p0              uniform 0;
        value           nonuniform List<scalar> 10(-0.00103064 -0.000405848 -0.00110104 -0.000352294 -0.00110105 -0.000405851 -0.00103065 -0.000464097 -0.000989016 -0.000464094);
    }
    FrontNBack
    {
        type            empty;
    }
    LeftSide
    {
        type            cyclic;
    }
    RightSide
    {
        type            cyclic;
    }
}


// ************************************************************************* //
