/*--------------------------------*- C++ -*----------------------------------*\
| =========                 |                                                 |
| \\      /  F ield         | OpenFOAM: The Open Source CFD Toolbox           |
|  \\    /   O peration     | Version:  2.4.0                                 |
|   \\  /    A nd           | Web:      www.OpenFOAM.org                      |
|    \\/     M anipulation  |                                                 |
\*---------------------------------------------------------------------------*/
FoamFile
{
    version     2.0;
    format      ascii;
    class       surfaceScalarField;
    location    "0.3";
    object      phi;
}
// * * * * * * * * * * * * * * * * * * * * * * * * * * * * * * * * * * * * * //

dimensions      [0 3 -1 0 0 0 0];

internalField   nonuniform List<scalar> 
1890
(
-3.00341e-11
-1.53283e-09
-4.28172e-10
-1.04324e-09
3.36886e-10
-1.92973e-09
-3.36886e-10
2.15911e-11
4.28172e-10
-1.92973e-09
3.0034e-11
-1.04324e-09
5.06571e-11
-1.53283e-09
1.14293e-10
-1.19166e-09
-1.14293e-10
2.25715e-11
-1.19166e-09
-4.7437e-11
-1.48731e-09
-9.51288e-11
-9.95548e-10
-8.03765e-11
-1.94448e-09
8.03764e-11
-1.39162e-10
9.51289e-11
-1.94448e-09
4.74368e-11
-9.95546e-10
1.91407e-12
-1.48731e-09
-2.01159e-11
-1.16963e-09
2.01159e-11
-1.03414e-09
-1.16963e-09
-4.36151e-11
-1.4361e-09
-9.31973e-11
-9.45966e-10
-4.80536e-11
-1.98962e-09
4.80534e-11
-2.35269e-10
9.31977e-11
-1.98962e-09
4.3615e-11
-9.45963e-10
-7.58906e-12
-1.4361e-09
-3.50461e-12
-1.17371e-09
3.50465e-12
-1.04115e-09
-1.17371e-09
-3.93529e-11
-1.39128e-09
-7.91475e-11
-9.06172e-10
-4.02941e-11
-2.02848e-09
4.02937e-11
-3.15856e-10
7.91483e-11
-2.02848e-09
3.93528e-11
-9.06167e-10
-5.4708e-12
-1.39128e-09
-4.18462e-12
-1.175e-09
4.18474e-12
-1.04952e-09
-1.175e-09
-3.51127e-11
-1.35223e-09
-6.68979e-11
-8.74386e-10
-3.3628e-11
-2.06175e-09
3.36274e-11
-3.83112e-10
6.68991e-11
-2.06175e-09
3.51128e-11
-8.74381e-10
-3.94103e-12
-1.35223e-09
-3.96364e-12
-1.17498e-09
3.96385e-12
-1.05745e-09
-1.17497e-09
-3.10576e-11
-1.31847e-09
-5.61446e-11
-8.49299e-10
-2.80303e-11
-2.08986e-09
2.80295e-11
-4.39172e-10
5.6146e-11
-2.08986e-09
3.10578e-11
-8.49293e-10
-2.6979e-12
-1.31847e-09
-3.74525e-12
-1.17393e-09
3.74553e-12
-1.06494e-09
-1.17392e-09
-2.72064e-11
-1.28958e-09
-4.67238e-11
-8.29782e-10
-2.33559e-11
-2.11323e-09
2.33549e-11
-4.85882e-10
4.67255e-11
-2.11324e-09
2.72067e-11
-8.29774e-10
-1.68815e-12
-1.28958e-09
-3.61695e-12
-1.172e-09
3.61729e-12
-1.07218e-09
-1.17199e-09
-2.35645e-11
-1.26514e-09
-3.8493e-11
-8.14853e-10
-1.94631e-11
-2.13226e-09
1.94621e-11
-5.24808e-10
3.84948e-11
-2.13227e-09
2.35649e-11
-8.14844e-10
-8.78889e-13
-1.26513e-09
-3.52771e-12
-1.16935e-09
3.52812e-12
-1.07923e-09
-1.16934e-09
-2.01459e-11
-1.24479e-09
-3.13095e-11
-8.0369e-10
-1.62254e-11
-2.14734e-09
1.62242e-11
-5.57257e-10
3.13114e-11
-2.14736e-09
2.01464e-11
-8.03679e-10
-2.06709e-13
-1.24478e-09
-3.44811e-12
-1.16611e-09
3.44858e-12
-1.08613e-09
-1.1661e-09
-1.69612e-11
-1.22808e-09
-2.5043e-11
-7.95608e-10
-1.35353e-11
-2.15885e-09
1.35341e-11
-5.84327e-10
2.5045e-11
-2.15887e-09
1.69618e-11
-7.95596e-10
2.56295e-13
-1.22807e-09
-3.37407e-12
-1.16248e-09
3.37459e-12
-1.09288e-09
-1.16247e-09
-1.40143e-11
-1.21465e-09
-1.95799e-11
-7.90042e-10
-1.13024e-11
-2.16713e-09
1.13011e-11
-6.0693e-10
1.95819e-11
-2.16715e-09
1.40149e-11
-7.90029e-10
5.77938e-13
-1.21464e-09
-3.30721e-12
-1.15859e-09
3.30777e-12
-1.09949e-09
-1.15858e-09
-1.1303e-11
-1.20417e-09
-1.48219e-11
-7.86523e-10
-9.44998e-12
-2.1725e-09
9.44868e-12
-6.25829e-10
1.48239e-11
-2.17252e-09
1.13037e-11
-7.86509e-10
8.27643e-13
-1.20416e-09
-3.24831e-12
-1.15452e-09
3.24891e-12
-1.10599e-09
-1.1545e-09
-8.82123e-12
-1.19636e-09
-1.06847e-11
-7.8466e-10
-7.91349e-12
-2.17527e-09
7.91219e-12
-6.41655e-10
1.06867e-11
-2.1753e-09
8.82191e-12
-7.84644e-10
1.01021e-12
-1.19635e-09
-3.19716e-12
-1.15031e-09
3.1978e-12
-1.11238e-09
-1.1503e-09
-6.55953e-12
-1.19094e-09
-7.0973e-12
-7.84122e-10
-6.6386e-12
-2.17573e-09
6.63733e-12
-6.5493e-10
7.09921e-12
-2.17576e-09
6.56023e-12
-7.84105e-10
1.13567e-12
-1.19093e-09
-3.15325e-12
-1.14602e-09
3.15392e-12
-1.11869e-09
-1.146e-09
-4.50517e-12
-1.18765e-09
-4.005e-12
-7.84622e-10
-5.57988e-12
-2.17415e-09
5.57866e-12
-6.66089e-10
4.00678e-12
-2.17419e-09
4.50586e-12
-7.84604e-10
1.21343e-12
-1.18763e-09
-3.11603e-12
-1.14169e-09
3.11672e-12
-1.12492e-09
-1.14167e-09
-2.63953e-12
-1.18626e-09
-1.3902e-12
-7.85872e-10
-4.69946e-12
-2.17084e-09
4.6983e-12
-6.75487e-10
1.39177e-12
-2.17088e-09
2.64021e-12
-7.85852e-10
1.25144e-12
-1.18624e-09
-3.08492e-12
-1.13736e-09
3.08564e-12
-1.13109e-09
-1.13734e-09
-9.19289e-13
-1.1866e-09
9.16065e-13
-7.87707e-10
-3.9658e-12
-2.16596e-09
3.96474e-12
-6.83417e-10
-9.14345e-13
-2.166e-09
9.19988e-13
-7.87687e-10
1.25622e-12
-1.18658e-09
-3.05931e-12
-1.13304e-09
3.06005e-12
-1.13721e-09
-1.13302e-09
5.78304e-13
-1.18841e-09
3.0618e-12
-7.90191e-10
-3.35339e-12
-2.15955e-09
3.35242e-12
-6.90123e-10
-3.0604e-12
-2.15959e-09
-5.77771e-13
-7.90169e-10
1.23318e-12
-1.18839e-09
-3.03856e-12
-1.12877e-09
3.03931e-12
-1.14329e-09
-1.12875e-09
1.78981e-12
-1.19139e-09
4.83989e-12
-7.93241e-10
-2.84215e-12
-2.15187e-09
2.84129e-12
-6.95807e-10
-4.8387e-12
-2.15191e-09
-1.78928e-12
-7.93219e-10
1.18724e-12
-1.19137e-09
-3.02205e-12
-1.12456e-09
3.02281e-12
-1.14934e-09
-1.12454e-09
2.89918e-12
-1.19541e-09
6.34543e-12
-7.96687e-10
-2.41547e-12
-2.1431e-09
2.41471e-12
-7.00637e-10
-6.34445e-12
-2.14315e-09
-2.89869e-12
-7.96665e-10
1.12319e-12
-1.19539e-09
-3.00915e-12
-1.12043e-09
3.00991e-12
-1.15536e-09
-1.1204e-09
3.8836e-12
-1.20034e-09
7.61954e-12
-8.00423e-10
-2.05965e-12
-2.13343e-09
2.05901e-12
-7.04755e-10
-7.61876e-12
-2.13347e-09
-3.88317e-12
-8.004e-10
1.04516e-12
-1.20032e-09
-2.99929e-12
-1.11638e-09
3.00004e-12
-1.16136e-09
-1.11636e-09
4.74684e-12
-1.20604e-09
8.69252e-12
-8.04369e-10
-1.7635e-12
-2.12297e-09
1.76298e-12
-7.08282e-10
-8.69195e-12
-2.12302e-09
-4.74647e-12
-8.04346e-10
9.56718e-13
-1.20602e-09
-2.99191e-12
-1.11243e-09
2.99265e-12
-1.16734e-09
-1.11241e-09
5.49719e-12
-1.2124e-09
9.58943e-12
-8.08461e-10
-1.51782e-12
-2.11186e-09
1.51741e-12
-7.11317e-10
-9.58906e-12
-2.11191e-09
-5.49688e-12
-8.08438e-10
8.60922e-13
-1.21238e-09
-2.98647e-12
-1.10859e-09
2.9872e-12
-1.17331e-09
-1.10856e-09
6.14387e-12
-1.2193e-09
1.03317e-11
-8.12649e-10
-1.31505e-12
-2.10022e-09
1.31476e-12
-7.13947e-10
-1.03315e-11
-2.10026e-09
-6.14362e-12
-8.12626e-10
7.60419e-13
-1.21928e-09
-2.9825e-12
-1.10484e-09
2.9832e-12
-1.17928e-09
-1.10482e-09
6.69603e-12
-1.22666e-09
1.0938e-11
-8.16891e-10
-1.149e-12
-2.08813e-09
1.14882e-12
-7.16245e-10
-1.09379e-11
-2.08818e-09
-6.69585e-12
-8.16868e-10
6.57502e-13
-1.22664e-09
-2.97952e-12
-1.10121e-09
2.98019e-12
-1.18524e-09
-1.10118e-09
7.16238e-12
-1.23437e-09
1.14245e-11
-8.21153e-10
-1.01455e-12
-2.07569e-09
1.01449e-12
-7.18274e-10
-1.14246e-11
-2.07574e-09
-7.16226e-12
-8.2113e-10
5.54182e-13
-1.23435e-09
-2.97712e-12
-1.09768e-09
2.97776e-12
-1.19119e-09
-1.09765e-09
7.55107e-12
-1.24238e-09
1.18055e-11
-8.25407e-10
-9.07477e-13
-2.06298e-09
9.07515e-13
-7.20089e-10
-1.18059e-11
-2.06302e-09
-7.55101e-12
-8.25385e-10
4.52256e-13
-1.24236e-09
-2.97491e-12
-1.09425e-09
2.9755e-12
-1.19714e-09
-1.09422e-09
7.86964e-12
-1.2506e-09
1.20938e-11
-8.29631e-10
-8.24222e-13
-2.05006e-09
8.24355e-13
-7.21737e-10
-1.20942e-11
-2.05011e-09
-7.86964e-12
-8.2961e-10
3.53393e-13
-1.25058e-09
-2.97252e-12
-1.09092e-09
2.97308e-12
-1.20309e-09
-1.0909e-09
8.12501e-12
-1.25898e-09
1.23002e-11
-8.33806e-10
-7.61763e-13
-2.037e-09
7.61982e-13
-7.23261e-10
-1.23008e-11
-2.03704e-09
-8.12508e-12
-8.33785e-10
2.59247e-13
-1.25896e-09
-2.96966e-12
-1.08769e-09
2.97016e-12
-1.20903e-09
-1.08767e-09
8.32354e-12
-1.26748e-09
1.24347e-11
-8.37918e-10
-7.17468e-13
-2.02384e-09
7.17763e-13
-7.24696e-10
-1.24354e-11
-2.02389e-09
-8.32366e-12
-8.37897e-10
1.71685e-13
-1.26746e-09
-2.96602e-12
-1.08456e-09
2.96648e-12
-1.21496e-09
-1.08453e-09
8.47103e-12
-1.27604e-09
1.2506e-11
-8.41953e-10
-6.88992e-13
-2.01065e-09
6.89354e-13
-7.26075e-10
-1.25068e-11
-2.01069e-09
-8.47119e-12
-8.41933e-10
9.34048e-14
-1.27602e-09
-2.96136e-12
-1.0815e-09
2.96177e-12
-1.22089e-09
-1.08148e-09
8.57277e-12
-1.28461e-09
1.25218e-11
-8.45902e-10
-6.74205e-13
-1.99745e-09
6.74622e-13
-7.27424e-10
-1.25227e-11
-1.9975e-09
-8.57298e-12
-8.45882e-10
-5.47541e-15
-1.28459e-09
-2.95548e-12
-1.07855e-09
2.95584e-12
-1.2268e-09
-1.07853e-09
8.63357e-12
-1.29313e-09
1.2489e-11
-8.49757e-10
-6.71149e-13
-1.98429e-09
6.7161e-13
-7.28766e-10
-1.24899e-11
-1.98434e-09
-8.63383e-12
-8.49738e-10
-1.12779e-13
-1.29311e-09
-2.9482e-12
-1.07572e-09
2.9485e-12
-1.23269e-09
-1.07569e-09
8.65777e-12
-1.30154e-09
1.24137e-11
-8.53513e-10
-6.78026e-13
-1.9712e-09
6.7852e-13
-7.30123e-10
-1.24147e-11
-1.97124e-09
-8.65806e-12
-8.53495e-10
-2.40626e-13
-1.30153e-09
-2.93942e-12
-1.07302e-09
2.93966e-12
-1.23857e-09
-1.07299e-09
8.64926e-12
-1.30984e-09
1.23014e-11
-8.57165e-10
-6.93192e-13
-1.95821e-09
6.93711e-13
-7.3151e-10
-1.23024e-11
-1.95825e-09
-8.64958e-12
-8.57148e-10
-3.48504e-13
-1.30983e-09
-2.92902e-12
-1.07044e-09
2.92921e-12
-1.24443e-09
-1.07041e-09
8.61164e-12
-1.31801e-09
1.2157e-11
-8.60711e-10
-7.15168e-13
-1.94533e-09
7.15702e-13
-7.32941e-10
-1.2158e-11
-1.94537e-09
-8.61198e-12
-8.60694e-10
-4.45422e-13
-1.318e-09
-2.91693e-12
-1.06796e-09
2.91707e-12
-1.25026e-09
-1.06794e-09
8.5482e-12
-1.32602e-09
1.19848e-11
-8.64147e-10
-7.4263e-13
-1.93261e-09
7.43173e-13
-7.34426e-10
-1.19858e-11
-1.93264e-09
-8.54857e-12
-8.64131e-10
-5.33764e-13
-1.32601e-09
-2.90309e-12
-1.0656e-09
2.90318e-12
-1.25607e-09
-1.06557e-09
8.46195e-12
-1.33387e-09
1.17888e-11
-8.67474e-10
-7.74411e-13
-1.92004e-09
7.74957e-13
-7.35976e-10
-1.17898e-11
-1.92008e-09
-8.46234e-12
-8.67459e-10
-6.14584e-13
-1.33386e-09
-2.88745e-12
-1.06332e-09
2.88749e-12
-1.26185e-09
-1.0633e-09
8.35563e-12
-1.34154e-09
1.15725e-11
-8.70691e-10
-8.09486e-13
-1.90766e-09
8.1003e-13
-7.37595e-10
-1.15735e-11
-1.90769e-09
-8.35603e-12
-8.70676e-10
-6.88478e-13
-1.34153e-09
-2.86999e-12
-1.06114e-09
2.86998e-12
-1.26759e-09
-1.06112e-09
8.23175e-12
-1.34901e-09
1.13391e-11
-8.73798e-10
-8.46962e-13
-1.89548e-09
8.47498e-13
-7.3929e-10
-1.13401e-11
-1.89551e-09
-8.23216e-12
-8.73784e-10
-7.55848e-13
-1.349e-09
-2.85067e-12
-1.05905e-09
2.85062e-12
-1.27329e-09
-1.05903e-09
8.09259e-12
-1.35629e-09
1.10914e-11
-8.76797e-10
-8.86058e-13
-1.8835e-09
8.86585e-13
-7.41062e-10
-1.10924e-11
-1.88353e-09
-8.09301e-12
-8.76784e-10
-8.17009e-13
-1.35628e-09
-2.8295e-12
-1.05703e-09
2.8294e-12
-1.27895e-09
-1.05701e-09
7.94024e-12
-1.36335e-09
1.0832e-11
-8.79689e-10
-9.261e-13
-1.87174e-09
9.26615e-13
-7.42915e-10
-1.0833e-11
-1.87177e-09
-7.94066e-12
-8.79676e-10
-8.72228e-13
-1.36335e-09
-2.80646e-12
-1.0551e-09
2.80632e-12
-1.28456e-09
-1.05508e-09
7.77659e-12
-1.37021e-09
1.05632e-11
-8.82476e-10
-9.66503e-13
-1.86021e-09
9.67004e-13
-7.44849e-10
-1.05641e-11
-1.86024e-09
-7.77702e-12
-8.82463e-10
-9.21753e-13
-1.3702e-09
-2.78158e-12
-1.05324e-09
2.78141e-12
-1.29012e-09
-1.05322e-09
7.60338e-12
-1.37685e-09
1.0287e-11
-8.85159e-10
-1.00676e-12
-1.84892e-09
1.00724e-12
-7.46863e-10
-1.02879e-11
-1.84894e-09
-7.6038e-12
-8.85147e-10
-9.6582e-13
-1.37684e-09
-2.75489e-12
-1.05145e-09
2.75468e-12
-1.29563e-09
-1.05143e-09
7.42218e-12
-1.38326e-09
1.00052e-11
-8.87742e-10
-1.04644e-12
-1.83787e-09
1.0469e-12
-7.48956e-10
-1.00061e-11
-1.83789e-09
-7.4226e-12
-8.87731e-10
-1.00466e-12
-1.38326e-09
-2.72641e-12
-1.04973e-09
2.72617e-12
-1.30108e-09
-1.04971e-09
7.23442e-12
-1.38946e-09
9.71947e-12
-8.90227e-10
-1.08516e-12
-1.82706e-09
1.08561e-12
-7.51127e-10
-9.72034e-12
-1.82708e-09
-7.23483e-12
-8.90216e-10
-1.03851e-12
-1.38946e-09
-2.69619e-12
-1.04807e-09
2.69592e-12
-1.30648e-09
-1.04805e-09
7.0414e-12
-1.39543e-09
9.4313e-12
-8.92617e-10
-1.1226e-12
-1.81651e-09
1.12304e-12
-7.53372e-10
-9.43214e-12
-1.81653e-09
-7.04181e-12
-8.92606e-10
-1.06759e-12
-1.39543e-09
-2.66428e-12
-1.04647e-09
2.66399e-12
-1.3118e-09
-1.04646e-09
6.84431e-12
-1.40118e-09
9.14196e-12
-8.94915e-10
-1.15851e-12
-1.80621e-09
1.15892e-12
-7.5569e-10
-9.14276e-12
-1.80623e-09
-6.84471e-12
-8.94904e-10
-1.09213e-12
-1.40118e-09
-2.63075e-12
-1.04494e-09
2.63043e-12
-1.31707e-09
-1.04492e-09
6.64421e-12
-1.40672e-09
8.85258e-12
-8.97123e-10
-1.19264e-12
-1.79616e-09
1.19303e-12
-7.58075e-10
-8.85335e-12
-1.79618e-09
-6.6446e-12
-8.97113e-10
-1.11236e-12
-1.40671e-09
-2.59565e-12
-1.04345e-09
2.59531e-12
-1.32226e-09
-1.04344e-09
6.44206e-12
-1.41203e-09
8.56419e-12
-8.99245e-10
-1.22482e-12
-1.78637e-09
1.22519e-12
-7.60525e-10
-8.56493e-12
-1.78639e-09
-6.44244e-12
-8.99236e-10
-1.12851e-12
-1.41203e-09
-2.55906e-12
-1.04202e-09
2.55869e-12
-1.32737e-09
-1.04201e-09
6.23874e-12
-1.41713e-09
8.27766e-12
-9.01284e-10
-1.25488e-12
-1.77684e-09
1.25523e-12
-7.63036e-10
-8.27837e-12
-1.77686e-09
-6.23911e-12
-9.01275e-10
-1.1408e-12
-1.41713e-09
-2.52104e-12
-1.04064e-09
2.52066e-12
-1.33242e-09
-1.04063e-09
6.03502e-12
-1.42201e-09
7.99377e-12
-9.03243e-10
-1.28271e-12
-1.76756e-09
1.28304e-12
-7.65601e-10
-7.99445e-12
-1.76758e-09
-6.03538e-12
-9.03234e-10
-1.14946e-12
-1.42201e-09
-2.48168e-12
-1.03931e-09
2.48129e-12
-1.33738e-09
-1.0393e-09
5.83162e-12
-1.42669e-09
7.7132e-12
-9.05124e-10
-1.30821e-12
-1.75854e-09
1.30852e-12
-7.68218e-10
-7.71385e-12
-1.75856e-09
-5.83197e-12
-9.05116e-10
-1.1547e-12
-1.42669e-09
-2.44107e-12
-1.03802e-09
2.44067e-12
-1.34226e-09
-1.03801e-09
5.62915e-12
-1.43116e-09
7.43653e-12
-9.06932e-10
-1.33131e-12
-1.74977e-09
1.3316e-12
-7.70881e-10
-7.43715e-12
-1.74979e-09
-5.62949e-12
-9.06924e-10
-1.15674e-12
-1.43116e-09
-2.39928e-12
-1.03678e-09
2.39887e-12
-1.34706e-09
-1.03677e-09
5.4282e-12
-1.43544e-09
7.16427e-12
-9.08668e-10
-1.35197e-12
-1.74126e-09
1.35224e-12
-7.73585e-10
-7.16486e-12
-1.74127e-09
-5.42852e-12
-9.0866e-10
-1.15579e-12
-1.43544e-09
-2.3564e-12
-1.03558e-09
2.35598e-12
-1.35177e-09
-1.03557e-09
5.22924e-12
-1.43951e-09
6.89684e-12
-9.10336e-10
-1.37014e-12
-1.73299e-09
1.3704e-12
-7.76326e-10
-6.89741e-12
-1.733e-09
-5.22956e-12
-9.10328e-10
-1.15207e-12
-1.43951e-09
-2.31252e-12
-1.03442e-09
2.3121e-12
-1.3564e-09
-1.03441e-09
5.03274e-12
-1.4434e-09
6.63461e-12
-9.11937e-10
-1.38584e-12
-1.72497e-09
1.38607e-12
-7.79098e-10
-6.63515e-12
-1.72498e-09
-5.03305e-12
-9.1193e-10
-1.14577e-12
-1.4434e-09
-2.26773e-12
-1.0333e-09
2.2673e-12
-1.36093e-09
-1.03329e-09
4.83908e-12
-1.4471e-09
6.37789e-12
-9.13476e-10
-1.39905e-12
-1.71719e-09
1.39926e-12
-7.81896e-10
-6.3784e-12
-1.7172e-09
-4.83938e-12
-9.13469e-10
-1.13709e-12
-1.4471e-09
-2.22212e-12
-1.03221e-09
2.22169e-12
-1.36537e-09
-1.0322e-09
4.64862e-12
-1.45062e-09
6.12691e-12
-9.14954e-10
-1.40979e-12
-1.70966e-09
1.40998e-12
-7.84716e-10
-6.1274e-12
-1.70967e-09
-4.6489e-12
-9.14947e-10
-1.12622e-12
-1.45062e-09
-2.17578e-12
-1.03116e-09
2.17535e-12
-1.36973e-09
-1.03115e-09
4.46164e-12
-1.45397e-09
5.88189e-12
-9.16375e-10
-1.41809e-12
-1.70236e-09
1.41826e-12
-7.87552e-10
-5.88236e-12
-1.70237e-09
-4.46192e-12
-9.16368e-10
-1.11335e-12
-1.45397e-09
-2.1288e-12
-1.03015e-09
2.12838e-12
-1.37398e-09
-1.03014e-09
4.27843e-12
-1.45715e-09
5.64298e-12
-9.17739e-10
-1.42399e-12
-1.69529e-09
1.42414e-12
-7.904e-10
-5.64343e-12
-1.6953e-09
-4.2787e-12
-9.17732e-10
-1.09865e-12
-1.45715e-09
-2.08128e-12
-1.02916e-09
2.08085e-12
-1.37814e-09
-1.02915e-09
4.0992e-12
-1.46017e-09
5.41032e-12
-9.1905e-10
-1.42755e-12
-1.68845e-09
1.42768e-12
-7.93255e-10
-5.41075e-12
-1.68846e-09
-4.09946e-12
-9.19044e-10
-1.08231e-12
-1.46017e-09
-2.03329e-12
-1.02821e-09
2.03287e-12
-1.38221e-09
-1.0282e-09
3.92414e-12
-1.46303e-09
5.18397e-12
-9.2031e-10
-1.42881e-12
-1.68184e-09
1.42892e-12
-7.96113e-10
-5.18439e-12
-1.68185e-09
-3.9244e-12
-9.20304e-10
-1.0645e-12
-1.46303e-09
-1.98495e-12
-1.02729e-09
1.98453e-12
-1.38618e-09
-1.02728e-09
3.75344e-12
-1.46574e-09
4.96402e-12
-9.21521e-10
-1.42784e-12
-1.67545e-09
1.42793e-12
-7.98969e-10
-4.96442e-12
-1.67545e-09
-3.75369e-12
-9.21514e-10
-1.04536e-12
-1.46574e-09
-1.93632e-12
-1.0264e-09
1.93591e-12
-1.39005e-09
-1.02639e-09
3.58722e-12
-1.4683e-09
4.75049e-12
-9.22684e-10
-1.42472e-12
-1.66927e-09
1.42478e-12
-8.01818e-10
-4.75087e-12
-1.66928e-09
-3.58746e-12
-9.22678e-10
-1.02507e-12
-1.4683e-09
-1.8875e-12
-1.02554e-09
1.88709e-12
-1.39383e-09
-1.02553e-09
3.42561e-12
-1.47072e-09
4.54338e-12
-9.23802e-10
-1.4195e-12
-1.66331e-09
1.41955e-12
-8.04657e-10
-4.54375e-12
-1.66332e-09
-3.42584e-12
-9.23796e-10
-1.00377e-12
-1.47072e-09
-1.83858e-12
-1.0247e-09
1.83818e-12
-1.3975e-09
-1.0247e-09
3.26868e-12
-1.47301e-09
4.3427e-12
-9.24876e-10
-1.41229e-12
-1.65755e-09
1.41232e-12
-8.07482e-10
-4.34306e-12
-1.65756e-09
-3.26891e-12
-9.2487e-10
-9.81597e-13
-1.47301e-09
-1.78964e-12
-1.0239e-09
1.78925e-12
-1.40108e-09
-1.02389e-09
3.11652e-12
-1.47517e-09
4.14841e-12
-9.25908e-10
-1.40316e-12
-1.652e-09
1.40316e-12
-8.10288e-10
-4.14876e-12
-1.65201e-09
-3.11675e-12
-9.25902e-10
-9.58698e-13
-1.47517e-09
-1.74076e-12
-1.02311e-09
1.74038e-12
-1.40456e-09
-1.02311e-09
2.96918e-12
-1.4772e-09
3.96046e-12
-9.26899e-10
-1.39219e-12
-1.64665e-09
1.39218e-12
-8.13073e-10
-3.9608e-12
-1.64665e-09
-2.9694e-12
-9.26893e-10
-9.35201e-13
-1.4772e-09
-1.69204e-12
-1.02236e-09
1.69167e-12
-1.40795e-09
-1.02235e-09
2.8267e-12
-1.47912e-09
3.77881e-12
-9.27851e-10
-1.3795e-12
-1.64149e-09
1.37946e-12
-8.15832e-10
-3.77914e-12
-1.6415e-09
-2.82692e-12
-9.27846e-10
-9.1123e-13
-1.47912e-09
-1.64355e-12
-1.02163e-09
1.64318e-12
-1.41123e-09
-1.02162e-09
2.6891e-12
-1.48092e-09
3.60338e-12
-9.28765e-10
-1.36517e-12
-1.63652e-09
1.36511e-12
-8.18562e-10
-3.6037e-12
-1.63653e-09
-2.68932e-12
-9.2876e-10
-8.86905e-13
-1.48092e-09
-1.59537e-12
-1.02092e-09
1.59501e-12
-1.41442e-09
-1.02091e-09
2.5564e-12
-1.48261e-09
3.43409e-12
-9.29643e-10
-1.3493e-12
-1.63174e-09
1.34922e-12
-8.2126e-10
-3.43441e-12
-1.63174e-09
-2.55661e-12
-9.29638e-10
-8.62337e-13
-1.48262e-09
-1.54758e-12
-1.02023e-09
1.54723e-12
-1.41752e-09
-1.02022e-09
2.42858e-12
-1.4842e-09
3.27085e-12
-9.30485e-10
-1.332e-12
-1.62714e-09
1.3319e-12
-8.23924e-10
-3.27117e-12
-1.62714e-09
-2.42878e-12
-9.3048e-10
-8.37632e-13
-1.48421e-09
-1.50026e-12
-1.01957e-09
1.49992e-12
-1.42052e-09
-1.01956e-09
2.30564e-12
-1.4857e-09
3.11357e-12
-9.31293e-10
-1.31338e-12
-1.62271e-09
1.31327e-12
-8.26551e-10
-3.11388e-12
-1.62271e-09
-2.30584e-12
-9.31288e-10
-8.12889e-13
-1.4857e-09
-1.45348e-12
-1.01893e-09
1.45316e-12
-1.42343e-09
-1.01892e-09
2.18755e-12
-1.4871e-09
2.96213e-12
-9.32068e-10
-1.29357e-12
-1.61845e-09
1.29343e-12
-8.29138e-10
-2.96244e-12
-1.61846e-09
-2.18775e-12
-9.32063e-10
-7.88204e-13
-1.4871e-09
-1.40732e-12
-1.01831e-09
1.40701e-12
-1.42624e-09
-1.0183e-09
2.07429e-12
-1.48841e-09
2.81643e-12
-9.3281e-10
-1.27266e-12
-1.61436e-09
1.2725e-12
-8.31683e-10
-2.81674e-12
-1.61437e-09
-2.07449e-12
-9.32805e-10
-7.63663e-13
-1.48841e-09
-1.36186e-12
-1.01771e-09
1.36156e-12
-1.42896e-09
-1.0177e-09
1.96583e-12
-1.48963e-09
2.67635e-12
-9.3352e-10
-1.2508e-12
-1.61044e-09
1.25061e-12
-8.34184e-10
-2.67666e-12
-1.61044e-09
-1.96603e-12
-9.33516e-10
-7.39351e-13
-1.48964e-09
-1.31716e-12
-1.01713e-09
1.31688e-12
-1.4316e-09
-1.01713e-09
1.86212e-12
-1.49078e-09
2.54177e-12
-9.342e-10
-1.2281e-12
-1.60667e-09
1.22789e-12
-8.3664e-10
-2.54208e-12
-1.60667e-09
-1.86231e-12
-9.34195e-10
-7.15346e-13
-1.49078e-09
-1.27331e-12
-1.01658e-09
1.27304e-12
-1.43414e-09
-1.01657e-09
1.76312e-12
-1.49185e-09
2.41256e-12
-9.3485e-10
-1.20471e-12
-1.60305e-09
1.20447e-12
-8.3905e-10
-2.41288e-12
-1.60305e-09
-1.76331e-12
-9.34845e-10
-6.91723e-13
-1.49185e-09
-1.23036e-12
-1.01604e-09
1.23012e-12
-1.43661e-09
-1.01603e-09
1.66879e-12
-1.49285e-09
2.2886e-12
-9.35469e-10
-1.18077e-12
-1.59958e-09
1.18049e-12
-8.41411e-10
-2.28893e-12
-1.59958e-09
-1.66898e-12
-9.35465e-10
-6.68554e-13
-1.49286e-09
-1.18841e-12
-1.01552e-09
1.18819e-12
-1.43898e-09
-1.01551e-09
1.57909e-12
-1.49379e-09
2.16978e-12
-9.3606e-10
-1.15641e-12
-1.59626e-09
1.1561e-12
-8.43723e-10
-2.17012e-12
-1.59626e-09
-1.57928e-12
-9.36056e-10
-6.45912e-13
-1.49379e-09
-1.14752e-12
-1.01502e-09
1.14732e-12
-1.44128e-09
-1.01501e-09
1.49398e-12
-1.49466e-09
2.05596e-12
-9.36622e-10
-1.13178e-12
-1.59307e-09
1.13144e-12
-8.45987e-10
-2.05632e-12
-1.59307e-09
-1.49417e-12
-9.36618e-10
-6.23866e-13
-1.49466e-09
-1.10777e-12
-1.01453e-09
1.1076e-12
-1.44349e-09
-1.01453e-09
1.41344e-12
-1.49547e-09
1.94706e-12
-9.37156e-10
-1.10703e-12
-1.59001e-09
1.10666e-12
-8.482e-10
-1.94743e-12
-1.59002e-09
-1.41363e-12
-9.37152e-10
-6.02489e-13
-1.49547e-09
-1.06925e-12
-1.01406e-09
1.06909e-12
-1.44563e-09
-1.01406e-09
1.33745e-12
-1.49622e-09
1.84297e-12
-9.37661e-10
-1.08232e-12
-1.58709e-09
1.0819e-12
-8.50365e-10
-1.84336e-12
-1.58709e-09
-1.33763e-12
-9.37658e-10
-5.81857e-13
-1.49623e-09
-1.03203e-12
-1.01361e-09
1.0319e-12
-1.44769e-09
-1.01361e-09
1.266e-12
-1.49693e-09
1.74362e-12
-9.38139e-10
-1.05778e-12
-1.58429e-09
1.05732e-12
-8.5248e-10
-1.74403e-12
-1.58429e-09
-1.26618e-12
-9.38135e-10
-5.62046e-13
-1.49693e-09
-9.96212e-13
-1.01318e-09
9.96117e-13
-1.44969e-09
-1.01318e-09
1.19911e-12
-1.49758e-09
1.64896e-12
-9.38589e-10
-1.03357e-12
-1.5816e-09
1.03307e-12
-8.54546e-10
-1.6494e-12
-1.58161e-09
-1.19929e-12
-9.38585e-10
-5.43139e-13
-1.49759e-09
-9.61898e-13
-1.01276e-09
9.61834e-13
-1.45161e-09
-1.01276e-09
1.13681e-12
-1.49819e-09
1.55897e-12
-9.39011e-10
-1.00982e-12
-1.57904e-09
1.00927e-12
-8.56565e-10
-1.55944e-12
-1.57904e-09
-1.13698e-12
-9.39008e-10
-5.25221e-13
-1.4982e-09
-9.29197e-13
-1.01236e-09
9.29165e-13
-1.45347e-09
-1.01235e-09
1.07914e-12
-1.49876e-09
1.47368e-12
-9.39405e-10
-9.86665e-13
-1.57657e-09
9.86073e-13
-8.58538e-10
-1.47417e-12
-1.57658e-09
-1.07931e-12
-9.39403e-10
-5.0838e-13
-1.49877e-09
-8.98235e-13
-1.01197e-09
8.98236e-13
-1.45527e-09
-1.01196e-09
1.02619e-12
-1.4993e-09
1.39315e-12
-9.39772e-10
-9.6423e-13
-1.57422e-09
9.63593e-13
-8.60466e-10
-1.39367e-12
-1.57422e-09
-1.02635e-12
-9.3977e-10
-4.92702e-13
-1.4993e-09
-8.6915e-13
-1.01159e-09
8.69184e-13
-1.457e-09
-1.01159e-09
9.78038e-13
-1.4998e-09
1.31749e-12
-9.40112e-10
-9.4263e-13
-1.57196e-09
9.41948e-13
-8.6235e-10
-1.31805e-12
-1.57196e-09
-9.78198e-13
-9.4011e-10
-4.7827e-13
-1.4998e-09
-8.42099e-13
-1.01123e-09
8.42166e-13
-1.45869e-09
-1.01122e-09
9.34808e-13
-1.50027e-09
1.24687e-12
-9.40424e-10
-9.2197e-13
-1.56979e-09
9.21245e-13
-8.64194e-10
-1.24746e-12
-1.56979e-09
-9.34965e-13
-9.40422e-10
-4.65152e-13
-1.50027e-09
-8.17258e-13
-1.01088e-09
8.17357e-13
-1.46032e-09
-1.01087e-09
8.96628e-13
-1.50071e-09
1.1815e-12
-9.40709e-10
-9.02351e-13
-1.5677e-09
9.01585e-13
-8.65998e-10
-1.18212e-12
-1.56771e-09
-8.96782e-13
-9.40708e-10
-4.53401e-13
-1.50072e-09
-7.94826e-13
-1.01053e-09
7.94955e-13
-1.46191e-09
-1.01053e-09
8.63644e-13
-1.50113e-09
1.12164e-12
-9.40967e-10
-8.83866e-13
-1.5657e-09
8.83063e-13
-8.67765e-10
-1.12229e-12
-1.5657e-09
-8.63796e-13
-9.40966e-10
-4.43041e-13
-1.50114e-09
-7.75024e-13
-1.0102e-09
7.75182e-13
-1.46346e-09
-1.0102e-09
8.3601e-13
-1.50153e-09
1.0676e-12
-9.41198e-10
-8.66614e-13
-1.56376e-09
8.65778e-13
-8.69497e-10
-1.06827e-12
-1.56377e-09
-8.3616e-13
-9.41198e-10
-4.34059e-13
-1.50154e-09
-7.58103e-13
-1.00988e-09
7.58287e-13
-1.46498e-09
-1.00987e-09
8.13882e-13
-1.50192e-09
1.0197e-12
-9.41404e-10
-8.50699e-13
-1.56189e-09
8.49834e-13
-8.71197e-10
-1.02039e-12
-1.5619e-09
-8.1403e-13
-9.41405e-10
-4.26394e-13
-1.50193e-09
-7.4434e-13
-1.00956e-09
7.44546e-13
-1.46647e-09
-1.00956e-09
7.97413e-13
-1.5023e-09
9.7828e-13
-9.41585e-10
-8.36227e-13
-1.56008e-09
8.35338e-13
-8.72869e-10
-9.78993e-13
-1.56008e-09
-7.9756e-13
-9.41586e-10
-4.19934e-13
-1.5023e-09
-7.34035e-13
-1.00925e-09
7.34261e-13
-1.46794e-09
-1.00924e-09
7.86751e-13
-1.50267e-09
9.43648e-13
-9.41742e-10
-8.2328e-13
-1.55831e-09
8.22372e-13
-8.74515e-10
-9.44377e-13
-1.55832e-09
-7.86898e-13
-9.41744e-10
-4.14517e-13
-1.50268e-09
-7.27499e-13
-1.00893e-09
7.27741e-13
-1.46939e-09
-1.00893e-09
7.82086e-13
-1.50304e-09
9.16081e-13
-9.41876e-10
-8.11971e-13
-1.55659e-09
8.11049e-13
-8.76138e-10
-9.16823e-13
-1.55659e-09
-7.82233e-13
-9.41878e-10
-4.09948e-13
-1.50305e-09
-7.25086e-13
-1.00862e-09
7.2534e-13
-1.47084e-09
-1.00861e-09
7.8373e-13
-1.50342e-09
8.96089e-13
-9.41988e-10
-8.02839e-13
-1.55489e-09
8.01909e-13
-8.77742e-10
-8.9684e-13
-1.55489e-09
-7.83877e-13
-9.41991e-10
-4.05941e-13
-1.50343e-09
-7.27436e-13
-1.0083e-09
7.27699e-13
-1.4723e-09
-1.00829e-09
7.80057e-13
8.99892e-13
-8.11649e-13
8.10699e-13
-9.0066e-13
-7.80203e-13
-4.09507e-13
-7.24906e-13
7.25172e-13
)
;

boundaryField
{
    BotWall
    {
        type            calculated;
        value           nonuniform List<scalar> 10(7.84583e-10 9.19397e-13 4.68585e-10 2.29701e-18 4.68583e-10 9.19417e-13 7.84582e-10 2.17592e-10 9.01337e-13 2.17592e-10);
    }
    FreeStream
    {
        type            calculated;
        value           nonuniform List<scalar> 10(-1.50379e-09 -9.42108e-10 -1.55317e-09 -8.79365e-10 -1.55318e-09 -9.42112e-10 -1.5038e-09 -1.00798e-09 -1.47375e-09 -1.00798e-09);
    }
    FrontNBack
    {
        type            empty;
        value           nonuniform 0();
    }
    LeftSide
    {
        type            cyclic;
        value           nonuniform List<scalar> 
100
(
5.06572e-11
1.9144e-12
-7.58849e-12
-5.47006e-12
-3.94014e-12
-2.69691e-12
-1.68707e-12
-8.77736e-13
-2.05333e-13
2.57229e-13
5.7891e-13
8.28576e-13
1.01107e-12
1.13643e-12
1.21409e-12
1.25198e-12
1.25663e-12
1.23345e-12
1.18738e-12
1.1232e-12
1.04505e-12
9.56495e-13
8.60599e-13
7.60009e-13
6.57021e-13
5.53644e-13
4.51679e-13
3.52792e-13
2.5864e-13
1.71101e-13
9.35627e-14
-6.2138e-15
-1.13911e-13
-2.4152e-13
-3.49307e-13
-4.46158e-13
-5.34442e-13
-6.15207e-13
-6.89047e-13
-7.56366e-13
-8.17475e-13
-8.72646e-13
-9.22124e-13
-9.66146e-13
-1.00495e-12
-1.03875e-12
-1.06779e-12
-1.0923e-12
-1.1125e-12
-1.12862e-12
-1.14088e-12
-1.14951e-12
-1.15473e-12
-1.15675e-12
-1.15579e-12
-1.15204e-12
-1.14573e-12
-1.13703e-12
-1.12615e-12
-1.11327e-12
-1.09857e-12
-1.08222e-12
-1.0644e-12
-1.04526e-12
-1.02496e-12
-1.00365e-12
-9.81479e-13
-9.58577e-13
-9.35079e-13
-9.11107e-13
-8.86782e-13
-8.62215e-13
-8.37512e-13
-8.12772e-13
-7.88091e-13
-7.63556e-13
-7.39251e-13
-7.15254e-13
-6.91641e-13
-6.68485e-13
-6.45857e-13
-6.23829e-13
-6.02471e-13
-5.8186e-13
-5.62073e-13
-5.43191e-13
-5.25301e-13
-5.08489e-13
-4.9284e-13
-4.78437e-13
-4.65348e-13
-4.53625e-13
-4.4329e-13
-4.34331e-13
-4.26686e-13
-4.20243e-13
-4.14839e-13
-4.10279e-13
-4.06278e-13
-4.09852e-13
)
;
    }
    RightSide
    {
        type            cyclic;
        value           nonuniform List<scalar> 
100
(
-5.06572e-11
-1.9144e-12
7.58849e-12
5.47006e-12
3.94014e-12
2.69691e-12
1.68707e-12
8.77736e-13
2.05333e-13
-2.57229e-13
-5.7891e-13
-8.28576e-13
-1.01107e-12
-1.13643e-12
-1.21409e-12
-1.25198e-12
-1.25663e-12
-1.23345e-12
-1.18738e-12
-1.1232e-12
-1.04505e-12
-9.56495e-13
-8.60599e-13
-7.60009e-13
-6.57021e-13
-5.53644e-13
-4.51679e-13
-3.52792e-13
-2.5864e-13
-1.71101e-13
-9.35627e-14
6.2138e-15
1.13911e-13
2.4152e-13
3.49307e-13
4.46158e-13
5.34442e-13
6.15207e-13
6.89047e-13
7.56366e-13
8.17475e-13
8.72646e-13
9.22124e-13
9.66146e-13
1.00495e-12
1.03875e-12
1.06779e-12
1.0923e-12
1.1125e-12
1.12862e-12
1.14088e-12
1.14951e-12
1.15473e-12
1.15675e-12
1.15579e-12
1.15204e-12
1.14573e-12
1.13703e-12
1.12615e-12
1.11327e-12
1.09857e-12
1.08222e-12
1.0644e-12
1.04526e-12
1.02496e-12
1.00365e-12
9.81479e-13
9.58577e-13
9.35079e-13
9.11107e-13
8.86782e-13
8.62215e-13
8.37512e-13
8.12772e-13
7.88091e-13
7.63556e-13
7.39251e-13
7.15254e-13
6.91641e-13
6.68485e-13
6.45857e-13
6.23829e-13
6.02471e-13
5.8186e-13
5.62073e-13
5.43191e-13
5.25301e-13
5.08489e-13
4.9284e-13
4.78437e-13
4.65348e-13
4.53625e-13
4.4329e-13
4.34331e-13
4.26686e-13
4.20243e-13
4.14839e-13
4.10279e-13
4.06278e-13
4.09852e-13
)
;
    }
}


// ************************************************************************* //
