/*--------------------------------*- C++ -*----------------------------------*\
| =========                 |                                                 |
| \\      /  F ield         | OpenFOAM: The Open Source CFD Toolbox           |
|  \\    /   O peration     | Version:  2.4.0                                 |
|   \\  /    A nd           | Web:      www.OpenFOAM.org                      |
|    \\/     M anipulation  |                                                 |
\*---------------------------------------------------------------------------*/
FoamFile
{
    version     2.0;
    format      ascii;
    class       volVectorField;
    location    "0.3";
    object      U;
}
// * * * * * * * * * * * * * * * * * * * * * * * * * * * * * * * * * * * * * //

dimensions      [0 1 -1 0 0 0 0];

internalField   nonuniform List<vector> 
1000
(
(0.00299564 -0.0163538 0)
(-0.0304753 -0.00318924 0)
(-0.00200084 -0.013724 0)
(-1.59665e-08 8.86679e-05 0)
(0.00200084 -0.013724 0)
(0.0304753 -0.00318924 0)
(-0.0029957 -0.0163538 0)
(0.0433475 -0.00807871 0)
(3.59165e-11 0.000796296 0)
(-0.0433475 -0.00807871 0)
(0.00325027 -0.0178905 0)
(-0.0302102 -0.0098577 0)
(-0.0328221 -0.0220383 0)
(-2.39195e-08 4.7924e-05 0)
(0.0328221 -0.0220383 0)
(0.0302102 -0.00985767 0)
(-0.00325047 -0.0178905 0)
(-0.00248776 -0.0132781 0)
(3.07457e-11 -0.00154144 0)
(0.00248776 -0.0132781 0)
(0.00176488 -0.0154735 0)
(-0.0262742 -0.014215 0)
(-0.0271547 -0.0209987 0)
(-5.23885e-08 -0.00190587 0)
(0.0271547 -0.0209987 0)
(0.0262745 -0.0142149 0)
(-0.00176521 -0.0154735 0)
(-0.00224094 -0.0127722 0)
(1.52616e-09 -0.0100505 0)
(0.00224096 -0.0127722 0)
(0.000680813 -0.014084 0)
(-0.0226502 -0.00963573 0)
(-0.0224469 -0.020218 0)
(-1.15861e-07 -0.00318008 0)
(0.022447 -0.020218 0)
(0.0226506 -0.0096357 0)
(-0.000681269 -0.014084 0)
(-0.00231255 -0.0118715 0)
(1.56607e-08 -0.0154273 0)
(0.00231259 -0.0118715 0)
(-0.000149783 -0.013597 0)
(-0.0193303 -0.00867004 0)
(-0.0185407 -0.0203605 0)
(-1.72966e-07 -0.00360198 0)
(0.0185407 -0.0203606 0)
(0.0193309 -0.00866999 0)
(0.00014923 -0.013597 0)
(-0.00225549 -0.0116821 0)
(2.73866e-08 -0.0109676 0)
(0.00225555 -0.0116821 0)
(-0.000789633 -0.0133096 0)
(-0.016306 -0.00846634 0)
(-0.0152957 -0.0207257 0)
(-2.22776e-07 -0.00412669 0)
(0.0152957 -0.0207258 0)
(0.0163067 -0.00846628 0)
(0.000789003 -0.0133095 0)
(-0.00217845 -0.0117091 0)
(3.67527e-08 -0.0103776 0)
(0.00217853 -0.011709 0)
(-0.00128104 -0.01303 0)
(-0.0135626 -0.0083648 0)
(-0.0126038 -0.0210241 0)
(-2.64547e-07 -0.00463408 0)
(0.0126038 -0.0210242 0)
(0.0135634 -0.00836473 0)
(0.00128035 -0.01303 0)
(-0.00210517 -0.0117271 0)
(4.40358e-08 -0.010538 0)
(0.00210527 -0.0117271 0)
(-0.00165367 -0.0127667 0)
(-0.0110832 -0.00822152 0)
(-0.0103768 -0.0212421 0)
(-2.97773e-07 -0.00506908 0)
(0.0103769 -0.0212422 0)
(0.0110842 -0.00822143 0)
(0.00165294 -0.0127666 0)
(-0.00204075 -0.011711 0)
(4.94925e-08 -0.0107389 0)
(0.00204087 -0.011711 0)
(-0.00193176 -0.0125409 0)
(-0.00885025 -0.00808894 0)
(-0.00853831 -0.0214093 0)
(-3.22199e-07 -0.00542639 0)
(0.00853834 -0.0214094 0)
(0.00885127 -0.00808884 0)
(0.00193101 -0.0125408 0)
(-0.00198287 -0.0116798 0)
(5.33645e-08 -0.0108373 0)
(0.00198302 -0.0116798 0)
(-0.00213503 -0.0123553 0)
(-0.00684619 -0.00798987 0)
(-0.00702277 -0.0215398 0)
(-3.37809e-07 -0.00572135 0)
(0.00702279 -0.02154 0)
(0.00684725 -0.00798976 0)
(0.00213427 -0.0123553 0)
(-0.00193029 -0.0116439 0)
(5.5877e-08 -0.0109009 0)
(0.00193046 -0.0116438 0)
(-0.00227926 -0.0122055 0)
(-0.0050541 -0.00792196 0)
(-0.00577496 -0.0216376 0)
(-3.44812e-07 -0.0059671 0)
(0.00577497 -0.0216378 0)
(0.00505519 -0.00792184 0)
(0.0022785 -0.0122054 0)
(-0.00188269 -0.0116058 0)
(5.71583e-08 -0.0109629 0)
(0.00188287 -0.0116057 0)
(-0.00237688 -0.0120869 0)
(-0.00345775 -0.00787784 0)
(-0.00474852 -0.0217051 0)
(-3.43625e-07 -0.00617264 0)
(0.00474852 -0.0217053 0)
(0.00345884 -0.0078777 0)
(0.00237615 -0.0120868 0)
(-0.0018399 -0.0115658 0)
(5.73755e-08 -0.0110274 0)
(0.00184011 -0.0115657 0)
(-0.00243771 -0.0119963 0)
(-0.00204168 -0.00785206 0)
(-0.00390469 -0.021745 0)
(-3.34843e-07 -0.00634475 0)
(0.00390468 -0.0217453 0)
(0.00204275 -0.00785191 0)
(0.002437 -0.0119962 0)
(-0.0018017 -0.0115243 0)
(5.66867e-08 -0.011092 0)
(0.00180192 -0.0115242 0)
(-0.00246939 -0.0119308 0)
(-0.00079133 -0.00784093 0)
(-0.00321116 -0.0217604 0)
(-3.19209e-07 -0.00648903 0)
(0.00321114 -0.0217607 0)
(0.000792363 -0.00784076 0)
(0.00246872 -0.0119307 0)
(-0.00176775 -0.0114817 0)
(5.52293e-08 -0.0111557 0)
(0.001768 -0.0114816 0)
(-0.00247793 -0.0118879 0)
(0.000307014 -0.00784135 0)
(-0.00264106 -0.0217542 0)
(-2.97579e-07 -0.00661017 0)
(0.00264102 -0.0217545 0)
(-0.000306033 -0.00784117 0)
(0.0024773 -0.0118877 0)
(-0.00173771 -0.0114386 0)
(5.31211e-08 -0.0112184 0)
(0.00173798 -0.0114384 0)
(-0.00246796 -0.0118651 0)
(0.00126617 -0.00785041 0)
(-0.00217215 -0.0217293 0)
(-2.70886e-07 -0.0067121 0)
(0.00217211 -0.0217297 0)
(-0.00126525 -0.00785022 0)
(0.0024674 -0.0118649 0)
(-0.00171121 -0.0113951 0)
(5.04624e-08 -0.0112804 0)
(0.00171148 -0.011395 0)
(-0.00244309 -0.0118605 0)
(0.00209812 -0.00786614 0)
(-0.00178614 -0.0216879 0)
(-2.40114e-07 -0.00679804 0)
(0.00178609 -0.0216882 0)
(-0.00209727 -0.00786594 0)
(0.00244258 -0.0118603 0)
(-0.00168784 -0.0113518 0)
(4.73385e-08 -0.0113418 0)
(0.00168813 -0.0113516 0)
(-0.00240607 -0.0118718 0)
(0.00281431 -0.00788815 0)
(-0.00146822 -0.0216307 0)
(-2.06334e-07 -0.00687064 0)
(0.00146815 -0.0216311 0)
(-0.00281355 -0.00788794 0)
(0.00240563 -0.0118716 0)
(-0.00166722 -0.0113088 0)
(4.38212e-08 -0.0114027 0)
(0.00166752 -0.0113086 0)
(-0.00235938 -0.0118962 0)
(0.00342607 -0.00791607 0)
(-0.00120663 -0.0215598 0)
(-1.70554e-07 -0.0069321 0)
(0.00120655 -0.0215602 0)
(-0.0034254 -0.00791586 0)
(0.00235899 -0.011896 0)
(-0.00164896 -0.0112664 0)
(3.99716e-08 -0.0114633 0)
(0.00164927 -0.0112662 0)
(-0.00230535 -0.0119317 0)
(0.00394418 -0.0079488 0)
(-0.000991679 -0.0214772 0)
(-1.33738e-07 -0.00698426 0)
(0.000991584 -0.0214776 0)
(-0.0039436 -0.00794857 0)
(0.00230503 -0.0119314 0)
(-0.0016327 -0.0112247 0)
(3.58418e-08 -0.0115236 0)
(0.00163301 -0.0112244 0)
(-0.00224594 -0.0119768 0)
(0.00437861 -0.00798496 0)
(-0.00081542 -0.0213846 0)
(-9.67792e-08 -0.00702867 0)
(0.000815313 -0.021385 0)
(-0.00437812 -0.00798473 0)
(0.00224567 -0.0119765 0)
(-0.00161811 -0.0111837 0)
(3.1477e-08 -0.0115837 0)
(0.00161843 -0.0111835 0)
(-0.00218271 -0.0120302 0)
(0.00473848 -0.00802357 0)
(-0.000671329 -0.0212835 0)
(-6.04831e-08 -0.00706661 0)
(0.000671209 -0.021284 0)
(-0.00473808 -0.00802334 0)
(0.0021825 -0.01203 0)
(-0.00160488 -0.0111438 0)
(2.69179e-08 -0.0116436 0)
(0.0016052 -0.0111435 0)
(-0.00211697 -0.0120908 0)
(0.00503212 -0.00806391 0)
(-0.000554041 -0.0211754 0)
(-2.55499e-08 -0.00709917 0)
(0.000553909 -0.0211759 0)
(-0.00503181 -0.00806368 0)
(0.00211682 -0.0120906 0)
(-0.00159272 -0.0111048 0)
(2.22019e-08 -0.0117034 0)
(0.00159304 -0.0111045 0)
(-0.00204977 -0.0121574 0)
(0.00526711 -0.00810543 0)
(-0.000459141 -0.0210614 0)
(7.43405e-09 -0.00712729 0)
(0.000458999 -0.0210619 0)
(-0.00526688 -0.0081052 0)
(0.00204967 -0.0121572 0)
(-0.00158136 -0.0110668 0)
(1.73646e-08 -0.0117631 0)
(0.00158167 -0.0110666 0)
(-0.00198197 -0.0122289 0)
(0.00545026 -0.00814767 0)
(-0.000382986 -0.0209425 0)
(3.80004e-08 -0.00715175 0)
(0.000382835 -0.020943 0)
(-0.00545011 -0.00814745 0)
(0.00198192 -0.0122287 0)
(-0.00157055 -0.0110299 0)
(1.24408e-08 -0.0118227 0)
(0.00157086 -0.0110297 0)
(-0.00191426 -0.0123045 0)
(0.00558772 -0.00819027 0)
(-0.000322556 -0.0208196 0)
(6.57987e-08 -0.00717323 0)
(0.000322398 -0.0208201 0)
(-0.00558764 -0.00819005 0)
(0.00191425 -0.0123043 0)
(-0.00156009 -0.0109941 0)
(7.46525e-09 -0.0118823 0)
(0.00156039 -0.0109938 0)
(-0.00184719 -0.0123833 0)
(0.00568502 -0.00823292 0)
(-0.000275345 -0.0206937 0)
(9.05918e-08 -0.00719232 0)
(0.00027518 -0.0206942 0)
(-0.00568501 -0.0082327 0)
(0.0018472 -0.0123831 0)
(-0.00154976 -0.0109593 0)
(2.47298e-09 -0.0119418 0)
(0.00155005 -0.010959 0)
(-0.00178118 -0.0124645 0)
(0.00574709 -0.00827536 0)
(-0.000239256 -0.0205654 0)
(1.12249e-07 -0.00720953 0)
(0.000239087 -0.0205658 0)
(-0.00574714 -0.00827514 0)
(0.00178122 -0.0124643 0)
(-0.00153941 -0.0109255 0)
(-2.50029e-09 -0.0120013 0)
(0.00153968 -0.0109253 0)
(-0.00171657 -0.0125477 0)
(0.00577836 -0.0083174 0)
(-0.000212533 -0.0204353 0)
(1.30734e-07 -0.00722529 0)
(0.000212361 -0.0204358 0)
(-0.00577846 -0.00831719 0)
(0.00171664 -0.0125475 0)
(-0.00152887 -0.0108928 0)
(-7.41733e-09 -0.0120607 0)
(0.00152913 -0.0108925 0)
(-0.00165362 -0.0126322 0)
(0.00578275 -0.00835887 0)
(-0.000193693 -0.0203041 0)
(1.46096e-07 -0.00724 0)
(0.000193518 -0.0203046 0)
(-0.00578289 -0.00835866 0)
(0.00165372 -0.0126321 0)
(-0.00151801 -0.0108609 0)
(-1.22446e-08 -0.0121201 0)
(0.00151826 -0.0108607 0)
(-0.00159253 -0.0127177 0)
(0.00576378 -0.00839962 0)
(-0.000181475 -0.0201723 0)
(1.58452e-07 -0.00725399 0)
(0.0001813 -0.0201727 0)
(-0.00576397 -0.00839942 0)
(0.00159264 -0.0127175 0)
(-0.00150673 -0.01083 0)
(-1.69289e-08 -0.0121794 0)
(0.00150696 -0.0108297 0)
(-0.00153343 -0.0128035 0)
(0.00572458 -0.00843956 0)
(-0.000174807 -0.0200402 0)
(1.67975e-07 -0.00726756 0)
(0.000174632 -0.0200407 0)
(-0.0057248 -0.00843937 0)
(0.00153355 -0.0128033 0)
(-0.00149491 -0.0107999 0)
(-2.12956e-08 -0.0122385 0)
(0.00149513 -0.0107997 0)
(-0.00147641 -0.012889 0)
(0.00566793 -0.0084786 0)
(-0.000172765 -0.0199084 0)
(1.74881e-07 -0.00728097 0)
(0.000172592 -0.0199088 0)
(-0.00566817 -0.00847841 0)
(0.00147654 -0.0128888 0)
(-0.00148249 -0.010771 0)
(-2.55073e-08 -0.0122976 0)
(0.00148269 -0.0107707 0)
(-0.00142155 -0.0129738 0)
(0.00559629 -0.00851667 0)
(-0.000174554 -0.019777 0)
(1.79411e-07 -0.00729442 0)
(0.000174385 -0.0197774 0)
(-0.00559656 -0.00851649 0)
(0.00142169 -0.0129736 0)
(-0.00146943 -0.0107433 0)
(-2.96222e-08 -0.0123565 0)
(0.00146961 -0.0107431 0)
(-0.00136889 -0.0130574 0)
(0.00551186 -0.00855372 0)
(-0.000179486 -0.0196465 0)
(1.81825e-07 -0.0073081 0)
(0.00017932 -0.0196469 0)
(-0.00551214 -0.00855354 0)
(0.00136903 -0.0130573 0)
(-0.00145569 -0.0107169 0)
(-3.35839e-08 -0.0124152 0)
(0.00145585 -0.0107167 0)
(-0.00131843 -0.0131398 0)
(0.00541658 -0.00858971 0)
(-0.00018696 -0.0195171 0)
(1.82388e-07 -0.00732216 0)
(0.000186799 -0.0195175 0)
(-0.00541688 -0.00858954 0)
(0.00131857 -0.0131396 0)
(-0.00144127 -0.0106917 0)
(-3.73521e-08 -0.0124736 0)
(0.00144141 -0.0106915 0)
(-0.00127015 -0.0132207 0)
(0.00531219 -0.00862462 0)
(-0.000196455 -0.0193891 0)
(1.8136e-07 -0.00733671 0)
(0.000196299 -0.0193895 0)
(-0.0053125 -0.00862446 0)
(0.00127029 -0.0132206 0)
(-0.00142614 -0.0106675 0)
(-4.09016e-08 -0.0125319 0)
(0.00142627 -0.0106673 0)
(-0.00122401 -0.0133 0)
(0.00520023 -0.00865844 0)
(-0.000207515 -0.0192626 0)
(1.78992e-07 -0.00735187 0)
(0.000207364 -0.019263 0)
(-0.00520053 -0.00865828 0)
(0.00122414 -0.0132999 0)
(-0.0014103 -0.0106443 0)
(-4.42154e-08 -0.0125898 0)
(0.00141041 -0.0106441 0)
(-0.00117994 -0.0133776 0)
(0.00508205 -0.00869116 0)
(-0.000219741 -0.0191378 0)
(1.75517e-07 -0.0073677 0)
(0.000219596 -0.0191382 0)
(-0.00508236 -0.008691 0)
(0.00118007 -0.0133775 0)
(-0.00139374 -0.0106221 0)
(-4.7281e-08 -0.0126473 0)
(0.00139383 -0.0106218 0)
(-0.00113789 -0.0134534 0)
(0.00495889 -0.00872277 0)
(-0.000232785 -0.019015 0)
(1.71149e-07 -0.00738426 0)
(0.000232647 -0.0190153 0)
(-0.00495919 -0.00872263 0)
(0.00113801 -0.0134533 0)
(-0.00137648 -0.0106007 0)
(-5.00893e-08 -0.0127046 0)
(0.00137655 -0.0106005 0)
(-0.00109777 -0.0135271 0)
(0.0048318 -0.0087533 0)
(-0.000246346 -0.0188941 0)
(1.6608e-07 -0.00740159 0)
(0.000246213 -0.0188944 0)
(-0.0048321 -0.00875316 0)
(0.00109789 -0.013527 0)
(-0.00135851 -0.0105802 0)
(-5.26348e-08 -0.0127614 0)
(0.00135857 -0.01058 0)
(-0.0010595 -0.0135989 0)
(0.00470175 -0.00878275 0)
(-0.000260159 -0.0187754 0)
(1.60477e-07 -0.00741972 0)
(0.000260033 -0.0187757 0)
(-0.00470205 -0.00878261 0)
(0.00105961 -0.0135988 0)
(-0.00133986 -0.0105604 0)
(-5.4915e-08 -0.0128177 0)
(0.00133991 -0.0105602 0)
(-0.001023 -0.0136685 0)
(0.00456958 -0.00881113 0)
(-0.000273998 -0.018659 0)
(1.54485e-07 -0.00743865 0)
(0.000273878 -0.0186593 0)
(-0.00456987 -0.008811 0)
(0.00102311 -0.0136684 0)
(-0.00132054 -0.0105415 0)
(-5.69307e-08 -0.0128736 0)
(0.00132058 -0.0105413 0)
(-0.000988182 -0.0137359 0)
(0.00443604 -0.00883847 0)
(-0.000287667 -0.0185448 0)
(1.48226e-07 -0.00745839 0)
(0.000287553 -0.0185451 0)
(-0.00443632 -0.00883835 0)
(0.000988282 -0.0137359 0)
(-0.00130058 -0.0105232 0)
(-5.86852e-08 -0.012929 0)
(0.00130061 -0.0105231 0)
(-0.000954957 -0.0138012 0)
(0.00430178 -0.0088648 0)
(-0.000300999 -0.0184331 0)
(1.41801e-07 -0.00747893 0)
(0.000300891 -0.0184334 0)
(-0.00430205 -0.00886468 0)
(0.000955051 -0.0138012 0)
(-0.00128001 -0.0105057 0)
(-6.0184e-08 -0.0129838 0)
(0.00128003 -0.0105055 0)
(-0.000923239 -0.0138643 0)
(0.00416737 -0.00889013 0)
(-0.000313855 -0.0183238 0)
(1.35292e-07 -0.00750026 0)
(0.000313753 -0.0183241 0)
(-0.00416763 -0.00889002 0)
(0.000923325 -0.0138642 0)
(-0.00125886 -0.0104888 0)
(-6.14349e-08 -0.013038 0)
(0.00125887 -0.0104886 0)
(-0.00089294 -0.0139251 0)
(0.00403332 -0.0089145 0)
(-0.000326117 -0.018217 0)
(1.28765e-07 -0.00752235 0)
(0.00032602 -0.0182172 0)
(-0.00403358 -0.00891439 0)
(0.00089302 -0.0139251 0)
(-0.00123717 -0.0104725 0)
(-6.24472e-08 -0.0130917 0)
(0.00123717 -0.0104724 0)
(-0.000863976 -0.0139837 0)
(0.00390008 -0.00893793 0)
(-0.000337687 -0.0181128 0)
(1.2227e-07 -0.00754518 0)
(0.000337595 -0.018113 0)
(-0.00390032 -0.00893782 0)
(0.00086405 -0.0139837 0)
(-0.00121496 -0.0104569 0)
(-6.32317e-08 -0.0131446 0)
(0.00121495 -0.0104567 0)
(-0.000836266 -0.0140402 0)
(0.00376802 -0.00896045 0)
(-0.000348488 -0.018011 0)
(1.15846e-07 -0.0075687 0)
(0.000348402 -0.0180112 0)
(-0.00376825 -0.00896035 0)
(0.000836334 -0.0140401 0)
(-0.00119229 -0.0104418 0)
(-6.38002e-08 -0.0131969 0)
(0.00119227 -0.0104416 0)
(-0.00080973 -0.0140944 0)
(0.00363747 -0.00898209 0)
(-0.000358459 -0.0179119 0)
(1.09521e-07 -0.00759289 0)
(0.000358377 -0.017912 0)
(-0.00363769 -0.00898199 0)
(0.000809793 -0.0140943 0)
(-0.00116918 -0.0104272 0)
(-6.41653e-08 -0.0132484 0)
(0.00116916 -0.0104271 0)
(-0.000784294 -0.0141464 0)
(0.00350873 -0.00900289 0)
(-0.000367552 -0.0178153 0)
(1.03317e-07 -0.0076177 0)
(0.000367475 -0.0178154 0)
(-0.00350894 -0.00900279 0)
(0.000784351 -0.0141464 0)
(-0.00114568 -0.0104132 0)
(-6.43404e-08 -0.0132992 0)
(0.00114565 -0.010413 0)
(-0.000759883 -0.0141963 0)
(0.00338202 -0.00902286 0)
(-0.000375736 -0.0177212 0)
(9.72457e-08 -0.0076431 0)
(0.000375663 -0.0177214 0)
(-0.00338222 -0.00902277 0)
(0.000759935 -0.0141963 0)
(-0.00112183 -0.0103996 0)
(-6.43391e-08 -0.0133493 0)
(0.0011218 -0.0103995 0)
(-0.00073643 -0.0142441 0)
(0.00325757 -0.00904206 0)
(-0.000382987 -0.0176297 0)
(9.13178e-08 -0.00766902 0)
(0.000382919 -0.0176299 0)
(-0.00325776 -0.00904197 0)
(0.000736478 -0.0142441 0)
(-0.00109768 -0.0103865 0)
(-6.41751e-08 -0.0133985 0)
(0.00109764 -0.0103864 0)
(-0.00071387 -0.0142898 0)
(0.00313554 -0.00906049 0)
(-0.000389296 -0.0175408 0)
(8.5538e-08 -0.00769543 0)
(0.00038923 -0.0175409 0)
(-0.00313572 -0.00906041 0)
(0.000713913 -0.0142898 0)
(-0.00107326 -0.0103739 0)
(-6.38624e-08 -0.0134469 0)
(0.00107322 -0.0103738 0)
(-0.00069214 -0.0143336 0)
(0.00301607 -0.0090782 0)
(-0.000394658 -0.0174544 0)
(7.9909e-08 -0.00772228 0)
(0.000394596 -0.0174545 0)
(-0.00301624 -0.00907812 0)
(0.000692179 -0.0143336 0)
(-0.00104861 -0.0103617 0)
(-6.34146e-08 -0.0134944 0)
(0.00104857 -0.0103615 0)
(-0.000671183 -0.0143753 0)
(0.00289929 -0.00909521 0)
(-0.000399079 -0.0173705 0)
(7.44316e-08 -0.00774952 0)
(0.00039902 -0.0173706 0)
(-0.00289945 -0.00909513 0)
(0.000671218 -0.0143753 0)
(-0.00102379 -0.0103499 0)
(-6.28453e-08 -0.0135411 0)
(0.00102374 -0.0103498 0)
(-0.000650944 -0.0144151 0)
(0.00278528 -0.00911155 0)
(-0.000402571 -0.0172891 0)
(6.91053e-08 -0.00777709 0)
(0.000402515 -0.0172892 0)
(-0.00278544 -0.00911148 0)
(0.000650976 -0.0144151 0)
(-0.000998822 -0.0103385 0)
(-6.21674e-08 -0.0135869 0)
(0.000998775 -0.0103383 0)
(-0.000631374 -0.014453 0)
(0.00267413 -0.00912725 0)
(-0.000405153 -0.0172101 0)
(6.3929e-08 -0.00780496 0)
(0.000405099 -0.0172102 0)
(-0.00267427 -0.00912717 0)
(0.000631402 -0.014453 0)
(-0.000973757 -0.0103274 0)
(-6.13936e-08 -0.0136318 0)
(0.000973709 -0.0103273 0)
(-0.000612424 -0.0144891 0)
(0.00256587 -0.00914233 0)
(-0.000406845 -0.0171335 0)
(5.89008e-08 -0.00783306 0)
(0.000406794 -0.0171336 0)
(-0.00256601 -0.00914225 0)
(0.000612449 -0.0144891 0)
(-0.000948633 -0.0103168 0)
(-6.0536e-08 -0.0136758 0)
(0.000948584 -0.0103167 0)
(-0.000594052 -0.0145235 0)
(0.00246056 -0.00915681 0)
(-0.000407676 -0.0170594 0)
(5.40189e-08 -0.00786135 0)
(0.000407628 -0.0170595 0)
(-0.00246069 -0.00915674 0)
(0.000594074 -0.0145235 0)
(-0.000923489 -0.0103064 0)
(-5.96059e-08 -0.0137189 0)
(0.00092344 -0.0103063 0)
(-0.000576217 -0.0145561 0)
(0.00235822 -0.00917073 0)
(-0.000407676 -0.0169875 0)
(4.92812e-08 -0.00788979 0)
(0.000407629 -0.0169876 0)
(-0.00235834 -0.00917066 0)
(0.000576236 -0.0145561 0)
(-0.000898363 -0.0102965 0)
(-5.86141e-08 -0.0137609 0)
(0.000898314 -0.0102964 0)
(-0.000558881 -0.0145871 0)
(0.00225885 -0.0091841 0)
(-0.000406877 -0.016918 0)
(4.46856e-08 -0.00791831 0)
(0.000406832 -0.0169181 0)
(-0.00225897 -0.00918403 0)
(0.000558897 -0.0145871 0)
(-0.000873293 -0.0102868 0)
(-5.75704e-08 -0.0138021 0)
(0.000873244 -0.0102867 0)
(-0.00054201 -0.0146164 0)
(0.00216247 -0.00919695 0)
(-0.000405316 -0.0168508 0)
(4.02299e-08 -0.00794689 0)
(0.000405272 -0.0168509 0)
(-0.00216258 -0.00919688 0)
(0.000542024 -0.0146164 0)
(-0.000848314 -0.0102774 0)
(-5.64834e-08 -0.0138423 0)
(0.000848265 -0.0102773 0)
(-0.000525574 -0.0146442 0)
(0.00206906 -0.0092093 0)
(-0.000403029 -0.0167858 0)
(3.59118e-08 -0.00797547 0)
(0.000402987 -0.0167859 0)
(-0.00206917 -0.00920923 0)
(0.000525586 -0.0146443 0)
(-0.000823462 -0.0102684 0)
(-5.5361e-08 -0.0138815 0)
(0.000823414 -0.0102683 0)
(-0.000509544 -0.0146706 0)
(0.00197861 -0.00922116 0)
(-0.000400056 -0.016723 0)
(3.17286e-08 -0.00800401 0)
(0.000400015 -0.016723 0)
(-0.00197871 -0.0092211 0)
(0.000509554 -0.0146706 0)
(-0.00079877 -0.0102596 0)
(-5.42094e-08 -0.0139197 0)
(0.000798723 -0.0102595 0)
(-0.000493895 -0.0146955 0)
(0.0018911 -0.00923256 0)
(-0.000396437 -0.0166623 0)
(2.76773e-08 -0.00803246 0)
(0.000396397 -0.0166623 0)
(-0.00189119 -0.0092325 0)
(0.000493902 -0.0146955 0)
(-0.000774271 -0.0102511 0)
(-5.30338e-08 -0.013957 0)
(0.000774225 -0.0102511 0)
(-0.000478603 -0.014719 0)
(0.00180649 -0.00924351 0)
(-0.000392212 -0.0166037 0)
(2.37545e-08 -0.00806079 0)
(0.000392174 -0.0166038 0)
(-0.00180658 -0.00924345 0)
(0.000478608 -0.014719 0)
(-0.000749997 -0.0102429 0)
(-5.18376e-08 -0.0139932 0)
(0.000749952 -0.0102428 0)
(-0.000463648 -0.0147412 0)
(0.00172475 -0.00925404 0)
(-0.000387425 -0.0165472 0)
(1.99558e-08 -0.00808895 0)
(0.000387388 -0.0165472 0)
(-0.00172483 -0.00925398 0)
(0.000463651 -0.0147412 0)
(-0.000725977 -0.010235 0)
(-5.06222e-08 -0.0140285 0)
(0.000725934 -0.0102349 0)
(-0.000449012 -0.0147622 0)
(0.00164585 -0.00926415 0)
(-0.000382117 -0.0164927 0)
(1.62763e-08 -0.00811691 0)
(0.00038208 -0.0164927 0)
(-0.00164593 -0.00926409 0)
(0.000449014 -0.0147622 0)
(-0.000702241 -0.0102273 0)
(-4.93875e-08 -0.0140629 0)
(0.000702199 -0.0102272 0)
(-0.000434681 -0.0147819 0)
(0.00156974 -0.00927386 0)
(-0.000376331 -0.0164401 0)
(1.27096e-08 -0.00814464 0)
(0.000376295 -0.0164402 0)
(-0.00156982 -0.00927381 0)
(0.000434681 -0.0147819 0)
(-0.000678817 -0.0102198 0)
(-4.8131e-08 -0.0140962 0)
(0.000678776 -0.0102198 0)
(-0.000420641 -0.0148005 0)
(0.00149638 -0.00928319 0)
(-0.00037011 -0.0163895 0)
(9.2485e-09 -0.00817209 0)
(0.000370074 -0.0163896 0)
(-0.00149646 -0.00928313 0)
(0.000420639 -0.0148005 0)
(-0.00065573 -0.0102126 0)
(-4.6848e-08 -0.0141286 0)
(0.000655692 -0.0102126 0)
(-0.00040688 -0.0148179 0)
(0.00142573 -0.00929215 0)
(-0.000363498 -0.0163408 0)
(5.88413e-09 -0.00819924 0)
(0.000363462 -0.0163408 0)
(-0.00142581 -0.00929209 0)
(0.000406878 -0.014818 0)
(-0.000633008 -0.0102057 0)
(-4.55315e-08 -0.01416 0)
(0.000632972 -0.0102056 0)
(-0.000393391 -0.0148344 0)
(0.00135774 -0.00930074 0)
(-0.000356538 -0.0162939 0)
(2.60635e-09 -0.00822606 0)
(0.000356502 -0.0162939 0)
(-0.00135781 -0.00930069 0)
(0.000393387 -0.0148344 0)
(-0.000610674 -0.0101989 0)
(-4.41723e-08 -0.0141905 0)
(0.00061064 -0.0101989 0)
(-0.000380166 -0.0148498 0)
(0.00129237 -0.00930899 0)
(-0.000349274 -0.0162487 0)
(-5.9643e-10 -0.00825252 0)
(0.000349238 -0.0162488 0)
(-0.00129243 -0.00930894 0)
(0.000380162 -0.0148498 0)
(-0.000588752 -0.0101924 0)
(-4.27588e-08 -0.01422 0)
(0.00058872 -0.0101924 0)
(-0.000367202 -0.0148642 0)
(0.00122955 -0.0093169 0)
(-0.000341751 -0.0162053 0)
(-3.73715e-09 -0.00827859 0)
(0.000341715 -0.0162054 0)
(-0.00122962 -0.00931685 0)
(0.000367196 -0.0148642 0)
(-0.000567264 -0.0101861 0)
(-4.12775e-08 -0.0142486 0)
(0.000567234 -0.0101861 0)
(-0.000354493 -0.0148778 0)
(0.00116925 -0.00932448 0)
(-0.000334014 -0.0161636 0)
(-6.82982e-09 -0.00830426 0)
(0.000333977 -0.0161637 0)
(-0.00116931 -0.00932443 0)
(0.000354487 -0.0148778 0)
(-0.000546231 -0.01018 0)
(-3.97134e-08 -0.0142763 0)
(0.000546204 -0.01018 0)
(-0.000342041 -0.0148904 0)
(0.00111141 -0.00933174 0)
(-0.000326107 -0.0161236 0)
(-9.8892e-09 -0.00832949 0)
(0.000326068 -0.0161236 0)
(-0.00111148 -0.00933169 0)
(0.000342034 -0.0148905 0)
(-0.000525675 -0.0101742 0)
(-3.80504e-08 -0.0143031 0)
(0.000525651 -0.0101741 0)
(-0.000329844 -0.0149023 0)
(0.001056 -0.00933869 0)
(-0.000318076 -0.0160851 0)
(-1.29302e-08 -0.00835428 0)
(0.000318036 -0.0160851 0)
(-0.00105606 -0.00933864 0)
(0.000329837 -0.0149023 0)
(-0.000505616 -0.0101685 0)
(-3.62723e-08 -0.014329 0)
(0.000505595 -0.0101684 0)
(-0.000317904 -0.0149134 0)
(0.00100296 -0.00934533 0)
(-0.000309967 -0.0160482 0)
(-1.59671e-08 -0.00837861 0)
(0.000309924 -0.0160482 0)
(-0.00100302 -0.00934529 0)
(0.000317898 -0.0149134 0)
(-0.000486073 -0.010163 0)
(-3.43635e-08 -0.014354 0)
(0.000486056 -0.0101629 0)
(-0.000306225 -0.0149237 0)
(0.000952255 -0.00935168 0)
(-0.000301825 -0.0160127 0)
(-1.90129e-08 -0.00840246 0)
(0.00030178 -0.0160128 0)
(-0.000952315 -0.00935163 0)
(0.000306218 -0.0149237 0)
(-0.000467066 -0.0101577 0)
(-3.23103e-08 -0.0143782 0)
(0.000467052 -0.0101577 0)
(-0.000294809 -0.0149334 0)
(0.000903837 -0.00935773 0)
(-0.000293696 -0.0159788 0)
(-2.20777e-08 -0.00842583 0)
(0.000293649 -0.0159788 0)
(-0.000903898 -0.00935769 0)
(0.000294803 -0.0149334 0)
(-0.000448613 -0.0101526 0)
(-3.01022e-08 -0.0144015 0)
(0.000448603 -0.0101526 0)
(-0.000283661 -0.0149424 0)
(0.000857672 -0.00936349 0)
(-0.000285627 -0.0159462 0)
(-2.51683e-08 -0.00844871 0)
(0.000285576 -0.0159463 0)
(-0.000857732 -0.00936345 0)
(0.000283656 -0.0149424 0)
(-0.000430734 -0.0101477 0)
(-2.77332e-08 -0.0144241 0)
(0.000430728 -0.0101476 0)
(-0.000272786 -0.0149508 0)
(0.000813725 -0.00936897 0)
(-0.000277662 -0.015915 0)
(-2.82863e-08 -0.0084711 0)
(0.000277606 -0.0159151 0)
(-0.000813785 -0.00936893 0)
(0.000272783 -0.0149508 0)
(-0.000413449 -0.0101429 0)
(-2.52032e-08 -0.0144458 0)
(0.000413447 -0.0101429 0)
(-0.000262192 -0.0149586 0)
(0.000771968 -0.00937416 0)
(-0.000269845 -0.0158851 0)
(-3.14274e-08 -0.00849298 0)
(0.000269785 -0.0158852 0)
(-0.000772029 -0.00937412 0)
(0.00026219 -0.0149586 0)
(-0.000396779 -0.0101384 0)
(-2.25191e-08 -0.0144668 0)
(0.000396782 -0.0101383 0)
(-0.000251884 -0.0149659 0)
(0.000732378 -0.00937908 0)
(-0.000262219 -0.0158565 0)
(-3.45806e-08 -0.00851438 0)
(0.000262153 -0.0158566 0)
(-0.000732439 -0.00937904 0)
(0.000251885 -0.0149659 0)
(-0.000380747 -0.0101339 0)
(-1.96961e-08 -0.0144871 0)
(0.000380754 -0.0101339 0)
(-0.000241871 -0.0149727 0)
(0.000694938 -0.00938371 0)
(-0.000254824 -0.0158291 0)
(-3.7727e-08 -0.00853528 0)
(0.000254753 -0.0158292 0)
(-0.000695 -0.00938368 0)
(0.000241874 -0.0149727 0)
(-0.000365377 -0.0101297 0)
(-1.67575e-08 -0.0145067 0)
(0.000365388 -0.0101296 0)
(-0.000232165 -0.014979 0)
(0.000659642 -0.00938807 0)
(-0.000247698 -0.0158029 0)
(-4.08405e-08 -0.00855571 0)
(0.000247622 -0.0158029 0)
(-0.000659705 -0.00938804 0)
(0.00023217 -0.014979 0)
(-0.000350695 -0.0101256 0)
(-1.3736e-08 -0.0145256 0)
(0.000350712 -0.0101255 0)
(-0.000222777 -0.0149849 0)
(0.000626491 -0.00939215 0)
(-0.000240878 -0.0157777 0)
(-4.38879e-08 -0.00857566 0)
(0.000240796 -0.0157778 0)
(-0.000626556 -0.00939213 0)
(0.000222786 -0.0149849 0)
(-0.000336733 -0.0101216 0)
(-1.06719e-08 -0.0145438 0)
(0.000336754 -0.0101215 0)
(-0.000213726 -0.0149904 0)
(0.000595497 -0.00939596 0)
(-0.000234395 -0.0157537 0)
(-4.68299e-08 -0.00859516 0)
(0.000234307 -0.0157537 0)
(-0.000595563 -0.00939594 0)
(0.000213737 -0.0149905 0)
(-0.000323523 -0.0101178 0)
(-7.61293e-09 -0.0145615 0)
(0.000323549 -0.0101177 0)
(-0.000205034 -0.0149956 0)
(0.000566684 -0.00939949 0)
(-0.00022828 -0.0157306 0)
(-4.96236e-08 -0.00861422 0)
(0.000228185 -0.0157306 0)
(-0.000566752 -0.00939947 0)
(0.000205048 -0.0149956 0)
(-0.000311103 -0.0101141 0)
(-4.61195e-09 -0.0145786 0)
(0.000311135 -0.010114 0)
(-0.000196731 -0.0150004 0)
(0.000540088 -0.00940275 0)
(-0.000222558 -0.0157085 0)
(-5.22244e-08 -0.00863285 0)
(0.000222458 -0.0157085 0)
(-0.000540157 -0.00940273 0)
(0.000196748 -0.0150005 0)
(-0.000299516 -0.0101105 0)
(-1.72463e-09 -0.0145952 0)
(0.000299552 -0.0101104 0)
(-0.000188857 -0.0150049 0)
(0.000515756 -0.00940573 0)
(-0.000217256 -0.0156872 0)
(-5.45892e-08 -0.00865108 0)
(0.00021715 -0.0156873 0)
(-0.000515827 -0.00940572 0)
(0.000188877 -0.015005 0)
(-0.000288809 -0.010107 0)
(9.93379e-10 -0.0146113 0)
(0.000288849 -0.010107 0)
(-0.000181461 -0.0150093 0)
(0.000493749 -0.00940845 0)
(-0.000212397 -0.0156668 0)
(-5.66802e-08 -0.00866893 0)
(0.000212286 -0.0156668 0)
(-0.000493821 -0.00940844 0)
(0.000181484 -0.0150093 0)
(-0.000279032 -0.0101037 0)
(3.48953e-09 -0.014627 0)
(0.000279076 -0.0101036 0)
(-0.000174609 -0.0150134 0)
(0.000474141 -0.00941089 0)
(-0.000208006 -0.0156471 0)
(-5.84677e-08 -0.00868642 0)
(0.000207891 -0.0156472 0)
(-0.000474214 -0.00941089 0)
(0.000174635 -0.0150134 0)
(-0.000270243 -0.0101004 0)
(5.71747e-09 -0.0146423 0)
(0.000270291 -0.0101003 0)
(-0.00016838 -0.0150173 0)
(0.000457015 -0.00941308 0)
(-0.000204112 -0.0156281 0)
(-5.99339e-08 -0.00870355 0)
(0.000203993 -0.0156282 0)
(-0.00045709 -0.00941308 0)
(0.000168408 -0.0150174 0)
(-0.000262503 -0.0100972 0)
(7.63995e-09 -0.0146573 0)
(0.000262553 -0.0100971 0)
(-0.000162868 -0.0150211 0)
(0.000442465 -0.009415 0)
(-0.000200745 -0.0156098 0)
(-6.10747e-08 -0.00872034 0)
(0.000200623 -0.0156099 0)
(-0.000442541 -0.00941501 0)
(0.000162898 -0.0150212 0)
(-0.000255875 -0.010094 0)
(9.2311e-09 -0.014672 0)
(0.000255928 -0.010094 0)
(-0.000158188 -0.0150248 0)
(0.000430593 -0.00941669 0)
(-0.000197946 -0.0155919 0)
(-6.19018e-08 -0.00873696 0)
(0.000197821 -0.015592 0)
(-0.00043067 -0.0094167 0)
(0.000158219 -0.0150249 0)
(-0.000250428 -0.0100909 0)
(1.04779e-08 -0.0146866 0)
(0.000250483 -0.0100909 0)
(-0.000154471 -0.0150287 0)
(0.000421526 -0.00941816 0)
(-0.000195774 -0.0155738 0)
(-6.24442e-08 -0.00875394 0)
(0.000195647 -0.0155738 0)
(-0.000421604 -0.00941818 0)
(0.000154503 -0.0150288 0)
(-0.000246242 -0.0100876 0)
(1.13802e-08 -0.0147018 0)
(0.000246298 -0.0100876 0)
(-0.000151872 -0.0150328 0)
(0.000415443 -0.00941946 0)
(-0.000194321 -0.015555 0)
(-6.27502e-08 -0.00877151 0)
(0.000194193 -0.015555 0)
(-0.000415521 -0.00941949 0)
(0.000151904 -0.0150329 0)
(-0.00024342 -0.0100841 0)
(1.19492e-08 -0.0147177 0)
(0.000243477 -0.0100841 0)
(-0.000150551 -0.0150361 0)
(0.000412526 -0.00942056 0)
(-0.000193676 -0.0155399 0)
(-6.28832e-08 -0.00878574 0)
(0.000193548 -0.01554 0)
(-0.000412604 -0.00942059 0)
(0.000150584 -0.0150362 0)
(-0.000242068 -0.0100814 0)
(1.22087e-08 -0.0147305 0)
(0.000242125 -0.0100814 0)
)
;

boundaryField
{
    BotWall
    {
        type            fixedValue;
        value           uniform (0 0 0);
    }
    FreeStream
    {
        type            zeroGradient;
    }
    FrontNBack
    {
        type            empty;
    }
    LeftSide
    {
        type            cyclic;
    }
    RightSide
    {
        type            cyclic;
    }
}


// ************************************************************************* //
