/*--------------------------------*- C++ -*----------------------------------*\
| =========                 |                                                 |
| \\      /  F ield         | OpenFOAM: The Open Source CFD Toolbox           |
|  \\    /   O peration     | Version:  2.4.0                                 |
|   \\  /    A nd           | Web:      www.OpenFOAM.org                      |
|    \\/     M anipulation  |                                                 |
\*---------------------------------------------------------------------------*/
FoamFile
{
    version     2.0;
    format      ascii;
    class       volScalarField;
    location    "1.2";
    object      H;
}
// * * * * * * * * * * * * * * * * * * * * * * * * * * * * * * * * * * * * * //

dimensions      [0 2 -2 0 0 0 0];

internalField   nonuniform List<scalar> 
125
(
-11.5013
-11.5011
-11.501
-11.5011
-11.5012
-11.0454
-11.0453
-11.0452
-11.0452
-11.0454
-10.584
-10.5839
-10.5838
-10.5838
-10.584
-10.1175
-10.1174
-10.1173
-10.1174
-10.1175
-9.64658
-9.64646
-9.64638
-9.64642
-9.64657
-9.17172
-9.1716
-9.17153
-9.17157
-9.17171
-8.69352
-8.69342
-8.69335
-8.69339
-8.69352
-8.21259
-8.21249
-8.21243
-8.21246
-8.21259
-7.72953
-7.72944
-7.72937
-7.72941
-7.72952
-7.24494
-7.24485
-7.24479
-7.24483
-7.24493
-6.75943
-6.75935
-6.7593
-6.75933
-6.75943
-6.27364
-6.27357
-6.27352
-6.27354
-6.27363
-5.78818
-5.78811
-5.78807
-5.78809
-5.78817
-5.30368
-5.30362
-5.30357
-5.3036
-5.30367
-4.82076
-4.82071
-4.82067
-4.82069
-4.82076
-4.34007
-4.34002
-4.33999
-4.34001
-4.34007
-3.86223
-3.86219
-3.86216
-3.86218
-3.86223
-3.38787
-3.38784
-3.38781
-3.38782
-3.38787
-2.91763
-2.91759
-2.91757
-2.91758
-2.91762
-2.45212
-2.45209
-2.45208
-2.45209
-2.45212
-1.99198
-1.99196
-1.99195
-1.99195
-1.99198
-1.53784
-1.53782
-1.53781
-1.53781
-1.53783
-1.09031
-1.09029
-1.09029
-1.09029
-1.0903
-0.650013
-0.650005
-0.650001
-0.650003
-0.650012
-0.217574
-0.217572
-0.21757
-0.217571
-0.217574
)
;

boundaryField
{
    BotWall
    {
        type            zeroGradient;
    }
    FreeStream
    {
        type            zeroGradient;
    }
    FrontNBack
    {
        type            empty;
    }
    LeftSide
    {
        type            symmetryPlane;
    }
    RightSide
    {
        type            symmetryPlane;
    }
    procBoundary3to2
    {
        type            processor;
        value           nonuniform List<scalar> 5(-11.9501 -11.95 -11.9499 -11.9499 -11.9501);
    }
}


// ************************************************************************* //
