/*--------------------------------*- C++ -*----------------------------------*\
| =========                 |                                                 |
| \\      /  F ield         | OpenFOAM: The Open Source CFD Toolbox           |
|  \\    /   O peration     | Version:  2.4.0                                 |
|   \\  /    A nd           | Web:      www.OpenFOAM.org                      |
|    \\/     M anipulation  |                                                 |
\*---------------------------------------------------------------------------*/
FoamFile
{
    version     2.0;
    format      ascii;
    class       volScalarField;
    location    "1.2";
    object      p;
}
// * * * * * * * * * * * * * * * * * * * * * * * * * * * * * * * * * * * * * //

dimensions      [1 -1 -2 0 0 0 0];

internalField   nonuniform List<scalar> 
125
(
-0.0577164
-0.0577164
-0.0577164
-0.0577164
-0.0577164
-0.0588511
-0.0588511
-0.0588511
-0.0588511
-0.0588511
-0.0599985
-0.0599985
-0.0599985
-0.0599985
-0.0599985
-0.0611588
-0.0611588
-0.0611588
-0.0611588
-0.0611588
-0.0623319
-0.0623319
-0.0623319
-0.0623319
-0.0623319
-0.0635182
-0.0635182
-0.0635182
-0.0635182
-0.0635182
-0.0647176
-0.0647176
-0.0647176
-0.0647176
-0.0647177
-0.0659305
-0.0659305
-0.0659305
-0.0659305
-0.0659305
-0.0671569
-0.0671569
-0.0671569
-0.0671569
-0.0671569
-0.068397
-0.068397
-0.068397
-0.068397
-0.068397
-0.0696509
-0.0696509
-0.0696509
-0.0696509
-0.0696509
-0.0709189
-0.0709189
-0.0709189
-0.0709189
-0.0709189
-0.0722009
-0.0722009
-0.0722009
-0.0722009
-0.0722009
-0.0734973
-0.0734973
-0.0734973
-0.0734973
-0.0734973
-0.0748082
-0.0748082
-0.0748082
-0.0748082
-0.0748082
-0.0761336
-0.0761336
-0.0761336
-0.0761336
-0.0761336
-0.0774739
-0.0774739
-0.0774739
-0.0774739
-0.0774739
-0.0788291
-0.0788291
-0.0788291
-0.0788291
-0.0788291
-0.0801995
-0.0801995
-0.0801995
-0.0801995
-0.0801995
-0.0815851
-0.0815851
-0.0815851
-0.0815851
-0.0815851
-0.0829862
-0.0829862
-0.0829862
-0.0829862
-0.0829862
-0.0844029
-0.0844029
-0.0844029
-0.0844029
-0.0844029
-0.0858354
-0.0858354
-0.0858354
-0.0858354
-0.0858354
-0.087284
-0.087284
-0.087284
-0.087284
-0.087284
-0.0887487
-0.0887487
-0.0887487
-0.0887487
-0.0887487
)
;

boundaryField
{
    BotWall
    {
        type            calculated;
        value           nonuniform 0();
    }
    FreeStream
    {
        type            calculated;
        value           nonuniform List<scalar> 5(-0.0894851 -0.0894851 -0.0894851 -0.0894851 -0.0894851);
    }
    FrontNBack
    {
        type            empty;
    }
    LeftSide
    {
        type            symmetryPlane;
    }
    RightSide
    {
        type            symmetryPlane;
    }
    procBoundary3to2
    {
        type            processor;
        value           nonuniform List<scalar> 5(-0.0565942 -0.0565942 -0.0565942 -0.0565942 -0.0565942);
    }
}


// ************************************************************************* //
