/*--------------------------------*- C++ -*----------------------------------*\
| =========                 |                                                 |
| \\      /  F ield         | OpenFOAM: The Open Source CFD Toolbox           |
|  \\    /   O peration     | Version:  2.4.0                                 |
|   \\  /    A nd           | Web:      www.OpenFOAM.org                      |
|    \\/     M anipulation  |                                                 |
\*---------------------------------------------------------------------------*/
FoamFile
{
    version     2.0;
    format      ascii;
    class       volVectorField;
    location    "1.2";
    object      U;
}
// * * * * * * * * * * * * * * * * * * * * * * * * * * * * * * * * * * * * * //

dimensions      [0 1 -1 0 0 0 0];

internalField   nonuniform List<vector> 
125
(
(-1.17951e-09 -0.00197906 0)
(-2.05624e-09 -0.00197906 0)
(-9.81276e-10 -0.00197906 0)
(1.68342e-10 -0.00197906 0)
(3.7986e-10 -0.00197906 0)
(-1.13407e-09 -0.00197906 0)
(-1.98368e-09 -0.00197906 0)
(-9.66045e-10 -0.00197906 0)
(1.60959e-10 -0.00197906 0)
(3.78015e-10 -0.00197906 0)
(-1.08742e-09 -0.00197906 0)
(-1.90927e-09 -0.00197906 0)
(-9.506e-10 -0.00197906 0)
(1.50067e-10 -0.00197906 0)
(3.73188e-10 -0.00197906 0)
(-1.03981e-09 -0.00197906 0)
(-1.83342e-09 -0.00197906 0)
(-9.35001e-10 -0.00197906 0)
(1.35997e-10 -0.00197906 0)
(3.65645e-10 -0.00197906 0)
(-9.91503e-10 -0.00197906 0)
(-1.75652e-09 -0.00197906 0)
(-9.19325e-10 -0.00197906 0)
(1.19033e-10 -0.00197906 0)
(3.55608e-10 -0.00197906 0)
(-9.42759e-10 -0.00197906 0)
(-1.67899e-09 -0.00197906 0)
(-9.03644e-10 -0.00197906 0)
(9.94696e-11 -0.00197906 0)
(3.43312e-10 -0.00197906 0)
(-8.93837e-10 -0.00197906 0)
(-1.60125e-09 -0.00197906 0)
(-8.88032e-10 -0.00197906 0)
(7.76119e-11 -0.00197906 0)
(3.28993e-10 -0.00197906 0)
(-8.44999e-10 -0.00197906 0)
(-1.52372e-09 -0.00197906 0)
(-8.72559e-10 -0.00197906 0)
(5.37699e-11 -0.00197906 0)
(3.12896e-10 -0.00197906 0)
(-7.96511e-10 -0.00197906 0)
(-1.44681e-09 -0.00197906 0)
(-8.57296e-10 -0.00197906 0)
(2.82588e-11 -0.00197906 0)
(2.95268e-10 -0.00197906 0)
(-7.48638e-10 -0.00197906 0)
(-1.37095e-09 -0.00197906 0)
(-8.42313e-10 -0.00197906 0)
(1.39742e-12 -0.00197906 0)
(2.76359e-10 -0.00197906 0)
(-7.01647e-10 -0.00197906 0)
(-1.29655e-09 -0.00197906 0)
(-8.27677e-10 -0.00197906 0)
(-2.64927e-11 -0.00197906 0)
(2.56423e-10 -0.00197906 0)
(-6.55809e-10 -0.00197906 0)
(-1.22404e-09 -0.00197906 0)
(-8.13458e-10 -0.00197906 0)
(-5.50876e-11 -0.00197906 0)
(2.35714e-10 -0.00197906 0)
(-6.11396e-10 -0.00197906 0)
(-1.15384e-09 -0.00197906 0)
(-7.99722e-10 -0.00197906 0)
(-8.40609e-11 -0.00197906 0)
(2.1449e-10 -0.00197906 0)
(-5.6868e-10 -0.00197906 0)
(-1.08637e-09 -0.00197906 0)
(-7.86536e-10 -0.00197906 0)
(-1.13083e-10 -0.00197906 0)
(1.93011e-10 -0.00197906 0)
(-5.27936e-10 -0.00197906 0)
(-1.02205e-09 -0.00197906 0)
(-7.73969e-10 -0.00197906 0)
(-1.41821e-10 -0.00197906 0)
(1.71542e-10 -0.00197906 0)
(-4.89444e-10 -0.00197906 0)
(-9.61321e-10 -0.00197906 0)
(-7.6209e-10 -0.00197906 0)
(-1.69936e-10 -0.00197906 0)
(1.50352e-10 -0.00197906 0)
(-4.53484e-10 -0.00197906 0)
(-9.04605e-10 -0.00197906 0)
(-7.50969e-10 -0.00197906 0)
(-1.97082e-10 -0.00197906 0)
(1.29721e-10 -0.00197906 0)
(-4.20338e-10 -0.00197906 0)
(-8.52339e-10 -0.00197906 0)
(-7.40681e-10 -0.00197906 0)
(-2.22904e-10 -0.00197906 0)
(1.09936e-10 -0.00197906 0)
(-3.90294e-10 -0.00197906 0)
(-8.04964e-10 -0.00197906 0)
(-7.31306e-10 -0.00197906 0)
(-2.47033e-10 -0.00197906 0)
(9.13016e-11 -0.00197906 0)
(-3.63642e-10 -0.00197906 0)
(-7.62928e-10 -0.00197906 0)
(-7.22931e-10 -0.00197906 0)
(-2.69085e-10 -0.00197906 0)
(7.41365e-11 -0.00197906 0)
(-3.40676e-10 -0.00197906 0)
(-7.26688e-10 -0.00197906 0)
(-7.15648e-10 -0.00197906 0)
(-2.88656e-10 -0.00197906 0)
(5.87826e-11 -0.00197906 0)
(-3.21696e-10 -0.00197906 0)
(-6.96714e-10 -0.00197906 0)
(-7.09563e-10 -0.00197906 0)
(-3.05318e-10 -0.00197906 0)
(4.56076e-11 -0.00197906 0)
(-3.0701e-10 -0.00197906 0)
(-6.73498e-10 -0.00197906 0)
(-7.04803e-10 -0.00197906 0)
(-3.18612e-10 -0.00197906 0)
(3.50156e-11 -0.00197906 0)
(-2.96942e-10 -0.00197906 0)
(-6.57571e-10 -0.00197906 0)
(-7.01527e-10 -0.00197906 0)
(-3.28046e-10 -0.00197906 0)
(2.74541e-11 -0.00197906 0)
(-2.91815e-10 -0.00197906 0)
(-6.49467e-10 -0.00197906 0)
(-6.99902e-10 -0.00197906 0)
(-3.33088e-10 -0.00197906 0)
(2.34099e-11 -0.00197906 0)
)
;

boundaryField
{
    BotWall
    {
        type            fixedValue;
        value           nonuniform 0();
    }
    FreeStream
    {
        type            zeroGradient;
    }
    FrontNBack
    {
        type            empty;
    }
    LeftSide
    {
        type            symmetryPlane;
    }
    RightSide
    {
        type            symmetryPlane;
    }
    procBoundary3to2
    {
        type            processor;
        value           nonuniform List<vector> 5((-1.2235e-09 -0.00197906 0) (-2.12656e-09 -0.00197906 0) (-9.96197e-10 -0.00197906 0) (1.72145e-10 -0.00197906 0) (3.78684e-10 -0.00197906 0));
    }
}


// ************************************************************************* //
