/*--------------------------------*- C++ -*----------------------------------*\
| =========                 |                                                 |
| \\      /  F ield         | OpenFOAM: The Open Source CFD Toolbox           |
|  \\    /   O peration     | Version:  2.4.0                                 |
|   \\  /    A nd           | Web:      www.OpenFOAM.org                      |
|    \\/     M anipulation  |                                                 |
\*---------------------------------------------------------------------------*/
FoamFile
{
    version     2.0;
    format      ascii;
    class       volScalarField;
    location    "2.6";
    object      alpha1;
}
// * * * * * * * * * * * * * * * * * * * * * * * * * * * * * * * * * * * * * //

dimensions      [0 0 0 0 0 0 0];

internalField   nonuniform List<scalar> 
8000
(
1
1
0.999998
0.99999
0.999996
0.999794
0.819311
0.333709
0.251808
0.239988
0.20476
0.185959
0.164591
0.145168
0.127807
0.112847
0.099041
0.0852062
0.0732204
0.0636743
0.0544467
0.0452607
0.0375342
0.0312596
0.0256139
0.020719
0.0167277
0.0132068
0.0101983
0.00785905
0.00602512
0.00445103
0.00317324
0.00222563
0.00153627
0.00102699
0.000659709
0.000408537
0.000243083
0.00013735
7.25624e-05
3.54949e-05
1.58886e-05
6.48614e-06
2.634e-06
1.32611e-06
9.2752e-07
9.39085e-07
1.03581e-06
1.24933e-06
1
1
0.999996
0.999988
0.999986
0.999878
0.999941
1.0011
0.879406
0.820271
0.785196
0.767903
0.738431
0.709991
0.682095
0.654965
0.620876
0.579974
0.550532
0.529338
0.484933
0.431496
0.400183
0.385559
0.34194
0.289775
0.255724
0.235317
0.208002
0.174306
0.147773
0.126611
0.10619
0.086038
0.0683221
0.0534323
0.0407573
0.0301202
0.0215396
0.0148737
0.00982864
0.006125
0.00355325
0.00188649
0.000896331
0.000370914
0.000129206
3.63961e-05
8.13267e-06
1.80374e-06
1
0.999999
0.999996
0.999998
1
1.00002
0.999948
1.00006
1.00003
1.00006
0.999914
1.00004
0.999877
1.00016
1.00021
0.999851
0.994135
0.984997
0.980402
0.976998
0.960886
0.941591
0.939627
0.943906
0.913438
0.875858
0.857414
0.852633
0.815987
0.760918
0.71633
0.681101
0.638047
0.582457
0.52492
0.469395
0.413117
0.354944
0.297317
0.243269
0.19425
0.149746
0.110073
0.0762486
0.0489824
0.0285717
0.0147061
0.00642514
0.00220974
0.000552208
1
0.999999
0.999997
0.999998
0.999999
1
0.999989
0.999991
1
1
1
0.999998
1
1.00001
1
1
0.999999
1.00001
1.00001
0.999997
0.999998
1
1
1
0.999997
1.00001
0.999994
1.00002
1.00001
0.999905
0.994888
0.990184
0.985167
0.977189
0.966313
0.953306
0.936657
0.913199
0.880363
0.836318
0.780594
0.71373
0.63609
0.548083
0.451295
0.349307
0.24872
0.158819
0.0860001
0.0367099
1
0.999999
0.999997
0.999998
0.999998
1
0.999999
0.999994
0.999998
0.999999
0.999998
0.999998
0.999998
0.999997
0.999996
0.999997
0.999999
0.999999
0.999999
1
0.999998
0.999996
0.999997
0.999998
0.999996
0.999996
0.999998
0.999999
1
0.999999
1
1
1
1
1
1
1
1
1
0.997769
0.993228
0.987772
0.979896
0.967586
0.947332
0.91271
0.853845
0.754038
0.605162
0.417054
1
0.999999
0.999997
0.999998
0.999998
0.999999
0.999999
1
0.999999
0.999999
0.999999
0.999999
0.999999
0.999998
0.999997
0.999997
0.999997
0.999995
0.999995
0.999995
0.999995
0.999996
0.999998
0.999997
0.999997
0.999994
0.999986
0.999995
0.999997
0.999998
0.999998
0.999999
0.999999
0.999999
1
1
1
1
1
1
1
1
1
1
0.999997
0.998624
0.995579
0.991505
0.982331
0.9552
1
0.999999
0.999997
0.999998
0.999998
1
1
0.999999
0.999999
0.999999
0.999999
0.999999
0.999998
0.999998
0.999997
0.999996
0.999994
0.999993
0.999992
0.999992
0.999993
0.999994
0.999995
0.999996
0.999998
0.999991
0.99998
0.999979
0.999994
0.999996
0.999997
0.999997
0.999998
0.999999
0.999999
0.999999
0.999999
1
1
1
1
1
1
1
1
1
0.999999
1
1
0.999346
1
0.999999
0.999997
0.999998
0.999998
0.999999
1
0.999999
0.999999
0.999999
0.999999
0.999999
0.999998
0.999998
0.999997
0.999996
0.999994
0.999992
0.99999
0.999989
0.99999
0.999991
0.999993
0.999994
0.999994
0.99999
0.999983
0.999979
0.999983
0.999992
0.999994
0.999996
0.999997
0.999998
0.999998
0.999999
0.999999
0.999999
1
1
0.999999
0.999999
0.999999
0.999999
0.999999
0.999998
0.999998
0.999995
0.999951
0.999951
1
0.999999
0.999998
0.999998
0.999999
0.999999
0.999999
0.999999
0.999999
0.999999
0.999999
0.999999
0.999998
0.999998
0.999997
0.999996
0.999995
0.999993
0.999991
0.999989
0.999989
0.99999
0.999991
0.999992
0.999993
0.999992
0.999987
0.999981
0.999981
0.999988
0.999993
0.999994
0.999996
0.999997
0.999998
0.999998
0.999999
0.999999
0.999999
1
0.999999
0.999999
0.999999
0.999999
0.999998
0.999998
0.999993
0.99995
0.990169
0.963145
1
0.999999
0.999998
0.999998
0.999999
0.999999
1
0.999999
0.999999
0.999999
0.999999
0.999999
0.999998
0.999998
0.999998
0.999997
0.999996
0.999995
0.999993
0.999991
0.99999
0.99999
0.999991
0.999992
0.999993
0.999996
0.99999
0.999989
0.999984
0.999987
0.999991
0.999993
0.999995
0.999996
0.999997
0.999998
0.999999
0.999999
0.999999
1
0.999999
0.999999
0.999999
0.999999
0.999975
0.999864
0.971628
0.913246
0.827263
0.709554
1
1
0.999998
0.999999
0.999999
0.999999
0.999999
0.999999
0.999999
0.999999
0.999999
0.999999
0.999998
0.999998
0.999998
0.999998
0.999997
0.999996
0.999995
0.999993
0.999992
0.999992
0.999992
0.999993
0.999994
0.999995
0.999995
0.999994
0.999992
0.99999
0.999992
0.999993
0.999995
0.999996
0.999997
0.999998
0.999998
0.999999
0.999999
0.999999
0.999999
0.999998
0.999942
0.997968
0.933821
0.824113
0.691463
0.544522
0.396615
0.264096
1
1
0.999999
0.999999
0.999999
0.999999
0.999999
0.999999
0.999999
0.999999
0.999999
0.999999
0.999999
0.999998
0.999998
0.999998
0.999998
0.999997
0.999997
0.999996
0.999995
0.999994
0.999994
0.999994
0.999995
0.999996
0.999997
0.999996
0.999996
0.999995
0.999995
0.999995
0.999996
0.999996
0.999997
0.999998
0.999998
0.999998
0.999999
0.999999
0.999891
0.995073
0.880376
0.699077
0.518114
0.358425
0.229989
0.138158
0.0771856
0.0410914
1
1
0.999999
0.999999
0.999999
0.999999
0.999999
0.999999
0.999999
0.999999
0.999999
0.999999
0.999999
0.999999
0.999999
0.999999
0.999998
0.999998
0.999998
0.999998
0.999997
0.999997
0.999996
0.999996
0.999997
0.999997
0.999999
0.999998
0.999998
0.999998
0.999997
0.999997
0.999997
0.999997
0.999998
0.999998
0.999998
0.999998
0.999779
0.988017
0.818922
0.552338
0.339304
0.197066
0.10321
0.0474508
0.0231178
0.0114152
0.00538892
0.00246808
1
1
1
0.999999
0.999999
1
1
0.999999
0.999999
0.999999
0.999999
0.999999
0.999999
0.999999
0.999999
0.999999
0.999999
0.999999
0.999999
0.999999
0.999998
0.999998
0.999998
0.999998
0.999998
0.999998
0.999998
0.999999
0.999999
0.999999
0.999999
0.999999
0.999998
0.999998
0.999998
0.99997
0.999615
0.981374
0.70952
0.429031
0.209905
0.0529632
0.0208279
0.0067942
0.00321155
0.00132111
0.000503459
0.000194513
6.5003e-05
1.75258e-05
1
1
1
1
1
1
1
0.999999
0.999999
0.999999
0.999999
0.999999
0.999999
0.999999
0.999999
0.999999
0.999999
0.999999
0.999999
0.999999
0.999999
0.999999
0.999999
0.999999
0.999999
0.999999
1
1
1
1
0.999999
0.999999
0.999999
0.999871
0.999374
0.89175
0.603438
0.313598
0.0314828
0.0100145
0.00210411
0.000292676
8.64894e-05
2.888e-05
8.14916e-06
3.31996e-06
2.51359e-06
2.58999e-06
3.68354e-06
3.74073e-06
1
1
1
1
1
1
1
1
1
0.999999
0.999999
0.999999
0.999999
0.999999
0.999999
0.999999
0.999999
0.999999
0.999999
0.999999
0.999999
0.999999
0.999999
1
1
1
1
1
1
1
0.999979
0.999731
0.995835
0.762912
0.47276
0.0578195
0.0102841
0.00278663
6.03908e-05
2.59424e-05
4.55617e-06
2.24004e-06
2.06887e-06
1.47424e-06
1.0777e-06
1.07973e-06
1.6096e-06
5.2344e-06
6.028e-06
8.90791e-07
1
1
1
1
1
1
1
1
1
1
1
0.999999
0.999999
0.999999
0.999999
0.999999
0.999999
0.999999
0.999999
0.999999
0.999999
0.999999
1
1
1
1
1
0.999999
0.9999
0.999245
0.900428
0.650087
0.158822
0.0140647
0.0084526
0.000101651
3.09407e-05
1.02839e-05
1.13567e-06
8.83178e-07
1.18379e-06
2.71193e-06
2.71227e-06
1.46903e-06
9.49021e-07
2.61775e-06
7.13157e-06
7.13815e-06
5.98114e-06
9.9823e-07
1
1
1
1
1
1
1
1
1
1
1
1
1
1
1
1
1
0.999999
0.999999
0.999999
0.999999
1
1
1
1
0.999993
0.999732
0.998352
0.776275
0.393924
0.028575
0.0108813
0.000495225
4.64721e-05
3.86191e-05
1.80752e-06
9.9171e-07
8.87829e-07
8.81884e-07
8.77608e-07
8.71867e-07
1.001e-06
1.4789e-06
9.42316e-07
9.45336e-07
1.21405e-06
1.28906e-06
1.28689e-06
1.29135e-06
3.47541e-06
1
1
1
1
1
1
1
1
1
1
1
1
1
1
1
1
1
0.999999
0.999999
0.999999
0.999998
0.999998
1
0.99997
0.999345
0.940066
0.632208
0.103492
0.011886
0.00633065
4.90232e-05
2.65789e-05
2.15362e-06
1.15429e-06
1.15579e-06
3.7564e-06
5.92977e-06
5.83044e-06
1.48148e-06
8.6757e-07
8.70691e-07
8.77904e-07
8.90004e-07
9.47464e-07
1.03339e-06
1.18793e-06
1.38248e-06
1.49794e-06
1.56437e-06
1.22445e-06
1
1
1
1
1
1
1
1
1
1
1
1
1
1
1
1
0.999999
0.999999
0.999999
0.999998
0.999855
0.996543
0.999018
0.86732
0.390257
0.024297
0.0119804
0.000465548
4.61452e-05
2.55336e-05
1.53394e-06
1.15019e-06
1.14875e-06
1.14519e-06
1.14753e-06
1.55959e-06
5.26141e-06
6.63386e-06
6.42315e-06
1.89302e-06
8.70915e-07
8.83372e-07
8.75388e-07
8.82222e-07
9.57781e-07
3.89952e-06
6.54893e-06
6.54173e-06
3.63557e-06
1.21591e-06
1.19252e-06
1.1261e-06
1.82633e-06
1.32842e-06
3.08763e-06
8.77523e-06
1.3467e-05
1.73891e-05
1.73658e-05
1.59033e-05
9.14811e-06
6.93965e-06
6.94468e-06
1.35516e-05
2.01916e-05
2.84291e-05
3.90961e-05
3.14946e-05
2.05245e-05
1.29879e-05
1.02797e-05
2.31356e-05
2.63086e-05
1.58777e-05
8.91341e-06
6.35766e-06
1.77028e-05
3.18051e-05
3.58467e-05
3.58177e-05
2.11618e-05
1.58305e-05
1.41778e-05
1.15394e-05
7.71661e-06
9.87553e-06
1.70522e-05
2.57127e-05
3.19302e-05
2.95876e-05
1.73303e-05
8.70267e-06
3.89606e-06
3.05194e-06
4.14847e-06
6.34774e-06
8.54764e-06
2.03944e-05
3.74233e-05
3.83377e-05
1.19529e-06
1.17446e-06
1.21104e-06
1.75112e-06
9.65012e-06
1.99085e-05
1.99095e-05
1.98043e-05
8.05202e-06
6.94395e-06
6.94353e-06
6.94322e-06
1.05719e-05
3.20232e-05
5.28264e-05
5.29846e-05
3.80508e-05
6.54001e-06
6.14702e-06
1.00065e-05
2.47058e-05
2.46722e-05
1.59399e-05
3.4313e-06
3.45486e-06
1.55836e-05
3.49001e-05
3.48319e-05
1.61338e-05
3.1608e-06
1.01183e-05
2.06762e-05
2.06511e-05
1.1697e-05
6.35218e-06
8.77197e-06
2.87103e-05
3.09558e-05
2.94144e-05
6.3498e-06
2.48249e-06
2.48194e-06
2.569e-06
1.16854e-05
2.11652e-05
1.81109e-05
3.78861e-06
3.23656e-06
3.73676e-06
7.50013e-06
9.43888e-05
1.12732e-05
1.63554e-06
1.64076e-06
3.82048e-06
1.39366e-05
1.9909e-05
1.59174e-05
6.94821e-06
6.94575e-06
1.04267e-05
1.28543e-05
1.71282e-05
4.49436e-05
5.29848e-05
3.72521e-05
5.30588e-06
4.54374e-06
7.84183e-06
2.58286e-05
3.26803e-05
8.28805e-06
1.87417e-06
1.87273e-06
8.23685e-06
3.03375e-05
3.5012e-05
2.96664e-05
4.36239e-06
2.30469e-06
3.51836e-06
1.57062e-05
2.06724e-05
2.0573e-05
8.38662e-06
5.31092e-06
5.3119e-06
1.12219e-05
2.40016e-05
1.79093e-05
6.51491e-06
2.48505e-06
4.53251e-06
1.59786e-05
2.12033e-05
1.80247e-05
4.59093e-06
1.55327e-05
2.62003e-05
2.49612e-05
0.0115003
0.00253938
0.000357032
3.68597e-05
8.98346e-06
7.63897e-06
7.64249e-06
1.57363e-05
9.87519e-06
6.95022e-06
1.29034e-05
1.33552e-05
8.4315e-06
1.2698e-05
4.22386e-05
4.41818e-05
2.09688e-05
4.53935e-06
6.25095e-06
2.50588e-05
3.2582e-05
2.15582e-05
2.73019e-06
1.86974e-06
1.87236e-06
5.64061e-06
2.63273e-05
3.58432e-05
2.80123e-05
4.90868e-06
1.85262e-06
1.85082e-06
2.05341e-06
1.20421e-05
2.78528e-05
2.78454e-05
2.34278e-05
5.68365e-06
4.5269e-06
4.53594e-06
1.01301e-05
2.02405e-05
2.01931e-05
1.98723e-05
1.8055e-05
1.62507e-05
7.03669e-06
2.85579e-06
2.84663e-06
7.95124e-06
0.229706
0.0940878
0.0255892
0.00460742
0.00064804
0.000161481
4.92685e-05
1.89911e-05
1.05872e-05
8.839e-06
1.29916e-05
1.05418e-05
8.4109e-06
1.20928e-05
1.00445e-05
5.31201e-06
1.27661e-05
2.18427e-05
9.76124e-06
1.54304e-05
3.26364e-05
3.09144e-05
1.45192e-05
4.23232e-06
1.87302e-06
3.32878e-06
1.3157e-05
3.58189e-05
3.60722e-05
2.20529e-05
5.46173e-06
1.85061e-06
1.84426e-06
1.84475e-06
2.06252e-06
5.34277e-06
2.20013e-05
2.86851e-05
2.88251e-05
1.85087e-05
6.6884e-06
3.41194e-06
3.39581e-06
1.09161e-05
2.45467e-05
2.45849e-05
1.88532e-05
6.65086e-06
2.84409e-06
3.91566e-06
0.867718
0.637586
0.333038
0.115257
0.0217893
0.00491761
0.0011887
0.000362994
0.000110967
3.43615e-05
1.2938e-05
8.05413e-06
8.0429e-06
1.09483e-05
8.84526e-06
4.0627e-06
4.04839e-06
1.83588e-05
1.27884e-05
4.9202e-06
4.08999e-06
4.13279e-06
4.13753e-06
4.1471e-06
5.91652e-06
7.54241e-06
9.91479e-06
2.446e-05
3.60708e-05
2.84715e-05
1.10694e-05
2.34884e-06
1.84878e-06
1.84692e-06
1.84751e-06
1.8482e-06
1.85277e-06
3.43616e-06
1.94336e-05
2.39604e-05
2.40135e-05
1.0448e-05
2.822e-06
3.45073e-06
9.24727e-06
2.45353e-05
2.4564e-05
2.09359e-05
5.83004e-06
1.03197e-05
0.9966
0.985718
0.925276
0.633808
0.187686
0.0360406
0.00759337
0.00233124
0.000716805
0.000196391
4.68431e-05
1.02717e-05
4.33193e-06
4.32037e-06
4.309e-06
5.3825e-06
3.95464e-06
3.2451e-06
3.26327e-06
3.34996e-06
4.08072e-06
5.40503e-06
6.70325e-06
1.26901e-05
2.26641e-05
2.2685e-05
1.77324e-05
7.61189e-06
3.10511e-06
2.54245e-06
2.54272e-06
3.28833e-06
7.52562e-06
4.13974e-06
1.85157e-06
2.34431e-06
7.01726e-06
1.56711e-05
1.96768e-05
9.4985e-06
2.83964e-06
1.98304e-06
2.78235e-06
1.22654e-05
1.95146e-05
1.95142e-05
8.45113e-06
4.93994e-06
4.93446e-06
1.14262e-05
0.996862
0.986569
0.959314
0.857
0.478522
0.0857842
0.015746
0.00469336
0.00145245
0.000394816
9.01598e-05
1.7878e-05
4.98581e-06
4.45374e-06
3.16025e-06
3.1589e-06
4.78686e-06
3.08284e-06
2.90477e-06
4.35457e-06
1.04149e-05
1.04236e-05
8.41909e-06
7.62282e-06
8.96275e-06
7.44583e-06
4.72223e-06
4.73795e-06
6.01095e-06
8.05934e-06
1.03989e-05
1.04157e-05
1.02469e-05
5.44743e-06
2.76531e-06
1.33847e-06
5.72294e-06
1.24003e-05
1.72807e-05
4.66834e-06
1.9544e-06
1.97034e-06
2.28964e-06
3.92974e-06
8.29334e-06
1.51973e-05
1.28615e-05
5.53522e-06
6.71339e-07
6.81089e-07
0.910821
0.818561
0.661628
0.416137
0.160088
0.041239
0.010829
0.0032537
0.000924558
0.000218333
4.176e-05
7.23976e-06
4.2217e-06
3.64056e-06
3.24268e-06
3.01891e-06
4.73317e-06
1.69367e-06
1.88435e-06
4.21624e-06
6.6035e-06
5.18747e-06
5.72173e-06
1.04951e-05
1.04631e-05
5.18476e-06
3.01249e-06
1.04801e-05
1.31249e-05
1.27323e-05
5.30489e-06
4.58034e-06
4.43182e-06
2.86519e-06
5.57688e-07
1.23505e-06
5.66783e-06
9.66511e-06
1.03938e-06
5.60087e-07
1.49926e-06
6.38292e-06
8.06915e-06
6.79584e-06
1.88714e-06
1.68313e-06
4.36719e-06
5.77076e-06
5.88289e-07
1.06409e-06
0.559009
0.385982
0.218176
0.098829
0.040076
0.0164046
0.00652799
0.00220834
0.000576829
0.000118264
1.89168e-05
4.66681e-06
3.35768e-06
2.6754e-06
2.3584e-06
2.27617e-06
1.79368e-06
1.32159e-06
1.24787e-06
1.50131e-06
6.42777e-06
1.30806e-05
1.31304e-05
8.07944e-06
1.11226e-06
9.41154e-07
3.03106e-06
8.49821e-06
1.13152e-05
1.3296e-06
1.39409e-06
5.098e-06
5.90227e-06
1.98675e-06
5.53723e-07
5.53651e-07
1.18359e-06
2.28178e-06
6.31584e-07
5.56774e-07
9.59991e-07
4.85741e-06
8.05021e-06
5.91146e-06
1.74657e-06
1.68837e-06
5.67791e-06
6.78498e-06
5.86612e-07
1.78767e-06
0.160363
0.088931
0.045301
0.0214506
0.00972033
0.00429804
0.00173721
0.00055826
0.000127218
2.06504e-05
3.85476e-06
2.98297e-06
2.28924e-06
1.90436e-06
1.88399e-06
1.66888e-06
1.36962e-06
1.23897e-06
1.24577e-06
4.11364e-06
9.89471e-06
1.04768e-05
1.24305e-06
8.81654e-07
8.82329e-07
9.42526e-07
3.54443e-06
6.10724e-06
7.65607e-07
5.51761e-07
6.19088e-07
3.12865e-06
5.84506e-06
2.71146e-06
5.50507e-07
5.50507e-07
5.50519e-07
5.50536e-07
5.50591e-07
5.54811e-07
1.18874e-06
4.93807e-06
8.0708e-06
4.72893e-06
1.39964e-06
1.85429e-06
5.44643e-06
6.80529e-06
5.82724e-07
5.82724e-07
0.0210805
0.0104014
0.00484981
0.00204276
0.000706646
0.000178899
3.20241e-05
4.90979e-06
2.16488e-06
1.71836e-06
1.50161e-06
1.2572e-06
1.09566e-06
2.42548e-06
3.71338e-06
3.32928e-06
1.24688e-06
1.2429e-06
1.6664e-06
8.13394e-07
9.42802e-07
2.52302e-06
2.28691e-06
8.81746e-07
8.81841e-07
9.14033e-07
2.49595e-06
2.94996e-06
5.53455e-07
5.51642e-07
1.01672e-06
4.31976e-06
5.90001e-06
3.30732e-06
5.50511e-07
5.50511e-07
5.5079e-07
5.51329e-07
5.51431e-07
5.51518e-07
5.58341e-07
1.89499e-06
4.63004e-06
5.00591e-06
1.45055e-06
1.27923e-06
4.748e-06
5.49551e-06
5.82695e-07
5.82696e-07
0.0010204
0.000359523
0.000105475
2.50235e-05
5.37686e-06
3.11967e-06
3.1276e-06
1.78763e-06
1.2811e-06
1.15995e-06
1.10745e-06
1.08832e-06
1.08989e-06
1.38973e-06
3.45882e-06
3.32185e-06
1.25063e-06
1.24612e-06
1.63374e-06
6.87474e-07
6.48844e-07
8.90281e-07
3.87061e-06
5.29697e-06
4.18915e-06
6.27283e-07
5.75803e-07
5.67008e-07
5.5359e-07
5.49512e-07
5.56047e-07
1.97966e-06
5.6247e-06
3.07667e-06
5.50643e-07
5.50558e-07
5.53879e-07
5.57822e-07
5.5537e-07
5.51575e-07
5.56055e-07
1.17827e-06
3.21739e-06
4.60384e-06
1.2701e-06
1.27075e-06
3.21023e-06
2.67197e-06
5.82794e-07
5.82796e-07
4.53333e-06
2.51224e-06
1.81128e-06
1.41563e-06
9.84655e-07
2.15303e-06
4.15183e-06
1.44837e-06
9.71044e-07
9.70264e-07
1.09752e-06
2.94131e-06
3.49254e-06
8.18485e-07
8.25632e-07
1.30333e-06
3.85066e-06
6.06459e-06
8.82776e-07
6.61238e-07
6.45335e-07
6.50849e-07
1.79214e-06
5.31696e-06
5.58122e-06
4.70642e-06
8.35493e-07
5.87818e-07
5.55905e-07
5.49592e-07
5.58355e-07
5.8829e-07
6.52491e-07
6.64178e-07
5.54784e-07
8.23361e-07
2.44372e-06
2.64317e-06
2.2643e-06
5.92352e-07
5.55103e-07
5.53823e-07
5.57636e-07
1.01919e-06
2.264e-06
2.56187e-06
7.11305e-07
5.85116e-07
5.85847e-07
9.95977e-07
8.53152e-07
8.67245e-07
8.42281e-07
7.6762e-07
9.46009e-07
3.02727e-06
4.38677e-06
1.32037e-06
9.69366e-07
9.68798e-07
1.27702e-06
3.33223e-06
3.42894e-06
8.16302e-07
8.30952e-07
2.97142e-06
6.14122e-06
6.13948e-06
2.31551e-06
7.39831e-07
6.9447e-07
7.04857e-07
7.87926e-07
9.71599e-07
9.85158e-07
2.24217e-06
2.37153e-06
1.53218e-06
8.98985e-07
7.55186e-07
1.62083e-06
3.31657e-06
3.3112e-06
1.80275e-06
7.83332e-07
6.329e-07
6.24864e-07
6.57279e-07
6.62567e-07
6.31896e-07
6.12848e-07
6.43133e-07
7.62516e-07
1.03141e-06
1.43578e-06
2.56471e-06
2.05688e-06
9.91067e-07
8.5176e-07
9.96037e-07
7.62136e-07
7.62289e-07
7.65098e-07
7.65961e-07
8.87123e-07
3.23355e-06
4.39308e-06
4.2747e-06
1.66071e-06
9.67877e-07
9.68012e-07
9.75054e-07
1.65836e-06
8.16168e-07
8.18208e-07
8.30765e-07
2.89539e-06
6.14487e-06
2.53662e-06
9.44323e-07
1.06258e-06
1.37403e-06
2.00908e-06
2.82552e-06
2.77636e-06
1.88242e-06
1.11001e-06
9.45467e-07
8.51974e-07
7.97892e-07
8.03251e-07
9.85827e-07
1.27656e-06
1.58332e-06
1.91135e-06
1.94626e-06
3.53506e-06
1.9704e-06
1.27308e-06
1.01659e-06
8.76266e-07
8.3383e-07
7.50233e-07
8.83318e-07
9.48773e-07
9.40544e-07
9.52591e-07
9.14785e-07
8.56631e-07
3.33416e-06
7.73983e-07
7.62506e-07
7.7294e-07
8.09595e-07
8.90391e-07
1.0426e-06
1.12841e-06
2.02399e-06
9.80739e-07
9.73546e-07
2.38096e-06
4.26126e-06
4.27198e-06
2.40709e-06
1.4646e-06
1.21322e-06
1.19414e-06
1.37849e-06
1.51815e-06
1.40285e-06
1.20403e-06
1.16053e-06
1.06327e-06
1.25106e-06
1.63396e-06
1.31505e-06
2.37817e-06
1.41867e-06
8.59684e-07
1.45508e-06
1.33637e-06
1.13343e-06
2.70901e-06
3.20211e-06
3.18835e-06
1.82325e-06
1.2274e-06
1.22595e-06
2.05632e-06
1.41592e-06
7.41285e-07
7.36547e-07
7.36532e-07
1.21169e-06
1.95141e-06
1.95238e-06
9.64818e-07
8.54129e-07
8.52905e-07
3.33599e-06
8.84596e-06
9.00767e-06
8.41972e-06
2.0223e-06
1.22626e-06
1.13093e-06
1.1006e-06
1.08294e-06
1.06923e-06
1.06334e-06
1.1067e-06
1.26584e-06
1.48628e-06
1.81662e-06
1.54257e-06
1.5717e-06
1.20135e-06
2.41766e-06
1.64789e-06
2.94736e-06
2.33312e-06
1.72265e-06
1.26717e-06
2.19069e-06
3.87557e-06
1.96773e-06
1.10743e-06
1.08135e-06
1.06279e-06
1.17146e-06
1.08867e-06
1.08721e-06
1.08714e-06
1.08625e-06
1.08625e-06
2.05347e-06
5.27182e-06
7.79752e-06
3.87458e-06
1.50821e-06
7.42812e-07
7.36632e-07
7.36525e-07
7.36518e-07
7.36638e-07
2.77329e-06
3.46267e-06
3.30469e-06
1.2215e-06
8.40618e-07
1.28022e-06
1.35052e-06
1.40898e-06
1.46283e-06
1.51421e-06
1.61391e-06
1.87258e-06
2.07178e-06
2.00718e-06
1.75487e-06
1.62604e-06
1.79677e-06
1.98801e-06
3.63151e-06
1.59028e-06
1.87096e-06
1.32044e-06
1.43741e-06
1.46853e-06
1.4641e-06
1.43312e-06
1.4259e-06
1.29613e-06
1.80859e-06
6.22196e-06
6.93448e-06
4.37548e-06
1.19104e-06
1.07859e-06
1.08629e-06
1.09101e-06
1.08817e-06
1.08723e-06
1.08774e-06
1.08676e-06
1.08832e-06
2.45175e-06
9.50038e-06
9.84207e-06
9.28995e-06
3.55572e-06
7.92269e-07
7.39732e-07
7.40804e-07
7.42934e-07
1.88418e-06
3.45724e-06
3.46765e-06
1.81171e-06
8.46365e-07
1.21655e-06
1.23791e-06
1.25964e-06
1.31352e-06
1.49879e-06
3.25388e-06
1.45727e-06
1.45622e-06
1.69068e-06
1.44241e-06
1.47279e-06
1.47694e-06
2.11812e-06
1.41393e-06
2.24565e-06
1.59684e-06
1.60153e-06
1.63896e-06
1.63714e-06
1.52206e-06
2.47944e-06
1.51719e-06
1.44666e-06
3.62429e-06
6.9324e-06
6.94312e-06
4.71576e-06
1.72508e-06
1.09213e-06
1.09234e-06
1.6423e-06
1.09453e-06
1.08828e-06
1.18181e-06
1.61923e-06
2.24693e-06
6.69089e-06
9.54601e-06
8.4312e-06
2.77142e-06
1.18352e-06
1.17729e-06
2.98958e-06
3.11723e-06
3.02018e-06
1.09714e-06
8.54336e-07
8.52755e-07
8.52964e-07
1.7445e-06
3.84197e-05
3.1141e-05
1.47575e-05
7.94767e-06
4.07021e-06
5.02941e-06
9.22155e-06
1.09277e-05
1.09844e-05
5.26017e-06
1.63138e-06
2.88482e-06
1.31636e-05
4.8919e-05
5.16108e-05
4.67598e-05
1.67954e-05
2.34116e-06
7.98065e-07
7.88218e-07
2.26568e-06
1.09178e-05
1.22243e-05
1.22041e-05
8.20721e-06
1.70672e-06
4.54356e-07
5.69172e-07
8.78082e-07
9.0787e-07
1.30487e-06
4.62247e-06
3.68451e-05
5.18061e-05
5.17924e-05
4.99284e-05
1.87331e-05
2.20677e-06
5.28227e-07
7.82709e-07
7.95551e-07
8.12462e-07
1.01212e-06
5.82296e-06
4.27401e-05
5.18691e-05
5.17846e-05
3.24143e-05
5.57726e-06
5.19688e-07
5.06433e-07
6.57012e-07
8.56293e-06
1.94219e-05
1.94503e-05
1.30028e-05
2.48987e-06
2.43785e-06
1.485e-05
2.60246e-05
1.30235e-05
2.72231e-06
4.02322e-07
3.92342e-07
3.93992e-07
3.9444e-07
3.91529e-07
3.91402e-07
3.97634e-07
4.34995e-06
3.85494e-05
2.1108e-05
4.29956e-06
4.42308e-07
4.30436e-07
2.66586e-06
1.90428e-06
6.62788e-07
2.94856e-07
2.89475e-07
2.89557e-07
7.71442e-07
3.75332e-06
3.76921e-06
1.03964e-06
4.49505e-07
2.80955e-06
3.84594e-06
3.84371e-06
1.47277e-06
3.78477e-07
3.70957e-07
3.57407e-07
4.00217e-07
1.3605e-06
4.31727e-06
1.93784e-06
5.37191e-07
5.28688e-07
5.307e-07
3.36783e-06
4.67358e-06
4.20045e-06
1.13866e-06
1.35508e-06
4.95125e-06
6.01556e-06
5.99209e-06
1.8274e-06
1.77907e-06
8.40214e-06
7.08647e-06
2.6615e-06
1.01239e-06
3.4106e-06
1.02499e-05
1.02992e-05
8.92335e-06
1.96877e-06
3.13529e-06
1.07965e-05
1.16334e-05
7.71657e-06
2.86713e-06
2.97092e-06
1.53382e-05
9.19587e-06
5.01467e-06
5.02847e-06
1.39293e-05
1.58414e-05
1.43429e-05
3.92694e-06
2.31713e-06
3.25511e-06
6.77878e-06
1.4033e-05
1.98385e-05
1.98575e-05
1.45497e-05
5.22312e-06
2.35201e-06
2.13276e-06
2.37541e-06
5.31115e-06
2.113e-05
2.24123e-05
1.86951e-05
5.07309e-06
1.08681e-06
1.0807e-06
1.08065e-06
1.08065e-06
4.21527e-06
2.48415e-05
2.75777e-05
2.66263e-05
1.01582e-05
1.92118e-06
1.66146e-06
1.6603e-06
1.86403e-06
1.01891e-05
1.50214e-05
1.49757e-05
8.33898e-06
1.80425e-06
1.1925e-06
2.9623e-06
1.45542e-05
1.73929e-05
1.74355e-05
1.03473e-05
3.04153e-06
2.36735e-06
2.90608e-06
1.81255e-05
2.27272e-05
2.00122e-05
5.67496e-06
2.54005e-06
2.53645e-06
3.37312e-06
1.58527e-05
2.20523e-05
2.20525e-05
2.20506e-05
1.45841e-05
2.42952e-06
4.63535e-06
1.80324e-05
2.63237e-05
2.32102e-05
1.17298e-05
6.84525e-06
3.30437e-06
8.35515e-07
4.77642e-07
3.34342e-07
2.2497e-07
1.88281e-07
1.67698e-07
1.5162e-07
1.39248e-07
1.29542e-07
1.24781e-07
1.23136e-07
1.23205e-07
1.23323e-07
1.22273e-07
1.19398e-07
1.14507e-07
1.07752e-07
9.94985e-08
9.02258e-08
8.04353e-08
7.05881e-08
6.10641e-08
5.21436e-08
4.40071e-08
3.67475e-08
3.0389e-08
2.49065e-08
2.02435e-08
1.63254e-08
1.30696e-08
1.03924e-08
8.2123e-09
6.45366e-09
5.04756e-09
3.93283e-09
3.05619e-09
2.37206e-09
1.84205e-09
1.43432e-09
1.12275e-09
8.86163e-10
7.07568e-10
5.73462e-10
4.73207e-10
3.985e-10
3.42918e-10
3.01538e-10
2.70622e-10
2.47357e-10
2.29649e-10
2.15962e-10
2.05182e-10
1.9652e-10
1.89432e-10
1.83551e-10
1.7864e-10
1.74541e-10
1.71148e-10
1.68375e-10
1.66136e-10
1.64336e-10
1.62863e-10
1.61595e-10
1.60399e-10
1.59143e-10
1.57696e-10
1.55939e-10
1.53768e-10
1.51099e-10
1.47878e-10
1.4408e-10
1.39717e-10
1.34829e-10
1.29487e-10
1.2378e-10
1.17807e-10
1.11667e-10
1.05445e-10
9.92015e-11
9.29671e-11
8.67369e-11
8.04779e-11
7.41407e-11
6.76773e-11
6.106e-11
5.42982e-11
4.74497e-11
4.06226e-11
3.39668e-11
2.7657e-11
2.18676e-11
1.6747e-11
1.23947e-11
8.84894e-12
6.0851e-12
4.0264e-12
2.56197e-12
1.5673e-12
9.21993e-13
5.21827e-13
2.85761e-13
1.52001e-13
7.84131e-14
3.91977e-14
1.07708e-05
2.75617e-05
5.2922e-05
5.29505e-05
5.29202e-05
4.62212e-05
1.14133e-05
3.22312e-06
2.99692e-06
3.0545e-06
5.90396e-06
9.68128e-06
1.22759e-05
2.44891e-06
2.13508e-06
6.18326e-06
1.23801e-05
1.23285e-05
1.22892e-05
9.00166e-06
3.0944e-06
2.19721e-06
2.71193e-06
2.86353e-06
2.36336e-06
2.4176e-06
3.39459e-06
6.94927e-06
2.73521e-05
4.8606e-05
4.86596e-05
3.11935e-05
9.94604e-06
9.72869e-06
1.06351e-05
8.81991e-06
7.13298e-06
7.15483e-06
3.68409e-05
4.21501e-05
2.77411e-05
7.40442e-06
1.84104e-06
2.87753e-06
1.59246e-05
1.3365e-05
5.7402e-06
1.47249e-06
9.21996e-07
9.13789e-07
2.88099e-06
2.53898e-06
1.72843e-06
1.72536e-06
1.96238e-06
8.96857e-06
4.10763e-05
4.4463e-05
4.44147e-05
2.68666e-05
4.69782e-06
4.24406e-07
3.92553e-07
3.92081e-07
3.91844e-07
3.91598e-07
3.914e-07
3.9133e-07
4.73954e-07
5.44025e-06
4.22402e-05
5.08488e-05
5.0733e-05
3.01006e-05
7.21721e-06
6.00252e-06
5.51542e-06
2.63153e-06
4.4152e-07
2.93719e-07
2.89711e-07
4.8245e-07
3.4957e-06
4.9093e-06
3.17146e-06
7.49893e-07
7.1113e-07
8.68433e-07
4.42061e-06
5.21405e-06
5.21822e-06
2.51774e-06
3.98662e-07
3.18678e-07
3.46109e-07
3.06217e-06
6.47829e-06
6.46102e-06
4.12412e-06
8.57987e-07
7.38403e-07
9.2562e-07
7.42814e-07
7.41964e-07
1.58914e-06
4.82563e-06
5.99266e-06
2.74855e-06
4.2553e-07
6.16837e-07
6.56411e-06
9.18334e-06
4.07581e-06
7.55932e-07
7.40437e-07
8.76887e-07
6.46008e-06
8.96114e-06
8.29476e-06
3.19333e-06
3.23913e-06
1.10321e-05
1.1449e-05
5.29675e-06
2.98297e-06
5.46156e-06
1.0231e-05
1.03282e-05
5.67164e-06
1.57767e-06
5.084e-06
1.72325e-05
1.76119e-05
1.40651e-05
3.56216e-06
1.12108e-06
1.66865e-06
1.34407e-05
1.98376e-05
1.6974e-05
4.67066e-06
1.84237e-06
1.823e-06
1.25573e-05
1.9606e-05
1.39094e-05
1.66114e-05
2.02638e-05
1.97734e-05
6.91078e-06
1.13016e-06
1.08088e-06
1.08068e-06
1.08067e-06
1.22097e-06
1.18278e-05
2.65592e-05
2.21832e-05
9.38386e-06
3.0827e-06
1.66592e-06
1.67098e-06
1.67564e-06
2.98048e-06
1.31607e-05
1.47976e-05
1.03299e-05
2.10117e-06
1.00154e-06
9.98541e-07
9.98536e-07
6.97059e-06
1.66698e-05
1.66569e-05
1.00346e-05
1.22071e-06
1.20229e-06
1.31938e-05
1.99491e-05
1.63669e-05
5.30277e-06
2.54091e-06
2.54147e-06
3.5428e-06
1.36967e-05
2.20515e-05
2.04034e-05
8.34599e-06
1.29649e-06
4.26311e-07
2.18586e-06
1.94604e-05
2.96649e-05
2.97017e-05
2.96638e-05
2.29293e-05
1.11712e-05
7.64711e-06
5.39979e-06
2.39238e-06
4.41089e-07
2.5417e-07
2.21531e-07
2.08175e-07
1.79554e-07
1.63926e-07
1.47376e-07
1.40544e-07
1.39848e-07
1.42085e-07
1.4458e-07
1.45445e-07
1.43627e-07
1.38795e-07
1.3117e-07
1.21315e-07
1.0996e-07
9.78534e-08
8.56628e-08
7.39164e-08
6.29827e-08
5.30804e-08
4.4306e-08
3.66667e-08
3.01113e-08
2.45551e-08
1.98966e-08
1.60294e-08
1.28489e-08
1.02561e-08
8.16025e-09
6.47979e-09
5.14286e-09
4.08725e-09
3.25986e-09
2.61602e-09
2.11857e-09
1.73695e-09
1.44624e-09
1.22633e-09
1.06111e-09
9.37799e-10
8.46314e-10
7.78802e-10
7.29187e-10
6.92828e-10
6.66229e-10
6.46808e-10
6.32704e-10
6.22619e-10
6.15685e-10
6.11341e-10
6.09226e-10
6.09089e-10
6.10708e-10
6.13832e-10
6.18149e-10
6.23268e-10
6.28729e-10
6.34021e-10
6.38603e-10
6.4193e-10
6.43469e-10
6.42731e-10
6.39299e-10
6.32863e-10
6.23261e-10
6.10493e-10
5.94721e-10
5.7625e-10
5.55489e-10
5.32904e-10
5.0897e-10
4.84112e-10
4.58657e-10
4.32788e-10
4.06531e-10
3.79767e-10
3.52289e-10
3.23877e-10
2.94389e-10
2.63847e-10
2.32492e-10
2.00808e-10
1.69488e-10
1.39368e-10
1.11319e-10
8.6128e-11
6.43843e-11
4.63988e-11
3.21752e-11
2.14393e-11
1.37141e-11
8.41758e-12
4.95762e-12
2.8034e-12
1.53396e-12
8.12813e-13
4.166e-13
2.0645e-13
4.73991e-06
1.54396e-06
1.28072e-06
1.27335e-06
1.24182e-06
1.20957e-06
1.15284e-06
1.49411e-06
1.13958e-05
3.29392e-05
3.84285e-05
1.907e-05
2.23595e-06
2.12195e-06
2.12667e-06
3.41737e-06
1.06785e-05
1.22782e-05
1.20848e-05
4.86545e-06
1.91197e-06
1.34998e-06
1.31992e-06
1.31624e-06
1.31387e-06
1.31282e-06
1.31305e-06
1.31891e-06
2.12016e-06
7.50535e-06
1.86506e-05
4.91628e-05
7.47168e-05
7.46618e-05
7.47199e-05
7.4667e-05
7.472e-05
6.30098e-05
2.43591e-05
9.37861e-06
5.52607e-06
3.48361e-06
2.05153e-06
4.24027e-06
7.81809e-06
1.53162e-05
2.50776e-05
3.71681e-05
1.91109e-05
1.49851e-05
1.40909e-05
2.17133e-05
3.90599e-05
3.90841e-05
3.4413e-05
1.70999e-05
9.66939e-06
6.65876e-06
5.60293e-06
3.69312e-06
1.83606e-06
1.01234e-06
1.7046e-06
6.17678e-06
9.2116e-06
9.22397e-06
9.20617e-06
9.22053e-06
5.62196e-06
1.84701e-06
4.91104e-06
6.16669e-06
4.64752e-06
4.62941e-06
1.45594e-05
3.29627e-05
3.29597e-05
3.25742e-05
1.31889e-05
1.73295e-06
2.97912e-07
2.97528e-07
3.33075e-07
2.72223e-06
1.01525e-05
4.45043e-06
7.87818e-07
7.09738e-07
3.47429e-06
2.52405e-06
9.79799e-07
3.26118e-07
3.18143e-07
3.17889e-07
3.17934e-07
5.71916e-07
8.82266e-07
4.93018e-07
6.21779e-07
2.32448e-06
1.24783e-05
3.33082e-05
1.59365e-05
2.45519e-06
1.68619e-06
2.39631e-06
1.43454e-06
4.21942e-07
4.07201e-07
4.07125e-07
2.25487e-06
9.08091e-06
9.33269e-06
7.29697e-06
1.71959e-06
6.86307e-07
6.86757e-07
3.17965e-06
8.18954e-06
3.55944e-06
7.21722e-07
5.0508e-07
8.99962e-07
5.45389e-06
9.14541e-06
9.13279e-06
7.48051e-06
2.22517e-06
1.01869e-06
1.01474e-06
1.0153e-06
6.14361e-06
1.75981e-05
1.67959e-05
7.56503e-06
1.17361e-06
6.6511e-07
1.0086e-06
1.14366e-05
1.72664e-05
1.73804e-05
7.02871e-06
7.46009e-07
5.31846e-06
1.96487e-05
1.73526e-05
7.18434e-06
1.40327e-06
1.13827e-06
1.25459e-06
9.65789e-06
2.32243e-05
2.32174e-05
2.18397e-05
7.65484e-06
1.1352e-06
1.03834e-06
1.03782e-06
1.16062e-06
1.18343e-05
2.48614e-05
2.48634e-05
1.77398e-05
2.95019e-06
7.66628e-06
1.48018e-05
1.36417e-05
5.95755e-06
1.36302e-06
1.00248e-06
9.98822e-07
1.04375e-06
1.34373e-05
1.20143e-05
4.28646e-06