/*--------------------------------*- C++ -*----------------------------------*\
| =========                 |                                                 |
| \\      /  F ield         | OpenFOAM: The Open Source CFD Toolbox           |
|  \\    /   O peration     | Version:  2.4.0                                 |
|   \\  /    A nd           | Web:      www.OpenFOAM.org                      |
|    \\/     M anipulation  |                                                 |
\*---------------------------------------------------------------------------*/
FoamFile
{
    version     2.0;
    format      ascii;
    class       volScalarField;
    location    "2.6";
    object      H;
}
// * * * * * * * * * * * * * * * * * * * * * * * * * * * * * * * * * * * * * //

dimensions      [0 2 -2 0 0 0 0];

internalField   nonuniform List<scalar> 
8000
(
-11205.9
-9181.05
-7217.93
-5353.75
-3621.19
-1980.81
-27.5131
-3.51979
-5.98524
-5.57205
-4.43603
-3.33882
-2.58798
-2.1594
-1.95418
-1.8883
-1.90721
-1.9747
-1.99214
-2.00981
-2.04141
-2.09667
-2.18445
-2.29991
-2.42403
-2.55729
-2.70745
-2.87277
-3.03919
-3.20036
-3.35733
-3.50633
-3.64372
-3.76849
-3.87887
-3.97312
-4.05014
-4.10871
-4.1475
-4.1657
-4.16304
-4.1396
-4.09588
-4.03314
-3.95345
-3.85917
-3.75277
-3.63686
-3.51459
-3.38987
-11287.4
-9428.34
-7637.72
-5946.59
-4379.78
-2957.37
-1707.16
-708.689
-10.0399
-2.26069
-1.54682
-1.02263
-0.674768
-0.417372
-0.229235
-0.0779216
-0.019604
-0.854529
-0.894843
-0.820007
-0.747024
-0.683245
-0.627649
-0.583575
-0.550765
-0.527979
-0.518802
-0.523475
-0.537763
-0.564426
-0.615175
-0.68612
-0.731818
-0.765918
-0.80563
-0.857032
-0.920963
-0.995996
-1.07916
-1.16599
-1.25128
-1.33099
-1.40367
-1.47008
-1.53079
-1.58478
-1.6298
-1.66402
-1.68723
-1.7013
-11357.4
-9639.28
-7996.25
-6468.53
-5088.04
-3878.24
-2854.3
-2022.56
-1379.37
-908.516
-582.365
-364.018
-224.936
-130.862
-68.2547
-21.7721
-1.53742
-1.19982
-1.05314
-0.920418
-0.808991
-0.702991
-0.58923
-0.483178
-0.403712
-0.328155
-0.247146
-0.169507
-0.102314
-0.0291884
-0.00266989
-0.00665869
-0.289321
-0.268896
-0.239267
-0.213915
-0.195565
-0.185613
-0.186024
-0.199331
-0.224072
-0.259373
-0.292336
-0.331254
-0.383154
-0.449439
-0.524792
-0.601167
-0.678105
-0.762208
-11479.7
-10000.7
-8582.1
-7257.44
-6052.63
-4984.93
-4062.77
-3286.18
-2647.81
-2134.41
-1728.7
-1411.67
-1164.71
-971.23
-817.628
-693.37
-590.774
-504.291
-430.362
-366.13
-309.819
-260.119
-216.167
-176.914
-141.491
-109.024
-80.2476
-54.969
-31.8794
-8.3038
-0.628451
-0.478012
-0.400062
-0.327749
-0.260069
-0.196757
-0.138075
-0.0840525
-0.0359536
-0.00150163
-0.00186906
-0.0773226
-0.0896606
-0.0860301
-0.0852684
-0.0935288
-0.113703
-0.147448
-0.202317
-0.277251
-11605.8
-10373.1
-9183.81
-8061.32
-7023.33
-6081.62
-5242.11
-4505.43
-3867.74
-3321.88
-2858.45
-2466.99
-2136.92
-1858.28
-1622.18
-1421.08
-1248.78
-1100.26
-971.547
-859.443
-761.365
-675.183
-599.1
-531.576
-471.289
-417.106
-368.08
-323.415
-282.456
-244.68
-209.715
-177.27
-147.133
-119.215
-93.4019
-69.7186
-48.145
-28.6663
-11.8387
-0.360438
-0.195146
-0.140099
-0.0934112
-0.0542353
-0.0230678
-0.000687089
-0.000189522
-0.000735042
-0.0427575
-0.0640442
-11707.3
-10672.5
-9667.44
-8708.05
-7806.5
-6971.03
-6206.16
-5513.07
-4890.32
-4334.45
-3840.77
-3403.88
-3018.21
-2678.33
-2379.13
-2115.98
-1884.7
-1681.54
-1503.15
-1346.48
-1208.79
-1087.55
-980.467
-885.46
-800.656
-724.396
-655.239
-591.964
-533.563
-479.236
-428.375
-380.55
-335.482
-293.022
-253.123
-215.811
-181.165
-149.282
-120.264
-94.1987
-71.1164
-50.9948
-33.7658
-19.4043
-8.09483
-0.160986
-0.0548343
-0.0286225
-0.0109848
-0.000211577
-11783.4
-10897.2
-10030.2
-9193.01
-8393.86
-7638.81
-6931.74
-6274.66
-5668.04
-5111.16
-4602.49
-4139.94
-3721.11
-3343.41
-3004.16
-2700.62
-2430.07
-2189.72
-1976.82
-1788.61
-1622.37
-1475.45
-1345.29
-1229.46
-1125.73
-1032.05
-946.607
-867.825
-794.396
-725.263
-659.618
-596.892
-536.729
-478.965
-423.597
-370.75
-320.639
-273.539
-229.747
-189.55
-153.193
-120.858
-92.6464
-68.5606
-48.5068
-32.298
-19.6757
-10.3358
-3.91883
-0.0359071
-11837.3
-11056.2
-10287.1
-9536.95
-8811.47
-8115.4
-7452.44
-6825.28
-6235.78
-5685.03
-5173.53
-4701.22
-4267.58
-3871.69
-3512.27
-3187.69
-2896.03
-2635.14
-2402.63
-2195.96
-2012.49
-1849.53
-1704.44
-1574.61
-1457.58
-1351.09
-1253.07
-1161.7
-1075.44
-993.022
-913.479
-836.116
-760.517
-686.515
-614.172
-543.744
-475.64
-410.384
-348.564
-290.785
-237.622
-189.574
-147.026
-110.217
-79.2213
-53.9214
-34.0853
-19.1254
-8.72073
-0.0795237
-11869.3
-11151
-10441
-9744.63
-9066.34
-8410.25
-7779.91
-7178.31
-6607.89
-6070.55
-5567.64
-5099.97
-4667.85
-4271.06
-3908.92
-3580.3
-3283.66
-3017.11
-2778.44
-2565.23
-2374.89
-2204.72
-2052.02
-1914.11
-1788.43
-1672.57
-1564.32
-1461.72
-1363.11
-1267.11
-1172.66
-1079.03
-985.821
-892.953
-800.636
-709.353
-619.816
-532.918
-449.671
-371.147
-298.4
-232.392
-173.93
-123.582
-81.7402
-48.0571
-23.3418
-3.2966
-0.0307765
-0.000292859
-11890
-11212.4
-10542.2
-9883.72
-9240.99
-8617.74
-8017.27
-7442.51
-6895.91
-6379.49
-5894.74
-5442.66
-5023.75
-4637.96
-4284.77
-3963.18
-3671.78
-3408.75
-3171.99
-2959.1
-2767.55
-2594.63
-2437.65
-2293.9
-2160.76
-2035.77
-1916.65
-1801.38
-1688.19
-1575.66
-1462.71
-1348.63
-1233.09
-1116.13
-998.19
-880.075
-762.907
-648.088
-537.228
-432.063
-334.364
-245.747
-167.724
-101.01
-48.0434
-0.951657
-0.0102351
-0.000302306
-1.32787e-05
-0.000758206
-11906
-11260.6
-10622.4
-9995.77
-9384.53
-8792.12
-8221.63
-7675.75
-7156.72
-6666.37
-6206.01
-5776.5
-5378.17
-5010.86
-4673.94
-4366.3
-4086.46
-3832.54
-3602.36
-3393.52
-3203.41
-3029.34
-2868.55
-2718.31
-2576
-2439.11
-2305.34
-2172.65
-2039.29
-1903.85
-1765.32
-1623.1
-1477.04
-1327.48
-1175.2
-1021.52
-868.146
-717.226
-571.166
-432.612
-304.403
-188.447
-88.4955
-0.866496
-0.0115547
-0.000195113
-0.000951866
-0.000644874
-0.000493571
-0.000496303
-11921.4
-11307.1
-10700.4
-10105.7
-9526.84
-8967
-8429.05
-7915.38
-7427.92
-6968.13
-6536.98
-6134.96
-5762.06
-5417.79
-5101.22
-4810.98
-4545.33
-4302.21
-4079.29
-3874
-3683.67
-3505.52
-3336.78
-3174.7
-3016.65
-2860.19
-2703.07
-2543.34
-2379.39
-2209.98
-2034.33
-1852.15
-1663.69
-1469.76
-1271.81
-1071.87
-872.595
-677.102
-488.292
-310.082
-146.902
-1.49789
-0.0214259
-0.000337147
-0.00277315
-0.00245324
-0.0015464
-0.000762778
-2.03805e-05
4.18447e-07
-11938
-11356.9
-10784
-10223.8
-9679.96
-9155.72
-8653.58
-8175.58
-7723.18
-7297.37
-6898.6
-6526.82
-6181.5
-5861.67
-5565.91
-5292.46
-5039.21
-4803.8
-4583.65
-4376.05
-4178.2
-3987.32
-3800.63
-3615.49
-3429.42
-3240.15
-3045.71
-2844.43
-2635.06
-2416.78
-2189.32
-1952.96
-1708.64
-1457.97
-1203.23
-947.636
-694.358
-450.037
-208.53
-2.12259
-0.0325048
-0.000577276
-0.00522608
-0.00493204
-0.000117514
-3.68068e-06
6.23166e-06
5.78445e-05
0.000378208
0.000888783
-11956.3
-11411.9
-10876.3
-10354
-9848.67
-9363.17
-8899.68
-8459.7
-8044.13
-7653.27
-7286.87
-6944.2
-6624.04
-6324.77
-6044.44
-5780.76
-5531.24
-5293.23
-5063.95
-4840.63
-4620.51
-4400.93
-4179.38
-3953.55
-3721.38
-3481.1
-3231.28
-2970.9
-2699.36
-2416.58
-2123.08
-1819.98
-1509.15
-1193.8
-875.619
-562.101
-236.673
-2.25139
-0.0402189
-0.00390769
-0.00468747
-0.000173574
2.27131e-05
0.00030589
0.000580362
0.00112637
0.00341689
0.0209907
0.169461
0.305729
-11976.3
-11472
-10976.7
-10494.8
-10029.8
-9583.98
-9158.97
-8755.54
-8373.79
-8013.2
-7672.69
-7350.74
-7045.39
-6754.41
-6475.29
-6205.36
-5941.88
-5682.08
-5423.28
-5162.91
-4898.6
-4628.2
-4349.85
-4062.02
-3763.49
-3453.43
-3131.35
-2797.24
-2451.43
-2094.8
-1729.04
-1355.63
-976.568
-607.15
-220.857
-2.19578
-0.0451837
-0.0119153
-0.000704993
5.20469e-06
0.000482515
0.00290651
0.0214511
0.172559
0.312543
0.445773
0.574346
0.698688
0.818387
0.932003
-11996.4
-11532.1
-11076.1
-10632.1
-10203.2
-9790.93
-9396.28
-9019.21
-8659
-8314.32
-7983.32
-7663.76
-7353.09
-7048.58
-6747.43
-6446.84
-6144.14
-5836.84
-5522.74
-5199.98
-4867.08
-4522.95
-4166.93
-3798.77
-3418.59
-3026.94
-2624.63
-2212.81
-1793.43
-1366.57
-940.853
-491.366
-4.56669
-0.0910396
-0.0221802
-0.00197784
-0.000103422
0.000643788
0.00457716
0.0336867
0.264136
0.465586
0.642514
0.798758
0.93715
1.06053
1.17122
1.27145
1.363
1.44737
-12014.2
-11584.9
-11162
-10748.2
-10345.7
-9955.41
-9577.28
-9210.59
-8853.86
-8505.07
-8161.79
-7821.28
-7480.69
-7137.15
-6787.96
-6430.66
-6063.19
-5683.93
-5291.8
-4886.26
-4467.33
-4035.56
-3592.03
-3138.18
-2675.83
-2207.08
-1733.74
-1256.63
-788.842
-290.739
-2.88373
-0.0702618
-0.0028408
-0.000230295
0.000466233
0.00463488
0.0348378
0.271731
0.478838
0.662907
0.833774
0.992085
1.13533
1.26382
1.3788
1.48179
1.57444
1.65808
1.73427
1.80407
-12027.7
-11624.6
-11225.1
-10830.8
-10442.6
-10060.3
-9683.12
-9309.55
-8937.5
-8564.48
-8187.71
-7804.36
-7411.69
-7007.21
-6588.89
-6155.25
-5705.49
-5239.53
-4758
-4262.23
-3754.15
-3236.27
-2711.66
-2183.99
-1655.11
-1132.8
-597.125
-14.9193
-0.21259
-0.0346097
-0.00421284
-0.000381035
0.00330206
0.0256417
0.194809
0.364816
0.540087
0.719051
0.894411
1.06021
1.21351
1.35353
1.48038
1.59464
1.69732
1.78946
1.87206
1.94611
2.01249
2.07214
-12035.4
-11646.3
-11257.8
-10869.9
-10481.8
-10092.6
-9700.45
-9303.23
-8898.38
-8483.13
-8054.7
-7610.48
-7148.27
-6666.45
-6164.19
-5641.55
-5099.53
-4540.12
-3966.03
-3380.65
-2787.61
-2191.5
-1596.86
-1018.1
-417.666
-4.02659
-0.0939118
-0.00782562
-0.00069628
0.000464109
0.00455128
0.0336666
0.261362
0.459981
0.636003
0.801097
0.960669
1.11228
1.25387
1.38416
1.50235
1.60834
1.7024
1.78503
1.8568
1.91832
1.97035
2.01381
2.04956
2.07858
-12035.6
-11645.9
-11253.5
-10856.7
-10453.5
-10041.8
-9618.9
-9182.13
-8728.49
-8255.09
-7759.26
-7238.85
-6692.49
-6119.82
-5521.67
-4900.22
-4258.94
-3602.56
-2936.6
-2267.09
-1599.85
-947.909
-259.523
-2.64336
-0.0882705
-0.106854
-0.0618466
-0.0141219
0.0238396
0.193183
0.345376
0.487518
0.633653
0.780252
0.92
1.05022
1.16943
1.27645
1.37079
1.45231
1.52144
1.57859
1.62433
1.65933
1.6848
1.70242
1.71344
1.71888
1.71978
1.71707
-3.26687
-3.1492
-3.0393
-2.93837
-2.84709
-2.76538
-2.69228
-2.6266
-2.56752
-2.5145
-2.4662
-2.42228
-2.38217
-2.34569
-2.31211
-2.28101
-2.25153
-2.2225
-2.19438
-2.16727
-2.14162
-2.11825
-2.09621
-2.07535
-2.0565
-2.03979
-2.02587
-2.01454
-2.0052
-1.99785
-1.99163
-1.9875
-1.98527
-1.9846
-1.98538
-1.98786
-1.99205
-1.99792
-2.00516
-2.01332
-2.02218
-2.03224
-2.04353
-2.05636
-2.07095
-2.08727
-2.10541
-2.12573
-2.14756
-2.16984
-1.70935
-1.71417
-1.71816
-1.72276
-1.72869
-1.73566
-1.74263
-1.74941
-1.75488
-1.75913
-1.76141
-1.76138
-1.75898
-1.75471
-1.74835
-1.7394
-1.72839
-1.71538
-1.70224
-1.6885
-1.67473
-1.66051
-1.64638
-1.63255
-1.61979
-1.60819
-1.5979
-1.58821
-1.5792
-1.5714
-1.56514
-1.56009
-1.55588
-1.55259
-1.55043
-1.54947
-1.5499
-1.55083
-1.55288
-1.5555
-1.55957
-1.56479
-1.57115
-1.57891
-1.58787
-1.59764
-1.60828
-1.62077
-1.63494
-1.65087
-0.852017
-0.94044
-1.02396
-1.10212
-1.17526
-1.24325
-1.30502
-1.35957
-1.40626
-1.44499
-1.47562
-1.49828
-1.51363
-1.52303
-1.52609
-1.52358
-1.51646
-1.50691
-1.49485
-1.4812
-1.46579
-1.44872
-1.4316
-1.41446
-1.39744
-1.38099
-1.36447
-1.3481
-1.33171
-1.3163
-1.30143
-1.28725
-1.27346
-1.26021
-1.24744
-1.23551
-1.22434
-1.21428
-1.20527
-1.19689
-1.18944
-1.18319
-1.17825
-1.17461
-1.17221
-1.17104
-1.17121
-1.17343
-1.17749
-1.18313
-0.3635
-0.448783
-0.545827
-0.651003
-0.754174
-0.852344
-0.944884
-1.03057
-1.10737
-1.17478
-1.23232
-1.27938
-1.31598
-1.34288
-1.36123
-1.37055
-1.37207
-1.36797
-1.35957
-1.34789
-1.33298
-1.31532
-1.2957
-1.27524
-1.25383
-1.23184
-1.2098
-1.18729
-1.16424
-1.14082
-1.11783
-1.09496
-1.07221
-1.04983
-1.02783
-1.00586
-0.984306
-0.962977
-0.942426
-0.92262
-0.903574
-0.885295
-0.867475
-0.850536
-0.834464
-0.819348
-0.805116
-0.792079
-0.780333
-0.769997
-0.0909808
-0.143948
-0.224884
-0.30635
-0.393903
-0.490392
-0.583846
-0.671824
-0.753406
-0.828157
-0.895987
-0.956163
-1.00864
-1.05319
-1.08944
-1.11768
-1.13869
-1.15306
-1.16119
-1.16445
-1.16335
-1.15768
-1.14772
-1.13434
-1.11821
-1.0999
-1.08004
-1.05908
-1.03664
-1.01304
-0.988682
-0.963826
-0.938435
-0.912626
-0.886571
-0.860474
-0.834568
-0.808631
-0.783242
-0.75808
-0.733229
-0.708817
-0.684717
-0.660916
-0.637422
-0.614091
-0.591086
-0.568479
-0.546489
-0.52524
-0.000414589
-0.0304586
-0.0601143
-0.10137
-0.163534
-0.225954
-0.288369
-0.352477
-0.413036
-0.46805
-0.516461
-0.557942
-0.592739
-0.621383
-0.64416
-0.661855
-0.67515
-0.684739
-0.690466
-0.692719
-0.692052
-0.688681
-0.68286
-0.674852
-0.664943
-0.653423
-0.640363
-0.626376
-0.611472
-0.596093
-0.579593
-0.562238
-0.544112
-0.525221
-0.505675
-0.485675
-0.465383
-0.445008
-0.42474
-0.404604
-0.384791
-0.364911
-0.345004
-0.325143
-0.305468
-0.286042
-0.266832
-0.248027
-0.229327
-0.211021
-0.000332989
-0.000265346
-0.0198044
-0.0364321
-0.0544698
-0.082594
-0.109637
-0.135256
-0.158976
-0.179547
-0.195381
-0.205407
-0.209545
-0.208444
-0.202953
-0.193934
-0.1822
-0.168523
-0.153536
-0.137777
-0.121683
-0.105597
-0.0896314
-0.0740018
-0.0587315
-0.0440159
-0.0299479
-0.0162352
-0.00281751
0.0103355
0.0231763
0.0358957
0.0489151
0.0623558
0.07611
0.0901148
0.104228
0.118351
0.132383
0.146257
0.160198
0.174193
0.188193
0.202063
0.215588
0.228534
0.24091
0.252896
0.264298
0.275083
-0.000727181
-6.14344e-05
-0.00427218
-0.0141847
-0.0226647
-0.0262221
-0.0241173
-0.0183975
-0.00951051
0.00252303
0.0182768
0.0381155
0.0618836
0.0889878
0.118685
0.150205
0.182768
0.215616
0.24812
0.279716
0.309918
0.338255
0.364692
0.389218
0.411871
0.432777
0.452063
0.469859
0.486328
0.501809
0.516456
0.530522
0.544187
0.557695
0.571185
0.5846
0.597838
0.610538
0.622393
0.633254
0.643549
0.653086
0.661683
0.669306
0.675816
0.681149
0.685184
0.687715
0.688789
0.688496
-2.62366e-05
-0.00184011
-0.00646684
-0.00996576
-0.00984434
-0.0056458
5.10199e-05
0.00562428
0.0553
0.102989
0.150872
0.199574
0.24918
0.299498
0.350189
0.400786
0.450723
0.49934
0.546145
0.590625
0.6323
0.670864
0.706251
0.738771
0.768415
0.795352
0.820071
0.842892
0.863686
0.882695
0.900288
0.916941
0.932648
0.947409
0.96123
0.974129
0.985945
0.996376
1.00499
1.01223
1.01797
1.0222
1.02479
1.02571
1.025
1.02287
1.01931
1.01429
1.0078
1.00002
-0.00158568
-0.00238499
-0.00278849
-0.0023863
-0.00116487
0.000381041
0.00692585
0.0778764
0.144311
0.210484
0.277248
0.34448
0.411904
0.479156
0.545744
0.611071
0.674494
0.735417
0.793327
0.847811
0.898639
0.945604
0.988535
1.02765
1.06343
1.09636
1.12663
1.15443
1.17979
1.20276
1.22409
1.24376
1.26171
1.27795
1.29269
1.30597
1.31775
1.32799
1.33663
1.34379
1.34947
1.35375
1.3566
1.35795
1.35797
1.35687
1.35468
1.35129
1.34668
1.34127
-0.000465688
-0.000295704
-8.08763e-06
5.78799e-05
0.000876432
0.00989473
0.102226
0.189065
0.274111
0.358541
0.442098
0.524532
0.605592
0.684917
0.762058
0.836521
0.907836
0.975632
1.03964
1.09974
1.15588
1.20784
1.25551
1.29965
1.34039
1.37808
1.41305
1.44545
1.47527
1.50305
1.52885
1.55282
1.57499
1.59527
1.6139
1.631
1.64654
1.66054
1.67305
1.68407
1.69363
1.70179
1.7085
1.71359
1.71727
1.71977
1.7211
1.72111
1.71978
1.71766
9.49984e-06
0.000102302
0.000953956
0.00729036
0.0644516
0.158701
0.268546
0.379723
0.488077
0.592969
0.694044
0.791148
0.884116
0.97278
1.05693
1.13639
1.21108
1.28106
1.34639
1.40716
1.46365
1.51612
1.56475
1.60986
1.65183
1.69095
1.72754
1.76179
1.79384
1.82409
1.85263
1.87968
1.90518
1.92899
1.95123
1.97211
1.99155
2.00961
2.02632
2.04169
2.05575
2.06852
2.08003
2.09016
2.09886
2.10649
2.11305
2.11831
2.1223
2.12561
0.00292945
0.0188474
0.155389
0.282572
0.404567
0.523234
0.638562
0.75023
0.857939
0.961275
1.06024
1.15475
1.24472
1.33008
1.4108
1.48677
1.55808
1.62501
1.68774
1.74642
1.80138
1.85282
1.90104
1.94617
1.98843
2.02794
2.06523
2.10036
2.13346
2.16466
2.19406
2.22178
2.24797
2.27254
2.29583
2.31814
2.33945
2.35984
2.37936
2.39807
2.41602
2.43326
2.44967
2.46506
2.47923
2.49252
2.50482
2.51599
2.52608
2.53538
0.433883
0.556593
0.67454
0.787346
0.894579
0.996479
1.09372
1.18661
1.2756
1.36092
1.44273
1.52113
1.59612
1.6677
1.73616
1.80154
1.86388
1.92319
1.97935
2.03299
2.08406
2.13271
2.17909
2.22342
2.26559
2.30583
2.34415
2.38098
2.41626
2.45007
2.48249
2.51357
2.54334
2.57177
2.59891
2.62479
2.64951
2.67295
2.6952
2.71619
2.7361
2.75484
2.77263
2.78961
2.80592
2.82147
2.83614
2.85003
2.86303
2.87513
1.0384
1.13746
1.23008
1.31721
1.39972
1.47833
1.55346
1.62536
1.69448
1.76094
1.82488
1.88647
1.94569
2.0026
2.05751
2.11045
2.16151
2.21057
2.25773
2.30326
2.34724
2.38965
2.43055
2.46998
2.50798
2.54458
2.57979
2.61368
2.64637
2.67792
2.70841
2.73789
2.76626
2.79362
2.82004
2.84557
2.87015
2.89382
2.91651
2.93824
2.95901
2.97879
2.99746
3.01495
3.03115
3.04605
3.05959
3.07189
3.08311
3.09325
1.52608
1.59997
1.66983
1.73627
1.79977
1.86076
1.91941
1.97593
2.0304
2.08308
2.13405
2.18336
2.2311
2.27717
2.32178
2.36495
2.40679
2.44731
2.48611
2.52367
2.56004
2.59519
2.62919
2.66205
2.69377
2.72436
2.75388
2.78239
2.80987
2.83633
2.86181
2.88632
2.90971
2.93195
2.95304
2.97295
2.99176
3.00916
3.02538
3.04037
3.05408
3.06651
3.07772
3.08776
3.09666
3.10447
3.11125
3.11707
3.12197
3.12617
1.86868
1.92881
1.98512
2.03821
2.08853
2.13644
2.18225
2.22617
2.26826
2.30885
2.34805
2.38589
2.42233
2.45744
2.49134
2.52398
2.55535
2.58543
2.61418
2.64158
2.66766
2.69224
2.71529
2.73686
2.75692
2.77546
2.7926
2.80821
2.82246
2.83548
2.84721
2.85776
2.86726
2.8756
2.88289
2.88911
2.89441
2.89888
2.90255
2.90531
2.90732
2.90868
2.90944
2.90969
2.90945
2.90877
2.90767
2.9063
2.90476
2.90325
2.12588
2.17402
2.2175
2.25655
2.29212
2.32442
2.35374
2.38036
2.40449
2.42636
2.44613
2.46398
2.48006
2.49451
2.50735
2.51871
2.52862
2.53728
2.54458
2.55084
2.55596
2.5601
2.56329
2.56567
2.56725
2.56782
2.56773
2.56709
2.56599
2.56452
2.56275
2.56075
2.55856
2.55623
2.55378
2.5513
2.54884
2.54621
2.54322
2.54012
2.53703
2.53397
2.53096
2.52805
2.52528
2.52275
2.52034
2.5181
2.51603
2.51429
2.10181
2.12006
2.13404
2.14436
2.15152
2.156
2.15822
2.15854
2.15731
2.15487
2.1515
2.14745
2.14295
2.13828
2.13338
2.12873
2.12434
2.12038
2.11689
2.11392
2.11148
2.10958
2.10823
2.10742
2.10725
2.10735
2.10769
2.10839
2.10957
2.11109
2.11294
2.1151
2.11753
2.1202
2.1231
2.12618
2.12948
2.13309
2.13656
2.14005
2.14339
2.14686
2.15048
2.15417
2.15789
2.1617
2.16557
2.16944
2.17327
2.17714
1.71165
1.70417
1.69529
1.6856
1.67564
1.66586
1.65641
1.6479
1.64062
1.63483
1.63073
1.62844
1.62806
1.62953
1.63293
1.63806
1.64486
1.65317
1.66282
1.67365
1.68551
1.69813
1.71145
1.72536
1.73967
1.75411
1.7686
1.78308
1.79756
1.8119
1.82604
1.83988
1.8534
1.86658
1.87937
1.89174
1.90382
1.9154
1.92639
1.93678
1.94687
1.95659
1.96596
1.9749
1.98348
1.99167
1.99961
2.0073
2.01474
2.02201
-2.18829
-2.20165
-2.2151
-2.22946
-2.24438
-2.25998
-2.27622
-2.29275
-2.3096
-2.32651
-2.34389
-2.36192
-2.38092
-2.40168
-2.4215
-2.44151
-2.4609
-2.4815
-2.50314
-2.52544
-2.54841
-2.57234
-2.5966
-2.62166
-2.64749
-2.67438
-2.70295
-2.73334
-2.76549
-2.79928
-2.83459
-2.87125
-2.91054
-2.94962
-2.98846
-3.02769
-3.06578
-3.10479
-3.14459
-3.18434
-3.2234
-3.26149
-3.29887
-3.33566
-3.37344
-3.40874
-3.44217
-3.47305
-3.50243
-3.53178
-3.56016
-3.58734
-3.61382
-3.63899
-3.66216
-3.6836
-3.7036
-3.7228
-3.74167
-3.75862
-3.77279
-3.7855
-3.79701
-3.80687
-3.81484
-3.8207
-3.82426
-3.82528
-3.82354
-3.81911
-3.81338
-3.8013
-3.78593
-3.76794
-3.74661
-3.72174
-3.69286
-3.66008
-3.62356
-3.58339
-3.53975
-3.49299
-3.44361
-3.3917
-3.33779
-3.28266
-3.22698
-3.17119
-3.11604
-3.06209
-3.01018
-2.96095
-2.91497
-2.87278
-2.83493
-2.80186
-2.77356
-2.7506
-2.73316
-2.72126
-2.71498
-2.71398
-2.71809
-2.72709
-2.74103
-2.75961
-2.78226
-2.8088
-2.8387
-2.87211
-2.90901
-2.94832
-2.99007
-3.03434
-3.08098
-3.1298
-3.18009
-3.2319
-3.28478
-3.33927
-3.39517
-3.45155
-3.50848
-3.56599
-3.62416
-3.68344
-3.74126
-3.79862
-3.85593
-3.91329
-3.96921
-4.0239
-4.0763
-4.12779
-4.1781
-4.22727
-4.27522
-4.32189
-4.36675
-4.40947
-4.45018
-4.48967
-4.52777
-4.56356
-4.59702
-4.62846
-4.65452
-4.6763
-4.69273
-4.70502
-4.71277
-4.71592
-4.71503
-4.71108
-4.70596
-4.69705
-4.68611
-4.67255
-4.65877
-4.64496
-4.63068
-4.61613
-4.60214
-4.58772
-4.57295
-4.55753
-4.54207
-4.52689
-4.51163
-4.49675
-4.4805
-4.46344
-4.44488
-4.42522
-4.40465
-4.38245
-4.35934
-4.3329
-4.30297
-4.26892
-4.23214
-4.19159
-4.14672
-4.09783
-4.043
-3.9818
-3.91362
-3.83722
-3.75265
-3.6618
-3.56484
-3.46125
-3.35095
-3.23401
-3.11165
-2.98251
-2.84681
-2.70507
-2.55816
-2.40758
-2.25463
-2.10088
-1.94808
-1.79807
-1.65263
-1.51332
-1.38146
-1.25805
-1.14383
-1.03919
-0.944249
-0.858855
-0.782642
-0.71507
-0.65547
-0.603098
-0.557169
-0.516898
-0.481525
-0.450342
-0.422701
-0.398027
-0.375821
-0.355656
-0.33718
-0.3201
-0.304184
-0.289248
-0.27515
-0.261781
-0.24906
-0.236927
-0.22534
-0.214267
-0.203684
-0.193576
-0.183928
-0.17473
-0.165972
-0.157644
-0.149737
-0.14224
-0.135142
-0.128432
-0.122096
-0.116122
-0.110496
-0.105202
-0.100226
-0.0955528
-0.0911663
-0.0870507
-0.0831904
-0.0795695
-0.0761724
-0.0729834
-0.0699873
-0.0671691
-0.0645142
-0.0620083
-0.0596376
-0.0573887
-0.0552489
-0.0532059
-0.0512477
-0.0493634
-0.0475424
-0.0457746
-0.0440508
-0.0423624
-0.0407013
-0.0390605
-0.0374335
-0.0358148
-0.0341996
-0.0325845
-0.0309666
-0.0293448
-0.0277188
-0.0260897
-0.02446
-0.0228337
-0.0212158
-0.0196128
-0.018032
-0.0164818
-0.0149711
-0.013509
-0.0121044
-0.0107658
-0.00950026
-0.00831366
-0.00720942
-0.00618792
-0.00524521
-0.00437083
-0.00354392
-0.00272363
-0.00183688
-0.000754188
-1.6652
-1.67609
-1.68777
-1.69915
-1.7112
-1.72379
-1.73595
-1.74941
-1.76356
-1.77814
-1.79321
-1.80862
-1.82436
-1.84004
-1.85648
-1.87349
-1.89103
-1.90887
-1.92728
-1.94619
-1.96562
-1.98595
-2.0071
-2.02909
-2.05199
-2.07592
-2.10095
-2.1272
-2.1552
-2.18423
-2.21335
-2.24268
-2.27278
-2.30487
-2.33814
-2.37209
-2.40677
-2.44268
-2.48084
-2.51831
-2.55529
-2.59244
-2.63054
-2.66928
-2.70924
-2.74926
-2.78988
-2.83089
-2.8719
-2.9129
-2.95405
-2.995
-3.03568
-3.07607
-3.11562
-3.15454
-3.19361
-3.22987
-3.26427
-3.2954
-3.32449
-3.3529
-3.38004
-3.40584
-3.43038
-3.45369
-3.47573
-3.49638
-3.51549
-3.53311
-3.55059
-3.56393
-3.57443
-3.58124
-3.58584
-3.58932
-3.59024
-3.58834
-3.58377
-3.57656
-3.56658
-3.55381
-3.53843
-3.5202
-3.49911
-3.47548
-3.44958
-3.42154
-3.39177
-3.36021
-3.32733
-3.29337
-3.25892
-3.22451
-3.19051
-3.15757
-3.126
-3.09611
-3.06827
-3.04291
-3.02055
-3.00135
-2.98548
-2.97318
-2.96466
-2.96006
-2.9592
-2.96202
-2.96873
-2.97937
-2.99414
-3.01233
-3.03378
-3.05876
-3.0872
-3.11883
-3.15383
-3.19159
-3.23195
-3.27471
-3.32027
-3.36857
-3.41865
-3.47029
-3.5239
-3.57931
-3.63607
-3.69355
-3.7514
-3.80972
-3.86855
-3.92765
-3.98563
-4.04253
-4.09807
-4.15282
-4.20621
-4.25864
-4.30858
-4.35562
-4.39953
-4.44139
-4.48058
-4.51764
-4.55107
-4.5801
-4.6064
-4.62911
-4.64763
-4.6614
-4.67179
-4.67851
-4.68113
-4.67956
-4.67364
-4.66488
-4.65294
-4.63744
-4.61953
-4.60096
-4.58218
-4.56329
-4.54518
-4.52835
-4.51357
-4.49949
-4.48634
-4.47451
-4.46466
-4.45634
-4.44958
-4.44497
-4.44217
-4.44062
-4.44003
-4.44034
-4.44136
-4.44283
-4.44248
-4.43964
-4.43407
-4.42643
-4.41608
-4.40215
-4.3844
-4.36126
-4.33157
-4.29445
-4.25015
-4.19815
-4.1377
-4.06929
-3.99049
-3.90054
-3.79919
-3.68607
-3.56109
-3.42478
-3.27789
-3.12087
-2.95484
-2.78145
-2.60281
-2.42146
-2.24011
-2.06142
-1.88785
-1.72162
-1.56455
-1.41808
-1.28316
-1.16033
-1.04971
-0.951062
-0.863839
-0.787276
-0.720451
-0.66235
-0.611931
-0.568164
-0.530075
-0.496767
-0.467439
-0.441391
-0.418028
-0.396853
-0.37746
-0.359523
-0.342788
-0.327056
-0.312181
-0.298052
-0.284587
-0.271731
-0.259443
-0.247694
-0.236464
-0.225738
-0.215505
-0.205755
-0.196478
-0.187666
-0.179308
-0.171394
-0.163912
-0.156848
-0.150189
-0.143921
-0.138026
-0.13249
-0.127294
-0.122422
-0.117855
-0.113574
-0.109562
-0.1058
-0.102268
-0.0989478
-0.0958212
-0.0928694
-0.0900739
-0.087417
-0.0848809
-0.0824485
-0.080103
-0.0778284
-0.0756089
-0.0734299
-0.0712771
-0.0691372
-0.0669976
-0.0648469
-0.0626746
-0.0604714
-0.0582295
-0.0559424
-0.0536056
-0.0512162
-0.0487738
-0.0462801
-0.0437391
-0.0411576
-0.038545
-0.035913
-0.0332759
-0.0306499
-0.0280527
-0.025503
-0.02302
-0.0206222
-0.0183267
-0.016148
-0.0140965
-0.0121773
-0.0103865
-0.0087077
-0.0071029
-0.00549074
-0.00372508
-0.00154069
-1.18936
-1.19454
-1.20042
-1.20705
-1.21442
-1.22248
-1.23118
-1.24043
-1.25037
-1.26101
-1.27174
-1.28237
-1.2935
-1.3056
-1.31828
-1.33161
-1.34575
-1.36042
-1.37577
-1.39168
-1.4084
-1.4259
-1.44425
-1.46349
-1.48365
-1.50476
-1.52681
-1.54975
-1.57351
-1.5981
-1.62348
-1.64998
-1.67683
-1.70341
-1.73069
-1.75878
-1.78778
-1.81695
-1.84605
-1.87659
-1.90819
-1.94059
-1.97367
-2.00748
-2.04183
-2.07669
-2.11191
-2.14736
-2.18136
-2.21658
-2.25315
-2.29111
-2.33042
-2.36939
-2.4087
-2.44759
-2.4873
-2.5277
-2.56863
-2.6097
-2.65097
-2.69268
-2.7351
-2.77823
-2.82166
-2.86518
-2.90876
-2.95223
-2.99502
-3.03692
-3.07781
-3.11715
-3.15496
-3.19085
-3.22452
-3.25522
-3.28137
-3.30389
-3.32227
-3.3383
-3.3523
-3.36398
-3.37341
-3.38082
-3.38628
-3.38898
-3.38975
-3.38867
-3.38579
-3.38079
-3.3739
-3.36528
-3.35504
-3.34328
-3.33019
-3.31599
-3.30089
-3.28508
-3.26893
-3.25281
-3.23736
-3.22262
-3.20701
-3.19263
-3.17996
-3.16868
-3.15869
-3.15023
-3.1435
-3.1386
-3.13583
-3.13536
-3.13686
-3.14055
-3.1465
-3.15511
-3.16626
-3.18013
-3.19659
-3.21529
-3.23667
-3.26071
-3.2873
-3.31659
-3.34816
-3.38182
-3.41746
-3.45489
-3.49417
-3.53481
-3.57645
-3.61921
-3.66275
-3.70613
-3.7492
-3.79233
-3.83528
-3.87745
-3.91921
-3.95929
-3.99743
-4.03309
-4.06692
-4.09903
-4.12896
-4.15521
-4.17792
-4.19777
-4.21491
-4.2288
-4.24035
-4.24916
-4.25461
-4.25737
-4.25743
-4.25599
-4.25288
-4.24786
-4.24114
-4.23381
-4.2254
-4.21619
-4.20665
-4.19724
-4.18925
-4.18175
-4.1746
-4.16794
-4.16242
-4.15823
-4.15562
-4.15494
-4.15749
-4.16189
-4.16868
-4.17809
-4.18968
-4.20278
-4.21722
-4.23274
-4.24793
-4.26215
-4.27643
-4.29102
-4.30258
-4.30975
-4.31316
-4.31224
-4.30565
-4.29215
-4.27056
-4.24045
-4.2002
-4.14682
-4.08205
-4.00457
-3.91398
-3.80831
-3.68734
-3.55045
-3.39864
-3.23351
-3.05647
-2.86997
-2.67708
-2.48114
-2.28559
-2.09377
-1.90873
-1.73305
-1.5688
-1.4174
-1.27974
-1.15609
-1.04627
-0.94969
-0.865452
-0.792456
-0.729487
-0.675288
-0.628628
-0.588344
-0.553378
-0.522789
-0.495767
-0.471627
-0.449805
-0.429845
-0.411388
-0.394153
-0.37793
-0.36256
-0.347929
-0.333955
-0.320582
-0.307772
-0.295498
-0.283744
-0.272498
-0.261751
-0.251498
-0.241732
-0.232445
-0.223631
-0.215281
-0.207384
-0.19993
-0.192906
-0.186298
-0.18009
-0.174267
-0.168811
-0.163703
-0.158925
-0.154456
-0.150276
-0.146363
-0.142696
-0.139251
-0.136006
-0.132937
-0.130023
-0.127238
-0.124559
-0.121964
-0.11943
-0.116933
-0.114451
-0.111963
-0.109448
-0.106887
-0.104259
-0.101549
-0.0987386
-0.0958151
-0.092766
-0.0895818
-0.0862558
-0.0827846
-0.0791688
-0.0754127
-0.0715253
-0.0675203
-0.0634158
-0.0592346
-0.0550039
-0.0507544
-0.0465197
-0.0423349
-0.0382357
-0.0342564
-0.0304276
-0.0267741
-0.023311
-0.0200378
-0.0169289
-0.0139131
-0.0108329
-0.00740202
-0.00308746
-0.762826
-0.758153
-0.753836
-0.750013
-0.746842
-0.744185
-0.742025
-0.740369
-0.739294
-0.738752
-0.738344
-0.738338
-0.738735
-0.73991
-0.741675
-0.744012
-0.74691
-0.750362
-0.754439
-0.759019
-0.763985
-0.769466
-0.77546
-0.782196
-0.789504
-0.79753
-0.806298
-0.815755
-0.825941
-0.837028
-0.848449
-0.860352
-0.8733
-0.886679
-0.900633
-0.916046
-0.932494
-0.950049
-0.968507
-0.98805
-1.00887
-1.03092
-1.05399
-1.07804
-1.10304
-1.12882
-1.15472
-1.18137
-1.20955
-1.2393
-1.27015
-1.30329
-1.33793
-1.37371
-1.41051
-1.44834
-1.48727
-1.52689
-1.56735
-1.60786
-1.64899
-1.69099
-1.73385
-1.7775
-1.82191
-1.8671
-1.91297
-1.95947
-2.00654
-2.05412
-2.10225
-2.15147
-2.20059
-2.24982
-2.29992
-2.35116
-2.40346
-2.45608
-2.50964
-2.5636
-2.61731
-2.6704
-2.72242
-2.77308
-2.82177
-2.86748
-2.91007
-2.94963
-2.98604
-3.01928
-3.04941
-3.07653
-3.10074
-3.12215
-3.14087
-3.15702
-3.17074
-3.18218
-3.19149
-3.19888
-3.20468
-3.21049
-3.21511
-3.21705
-3.21827
-3.21746
-3.21582
-3.21514
-3.21461
-3.21402
-3.21349
-3.21317
-3.21323
-3.21413
-3.21527
-3.21703
-3.2193
-3.22244
-3.22686
-3.23246
-3.2393
-3.24746
-3.257
-3.26798
-3.28039
-3.29425
-3.30954
-3.32646
-3.34442
-3.36266
-3.38192
-3.40206
-3.42339
-3.44521
-3.46692
-3.48907
-3.51161
-3.53413
-3.5565
-3.57909
-3.60118
-3.62297
-3.64443
-3.66507
-3.68463
-3.70396
-3.72095
-3.7357
-3.74899
-3.76061
-3.77037
-3.77846
-3.78601
-3.79214
-3.79738
-3.80199
-3.80665
-3.81101
-3.815
-3.81867
-3.82281
-3.827
-3.83046
-3.83451
-3.83931
-3.84461
-3.85047
-3.85786
-3.86549
-3.8719
-3.87924
-3.88785
-3.89765
-3.9087
-3.92095
-3.93446
-3.94907
-3.9645
-3.98049
-3.99681
-4.01327
-4.02967
-4.04585
-4.06253
-4.0773
-4.09026
-4.10095
-4.10798
-4.11003
-4.10746
-4.09872
-4.08234
-4.05725
-4.02235
-3.97742
-3.9205
-3.85082
-3.76785
-3.66946
-3.55509
-3.42492
-3.27888
-3.1181
-2.94485
-2.76177
-2.5723
-2.38014
-2.18904
-2.00262
-1.8241
-1.65612
-1.50065
-1.35894
-1.23158
-1.11856
-1.01936
-0.933103
-0.858645
-0.794703
-0.739934
-0.693021
-0.652718
-0.617896
-0.587553
-0.560829
-0.537003
-0.515483
-0.495792
-0.477556
-0.460487
-0.444368
-0.42904
-0.414386
-0.400329
-0.386814
-0.373806
-0.361284
-0.349236
-0.337655
-0.32654
-0.31589
-0.305704
-0.295981
-0.28672
-0.277919
-0.269573
-0.261676
-0.254221
-0.247199
-0.2406
-0.23441
-0.228616
-0.223202
-0.218152
-0.213446
-0.209064
-0.204985
-0.201184
-0.197639
-0.194322
-0.191206
-0.188263
-0.185463
-0.182777
-0.180172
-0.177617
-0.175081
-0.172531
-0.169935
-0.167262
-0.164479
-0.161557
-0.158467
-0.15518
-0.151672
-0.147919
-0.143901
-0.139603
-0.135013
-0.130126
-0.124942
-0.119469
-0.11372
-0.107718
-0.101495
-0.0950876
-0.0885424
-0.0819113
-0.0752509
-0.0686208
-0.062081
-0.0556878
-0.0494897
-0.0435204
-0.0377873
-0.0322533
-0.0267666
-0.0210387
-0.0145102
-0.0061177
-0.509468
-0.498209
-0.486973
-0.475931
-0.464983
-0.45429
-0.443892
-0.4337
-0.423721
-0.413981