/*--------------------------------*- C++ -*----------------------------------*\
| =========                 |                                                 |
| \\      /  F ield         | OpenFOAM: The Open Source CFD Toolbox           |
|  \\    /   O peration     | Version:  2.4.0                                 |
|   \\  /    A nd           | Web:      www.OpenFOAM.org                      |
|    \\/     M anipulation  |                                                 |
\*---------------------------------------------------------------------------*/
FoamFile
{
    version     2.0;
    format      ascii;
    class       volScalarField;
    location    "2.5";
    object      p;
}
// * * * * * * * * * * * * * * * * * * * * * * * * * * * * * * * * * * * * * //

dimensions      [1 -1 -2 0 0 0 0];

internalField   nonuniform List<scalar> 
8000
(
-1.23036
-1.23946
-1.24546
-1.24677
-1.24367
-1.23661
-1.22552
-1.21064
-1.19173
-1.16912
-1.14251
-1.11234
-1.07822
-1.04079
-0.999526
-0.955321
-0.907497
-0.857326
-0.803926
-0.749238
-0.692134
-0.635138
-0.575091
-0.512822
-0.444503
-0.380514
-0.341002
-0.776239
-2.60979
-7.65077
-12.5147
-10.5322
-5.45307
-2.66296
-1.26742
-1.36061
-1.35471
-1.34744
-1.34482
-1.34482
-1.34508
-1.34514
-1.34513
-1.34513
-1.34511
-1.34506
-1.345
-1.34492
-1.34482
-1.34473
-1.95424
-1.96267
-1.97161
-1.97889
-1.9845
-1.98853
-1.9912
-1.99225
-1.9919
-1.9898
-1.98622
-1.98072
-1.97366
-1.96443
-1.95353
-1.94013
-1.92487
-1.90676
-1.88704
-1.86518
-1.84106
-1.80166
-1.71896
-1.59223
-1.83118
-3.77239
-7.92423
-13.0391
-11.1633
-5.69078
-3.3656
-1.41619
-1.37561
-1.37596
-1.3691
-1.36568
-1.36598
-1.36628
-1.36638
-1.36639
-1.36639
-1.36638
-1.36636
-1.36634
-1.36631
-1.36628
-1.36624
-1.36619
-1.36613
-1.36607
-2.5824
-2.60003
-2.61876
-2.63517
-2.64939
-2.66175
-2.6725
-2.68144
-2.68877
-2.69415
-2.69791
-2.69956
-2.69957
-2.69719
-2.69313
-2.68663
-2.67951
-2.67043
-2.65461
-2.60929
-2.52356
-2.53854
-3.38409
-6.07712
-10.9163
-13.0858
-7.33454
-2.96917
-1.34012
-1.40114
-1.39022
-1.38812
-1.38735
-1.38737
-1.38736
-1.38735
-1.38736
-1.38735
-1.38734
-1.38732
-1.3873
-1.38728
-1.38725
-1.38722
-1.38696
-1.38713
-1.38707
-1.38701
-1.38694
-1.38687
-3.44003
-3.47244
-3.50774
-3.54094
-3.57239
-3.60293
-3.63278
-3.66203
-3.69063
-3.71876
-3.74626
-3.77339
-3.79983
-3.82648
-3.85408
-3.884
-3.90613
-3.88972
-3.81507
-3.90092
-4.93481
-7.7211
-9.98306
-8.08622
-1.76549
-1.40524
-1.45924
-1.42331
-1.41195
-1.41106
-1.41143
-1.41159
-1.4117
-1.41171
-1.41172
-1.41172
-1.4117
-1.41168
-1.41136
-1.41157
-1.41151
-1.41149
-1.41141
-1.4113
-1.41122
-1.41149
-1.41141
-1.41127
-1.4116
-1.41146
-4.88283
-4.89853
-4.91861
-4.94161
-4.96745
-4.99655
-5.0289
-5.0647
-5.10388
-5.14669
-5.19303
-5.24353
-5.29901
-5.36052
-5.42196
-5.46159
-5.46382
-5.57467
-6.34957
-8.22815
-9.40589
-6.31462
-1.59149
-1.30561
-1.44672
-1.42789
-1.43124
-1.43263
-1.43273
-1.43277
-1.433
-1.43322
-1.43341
-1.43355
-1.43367
-1.43326
-1.43394
-1.43418
-1.43428
-1.43428
-1.43427
-1.43425
-1.43393
-1.43396
-1.43404
-1.43403
-1.43373
-1.43391
-1.43387
-1.43382
-5.58997
-5.6045
-5.6228
-5.64204
-5.66219
-5.68333
-5.70579
-5.72933
-5.75407
-5.77973
-5.80754
-5.83961
-5.87567
-5.89108
-5.82148
-5.68314
-6.09049
-8.71014
-13.0563
-5.03149
-1.70349
-1.43077
-1.45099
-1.44751
-1.45275
-1.45522
-1.45494
-1.45506
-1.45537
-1.45562
-1.45582
-1.45598
-1.45613
-1.45625
-1.45635
-1.45642
-1.4565
-1.45655
-1.45658
-1.4566
-1.4566
-1.4563
-1.45661
-1.45658
-1.45655
-1.45652
-1.45648
-1.45644
-1.45639
-1.45635
-5.1949
-5.21723
-5.23825
-5.25553
-5.26977
-5.28181
-5.2915
-5.2989
-5.30368
-5.30688
-5.31044
-5.314
-5.29469
-5.19185
-5.02149
-5.35992
-7.76025
-11.6611
-3.23174
-1.5089
-1.47381
-1.47019
-1.47313
-1.46641
-1.48324
-1.46827
-1.4696
-1.4715
-1.47291
-1.4737
-1.47408
-1.47429
-1.47445
-1.47458
-1.4747
-1.47479
-1.47487
-1.47494
-1.47499
-1.47503
-1.47507
-1.47503
-1.47522
-1.47524
-1.47527
-1.47528
-1.47522
-1.47534
-1.47528
-1.47541
-7.11142
-7.07292
-7.03753
-7.01452
-7.00355
-7.00347
-7.01382
-7.03462
-7.06598
-7.10842
-7.16302
-7.22913
-7.29689
-7.34364
-7.39081
-7.69584
-8.83791
-10.217
-3.97058
-1.78292
-1.44042
-1.44586
-1.48793
-1.50144
-1.50124
-1.50028
-1.50032
-1.50108
-1.49255
-1.49613
-1.49689
-1.49682
-1.49675
-1.49669
-1.49664
-1.49661
-1.49643
-1.49584
-1.4962
-1.49618
-1.49617
-1.49616
-1.49616
-1.49616
-1.49617
-1.49618
-1.49619
-1.49621
-1.49623
-1.49625
-7.04374
-6.99436
-6.95125
-6.92317
-6.90863
-6.90604
-6.91503
-6.93567
-6.96807
-7.01237
-7.06878
-7.13786
-7.22018
-7.31452
-7.41308
-7.50654
-7.63542
-8.01297
-8.89416
-9.31388
-1.95635
-1.41117
-1.79538
-1.65535
-1.53929
-1.52463
-1.51967
-1.52048
-1.52099
-1.52108
-1.52107
-1.521
-1.5209
-1.52077
-1.52064
-1.52051
-1.52039
-1.52028
-1.52017
-1.52007
-1.51998
-1.51988
-1.51979
-1.5197
-1.51962
-1.51954
-1.51946
-1.51938
-1.5193
-1.51921
-1.6985
-1.72232
-1.74017
-1.74994
-1.75306
-1.7506
-1.74242
-1.72866
-1.70893
-1.68345
-1.65164
-1.61373
-1.56886
-1.51793
-1.46165
-1.40204
-1.32554
-1.18347
-0.930155
-0.858771
-2.43882
-12.5254
-7.82423
-10.9087
-2.31309
-1.98488
-1.72786
-1.62285
-1.58117
-1.56725
-1.54771
-1.53929
-1.54088
-1.54211
-1.54218
-1.54197
-1.54189
-1.54181
-1.54179
-1.54178
-1.54178
-1.54177
-1.54177
-1.54176
-1.54175
-1.54175
-1.54174
-1.54174
-1.54173
-1.54173
-1.30118
-1.31073
-1.32057
-1.32652
-1.32811
-1.32553
-1.31903
-1.30848
-1.29396
-1.2752
-1.25228
-1.22483
-1.19298
-1.15628
-1.11492
-1.06757
-1.01262
-0.949016
-0.893197
-0.88726
-0.922646
-1.06876
-1.39813
-1.8448
-6.83653
-10.4864
-10.6434
-9.29593
-2.8823
-1.89395
-1.4824
-1.60294
-1.56854
-1.56442
-1.55753
-1.56404
-1.56281
-1.56515
-1.56511
-1.56492
-1.56491
-1.56487
-1.56484
-1.56482
-1.5648
-1.56479
-1.56477
-1.56476
-1.56474
-1.56473
0.0543846
0.0581379
0.0614917
0.0641009
0.0659182
0.0673016
0.0679994
0.0683254
0.0678619
0.0670324
0.065229
0.0630383
0.0595859
0.0557033
0.0501584
0.0441494
0.0359016
0.0269564
0.0146662
0.00200639
-0.0120953
-0.0226788
-0.0427709
-0.0520958
-0.141766
-0.242987
-0.438663
-0.698105
-1.14884
-6.60226
-8.53684
-9.35363
-6.40249
-2.75069
-1.08113
-1.35745
-1.58958
-1.56029
-1.55874
-1.58704
-1.5866
-1.58681
-1.5869
-1.58689
-1.58696
-1.58695
-1.58698
-1.587
-1.58703
-1.58705
1.76033
1.74446
1.72983
1.7195
1.71318
1.71039
1.71102
1.71509
1.7226
1.73357
1.74799
1.76589
1.78723
1.81208
1.84036
1.87221
1.90746
1.94633
1.98855
2.03456
2.08394
2.13751
2.19472
2.25724
2.32679
2.40988
2.50772
2.60954
2.71927
2.83217
2.81221
2.43728
-0.94965
-1.69868
-8.08235
-8.79977
-5.09802
-2.82525
-1.19741
-1.60233
-1.61892
-1.60514
-1.61005
-1.60916
-1.60899
-1.60906
-1.60909
-1.60912
-1.6092
-1.60924
2.2632
2.25208
2.24095
2.23255
2.22693
2.2238
2.22307
2.22473
2.22884
2.23538
2.24441
2.25592
2.26999
2.28661
2.30588
2.32778
2.35245
2.37985
2.41017
2.44333
2.47961
2.51884
2.56144
2.60712
2.6565
2.70922
2.76636
2.82783
2.89518
2.96571
3.03037
3.0927
3.14192
3.22321
3.25284
3.0975
-0.175254
-2.0219
-7.24434
-6.8269
-3.2193
-1.66171
-1.63707
-1.64396
-1.6329
-1.63437
-1.63275
-1.63263
-1.63268
-1.63278
2.67277
2.65903
2.64489
2.63334
2.62441
2.61776
2.61325
2.61091
2.61071
2.61268
2.61679
2.62306
2.63144
2.64196
2.65456
2.66928
2.68605
2.70492
2.72578
2.74873
2.77362
2.80056
2.82938
2.86023
2.89287
2.9275
2.96382
3.00206
3.04176
3.08322
3.12618
3.17161
3.21945
3.26921
3.31478
3.35983
3.39336
3.45955
3.42915
1.92572
-1.29482
-6.48453
-4.75306
-2.7866
-1.87247
-1.70244
-1.65606
-1.65597
-1.65453
-1.65476
2.94518
2.92437
2.90352
2.8862
2.87206
2.86051
2.8514
2.84469
2.84039
2.83849
2.83898
2.84186
2.84713
2.85479
2.86485
2.87731
2.89221
2.90954
2.92933
2.9516
2.97637
3.00366
3.0335
3.06591
3.10093
3.13857
3.17886
3.22183
3.2675
3.31591
3.36706
3.42099
3.47768
3.53724
3.59978
3.66588
3.73568
3.80738
3.87559
3.93322
4.05543
4.16008
2.44345
-2.26352
-3.80592
-2.74834
-1.95858
-1.69662
-1.66996
-1.68114
2.22068
2.20593
2.18987
2.17607
2.16471
2.15537
2.14786
2.14213
2.13818
2.13598
2.13552
2.13679
2.13979
2.14453
2.15099
2.15921
2.16918
2.18092
2.19444
2.20978
2.22694
2.24596
2.26685
2.28966
2.31439
2.3411
2.36981
2.40057
2.4334
2.46836
2.50548
2.54484
2.58645
2.63043
2.67676
2.72557
2.7769
2.83112
2.88881
2.94965
3.00782
3.05315
3.10964
3.13971
2.44095
-0.0334627
-1.5191
-1.56932
-1.5429
-1.65825
1.95821
1.96754
1.97792
1.98513
1.98892
1.99008
1.98924
1.98683
1.9832
1.97866
1.97348
1.96792
1.96222
1.95657
1.95116
1.94614
1.94168
1.93788
1.93489
1.93278
1.93166
1.93161
1.93269
1.93496
1.93848
1.94328
1.94941
1.95688
1.96573
1.97595
1.98758
2.00059
2.015
2.03078
2.04794
2.06643
2.08626
2.10736
2.12974
2.15338
2.17845
2.20486
2.2306
2.25372
2.27091
2.26555
1.71635
0.584512
-0.51453
-1.21777
0.306107
0.359442
0.407558
0.443151
0.469367
0.489014
0.503452
0.513496
0.519845
0.523143
0.523962
0.522793
0.520059
0.516126
0.511308
0.505875
0.500061
0.494063
0.488052
0.48217
0.476537
0.471253
0.466397
0.462034
0.458212
0.454966
0.452318
0.450278
0.448847
0.448014
0.447758
0.448049
0.448851
0.450113
0.451785
0.453797
0.456084
0.458555
0.461127
0.463693
0.466158
0.468398
0.470361
0.472314
0.486839
0.474774
0.500443
0.479498
0.243695
-0.28786
4.11709
3.72607
3.3335
2.9953
2.70011
2.43412
2.19145
1.96953
1.76631
1.57985
1.40838
1.25041
1.10464
0.969989
0.845505
0.730365
0.623855
0.525345
0.434281
0.350171
0.272575
0.2011
0.135388
0.0751157
0.0199858
-0.0302743
-0.0759153
-0.117171
-0.154257
-0.187374
-0.216709
-0.242436
-0.264714
-0.28369
-0.299497
-0.312253
-0.32206
-0.329006
-0.333152
-0.33455
-0.333216
-0.329161
-0.322196
-0.311888
-0.2955
-0.268992
-0.270847
-0.221951
-0.189129
-0.246002
-1.34463
-1.34454
-1.3443
-1.34433
-1.34424
-1.34423
-1.34416
-1.34408
-1.34398
-1.34357
-1.34421
-1.34415
-1.34411
-1.34425
-1.34401
-1.34398
-1.34496
-1.34468
-1.34468
-1.34409
-1.34454
-1.34457
-1.34451
-1.34451
-1.34454
-1.34457
-1.34471
-1.34474
-1.34474
-1.34484
-1.34489
-1.34488
-1.34485
-1.34503
-1.34515
-1.34517
-1.34526
-1.34501
-1.34535
-1.3452
-1.34532
-1.34545
-1.34518
-1.34544
-1.34558
-1.34564
-1.34595
-1.3457
-1.3463
-1.3464
-1.36601
-1.36594
-1.36587
-1.36579
-1.36568
-1.3648
-1.36635
-1.36601
-1.36597
-1.36591
-1.36538
-1.36598
-1.36593
-1.3658
-1.36583
-1.36561
-1.36561
-1.3656
-1.36559
-1.3654
-1.36496
-1.36517
-1.36519
-1.36518
-1.36517
-1.36517
-1.36507
-1.36511
-1.36503
-1.36501
-1.36568
-1.36569
-1.36575
-1.36577
-1.3658
-1.36581
-1.36583
-1.36621
-1.36627
-1.36632
-1.36637
-1.36642
-1.36648
-1.36647
-1.36651
-1.36737
-1.36744
-1.36752
-1.36761
-1.36771
-1.38669
-1.3866
-1.38644
-1.38678
-1.38662
-1.38634
-1.38772
-1.38759
-1.38752
-1.38766
-1.38759
-1.38751
-1.38665
-1.38787
-1.38785
-1.38783
-1.38782
-1.38776
-1.38783
-1.38782
-1.38779
-1.38762
-1.38728
-1.38763
-1.38766
-1.3877
-1.3877
-1.38763
-1.38659
-1.38711
-1.38722
-1.38731
-1.38739
-1.38748
-1.38757
-1.38667
-1.38739
-1.38749
-1.38759
-1.38768
-1.38777
-1.38787
-1.38797
-1.38807
-1.38795
-1.38896
-1.38907
-1.38916
-1.38926
-1.38884
-1.41137
-1.41127
-1.41116
-1.41036
-1.4103
-1.41026
-1.41009
-1.40996
-1.40986
-1.40953
-1.40945
-1.40921
-1.40977
-1.40968
-1.40958
-1.40938
-1.40869
-1.40993
-1.40994
-1.40991
-1.40991
-1.40989
-1.40986
-1.40983
-1.40982
-1.40981
-1.40982
-1.40983
-1.40956
-1.40973
-1.40975
-1.40979
-1.40983
-1.40988
-1.40972
-1.40972
-1.41021
-1.41029
-1.41038
-1.41048
-1.41059
-1.41069
-1.40868
-1.41049
-1.41066
-1.41082
-1.41096
-1.41111
-1.41126
-1.41141
-1.43373
-1.43367
-1.43361
-1.43337
-1.43183
-1.43288
-1.43283
-1.43277
-1.43271
-1.43261
-1.43257
-1.43251
-1.43249
-1.43244
-1.43239
-1.43231
-1.43217
-1.43197
-1.43188
-1.43196
-1.43214
-1.43227
-1.43232
-1.43238
-1.43241
-1.43247
-1.43255
-1.43263
-1.43276
-1.43158
-1.43286
-1.43274
-1.43288
-1.43316
-1.42971
-1.43136
-1.43153
-1.43153
-1.43169
-1.43202
-1.43216
-1.43197
-1.43204
-1.43298
-1.4331
-1.43312
-1.43329
-1.43352
-1.43364
-1.43378
-1.45632
-1.45596
-1.45592
-1.45594
-1.45589
-1.45584
-1.45582
-1.45562
-1.4558
-1.45581
-1.45596
-1.45513
-1.45562
-1.45564
-1.45571
-1.4558
-1.45591
-1.45609
-1.45636
-1.44888
-1.45275
-1.45293
-1.45301
-1.45268
-1.45311
-1.45327
-1.45338
-1.45323
-1.45241
-1.45356
-1.4536
-1.45485
-1.45482
-1.45488
-1.45501
-1.45515
-1.45383
-1.45435
-1.45444
-1.45444
-1.45535
-1.45556
-1.4557
-1.45585
-1.45603
-1.45621
-1.45637
-1.4565
-1.4567
-1.45694
-1.47544
-1.47547
-1.47549
-1.47553
-1.47557
-1.47561
-1.47567
-1.47548
-1.47564
-1.47549
-1.47562
-1.47483
-1.47552
-1.47559
-1.47567
-1.47587
-1.47598
-1.4761
-1.47623
-1.47636
-1.47643
-1.47652
-1.47662
-1.476
-1.47612
-1.47515
-1.47609
-1.47641
-1.47667
-1.47136
-1.47554
-1.47571
-1.47581
-1.4759
-1.47601
-1.47616
-1.47628
-1.47635
-1.47655
-1.47662
-1.47685
-1.47707
-1.47714
-1.4774
-1.47772
-1.47788
-1.47818
-1.47841
-1.47882
-1.47905
-1.49628
-1.49631
-1.49634
-1.49638
-1.49641
-1.49645
-1.49532
-1.49694
-1.49698
-1.49702
-1.49707
-1.49714
-1.4972
-1.49729
-1.49736
-1.49745
-1.49755
-1.49768
-1.49775
-1.49772
-1.49809
-1.49824
-1.4983
-1.4983
-1.49879
-1.49892
-1.49887
-1.49569
-1.49594
-1.49673
-1.49692
-1.49703
-1.49718
-1.49733
-1.4975
-1.49765
-1.4978
-1.49795
-1.49812
-1.49828
-1.49845
-1.49762
-1.49813
-1.49827
-1.49809
-1.49894
-1.49883
-1.49933
-1.4995
-1.49968
-1.51913
-1.51905
-1.51896
-1.51887
-1.51878
-1.51868
-1.51858
-1.51848
-1.51836
-1.51826
-1.51814
-1.51779
-1.51766
-1.51758
-1.51744
-1.5173
-1.51706
-1.51684
-1.5191
-1.5189
-1.51862
-1.51844
-1.51828
-1.51816
-1.51803
-1.51784
-1.51578
-1.51557
-1.5223
-1.52219
-1.52206
-1.52193
-1.52181
-1.52168
-1.52156
-1.52144
-1.52132
-1.52118
-1.52108
-1.52099
-1.51943
-1.51942
-1.51928
-1.51885
-1.5187
-1.51854
-1.51764
-1.51851
-1.5182
-1.51785
-1.54172
-1.54172
-1.54172
-1.54171
-1.54171
-1.54171
-1.5417
-1.5417
-1.54169
-1.54168
-1.54167
-1.54166
-1.54156
-1.54154
-1.54158
-1.54155
-1.54154
-1.54155
-1.5399
-1.54234
-1.54224
-1.54215
-1.54207
-1.54197
-1.54186
-1.54177
-1.54158
-1.5305
-1.54513
-1.54495
-1.54481
-1.54472
-1.54465
-1.54461
-1.54456
-1.54455
-1.54455
-1.54455
-1.54461
-1.54467
-1.54311
-1.54396
-1.5441
-1.54424
-1.54442
-1.54464
-1.54489
-1.54507
-1.54534
-1.54582
-1.56472
-1.56471
-1.5647
-1.56469
-1.56468
-1.56468
-1.56468
-1.56468
-1.56468
-1.56468
-1.56468
-1.56469
-1.56469
-1.56471
-1.56472
-1.56473
-1.56475
-1.56477
-1.56478
-1.5648
-1.56481
-1.56482
-1.56484
-1.56487
-1.56489
-1.56492
-1.56496
-1.565
-1.56501
-1.56503
-1.56505
-1.56505
-1.56501
-1.56401
-1.5648
-1.56477
-1.56473
-1.56468
-1.56462
-1.56457
-1.56452
-1.56448
-1.56441
-1.56432
-1.56462
-1.56451
-1.56439
-1.56424
-1.56426
-1.56404
-1.58707
-1.58709
-1.5871
-1.58712
-1.58714
-1.58716
-1.58718
-1.5872
-1.58722
-1.58724
-1.58726
-1.58728
-1.58731
-1.58733
-1.58736
-1.58738
-1.58741
-1.58743
-1.58746
-1.58749
-1.58752
-1.58754
-1.58757
-1.5876
-1.58763
-1.58766
-1.58769
-1.58772
-1.58774
-1.58776
-1.58778
-1.5878
-1.58783
-1.58786
-1.58787
-1.58789
-1.58791
-1.58793
-1.58794
-1.58796
-1.58797
-1.58798
-1.58799
-1.58801
-1.58803
-1.58804
-1.58793
-1.58804
-1.58806
-1.58808
-1.60928
-1.60932
-1.60936
-1.60939
-1.60942
-1.60945
-1.60948
-1.60951
-1.60954
-1.60957
-1.60959
-1.60962
-1.60964
-1.60967
-1.60969
-1.60971
-1.60973
-1.60975
-1.60978
-1.6098
-1.60982
-1.60984
-1.60986
-1.60988
-1.6099
-1.60992
-1.60994
-1.60996
-1.60998
-1.61
-1.61002
-1.61004
-1.61006
-1.61008
-1.61009
-1.61011
-1.61013
-1.61015
-1.61018
-1.6102
-1.61023
-1.61025
-1.61029
-1.61032
-1.61035
-1.61039
-1.61043
-1.61047
-1.61051
-1.61055
-1.63276
-1.63274
-1.63273
-1.63271
-1.6327
-1.63269
-1.63268
-1.63268
-1.63267
-1.63267
-1.63267
-1.63266
-1.63266
-1.63267
-1.63267
-1.63267
-1.63267
-1.63268
-1.63269
-1.63269
-1.6327
-1.63271
-1.63272
-1.63273
-1.63274
-1.63275
-1.63276
-1.63278
-1.63279
-1.6328
-1.63282
-1.63283
-1.63285
-1.63286
-1.63288
-1.6329
-1.63291
-1.63293
-1.63295
-1.63297
-1.63298
-1.633
-1.63302
-1.63304
-1.63306
-1.63308
-1.6331
-1.63312
-1.63314
-1.63316
-1.65484
-1.65486
-1.65486
-1.65487
-1.65487
-1.65488
-1.65489
-1.6549
-1.65491
-1.65491
-1.65492
-1.65493
-1.65494
-1.65495
-1.65497
-1.65498
-1.65499
-1.655
-1.65501
-1.65502
-1.65503
-1.65505
-1.65506
-1.65507
-1.65509
-1.6551
-1.65511
-1.65513
-1.65514
-1.65515
-1.65517
-1.65518
-1.6552
-1.65521
-1.65523
-1.65524
-1.65526
-1.65527
-1.65529
-1.65531
-1.65532
-1.65534
-1.65536
-1.65538
-1.65539
-1.65541
-1.65543
-1.65545
-1.65547
-1.65549
-1.677
-1.67712
-1.67741
-1.67745
-1.67746
-1.67747
-1.67748
-1.67749
-1.67751
-1.67752
-1.67753
-1.67754
-1.67755
-1.67756
-1.67758
-1.67759
-1.6776
-1.67761
-1.67762
-1.67763
-1.67764
-1.67765
-1.67766
-1.67768
-1.67769
-1.6777
-1.67771
-1.67772
-1.67773
-1.67775
-1.67776
-1.67777
-1.67778
-1.67779
-1.67781
-1.67782
-1.67783
-1.67784
-1.67786
-1.67787
-1.67788
-1.6779
-1.67791
-1.67792
-1.67793
-1.67795
-1.67796
-1.67797
-1.67799
-1.678
-1.6909
-1.69949
-1.70003
-1.70006
-1.70008
-1.70008
-1.70008
-1.70008
-1.70009
-1.70009
-1.70009
-1.7001
-1.7001
-1.70011
-1.70011
-1.70012
-1.70012
-1.70013
-1.70013
-1.70014
-1.70015
-1.70015
-1.70016
-1.70017
-1.70017
-1.70018
-1.70019
-1.7002
-1.7002
-1.70021
-1.70022
-1.70023
-1.70024
-1.70025
-1.70026
-1.70027
-1.70027
-1.70028
-1.70029
-1.7003
-1.70031
-1.70032
-1.70033
-1.70034
-1.70035
-1.70036
-1.70037
-1.70038
-1.70039
-1.7004
-1.62956
-1.71893
-1.72251
-1.7226
-1.7226
-1.72259
-1.72259
-1.72259
-1.72259
-1.72259
-1.72259
-1.72259
-1.7226
-1.7226
-1.7226
-1.7226
-1.72261
-1.72261
-1.72261
-1.72262
-1.72262
-1.72263
-1.72263
-1.72264
-1.72264
-1.72265
-1.72265
-1.72266
-1.72267
-1.72267
-1.72268
-1.72269
-1.72269
-1.7227
-1.72271
-1.72272
-1.72273
-1.72273
-1.72274
-1.72275
-1.72276
-1.72277
-1.72277
-1.72278
-1.72279
-1.7228
-1.72281
-1.72282
-1.72283
-1.72284
-1.57129
-1.74381
-1.74513
-1.7451
-1.74509
-1.74509
-1.74509
-1.74509
-1.74509
-1.74509
-1.74508
-1.74508
-1.74508
-1.74508
-1.74508
-1.74508
-1.74508
-1.74508
-1.74508
-1.74508
-1.74508
-1.74508
-1.74508
-1.74509
-1.74509
-1.74509
-1.74509
-1.7451
-1.7451
-1.74511
-1.74511
-1.74511
-1.74512
-1.74512
-1.74513
-1.74514
-1.74514
-1.74515
-1.74515
-1.74516
-1.74517
-1.74517
-1.74518
-1.74519
-1.74519
-1.7452
-1.74521
-1.74521
-1.74522
-1.74523
-1.58157
-1.76645
-1.7675
-1.76746
-1.76746
-1.76747
-1.76747
-1.76747
-1.76747
-1.76747
-1.76747
-1.76746
-1.76746
-1.76746
-1.76746
-1.76746
-1.76745
-1.76745
-1.76745
-1.76745
-1.76746
-1.76746
-1.76746
-1.76746
-1.76746
-1.76747
-1.76747
-1.76747
-1.76748
-1.76748
-1.76748
-1.76749
-1.76749
-1.7675
-1.7675
-1.76751
-1.76751
-1.76752
-1.76753
-1.76753
-1.76754
-1.76754
-1.76755
-1.76756
-1.76757
-1.76757
-1.76758
-1.76759
-1.7676
-1.7676
-1.34649
-1.34656
-1.34662
-1.34668
-1.34673
-1.34616
-1.34625
-1.34633
-1.3464
-1.34644
-1.3465
-1.34654
-1.34658
-1.34663
-1.34667
-1.34668
-1.34726
-1.34729
-1.34733
-1.34737
-1.34742
-1.34738
-1.34743
-1.34746
-1.34754
-1.34674
-1.34694
-1.34698
-1.34699
-1.34702
-1.34704
-1.34705
-1.34673
-1.34677
-1.3474
-1.34741
-1.34741
-1.34741
-1.3474
-1.34739
-1.34738
-1.34727
-1.34728
-1.34801
-1.34799
-1.34765
-1.34769
-1.34743
-1.34765
-1.34762
-1.34759
-1.34756
-1.34753
-1.3475
-1.34746
-1.3474
-1.34779
-1.34776
-1.34772
-1.34769
-1.34765
-1.34761
-1.34757
-1.34754
-1.34749
-1.34743
-1.3478
-1.34777
-1.34772
-1.34768
-1.34764
-1.3476
-1.34707
-1.34703
-1.34701
-1.34696
-1.34692
-1.34689
-1.34685
-1.34682
-1.34652
-1.34649
-1.34645
-1.34619
-1.34614
-1.34519
-1.34542
-1.34541
-1.34524
-1.34521
-1.34545
-1.34541
-1.34537
-1.34533
-1.34503
-1.345
-1.34528
-1.34514
-1.3451
-1.34504
-1.34499
-1.34499
-1.34486
-1.34489
-1.34486
-1.34489
-1.34427
-1.34426
-1.34352
-1.3436
-1.34265
-1.34278
-1.34191
-1.34234
-1.34216
-1.3426
-1.34256
-1.34254
-1.34253
-1.34207
-1.34248
-1.34233
-1.34228
-1.34228
-1.34223
-1.34198
-1.3423
-1.3422
-1.34213
-1.34211
-1.34204
-1.34194
-1.34216
-1.34195
-1.34202
-1.34195
-1.34174
-1.34169
-1.3417
-1.34165
-1.3416
-1.34155
-1.3415
-1.34146
-1.34142
-1.34138
-1.34135
-1.34132
-1.34129
-1.34126
-1.34123
-1.34122
-1.3412
-1.34118
-1.34116
-1.34115
-1.34114
-1.34113
-1.34112
-1.34111
-1.3411
-1.34109
-1.34109
-1.34108
-1.34108
-1.34108
-1.34108
-1.34108
-1.34108
-1.34108
-1.34103
-1.3411
-1.34111
-1.3411
-1.34111
-1.34111
-1.3411
-1.34112
-1.34107
-1.34108
-1.34112
-1.34111
-1.34113
-1.34114
-1.34114
-1.34115
-1.3411
-1.34114
-1.34117
-1.34118
-1.3412
-1.34117
-1.34123
-1.34127
-1.3413
-1.34134
-1.34137
-1.34141
-1.34146
-1.3415
-1.34151
-1.34156
-1.34148
-1.34167
-1.3407
-1.34106
-1.34116
-1.34116
-1.34125
-1.34154
-1.34024
-1.34099
-1.34109
-1.34102
-1.3411
-1.34143
-1.34149
-1.34125
-1.34138
-1.34153
-1.34172
-1.34185
-1.34188
-1.34209
-1.3423
-1.34252
-1.34178
-1.34201
-1.34221
-1.34216
-1.34267
-1.34156
-1.34226
-1.3424
-1.34224
-1.34259
-1.34289
-1.34295
-1.34303
-1.34332
-1.34379
-1.34399
-1.34416
-1.34452
-1.34481
-1.345
-1.34453
-1.34494
-1.34538
-1.34566
-1.34577
-1.34621
-1.3466
-1.347
-1.34736
-1.34767
-1.34747
-1.34719
-1.34741
-1.34772
-1.3482
-1.34826
-1.34777
-1.34821
-1.34864
-1.34889
-1.3494
-1.34978
-1.34952
-1.3499
-1.35025
-1.35015
-1.35015
-1.35018
-1.35004
-1.34994
-1.34982
-1.34973
-1.3497
-1.3495
-1.34875
-1.34866
-1.35044
-1.34987
-1.34933
-1.34921
-1.34904
-1.34883
-1.34869
-1.34856
-1.3484
-1.34831
-1.3487
-1.34886
-1.34842
-1.34818
-1.34812
-1.34795
-1.34796
-1.34764
-1.36778
-1.36782
-1.36792
-1.36798
-1.36805
-1.36813
-1.36819
-1.36827
-1.36837
-1.36844
-1.36825
-1.36834
-1.36846
-1.36856
-1.36864
-1.36873
-1.36881
-1.36889
-1.36898
-1.36906
-1.36914
-1.36921
-1.36928
-1.36817
-1.36825
-1.36872
-1.36879
-1.36886
-1.36893
-1.369
-1.36907
-1.36875
-1.36918
-1.36923
-1.3693
-1.36936
-1.36943
-1.36949
-1.36955
-1.36961
-1.36921
-1.36967
-1.36971
-1.36976
-1.36982
-1.36987
-1.36991
-1.36655
-1.36904
-1.36909
-1.36908
-1.36912
-1.36916
-1.36904
-1.3693
-1.36932
-1.36934
-1.36937
-1.36939
-1.36839
-1.36885
-1.36889
-1.36889
-1.3689
-1.36891
-1.36892
-1.36893
-1.36868
-1.3687
-1.3687
-1.36858
-1.36857
-1.36805
-1.36826
-1.36826
-1.36824
-1.36823
-1.3682
-1.36818
-1.36815
-1.36812
-1.3681
-1.36761
-1.36785
-1.3671
-1.36708
-1.36739
-1.36735
-1.3673
-1.36725
-1.3672
-1.36714
-1.36709
-1.36704
-1.36634
-1.36679
-1.36672
-1.36667
-1.36662
-1.36609
-1.36605
-1.36606
-1.36596
-1.36588
-1.3662
-1.36614
-1.36606
-1.36601
-1.36596
-1.36592
-1.36472
-1.36506
-1.36429
-1.36459
-1.36456
-1.3643
-1.36492
-1.36479
-1.36469
-1.36517
-1.36489
-1.36524
-1.3652
-1.36515
-1.36512
-1.36509
-1.36486
-1.36485
-1.3648
-1.36474
-1.36473
-1.36471
-1.36434
-1.36431
-1.36429
-1.3642
-1.36418
-1.36416
-1.36367
-1.36365
-1.36361
-1.36354
-1.36351
-1.36349
-1.36347
-1.36345
-1.36343
-1.36342
-1.36341
-1.36339
-1.36338
-1.36337
-1.36337
-1.36336
-1.36336
-1.36336
-1.36336
-1.36336
-1.36336
-1.36336
-1.36336
-1.36337
-1.36337
-1.36338
-1.36338
-1.36339
-1.3634
-1.3634
-1.36341
-1.36342
-1.3633
-1.36344
-1.36346
-1.36346
-1.36347
-1.36348
-1.36349
-1.36351
-1.36339
-1.3635
-1.36355
-1.36357
-1.36359
-1.36361
-1.36363
-1.36365
-1.36339
-1.36372
-1.36375
-1.36363
-1.3637
-1.36367
-1.36374
-1.36379
-1.36383
-1.36386
-1.3639
-1.36393
-1.36398
-1.36402
-1.36403
-1.3635
-1.36348
-1.36382
-1.36344
-1.36417
-1.36419
-1.3642
-1.3645
-1.3645
-1.36375
-1.36404
-1.36417
-1.36407
-1.36422
-1.36422
-1.36418
-1.36472
-1.36476
-1.36463
-1.36495
-1.36512
-1.36502
-1.36511
-1.36551
-1.3657
-1.36574
-1.36584
-1.36599
-1.36621
-1.36542
-1.36562
-1.36505
-1.36527
-1.36584
-1.36579
-1.36605
-1.36633
-1.3665
-1.36665
-1.36687
-1.36711
-1.36739
-1.36731
-1.36734
-1.36764
-1.36811
-1.36833
-1.36837
-1.3687
-1.3692
-1.36941
-1.36934
-1.36955
-1.36987
-1.37043
-1.37042
-1.37027
-1.37085
-1.37038
-1.37049
-1.37057
-1.37123
-1.3708
-1.37047
-1.37268
-1.37336
-1.37319
-1.37321
-1.37345
-1.37401
-1.37465
-1.37599
-1.35929
-1.37011
-1.37183
-1.37208
-1.3721
-1.3725
-1.37241
-1.37308
-1.37352
-1.37379
-1.3746
-1.36226
-1.36803
-1.37058
-1.37027
-1.37018
-1.37021
-1.37034
-1.37053
-1.36335
-1.3672
-1.36882
-1.36729
-1.36752
-1.36773
-1.36128
-1.36505
-1.38891
-1.38897
-1.389
-1.38894
-1.38904
-1.38904
-1.38918
-1.38922
-1.38925
-1.38929
-1.38933
-1.3892
-1.38969
-1.39138
-1.39139
-1.39143
-1.39147
-1.39152
-1.39157
-1.39162
-1.39168
-1.39174
-1.39181
-1.38897
-1.39029
-1.3904
-1.39022
-1.39047
-1.39062
-1.3908
-1.39087
-1.39094
-1.391
-1.39106
-1.39112
-1.39118
-1.39124
-1.3913
-1.39136
-1.39141
-1.39147
-1.39153
-1.39156
-1.39164
-1.3917
-1.39176
-1.39184
-1.38798
-1.39033
-1.3904
-1.39045
-1.39051
-1.39056
-1.39063
-1.39067
-1.3907
-1.39072
-1.39075
-1.39077
-1.39077
-1.39061
-1.3906
-1.3906
-1.39059
-1.39057
-1.39055
-1.39052
-1.39049
-1.39044
-1.3904
-1.39035
-1.39028
-1.39024
-1.39016
-1.39012
-1.39002
-1.38932
-1.39056
-1.39046
-1.39036
-1.39027
-1.3902
-1.38953
-1.39014
-1.38977
-1.38971
-1.38992
-1.38984
-1.38976
-1.38967
-1.38946
-1.38943
-1.38936
-1.38929
-1.38921
-1.38915
-1.38807
-1.38833
-1.38826
-1.38815
-1.38807
-1.38802
-1.38794
-1.38708
-1.38816
-1.38807
-1.38797
-1.38789
-1.3878
-1.38771
-1.38762
-1.38753
-1.38745
-1.38737
-1.38729
-1.38726
-1.38717
-1.3856
-1.38855
-1.38848
-1.38841
-1.38834
-1.38814
-1.38808
-1.3869
-1.38723
-1.3872
-1.38714
-1.38711
-1.38709
-1.38706
-1.38704
-1.38704
-1.38704
-1.38645
-1.38648
-1.3865
-1.38627
-1.38631
-1.38641
-1.38455
-1.385
-1.38512
-1.38514
-1.38517
-1.38519
-1.38522
-1.38525
-1.38528
-1.3853
-1.38533
-1.38535
-1.38537
-1.3854
-1.38542
-1.38544
-1.38547
-1.38549
-1.38551
-1.38553
-1.38555
-1.38557
-1.38559
-1.38561
-1.38563
-1.38565
-1.38567
-1.38569
-1.3857
-1.38568
-1.38573
-1.38575
-1.38577
-1.38578
-1.3858
-1.38582
-1.38584
-1.38586
-1.38587
-1.3859
-1.38591
-1.38594
-1.38596
-1.38598
-1.38601
-1.38602
-1.38603
-1.38609
-1.38612
-1.38618
-1.38621
-1.38623
-1.38628
-1.38632
-1.38637
-1.38641
-1.38646
-1.3865
-1.38649
-1.38652
-1.38665
-1.38675
-1.3868
-1.38683
-1.38688
-1.38695
-1.387
-1.38706
-1.38715
-1.38724
-1.38532
-1.38601
-1.38616
-1.38615
-1.38616
-1.38683
-1.38623
-1.38757
-1.38755
-1.38766
-1.38774
-1.38783
-1.38788
-1.38745
-1.38835
-1.38846
-1.38837
-1.38847
-1.38857
-1.38845
-1.38863
-1.38871
-1.38902
-1.38913
-1.38931
-1.38952
-1.38968
-1.38987
-1.38998
-1.39027
-1.39036
-1.39067
-1.39085
-1.38998
-1.39035
-1.39173
-1.39191
-1.39189
-1.3923
-1.39244
-1.39279
-1.39275
-1.39273
-1.39356
-1.39365
-1.39257
-1.39296
-1.39383
-1.39354
-1.39216
-1.39219
-1.39236
-1.39278
-1.39361
-1.39347
-1.39304
-1.39298
-1.39322
-1.39352
-1.39385
-1.3931
-1.3924
-1.39203
-1.39182
-1.39269
-1.39353
-1.39335
-1.39292
-1.39303
-1.39335
-1.39387
-1.39279
-1.39204
-1.39133
-1.39105
-1.39256
-1.39197
-1.39134
-1.39116
-1.39122
-1.3912
-1.39021
-1.38961
-1.3907
-1.3917
-1.38641
-1.38787
-1.3873
-1.38631
-1.387
-1.41153
-1.4116
-1.41165
-1.41164
-1.41173
-1.41214
-1.41228
-1.4124
-1.4125
-1.4126
-1.4127
-1.41281
-1.41292
-1.41304
-1.41103
-1.41224
-1.41241
-1.4125
-1.41258
-1.41265
-1.41272
-1.41278
-1.41283
-1.41288
-1.41292
-1.41298
-1.41298
-1.41288
-1.41286
-1.41436
-1.41439
-1.4144
-1.4144
-1.4144
-1.41441
-1.4137
-1.41426
-1.41427
-1.41425
-1.41424
-1.41422
-1.4142
-1.41418
-1.41373
-1.41368
-1.41286
-1.41306
-1.41119
-1.41237
-1.41381
-1.41374
-1.41365
-1.41359
-1.41352
-1.41267
-1.41379
-1.41372
-1.41365
-1.41359
-1.41351
-1.41344
-1.41336
-1.41192
-1.41409
-1.41401
-1.41393
-1.41386
-1.4138
-1.41372
-1.41367
-1.41362
-1.41356
-1.41352
-1.41347
-1.41344
-1.41341
-1.4122
-1.41215
-1.41204
-1.41159
-1.41151
-1.41242
-1.41237
-1.41233
-1.41229
-1.41225
-1.41221
-1.41216
-1.41212
-1.41208
-1.41205
-1.41167
-1.41163
-1.4116
-1.41151
-1.41172
-1.41089
-1.411
-1.41103
-1.41096
-1.41092
-1.41091
-1.41089
-1.41014
-1.41034
-1.41031
-1.41024
-1.4102
-1.41017
-1.41012
-1.41008
-1.41003
-1.40998
-1.40992
-1.40986
-1.4099
-1.40988
-1.40943
-1.40937
-1.41064
-1.41058
-1.4105
-1.41043
-1.41039
-1.40917
-1.40951
-1.40945
-1.40936
-1.40931
-1.40926
-1.40882
-1.40877
-1.4087
-1.40861
-1.40874
-1.4086
-1.40852
-1.40948
-1.40905
-1.40914
-1.40651
-1.40773
-1.40775
-1.40773
-1.40772
-1.40772
-1.40771
-1.40772
-1.40772
-1.40773
-1.40773
-1.40774
-1.40775
-1.40777
-1.40778
-1.4078
-1.40781
-1.40783
-1.40784
-1.40786
-1.40788
-1.4079
-1.40792
-1.40794
-1.40796
-1.40798
-1.408
-1.40802
-1.40804
-1.40806
-1.40806
-1.40811
-1.40814
-1.40816
-1.40818
-1.4082
-1.40822
-1.40824
-1.40809
-1.40829
-1.40835
-1.40838
-1.40843
-1.40846
-1.40848
-1.40851
-1.40853
-1.40856
-1.40859
-1.40862
-1.40864
-1.40867
-1.40857
-1.40858
-1.40892
-1.40894
-1.40897
-1.40902
-1.40918
-1.40928
-1.40931
-1.40936
-1.40943
-1.40951
-1.40958
-1.40966
-1.40975
-1.40984
-1.40994
-1.40878
-1.40891
-1.40903
-1.40913
-1.40923
-1.40932
-1.40965
-1.40971
-1.40986
-1.40998
-1.41009
-1.41018
-1.40952
-1.41076
-1.41082
-1.41072
-1.41082
-1.41097
-1.41105
-1.41135
-1.41125
-1.41148
-1.41166
-1.41116
-1.41199
-1.41179
-1.41272
-1.41265
-1.41278
-1.41273
-1.41334
-1.41346
-1.41313
-1.41375
-1.4137
-1.41315
-1.41397
-1.41451
-1.41472
-1.41501
-1.41624
-1.41611
-1.41658
-1.41399
-1.4151
-1.41686
-1.41527
-1.4159
-1.41649
-1.41672
-1.40976
-1.41139
-1.41496
-1.41504
-1.41501
-1.41427
-1.41564
-1.41568
-1.41545
-1.41499
-1.41307
-1.41039
-1.41803
-1.41814
-1.4172
-1.41627
-1.41579
-1.416
-1.41583
-1.41553
-1.41425
-1.41338
-1.41548
-1.41622
-1.41502
-1.41315
-1.41359
-1.413
-1.41219
-1.41487
-1.41521
-1.41397
-1.41559
-1.40918
-1.41329
-1.41391
-1.41276
-1.41311
-1.41238
-1.41284
-1.41259
-1.43387
-1.43392
-1.43394
-1.43399
-1.43406
-1.43414
-1.43427
-1.43436
-1.43443
-1.4345
-1.43456
-1.43463
-1.43469
-1.43475
-1.43475
-1.43439
-1.43792
-1.43801
-1.43806
-1.43817
-1.43826
-1.43837
-1.43847
-1.43858
-1.43869
-1.4388
-1.43771
-1.43928
-1.43662
-1.43891
-1.43886
-1.43903
-1.43918
-1.43838
-1.43862
-1.43446
-1.43621
-1.43644
-1.43657
-1.43669
-1.43681
-1.43692
-1.43704
-1.43713
-1.43724
-1.43734
-1.43744
-1.43609
-1.43617
-1.43664
-1.43671
-1.43654
-1.4366
-1.43663
-1.43582
-1.43747
-1.43749
-1.43751
-1.43754
-1.43756
-1.43758
-1.4376
-1.43655
-1.43656
-1.43661
-1.43619
-1.4362
-1.4359
-1.43666
-1.43663
-1.4366
-1.43657
-1.43654
-1.4365
-1.43648
-1.43644
-1.4364
-1.43637
-1.43408
-1.43468
-1.43479
-1.43473
-1.43468
-1.43464
-1.43461
-1.43457
-1.43454
-1.43454
-1.43356
-1.43422
-1.43418
-1.43413
-1.43409
-1.43406
-1.43402
-1.43316
-1.43362