/*--------------------------------*- C++ -*----------------------------------*\
| =========                 |                                                 |
| \\      /  F ield         | OpenFOAM: The Open Source CFD Toolbox           |
|  \\    /   O peration     | Version:  2.4.0                                 |
|   \\  /    A nd           | Web:      www.OpenFOAM.org                      |
|    \\/     M anipulation  |                                                 |
\*---------------------------------------------------------------------------*/
FoamFile
{
    version     2.0;
    format      ascii;
    class       volScalarField;
    location    "2.5";
    object      p_rgh;
}
// * * * * * * * * * * * * * * * * * * * * * * * * * * * * * * * * * * * * * //

dimensions      [1 -1 -2 0 0 0 0];

internalField   nonuniform List<scalar> 
8000
(
80.4656
80.4565
80.4505
80.4492
80.4523
80.4594
80.4704
80.4853
80.5042
80.5268
80.5534
80.5836
80.6177
80.6552
80.6964
80.7406
80.7884
80.8386
80.892
80.9467
81.0038
81.0608
81.1208
81.1831
81.2513
81.3154
81.3549
80.9167
79.0491
71.8906
56.1772
27.5905
-0.388757
0.129261
0.380647
0.00860102
0.0062122
0.00764394
0.00857198
0.00848417
0.0081809
0.00811339
0.00812005
0.00812786
0.00815519
0.00820684
0.00827637
0.00835909
0.00845046
0.00854774
81.0921
81.0836
81.0747
81.0674
81.0618
81.0578
81.0551
81.0541
81.0544
81.0565
81.0601
81.0656
81.0726
81.0819
81.0928
81.1062
81.1214
81.1395
81.1592
81.1811
81.2052
81.2446
81.3272
81.454
81.2145
79.2508
74.9992
57.6487
28.9793
-0.438399
-0.328693
0.0847946
0.00781473
0.00507031
0.00714557
0.00993275
0.00962413
0.00932715
0.00923182
0.00921862
0.00923057
0.00924572
0.00926412
0.00928891
0.00932082
0.00935907
0.00940387
0.00945435
0.00950945
0.00957061
81.8143
81.7966
81.7779
81.7615
81.7473
81.7349
81.7242
81.7152
81.7079
81.7025
81.6987
81.6971
81.6971
81.6995
81.7035
81.71
81.7171
81.7262
81.742
81.7873
81.873
81.858
81.0093
78.2433
67.7575
37.8784
-0.749051
-0.239875
0.391779
0.00687142
0.0136421
0.00992215
0.0106301
0.0106106
0.0106258
0.0106277
0.0106256
0.0106302
0.0106445
0.010661
0.0106806
0.0107052
0.010734
0.0107642
0.0110781
0.0108655
0.0109245
0.0109894
0.0110567
0.0111416
82.307
82.2746
82.2393
82.2061
82.1746
82.1441
82.1142
82.085
82.0564
82.0282
82.0007
81.9736
81.9472
81.9205
81.8929
81.863
81.8408
81.8572
81.9318
81.846
80.8092
77.9375
62.2998
14.0876
1.12382
1.19529
-0.021504
0.00159874
0.00953652
0.00930176
0.00892444
0.00876731
0.00865303
0.00863469
0.00862883
0.00863192
0.00864879
0.00867027
0.00903119
0.00878645
0.00883831
0.00887135
0.00912105
0.00933739
0.00942181
0.0090913
0.00895919
0.00909412
0.00883768
0.00897723
82.2145
82.1988
82.1787
82.1557
82.1299
82.1008
82.0685
82.0326
81.9935
81.9507
81.9043
81.8538
81.7983
81.7368
81.6754
81.6357
81.6335
81.5225
80.7475
78.8145
63.1481
6.87291
0.648139
0.649045
0.0108725
0.023099
0.0117697
0.0100841
0.00998571
0.0099443
0.00972097
0.00949904
0.00931964
0.00917945
0.00907271
0.00956106
0.00877854
0.00857033
0.00848651
0.0084916
0.00854362
0.00855663
0.00893514
0.00884656
0.00879596
0.00885641
0.00919168
0.00897888
0.00897634
0.00898432
82.8577
82.8432
82.8249
82.8057
82.7855
82.7644
82.7419
82.7184
82.6936
82.668
82.6402
82.6081
82.572
82.5566
82.6262
82.7645
82.3571
79.7272
75.0848
16.3723
0.302535
0.300388
0.029361
0.0230869
0.0137205
0.00987822
0.0101586
0.010036
0.00971716
0.00946482
0.00926568
0.00910087
0.00895763
0.0088382
0.00873927
0.00867256
0.00859547
0.00854534
0.00851129
0.00849355
0.00849437
0.00884616
0.00847181
0.008502
0.00853045
0.00856353
0.00860125
0.00864882
0.00869405
0.00873631
84.6031
84.5808
84.5598
84.5425
84.5283
84.5162
84.5065
84.4991
84.4944
84.4912
84.4876
84.484
84.5034
84.6062
84.7765
84.4381
82.0376
77.8284
9.93942
0.0306823
0.0270846
0.0249837
0.0202753
0.0256318
0.0119758
0.0295399
0.0281834
0.0233123
0.0175752
0.0147743
0.013744
0.0132573
0.013
0.0128675
0.0127534
0.0126587
0.0125796
0.0125117
0.012459
0.0124112
0.0124321
0.0124864
0.0122626
0.0121839
0.0121768
0.0121505
0.0121996
0.0120963
0.0121745
0.0120233
84.037
84.0755
84.1109
84.1339
84.1448
84.1449
84.1346
84.1138
84.0824
84.04
83.9854
83.9193
83.8515
83.8047
83.7576
83.4525
82.3103
80.7943
4.79902
0.792575
0.154984
0.149089
0.0316447
0.0105004
0.00926147
0.00983874
0.00979871
0.00923759
0.0197579
0.0155182
0.0137672
0.0131686
0.0130872
0.0131795
0.0131766
0.0132073
0.013364
0.0140537
0.0136293
0.0136541
0.0136448
0.0136447
0.0136368
0.0136279
0.0136176
0.0136045
0.0135873
0.0135686
0.0135479
0.0135271
85.455
85.5044
85.5475
85.5756
85.5901
85.5927
85.5837
85.5631
85.5307
85.4864
85.43
85.3609
85.2786
85.1842
85.0857
84.9922
84.8633
84.4858
83.5978
36.1568
3.39807
3.67318
-0.178271
-0.0536777
-0.0055433
0.00862579
0.012551
0.0117473
0.0112541
0.011147
0.0111095
0.0111564
0.0112583
0.0113832
0.0115081
0.0116316
0.0117508
0.0118635
0.011968
0.0120674
0.0121629
0.0122548
0.0123446
0.0124324
0.012517
0.0125996
0.0126818
0.012764
0.0128465
0.0129298
92.1506
92.1268
92.1089
92.0991
92.096
92.0985
92.1067
92.1204
92.1402
92.1656
92.1974
92.2354
92.2802
92.3312
92.3874
92.447
92.5235
92.6656
92.9184
92.9871
91.3901
69.977
-2.89837
-3.93814
-0.110482
0.353421
-0.170004
-0.064492
-0.0213191
-0.0120364
0.00682986
0.0152495
0.0136613
0.0124374
0.0123641
0.0125822
0.0126655
0.0127497
0.0127588
0.0127558
0.0127523
0.0127511
0.0127498
0.0127504
0.0127531
0.0127577
0.0127629
0.0127681
0.0127732
0.0127768
93.8982
93.8887
93.8789
93.8729
93.8713
93.8739
93.8804
93.8909
93.9055
93.9242
93.9471
93.9746
94.0064
94.0432
94.0845
94.1319
94.1868
94.2504
94.3062
94.3121
94.2766
94.1307
93.7971
93.3546
85.3732
77.562
25.9553
0.519357
0.76107
1.19059
0.77031
0.119891
0.0413511
0.0575307
0.0474503
0.0192262
0.0144836
0.0120772
0.0119969
0.0120756
0.0120831
0.0121066
0.012109
0.0121046
0.0120961
0.0121031
0.0121147
0.0121261
0.0121301
0.0121379
96.6042
96.6079
96.6113
96.6139
96.6157
96.6171
96.6178
96.6181
96.6176
96.6168
96.615
96.6128
96.6094
96.6055
96.5999
96.5939
96.5857
96.5767
96.5644
96.5518
96.5377
96.527
96.5068
96.4975
96.408
96.3068
96.1111
95.8329
95.2976
86.7167
52.9195
18.6153
2.92455
2.44078
2.32731
0.884732
0.17352
0.129451
0.0801795
0.0196575
0.0130764
0.0126567
0.0124822
0.0124823
0.0123554
0.0123357
0.0123089
0.012282
0.0122298
0.0121958
99.6605
99.6446
99.63
99.6196
99.6133
99.6105
99.6111
99.6152
99.6227
99.6337
99.6481
99.666
99.6873
99.7122
99.7405
99.7723
99.8076
99.8464
99.8887
99.9347
99.9841
100.038
100.095
100.157
100.227
100.31
100.408
100.509
100.619
100.732
100.71
100.325
94.1357
92.753
69.8652
27.0876
4.60812
3.34348
2.03755
0.33658
0.0895391
0.0440036
0.0164289
0.0129076
0.0128494
0.0126702
0.0126456
0.0126131
0.0124876
0.0124048
101.514
101.503
101.491
101.483
101.477
101.474
101.474
101.475
101.479
101.486
101.495
101.506
101.52
101.537
101.556
101.578
101.603
101.63
101.661
101.694
101.73
101.769
101.812
101.858
101.907
101.96
102.017
102.078
102.145
102.216
102.281
102.343
102.392
102.474
102.503
102.341
95.6215
92.2937
62.2472
15.0052
3.43855
1.87971
0.403114
0.106455
0.0381238
0.0143289
0.0117156
0.0116358
0.0115418
0.0113421
103.274
103.26
103.246
103.234
103.225
103.219
103.214
103.212
103.212
103.213
103.218
103.224
103.232
103.243
103.255
103.27
103.287
103.306
103.327
103.35
103.374
103.401
103.43
103.461
103.494
103.528
103.565
103.603
103.643
103.684
103.727
103.772
103.82
103.87
103.916
103.961
103.994
104.06
104.029
101.066
95.1207
60.352
13.01
4.48208
1.24877
0.352954
0.107524
0.0225608
0.0128111
0.0118984
104.896
104.876
104.855
104.837
104.823
104.812
104.803
104.796
104.792
104.79
104.79
104.793
104.798
104.806
104.816
104.828
104.843
104.861
104.88
104.903
104.928
104.955
104.985
105.017
105.052
105.09
105.13
105.173
105.219
105.267
105.318
105.372
105.429
105.488
105.551
105.617
105.687
105.759
105.827
105.884
106.007
106.111
103.494
85.0132
37.7874
12.9273
4.61652
1.18743
0.221518
0.016684
105.522
105.507
105.491
105.478
105.466
105.457
105.449
105.444
105.44
105.437
105.437
105.438
105.441
105.446
105.453
105.461
105.471
105.482
105.496
105.511
105.528
105.547
105.568
105.591
105.616
105.643
105.671
105.702
105.735
105.77
105.807
105.846
105.888
105.932
105.978
106.027
106.078
106.133
106.19
106.251
106.309
106.355
106.411
106.441
105.4
92.3065
58.4105
26.2852
8.39824
1.25031
106.61
106.619
106.63
106.637
106.641
106.642
106.641
106.639
106.635
106.631
106.625
106.62
106.614
106.608
106.603
106.598
106.594
106.59
106.587
106.585
106.584
106.583
106.585
106.587
106.59
106.595
106.601
106.609
106.618
106.628
106.639
106.652
106.667
106.683
106.7
106.718
106.738
106.759
106.782
106.805
106.83
106.856
106.881
106.903
106.922
106.917
105.482
95.8508
63.5918
21.2114
106.308
106.362
106.41
106.445
106.472
106.491
106.506
106.516
106.522
106.525
106.526
106.525
106.522
106.518
106.514
106.508
106.502
106.496
106.49
106.484
106.479
106.473
106.469
106.464
106.46
106.457
106.455
106.452
106.451
106.45
106.45
106.45
106.451
106.452
106.454
106.456
106.458
106.461
106.463
106.466
106.468
106.47
106.47
106.466
106.478
106.471
106.502
106.482
103.629
78.5953
111.47
111.079
110.686
110.348
110.053
109.787
109.544
109.322
109.119
108.932
108.761
108.603
108.457
108.323
108.198
108.083
107.976
107.878
107.787
107.703
107.625
107.554
107.488
107.428
107.373
107.322
107.277
107.235
107.198
107.165
107.136
107.11
107.088
107.069
107.053
107.04
107.03
107.024
107.019
107.018
107.019
107.022
107.026
107.033
107.046
107.07
107.073
107.128
107.163
103.895
0.00864524
0.0087453
0.00900059
0.00894467
0.00903736
0.00906487
0.00917953
0.0092723
0.0095573
0.0100276
0.00927417
0.00913762
0.00918046
0.00907214
0.00952335
0.0095512
0.00837826
0.00861594
0.00861104
0.00929865
0.00878355
0.0087611
0.00880439
0.00881389
0.0087914
0.00872974
0.00860922
0.0085714
0.00857944
0.00846357
0.00840927
0.0084049
0.00848059
0.00828218
0.00814524
0.0081118
0.00802352
0.00833251
0.00795667
0.0080619
0.00793798
0.00787311
0.00821222
0.00792002
0.00766897
0.00759705
0.00731749
0.00762737
0.00694806
0.00683707
0.009637
0.00970604
0.009778
0.00985728
0.0101626
0.011171
0.00935734
0.0096515
0.00969577
0.00994209
0.0105483
0.00984674
0.00979004
0.00990857
0.00988681
0.0101423
0.0101454
0.0100947
0.0101099
0.0102684
0.0107868
0.0105404
0.0105058
0.0105011
0.0104993
0.0104929
0.0105788
0.0105513
0.0107631
0.0107752
0.009997
0.00991818
0.00986264
0.00984009
0.00984229
0.00997057
0.00994899
0.0095171
0.0093412
0.00928654
0.0092334
0.00917809
0.00917168
0.00936975
0.00932643
0.00833669
0.00816278
0.00807975
0.00798873
0.00789503
0.0113975
0.0114837
0.0115705
0.0113135
0.0117024
0.0120082
0.0103697
0.0104437
0.010515
0.0104162
0.0105296
0.0106588
0.0116424
0.0102025
0.0102291
0.0102508
0.010267
0.0103362
0.0102091
0.0101927
0.0102179
0.0103618
0.0107802
0.0103741
0.0103426
0.0102979
0.0102909
0.0103331
0.0115658
0.0109758
0.0107551
0.0106603
0.0105801
0.0104923
0.0104113
0.0114834
0.0106546
0.0104788
0.0103831
0.0102893
0.0101956
0.0101032
0.0100164
0.0101094
0.0102641
0.00909061
0.00889852
0.00880256
0.00870826
0.00921588
0.00905556
0.0091531
0.00943914
0.0103566
0.0104054
0.0101636
0.0103166
0.0104388
0.0107128
0.0111896
0.0112757
0.0113662
0.010926
0.0110678
0.0112479
0.011753
0.012544
0.0110793
0.0108955
0.0107191
0.0104962
0.0104642
0.0104799
0.0105023
0.0105175
0.0105225
0.0105175
0.0105047
0.0108327
0.0106382
0.0105856
0.0105479
0.010511
0.010459
0.0107364
0.0107402
0.0101488
0.0100502
0.00995961
0.0098583
0.00974888
0.00985648
0.0122309
0.0101461
0.00969156
0.00951892
0.00937282
0.00922556
0.00907403
0.00892167
0.00907275
0.00913839
0.00920539
0.00940696
0.0112005
0.00995949
0.00999779
0.0100415
0.0100835
0.0101568
0.0102028
0.0102608
0.0102992
0.0103876
0.0105035
0.0107802
0.0118955
0.0127344
0.012826
0.0127477
0.0117401
0.0106452
0.0103837
0.0103362
0.0102941
0.0102343
0.010164
0.0100844
0.0100739
0.0114861
0.00998982
0.0099949
0.00985966
0.00962817
0.0137185
0.0118033
0.0113227
0.0111757
0.0110309
0.0107441
0.0109191
0.0113146
0.011247
0.0101282
0.00970159
0.00958401
0.00942779
0.00921974
0.00911111
0.00899192
0.00879968
0.00922816
0.00926396
0.00916084
0.00919194
0.00923398
0.00924914
0.00949495
0.00927234
0.0092697
0.00913958
0.0101281
0.00955925
0.00943864
0.00937253
0.00928488
0.00918499
0.00903369
0.00940089
0.0182324
0.0137074
0.0126515
0.0122038
0.0124338
0.0120699
0.0119668
0.0118884
0.012544
0.0135237
0.0119043
0.0118597
0.0110905
0.0111469
0.0110937
0.0109419
0.0102564
0.0113241
0.0108757
0.0112563
0.0112802
0.0102388
0.00965492
0.0094361
0.00927862
0.00910208
0.00900257
0.00919276
0.00907252
0.00886864
0.00835187
0.0119941
0.0119678
0.0119396
0.0119085
0.0118675
0.011837
0.0118019
0.012032
0.0118615
0.0119733
0.0118532
0.0127966
0.0120004
0.0118663
0.0117847
0.0116085
0.0115468
0.011614
0.0116292
0.0115567
0.0115682
0.0115146
0.0114434
0.0121899
0.0120719
0.0128213
0.0120327
0.0122856
0.0128785
0.0191644
0.0142819
0.01298
0.0122164
0.011975
0.0117956
0.0114738
0.0112422
0.0111538
0.0109942
0.0108738
0.010662
0.0105875
0.0105817
0.0103174
0.00996607
0.00968788
0.00941376
0.00920901
0.00874805
0.00850129
0.0134997
0.0134708
0.013441
0.0134121
0.0134151
0.0135007
0.0148415
0.0129413
0.0128335
0.0127887
0.0127307
0.0126682
0.0126086
0.0125275
0.012466
0.0124337
0.0125451
0.0129459
0.0137598
0.0138141
0.0134037
0.0119622
0.0115648
0.0115392
0.0111129
0.0120916
0.0147636
0.0185538
0.0182985
0.0157721
0.0131221
0.0128483
0.0126843
0.0125157
0.0123402
0.0121747
0.0120273
0.0118735
0.0117144
0.0115667
0.0116582
0.0126753
0.0121002
0.0116221
0.0117417
0.0110159
0.0111832
0.0106311
0.010322
0.0101381
0.0130144
0.0131002
0.0131875
0.0132775
0.0133726
0.0134739
0.0135773
0.0136816
0.0137938
0.0139299
0.0140286
0.0144149
0.0145108
0.0146016
0.0147731
0.0155488
0.0167464
0.0169657
0.014266
0.013343
0.0135562
0.0137279
0.013888
0.0140161
0.014734
0.0170988
0.0208889
0.0211031
0.0128385
0.0102661
0.0101586
0.0102772
0.0103977
0.0105126
0.0106271
0.0107397
0.0108497
0.0109887
0.0110861
0.0113812
0.0132187
0.0132092
0.0129637
0.0133319
0.0134883
0.0137141
0.014743
0.0136612
0.0139607
0.0143167
0.0127816
0.0127869
0.0127921
0.0127959
0.0127991
0.0128022
0.012807
0.0128149
0.0128247
0.0128339
0.0128446
0.0128577
0.012978
0.0129661
0.0129441
0.012978
0.0130072
0.0132749
0.0152292
0.0122888
0.0122888
0.0123669
0.0124519
0.0125513
0.0126554
0.0130197
0.0146473
0.0277534
0.0103453
0.00978073
0.0098918
0.0099713
0.0100312
0.0100092
0.00999374
0.00999517
0.009984
0.00998054
0.00992769
0.0100423
0.0119099
0.0109241
0.0104569
0.0103125
0.0101308
0.00991714
0.00965863
0.00950535
0.00918745
0.00872313
0.0121469
0.0121566
0.0121655
0.0121728
0.0121787
0.012183
0.0121862
0.0121881
0.0121886
0.0121869
0.0121831
0.0121775
0.0121705
0.0121601
0.0121485
0.0121346
0.0121197
0.0121032
0.0120842
0.0120716
0.0120603
0.0120458
0.0120272
0.012005
0.0119786
0.0119453
0.0119088
0.0118713
0.0118613
0.0118526
0.0118512
0.0120057
0.0126556
0.0138227
0.0128914
0.0122027
0.0121819
0.0122186
0.0122729
0.0123226
0.0123803
0.0124906
0.0127334
0.012825
0.0124486
0.0124195
0.0125443
0.0127555
0.0127089
0.0128561
0.0121678
0.0121446
0.012124
0.0121056
0.0120866
0.0120674
0.0120481
0.0120284
0.0120082
0.0119876
0.0119663
0.0119444
0.0119217
0.0118983
0.011874
0.0118486
0.0118223
0.0117954
0.0117684
0.011741
0.0117137
0.0116861
0.0116581
0.0116294
0.0116002
0.0115703
0.0115414
0.0115168
0.0114933
0.0114729
0.0114528
0.0114309
0.0114035
0.0113711
0.0113594
0.0113441
0.0113257
0.0113104
0.0112983
0.0112876
0.0112794
0.0112738
0.0112702
0.0112662
0.0112717
0.0112942
0.0114223
0.0112996
0.011234
0.0111801
0.0123373
0.0122859
0.0122416
0.0122053
0.0121726
0.0121414
0.0121113
0.0120823
0.0120544
0.0120276
0.0120016
0.0119765
0.0119522
0.0119285
0.0119056
0.0118832
0.0118613
0.01184
0.0118191
0.0117985
0.0117783
0.0117583
0.0117385
0.0117188
0.0116991
0.0116795
0.0116598
0.01164
0.0116201
0.0116
0.0115795
0.0115587
0.0115382
0.0115199
0.0115009
0.0114831
0.0114646
0.0114443
0.0114221
0.011398
0.0113718
0.0113435
0.0113131
0.011281
0.0112466
0.0112101
0.0111713
0.011133
0.0110925
0.0110493
0.0112893
0.0112644
0.0112483
0.0112502
0.0112592
0.0112686
0.0112765
0.011283
0.0112881
0.0112919
0.0112943
0.0112956
0.0112957
0.0112946
0.0112925
0.0112893
0.0112851
0.0112799
0.0112738
0.0112668
0.011259
0.0112503
0.0112409
0.0112308
0.0112199
0.0112084
0.0111963
0.0111836
0.0111703
0.0111565
0.0111421
0.0111273
0.011112
0.0110963
0.0110802
0.0110636
0.0110468
0.0110296
0.0110121
0.0109943
0.0109762
0.0109579
0.0109393
0.0109204
0.0109013
0.010882
0.0108627
0.0108432
0.0108238
0.0108035
0.0117111
0.0115909
0.0114976
0.011466
0.011455
0.0114468
0.0114386
0.01143
0.011421
0.0114117
0.0114021
0.0113922
0.011382
0.0113716
0.0113609
0.01135
0.0113388
0.0113274
0.0113158
0.0113039
0.0112918
0.0112795
0.0112669
0.0112541
0.0112411
0.0112279
0.0112145
0.0112008
0.0111869
0.0111728
0.0111585
0.011144
0.0111292
0.0111142
0.011099
0.0110835
0.0110678
0.0110518
0.0110356
0.0110191
0.0110023
0.0109853
0.010968
0.0109505
0.0109327
0.0109146
0.0108964
0.0108779
0.0108594
0.0108407
0.0127401
0.0119021
0.0113597
0.011257
0.0112389
0.011225
0.0112117
0.0111989
0.0111867
0.0111748
0.0111631
0.0111517
0.0111404
0.0111292
0.0111181
0.0111071
0.011096
0.011085
0.011074
0.0110629
0.0110518
0.0110406
0.0110294
0.011018
0.0110066
0.0109951
0.0109835
0.0109718
0.0109599
0.010948
0.010936
0.0109239
0.0109116
0.0108993
0.0108869
0.0108744
0.0108619
0.0108492
0.0108365
0.0108237
0.0108109
0.0107979
0.010785
0.010772
0.0107589
0.0107458
0.0107327
0.0107196
0.0107065
0.0106932
0.162463
0.0215061
0.0114017
0.0110496
0.0109999
0.0109871
0.0109826
0.010979
0.0109752
0.0109714
0.0109676
0.0109637
0.0109594
0.0109548
0.0109499
0.0109448
0.0109394
0.0109337
0.0109277
0.0109215
0.0109151
0.0109084
0.0109015
0.0108944
0.0108871
0.0108795
0.0108718
0.0108639
0.0108558
0.0108475
0.0108391
0.0108305
0.0108218
0.0108129
0.0108039
0.0107948
0.0107855
0.0107761
0.0107666
0.010757
0.0107473
0.0107375
0.0107276
0.0107177
0.0107076
0.0106975
0.0106874
0.0106772
0.010667
0.0106567
3.96543
0.329814
0.0185383
0.0110902
0.010953
0.0108908
0.0108683
0.0108561
0.0108476
0.0108417
0.0108375
0.0108345
0.0108321
0.0108297
0.0108271
0.0108242
0.0108209
0.0108173
0.0108134
0.0108093
0.0108048
0.0108001
0.0107951
0.0107898
0.0107843
0.0107786
0.0107726
0.0107664
0.01076
0.0107534
0.0107465
0.0107395
0.0107323
0.010725
0.0107174
0.0107097
0.0107019
0.0106939
0.0106858
0.0106775
0.0106691
0.0106606
0.010652
0.0106433
0.0106345
0.0106256
0.0106166
0.0106075
0.0105984
0.0105891
17.714
1.00341
0.0291847
0.010988
0.0108997
0.0108343
0.0107937
0.0107666
0.0107468
0.0107326
0.0107234
0.0107183
0.0107161
0.0107157
0.010716
0.0107163
0.0107164
0.0107162
0.0107155
0.0107146
0.0107133
0.0107117
0.0107097
0.0107075
0.0107049
0.010702
0.0106989
0.0106955
0.0106917
0.0106878
0.0106835
0.010679
0.0106743
0.0106693
0.0106642
0.0106588
0.0106531
0.0106473
0.0106413
0.0106351
0.0106287
0.0106222
0.0106154
0.0106085
0.0106015
0.0105943
0.010587
0.0105795
0.0105719
0.0105642
19.743
0.701668
0.0244762
0.0111883
0.0109455
0.0108634
0.0108145
0.0107801
0.0107534
0.0107329
0.0107187
0.0107101
0.0107059
0.0107045
0.0107047
0.0107054
0.010706
0.0107063
0.0107062
0.0107057
0.0107048
0.0107036
0.010702
0.0107
0.0106977
0.0106951
0.0106922
0.0106889
0.0106854
0.0106815
0.0106774
0.010673
0.0106683
0.0106634
0.0106582
0.0106528
0.0106471
0.0106413
0.0106352
0.0106289
0.0106224
0.0106157
0.0106088
0.0106017
0.0105945
0.0105871
0.0105795
0.0105718
0.0105639
0.0105559
0.00674333
0.0066782
0.00661407
0.00657578
0.00679686
0.00742692
0.00733508
0.00712315
0.00688208
0.00679905
0.00674222
0.00669522
0.00665957
0.00660531
0.00664428
0.00663358
0.00600831
0.00594028
0.0059012
0.0058615
0.00582267
0.00587052
0.00581562
0.00578161
0.00572685
0.00661532
0.00639456
0.0062844
0.00623308
0.00621022
0.00618868
0.0062533
0.00668105
0.00664041
0.00591302
0.00582291
0.00582166
0.00582129
0.00582479
0.00583423
0.0059579
0.00617147
0.00615398
0.00534373
0.00527642
0.00557458
0.00554889
0.00583483
0.00558265
0.00561506
0.00564443
0.00567699
0.00570389
0.0057592
0.00595222
0.00602161
0.00557648
0.00548054
0.0055083
0.00554318
0.00557751
0.0056205
0.00566146
0.00571397
0.00587219
0.00593372
0.00551331
0.00546733
0.00551197
0.00555409
0.00559348
0.00566016
0.00626352
0.00629911
0.00624123
0.0062734
0.00631213
0.00634868
0.00638281
0.00650348
0.00683076
0.00687103
0.00681308
0.00703947
0.00708664
0.00817322
0.00791499
0.00784074
0.00798788
0.00806966
0.00779022
0.00782336
0.0078664
0.00797017
0.00830548
0.0082635
0.0080285
0.00818291
0.00822911
0.00822807
0.00827887
0.00828668
0.00843232
0.00839257
0.00842075
0.00840362
0.00911885
0.00912815
0.00974651
0.0096791
0.0107807
0.0106228
0.0113561
0.0109975
0.0111984
0.010686
0.0107286
0.0107449
0.0107845
0.0113167
0.0108271
0.0109524
0.0110066
0.0110439
0.0111481
0.0114216
0.0110407
0.0111343
0.0111958
0.0112627
0.0114306
0.0115371
0.0112716
0.0114532
0.0114045
0.0115092
0.0117608
0.0118063
0.0117405
0.0117099
0.0116842
0.0117175
0.0117482
0.0117807
0.0118085
0.0118367
0.0118643
0.0118909
0.011917
0.0119432
0.011968
0.0119869
0.0120074
0.0120266
0.0120442
0.0120602
0.0120752
0.0120883
0.0121004
0.0121107
0.0121203
0.0121288
0.0121365
0.0121431
0.0121486
0.0121529
0.0121563
0.0121587
0.0121611
0.0121657
0.0122176
0.0121375
0.0121322
0.0121336
0.0121322
0.0121346
0.0121325
0.0121187
0.012192
0.0121666
0.0121363
0.0121524
0.0121199
0.0121198
0.0121179
0.0121066
0.0121765
0.0121127
0.0120928
0.0120799
0.012062
0.012104
0.0120346
0.0119991
0.0119688
0.0119542
0.0119224
0.0118924
0.0118659
0.0118517
0.0118605
0.0118149
0.0118484
0.0118074
0.0130392
0.0126107
0.0122188
0.0121153
0.0120291
0.0118125
0.0134944
0.0125585
0.0122813
0.0122434
0.0121608
0.0119422
0.0123282
0.0126697
0.0125381
0.012228
0.0117622
0.0115312
0.0114549
0.0112619
0.0110959
0.0112627
0.0122387
0.0120119
0.0113614
0.0113501
0.0109328
0.0124353
0.0115775
0.0110134
0.0110361
0.0107238
0.0106673
0.0114233
0.0113621
0.0110526
0.00989471
0.00931817
0.00914587
0.00884254
0.00874765
0.00982755
0.0104745
0.0100191
0.00851369
0.00766772
0.00747588
0.00708753
0.00682388
0.00653068
0.0062301
0.00604543
0.00738482
0.00848834
0.00827009
0.00795748
0.00745657
0.00600602
0.00568645
0.00527849
0.00484963
0.00460634
0.00417758
0.00494715
0.00538661
0.00500431
0.00411521
0.00335865
0.00314456
0.00311571
0.0032354
0.0033217
0.00344475
0.0035344
0.00367948
0.00559061
0.00730281
0.00738751
0.0047141
0.00375313
0.00391543
0.00403288
0.00420744
0.00441086
0.0045771
0.0050668
0.00600266
0.00610012
0.00552953
0.00473222
0.00489317
0.00513597
0.00519481
0.00532815
0.00531538
0.00613827
0.00781885
0.00778501
0.0076819
0.00761557
0.00754538
0.00747236
0.00740396
0.0073299
0.00726828
0.00749505
0.00770441
0.00761993
0.00725379
0.00704012
0.00695544
0.00686955
0.00678589
0.00670358
0.00662223
0.00654205
0.00646306
0.0063872
0.00647348
0.00773324
0.00766164
0.00702214
0.00680717
0.00673327
0.00666094
0.00659117
0.00652257
0.00688261
0.00642106
0.006361
0.00629511
0.00623053
0.00616758
0.00610622
0.00604598
0.00598624
0.00643525
0.00593419
0.00588589
0.00583192
0.00577992
0.00573032
0.00577783
0.00952566
0.00676914
0.00652015
0.00651968
0.006481
0.00652524
0.00665572
0.00637338
0.00627918
0.00625651
0.00623191
0.00620831
0.00734324
0.00682848
0.00671025
0.00670283
0.00669457
0.00668799
0.0066807
0.00675044
0.0070312
0.00701615
0.0069142
0.00702037
0.00702711
0.00762256
0.0073843
0.00734515
0.00736464
0.00737959
0.00739974
0.00742656
0.00745594
0.00748472
0.00757949
0.00812454
0.00784762
0.00850208
0.00865858
0.00830107
0.00826106
0.00829993
0.00834891
0.00839841
0.00845266
0.00850481
0.0085607
0.00935664
0.00883806
0.00890612
0.00895829
0.00905087
0.00966821
0.00970331
0.00960456
0.00969226
0.00986199
0.00948321
0.00947071
0.00953303
0.00958559
0.00963103
0.00966957
0.0110804
0.0106761
0.0113156
0.0110732
0.0113715
0.0116725
0.010939
0.0108651
0.0109523
0.010566
0.0108938
0.0104733
0.010429
0.0104699
0.0105021
0.0106448
0.0109083
0.0109217
0.0108351
0.0108936
0.0109087
0.0110956
0.0115314
0.0115536
0.011412
0.0114947
0.011513
0.0118345
0.0123971
0.0124207
0.012264
0.0121401
0.0121403
0.0121444
0.0121472
0.0121536
0.0121611
0.0121677
0.0121734
0.0121793
0.0121862
0.0121981
0.0122027
0.0122077
0.0122124
0.0122159
0.0122191
0.0122207
0.0122226
0.0122215
0.0122203
0.0122184
0.0122158
0.0122123
0.0122076
0.0122022
0.0121967
0.0121912
0.0121849
0.0121781
0.0123245
0.0121531
0.0121385
0.0121347
0.0121239
0.0121173
0.012106
0.0120935
0.0122468
0.0121016
0.0120642
0.0120505
0.0120208
0.0120008
0.0119855
0.0119692
0.0122954
0.0118875
0.0118983
0.0119823
0.0119268
0.0119845
0.0118967
0.011858
0.0118206
0.0118282
0.0117799
0.0117733
0.0117997
0.0118685
0.0118816
0.0125667
0.0123404
0.0121012
0.0125868
0.0116537
0.0115244
0.0115117
0.0112957
0.0113638
0.0123674
0.0119956
0.0116293
0.0116947
0.0115846
0.0120183
0.0120788
0.0114056
0.0110027
0.0110756
0.0108252
0.0110222
0.0112506
0.0111549
0.0106535
0.0101858
0.0100142
0.00990573
0.00975756
0.00983956
0.0109555
0.0107545
0.0108535
0.0106359
0.0105526
0.0106693
0.0104123
0.00972258
0.00929922
0.00909662
0.00888189
0.0086421
0.00879783
0.010343
0.0103667
0.0100666
0.00872784
0.00751863
0.00737234
0.0070388
0.00670015
0.00780982
0.00911299
0.00890416
0.0085856
0.00726719
0.00565106
0.00568806
0.00521361
0.00632523
0.00619833
0.00611831
0.00735649
0.0117447
0.0120676
0.00928552
0.00446066
0.00260358
0.00245244
0.00221017
0.00176798
0.00129948
0.00260724
0.0261354
0.0115226
0.00512445
0.0035937
0.00353244
0.00319139
0.00369449
0.00285344
0.00230583
0.00203399
0.00161958
0.0212079
0.0129798
0.00653425
0.00546429
0.00548208
0.0054523
0.00532633
0.00559499
0.017044
0.0115505
0.0074836
0.00839892
0.00821971
0.00983568
0.0194497
0.0130719
0.0091534
0.00905967
0.00899022
0.00902351
0.0089387
0.00893883
0.00878731
0.00874934
0.00871235
0.00867772
0.00867481
0.00910045
0.00857004
0.00671519
0.00657558
0.00653908
0.00649585
0.00644924
0.00639848
0.00634363
0.00628511
0.00622333
0.0061665
0.00930475
0.00785981
0.00759628
0.00774033
0.00753569
0.00737659
0.00716107
0.00709358
0.00702618
0.00696121
0.00689842
0.00684167
0.00678071
0.00672269
0.00666274
0.00660627
0.00654922
0.00649181
0.0064333
0.00640204
0.00631958
0.00626213
0.00619912
0.00617945
0.0104985
0.00787889
0.00758501
0.00751499
0.00746305
0.00741766
0.00733496
0.00730007
0.00727147
0.00724549
0.00723282
0.0072662
0.00742366
0.00760375
0.00762104
0.00746043
0.00737377
0.00739078
0.00741306
0.00744108
0.00747581
0.00751929
0.00756746
0.00762327
0.00769163
0.00772093
0.00779945
0.00785306
0.00809671
0.00887964
0.00746352
0.00751456
0.00761081
0.00769842
0.00782528
0.00857064
0.00786345
0.00819144
0.00833667
0.00807754
0.00812305
0.00820931
0.00829008
0.00852719
0.00854692
0.00859987
0.00867881
0.00875418
0.00883499
0.0100724
0.00975299
0.00971545
0.00981885
0.00990303
0.0099622
0.0102791
0.0112646
0.00999711
0.00989899
0.00998536
0.0100743
0.0101625
0.0102504
0.0103377
0.0104259
0.0105132
0.0105946
0.0106674
0.0108737
0.011487
0.0133015
0.00983963
0.00968186
0.00969136
0.00967443
0.00985713
0.00991178
0.0112969
0.0109105
0.0108083
0.0108583
0.0108932
0.0109125
0.0109538
0.0109693
0.0109701
0.0110991
0.0117984
0.0117738
0.011568
0.011743
0.0117046
0.0117668
0.0139983
0.0134701
0.0130125
0.0128555
0.0128183
0.0127776
0.0127446
0.0127118
0.0126779
0.0126448
0.0126144
0.0125878
0.0125665
0.0125397
0.0125175
0.0124962
0.0124765
0.0124565
0.0124395
0.0124189
0.0124002
0.0123817
0.0123637
0.0123453
0.0123265
0.0123079
0.01229
0.0122727
0.0122541
0.0122911
0.0122336
0.012215
0.0121961
0.0121794
0.0121596
0.0121407
0.0121231
0.0121084
0.0121108
0.0120738
0.0120639
0.0120387
0.0120184
0.0119912
0.0119668
0.0119604
0.0119609
0.0118862
0.0118578
0.0118043
0.0117725
0.0118072
0.0117319
0.0116997
0.0116657
0.0116576
0.0117466
0.0119397
0.0122084
0.0121817
0.012042
0.0115442
0.0112889
0.0112269
0.0111663
0.0111153
0.0110529
0.0109864
0.0109391
0.0112485
0.0137242
0.0128832
0.0121726
0.011944
0.0119172
0.0114875
0.0122728
0.0105128
0.0105111
0.0104122
0.0104044
0.0104271
0.0105084
0.0110884
0.00990548
0.00972932
0.00975806
0.00965115
0.00964171
0.00985099
0.00956035
0.00946911
0.00948031
0.0093945
0.00920397
0.00894272
0.00877839
0.00850088
0.0083592
0.00810875
0.0079657
0.00785217
0.00812158
0.0100268
0.00957589
0.00767735
0.00720627
0.0070638
0.00672607
0.00658242
0.00690193
0.00811842
0.0081317
0.00705232
0.00560364
0.00577919
0.00554777
0.0052299
0.00908769
0.0134643
0.0134419
0.0132706
0.0128444
0.00794961
0.00548317
0.00521419
0.00527015
0.00507882
0.00513689
0.00631103
0.0136743
0.0155514
0.0159265
0.0161378
0.014018
0.00720213
0.00488608
0.00510294
0.00505964
0.00506849
0.00680228
0.0148162
0.0158429
0.0165571
0.0168283
0.0097922
0.00658595
0.00669425
0.00687215
0.00694804
0.0095231
0.0156141
0.0162193
0.0148513
0.00907919
0.0118335
0.0109944
0.0152822
0.016869
0.0157932
0.00880358
0.00876203
0.00908828
0.0092144
0.00912479
0.00868987
0.00820365
0.00793908
0.00783581
0.0077345
0.00763036
0.00752307
0.00741399
0.0072958
0.0095266
0.00820649
0.0079296
0.00783821
0.00775816
0.00768361
0.00761542
0.00755393
0.00749962
0.00745302
0.00741413
0.00737131
0.00775103
0.00805319
0.00806976
0.00641056
0.00601831
0.00593484
0.00593312
0.00592964
0.00592289
0.00671651
0.00609665
0.00606464
0.00607516
0.00608818
0.00610436
0.00612471
0.0061937
0.00669299
0.00674098
0.00747593
0.00730276
0.00975279
0.00842294
0.00669959
0.00659577
0.00668201
0.00674941
0.0069362
0.0078802
0.00660778
0.00662096
0.00669166
0.00674981
0.00682925
0.00690563
0.00722498
0.00884204
0.00637556
0.00632168
0.00640316
0.0064676
0.00653548
0.00661358
0.00665606
0.0067138
0.00676667
0.00681524
0.00685912
0.00689562
0.00707427
0.00844856
0.00850573
0.00840298
0.00880107
0.00903431
0.00798815
0.00796054
0.00800401
0.00804489
0.00808503
0.00812634
0.00816869
0.00821085
0.00825254
0.00829321
0.0087343
0.00877355
0.00874212
0.00881997
0.00865041
0.00962613
0.00949084