/*--------------------------------*- C++ -*----------------------------------*\
| =========                 |                                                 |
| \\      /  F ield         | OpenFOAM: The Open Source CFD Toolbox           |
|  \\    /   O peration     | Version:  2.4.0                                 |
|   \\  /    A nd           | Web:      www.OpenFOAM.org                      |
|    \\/     M anipulation  |                                                 |
\*---------------------------------------------------------------------------*/
FoamFile
{
    version     2.0;
    format      ascii;
    class       volScalarField;
    location    "0.004";
    object      H;
}
// * * * * * * * * * * * * * * * * * * * * * * * * * * * * * * * * * * * * * //

dimensions      [0 2 -2 0 0 0 0];

internalField   nonuniform List<scalar> 
1500
(
-10283.3
-10280.3
-10273.6
-10283.6
-10281.2
-6371.01
-6361.91
-6342.34
-6371.63
-6364.55
-369.632
-363.794
-351.637
-370.029
-365.475
-282.257
-277.662
-268.112
-282.571
-278.992
-283.335
-278.73
-269.16
-283.65
-280.073
-283.226
-278.648
-269.132
-283.541
-279.992
-281.979
-277.462
-268.071
-282.291
-278.796
-279.648
-275.225
-266.023
-279.955
-276.539
-276.295
-271.995
-263.043
-276.596
-273.281
-271.988
-267.839
-259.189
-272.281
-269.088
-266.799
-262.823
-254.524
-267.082
-264.028
-260.804
-257.022
-249.115
-261.075
-258.175
-254.081
-250.511
-243.031
-254.34
-251.607
-246.712
-243.367
-236.342
-246.958
-244.401
-238.778
-235.669
-229.121
-239.01
-236.638
-230.362
-227.496
-221.44
-230.58
-228.397
-221.545
-218.926
-213.372
-221.748
-219.758
-212.407
-210.037
-204.987
-212.596
-210.798
-203.027
-200.904
-196.357
-203.201
-201.594
-193.479
-191.6
-187.547
-193.639
-192.219
-183.835
-182.193
-178.623
-183.981
-182.743
-174.163
-172.749
-169.645
-174.294
-173.232
-164.525
-163.33
-160.673
-164.643
-163.748
-154.98
-153.991
-151.758
-155.086
-154.349
-145.581
-144.786
-142.951
-145.674
-145.085
-136.376
-135.761
-134.296
-136.458
-136.005
-127.406
-126.956
-125.834
-127.477
-127.151
-118.709
-118.41
-117.6
-118.771
-118.558
-110.316
-110.153
-109.624
-110.369
-110.258
-102.253
-102.21
-101.934
-102.298
-102.278
-94.5406
-94.6031
-94.5488
-94.5779
-94.6375
-87.1948
-87.3484
-87.487
-87.2254
-87.3534
-80.2265
-80.4576
-80.761
-80.2513
-80.4371
-73.6426
-73.938
-74.3797
-73.6623
-73.8958
-67.4456
-67.7931
-68.3481
-67.4608
-67.7329
-61.6346
-62.0228
-62.6677
-61.646
-61.9479
-56.2053
-56.6238
-57.3371
-56.2133
-56.5372
-51.1502
-51.5897
-52.352
-51.1556
-51.4943
-46.4598
-46.9117
-47.7057
-46.4629
-46.8102
-42.1221
-42.5791
-43.3891
-42.1233
-42.4736
-38.1234
-38.579
-39.3916
-38.1231
-38.4715
-34.4485
-34.8974
-35.7009
-34.447
-34.7896
-31.0813
-31.5188
-32.3036
-31.079
-31.4123
-28.0049
-28.4273
-29.1853
-28.0019
-28.3232
-25.2018
-25.6061
-26.3309
-25.1983
-25.5055
-22.6543
-23.0383
-23.7251
-22.6506
-22.942
-20.3449
-20.707
-21.3521
-20.341
-20.6155
-18.2561
-18.5953
-19.1963
-18.2522
-18.5091
-16.3709
-16.6867
-17.2423
-16.367
-16.606
-14.6729
-14.9652
-15.475
-14.6691
-14.8902
-13.1462
-13.4153
-13.8796
-13.1425
-13.346
-11.7757
-12.0222
-12.4421
-11.7722
-11.9586
-10.5473
-10.7719
-11.1489
-10.544
-10.7138
-9.4475
-9.65124
-9.9873
-9.44435
-9.59847
-8.46381
-8.64785
-8.94523
-8.46085
-8.60015
-7.58468
-7.75023
-8.01142
-7.58189
-7.70732
-6.79941
-6.94776
-7.17538
-6.79677
-6.90932
-6.09819
-6.23065
-6.4274
-6.09571
-6.19638
-5.4721
-5.58997
-5.75854
-5.46975
-5.55953
-4.913
-5.01756
-5.16063
-4.91077
-4.99063
-4.41355
-4.50604
-4.6262
-4.41143
-4.4823
-3.96716
-4.04875
-4.14847
-3.96513
-4.0279
-3.56789
-3.63969
-3.72133
-3.56594
-3.62144
-3.21045
-3.27352
-3.33927
-3.20858
-3.25758
-2.89015
-2.94543
-2.99734
-2.88834
-2.93156
-2.6028
-2.65118
-2.69111
-2.60105
-2.63914
-2.34471
-2.387
-2.41666
-2.34302
-2.37658
-2.11263
-2.14955
-2.17048
-2.11099
-2.14054
-1.90366
-1.93588
-1.94947
-1.90208
-1.92812
-1.7153
-1.7434
-1.75087
-1.71377
-1.73671
-1.54532
-1.56982
-1.57226
-1.54384
-1.56407
-1.39177
-1.41313
-1.41148
-1.39033
-1.4082
-1.25294
-1.27157
-1.26666
-1.25155
-1.26733
-1.12731
-1.14357
-1.13612
-1.12598
-1.13994
-1.01357
-1.02776
-1.01838
-1.01229
-1.02465
-0.910548
-0.922946
-0.912159
-0.909324
-0.920285
-0.817211
-0.82805
-0.816292
-0.816043
-0.825773
-0.732643
-0.742129
-0.729764
-0.731533
-0.74018
-0.656033
-0.664341
-0.651672
-0.654981
-0.662673
-0.586655
-0.593938
-0.581211
-0.585662
-0.59251
-0.52386
-0.53025
-0.517662
-0.522926
-0.529027
-0.467064
-0.472673
-0.460381
-0.466188
-0.471626
-0.415739
-0.420666
-0.408791
-0.414921
-0.419769
-0.369408
-0.373737
-0.362369
-0.368647
-0.372969
-0.327636
-0.331441
-0.320646
-0.32693
-0.330783
-0.290027
-0.293372
-0.283193
-0.289375
-0.292807
-0.256218
-0.259157
-0.249621
-0.255618
-0.258673
-0.225875
-0.228457
-0.219575
-0.225325
-0.228043
-0.198693
-0.20096
-0.192732
-0.19819
-0.200604
-0.174388
-0.176377
-0.168793
-0.17393
-0.176072
-0.1527
-0.154443
-0.147487
-0.152285
-0.154183
-0.133389
-0.134915
-0.128563
-0.133014
-0.134692
-0.116234
-0.117567
-0.111793
-0.115896
-0.117377
-0.101028
-0.102192
-0.0969647
-0.100726
-0.10203
-0.0875841
-0.0885982
-0.0838852
-0.0873136
-0.0884598
-0.0757272
-0.076609
-0.0723771
-0.0754864
-0.0764913
-0.0652975
-0.0660627
-0.0622777
-0.0650838
-0.0659626
-0.0561477
-0.0568102
-0.0534383
-0.0559588
-0.0567254
-0.0481429
-0.0487152
-0.0457229
-0.0479766
-0.0486435
-0.0411597
-0.0416529
-0.0390076
-0.0410138
-0.0415923
-0.0350855
-0.0355093
-0.0331798
-0.0349579
-0.0354583
-0.0298175
-0.0301808
-0.0281373
-0.0297064
-0.0301379
-0.0252628
-0.0255733
-0.0237876
-0.0251664
-0.0255374
-0.0213369
-0.0216015
-0.0200471
-0.0212536
-0.0215715
-0.0179638
-0.0181886
-0.0168408
-0.017892
-0.0181636
-0.015075
-0.0152655
-0.0141012
-0.0150134
-0.0152447
-0.0126091
-0.01277
-0.0117683
-0.0125565
-0.0127528
-0.0105114
-0.0106467
-0.00978834
-0.0104666
-0.0106325
-0.00873283
-0.00884639
-0.00811368
-0.00869482
-0.0088347
-0.00723017
-0.00732512
-0.0067022
-0.00719807
-0.00731553
-0.0059651
-0.00604421
-0.00551677
-0.00593808
-0.00603637
-0.00490388
-0.00496955
-0.00452477
-0.00488122
-0.00496316
-0.00401689
-0.00407122
-0.00369769
-0.00399798
-0.00406604
-0.00327829
-0.00332306
-0.00301067
-0.00326256
-0.00331887
-0.00266555
-0.00270232
-0.00244214
-0.00265253
-0.00269895
-0.00215918
-0.00218926
-0.00197348
-0.00214843
-0.00218655
-0.00174232
-0.00176683
-0.00158865
-0.00173349
-0.00176466
-0.0014005
-0.0014204
-0.00127388
-0.00139328
-0.00141867
-0.00112132
-0.00113741
-0.00101746
-0.00111544
-0.00113604
-0.000894229
-0.000907186
-0.000809417
-0.00088946
-0.000906104
-0.000710257
-0.000720649
-0.000641311
-0.000706406
-0.000719799
-0.000561836
-0.000570136
-0.00050604
-0.000558738
-0.00056947
-0.000442595
-0.000449197
-0.000397649
-0.000440115
-0.000448678
-0.000347205
-0.000352434
-0.000311165
-0.000345229
-0.000352031
-0.000271223
-0.000275346
-0.000242458
-0.000269654
-0.000275034
-0.000210962
-0.0002142
-0.000188112
-0.000209723
-0.00021396
-0.00016338
-0.000165911
-0.000145314
-0.000162405
-0.000165727
-0.000125976
-0.000127946
-0.00011176
-0.000125213
-0.000127806
-9.67048e-05
-9.82314e-05
-8.55726e-05
-9.61103e-05
-9.81249e-05
-7.39028e-05
-7.50803e-05
-6.52274e-05
-7.34417e-05
-7.49997e-05
-5.62216e-05
-5.71256e-05
-4.94938e-05
-5.58657e-05
-5.70651e-05
-4.25749e-05
-4.32657e-05
-3.73831e-05
-4.23015e-05
-4.32204e-05
-3.20915e-05
-3.2617e-05
-2.8105e-05
-3.18825e-05
-3.25833e-05
-2.40765e-05
-2.44743e-05
-2.10306e-05
-2.39174e-05
-2.44493e-05
-1.79779e-05
-1.82776e-05
-1.56625e-05
-1.78575e-05
-1.82592e-05
-1.33601e-05
-1.35847e-05
-1.16089e-05
-1.32693e-05
-1.35712e-05
-9.88049e-06
-1.00481e-05
-8.56284e-06
-9.8125e-06
-1.00382e-05
-7.27162e-06
-7.39603e-06
-6.28524e-06
-7.22088e-06
-7.38888e-06
-5.32525e-06
-5.41719e-06
-4.59074e-06
-5.28761e-06
-5.41201e-06
-3.88052e-06
-3.94805e-06
-3.33641e-06
-3.85272e-06
-3.94435e-06
-2.81356e-06
-2.86295e-06
-2.41263e-06
-2.79316e-06
-2.8603e-06
-2.02964e-06
-2.06556e-06
-1.73578e-06
-2.0147e-06
-2.06366e-06
-1.45665e-06
-1.48265e-06
-1.24243e-06
-1.44583e-06
-1.48133e-06
-1.04004e-06
-1.05876e-06
-8.84712e-07
-1.03219e-06
-1.05781e-06
-7.38725e-07
-7.52124e-07
-6.26707e-07
-7.33077e-07
-7.51461e-07
-5.21928e-07
-5.31482e-07
-4.41615e-07
-5.17909e-07
-5.31033e-07
-3.66818e-07
-3.73575e-07
-3.09521e-07
-3.63944e-07
-3.73269e-07
-2.56431e-07
-2.6119e-07
-2.15797e-07
-2.54392e-07
-2.60969e-07
-1.78284e-07
-1.81627e-07
-1.49631e-07
-1.76862e-07
-1.81479e-07
-1.2328e-07
-1.25607e-07
-1.03184e-07
-1.22278e-07
-1.25502e-07
-8.47793e-08
-8.63927e-08
-7.07692e-08
-8.40946e-08
-8.63171e-08
-5.7979e-08
-5.90939e-08
-4.82749e-08
-5.74935e-08
-5.90628e-08
-3.94408e-08
-4.01868e-08
-3.27386e-08
-3.91184e-08
-4.01629e-08
-2.66701e-08
-2.71841e-08
-2.20683e-08
-2.64319e-08
-2.7166e-08
-1.79306e-08
-1.82867e-08
-1.48151e-08
-1.77755e-08
-1.82724e-08
-1.19714e-08
-1.22269e-08
-9.88119e-09
-1.18846e-08
-1.22224e-08
-7.9908e-09
-8.1184e-09
-6.53755e-09
-7.89743e-09
-8.10684e-09
-5.25593e-09
-5.36977e-09
-4.30408e-09
-5.22009e-09
-5.36817e-09
-3.45639e-09
-3.53012e-09
-2.8352e-09
-3.42728e-09
-3.5363e-09
-2.25607e-09
-2.3088e-09
-1.83973e-09
-2.24101e-09
-2.29229e-09
-1.4751e-09
-1.49084e-09
-1.18526e-09
-1.44873e-09
-1.49522e-09
-9.38676e-10
-9.76069e-10
-7.69416e-10
-9.43988e-10
-9.77535e-10
-6.00409e-10
-6.07655e-10
-4.79368e-10
-5.82771e-10
-6.12305e-10
-3.64396e-10
-3.83416e-10
-3.04923e-10
-3.67783e-10
-3.72683e-10
-2.73301e-10
-2.47514e-10
-1.75099e-10
-2.55526e-10
-2.50651e-10
-1.43848e-10
-1.72799e-10
-1.40869e-10
-1.55445e-10
-1.63851e-10
-8.34515e-11
-7.96953e-11
-6.58653e-11
-7.93093e-11
-8.61599e-11
-4.41744e-11
-3.89017e-11
-5.25489e-11
-5.9642e-11
-5.16852e-11
-6.81742e-11
-7.26803e-11
-4.46745e-11
-4.47958e-11
-4.67403e-11
-3.80719e-11
-3.66862e-11
-4.6064e-11
-5.46003e-11
-5.83922e-11
-3.00531e-11
-3.30697e-11
-9.57498e-12
-2.30142e-11
-3.233e-11
-1.2159e-12
-1.40322e-12
-5.67872e-14
-5.3496e-13
2.71882e-12
1.26572e-14
6.95899e-14
-7.57148e-14
3.42009e-14
5.90293e-13
-5.52564e-14
-5.62754e-14
-3.33706e-14
-5.14604e-14
-3.15868e-14
-1.14422e-14
-1.35131e-14
-4.06372e-15
-9.9239e-15
-1.03171e-14
-1.04809e-15
-1.29704e-15
-3.624e-16
-8.8224e-16
-2.5976e-16
-1.67342e-16
-1.795e-16
-8.51593e-17
-1.65601e-16
6.15216e-18
-4.22039e-17
-4.35159e-17
-1.86115e-17
-4.04845e-17
-1.9223e-17
-6.91364e-18
-7.42687e-18
-2.71539e-18
-5.98315e-18
-4.21627e-18
-9.17332e-19
-1.0533e-18
-3.93336e-19
-7.52168e-19
-5.78806e-19
-1.53928e-19
-1.74657e-19
-7.06956e-20
-1.34425e-19
-1.0447e-19
-2.8657e-20
-2.99148e-20
-1.22851e-20
-2.53181e-20
-1.99551e-20
-4.65345e-21
-4.65192e-21
-1.90786e-21
-3.88183e-21
-3.24399e-21
-7.10817e-22
-7.4269e-22
-2.98089e-22
-5.65922e-22
-5.43162e-22
-1.15092e-22
-1.25474e-22
-4.90337e-23
-9.27062e-23
-9.7969e-23
-1.90898e-23
-1.99839e-23
-8.00361e-24
-1.55835e-23
-1.6246e-23
-3.06251e-24
-2.99117e-24
-1.26723e-24
-2.45399e-24
-2.46111e-24
-4.8132e-25
-4.6425e-25
-1.98585e-25
-3.76868e-25
-3.86489e-25
-7.58467e-26
-7.54048e-26
-3.11347e-26
-5.92707e-26
-6.44931e-26
-1.19618e-26
-1.18823e-26
-4.87512e-27
-9.40814e-27
-1.04341e-26
-1.87639e-27
-1.7883e-27
-7.60634e-28
-1.47264e-27
-1.58678e-27
-2.92175e-28
-2.69139e-28
-1.1769e-28
-2.28147e-28
-2.38063e-28
-4.50488e-29
-4.13873e-29
-1.80068e-29
-3.5276e-29
-3.65866e-29
-6.88869e-30
-6.34844e-30
-2.73857e-30
-5.43763e-30
-5.65705e-30
-1.05034e-30
-9.54505e-31
-4.16093e-31
-8.33593e-31
-8.5573e-31
-1.59656e-31
-1.41951e-31
-6.29393e-32
-1.27182e-31
-1.26678e-31
-2.40639e-32
-2.11393e-32
-9.42862e-33
-1.93167e-32
-1.86674e-32
-3.59204e-33
-3.14977e-33
-1.40069e-33
-2.91693e-33
-2.76139e-33
-5.33169e-34
-4.66652e-34
-2.07213e-34
-4.37703e-34
-4.07414e-34
-7.88369e-35
-6.86464e-35
-3.05304e-35
-6.53131e-35
-5.94722e-35
-1.15834e-35
-1.00536e-35
-4.4674e-36
-9.69619e-36
-8.59591e-36
-1.68814e-36
-1.46864e-36
-6.48648e-37
-1.43141e-36
-1.23771e-36
-2.44363e-37
-2.13896e-37
-9.36011e-38
-2.09962e-37
-1.77989e-37
-3.51869e-38
-3.10254e-38
-1.34368e-38
-3.05972e-38
-2.54924e-38
-5.03745e-39
-4.48075e-39
-1.91759e-39
-4.4319e-39
-3.62727e-39
-7.16271e-40
-6.44597e-40
-2.71853e-40
-6.38201e-40
-5.13271e-40
-1.01175e-40
-9.23889e-41
-3.82934e-41
-9.1333e-41
-7.23795e-41
-1.42079e-41
-1.31893e-41
-5.36231e-42
-1.2985e-41
-1.01727e-41
-1.9837e-42
-1.87469e-42
-7.4652e-43
-1.83418e-42
-1.42328e-42
-2.75257e-43
-2.65255e-43
-1.03298e-43
-2.57477e-43
-1.98139e-43
-3.79579e-44
-3.73585e-44
-1.42065e-44
-3.59203e-44
-2.74592e-44
-5.20367e-45
-5.23634e-45
-1.94219e-45
-4.97932e-45
-3.78943e-45
-7.09296e-46
-7.30244e-46
-2.63965e-46
-6.8581e-46
-5.20575e-46
-9.6117e-47
-1.01301e-46
-3.56656e-47
-9.3862e-47
-7.11607e-47
-1.29479e-47
-1.39761e-47
-4.79073e-48
-1.27664e-47
-9.67847e-48
-1.73415e-48
-1.91743e-48
-6.39772e-49
-1.72559e-48
-1.30976e-48
-2.30945e-49
-2.61538e-49
-8.49452e-50
-2.31786e-49
-1.76335e-49
-3.05812e-50
-3.54619e-50
-1.12137e-50
-3.09408e-50
-2.36132e-50
-4.02626e-51
-4.77909e-51
-1.47185e-51
-4.10487e-51
-3.14471e-51
-5.27061e-52
-6.4008e-52
-1.92087e-52
-5.41264e-52
-4.16472e-52
-6.86047e-53
-8.51892e-53
-2.49264e-53
-7.09363e-53
-5.48448e-53
-8.87933e-54
-1.12657e-53
-3.21624e-54
-9.24039e-54
-7.18099e-54
-1.14267e-54
-1.4802e-54
-4.12636e-55
-1.19644e-54
-9.34751e-55
-1.46205e-55
-1.9322e-55
-5.26404e-56
-1.53989e-55
-1.20962e-55
-1.85995e-56
-2.5057e-56
-6.6774e-57
-1.97014e-56
-1.55607e-56
-2.3525e-57
-3.22804e-57
-8.42222e-58
-2.50568e-57
-1.98983e-57
-2.95821e-58
-4.13113e-58
-1.05626e-58
-3.16804e-58
-2.52929e-58
-3.69809e-59
-5.25186e-59
-1.31715e-59
-3.98203e-59
-3.19572e-59
-4.59577e-60
-6.63237e-60
-1.63311e-60
-4.97596e-60
-4.01352e-60
-5.67744e-61
-8.32022e-61
-2.01328e-61
-6.18187e-61
-5.01033e-61
-6.97174e-62
-1.03685e-61
-2.4677e-62
-7.63558e-62
-6.21717e-62
-8.50942e-63
-1.28354e-62
-3.00724e-63
-9.37675e-63
-7.6684e-63
-1.03231e-63
-1.57844e-63
-3.64357e-64
-1.14488e-63
-9.40172e-64
-1.24464e-64
-1.92831e-64
-4.38892e-65
-1.38985e-64
-1.14579e-64
-1.49139e-65
-2.34026e-65
-5.25597e-66
-1.67758e-65
-1.38803e-65
-1.77592e-66
-2.8216e-66
-6.25752e-67
-2.01331e-66
-1.67145e-66
-2.10149e-67
-3.37975e-67
-7.40626e-68
-2.40244e-67
-2.00074e-67
-2.47106e-68
-4.02195e-68
-8.71439e-69
-2.85044e-68
-2.38064e-68
-2.8872e-69
-4.75516e-69
-1.01932e-69
-3.36271e-69
-2.81581e-69
-3.35192e-70
-5.58569e-70
-1.18525e-70
-3.94444e-70
-3.3107e-70
-3.86654e-71
-6.51902e-71
-1.37006e-71
-4.60041e-71
-3.86936e-71
-4.43153e-72
-7.55946e-72
-1.57432e-72
-5.33484e-72
-4.49533e-72
-5.04639e-73
-8.70983e-73
-1.79833e-73
-6.15115e-73
-5.19136e-73
-5.70951e-74
-9.97121e-74
-2.04207e-74
-7.05174e-74
-5.95928e-74
-6.41808e-75
-1.13426e-74
-2.30514e-75
-8.03778e-75
-6.79976e-75
-7.16806e-76
-1.28207e-75
-2.58673e-76
-9.10895e-76
-7.7121e-76
-7.95409e-77
-1.43996e-76
-2.88562e-77
-1.02633e-76
-8.69409e-77
-8.76958e-78
-1.60708e-77
-3.20012e-78
-1.14969e-77
-9.74181e-78
-9.60671e-79
-1.78227e-78
-3.52808e-79
-1.28039e-78
-1.08495e-78
-1.04566e-79
-1.96412e-79
-3.8669e-80
-1.41762e-79
-1.20096e-79
-1.13094e-80
-2.15092e-80
-4.21356e-81
-1.56037e-80
-1.32124e-80
-1.21545e-81
-2.3407e-81
-4.56462e-82
-1.70737e-81
-1.44466e-81
-1.2981e-82
-2.53125e-82
-4.91631e-83
-1.85717e-82
-1.56988e-82
-1.37774e-83
-2.72016e-83
-5.26456e-84
-2.00812e-83
-1.69543e-83
-1.45326e-84
-2.90489e-84
-5.6051e-85
-2.15837e-84
-1.81969e-84
-1.52357e-85
-3.08276e-85
-5.93351e-86
-2.30594e-85
-1.94093e-85
-1.58762e-86
-3.25109e-86
-6.24535e-87
-2.44875e-86
-2.05736e-86
-1.64449e-87
-3.40719e-87
-6.53622e-88
-2.58465e-87
-2.16717e-87
-1.69334e-88
-3.54851e-88
-6.80188e-89
-2.71149e-88
-2.26857e-88
-1.73346e-89
-3.67263e-89
-7.03835e-90
-2.82715e-89
-2.35984e-89
-1.76431e-90
-3.77738e-90
-7.24198e-91
-2.92963e-90
-2.43938e-90
-1.78548e-91
-3.8609e-91
-7.40958e-92
-3.01707e-91
-2.50575e-91
-1.79675e-92
-3.92166e-92
-7.53846e-93
-3.08786e-92
-2.55775e-92
-1.79804e-93
-3.95854e-93
-7.6265e-94
-3.14062e-93
-2.59438e-93
-1.78945e-94
-3.97087e-94
-7.67225e-95
-3.1743e-94
-2.61494e-94
-1.77122e-95
-3.9584e-95
-7.6749e-96
-3.18818e-95
-2.61905e-95
-1.74374e-96
-3.92137e-96
-7.63436e-97
-3.18192e-96
-2.60661e-96
-1.70753e-97
-3.86048e-97
-7.55123e-98
-3.15557e-97
-2.57785e-97
-1.6632e-98
-3.77683e-98
-7.4268e-99
-3.10956e-98
-2.5333e-98
-1.61148e-99
-3.67195e-99
-7.26302e-100
-3.04467e-99
-2.47379e-99
-1.55318e-100
-3.54772e-100
-7.06243e-101
-2.96207e-100
-2.4004e-100
-1.48913e-101
-3.4063e-101
-6.82813e-102
-2.86321e-101
-2.31446e-101
-1.42024e-102
-3.25011e-102
-6.56371e-103
-2.74984e-102
-2.21748e-102
-1.34742e-103
-3.08172e-103
-6.27312e-104
-2.62391e-103
-2.1111e-103
-1.27159e-104
-2.90379e-104
-5.96059e-105
-2.48754e-104
-1.9971e-104
-1.19366e-105
-2.71903e-105
-5.63057e-106
-2.34297e-105
-1.87728e-105
-1.11451e-106
-2.53011e-106
-5.28758e-107
-2.19244e-106
-1.75344e-106
-1.035e-107
-2.33958e-107
-4.93614e-108
-2.03821e-107
-1.62738e-107
-9.55927e-109
-2.14984e-108
-4.58064e-109
-1.88246e-108
-1.50077e-108
-8.78029e-110
-1.96311e-109
-4.22528e-110
-1.72724e-109
-1.3752e-109
-8.01978e-111
-1.78134e-110
-3.874e-111
-1.57442e-110
-1.2521e-110
-7.28376e-112
-1.60625e-111
-3.53037e-112
-1.42571e-111
-1.13274e-111
-6.5774e-113
-1.43927e-112
-3.19757e-113
-1.28255e-112
-1.0182e-112
-5.90505e-114
-1.28152e-113
-2.87834e-114
-1.14617e-113
-9.09382e-114
-5.27024e-115
-1.13386e-114
-2.57495e-115
-1.01754e-114
-8.06975e-115
-4.67561e-116
-9.96886e-116
-2.28921e-116
-8.97381e-116
-7.1149e-116
-4.123e-117
-8.70914e-117
-2.02243e-117
-7.8618e-117
-6.23257e-117
-3.61344e-118
-7.56041e-118
-1.77549e-118
-6.84202e-118
-5.42437e-118
-3.14722e-119
-6.52154e-119
-1.54883e-119
-5.91507e-119
-4.69036e-119
-2.72395e-120
-5.58967e-120
-1.3425e-120
-5.07981e-120
-4.02933e-120
-2.34264e-121
-4.76044e-121
-1.15621e-121
-4.33354e-121
-3.43891e-121
-2.00179e-122
-4.02835e-122
-9.89371e-123
-3.67236e-122
-2.91584e-122
-1.69945e-123
-3.38705e-123
-8.41135e-124
-3.09138e-123
-2.45614e-123
-1.43334e-124
-2.82959e-124
-7.10468e-125
-2.585e-124
-2.05533e-124
-1.20092e-125
-2.34871e-125
-5.96189e-126
-2.14718e-125
-1.70861e-125
-9.99502e-127
-1.937e-126
-4.97019e-127
-1.77164e-126
-1.41101e-126
-8.26292e-128
-1.58715e-127
-4.11623e-128
-1.45204e-127
-1.15753e-127
-6.785e-129
-1.29209e-128
-3.38656e-129
-1.18218e-128
-9.43306e-129
-5.5401e-130
-1.04625e-129
-2.77111e-130
-9.57113e-130
-7.64476e-130
-5.10746e-131
-9.54768e-131
-2.56299e-131
-8.7296e-131
-6.98178e-131
)
;

boundaryField
{
    BotWall
    {
        type            zeroGradient;
    }
    FreeStream
    {
        type            zeroGradient;
    }
    FrontNBack
    {
        type            empty;
    }
    LeftSide
    {
        type            symmetryPlane;
    }
    RightSide
    {
        type            symmetryPlane;
    }
}


// ************************************************************************* //
