/*--------------------------------*- C++ -*----------------------------------*\
| =========                 |                                                 |
| \\      /  F ield         | OpenFOAM: The Open Source CFD Toolbox           |
|  \\    /   O peration     | Version:  2.4.0                                 |
|   \\  /    A nd           | Web:      www.OpenFOAM.org                      |
|    \\/     M anipulation  |                                                 |
\*---------------------------------------------------------------------------*/
FoamFile
{
    version     2.0;
    format      ascii;
    class       volScalarField;
    location    "0.004";
    object      p;
}
// * * * * * * * * * * * * * * * * * * * * * * * * * * * * * * * * * * * * * //

dimensions      [1 -1 -2 0 0 0 0];

internalField   nonuniform List<scalar> 
1500
(
-0.0424958
-0.0426187
-0.0434601
-0.0423048
-0.042691
0.044987
0.048125
0.0542669
0.0449792
0.047096
-0.726657
-0.734379
-0.751241
-0.726145
-0.732103
-0.106086
-0.107311
-0.10976
-0.106049
-0.106898
0.00725372
0.0075311
0.0083575
0.00718992
0.00750677
-0.0118837
-0.0117382
-0.011203
-0.0119384
-0.0117244
-0.0268859
-0.026865
-0.0266007
-0.0269323
-0.026815
-0.0298688
-0.0298773
-0.0296765
-0.0299134
-0.0298187
-0.0292609
-0.029265
-0.0290546
-0.0293058
-0.0292078
-0.0288247
-0.0288243
-0.0286044
-0.0288699
-0.0287685
-0.028844
-0.0288428
-0.0286213
-0.0288892
-0.0287873
-0.0289959
-0.0289951
-0.0287746
-0.0290411
-0.0289396
-0.0291408
-0.0291403
-0.0289209
-0.0291859
-0.0290848
-0.0292688
-0.0292685
-0.0290499
-0.0293139
-0.029213
-0.0293923
-0.0293922
-0.0291742
-0.0294373
-0.0293367
-0.0295165
-0.0295167
-0.0292993
-0.0295616
-0.0294612
-0.0296419
-0.0296422
-0.0294256
-0.0296869
-0.0295868
-0.029768
-0.0297685
-0.0295525
-0.0298129
-0.0297131
-0.0298945
-0.0298952
-0.0296798
-0.0299394
-0.0298398
-0.0300214
-0.0300223
-0.0298076
-0.0300663
-0.029967
-0.0301488
-0.0301499
-0.0299359
-0.0301937
-0.0300946
-0.0302767
-0.0302779
-0.0300646
-0.0303215
-0.0302227
-0.030405
-0.0304065
-0.0301938
-0.0304498
-0.0303513
-0.0305338
-0.0305355
-0.0303235
-0.0305786
-0.0304803
-0.0306631
-0.0306649
-0.0304537
-0.0307078
-0.0306099
-0.0307929
-0.0307949
-0.0305843
-0.0308376
-0.0307399
-0.0309231
-0.0309253
-0.0307154
-0.0309678
-0.0308703
-0.0310538
-0.0310562
-0.030847
-0.0310985
-0.0310013
-0.031185
-0.0311876
-0.0309791
-0.0312296
-0.0311327
-0.0313167
-0.0313195
-0.0311116
-0.0313613
-0.0312646
-0.0314489
-0.0314519
-0.0312447
-0.0314934
-0.031397
-0.0315816
-0.0315847
-0.0313782
-0.031626
-0.0315299
-0.0317147
-0.031718
-0.0315122
-0.0317592
-0.0316633
-0.0318484
-0.0318519
-0.0316467
-0.0318928
-0.0317972
-0.0319825
-0.0319862
-0.0317818
-0.0320268
-0.0319316
-0.0321172
-0.032121
-0.0319173
-0.0321614
-0.0320664
-0.0322523
-0.0322563
-0.0320533
-0.0322965
-0.0322018
-0.0323879
-0.0323921
-0.0321898
-0.0324321
-0.0323377
-0.0325241
-0.0325284
-0.0323268
-0.0325682
-0.032474
-0.0326607
-0.0326652
-0.0324643
-0.0327048
-0.0326109
-0.0327978
-0.0328025
-0.0326023
-0.0328419
-0.0327483
-0.0329355
-0.0329403
-0.0327408
-0.0329795
-0.0328861
-0.0330736
-0.0330787
-0.0328798
-0.0331176
-0.0330245
-0.0332123
-0.0332175
-0.0330193
-0.0332562
-0.0331634
-0.0333515
-0.0333568
-0.0331593
-0.0333953
-0.0333028
-0.0334912
-0.0334967
-0.0332999
-0.0335349
-0.0334427
-0.0336314
-0.033637
-0.033441
-0.0336751
-0.0335831
-0.0337721
-0.0337779
-0.0335826
-0.0338157
-0.0337241
-0.0339133
-0.0339193
-0.0337247
-0.0339569
-0.0338656
-0.0340551
-0.0340612
-0.0338673
-0.0340986
-0.0340075
-0.0341974
-0.0342037
-0.0340104
-0.0342408
-0.0341501
-0.0343402
-0.0343467
-0.0341541
-0.0343836
-0.0342931
-0.0344835
-0.0344902
-0.0342983
-0.0345269
-0.0344367
-0.0346274
-0.0346342
-0.034443
-0.0346707
-0.0345808
-0.0347718
-0.0347787
-0.0345883
-0.034815
-0.0347254
-0.0349167
-0.0349238
-0.0347341
-0.0349599
-0.0348705
-0.0350622
-0.0350694
-0.0348804
-0.0351053
-0.0350162
-0.0352082
-0.0352156
-0.0350273
-0.0352512
-0.0351624
-0.0353547
-0.0353623
-0.0351747
-0.0353977
-0.0353092
-0.0355018
-0.0355095
-0.0353226
-0.0355447
-0.0354565
-0.0356494
-0.0356573
-0.0354711
-0.0356923
-0.0356044
-0.0357976
-0.0358056
-0.0356201
-0.0358404
-0.0357528
-0.0359463
-0.0359544
-0.0357697
-0.035989
-0.0359017
-0.0360955
-0.0361038
-0.0359198
-0.0361382
-0.0360512
-0.0362454
-0.0362538
-0.0360705
-0.0362879
-0.0362012
-0.0363957
-0.0364043
-0.0362217
-0.0364382
-0.0363518
-0.0365467
-0.0365554
-0.0363735
-0.0365891
-0.036503
-0.0366981
-0.036707
-0.0365258
-0.0367405
-0.0366547
-0.0368502
-0.0368591
-0.0366787
-0.0368924
-0.0368069
-0.0370028
-0.0370119
-0.0368322
-0.037045
-0.0369598
-0.0371559
-0.0371652
-0.0369862
-0.0371981
-0.0371131
-0.0373097
-0.037319
-0.0371408
-0.0373517
-0.0372671
-0.0374639
-0.0374735
-0.0372959
-0.0375059
-0.0374216
-0.0376188
-0.0376285
-0.0374517
-0.0376607
-0.0375767
-0.0377742
-0.037784
-0.0376079
-0.0378161
-0.0377324
-0.0379303
-0.0379402
-0.0377648
-0.037972
-0.0378886
-0.0380868
-0.0380969
-0.0379222
-0.0381285
-0.0380454
-0.038244
-0.0382542
-0.0380803
-0.0382856
-0.0382028
-0.0384017
-0.038412
-0.0382388
-0.0384432
-0.0383607
-0.0385601
-0.0385705
-0.038398
-0.0386015
-0.0385193
-0.038719
-0.0387295
-0.0385578
-0.0387603
-0.0386784
-0.0388785
-0.0388891
-0.0387181
-0.0389197
-0.0388381
-0.0390386
-0.0390493
-0.0388791
-0.0390797
-0.0389984
-0.0391992
-0.0392101
-0.0390406
-0.0392403
-0.0391593
-0.0393605
-0.0393715
-0.0392027
-0.0394015
-0.0393208
-0.0395224
-0.0395335
-0.0393654
-0.0395632
-0.0394829
-0.0396848
-0.039696
-0.0395287
-0.0397256
-0.0396456
-0.0398479
-0.0398592
-0.0396926
-0.0398886
-0.0398089
-0.0400115
-0.040023
-0.0398571
-0.0400521
-0.0399727
-0.0401758
-0.0401874
-0.0400222
-0.0402163
-0.0401372
-0.0403407
-0.0403523
-0.0401879
-0.0403811
-0.0403023
-0.0405061
-0.0405179
-0.0403542
-0.0405465
-0.040468
-0.0406722
-0.0406841
-0.0405212
-0.0407125
-0.0406343
-0.0408389
-0.0408509
-0.0406887
-0.0408791
-0.0408012
-0.0410062
-0.0410183
-0.0408569
-0.0410463
-0.0409688
-0.0411742
-0.0411864
-0.0410257
-0.0412141
-0.0411369
-0.0413427
-0.041355
-0.041195
-0.0413826
-0.0413057
-0.0415119
-0.0415243
-0.0413651
-0.0415517
-0.0414751
-0.0416817
-0.0416942
-0.0415357
-0.0417214
-0.0416451
-0.0418521
-0.0418647
-0.041707
-0.0418917
-0.0418157
-0.0420232
-0.0420359
-0.0418788
-0.0420626
-0.041987
-0.0421949
-0.0422076
-0.0420514
-0.0422342
-0.0421589
-0.0423672
-0.04238
-0.0422245
-0.0424064
-0.0423315
-0.0425402
-0.0425531
-0.0423983
-0.0425793
-0.0425046
-0.0427137
-0.0427268
-0.0425727
-0.0427528
-0.0426784
-0.042888
-0.0429011
-0.0427478
-0.0429269
-0.0428529
-0.0430629
-0.043076
-0.0429235
-0.0431017
-0.043028
-0.0432384
-0.0432517
-0.0430998
-0.0432771
-0.0432037
-0.0434145
-0.0434279
-0.0432768
-0.0434531
-0.0433801
-0.0435914
-0.0436048
-0.0434545
-0.0436299
-0.0435571
-0.0437688
-0.0437824
-0.0436328
-0.0438072
-0.0437348
-0.043947
-0.0439606
-0.0438117
-0.0439852
-0.0439132
-0.0441257
-0.0441394
-0.0439913
-0.0441639
-0.0440921
-0.0443052
-0.0443189
-0.0441716
-0.0443432
-0.0442718
-0.0444853
-0.0444991
-0.0443525
-0.0445232
-0.0444521
-0.0446661
-0.04468
-0.0445341
-0.0447039
-0.0446331
-0.0448475
-0.0448615
-0.0447164
-0.0448852
-0.0448148
-0.0450296
-0.0450436
-0.0448993
-0.0450672
-0.0449971
-0.0452124
-0.0452265
-0.0450829
-0.0452498
-0.0451801
-0.0453958
-0.04541
-0.0452672
-0.0454332
-0.0453637
-0.04558
-0.0455942
-0.0454521
-0.0456172
-0.0455481
-0.0457648
-0.0457791
-0.0456377
-0.0458019
-0.0457331
-0.0459503
-0.0459646
-0.045824
-0.0459872
-0.0459188
-0.0461364
-0.0461508
-0.046011
-0.0461733
-0.0461052
-0.0463233
-0.0463378
-0.0461987
-0.04636
-0.0462922
-0.0465108
-0.0465254
-0.0463871
-0.0465474
-0.04648
-0.0466991
-0.0467137
-0.0465761
-0.0467355
-0.0466684
-0.046888
-0.0469026
-0.0467659
-0.0469244
-0.0468576
-0.0470777
-0.0470923
-0.0469563
-0.0471139
-0.0470474
-0.047268
-0.0472827
-0.0471474
-0.0473041
-0.047238
-0.047459
-0.0474738
-0.0473393
-0.047495
-0.0474292
-0.0476508
-0.0476656
-0.0475318
-0.0476866
-0.0476211
-0.0478432
-0.0478581
-0.0477251
-0.0478789
-0.0478138
-0.0480364
-0.0480513
-0.047919
-0.0480719
-0.0480072
-0.0482302
-0.0482452
-0.0481137
-0.0482656
-0.0482012
-0.0484248
-0.0484398
-0.0483091
-0.0484601
-0.048396
-0.0486201
-0.0486351
-0.0485052
-0.0486553
-0.0485915
-0.0488161
-0.0488312
-0.048702
-0.0488511
-0.0487878
-0.0490129
-0.049028
-0.0488995
-0.0490478
-0.0489847
-0.0492104
-0.0492255
-0.0490978
-0.0492451
-0.0491824
-0.0494086
-0.0494237
-0.0492968
-0.0494431
-0.0493808
-0.0496075
-0.0496227
-0.0494965
-0.0496419
-0.0495799
-0.0498072
-0.0498224
-0.049697
-0.0498415
-0.0497798
-0.0500076
-0.0500228
-0.0498982
-0.0500417
-0.0499804
-0.0502087
-0.050224
-0.0501001
-0.0502427
-0.0501817
-0.0504106
-0.0504259
-0.0503028
-0.0504444
-0.0503838
-0.0506132
-0.0506285
-0.0505062
-0.0506469
-0.0505866
-0.0508166
-0.0508319
-0.0507103
-0.0508502
-0.0507902
-0.0510207
-0.0510361
-0.0509152
-0.0510541
-0.0509945
-0.0512256
-0.051241
-0.0511209
-0.0512589
-0.0511996
-0.0514312
-0.0514466
-0.0513273
-0.0514643
-0.0514054
-0.0516376
-0.051653
-0.0515345
-0.0516706
-0.051612
-0.0518447
-0.0518602
-0.0517424
-0.0518776
-0.0518194
-0.0520527
-0.0520681
-0.0519511
-0.0520853
-0.0520275
-0.0522613
-0.0522768
-0.0521606
-0.0522939
-0.0522364
-0.0524708
-0.0524863
-0.0523708
-0.0525032
-0.052446
-0.052681
-0.0526965
-0.0525818
-0.0527132
-0.0526564
-0.052892
-0.0529075
-0.0527936
-0.0529241
-0.0528676
-0.0531038
-0.0531193
-0.0530061
-0.0531357
-0.0530796
-0.0533164
-0.0533318
-0.0532194
-0.0533481
-0.0532924
-0.0535297
-0.0535452
-0.0534336
-0.0535613
-0.0535059
-0.0537438
-0.0537593
-0.0536485
-0.0537752
-0.0537202
-0.0539588
-0.0539742
-0.0538641
-0.05399
-0.0539353
-0.0541745
-0.0541899
-0.0540806
-0.0542055
-0.0541512
-0.054391
-0.0544064
-0.0542979
-0.0544219
-0.0543679
-0.0546083
-0.0546237
-0.054516
-0.054639
-0.0545854
-0.0548264
-0.0548418
-0.0547348
-0.054857
-0.0548037
-0.0550453
-0.0550607
-0.0549545
-0.0550757
-0.0550228
-0.055265
-0.0552804
-0.055175
-0.0552953
-0.0552428
-0.0554855
-0.0555009
-0.0553963
-0.0555156
-0.0554635
-0.0557069
-0.0557223
-0.0556184
-0.0557368
-0.055685
-0.055929
-0.0559444
-0.0558413
-0.0559588
-0.0559074
-0.056152
-0.0561673
-0.056065
-0.0561816
-0.0561305
-0.0563758
-0.0563911
-0.0562896
-0.0564052
-0.0563545
-0.0566004
-0.0566157
-0.056515
-0.0566297
-0.0565793
-0.0568259
-0.0568412
-0.0567412
-0.0568549
-0.056805
-0.0570522
-0.0570674
-0.0569682
-0.057081
-0.0570314
-0.0572793
-0.0572945
-0.0571961
-0.057308
-0.0572588
-0.0575073
-0.0575224
-0.0574248
-0.0575358
-0.0574869
-0.0577361
-0.0577512
-0.0576543
-0.0577644
-0.0577159
-0.0579657
-0.0579808
-0.0578847
-0.0579938
-0.0579457
-0.0581962
-0.0582112
-0.0581159
-0.0582241
-0.0581764
-0.0584275
-0.0584425
-0.058348
-0.0584553
-0.0584079
-0.0586597
-0.0586747
-0.0585809
-0.0586873
-0.0586403
-0.0588928
-0.0589077
-0.0588147
-0.0589202
-0.0588735
-0.0591267
-0.0591416
-0.0590494
-0.0591539
-0.0591076
-0.0593614
-0.0593763
-0.0592849
-0.0593885
-0.0593426
-0.0595971
-0.0596119
-0.0595213
-0.0596239
-0.0595784
-0.0598336
-0.0598483
-0.0597585
-0.0598602
-0.0598151
-0.0600709
-0.0600856
-0.0599966
-0.0600974
-0.0600526
-0.0603092
-0.0603238
-0.0602356
-0.0603355
-0.0602911
-0.0605483
-0.0605629
-0.0604755
-0.0605744
-0.0605304
-0.0607883
-0.0608029
-0.0607162
-0.0608142
-0.0607706
-0.0610292
-0.0610437
-0.0609578
-0.0610549
-0.0610116
-0.061271
-0.0612854
-0.0612003
-0.0612965
-0.0612536
-0.0615137
-0.061528
-0.0614437
-0.061539
-0.0614964
-0.0617572
-0.0617716
-0.061688
-0.0617823
-0.0617402
-0.0620017
-0.062016
-0.0619332
-0.0620266
-0.0619848
-0.0622471
-0.0622613
-0.0621793
-0.0622718
-0.0622304
-0.0624933
-0.0625075
-0.0624263
-0.0625178
-0.0624768
-0.0627405
-0.0627546
-0.0626742
-0.0627648
-0.0627242
-0.0629886
-0.0630026
-0.062923
-0.0630127
-0.0629725
-0.0632376
-0.0632515
-0.0631728
-0.0632615
-0.0632217
-0.0634875
-0.0635014
-0.0634234
-0.0635112
-0.0634718
-0.0637384
-0.0637521
-0.063675
-0.0637618
-0.0637228
-0.0639902
-0.0640038
-0.0639275
-0.0640134
-0.0639747
-0.0642428
-0.0642565
-0.0641809
-0.0642659
-0.0642276
-0.0644965
-0.06451
-0.0644352
-0.0645193
-0.0644814
-0.064751
-0.0647645
-0.0646905
-0.0647737
-0.0647361
-0.0650065
-0.0650199
-0.0649467
-0.0650289
-0.0649918
-0.065263
-0.0652763
-0.0652039
-0.0652852
-0.0652484
-0.0655204
-0.0655336
-0.065462
-0.0655423
-0.065506
-0.0657787
-0.0657918
-0.065721
-0.0658005
-0.0657645
-0.066038
-0.066051
-0.065981
-0.0660595
-0.066024
-0.0662982
-0.0663112
-0.066242
-0.0663196
-0.0662844
-0.0665594
-0.0665723
-0.0665039
-0.0665806
-0.0665458
-0.0668216
-0.0668344
-0.0667668
-0.0668425
-0.0668081
-0.0670847
-0.0670974
-0.0670306
-0.0671054
-0.0670714
-0.0673489
-0.0673614
-0.0672954
-0.0673693
-0.0673357
-0.0676139
-0.0676264
-0.0675612
-0.0676341
-0.067601
-0.06788
-0.0678923
-0.067828
-0.0679
-0.0678672
-0.068147
-0.0681593
-0.0680957
-0.0681668
-0.0681344
-0.068415
-0.0684272
-0.0683645
-0.0684346
-0.0684026
-0.068684
-0.0686961
-0.0686342
-0.0687033
-0.0686718
-0.068954
-0.068966
-0.0689049
-0.0689731
-0.0689419
-0.069225
-0.0692368
-0.0691766
-0.0692439
-0.0692131
-0.069497
-0.0695087
-0.0694493
-0.0695156
-0.0694853
-0.06977
-0.0697816
-0.069723
-0.0697884
-0.0697584
-0.070044
-0.0700555
-0.0699977
-0.0700621
-0.0700326
-0.070319
-0.0703304
-0.0702734
-0.0703369
-0.0703078
-0.070595
-0.0706063
-0.0705501
-0.0706127
-0.070584
-0.0708721
-0.0708832
-0.0708278
-0.0708895
-0.0708612
-0.0711501
-0.0711611
-0.0711066
-0.0711673
-0.0711394
-0.0714292
-0.0714401
-0.0713864
-0.0714462
-0.0714187
-0.0717093
-0.0717201
-0.0716672
-0.071726
-0.071699
-0.0719905
-0.0720011
-0.0719491
-0.0720069
-0.0719803
-0.0722727
-0.0722832
-0.0722319
-0.0722889
-0.0722626
-0.0725559
-0.0725663
-0.0725159
-0.0725718
-0.072546
-0.0728401
-0.0728504
-0.0728008
-0.0728559
-0.0728304
-0.0731255
-0.0731356
-0.0730868
-0.0731409
-0.0731159
-0.0734118
-0.0734218
-0.0733739
-0.073427
-0.0734025
-0.0736992
-0.0737091
-0.073662
-0.0737142
-0.07369
-0.0739877
-0.0739974
-0.0739512
-0.0740024
-0.0739787
-0.0742773
-0.0742868
-0.0742414
-0.0742917
-0.0742684
-0.0745679
-0.0745773
-0.0745327
-0.0745821
-0.0745592
-0.0748595
-0.0748688
-0.0748251
-0.0748735
-0.074851
-0.0751523
-0.0751614
-0.0751186
-0.075166
-0.0751439
-0.0754461
-0.0754551
-0.0754131
-0.0754596
-0.0754379
-0.075741
-0.0757499
-0.0757087
-0.0757542
-0.075733
-0.076037
-0.0760458
-0.0760054
-0.07605
-0.0760292
-0.0763341
-0.0763427
-0.0763032
-0.0763468
-0.0763265
-0.0766323
-0.0766407
-0.0766021
-0.0766447
-0.0766248
-0.0769316
-0.0769399
-0.0769021
-0.0769437
-0.0769243
-0.077232
-0.0772401
-0.0772032
-0.0772439
-0.0772248
-0.0775335
-0.0775414
-0.0775053
-0.0775451
-0.0775265
-0.0778361
-0.0778439
-0.0778087
-0.0778474
-0.0778292
-0.0781398
-0.0781474
-0.0781131
-0.0781509
-0.0781331
-0.0784446
-0.0784521
-0.0784186
-0.0784554
-0.0784381
-0.0787506
-0.0787579
-0.0787253
-0.0787611
-0.0787443
-0.0790577
-0.0790648
-0.0790331
-0.0790679
-0.0790515
-0.0793659
-0.0793729
-0.079342
-0.0793759
-0.0793599
-0.0796752
-0.0796821
-0.079652
-0.079685
-0.0796694
-0.0799857
-0.0799924
-0.0799632
-0.0799952
-0.0799801
-0.0802974
-0.0803039
-0.0802756
-0.0803065
-0.0802919
-0.0806101
-0.0806165
-0.0805891
-0.080619
-0.0806048
-0.0809241
-0.0809303
-0.0809037
-0.0809327
-0.0809189
-0.0812392
-0.0812452
-0.0812195
-0.0812475
-0.0812342
-0.0815554
-0.0815613
-0.0815365
-0.0815635
-0.0815506
-0.0818728
-0.0818785
-0.0818546
-0.0818806
-0.0818682
-0.0821914
-0.0821969
-0.0821739
-0.0821989
-0.082187
-0.0825112
-0.0825165
-0.0824944
-0.0825184
-0.0825069
-0.0828321
-0.0828373
-0.082816
-0.082839
-0.082828
-0.0831542
-0.0831592
-0.0831389
-0.0831609
-0.0831503
-0.0834775
-0.0834823
-0.0834629
-0.0834839
-0.0834738
-0.083802
-0.0838067
-0.0837881
-0.0838081
-0.0837984
-0.0841277
-0.0841322
-0.0841145
-0.0841335
-0.0841243
-0.0844546
-0.0844589
-0.0844421
-0.0844601
-0.0844514
-0.0847827
-0.0847868
-0.0847709
-0.0847879
-0.0847796
-0.085112
-0.0851159
-0.085101
-0.0851169
-0.0851091
-0.0854425
-0.0854462
-0.0854322
-0.0854471
-0.0854398
-0.0857743
-0.0857778
-0.0857647
-0.0857785
-0.0857717
-0.0861072
-0.0861106
-0.0860984
-0.0861112
-0.0861048
-0.0864414
-0.0864445
-0.0864333
-0.0864451
-0.0864392
-0.0867768
-0.0867798
-0.0867694
-0.0867802
-0.0867748
-0.0871134
-0.0871162
-0.0871068
-0.0871165
-0.0871116
-0.0874513
-0.0874539
-0.0874454
-0.0874541
-0.0874496
-0.0877905
-0.0877929
-0.0877853
-0.0877929
-0.0877889
-0.0881308
-0.088133
-0.0881264
-0.088133
-0.0881295
-0.0884725
-0.0884745
-0.0884688
-0.0884743
-0.0884713
-0.0888153
-0.0888172
-0.0888124
-0.0888169
-0.0888144
-0.0891595
-0.0891611
-0.0891573
-0.0891607
-0.0891587
-0.0895049
-0.0895063
-0.0895035
-0.0895058
-0.0895043
-0.0898516
-0.0898528
-0.0898509
-0.0898522
-0.0898511
-0.0901996
-0.0902006
-0.0901997
-0.0901998
-0.0901993
-0.0905488
-0.0905496
-0.0905497
-0.0905488
-0.0905487
-0.0908993
-0.0909
-0.090901
-0.090899
-0.0908994
-0.0912512
-0.0912516
-0.0912536
-0.0912505
-0.0912515
-0.0916043
-0.0916046
-0.0916075
-0.0916034
-0.0916048
-0.0919587
-0.0919588
-0.0919626
-0.0919574
-0.0919593
-0.0923138
-0.0923136
-0.0923185
-0.0923122
-0.0923146
)
;

boundaryField
{
    BotWall
    {
        type            calculated;
        value           nonuniform List<scalar> 5(-0.0375524 -0.0376753 -0.0385167 -0.0373614 -0.0377476);
    }
    FreeStream
    {
        type            calculated;
        value           nonuniform List<scalar> 5(-0.0924915 -0.0924912 -0.0924966 -0.0924898 -0.0924923);
    }
    FrontNBack
    {
        type            empty;
    }
    LeftSide
    {
        type            symmetryPlane;
    }
    RightSide
    {
        type            symmetryPlane;
    }
}


// ************************************************************************* //
