/*--------------------------------*- C++ -*----------------------------------*\
| =========                 |                                                 |
| \\      /  F ield         | OpenFOAM: The Open Source CFD Toolbox           |
|  \\    /   O peration     | Version:  2.4.0                                 |
|   \\  /    A nd           | Web:      www.OpenFOAM.org                      |
|    \\/     M anipulation  |                                                 |
\*---------------------------------------------------------------------------*/
FoamFile
{
    version     2.0;
    format      ascii;
    class       volScalarField;
    location    "0.004";
    object      p_rgh;
}
// * * * * * * * * * * * * * * * * * * * * * * * * * * * * * * * * * * * * * //

dimensions      [1 -1 -2 0 0 0 0];

internalField   nonuniform List<scalar> 
1500
(
-0.0375524
-0.0376753
-0.0385167
-0.0373614
-0.0377476
0.0598354
0.0629733
0.0691153
0.0598275
0.0619444
-0.722296
-0.729942
-0.746637
-0.721789
-0.727688
-0.10551
-0.106736
-0.109184
-0.105474
-0.106322
0.00799549
0.00827287
0.00909927
0.00793169
0.00824854
-0.0109755
-0.01083
-0.0102947
-0.0110302
-0.0108161
-0.0258105
-0.0257897
-0.0255254
-0.025857
-0.0257396
-0.0286257
-0.0286342
-0.0284334
-0.0286703
-0.0285756
-0.0278495
-0.0278536
-0.0276431
-0.0278944
-0.0277964
-0.0272443
-0.0272439
-0.027024
-0.0272895
-0.0271881
-0.0270941
-0.0270928
-0.0268713
-0.0271393
-0.0270373
-0.0270758
-0.0270749
-0.0268545
-0.0271209
-0.0270194
-0.0270498
-0.0270493
-0.0268299
-0.0270949
-0.0269938
-0.0270063
-0.0270061
-0.0267874
-0.0270514
-0.0269506
-0.0269577
-0.0269576
-0.0267397
-0.0270028
-0.0269022
-0.0269093
-0.0269094
-0.026692
-0.0269543
-0.0268539
-0.0268613
-0.0268616
-0.0266449
-0.0269063
-0.0268062
-0.0268133
-0.0268138
-0.0265979
-0.0268583
-0.0267585
-0.0267652
-0.0267659
-0.0265506
-0.0268101
-0.0267106
-0.0267168
-0.0267177
-0.0265031
-0.0267618
-0.0266625
-0.0266683
-0.0266694
-0.0264554
-0.0267132
-0.0266142
-0.0266196
-0.0266209
-0.0264076
-0.0266645
-0.0265657
-0.0265707
-0.0265722
-0.0263596
-0.0266155
-0.026517
-0.0265217
-0.0265233
-0.0263114
-0.0265664
-0.0264682
-0.0264724
-0.0264743
-0.026263
-0.0265172
-0.0264192
-0.026423
-0.026425
-0.0262144
-0.0264677
-0.02637
-0.0263734
-0.0263756
-0.0261657
-0.0264181
-0.0263206
-0.0263236
-0.026326
-0.0261168
-0.0263682
-0.0262711
-0.0262736
-0.0262762
-0.0260677
-0.0263182
-0.0262213
-0.0262235
-0.0262263
-0.0260184
-0.026268
-0.0261714
-0.0261732
-0.0261761
-0.0259689
-0.0262177
-0.0261213
-0.0261226
-0.0261258
-0.0259193
-0.0261671
-0.026071
-0.0260719
-0.0260752
-0.0258694
-0.0261164
-0.0260205
-0.0260211
-0.0260245
-0.0258194
-0.0260654
-0.0259699
-0.02597
-0.0259736
-0.0257692
-0.0260143
-0.025919
-0.0259187
-0.0259226
-0.0257188
-0.025963
-0.025868
-0.0258673
-0.0258713
-0.0256682
-0.0259115
-0.0258168
-0.0258157
-0.0258198
-0.0256175
-0.0258598
-0.0257654
-0.0257638
-0.0257682
-0.0255665
-0.025808
-0.0257138
-0.0257118
-0.0257163
-0.0255154
-0.0257559
-0.025662
-0.0256596
-0.0256643
-0.025464
-0.0257036
-0.02561
-0.0256072
-0.0256121
-0.0254125
-0.0256512
-0.0255579
-0.0255546
-0.0255597
-0.0253608
-0.0255986
-0.0255055
-0.0255019
-0.025507
-0.0253089
-0.0255457
-0.025453
-0.0254489
-0.0254542
-0.0252568
-0.0254927
-0.0254002
-0.0253957
-0.0254012
-0.0252045
-0.0254395
-0.0253473
-0.0253424
-0.025348
-0.025152
-0.0253861
-0.0252941
-0.0252888
-0.0252947
-0.0250993
-0.0253325
-0.0252408
-0.0252351
-0.0252411
-0.0250464
-0.0252787
-0.0251873
-0.0251811
-0.0251873
-0.0249933
-0.0252247
-0.0251336
-0.025127
-0.0251333
-0.02494
-0.0251704
-0.0250797
-0.0250726
-0.0250791
-0.0248866
-0.025116
-0.0250256
-0.0250181
-0.0250247
-0.0248329
-0.0250614
-0.0249712
-0.0249633
-0.0249701
-0.024779
-0.0250066
-0.0249167
-0.0249084
-0.0249154
-0.0247249
-0.0249516
-0.024862
-0.0248533
-0.0248604
-0.0246706
-0.0248964
-0.0248071
-0.0247979
-0.0248052
-0.0246162
-0.024841
-0.024752
-0.0247424
-0.0247498
-0.0245615
-0.0247854
-0.0246967
-0.0246866
-0.0246942
-0.0245066
-0.0247296
-0.0246411
-0.0246307
-0.0246384
-0.0244515
-0.0246736
-0.0245854
-0.0245745
-0.0245824
-0.0243962
-0.0246174
-0.0245295
-0.0245182
-0.0245262
-0.0243407
-0.0245609
-0.0244733
-0.0244616
-0.0244697
-0.024285
-0.0245043
-0.024417
-0.0244048
-0.0244131
-0.0242291
-0.0244475
-0.0243605
-0.0243478
-0.0243563
-0.024173
-0.0243904
-0.0243037
-0.0242906
-0.0242992
-0.0241166
-0.0243331
-0.0242467
-0.0242332
-0.0242419
-0.0240601
-0.0242757
-0.0241896
-0.0241756
-0.0241845
-0.0240033
-0.024218
-0.0241322
-0.0241178
-0.0241268
-0.0239464
-0.0241601
-0.0240746
-0.0240598
-0.0240689
-0.0238892
-0.024102
-0.0240168
-0.0240015
-0.0240108
-0.0238318
-0.0240437
-0.0239587
-0.0239431
-0.0239525
-0.0237742
-0.0239851
-0.0239005
-0.0238844
-0.0238939
-0.0237164
-0.0239264
-0.0238421
-0.0238255
-0.0238352
-0.0236584
-0.0238674
-0.0237834
-0.0237664
-0.0237762
-0.0236001
-0.0238082
-0.0237245
-0.0237071
-0.023717
-0.0235416
-0.0237488
-0.0236654
-0.0236476
-0.0236576
-0.023483
-0.0236892
-0.0236061
-0.0235878
-0.023598
-0.0234241
-0.0236294
-0.0235466
-0.0235278
-0.0235381
-0.0233649
-0.0235693
-0.0234868
-0.0234677
-0.0234781
-0.0233056
-0.0235091
-0.0234269
-0.0234072
-0.0234178
-0.023246
-0.0234486
-0.0233667
-0.0233466
-0.0233573
-0.0231863
-0.0233879
-0.0233063
-0.0232858
-0.0232965
-0.0231263
-0.0233269
-0.0232456
-0.0232247
-0.0232356
-0.023066
-0.0232658
-0.0231848
-0.0231634
-0.0231744
-0.0230056
-0.0232044
-0.0231237
-0.0231019
-0.023113
-0.0229449
-0.0231428
-0.0230624
-0.0230401
-0.0230513
-0.022884
-0.0230809
-0.0230009
-0.0229781
-0.0229895
-0.0228229
-0.0230188
-0.0229391
-0.0229159
-0.0229274
-0.0227615
-0.0229566
-0.0228772
-0.0228535
-0.0228651
-0.0226999
-0.022894
-0.0228149
-0.0227909
-0.0228025
-0.0226381
-0.0228313
-0.0227525
-0.022728
-0.0227397
-0.0225761
-0.0227683
-0.0226898
-0.0226649
-0.0226767
-0.0225138
-0.0227051
-0.0226269
-0.0226015
-0.0226135
-0.0224513
-0.0226417
-0.0225638
-0.0225379
-0.02255
-0.0223886
-0.022578
-0.0225005
-0.0224741
-0.0224863
-0.0223256
-0.0225141
-0.0224369
-0.0224101
-0.0224224
-0.0222624
-0.0224499
-0.022373
-0.0223458
-0.0223582
-0.0221989
-0.0223855
-0.022309
-0.0222813
-0.0222938
-0.0221353
-0.0223209
-0.0222447
-0.0222165
-0.0222291
-0.0220713
-0.0222561
-0.0221801
-0.0221515
-0.0221642
-0.0220072
-0.022191
-0.0221154
-0.0220863
-0.0220991
-0.0219428
-0.0221257
-0.0220504
-0.0220209
-0.0220337
-0.0218782
-0.0220601
-0.0219851
-0.0219551
-0.0219681
-0.0218133
-0.0219943
-0.0219196
-0.0218892
-0.0219022
-0.0217482
-0.0219282
-0.0218539
-0.021823
-0.0218361
-0.0216828
-0.0218619
-0.0217879
-0.0217566
-0.0217698
-0.0216172
-0.0217954
-0.0217217
-0.0216899
-0.0217032
-0.0215514
-0.0217286
-0.0216553
-0.021623
-0.0216364
-0.0214853
-0.0216616
-0.0215886
-0.0215559
-0.0215693
-0.021419
-0.0215943
-0.0215216
-0.0214884
-0.021502
-0.0213524
-0.0215268
-0.0214544
-0.0214208
-0.0214344
-0.0212856
-0.0214591
-0.021387
-0.0213529
-0.0213666
-0.0212185
-0.021391
-0.0213193
-0.0212847
-0.0212985
-0.0211512
-0.0213228
-0.0212514
-0.0212164
-0.0212302
-0.0210836
-0.0212543
-0.0211832
-0.0211477
-0.0211616
-0.0210158
-0.0211855
-0.0211147
-0.0210788
-0.0210928
-0.0209477
-0.0211165
-0.0210461
-0.0210097
-0.0210237
-0.0208794
-0.0210472
-0.0209771
-0.0209403
-0.0209543
-0.0208108
-0.0209777
-0.0209079
-0.0208706
-0.0208848
-0.0207419
-0.0209079
-0.0208385
-0.0208007
-0.0208149
-0.0206728
-0.0208379
-0.0207688
-0.0207305
-0.0207448
-0.0206035
-0.0207676
-0.0206988
-0.0206601
-0.0206744
-0.0205339
-0.0206971
-0.0206286
-0.0205894
-0.0206038
-0.020464
-0.0206262
-0.0205581
-0.0205185
-0.0205329
-0.0203939
-0.0205552
-0.0204874
-0.0204473
-0.0204618
-0.0203235
-0.0204839
-0.0204164
-0.0203758
-0.0203904
-0.0202528
-0.0204123
-0.0203452
-0.0203041
-0.0203187
-0.0201819
-0.0203404
-0.0202736
-0.0202321
-0.0202468
-0.0201107
-0.0202683
-0.0202019
-0.0201598
-0.0201746
-0.0200393
-0.0201959
-0.0201298
-0.0200873
-0.0201021
-0.0199676
-0.0201233
-0.0200575
-0.0200146
-0.0200294
-0.0198956
-0.0200504
-0.0199849
-0.0199415
-0.0199564
-0.0198234
-0.0199772
-0.0199121
-0.0198682
-0.0198831
-0.0197508
-0.0199037
-0.019839
-0.0197946
-0.0198096
-0.0196781
-0.01983
-0.0197656
-0.0197208
-0.0197358
-0.019605
-0.019756
-0.019692
-0.0196466
-0.0196617
-0.0195317
-0.0196818
-0.019618
-0.0195722
-0.0195873
-0.0194581
-0.0196073
-0.0195439
-0.0194976
-0.0195127
-0.0193842
-0.0195324
-0.0194694
-0.0194226
-0.0194378
-0.0193101
-0.0194574
-0.0193947
-0.0193474
-0.0193626
-0.0192357
-0.019382
-0.0193197
-0.0192719
-0.0192871
-0.019161
-0.0193064
-0.0192444
-0.0191962
-0.0192114
-0.019086
-0.0192305
-0.0191688
-0.0191201
-0.0191354
-0.0190107
-0.0191543
-0.019093
-0.0190438
-0.0190591
-0.0189352
-0.0190778
-0.0190168
-0.0189672
-0.0189825
-0.0188594
-0.0190011
-0.0189404
-0.0188903
-0.0189057
-0.0187833
-0.0189241
-0.0188638
-0.0188132
-0.0188285
-0.0187069
-0.0188467
-0.0187868
-0.0187357
-0.0187511
-0.0186303
-0.0187692
-0.0187096
-0.018658
-0.0186734
-0.0185533
-0.0186913
-0.018632
-0.01858
-0.0185954
-0.0184761
-0.0186131
-0.0185542
-0.0185017
-0.0185171
-0.0183986
-0.0185347
-0.0184761
-0.0184231
-0.0184385
-0.0183208
-0.0184559
-0.0183977
-0.0183442
-0.0183597
-0.0182427
-0.0183769
-0.0183191
-0.0182651
-0.0182805
-0.0181643
-0.0182976
-0.0182401
-0.0181856
-0.0182011
-0.0180856
-0.018218
-0.0181608
-0.0181059
-0.0181213
-0.0180066
-0.0181381
-0.0180813
-0.0180258
-0.0180413
-0.0179274
-0.0180579
-0.0180014
-0.0179455
-0.017961
-0.0178478
-0.0179774
-0.0179213
-0.0178649
-0.0178804
-0.017768
-0.0178966
-0.0178409
-0.017784
-0.0177994
-0.0176878
-0.0178155
-0.0177602
-0.0177028
-0.0177182
-0.0176074
-0.0177342
-0.0176791
-0.0176212
-0.0176367
-0.0175266
-0.0176525
-0.0175978
-0.0175394
-0.0175549
-0.0174456
-0.0175705
-0.0175162
-0.0174573
-0.0174728
-0.0173642
-0.0174882
-0.0174343
-0.0173749
-0.0173903
-0.0172826
-0.0174057
-0.0173521
-0.0172922
-0.0173076
-0.0172006
-0.0173228
-0.0172696
-0.0172092
-0.0172246
-0.0171184
-0.0172396
-0.0171867
-0.0171259
-0.0171413
-0.0170358
-0.0171561
-0.0171036
-0.0170422
-0.0170576
-0.016953
-0.0170723
-0.0170202
-0.0169583
-0.0169737
-0.0168698
-0.0169882
-0.0169364
-0.0168741
-0.0168894
-0.0167863
-0.0169038
-0.0168524
-0.0167895
-0.0168048
-0.0167025
-0.0168191
-0.016768
-0.0167047
-0.01672
-0.0166184
-0.016734
-0.0166834
-0.0166195
-0.0166348
-0.016534
-0.0166487
-0.0165984
-0.016534
-0.0165493
-0.0164493
-0.016563
-0.0165131
-0.0164482
-0.0164634
-0.0163642
-0.0164771
-0.0164275
-0.0163621
-0.0163773
-0.0162789
-0.0163908
-0.0163416
-0.0162757
-0.0162908
-0.0161932
-0.0163042
-0.0162553
-0.0161889
-0.0162041
-0.0161072
-0.0162173
-0.0161688
-0.0161019
-0.016117
-0.0160209
-0.01613
-0.0160819
-0.0160145
-0.0160296
-0.0159343
-0.0160425
-0.0159947
-0.0159268
-0.0159418
-0.0158473
-0.0159546
-0.0159072
-0.0158388
-0.0158538
-0.01576
-0.0158664
-0.0158194
-0.0157504
-0.0157654
-0.0156724
-0.0157779
-0.0157312
-0.0156618
-0.0156767
-0.0155845
-0.015689
-0.0156427
-0.0155728
-0.0155876
-0.0154962
-0.0155998
-0.0155539
-0.0154835
-0.0154983
-0.0154077
-0.0155103
-0.0154648
-0.0153938
-0.0154086
-0.0153188
-0.0154205
-0.0153753
-0.0153039
-0.0153186
-0.0152295
-0.0153303
-0.0152855
-0.0152136
-0.0152282
-0.01514
-0.0152398
-0.0151954
-0.0151229
-0.0151375
-0.0150501
-0.015149
-0.015105
-0.0150319
-0.0150465
-0.0149598
-0.0150578
-0.0150142
-0.0149406
-0.0149551
-0.0148693
-0.0149663
-0.0149231
-0.014849
-0.0148635
-0.0147783
-0.0148745
-0.0148316
-0.014757
-0.0147714
-0.0146871
-0.0147823
-0.0147398
-0.0146647
-0.0146791
-0.0145955
-0.0146898
-0.0146477
-0.0145721
-0.0145863
-0.0145036
-0.014597
-0.0145552
-0.0144791
-0.0144933
-0.0144114
-0.0145038
-0.0144624
-0.0143858
-0.0143999
-0.0143188
-0.0144103
-0.0143693
-0.0142921
-0.0143062
-0.0142258
-0.0143164
-0.0142758
-0.0141981
-0.0142121
-0.0141325
-0.0142222
-0.014182
-0.0141037
-0.0141177
-0.0140389
-0.0141276
-0.0140878
-0.014009
-0.0140229
-0.0139449
-0.0140327
-0.0139933
-0.013914
-0.0139277
-0.0138506
-0.0139374
-0.0138984
-0.0138186
-0.0138323
-0.0137559
-0.0138418
-0.0138032
-0.0137228
-0.0137364
-0.0136609
-0.0137459
-0.0137076
-0.0136267
-0.0136403
-0.0135655
-0.0136496
-0.0136117
-0.0135303
-0.0135437
-0.0134697
-0.0135529
-0.0135154
-0.0134335
-0.0134468
-0.0133737
-0.0134559
-0.0134188
-0.0133363
-0.0133496
-0.0132772
-0.0133585
-0.0133218
-0.0132388
-0.013252
-0.0131804
-0.0132608
-0.0132244
-0.0131409
-0.013154
-0.0130832
-0.0131627
-0.0131267
-0.0130427
-0.0130557
-0.0129857
-0.0130642
-0.0130287
-0.0129441
-0.012957
-0.0128878
-0.0129654
-0.0129303
-0.0128451
-0.012858
-0.0127896
-0.0128662
-0.0128315
-0.0127458
-0.0127585
-0.012691
-0.0127667
-0.0127323
-0.0126461
-0.0126588
-0.012592
-0.0126668
-0.0126328
-0.0125461
-0.0125586
-0.0124927
-0.0125665
-0.0125329
-0.0124457
-0.0124581
-0.012393
-0.0124659
-0.0124327
-0.0123449
-0.0123572
-0.0122929
-0.0123649
-0.0123321
-0.0122437
-0.012256
-0.0121924
-0.0122635
-0.0122311
-0.0121422
-0.0121543
-0.0120916
-0.0121617
-0.0121297
-0.0120403
-0.0120523
-0.0119904
-0.0120596
-0.012028
-0.011938
-0.0119499
-0.0118889
-0.0119571
-0.0119259
-0.0118354
-0.0118472
-0.0117869
-0.0118542
-0.0118234
-0.0117323
-0.011744
-0.0116846
-0.0117509
-0.0117206
-0.0116289
-0.0116405
-0.0115819
-0.0116473
-0.0116174
-0.0115251
-0.0115366
-0.0114788
-0.0115433
-0.0115137
-0.011421
-0.0114323
-0.0113753
-0.0114389
-0.0114097
-0.0113164
-0.0113277
-0.0112715
-0.0113341
-0.0113054
-0.0112115
-0.0112226
-0.0111673
-0.0112289
-0.0112006
-0.0111062
-0.0111172
-0.0110627
-0.0111234
-0.0110955
-0.0110005
-0.0110114
-0.0109577
-0.0110174
-0.0109899
-0.0108944
-0.0109052
-0.0108523
-0.0109111
-0.010884
-0.0107879
-0.0107985
-0.0107465
-0.0108044
-0.0107777
-0.010681
-0.0106916
-0.0106403
-0.0106973
-0.010671
-0.0105738
-0.0105842
-0.0105338
-0.0105898
-0.0105639
-0.0104661
-0.0104764
-0.0104268
-0.0104819
-0.0104564
-0.0103581
-0.0103682
-0.0103195
-0.0103736
-0.0103485
-0.0102496
-0.0102596
-0.0102117
-0.0102649
-0.0102403
-0.0101408
-0.0101506
-0.0101036
-0.0101558
-0.0101316
-0.0100315
-0.0100412
-0.00999501
-0.0100463
-0.0100225
-0.00992188
-0.00993146
-0.00988606
-0.00993636
-0.00991303
-0.00981183
-0.00982127
-0.00977671
-0.00982605
-0.00980315
-0.00970138
-0.00971067
-0.00966696
-0.00971534
-0.00969286
-0.00959052
-0.00959967
-0.0095568
-0.00960422
-0.00958217
-0.00947925
-0.00948826
-0.00944623
-0.0094927
-0.00947107
-0.00936757
-0.00937644
-0.00933525
-0.00938076
-0.00935957
-0.00925549
-0.0092642
-0.00922386
-0.00926842
-0.00924765
-0.00914299
-0.00915156
-0.00911207
-0.00915566
-0.00913532
-0.00903008
-0.0090385
-0.00899986
-0.00904248
-0.00902258
-0.00891675
-0.00892502
-0.00888723
-0.00892889
-0.00890942
-0.00880301
-0.00881113
-0.00877419
-0.00881489
-0.00879584
-0.00868885
-0.00869681
-0.00866073
-0.00870046
-0.00868185
-0.00857427
-0.00858208
-0.00854685
-0.00858561
-0.00856744
-0.00845927
-0.00846692
-0.00843255
-0.00847034
-0.00845261
-0.00834384
-0.00835134
-0.00831783
-0.00835465
-0.00833735
-0.00822799
-0.00823533
-0.00820269
-0.00823853
-0.00822167
-0.00811172
-0.0081189
-0.00808712
-0.00812199
-0.00810557
-0.00799502
-0.00800204
-0.00797112
-0.00800501
-0.00798904
-0.00787789
-0.00788475
-0.0078547
-0.00788761
-0.00787208
-0.00776033
-0.00776702
-0.00773785
-0.00776977
-0.00775469
-0.00764234
-0.00764886
-0.00762056
-0.0076515
-0.00763686
-0.00752391
-0.00753027
-0.00750284
-0.0075328
-0.00751861
-0.00740505
-0.00741124
-0.00738469
-0.00741366
-0.00739992
-0.00728575
-0.00729178
-0.0072661
-0.00729408
-0.00728079
-0.00716602
-0.00717187
-0.00714708
-0.00717406
-0.00716122
-0.00704584
-0.00705152
-0.00702761
-0.0070536
-0.00704121
-0.00692522
-0.00693073
-0.00690771
-0.0069327
-0.00692077
-0.00680416
-0.00680949
-0.00678736
-0.00681135
-0.00679987
-0.00668265
-0.00668781
-0.00666657
-0.00668956
-0.00667854
-0.0065607
-0.00656568
-0.00654533
-0.00656732
-0.00655676
-0.0064383
-0.0064431
-0.00642365
-0.00644463
-0.00643452
-0.00631544
-0.00632007
-0.00630151
-0.00632148
-0.00631184
-0.00619214
-0.00619659
-0.00617893
-0.00619789
-0.00618871
-0.00606838
-0.00607265
-0.0060559
-0.00607384
-0.00606513
-0.00594417
-0.00594826
-0.00593241
-0.00594933
-0.00594109
-0.0058195
-0.0058234
-0.00580846
-0.00582437
-0.00581659
-0.00569437
-0.00569809
-0.00568406
-0.00569894
-0.00569163
-0.00556879
-0.00557232
-0.0055592
-0.00557306
-0.00556622
-0.00544274
-0.00544608
-0.00543389
-0.00544671
-0.00544034
-0.00531622
-0.00531938
-0.0053081
-0.00531989
-0.005314
-0.00518924
-0.00519221
-0.00518186
-0.00519261
-0.0051872
-0.0050618
-0.00506458
-0.00505515
-0.00506486
-0.00505993
-0.00493388
-0.00493647
-0.00492798
-0.00493665
-0.00493219
-0.0048055
-0.0048079
-0.00480033
-0.00480796
-0.00480398
-0.00467664
-0.00467885
-0.00467222
-0.00467879
-0.0046753
-0.0045473
-0.00454932
-0.00454363
-0.00454915
-0.00454614
-0.0044175
-0.00441932
-0.00441457
-0.00441903
-0.00441651
-0.00428721
-0.00428884
-0.00428504
-0.00428844
-0.00428641
-0.00415645
-0.00415788
-0.00415503
-0.00415736
-0.00415582
-0.0040252
-0.00402644
-0.00402454
-0.0040258
-0.00402475
-0.00389347
-0.00389452
-0.00389357
-0.00389376
-0.0038932
-0.00376125
-0.0037621
-0.00376211
-0.00376123
-0.00376117
-0.00362855
-0.00362921
-0.00363018
-0.00362821
-0.00362865
-0.00349538
-0.00349584
-0.00349778
-0.00349473
-0.00349566
-0.00336175
-0.00336201
-0.00336492
-0.00336077
-0.00336222
-0.00322752
-0.00322758
-0.00323147
-0.00322622
-0.00322818
-0.00309222
-0.00309209
-0.00309697
-0.00309066
-0.00309303
)
;

boundaryField
{
    BotWall
    {
        type            fixedFluxPressure;
        gradient        uniform 0;
        value           nonuniform List<scalar> 5(-0.0375524 -0.0376753 -0.0385167 -0.0373614 -0.0377476);
    }
    FreeStream
    {
        type            totalPressure;
        rho             rho;
        psi             none;
        gamma           1;
        p0              uniform 0;
        value           nonuniform List<scalar> 5(-0.00302425 -0.00302404 -0.00302942 -0.00302261 -0.00302512);
    }
    FrontNBack
    {
        type            empty;
    }
    LeftSide
    {
        type            symmetryPlane;
    }
    RightSide
    {
        type            symmetryPlane;
    }
}


// ************************************************************************* //
