/*--------------------------------*- C++ -*----------------------------------*\
| =========                 |                                                 |
| \\      /  F ield         | OpenFOAM: The Open Source CFD Toolbox           |
|  \\    /   O peration     | Version:  2.4.0                                 |
|   \\  /    A nd           | Web:      www.OpenFOAM.org                      |
|    \\/     M anipulation  |                                                 |
\*---------------------------------------------------------------------------*/
FoamFile
{
    version     2.0;
    format      ascii;
    class       surfaceScalarField;
    location    "0.004";
    object      phi;
}
// * * * * * * * * * * * * * * * * * * * * * * * * * * * * * * * * * * * * * //

dimensions      [0 3 -1 0 0 0 0];

internalField   nonuniform List<scalar> 
2695
(
4.24769e-16
-4.05873e-16
2.34543e-16
1.87209e-16
-4.07284e-16
6.40558e-16
-1.4227e-16
-2.52306e-16
-1.36801e-16
1.24889e-15
-7.15281e-15
5.58369e-16
8.92422e-16
-1.0164e-15
2.22902e-15
-5.12915e-16
-4.4128e-15
-3.71264e-15
2.83437e-15
-5.14487e-09
2.02783e-15
-5.15204e-09
-3.38692e-15
-5.16754e-09
-6.50042e-16
-5.14438e-09
-5.14996e-09
6.68903e-15
-5.14487e-09
4.0069e-15
-5.15204e-09
-6.9729e-15
-5.16753e-09
-1.90397e-15
-5.14439e-09
-5.14996e-09
1.48304e-14
-5.14489e-09
7.58231e-15
-5.15203e-09
-1.38313e-14
-5.16751e-09
-4.87419e-15
-5.1444e-09
-5.14997e-09
2.28718e-14
-5.14491e-09
1.19839e-14
-5.15202e-09
-2.18226e-14
-5.16747e-09
-7.24645e-15
-5.14441e-09
-5.14998e-09
3.0515e-14
-5.14494e-09
1.61934e-14
-5.152e-09
-2.94328e-14
-5.16743e-09
-9.49305e-15
-5.14443e-09
-5.14998e-09
3.76648e-14
-5.14498e-09
2.00828e-14
-5.15199e-09
-3.64636e-14
-5.16737e-09
-1.16324e-14
-5.14446e-09
-5.15e-09
4.42737e-14
-5.14502e-09
2.3675e-14
-5.15197e-09
-4.2941e-14
-5.1673e-09
-1.36123e-14
-5.14449e-09
-5.15001e-09
5.03224e-14
-5.14507e-09
2.69881e-14
-5.15194e-09
-4.88875e-14
-5.16723e-09
-1.54049e-14
-5.14452e-09
-5.15003e-09
5.57952e-14
-5.14513e-09
3.00169e-14
-5.15192e-09
-5.42926e-14
-5.16714e-09
-1.70012e-14
-5.14456e-09
-5.15004e-09
6.06795e-14
-5.14519e-09
3.27523e-14
-5.15189e-09
-5.91414e-14
-5.16705e-09
-1.83972e-14
-5.1446e-09
-5.15006e-09
6.49679e-14
-5.14526e-09
3.51886e-14
-5.15186e-09
-6.34251e-14
-5.16695e-09
-1.959e-14
-5.14464e-09
-5.15008e-09
6.86583e-14
-5.14532e-09
3.73239e-14
-5.15183e-09
-6.71417e-14
-5.16685e-09
-2.05782e-14
-5.14469e-09
-5.1501e-09
7.17548e-14
-5.1454e-09
3.91594e-14
-5.1518e-09
-7.02948e-14
-5.16674e-09
-2.13626e-14
-5.14474e-09
-5.15012e-09
7.42668e-14
-5.14547e-09
4.0699e-14
-5.15176e-09
-7.28931e-14
-5.16662e-09
-2.19457e-14
-5.14479e-09
-5.15014e-09
7.62088e-14
-5.14555e-09
4.19491e-14
-5.15173e-09
-7.49502e-14
-5.16651e-09
-2.23324e-14
-5.14484e-09
-5.15017e-09
7.76004e-14
-5.14562e-09
4.29185e-14
-5.15169e-09
-7.6484e-14
-5.16639e-09
-2.25292e-14
-5.14489e-09
-5.15019e-09
7.84654e-14
-5.1457e-09
4.36184e-14
-5.15166e-09
-7.75169e-14
-5.16627e-09
-2.25444e-14
-5.14495e-09
-5.15021e-09
7.88318e-14
-5.14578e-09
4.4062e-14
-5.15162e-09
-7.8075e-14
-5.16614e-09
-2.23878e-14
-5.145e-09
-5.15023e-09
7.87311e-14
-5.14586e-09
4.42644e-14
-5.15159e-09
-7.81876e-14
-5.16602e-09
-2.20706e-14
-5.14506e-09
-5.15026e-09
7.81977e-14
-5.14594e-09
4.42423e-14
-5.15155e-09
-7.78869e-14
-5.1659e-09
-2.16049e-14
-5.14512e-09
-5.15028e-09
7.72686e-14
-5.14602e-09
4.40136e-14
-5.15152e-09
-7.72076e-14
-5.16578e-09
-2.1004e-14
-5.14517e-09
-5.1503e-09
7.59823e-14
-5.14609e-09
4.35973e-14
-5.15149e-09
-7.61858e-14
-5.16566e-09
-2.0282e-14
-5.14523e-09
-5.15032e-09
7.43788e-14
-5.14617e-09
4.3013e-14
-5.15146e-09
-7.4859e-14
-5.16554e-09
-1.94532e-14
-5.14528e-09
-5.15034e-09
7.24986e-14
-5.14624e-09
4.22809e-14
-5.15143e-09
-7.32653e-14
-5.16543e-09
-1.85324e-14
-5.14534e-09
-5.15036e-09
7.03824e-14
-5.14631e-09
4.1421e-14
-5.1514e-09
-7.14428e-14
-5.16531e-09
-1.75345e-14
-5.14539e-09
-5.15037e-09
6.80703e-14
-5.14638e-09
4.04537e-14
-5.15137e-09
-6.94293e-14
-5.1652e-09
-1.64742e-14
-5.14545e-09
-5.15039e-09
6.56014e-14
-5.14644e-09
3.93984e-14
-5.15134e-09
-6.72616e-14
-5.1651e-09
-1.5366e-14
-5.1455e-09
-5.15041e-09
6.30135e-14
-5.14651e-09
3.82742e-14
-5.15132e-09
-6.49753e-14
-5.16499e-09
-1.42238e-14
-5.14555e-09
-5.15042e-09
6.03425e-14
-5.14657e-09
3.70994e-14
-5.1513e-09
-6.26042e-14
-5.16489e-09
-1.30609e-14
-5.1456e-09
-5.15043e-09
5.7622e-14
-5.14662e-09
3.5891e-14
-5.15127e-09
-6.01801e-14
-5.1648e-09
-1.189e-14
-5.14565e-09
-5.15045e-09
5.48832e-14
-5.14668e-09
3.46649e-14
-5.15125e-09
-5.77324e-14
-5.16471e-09
-1.07227e-14
-5.14569e-09
-5.15046e-09
5.21547e-14
-5.14673e-09
3.34358e-14
-5.15124e-09
-5.5288e-14
-5.16462e-09
-9.56975e-15
-5.14574e-09
-5.15047e-09
4.9462e-14
-5.14678e-09
3.22169e-14
-5.15122e-09
-5.28711e-14
-5.16453e-09
-8.44079e-15
-5.14578e-09
-5.15047e-09
4.68276e-14
-5.14683e-09
3.10197e-14
-5.1512e-09
-5.05031e-14
-5.16445e-09
-7.3444e-15
-5.14583e-09
-5.15048e-09
4.42712e-14
-5.14687e-09
2.98545e-14
-5.15119e-09
-4.82026e-14
-5.16437e-09
-6.28803e-15
-5.14587e-09
-5.15049e-09
4.18093e-14
-5.14691e-09
2.873e-14
-5.15118e-09
-4.59851e-14
-5.1643e-09
-5.278e-15
-5.14591e-09
-5.15049e-09
3.94555e-14
-5.14695e-09
2.76533e-14
-5.15116e-09
-4.38637e-14
-5.16423e-09
-4.31951e-15
-5.14595e-09
-5.1505e-09
3.72205e-14
-5.14699e-09
2.66301e-14
-5.15115e-09
-4.18487e-14
-5.16416e-09
-3.41665e-15
-5.14599e-09
-5.1505e-09
3.51124e-14
-5.14702e-09
2.56648e-14
-5.15114e-09
-3.99476e-14
-5.16409e-09
-2.57245e-15
-5.14603e-09
-5.1505e-09
3.31366e-14
-5.14706e-09
2.47606e-14
-5.15114e-09
-3.81659e-14
-5.16403e-09
-1.78892e-15
-5.14606e-09
-5.15051e-09
3.12965e-14
-5.14709e-09
2.39192e-14
-5.15113e-09
-3.65066e-14
-5.16397e-09
-1.06703e-15
-5.1461e-09
-5.15051e-09
2.9593e-14
-5.14712e-09
2.31414e-14
-5.15112e-09
-3.49711e-14
-5.16391e-09
-4.06637e-16
-5.14613e-09
-5.15051e-09
2.80256e-14
-5.14715e-09
2.24273e-14
-5.15112e-09
-3.35587e-14
-5.16385e-09
1.89982e-16
-5.14617e-09
-5.15051e-09
2.65918e-14
-5.14717e-09
2.17758e-14
-5.15111e-09
-3.22674e-14
-5.1638e-09
7.20552e-16
-5.1462e-09
-5.15051e-09
2.5288e-14
-5.1472e-09
2.11852e-14
-5.15111e-09
-3.10938e-14
-5.16375e-09
1.19273e-15
-5.14623e-09
-5.1505e-09
2.41093e-14
-5.14722e-09
2.06533e-14
-5.1511e-09
-3.00336e-14
-5.1637e-09
1.60781e-15
-5.14626e-09
-5.1505e-09
2.305e-14
-5.14725e-09
2.01775e-14
-5.1511e-09
-2.90815e-14
-5.16365e-09
1.96795e-15
-5.14629e-09
-5.1505e-09
2.21038e-14
-5.14727e-09
1.97546e-14
-5.1511e-09
-2.82317e-14
-5.1636e-09
2.27576e-15
-5.14632e-09
-5.1505e-09
2.12636e-14
-5.14729e-09
1.93812e-14
-5.1511e-09
-2.74777e-14
-5.16355e-09
2.53413e-15
-5.14635e-09
-5.1505e-09
2.05224e-14
-5.14731e-09
1.9054e-14
-5.15109e-09
-2.68129e-14
-5.16351e-09
2.74617e-15
-5.14638e-09
-5.15049e-09
1.98726e-14
-5.14733e-09
1.87694e-14
-5.15109e-09
-2.62306e-14
-5.16346e-09
2.91507e-15
-5.14641e-09
-5.15049e-09
1.9307e-14
-5.14735e-09
1.85237e-14
-5.15109e-09
-2.5724e-14
-5.16342e-09
3.04409e-15
-5.14644e-09
-5.15049e-09
1.88183e-14
-5.14737e-09
1.83134e-14
-5.15109e-09
-2.52864e-14
-5.16337e-09
3.13647e-15
-5.14647e-09
-5.15048e-09
1.83993e-14
-5.14739e-09
1.81351e-14
-5.15109e-09
-2.49113e-14
-5.16333e-09
3.1954e-15
-5.1465e-09
-5.15048e-09
1.80434e-14
-5.1474e-09
1.79855e-14
-5.15109e-09
-2.45925e-14
-5.16329e-09
3.22396e-15
-5.14653e-09
-5.15048e-09
1.77439e-14
-5.14742e-09
1.78615e-14
-5.15109e-09
-2.4324e-14
-5.16325e-09
3.22515e-15
-5.14655e-09
-5.15047e-09
1.74949e-14
-5.14744e-09
1.77601e-14
-5.15109e-09
-2.41002e-14
-5.1632e-09
3.20178e-15
-5.14658e-09
-5.15047e-09
1.72907e-14
-5.14746e-09
1.76786e-14
-5.15109e-09
-2.39162e-14
-5.16316e-09
3.15653e-15
-5.14661e-09
-5.15047e-09
1.7126e-14
-5.14747e-09
1.76145e-14
-5.15109e-09
-2.37669e-14
-5.16312e-09
3.09189e-15
-5.14663e-09
-5.15047e-09
1.6996e-14
-5.14749e-09
1.75656e-14
-5.15109e-09
-2.36482e-14
-5.16308e-09
3.0102e-15
-5.14666e-09
-5.15046e-09
1.68963e-14
-5.14751e-09
1.75297e-14
-5.15109e-09
-2.3556e-14
-5.16304e-09
2.91359e-15
-5.14669e-09
-5.15046e-09
1.68231e-14
-5.14752e-09
1.75049e-14
-5.1511e-09
-2.34867e-14
-5.163e-09
2.80402e-15
-5.14671e-09
-5.15046e-09
1.67726e-14
-5.14754e-09
1.74897e-14
-5.1511e-09
-2.34372e-14
-5.16296e-09
2.68329e-15
-5.14674e-09
-5.15045e-09
1.67418e-14
-5.14756e-09
1.74824e-14
-5.1511e-09
-2.34045e-14
-5.16292e-09
2.553e-15
-5.14677e-09
-5.15045e-09
1.67277e-14
-5.14757e-09
1.74819e-14
-5.1511e-09
-2.33863e-14
-5.16288e-09
2.41461e-15
-5.14679e-09
-5.15045e-09
1.67279e-14
-5.14759e-09
1.7487e-14
-5.1511e-09
-2.33801e-14
-5.16283e-09
2.26944e-15
-5.14682e-09
-5.15045e-09
1.67402e-14
-5.14761e-09
1.74966e-14
-5.1511e-09
-2.33841e-14
-5.16279e-09
2.11865e-15
-5.14684e-09
-5.15044e-09
1.67627e-14
-5.14762e-09
1.751e-14
-5.1511e-09
-2.33965e-14
-5.16275e-09
1.96327e-15
-5.14687e-09
-5.15044e-09
1.67936e-14
-5.14764e-09
1.75264e-14
-5.1511e-09
-2.3416e-14
-5.16271e-09
1.80423e-15
-5.14689e-09
-5.15044e-09
1.68315e-14
-5.14766e-09
1.75451e-14
-5.1511e-09
-2.34411e-14
-5.16267e-09
1.64233e-15
-5.14692e-09
-5.15044e-09
1.68752e-14
-5.14768e-09
1.75656e-14
-5.1511e-09
-2.34708e-14
-5.16263e-09
1.47828e-15
-5.14694e-09
-5.15044e-09
1.69235e-14
-5.14769e-09
1.75874e-14
-5.1511e-09
-2.35041e-14
-5.16259e-09
1.31271e-15
-5.14697e-09
-5.15044e-09
1.69755e-14
-5.14771e-09
1.76101e-14
-5.1511e-09
-2.35402e-14
-5.16255e-09
1.14618e-15
-5.14699e-09
-5.15044e-09
1.70304e-14
-5.14773e-09
1.76335e-14
-5.1511e-09
-2.35785e-14
-5.16251e-09
9.79159e-16
-5.14702e-09
-5.15043e-09
1.70875e-14
-5.14774e-09
1.76572e-14
-5.1511e-09
-2.36183e-14
-5.16247e-09
8.1208e-16
-5.14704e-09
-5.15043e-09
1.71462e-14
-5.14776e-09
1.7681e-14
-5.1511e-09
-2.3659e-14
-5.16242e-09
6.45319e-16
-5.14707e-09
-5.15043e-09
1.7206e-14
-5.14778e-09
1.77047e-14
-5.15111e-09
-2.37004e-14
-5.16238e-09
4.79215e-16
-5.14709e-09
-5.15043e-09
1.72665e-14
-5.14779e-09
1.77281e-14
-5.15111e-09
-2.37419e-14
-5.16234e-09
3.14079e-16
-5.14711e-09
-5.15043e-09
1.73274e-14
-5.14781e-09
1.77512e-14
-5.15111e-09
-2.37834e-14
-5.1623e-09
1.502e-16
-5.14714e-09
-5.15043e-09
1.73882e-14
-5.14783e-09
1.77737e-14
-5.15111e-09
-2.38245e-14
-5.16226e-09
-1.27485e-17
-5.14716e-09
-5.15043e-09
1.74488e-14
-5.14785e-09
1.77956e-14
-5.15111e-09
-2.38649e-14
-5.16222e-09
-1.78654e-16
-5.14719e-09
-5.15043e-09
1.75089e-14
-5.14786e-09
1.78168e-14
-5.15111e-09
-2.39046e-14
-5.16217e-09
-3.42776e-16
-5.14721e-09
-5.15043e-09
1.75683e-14
-5.14788e-09
1.78373e-14
-5.15111e-09
-2.39433e-14
-5.16213e-09
-5.05096e-16
-5.14723e-09
-5.15043e-09
1.76269e-14
-5.1479e-09
1.7857e-14
-5.15111e-09
-2.3981e-14
-5.16209e-09
-6.6558e-16
-5.14726e-09
-5.15043e-09
1.76845e-14
-5.14792e-09
1.78758e-14
-5.15111e-09
-2.40174e-14
-5.16205e-09
-8.2419e-16
-5.14728e-09
-5.15043e-09
1.77411e-14
-5.14794e-09
1.78937e-14
-5.15111e-09
-2.40525e-14
-5.16201e-09
-9.80886e-16
-5.1473e-09
-5.15044e-09
1.77965e-14
-5.14795e-09
1.79107e-14
-5.15111e-09
-2.40862e-14
-5.16196e-09
-1.13563e-15
-5.14733e-09
-5.15044e-09
1.78507e-14
-5.14797e-09
1.79268e-14
-5.15111e-09
-2.41185e-14
-5.16192e-09
-1.28839e-15
-5.14735e-09
-5.15044e-09
1.79035e-14
-5.14799e-09
1.79419e-14
-5.15111e-09
-2.41492e-14
-5.16188e-09
-1.43914e-15
-5.14737e-09
-5.15044e-09
1.79549e-14
-5.14801e-09
1.7956e-14
-5.15111e-09
-2.41783e-14
-5.16184e-09
-1.58786e-15
-5.14739e-09
-5.15044e-09
1.8005e-14
-5.14802e-09
1.79691e-14
-5.15111e-09
-2.42058e-14
-5.1618e-09
-1.73451e-15
-5.14742e-09
-5.15044e-09
1.80535e-14
-5.14804e-09
1.79812e-14
-5.15111e-09
-2.42317e-14
-5.16175e-09
-1.87908e-15
-5.14744e-09
-5.15044e-09
1.81006e-14
-5.14806e-09
1.79923e-14
-5.15111e-09
-2.42559e-14
-5.16171e-09
-2.02155e-15
-5.14746e-09
-5.15045e-09
1.81461e-14
-5.14808e-09
1.80023e-14
-5.15111e-09
-2.42783e-14
-5.16167e-09
-2.16192e-15
-5.14748e-09
-5.15045e-09
1.81901e-14
-5.1481e-09
1.80113e-14
-5.15111e-09
-2.42991e-14
-5.16163e-09
-2.30016e-15
-5.1475e-09
-5.15045e-09
1.82325e-14
-5.14812e-09
1.80193e-14
-5.15111e-09
-2.4318e-14
-5.16159e-09
-2.43627e-15
-5.14753e-09
-5.15045e-09
1.82733e-14
-5.14813e-09
1.80262e-14
-5.15111e-09
-2.43352e-14
-5.16154e-09
-2.57025e-15
-5.14755e-09
-5.15046e-09
1.83125e-14
-5.14815e-09
1.8032e-14
-5.15111e-09
-2.43506e-14
-5.1615e-09
-2.70208e-15
-5.14757e-09
-5.15046e-09
1.83501e-14
-5.14817e-09
1.80368e-14
-5.15111e-09
-2.43643e-14
-5.16146e-09
-2.83176e-15
-5.14759e-09
-5.15046e-09
1.8386e-14
-5.14819e-09
1.80405e-14
-5.15111e-09
-2.43761e-14
-5.16142e-09
-2.9593e-15
-5.14761e-09
-5.15046e-09
1.84203e-14
-5.14821e-09
1.80431e-14
-5.15111e-09
-2.43861e-14
-5.16137e-09
-3.08468e-15
-5.14763e-09
-5.15047e-09
1.8453e-14
-5.14823e-09
1.80447e-14
-5.15111e-09
-2.43944e-14
-5.16133e-09
-3.2079e-15
-5.14766e-09
-5.15047e-09
1.8484e-14
-5.14824e-09
1.80452e-14
-5.15111e-09
-2.44008e-14
-5.16129e-09
-3.32898e-15
-5.14768e-09
-5.15047e-09
1.85134e-14
-5.14826e-09
1.80446e-14
-5.1511e-09
-2.44054e-14
-5.16125e-09
-3.44789e-15
-5.1477e-09
-5.15048e-09
1.85411e-14
-5.14828e-09
1.80429e-14
-5.1511e-09
-2.44082e-14
-5.1612e-09
-3.56466e-15
-5.14772e-09
-5.15048e-09
1.85671e-14
-5.1483e-09
1.80402e-14
-5.1511e-09
-2.44092e-14
-5.16116e-09
-3.67927e-15
-5.14774e-09
-5.15048e-09
1.85915e-14
-5.14832e-09
1.80364e-14
-5.1511e-09
-2.44084e-14
-5.16112e-09
-3.79174e-15
-5.14776e-09
-5.15049e-09
1.86142e-14
-5.14834e-09
1.80314e-14
-5.1511e-09
-2.44058e-14
-5.16108e-09
-3.90206e-15
-5.14778e-09
-5.15049e-09
1.86353e-14
-5.14836e-09
1.80254e-14
-5.1511e-09
-2.44014e-14
-5.16103e-09
-4.01023e-15
-5.1478e-09
-5.1505e-09
1.86546e-14
-5.14837e-09
1.80183e-14
-5.1511e-09
-2.43952e-14
-5.16099e-09
-4.11627e-15
-5.14782e-09
-5.1505e-09
1.86723e-14
-5.14839e-09
1.80101e-14
-5.1511e-09
-2.43873e-14
-5.16095e-09
-4.22018e-15
-5.14784e-09
-5.1505e-09
1.86884e-14
-5.14841e-09
1.80008e-14
-5.1511e-09
-2.43775e-14
-5.16091e-09
-4.32195e-15
-5.14786e-09
-5.15051e-09
1.87028e-14
-5.14843e-09
1.79904e-14
-5.1511e-09
-2.43659e-14
-5.16086e-09
-4.4216e-15
-5.14788e-09
-5.15051e-09
1.87155e-14
-5.14845e-09
1.79789e-14
-5.1511e-09
-2.43526e-14
-5.16082e-09
-4.51914e-15
-5.1479e-09
-5.15052e-09
1.87265e-14
-5.14847e-09
1.79664e-14
-5.1511e-09
-2.43375e-14
-5.16078e-09
-4.61455e-15
-5.14792e-09
-5.15052e-09
1.87359e-14
-5.14849e-09
1.79527e-14
-5.1511e-09
-2.43206e-14
-5.16074e-09
-4.70787e-15
-5.14794e-09
-5.15053e-09
1.87436e-14
-5.14851e-09
1.79379e-14
-5.1511e-09
-2.4302e-14
-5.16069e-09
-4.79908e-15
-5.14796e-09
-5.15053e-09
1.87497e-14
-5.14852e-09
1.79221e-14
-5.1511e-09
-2.42816e-14
-5.16065e-09
-4.88819e-15
-5.14798e-09
-5.15054e-09
1.87541e-14
-5.14854e-09
1.79051e-14
-5.15109e-09
-2.42594e-14
-5.16061e-09
-4.97522e-15
-5.148e-09
-5.15054e-09
1.87569e-14
-5.14856e-09
1.78871e-14
-5.15109e-09
-2.42355e-14
-5.16057e-09
-5.06017e-15
-5.14802e-09
-5.15055e-09
1.8758e-14
-5.14858e-09
1.78679e-14
-5.15109e-09
-2.42099e-14
-5.16053e-09
-5.14305e-15
-5.14804e-09
-5.15055e-09
1.87574e-14
-5.1486e-09
1.78477e-14
-5.15109e-09
-2.41826e-14
-5.16048e-09
-5.22386e-15
-5.14806e-09
-5.15056e-09
1.87552e-14
-5.14862e-09
1.78263e-14
-5.15109e-09
-2.41535e-14
-5.16044e-09
-5.30262e-15
-5.14807e-09
-5.15056e-09
1.87514e-14
-5.14864e-09
1.78039e-14
-5.15109e-09
-2.41227e-14
-5.1604e-09
-5.37934e-15
-5.14809e-09
-5.15057e-09
1.8746e-14
-5.14866e-09
1.77804e-14
-5.15109e-09
-2.40902e-14
-5.16036e-09
-5.45401e-15
-5.14811e-09
-5.15057e-09
1.87389e-14
-5.14867e-09
1.77558e-14
-5.15109e-09
-2.4056e-14
-5.16032e-09
-5.52666e-15
-5.14813e-09
-5.15058e-09
1.87302e-14
-5.14869e-09
1.77301e-14
-5.15109e-09
-2.40202e-14
-5.16027e-09
-5.59728e-15
-5.14815e-09
-5.15058e-09
1.87198e-14
-5.14871e-09
1.77033e-14
-5.15109e-09
-2.39826e-14
-5.16023e-09
-5.6659e-15
-5.14817e-09
-5.15059e-09
1.87079e-14
-5.14873e-09
1.76755e-14
-5.15108e-09
-2.39434e-14
-5.16019e-09
-5.73252e-15
-5.14819e-09
-5.1506e-09
1.86943e-14
-5.14875e-09
1.76466e-14
-5.15108e-09
-2.39024e-14
-5.16015e-09
-5.79715e-15
-5.1482e-09
-5.1506e-09
1.86792e-14
-5.14877e-09
1.76165e-14
-5.15108e-09
-2.38599e-14
-5.16011e-09
-5.85981e-15
-5.14822e-09
-5.15061e-09
1.86624e-14
-5.14879e-09
1.75855e-14
-5.15108e-09
-2.38157e-14
-5.16007e-09
-5.92049e-15
-5.14824e-09
-5.15061e-09
1.86441e-14
-5.1488e-09
1.75533e-14
-5.15108e-09
-2.37698e-14
-5.16003e-09
-5.97923e-15
-5.14826e-09
-5.15062e-09
1.86242e-14
-5.14882e-09
1.75201e-14
-5.15108e-09
-2.37223e-14
-5.15998e-09
-6.03602e-15
-5.14827e-09
-5.15063e-09
1.86027e-14
-5.14884e-09
1.74858e-14
-5.15108e-09
-2.36732e-14
-5.15994e-09
-6.09088e-15
-5.14829e-09
-5.15063e-09
1.85796e-14
-5.14886e-09
1.74505e-14
-5.15108e-09
-2.36224e-14
-5.1599e-09
-6.14383e-15
-5.14831e-09
-5.15064e-09
1.8555e-14
-5.14888e-09
1.74141e-14
-5.15108e-09
-2.35701e-14
-5.15986e-09
-6.19487e-15
-5.14833e-09
-5.15064e-09
1.85289e-14
-5.1489e-09
1.73766e-14
-5.15107e-09
-2.35162e-14
-5.15982e-09
-6.24402e-15
-5.14834e-09
-5.15065e-09
1.85012e-14
-5.14892e-09
1.73381e-14
-5.15107e-09
-2.34606e-14
-5.15978e-09
-6.29129e-15
-5.14836e-09
-5.15066e-09
1.84719e-14
-5.14893e-09
1.72986e-14
-5.15107e-09
-2.34035e-14
-5.15974e-09
-6.33671e-15
-5.14838e-09
-5.15066e-09
1.84412e-14
-5.14895e-09
1.7258e-14
-5.15107e-09
-2.33449e-14
-5.1597e-09
-6.38027e-15
-5.1484e-09
-5.15067e-09
1.84089e-14
-5.14897e-09
1.72164e-14
-5.15107e-09
-2.32846e-14
-5.15966e-09
-6.422e-15
-5.14841e-09
-5.15068e-09
1.83752e-14
-5.14899e-09
1.71738e-14
-5.15107e-09
-2.32229e-14
-5.15962e-09
-6.46192e-15
-5.14843e-09
-5.15068e-09
1.83399e-14
-5.14901e-09
1.71301e-14
-5.15107e-09
-2.31596e-14
-5.15958e-09
-6.50004e-15
-5.14845e-09
-5.15069e-09
1.83032e-14
-5.14903e-09
1.70854e-14
-5.15107e-09
-2.30947e-14
-5.15954e-09
-6.53637e-15
-5.14846e-09
-5.1507e-09
1.8265e-14
-5.14904e-09
1.70397e-14
-5.15107e-09
-2.30284e-14
-5.1595e-09
-6.57094e-15
-5.14848e-09
-5.1507e-09
1.82254e-14
-5.14906e-09
1.6993e-14
-5.15106e-09
-2.29605e-14
-5.15946e-09
-6.60376e-15
-5.1485e-09
-5.15071e-09
1.81843e-14
-5.14908e-09
1.69453e-14
-5.15106e-09
-2.28912e-14
-5.15942e-09
-6.63484e-15
-5.14851e-09
-5.15072e-09
1.81417e-14
-5.1491e-09
1.68966e-14
-5.15106e-09
-2.28203e-14
-5.15938e-09
-6.66422e-15
-5.14853e-09
-5.15072e-09
1.80978e-14
-5.14912e-09
1.68469e-14
-5.15106e-09
-2.27481e-14
-5.15934e-09
-6.6919e-15
-5.14854e-09
-5.15073e-09
1.80524e-14
-5.14914e-09
1.67963e-14
-5.15106e-09
-2.26743e-14
-5.1593e-09
-6.7179e-15
-5.14856e-09
-5.15074e-09
1.80057e-14
-5.14915e-09
1.67446e-14
-5.15106e-09
-2.25991e-14
-5.15926e-09
-6.74225e-15
-5.14858e-09
-5.15074e-09
1.79575e-14
-5.14917e-09
1.6692e-14
-5.15106e-09
-2.25225e-14
-5.15922e-09
-6.76497e-15
-5.14859e-09
-5.15075e-09
1.7908e-14
-5.14919e-09
1.66384e-14
-5.15106e-09
-2.24445e-14
-5.15918e-09
-6.78607e-15
-5.14861e-09
-5.15076e-09
1.78572e-14
-5.14921e-09
1.65839e-14
-5.15105e-09
-2.2365e-14
-5.15914e-09
-6.80558e-15
-5.14862e-09
-5.15076e-09
1.7805e-14
-5.14923e-09
1.65284e-14
-5.15105e-09
-2.22842e-14
-5.1591e-09
-6.82352e-15
-5.14864e-09
-5.15077e-09
1.77515e-14
-5.14924e-09
1.6472e-14
-5.15105e-09
-2.22019e-14
-5.15906e-09
-6.8399e-15
-5.14865e-09
-5.15078e-09
1.76967e-14
-5.14926e-09
1.64146e-14
-5.15105e-09
-2.21183e-14
-5.15903e-09
-6.85476e-15
-5.14867e-09
-5.15078e-09
1.76406e-14
-5.14928e-09
1.63564e-14
-5.15105e-09
-2.20334e-14
-5.15899e-09
-6.86811e-15
-5.14868e-09
-5.15079e-09
1.75833e-14
-5.1493e-09
1.62972e-14
-5.15105e-09
-2.19471e-14
-5.15895e-09
-6.87998e-15
-5.1487e-09
-5.1508e-09
1.75246e-14
-5.14931e-09
1.62371e-14
-5.15105e-09
-2.18595e-14
-5.15891e-09
-6.89039e-15
-5.14871e-09
-5.1508e-09
1.74648e-14
-5.14933e-09
1.61761e-14
-5.15105e-09
-2.17706e-14
-5.15887e-09
-6.89937e-15
-5.14873e-09
-5.15081e-09
1.74037e-14
-5.14935e-09
1.61143e-14
-5.15104e-09
-2.16804e-14
-5.15884e-09
-6.90693e-15
-5.14874e-09
-5.15082e-09
1.73414e-14
-5.14937e-09
1.60515e-14
-5.15104e-09
-2.15889e-14
-5.1588e-09
-6.91311e-15
-5.14876e-09
-5.15082e-09
1.7278e-14
-5.14938e-09
1.59879e-14
-5.15104e-09
-2.14961e-14
-5.15876e-09
-6.91792e-15
-5.14877e-09
-5.15083e-09
1.72134e-14
-5.1494e-09
1.59234e-14
-5.15104e-09
-2.14021e-14
-5.15872e-09
-6.9214e-15
-5.14879e-09
-5.15084e-09
1.71476e-14
-5.14942e-09
1.58581e-14
-5.15104e-09
-2.13069e-14
-5.15869e-09
-6.92357e-15
-5.1488e-09
-5.15085e-09
1.70807e-14
-5.14943e-09
1.5792e-14
-5.15104e-09
-2.12104e-14
-5.15865e-09
-6.92446e-15
-5.14882e-09
-5.15085e-09
1.70128e-14
-5.14945e-09
1.5725e-14
-5.15104e-09
-2.11127e-14
-5.15861e-09
-6.92409e-15
-5.14883e-09
-5.15086e-09
1.69437e-14
-5.14947e-09
1.56573e-14
-5.15103e-09
-2.10139e-14
-5.15858e-09
-6.92249e-15
-5.14884e-09
-5.15087e-09
1.68736e-14
-5.14948e-09
1.55887e-14
-5.15103e-09
-2.09138e-14
-5.15854e-09
-6.91969e-15
-5.14886e-09
-5.15087e-09
1.68024e-14
-5.1495e-09
1.55193e-14
-5.15103e-09
-2.08127e-14
-5.1585e-09
-6.91572e-15
-5.14887e-09
-5.15088e-09
1.67303e-14
-5.14952e-09
1.54492e-14
-5.15103e-09
-2.07103e-14
-5.15847e-09
-6.9106e-15
-5.14889e-09
-5.15089e-09
1.66571e-14
-5.14954e-09
1.53783e-14
-5.15103e-09
-2.06069e-14
-5.15843e-09
-6.90437e-15
-5.1489e-09
-5.15089e-09
1.6583e-14
-5.14955e-09
1.53067e-14
-5.15103e-09
-2.05024e-14
-5.15839e-09
-6.89706e-15
-5.14891e-09
-5.1509e-09
1.65079e-14
-5.14957e-09
1.52343e-14
-5.15103e-09
-2.03968e-14
-5.15836e-09
-6.88869e-15
-5.14893e-09
-5.15091e-09
1.64319e-14
-5.14958e-09
1.51611e-14
-5.15103e-09
-2.02901e-14
-5.15832e-09
-6.8793e-15
-5.14894e-09
-5.15091e-09
1.6355e-14
-5.1496e-09
1.50873e-14
-5.15102e-09
-2.01824e-14
-5.15829e-09
-6.86892e-15
-5.14895e-09
-5.15092e-09
1.62772e-14
-5.14962e-09
1.50128e-14
-5.15102e-09
-2.00736e-14
-5.15825e-09
-6.85758e-15
-5.14897e-09
-5.15093e-09
1.61986e-14
-5.14963e-09
1.49376e-14
-5.15102e-09
-1.99638e-14
-5.15822e-09
-6.84532e-15
-5.14898e-09
-5.15093e-09
1.61192e-14
-5.14965e-09
1.48617e-14
-5.15102e-09
-1.98531e-14
-5.15818e-09
-6.83216e-15
-5.14899e-09
-5.15094e-09
1.6039e-14
-5.14967e-09
1.47852e-14
-5.15102e-09
-1.97414e-14
-5.15815e-09
-6.81815e-15
-5.14901e-09
-5.15095e-09
1.5958e-14
-5.14968e-09
1.4708e-14
-5.15102e-09
-1.96287e-14
-5.15811e-09
-6.80332e-15
-5.14902e-09
-5.15096e-09
1.58763e-14
-5.1497e-09
1.46302e-14
-5.15102e-09
-1.95151e-14
-5.15808e-09
-6.7877e-15
-5.14903e-09
-5.15096e-09
1.57939e-14
-5.14971e-09
1.45519e-14
-5.15102e-09
-1.94006e-14
-5.15805e-09
-6.77134e-15
-5.14904e-09
-5.15097e-09
1.57108e-14
-5.14973e-09
1.44729e-14
-5.15101e-09
-1.92852e-14
-5.15801e-09
-6.75426e-15
-5.14906e-09
-5.15098e-09
1.56271e-14
-5.14974e-09
1.43933e-14
-5.15101e-09
-1.91689e-14
-5.15798e-09
-6.7365e-15
-5.14907e-09
-5.15098e-09
1.55427e-14
-5.14976e-09
1.43132e-14
-5.15101e-09
-1.90518e-14
-5.15795e-09
-6.71811e-15
-5.14908e-09
-5.15099e-09
1.54578e-14
-5.14978e-09
1.42326e-14
-5.15101e-09
-1.89339e-14
-5.15791e-09
-6.69913e-15
-5.14909e-09
-5.151e-09
1.53723e-14
-5.14979e-09
1.41515e-14
-5.15101e-09
-1.88152e-14
-5.15788e-09
-6.67958e-15
-5.14911e-09
-5.151e-09
1.52863e-14
-5.14981e-09
1.40698e-14
-5.15101e-09
-1.86956e-14
-5.15785e-09
-6.65953e-15
-5.14912e-09
-5.15101e-09
1.51998e-14
-5.14982e-09
1.39877e-14
-5.15101e-09
-1.85754e-14
-5.15781e-09
-6.639e-15
-5.14913e-09
-5.15102e-09
1.51129e-14
-5.14984e-09
1.39051e-14
-5.15101e-09
-1.84544e-14
-5.15778e-09
-6.61804e-15
-5.14914e-09
-5.15102e-09
1.50255e-14
-5.14985e-09
1.38221e-14
-5.151e-09
-1.83327e-14
-5.15775e-09
-6.5967e-15
-5.14915e-09
-5.15103e-09
1.49378e-14
-5.14987e-09
1.37387e-14
-5.151e-09
-1.82103e-14
-5.15772e-09
-6.57501e-15
-5.14916e-09
-5.15104e-09
1.48497e-14
-5.14988e-09
1.36549e-14
-5.151e-09
-1.80873e-14
-5.15769e-09
-6.55304e-15
-5.14918e-09
-5.15104e-09
1.47614e-14
-5.1499e-09
1.35708e-14
-5.151e-09
-1.79636e-14
-5.15765e-09
-6.53081e-15
-5.14919e-09
-5.15105e-09
1.46728e-14
-5.14991e-09
1.34863e-14
-5.151e-09
-1.78393e-14
-5.15762e-09
-6.50839e-15
-5.1492e-09
-5.15106e-09
1.4584e-14
-5.14993e-09
1.34014e-14
-5.151e-09
-1.77145e-14
-5.15759e-09
-6.48582e-15
-5.14921e-09
-5.15106e-09
1.4495e-14
-5.14994e-09
1.33163e-14
-5.151e-09
-1.75891e-14
-5.15756e-09
-6.46315e-15
-5.14922e-09
-5.15107e-09
1.44059e-14
-5.14995e-09
1.3231e-14
-5.151e-09
-1.74632e-14
-5.15753e-09
-6.44044e-15
-5.14923e-09
-5.15107e-09
1.43167e-14
-5.14997e-09
1.31453e-14
-5.151e-09
-1.73369e-14
-5.1575e-09
-6.41774e-15
-5.14924e-09
-5.15108e-09
1.42275e-14
-5.14998e-09
1.30595e-14
-5.15099e-09
-1.721e-14
-5.15747e-09
-6.39511e-15
-5.14925e-09
-5.15109e-09
1.41383e-14
-5.15e-09
1.29735e-14
-5.15099e-09
-1.70828e-14
-5.15744e-09
-6.3726e-15
-5.14926e-09
-5.15109e-09
1.40491e-14
-5.15001e-09
1.28874e-14
-5.15099e-09
-1.69551e-14
-5.15741e-09
-6.35027e-15
-5.14928e-09
-5.1511e-09
1.39601e-14
-5.15003e-09
1.28011e-14
-5.15099e-09
-1.68271e-14
-5.15738e-09
-6.32818e-15
-5.14929e-09
-5.15111e-09
1.38713e-14
-5.15004e-09
1.27148e-14
-5.15099e-09
-1.66988e-14
-5.15735e-09
-6.3064e-15
-5.1493e-09
-5.15111e-09
1.37827e-14
-5.15005e-09
1.26284e-14
-5.15099e-09
-1.65702e-14
-5.15732e-09
-6.28499e-15
-5.14931e-09
-5.15112e-09
1.36944e-14
-5.15007e-09
1.2542e-14
-5.15099e-09
-1.64414e-14
-5.15729e-09
-6.26402e-15
-5.14932e-09
-5.15113e-09
1.36064e-14
-5.15008e-09
1.24556e-14
-5.15099e-09
-1.63123e-14
-5.15726e-09
-6.24356e-15
-5.14933e-09
-5.15113e-09
1.35188e-14
-5.15009e-09
1.23693e-14
-5.15098e-09
-1.61831e-14
-5.15724e-09
-6.22368e-15
-5.14934e-09
-5.15114e-09
1.34318e-14
-5.15011e-09
1.22832e-14
-5.15098e-09
-1.60538e-14
-5.15721e-09
-6.20445e-15
-5.14935e-09
-5.15114e-09
1.33452e-14
-5.15012e-09
1.21971e-14
-5.15098e-09
-1.59244e-14
-5.15718e-09
-6.18595e-15
-5.14936e-09
-5.15115e-09
1.32593e-14
-5.15013e-09
1.21113e-14
-5.15098e-09
-1.57949e-14
-5.15715e-09
-6.16827e-15
-5.14937e-09
-5.15116e-09
1.31741e-14
-5.15015e-09
1.20257e-14
-5.15098e-09
-1.56655e-14
-5.15712e-09
-6.15147e-15
-5.14938e-09
-5.15116e-09
1.30896e-14
-5.15016e-09
1.19403e-14
-5.15098e-09
-1.55362e-14
-5.1571e-09
-6.13566e-15
-5.14938e-09
-5.15117e-09
1.3006e-14
-5.15017e-09
1.18554e-14
-5.15098e-09
-1.5407e-14
-5.15707e-09
-6.12091e-15
-5.14939e-09
-5.15117e-09
1.29233e-14
-5.15019e-09
1.17708e-14
-5.15098e-09
-1.5278e-14
-5.15704e-09
-6.10732e-15
-5.1494e-09
-5.15118e-09
1.28417e-14
-5.1502e-09
1.16866e-14
-5.15098e-09
-1.51492e-14
-5.15701e-09
-6.09499e-15
-5.14941e-09
-5.15119e-09
1.27611e-14
-5.15021e-09
1.1603e-14
-5.15097e-09
-1.50207e-14
-5.15699e-09
-6.08401e-15
-5.14942e-09
-5.15119e-09
1.26817e-14
-5.15022e-09
1.15199e-14
-5.15097e-09
-1.48926e-14
-5.15696e-09
-6.07448e-15
-5.14943e-09
-5.1512e-09
1.26036e-14
-5.15024e-09
1.14375e-14
-5.15097e-09
-1.4765e-14
-5.15694e-09
-6.0665e-15
-5.14944e-09
-5.15121e-09
1.25268e-14
-5.15025e-09
1.13557e-14
-5.15097e-09
-1.46378e-14
-5.15691e-09
-6.06019e-15
-5.14945e-09
-5.15121e-09
1.24516e-14
-5.15026e-09
1.12747e-14
-5.15097e-09
-1.45113e-14
-5.15688e-09
-6.05566e-15
-5.14946e-09
-5.15122e-09
1.23779e-14
-5.15027e-09
1.11945e-14
-5.15097e-09
-1.43854e-14
-5.15686e-09
-6.05301e-15
-5.14946e-09
-5.15122e-09
1.2306e-14
-5.15029e-09
1.11152e-14
-5.15097e-09
-1.42602e-14
-5.15683e-09
-6.05236e-15
-5.14947e-09
-5.15123e-09
1.22358e-14
-5.1503e-09
1.10368e-14
-5.15097e-09
-1.41358e-14
-5.15681e-09
-6.05384e-15
-5.14948e-09
-5.15124e-09
1.21675e-14
-5.15031e-09
1.09595e-14
-5.15097e-09
-1.40124e-14
-5.15678e-09
-6.05756e-15
-5.14949e-09
-5.15124e-09
1.21013e-14
-5.15032e-09
1.08833e-14
-5.15096e-09
-1.38899e-14
-5.15676e-09
-6.06364e-15
-5.1495e-09
-5.15125e-09
1.20372e-14
-5.15033e-09
1.08083e-14
-5.15096e-09
-1.37686e-14
-5.15673e-09
-6.0722e-15
-5.1495e-09
-5.15125e-09
1.19753e-14
-5.15035e-09
1.07346e-14
-5.15096e-09
-1.36484e-14
-5.15671e-09
-6.08337e-15
-5.14951e-09
-5.15126e-09
1.19158e-14
-5.15036e-09
1.06622e-14
-5.15096e-09
-1.35294e-14
-5.15668e-09
-6.09728e-15
-5.14952e-09
-5.15127e-09
1.18588e-14
-5.15037e-09
1.05913e-14
-5.15096e-09
-1.34119e-14
-5.15666e-09
-6.11404e-15
-5.14953e-09
-5.15127e-09
1.18044e-14
-5.15038e-09
1.05219e-14
-5.15096e-09
-1.32958e-14
-5.15664e-09
-6.13379e-15
-5.14953e-09
-5.15128e-09
1.17526e-14
-5.15039e-09
1.04542e-14
-5.15096e-09
-1.31813e-14
-5.15661e-09
-6.15662e-15
-5.14954e-09
-5.15128e-09
1.17037e-14
-5.15041e-09
1.03881e-14
-5.15095e-09
-1.30685e-14
-5.15659e-09
-6.18267e-15
-5.14955e-09
-5.15129e-09
1.16576e-14
-5.15042e-09
1.03239e-14
-5.15095e-09
-1.29575e-14
-5.15657e-09
-6.21205e-15
-5.14955e-09
-5.1513e-09
1.16146e-14
-5.15043e-09
1.02615e-14
-5.15095e-09
-1.28485e-14
-5.15654e-09
-6.24486e-15
-5.14956e-09
-5.1513e-09
1.15747e-14
-5.15044e-09
1.02011e-14
-5.15095e-09
-1.27414e-14
-5.15652e-09
-6.28121e-15
-5.14957e-09
-5.15131e-09
1.1538e-14
-5.15045e-09
1.01428e-14
-5.15095e-09
-1.26366e-14
-5.1565e-09
-6.32119e-15
-5.14957e-09
-5.15132e-09
1.15046e-14
-5.15046e-09
1.00867e-14
-5.15095e-09
-1.25341e-14
-5.15647e-09
-6.36489e-15
-5.14958e-09
-5.15132e-09
1.14745e-14
-5.15048e-09
1.00328e-14
-5.15095e-09
-1.2434e-14
-5.15645e-09
-6.41239e-15
-5.14959e-09
-5.15133e-09
1.14479e-14
-5.15049e-09
9.98132e-15
-5.15095e-09
-1.23365e-14
-5.15643e-09
-6.46375e-15
-5.14959e-09
-5.15133e-09
1.14248e-14
-5.1505e-09
9.93226e-15
-5.15094e-09
-1.22418e-14
-5.15641e-09
-6.51903e-15
-5.1496e-09
-5.15134e-09
1.14053e-14
-5.15051e-09
9.88577e-15
-5.15094e-09
-1.21499e-14
-5.15639e-09
-6.57829e-15
-5.1496e-09
-5.15135e-09
1.13895e-14
-5.15052e-09
9.84194e-15
-5.15094e-09
-1.20612e-14
-5.15636e-09
-6.64155e-15
-5.14961e-09
-5.15135e-09
1.13773e-14
-5.15053e-09
9.80088e-15
-5.15094e-09
-1.19758e-14
-5.15634e-09
-6.70883e-15
-5.14961e-09
-5.15136e-09
1.13688e-14
-5.15054e-09
9.76271e-15
-5.15094e-09
-1.18938e-14
-5.15632e-09
-6.78014e-15
-5.14962e-09
-5.15137e-09
1.13641e-14
-5.15055e-09
9.72756e-15
-5.15094e-09
-1.18154e-14
-5.1563e-09
-6.85547e-15
-5.14962e-09
-5.15137e-09
1.13631e-14
-5.15057e-09
9.69555e-15
-5.15093e-09
-1.1741e-14
-5.15628e-09
-6.9348e-15
-5.14963e-09
-5.15138e-09
1.1366e-14
-5.15058e-09
9.66685e-15
-5.15093e-09
-1.16706e-14
-5.15626e-09
-7.01809e-15
-5.14963e-09
-5.15139e-09
1.13727e-14
-5.15059e-09
9.6416e-15
-5.15093e-09
-1.16046e-14
-5.15623e-09
-7.1053e-15
-5.14964e-09
-5.1514e-09
1.13832e-14
-5.1506e-09
9.61999e-15
-5.15093e-09
-1.15432e-14
-5.15621e-09
-7.19634e-15
-5.14964e-09
-5.1514e-09
1.13976e-14
-5.15061e-09
9.6022e-15
-5.15093e-09
-1.14866e-14
-5.15619e-09
-7.29115e-15
-5.14965e-09
-5.15141e-09
1.14159e-14
-5.15062e-09
9.58846e-15