/*--------------------------------*- C++ -*----------------------------------*\
| =========                 |                                                 |
| \\      /  F ield         | OpenFOAM: The Open Source CFD Toolbox           |
|  \\    /   O peration     | Version:  2.4.0                                 |
|   \\  /    A nd           | Web:      www.OpenFOAM.org                      |
|    \\/     M anipulation  |                                                 |
\*---------------------------------------------------------------------------*/
FoamFile
{
    version     2.0;
    format      ascii;
    class       volVectorField;
    location    "0.004";
    object      U;
}
// * * * * * * * * * * * * * * * * * * * * * * * * * * * * * * * * * * * * * //

dimensions      [0 1 -1 0 0 0 0];

internalField   nonuniform List<vector> 
1500
(
(1.70937e-07 -0.000132462 0)
(7.62668e-07 -0.000134941 0)
(-2.74174e-07 -0.000140321 0)
(-5.84687e-07 -0.000132295 0)
(2.56571e-07 -0.00013422 0)
(4.97693e-07 0.00048945 0)
(2.22332e-06 0.000498117 0)
(-8.00904e-07 0.000516972 0)
(-1.7036e-06 0.000488873 0)
(7.49593e-07 0.000495593 0)
(1.17285e-06 -0.00336168 0)
(5.02396e-06 -0.00336968 0)
(-1.79578e-06 -0.00338757 0)
(-3.85795e-06 -0.00336113 0)
(1.65121e-06 -0.00336736 0)
(2.43104e-06 -0.0304574 0)
(1.20232e-05 -0.0304586 0)
(-4.36513e-06 -0.0304605 0)
(-9.2295e-06 -0.0304573 0)
(4.38795e-06 -0.0304583 0)
(4.80742e-06 -0.0312052 0)
(2.70509e-05 -0.0312969 0)
(-1.0083e-05 -0.031496 0)
(-2.05886e-05 -0.031199 0)
(1.05441e-05 -0.0312703 0)
(7.19527e-06 -0.0264681 0)
(4.18056e-05 -0.0265106 0)
(-1.56541e-05 -0.0266024 0)
(-3.17581e-05 -0.0264652 0)
(1.65172e-05 -0.0264983 0)
(9.42628e-06 -0.0254277 0)
(5.57384e-05 -0.0254613 0)
(-2.08923e-05 -0.0255344 0)
(-4.23109e-05 -0.0254253 0)
(2.21725e-05 -0.0254516 0)
(1.14562e-05 -0.0255329 0)
(6.86978e-05 -0.0255664 0)
(-2.5745e-05 -0.0256398 0)
(-5.21289e-05 -0.0255304 0)
(2.7472e-05 -0.0255569 0)
(1.32667e-05 -0.0256964 0)
(8.06163e-05 -0.025731 0)
(-3.01882e-05 -0.0258071 0)
(-6.11592e-05 -0.0256938 0)
(3.23987e-05 -0.0257212 0)
(1.48537e-05 -0.0257373 0)
(9.14724e-05 -0.0257719 0)
(-3.42144e-05 -0.0258486 0)
(-6.93844e-05 -0.0257345 0)
(3.69468e-05 -0.0257622 0)
(1.62141e-05 -0.0257328 0)
(0.00010125 -0.025767 0)
(-3.7818e-05 -0.0258434 0)
(-7.67911e-05 -0.02573 0)
(4.11125e-05 -0.0257575 0)
(1.73458e-05 -0.0257269 0)
(0.000109937 -0.0257606 0)
(-4.09962e-05 -0.0258366 0)
(-8.33703e-05 -0.0257239 0)
(4.48936e-05 -0.0257513 0)
(1.82489e-05 -0.0257256 0)
(0.000117534 -0.0257589 0)
(-4.37498e-05 -0.0258345 0)
(-8.91195e-05 -0.0257226 0)
(4.82906e-05 -0.0257499 0)
(1.89259e-05 -0.0257262 0)
(0.000124047 -0.0257589 0)
(-4.60829e-05 -0.0258342 0)
(-9.40439e-05 -0.025723 0)
(5.13069e-05 -0.0257502 0)
(1.93816e-05 -0.0257268 0)
(0.000129494 -0.025759 0)
(-4.80039e-05 -0.0258339 0)
(-9.8156e-05 -0.0257235 0)
(5.39488e-05 -0.0257505 0)
(1.96228e-05 -0.0257272 0)
(0.000133901 -0.0257589 0)
(-4.95242e-05 -0.0258334 0)
(-0.000101475 -0.0257238 0)
(5.62252e-05 -0.0257507 0)
(1.96583e-05 -0.0257275 0)
(0.000137303 -0.0257587 0)
(-5.06587e-05 -0.0258328 0)
(-0.000104027 -0.0257241 0)
(5.81477e-05 -0.0257508 0)
(1.94985e-05 -0.0257279 0)
(0.000139743 -0.0257586 0)
(-5.1425e-05 -0.0258322 0)
(-0.000105845 -0.0257243 0)
(5.97302e-05 -0.0257509 0)
(1.91554e-05 -0.0257283 0)
(0.000141271 -0.0257584 0)
(-5.18433e-05 -0.0258316 0)
(-0.000106964 -0.0257246 0)
(6.09888e-05 -0.025751 0)
(1.86425e-05 -0.0257287 0)
(0.000141942 -0.0257582 0)
(-5.19361e-05 -0.025831 0)
(-0.000107428 -0.0257249 0)
(6.19416e-05 -0.0257511 0)
(1.79741e-05 -0.0257291 0)
(0.000141816 -0.025758 0)
(-5.17279e-05 -0.0258304 0)
(-0.000107283 -0.0257252 0)
(6.2608e-05 -0.0257512 0)
(1.71654e-05 -0.0257295 0)
(0.000140959 -0.0257579 0)
(-5.12443e-05 -0.0258298 0)
(-0.000106577 -0.0257254 0)
(6.30091e-05 -0.0257513 0)
(1.62322e-05 -0.0257299 0)
(0.000139439 -0.0257577 0)
(-5.05124e-05 -0.0258292 0)
(-0.000105362 -0.0257257 0)
(6.31668e-05 -0.0257514 0)
(1.51909e-05 -0.0257303 0)
(0.000137326 -0.0257575 0)
(-4.95597e-05 -0.0258286 0)
(-0.000103693 -0.025726 0)
(6.31037e-05 -0.0257515 0)
(1.40575e-05 -0.0257306 0)
(0.00013469 -0.0257574 0)
(-4.84139e-05 -0.025828 0)
(-0.000101624 -0.0257263 0)
(6.28428e-05 -0.0257516 0)
(1.28485e-05 -0.025731 0)
(0.000131605 -0.0257572 0)
(-4.71029e-05 -0.0258274 0)
(-9.92098e-05 -0.0257266 0)
(6.24071e-05 -0.0257517 0)
(1.15798e-05 -0.0257314 0)
(0.00012814 -0.0257571 0)
(-4.5654e-05 -0.0258268 0)
(-9.65042e-05 -0.0257268 0)
(6.18195e-05 -0.0257518 0)
(1.02668e-05 -0.0257317 0)
(0.000124365 -0.0257569 0)
(-4.40937e-05 -0.0258263 0)
(-9.35605e-05 -0.0257271 0)
(6.11022e-05 -0.0257519 0)
(8.92427e-06 -0.0257321 0)
(0.000120345 -0.0257568 0)
(-4.24474e-05 -0.0258257 0)
(-9.043e-05 -0.0257274 0)
(6.02767e-05 -0.025752 0)
(7.56629e-06 -0.0257324 0)
(0.000116144 -0.0257567 0)
(-4.07392e-05 -0.0258252 0)
(-8.71615e-05 -0.0257276 0)
(5.93634e-05 -0.0257521 0)
(6.20592e-06 -0.0257327 0)
(0.000111823 -0.0257565 0)
(-3.89918e-05 -0.0258247 0)
(-8.3801e-05 -0.0257279 0)
(5.83818e-05 -0.0257521 0)
(4.85519e-06 -0.025733 0)
(0.000107435 -0.0257564 0)
(-3.72259e-05 -0.0258242 0)
(-8.03913e-05 -0.0257281 0)
(5.73495e-05 -0.0257522 0)
(3.52504e-06 -0.0257333 0)
(0.000103031 -0.0257563 0)
(-3.54604e-05 -0.0258238 0)
(-7.69717e-05 -0.0257284 0)
(5.62832e-05 -0.0257523 0)
(2.22523e-06 -0.0257335 0)
(9.86579e-05 -0.0257562 0)
(-3.37124e-05 -0.0258233 0)
(-7.35775e-05 -0.0257286 0)
(5.51974e-05 -0.0257523 0)
(9.64355e-07 -0.0257338 0)
(9.43547e-05 -0.0257561 0)
(-3.19968e-05 -0.0258229 0)
(-7.024e-05 -0.0257288 0)
(5.41055e-05 -0.0257524 0)
(-2.50233e-07 -0.025734 0)
(9.01569e-05 -0.0257561 0)
(-3.03266e-05 -0.0258224 0)
(-6.69869e-05 -0.025729 0)
(5.30189e-05 -0.0257524 0)
(-1.41236e-06 -0.0257342 0)
(8.60943e-05 -0.025756 0)
(-2.87126e-05 -0.025822 0)
(-6.38413e-05 -0.0257292 0)
(5.19475e-05 -0.0257524 0)
(-2.51701e-06 -0.0257345 0)
(8.21916e-05 -0.0257559 0)
(-2.71638e-05 -0.0258217 0)
(-6.08227e-05 -0.0257294 0)
(5.08995e-05 -0.0257525 0)
(-3.5603e-06 -0.0257347 0)
(7.84685e-05 -0.0257558 0)
(-2.56873e-05 -0.0258213 0)
(-5.79466e-05 -0.0257296 0)
(4.98816e-05 -0.0257525 0)
(-4.5394e-06 -0.0257349 0)
(7.49401e-05 -0.0257558 0)
(-2.42883e-05 -0.025821 0)
(-5.5225e-05 -0.0257298 0)
(4.8899e-05 -0.0257525 0)
(-5.45248e-06 -0.025735 0)
(7.16171e-05 -0.0257557 0)
(-2.29705e-05 -0.0258206 0)
(-5.26664e-05 -0.02573 0)
(4.79556e-05 -0.0257525 0)
(-6.2986e-06 -0.0257352 0)
(6.85061e-05 -0.0257557 0)
(-2.17361e-05 -0.0258203 0)
(-5.02761e-05 -0.0257302 0)
(4.7054e-05 -0.0257525 0)
(-7.07765e-06 -0.0257354 0)
(6.561e-05 -0.0257557 0)
(-2.05859e-05 -0.02582 0)
(-4.80567e-05 -0.0257304 0)
(4.61958e-05 -0.0257525 0)
(-7.79027e-06 -0.0257355 0)
(6.29288e-05 -0.0257556 0)
(-1.95193e-05 -0.0258197 0)
(-4.6008e-05 -0.0257306 0)
(4.53815e-05 -0.0257525 0)
(-8.43771e-06 -0.0257357 0)
(6.04593e-05 -0.0257556 0)
(-1.85352e-05 -0.0258194 0)
(-4.41279e-05 -0.0257307 0)
(4.46109e-05 -0.0257525 0)
(-9.02178e-06 -0.0257358 0)
(5.81962e-05 -0.0257556 0)
(-1.7631e-05 -0.0258191 0)
(-4.24122e-05 -0.0257309 0)
(4.38829e-05 -0.0257525 0)
(-9.54475e-06 -0.0257359 0)
(5.6132e-05 -0.0257555 0)
(-1.68039e-05 -0.0258189 0)
(-4.08552e-05 -0.0257311 0)
(4.3196e-05 -0.0257525 0)
(-1.00093e-05 -0.0257361 0)
(5.42577e-05 -0.0257555 0)
(-1.60502e-05 -0.0258186 0)
(-3.94498e-05 -0.0257312 0)
(4.25482e-05 -0.0257525 0)
(-1.04182e-05 -0.0257362 0)
(5.25631e-05 -0.0257555 0)
(-1.53659e-05 -0.0258184 0)
(-3.81881e-05 -0.0257314 0)
(4.19372e-05 -0.0257525 0)
(-1.07748e-05 -0.0257363 0)
(5.10373e-05 -0.0257555 0)
(-1.47468e-05 -0.0258181 0)
(-3.70614e-05 -0.0257315 0)
(4.13605e-05 -0.0257525 0)
(-1.10821e-05 -0.0257364 0)
(4.96684e-05 -0.0257555 0)
(-1.41884e-05 -0.0258179 0)
(-3.60605e-05 -0.0257317 0)
(4.08153e-05 -0.0257525 0)
(-1.13437e-05 -0.0257365 0)
(4.84447e-05 -0.0257555 0)
(-1.36861e-05 -0.0258176 0)
(-3.51759e-05 -0.0257318 0)
(4.0299e-05 -0.0257525 0)
(-1.15629e-05 -0.0257366 0)
(4.73541e-05 -0.0257555 0)
(-1.32353e-05 -0.0258174 0)
(-3.43981e-05 -0.025732 0)
(3.98087e-05 -0.0257525 0)
(-1.17429e-05 -0.0257367 0)
(4.63849e-05 -0.0257555 0)
(-1.28315e-05 -0.0258172 0)
(-3.37178e-05 -0.0257321 0)
(3.93419e-05 -0.0257524 0)
(-1.18872e-05 -0.0257368 0)
(4.55256e-05 -0.0257555 0)
(-1.24704e-05 -0.025817 0)
(-3.31258e-05 -0.0257323 0)
(3.88959e-05 -0.0257524 0)
(-1.19987e-05 -0.0257369 0)
(4.47651e-05 -0.0257555 0)
(-1.21479e-05 -0.0258168 0)
(-3.26133e-05 -0.0257324 0)
(3.84685e-05 -0.0257524 0)
(-1.20807e-05 -0.025737 0)
(4.40929e-05 -0.0257555 0)
(-1.18598e-05 -0.0258165 0)
(-3.21718e-05 -0.0257326 0)
(3.80574e-05 -0.0257524 0)
(-1.2136e-05 -0.0257371 0)
(4.34994e-05 -0.0257555 0)
(-1.16027e-05 -0.0258163 0)
(-3.17934e-05 -0.0257327 0)
(3.76605e-05 -0.0257524 0)
(-1.21673e-05 -0.0257372 0)
(4.29752e-05 -0.0257555 0)
(-1.13729e-05 -0.0258161 0)
(-3.14708e-05 -0.0257328 0)
(3.7276e-05 -0.0257524 0)
(-1.21772e-05 -0.0257372 0)
(4.25121e-05 -0.0257555 0)
(-1.11674e-05 -0.0258159 0)
(-3.11972e-05 -0.025733 0)
(3.69023e-05 -0.0257524 0)
(-1.21681e-05 -0.0257373 0)
(4.21023e-05 -0.0257555 0)
(-1.09832e-05 -0.0258157 0)
(-3.09663e-05 -0.0257331 0)
(3.65379e-05 -0.0257523 0)
(-1.21422e-05 -0.0257374 0)
(4.17388e-05 -0.0257555 0)
(-1.08178e-05 -0.0258155 0)
(-3.07724e-05 -0.0257332 0)
(3.61817e-05 -0.0257523 0)
(-1.21015e-05 -0.0257375 0)
(4.14154e-05 -0.0257555 0)
(-1.06686e-05 -0.0258153 0)
(-3.06104e-05 -0.0257334 0)
(3.58324e-05 -0.0257523 0)
(-1.20478e-05 -0.0257376 0)
(4.11265e-05 -0.0257555 0)
(-1.05337e-05 -0.0258151 0)
(-3.04757e-05 -0.0257335 0)
(3.54892e-05 -0.0257523 0)
(-1.19829e-05 -0.0257377 0)
(4.0867e-05 -0.0257555 0)
(-1.04112e-05 -0.0258149 0)
(-3.03642e-05 -0.0257336 0)
(3.51513e-05 -0.0257523 0)
(-1.19082e-05 -0.0257377 0)
(4.06326e-05 -0.0257555 0)
(-1.02992e-05 -0.0258147 0)
(-3.02723e-05 -0.0257338 0)
(3.48181e-05 -0.0257523 0)
(-1.18252e-05 -0.0257378 0)
(4.04194e-05 -0.0257555 0)
(-1.01965e-05 -0.0258145 0)
(-3.01968e-05 -0.0257339 0)
(3.44891e-05 -0.0257523 0)
(-1.17351e-05 -0.0257379 0)
(4.0224e-05 -0.0257555 0)
(-1.01016e-05 -0.0258143 0)
(-3.01349e-05 -0.025734 0)
(3.41637e-05 -0.0257522 0)
(-1.16389e-05 -0.025738 0)
(4.00435e-05 -0.0257555 0)
(-1.00135e-05 -0.0258141 0)
(-3.00841e-05 -0.0257341 0)
(3.38417e-05 -0.0257522 0)
(-1.15376e-05 -0.0257381 0)
(3.98754e-05 -0.0257555 0)
(-9.93119e-06 -0.0258139 0)
(-3.00424e-05 -0.0257343 0)
(3.35228e-05 -0.0257522 0)
(-1.14321e-05 -0.0257382 0)
(3.97175e-05 -0.0257555 0)
(-9.85381e-06 -0.0258137 0)
(-3.00079e-05 -0.0257344 0)
(3.32069e-05 -0.0257522 0)
(-1.13232e-05 -0.0257382 0)
(3.95679e-05 -0.0257555 0)
(-9.78064e-06 -0.0258135 0)
(-2.9979e-05 -0.0257345 0)
(3.28936e-05 -0.0257522 0)
(-1.12115e-05 -0.0257383 0)
(3.94251e-05 -0.0257555 0)
(-9.71104e-06 -0.0258133 0)
(-2.99545e-05 -0.0257347 0)
(3.25831e-05 -0.0257522 0)
(-1.10976e-05 -0.0257384 0)
(3.92877e-05 -0.0257555 0)
(-9.64448e-06 -0.025813 0)
(-2.99332e-05 -0.0257348 0)
(3.2275e-05 -0.0257522 0)
(-1.0982e-05 -0.0257385 0)
(3.91546e-05 -0.0257555 0)
(-9.58048e-06 -0.0258128 0)
(-2.99141e-05 -0.0257349 0)
(3.19695e-05 -0.0257522 0)
(-1.08652e-05 -0.0257386 0)
(3.90247e-05 -0.0257555 0)
(-9.51867e-06 -0.0258126 0)
(-2.98965e-05 -0.025735 0)
(3.16664e-05 -0.0257522 0)
(-1.07475e-05 -0.0257387 0)
(3.88974e-05 -0.0257555 0)
(-9.4587e-06 -0.0258124 0)
(-2.98795e-05 -0.0257351 0)
(3.13658e-05 -0.0257522 0)
(-1.06292e-05 -0.0257388 0)
(3.87718e-05 -0.0257555 0)
(-9.40028e-06 -0.0258122 0)
(-2.98627e-05 -0.0257353 0)
(3.10675e-05 -0.0257522 0)
(-1.05107e-05 -0.0257388 0)
(3.86475e-05 -0.0257555 0)
(-9.34317e-06 -0.025812 0)
(-2.98455e-05 -0.0257354 0)
(3.07717e-05 -0.0257522 0)
(-1.03923e-05 -0.0257389 0)
(3.8524e-05 -0.0257555 0)
(-9.28716e-06 -0.0258118 0)
(-2.98276e-05 -0.0257355 0)
(3.04783e-05 -0.0257522 0)
(-1.0274e-05 -0.025739 0)
(3.84008e-05 -0.0257555 0)
(-9.23207e-06 -0.0258116 0)
(-2.98087e-05 -0.0257356 0)
(3.01874e-05 -0.0257522 0)
(-1.01561e-05 -0.0257391 0)
(3.82777e-05 -0.0257555 0)
(-9.17775e-06 -0.0258114 0)
(-2.97883e-05 -0.0257358 0)
(2.98988e-05 -0.0257522 0)
(-1.00387e-05 -0.0257392 0)
(3.81544e-05 -0.0257555 0)
(-9.12408e-06 -0.0258112 0)
(-2.97664e-05 -0.0257359 0)
(2.96126e-05 -0.0257522 0)
(-9.922e-06 -0.0257393 0)
(3.80306e-05 -0.0257555 0)
(-9.07094e-06 -0.025811 0)
(-2.97427e-05 -0.025736 0)
(2.93289e-05 -0.0257522 0)
(-9.80605e-06 -0.0257394 0)
(3.79062e-05 -0.0257555 0)
(-9.01825e-06 -0.0258108 0)
(-2.97171e-05 -0.0257361 0)
(2.90476e-05 -0.0257522 0)
(-9.69097e-06 -0.0257395 0)
(3.7781e-05 -0.0257555 0)
(-8.96592e-06 -0.0258106 0)
(-2.96894e-05 -0.0257362 0)
(2.87687e-05 -0.0257522 0)
(-9.57681e-06 -0.0257395 0)
(3.76549e-05 -0.0257555 0)
(-8.91389e-06 -0.0258103 0)
(-2.96595e-05 -0.0257363 0)
(2.84922e-05 -0.0257522 0)
(-9.46363e-06 -0.0257396 0)
(3.75278e-05 -0.0257555 0)
(-8.8621e-06 -0.0258101 0)
(-2.96274e-05 -0.0257365 0)
(2.82181e-05 -0.0257522 0)
(-9.3515e-06 -0.0257397 0)
(3.73996e-05 -0.0257555 0)
(-8.81051e-06 -0.0258099 0)
(-2.9593e-05 -0.0257366 0)
(2.79464e-05 -0.0257522 0)
(-9.24045e-06 -0.0257398 0)
(3.72702e-05 -0.0257555 0)
(-8.75907e-06 -0.0258097 0)
(-2.95563e-05 -0.0257367 0)
(2.76771e-05 -0.0257522 0)
(-9.1305e-06 -0.0257399 0)
(3.71396e-05 -0.0257555 0)
(-8.70775e-06 -0.0258095 0)
(-2.95172e-05 -0.0257368 0)
(2.74102e-05 -0.0257522 0)
(-9.0217e-06 -0.02574 0)
(3.70078e-05 -0.0257555 0)
(-8.65652e-06 -0.0258093 0)
(-2.94756e-05 -0.0257369 0)
(2.71456e-05 -0.0257522 0)
(-8.91404e-06 -0.0257401 0)
(3.68747e-05 -0.0257555 0)
(-8.60537e-06 -0.0258091 0)
(-2.94316e-05 -0.025737 0)
(2.68835e-05 -0.0257522 0)
(-8.80756e-06 -0.0257402 0)
(3.67403e-05 -0.0257555 0)
(-8.55426e-06 -0.0258089 0)
(-2.93852e-05 -0.0257371 0)
(2.66236e-05 -0.0257522 0)
(-8.70226e-06 -0.0257403 0)
(3.66046e-05 -0.0257555 0)
(-8.50319e-06 -0.0258087 0)
(-2.93364e-05 -0.0257372 0)
(2.63662e-05 -0.0257522 0)
(-8.59815e-06 -0.0257403 0)
(3.64676e-05 -0.0257555 0)
(-8.45214e-06 -0.0258085 0)
(-2.92851e-05 -0.0257374 0)
(2.6111e-05 -0.0257522 0)
(-8.49523e-06 -0.0257404 0)
(3.63292e-05 -0.0257555 0)
(-8.4011e-06 -0.0258082 0)
(-2.92313e-05 -0.0257375 0)
(2.58581e-05 -0.0257522 0)
(-8.3935e-06 -0.0257405 0)
(3.61895e-05 -0.0257555 0)
(-8.35006e-06 -0.025808 0)
(-2.91752e-05 -0.0257376 0)
(2.56076e-05 -0.0257523 0)
(-8.29296e-06 -0.0257406 0)
(3.60485e-05 -0.0257555 0)
(-8.29902e-06 -0.0258078 0)
(-2.91166e-05 -0.0257377 0)
(2.53593e-05 -0.0257523 0)
(-8.19362e-06 -0.0257407 0)
(3.59061e-05 -0.0257555 0)
(-8.24797e-06 -0.0258076 0)
(-2.90557e-05 -0.0257378 0)
(2.51133e-05 -0.0257523 0)
(-8.09546e-06 -0.0257408 0)
(3.57624e-05 -0.0257555 0)
(-8.1969e-06 -0.0258074 0)
(-2.89923e-05 -0.0257379 0)
(2.48696e-05 -0.0257523 0)
(-7.99848e-06 -0.0257409 0)
(3.56174e-05 -0.0257555 0)
(-8.14582e-06 -0.0258072 0)
(-2.89266e-05 -0.025738 0)
(2.4628e-05 -0.0257523 0)
(-7.90268e-06 -0.025741 0)
(3.54711e-05 -0.0257555 0)
(-8.09473e-06 -0.025807 0)
(-2.88586e-05 -0.0257381 0)
(2.43887e-05 -0.0257523 0)
(-7.80805e-06 -0.0257411 0)
(3.53235e-05 -0.0257555 0)
(-8.04362e-06 -0.0258068 0)
(-2.87883e-05 -0.0257382 0)
(2.41517e-05 -0.0257523 0)
(-7.71459e-06 -0.0257412 0)
(3.51746e-05 -0.0257555 0)
(-7.99249e-06 -0.0258065 0)
(-2.87157e-05 -0.0257383 0)
(2.39168e-05 -0.0257524 0)
(-7.62227e-06 -0.0257413 0)
(3.50244e-05 -0.0257555 0)
(-7.94135e-06 -0.0258063 0)
(-2.86408e-05 -0.0257384 0)
(2.36841e-05 -0.0257524 0)
(-7.53111e-06 -0.0257414 0)
(3.4873e-05 -0.0257555 0)
(-7.89019e-06 -0.0258061 0)
(-2.85637e-05 -0.0257385 0)
(2.34535e-05 -0.0257524 0)
(-7.44108e-06 -0.0257415 0)
(3.47203e-05 -0.0257555 0)
(-7.83902e-06 -0.0258059 0)
(-2.84844e-05 -0.0257386 0)
(2.32251e-05 -0.0257524 0)
(-7.35218e-06 -0.0257415 0)
(3.45664e-05 -0.0257555 0)
(-7.78784e-06 -0.0258057 0)
(-2.84029e-05 -0.0257387 0)
(2.29988e-05 -0.0257524 0)
(-7.26441e-06 -0.0257416 0)
(3.44113e-05 -0.0257555 0)
(-7.73666e-06 -0.0258055 0)
(-2.83193e-05 -0.0257388 0)
(2.27746e-05 -0.0257525 0)
(-7.17774e-06 -0.0257417 0)
(3.4255e-05 -0.0257555 0)
(-7.68546e-06 -0.0258053 0)
(-2.82335e-05 -0.025739 0)
(2.25526e-05 -0.0257525 0)
(-7.09218e-06 -0.0257418 0)
(3.40976e-05 -0.0257555 0)
(-7.63427e-06 -0.0258051 0)
(-2.81456e-05 -0.0257391 0)
(2.23326e-05 -0.0257525 0)
(-7.0077e-06 -0.0257419 0)
(3.39389e-05 -0.0257555 0)
(-7.58308e-06 -0.0258048 0)
(-2.80557e-05 -0.0257392 0)
(2.21147e-05 -0.0257525 0)
(-6.92431e-06 -0.025742 0)
(3.37791e-05 -0.0257555 0)
(-7.53189e-06 -0.0258046 0)
(-2.79638e-05 -0.0257393 0)
(2.18988e-05 -0.0257525 0)
(-6.84199e-06 -0.0257421 0)
(3.36182e-05 -0.0257555 0)
(-7.4807e-06 -0.0258044 0)
(-2.78698e-05 -0.0257394 0)
(2.16849e-05 -0.0257526 0)
(-6.76074e-06 -0.0257422 0)
(3.34562e-05 -0.0257555 0)
(-7.42953e-06 -0.0258042 0)
(-2.77739e-05 -0.0257395 0)
(2.14731e-05 -0.0257526 0)
(-6.68054e-06 -0.0257423 0)
(3.32931e-05 -0.0257555 0)
(-7.37837e-06 -0.025804 0)
(-2.76761e-05 -0.0257396 0)
(2.12632e-05 -0.0257526 0)
(-6.60138e-06 -0.0257424 0)
(3.3129e-05 -0.0257555 0)
(-7.32723e-06 -0.0258038 0)
(-2.75763e-05 -0.0257397 0)
(2.10554e-05 -0.0257526 0)
(-6.52325e-06 -0.0257425 0)
(3.29637e-05 -0.0257555 0)
(-7.27611e-06 -0.0258036 0)
(-2.74746e-05 -0.0257397 0)
(2.08495e-05 -0.0257526 0)
(-6.44614e-06 -0.0257426 0)
(3.27975e-05 -0.0257555 0)
(-7.225e-06 -0.0258034 0)
(-2.73711e-05 -0.0257398 0)
(2.06455e-05 -0.0257527 0)
(-6.37005e-06 -0.0257427 0)
(3.26302e-05 -0.0257555 0)
(-7.17393e-06 -0.0258032 0)
(-2.72658e-05 -0.0257399 0)
(2.04435e-05 -0.0257527 0)
(-6.29496e-06 -0.0257428 0)
(3.24619e-05 -0.0257555 0)
(-7.12288e-06 -0.0258029 0)
(-2.71587e-05 -0.02574 0)
(2.02434e-05 -0.0257527 0)
(-6.22086e-06 -0.0257429 0)
(3.22926e-05 -0.0257555 0)
(-7.07187e-06 -0.0258027 0)
(-2.70498e-05 -0.0257401 0)
(2.00452e-05 -0.0257527 0)
(-6.14774e-06 -0.0257429 0)
(3.21224e-05 -0.0257555 0)
(-7.02089e-06 -0.0258025 0)
(-2.69391e-05 -0.0257402 0)
(1.98488e-05 -0.0257528 0)
(-6.07559e-06 -0.025743 0)
(3.19512e-05 -0.0257555 0)
(-6.96996e-06 -0.0258023 0)
(-2.68268e-05 -0.0257403 0)
(1.96543e-05 -0.0257528 0)
(-6.0044e-06 -0.0257431 0)
(3.17791e-05 -0.0257555 0)
(-6.91906e-06 -0.0258021 0)
(-2.67128e-05 -0.0257404 0)
(1.94617e-05 -0.0257528 0)
(-5.93416e-06 -0.0257432 0)
(3.16061e-05 -0.0257554 0)
(-6.86821e-06 -0.0258019 0)
(-2.65971e-05 -0.0257405 0)
(1.92709e-05 -0.0257529 0)
(-5.86486e-06 -0.0257433 0)
(3.14322e-05 -0.0257554 0)
(-6.8174e-06 -0.0258017 0)
(-2.64799e-05 -0.0257406 0)
(1.90818e-05 -0.0257529 0)
(-5.79649e-06 -0.0257434 0)
(3.12574e-05 -0.0257554 0)
(-6.76665e-06 -0.0258015 0)
(-2.6361e-05 -0.0257407 0)
(1.88946e-05 -0.0257529 0)
(-5.72903e-06 -0.0257435 0)
(3.10818e-05 -0.0257554 0)
(-6.71595e-06 -0.0258013 0)
(-2.62406e-05 -0.0257408 0)
(1.87092e-05 -0.0257529 0)
(-5.66248e-06 -0.0257436 0)
(3.09054e-05 -0.0257554 0)
(-6.6653e-06 -0.0258011 0)
(-2.61187e-05 -0.0257409 0)
(1.85255e-05 -0.025753 0)
(-5.59683e-06 -0.0257437 0)
(3.07281e-05 -0.0257554 0)
(-6.61471e-06 -0.0258009 0)
(-2.59953e-05 -0.025741 0)
(1.83435e-05 -0.025753 0)
(-5.53206e-06 -0.0257438 0)
(3.055e-05 -0.0257554 0)
(-6.56419e-06 -0.0258006 0)
(-2.58704e-05 -0.0257411 0)
(1.81633e-05 -0.025753 0)
(-5.46816e-06 -0.0257439 0)
(3.03712e-05 -0.0257554 0)
(-6.51373e-06 -0.0258004 0)
(-2.5744e-05 -0.0257412 0)
(1.79847e-05 -0.0257531 0)
(-5.40513e-06 -0.025744 0)
(3.01917e-05 -0.0257554 0)
(-6.46333e-06 -0.0258002 0)
(-2.56163e-05 -0.0257412 0)
(1.78078e-05 -0.0257531 0)
(-5.34294e-06 -0.0257441 0)
(3.00114e-05 -0.0257554 0)
(-6.413e-06 -0.0258 0)
(-2.54872e-05 -0.0257413 0)
(1.76326e-05 -0.0257531 0)
(-5.2816e-06 -0.0257442 0)
(2.98303e-05 -0.0257554 0)
(-6.36274e-06 -0.0257998 0)
(-2.53567e-05 -0.0257414 0)
(1.74591e-05 -0.0257531 0)
(-5.22108e-06 -0.0257443 0)
(2.96486e-05 -0.0257554 0)
(-6.31256e-06 -0.0257996 0)
(-2.52249e-05 -0.0257415 0)
(1.72871e-05 -0.0257532 0)
(-5.16137e-06 -0.0257443 0)
(2.94662e-05 -0.0257554 0)
(-6.26245e-06 -0.0257994 0)
(-2.50918e-05 -0.0257416 0)
(1.71168e-05 -0.0257532 0)
(-5.10247e-06 -0.0257444 0)
(2.92832e-05 -0.0257554 0)
(-6.21242e-06 -0.0257992 0)
(-2.49575e-05 -0.0257417 0)
(1.6948e-05 -0.0257532 0)
(-5.04436e-06 -0.0257445 0)
(2.90995e-05 -0.0257554 0)
(-6.16247e-06 -0.025799 0)
(-2.48219e-05 -0.0257418 0)
(1.67809e-05 -0.0257533 0)
(-4.98703e-06 -0.0257446 0)
(2.89152e-05 -0.0257554 0)
(-6.1126e-06 -0.0257988 0)
(-2.46851e-05 -0.0257419 0)
(1.66152e-05 -0.0257533 0)
(-4.93047e-06 -0.0257447 0)
(2.87304e-05 -0.0257554 0)
(-6.06282e-06 -0.0257986 0)
(-2.45471e-05 -0.0257419 0)
(1.64511e-05 -0.0257533 0)
(-4.87466e-06 -0.0257448 0)
(2.85449e-05 -0.0257554 0)
(-6.01312e-06 -0.0257984 0)
(-2.4408e-05 -0.025742 0)
(1.62886e-05 -0.0257534 0)
(-4.81959e-06 -0.0257449 0)
(2.83589e-05 -0.0257553 0)
(-5.96351e-06 -0.0257982 0)
(-2.42678e-05 -0.0257421 0)
(1.61275e-05 -0.0257534 0)
(-4.76526e-06 -0.025745 0)
(2.81723e-05 -0.0257553 0)
(-5.91399e-06 -0.025798 0)
(-2.41265e-05 -0.0257422 0)
(1.59678e-05 -0.0257534 0)
(-4.71164e-06 -0.0257451 0)
(2.79853e-05 -0.0257553 0)
(-5.86456e-06 -0.0257978 0)
(-2.39841e-05 -0.0257423 0)
(1.58097e-05 -0.0257535 0)
(-4.65872e-06 -0.0257452 0)
(2.77977e-05 -0.0257553 0)
(-5.81523e-06 -0.0257976 0)
(-2.38407e-05 -0.0257424 0)
(1.56529e-05 -0.0257535 0)
(-4.6065e-06 -0.0257453 0)
(2.76097e-05 -0.0257553 0)
(-5.76599e-06 -0.0257974 0)
(-2.36962e-05 -0.0257424 0)
(1.54976e-05 -0.0257535 0)
(-4.55496e-06 -0.0257454 0)
(2.74211e-05 -0.0257553 0)
(-5.71685e-06 -0.0257972 0)
(-2.35509e-05 -0.0257425 0)
(1.53437e-05 -0.0257536 0)
(-4.50408e-06 -0.0257455 0)
(2.72322e-05 -0.0257553 0)
(-5.6678e-06 -0.025797 0)
(-2.34045e-05 -0.0257426 0)
(1.51911e-05 -0.0257536 0)
(-4.45385e-06 -0.0257455 0)
(2.70428e-05 -0.0257553 0)
(-5.61886e-06 -0.0257968 0)
(-2.32573e-05 -0.0257427 0)
(1.50399e-05 -0.0257536 0)
(-4.40426e-06 -0.0257456 0)
(2.68531e-05 -0.0257553 0)
(-5.57001e-06 -0.0257966 0)
(-2.31091e-05 -0.0257428 0)
(1.48901e-05 -0.0257537 0)
(-4.3553e-06 -0.0257457 0)
(2.66629e-05 -0.0257553 0)
(-5.52128e-06 -0.0257964 0)
(-2.29601e-05 -0.0257428 0)
(1.47415e-05 -0.0257537 0)
(-4.30696e-06 -0.0257458 0)
(2.64724e-05 -0.0257553 0)
(-5.47264e-06 -0.0257962 0)
(-2.28103e-05 -0.0257429 0)
(1.45942e-05 -0.0257537 0)
(-4.25921e-06 -0.0257459 0)
(2.62816e-05 -0.0257553 0)
(-5.42411e-06 -0.025796 0)
(-2.26596e-05 -0.025743 0)
(1.44483e-05 -0.0257538 0)
(-4.21205e-06 -0.025746 0)
(2.60904e-05 -0.0257553 0)
(-5.37569e-06 -0.0257958 0)
(-2.25082e-05 -0.0257431 0)
(1.43035e-05 -0.0257538 0)
(-4.16546e-06 -0.0257461 0)
(2.58989e-05 -0.0257553 0)
(-5.32737e-06 -0.0257956 0)
(-2.2356e-05 -0.0257432 0)
(1.416e-05 -0.0257538 0)
(-4.11943e-06 -0.0257462 0)
(2.57072e-05 -0.0257553 0)
(-5.27917e-06 -0.0257954 0)
(-2.22031e-05 -0.0257432 0)
(1.40177e-05 -0.0257539 0)
(-4.07395e-06 -0.0257463 0)
(2.55151e-05 -0.0257553 0)
(-5.23108e-06 -0.0257952 0)
(-2.20495e-05 -0.0257433 0)
(1.38766e-05 -0.0257539 0)
(-4.029e-06 -0.0257463 0)
(2.53229e-05 -0.0257552 0)
(-5.1831e-06 -0.025795 0)
(-2.18953e-05 -0.0257434 0)
(1.37367e-05 -0.0257539 0)
(-3.98457e-06 -0.0257464 0)
(2.51304e-05 -0.0257552 0)
(-5.13523e-06 -0.0257948 0)
(-2.17404e-05 -0.0257435 0)
(1.35979e-05 -0.025754 0)
(-3.94064e-06 -0.0257465 0)
(2.49377e-05 -0.0257552 0)
(-5.08747e-06 -0.0257947 0)
(-2.15849e-05 -0.0257435 0)
(1.34602e-05 -0.025754 0)
(-3.89721e-06 -0.0257466 0)
(2.47448e-05 -0.0257552 0)
(-5.03984e-06 -0.0257945 0)
(-2.14288e-05 -0.0257436 0)
(1.33237e-05 -0.025754 0)
(-3.85425e-06 -0.0257467 0)
(2.45518e-05 -0.0257552 0)
(-4.99232e-06 -0.0257943 0)
(-2.12722e-05 -0.0257437 0)
(1.31882e-05 -0.0257541 0)
(-3.81176e-06 -0.0257468 0)
(2.43587e-05 -0.0257552 0)
(-4.94491e-06 -0.0257941 0)
(-2.11151e-05 -0.0257438 0)
(1.30539e-05 -0.0257541 0)
(-3.76971e-06 -0.0257469 0)
(2.41654e-05 -0.0257552 0)
(-4.89763e-06 -0.0257939 0)
(-2.09574e-05 -0.0257438 0)
(1.29205e-05 -0.0257541 0)
(-3.72811e-06 -0.025747 0)
(2.3972e-05 -0.0257552 0)
(-4.85047e-06 -0.0257937 0)
(-2.07993e-05 -0.0257439 0)
(1.27882e-05 -0.0257542 0)
(-3.68692e-06 -0.025747 0)
(2.37785e-05 -0.0257552 0)
(-4.80343e-06 -0.0257935 0)
(-2.06407e-05 -0.025744 0)
(1.26569e-05 -0.0257542 0)
(-3.64614e-06 -0.0257471 0)
(2.3585e-05 -0.0257552 0)
(-4.75651e-06 -0.0257933 0)
(-2.04818e-05 -0.025744 0)
(1.25266e-05 -0.0257542 0)
(-3.60576e-06 -0.0257472 0)
(2.33914e-05 -0.0257552 0)
(-4.70971e-06 -0.0257932 0)
(-2.03224e-05 -0.0257441 0)
(1.23972e-05 -0.0257543 0)
(-3.56575e-06 -0.0257473 0)
(2.31979e-05 -0.0257552 0)
(-4.66304e-06 -0.025793 0)
(-2.01627e-05 -0.0257442 0)
(1.22689e-05 -0.0257543 0)
(-3.52611e-06 -0.0257474 0)
(2.30043e-05 -0.0257552 0)
(-4.6165e-06 -0.0257928 0)
(-2.00026e-05 -0.0257443 0)
(1.21414e-05 -0.0257543 0)
(-3.48682e-06 -0.0257475 0)
(2.28107e-05 -0.0257552 0)
(-4.57008e-06 -0.0257926 0)
(-1.98423e-05 -0.0257443 0)
(1.20148e-05 -0.0257544 0)
(-3.44787e-06 -0.0257476 0)
(2.26172e-05 -0.0257552 0)
(-4.5238e-06 -0.0257924 0)
(-1.96816e-05 -0.0257444 0)
(1.18891e-05 -0.0257544 0)
(-3.40924e-06 -0.0257476 0)
(2.24238e-05 -0.0257552 0)
(-4.47764e-06 -0.0257922 0)
(-1.95208e-05 -0.0257445 0)
(1.17643e-05 -0.0257545 0)
(-3.37092e-06 -0.0257477 0)
(2.22304e-05 -0.0257551 0)
(-4.43161e-06 -0.0257921 0)
(-1.93597e-05 -0.0257445 0)
(1.16404e-05 -0.0257545 0)
(-3.33289e-06 -0.0257478 0)
(2.20372e-05 -0.0257551 0)
(-4.38571e-06 -0.0257919 0)
(-1.91984e-05 -0.0257446 0)
(1.15172e-05 -0.0257545 0)
(-3.29514e-06 -0.0257479 0)
(2.1844e-05 -0.0257551 0)
(-4.33995e-06 -0.0257917 0)
(-1.90369e-05 -0.0257447 0)
(1.13949e-05 -0.0257546 0)
(-3.25766e-06 -0.025748 0)
(2.16511e-05 -0.0257551 0)
(-4.29431e-06 -0.0257915 0)
(-1.88753e-05 -0.0257447 0)
(1.12733e-05 -0.0257546 0)
(-3.22043e-06 -0.025748 0)
(2.14582e-05 -0.0257551 0)
(-4.24881e-06 -0.0257914 0)
(-1.87136e-05 -0.0257448 0)
(1.11525e-05 -0.0257546 0)
(-3.18343e-06 -0.0257481 0)
(2.12656e-05 -0.0257551 0)
(-4.20345e-06 -0.0257912 0)
(-1.85518e-05 -0.0257449 0)
(1.10324e-05 -0.0257547 0)
(-3.14665e-06 -0.0257482 0)
(2.10732e-05 -0.0257551 0)
(-4.15822e-06 -0.025791 0)
(-1.83899e-05 -0.0257449 0)
(1.09131e-05 -0.0257547 0)
(-3.11008e-06 -0.0257483 0)
(2.0881e-05 -0.0257551 0)
(-4.11312e-06 -0.0257908 0)
(-1.8228e-05 -0.025745 0)
(1.07945e-05 -0.0257547 0)
(-3.07371e-06 -0.0257484 0)
(2.06891e-05 -0.0257551 0)
(-4.06816e-06 -0.0257907 0)
(-1.80661e-05 -0.0257451 0)
(1.06765e-05 -0.0257548 0)
(-3.03751e-06 -0.0257484 0)
(2.04975e-05 -0.0257551 0)
(-4.02333e-06 -0.0257905 0)
(-1.79042e-05 -0.0257451 0)
(1.05592e-05 -0.0257548 0)
(-3.00147e-06 -0.0257485 0)
(2.03061e-05 -0.0257551 0)
(-3.97864e-06 -0.0257903 0)
(-1.77424e-05 -0.0257452 0)
(1.04425e-05 -0.0257548 0)
(-2.96558e-06 -0.0257486 0)
(2.01151e-05 -0.0257551 0)
(-3.93409e-06 -0.0257901 0)
(-1.75806e-05 -0.0257453 0)
(1.03264e-05 -0.0257549 0)
(-2.92982e-06 -0.0257487 0)
(1.99244e-05 -0.0257551 0)
(-3.88967e-06 -0.02579 0)
(-1.7419e-05 -0.0257453 0)
(1.0211e-05 -0.0257549 0)
(-2.89418e-06 -0.0257488 0)
(1.97341e-05 -0.0257551 0)
(-3.84538e-06 -0.0257898 0)
(-1.72575e-05 -0.0257454 0)
(1.00961e-05 -0.0257549 0)
(-2.85864e-06 -0.0257488 0)
(1.95441e-05 -0.0257551 0)
(-3.80124e-06 -0.0257896 0)
(-1.70961e-05 -0.0257454 0)
(9.98171e-06 -0.025755 0)
(-2.82319e-06 -0.0257489 0)
(1.93546e-05 -0.0257551 0)
(-3.75722e-06 -0.0257895 0)
(-1.6935e-05 -0.0257455 0)
(9.86788e-06 -0.025755 0)
(-2.78781e-06 -0.025749 0)
(1.91655e-05 -0.025755 0)
(-3.71334e-06 -0.0257893 0)
(-1.6774e-05 -0.0257456 0)
(9.75456e-06 -0.025755 0)
(-2.75249e-06 -0.0257491 0)
(1.89768e-05 -0.025755 0)
(-3.6696e-06 -0.0257892 0)
(-1.66133e-05 -0.0257456 0)
(9.64172e-06 -0.0257551 0)
(-2.7172e-06 -0.0257491 0)
(1.87887e-05 -0.025755 0)
(-3.62599e-06 -0.025789 0)
(-1.64529e-05 -0.0257457 0)
(9.52934e-06 -0.0257551 0)
(-2.68194e-06 -0.0257492 0)
(1.8601e-05 -0.025755 0)
(-3.58252e-06 -0.0257888 0)
(-1.62928e-05 -0.0257457 0)
(9.41739e-06 -0.0257551 0)
(-2.64668e-06 -0.0257493 0)
(1.84138e-05 -0.025755 0)
(-3.53919e-06 -0.0257887 0)
(-1.6133e-05 -0.0257458 0)
(9.30586e-06 -0.0257552 0)
(-2.61142e-06 -0.0257494 0)
(1.82272e-05 -0.025755 0)
(-3.49599e-06 -0.0257885 0)
(-1.59736e-05 -0.0257459 0)
(9.19473e-06 -0.0257552 0)
(-2.57612e-06 -0.0257494 0)
(1.80412e-05 -0.025755 0)
(-3.45292e-06 -0.0257884 0)
(-1.58145e-05 -0.0257459 0)
(9.08396e-06 -0.0257552 0)
(-2.54079e-06 -0.0257495 0)
(1.78558e-05 -0.025755 0)
(-3.40999e-06 -0.0257882 0)
(-1.56559e-05 -0.025746 0)
(8.97354e-06 -0.0257553 0)
(-2.50539e-06 -0.0257496 0)
(1.7671e-05 -0.025755 0)
(-3.36719e-06 -0.025788 0)
(-1.54977e-05 -0.025746 0)
(8.86345e-06 -0.0257553 0)
(-2.46991e-06 -0.0257497 0)
(1.74868e-05 -0.025755 0)
(-3.32453e-06 -0.0257879 0)
(-1.534e-05 -0.0257461 0)
(8.75366e-06 -0.0257553 0)
(-2.43434e-06 -0.0257497 0)
(1.73033e-05 -0.025755 0)
(-3.282e-06 -0.0257877 0)
(-1.51829e-05 -0.0257461 0)
(8.64414e-06 -0.0257554 0)
(-2.39865e-06 -0.0257498 0)
(1.71205e-05 -0.025755 0)
(-3.2396e-06 -0.0257876 0)
(-1.50262e-05 -0.0257462 0)
(8.53487e-06 -0.0257554 0)
(-2.36283e-06 -0.0257499 0)
(1.69385e-05 -0.025755 0)
(-3.19734e-06 -0.0257874 0)
(-1.48701e-05 -0.0257462 0)
(8.42584e-06 -0.0257554 0)
(-2.32686e-06 -0.0257499 0)
(1.67571e-05 -0.025755 0)
(-3.15521e-06 -0.0257873 0)
(-1.47147e-05 -0.0257463 0)
(8.317e-06 -0.0257555 0)
(-2.29071e-06 -0.02575 0)
(1.65766e-05 -0.025755 0)
(-3.11321e-06 -0.0257871 0)
(-1.45598e-05 -0.0257464 0)
(8.20835e-06 -0.0257555 0)
(-2.25438e-06 -0.0257501 0)
(1.63969e-05 -0.025755 0)
(-3.07134e-06 -0.025787 0)
(-1.44057e-05 -0.0257464 0)
(8.09985e-06 -0.0257555 0)
(-2.21784e-06 -0.0257502 0)
(1.62181e-05 -0.025755 0)
(-3.02961e-06 -0.0257868 0)
(-1.42522e-05 -0.0257465 0)
(7.99148e-06 -0.0257555 0)
(-2.18108e-06 -0.0257502 0)
(1.60401e-05 -0.0257549 0)
(-2.988e-06 -0.0257867 0)
(-1.40995e-05 -0.0257465 0)
(7.88322e-06 -0.0257556 0)
(-2.14406e-06 -0.0257503 0)
(1.5863e-05 -0.0257549 0)
(-2.94652e-06 -0.0257865 0)
(-1.39476e-05 -0.0257466 0)
(7.77503e-06 -0.0257556 0)
(-2.10678e-06 -0.0257504 0)
(1.56869e-05 -0.0257549 0)
(-2.90517e-06 -0.0257864 0)
(-1.37965e-05 -0.0257466 0)
(7.66689e-06 -0.0257556 0)
(-2.06921e-06 -0.0257504 0)
(1.55117e-05 -0.0257549 0)
(-2.86395e-06 -0.0257862 0)
(-1.36463e-05 -0.0257467 0)