/*--------------------------------*- C++ -*----------------------------------*\
| =========                 |                                                 |
| \\      /  F ield         | OpenFOAM: The Open Source CFD Toolbox           |
|  \\    /   O peration     | Version:  2.4.0                                 |
|   \\  /    A nd           | Web:      www.OpenFOAM.org                      |
|    \\/     M anipulation  |                                                 |
\*---------------------------------------------------------------------------*/
FoamFile
{
    version     2.0;
    format      ascii;
    class       volScalarField;
    location    "0.011";
    object      H;
}
// * * * * * * * * * * * * * * * * * * * * * * * * * * * * * * * * * * * * * //

dimensions      [0 2 -2 0 0 0 0];

internalField   nonuniform List<scalar> 
125
(
-10577.1
-7262.46
-3927.79
-79.6237
-59.2797
-59.1339
-58.9426
-58.7065
-58.4262
-58.1026
-57.7362
-57.3283
-56.8796
-56.3912
-55.8644
-55.3004
-54.7003
-54.0656
-53.3976
-52.6979
-51.9678
-51.209
-50.423
-49.6113
-48.7757
-47.9179
-47.0393
-46.1419
-45.2272
-44.2969
-43.3528
-42.3965
-41.4297
-40.4541
-39.4713
-38.4829
-37.4906
-36.4959
-35.5004
-34.5054
-33.5126
-32.5232
-31.5387
-30.5604
-29.5895
-28.6273
-27.6748
-26.7333
-25.8037
-24.887
-23.9841
-23.0959
-22.2232
-21.3668
-20.5272
-19.7052
-18.9012
-18.1157
-17.3492
-16.6021
-15.8746
-15.1671
-14.4796
-13.8124
-13.1656
-12.5392
-11.9331
-11.3475
-10.7821
-10.2368
-9.71142
-9.20583
-8.71974
-8.25287
-7.80492
-7.37556
-6.96442
-6.57113
-6.19528
-5.83646
-5.49423
-5.16815
-4.85775
-4.56256
-4.28211
-4.01592
-3.7635
-3.52437
-3.29803
-3.084
-2.8818
-2.69095
-2.51098
-2.34141
-2.18179
-2.03166
-1.89059
-1.75814
-1.6339
-1.51744
-1.40838
-1.30632
-1.21091
-1.12176
-1.03855
-0.960923
-0.888575
-0.821191
-0.758479
-0.700156
-0.645955
-0.595618
-0.548903
-0.505578
-0.465424
-0.428232
-0.393806
-0.361961
-0.33252
-0.305318
-0.280199
-0.257018
-0.235637
-0.215927
-0.197767
)
;

boundaryField
{
    BotWall
    {
        type            zeroGradient;
    }
    FreeStream
    {
        type            zeroGradient;
    }
    FrontNBack
    {
        type            empty;
    }
    LeftSide
    {
        type            symmetryPlane;
    }
    RightSide
    {
        type            symmetryPlane;
    }
    procBoundary11to8
    {
        type            processor;
        value           nonuniform List<scalar> 
50
(
-7.37891
-6.9663
-6.5717
-6.19468
-5.83482
-5.49167
-5.16479
-4.8537
-4.55792
-4.27698
-4.01038
-3.75763
-3.51823
-3.2917
-3.07754
-2.87527
-2.68439
-2.50442
-2.33491
-2.17537
-2.02536
-1.88443
-1.75214
-1.62807
-1.5118
-1.40294
-1.3011
-1.2059
-1.11698
-1.03399
-0.956589
-0.884464
-0.817301
-0.754807
-0.696697
-0.642702
-0.592567
-0.546046
-0.502908
-0.462934
-0.425914
-0.391652
-0.359963
-0.33067
-0.303608
-0.278622
-0.255566
-0.234302
-0.214702
-0.196645
)
;
    }
    procBoundary11to9
    {
        type            processor;
        value           nonuniform List<scalar> 
75
(
-10578.2
-7265.92
-3933.55
-80.074
-59.6194
-59.4778
-59.2901
-59.0568
-58.7787
-58.4565
-58.0909
-57.6831
-57.2339
-56.7445
-56.216
-55.6497
-55.0469
-54.4088
-53.7371
-53.033
-52.2982
-51.5342
-50.7426
-49.925
-49.0832
-48.2187
-47.3333
-46.4286
-45.5065
-44.5686
-43.6167
-42.6524
-41.6775
-40.6937
-39.7026
-38.7059
-37.7052
-36.7021
-35.6981
-34.6948
-33.6937
-32.696
-31.7034
-30.717
-29.7382
-28.7681
-27.808
-26.859
-25.9221
-24.9982
-24.0884
-23.1935
-22.3143
-21.4516
-20.6059
-19.778
-18.9684
-18.1776
-17.406
-16.6539
-15.9218
-15.2098
-14.5182
-13.847
-13.1964
-12.5665
-11.9572
-11.3684
-10.8001
-10.2522
-9.72438
-9.21652
-8.72834
-8.25956
-7.80987
)
;
    }
    procBoundary11to10
    {
        type            processor;
        value           uniform -0.181049;
    }
}


// ************************************************************************* //
