/*--------------------------------*- C++ -*----------------------------------*\
| =========                 |                                                 |
| \\      /  F ield         | OpenFOAM: The Open Source CFD Toolbox           |
|  \\    /   O peration     | Version:  2.4.0                                 |
|   \\  /    A nd           | Web:      www.OpenFOAM.org                      |
|    \\/     M anipulation  |                                                 |
\*---------------------------------------------------------------------------*/
FoamFile
{
    version     2.0;
    format      ascii;
    class       volScalarField;
    location    "2.9";
    object      alpha1;
}
// * * * * * * * * * * * * * * * * * * * * * * * * * * * * * * * * * * * * * //

dimensions      [0 0 0 0 0 0 0];

internalField   nonuniform List<scalar> 
8000
(
1
1
1
1
1
1
1
1
1
1
1
1
1
0.999999
0.999999
0.999999
0.999999
0.999999
0.999999
0.999998
0.999699
0.992504
0.534629
0.0894177
0.00147113
0.000271599
2.18173e-05
3.31428e-07
3.25284e-07
3.99424e-07
4.96779e-07
5.93099e-07
6.7597e-07
7.33515e-07
7.5742e-07
7.69171e-07
7.75062e-07
7.78563e-07
8.68964e-07
3.66684e-06
5.26038e-06
1.90372e-06
8.3395e-07
8.14799e-07
1.23495e-06
6.07203e-06
9.4405e-06
9.43877e-06
4.6081e-06
2.31306e-06
1
1
1
1
1
1
1
1
1
1
1
0.999999
0.999999
0.999999
0.999999
0.999999
0.999999
0.999998
0.999751
0.998431
0.601052
0.100474
0.002479
0.00175811
1.04349e-05
4.60104e-07
4.52748e-07
4.29354e-07
4.4287e-07
5.11896e-07
6.13979e-07
6.86978e-07
7.36918e-07
7.99357e-07
1.66976e-06
1.91162e-06
1.31917e-06
1.24709e-06
4.52942e-06
8.05601e-06
4.73434e-06
1.41977e-06
8.11715e-07
8.10337e-07
8.19737e-07
8.23467e-07
1.30111e-06
5.64033e-06
1.31535e-05
1.34586e-05
1
1
1
1
1
1
1
1
1
1
0.999999
0.999999
0.999999
0.999998
0.999999
0.999999
0.999697
0.998353
0.64042
0.0725315
0.00480689
0.00132683
5.24108e-06
5.3678e-06
5.09926e-07
4.98673e-07
5.25749e-07
5.77014e-07
2.18577e-06
2.89795e-06
9.84763e-07
7.89631e-07
7.61014e-07
7.65988e-07
8.30479e-07
8.35722e-07
2.60577e-06
1.04054e-05
1.54586e-05
7.42929e-06
1.10525e-06
1.00767e-06
1.02698e-06
1.30181e-06
1.30221e-06
1.04228e-06
1.14371e-06
2.60844e-06
1.07079e-05
1.46731e-05
1
1
1
1
1
1
1
1
0.999999
0.999999
0.999999
0.999998
0.999998
0.999984
0.998788
0.971767
0.600993
0.0317796
0.00782896
6.29808e-05
8.34391e-06
3.75753e-06
5.60174e-07
5.35979e-07
5.24813e-07
5.47303e-07
7.42896e-07
4.09354e-06
8.14299e-06
1.75392e-06
7.72908e-07
7.72484e-07
7.66983e-07
1.33235e-06
9.14707e-07
2.38525e-06
1.05543e-05
1.54564e-05
1.54222e-05
1.05739e-05
1.4126e-06
1.00766e-06
1.07939e-06
1.13414e-06
1.15897e-06
1.15265e-06
1.14933e-06
4.17018e-06
8.34347e-06
7.74423e-06
1
1
1
1
1
1
0.999999
0.999999
0.999999
0.999999
0.999999
0.999118
0.997946
0.905171
0.208191
0.0236546
0.00743111
3.90542e-05
1.71263e-05
7.12392e-07
6.2703e-07
6.14813e-07
6.06624e-07
5.77695e-07
5.31439e-07
2.2365e-06
7.86489e-06
1.01607e-05
1.01288e-05
2.84224e-06
1.05134e-06
1.14552e-06
1.10442e-06
1.7623e-06
2.38354e-06
1.24012e-06
1.78963e-06
3.18644e-06
3.59588e-06
2.51109e-06
3.1166e-06
5.45777e-06
1.67396e-06
2.37141e-06
1.84325e-06
1.66334e-06
1.74469e-06
1.83494e-06
1.83872e-06
1.55112e-06
1
1
1
1
1
0.999999
0.999998
0.999999
0.999877
0.998212
0.987143
0.299959
0.0223134
0.0236228
0.000162333
9.3857e-05
1.67844e-05
5.97517e-07
6.03347e-07
6.81777e-07
6.31383e-07
6.09253e-07
7.4208e-07
5.84302e-07
9.60149e-07
7.15131e-07
2.36935e-06
4.54144e-06
7.54274e-06
1.02833e-05
1.03013e-05
9.43584e-06
4.19739e-06
2.65819e-06
2.38196e-06
1.89162e-06
1.91072e-06
2.00121e-06
2.3981e-06
2.49111e-06
2.45766e-06
6.98789e-06
8.05762e-06
8.0411e-06
4.25682e-06
8.75792e-07
8.59966e-07
1.27798e-06
1.84068e-06
1.69495e-06
1
1
1
1
0.999999
0.999997
0.999992
0.999139
0.693034
0.0344224
0.0251444
0.00229327
0.000254982
0.000272639
6.33482e-07
6.05198e-07
5.97323e-07
5.90166e-07
5.90141e-07
5.93341e-07
5.9476e-07
6.059e-07
6.26822e-07
6.23976e-07
6.40582e-07
6.32333e-07
6.42789e-07
6.75793e-07
7.64843e-07
8.97098e-07
9.40982e-07
8.83525e-07
8.83274e-07
2.07479e-06
1.33041e-06
6.39096e-07
6.33823e-07
6.33758e-07
6.33736e-07
6.33769e-07
6.33878e-07
8.3394e-07
3.65547e-06
2.29577e-06
8.50874e-07
6.11805e-07
6.0794e-07
6.0708e-07
6.06995e-07
6.38995e-07
1
1
1
0.999999
0.999997
0.999991
0.8955
0.0328778
0.021025
0.00167441
0.000376304
0.000376425
0.000255281
0.000127719
5.91725e-05
3.21038e-05
1.99387e-05
1.33768e-05
9.44134e-06
6.90018e-06
4.97781e-06
3.32765e-06
2.8871e-06
2.58732e-06
2.23742e-06
1.90563e-06
1.61741e-06
1.37994e-06
1.18924e-06
1.04122e-06
9.45512e-07
8.87645e-07
8.85835e-07
2.36231e-06
1.55249e-06
6.41102e-07
6.34012e-07
6.33827e-07
6.33844e-07
6.72413e-07
7.69671e-07
7.49162e-07
7.49303e-07
1.55283e-06
2.65831e-06
2.62944e-06
1.38037e-06
6.11042e-07
6.1149e-07
1.53047e-06
1
1
1
0.999999
0.999997
0.999951
0.133123
0.0194922
0.0195284
0.0113714
0.0102318
0.00791753
0.00590527
0.00458327
0.00354409
0.00262893
0.00190349
0.00137689
0.000997377
0.000722254
0.000522536
0.000377715
0.000273005
0.000197445
0.000143051
0.000104104
7.60613e-05
5.50656e-05
3.87519e-05
2.8462e-05
2.48606e-05
2.15341e-05
1.416e-05
6.07741e-06
1.57356e-06
1.14574e-06
9.05292e-07
7.40873e-07
7.49597e-07
1.57342e-06
4.47122e-06
4.66308e-06
3.13263e-06
1.34807e-06
1.07982e-06
1.04116e-06
1.14825e-06
1.25604e-06
2.2844e-06
3.06552e-06
1
1
1
0.999999
1
0.999998
0.907738
0.247973
0.294763
0.165124
0.147869
0.129307
0.109216
0.0926746
0.0789384
0.0668756
0.056287
0.0469042
0.0387242
0.0316917
0.0256941
0.0206272
0.0163819
0.0128556
0.00995178
0.00758322
0.00567872
0.00417486
0.00300275
0.00210334
0.0014359
0.000961845
0.000632012
0.000402568
0.000244924
0.000140889
7.62095e-05
3.8552e-05
1.79795e-05
7.77855e-06
3.78026e-06
2.55746e-06
2.3901e-06
2.38386e-06
3.75633e-06
1.71551e-06
2.25569e-06
2.27651e-06
2.72998e-06
2.15399e-06
1
1
1
0.999998
0.999998
0.999994
1.00002
0.999631
1.00166
0.790922
0.733336
0.687721
0.651189
0.615766
0.581296
0.543814
0.505414
0.466531
0.427571
0.388715
0.350199
0.312628
0.276475
0.242282
0.210609
0.181701
0.154781
0.129979
0.10742
0.0871836
0.0693023
0.0538297
0.040804
0.0301506
0.021657
0.0150538
0.0100464
0.0063646
0.00379005
0.00209492
0.00105953
0.0004822
0.000192905
6.6101e-05
1.92953e-05
5.21573e-06
2.72014e-06
2.28298e-06
2.28867e-06
2.46219e-06
1
1
0.999999
0.999997
0.999998
0.999998
1
1.00001
0.999973
0.999997
0.999934
1.00013
1.00012
0.996125
0.978537
0.969431
0.960568
0.95084
0.939789
0.926715
0.91089
0.891699
0.868415
0.840371
0.807101
0.768687
0.726558
0.680782
0.631486
0.578864
0.523334
0.465615
0.406728
0.348056
0.291347
0.238456
0.191002
0.148108
0.110258
0.078078
0.0520295
0.0322171
0.0182468
0.00921754
0.00398541
0.00141583
0.000398464
8.7936e-05
1.60843e-05
3.6148e-06
1
1
0.999999
0.999996
0.999997
0.999997
1
0.999994
0.99999
1
0.999998
1
0.999999
0.999997
0.999995
0.999993
0.999997
1.00001
0.999991
0.999993
0.999973
1.00002
1.00001
0.999941
1
0.998468
0.993904
0.988602
0.981856
0.973159
0.961805
0.94676
0.926611
0.899617
0.863788
0.817156
0.758945
0.692033
0.616589
0.533271
0.443818
0.351569
0.262073
0.181511
0.113029
0.0607829
0.0271177
0.0097871
0.00282008
0.000680946
1
1
0.999999
0.999996
0.999998
1
0.999996
0.999991
0.999994
0.999999
0.999997
0.999998
0.999999
0.999998
0.999998
0.999999
0.999999
0.999999
0.999999
0.999998
1
1
1
1
1
1
1
1
0.999999
0.999998
1
1
0.999998
0.999998
1
0.999944
0.994027
0.985915
0.974892
0.958654
0.933791
0.89479
0.833534
0.7447
0.627004
0.48292
0.326199
0.185702
0.0858734
0.0318397
1
1
0.999999
0.999996
0.999996
0.999996
0.999998
0.999995
0.999995
0.999998
0.999997
0.999997
0.999995
0.999995
0.999995
0.999995
0.999995
0.999996
0.999996
0.999997
0.999997
0.999997
0.999997
0.999997
0.999997
0.999997
0.999998
0.999997
0.999998
0.999998
0.999999
0.999999
0.999999
0.999999
0.999999
1
1
1
1
1
1
0.999999
0.996211
0.986734
0.971343
0.939984
0.871151
0.733938
0.523032
0.298599
1
1
0.999999
0.999996
0.999995
0.999994
0.999997
0.999997
0.999995
0.999997
0.999996
0.999995
0.999993
0.999992
0.999992
0.999992
0.999993
0.999994
0.999994
0.999994
0.999995
0.999995
0.999994
0.999994
0.999994
0.999995
0.999995
0.999996
0.999997
0.999997
0.999997
0.999997
0.999998
0.999998
0.999998
0.999999
0.999999
0.999999
0.999999
1
1
0.999999
1
1
1
0.999998
0.994498
0.971706
0.900198
0.731935
1
1
0.999998
0.999995
0.999993
0.999995
0.999999
0.999995
0.999993
0.999996
0.999994
0.999993
0.999992
0.99999
0.999989
0.99999
0.999991
0.999992
0.999992
0.999993
0.999993
0.999993
0.999993
0.999992
0.999993
0.999993
0.999993
0.999994
0.999994
0.999995
0.999996
0.999996
0.999997
0.999997
0.999997
0.999998
0.999998
0.999998
0.999999
1
1
0.999998
0.999998
0.999998
0.999999
0.999996
0.999948
0.978856
0.916423
0.793906
1
1
0.999998
0.999993
0.99999
0.999994
1
0.999995
0.999992
0.999996
0.999994
0.999993
0.999991
0.99999
0.999989
0.999989
0.999991
0.999992
0.999992
0.999992
0.999993
0.999993
0.999992
0.999992
0.999992
0.999992
0.999993
0.999993
0.999994
0.999994
0.999995
0.999996
0.999996
0.999996
0.999997
0.999997
0.999997
0.999998
0.999999
1.00002
1.00001
0.999998
0.999998
0.999985
0.999909
0.979208
0.909035
0.790784
0.629679
0.450742
1
1
0.999997
0.999992
0.999988
0.999992
1
0.999998
0.999992
0.999995
0.999996
0.999995
0.999994
0.999992
0.999991
0.999991
0.999992
0.999992
0.999992
0.999992
0.999993
0.999993
0.999993
0.999992
0.999992
0.999993
0.999993
0.999993
0.999994
0.999994
0.999995
0.999995
0.999996
0.999996
0.999997
0.999997
0.999997
0.999998
0.999998
1.00009
0.999991
0.999924
0.997637
0.948965
0.855091
0.72034
0.555114
0.382113
0.23187
0.125182
1
1
0.999997
0.999992
0.999989
0.999994
1
1
0.999995
0.999997
0.999997
0.999997
0.999996
0.999995
0.999994
0.999994
0.999994
0.999994
0.999993
0.999993
0.999993
0.999994
0.999993
0.999993
0.999993
0.999994
0.999993
0.999994
0.999994
0.999995
0.999995
0.999995
0.999996
0.999996
0.999996
0.999997
0.999997
0.999981
0.996901
0.999715
0.958997
0.859353
0.716881
0.545942
0.379355
0.238026
0.138268
0.0753431
0.0388654
0.0190912
2.31353e-06
4.26847e-06
5.56477e-06
5.09291e-06
1.54826e-06
1.54701e-06
1.54652e-06
2.13282e-06
7.59706e-06
9.60462e-06
9.60943e-06
4.13799e-06
1.45836e-06
1.45687e-06
1.45626e-06
1.45134e-06
1.45163e-06
1.51969e-06
5.57995e-06
8.76268e-06
8.76777e-06
4.19941e-06
1.20693e-06
1.21977e-06
1.25456e-06
1.29397e-06
1.59018e-06
1.38333e-06
1.39703e-06
1.41413e-06
2.02311e-06
3.23179e-06
6.2236e-06
7.36834e-06
6.78293e-06
3.82038e-06
3.69077e-06
3.41241e-06
2.26458e-06
1.79303e-06
1.61191e-06
1.6495e-06
1.57855e-06
1.39052e-06
1.38048e-06
2.61233e-06
7.11231e-06
7.34612e-06
7.3392e-06
3.76561e-06
2.64363e-06
2.09062e-06
2.12692e-06
5.09657e-06
5.41608e-06
4.48043e-06
1.54371e-06
1.5431e-06
1.54268e-06
1.54223e-06
4.48901e-06
9.06173e-06
9.09192e-06
4.5078e-06
1.45794e-06
1.45409e-06
1.45665e-06
2.79988e-06
7.30665e-06
8.76558e-06
7.72504e-06
2.74009e-06
2.02539e-06
1.90685e-06
1.89509e-06
1.94238e-06
3.33732e-06
2.41876e-06
2.67933e-06
1.91052e-06
3.67633e-06
1.81336e-06
1.72133e-06
1.53536e-06
1.44103e-06
1.72333e-06
5.43702e-06
6.16754e-06
6.16842e-06
3.60649e-06
1.68354e-06
1.65041e-06
2.89003e-06
1.6683e-06
5.93016e-07
5.85613e-07
5.89932e-07
2.07912e-06
7.35094e-06
5.73305e-06
1.4672e-05
9.41994e-06
2.04777e-06
2.04797e-06
2.10044e-06
2.00262e-06
1.8379e-06
1.68516e-06
1.59531e-06
1.53513e-06
1.46617e-06
4.69329e-06
8.96259e-06
8.97652e-06
5.65648e-06
3.34526e-06
3.29217e-06
4.39884e-06
6.52626e-06
4.87762e-06
3.76607e-06
2.57921e-06
2.58282e-06
2.16584e-06
1.72071e-06
1.48361e-06
1.48253e-06
1.48136e-06
3.26654e-06
4.02261e-06
4.02359e-06
2.43621e-06
1.54972e-06
1.36852e-06
1.22266e-06
7.57803e-07
7.27762e-07
6.51194e-07
5.94324e-07
1.42923e-06
4.64093e-06
4.7112e-06
4.25792e-06
1.84504e-06
6.48503e-07
4.54489e-07
4.49814e-07
4.04028e-07
7.35512e-07
4.95744e-06
2.72554e-06
2.72124e-06
3.14429e-06
7.57806e-06
1.03092e-05
5.18855e-06
3.61613e-06
2.34949e-06
1.72506e-06
1.52559e-06
1.45313e-06
1.36483e-06
1.4874e-06
1.52765e-06
1.58863e-06
1.49443e-06
1.28468e-06
1.65049e-06
7.07746e-06
8.00644e-06
8.019e-06
4.52878e-06
2.19252e-06
7.69805e-07
1.53676e-06
3.07533e-06
3.29023e-06
1.81757e-06
6.82021e-07
6.16118e-07
5.77055e-07
5.75991e-07
1.02964e-06
3.24895e-06
3.35427e-06
3.35414e-06
1.79597e-06
5.94147e-07
4.7742e-07
4.75343e-07
4.73547e-07
4.74316e-07
2.15709e-06
2.77715e-06
2.77512e-06
1.15637e-06
3.76733e-07
3.70122e-07
3.16999e-07
1.86882e-06
3.02862e-06
2.71834e-06
2.83443e-06
7.0298e-06
1.03212e-05
8.31782e-06
4.06385e-06
2.20496e-06
1.76441e-06
1.45087e-06
1.03993e-06
1.0385e-06
1.48852e-06
1.1481e-06
8.38964e-07
8.34959e-07
8.34908e-07
8.34908e-07
3.08673e-06
3.052e-06
1.23663e-06
5.76494e-07
5.70813e-07
5.62397e-07
5.51362e-07
1.26218e-06
4.34345e-06
4.38921e-06
3.21132e-06
8.04873e-07
5.11568e-07
5.21448e-07
5.29111e-07
5.29305e-07
8.08844e-07
3.23596e-06
3.30839e-06
2.65327e-06
7.23639e-07
4.79406e-07
4.76611e-07
7.37913e-07
2.20593e-06
1.83488e-06
4.63607e-07
3.95886e-07
4.70638e-07
3.11916e-07
2.68442e-07
1.14548e-06
1.03948e-06
7.17236e-07
7.12356e-07
6.24872e-07
1.61867e-06
1.09042e-06
5.65289e-07
5.68978e-07
5.74851e-07
1.84956e-06
2.57754e-06
2.57614e-06
8.67176e-07
2.16906e-06
1.64956e-06
8.4016e-07
8.34936e-07
8.3493e-07
9.24364e-07
2.99061e-06
2.41384e-06
1.27986e-06
5.08702e-07
5.01489e-07
4.9897e-07
1.03246e-06
4.36174e-06
2.99894e-06
8.20857e-07
5.11534e-07
5.08048e-07
5.37814e-07
5.37179e-07
5.31962e-07
8.81131e-07
3.09586e-06
1.51876e-06
4.13412e-07
4.06611e-07
5.1732e-07
1.33293e-06
1.33584e-06
8.1311e-07
3.08043e-07
3.01761e-07
4.39431e-07
3.69034e-07
3.58565e-07
2.6643e-07
9.04191e-07
3.02292e-06
2.22919e-06
7.38019e-07
6.24483e-07
7.72478e-07
5.64525e-07
5.60266e-07
5.60253e-07
1.72081e-06
1.98716e-06
8.12557e-07
7.14912e-07
7.14807e-07
2.16989e-06
1.82466e-06
8.80277e-07
8.35358e-07
8.34931e-07
8.34989e-07
1.59809e-06
2.9515e-06
2.928e-06
1.56819e-06
5.08419e-07
5.03748e-07
1.0914e-06
3.37941e-06
1.42366e-06
4.93906e-07
5.12149e-07
5.07237e-07
5.14586e-07
1.12336e-06
1.1964e-06
6.49679e-07
5.12238e-07
4.40208e-07
4.05652e-07
3.32917e-07
4.66087e-07
1.12795e-06
4.72296e-07
3.89813e-07
3.40627e-07
3.02398e-07
2.69946e-07
2.69896e-07
2.68557e-07
2.63145e-07
2.2095e-07
3.02679e-06
2.149e-06
6.33493e-07
6.28966e-07
2.59148e-06
1.8035e-06
6.01728e-07
5.62006e-07
1.83792e-06
2.51607e-06
2.47479e-06
8.93999e-07
7.15359e-07
1.10269e-06
2.60422e-06
2.19281e-06
8.81614e-07
8.35245e-07
8.61164e-07
2.12116e-06
2.9323e-06
1.41257e-06
5.19656e-07
5.12961e-07
5.33669e-07
1.65639e-06
1.27173e-06
4.46921e-07
4.86642e-07
4.67258e-07
3.401e-07
7.79761e-07
5.2807e-07
4.69041e-07
2.38947e-07
6.73773e-07
3.19625e-07
2.97314e-07
2.76687e-07
2.47739e-07
2.23122e-07
2.37292e-07
2.26687e-07
2.12363e-07
2.03315e-07
1.99638e-07
1.96081e-07
1.89231e-07
1.79619e-07
1.69318e-07
2.94043e-06
1.7842e-06
1.21917e-06
1.92897e-06
4.42132e-06
2.50058e-06
1.63202e-06
1.70058e-06
2.82307e-06
2.51468e-06
1.72536e-06
1.15066e-06
1.01236e-06
1.77731e-06
2.60475e-06
1.36637e-06
1.20512e-06
1.00927e-06
8.64576e-07
5.77891e-07
8.36781e-07
6.83219e-07
8.36094e-07
4.24044e-07
3.93848e-07
3.447e-07
5.00929e-07
4.18092e-07
3.61637e-07
3.19771e-07
2.84628e-07
2.4317e-07
2.48883e-07
2.41094e-07
2.25684e-07
1.60397e-07
1.69896e-07
1.73012e-07
1.70846e-07
1.61237e-07
1.49602e-07
1.41047e-07
1.3593e-07
1.31114e-07
1.29221e-07
1.2933e-07
1.2754e-07
1.22908e-07
1.17298e-07
1.12473e-07
2.29766e-06
2.32673e-06
3.08014e-06
5.05313e-06
4.39325e-06
2.08215e-06
2.15393e-06
1.46933e-06
1.4845e-06
1.50445e-06
1.54527e-06
9.26831e-07
1.18158e-06
7.63639e-07
7.56742e-07
7.06525e-07
6.848e-07
6.18027e-07
6.41413e-07
4.68865e-07
3.64343e-07
3.92176e-07
3.36968e-07
3.45027e-07
3.00395e-07
2.66657e-07
2.33922e-07
2.35209e-07
2.26899e-07
2.13788e-07
1.94433e-07
1.77411e-07
1.65641e-07
1.56917e-07
1.48867e-07
1.40661e-07
1.32544e-07
1.25e-07
1.18324e-07
1.12578e-07
1.07718e-07
1.03668e-07
1.00347e-07
9.76483e-08
9.45343e-08
9.11545e-08
8.8381e-08
8.65396e-08
8.53504e-08
8.44188e-08
2.29874e-06
2.58444e-06
2.38913e-06
5.04103e-06
3.59885e-06
1.61455e-06
1.58414e-06
1.46884e-06
1.37241e-06
1.27107e-06
1.10522e-06
9.04096e-07
8.02832e-07
7.66139e-07
6.95316e-07
6.27275e-07
5.531e-07
4.78841e-07
4.2094e-07
3.95001e-07
3.48887e-07
3.20269e-07
2.92541e-07
2.66748e-07
2.41594e-07
2.16673e-07
1.98362e-07
1.83397e-07
1.7018e-07
1.57863e-07
1.46547e-07
1.36272e-07
1.26987e-07
1.18611e-07
1.11063e-07
1.04284e-07
9.82341e-08
9.29029e-08
8.83042e-08
8.44617e-08
8.13759e-08
7.89916e-08
7.71871e-08
7.57948e-08
7.46379e-08
7.35687e-08
7.24912e-08
7.13665e-08
7.02017e-08
6.90304e-08
2.3385e-06
2.34652e-06
2.35493e-06
3.08292e-06
1.92586e-06
1.74205e-06
1.69041e-06
1.51832e-06
1.38386e-06
1.24061e-06
1.08901e-06
9.60553e-07
8.33393e-07
7.32126e-07
6.47041e-07
5.71116e-07
5.01507e-07
4.4149e-07
3.93365e-07
3.50147e-07
3.11469e-07
2.77817e-07
2.48481e-07
2.23301e-07
2.00289e-07
1.80252e-07
1.63762e-07
1.48974e-07
1.36188e-07
1.2489e-07
1.15202e-07
1.06763e-07
9.93068e-08
9.26723e-08
8.67658e-08
8.15372e-08
7.696e-08
7.303e-08
6.97558e-08
6.71384e-08
6.51391e-08
6.36589e-08
6.25485e-08
6.16424e-08
6.07983e-08
5.99236e-08
5.89826e-08
5.79852e-08
5.69668e-08
5.59666e-08
0.000152218
3.13609e-05
6.65125e-06
2.41367e-06
1.7912e-06
1.73314e-06
1.71548e-06
1.68032e-06
1.5085e-06
1.41325e-06
1.23477e-06
1.05878e-06
8.9461e-07
7.66801e-07
6.62678e-07
5.75007e-07
4.99903e-07
4.35516e-07
3.80307e-07
3.3245e-07
2.91049e-07
2.55255e-07
2.24424e-07
1.97972e-07
1.75359e-07
1.56123e-07
1.39699e-07
1.25302e-07
1.13052e-07
1.0268e-07
9.41966e-08
8.6954e-08
8.06738e-08
7.51984e-08
7.04262e-08
6.62915e-08
6.27497e-08
5.97754e-08
5.73505e-08
5.54449e-08
5.39942e-08
5.28902e-08
5.19988e-08
5.11917e-08
5.0375e-08
4.95025e-08
4.85714e-08
4.76065e-08
4.66406e-08
4.56997e-08
0.0102634
0.00300874
0.000797133
0.000193702
4.7561e-05
1.3182e-05
4.56829e-06
2.10565e-06
1.77966e-06
1.81106e-06
1.54783e-06
1.31954e-06
1.0747e-06
8.9333e-07
7.51274e-07
6.36288e-07
5.41263e-07
4.61693e-07
3.94565e-07
3.37697e-07
2.89375e-07
2.48332e-07
2.13691e-07
1.84598e-07
1.60273e-07
1.40011e-07
1.23062e-07
1.08957e-07
9.71533e-08
8.73034e-08
7.94872e-08
7.29615e-08
6.74588e-08
6.27947e-08
5.88331e-08
5.54748e-08
5.2647e-08
5.02969e-08
4.83798e-08
4.68453e-08
4.56234e-08
4.46208e-08
4.37356e-08
4.288e-08
4.19977e-08
4.10689e-08
4.01022e-08
3.91207e-08
3.81474e-08
3.71968e-08
0.139405
0.0573442
0.0208063
0.00631041
0.00171071
0.000462572
0.000137046
4.20111e-05
1.16636e-05
2.9149e-06
2.15453e-06
1.84081e-06
1.41343e-06
1.12291e-06
9.09601e-07
7.45788e-07
6.16355e-07
5.12067e-07
4.26921e-07
3.56696e-07
2.98368e-07
2.50059e-07
2.10321e-07
1.7768e-07
1.50943e-07
1.29057e-07
1.11038e-07
9.66668e-08
8.5181e-08
7.59367e-08
6.84715e-08
6.24126e-08
5.74657e-08
5.33992e-08
5.00343e-08
4.7236e-08
4.49031e-08
4.29585e-08
4.13391e-08
3.99857e-08
3.88342e-08
3.78125e-08
3.68518e-08
3.58989e-08
3.49246e-08
3.39238e-08
3.29079e-08
3.18947e-08
3.09e-08
2.99327e-08
0.469323
0.246416
0.109879
0.0382837
0.0111665
0.00304259
0.000900121
0.000289835
8.83222e-05
2.06944e-05
2.99481e-06
2.52274e-06
1.80372e-06
1.36199e-06
1.0607e-06
8.4212e-07
6.77079e-07
5.48965e-07
4.47592e-07
3.6564e-07
2.99376e-07
2.46101e-07
2.0315e-07
1.68429e-07
1.40426e-07
1.1795e-07
1.00015e-07
8.57885e-08
7.45597e-08
6.57252e-08
5.87782e-08
5.33008e-08
4.89548e-08
4.54722e-08
4.26454e-08
4.03177e-08
3.83722e-08
3.67209e-08
3.52952e-08
3.4038e-08
3.28971e-08
3.18223e-08
3.07747e-08
2.97302e-08
2.86803e-08
2.76293e-08
2.65896e-08
2.55747e-08
2.45957e-08
2.36591e-08
0.587952
0.360699
0.180324
0.0664798
0.0198016
0.00536779
0.00156898
0.000511951
0.000164606
4.13892e-05
5.34085e-06
2.90328e-06
1.96646e-06
1.4335e-06
1.08808e-06
8.46337e-07
6.68574e-07
5.3348e-07
4.2852e-07
3.4575e-07
2.79849e-07
2.27098e-07
1.84807e-07
1.50965e-07
1.24011e-07
1.02692e-07
8.59682e-08
7.29588e-08
6.29122e-08
5.51912e-08
4.92635e-08
4.46941e-08
4.11352e-08
3.83162e-08
3.60313e-08
3.41292e-08
3.25e-08
3.10644e-08
2.97642e-08
2.8556e-08
2.74048e-08
2.62828e-08
2.51779e-08
2.40882e-08
2.30186e-08
2.19787e-08
2.09793e-08
2.00303e-08
1.91391e-08
1.83102e-08
0.298273
0.185259
0.0992802
0.0403769
0.0133442
0.00397827
0.00124031
0.000418676
0.00013921
4.00229e-05
4.35829e-06
2.59107e-06
1.74363e-06
1.26082e-06
9.51394e-07
7.3604e-07
5.77793e-07
4.57535e-07
3.64284e-07
2.911e-07
2.33264e-07
1.87408e-07
1.51048e-07
1.22312e-07
9.97394e-08
8.21614e-08
6.86081e-08
5.82608e-08
5.04238e-08
4.45118e-08
4.00415e-08
3.66244e-08
3.39563e-08
3.18081e-08
3.00127e-08
2.84534e-08
2.70508e-08
2.57514e-08
2.45206e-08
2.33365e-08
2.21829e-08
2.10537e-08
1.99578e-08
1.89053e-08
1.79051e-08
1.69657e-08
1.60945e-08
1.52968e-08
1.45762e-08
1.39341e-08
0.0639233
0.0353571
0.021829
0.0114765
0.00459123
0.00155278
0.000504153
0.000164075
5.00812e-05
1.29948e-05
2.27438e-06
1.66182e-06
1.19117e-06
8.84512e-07
6.79278e-07
5.32242e-07
4.21031e-07
3.34355e-07
2.65949e-07
2.11792e-07
1.68964e-07
1.35205e-07
1.0872e-07
8.80803e-08
7.21346e-08
5.99413e-08
5.07155e-08
4.37956e-08
3.86258e-08
3.47476e-08
3.17927e-08
2.94751e-08
2.75793e-08
2.59557e-08
2.45036e-08
2.31602e-08
2.1888e-08
2.06667e-08
1.94875e-08
1.83489e-08
1.72465e-08
1.61935e-08
1.52081e-08
1.42989e-08
1.34705e-08
1.27263e-08
1.20684e-08
1.14971e-08
1.10117e-08
1.06099e-08
0.00876912
0.00396011
0.00212395
0.00118464
0.000533463
0.000214463
7.66053e-05
2.42176e-05
6.70028e-06
1.16641e-06
1.03007e-06
7.67824e-07
5.72617e-07
4.47205e-07
3.6055e-07
2.93633e-07
2.38739e-07
1.93108e-07
1.55506e-07
1.24998e-07
1.00644e-07
8.14877e-08
6.66194e-08
5.52196e-08
4.65778e-08
4.00878e-08
3.5238e-08
3.16021e-08
2.88327e-08
2.66573e-08
2.48706e-08
2.33227e-08
2.1913e-08
2.05894e-08
1.93227e-08
1.8102e-08
1.69257e-08
1.57979e-08
1.47262e-08
1.37183e-08
1.27693e-08
1.19094e-08
1.11481e-08
1.04822e-08
9.90956e-09
9.42816e-09
9.035e-09
8.72609e-09
8.49658e-09
8.34094e-09
7.1947e-07
5.86214e-07
5.51844e-07
5.12071e-07
4.65368e-07
2.3609e-06
1.43874e-06
4.37369e-07
4.47767e-07
4.60488e-07
4.71701e-07
4.78898e-07
4.76587e-07
4.76176e-07
4.76761e-07
2.70933e-06
1.0192e-05
1.0688e-05
1.06979e-05
8.92847e-06
2.78949e-06
5.17752e-07
3.85829e-07
1.05814e-06
1.55653e-06
1.55867e-06
6.46637e-07
3.4693e-07
3.51811e-07
3.82149e-07
2.16735e-06
2.55836e-06
1.89854e-06
4.42069e-07
3.19904e-07
3.20335e-07
3.05825e-07
3.94297e-07
3.11371e-07
3.19498e-07
3.22298e-07
3.18878e-07
1.93632e-06
6.59041e-06
6.62864e-06
4.62715e-06
9.81041e-07
3.09177e-07
3.01967e-07
3.01639e-07
3.0055e-07
2.99343e-07
2.98777e-07
3.68953e-07
3.54387e-06
5.14299e-06
5.13522e-06
2.60741e-06
4.22928e-07
2.71195e-07
2.73353e-07
2.75584e-07
2.7742e-07
2.78759e-07
2.78854e-07
2.78967e-07
4.60396e-07
3.45179e-06
3.30256e-06
9.68729e-07
3.09563e-07
4.46913e-07
1.6317e-06
1.73775e-06
1.06222e-06
2.84673e-07
2.71546e-07
2.7161e-07
8.22568e-07
2.20571e-06
9.10559e-07
2.83751e-07
2.75978e-07
2.75759e-07
2.75785e-07
7.80051e-07
2.45534e-06
1.26202e-06
2.83655e-07
2.4845e-07
2.47744e-07
2.47413e-07
2.80957e-07
2.60691e-07
2.60382e-07
2.60176e-07
2.78649e-07
1.60594e-06
3.08207e-06
1.17503e-06
2.50209e-07
2.49625e-07
2.50225e-07
3.15418e-07
9.06935e-07
3.94455e-07
2.55701e-07
2.55662e-07
2.77451e-07
2.63731e-07
2.64903e-07
2.6453e-07
2.71008e-07
6.79099e-07
2.52692e-06
1.25629e-06
4.06623e-07
2.88717e-07
2.70273e-07
2.68739e-07
2.68516e-07
2.68294e-07
2.67794e-07
2.67829e-07
4.29075e-07
6.45173e-07
4.01772e-07
2.80745e-07
2.78558e-07
2.8134e-07
6.93545e-07
1.74448e-06
1.6358e-06
4.89459e-07
3.39274e-07
3.37434e-07
3.37575e-07
1.1053e-06
4.55346e-07
3.62958e-07
1.26806e-06
1.05549e-06
4.29169e-07
3.57153e-07
3.57287e-07
5.1689e-07
1.68701e-06
2.577e-06
1.00855e-06
3.6384e-07
3.59096e-07
3.59175e-07
6.02603e-07
2.3979e-06
2.49645e-06
1.35075e-06
4.43354e-07
4.37873e-07
4.37798e-07
4.37801e-07
4.89072e-07
4.67576e-07
4.43573e-07
6.28869e-07
1.9785e-06
3.75174e-06
2.6675e-06
5.58216e-07
3.92275e-07
3.90797e-07
3.91367e-07
1.89036e-06
2.87854e-06
1.94779e-06
4.98611e-07
4.44571e-07
4.44678e-07
1.11504e-06
5.46612e-06
7.32162e-06
3.65562e-06
7.20951e-07
3.97828e-07
8.83391e-07
4.4252e-07
3.91741e-07
3.91142e-07
3.91133e-07
3.91133e-07
4.61596e-07
3.61812e-06
2.13479e-06
4.91181e-07
2.61749e-07
2.59406e-07
2.59365e-07
2.59345e-07
2.59767e-07
9.50567e-07
4.32228e-06
2.20549e-06
4.07157e-07
2.43357e-07
2.41453e-07
2.4141e-07
2.41076e-07
2.41075e-07
1.33653e-06
2.51001e-05
2.62273e-05
9.42122e-06
1.29459e-06
5.5029e-07
5.48147e-07
5.49277e-07
6.87688e-07
2.84784e-06
8.62546e-06
4.264e-06
1.37446e-06
1.41904e-06
2.22293e-06
2.20376e-06
1.43565e-06
3.41101e-07
1.96258e-07
2.02524e-07
1.99148e-07
1.93148e-07
1.84035e-07
1.7199e-07
1.57426e-07
1.40904e-07
1.23129e-07
1.04913e-07
8.70858e-08
7.03981e-08
5.54267e-08
4.2525e-08
3.18193e-08
2.32433e-08
1.65949e-08
1.15956e-08
7.94213e-09
5.34268e-09
3.53935e-09
2.3179e-09
1.50898e-09
9.84318e-10
6.50261e-10
4.40734e-10
3.10575e-10
2.29845e-10
1.79273e-10
1.46813e-10
1.25142e-10
1.09921e-10
9.86361e-11
8.98398e-11
8.26902e-11
7.66726e-11
7.14458e-11
6.67629e-11
6.24344e-11
5.83142e-11
5.4295e-11
5.0307e-11
4.63162e-11
4.23203e-11
3.83445e-11
3.44341e-11
3.06478e-11
2.70484e-11
2.36942e-11
2.06319e-11
1.78901e-11
1.54767e-11
1.338e-11
1.15717e-11
1.00138e-11
8.66453e-12
7.48496e-12
6.44293e-12
5.51486e-12
4.68545e-12
3.94579e-12
3.29091e-12
2.71742e-12
2.22181e-12
1.79954e-12
1.44477e-12
1.1506e-12
9.09532e-13
7.13988e-13
5.56726e-13
4.31151e-13
3.31493e-13
2.52851e-13
1.91154e-13
1.43067e-13
2.81455e-06
7.74533e-07
4.9013e-07
4.86776e-07
4.63021e-07
4.18353e-07
4.04596e-07
4.15767e-07
4.48094e-07
4.14389e-07
4.1664e-07
4.25563e-07
4.25013e-07
4.23454e-07
4.19608e-07
4.09509e-07
7.21678e-07
6.82056e-06
1.06963e-05
1.0697e-05
9.47104e-06
3.19196e-06
4.2261e-07
3.42939e-07
3.3967e-07
3.34756e-07
3.3605e-07
3.40785e-07
3.44399e-07
3.50394e-07
2.02701e-06
2.32247e-06
8.30479e-07
3.1626e-07
3.16892e-07
3.16625e-07
3.04708e-07
3.64388e-07
3.07514e-07
3.11856e-07
3.1405e-07
3.14214e-07
8.41257e-07
6.5043e-06
3.81279e-06
9.07857e-07
3.07891e-07
3.01023e-07
3.01539e-07
3.02633e-07
3.01818e-07
3.00012e-07
2.99082e-07
5.3303e-07
3.68034e-06
3.0129e-06
7.46601e-07
2.62642e-07
2.64533e-07
2.67893e-07
2.70279e-07
2.72836e-07
2.76268e-07
2.80822e-07
2.83485e-07
2.79643e-07
7.01187e-07
1.4569e-06
5.49939e-07
3.073e-07
3.0431e-07
5.10148e-07
1.65565e-06
1.25049e-06
3.57843e-07
2.71183e-07
2.71374e-07
2.71529e-07
9.18261e-07
6.22488e-07
2.92435e-07
2.84084e-07
2.82985e-07
2.80095e-07
2.89933e-07
9.57121e-07
5.6358e-07
2.04003e-07
4.7365e-07
2.55804e-07
2.54193e-07
2.48468e-07
2.79772e-07
2.66824e-07
2.65875e-07
2.64065e-07
5.33886e-07
1.33494e-06
6.26706e-07
3.04937e-07
2.01946e-07
2.57802e-07
2.52477e-07
3.52937e-07
2.48749e-07
2.50525e-07
2.52911e-07
2.78375e-07
2.91262e-07
2.83867e-07
2.67691e-07
8.42609e-07
9.38209e-07
8.72224e-07
3.23439e-07
2.43148e-07
2.34756e-07
7.63196e-07
5.05388e-07
2.72998e-07
2.72577e-07
2.73293e-07
2.73543e-07
2.69622e-07
3.82035e-07
6.31819e-07
6.03858e-07
2.84447e-07
2.82507e-07
1.07657e-06
1.44764e-06
9.80374e-07
3.44164e-07
3.37533e-07
3.37427e-07
3.3743e-07
3.40049e-07
1.73267e-06
1.62834e-06
5.00942e-07
1.27672e-06
9.46115e-07
3.70458e-07
3.57243e-07
4.26984e-07
2.45713e-06
2.0708e-06
8.21737e-07
3.63105e-07
3.59056e-07
3.5907e-07
3.71334e-07
3.5565e-06
2.76897e-06
1.05074e-06
4.42919e-07
4.38808e-07
4.38734e-07
4.39003e-07
4.42736e-07
8.60987e-07
2.61776e-06
2.63542e-06
2.43507e-06
8.17637e-07
4.03172e-07
3.97725e-07
3.96648e-07
3.92649e-07
3.97949e-07
9.28254e-07
3.96953e-06
2.88265e-06
1.53572e-06
5.11535e-07
4.4608e-07
6.27856e-07
2.44938e-06
5.61142e-06
3.18955e-06
5.5126e-07
4.0262e-07
4.23185e-07
1.25166e-06
1.19058e-06
4.53721e-07
3.91912e-07
3.91139e-07
3.91139e-07
4.32118e-07
4.59338e-06
3.08354e-06
9.85787e-07
2.63888e-07
2.59454e-07
2.59367e-07
2.59767e-07
8.60783e-07
1.42258e-06
8.36111e-07
2.56863e-07
2.51781e-07
2.49774e-07
2.48442e-07
2.47462e-07
2.46298e-07
3.25475e-07
4.23627e-06
2.76607e-05
3.19137e-05
2.92715e-05
1.00926e-05
1.10433e-06
5.5045e-07
5.49639e-07
5.51301e-07
1.32649e-06
1.42497e-05
2.79208e-05
2.26457e-05
7.58957e-06
1.07292e-06
2.94105e-07
2.91862e-07
2.45748e-07
2.21141e-07
2.11624e-07
2.06893e-07
2.02963e-07
1.97898e-07
1.90875e-07
1.81554e-07
1.69842e-07
1.55858e-07
1.3995e-07
1.22691e-07
1.04833e-07
8.71969e-08
7.05579e-08
5.55353e-08
4.25305e-08
3.17128e-08
2.30469e-08
1.63462e-08
1.13344e-08
7.70096e-09
5.14274e-09
3.39024e-09
2.21995e-09
1.45658e-09
9.68935e-10
6.62803e-10
4.72963e-10
3.55796e-10
2.83061e-10
2.37033e-10
2.06909e-10
1.8628e-10
1.71414e-10
1.60151e-10
1.51209e-10
1.4378e-10
1.37302e-10
1.31355e-10
1.25604e-10
1.19789e-10
1.13724e-10
1.07295e-10
1.00465e-10
9.32702e-11
8.581e-11
7.82348e-11
7.07254e-11
6.34693e-11
5.66358e-11
5.03537e-11
4.46966e-11
3.96785e-11
3.526e-11
3.13643e-11
2.78971e-11
2.47665e-11
2.18983e-11
1.9243e-11
1.67764e-11
1.44937e-11
1.2401e-11
1.05081e-11
8.82143e-12
7.34172e-12
6.06245e-12
4.97094e-12
4.05001e-12
3.28e-12
2.64067e-12
2.1126e-12
1.67826e-12
1.32242e-12
1.03225e-12
7.97041e-13
3.09809e-06
1.05488e-06
4.9424e-07
1.19745e-06
7.69894e-07
3.11651e-07
2.99639e-07
5.26677e-07
3.94801e-07
3.4729e-07
3.25554e-07
4.40632e-07
3.84581e-07
3.82858e-07
3.8227e-07
3.83172e-07
5.18753e-07
5.14535e-06
1.07017e-05
7.86628e-06
2.17785e-06
3.16299e-07
3.28823e-07
3.47364e-07
3.24983e-07
3.25333e-07
3.29389e-07
3.47532e-07
3.5202e-07
3.65888e-07
1.6822e-06
9.05027e-07
3.10952e-07
3.08084e-07
3.07135e-07
3.05766e-07
3.0403e-07
2.95387e-07
3.0467e-07
3.09588e-07
3.11973e-07
3.13682e-07
1.50472e-06
1.79925e-06
6.42546e-07
3.06217e-07
2.99632e-07
3.00577e-07
2.98359e-07
3.25539e-07
3.15541e-07
3.16443e-07
3.58762e-07
9.83198e-07
9.7175e-07
3.31521e-07
2.63331e-07
2.55551e-07
2.61378e-07
2.61685e-07
2.6007e-07
2.62298e-07
2.71665e-07
2.8466e-07
3.39981e-07
3.74947e-07
3.41501e-07
3.00654e-07
2.91381e-07
2.99373e-07
3.04319e-07
7.35092e-07
8.00403e-07
3.2284e-07
2.74154e-07
2.69261e-07
2.72197e-07
2.79421e-07
2.73378e-07
2.83872e-07
5.77375e-07
5.89774e-07
3.52319e-07
2.80818e-07
1.91204e-07
4.97816e-07
2.41612e-07
1.97575e-07