/*--------------------------------*- C++ -*----------------------------------*\
| =========                 |                                                 |
| \\      /  F ield         | OpenFOAM: The Open Source CFD Toolbox           |
|  \\    /   O peration     | Version:  2.4.0                                 |
|   \\  /    A nd           | Web:      www.OpenFOAM.org                      |
|    \\/     M anipulation  |                                                 |
\*---------------------------------------------------------------------------*/
FoamFile
{
    version     2.0;
    format      ascii;
    class       volScalarField;
    location    "0.1";
    object      p_rgh;
}
// * * * * * * * * * * * * * * * * * * * * * * * * * * * * * * * * * * * * * //

dimensions      [1 -1 -2 0 0 0 0];

internalField   nonuniform List<scalar> 
125
(
-0.000308739
-0.000308743
-0.000308762
-0.000308768
-0.000308777
-0.000305949
-0.000305953
-0.000305973
-0.000305979
-0.000305988
-0.000303129
-0.000303133
-0.000303153
-0.000303159
-0.000303168
-0.000300277
-0.000300281
-0.000300302
-0.000300308
-0.000300316
-0.000297393
-0.000297397
-0.000297419
-0.000297425
-0.000297433
-0.000294477
-0.000294481
-0.000294504
-0.000294509
-0.000294518
-0.000291529
-0.000291533
-0.000291556
-0.000291562
-0.00029157
-0.000288548
-0.000288552
-0.000288576
-0.000288581
-0.00028859
-0.000285533
-0.000285537
-0.000285562
-0.000285568
-0.000285576
-0.000282485
-0.000282489
-0.000282515
-0.000282521
-0.000282529
-0.000279403
-0.000279407
-0.000279434
-0.000279439
-0.000279448
-0.000276287
-0.000276291
-0.000276319
-0.000276324
-0.000276333
-0.000273136
-0.00027314
-0.000273169
-0.000273174
-0.000273183
-0.00026995
-0.000269954
-0.000269984
-0.000269989
-0.000269997
-0.000266728
-0.000266732
-0.000266763
-0.000266768
-0.000266777
-0.000263471
-0.000263475
-0.000263506
-0.000263511
-0.00026352
-0.000260177
-0.000260181
-0.000260214
-0.000260218
-0.000260227
-0.000256847
-0.00025685
-0.000256884
-0.000256889
-0.000256898
-0.000253479
-0.000253483
-0.000253517
-0.000253522
-0.000253531
-0.000250074
-0.000250077
-0.000250113
-0.000250118
-0.000250127
-0.00024663
-0.000246634
-0.000246671
-0.000246676
-0.000246685
-0.000243149
-0.000243153
-0.000243192
-0.000243196
-0.000243205
-0.000239629
-0.000239633
-0.000239673
-0.000239678
-0.000239687
-0.000236068
-0.000236072
-0.000236114
-0.000236118
-0.000236128
-0.000232459
-0.000232462
-0.000232501
-0.000232504
-0.000232513
)
;

boundaryField
{
    BotWall
    {
        type            fixedFluxPressure;
        gradient        nonuniform 0();
        value           nonuniform 0();
    }
    FreeStream
    {
        type            totalPressure;
        rho             rho;
        psi             none;
        gamma           1;
        p0              uniform 0;
        value           nonuniform List<scalar> 5(-0.000230643 -0.000230644 -0.000230679 -0.000230682 -0.000230689);
    }
    FrontNBack
    {
        type            empty;
    }
    LeftSide
    {
        type            symmetryPlane;
    }
    RightSide
    {
        type            symmetryPlane;
    }
    procBoundary3to2
    {
        type            processor;
        value           nonuniform List<scalar> 5(-0.000311498 -0.000311502 -0.00031152 -0.000311526 -0.000311535);
    }
}


// ************************************************************************* //
