/*--------------------------------*- C++ -*----------------------------------*\
| =========                 |                                                 |
| \\      /  F ield         | OpenFOAM: The Open Source CFD Toolbox           |
|  \\    /   O peration     | Version:  2.4.0                                 |
|   \\  /    A nd           | Web:      www.OpenFOAM.org                      |
|    \\/     M anipulation  |                                                 |
\*---------------------------------------------------------------------------*/
FoamFile
{
    version     2.0;
    format      ascii;
    class       volScalarField;
    location    "0.9";
    object      p;
}
// * * * * * * * * * * * * * * * * * * * * * * * * * * * * * * * * * * * * * //

dimensions      [1 -1 -2 0 0 0 0];

internalField   nonuniform List<scalar> 
8000
(
-1.01283
-1.01408
-1.01565
-1.01737
-1.01924
-1.02126
-1.02344
-1.02578
-1.02828
-1.03095
-1.03378
-1.03678
-1.03995
-1.04329
-1.04682
-1.05054
-1.05446
-1.05857
-1.06293
-1.06767
-1.07291
-1.07789
-1.07942
-1.07502
-1.08482
-1.18971
-1.4488
-1.36682
-0.911004
-0.905885
-0.905695
-0.905733
-0.905753
-0.905756
-0.905754
-0.905753
-0.905753
-0.905753
-0.905753
-0.905752
-0.905752
-0.905752
-0.905752
-0.905753
-0.905753
-0.905753
-0.905753
-0.905753
-0.905753
-0.905753
-1.02725
-1.0283
-1.0296
-1.03103
-1.03258
-1.03426
-1.03608
-1.03803
-1.04011
-1.04232
-1.04466
-1.04713
-1.04972
-1.05245
-1.05532
-1.05832
-1.06145
-1.06472
-1.0682
-1.07212
-1.07649
-1.07953
-1.07585
-1.06532
-1.09383
-1.2976
-1.67202
-1.21417
-0.929289
-0.928152
-0.928087
-0.928114
-0.928126
-0.928127
-0.928126
-0.928125
-0.928124
-0.928123
-0.928123
-0.928122
-0.928122
-0.928122
-0.928122
-0.928122
-0.928122
-0.928122
-0.928122
-0.928122
-0.928122
-0.928122
-1.00034
-1.00342
-1.00671
-1.00971
-1.01243
-1.01496
-1.01731
-1.01949
-1.02149
-1.02331
-1.02495
-1.02641
-1.02768
-1.02875
-1.02963
-1.03029
-1.03073
-1.03091
-1.031
-1.03131
-1.03169
-1.02849
-1.01262
-0.988707
-1.04878
-1.42335
-1.98238
-1.05323
-0.950797
-0.950447
-0.950473
-0.950497
-0.950501
-0.9505
-0.950498
-0.950498
-0.950497
-0.950497
-0.950496
-0.950495
-0.950495
-0.950495
-0.950495
-0.950495
-0.950495
-0.950494
-0.950494
-0.950494
-0.950494
-0.950494
-1.02715
-1.03017
-1.03342
-1.03642
-1.03921
-1.04185
-1.04437
-1.04678
-1.04906
-1.05123
-1.05328
-1.05522
-1.05703
-1.05873
-1.0603
-1.06174
-1.06303
-1.06418
-1.06531
-1.06661
-1.06779
-1.06587
-1.05514
-1.04402
-1.10685
-1.3863
-1.68047
-0.99241
-0.973055
-0.972792
-0.972838
-0.972863
-0.972866
-0.972864
-0.972862
-0.972862
-0.972861
-0.972861
-0.972861
-0.97286
-0.97286
-0.97286
-0.97286
-0.97286
-0.97286
-0.97286
-0.97286
-0.97286
-0.97286
-0.97286
-1.11394
-1.11488
-1.11611
-1.1175
-1.11903
-1.12072
-1.12258
-1.12459
-1.12676
-1.1291
-1.1316
-1.13427
-1.13711
-1.14012
-1.14332
-1.1467
-1.15027
-1.15406
-1.1582
-1.16284
-1.16736
-1.16868
-1.16347
-1.1683
-1.2614
-1.52364
-1.52556
-0.998905
-0.995352
-0.995179
-0.995221
-0.995242
-0.995244
-0.995241
-0.99524
-0.99524
-0.995239
-0.995239
-0.995238
-0.995238
-0.995237
-0.995237
-0.995237
-0.995237
-0.995237
-0.995236
-0.995236
-0.995236
-0.995236
-0.995236
-1.12244
-1.12295
-1.12363
-1.12447
-1.12547
-1.12665
-1.12798
-1.12948
-1.13113
-1.13294
-1.13491
-1.13703
-1.13932
-1.14177
-1.14439
-1.14717
-1.15012
-1.15329
-1.15686
-1.16087
-1.16422
-1.16304
-1.15597
-1.17188
-1.30792
-1.59309
-1.36144
-1.01855
-1.01759
-1.01755
-1.01759
-1.0176
-1.0176
-1.0176
-1.0176
-1.0176
-1.0176
-1.0176
-1.0176
-1.0176
-1.0176
-1.0176
-1.0176
-1.0176
-1.0176
-1.0176
-1.0176
-1.0176
-1.0176
-1.0176
-1.11894
-1.12064
-1.12255
-1.12437
-1.12608
-1.12774
-1.12934
-1.13089
-1.13239
-1.13384
-1.13522
-1.13654
-1.1378
-1.139
-1.14011
-1.14112
-1.14203
-1.14297
-1.14437
-1.14616
-1.14446
-1.1285
-1.10031
-1.15879
-1.57786
-2.28589
-1.2356
-1.04037
-1.03993
-1.03997
-1.04
-1.04001
-1.04
-1.04
-1.04
-1.04
-1.04
-1.03999
-1.03999
-1.03999
-1.03999
-1.03999
-1.03999
-1.03999
-1.03999
-1.03999
-1.03999
-1.03998
-1.03998
-1.03998
-1.09525
-1.09808
-1.10106
-1.10372
-1.10611
-1.1083
-1.1103
-1.11213
-1.11378
-1.11525
-1.11653
-1.11764
-1.11855
-1.11928
-1.11981
-1.12013
-1.12023
-1.12025
-1.12053
-1.12084
-1.11751
-1.10176
-1.07947
-1.14367
-1.51598
-2.0415
-1.10234
-1.06254
-1.06226
-1.06232
-1.06235
-1.06235
-1.06235
-1.06235
-1.06234
-1.06234
-1.06234
-1.06234
-1.06234
-1.06234
-1.06234
-1.06234
-1.06234
-1.06234
-1.06234
-1.06234
-1.06234
-1.06234
-1.06234
-1.06234
-1.15832
-1.16012
-1.16214
-1.16411
-1.16601
-1.16789
-1.16976
-1.17163
-1.17349
-1.17534
-1.17718
-1.17903
-1.18087
-1.18272
-1.18456
-1.18639
-1.18822
-1.19017
-1.1925
-1.19489
-1.19422
-1.18423
-1.17341
-1.24095
-1.54263
-1.85927
-1.09187
-1.08488
-1.08465
-1.0847
-1.08473
-1.08473
-1.08473
-1.08473
-1.08473
-1.08473
-1.08473
-1.08472
-1.08472
-1.08472
-1.08472
-1.08472
-1.08472
-1.08472
-1.08472
-1.08472
-1.08472
-1.08472
-1.08472
-1.08472
-1.19916
-1.19987
-1.20075
-1.20174
-1.20282
-1.20402
-1.20532
-1.20674
-1.20826
-1.20989
-1.21164
-1.21349
-1.21546
-1.21754
-1.21973
-1.22203
-1.22445
-1.22713
-1.23025
-1.23335
-1.23344
-1.22584
-1.22253
-1.29978
-1.57247
-1.72135
-1.10872
-1.10712
-1.10704
-1.10708
-1.10709
-1.10709
-1.10709
-1.10709
-1.10709
-1.10709
-1.10709
-1.10709
-1.10709
-1.10709
-1.10709
-1.10709
-1.10709
-1.10709
-1.10709
-1.10709
-1.10709
-1.10709
-1.10709
-1.10709
-1.21215
-1.21282
-1.21362
-1.21448
-1.21541
-1.21642
-1.21751
-1.21869
-1.21994
-1.22126
-1.22266
-1.22414
-1.22568
-1.2273
-1.22899
-1.23074
-1.23257
-1.23463
-1.23704
-1.23906
-1.23737
-1.22881
-1.23248
-1.33265
-1.60397
-1.58655
-1.13007
-1.12941
-1.12944
-1.12947
-1.12948
-1.12948
-1.12947
-1.12947
-1.12947
-1.12947
-1.12947
-1.12947
-1.12947
-1.12947
-1.12947
-1.12947
-1.12947
-1.12947
-1.12947
-1.12947
-1.12947
-1.12947
-1.12947
-1.12947
-1.22642
-1.22689
-1.22752
-1.22828
-1.22916
-1.23017
-1.2313
-1.23255
-1.23392
-1.23542
-1.23703
-1.23876
-1.24061
-1.24259
-1.24468
-1.24689
-1.24927
-1.25199
-1.25511
-1.25741
-1.25476
-1.24581
-1.26199
-1.40804
-1.71061
-1.47208
-1.1522
-1.15174
-1.15181
-1.15184
-1.15185
-1.15184
-1.15184
-1.15184
-1.15184
-1.15184
-1.15184
-1.15184
-1.15184
-1.15184
-1.15184
-1.15184
-1.15184
-1.15184
-1.15184
-1.15184
-1.15184
-1.15184
-1.15184
-1.15184
-1.20783
-1.20906
-1.21048
-1.21191
-1.21333
-1.21477
-1.21623
-1.21772
-1.21923
-1.22076
-1.22231
-1.22387
-1.22545
-1.22704
-1.22862
-1.23021
-1.23189
-1.23398
-1.23644
-1.23653
-1.22646
-1.20737
-1.24932
-1.54931
-2.06438
-1.37269
-1.17453
-1.17412
-1.1742
-1.17423
-1.17424
-1.17423
-1.17423
-1.17423
-1.17423
-1.17423
-1.17423
-1.17423
-1.17422
-1.17422
-1.17422
-1.17422
-1.17422
-1.17422
-1.17422
-1.17422
-1.17422
-1.17422
-1.17422
-1.17422
-1.1634
-1.16648
-1.16974
-1.17267
-1.17528
-1.17765
-1.17982
-1.18177
-1.1835
-1.18501
-1.18631
-1.18738
-1.18822
-1.18883
-1.18918
-1.18927
-1.18928
-1.18965
-1.19016
-1.18622
-1.16627
-1.13622
-1.21228
-1.68697
-2.39518
-1.26028
-1.19681
-1.19649
-1.19656
-1.1966
-1.1966
-1.1966
-1.1966
-1.1966
-1.1966
-1.1966
-1.1966
-1.1966
-1.1966
-1.1966
-1.1966
-1.1966
-1.1966
-1.1966
-1.1966
-1.1966
-1.1966
-1.19659
-1.19659
-1.19659
-1.18242
-1.1858
-1.18946
-1.19283
-1.19594
-1.19886
-1.20163
-1.20424
-1.20669
-1.20899
-1.21112
-1.21309
-1.2149
-1.21654
-1.21799
-1.21926
-1.22049
-1.222
-1.22351
-1.22128
-1.20707
-1.18854
-1.2591
-1.62562
-2.10563
-1.23311
-1.21918
-1.21889
-1.21896
-1.21899
-1.21899
-1.21899
-1.21899
-1.21899
-1.21899
-1.21899
-1.21899
-1.21898
-1.21898
-1.21898
-1.21898
-1.21898
-1.21898
-1.21898
-1.21898
-1.21898
-1.21898
-1.21898
-1.21898
-1.21898
-1.24824
-1.25057
-1.25329
-1.25601
-1.25875
-1.26154
-1.26439
-1.26731
-1.2703
-1.27335
-1.27646
-1.27964
-1.28288
-1.28619
-1.28957
-1.29302
-1.29671
-1.30085
-1.30494
-1.30539
-1.2965
-1.29221
-1.38339
-1.71128
-1.94326
-1.24492
-1.24151
-1.24131
-1.24136
-1.24139
-1.24139
-1.24139
-1.24138
-1.24138
-1.24138
-1.24138
-1.24138
-1.24138
-1.24138
-1.24138
-1.24138
-1.24138
-1.24138
-1.24137
-1.24137
-1.24137
-1.24137
-1.24137
-1.24137
-1.24137
-1.27097
-1.27333
-1.27607
-1.27885
-1.28169
-1.28464
-1.28769
-1.29085
-1.2941
-1.29745
-1.3009
-1.30445
-1.30809
-1.31182
-1.31566
-1.31963
-1.32394
-1.32871
-1.33283
-1.33177
-1.32234
-1.33384
-1.48051
-1.83751
-1.77367
-1.26493
-1.26378
-1.26373
-1.26377
-1.26378
-1.26378
-1.26378
-1.26378
-1.26378
-1.26378
-1.26378
-1.26378
-1.26378
-1.26377
-1.26377
-1.26377
-1.26377
-1.26377
-1.26377
-1.26377
-1.26377
-1.26376
-1.26376
-1.26376
-1.26376
-1.28482
-1.28893
-1.29356
-1.29801
-1.3023
-1.3065
-1.31065
-1.31472
-1.31873
-1.32265
-1.32649
-1.33024
-1.33389
-1.33743
-1.34084
-1.34426
-1.3481
-1.35235
-1.35339
-1.34073
-1.31498
-1.36843
-1.76732
-2.47884
-1.63508
-1.28672
-1.28614
-1.28618
-1.28621
-1.28622
-1.28621
-1.28621
-1.28621
-1.28621
-1.2862
-1.2862
-1.2862
-1.2862
-1.28619
-1.28619
-1.28619
-1.28619
-1.28618
-1.28618
-1.28618
-1.28618
-1.28617
-1.28617
-1.28617
-1.28617
-1.26602
-1.27354
-1.28166
-1.28912
-1.29598
-1.30241
-1.30846
-1.31412
-1.31939
-1.32427
-1.32875
-1.33282
-1.33647
-1.33969
-1.34245
-1.34496
-1.34761
-1.35016
-1.34799
-1.33005
-1.30345
-1.38464
-1.85334
-2.5251
-1.41849
-1.30892
-1.30853
-1.30859
-1.30863
-1.30863
-1.30863
-1.30862
-1.30862
-1.30862
-1.30862
-1.30861
-1.30861
-1.30861
-1.3086
-1.3086
-1.3086
-1.30859
-1.30859
-1.30859
-1.30859
-1.30858
-1.30858
-1.30858
-1.30857
-1.30857
-1.34928
-1.35788
-1.36733
-1.37624
-1.38469
-1.39285
-1.40076
-1.40844
-1.41585
-1.42302
-1.42991
-1.43656
-1.44292
-1.44902
-1.45489
-1.46073
-1.46673
-1.47189
-1.47134
-1.46007
-1.46464
-1.60648
-2.0088
-2.1056
-1.34858
-1.33131
-1.33095
-1.33102
-1.33106
-1.33106
-1.33106
-1.33105
-1.33105
-1.33105
-1.33105
-1.33104
-1.33104
-1.33104
-1.33103
-1.33103
-1.33103
-1.33102
-1.33102
-1.33102
-1.33102
-1.33102
-1.33101
-1.33101
-1.331
-1.33098
-0.905753
-0.905754
-0.905754
-0.905754
-0.905754
-0.905754
-0.905754
-0.905754
-0.905754
-0.905754
-0.905754
-0.905754
-0.905754
-0.905754
-0.905754
-0.905754
-0.905754
-0.905754
-0.905754
-0.905754
-0.905754
-0.905754
-0.905754
-0.905754
-0.905754
-0.905754
-0.905754
-0.905754
-0.905754
-0.905754
-0.905754
-0.905754
-0.905754
-0.905754
-0.905754
-0.905754
-0.905754
-0.905754
-0.905754
-0.905754
-0.905754
-0.905754
-0.905754
-0.905754
-0.905754
-0.905754
-0.905754
-0.905754
-0.905754
-0.905754
-0.928122
-0.928121
-0.928121
-0.928121
-0.928121
-0.928121
-0.928121
-0.928121
-0.928121
-0.928121
-0.928121
-0.928121
-0.928121
-0.928121
-0.928121
-0.928121
-0.928121
-0.928121
-0.928121
-0.928121
-0.928121
-0.928121
-0.928121
-0.928121
-0.928121
-0.928121
-0.928121
-0.928121
-0.928121
-0.928121
-0.928121
-0.928121
-0.928121
-0.928121
-0.928121
-0.928121
-0.92812
-0.92812
-0.92812
-0.92812
-0.92812
-0.92812
-0.92812
-0.92812
-0.92812
-0.92812
-0.92812
-0.92812
-0.92812
-0.92812
-0.950494
-0.950494
-0.950494
-0.950494
-0.950494
-0.950494
-0.950494
-0.950493
-0.950493
-0.950493
-0.950493
-0.950493
-0.950493
-0.950493
-0.950493
-0.950493
-0.950493
-0.950493
-0.950493
-0.950492
-0.950492
-0.950492
-0.950492
-0.950492
-0.950492
-0.950492
-0.950492
-0.950492
-0.950492
-0.950492
-0.950492
-0.950491
-0.950491
-0.950491
-0.950491
-0.950491
-0.950491
-0.950491
-0.950491
-0.950491
-0.950491
-0.950491
-0.95049
-0.95049
-0.95049
-0.95049
-0.95049
-0.95049
-0.95049
-0.95049
-0.97286
-0.97286
-0.97286
-0.97286
-0.97286
-0.97286
-0.97286
-0.972859
-0.972859
-0.972859
-0.972859
-0.972859
-0.972859
-0.972859
-0.972859
-0.972859
-0.972859
-0.972859
-0.972859
-0.972859
-0.972859
-0.972859
-0.972859
-0.972859
-0.972859
-0.972858
-0.972858
-0.972858
-0.972858
-0.972858
-0.972858
-0.972858
-0.972858
-0.972858
-0.972858
-0.972858
-0.972858
-0.972857
-0.972857
-0.972857
-0.972857
-0.972857
-0.972857
-0.972857
-0.972857
-0.972857
-0.972857
-0.972856
-0.972856
-0.972856
-0.995236
-0.995235
-0.995235
-0.995235
-0.995235
-0.995235
-0.995235
-0.995234
-0.995234
-0.995234
-0.995234
-0.995234
-0.995233
-0.995233
-0.995233
-0.995233
-0.995233
-0.995233
-0.995232
-0.995232
-0.995232
-0.995232
-0.995232
-0.995231
-0.995231
-0.995231
-0.995231
-0.995231
-0.995231
-0.99523
-0.99523
-0.99523
-0.99523
-0.99523
-0.995229
-0.995229
-0.995229
-0.995229
-0.995229
-0.995229
-0.995228
-0.995228
-0.995228
-0.995228
-0.995228
-0.995227
-0.995227
-0.995227
-0.995227
-0.995227
-1.0176
-1.0176
-1.0176
-1.0176
-1.0176
-1.0176
-1.0176
-1.0176
-1.0176
-1.0176
-1.0176
-1.0176
-1.0176
-1.0176
-1.0176
-1.0176
-1.0176
-1.0176
-1.0176
-1.0176
-1.0176
-1.0176
-1.0176
-1.0176
-1.0176
-1.0176
-1.0176
-1.0176
-1.0176
-1.0176
-1.0176
-1.0176
-1.0176
-1.0176
-1.0176
-1.0176
-1.0176
-1.0176
-1.0176
-1.0176
-1.0176
-1.01759
-1.01759
-1.01759
-1.01759
-1.01759
-1.01759
-1.01759
-1.01759
-1.01759
-1.03998
-1.03998
-1.03998
-1.03998
-1.03998
-1.03998
-1.03998
-1.03998
-1.03998
-1.03998
-1.03998
-1.03998
-1.03998
-1.03998
-1.03998
-1.03998
-1.03998
-1.03997
-1.03997
-1.03997
-1.03997
-1.03997
-1.03997
-1.03997
-1.03997
-1.03997
-1.03997
-1.03997
-1.03997
-1.03997
-1.03997
-1.03997
-1.03997
-1.03997
-1.03997
-1.03997
-1.03997
-1.03997
-1.03997
-1.03997
-1.03997
-1.03997
-1.03997
-1.03997
-1.03997
-1.03997
-1.03997
-1.03997
-1.03996
-1.03996
-1.06234
-1.06234
-1.06234
-1.06234
-1.06234
-1.06234
-1.06234
-1.06234
-1.06234
-1.06234
-1.06234
-1.06234
-1.06234
-1.06234
-1.06234
-1.06234
-1.06234
-1.06234
-1.06234
-1.06234
-1.06234
-1.06234
-1.06234
-1.06234
-1.06234
-1.06234
-1.06234
-1.06234
-1.06234
-1.06234
-1.06234
-1.06234
-1.06234
-1.06234
-1.06234
-1.06234
-1.06234
-1.06234
-1.06233
-1.06233
-1.06233
-1.06233
-1.06233
-1.06233
-1.06233
-1.06233
-1.06233
-1.06233
-1.06233
-1.06233
-1.08472
-1.08472
-1.08472
-1.08472
-1.08472
-1.08472
-1.08472
-1.08472
-1.08472
-1.08472
-1.08472
-1.08472
-1.08472
-1.08472
-1.08472
-1.08472
-1.08472
-1.08472
-1.08471
-1.08471
-1.08471
-1.08471
-1.08471
-1.08471
-1.08471
-1.08471
-1.08471
-1.08471
-1.08471
-1.08471
-1.08471
-1.08471
-1.08471
-1.08471
-1.08471
-1.08471
-1.08471
-1.08471
-1.08471
-1.08471
-1.08471
-1.08471
-1.08471
-1.08471
-1.08471
-1.0847
-1.0847
-1.0847
-1.0847
-1.0847
-1.10709
-1.10709
-1.10709
-1.10709
-1.10709
-1.10709
-1.10709
-1.10709
-1.10709
-1.10709
-1.10708
-1.10708
-1.10708
-1.10708
-1.10708
-1.10708
-1.10708
-1.10708
-1.10708
-1.10708
-1.10708
-1.10708
-1.10708
-1.10708
-1.10708
-1.10708
-1.10708
-1.10708
-1.10708
-1.10708
-1.10708
-1.10708
-1.10708
-1.10708
-1.10708
-1.10708
-1.10708
-1.10708
-1.10708
-1.10708
-1.10708
-1.10707
-1.10707
-1.10707
-1.10707
-1.10707
-1.10707
-1.10707
-1.10707
-1.10707
-1.12947
-1.12947
-1.12947
-1.12947
-1.12946
-1.12946
-1.12946
-1.12946
-1.12946
-1.12946
-1.12946
-1.12946
-1.12946
-1.12946
-1.12946
-1.12946
-1.12946
-1.12946
-1.12946
-1.12946
-1.12946
-1.12946
-1.12946
-1.12946
-1.12946
-1.12946
-1.12945
-1.12945
-1.12945
-1.12945
-1.12945
-1.12945
-1.12945
-1.12945
-1.12945
-1.12945
-1.12945
-1.12945
-1.12945
-1.12945
-1.12945
-1.12945
-1.12945
-1.12945
-1.12945
-1.12945
-1.12944
-1.12944
-1.12944
-1.12944
-1.15184
-1.15184
-1.15184
-1.15184
-1.15184
-1.15184
-1.15183
-1.15183
-1.15183
-1.15183
-1.15183
-1.15183
-1.15183
-1.15183
-1.15183
-1.15183
-1.15183
-1.15183
-1.15183
-1.15183
-1.15183
-1.15183
-1.15183
-1.15183
-1.15183
-1.15183
-1.15183
-1.15183
-1.15182
-1.15182
-1.15182
-1.15182
-1.15182
-1.15182
-1.15182
-1.15182
-1.15182
-1.15182
-1.15182
-1.15182
-1.15182
-1.15182
-1.15182
-1.15182
-1.15182
-1.15182
-1.15181
-1.15181
-1.15181
-1.15181
-1.17422
-1.17422
-1.17422
-1.17422
-1.17422
-1.17422
-1.17422
-1.17421
-1.17421
-1.17421
-1.17421
-1.17421
-1.17421
-1.17421
-1.17421
-1.17421
-1.17421
-1.17421
-1.17421
-1.17421
-1.17421
-1.17421
-1.1742
-1.1742
-1.1742
-1.1742
-1.1742
-1.1742
-1.1742
-1.1742
-1.1742
-1.1742
-1.1742
-1.1742
-1.1742
-1.1742
-1.17419
-1.17419
-1.17419
-1.17419
-1.17419
-1.17419
-1.17419
-1.17419
-1.17419
-1.17419
-1.17419
-1.17419
-1.17419
-1.17418
-1.19659
-1.19659
-1.19659
-1.19659
-1.19659
-1.19659
-1.19659
-1.19659
-1.19659
-1.19659
-1.19659
-1.19659
-1.19659
-1.19659
-1.19659
-1.19658
-1.19658
-1.19658
-1.19658
-1.19658
-1.19658
-1.19658
-1.19658
-1.19658
-1.19658
-1.19658
-1.19658
-1.19657
-1.19657
-1.19657
-1.19657
-1.19657
-1.19657
-1.19657
-1.19657
-1.19657
-1.19657
-1.19657
-1.19657
-1.19656
-1.19656
-1.19656
-1.19656
-1.19656
-1.19656
-1.19656
-1.19656
-1.19656
-1.19656
-1.19656
-1.21898
-1.21898
-1.21898
-1.21898
-1.21898
-1.21898
-1.21897
-1.21897
-1.21897
-1.21897
-1.21897
-1.21897
-1.21897
-1.21897
-1.21897
-1.21897
-1.21896
-1.21896
-1.21896
-1.21896
-1.21896
-1.21896
-1.21896
-1.21896
-1.21896
-1.21895
-1.21895
-1.21895
-1.21895
-1.21895
-1.21895
-1.21895
-1.21895
-1.21895
-1.21894
-1.21894
-1.21894
-1.21894
-1.21894
-1.21894
-1.21894
-1.21894
-1.21894
-1.21893
-1.21893
-1.21893
-1.21893
-1.21893
-1.21893
-1.21893
-1.24137
-1.24137
-1.24137
-1.24136
-1.24136
-1.24136
-1.24136
-1.24136
-1.24136
-1.24136
-1.24135
-1.24135
-1.24135
-1.24135
-1.24135
-1.24135
-1.24135
-1.24134
-1.24134
-1.24134
-1.24134
-1.24134
-1.24134
-1.24134
-1.24133
-1.24133
-1.24133
-1.24133
-1.24133
-1.24133
-1.24133
-1.24132
-1.24132
-1.24132
-1.24132
-1.24132
-1.24132
-1.24131
-1.24131
-1.24131
-1.24131
-1.24131
-1.24131
-1.24131
-1.24131
-1.2413
-1.2413
-1.2413
-1.2413
-1.2413
-1.26376
-1.26376
-1.26376
-1.26375
-1.26375
-1.26375
-1.26375
-1.26375
-1.26374
-1.26374
-1.26374
-1.26374
-1.26374
-1.26374
-1.26373
-1.26373
-1.26373
-1.26373
-1.26372
-1.26372
-1.26372
-1.26372
-1.26372
-1.26372
-1.26371
-1.26371
-1.26371
-1.26371
-1.26371
-1.2637
-1.2637
-1.2637
-1.2637
-1.2637
-1.26369
-1.26369
-1.26369
-1.26369
-1.26369
-1.26369
-1.26368
-1.26368
-1.26368
-1.26368
-1.26368
-1.26368
-1.26367
-1.26367
-1.26367
-1.26367
-1.28616
-1.28616
-1.28616
-1.28616
-1.28615
-1.28615
-1.28615
-1.28614
-1.28614
-1.28614
-1.28613
-1.28613
-1.28613
-1.28613
-1.28612
-1.28612
-1.28612
-1.28611
-1.28611
-1.28611
-1.28611
-1.2861
-1.2861
-1.2861
-1.2861
-1.28609
-1.28609
-1.28609
-1.28608
-1.28608
-1.28608
-1.28608
-1.28607
-1.28607
-1.28607
-1.28607
-1.28607
-1.28606
-1.28606
-1.28606
-1.28606
-1.28606
-1.28605
-1.28605
-1.28605
-1.28605
-1.28605
-1.28604
-1.28604
-1.28604
-1.30856
-1.30856
-1.30854
-1.30855
-1.30855
-1.30855
-1.30854
-1.30854
-1.30854
-1.30852
-1.30852
-1.30852
-1.30845
-1.30851
-1.30851
-1.3085
-1.3085
-1.3085
-1.30849
-1.30849
-1.30849
-1.30848
-1.30848
-1.30848
-1.30847
-1.30847
-1.30847
-1.30846
-1.30846
-1.30846
-1.30845
-1.30845
-1.30845
-1.30844
-1.30844
-1.30844
-1.30844
-1.30843
-1.30843
-1.30843
-1.30843
-1.30842
-1.30842
-1.30842
-1.30842
-1.30841
-1.30841
-1.30841
-1.30841
-1.30841
-1.33083
-1.33099
-1.33099
-1.33099
-1.33098
-1.33098
-1.33097
-1.33093
-1.3308
-1.33092
-1.33092
-1.33091
-1.33091
-1.33091
-1.3309
-1.3309
-1.3309
-1.33089
-1.33089
-1.33089
-1.33089
-1.33088
-1.33085
-1.33076
-1.33084
-1.33084
-1.33083
-1.33083
-1.33083
-1.33082
-1.33082
-1.33082
-1.33082
-1.33081
-1.33081
-1.3308
-1.33081
-1.3308
-1.3308
-1.3308
-1.3308
-1.33079
-1.33079
-1.33079
-1.33079
-1.33078
-1.33078
-1.33078
-1.33078
-1.33078
-0.905754
-0.905754
-0.905754
-0.905754
-0.905754
-0.905754
-0.905754
-0.905754
-0.905754
-0.905754
-0.905754
-0.905754
-0.905754
-0.905754
-0.905754
-0.905754
-0.905754
-0.905754
-0.905754
-0.905754
-0.905754
-0.905754
-0.905754
-0.905754
-0.905754
-0.905754
-0.905754
-0.905753
-0.905753
-0.905753
-0.905753
-0.905753
-0.905753
-0.905753
-0.905753
-0.905753
-0.905753
-0.905753
-0.905753
-0.905753
-0.905753
-0.905753
-0.905753
-0.905753
-0.905753
-0.905753
-0.905753
-0.905753
-0.905753
-0.905753
-0.905753
-0.905753
-0.905753
-0.905753
-0.905753
-0.905753
-0.905753
-0.905753
-0.905753
-0.905752
-0.905752
-0.905752
-0.905752
-0.905752
-0.905752
-0.905752
-0.905752
-0.905752
-0.905752
-0.905752
-0.905752
-0.905752
-0.905752
-0.905752
-0.905752
-0.905752
-0.905752
-0.905752
-0.905752
-0.905752
-0.905752
-0.905752
-0.905751
-0.905751
-0.905751
-0.905751
-0.905751
-0.905751
-0.905751
-0.905751
-0.905751
-0.905751
-0.905751
-0.905751
-0.905751
-0.905751
-0.905751
-0.905751
-0.905751
-0.905751
-0.90575
-0.90575
-0.90575
-0.90575
-0.90575
-0.90575
-0.90575
-0.90575
-0.90575
-0.90575
-0.90575
-0.90575
-0.90575
-0.90575
-0.90575
-0.905749
-0.905749
-0.905749
-0.905749
-0.905749
-0.905749
-0.905749
-0.905749
-0.905749
-0.905749
-0.905749
-0.905749
-0.905749
-0.905749
-0.905749
-0.905748
-0.905748
-0.905748
-0.905748
-0.905748
-0.905748
-0.905748
-0.905748
-0.905748
-0.905748
-0.905748
-0.905748
-0.905748
-0.905747
-0.905747
-0.905747
-0.905747
-0.905747
-0.905747
-0.905747
-0.905747
-0.905747
-0.905747
-0.905747
-0.905747
-0.905746
-0.905746
-0.905746
-0.905746
-0.905746
-0.905746
-0.905746
-0.905746
-0.905746
-0.905746
-0.905746
-0.905746
-0.905746
-0.905745
-0.905745
-0.905745
-0.905745
-0.905745
-0.905745
-0.905745
-0.905745
-0.905745
-0.905745
-0.905745
-0.905745
-0.905744
-0.905744
-0.905744
-0.905744
-0.905744
-0.905744
-0.905744
-0.905744
-0.905744
-0.905744
-0.905744
-0.905744
-0.905743
-0.905743
-0.905743
-0.905743
-0.905743
-0.905743
-0.905743
-0.905743
-0.905743
-0.905743
-0.905743
-0.905743
-0.905743
-0.905742
-0.905742
-0.905742
-0.905742
-0.905742
-0.905742
-0.905742
-0.905742
-0.905742
-0.905742
-0.905742
-0.905742
-0.905742
-0.905741
-0.905741
-0.905741
-0.905741
-0.905741
-0.905741
-0.905741
-0.905741
-0.905741
-0.905741
-0.905741
-0.905741
-0.905741
-0.905741
-0.905741
-0.905741
-0.905741
-0.90574
-0.90574
-0.90574
-0.90574
-0.90574
-0.90574
-0.90574
-0.90574
-0.90574
-0.90574
-0.90574
-0.90574
-0.90574
-0.90574
-0.90574
-0.90574
-0.90574
-0.90574
-0.90574
-0.90574
-0.90574
-0.90574
-0.90574
-0.90574
-0.90574
-0.90574
-0.90574
-0.90574
-0.905739
-0.905739
-0.905739
-0.905739
-0.905739
-0.905739
-0.905739
-0.905739
-0.905739
-0.905739
-0.905739
-0.905739
-0.905739
-0.905739
-0.905739
-0.905739
-0.90574
-0.90574
-0.90574
-0.90574
-0.90574
-0.90574
-0.90574
-0.90574
-0.90574
-0.90574
-0.90574
-0.90574
-0.90574
-0.90574
-0.90574
-0.90574
-0.90574
-0.90574
-0.90574
-0.90574
-0.90574
-0.92812
-0.92812
-0.92812
-0.92812
-0.92812
-0.92812
-0.92812
-0.92812
-0.92812
-0.92812
-0.92812
-0.92812
-0.92812
-0.92812
-0.92812
-0.92812
-0.92812
-0.92812
-0.928119
-0.928119
-0.928119
-0.928119
-0.928119
-0.928119
-0.928119
-0.928119
-0.928119
-0.928119
-0.928119
-0.928119
-0.928119
-0.928119
-0.928119
-0.928119
-0.928119
-0.928119
-0.928119
-0.928119
-0.928119
-0.928119
-0.928119
-0.928119
-0.928119
-0.928119
-0.928119
-0.928119
-0.928119
-0.928119
-0.928119
-0.928118
-0.928118
-0.928118
-0.928118
-0.928118
-0.928118
-0.928118
-0.928118
-0.928118
-0.928118
-0.928118
-0.928118
-0.928118
-0.928118
-0.928118
-0.928118
-0.928118
-0.928118
-0.928118
-0.928118
-0.928118
-0.928118
-0.928118
-0.928117
-0.928117
-0.928117
-0.928117
-0.928117
-0.928117
-0.928117
-0.928117
-0.928117
-0.928117
-0.928117
-0.928117
-0.928117
-0.928117
-0.928117
-0.928117
-0.928117
-0.928117
-0.928116
-0.928116
-0.928116
-0.928116
-0.928116
-0.928116
-0.928116
-0.928116
-0.928116
-0.928116
-0.928116
-0.928116
-0.928116
-0.928116
-0.928116
-0.928116
-0.928115
-0.928115
-0.928115
-0.928115
-0.928115
-0.928115
-0.928115
-0.928115
-0.928115
-0.928115
-0.928115
-0.928115
-0.928115
-0.928114
-0.928114
-0.928114
-0.928114
-0.928114
-0.928114
-0.928114
-0.928114
-0.928114
-0.928114
-0.928114
-0.928114
-0.928113
-0.928113
-0.928113
-0.928113
-0.928113
-0.928113
-0.928113
-0.928113
-0.928113
-0.928113
-0.928113
-0.928112
-0.928112
-0.928112
-0.928112
-0.928112
-0.928112
-0.928112
-0.928112
-0.928112
-0.928112
-0.928112
-0.928111
-0.928111
-0.928111
-0.928111
-0.928111
-0.928111
-0.928111
-0.928111
-0.928111
-0.928111
-0.92811
-0.92811
-0.92811
-0.92811
-0.92811
-0.92811
-0.92811
-0.92811
-0.92811
-0.92811
-0.928109
-0.928109
-0.928109
-0.928109
-0.928109
-0.928109
-0.928109
-0.928109
-0.928109
-0.928109
-0.928108
-0.928108
-0.928108
-0.928108
-0.928108
-0.928108
-0.928108
-0.928108
-0.928108
-0.928108
-0.928108
-0.928107
-0.928107
-0.928107
-0.928107
-0.928107
-0.928107
-0.928107
-0.928107
-0.928107
-0.928107
-0.928107
-0.928106
-0.928106
-0.928106
-0.928106
-0.928106
-0.928106
-0.928106
-0.928106
-0.928106
-0.928106
-0.928106
-0.928105
-0.928105
-0.928105
-0.928105
-0.928105
-0.928105
-0.928105
-0.928105
-0.928105
-0.928105
-0.928105
-0.928105
-0.928105
-0.928104
-0.928104
-0.928104
-0.928104
-0.928104
-0.928104
-0.928104
-0.928104
-0.928104
-0.928104
-0.928104
-0.928104
-0.928104
-0.928104
-0.928104
-0.928104
-0.928104
-0.928103
-0.928103
-0.928103
-0.928103
-0.928103
-0.928103
-0.928103
-0.928103
-0.928103
-0.928103
-0.928103
-0.928103
-0.928103
-0.928103
-0.928103
-0.928103
-0.928103
-0.928103
-0.928103
-0.928103
-0.928103
-0.928103
-0.928103
-0.928103
-0.928103
-0.928103
-0.928103
-0.928103
-0.928103
-0.928103
-0.928103
-0.928103
-0.928103
-0.928103
-0.928103
-0.928103
-0.928103
-0.928103
-0.928103
-0.928103
-0.928103
-0.928103
-0.928103
-0.928103
-0.928103
-0.928103
-0.928103
-0.928103
-0.928103
-0.928103
-0.928103
-0.928103
-0.928103
-0.928103
-0.95049
-0.95049
-0.95049
-0.95049
-0.95049
-0.950489
-0.950489
-0.950489
-0.950489
-0.950489
-0.950489
-0.950489
-0.950489
-0.950489
-0.950489
-0.950489
-0.950489
-0.950489
-0.950489
-0.950489
-0.950489
-0.950489
-0.950489
-0.950488
-0.950488
-0.950488
-0.950488
-0.950488
-0.950488
-0.950488
-0.950488
-0.950488
-0.950488
-0.950488
-0.950488
-0.950488
-0.950488
-0.950488
-0.950487
-0.950487
-0.950487
-0.950487
-0.950487
-0.950487
-0.950487
-0.950487
-0.950487
-0.950487
-0.950487
-0.950487
-0.950487
-0.950487
-0.950486
-0.950486
-0.950486
-0.950486
-0.950486
-0.950486
-0.950486
-0.950486
-0.950486
-0.950486
-0.950486
-0.950486
-0.950486
-0.950485
-0.950485
-0.950485
-0.950485
-0.950485
-0.950485
-0.950485
-0.950485
-0.950485
-0.950485
-0.950485
-0.950484
-0.950484
-0.950484
-0.950484
-0.950484
-0.950484
-0.950484
-0.950484
-0.950484
-0.950484
-0.950484
-0.950483
-0.950483
-0.950483
-0.950483
-0.950483
-0.950483
-0.950483
-0.950483
-0.950483
-0.950483
-0.950483
-0.950482
-0.950482
-0.950482
-0.950482
-0.950482
-0.950482
-0.950482
-0.950482
-0.950482
-0.950481
-0.950481
-0.950481
-0.950481
-0.950481
-0.950481
-0.950481
-0.950481
-0.950481
-0.950481
-0.95048
-0.95048
-0.95048
-0.95048
-0.95048
-0.95048
-0.95048
-0.95048
-0.95048
-0.950479
-0.950479
-0.950479
-0.950479
-0.950479
-0.950479
-0.950479
-0.950479
-0.950479
-0.950478
-0.950478
-0.950478
-0.950478
-0.950478
-0.950478
-0.950478
-0.950478
-0.950477
-0.950477
-0.950477
-0.950477
-0.950477
-0.950477
-0.950477
-0.950477
-0.950477
-0.950476
-0.950476
-0.950476
-0.950476
-0.950476
-0.950476
-0.950476
-0.950476
-0.950475
-0.950475
-0.950475
-0.950475
-0.950475
-0.950475
-0.950475
-0.950475
-0.950474
-0.950474
-0.950474
-0.950474
-0.950474
-0.950474
-0.950474
-0.950474
-0.950474
-0.950473
-0.950473
-0.950473
-0.950473
-0.950473
-0.950473
-0.950473
-0.950473
-0.950473
-0.950472
-0.950472
-0.950472
-0.950472
-0.950472
-0.950472
-0.950472
-0.950472
-0.950471
-0.950471
-0.950471
-0.950471
-0.950471
-0.950471
-0.950471
-0.950471
-0.950471
-0.950471
-0.95047
-0.95047
-0.95047
-0.95047
-0.95047
-0.95047
-0.95047
-0.95047
-0.95047
-0.95047
-0.950469
-0.950469
-0.950469
-0.950469
-0.950469
-0.950469
-0.950469
-0.950469
-0.950469
-0.950469
-0.950469
-0.950468
-0.950468
-0.950468
-0.950468
-0.950468
-0.950468
-0.950468
-0.950468
-0.950468
-0.950468
-0.950468
-0.950468
-0.950467
-0.950467
-0.950467
-0.950467
-0.950467
-0.950467
-0.950467
-0.950467
-0.950467
-0.950467
-0.950467
-0.950467
-0.950467
-0.950467
-0.950467
-0.950467
-0.950467
-0.950466
-0.950466
-0.950466
-0.950466
-0.950466
-0.950466
-0.950466
-0.950466
-0.950466
-0.950466
-0.950466
-0.950466
-0.950466
-0.950466
-0.950466
-0.950466
-0.950466
-0.950466
-0.950466
-0.950466
-0.950466
-0.950466
-0.950466
-0.950466
-0.950466
-0.950466
-0.950466
-0.950466
-0.950466
-0.950466
-0.950466
-0.950466
-0.950466
-0.950466
-0.950466
-0.950466
-0.950466
-0.950466
-0.950466
-0.950466
-0.950466
-0.950466
-0.950466
-0.950466
-0.950466
-0.950466
-0.972856
-0.972856
-0.972856
-0.972856
-0.972856
-0.972856
-0.972856
-0.972856
-0.972856
-0.972856
-0.972856
-0.972855
-0.972855
-0.972855
-0.972855
-0.972855
-0.972855
-0.972855
-0.972855
-0.972855
-0.972855
-0.972855
-0.972855
-0.972855
-0.972855
-0.972855
-0.972854
-0.972854
-0.972854
-0.972854
-0.972854
-0.972854
-0.972854
-0.972854
-0.972854
-0.972854
-0.972854
-0.972854
-0.972854
-0.972854
-0.972853
-0.972853
-0.972853
-0.972853
-0.972853
-0.972853
-0.972853
-0.972853
-0.972853
-0.972853
-0.972853
-0.972853
-0.972852
-0.972852
-0.972852
-0.972852
-0.972852
-0.972852
-0.972852
-0.972852
-0.972852
-0.972852
-0.972852
-0.972852
-0.972851
-0.972851
-0.972851
-0.972851
-0.972851
-0.972851
-0.972851
-0.972851
-0.972851
-0.972851
-0.97285
-0.97285
-0.97285
-0.97285
-0.97285
-0.97285
-0.97285
-0.97285
-0.97285
-0.97285
-0.972849
-0.972849
-0.972849
-0.972849
-0.972849
-0.972849
-0.972849
-0.972849
-0.972849
-0.972849
-0.972848
-0.972848
-0.972848
-0.972848
-0.972848
-0.972848
-0.972848
-0.972848
-0.972848
-0.972847
-0.972847
-0.972847
-0.972847
-0.972847
-0.972847
-0.972847
-0.972847
-0.972846
-0.972846
-0.972846
-0.972846
-0.972846
-0.972846
-0.972846
-0.972846
-0.972846
-0.972845
-0.972845
-0.972845
-0.972845
-0.972845
-0.972845
-0.972845
-0.972844
-0.972844
-0.972844
-0.972844
-0.972844
-0.972844
-0.972844
-0.972844
-0.972843
-0.972843
-0.972843
-0.972843
-0.972843
-0.972843
-0.972843
-0.972843
-0.972842
-0.972842
-0.972842
-0.972842
-0.972842
-0.972842
-0.972842
-0.972841
-0.972841
-0.972841
-0.972841
-0.972841
-0.972841
-0.972841
-0.97284
-0.97284
-0.97284
-0.97284
-0.97284
-0.97284
-0.97284
-0.97284
-0.972839
-0.972839
-0.972839
-0.972839
-0.972839
-0.972839
-0.972839
-0.972838
-0.972838
-0.972838
-0.972838
-0.972838
-0.972838
-0.972838
-0.972837
-0.972837
-0.972837
-0.972837
-0.972837
-0.972837
-0.972837
-0.972837
-0.972836
-0.972836
-0.972836
-0.972836
-0.972836
-0.972836
-0.972836
-0.972836
-0.972835
-0.972835
-0.972835
-0.972835
-0.972835
-0.972835
-0.972835
-0.972835
-0.972834
-0.972834
-0.972834
-0.972834
-0.972834
-0.972834
-0.972834
-0.972834
-0.972833
-0.972833
-0.972833
-0.972833
-0.972833