/*--------------------------------*- C++ -*----------------------------------*\
| =========                 |                                                 |
| \\      /  F ield         | OpenFOAM: The Open Source CFD Toolbox           |
|  \\    /   O peration     | Version:  2.4.0                                 |
|   \\  /    A nd           | Web:      www.OpenFOAM.org                      |
|    \\/     M anipulation  |                                                 |
\*---------------------------------------------------------------------------*/
FoamFile
{
    version     2.0;
    format      ascii;
    class       volScalarField;
    location    "2.5";
    object      H;
}
// * * * * * * * * * * * * * * * * * * * * * * * * * * * * * * * * * * * * * //

dimensions      [0 2 -2 0 0 0 0];

internalField   nonuniform List<scalar> 
125
(
-10.3955
-10.3934
-10.3912
-10.3925
-10.3959
-10.3926
-10.3905
-10.3884
-10.3897
-10.393
-10.3874
-10.3853
-10.3833
-10.3845
-10.3877
-10.3798
-10.3778
-10.3758
-10.377
-10.3801
-10.3698
-10.3678
-10.3658
-10.367
-10.3701
-10.3572
-10.3552
-10.3533
-10.3544
-10.3574
-10.3419
-10.34
-10.3381
-10.3393
-10.3422
-10.3239
-10.322
-10.3202
-10.3213
-10.3242
-10.3031
-10.3013
-10.2995
-10.3006
-10.3034
-10.2794
-10.2776
-10.2758
-10.2769
-10.2796
-10.2527
-10.2509
-10.2492
-10.2503
-10.2529
-10.2229
-10.2212
-10.2195
-10.2205
-10.2231
-10.1899
-10.1882
-10.1866
-10.1876
-10.1901
-10.1537
-10.152
-10.1504
-10.1514
-10.1539
-10.1141
-10.1124
-10.1109
-10.1119
-10.1143
-10.071
-10.0694
-10.0679
-10.0689
-10.0712
-10.0244
-10.0229
-10.0214
-10.0223
-10.0246
-9.97421
-9.97268
-9.97127
-9.97218
-9.97437
-9.92027
-9.91878
-9.9174
-9.91829
-9.92042
-9.86253
-9.86106
-9.85972
-9.86059
-9.86266
-9.80089
-9.79946
-9.79816
-9.799
-9.80102
-9.73527
-9.73388
-9.73261
-9.73344
-9.73539
-9.66559
-9.66423
-9.663
-9.66381
-9.66571
-9.59177
-9.59045
-9.58925
-9.59004
-9.59188
-9.51373
-9.51244
-9.51128
-9.51204
-9.51383
)
;

boundaryField
{
    BotWall
    {
        type            zeroGradient;
    }
    FreeStream
    {
        type            zeroGradient;
    }
    FrontNBack
    {
        type            empty;
    }
    LeftSide
    {
        type            symmetryPlane;
    }
    RightSide
    {
        type            symmetryPlane;
    }
    procBoundary1to0
    {
        type            processor;
        value           nonuniform List<scalar> 5(-10.3958 -10.3935 -10.3913 -10.3927 -10.3961);
    }
    procBoundary1to2
    {
        type            processor;
        value           nonuniform List<scalar> 5(-9.43083 -9.42957 -9.42844 -9.42919 -9.43092);
    }
}


// ************************************************************************* //
