/*--------------------------------*- C++ -*----------------------------------*\
| =========                 |                                                 |
| \\      /  F ield         | OpenFOAM: The Open Source CFD Toolbox           |
|  \\    /   O peration     | Version:  2.4.0                                 |
|   \\  /    A nd           | Web:      www.OpenFOAM.org                      |
|    \\/     M anipulation  |                                                 |
\*---------------------------------------------------------------------------*/
FoamFile
{
    version     2.0;
    format      ascii;
    class       surfaceScalarField;
    location    "0.003";
    object      phi;
}
// * * * * * * * * * * * * * * * * * * * * * * * * * * * * * * * * * * * * * //

dimensions      [0 3 -1 0 0 0 0];

internalField   nonuniform List<scalar> 
124
(
1.60261e-12
-1.02575e-08
-1.02576e-08
-1.02577e-08
-1.02579e-08
-1.02581e-08
-1.02583e-08
-1.02585e-08
-1.02587e-08
-1.02589e-08
-1.02591e-08
-1.02592e-08
-1.02593e-08
-1.02595e-08
-1.02596e-08
-1.02596e-08
-1.02597e-08
-1.02598e-08
-1.02598e-08
-1.02599e-08
-1.02599e-08
-1.02599e-08
-1.026e-08
-1.026e-08
-1.026e-08
-1.026e-08
-1.02601e-08
-1.02601e-08
-1.02601e-08
-1.02601e-08
-1.02601e-08
-1.02601e-08
-1.02602e-08
-1.02602e-08
-1.02602e-08
-1.02602e-08
-1.02602e-08
-1.02602e-08
-1.02602e-08
-1.02602e-08
-1.02603e-08
-1.02603e-08
-1.02603e-08
-1.02603e-08
-1.02603e-08
-1.02603e-08
-1.02603e-08
-1.02603e-08
-1.02604e-08
-1.02604e-08
-1.02604e-08
-1.02604e-08
-1.02604e-08
-1.02604e-08
-1.02604e-08
-1.02604e-08
-1.02604e-08
-1.02604e-08
-1.02605e-08
-1.02605e-08
-1.02605e-08
-1.02605e-08
-1.02605e-08
-1.02605e-08
-1.02605e-08
-1.02605e-08
-1.02605e-08
-1.02605e-08
-1.02605e-08
-1.02606e-08
-1.02606e-08
-1.02606e-08
-1.02606e-08
-1.02606e-08
-1.02606e-08
-1.02606e-08
-1.02606e-08
-1.02606e-08
-1.02606e-08
-1.02606e-08
-1.02606e-08
-1.02606e-08
-1.02607e-08
-1.02607e-08
-1.02607e-08
-1.02607e-08
-1.02607e-08
-1.02607e-08
-1.02607e-08
-1.02607e-08
-1.02607e-08
-1.02607e-08
-1.02607e-08
-1.02607e-08
-1.02607e-08
-1.02607e-08
-1.02607e-08
-1.02607e-08
-1.02607e-08
-1.02607e-08
-1.02607e-08
-1.02607e-08
-1.02607e-08
-1.02608e-08
-1.02608e-08
-1.02608e-08
-1.02608e-08
-1.02608e-08
-1.02608e-08
-1.02608e-08
-1.02608e-08
-1.02608e-08
-1.02608e-08
-1.02608e-08
-1.02608e-08
-1.02608e-08
-1.02608e-08
-1.02608e-08
-1.02608e-08
-1.02608e-08
-1.02608e-08
-1.02608e-08
-1.02608e-08
-1.02608e-08
)
;

boundaryField
{
    BotWall
    {
        type            calculated;
        value           uniform 1.5289e-16;
    }
    FreeStream
    {
        type            calculated;
        value           nonuniform 0();
    }
    FrontNBack
    {
        type            empty;
        value           nonuniform 0();
    }
    LeftSide
    {
        type            symmetryPlane;
        value           nonuniform 0();
    }
    RightSide
    {
        type            symmetryPlane;
        value           uniform 0;
    }
    procBoundary11to8
    {
        type            processor;
        value           nonuniform List<scalar> 
50
(
7.61085e-15
7.44749e-15
7.28582e-15
7.12299e-15
6.95916e-15
6.79446e-15
6.62904e-15
6.46303e-15
6.29655e-15
6.12974e-15
5.96271e-15
5.79558e-15
5.62847e-15
5.46149e-15
5.29475e-15
5.12836e-15
4.96243e-15
4.79706e-15
4.63235e-15
4.46842e-15
4.30535e-15
4.14324e-15
3.9822e-15
3.82232e-15
3.66368e-15
3.50639e-15
3.35053e-15
3.19618e-15
3.04345e-15
2.89241e-15
2.74314e-15
2.59573e-15
2.45026e-15
2.3068e-15
2.16542e-15
2.02621e-15
1.88922e-15
1.75452e-15
1.62219e-15
1.49227e-15
1.36483e-15
1.23991e-15
1.11758e-15
9.97865e-16
8.80819e-16
7.66477e-16
6.54904e-16
5.46105e-16
4.43416e-16
3.43746e-16
)
;
    }
    procBoundary11to9
    {
        type            processor;
        value           nonuniform List<scalar> 
75
(
-1.60328e-12
2.70798e-14
7.37256e-14
1.44309e-13
1.79351e-13
2.00784e-13
2.10625e-13
2.10092e-13
2.01356e-13
1.87026e-13
1.69469e-13
1.50547e-13
1.31613e-13
1.13591e-13
9.70661e-14
8.23617e-14
6.96107e-14
5.88139e-14
4.98967e-14
4.27816e-14
3.75876e-14
3.3595e-14
2.95216e-14
2.62761e-14
2.37002e-14
2.16562e-14
2.0025e-14
1.85908e-14
1.73219e-14
1.62942e-14
1.55143e-14
1.48937e-14
1.43883e-14
1.39687e-14
1.36141e-14
1.33092e-14
1.30432e-14
1.28078e-14
1.25971e-14
1.24064e-14
1.22324e-14
1.2073e-14
1.19251e-14
1.17869e-14
1.16565e-14
1.15326e-14
1.14139e-14
1.12992e-14
1.11873e-14
1.10774e-14
1.09687e-14
1.08602e-14
1.07514e-14
1.06417e-14
1.05306e-14
1.04177e-14
1.03027e-14
1.01852e-14
1.00652e-14
9.9424e-15
9.81677e-15
9.68824e-15
9.55681e-15
9.42247e-15
9.28528e-15
9.14529e-15
9.00258e-15
8.85724e-15
8.70936e-15
8.55905e-15
8.40642e-15
8.25153e-15
8.09448e-15
7.93531e-15
7.77408e-15
)
;
    }
    procBoundary11to10
    {
        type            processor;
        value           uniform -1.02608e-08;
    }
}


// ************************************************************************* //
