/*--------------------------------*- C++ -*----------------------------------*\
| =========                 |                                                 |
| \\      /  F ield         | OpenFOAM: The Open Source CFD Toolbox           |
|  \\    /   O peration     | Version:  2.4.0                                 |
|   \\  /    A nd           | Web:      www.OpenFOAM.org                      |
|    \\/     M anipulation  |                                                 |
\*---------------------------------------------------------------------------*/
FoamFile
{
    version     2.0;
    format      ascii;
    class       volScalarField;
    location    "2.2";
    object      p;
}
// * * * * * * * * * * * * * * * * * * * * * * * * * * * * * * * * * * * * * //

dimensions      [1 -1 -2 0 0 0 0];

internalField   nonuniform List<scalar> 
125
(
-0.0144013
-0.0144013
-0.0144013
-0.0144013
-0.0144013
-0.0150538
-0.0150538
-0.0150538
-0.0150538
-0.0150538
-0.0157127
-0.0157127
-0.0157127
-0.0157127
-0.0157127
-0.0163788
-0.0163788
-0.0163788
-0.0163788
-0.0163788
-0.0170524
-0.0170524
-0.0170524
-0.0170524
-0.0170524
-0.0177335
-0.0177335
-0.0177335
-0.0177335
-0.0177335
-0.0184222
-0.0184222
-0.0184222
-0.0184222
-0.0184222
-0.0191186
-0.0191186
-0.0191186
-0.0191186
-0.0191186
-0.0198228
-0.0198228
-0.0198228
-0.0198228
-0.0198228
-0.0205348
-0.0205348
-0.0205348
-0.0205348
-0.0205348
-0.0212548
-0.0212548
-0.0212548
-0.0212548
-0.0212548
-0.0219828
-0.0219828
-0.0219828
-0.0219828
-0.0219828
-0.0227189
-0.0227189
-0.0227189
-0.0227189
-0.0227189
-0.0234633
-0.0234633
-0.0234633
-0.0234633
-0.0234633
-0.0242159
-0.0242159
-0.0242159
-0.0242159
-0.0242159
-0.024977
-0.024977
-0.024977
-0.024977
-0.024977
-0.0257465
-0.0257465
-0.0257465
-0.0257465
-0.0257465
-0.0265246
-0.0265246
-0.0265246
-0.0265246
-0.0265246
-0.0273114
-0.0273114
-0.0273114
-0.0273114
-0.0273114
-0.028107
-0.028107
-0.028107
-0.028107
-0.028107
-0.0289115
-0.0289115
-0.0289115
-0.0289115
-0.0289115
-0.029725
-0.029725
-0.029725
-0.029725
-0.029725
-0.0305475
-0.0305475
-0.0305475
-0.0305475
-0.0305475
-0.0313792
-0.0313792
-0.0313792
-0.0313792
-0.0313792
-0.0322202
-0.0322202
-0.0322202
-0.0322202
-0.0322202
)
;

boundaryField
{
    BotWall
    {
        type            calculated;
        value           nonuniform 0();
    }
    FreeStream
    {
        type            calculated;
        value           nonuniform 0();
    }
    FrontNBack
    {
        type            empty;
    }
    LeftSide
    {
        type            symmetryPlane;
    }
    RightSide
    {
        type            symmetryPlane;
    }
    procBoundary1to0
    {
        type            processor;
        value           nonuniform List<scalar> 5(-0.0137554 -0.0137554 -0.0137554 -0.0137554 -0.0137554);
    }
    procBoundary1to2
    {
        type            processor;
        value           nonuniform List<scalar> 5(-0.0330705 -0.0330705 -0.0330705 -0.0330705 -0.0330705);
    }
}


// ************************************************************************* //
