/*--------------------------------*- C++ -*----------------------------------*\
| =========                 |                                                 |
| \\      /  F ield         | OpenFOAM: The Open Source CFD Toolbox           |
|  \\    /   O peration     | Version:  2.4.0                                 |
|   \\  /    A nd           | Web:      www.OpenFOAM.org                      |
|    \\/     M anipulation  |                                                 |
\*---------------------------------------------------------------------------*/
FoamFile
{
    version     2.0;
    format      ascii;
    class       volScalarField;
    location    "4.3";
    object      p_rgh;
}
// * * * * * * * * * * * * * * * * * * * * * * * * * * * * * * * * * * * * * //

dimensions      [1 -1 -2 0 0 0 0];

internalField   nonuniform List<scalar> 
125
(
0.000422778
0.000422727
0.000422596
0.000422662
0.000422797
1.81228e-05
1.82119e-05
1.83074e-05
1.82614e-05
1.8104e-05
-4.70786e-05
-4.70347e-05
-4.69625e-05
-4.6997e-05
-4.70936e-05
-2.17254e-05
-2.17097e-05
-2.16701e-05
-2.16885e-05
-2.1735e-05
-6.11445e-06
-6.10023e-06
-6.06907e-06
-6.08328e-06
-6.12256e-06
-3.73152e-06
-3.71413e-06
-3.68253e-06
-3.69699e-06
-3.73962e-06
-4.74077e-06
-4.72253e-06
-4.69027e-06
-4.70511e-06
-4.7489e-06
-5.35713e-06
-5.33938e-06
-5.30742e-06
-5.32214e-06
-5.36514e-06
-5.44605e-06
-5.42887e-06
-5.39755e-06
-5.41198e-06
-5.45389e-06
-5.40145e-06
-5.38466e-06
-5.35399e-06
-5.36814e-06
-5.40911e-06
-5.37294e-06
-5.35648e-06
-5.32641e-06
-5.3403e-06
-5.38044e-06
-5.36543e-06
-5.3493e-06
-5.31982e-06
-5.33344e-06
-5.37277e-06
-5.36315e-06
-5.34736e-06
-5.31846e-06
-5.33182e-06
-5.37033e-06
-5.36017e-06
-5.34472e-06
-5.3164e-06
-5.3295e-06
-5.36719e-06
-5.35632e-06
-5.3412e-06
-5.31345e-06
-5.3263e-06
-5.36318e-06
-5.35222e-06
-5.33743e-06
-5.31025e-06
-5.32285e-06
-5.35893e-06
-5.34812e-06
-5.33365e-06
-5.30704e-06
-5.31938e-06
-5.35467e-06
-5.344e-06
-5.32987e-06
-5.30382e-06
-5.3159e-06
-5.3504e-06
-5.33986e-06
-5.32605e-06
-5.30055e-06
-5.31239e-06
-5.34611e-06
-5.33568e-06
-5.32218e-06
-5.29724e-06
-5.30883e-06
-5.34179e-06
-5.33146e-06
-5.31828e-06
-5.29389e-06
-5.30522e-06
-5.33742e-06
-5.3272e-06
-5.31433e-06
-5.29048e-06
-5.30157e-06
-5.33302e-06
-5.3229e-06
-5.31034e-06
-5.28703e-06
-5.29787e-06
-5.32857e-06
-5.31856e-06
-5.3063e-06
-5.28353e-06
-5.29413e-06
-5.32408e-06
-5.31417e-06
-5.30222e-06
-5.27999e-06
-5.29033e-06
-5.31955e-06
)
;

boundaryField
{
    BotWall
    {
        type            fixedFluxPressure;
        gradient        nonuniform 0();
        value           nonuniform 0();
    }
    FreeStream
    {
        type            totalPressure;
        rho             rho;
        psi             none;
        gamma           1;
        p0              nonuniform 0();
        value           nonuniform 0();
    }
    FrontNBack
    {
        type            empty;
    }
    LeftSide
    {
        type            symmetryPlane;
    }
    RightSide
    {
        type            symmetryPlane;
    }
    procBoundary1to0
    {
        type            processor;
        value           nonuniform List<scalar> 5(0.00112606 0.0011253 0.00112428 0.00112479 0.00112623);
    }
    procBoundary1to2
    {
        type            processor;
        value           nonuniform List<scalar> 5(-5.30975e-06 -5.2981e-06 -5.27639e-06 -5.28649e-06 -5.31497e-06);
    }
}


// ************************************************************************* //
