/*--------------------------------*- C++ -*----------------------------------*\
| =========                 |                                                 |
| \\      /  F ield         | OpenFOAM: The Open Source CFD Toolbox           |
|  \\    /   O peration     | Version:  2.4.0                                 |
|   \\  /    A nd           | Web:      www.OpenFOAM.org                      |
|    \\/     M anipulation  |                                                 |
\*---------------------------------------------------------------------------*/
FoamFile
{
    version     2.0;
    format      ascii;
    class       surfaceScalarField;
    location    "4.3";
    object      phi;
}
// * * * * * * * * * * * * * * * * * * * * * * * * * * * * * * * * * * * * * //

dimensions      [0 3 -1 0 0 0 0];

internalField   nonuniform List<scalar> 
220
(
2.13241e-15
-2.09965e-10
2.13762e-15
-2.09967e-10
-1.16945e-15
-2.09974e-10
-2.83998e-15
-2.09971e-10
-2.09965e-10
2.06342e-15
-2.09967e-10
2.06232e-15
-2.09967e-10
-1.12621e-15
-2.09971e-10
-2.73159e-15
-2.09969e-10
-2.09967e-10
1.99792e-15
-2.09969e-10
1.99276e-15
-2.09967e-10
-1.08559e-15
-2.09968e-10
-2.6315e-15
-2.09967e-10
-2.0997e-10
1.93331e-15
-2.09971e-10
1.92499e-15
-2.09967e-10
-1.04602e-15
-2.09965e-10
-2.53351e-15
-2.09966e-10
-2.09972e-10
1.86882e-15
-2.09973e-10
1.85764e-15
-2.09967e-10
-1.00675e-15
-2.09962e-10
-2.43608e-15
-2.09965e-10
-2.09975e-10
1.8047e-15
-2.09975e-10
1.79079e-15
-2.09967e-10
-9.67761e-16
-2.09959e-10
-2.33961e-15
-2.09963e-10
-2.09977e-10
1.74114e-15
-2.09976e-10
1.72467e-15
-2.09967e-10
-9.29156e-16
-2.09957e-10
-2.24444e-15
-2.09962e-10
-2.09979e-10
1.67817e-15
-2.09978e-10
1.65937e-15
-2.09967e-10
-8.91e-16
-2.09954e-10
-2.15066e-15
-2.09961e-10
-2.09982e-10
1.6158e-15
-2.0998e-10
1.59492e-15
-2.09967e-10
-8.53317e-16
-2.09952e-10
-2.05829e-15
-2.09959e-10
-2.09984e-10
1.55408e-15
-2.09981e-10
1.53133e-15
-2.09967e-10
-8.16122e-16
-2.09949e-10
-1.96734e-15
-2.09958e-10
-2.09986e-10
1.49303e-15
-2.09983e-10
1.46865e-15
-2.09966e-10
-7.79432e-16
-2.09947e-10
-1.87786e-15
-2.09957e-10
-2.09988e-10
1.43268e-15
-2.09984e-10
1.40688e-15
-2.09966e-10
-7.43265e-16
-2.09945e-10
-1.78989e-15
-2.09956e-10
-2.09989e-10
1.37307e-15
-2.09986e-10
1.34606e-15
-2.09966e-10
-7.0764e-16
-2.09943e-10
-1.70346e-15
-2.09955e-10
-2.09991e-10
1.31423e-15
-2.09987e-10
1.28622e-15
-2.09966e-10
-6.72576e-16
-2.09941e-10
-1.6186e-15
-2.09954e-10
-2.09993e-10
1.2562e-15
-2.09988e-10
1.22738e-15
-2.09966e-10
-6.3809e-16
-2.09939e-10
-1.53535e-15
-2.09953e-10
-2.09994e-10
1.199e-15
-2.09989e-10
1.16957e-15
-2.09966e-10
-6.04199e-16
-2.09937e-10
-1.45375e-15
-2.09952e-10
-2.09996e-10
1.14266e-15
-2.09991e-10
1.1128e-15
-2.09966e-10
-5.7092e-16
-2.09936e-10
-1.37381e-15
-2.09952e-10
-2.09997e-10
1.08721e-15
-2.09992e-10
1.05711e-15
-2.09966e-10
-5.38268e-16
-2.09934e-10
-1.29558e-15
-2.09951e-10
-2.09998e-10
1.03268e-15
-2.09993e-10
1.00251e-15
-2.09966e-10
-5.0626e-16
-2.09933e-10
-1.21907e-15
-2.0995e-10
-2.1e-10
9.79106e-16
-2.09994e-10
9.49026e-16
-2.09966e-10
-4.74908e-16
-2.09931e-10
-1.14431e-15
-2.09949e-10
-2.10001e-10
9.26505e-16
-2.09995e-10
8.96675e-16
-2.09966e-10
-4.44229e-16
-2.0993e-10
-1.07133e-15
-2.09949e-10
-2.10002e-10
8.74906e-16
-2.09995e-10
8.45475e-16
-2.09966e-10
-4.14235e-16
-2.09929e-10
-1.00015e-15
-2.09948e-10
-2.10003e-10
8.24334e-16
-2.09996e-10
7.95446e-16
-2.09966e-10
-3.84939e-16
-2.09927e-10
-9.30782e-16
-2.09948e-10
-2.10004e-10
7.74813e-16
-2.09997e-10
7.46604e-16
-2.09966e-10
-3.56353e-16
-2.09926e-10
-8.63256e-16
-2.09947e-10
-2.10005e-10
7.26366e-16
6.98963e-16
-3.28487e-16
-7.97584e-16
)
;

boundaryField
{
    BotWall
    {
        type            calculated;
        value           nonuniform 0();
    }
    FreeStream
    {
        type            calculated;
        value           nonuniform 0();
    }
    FrontNBack
    {
        type            empty;
        value           nonuniform 0();
    }
    LeftSide
    {
        type            symmetryPlane;
        value           uniform 0;
    }
    RightSide
    {
        type            symmetryPlane;
        value           uniform 0;
    }
    procBoundary1to0
    {
        type            processor;
        value           nonuniform List<scalar> 5(2.09963e-10 2.09967e-10 2.09978e-10 2.09972e-10 2.09962e-10);
    }
    procBoundary1to2
    {
        type            processor;
        value           nonuniform List<scalar> 5(-2.09998e-10 -2.09966e-10 -2.09925e-10 -2.09947e-10 -2.10005e-10);
    }
}


// ************************************************************************* //
