/*--------------------------------*- C++ -*----------------------------------*\
| =========                 |                                                 |
| \\      /  F ield         | OpenFOAM: The Open Source CFD Toolbox           |
|  \\    /   O peration     | Version:  2.4.0                                 |
|   \\  /    A nd           | Web:      www.OpenFOAM.org                      |
|    \\/     M anipulation  |                                                 |
\*---------------------------------------------------------------------------*/
FoamFile
{
    version     2.0;
    format      ascii;
    class       volScalarField;
    location    "4.4";
    object      H;
}
// * * * * * * * * * * * * * * * * * * * * * * * * * * * * * * * * * * * * * //

dimensions      [0 2 -2 0 0 0 0];

internalField   nonuniform List<scalar> 
500
(
-12004.8
-12004.9
-12005
-12004.9
-12004.8
-11552
-11552.3
-11552.5
-11552.3
-11552
-11094.3
-11094.8
-11095.1
-11094.7
-11094.3
-10631.7
-10632.4
-10632.9
-10632.4
-10631.7
-10164.4
-10165.3
-10165.8
-10165.2
-10164.4
-9692.36
-9693.44
-9694.09
-9693.38
-9692.35
-9215.68
-9216.93
-9217.66
-9216.86
-9215.67
-8734.39
-8735.78
-8736.58
-8735.71
-8734.39
-8248.54
-8250.05
-8250.9
-8249.97
-8248.53
-7758.14
-7759.74
-7760.62
-7759.65
-7758.13
-7263.2
-7264.86
-7265.74
-7264.77
-7263.19
-6763.7
-6765.39
-6766.25
-6765.3
-6763.69
-6259.6
-6261.27
-6262.09
-6261.2
-6259.59
-5750.82
-5752.45
-5753.2
-5752.39
-5750.81
-5237.27
-5238.82
-5239.45
-5238.76
-5237.26
-4718.81
-4720.22
-4720.73
-4720.18
-4718.79
-4195.25
-4196.5
-4196.84
-4196.48
-4195.24
-3666.39
-3667.44
-3667.59
-3667.44
-3666.38
-3131.99
-3132.79
-3132.72
-3132.81
-3131.97
-2591.74
-2592.26
-2591.95
-2592.3
-2591.72
-2045.32
-2045.53
-2044.95
-2045.6
-2045.3
-1492.38
-1492.24
-1491.38
-1492.34
-1492.36
-932.519
-932.008
-930.853
-932.142
-932.499
-62.1571
-61.6483
-60.9985
-61.7224
-62.1431
-47.6713
-47.2806
-46.7787
-47.3381
-47.6605
-48.0499
-47.6726
-47.1824
-47.7291
-48.0394
-48.395
-48.0314
-47.5531
-48.087
-48.3847
-48.7057
-48.3561
-47.8897
-48.4105
-48.6956
-48.9809
-48.6455
-48.1913
-48.6989
-48.9711
-49.2198
-48.8988
-48.457
-48.9511
-49.2101
-49.4213
-49.1149
-48.6857
-49.1661
-49.4118
-49.5847
-49.2932
-48.8767
-49.3433
-49.5754
-49.7092
-49.4327
-49.029
-49.4816
-49.7
-49.7939
-49.5327
-49.142
-49.5804
-49.785
-49.8383
-49.5924
-49.2148
-49.6389
-49.8295
-49.8417
-49.6113
-49.2469
-49.6566
-49.833
-49.8035
-49.5887
-49.2377
-49.6327
-49.7949
-49.7233
-49.5241
-49.1866
-49.5669
-49.7148
-49.6007
-49.4172
-49.0932
-49.4587
-49.5923
-49.4353
-49.2676
-48.9572
-49.3078
-49.427
-49.227
-49.0749
-48.7782
-49.1138
-49.2187
-48.9755
-48.8392
-48.5562
-48.8768
-48.9672
-48.6809
-48.5602
-48.2909
-48.5965
-48.6726
-48.3431
-48.2381
-47.9825
-48.273
-48.3349
-47.9625
-47.8729
-47.6311
-47.9065
-47.9543
-47.5392
-47.4649
-47.2367
-47.4971
-47.531
-47.0736
-47.0145
-46.7999
-47.0453
-47.0654
-46.5662
-46.5221
-46.3211
-46.5515
-46.558
-46.0176
-45.9883
-45.8007
-46.0163
-46.0095
-45.4286
-45.4137
-45.2394
-45.4404
-45.4205
-44.7999
-44.7992
-44.6381
-44.8245
-44.7918
-44.1326
-44.1457
-43.9976
-44.1697
-44.1245
-43.4277
-43.4543
-43.319
-43.4769
-43.4196
-42.6864
-42.7261
-42.6034
-42.7473
-42.6783
-41.91
-41.9623
-41.852
-41.9822
-41.9018
-41.1
-41.1644
-41.0662
-41.183
-41.0918
-40.2577
-40.3339
-40.2474
-40.3511
-40.2495
-39.385
-39.4723
-39.3974
-39.4882
-39.3767
-38.4834
-38.5813
-38.5176
-38.596
-38.4752
-37.5549
-37.6629
-37.6099
-37.6763
-37.5466
-36.6013
-36.7187
-36.6763
-36.731
-36.5931
-35.6247
-35.7509
-35.7185
-35.762
-35.6165
-34.6271
-34.7615
-34.7387
-34.7715
-34.6189
-33.6107
-33.7526
-33.739
-33.7615
-33.6025
-32.5776
-32.7264
-32.7216
-32.7342
-32.5695
-31.5302
-31.6851
-31.6885
-31.6919
-31.5221
-30.4706
-30.631
-30.6422
-30.6368
-30.4626
-29.4013
-29.5664
-29.5849
-29.5713
-29.3933
-28.3245
-28.4936
-28.5188
-28.4976
-28.3165
-27.2425
-27.415
-27.4464
-27.4181
-27.2347
-26.1577
-26.3327
-26.3698
-26.335
-26.15
-25.0724
-25.2492
-25.2915
-25.2507
-25.0647
-23.9887
-24.1666
-24.2135
-24.1675
-23.9812
-22.909
-23.0872
-23.1382
-23.0874
-22.9016
-21.8352
-22.0131
-22.0676
-22.0127
-21.828
-20.7695
-20.9463
-21.0039
-20.9455
-20.7625
-19.7138
-19.8889
-19.9489
-19.8875
-19.707
-18.67
-18.8427
-18.9046
-18.8409
-18.6633
-17.6397
-17.8093
-17.8726
-17.8072
-17.6333
-16.6246
-16.7905
-16.8547
-16.788
-16.6184
-15.6261
-15.7877
-15.8522
-15.7849
-15.6201
-14.6454
-14.8021
-14.8665
-14.7992
-14.6396
-13.6837
-13.835
-13.8988
-13.8319
-13.6782
-12.7419
-12.8872
-12.9499
-12.884
-12.7366
-11.8207
-11.9595
-12.0207
-11.9562
-11.8157
-10.9206
-11.0526
-11.1119
-11.0493
-10.9159
-10.0421
-10.1667
-10.2236
-10.1634
-10.0376
-9.1851
-9.30194
-9.3562
-9.29872
-9.18094
-8.34963
-8.45836
-8.50958
-8.45524
-8.34577
-7.53534
-7.63563
-7.68348
-7.63265
-7.53179
-6.7417
-6.83325
-6.87744
-6.83045
-6.73847
-5.96795
-6.0505
-6.09075
-6.04791
-5.96505
-5.21312
-5.28644
-5.32251
-5.28408
-5.21055
-4.47602
-4.53991
-4.57159
-4.53782
-4.47379
-3.75527
-3.80956
-3.83667
-3.80776
-3.75337
-3.04926
-3.09383
-3.11621
-3.09233
-3.04771
-2.35622
-2.39097
-2.40849
-2.38978
-2.35501
-1.67419
-1.69905
-1.71162
-1.69819
-1.67332
-1.00104
-1.01597
-1.02354
-1.01546
-1.00053
-0.33452
-0.33952
-0.342057
-0.339346
-0.334346
)
;

boundaryField
{
    BotWall
    {
        type            zeroGradient;
    }
    FreeStream
    {
        type            zeroGradient;
    }
    FrontNBack
    {
        type            empty;
    }
    LeftSide
    {
        type            symmetryPlane;
    }
    RightSide
    {
        type            symmetryPlane;
    }
}


// ************************************************************************* //
