/*--------------------------------*- C++ -*----------------------------------*\
| =========                 |                                                 |
| \\      /  F ield         | OpenFOAM: The Open Source CFD Toolbox           |
|  \\    /   O peration     | Version:  2.4.0                                 |
|   \\  /    A nd           | Web:      www.OpenFOAM.org                      |
|    \\/     M anipulation  |                                                 |
\*---------------------------------------------------------------------------*/
FoamFile
{
    version     2.0;
    format      ascii;
    class       volScalarField;
    location    "4.4";
    object      p_rgh;
}
// * * * * * * * * * * * * * * * * * * * * * * * * * * * * * * * * * * * * * //

dimensions      [1 -1 -2 0 0 0 0];

internalField   nonuniform List<scalar> 
500
(
0.764011
0.764716
0.764392
0.764709
0.764037
0.764023
0.764733
0.764413
0.764725
0.764047
0.764008
0.764725
0.764411
0.764715
0.764032
0.764015
0.76474
0.764432
0.764729
0.764039
0.763996
0.764729
0.764428
0.764717
0.76402
0.764003
0.764743
0.76445
0.764731
0.764028
0.763983
0.764731
0.764445
0.764718
0.764008
0.763991
0.764747
0.764469
0.764733
0.764016
0.763969
0.764734
0.764463
0.764719
0.763995
0.763977
0.764751
0.764487
0.764735
0.764004
0.763951
0.764733
0.764477
0.764716
0.763978
0.763959
0.76475
0.764502
0.764732
0.763986
0.763954
0.764754
0.764514
0.764735
0.763982
0.764048
0.764858
0.764627
0.764838
0.764076
0.764074
0.764895
0.764672
0.764874
0.764102
0.763556
0.764385
0.764165
0.764364
0.763585
0.761482
0.762303
0.762072
0.762283
0.761511
0.76012
0.760929
0.760683
0.760946
0.760148
0.773681
0.774624
0.774448
0.77457
0.773711
0.825246
0.826592
0.826964
0.826591
0.82529
0.859668
0.861838
0.862807
0.861575
0.859757
0.507581
0.508189
0.506067
0.508277
0.507661
-0.761325
-0.770237
-0.784661
-0.768633
-0.761427
-2.54436
-2.56821
-2.59656
-2.56504
-2.54495
-0.00420474
-0.00420526
-0.00420411
-0.00420541
-0.00420472
0.0014138
0.00141307
0.00141164
0.00141323
0.00141377
0.000440274
0.000440469
0.000440446
0.000440474
0.000440269
-1.11055e-05
-1.08928e-05
-1.0696e-05
-1.09145e-05
-1.11041e-05
-6.12764e-05
-6.11743e-05
-6.10612e-05
-6.11867e-05
-6.12761e-05
-2.63652e-05
-2.62956e-05
-2.62313e-05
-2.63025e-05
-2.63659e-05
-9.29812e-06
-9.22468e-06
-9.16775e-06
-9.23061e-06
-9.29895e-06
-7.49637e-06
-7.41847e-06
-7.35928e-06
-7.42465e-06
-7.49714e-06
-8.83334e-06
-8.75584e-06
-8.69592e-06
-8.76212e-06
-8.83407e-06
-9.45493e-06
-9.37947e-06
-9.32046e-06
-9.38566e-06
-9.45565e-06
-9.46856e-06
-9.39499e-06
-9.33724e-06
-9.40104e-06
-9.46926e-06
-9.35843e-06
-9.28646e-06
-9.22991e-06
-9.29238e-06
-9.35913e-06
-9.27667e-06
-9.20622e-06
-9.15079e-06
-9.21202e-06
-9.27737e-06
-9.21852e-06
-9.14957e-06
-9.09524e-06
-9.15525e-06
-9.2192e-06
-9.1646e-06
-9.09716e-06
-9.04391e-06
-9.10272e-06
-9.16527e-06
-9.10888e-06
-9.04293e-06
-8.99077e-06
-9.04838e-06
-9.10955e-06
-9.05158e-06
-8.9871e-06
-8.93601e-06
-8.99243e-06
-9.05224e-06
-8.99346e-06
-8.93043e-06
-8.8804e-06
-8.93565e-06
-8.9941e-06
-8.93474e-06
-8.87316e-06
-8.82417e-06
-8.87826e-06
-8.93538e-06
-8.87543e-06
-8.81526e-06
-8.76731e-06
-8.82025e-06
-8.87605e-06
-8.81547e-06
-8.7567e-06
-8.70978e-06
-8.76158e-06
-8.81608e-06
-8.75485e-06
-8.69747e-06
-8.65156e-06
-8.70224e-06
-8.75546e-06
-8.69356e-06
-8.63755e-06
-8.59264e-06
-8.64221e-06
-8.69416e-06
-8.63161e-06
-8.57694e-06
-8.53303e-06
-8.5815e-06
-8.63219e-06
-8.56898e-06
-8.51564e-06
-8.47271e-06
-8.52009e-06
-8.56955e-06
-8.50566e-06
-8.45364e-06
-8.41168e-06
-8.45798e-06
-8.50622e-06
-8.44165e-06
-8.39092e-06
-8.34993e-06
-8.39516e-06
-8.4422e-06
-8.37694e-06
-8.32749e-06
-8.28745e-06
-8.33163e-06
-8.37748e-06
-8.31152e-06
-8.26334e-06
-8.22423e-06
-8.26737e-06
-8.31206e-06
-8.24539e-06
-8.19845e-06
-8.16028e-06
-8.20238e-06
-8.24592e-06
-8.17854e-06
-8.13282e-06
-8.09557e-06
-8.13666e-06
-8.17905e-06
-8.11096e-06
-8.06645e-06
-8.0301e-06
-8.07019e-06
-8.11146e-06
-8.04264e-06
-7.99933e-06
-7.96387e-06
-8.00296e-06
-8.04313e-06
-7.97358e-06
-7.93144e-06
-7.89687e-06
-7.93498e-06
-7.97406e-06
-7.90376e-06
-7.86278e-06
-7.82909e-06
-7.86622e-06
-7.90424e-06
-7.83319e-06
-7.79334e-06
-7.76052e-06
-7.79669e-06
-7.83365e-06
-7.76184e-06
-7.72312e-06
-7.69116e-06
-7.72638e-06
-7.7623e-06
-7.68972e-06
-7.6521e-06
-7.62099e-06
-7.65527e-06
-7.69016e-06
-7.61681e-06
-7.58029e-06
-7.55e-06
-7.58336e-06
-7.61725e-06
-7.54311e-06
-7.50766e-06
-7.4782e-06
-7.51064e-06
-7.54354e-06
-7.46861e-06
-7.43421e-06
-7.40557e-06
-7.4371e-06
-7.46903e-06
-7.3933e-06
-7.35994e-06
-7.3321e-06
-7.36274e-06
-7.3937e-06
-7.31717e-06
-7.28483e-06
-7.25779e-06
-7.28754e-06
-7.31756e-06
-7.24021e-06
-7.20887e-06
-7.18263e-06
-7.2115e-06
-7.24059e-06
-7.16241e-06
-7.13206e-06
-7.1066e-06
-7.13461e-06
-7.16278e-06
-7.08377e-06
-7.05439e-06
-7.0297e-06
-7.05685e-06
-7.08413e-06
-7.00427e-06
-6.97585e-06
-6.95192e-06
-6.97823e-06
-7.00462e-06
-6.92391e-06
-6.89643e-06
-6.87325e-06
-6.89872e-06
-6.92425e-06
-6.84267e-06
-6.81611e-06
-6.79368e-06
-6.81833e-06
-6.843e-06
-6.76055e-06
-6.7349e-06
-6.71321e-06
-6.73703e-06
-6.76086e-06
-6.67753e-06
-6.65278e-06
-6.63181e-06
-6.65483e-06
-6.67784e-06
-6.59361e-06
-6.56974e-06
-6.5495e-06
-6.57171e-06
-6.59391e-06
-6.50878e-06
-6.48578e-06
-6.46625e-06
-6.48767e-06
-6.50907e-06
-6.42303e-06
-6.40087e-06
-6.38205e-06
-6.40269e-06
-6.4233e-06
-6.33634e-06
-6.31502e-06
-6.2969e-06
-6.31676e-06
-6.3366e-06
-6.24871e-06
-6.22821e-06
-6.21078e-06
-6.22987e-06
-6.24896e-06
-6.16012e-06
-6.14044e-06
-6.12369e-06
-6.14201e-06
-6.16036e-06
-6.07057e-06
-6.05168e-06
-6.03561e-06
-6.05318e-06
-6.0708e-06
-5.98005e-06
-5.96193e-06
-5.94654e-06
-5.96336e-06
-5.98026e-06
-5.88853e-06
-5.87119e-06
-5.85646e-06
-5.87254e-06
-5.88873e-06
-5.79602e-06
-5.77944e-06
-5.76537e-06
-5.78071e-06
-5.79621e-06
-5.7025e-06
-5.68666e-06
-5.67325e-06
-5.68786e-06
-5.70267e-06
-5.60796e-06
-5.59285e-06
-5.5801e-06
-5.59398e-06
-5.60812e-06
-5.51239e-06
-5.498e-06
-5.4859e-06
-5.49905e-06
-5.51253e-06
-5.41578e-06
-5.4021e-06
-5.39063e-06
-5.40307e-06
-5.4159e-06
-5.31811e-06
-5.30512e-06
-5.2943e-06
-5.30603e-06
-5.31822e-06
-5.21937e-06
-5.20708e-06
-5.19689e-06
-5.20791e-06
-5.21947e-06
-5.11955e-06
-5.10794e-06
-5.09839e-06
-5.10869e-06
-5.11963e-06
-5.01864e-06
-5.0077e-06
-4.99878e-06
-5.00838e-06
-5.01871e-06
-4.91662e-06
-4.90635e-06
-4.89807e-06
-4.90696e-06
-4.91668e-06
-4.81348e-06
-4.80388e-06
-4.79624e-06
-4.80441e-06
-4.81352e-06
-4.70923e-06
-4.70026e-06
-4.69325e-06
-4.70072e-06
-4.70924e-06
-4.60394e-06
-4.59545e-06
-4.58895e-06
-4.59584e-06
-4.60394e-06
-4.49768e-06
-4.4894e-06
-4.48322e-06
-4.48973e-06
-4.49766e-06
-4.38983e-06
-4.38235e-06
-4.37692e-06
-4.3826e-06
-4.38979e-06
-4.27788e-06
-4.27523e-06
-4.27342e-06
-4.27524e-06
-4.27783e-06
)
;

boundaryField
{
    BotWall
    {
        type            fixedFluxPressure;
        gradient        uniform 0;
        value           nonuniform List<scalar> 5(0.764011 0.764716 0.764392 0.764709 0.764037);
    }
    FreeStream
    {
        type            totalPressure;
        rho             rho;
        psi             none;
        gamma           1;
        p0              uniform 0;
        value           nonuniform List<scalar> 5(-4.21955e-06 -4.22213e-06 -4.22411e-06 -4.22191e-06 -4.21951e-06);
    }
    FrontNBack
    {
        type            empty;
    }
    LeftSide
    {
        type            symmetryPlane;
    }
    RightSide
    {
        type            symmetryPlane;
    }
}


// ************************************************************************* //
