/*--------------------------------*- C++ -*----------------------------------*\
| =========                 |                                                 |
| \\      /  F ield         | OpenFOAM: The Open Source CFD Toolbox           |
|  \\    /   O peration     | Version:  2.4.0                                 |
|   \\  /    A nd           | Web:      www.OpenFOAM.org                      |
|    \\/     M anipulation  |                                                 |
\*---------------------------------------------------------------------------*/
FoamFile
{
    version     2.0;
    format      ascii;
    class       surfaceScalarField;
    location    "4.4";
    object      phi;
}
// * * * * * * * * * * * * * * * * * * * * * * * * * * * * * * * * * * * * * //

dimensions      [0 3 -1 0 0 0 0];

internalField   nonuniform List<scalar> 
895
(
1.98642e-17
-1.98634e-17
1.47171e-17
5.14861e-18
-1.63882e-17
3.11076e-17
-1.87447e-17
2.35823e-18
-1.87433e-17
6.1156e-17
-8.10077e-17
4.46567e-17
2.16679e-17
-4.97471e-17
1.25539e-16
-5.77146e-17
1.0348e-17
-7.64416e-17
1.04351e-16
-1.85345e-16
7.56582e-17
5.0383e-17
-8.42832e-17
2.85512e-16
-9.8483e-17
2.45716e-17
-1.74908e-16
1.49413e-16
-3.34742e-16
1.07849e-16
9.19713e-17
-1.20128e-16
5.13522e-16
-1.4101e-16
4.54785e-17
-3.15901e-16
1.96461e-16
-5.31186e-16
1.41311e-16
1.47147e-16
-1.57369e-16
8.12236e-16
-1.8541e-16
7.3545e-17
-5.01293e-16
2.4555e-16
-7.76719e-16
1.76077e-16
2.16646e-16
-1.96043e-16
1.18439e-15
-2.31729e-16
1.09257e-16
-7.33005e-16
2.96827e-16
-1.07353e-15
2.12236e-16
3.01264e-16
-2.36246e-16
1.63291e-15
-2.80108e-16
1.53146e-16
-1.01309e-15
3.50342e-16
-1.42385e-15
2.49825e-16
4.01807e-16
-2.78018e-16
2.16079e-15
-3.30586e-16
2.05741e-16
-1.34366e-15
4.06268e-16
-1.8301e-15
2.88947e-16
5.19155e-16
-3.21469e-16
2.77124e-15
-3.8333e-16
2.67628e-16
-1.72698e-15
4.64652e-16
-2.29474e-15
3.29638e-16
6.54196e-16
-3.66642e-16
3.46755e-15
-4.38377e-16
3.39389e-16
-2.16534e-15
5.25696e-16
-2.82041e-15
3.72016e-16
8.07903e-16
-4.13663e-16
4.25327e-15
-4.95917e-16
4.21668e-16
-2.66124e-15
5.89449e-16
-3.40985e-15
4.16122e-16
9.81255e-16
-4.62578e-16
5.132e-15
-5.5599e-16
5.15103e-16
-3.21721e-15
6.56137e-16
-4.06597e-15
4.62089e-16
1.17533e-15
-5.13529e-16
6.10765e-15
-6.18809e-16
6.20406e-16
-3.83601e-15
7.25816e-16
-4.79177e-15
5.0996e-16
1.39121e-15
-5.66566e-16
7.1842e-15
-6.84418e-16
7.3828e-16
-4.52041e-15
7.98738e-16
-5.59049e-15
5.59887e-16
1.63008e-15
-6.21853e-16
8.36597e-15
-7.53056e-16
8.69503e-16
-5.27345e-15
8.7497e-16
-6.46545e-15
6.11926e-16
1.89314e-15
-6.79451e-16
9.65737e-15
-8.24775e-16
1.01485e-15
-6.09822e-15
9.54797e-16
-7.42023e-15
6.66245e-16
2.18171e-15
-7.39542e-16
1.10632e-14
-8.99843e-16
1.17516e-15
-6.99805e-15
1.03828e-15
-8.45849e-15
7.2296e-16
2.49705e-15
-8.02311e-16
1.25885e-14
-9.78252e-16
1.35112e-15
-7.97629e-15
1.12556e-15
-9.58405e-15
7.82221e-16
2.8404e-15
-8.67036e-16
1.42377e-14
-1.06028e-15
1.54437e-15
-9.03657e-15
1.2167e-15
-1.08007e-14
8.42279e-16
3.21484e-15
-9.35017e-16
1.60151e-14
-1.14593e-15
1.7553e-15
-1.01825e-14
1.31249e-15
-1.21132e-14
9.08872e-16
3.61847e-15
-1.00729e-15
1.79312e-14
-1.23582e-15
1.98383e-15
-1.14183e-14
1.41532e-15
-1.35285e-14
9.78256e-16
4.05553e-15
-1.0845e-15
1.9994e-14
-1.33268e-15
2.23202e-15
-1.2751e-14
1.52526e-15
-5.59575e-14
1.06316e-15
4.51763e-15
-1.17985e-15
2.2237e-14
-1.43425e-15
2.48642e-15
-5.27166e-14
1.68522e-15
-1.9235e-10
1.21411e-15
-1.92464e-10
-1.34843e-15
-1.92552e-10
-1.57575e-15
-1.92455e-10
-1.9235e-10
1.71898e-15
-1.92351e-10
1.17535e-15
-1.92463e-10
-1.30622e-15
-1.9255e-10
-1.61912e-15
-1.92454e-10
-1.92351e-10
1.62297e-15
-1.92353e-10
1.142e-15
-1.92463e-10
-1.27128e-15
-1.92547e-10
-1.5217e-15
-1.92454e-10
-1.92353e-10
1.48999e-15
-1.92354e-10
1.03212e-15
-1.92462e-10
-1.15065e-15
-1.92545e-10
-1.39868e-15
-1.92454e-10
-1.92354e-10
1.36985e-15
-1.92356e-10
9.47021e-16
-1.92462e-10
-1.05729e-15
-1.92543e-10
-1.28488e-15
-1.92454e-10
-1.92355e-10
1.25593e-15
-1.92357e-10
8.72522e-16
-1.92461e-10
-9.75605e-16
-1.92541e-10
-1.17599e-15
-1.92453e-10
-1.92357e-10
1.14448e-15
-1.92358e-10
8.00061e-16
-1.92461e-10
-8.96169e-16
-1.92539e-10
-1.06945e-15
-1.92453e-10
-1.92358e-10
1.03541e-15
-1.92359e-10
7.28505e-16
-1.92461e-10
-8.17727e-16
-1.92538e-10
-9.65312e-16
-1.92453e-10
-1.92359e-10
9.29409e-16
-1.9236e-10
6.58542e-16
-1.92461e-10
-7.41035e-16
-1.92537e-10
-8.64154e-16
-1.92453e-10
-1.92359e-10
8.26836e-16
-1.92361e-10
5.90654e-16
-1.9246e-10
-6.66622e-16
-1.92535e-10
-7.663e-16
-1.92453e-10
-1.9236e-10
7.27855e-16
-1.92362e-10
5.2502e-16
-1.9246e-10
-5.94683e-16
-1.92534e-10
-6.71904e-16
-1.92453e-10
-1.92361e-10
6.32606e-16
-1.92362e-10
4.61729e-16
-1.9246e-10
-5.25315e-16
-1.92533e-10
-5.81108e-16
-1.92453e-10
-1.92361e-10
5.41252e-16
-1.92363e-10
4.00875e-16
-1.9246e-10
-4.58622e-16
-1.92532e-10
-4.94076e-16
-1.92453e-10
-1.92362e-10
4.5396e-16
-1.92363e-10
3.42562e-16
-1.9246e-10
-3.94718e-16
-1.92532e-10
-4.10973e-16
-1.92453e-10
-1.92362e-10
3.70888e-16
-1.92364e-10
2.86896e-16
-1.9246e-10
-3.33718e-16
-1.92531e-10
-3.31957e-16
-1.92453e-10
-1.92363e-10
2.92188e-16
-1.92364e-10
2.33976e-16
-1.9246e-10
-2.75732e-16
-1.9253e-10
-2.57178e-16
-1.92453e-10
-1.92363e-10
2.18002e-16
-1.92364e-10
1.83897e-16
-1.9246e-10
-2.20861e-16
-1.9253e-10
-1.86775e-16
-1.92453e-10
-1.92363e-10
1.48461e-16
-1.92364e-10
1.36747e-16
-1.9246e-10
-1.69204e-16
-1.9253e-10
-1.2088e-16
-1.92453e-10
-1.92363e-10
8.36861e-17
-1.92364e-10
9.26092e-17
-1.9246e-10
-1.20849e-16
-1.9253e-10
-5.96134e-17
-1.92453e-10
-1.92363e-10
2.37886e-17
-1.92365e-10
5.15578e-17
-1.9246e-10
-7.5877e-17
-1.92529e-10
-3.08445e-18
-1.92453e-10
-1.92363e-10
-3.11344e-17
-1.92364e-10
1.36609e-17
-1.9246e-10
-3.43622e-17
-1.92529e-10
4.86098e-17
-1.92453e-10
-1.92363e-10
-8.09982e-17
-1.92364e-10
-2.10222e-17
-1.9246e-10
3.63153e-18
-1.92529e-10
9.53853e-17
-1.92453e-10
-1.92363e-10
-1.25732e-16
-1.92364e-10
-5.24405e-17
-1.9246e-10
3.80503e-17
-1.92529e-10
1.37172e-16
-1.92453e-10
-1.92363e-10
-1.65282e-16
-1.92364e-10
-8.05521e-17
-1.9246e-10
6.88496e-17
-1.9253e-10
1.73916e-16
-1.92453e-10
-1.92363e-10
-1.99607e-16
-1.92364e-10
-1.05325e-16
-1.9246e-10
9.59963e-17
-1.9253e-10
2.05577e-16
-1.92453e-10
-1.92363e-10
-2.28686e-16
-1.92364e-10
-1.26739e-16
-1.9246e-10
1.19469e-16
-1.9253e-10
2.32134e-16
-1.92454e-10
-1.92362e-10
-2.52513e-16
-1.92363e-10
-1.44781e-16
-1.9246e-10
1.39258e-16
-1.9253e-10
2.53581e-16
-1.92454e-10
-1.92362e-10
-2.71102e-16
-1.92363e-10
-1.59454e-16
-1.9246e-10
1.55366e-16
-1.92531e-10
2.6993e-16
-1.92454e-10
-1.92362e-10
-2.84483e-16
-1.92363e-10
-1.70768e-16
-1.9246e-10
1.67809e-16
-1.92531e-10
2.81214e-16
-1.92454e-10
-1.92362e-10
-2.92707e-16
-1.92363e-10
-1.78749e-16
-1.9246e-10
1.76616e-16
-1.92531e-10
2.87483e-16
-1.92454e-10
-1.92361e-10
-2.95844e-16
-1.92362e-10
-1.83431e-16
-1.92461e-10
1.8183e-16
-1.92532e-10
2.88805e-16
-1.92454e-10
-1.92361e-10
-2.93982e-16
-1.92362e-10
-1.84865e-16
-1.92461e-10
1.83506e-16
-1.92532e-10
2.85269e-16
-1.92454e-10
-1.92361e-10
-2.87232e-16
-1.92362e-10
-1.83109e-16
-1.92461e-10
1.81714e-16
-1.92532e-10
2.76984e-16
-1.92454e-10
-1.9236e-10
-2.75721e-16
-1.92361e-10
-1.78237e-16
-1.92461e-10
1.76538e-16
-1.92533e-10
2.64075e-16
-1.92454e-10
-1.9236e-10
-2.59595e-16
-1.92361e-10
-1.70335e-16
-1.92461e-10
1.68074e-16
-1.92533e-10
2.46691e-16
-1.92455e-10
-1.9236e-10
-2.39022e-16
-1.92361e-10
-1.595e-16
-1.92461e-10
1.56433e-16
-1.92534e-10
2.24995e-16
-1.92455e-10
-1.9236e-10
-2.14185e-16
-1.92361e-10
-1.4584e-16
-1.92461e-10
1.41736e-16
-1.92534e-10
1.9917e-16
-1.92455e-10
-1.9236e-10
-1.85285e-16
-1.92361e-10
-1.29475e-16
-1.92461e-10
1.24119e-16
-1.92534e-10
1.69415e-16
-1.92455e-10
-1.92359e-10
-1.5254e-16
-1.9236e-10
-1.10537e-16
-1.92461e-10
1.03729e-16
-1.92534e-10
1.35947e-16
-1.92455e-10
-1.92359e-10
-1.16182e-16
-1.9236e-10
-8.91647e-17
-1.92461e-10
8.0722e-17
-1.92534e-10
9.89947e-17
-1.92455e-10
-1.92359e-10
-7.6458e-17
-1.9236e-10
-6.55085e-17
-1.92461e-10
5.52655e-17
-1.92535e-10
5.88031e-17
-1.92455e-10
-1.92359e-10
-3.3625e-17
-1.9236e-10
-3.97259e-17
-1.92461e-10
2.75353e-17
-1.92535e-10
1.56274e-17
-1.92455e-10
-1.92359e-10
1.2048e-17
-1.9236e-10
-1.19818e-17
-1.92461e-10
-2.28536e-18
-1.92535e-10
-3.02663e-17
-1.92455e-10
-1.92359e-10
6.02838e-17
-1.9236e-10
1.75526e-17
-1.92461e-10
-3.40061e-17
-1.92535e-10
-7.86045e-17
-1.92455e-10
-1.92359e-10
1.108e-16
-1.9236e-10
4.87018e-17
-1.92461e-10
-6.74334e-17
-1.92534e-10
-1.29107e-16
-1.92455e-10
-1.92359e-10
1.63309e-16
-1.92361e-10
8.12873e-17
-1.92461e-10
-1.0237e-16
-1.92534e-10
-1.81492e-16
-1.92455e-10
-1.9236e-10
2.17522e-16
-1.92361e-10
1.15128e-16
-1.92461e-10
-1.38616e-16
-1.92534e-10
-2.35472e-16
-1.92454e-10
-1.9236e-10
2.73151e-16
-1.92361e-10
1.50043e-16
-1.92461e-10
-1.75972e-16
-1.92534e-10
-2.90764e-16
-1.92454e-10
-1.9236e-10
3.2991e-16
-1.92361e-10
1.8585e-16
-1.92461e-10
-2.14241e-16
-1.92533e-10
-3.47087e-16
-1.92454e-10
-1.9236e-10
3.8752e-16
-1.92362e-10
2.22373e-16
-1.92461e-10
-2.53228e-16
-1.92533e-10
-4.04166e-16
-1.92454e-10
-1.92361e-10
4.45708e-16
-1.92362e-10
2.59437e-16
-1.9246e-10
-2.92743e-16
-1.92532e-10
-4.61735e-16
-1.92454e-10
-1.92361e-10
5.04214e-16
-1.92363e-10
2.96872e-16
-1.9246e-10
-3.32604e-16
-1.92532e-10
-5.19538e-16
-1.92454e-10
-1.92362e-10
5.62788e-16
-1.92363e-10
3.34517e-16
-1.9246e-10
-3.72636e-16
-1.92531e-10
-5.7733e-16
-1.92454e-10
-1.92362e-10
6.21196e-16
-1.92364e-10
3.72218e-16
-1.9246e-10
-4.12674e-16
-1.9253e-10
-6.34885e-16
-1.92453e-10
-1.92363e-10
6.7922e-16
-1.92365e-10
4.09828e-16
-1.92459e-10
-4.52564e-16
-1.92529e-10
-6.91991e-16
-1.92453e-10
-1.92364e-10
7.36661e-16
-1.92365e-10
4.47215e-16
-1.92459e-10
-4.92163e-16
-1.92528e-10
-7.48454e-16
-1.92453e-10
-1.92364e-10
7.93338e-16
-1.92366e-10
4.84253e-16
-1.92459e-10
-5.31342e-16
-1.92527e-10
-8.04102e-16
-1.92453e-10
-1.92365e-10
8.49091e-16
-1.92367e-10
5.20831e-16
-1.92458e-10
-5.69985e-16
-1.92526e-10
-8.58782e-16
-1.92452e-10
-1.92366e-10
9.0378e-16
-1.92368e-10
5.56846e-16
-1.92458e-10
-6.07989e-16
-1.92525e-10
-9.12362e-16
-1.92452e-10
-1.92367e-10
9.57286e-16
-1.92369e-10
5.92212e-16
-1.92458e-10
-6.45266e-16
-1.92524e-10
-9.6473e-16
-1.92452e-10
-1.92368e-10
1.00951e-15
-1.9237e-10
6.2685e-16
-1.92457e-10
-6.81739e-16
-1.92523e-10
-1.0158e-15
-1.92451e-10
-1.92369e-10
1.06037e-15
-1.92371e-10
6.60694e-16
-1.92457e-10
-7.17347e-16
-1.92521e-10
-1.06549e-15
-1.92451e-10
-1.9237e-10
1.10981e-15
-1.92372e-10
6.93687e-16
-1.92457e-10
-7.52036e-16
-1.9252e-10
-1.11375e-15
-1.92451e-10
-1.92371e-10
1.15777e-15
-1.92373e-10
7.2578e-16
-1.92456e-10
-7.85764e-16
-1.92518e-10
-1.16055e-15
-1.9245e-10
-1.92372e-10
1.20423e-15
-1.92374e-10
7.5693e-16
-1.92456e-10
-8.18495e-16
-1.92517e-10
-1.20585e-15
-1.9245e-10
-1.92374e-10
1.24914e-15
-1.92376e-10
7.87101e-16
-1.92455e-10
-8.50197e-16
-1.92515e-10
-1.24963e-15
-1.92449e-10
-1.92375e-10
1.29248e-15
-1.92377e-10
8.16253e-16
-1.92455e-10
-8.80841e-16
-1.92513e-10
-1.29187e-15
-1.92449e-10
-1.92376e-10
1.33422e-15
-1.92378e-10
8.4435e-16
-1.92454e-10
-9.10395e-16
-1.92512e-10
-1.33256e-15
-1.92449e-10
-1.92377e-10
1.37433e-15
-1.9238e-10
8.71345e-16
-1.92454e-10
-9.38818e-16
-1.9251e-10
-1.37166e-15
-1.92448e-10
-1.92379e-10
1.41275e-15
-1.92381e-10
8.97186e-16
-1.92453e-10
-9.6606e-16
-1.92508e-10
-1.40914e-15
-1.92448e-10
-1.9238e-10
1.44941e-15
-1.92382e-10
9.21804e-16
-1.92453e-10
-9.92057e-16
-1.92506e-10
-1.44492e-15
-1.92447e-10
-1.92382e-10
1.4842e-15
-1.92384e-10
9.45114e-16
-1.92452e-10
-1.01672e-15
-1.92504e-10
-1.47891e-15
-1.92447e-10
-1.92383e-10
1.51697e-15
-1.92385e-10
9.67e-16
-1.92452e-10
-1.03992e-15
-1.92502e-10
-1.51097e-15
-1.92446e-10
-1.92385e-10
1.5475e-15
-1.92387e-10
9.87307e-16
-1.92451e-10
-1.0615e-15
-1.925e-10
-1.5409e-15
-1.92446e-10
-1.92386e-10
1.57559e-15
-1.92389e-10
1.00588e-15
-1.92451e-10
-1.08129e-15
-1.92498e-10
-1.5685e-15
-1.92445e-10
-1.92388e-10
1.60115e-15
-1.9239e-10
1.02266e-15
-1.9245e-10
-1.09922e-15
-1.92496e-10
-1.59367e-15
-1.92445e-10
-1.92389e-10
1.62398e-15
1.03759e-15
-1.11522e-15
-1.6162e-15
)
;

boundaryField
{
    BotWall
    {
        type            calculated;
        value           nonuniform List<scalar> 5(-6.579e-22 -1.28923e-21 -1.91203e-21 -1.55195e-21 -1.18432e-21);
    }
    FreeStream
    {
        type            calculated;
        value           nonuniform List<scalar> 5(-1.92392e-10 -1.92449e-10 -1.92494e-10 -1.92444e-10 -1.92391e-10);
    }
    FrontNBack
    {
        type            empty;
        value           nonuniform 0();
    }
    LeftSide
    {
        type            symmetryPlane;
        value           uniform 0;
    }
    RightSide
    {
        type            symmetryPlane;
        value           uniform 0;
    }
}


// ************************************************************************* //
