/*--------------------------------*- C++ -*----------------------------------*\
| =========                 |                                                 |
| \\      /  F ield         | OpenFOAM: The Open Source CFD Toolbox           |
|  \\    /   O peration     | Version:  2.4.0                                 |
|   \\  /    A nd           | Web:      www.OpenFOAM.org                      |
|    \\/     M anipulation  |                                                 |
\*---------------------------------------------------------------------------*/
FoamFile
{
    version     2.0;
    format      ascii;
    class       volVectorField;
    location    "4.4";
    object      U;
}
// * * * * * * * * * * * * * * * * * * * * * * * * * * * * * * * * * * * * * //

dimensions      [0 1 -1 0 0 0 0];

internalField   nonuniform List<vector> 
500
(
(3.3745e-09 -2.86061e-10 0)
(1.12493e-08 -2.72574e-10 0)
(-6.60825e-10 -2.47535e-10 0)
(-1.11489e-08 -2.75093e-10 0)
(-2.65289e-09 -2.85107e-10 0)
(1.03364e-08 4.84305e-10 0)
(3.39713e-08 7.67983e-10 0)
(-1.99169e-09 1.03794e-09 0)
(-3.36626e-08 7.38766e-10 0)
(-8.15502e-09 4.96153e-10 0)
(1.75605e-08 -1.80242e-09 0)
(5.70615e-08 -1.06267e-09 0)
(-3.34045e-09 -2.82772e-10 0)
(-5.65355e-08 -1.14789e-09 0)
(-1.3893e-08 -1.76818e-09 0)
(2.50484e-08 4.00058e-10 0)
(8.05292e-08 2.03586e-09 0)
(-4.70844e-09 3.61177e-09 0)
(-7.97763e-08 1.8624e-09 0)
(-1.98664e-08 4.70447e-10 0)
(3.28198e-08 -4.25401e-09 0)
(1.04407e-07 -1.63318e-09 0)
(-6.09679e-09 1.01022e-09 0)
(-1.03417e-07 -1.92505e-09 0)
(-2.60928e-08 -4.13589e-09 0)
(4.08716e-08 -5.40722e-10 0)
(1.28701e-07 3.64471e-09 0)
(-7.50663e-09 7.66024e-09 0)
(-1.27463e-07 3.19963e-09 0)
(-3.25671e-08 -3.59488e-10 0)
(4.92295e-08 -7.7856e-09 0)
(1.5345e-07 -2.04359e-09 0)
(-8.93943e-09 3.62666e-09 0)
(-1.51952e-07 -2.67329e-09 0)
(-3.93124e-08 -7.52939e-09 0)
(5.78869e-08 -2.37145e-09 0)
(1.78658e-07 5.66218e-09 0)
(-1.03962e-08 1.33204e-08 0)
(-1.76888e-07 4.80933e-09 0)
(-4.63199e-08 -2.02271e-09 0)
(6.68749e-08 -1.24943e-08 0)
(2.04372e-07 -2.2744e-09 0)
(-1.18786e-08 7.66899e-09 0)
(-2.02315e-07 -3.38351e-09 0)
(-5.36176e-08 -1.20407e-08 0)
(7.6184e-08 -5.133e-09 0)
(2.30592e-07 8.17221e-09 0)
(-1.33878e-08 2.07656e-08 0)
(-2.28235e-07 6.76422e-09 0)
(-6.11939e-08 -4.55454e-09 0)
(8.58501e-08 -1.85866e-08 0)
(2.57374e-07 -2.40206e-09 0)
(-1.49259e-08 1.3153e-08 0)
(-2.547e-07 -4.14375e-09 0)
(-6.90809e-08 -1.78704e-08 0)
(9.5862e-08 -9.07593e-09 0)
(2.84716e-07 1.10588e-08 0)
(-1.64939e-08 2.99747e-08 0)
(-2.81709e-07 8.93628e-09 0)
(-7.7265e-08 -8.1993e-09 0)
(1.06259e-07 -2.62662e-08 0)
(3.12679e-07 -2.48995e-09 0)
(-1.80943e-08 2.01168e-08 0)
(-3.09322e-07 -5.03062e-09 0)
(-8.57818e-08 -2.52158e-08 0)
(1.1703e-07 -1.25804e-08 0)
(3.41264e-07 1.6099e-08 0)
(-1.97284e-08 4.28504e-08 0)
(-3.37536e-07 1.30855e-08 0)
(-9.46168e-08 -1.13301e-08 0)
(1.28218e-07 -3.04459e-08 0)
(3.70536e-07 2.75094e-09 0)
(-2.13988e-08 3.40177e-08 0)
(-3.66419e-07 -7.77776e-10 0)
(-1.03808e-07 -2.89812e-08 0)
(1.39812e-07 -1.47006e-08 0)
(4.00498e-07 2.44705e-08 0)
(-2.3107e-08 6.06939e-08 0)
(-3.95969e-07 2.03773e-08 0)
(-1.13342e-07 -1.29903e-08 0)
(1.51857e-07 -7.4772e-08 0)
(4.31222e-07 -3.03754e-08 0)
(-2.48558e-08 1.08568e-08 0)
(-4.26258e-07 -3.50407e-08 0)
(-1.23259e-07 -7.28047e-08 0)
(1.64338e-07 -1.53063e-07 0)
(4.62702e-07 -1.02444e-07 0)
(-2.66464e-08 -5.63957e-08 0)
(-4.57279e-07 -1.07669e-07 0)
(-1.33541e-07 -1.50821e-07 0)
(1.77297e-07 -1.81515e-07 0)
(4.94999e-07 -1.25197e-07 0)
(-2.83907e-08 -7.33173e-08 0)
(-4.88987e-07 -1.31095e-07 0)
(-1.4421e-07 -1.79005e-07 0)
(1.907e-07 7.03268e-07 0)
(5.27938e-07 7.72663e-07 0)
(-3.04702e-08 8.39396e-07 0)
(-5.21638e-07 7.65073e-07 0)
(-1.55284e-07 7.06153e-07 0)
(2.04806e-07 3.31802e-06 0)
(5.62394e-07 3.41664e-06 0)
(-3.22828e-08 3.51896e-06 0)
(-5.5541e-07 3.40504e-06 0)
(-1.66923e-07 3.32173e-06 0)
(2.19827e-07 2.48255e-06 0)
(5.98e-07 2.60793e-06 0)
(-3.4394e-08 2.72376e-06 0)
(-5.90612e-07 2.59478e-06 0)
(-1.7945e-07 2.48761e-06 0)
(2.35538e-07 -1.53454e-05 0)
(6.34537e-07 -1.53045e-05 0)
(-3.67296e-08 -1.53602e-05 0)
(-6.26856e-07 -1.52984e-05 0)
(-1.92545e-07 -1.53402e-05 0)
(2.56723e-07 -0.000119761 0)
(6.81907e-07 -0.000120457 0)
(-3.96609e-08 -0.000121474 0)
(-6.73746e-07 -0.000120343 0)
(-2.10309e-07 -0.000119772 0)
(2.62899e-07 -0.000773981 0)
(6.97112e-07 -0.000773917 0)
(-4.06726e-08 -0.00077372 0)
(-6.8886e-07 -0.000773943 0)
(-2.15382e-07 -0.000773965 0)
(2.4181e-07 -0.00176111 0)
(6.54447e-07 -0.00176161 0)
(-3.89185e-08 -0.00176163 0)
(-6.46521e-07 -0.00176161 0)
(-1.96201e-07 -0.0017611 0)
(2.16997e-07 -0.000978622 0)
(5.98652e-07 -0.0009793 0)
(-3.60356e-08 -0.000979855 0)
(-5.91262e-07 -0.000979243 0)
(-1.74621e-07 -0.000978622 0)
(1.94346e-07 -0.000914149 0)
(5.46652e-07 -0.000914714 0)
(-3.33165e-08 -0.000915184 0)
(-5.39783e-07 -0.000914666 0)
(-1.55016e-07 -0.000914148 0)
(1.73338e-07 -0.00093894 0)
(4.98037e-07 -0.000939456 0)
(-3.07798e-08 -0.000939865 0)
(-4.91662e-07 -0.000939415 0)
(-1.36833e-07 -0.000938938 0)
(1.53348e-07 -0.000960416 0)
(4.51674e-07 -0.000960927 0)
(-2.83682e-08 -0.000961316 0)
(-4.45775e-07 -0.000960888 0)
(-1.19518e-07 -0.000960413 0)
(1.34248e-07 -0.000963928 0)
(4.07191e-07 -0.000964438 0)
(-2.60528e-08 -0.000964824 0)
(-4.01758e-07 -0.0009644 0)
(-1.02977e-07 -0.000963925 0)
(1.16093e-07 -0.000962709 0)
(3.6464e-07 -0.000963215 0)
(-2.38318e-08 -0.000963597 0)
(-3.5966e-07 -0.000963177 0)
(-8.72707e-08 -0.000962706 0)
(9.89246e-08 -0.000961859 0)
(3.24092e-07 -0.000962359 0)
(-2.17082e-08 -0.000962736 0)
(-3.19556e-07 -0.000962322 0)
(-7.2438e-08 -0.000961855 0)
(8.27501e-08 -0.000961718 0)
(2.85572e-07 -0.000962212 0)
(-1.96835e-08 -0.000962585 0)
(-2.81472e-07 -0.000962176 0)
(-5.84867e-08 -0.000961714 0)
(6.75673e-08 -0.000961773 0)
(2.49085e-07 -0.000962263 0)
(-1.77577e-08 -0.000962631 0)
(-2.4541e-07 -0.000962227 0)
(-4.54163e-08 -0.000961769 0)
(5.33742e-08 -0.000961811 0)
(2.14631e-07 -0.000962297 0)
(-1.59306e-08 -0.000962661 0)
(-2.11374e-07 -0.000962262 0)
(-3.32265e-08 -0.000961806 0)
(4.01686e-08 -0.000961819 0)
(1.82211e-07 -0.000962302 0)
(-1.42018e-08 -0.000962663 0)
(-1.79363e-07 -0.000962267 0)
(-2.1917e-08 -0.000961815 0)
(2.79471e-08 -0.000961819 0)
(1.51821e-07 -0.0009623 0)
(-1.2571e-08 -0.000962658 0)
(-1.49375e-07 -0.000962265 0)
(-1.14864e-08 -0.000961814 0)
(1.67042e-08 -0.00096182 0)
(1.23457e-07 -0.000962298 0)
(-1.10375e-08 -0.000962654 0)
(-1.21404e-07 -0.000962264 0)
(-1.93099e-09 -0.000961814 0)
(6.43242e-09 -0.000961821 0)
(9.7107e-08 -0.000962298 0)
(-9.60076e-09 -0.000962651 0)
(-9.54425e-08 -0.000962264 0)
(6.75464e-09 -0.000961815 0)
(-2.87774e-09 -0.000961822 0)
(7.27592e-08 -0.000962298 0)
(-8.25975e-09 -0.000962649 0)
(-7.14758e-08 -0.000962264 0)
(1.45779e-08 -0.000961816 0)
(-1.12377e-08 -0.000961822 0)
(5.03958e-08 -0.000962298 0)
(-7.01344e-09 -0.000962648 0)
(-4.94873e-08 -0.000962264 0)
(2.1548e-08 -0.000961816 0)
(-1.86611e-08 -0.000961823 0)
(2.99959e-08 -0.000962298 0)
(-5.86059e-09 -0.000962647 0)
(-2.94559e-08 -0.000962265 0)
(2.76763e-08 -0.000961817 0)
(-2.51634e-08 -0.000961822 0)
(1.15344e-08 -0.000962298 0)
(-4.79978e-09 -0.000962647 0)
(-1.13568e-08 -0.000962265 0)
(3.2976e-08 -0.000961817 0)
(-3.07622e-08 -0.000961822 0)
(-5.01791e-09 -0.000962298 0)
(-3.82941e-09 -0.000962647 0)
(4.83921e-09 -0.000962266 0)
(3.74624e-08 -0.000961816 0)
(-3.54775e-08 -0.000961822 0)
(-1.96941e-08 -0.000962299 0)
(-2.94771e-09 -0.000962647 0)
(1.91653e-08 -0.000962266 0)
(4.11528e-08 -0.000961816 0)
(-3.9331e-08 -0.000961821 0)
(-3.25314e-08 -0.000962299 0)
(-2.15271e-09 -0.000962648 0)
(3.16588e-08 -0.000962267 0)
(4.40665e-08 -0.000961815 0)
(-4.23467e-08 -0.00096182 0)
(-4.35712e-08 -0.000962299 0)
(-1.44226e-09 -0.000962649 0)
(4.23613e-08 -0.000962267 0)
(4.6225e-08 -0.000961814 0)
(-4.45506e-08 -0.000961819 0)
(-5.28589e-08 -0.0009623 0)
(-8.14049e-10 -0.00096265 0)
(5.13184e-08 -0.000962268 0)
(4.76515e-08 -0.000961813 0)
(-4.59707e-08 -0.000961818 0)
(-6.0444e-08 -0.0009623 0)
(-2.65565e-10 -0.000962651 0)
(5.858e-08 -0.000962268 0)
(4.83713e-08 -0.000961812 0)
(-4.66371e-08 -0.000961816 0)
(-6.63798e-08 -0.000962301 0)
(2.05868e-10 -0.000962653 0)
(6.41997e-08 -0.000962269 0)
(4.84117e-08 -0.00096181 0)
(-4.65816e-08 -0.000961815 0)
(-7.07236e-08 -0.000962302 0)
(6.03094e-10 -0.000962654 0)
(6.82352e-08 -0.00096227 0)
(4.78017e-08 -0.000961809 0)
(-4.58379e-08 -0.000961814 0)
(-7.35365e-08 -0.000962302 0)
(9.2912e-10 -0.000962656 0)
(7.07481e-08 -0.00096227 0)
(4.65721e-08 -0.000961807 0)
(-4.44414e-08 -0.000961812 0)
(-7.48831e-08 -0.000962303 0)
(1.18711e-09 -0.000962658 0)
(7.18035e-08 -0.000962271 0)
(4.47554e-08 -0.000961806 0)
(-4.24291e-08 -0.000961811 0)
(-7.48312e-08 -0.000962303 0)
(1.38036e-09 -0.00096266 0)
(7.14698e-08 -0.000962271 0)
(4.23856e-08 -0.000961805 0)
(-3.98395e-08 -0.000961809 0)
(-7.3452e-08 -0.000962304 0)
(1.5123e-09 -0.000962662 0)
(6.98188e-08 -0.000962272 0)
(3.94981e-08 -0.000961803 0)
(-3.67123e-08 -0.000961808 0)
(-7.08197e-08 -0.000962304 0)
(1.58651e-09 -0.000962663 0)
(6.69251e-08 -0.000962272 0)
(3.61297e-08 -0.000961802 0)
(-3.30884e-08 -0.000961806 0)
(-6.70109e-08 -0.000962305 0)
(1.60662e-09 -0.000962665 0)
(6.28662e-08 -0.000962273 0)
(3.23182e-08 -0.0009618 0)
(-2.90097e-08 -0.000961805 0)
(-6.21046e-08 -0.000962305 0)
(1.57639e-09 -0.000962667 0)
(5.77217e-08 -0.000962273 0)
(2.81024e-08 -0.000961799 0)
(-2.45189e-08 -0.000961804 0)
(-5.61819e-08 -0.000962306 0)
(1.49965e-09 -0.000962668 0)
(5.15732e-08 -0.000962273 0)
(2.35219e-08 -0.000961798 0)
(-1.96591e-08 -0.000961803 0)
(-4.93254e-08 -0.000962306 0)
(1.38025e-09 -0.00096267 0)
(4.45041e-08 -0.000962273 0)
(1.86168e-08 -0.000961797 0)
(-1.44739e-08 -0.000961802 0)
(-4.16189e-08 -0.000962306 0)
(1.2221e-09 -0.000962671 0)
(3.65986e-08 -0.000962274 0)
(1.34275e-08 -0.000961797 0)
(-9.0069e-09 -0.000961802 0)
(-3.31471e-08 -0.000962306 0)
(1.02912e-09 -0.000962672 0)
(2.79422e-08 -0.000962274 0)
(7.99454e-09 -0.000961796 0)
(-3.30151e-09 -0.000961801 0)
(-2.39949e-08 -0.000962306 0)
(8.05212e-10 -0.000962673 0)
(1.86202e-08 -0.000962274 0)
(2.35845e-09 -0.000961796 0)
(2.59916e-09 -0.000961801 0)
(-1.42471e-08 -0.000962306 0)
(5.54242e-10 -0.000962673 0)
(8.71806e-09 -0.000962274 0)
(-3.44072e-09 -0.000961795 0)
(8.65271e-09 -0.000961801 0)
(-3.98817e-09 -0.000962306 0)
(2.80021e-10 -0.000962673 0)
(-1.67954e-09 -0.000962274 0)
(-9.36353e-09 -0.000961795 0)
(1.48177e-08 -0.000961801 0)
(6.69885e-09 -0.000962306 0)
(-1.37185e-11 -0.000962673 0)
(-1.2489e-08 -0.000962274 0)
(-1.53714e-08 -0.000961796 0)
(2.10537e-08 -0.000961801 0)
(1.77323e-08 -0.000962306 0)
(-3.23353e-10 -0.000962673 0)
(-2.36285e-08 -0.000962273 0)
(-2.14268e-08 -0.000961796 0)
(2.73221e-08 -0.000961802 0)
(2.90326e-08 -0.000962306 0)
(-6.45385e-10 -0.000962672 0)
(-3.50183e-08 -0.000962273 0)
(-2.74937e-08 -0.000961797 0)
(3.35855e-08 -0.000961803 0)
(4.05227e-08 -0.000962305 0)
(-9.7647e-10 -0.000962671 0)
(-4.65811e-08 -0.000962273 0)
(-3.35376e-08 -0.000961798 0)
(3.98089e-08 -0.000961804 0)
(5.21285e-08 -0.000962305 0)
(-1.31344e-09 -0.000962669 0)
(-5.8243e-08 -0.000962272 0)
(-3.95258e-08 -0.000961799 0)
(4.59592e-08 -0.000961806 0)
(6.37794e-08 -0.000962304 0)
(-1.65331e-09 -0.000962668 0)
(-6.99335e-08 -0.000962271 0)
(-4.54279e-08 -0.000961801 0)
(5.20057e-08 -0.000961808 0)
(7.54087e-08 -0.000962303 0)
(-1.99332e-09 -0.000962665 0)
(-8.1586e-08 -0.000962271 0)
(-5.12154e-08 -0.000961803 0)
(5.79204e-08 -0.00096181 0)
(8.69537e-08 -0.000962302 0)
(-2.33094e-09 -0.000962663 0)
(-9.31384e-08 -0.00096227 0)
(-5.68627e-08 -0.000961805 0)
(6.3678e-08 -0.000961812 0)
(9.83566e-08 -0.000962301 0)
(-2.66387e-09 -0.00096266 0)
(-1.04533e-07 -0.000962269 0)
(-6.23464e-08 -0.000961807 0)
(6.9256e-08 -0.000961815 0)
(1.09564e-07 -0.0009623 0)
(-2.99008e-09 -0.000962657 0)
(-1.15718e-07 -0.000962268 0)
(-6.76462e-08 -0.00096181 0)
(7.46349e-08 -0.000961818 0)
(1.20528e-07 -0.000962299 0)
(-3.30781e-09 -0.000962653 0)
(-1.26646e-07 -0.000962267 0)
(-7.27445e-08 -0.000961813 0)
(7.97983e-08 -0.000961821 0)
(1.31206e-07 -0.000962298 0)
(-3.61554e-09 -0.000962649 0)
(-1.37274e-07 -0.000962266 0)
(-7.76265e-08 -0.000961817 0)
(8.47328e-08 -0.000961824 0)
(1.4156e-07 -0.000962296 0)
(-3.91205e-09 -0.000962644 0)
(-1.47567e-07 -0.000962265 0)
(-8.22806e-08 -0.00096182 0)
(8.94283e-08 -0.000961828 0)
(1.51558e-07 -0.000962295 0)
(-4.19637e-09 -0.000962639 0)
(-1.57492e-07 -0.000962263 0)
(-8.66978e-08 -0.000961824 0)
(9.38773e-08 -0.000961832 0)
(1.61174e-07 -0.000962293 0)
(-4.46778e-09 -0.000962634 0)
(-1.67026e-07 -0.000962262 0)
(-9.08724e-08 -0.000961828 0)
(9.80755e-08 -0.000961837 0)
(1.70384e-07 -0.000962292 0)
(-4.72584e-09 -0.000962629 0)
(-1.76146e-07 -0.00096226 0)
(-9.48011e-08 -0.000961833 0)
(1.02021e-07 -0.000961841 0)
(1.79173e-07 -0.00096229 0)
(-4.9703e-09 -0.000962623 0)
(-1.84838e-07 -0.000962259 0)
(-9.84833e-08 -0.000961837 0)
(1.05715e-07 -0.000961846 0)
(1.87527e-07 -0.000962288 0)
(-5.20114e-09 -0.000962616 0)
(-1.9309e-07 -0.000962257 0)
(-1.01921e-07 -0.000961842 0)
(1.09161e-07 -0.000961852 0)
(1.95439e-07 -0.000962286 0)
(-5.4185e-09 -0.000962609 0)
(-2.00896e-07 -0.000962255 0)
(-1.05118e-07 -0.000961848 0)
(1.12363e-07 -0.000961857 0)
(2.02903e-07 -0.000962284 0)
(-5.62269e-09 -0.000962602 0)
(-2.08253e-07 -0.000962254 0)
(-1.0808e-07 -0.000961853 0)
(1.15328e-07 -0.000961863 0)
(2.09918e-07 -0.000962282 0)
(-5.81412e-09 -0.000962595 0)
(-2.15159e-07 -0.000962252 0)
(-1.10815e-07 -0.000961859 0)
(1.18064e-07 -0.000961869 0)
(2.16483e-07 -0.00096228 0)
(-5.99326e-09 -0.000962587 0)
(-2.21618e-07 -0.00096225 0)
(-1.13331e-07 -0.000961865 0)
(1.20579e-07 -0.000961875 0)
(2.226e-07 -0.000962277 0)
(-6.16062e-09 -0.000962579 0)
(-2.27631e-07 -0.000962248 0)
(-1.15638e-07 -0.000961871 0)
(1.22883e-07 -0.000961881 0)
(2.28272e-07 -0.000962275 0)
(-6.31668e-09 -0.000962571 0)
(-2.33203e-07 -0.000962246 0)
(-1.17744e-07 -0.000961877 0)
(1.24983e-07 -0.000961888 0)
(2.33501e-07 -0.000962273 0)
(-6.46185e-09 -0.000962562 0)
(-2.38337e-07 -0.000962244 0)
(-1.19659e-07 -0.000961884 0)
(1.26888e-07 -0.000961894 0)
(2.38286e-07 -0.00096227 0)
(-6.5964e-09 -0.000962553 0)
(-2.43035e-07 -0.000962242 0)
(-1.21392e-07 -0.00096189 0)
(1.28602e-07 -0.000961901 0)
(2.42625e-07 -0.000962268 0)
(-6.72042e-09 -0.000962544 0)
(-2.47295e-07 -0.00096224 0)
(-1.22948e-07 -0.000961897 0)
(1.30131e-07 -0.000961908 0)
(2.46514e-07 -0.000962265 0)
(-6.83375e-09 -0.000962535 0)
(-2.51113e-07 -0.000962237 0)
(-1.24333e-07 -0.000961904 0)
(1.31476e-07 -0.000961916 0)
(2.49942e-07 -0.000962262 0)
(-6.93592e-09 -0.000962525 0)
(-2.5448e-07 -0.000962235 0)
(-1.2555e-07 -0.000961912 0)
(1.32633e-07 -0.000961923 0)
(2.52893e-07 -0.00096226 0)
(-7.02609e-09 -0.000962515 0)
(-2.5738e-07 -0.000962233 0)
(-1.26596e-07 -0.000961919 0)
(1.33598e-07 -0.000961931 0)
(2.55343e-07 -0.000962257 0)
(-7.10301e-09 -0.000962505 0)
(-2.59791e-07 -0.00096223 0)
(-1.27468e-07 -0.000961927 0)
(1.34362e-07 -0.000961939 0)
(2.57269e-07 -0.000962254 0)
(-7.1651e-09 -0.000962494 0)
(-2.61688e-07 -0.000962228 0)
(-1.2816e-07 -0.000961935 0)
(1.34924e-07 -0.000961948 0)
(2.58654e-07 -0.000962251 0)
(-7.21058e-09 -0.000962483 0)
(-2.63053e-07 -0.000962225 0)
(-1.28669e-07 -0.000961944 0)
(1.35268e-07 -0.000961955 0)
(2.5946e-07 -0.000962248 0)
(-7.23693e-09 -0.000962474 0)
(-2.6385e-07 -0.000962223 0)
(-1.28984e-07 -0.000961951 0)
)
;

boundaryField
{
    BotWall
    {
        type            fixedValue;
        value           uniform (0 0 0);
    }
    FreeStream
    {
        type            zeroGradient;
    }
    FrontNBack
    {
        type            empty;
    }
    LeftSide
    {
        type            symmetryPlane;
    }
    RightSide
    {
        type            symmetryPlane;
    }
}


// ************************************************************************* //
