/*--------------------------------*- C++ -*----------------------------------*\
| =========                 |                                                 |
| \\      /  F ield         | OpenFOAM: The Open Source CFD Toolbox           |
|  \\    /   O peration     | Version:  2.4.0                                 |
|   \\  /    A nd           | Web:      www.OpenFOAM.org                      |
|    \\/     M anipulation  |                                                 |
\*---------------------------------------------------------------------------*/
FoamFile
{
    version     2.0;
    format      ascii;
    class       volScalarField;
    location    "4.5";
    object      alpha1;
}
// * * * * * * * * * * * * * * * * * * * * * * * * * * * * * * * * * * * * * //

dimensions      [0 0 0 0 0 0 0];

internalField   nonuniform List<scalar> 
8000
(
1
1
1
1
1
0.999999
0.999997
0.999994
0.999993
0.999984
1
0.592616
7.49325e-08
1.72242e-07
1.22481e-07
1.08902e-07
8.80946e-08
6.0511e-08
3.84977e-08
2.6989e-08
2.07588e-08
1.66282e-08
1.33407e-08
1.05098e-08
8.07079e-09
6.03576e-09
4.40427e-09
3.14461e-09
2.20214e-09
1.51384e-09
1.02028e-09
6.72022e-10
4.30845e-10
2.67917e-10
1.61227e-10
9.37811e-11
5.26868e-11
2.85612e-11
1.4915e-11
7.48376e-12
3.59504e-12
1.64624e-12
7.15251e-13
2.93484e-13
1.13225e-13
4.08929e-14
1.37617e-14
4.29022e-15
1.22907e-15
3.20046e-16
1
1
1
1
1
0.999999
0.999996
0.999993
0.999991
0.999986
1
0.651799
7.56962e-08
1.82834e-07
1.28691e-07
1.12538e-07
8.82009e-08
5.87719e-08
3.72821e-08
2.69946e-08
2.14656e-08
1.76719e-08
1.45182e-08
1.16997e-08
9.18877e-09
7.02389e-09
5.23165e-09
3.80591e-09
2.71108e-09
1.89409e-09
1.29756e-09
8.696e-10
5.68184e-10
3.60802e-10
2.22209e-10
1.32565e-10
7.65226e-11
4.26739e-11
2.29359e-11
1.18418e-11
5.84914e-12
2.75166e-12
1.22751e-12
5.17204e-13
2.05117e-13
7.63217e-14
2.65515e-14
8.59672e-15
2.57293e-15
7.04682e-16
1
1
1
1
1
0.999998
0.999995
0.999991
0.99999
0.999988
1
0.552906
7.69517e-08
1.88073e-07
1.33335e-07
1.13705e-07
8.54872e-08
5.52431e-08
3.54081e-08
2.67609e-08
2.20541e-08
1.86648e-08
1.56969e-08
1.29331e-08
1.03794e-08
8.09926e-09
6.1482e-09
4.55017e-09
3.29319e-09
2.33704e-09
1.62755e-09
1.11057e-09
7.40307e-10
4.807e-10
3.03423e-10
1.85897e-10
1.10361e-10
6.33433e-11
3.50436e-11
1.86167e-11
9.45654e-12
4.57338e-12
2.09774e-12
9.09767e-13
3.72147e-13
1.43283e-13
5.18037e-14
1.75287e-14
5.51932e-15
1.60146e-15
1
1
1
1
0.999999
0.999998
0.999994
0.999989
0.999988
0.99999
0.999996
0.529429
7.87676e-08
1.95906e-07
1.37552e-07
1.13996e-07
8.24153e-08
5.20796e-08
3.40443e-08
2.68983e-08
2.29114e-08
1.99066e-08
1.71251e-08
1.44131e-08
1.18026e-08
9.38281e-09
7.24347e-09
5.44404e-09
3.99946e-09
2.88292e-09
2.04241e-09
1.4205e-09
9.67217e-10
6.42952e-10
4.16357e-10
2.62127e-10
1.60063e-10
9.45277e-11
5.38041e-11
2.94013e-11
1.53619e-11
7.64503e-12
3.61244e-12
1.61717e-12
6.8489e-13
2.74117e-13
1.03554e-13
3.68394e-14
1.22799e-14
3.79555e-15
1
1
1
1
0.999999
0.999997
0.999992
0.999987
0.999986
0.99999
0.999965
0.361621
8.09584e-08
1.87922e-07
1.47267e-07
1.12167e-07
7.80075e-08
4.87895e-08
3.30247e-08
2.73204e-08
2.39883e-08
2.13676e-08
1.87775e-08
1.61136e-08
1.34319e-08
1.08523e-08
8.50451e-09
6.48697e-09
4.84126e-09
3.55155e-09
2.56595e-09
1.82351e-09
1.27108e-09
8.66684e-10
5.76711e-10
3.73555e-10
2.3482e-10
1.42786e-10
8.36903e-11
4.71105e-11
2.53774e-11
1.30388e-11
6.3739e-12
2.96034e-12
1.30555e-12
5.46639e-13
2.17225e-13
8.17931e-14
2.9036e-14
9.60015e-15
1
1
1
1
0.999999
0.999996
0.99999
0.999984
0.999984
0.999977
0.999683
0.134231
1.63089e-07
1.91881e-07
1.4923e-07
1.07316e-07
7.20599e-08
4.55611e-08
3.25425e-08
2.81184e-08
2.53446e-08
2.30917e-08
2.06736e-08
1.80291e-08
1.52455e-08
1.2484e-08
9.91981e-09
7.68705e-09
5.84531e-09
4.38161e-09
3.24118e-09
2.36127e-09
1.68922e-09
1.18373e-09
8.10642e-10
5.40907e-10
3.50427e-10
2.19687e-10
1.32842e-10
7.72413e-11
4.30579e-11
2.29484e-11
1.16694e-11
5.65697e-12
2.61455e-12
1.15272e-12
4.84902e-13
1.94322e-13
7.37567e-14
2.61324e-14
1
1
1
1
0.999999
0.999994
0.999987
0.999982
0.999982
0.999982
0.838565
0.000161397
2.82364e-07
2.03199e-07
1.39565e-07
9.31114e-08
6.02928e-08
4.07889e-08
3.26223e-08
2.92776e-08
2.6961e-08
2.50191e-08
2.27039e-08
2.00128e-08
1.70889e-08
1.41498e-08
1.14117e-08
9.02276e-09
7.0356e-09
5.42489e-09
4.13165e-09
3.09839e-09
2.28151e-09
1.64667e-09
1.16273e-09
8.00779e-10
5.35829e-10
3.47256e-10
2.17381e-10
1.31134e-10
7.60581e-11
4.23133e-11
2.25326e-11
1.14792e-11
5.59738e-12
2.61483e-12
1.17065e-12
5.01219e-13
2.03797e-13
7.73937e-14
1
1
1
1
0.999998
0.999992
0.999984
0.99998
0.99998
0.999589
0.230875
5.38387e-07
3.00782e-07
1.84941e-07
1.12297e-07
7.05559e-08
4.70706e-08
3.75853e-08
3.40495e-08
3.11675e-08
2.90846e-08
2.72872e-08
2.4918e-08
2.20655e-08
1.89629e-08
1.58915e-08
1.30797e-08
1.06432e-08
8.5896e-09
6.86599e-09
5.41439e-09
4.19553e-09
3.18783e-09
2.37383e-09
1.73128e-09
1.23363e-09
8.55132e-10
5.74972e-10
3.74222e-10
2.35398e-10
1.42896e-10
8.35276e-11
4.68878e-11
2.5259e-11
1.30661e-11
6.49691e-12
3.10543e-12
1.42255e-12
6.19558e-13
2.52043e-13
1
1
1
1
0.999996
0.999989
0.999982
0.999982
0.999726
0.432067
2.78306e-06
4.69425e-07
2.34988e-07
1.29518e-07
7.22402e-08
5.06815e-08
4.33546e-08
4.05728e-08
3.74139e-08
3.41333e-08
3.19439e-08
3.00578e-08
2.74613e-08
2.43723e-08
2.11308e-08
1.80544e-08
1.53277e-08
1.29775e-08
1.09375e-08
9.12093e-09
7.48126e-09
6.01006e-09
4.72189e-09
3.63178e-09
2.7392e-09
2.02515e-09
1.45957e-09
1.02231e-09
6.94712e-10
4.57676e-10
2.92203e-10
1.8049e-10
1.07386e-10
6.14589e-11
3.38465e-11
1.79535e-11
9.17044e-12
4.49221e-12
2.09318e-12
9.11984e-13
1
1
1
0.999999
0.999992
0.999985
0.999983
0.99972
0.473073
5.27779e-05
4.40538e-07
1.37708e-07
1.1178e-07
8.33083e-08
5.9274e-08
5.13458e-08
5.00761e-08
4.81115e-08
4.33967e-08
3.85213e-08
3.57469e-08
3.36883e-08
3.08764e-08
2.76431e-08
2.44006e-08
2.14657e-08
1.89582e-08
1.68004e-08
1.48547e-08
1.29788e-08
1.11288e-08
9.31583e-09
7.594e-09
6.03685e-09
4.70491e-09
3.61895e-09
2.72231e-09
1.99367e-09
1.41877e-09
9.80848e-10
6.59926e-10
4.32495e-10
2.73807e-10
1.66983e-10
9.80675e-11
5.55111e-11
3.02873e-11
1.58455e-11
7.8892e-12
3.68352e-12
1
1
1
0.999995
0.99999
0.99999
0.998759
0.261528
0.00263062
7.93367e-06
5.34347e-06
1.23757e-07
1.03949e-07
8.46208e-08
6.52826e-08
6.36059e-08
6.57781e-08
6.40352e-08
5.54223e-08
4.55692e-08
4.10573e-08
3.92135e-08
3.65531e-08
3.33815e-08
3.01361e-08
2.72068e-08
2.48377e-08
2.28889e-08
2.12473e-08
1.9555e-08
1.77086e-08
1.56419e-08
1.33688e-08
1.10149e-08
8.79397e-09
7.04377e-09
5.55312e-09
4.26927e-09
3.1892e-09
2.3112e-09
1.63259e-09
1.13815e-09
7.6944e-10
5.0144e-10
3.1449e-10
1.89946e-10
1.1071e-10
6.18352e-11
3.2873e-11
1.64686e-11
1
1
1
0.999994
0.999986
0.999999
0.866757
0.0466789
0.0449989
0.0010091
0.000977958
3.75697e-05
1.68321e-05
1.4808e-07
1.5352e-07
1.15462e-07
1.07e-07
1.1418e-07
9.43957e-08
6.05231e-08
4.80781e-08
4.75276e-08
4.61731e-08
4.37257e-08
4.02981e-08
3.62668e-08
3.32354e-08
3.06285e-08
2.96797e-08
2.88729e-08
2.80987e-08
2.69855e-08
2.5048e-08
2.19698e-08
1.73216e-08
1.43361e-08
1.18986e-08
9.67178e-09
7.6395e-09
5.8032e-09
4.22705e-09
3.13929e-09
2.2795e-09
1.59712e-09
1.07459e-09
6.93467e-10
4.33123e-10
2.58976e-10
1.47104e-10
7.91367e-11
1
1
1
0.999998
0.999993
0.999989
0.999941
0.999306
1.00006
0.422617
0.114031
0.0140166
0.0125052
0.000710134
2.69656e-06
7.57589e-07
8.39588e-07
2.67762e-06
9.13081e-06
8.09066e-06
5.34107e-08
5.0767e-08
5.53386e-08
6.2086e-08
6.48379e-08
5.40997e-08
4.97499e-08
3.62818e-08
3.52611e-08
3.4523e-08
3.59845e-08
3.98065e-08
4.4519e-08
5.04912e-08
3.47794e-08
2.83818e-08
2.47694e-08
2.14819e-08
1.83722e-08
1.50635e-08
1.0592e-08
8.32965e-09
6.56007e-09
5.00903e-09
3.6659e-09
2.5363e-09
1.7124e-09
1.10679e-09
6.74463e-10
3.88458e-10
1
1
1
1
0.999998
0.999995
0.999993
0.999993
0.999998
1
1
0.999997
0.999687
0.918704
0.741339
0.384139
0.18088
0.0907762
0.0369727
0.0162687
0.00940183
0.00571617
0.00320572
0.00152397
0.000469452
9.21712e-05
7.86007e-05
1.76591e-05
3.75808e-06
2.61121e-06
2.05115e-06
1.47327e-06
7.03539e-07
1.759e-07
8.09789e-08
5.3107e-08
4.72754e-08
4.27203e-08
4.05928e-08
4.44828e-08
2.43913e-08
1.92819e-08
1.65555e-08
1.40592e-08
1.16252e-08
8.60696e-09
6.36876e-09
4.55196e-09
3.02062e-09
1.83057e-09
1
1
1
1
1
0.999999
0.999997
0.999996
0.999996
0.999996
0.999997
0.999998
0.999999
1
1
1
0.999999
1.00001
0.999624
0.999284
0.904493
0.717688
0.509986
0.309735
0.159075
0.0688521
0.0253193
0.0134636
0.00950609
0.00643839
0.00360762
0.00132891
0.000571873
0.000229127
7.90458e-05
3.29477e-05
2.00401e-05
1.26489e-05
5.60258e-06
2.03285e-07
5.74041e-08
3.55812e-08
3.19968e-08
2.9859e-08
3.23416e-08
2.46703e-08
2.01134e-08
1.66539e-08
1.27611e-08
7.65751e-09
1
1
1
1
1
1
1
0.999999
0.999999
0.999999
0.999998
0.999998
0.999998
0.999998
0.999998
0.999998
0.999999
0.999999
0.999999
1
1
1
1
0.999999
1
1.00001
0.999502
0.974233
0.849352
0.67294
0.393382
0.13874
0.0332702
0.0224831
0.0164071
0.00993523
0.00429197
0.00234579
0.00187338
0.000285436
5.91396e-05
1.65675e-05
9.7249e-06
2.86718e-06
8.44841e-08
5.54854e-08
4.52856e-08
4.65778e-08
5.2586e-08
2.60782e-08
1
1
1
1
0.999999
1
1
0.999999
0.999999
0.999999
0.999999
0.999999
0.999999
0.999998
0.999998
0.999998
0.999997
0.999996
0.999995
0.999994
0.999991
0.999989
0.999994
0.999989
0.999963
0.999979
0.999995
1
1
1
0.999999
1.00002
0.999554
0.993481
0.862925
0.588725
0.210203
0.0433032
0.0339883
0.0247273
0.0138225
0.00472825
0.00216893
0.00119888
0.000110126
3.2652e-05
9.50652e-06
2.83048e-06
2.56397e-07
6.93127e-08
1
1
1
0.999999
0.999999
0.999999
0.999999
0.999999
0.999999
0.999999
0.999999
0.999998
0.999998
0.999998
0.999998
0.999997
0.999996
0.999995
0.999992
0.999988
0.999981
0.999974
0.999961
0.999931
0.999906
0.999926
0.999972
0.999991
0.999994
0.999996
0.999991
0.999973
0.999899
0.999991
1
1
0.999995
0.992039
0.980841
0.851846
0.511668
0.147308
0.043325
0.0326714
0.0198903
0.00817641
0.0027509
0.00129074
0.000257533
4.20568e-05
1
1
1
0.999999
0.999999
0.999999
0.999999
0.999999
0.999998
0.999998
0.999998
0.999998
0.999998
0.999998
0.999998
0.999997
0.999995
0.999992
0.999989
0.999983
0.999972
0.999951
0.999912
0.999905
0.999913
0.99995
0.999977
0.999986
0.999982
0.999921
0.999679
0.999338
0.998763
0.999363
0.999792
0.999965
0.99999
0.999982
1
1
0.999999
0.99478
0.981156
0.92106
0.602751
0.185642
0.0801185
0.0433625
0.0186732
0.00765166
1
1
0.999999
0.999999
0.999998
0.999998
0.999998
0.999998
0.999998
0.999998
0.999998
0.999998
0.999998
0.999998
0.999997
0.999996
0.999994
0.999992
0.999992
0.999982
0.999971
0.999952
0.99992
0.999979
0.999994
0.999995
0.999996
0.999989
0.999943
0.999623
0.998697
0.99835
0.998519
0.999608
0.999904
0.999955
0.999943
0.999881
0.999936
0.999978
0.999996
1
1
1
0.999977
0.994928
0.961477
0.759025
0.371764
0.18362
7.47326e-17
1.54108e-17
2.74972e-18
4.07557e-19
4.63081e-20
3.6511e-21
2.35607e-22
1.32655e-23
6.9648e-25
1.81871e-26
2.17158e-28
6.68465e-31
7.50702e-36
1.40523e-42
7.56491e-44
4.06491e-45
2.20252e-46
1.23961e-47
1.04348e-48
4.60434e-49
4.85028e-49
5.5098e-49
6.26423e-49
7.09942e-49
8.01883e-49
9.02667e-49
1.01268e-48
1.13224e-48
1.26162e-48
1.40098e-48
1.55039e-48
1.7098e-48
1.87905e-48
2.0578e-48
2.24558e-48
2.44171e-48
2.64535e-48
2.85544e-48
3.07074e-48
3.28978e-48
3.5109e-48
3.73225e-48
3.95179e-48
4.16729e-48
4.37642e-48
4.5767e-48
4.76558e-48
4.94052e-48
5.09895e-48
5.23843e-48
1.74184e-16
3.8157e-17
7.2106e-18
1.1174e-18
1.29815e-19
1.02221e-20
6.88751e-22
4.04754e-23
2.212e-24
6.06642e-26
7.79532e-28
2.75959e-30
5.18531e-35
2.22957e-42
1.16011e-43
6.01882e-45
3.14357e-46
1.66733e-47
9.23305e-49
7.6286e-50
3.32133e-50
3.50391e-50
3.99257e-50
4.55386e-50
5.17805e-50
5.86839e-50
6.62877e-50
7.46287e-50
8.37402e-50
9.36512e-50
1.04385e-49
1.15958e-49
1.28377e-49
1.41642e-49
1.5574e-49
1.70646e-49
1.86321e-49
2.02712e-49
2.19748e-49
2.37345e-49
2.55399e-49
2.73789e-49
2.92378e-49
3.1101e-49
3.29514e-49
3.47704e-49
3.65384e-49
3.82345e-49
3.98374e-49
4.13257e-49
4.21591e-16
9.84215e-17
1.9686e-17
3.17917e-18
3.76037e-19
2.93428e-20
2.05834e-21
1.25754e-22
7.14573e-24
2.04954e-25
2.81523e-27
1.1341e-29
3.49763e-34
3.71531e-42
1.87097e-43
9.38319e-45
4.73297e-46
2.42061e-47
1.26362e-48
6.78378e-50
3.93005e-51
4.34614e-52
2.62362e-52
2.81736e-52
3.15507e-52
3.53533e-52
3.95474e-52
4.41595e-52
4.92212e-52
5.47652e-52
6.08248e-52
6.74336e-52
7.46251e-52
8.24317e-52
9.08845e-52
1.00012e-51
1.0984e-51
1.20389e-51
1.31674e-51
1.43705e-51
1.56482e-51
1.69995e-51
1.84223e-51
1.99131e-51
2.1467e-51
2.30773e-51
2.47355e-51
2.64313e-51
2.81522e-51
2.98838e-51
1.06769e-15
2.65635e-16
5.60827e-17
9.40669e-18
1.12976e-18
8.67522e-20
6.31256e-21
3.99147e-22
2.3545e-23
7.02892e-25
1.0245e-26
4.64247e-29
2.30032e-33
6.47515e-42
3.15545e-43
1.52917e-44
7.44439e-46
3.67118e-47
1.84662e-48
9.52861e-50
5.0693e-51
2.8093e-52
1.83796e-53
3.85257e-54
3.49199e-54
4.04565e-54
4.74125e-54
5.54088e-54
6.45201e-54
7.48532e-54
8.6518e-54
9.96239e-54
1.14277e-53
1.30575e-53
1.48608e-53
1.6845e-53
1.90156e-53
2.13759e-53
2.39262e-53
2.66637e-53
2.95819e-53
3.267e-53
3.59128e-53
3.92905e-53
4.27782e-53
4.63463e-53
4.99608e-53
5.3583e-53
5.71708e-53
6.06788e-53
2.88987e-15
7.65332e-16
1.70209e-16
2.96345e-17
3.62007e-18
2.72573e-19
2.05091e-20
1.33671e-21
8.1811e-23
2.53114e-24
3.8852e-26
1.95286e-28
1.50363e-32
1.25626e-41
5.94527e-43
2.79414e-44
1.31755e-45
6.28696e-47
3.0574e-48
1.52439e-49
7.83213e-51
4.16562e-52
2.31269e-53
1.46842e-54
2.45428e-55
1.94031e-55
2.14728e-55
2.42035e-55
2.71855e-55
3.03879e-55
3.38006e-55
3.74113e-55
4.12033e-55
4.51554e-55
4.92421e-55
5.34333e-55
5.76949e-55
6.19889e-55
6.6274e-55
7.05062e-55
7.46396e-55
7.86267e-55
8.24196e-55
8.59708e-55
8.92343e-55
9.21663e-55
9.47264e-55
9.68786e-55
9.85918e-55
9.98406e-55
8.41489e-15
2.36869e-15
5.54552e-16
1.00415e-16
1.25356e-17
9.239e-19
7.16784e-20
4.79711e-21
3.04594e-22
9.72851e-24
1.56134e-25
8.58221e-28
9.87339e-32
2.75837e-41
1.27247e-42
5.82211e-44
2.66976e-45
1.23762e-46
5.84215e-48
2.82549e-49
1.40749e-50
7.25484e-52
3.88524e-53
2.17421e-54
1.32637e-55
1.41537e-56
7.30159e-57
7.2579e-57
7.64897e-57
8.05909e-57
8.45475e-57
8.82917e-57
9.17783e-57
9.49666e-57
9.78187e-57
1.003e-56
1.02381e-56
1.04036e-56
1.05244e-56
1.05991e-56
1.06268e-56
1.06073e-56
1.05408e-56
1.04285e-56
1.02717e-56
1.00726e-56
9.83382e-57
9.55838e-57
9.24974e-57
8.91167e-57
2.66445e-14
7.97102e-15
1.96804e-15
3.72359e-16
4.78693e-17
3.45243e-18
2.75526e-19
1.88675e-20
1.2435e-21
4.08659e-23
6.81252e-25
4.03783e-27
6.62706e-31
7.0349e-41
3.17635e-42
1.42095e-43
6.36472e-45
2.87961e-46
1.32567e-47
6.24873e-49
3.03222e-50
1.52197e-51
7.93515e-53
4.31413e-54
2.45751e-55
1.48804e-56
1.06918e-57
1.81618e-58
1.16588e-58
1.09477e-58
1.06913e-58
1.04491e-58
1.01771e-58
9.87225e-59
9.53732e-59
9.1761e-59
8.7927e-59
8.39126e-59
7.97597e-59
7.55089e-59
7.11999e-59
6.68701e-59
6.25549e-59
5.82869e-59
5.40959e-59
5.00084e-59
4.6048e-59
4.22345e-59
3.85846e-59
3.51116e-59
9.28011e-14
2.9561e-14
7.72832e-15
1.53789e-15
2.05523e-16
1.45034e-17
1.18803e-18
8.29323e-20
5.67747e-21
1.91413e-22
3.29462e-24
2.07799e-26
4.62453e-30
2.11524e-40
9.3797e-42
4.11736e-43
1.80825e-44
8.01598e-46
3.61355e-47
1.66701e-48
7.91336e-50
3.88428e-51
1.98003e-52
1.05243e-53
5.85989e-55
3.44765e-56
2.19263e-57
1.59827e-58
1.5197e-59
2.48236e-60
9.64839e-61
6.90917e-61
5.96192e-61
5.34044e-61
4.8062e-61
4.31696e-61
3.86473e-61
3.44752e-61
3.06419e-61
2.71359e-61
2.39435e-61
2.10499e-61
1.84386e-61
1.60924e-61
1.39936e-61
1.21241e-61
1.04661e-61
9.00192e-62
7.71429e-62
6.58672e-62
3.59878e-13
1.22562e-13
3.41319e-14
7.19904e-15
1.01081e-15
6.97462e-17
5.85168e-18
4.14705e-19
2.95124e-20
1.01794e-21
1.7992e-23
1.19317e-25
3.41438e-29
7.58178e-40
3.31024e-41
1.42967e-42
6.17381e-44
2.68964e-45
1.19099e-46
5.39474e-48
2.51359e-49
1.21066e-50
6.05446e-52
3.15675e-53
1.72413e-54
9.95111e-56
6.20981e-57
4.43031e-58
3.9573e-59
4.68278e-60
7.00845e-61
1.21604e-61
2.37927e-62
5.86011e-63
2.29371e-63
1.42674e-63
1.09626e-63
8.92338e-64
7.34384e-64
6.04232e-64
4.95756e-64
4.05395e-64
3.30357e-64
2.68272e-64
2.17097e-64
1.75073e-64
1.40695e-64
1.12677e-64
8.99269e-65
7.15232e-65
1.56435e-12
5.73133e-13
1.713e-13
3.86155e-14
5.76351e-15
3.88197e-16
3.32922e-17
2.38442e-18
1.76528e-19
6.21313e-21
1.12222e-22
7.74318e-25
2.704e-28
3.24572e-39
1.3975e-40
5.94876e-42
2.53065e-43
1.08563e-44
4.7321e-46
2.10931e-47
9.66894e-49
4.58068e-50
2.25289e-51
1.15509e-52
6.20311e-54
3.51944e-55
2.15807e-56
1.51272e-57
1.32874e-58
1.54999e-59
2.29329e-60
3.90206e-61
7.09224e-62
1.32484e-62
2.49682e-63
4.70925e-64
8.93687e-65
1.78918e-65
4.44982e-66
1.75324e-66
1.05146e-66
7.5082e-67
5.60302e-67
4.21153e-67
3.16197e-67
2.36714e-67
1.76642e-67
1.31387e-67
9.7408e-68
7.19834e-68
7.57614e-12
3.01143e-12
9.74929e-13
2.36986e-13
3.81e-14
2.4989e-15
2.18729e-16
1.57564e-17
1.21478e-18
4.35316e-20
8.00202e-22
5.69452e-24
2.3117e-27
1.64489e-38
6.99102e-40
2.93614e-41
1.23192e-42
5.21076e-44
2.23891e-45
9.8355e-47
4.44257e-48
2.07362e-49
1.00471e-50
5.07445e-52
2.68414e-53
1.49939e-54
9.04327e-56
6.2252e-57
5.35957e-58
6.13265e-59
8.95796e-60
1.51558e-60
2.75162e-61
5.14689e-62
9.71952e-63
1.83116e-63
3.41148e-64
6.23694e-65
1.11153e-65
1.92142e-66
3.21984e-67
5.3115e-68
9.31413e-69
2.20216e-69
9.0122e-70
5.3903e-70
3.63305e-70
2.50788e-70
1.73498e-70
1.19793e-70
3.98063e-11
1.7369e-11
6.16446e-12
1.63191e-12
2.87203e-13
1.82981e-14
1.63408e-15
1.17875e-16
9.48176e-18
3.45457e-19
6.44375e-21
4.69781e-23
2.12399e-26
9.65639e-38
4.05455e-39
1.68167e-40
6.96601e-42
2.90836e-43
1.23326e-44
5.34602e-46
2.38256e-47
1.09719e-48
5.24473e-50
2.61326e-51
1.36354e-52
7.51009e-54
4.4606e-55
3.01711e-56
2.54237e-57
2.84372e-58
4.08722e-59
6.86111e-60
1.24276e-60
2.32653e-61
4.40623e-62
8.33848e-63
1.56242e-63
2.87602e-64
5.16465e-65
8.99449e-66
1.51214e-66
2.44644e-67
3.80288e-68
5.67857e-69
8.15866e-70
1.13869e-70
1.63081e-71
3.01745e-72
1.03707e-72
5.74131e-73
2.16452e-10
1.05425e-10
4.1722e-11
1.21686e-11
2.39419e-12
1.4792e-13
1.34979e-14
9.71665e-16
8.18216e-17
3.03035e-18
5.7272e-20
4.25807e-22
2.06636e-25
6.35836e-37
2.64083e-38
1.0831e-39
4.43541e-41
1.83041e-42
7.67106e-44
3.28622e-45
1.44727e-46
6.58592e-48
3.11087e-49
1.53166e-50
7.89661e-52
4.29543e-53
2.51656e-54
1.67535e-55
1.38216e-56
1.50899e-57
2.13013e-58
3.54385e-59
6.40108e-60
1.19923e-60
2.27812e-61
4.33174e-62
8.16707e-63
1.5146e-63
2.74335e-64
4.82436e-65
8.20006e-66
1.34334e-66
2.11869e-67
3.21788e-68
4.7085e-69
6.62609e-70
8.89846e-71
1.11826e-71
1.26454e-72
1.21496e-73
1.14912e-09
6.40049e-10
2.89774e-10
9.43407e-11
2.13481e-11
1.27813e-12
1.19594e-13
8.56986e-15
7.59322e-16
2.86168e-17
5.479e-19
4.142e-21
2.08627e-24
4.53612e-36
1.86702e-37
7.58598e-39
3.07698e-40
1.25755e-41
5.21883e-43
2.21376e-44
9.65356e-46
4.34966e-47
2.03436e-48
9.91787e-50
5.06282e-51
2.72562e-52
1.57879e-53
1.03753e-54
8.39619e-56
8.9498e-57
1.24032e-57
2.04503e-58
3.68535e-59
6.91515e-60
1.31891e-60
2.52255e-61
4.79131e-62
8.96348e-63
1.63972e-63
2.9156e-64
5.01672e-65
8.33162e-66
1.3348e-66
2.06542e-67
3.09297e-68
4.48525e-69
6.26964e-70
8.31517e-71
1.00746e-71
1.01985e-72
5.51713e-09
3.64397e-09
1.97052e-09
7.2596e-10
1.967e-10
1.14218e-11
1.10252e-12
7.85457e-14
7.37744e-15
2.83613e-16
5.50715e-18
4.2255e-20
2.13479e-23
3.38035e-35
1.38258e-36
5.58069e-38
2.24826e-39
9.12493e-41
3.76032e-42
1.58382e-43
6.85765e-45
3.06801e-46
1.42479e-47
6.89718e-49
3.49605e-50
1.86818e-51
1.07352e-52
6.99662e-54
5.57405e-55
5.8136e-56
7.9199e-57
1.29594e-57
2.33414e-58
4.39533e-59
8.43464e-60
1.62627e-60
3.11898e-61
5.89991e-62
1.09266e-62
1.96912e-63
3.43788e-64
5.80109e-65
9.46014e-66
1.4941e-66
2.29349e-67
3.43218e-68
5.00232e-69
7.02687e-70
9.24132e-71
1.06091e-71
2.16206e-08
1.78918e-08
1.259e-08
5.29681e-09
1.82684e-09
1.03177e-10
1.03678e-11
7.34558e-13
7.39187e-14
2.91001e-15
5.74328e-17
4.4632e-19
2.16628e-22
2.54691e-34
1.03934e-35
4.1845e-37
1.68112e-38
6.80322e-40
2.79515e-41
1.17371e-42
5.06631e-44
2.25964e-45
1.0462e-46
5.04921e-48
2.5518e-49
1.35917e-50
7.79077e-52
5.07267e-53
4.00166e-54
4.10231e-55
5.51312e-56
8.98357e-57
1.62313e-57
3.07919e-58
5.96886e-59
1.16485e-59
2.26499e-60
4.35016e-61
8.19023e-62
1.50221e-62
2.67229e-63
4.60039e-64
7.66699e-65
1.24072e-65
1.95948e-66
3.03673e-67
4.6312e-68
6.91862e-69
9.9327e-70
1.3043e-70
5.77745e-08
6.45481e-08
7.47399e-08
3.53075e-08
1.71912e-08
9.4851e-10
1.00428e-10
7.08945e-12
7.76092e-13
3.1456e-14
6.32557e-16
4.94721e-18
2.1486e-21
1.89902e-33
7.78032e-35
3.14409e-36
1.26762e-37
5.14755e-39
2.12211e-40
8.94123e-42
3.87274e-43
1.73335e-44
8.05403e-46
3.90132e-47
1.97933e-48
1.05795e-49
6.1182e-51
4.03056e-52
3.17964e-53
3.23249e-54
4.31988e-55
7.06427e-56
1.29049e-56
2.48629e-57
4.9084e-58
9.7762e-59
1.94354e-59
3.82238e-60
7.37935e-61
1.38958e-61
2.54095e-62
4.50269e-63
7.73855e-64
1.29488e-64
2.12335e-65
3.43942e-66
5.54051e-67
8.89224e-68
1.41065e-68
2.15416e-69
1.10935e-05
2.34946e-06
4.48635e-07
2.05981e-07
1.77454e-07
9.64241e-09
1.09593e-09
7.76143e-11
9.48864e-12
3.99482e-13
8.20027e-15
6.28698e-17
2.08031e-20
1.40772e-32
5.87467e-34
2.41886e-35
9.94015e-37
4.11614e-38
1.73127e-39
7.44652e-41
3.29465e-42
1.5074e-43
7.16467e-45
3.55324e-46
1.84761e-47
1.01017e-48
6.1688e-50
4.25579e-51
3.45814e-52
3.59273e-53
4.92266e-54
8.33536e-55
1.59031e-55
3.21878e-56
6.70514e-57
1.41463e-57
2.99002e-58
6.27485e-59
1.29739e-59
2.62652e-60
5.18493e-61
9.96601e-62
1.86838e-62
3.43449e-63
6.24414e-64
1.13533e-64
2.08862e-65
3.92577e-66
7.58675e-67
1.51177e-67
0.00302138
0.000996477
0.000283047
4.29339e-05
2.41254e-06
1.61144e-07
2.65028e-08
2.58509e-09
5.05348e-10
3.09772e-11
1.00318e-12
1.65666e-14
1.41308e-16
6.2233e-19
1.35927e-21
4.87309e-24
5.48031e-25
7.66409e-26
1.05e-26
1.42379e-27
1.92721e-28
2.62176e-29
3.60426e-30
5.02957e-31
7.1503e-32
1.03878e-32
1.54613e-33
2.36294e-34
3.71501e-35
6.01798e-36
1.0057e-36
1.73584e-37
3.09837e-38
5.73601e-39
1.11027e-39
2.28374e-40
5.21552e-41
1.54809e-41
5.70069e-42
2.39422e-42
1.04483e-42
4.65458e-43
2.09207e-43
9.48653e-44
4.28716e-44
1.96424e-44
9.0395e-45
4.18872e-45
1.9559e-45
9.03736e-46
0.0944086
0.0398483
0.0145108
0.00447813
0.00111048
0.000218962
3.55162e-05
3.93228e-06
1.50969e-07
8.10926e-08
1.58704e-08
8.60567e-10
2.87907e-11
4.90745e-13
4.26628e-15
2.34083e-17
3.12312e-18
1.87111e-18
1.04457e-18
5.46229e-19
2.71401e-19
1.29554e-19
5.99351e-20
2.70616e-20
1.19934e-20
5.24174e-21
2.26788e-21
9.74427e-22
4.16857e-22
1.77932e-22
7.59088e-23
3.24116e-23
1.38661e-23
5.94889e-24
2.56119e-24
1.10717e-24
4.80785e-25
2.09802e-25
9.203e-26
4.05907e-26
1.80054e-26
8.03435e-27
3.60703e-27
1.62956e-27
7.40918e-28
3.39078e-28
1.56203e-28
7.2437e-29
3.38153e-29
1.58906e-29
5.35664e-48
5.40962e-48
5.45573e-48
5.49464e-48
5.52601e-48
5.54947e-48
5.56472e-48
5.57145e-48
5.5694e-48
5.55834e-48
5.53809e-48
5.50849e-48
5.46945e-48
5.4209e-48
5.36286e-48
5.29538e-48
5.21857e-48
5.13259e-48
5.03767e-48
4.93409e-48
4.8222e-48
4.70239e-48
4.57513e-48
4.44092e-48
4.30032e-48
4.15393e-48
4.00241e-48
3.84644e-48
3.68673e-48
3.52404e-48
3.35913e-48
3.19276e-48
3.02573e-48
2.8588e-48
2.69274e-48
2.5283e-48
2.3662e-48
2.20713e-48
2.05174e-48
1.90064e-48
1.75436e-48
1.61341e-48
1.47822e-48
1.34915e-48
1.22652e-48
1.11054e-48
1.0014e-48
8.99177e-49
8.03918e-49
7.1559e-49
6.34104e-49
5.59319e-49
4.91043e-49
4.29039e-49
3.73036e-49
3.2273e-49
2.77792e-49
2.37876e-49
2.02624e-49
1.71672e-49
1.44656e-49
1.21216e-49
1.01003e-49
8.36785e-50
6.89233e-50
5.64353e-50
4.59339e-50
3.71601e-50
2.98777e-50
2.38731e-50
1.89554e-50
1.4955e-50
1.1723e-50
9.12979e-51
7.06362e-51
5.4289e-51
4.14467e-51
3.14296e-51
2.36722e-51
1.77079e-51
1.31556e-51
9.70619e-52
7.11166e-52
5.17444e-52
3.73866e-52
2.68238e-52
1.91103e-52
1.35194e-52
9.4969e-53
6.62435e-53
4.58821e-53
3.15561e-53
2.15512e-53
1.46155e-53
9.84284e-54
6.58271e-54
4.37201e-54
2.88382e-54
1.88923e-54
1.22929e-54
7.94518e-55
5.10108e-55
3.25358e-55
2.06175e-55
1.29816e-55
8.12231e-56
5.05051e-56
3.12137e-56
1.91762e-56
1.17124e-56
7.113e-57
4.29582e-57
2.58042e-57
1.54189e-57
9.16647e-58
5.42259e-58
3.19253e-58
1.87092e-58
1.09153e-58
6.3407e-59
3.66795e-59
2.11325e-59
1.21275e-59
6.93321e-60
3.94896e-60
2.24107e-60
1.26731e-60
7.14154e-61
4.01058e-61
2.24463e-61
1.25204e-61
6.96038e-62
3.85654e-62
2.12968e-62
1.17215e-62
6.43013e-63
3.51631e-63
1.91843e-63
1.04851e-63
5.85406e-64
3.62961e-64
3.17911e-64
4.86443e-64
1.06532e-63
2.59923e-63
6.45447e-63
1.59626e-62
3.91317e-62
9.49943e-62
2.28301e-61
5.43157e-61
1.27919e-60
2.98209e-60
6.88125e-60
1.57165e-59
3.55279e-59
7.94851e-59
1.75988e-58
3.85599e-58
8.36024e-58
1.79351e-57
3.80678e-57
7.99377e-57
1.66054e-56
3.41203e-56
6.93433e-56
1.39374e-55
2.77015e-55
5.44405e-55
1.05777e-54
2.03171e-54
3.85728e-54
7.23768e-54
1.34203e-53
2.45874e-53
4.45037e-53
7.9571e-53
1.40518e-52
2.45056e-52
4.21985e-52
7.17409e-52
1.20396e-51
1.99421e-51
3.25973e-51
5.25749e-51
8.36563e-51
1.31303e-50
2.03257e-50
3.10271e-50
4.66978e-50
6.92855e-50
1.01323e-49
1.46026e-49
2.07365e-49
2.90101e-49
3.99766e-49
5.42542e-49
7.25043e-49
9.5396e-49
1.23558e-48
1.57519e-48
1.97632e-48
2.44009e-48
2.96441e-48
3.54342e-48
4.16708e-48
4.82113e-48
5.48731e-48
6.14407e-48
6.76767e-48
7.33356e-48
7.81801e-48
8.19982e-48
8.46186e-48
8.59237e-48
8.5858e-48
8.4432e-48
8.17202e-48
7.78547e-48
7.30145e-48
6.7412e-48
6.12779e-48
5.48459e-48
4.83385e-48
4.19555e-48
3.58649e-48
3.01975e-48
2.50456e-48
2.04637e-48
1.64725e-48
1.3064e-48
1.02081e-48
7.85892e-49
5.96089e-49
4.45399e-49
3.27803e-49
2.37584e-49
1.69535e-49
1.19072e-49
8.22877e-50
5.5935e-50
3.73852e-50
2.45597e-50
1.5852e-50
1.00486e-50
6.2531e-51
3.81812e-51
2.28636e-51
1.34196e-51
7.71588e-52
4.34335e-52
2.39223e-52
1.28846e-52
6.78251e-53
3.48768e-53
1.75103e-53
8.57931e-54
4.10028e-54
1.91067e-54
8.67763e-55
3.83999e-55
1.65539e-55
6.95212e-56
2.84495e-56
1.13485e-56
4.41477e-57
1.67561e-57
6.20608e-58
2.24271e-58
7.90222e-59
2.71147e-59
9.04387e-60
2.92539e-60
9.15129e-61
2.75984e-61
7.9966e-62
2.21817e-62
5.86941e-63
1.47638e-63
3.51903e-64
7.92593e-65
1.68305e-65
3.36416e-66
6.32557e-67
1.11944e-67
1.86832e-68
2.95157e-69
4.43648e-70
6.38061e-71
8.81587e-72
1.16917e-72
1.4754e-73
1.74038e-74
1.87044e-75
1.77527e-76
1.43695e-77
9.54933e-79
4.96679e-80
1.92162e-81
4.39495e-83
4.26779e-49
4.33341e-49
4.39444e-49
4.45054e-49
4.50133e-49
4.54647e-49
4.5856e-49
4.61837e-49
4.64446e-49
4.66358e-49
4.67543e-49
4.67976e-49
4.67636e-49
4.66502e-49
4.64559e-49
4.61796e-49
4.58205e-49
4.53785e-49
4.48536e-49
4.42465e-49
4.35586e-49
4.27914e-49
4.19473e-49
4.1029e-49
4.00399e-49
3.89837e-49
3.78647e-49
3.66877e-49
3.54579e-49
3.4181e-49
3.28628e-49
3.15096e-49
3.01281e-49
2.87247e-49
2.73066e-49
2.58804e-49
2.44532e-49
2.30317e-49
2.16226e-49
2.02324e-49
1.88673e-49
1.7533e-49
1.62351e-49
1.49783e-49
1.37672e-49
1.26057e-49
1.1497e-49
1.04439e-49
9.44844e-50
8.51215e-50
7.6359e-50
6.81997e-50
6.0641e-50
5.36749e-50
4.72888e-50
4.14654e-50
3.61839e-50
3.14199e-50
2.71467e-50
2.33351e-50
1.99547e-50
1.69739e-50
1.4361e-50
1.20841e-50
1.01118e-50
8.41392e-51
6.96116e-51
5.7259e-51
4.68219e-51
3.80596e-51
3.07508e-51
2.46941e-51
1.97079e-51
1.56305e-51
1.23185e-51
9.64647e-52
7.50549e-52
5.80182e-52
4.45555e-52
3.39913e-52
2.57599e-52
1.93915e-52
1.44995e-52
1.07684e-52
7.94329e-53
5.81947e-53
4.23442e-53
3.06003e-53
2.1962e-53
1.56543e-53
1.10818e-53
7.79118e-54
5.44026e-54
3.77282e-54
2.59868e-54
1.77785e-54
1.20811e-54
8.1547e-55
5.4679e-55
3.64225e-55
2.41037e-55
1.58487e-55
1.03546e-55
6.72265e-56
4.33768e-56
2.78181e-56
1.77336e-56
1.12387e-56
7.08173e-57
4.4373e-57
2.7651e-57
1.71386e-57
1.05675e-57
6.48273e-58
3.95725e-58
2.40402e-58
1.45361e-58
8.74937e-59
5.24298e-59
3.12825e-59
1.85862e-59
1.09973e-59
6.48077e-60
3.804e-60
2.22412e-60
1.29539e-60
7.51594e-61
4.34434e-61
2.50168e-61
1.43519e-61
8.20288e-62
4.67091e-62
2.64989e-62
1.49799e-62
8.44465e-63
4.76512e-63
2.73964e-63
1.73138e-63
1.50777e-63
2.27212e-63
4.99522e-63
1.23866e-62
3.13769e-62
7.92357e-62
1.98406e-61
4.92046e-61
1.20825e-60
2.93746e-60
7.07029e-60
1.68476e-59
3.97429e-59
9.28082e-59
2.14538e-58
4.90901e-58
1.11183e-57
2.49239e-57
5.52978e-57
1.2142e-56
2.63839e-56
5.67322e-56
1.20707e-55
2.54109e-55
5.29251e-55
1.09049e-54
2.22264e-54
4.48089e-54
8.93445e-54
1.76173e-53
3.43507e-53
6.62234e-53
1.26218e-52
2.37801e-52
4.42834e-52
8.14987e-52
1.48214e-51
2.66321e-51
4.72761e-51
8.28977e-51
1.43566e-50
2.45532e-50
4.14627e-50
6.91256e-50
1.13761e-49
1.8478e-49
2.96189e-49
4.68456e-49
7.30956e-49
1.12505e-48
1.70782e-48
2.55644e-48
3.77299e-48
5.48936e-48
7.87182e-48
1.11244e-47
1.54901e-47
2.12493e-47
2.8713e-47
3.82115e-47
5.00761e-47
6.46148e-47
8.20819e-47
1.02643e-46
1.26341e-46
1.53057e-46
1.82487e-46
2.14123e-46
2.47251e-46
2.80964e-46
3.142e-46
3.45792e-46
3.74537e-46
3.99269e-46
4.18946e-46
4.32716e-46
4.39984e-46
4.40453e-46
4.34147e-46
4.21399e-46
4.02827e-46
3.79282e-46
3.51783e-46
3.21444e-46
2.89404e-46
2.56754e-46
2.24486e-46
1.93445e-46
1.64309e-46
1.37571e-46
1.1355e-46
9.23958e-47
7.41205e-47
5.86199e-47
4.5705e-47
3.51294e-47
2.66151e-47
1.98738e-47
1.46235e-47
1.06011e-47
7.5694e-48
5.32171e-48
3.68275e-48
2.50761e-48
1.67934e-48
1.10566e-48
7.15353e-49
4.54601e-49
2.83625e-49
1.73639e-49
1.04258e-49
6.13628e-50
3.53825e-50
1.99763e-50
1.10367e-50
5.96382e-51
3.15021e-51
1.62584e-51
8.19497e-52
4.03271e-52
1.93688e-52
9.07793e-53
4.15161e-53
1.85273e-53
8.06944e-54
3.43107e-54
1.42468e-54
5.779e-55
2.29051e-55
8.87063e-56
3.35547e-56
1.23867e-56
4.45607e-57
1.55918e-57
5.29344e-58
1.73885e-58
5.5101e-59
1.67904e-59
4.90441e-60
1.36886e-60
3.6394e-61
9.18974e-62
2.19783e-62
4.96715e-63
1.05914e-63
2.12946e-64
4.03986e-65
7.24787e-66
1.23441e-66
2.00589e-67
3.12576e-68
4.68426e-69
6.73455e-70
9.19496e-71
1.17048e-71
1.35445e-72
1.38265e-73
1.20409e-74
8.62033e-76
4.83623e-77
2.01214e-78
4.92559e-80
3.16097e-51
3.25331e-51
3.345e-51
3.43572e-51
3.52506e-51
3.61264e-51
3.69802e-51
3.78074e-51
3.86033e-51
3.93632e-51
4.0082e-51
4.07546e-51
4.1376e-51
4.1941e-51