/*--------------------------------*- C++ -*----------------------------------*\
| =========                 |                                                 |
| \\      /  F ield         | OpenFOAM: The Open Source CFD Toolbox           |
|  \\    /   O peration     | Version:  2.4.0                                 |
|   \\  /    A nd           | Web:      www.OpenFOAM.org                      |
|    \\/     M anipulation  |                                                 |
\*---------------------------------------------------------------------------*/
FoamFile
{
    version     2.0;
    format      ascii;
    class       volVectorField;
    location    "4.5";
    object      U;
}
// * * * * * * * * * * * * * * * * * * * * * * * * * * * * * * * * * * * * * //

dimensions      [0 1 -1 0 0 0 0];

internalField   nonuniform List<vector> 
8000
(
(2.7606e-08 -8.90949e-05 0)
(3.05296e-07 -0.000250631 0)
(9.2333e-07 -0.000395433 0)
(1.9282e-06 -0.000523399 0)
(3.29413e-06 -0.000634423 0)
(5.0099e-06 -0.000728377 0)
(7.31397e-06 -0.000805144 0)
(1.17762e-05 -0.000864462 0)
(2.10188e-05 -0.000905793 0)
(2.94815e-05 -0.000928339 0)
(3.37196e-06 -0.000933586 0)
(-0.00014468 -0.00092983 0)
(-0.000447469 -0.00095771 0)
(-0.00127026 -0.136575 0)
(-0.00178799 -0.246653 0)
(-0.00284282 -0.333525 0)
(-0.00408039 -0.399936 0)
(-0.0054389 -0.448947 0)
(-0.00690377 -0.483698 0)
(-0.00846717 -0.507254 0)
(-0.010113 -0.522442 0)
(-0.0118224 -0.531682 0)
(-0.0135773 -0.536907 0)
(-0.0153634 -0.53955 0)
(-0.01717 -0.540613 0)
(-0.0189898 -0.540755 0)
(-0.0208178 -0.540391 0)
(-0.0226503 -0.539761 0)
(-0.024484 -0.539 0)
(-0.0263165 -0.538169 0)
(-0.0281452 -0.537292 0)
(-0.0299681 -0.536372 0)
(-0.0317833 -0.535402 0)
(-0.0335894 -0.534372 0)
(-0.0353851 -0.533275 0)
(-0.0371693 -0.532105 0)
(-0.038941 -0.530857 0)
(-0.0406993 -0.52953 0)
(-0.0424434 -0.528121 0)
(-0.0441725 -0.526631 0)
(-0.0458857 -0.525059 0)
(-0.0475821 -0.523405 0)
(-0.0492611 -0.52167 0)
(-0.0509218 -0.519854 0)
(-0.0525633 -0.517956 0)
(-0.054185 -0.515978 0)
(-0.0557862 -0.513921 0)
(-0.057366 -0.511784 0)
(-0.0589238 -0.509568 0)
(-0.0604589 -0.507274 0)
(1.67133e-09 -9.23737e-05 0)
(2.5062e-07 -0.000261491 0)
(8.85603e-07 -0.00041504 0)
(1.96963e-06 -0.000553076 0)
(3.49215e-06 -0.000675679 0)
(5.42602e-06 -0.000782915 0)
(8.03938e-06 -0.000874891 0)
(1.2997e-05 -0.000951691 0)
(2.31776e-05 -0.00101348 0)
(3.29048e-05 -0.0010604 0)
(5.18989e-06 -0.00109268 0)
(-0.000148638 -0.00111395 0)
(-0.000445249 -0.00113716 0)
(-0.00110443 -0.12811 0)
(-0.000746574 -0.231836 0)
(-0.00135063 -0.313979 0)
(-0.00223805 -0.376652 0)
(-0.00335733 -0.42253 0)
(-0.00468502 -0.454597 0)
(-0.00619807 -0.475911 0)
(-0.00785782 -0.489328 0)
(-0.00962288 -0.497267 0)
(-0.0114575 -0.501595 0)
(-0.0133351 -0.503652 0)
(-0.0152381 -0.504347 0)
(-0.0171558 -0.504265 0)
(-0.0190816 -0.503775 0)
(-0.0210113 -0.503094 0)
(-0.0229417 -0.502339 0)
(-0.0248699 -0.501566 0)
(-0.0267936 -0.500792 0)
(-0.0287106 -0.500012 0)
(-0.0306191 -0.499212 0)
(-0.0325177 -0.498379 0)
(-0.0344055 -0.497499 0)
(-0.0362817 -0.496563 0)
(-0.0381456 -0.495565 0)
(-0.0399968 -0.494501 0)
(-0.0418346 -0.493371 0)
(-0.0436585 -0.492174 0)
(-0.045468 -0.49091 0)
(-0.0472626 -0.489578 0)
(-0.0490415 -0.488179 0)
(-0.0508042 -0.486713 0)
(-0.0525501 -0.485181 0)
(-0.0542786 -0.483583 0)
(-0.055989 -0.481919 0)
(-0.0576807 -0.48019 0)
(-0.0593532 -0.478395 0)
(-0.0610058 -0.476535 0)
(2.74572e-08 -9.28532e-05 0)
(1.5423e-07 -0.000263224 0)
(3.87386e-07 -0.000418287 0)
(7.15149e-07 -0.000558071 0)
(1.08178e-06 -0.000682614 0)
(1.40721e-06 -0.000791942 0)
(1.87856e-06 -0.000886108 0)
(3.81131e-06 -0.000965138 0)
(9.4662e-06 -0.00102913 0)
(1.32115e-05 -0.00107818 0)
(-1.51106e-05 -0.00111241 0)
(-0.000157953 -0.00113679 0)
(-0.000458217 -0.00116437 0)
(-0.00121156 -0.127463 0)
(-0.00128736 -0.229174 0)
(-0.00202554 -0.308736 0)
(-0.00300322 -0.368737 0)
(-0.00418617 -0.412047 0)
(-0.0055693 -0.441813 0)
(-0.00713194 -0.461253 0)
(-0.00883152 -0.473301 0)
(-0.0106231 -0.480341 0)
(-0.0124708 -0.484135 0)
(-0.0143507 -0.485899 0)
(-0.016249 -0.486443 0)
(-0.0181583 -0.486288 0)
(-0.020075 -0.485766 0)
(-0.0219965 -0.485081 0)
(-0.0239206 -0.484346 0)
(-0.0258449 -0.483614 0)
(-0.0277671 -0.482901 0)
(-0.029685 -0.482199 0)
(-0.0315966 -0.481492 0)
(-0.0335004 -0.480761 0)
(-0.0353951 -0.479989 0)
(-0.0372798 -0.479167 0)
(-0.0391537 -0.478286 0)
(-0.0410163 -0.477344 0)
(-0.042867 -0.476337 0)
(-0.0447053 -0.475267 0)
(-0.0465305 -0.474132 0)
(-0.0483422 -0.472934 0)
(-0.0501398 -0.471673 0)
(-0.0519226 -0.470349 0)
(-0.0536901 -0.468963 0)
(-0.0554418 -0.467514 0)
(-0.057177 -0.466003 0)
(-0.0588952 -0.464431 0)
(-0.0605959 -0.462798 0)
(-0.0622785 -0.461104 0)
(-2.19255e-08 -9.33569e-05 0)
(-1.20231e-07 -0.000264575 0)
(-3.01248e-07 -0.00042034 0)
(-5.75204e-07 -0.000560691 0)
(-9.98183e-07 -0.000685677 0)
(-1.66054e-06 -0.000795333 0)
(-2.37564e-06 -0.000889715 0)
(-1.91348e-06 -0.000968856 0)
(1.80677e-06 -0.00103285 0)
(3.11061e-06 -0.00108183 0)
(-2.62812e-05 -0.00111598 0)
(-0.000165221 -0.00114052 0)
(-0.00046229 -0.00116817 0)
(-0.00118065 -0.121636 0)
(-0.00107245 -0.219484 0)
(-0.00169104 -0.29617 0)
(-0.00258479 -0.353439 0)
(-0.00375819 -0.393964 0)
(-0.00519881 -0.421142 0)
(-0.0068599 -0.438487 0)
(-0.00867412 -0.449043 0)
(-0.0105818 -0.455125 0)
(-0.0125413 -0.458344 0)
(-0.0145286 -0.459765 0)
(-0.0165318 -0.460086 0)
(-0.018546 -0.45977 0)
(-0.0205692 -0.459121 0)
(-0.0226002 -0.458337 0)
(-0.0246375 -0.457533 0)
(-0.0266787 -0.456767 0)
(-0.0287212 -0.456055 0)
(-0.0307623 -0.455387 0)
(-0.0327996 -0.454741 0)
(-0.0348309 -0.454094 0)
(-0.0368544 -0.453426 0)
(-0.038869 -0.45272 0)
(-0.0408737 -0.451967 0)
(-0.0428678 -0.451163 0)
(-0.0448506 -0.450303 0)
(-0.0468215 -0.449389 0)
(-0.0487801 -0.44842 0)
(-0.0507257 -0.447397 0)
(-0.0526577 -0.44632 0)
(-0.0545756 -0.445189 0)
(-0.0564788 -0.444005 0)
(-0.0583666 -0.442768 0)
(-0.0602386 -0.441478 0)
(-0.0620941 -0.440135 0)
(-0.0639325 -0.43874 0)
(-0.0657534 -0.437293 0)
(1.04389e-09 -9.21117e-05 0)
(-1.37532e-07 -0.000260703 0)
(-5.34612e-07 -0.000413707 0)
(-1.27457e-06 -0.000551165 0)
(-2.45092e-06 -0.000673143 0)
(-4.18928e-06 -0.000779689 0)
(-6.30622e-06 -0.000870881 0)
(-7.88689e-06 -0.000946745 0)
(-7.78461e-06 -0.00100738 0)
(-1.26058e-05 -0.00105306 0)
(-4.3244e-05 -0.00108472 0)
(-0.000163233 -0.00111209 0)
(-0.000476139 -0.00115075 0)
(-0.00113299 -0.12022 0)
(-0.000534321 -0.216087 0)
(-0.000863417 -0.289616 0)
(-0.00163534 -0.342724 0)
(-0.00286328 -0.378926 0)
(-0.00446999 -0.402436 0)
(-0.00634366 -0.417142 0)
(-0.00837751 -0.426043 0)
(-0.0104951 -0.431197 0)
(-0.012651 -0.433932 0)
(-0.014823 -0.435097 0)
(-0.0170026 -0.435258 0)
(-0.0191879 -0.434814 0)
(-0.0213794 -0.434048 0)
(-0.0235778 -0.43316 0)
(-0.0257824 -0.432275 0)
(-0.0279917 -0.431457 0)
(-0.0302032 -0.430728 0)
(-0.0324138 -0.430078 0)
(-0.0346205 -0.429485 0)
(-0.0368205 -0.428917 0)
(-0.0390117 -0.428349 0)
(-0.0411922 -0.427759 0)
(-0.0433608 -0.427134 0)
(-0.0455166 -0.426465 0)
(-0.0476591 -0.42575 0)
(-0.0497875 -0.424986 0)
(-0.0519015 -0.424174 0)
(-0.0540007 -0.423314 0)
(-0.0560845 -0.422407 0)
(-0.0581525 -0.421453 0)
(-0.0602042 -0.420452 0)
(-0.0622391 -0.419405 0)
(-0.0642568 -0.418311 0)
(-0.0662568 -0.41717 0)
(-0.0682386 -0.415984 0)
(-0.0702018 -0.414752 0)
(-4.88973e-08 -9.15815e-05 0)
(-8.12943e-07 -0.000257271 0)
(-2.45338e-06 -0.000405664 0)
(-5.01705e-06 -0.00053692 0)
(-8.48315e-06 -0.00065115 0)
(-1.28298e-05 -0.000748446 0)
(-1.7374e-05 -0.000828808 0)
(-2.0843e-05 -0.000892133 0)
(-2.4034e-05 -0.000938151 0)
(-4.26423e-05 -0.000967354 0)
(-0.000103927 -0.000982743 0)
(-0.000223749 -0.00100417 0)
(-0.000570389 -0.00110068 0)
(0.00246237 -0.121349 0)
(0.00318505 -0.214725 0)
(0.00304862 -0.282212 0)
(0.00205023 -0.328247 0)
(0.000364264 -0.35828 0)
(-0.00178863 -0.377381 0)
(-0.00420344 -0.38943 0)
(-0.00673906 -0.396974 0)
(-0.00931321 -0.401566 0)
(-0.0118858 -0.404143 0)
(-0.0144417 -0.405311 0)
(-0.0169783 -0.405509 0)
(-0.0194989 -0.405082 0)
(-0.0220082 -0.404307 0)
(-0.0245103 -0.403394 0)
(-0.0270077 -0.402486 0)
(-0.0295011 -0.401664 0)
(-0.0319894 -0.400961 0)
(-0.0344705 -0.400375 0)
(-0.0369419 -0.399881 0)
(-0.0394005 -0.399447 0)
(-0.0418439 -0.399039 0)
(-0.0442699 -0.39863 0)
(-0.0466772 -0.398198 0)
(-0.0490647 -0.397733 0)
(-0.0514322 -0.397226 0)
(-0.0537793 -0.396675 0)
(-0.0561059 -0.39608 0)
(-0.058412 -0.395441 0)
(-0.0606976 -0.394758 0)
(-0.0629626 -0.394033 0)
(-0.0652068 -0.393266 0)
(-0.0674301 -0.392456 0)
(-0.0696323 -0.391605 0)
(-0.0718133 -0.390713 0)
(-0.0739728 -0.389779 0)
(-0.0761106 -0.388804 0)
(-2.99352e-07 -8.08623e-05 0)
(-2.61957e-06 -0.000227236 0)
(-7.08483e-06 -0.0003584 0)
(-1.35228e-05 -0.000474577 0)
(-2.18124e-05 -0.000575833 0)
(-3.13917e-05 -0.00066241 0)
(-4.01668e-05 -0.000734215 0)
(-4.45716e-05 -0.000791434 0)
(-5.14738e-05 -0.000834057 0)
(-0.000108989 -0.000863951 0)
(-0.000300057 -0.000885514 0)
(-0.000598309 -0.000903665 0)
(-0.000544932 -0.0517374 0)
(0.00488284 -0.151857 0)
(0.00590759 -0.225456 0)
(0.00523008 -0.275848 0)
(0.00343273 -0.309034 0)
(0.000932282 -0.330693 0)
(-0.00195733 -0.345106 0)
(-0.0050082 -0.354999 0)
(-0.00808861 -0.361872 0)
(-0.0111343 -0.366538 0)
(-0.0141211 -0.369492 0)
(-0.017045 -0.371106 0)
(-0.0199112 -0.371711 0)
(-0.0227289 -0.371613 0)
(-0.0255087 -0.371085 0)
(-0.0282602 -0.370352 0)
(-0.0309913 -0.369583 0)
(-0.0337071 -0.368885 0)
(-0.0364101 -0.368314 0)
(-0.0391007 -0.367882 0)
(-0.0417775 -0.367575 0)
(-0.0444379 -0.367361 0)
(-0.0470792 -0.367205 0)
(-0.0496987 -0.367071 0)
(-0.0522942 -0.366931 0)
(-0.0548643 -0.366764 0)
(-0.0574084 -0.366559 0)
(-0.0599262 -0.366309 0)
(-0.0624179 -0.366014 0)
(-0.0648839 -0.365671 0)
(-0.0673244 -0.365283 0)
(-0.0697399 -0.36485 0)
(-0.0721307 -0.364374 0)
(-0.074497 -0.363855 0)
(-0.076839 -0.363294 0)
(-0.0791569 -0.362692 0)
(-0.0814509 -0.362048 0)
(-0.0837209 -0.361365 0)
(-2.60772e-07 -6.16307e-05 0)
(-2.87607e-06 -0.000172932 0)
(-8.31044e-06 -0.000272527 0)
(-1.64426e-05 -0.00036062 0)
(-2.70717e-05 -0.000437505 0)
(-3.90495e-05 -0.000503229 0)
(-5.04114e-05 -0.000557965 0)
(-6.18181e-05 -0.000601818 0)
(-9.42594e-05 -0.00063666 0)
(-0.000187273 -0.00066526 0)
(-0.000360226 -0.000698663 0)
(-0.000700604 -0.000734594 0)
(0.00406379 -0.100019 0)
(0.0057872 -0.172008 0)
(0.00508737 -0.22076 0)
(0.00280724 -0.25312 0)
(-0.000361716 -0.275101 0)
(-0.00395348 -0.29096 0)
(-0.00768147 -0.303139 0)
(-0.0113842 -0.312789 0)
(-0.0149819 -0.320381 0)
(-0.0184446 -0.326132 0)
(-0.0217685 -0.330229 0)
(-0.0249626 -0.332908 0)
(-0.0280409 -0.33444 0)
(-0.0310197 -0.335102 0)
(-0.0339172 -0.335164 0)
(-0.0367522 -0.334868 0)
(-0.0395422 -0.334414 0)
(-0.0423013 -0.33395 0)
(-0.0450396 -0.333568 0)
(-0.0477632 -0.333316 0)
(-0.0504746 -0.333202 0)
(-0.053174 -0.333214 0)
(-0.0558591 -0.333321 0)
(-0.0585268 -0.333486 0)
(-0.0611737 -0.333673 0)
(-0.0637969 -0.333852 0)
(-0.0663945 -0.334 0)
(-0.0689654 -0.334106 0)
(-0.0715092 -0.334161 0)
(-0.0740262 -0.334163 0)
(-0.0765166 -0.334113 0)
(-0.0789812 -0.334011 0)
(-0.0814205 -0.333861 0)
(-0.0838351 -0.333662 0)
(-0.0862255 -0.333416 0)
(-0.0885923 -0.333126 0)
(-0.0909357 -0.332791 0)
(-0.0932561 -0.332413 0)
(-8.05866e-07 -4.5657e-05 0)
(-9.5233e-06 -0.000123508 0)
(-2.68712e-05 -0.000189252 0)
(-5.21285e-05 -0.00024414 0)
(-8.32256e-05 -0.000289005 0)
(-0.00011734 -0.000324529 0)
(-0.000153137 -0.000351155 0)
(-0.000207763 -0.000370899 0)
(-0.000321371 -0.000387253 0)
(-0.000532542 -0.00040593 0)
(-0.000873912 -0.000426121 0)
(0.000892076 -0.0716041 0)
(0.0028018 -0.124103 0)
(0.000988951 -0.161015 0)
(-0.00249002 -0.187435 0)
(-0.00675121 -0.20762 0)
(-0.0113325 -0.224273 0)
(-0.0159657 -0.238809 0)
(-0.020498 -0.251801 0)
(-0.0248429 -0.263317 0)
(-0.0289542 -0.273195 0)
(-0.0328156 -0.281297 0)
(-0.0364315 -0.28763 0)
(-0.0398185 -0.292344 0)
(-0.0429982 -0.29567 0)
(-0.0459932 -0.297861 0)
(-0.0488283 -0.299159 0)
(-0.0515315 -0.299798 0)
(-0.0541348 -0.300004 0)
(-0.0566688 -0.299977 0)
(-0.0591594 -0.299872 0)
(-0.0616261 -0.299793 0)
(-0.0640821 -0.299803 0)
(-0.0665355 -0.299932 0)
(-0.0689899 -0.300183 0)
(-0.0714449 -0.300537 0)
(-0.0738977 -0.30096 0)
(-0.076344 -0.301417 0)
(-0.0787797 -0.301872 0)
(-0.0812011 -0.3023 0)
(-0.0836058 -0.302684 0)
(-0.0859922 -0.303014 0)
(-0.0883598 -0.303286 0)
(-0.0907083 -0.303497 0)
(-0.093038 -0.30365 0)
(-0.0953496 -0.303746 0)
(-0.0976434 -0.303787 0)
(-0.09992 -0.303776 0)
(-0.10218 -0.303714 0)
(-0.104423 -0.303603 0)
(-2.14537e-06 6.41753e-05 0)
(-1.72914e-05 0.000178483 0)
(-4.56543e-05 0.000278631 0)
(-8.45264e-05 0.000364746 0)
(-0.000130095 0.00043665 0)
(-0.000180345 0.000493894 0)
(-0.000253016 0.00053111 0)
(-0.000390453 0.00054147 0)
(-0.000636213 0.000543926 0)
(-0.001015 0.000526251 0)
(-0.00156292 -0.0269951 0)
(-0.00105077 -0.0589724 0)
(-0.00447476 -0.0840452 0)
(-0.00913763 -0.105413 0)
(-0.0146116 -0.124585 0)
(-0.0204095 -0.142433 0)
(-0.0262703 -0.159449 0)
(-0.0319916 -0.175865 0)
(-0.0374527 -0.191666 0)
(-0.0426162 -0.206607 0)
(-0.047459 -0.220268 0)
(-0.0519537 -0.232229 0)
(-0.0560927 -0.242284 0)
(-0.0598797 -0.25046 0)
(-0.0633274 -0.256943 0)
(-0.0664563 -0.261967 0)
(-0.069289 -0.265725 0)
(-0.0718534 -0.268369 0)
(-0.0741882 -0.270074 0)
(-0.0763443 -0.271061 0)
(-0.0783741 -0.27156 0)
(-0.0803236 -0.271774 0)
(-0.0822282 -0.271854 0)
(-0.0841146 -0.271908 0)
(-0.0860034 -0.272012 0)
(-0.0879095 -0.272211 0)
(-0.0898415 -0.272517 0)
(-0.0918015 -0.272917 0)
(-0.0937868 -0.273382 0)
(-0.095792 -0.273877 0)
(-0.0978112 -0.274371 0)
(-0.0998391 -0.274839 0)
(-0.101872 -0.275264 0)
(-0.103907 -0.275635 0)
(-0.105942 -0.275945 0)
(-0.107976 -0.276195 0)
(-0.110009 -0.276386 0)
(-0.11204 -0.276518 0)
(-0.114069 -0.276596 0)
(-0.116097 -0.27662 0)
(-1.68811e-06 0.00014282 0)
(-1.90971e-05 0.000397658 0)
(-5.39225e-05 0.00062158 0)
(-0.000103462 0.000813913 0)
(-0.000174712 0.000974031 0)
(-0.000327541 0.00109874 0)
(-0.000644332 0.0011781 0)
(-0.00111185 0.00119537 0)
(-0.00165224 0.00113047 0)
(-0.00240733 0.000872928 0)
(-0.00257927 -0.019281 0)
(-0.00372876 -0.0223694 0)
(-0.00629929 -0.031236 0)
(-0.0107859 -0.0412986 0)
(-0.0172848 -0.0536697 0)
(-0.024896 -0.0682279 0)
(-0.0325714 -0.0851234 0)
(-0.039765 -0.104038 0)
(-0.0462813 -0.123519 0)
(-0.0523281 -0.142366 0)
(-0.05813 -0.160217 0)
(-0.0637274 -0.176692 0)
(-0.0690981 -0.19151 0)
(-0.0741469 -0.204527 0)
(-0.0787561 -0.215777 0)
(-0.0828798 -0.225412 0)
(-0.0865154 -0.233555 0)
(-0.0896965 -0.240234 0)
(-0.0924373 -0.245378 0)
(-0.094782 -0.249019 0)
(-0.0967952 -0.251374 0)
(-0.0985467 -0.252755 0)
(-0.100104 -0.253461 0)
(-0.101515 -0.253704 0)
(-0.102829 -0.253632 0)
(-0.104094 -0.253376 0)
(-0.105354 -0.253062 0)
(-0.106645 -0.252793 0)
(-0.107986 -0.252628 0)
(-0.109386 -0.252582 0)
(-0.110842 -0.252633 0)
(-0.112349 -0.252747 0)
(-0.113902 -0.252893 0)
(-0.115495 -0.25304 0)
(-0.117123 -0.253167 0)
(-0.11878 -0.253259 0)
(-0.120462 -0.253309 0)
(-0.122167 -0.253313 0)
(-0.123893 -0.25327 0)
(-0.125638 -0.253181 0)
(8.23771e-07 0.00029872 0)
(1.15949e-05 0.000894109 0)
(3.51147e-05 0.00149311 0)
(7.57716e-05 0.00210518 0)
(0.000119092 0.00273257 0)
(5.94801e-05 0.00339061 0)
(-0.000305316 0.00413668 0)
(-0.000972051 0.00592755 0)
(-0.00168066 0.000573299 0)
(-0.00140505 0.00672097 0)
(-0.00141298 -0.000519942 0)
(-0.00269338 0.00833614 0)
(-0.00160122 -0.0065511 0)
(-0.00754283 0.0381384 0)
(-0.00682484 0.0594317 0)
(-0.00889289 0.0574421 0)
(-0.0122384 0.03654 0)
(-0.0167754 0.00422284 0)
(-0.0220661 -0.0286814 0)
(-0.0276053 -0.0549216 0)
(-0.0336676 -0.0751175 0)
(-0.0406967 -0.0929209 0)
(-0.0484829 -0.110493 0)
(-0.0564958 -0.128574 0)
(-0.0641994 -0.146809 0)
(-0.0712327 -0.164091 0)
(-0.0775325 -0.179569 0)
(-0.0832717 -0.193448 0)
(-0.0885194 -0.205637 0)
(-0.0932557 -0.215764 0)
(-0.0974484 -0.223697 0)
(-0.101037 -0.229649 0)
(-0.10406 -0.234017 0)
(-0.10656 -0.237138 0)
(-0.108619 -0.239139 0)
(-0.110331 -0.240062 0)
(-0.11179 -0.24009 0)
(-0.113078 -0.239516 0)
(-0.114268 -0.238663 0)
(-0.11542 -0.237775 0)
(-0.116573 -0.236966 0)
(-0.117759 -0.236249 0)
(-0.118995 -0.235624 0)
(-0.120292 -0.235091 0)
(-0.121649 -0.234633 0)
(-0.123062 -0.234223 0)
(-0.124524 -0.233832 0)
(-0.126029 -0.233439 0)
(-0.127575 -0.23303 0)
(-0.129156 -0.232599 0)
(5.18367e-06 -3.15713e-05 0)
(4.70592e-05 -3.41525e-05 0)
(0.000129315 2.07375e-05 0)
(0.000250485 0.000134108 0)
(0.000414788 0.000300255 0)
(0.000618534 0.000525704 0)
(0.000843983 0.000811747 0)
(0.00101259 0.00120554 0)
(0.00100155 0.000523721 0)
(0.000902699 0.000256354 0)
(0.000812131 -0.000325482 0)
(0.000913473 0.000878246 0)
(0.00122931 0.00413898 0)
(0.00108002 0.0105359 0)
(0.00203298 0.00462695 0)
(0.00324005 0.0253071 0)
(0.000961936 0.0332854 0)
(0.00692991 0.0346258 0)
(0.000652406 0.0125496 0)
(-0.00384254 -0.00913091 0)
(-0.00290755 -0.00425428 0)
(-0.0057438 0.00616202 0)
(-0.0113334 0.00970949 0)
(-0.0172176 -0.000783268 0)
(-0.0240424 -0.0250599 0)
(-0.0308804 -0.0544423 0)
(-0.0383039 -0.0811455 0)
(-0.0456906 -0.102543 0)
(-0.053652 -0.120744 0)
(-0.0620333 -0.137964 0)
(-0.0703561 -0.154894 0)
(-0.078047 -0.171024 0)
(-0.0845814 -0.185336 0)
(-0.090153 -0.197294 0)
(-0.0950116 -0.206937 0)
(-0.0992385 -0.214162 0)
(-0.102943 -0.219128 0)
(-0.106109 -0.222119 0)
(-0.108673 -0.223578 0)
(-0.11071 -0.223935 0)
(-0.112371 -0.22356 0)
(-0.113827 -0.222653 0)
(-0.115179 -0.221372 0)
(-0.116492 -0.219986 0)
(-0.117809 -0.218659 0)
(-0.119158 -0.217443 0)
(-0.120554 -0.216321 0)
(-0.122002 -0.215269 0)
(-0.123504 -0.214266 0)
(-0.125057 -0.213294 0)
(-3.7062e-07 -0.000230939 0)
(9.12681e-06 -0.00064139 0)
(3.41128e-05 -0.00100409 0)
(7.66983e-05 -0.0013228 0)
(0.000138525 -0.00160068 0)
(0.00022152 -0.00184335 0)
(0.000326279 -0.00205326 0)
(0.000448792 -0.0022359 0)
(0.000575564 -0.00238612 0)
(0.00068505 -0.00248948 0)
(0.000776644 -0.00246043 0)
(0.000906223 -0.00225691 0)
(0.0011086 -0.00210391 0)
(0.00140394 -0.00202448 0)
(0.0019039 -0.00203021 0)
(0.00304232 -0.00197856 0)
(0.00537077 -0.00185639 0)
(0.00807508 -0.0010197 0)
(0.00991258 0.00428213 0)
(0.0100646 0.00795322 0)
(0.00921401 0.00896625 0)
(0.00874249 0.0147917 0)
(0.00845604 0.0213289 0)
(0.00786958 0.0282676 0)
(0.00689621 0.0346146 0)
(0.0067126 0.0310075 0)
(-0.000836945 -0.000138003 0)
(-0.00293354 -0.0143049 0)
(-0.00476211 -0.00911286 0)
(-0.0109751 -0.00525961 0)
(-0.0187747 -0.0162697 0)
(-0.0285924 -0.0429412 0)
(-0.0358255 -0.0763019 0)
(-0.0427246 -0.1052 0)
(-0.0507377 -0.125662 0)
(-0.0591471 -0.141113 0)
(-0.0674008 -0.154762 0)
(-0.0749999 -0.168392 0)
(-0.081501 -0.181336 0)
(-0.0867019 -0.191681 0)
(-0.0908867 -0.198049 0)
(-0.0943791 -0.20133 0)
(-0.0974062 -0.202402 0)
(-0.0999593 -0.20222 0)
(-0.102129 -0.201279 0)
(-0.104061 -0.199901 0)
(-0.105888 -0.198265 0)
(-0.107673 -0.196522 0)
(-0.109461 -0.194799 0)
(-0.111272 -0.193147 0)
(1.24284e-06 -0.000196816 0)
(7.77334e-06 -0.000573096 0)
(2.05856e-05 -0.000931398 0)
(3.93649e-05 -0.00127072 0)
(6.45375e-05 -0.00159094 0)
(9.57739e-05 -0.0018916 0)
(0.000133631 -0.00217374 0)
(0.000177251 -0.00243726 0)
(0.000227438 -0.00268363 0)
(0.000283846 -0.00291187 0)
(0.000349953 -0.00312237 0)
(0.000427566 -0.00331429 0)
(0.000519216 -0.00349596 0)
(0.000619413 -0.00367657 0)
(0.000722935 -0.00381436 0)
(0.000821946 -0.00385392 0)
(0.000913925 -0.00373606 0)
(0.0010193 -0.00337608 0)
(0.00122308 -0.0026799 0)
(0.00150505 -0.00221117 0)
(0.00186395 -0.00191384 0)
(0.00249852 -0.00163258 0)
(0.00354075 -0.00141769 0)
(0.00501415 -0.00124592 0)
(0.00691082 -0.0009745 0)
(0.00899285 0.000384585 0)
(0.0103484 0.00496154 0)
(0.00993958 0.00534872 0)
(0.0089621 0.0118264 0)
(0.00816212 0.0205911 0)
(0.00730451 0.0296509 0)
(0.0061605 0.0352596 0)
(0.00141907 0.0144454 0)
(-0.000948495 -0.0168624 0)
(-0.00167389 -0.0185921 0)
(-0.0096214 -0.0120068 0)
(-0.019409 -0.0120197 0)
(-0.0258289 -0.0324969 0)
(-0.0321903 -0.0677931 0)
(-0.0390501 -0.10487 0)
(-0.047287 -0.128709 0)
(-0.0548177 -0.141267 0)
(-0.0615268 -0.151603 0)
(-0.0672651 -0.16055 0)
(-0.0720186 -0.16702 0)
(-0.0759277 -0.170197 0)
(-0.0793345 -0.170979 0)
(-0.0823672 -0.170359 0)
(-0.085126 -0.169036 0)
(-0.0877164 -0.167368 0)
(5.87831e-07 -0.000290423 0)
(7.71799e-06 -0.000833249 0)
(2.21943e-05 -0.00133913 0)
(4.36691e-05 -0.00180888 0)
(7.12792e-05 -0.0022433 0)
(0.000104538 -0.00264287 0)
(0.000142661 -0.00300829 0)
(0.000185306 -0.00333979 0)
(0.000231604 -0.00363809 0)
(0.000281261 -0.00390305 0)
(0.000333353 -0.00413561 0)
(0.000387575 -0.00433532 0)
(0.00044277 -0.00450373 0)
(0.000498481 -0.00463969 0)
(0.00055397 -0.00474501 0)
(0.000610919 -0.004817 0)
(0.00067306 -0.00485893 0)
(0.000747827 -0.00486795 0)
(0.000842288 -0.00485482 0)
(0.000957938 -0.00483288 0)
(0.00108702 -0.00481967 0)
(0.00122321 -0.00475237 0)
(0.00135941 -0.00461084 0)
(0.00148927 -0.0043408 0)
(0.00161326 -0.00390753 0)
(0.00175888 -0.00322842 0)
(0.00194959 -0.00241197 0)
(0.00216312 -0.00181151 0)
(0.00260389 -0.00118832 0)
(0.00349462 -0.000575797 0)
(0.00477784 1.92191e-05 0)
(0.00644355 0.000929974 0)
(0.00829631 0.00404614 0)
(0.00841495 0.00243123 0)
(0.00708815 0.0114137 0)
(0.00582092 0.0194011 0)
(0.00480858 0.0228301 0)
(0.00286701 0.0114725 0)
(0.00195904 -0.00410397 0)
(0.00133196 -0.012052 0)
(-0.00532589 -0.0256373 0)
(-0.0145653 -0.0181733 0)
(-0.0195011 -0.0368165 0)
(-0.0245564 -0.0652778 0)
(-0.0311523 -0.0926366 0)
(-0.038186 -0.108866 0)
(-0.0440782 -0.11772 0)
(-0.0493165 -0.123729 0)
(-0.0538875 -0.127519 0)
(-0.0578566 -0.12917 0)
(2.59583e-07 -0.000301999 0)
(2.53722e-06 -0.000871256 0)
(7.24312e-06 -0.00140601 0)
(1.44161e-05 -0.00190655 0)
(2.39925e-05 -0.00237313 0)
(3.60473e-05 -0.00280602 0)
(5.05235e-05 -0.00320536 0)
(6.75542e-05 -0.00357135 0)
(8.70342e-05 -0.00390404 0)
(0.000109147 -0.00420359 0)
(0.000133728 -0.00446994 0)
(0.000161024 -0.00470322 0)
(0.000190794 -0.00490321 0)
(0.000223351 -0.00507002 0)
(0.000258379 -0.00520322 0)
(0.000296318 -0.00530293 0)
(0.000336803 -0.00536868 0)
(0.000380326 -0.00540091 0)
(0.000426179 -0.00539956 0)
(0.000474303 -0.00536555 0)
(0.000523243 -0.00529867 0)
(0.00057331 -0.00519872 0)
(0.000625012 -0.00506509 0)
(0.000681759 -0.00489721 0)
(0.00074792 -0.0046955 0)
(0.000830112 -0.00446095 0)
(0.000932663 -0.00420094 0)
(0.00105416 -0.00392604 0)
(0.00119094 -0.00362112 0)
(0.00133742 -0.00325027 0)
(0.00149217 -0.00279004 0)
(0.00165526 -0.00216459 0)
(0.00181189 -0.00134196 0)
(0.00194337 -0.000793708 0)
(0.00230517 -3.889e-05 0)
(0.00305603 0.000692803 0)
(0.00406475 0.0015345 0)
(0.00530062 0.00352776 0)
(0.00574398 0.00188524 0)
(0.00505072 0.0115042 0)
(0.00381369 0.0184896 0)
(0.00208651 0.0195562 0)
(0.00026285 0.00655302 0)
(-0.000214144 -0.00753588 0)
(-0.00104355 -0.0130202 0)
(-0.00961665 -0.0209978 0)
(-0.0130417 -0.0288868 0)
(-0.016978 -0.0458025 0)
(-0.0222542 -0.0619703 0)
(-0.0273203 -0.0737012 0)
(-4.88898e-08 -0.000318388 0)
(-5.40675e-07 -0.000918851 0)
(-1.37833e-06 -0.0014836 0)
(-2.40896e-06 -0.00201323 0)
(-3.40592e-06 -0.00250833 0)
(-4.18003e-06 -0.0029694 0)
(-4.49387e-06 -0.00339696 0)
(-4.16295e-06 -0.00379142 0)
(-2.92668e-06 -0.0041532 0)
(-5.94412e-07 -0.00448263 0)
(3.12121e-06 -0.00478006 0)
(8.42139e-06 -0.00504576 0)
(1.56218e-05 -0.00528 0)
(2.49416e-05 -0.00548299 0)
(3.67268e-05 -0.00565492 0)
(5.12256e-05 -0.00579594 0)
(6.88083e-05 -0.00590618 0)
(8.97512e-05 -0.00598571 0)
(0.000114417 -0.00603459 0)
(0.000143092 -0.00605281 0)
(0.000176094 -0.00604029 0)
(0.000213757 -0.00599691 0)
(0.000256396 -0.0059225 0)
(0.000304472 -0.00581687 0)
(0.000358281 -0.00568013 0)
(0.000418303 -0.00551267 0)
(0.000484498 -0.00531478 0)
(0.000557048 -0.00508658 0)
(0.00063572 -0.00482864 0)
(0.00072189 -0.00454008 0)
(0.00081746 -0.00422225 0)
(0.000926477 -0.00387391 0)
(0.00105191 -0.00350078 0)
(0.00119469 -0.00310593 0)
(0.00135312 -0.00268809 0)
(0.00152673 -0.0021987 0)
(0.0017104 -0.00163723 0)
(0.00188094 -0.00096311 0)
(0.00203286 -0.00057492 0)
(0.00239902 0.000218744 0)
(0.00310495 0.000914408 0)
(0.00405624 0.00177212 0)
(0.0051019 0.00185811 0)
(0.00511701 0.000601483 0)
(0.00442399 0.00854364 0)
(0.00309978 0.0105371 0)
(0.00171731 0.00513966 0)
(0.000650725 -0.000722155 0)
(-0.00086427 -0.00349122 0)
(-0.00416857 -0.0160362 0)
(-5.90089e-07 -0.000294044 0)
(-5.24331e-06 -0.000852026 0)
(-1.41273e-05 -0.00138026 0)
(-2.67636e-05 -0.00187915 0)
(-4.25765e-05 -0.00234911 0)
(-6.10613e-05 -0.00279049 0)
(-8.17754e-05 -0.00320365 0)
(-0.000104281 -0.00358891 0)
(-0.000128158 -0.00394659 0)
(-0.000152978 -0.00427696 0)
(-0.000178333 -0.00458034 0)
(-0.000203802 -0.00485694 0)
(-0.000228986 -0.00510707 0)
(-0.000253466 -0.00533089 0)
(-0.000276852 -0.00552871 0)
(-0.000298715 -0.00570062 0)
(-0.000318671 -0.00584697 0)
(-0.000336275 -0.00596774 0)
(-0.000351149 -0.00606336 0)
(-0.000362817 -0.00613364 0)
(-0.000370912 -0.00617916 0)
(-0.0003749 -0.00619951 0)
(-0.000374428 -0.00619547 0)
(-0.000368885 -0.00616618 0)
(-0.000357979 -0.00611281 0)
(-0.00034101 -0.00603429 0)
(-0.000317765 -0.00593232 0)
(-0.000287412 -0.00580479 0)
(-0.000249885 -0.00565416 0)
(-0.000204167 -0.00547717 0)
(-0.000150386 -0.00527757 0)
(-8.73509e-05 -0.00505041 0)
(-1.54395e-05 -0.00480373 0)
(6.67289e-05 -0.00453258 0)
(0.000158431 -0.00424132 0)
(0.000262299 -0.0039184 0)
(0.000378235 -0.00357803 0)
(0.000509281 -0.00320292 0)
(0.000653375 -0.00281617 0)
(0.000812865 -0.00237464 0)
(0.000983241 -0.00189195 0)
(0.00115139 -0.00131044 0)
(0.00132573 -0.000877211 0)
(0.00148623 -0.000452653 0)
(0.00174058 0.000370032 0)
(0.00225891 0.00120102 0)
(0.00291302 0.000146324 0)
(0.00312269 -0.000480593 0)
(0.00299931 -6.55412e-05 0)
(0.00261973 -0.00129417 0)
(-6.96491e-07 -0.000257831 0)
(-7.71366e-06 -0.000749771 0)
(-2.16833e-05 -0.00121825 0)
(-4.20698e-05 -0.00166355 0)
(-6.80974e-05 -0.00208595 0)
(-9.90847e-05 -0.00248565 0)
(-0.000134457 -0.00286287 0)
(-0.000173654 -0.00321783 0)
(-0.000216155 -0.00355071 0)
(-0.000261426 -0.00386173 0)
(-0.00030898 -0.0041511 0)
(-0.000358306 -0.00441901 0)
(-0.000408952 -0.00466565 0)
(-0.000460418 -0.00489123 0)
(-0.000512284 -0.00509592 0)
(-0.00056405 -0.00527995 0)
(-0.000615326 -0.00544345 0)
(-0.000665605 -0.00558669 0)
(-0.000714525 -0.00570976 0)
(-0.000761558 -0.00581298 0)
(-0.000806374 -0.00589638 0)
(-0.000848413 -0.00596036 0)
(-0.00088738 -0.00600495 0)
(-0.000922653 -0.00603044 0)
(-0.000953972 -0.00603673 0)
(-0.000980649 -0.00602464 0)
(-0.00100249 -0.00599404 0)
(-0.00101872 -0.00594568 0)
(-0.0010292 -0.00587924 0)
(-0.00103298 -0.00579577 0)
(-0.00102994 -0.0056947 0)
(-0.00101899 -0.00557559 0)
(-0.00100036 -0.00543872 0)
(-0.000973095 -0.00528797 0)
(-0.000937285 -0.0051203 0)
(-0.000891351 -0.0049375 0)
(-0.000835437 -0.00473804 0)
(-0.000767807 -0.00452426 0)
(-0.000688612 -0.00429494 0)
(-0.000595444 -0.00405212 0)
(-0.000488094 -0.00379397 0)
(-0.000364893 -0.00352333 0)
(-0.000226389 -0.00323864 0)
(-7.20433e-05 -0.00293752 0)
(0.000108677 -0.00257888 0)
(0.000318433 -0.00224176 0)
(0.000507605 -0.00223875 0)
(0.000649037 -0.00210715 0)
(0.00079177 -0.00204272 0)
(0.00095862 -0.00235777 0)
(-0.0619706 -0.504902 0)
(-0.0634583 -0.502454 0)
(-0.0649213 -0.499929 0)
(-0.0663591 -0.49733 0)
(-0.0677709 -0.494656 0)
(-0.0691562 -0.491908 0)
(-0.0705146 -0.489087 0)
(-0.0718453 -0.486194 0)
(-0.0731479 -0.483231 0)
(-0.0744219 -0.480197 0)
(-0.0756668 -0.477095 0)
(-0.0768822 -0.473923 0)
(-0.0780676 -0.470685 0)
(-0.0792226 -0.46738 0)
(-0.0803469 -0.46401 0)
(-0.08144 -0.460576 0)
(-0.0825017 -0.457078 0)
(-0.0835316 -0.453519 0)
(-0.0845295 -0.449898 0)
(-0.085495 -0.446217 0)
(-0.0864281 -0.442478 0)
(-0.0873283 -0.438683 0)
(-0.0881957 -0.434831 0)
(-0.08903 -0.430925 0)
(-0.0898311 -0.426967 0)
(-0.0905989 -0.422958 0)
(-0.0913334 -0.4189 0)
(-0.0920345 -0.414795 0)
(-0.0927023 -0.410645 0)
(-0.0933368 -0.406451 0)
(-0.0939382 -0.402216 0)
(-0.0945064 -0.397942 0)
(-0.0950418 -0.393631 0)
(-0.0955444 -0.389285 0)
(-0.0960146 -0.384907 0)
(-0.0964526 -0.380498 0)
(-0.0968587 -0.376062 0)
(-0.0972334 -0.371601 0)
(-0.0975769 -0.367118 0)
(-0.0978897 -0.362616 0)
(-0.0981723 -0.358097 0)
(-0.0984253 -0.353565 0)
(-0.0986493 -0.349023 0)
(-0.0988449 -0.344473 0)
(-0.0990128 -0.339921 0)
(-0.0991534 -0.335369 0)
(-0.0992675 -0.330821 0)
(-0.0993571 -0.326284 0)
(-0.0994255 -0.321762 0)
(-0.0994663 -0.317261 0)
(-0.0626378 -0.474612 0)
(-0.0642488 -0.472624 0)
(-0.0658381 -0.470573 0)
(-0.0674051 -0.46846 0)
(-0.0689492 -0.466284 0)
(-0.0704698 -0.464046 0)
(-0.0719663 -0.461748 0)
(-0.0734382 -0.459389 0)
(-0.074885 -0.45697 0)
(-0.076306 -0.454491 0)
(-0.0777008 -0.451954 0)
(-0.0790689 -0.449358 0)
(-0.0804096 -0.446704 0)
(-0.0817227 -0.443993 0)
(-0.0830075 -0.441226 0)
(-0.0842637 -0.438402 0)
(-0.0854907 -0.435522 0)
(-0.0866882 -0.432588 0)
(-0.0878558 -0.4296 0)
(-0.088993 -0.426558 0)
(-0.0900995 -0.423464 0)
(-0.091175 -0.420317 0)
(-0.092219 -0.41712 0)
(-0.0932314 -0.413874 0)
(-0.0942117 -0.410578 0)
(-0.0951598 -0.407235 0)
(-0.0960753 -0.403846 0)
(-0.0969581 -0.40041 0)
(-0.0978079 -0.396931 0)
(-0.0986247 -0.393409 0)
(-0.0994083 -0.389845 0)
(-0.100159 -0.386241 0)
(-0.100876 -0.382597 0)
(-0.101559 -0.378916 0)
(-0.102209 -0.375199 0)
(-0.102826 -0.371448 0)
(-0.10341 -0.367664 0)
(-0.10396 -0.363849 0)
(-0.104478 -0.360005 0)
(-0.104962 -0.356134 0)
(-0.105414 -0.352238 0)
(-0.105834 -0.348318 0)
(-0.106222 -0.344377 0)
(-0.106578 -0.340417 0)
(-0.106903 -0.33644 0)
(-0.107196 -0.33245 0)
(-0.10746 -0.328448 0)
(-0.107694 -0.32444 0)
(-0.107903 -0.320427 0)
(-0.108079 -0.316416 0)
(-0.0639424 -0.45935 0)
(-0.0655871 -0.457536 0)
(-0.0672121 -0.455663 0)
(-0.0688168 -0.453731 0)
(-0.0704007 -0.451742 0)
(-0.0719633 -0.449694 0)
(-0.0735042 -0.447589 0)
(-0.0750227 -0.445428 0)
(-0.0765185 -0.443211 0)
(-0.077991 -0.440938 0)
(-0.07944 -0.438609 0)
(-0.0808648 -0.436226 0)
(-0.0822651 -0.433789 0)