/*--------------------------------*- C++ -*----------------------------------*\
| =========                 |                                                 |
| \\      /  F ield         | OpenFOAM: The Open Source CFD Toolbox           |
|  \\    /   O peration     | Version:  2.4.0                                 |
|   \\  /    A nd           | Web:      www.OpenFOAM.org                      |
|    \\/     M anipulation  |                                                 |
\*---------------------------------------------------------------------------*/
FoamFile
{
    version     2.0;
    format      ascii;
    class       volScalarField;
    location    "0.006";
    object      p_rgh;
}
// * * * * * * * * * * * * * * * * * * * * * * * * * * * * * * * * * * * * * //

dimensions      [1 -1 -2 0 0 0 0];

internalField   nonuniform List<scalar> 
125
(
-0.0127087
-0.0126537
-0.0125985
-0.0125431
-0.0124875
-0.0124317
-0.0123757
-0.0123195
-0.0122631
-0.0122065
-0.0121497
-0.0120927
-0.0120354
-0.011978
-0.0119203
-0.0118624
-0.0118043
-0.011746
-0.0116875
-0.0116288
-0.0115699
-0.0115107
-0.0114513
-0.0113917
-0.0113319
-0.0112719
-0.0112116
-0.0111511
-0.0110904
-0.0110295
-0.0109684
-0.010907
-0.0108454
-0.0107836
-0.0107215
-0.0106592
-0.0105967
-0.010534
-0.010471
-0.0104078
-0.0103444
-0.0102807
-0.0102168
-0.0101527
-0.0100883
-0.0100237
-0.00995885
-0.00989376
-0.00982844
-0.00976288
-0.00969707
-0.00963103
-0.00956474
-0.0094982
-0.00943142
-0.0093644
-0.00929713
-0.00922961
-0.00916185
-0.00909383
-0.00902557
-0.00895705
-0.00888828
-0.00881926
-0.00874999
-0.00868046
-0.00861067
-0.00854063
-0.00847033
-0.00839977
-0.00832896
-0.00825788
-0.00818654
-0.00811493
-0.00804307
-0.00797094
-0.00789854
-0.00782588
-0.00775295
-0.00767975
-0.00760629
-0.00753255
-0.00745854
-0.00738426
-0.0073097
-0.00723488
-0.00715977
-0.00708439
-0.00700873
-0.0069328
-0.00685658
-0.00678008
-0.00670331
-0.00662625
-0.0065489
-0.00647127
-0.00639336
-0.00631516
-0.00623667
-0.00615789
-0.00607882
-0.00599946
-0.00591981
-0.00583987
-0.00575963
-0.00567909
-0.00559826
-0.00551713
-0.0054357
-0.00535398
-0.00527195
-0.00518962
-0.00510699
-0.00502405
-0.00494081
-0.00485726
-0.0047734
-0.00468923
-0.00460476
-0.00451997
-0.00443487
-0.00434947
-0.00426378
-0.00417769
-0.0040909
)
;

boundaryField
{
    BotWall
    {
        type            fixedFluxPressure;
        gradient        nonuniform 0();
        value           nonuniform 0();
    }
    FreeStream
    {
        type            totalPressure;
        rho             rho;
        psi             none;
        gamma           1;
        p0              uniform 0;
        value           uniform -0.00404731;
    }
    FrontNBack
    {
        type            empty;
    }
    LeftSide
    {
        type            symmetryPlane;
    }
    RightSide
    {
        type            symmetryPlane;
    }
    procBoundary0to1
    {
        type            processor;
        value           uniform -0.0127634;
    }
    procBoundary0to2
    {
        type            processor;
        value           nonuniform List<scalar> 
75
(
-0.00969943
-0.0096334
-0.00956712
-0.00950061
-0.00943385
-0.00936685
-0.00929961
-0.00923211
-0.00916437
-0.00909638
-0.00902814
-0.00895965
-0.00889091
-0.00882191
-0.00875267
-0.00868316
-0.0086134
-0.00854339
-0.00847312
-0.00840259
-0.0083318
-0.00826075
-0.00818943
-0.00811786
-0.00804602
-0.00797392
-0.00790156
-0.00782893
-0.00775603
-0.00768286
-0.00760943
-0.00753572
-0.00746174
-0.0073875
-0.00731297
-0.00723818
-0.00716311
-0.00708776
-0.00701214
-0.00693624
-0.00686006
-0.0067836
-0.00670686
-0.00662984
-0.00655253
-0.00647494
-0.00639707
-0.00631891
-0.00624046
-0.00616172
-0.00608269
-0.00600338
-0.00592377
-0.00584387
-0.00576367
-0.00568318
-0.0056024
-0.00552132
-0.00543994
-0.00535826
-0.00527628
-0.005194
-0.00511142
-0.00502853
-0.00494534
-0.00486185
-0.00477804
-0.00469393
-0.00460951
-0.00452478
-0.00443974
-0.0043544
-0.00426878
-0.00418276
-0.00409598
)
;
    }
    procBoundary0to3
    {
        type            processor;
        value           nonuniform List<scalar> 
50
(
-0.012711
-0.012656
-0.0126009
-0.0125455
-0.0124899
-0.0124341
-0.0123781
-0.0123219
-0.0122655
-0.0122089
-0.012152
-0.012095
-0.0120378
-0.0119803
-0.0119226
-0.0118648
-0.0118067
-0.0117484
-0.0116899
-0.0116311
-0.0115722
-0.011513
-0.0114536
-0.011394
-0.0113342
-0.0112742
-0.0112139
-0.0111535
-0.0110928
-0.0110318
-0.0109707
-0.0109093
-0.0108477
-0.0107859
-0.0107238
-0.0106616
-0.0105991
-0.0105363
-0.0104733
-0.0104101
-0.0103467
-0.0102831
-0.0102192
-0.010155
-0.0100906
-0.010026
-0.0099612
-0.00989612
-0.00983079
-0.00976523
)
;
    }
}


// ************************************************************************* //
