/*--------------------------------*- C++ -*----------------------------------*\
| =========                 |                                                 |
| \\      /  F ield         | OpenFOAM: The Open Source CFD Toolbox           |
|  \\    /   O peration     | Version:  2.4.0                                 |
|   \\  /    A nd           | Web:      www.OpenFOAM.org                      |
|    \\/     M anipulation  |                                                 |
\*---------------------------------------------------------------------------*/
FoamFile
{
    version     2.0;
    format      ascii;
    class       surfaceScalarField;
    location    "4.9";
    object      phi;
}
// * * * * * * * * * * * * * * * * * * * * * * * * * * * * * * * * * * * * * //

dimensions      [0 3 -1 0 0 0 0];

internalField   nonuniform List<scalar> 
15580
(
1.73592e-13
-1.77801e-12
7.07107e-13
-5.27211e-12
1.59984e-12
-8.69749e-12
2.84432e-12
-1.20505e-11
4.43272e-12
-1.53304e-11
6.35692e-12
-1.85367e-11
8.60853e-12
-2.16686e-11
1.1179e-11
-2.47255e-11
1.40595e-11
-2.7707e-11
1.72411e-11
-3.06123e-11
2.07151e-11
-3.34411e-11
2.44722e-11
-3.61929e-11
2.85035e-11
-3.88672e-11
3.27999e-11
-4.14636e-11
3.73526e-11
-4.39816e-11
4.21526e-11
-4.64208e-11
4.7191e-11
-4.87808e-11
5.24593e-11
-5.10612e-11
5.79489e-11
-5.32614e-11
6.36514e-11
-5.53812e-11
6.95586e-11
-5.74199e-11
7.56625e-11
-5.93771e-11
8.19553e-11
-6.12523e-11
8.84293e-11
-6.30447e-11
9.50771e-11
-6.47539e-11
1.01892e-10
-6.63792e-11
1.08866e-10
-6.79199e-11
1.15993e-10
-6.9375e-11
1.23266e-10
-7.07441e-11
1.30679e-10
-7.20258e-11
1.38225e-10
-7.32196e-11
1.45899e-10
-7.43241e-11
1.53693e-10
-7.53386e-11
1.61603e-10
-7.62614e-11
1.69621e-10
-7.70919e-11
1.77742e-10
-7.78278e-11
1.85958e-10
-7.84691e-11
1.94262e-10
-7.90123e-11
2.02647e-10
-7.94581e-11
2.11104e-10
-7.98018e-11
2.19627e-10
-8.00491e-11
2.28217e-10
-8.01987e-11
2.36664e-10
-8.00525e-11
2.44933e-10
-7.97761e-11
2.52898e-10
-7.94776e-11
2.57466e-10
-7.82981e-11
2.46405e-10
-7.70016e-11
2.50592e-10
-7.39407e-11
2.36899e-10
-5.47964e-11
1.0447e-11
1.60215e-10
2.16564e-13
-1.99457e-12
8.41825e-13
-5.89737e-12
1.8611e-12
-9.71677e-12
3.26423e-12
-1.34536e-11
5.04072e-12
-1.71069e-11
7.17991e-12
-2.06759e-11
9.67098e-12
-2.41597e-11
1.2503e-11
-2.75576e-11
1.56652e-11
-3.08691e-11
1.91467e-11
-3.40938e-11
2.29367e-11
-3.72312e-11
2.70247e-11
-4.02809e-11
3.14003e-11
-4.32428e-11
3.60534e-11
-4.61167e-11
4.09743e-11
-4.89024e-11
4.61534e-11
-5.15999e-11
5.15818e-11
-5.42092e-11
5.7251e-11
-5.67303e-11
6.31529e-11
-5.91633e-11
6.928e-11
-6.15083e-11
7.56257e-11
-6.37655e-11
8.21836e-11
-6.59351e-11
8.89485e-11
-6.80172e-11
9.59158e-11
-7.0012e-11
1.03082e-10
-7.192e-11
1.10444e-10
-7.37412e-11
1.18e-10
-7.5476e-11
1.2575e-10
-7.71247e-11
1.33693e-10
-7.86877e-11
1.41832e-10
-8.0165e-11
1.5017e-10
-8.15573e-11
1.58711e-10
-8.28645e-11
1.67459e-10
-8.40873e-11
1.76423e-10
-8.52254e-11
1.85611e-10
-8.62797e-11
1.95033e-10
-8.72495e-11
2.04699e-10
-8.81356e-11
2.14624e-10
-8.89376e-11
2.24825e-10
-8.96587e-11
2.35324e-10
-9.03009e-11
2.45884e-10
-9.06093e-11
2.56483e-10
-9.07973e-11
2.66862e-10
-9.11505e-11
2.69966e-10
-8.98236e-11
2.66144e-10
-8.84214e-11
2.72364e-10
-8.47115e-11
2.52141e-10
-5.67787e-11
2.29681e-10
-5.148e-11
2.69969e-10
-9.50845e-11
-3.81091e-11
3.18525e-10
2.37036e-13
-2.23161e-12
9.43408e-13
-6.60375e-12
2.10521e-12
-1.08786e-11
3.70424e-12
-1.50526e-11
5.7226e-12
-1.91253e-11
8.14272e-12
-2.3096e-11
1.09474e-11
-2.69643e-11
1.41198e-11
-3.073e-11
1.76435e-11
-3.43928e-11
2.15025e-11
-3.79528e-11
2.56813e-11
-4.141e-11
3.01648e-11
-4.47644e-11
3.49385e-11
-4.80165e-11
3.99882e-11
-5.11664e-11
4.53006e-11
-5.42148e-11
5.08626e-11
-5.7162e-11
5.66621e-11
-6.00087e-11
6.26873e-11
-6.27555e-11
6.89273e-11
-6.54034e-11
7.5372e-11
-6.7953e-11
8.20119e-11
-7.04054e-11
8.88385e-11
-7.27617e-11
9.58442e-11
-7.50229e-11
1.03023e-10
-7.71904e-11
1.10368e-10
-7.92656e-11
1.17877e-10
-8.12499e-11
1.25546e-10
-8.3145e-11
1.33374e-10
-8.49527e-11
1.41361e-10
-8.66749e-11
1.4951e-10
-8.83139e-11
1.57824e-10
-8.98717e-11
1.66311e-10
-9.13513e-11
1.74979e-10
-9.27548e-11
1.8384e-10
-9.40862e-11
1.92907e-10
-9.53474e-11
2.02202e-10
-9.65441e-11
2.11745e-10
-9.76789e-11
2.21567e-10
-9.8759e-11
2.31522e-10
-9.96134e-11
2.41614e-10
-1.00394e-10
2.51447e-10
-1.01577e-10
2.49137e-10
-1.00735e-10
2.51769e-10
-9.97475e-11
2.588e-10
-9.69555e-11
2.48547e-10
-7.81686e-11
2.64325e-10
-1.00489e-10
3.27002e-10
-1.19456e-10
3.69432e-10
-9.39098e-11
3.55173e-10
-8.08263e-11
-7.45803e-11
3.91645e-10
2.84227e-13
-2.51584e-12
1.09479e-12
-7.41431e-12
2.39868e-12
-1.21825e-11
4.16799e-12
-1.6822e-11
6.37611e-12
-2.13334e-11
8.99765e-12
-2.57175e-11
1.20083e-11
-2.9975e-11
1.53849e-11
-3.41066e-11
1.9105e-11
-3.8113e-11
2.31472e-11
-4.1995e-11
2.74908e-11
-4.57536e-11
3.2116e-11
-4.93895e-11
3.70032e-11
-5.29037e-11
4.21339e-11
-5.62972e-11
4.74899e-11
-5.95707e-11
5.30532e-11
-6.27254e-11
5.88067e-11
-6.57621e-11
6.47332e-11
-6.8682e-11
7.0816e-11
-7.14861e-11
7.70386e-11
-7.41756e-11
8.33847e-11
-7.67515e-11
8.98383e-11
-7.92152e-11
9.63831e-11
-8.15677e-11
1.03003e-10
-8.38107e-11
1.09683e-10
-8.59451e-11
1.16406e-10
-8.79729e-11
1.23156e-10
-8.98953e-11
1.29918e-10
-9.17144e-11
1.36674e-10
-9.34315e-11
1.4341e-10
-9.50494e-11
1.50107e-10
-9.65691e-11
1.5675e-10
-9.79945e-11
1.63322e-10
-9.93262e-11
1.69805e-10
-1.0057e-10
1.76183e-10
-1.01725e-10
1.82439e-10
-1.028e-10
1.88552e-10
-1.03792e-10
1.94501e-10
-1.04709e-10
2.00231e-10
-1.05939e-10
1.95084e-10
-1.05843e-10
1.94878e-10
-1.05659e-10
1.99329e-10
-1.05243e-10
2.01318e-10
-1.01737e-10
2.2028e-10
-1.15917e-10
2.53776e-10
-1.11664e-10
2.49737e-10
-9.64505e-11
2.32074e-10
-1.01793e-10
2.41617e-10
-1.03453e-10
2.51585e-10
-9.07947e-11
-7.50726e-11
2.52078e-10
2.36537e-13
-2.75237e-12
9.1687e-13
-8.09465e-12
2.01157e-12
-1.32772e-11
3.49209e-12
-1.83025e-11
5.33149e-12
-2.31728e-11
7.50428e-12
-2.78903e-11
9.98626e-12
-3.2457e-11
1.27543e-11
-3.68746e-11
1.57864e-11
-4.1145e-11
1.90611e-11
-4.52698e-11
2.2558e-11
-4.92505e-11
2.6257e-11
-5.30885e-11
3.01386e-11
-5.67853e-11
3.41836e-11
-6.03421e-11
3.8373e-11
-6.37601e-11
4.26879e-11
-6.70403e-11
4.71095e-11
-7.01837e-11
5.16188e-11
-7.31913e-11
5.61966e-11
-7.60639e-11
6.0823e-11
-7.88021e-11
6.54782e-11
-8.14067e-11
7.01413e-11
-8.38782e-11
7.47906e-11
-8.62171e-11
7.94035e-11
-8.84236e-11
8.39565e-11
-9.04981e-11
8.84242e-11
-9.24406e-11
9.278e-11
-9.42511e-11
9.69954e-11
-9.59298e-11
1.0104e-10
-9.74761e-11
1.04881e-10
-9.889e-11
1.08482e-10
-1.0017e-10
1.11805e-10
-1.01318e-10
1.14808e-10
-1.02329e-10
1.17445e-10
-1.03206e-10
1.19666e-10
-1.03946e-10
1.21413e-10
-1.04548e-10
1.22631e-10
-1.05009e-10
1.20187e-10
-1.05393e-10
1.1405e-10
-1.05576e-10
1.14058e-10
-1.05911e-10
1.15077e-10
-1.06678e-10
1.19637e-10
-1.09803e-10
1.24402e-10
-1.06502e-10
1.10708e-10
-1.02223e-10
1.03196e-10
-1.04152e-10
1.05666e-10
-9.89207e-11
9.30236e-11
-8.91502e-11
6.76856e-11
-7.81149e-11
4.15525e-11
-6.46616e-11
-4.90704e-11
1.55503e-11
1.2059e-13
-2.87296e-12
4.62054e-13
-8.43611e-12
1.00741e-12
-1.38225e-11
1.74155e-12
-1.90366e-11
2.64978e-12
-2.4081e-11
3.71776e-12
-2.89583e-11
4.93144e-12
-3.36707e-11
6.27702e-12
-3.82202e-11
7.7409e-12
-4.26089e-11
9.30963e-12
-4.68385e-11
1.09699e-11
-5.09107e-11
1.27084e-11
-5.4827e-11
1.45118e-11
-5.85888e-11
1.63669e-11
-6.21972e-11
1.82602e-11
-6.56534e-11
2.01783e-11
-6.89583e-11
2.21074e-11
-7.21128e-11
2.40335e-11
-7.51174e-11
2.59424e-11
-7.79728e-11
2.78194e-11
-8.06792e-11
2.96497e-11
-8.3237e-11
3.14178e-11
-8.56462e-11
3.31075e-11
-8.79068e-11
3.47023e-11
-9.00184e-11
3.6185e-11
-9.19807e-11
3.75372e-11
-9.37929e-11
3.87402e-11
-9.54542e-11
3.9774e-11
-9.69635e-11
4.06177e-11
-9.83197e-11
4.12488e-11
-9.95211e-11
4.16442e-11
-1.00566e-10
4.17784e-11
-1.01452e-10
4.16254e-11
-1.02176e-10
4.11562e-11
-1.02737e-10
4.03411e-11
-1.03131e-10
3.91465e-11
-1.03353e-10
3.23731e-11
-1.03472e-10
2.81233e-11
-1.03482e-10
2.60848e-11
-1.03538e-10
2.39561e-11
-1.03783e-10
2.11128e-11
-1.03835e-10
1.50439e-11
-1.03734e-10
1.29497e-11
-1.04408e-10
1.15602e-11
-1.00833e-10
4.50885e-12
-9.71007e-11
-1.72219e-12
-9.26897e-11
-5.63308e-12
-8.52393e-11
-1.0218e-11
-7.353e-11
-1.57423e-11
-5.91373e-11
-4.32575e-11
-2.15552e-11
-1.0645e-14
-2.86232e-12
-3.61632e-14
-8.41059e-12
-7.44734e-14
-1.37842e-11
-1.25978e-13
-1.89851e-11
-1.91797e-13
-2.40152e-11
-2.73676e-13
-2.88764e-11
-3.73967e-13
-3.35704e-11
-4.95537e-13
-3.80986e-11
-6.41745e-13
-4.24627e-11
-8.16382e-13
-4.66639e-11
-1.02364e-12
-5.07035e-11
-1.26806e-12
-5.45826e-11
-1.55452e-12
-5.83023e-11
-1.88815e-12
-6.18636e-11
-2.27436e-12
-6.52672e-11
-2.71874e-12
-6.8514e-11
-3.22708e-12
-7.16044e-11
-3.80531e-12
-7.45392e-11
-4.45944e-12
-7.73186e-11
-5.19554e-12
-7.99431e-11
-6.0197e-12
-8.24129e-11
-6.93798e-12
-8.4728e-11
-7.95634e-12
-8.68884e-11
-9.08056e-12
-8.88942e-11
-1.03163e-11
-9.0745e-11
-1.16687e-11
-9.24404e-11
-1.31427e-11
-9.39801e-11
-1.47428e-11
-9.53635e-11
-1.64728e-11
-9.65898e-11
-1.83358e-11
-9.76581e-11
-2.0334e-11
-9.85676e-11
-2.24688e-11
-9.9317e-11
-2.47404e-11
-9.99049e-11
-2.7148e-11
-1.0033e-10
-2.96877e-11
-1.00591e-10
-3.99189e-11
-1.00761e-10
-4.38501e-11
-1.00794e-10
-4.6544e-11
-1.00788e-10
-4.91753e-11
-1.00907e-10
-5.20196e-11
-1.00938e-10
-5.3553e-11
-1.02301e-10
-5.33674e-11
-1.0392e-10
-5.30511e-11
-1.04724e-10
-5.10827e-11
-1.02802e-10
-5.08947e-11
-9.72887e-11
-5.04962e-11
-9.30883e-11
-4.9624e-11
-8.61115e-11
-4.83659e-11
-7.4788e-11
-4.45292e-11
-6.29741e-11
-5.07278e-11
-3.70589e-11
-8.40145e-14
-2.7783e-12
-3.27521e-13
-8.16709e-12
-7.22242e-13
-1.33895e-11
-1.26059e-12
-1.84468e-11
-1.93596e-12
-2.33399e-11
-2.74267e-12
-2.80697e-11
-3.67586e-12
-3.26372e-11
-4.73143e-12
-3.70431e-11
-5.90593e-12
-4.12882e-11
-7.19654e-12
-4.53733e-11
-8.60097e-12
-4.9299e-11
-1.01174e-11
-5.30662e-11
-1.17445e-11
-5.66752e-11
-1.34812e-11
-6.01269e-11
-1.53269e-11
-6.34216e-11
-1.7281e-11
-6.65598e-11
-1.93434e-11
-6.95421e-11
-2.15139e-11
-7.23687e-11
-2.37924e-11
-7.50401e-11
-2.61789e-11
-7.75566e-11
-2.86733e-11
-7.99184e-11
-3.12754e-11
-8.21259e-11
-3.39848e-11
-8.4179e-11
-3.68009e-11
-8.60781e-11
-3.97226e-11
-8.78233e-11
-4.27485e-11
-8.94145e-11
-4.58766e-11
-9.0852e-11
-4.91044e-11
-9.21357e-11
-5.24287e-11
-9.32655e-11
-5.58452e-11
-9.42416e-11
-5.93491e-11
-9.50638e-11
-6.29339e-11
-9.57321e-11
-6.65918e-11
-9.62471e-11
-7.03114e-11
-9.66099e-11
-8.29701e-11
-9.68889e-11
-8.81106e-11
-9.70201e-11
-9.18215e-11
-9.7083e-11
-9.53412e-11
-9.72685e-11
-9.81515e-11
-9.80963e-11
-9.89274e-11
-1.00162e-10
-1.00093e-10
-1.01136e-10
-1.04284e-10
-9.97297e-11
-1.14062e-10
-9.49459e-11
-1.29755e-10
-8.71087e-11
-1.51546e-10
-7.54973e-11
-1.82639e-10
-6.19955e-11
-2.20805e-10
-4.79457e-11
-2.61714e-10
-3.38784e-11
-3.048e-10
-1.98882e-11
-6.58122e-12
-3.48947e-10
-1.12212e-13
-2.66609e-12
-4.37161e-13
-7.84214e-12
-9.65167e-13
-1.28615e-11
-1.6879e-12
-1.7724e-11
-2.59771e-12
-2.24301e-11
-3.6875e-12
-2.69799e-11
-4.95081e-12
-3.13739e-11
-6.38168e-12
-3.56122e-11
-7.97464e-12
-3.96952e-11
-9.72466e-12
-4.36232e-11
-1.16271e-11
-4.73966e-11
-1.36778e-11
-5.10155e-11
-1.58728e-11
-5.44802e-11
-1.82085e-11
-5.77912e-11
-2.06816e-11
-6.09485e-11
-2.32889e-11
-6.39525e-11
-2.60276e-11
-6.68034e-11
-2.88948e-11
-6.95015e-11
-3.1888e-11
-7.2047e-11
-3.50045e-11
-7.44401e-11
-3.82419e-11
-7.66811e-11
-4.15975e-11
-7.87702e-11
-4.5069e-11
-8.07076e-11
-4.86535e-11
-8.24936e-11
-5.23483e-11
-8.41284e-11
-5.61505e-11
-8.56123e-11
-6.0057e-11
-8.69455e-11
-6.40643e-11
-8.81284e-11
-6.81688e-11
-8.9161e-11
-7.23663e-11
-9.00441e-11
-7.66517e-11
-9.07784e-11
-8.10184e-11
-9.13654e-11
-8.54605e-11
-9.1805e-11
-9.84236e-11
-9.21705e-11
-1.0525e-10
-9.23989e-11
-1.09718e-10
-9.2552e-11
-1.14089e-10
-9.27123e-11
-1.18385e-10
-9.29726e-11
-1.23889e-10
-9.25918e-11
-1.35354e-10
-8.86969e-11
-1.57243e-10
-7.92473e-11
-1.92053e-10
-6.49196e-11
-2.39993e-10
-4.7006e-11
-3.00229e-10
-2.68723e-11
-3.70099e-10
-5.62807e-12
-4.47529e-10
1.5435e-11
-5.31111e-10
3.5636e-11
-6.19168e-10
5.41791e-11
-7.09873e-10
7.08167e-11
8.4947e-11
-8.01401e-10
-1.12359e-13
-2.55373e-12
-4.43504e-13
-7.51099e-12
-9.86845e-13
-1.23181e-11
-1.73566e-12
-1.69752e-11
-2.68357e-12
-2.14821e-11
-3.82451e-12
-2.5839e-11
-5.15278e-12
-3.00456e-11
-6.66295e-12
-3.4102e-11
-8.34995e-12
-3.80082e-11
-1.02089e-11
-4.17643e-11
-1.22354e-11
-4.53701e-11
-1.4425e-11
-4.88258e-11
-1.67738e-11
-5.21315e-11
-1.92779e-11
-5.5287e-11
-2.19338e-11
-5.82926e-11
-2.47381e-11
-6.11482e-11
-2.76877e-11
-6.38538e-11
-3.07796e-11
-6.64096e-11
-3.4011e-11
-6.88155e-11
-3.73793e-11
-7.10718e-11
-4.08822e-11
-7.31782e-11
-4.45173e-11
-7.51351e-11
-4.82826e-11
-7.69423e-11
-5.21762e-11
-7.86001e-11
-5.61963e-11
-8.01083e-11
-6.03414e-11
-8.14672e-11
-6.46103e-11
-8.26766e-11
-6.90021e-11
-8.37365e-11
-7.35159e-11
-8.46473e-11
-7.81498e-11
-8.54102e-11
-8.29007e-11
-8.60276e-11
-8.77706e-11
-8.64954e-11
-1.01837e-10
-8.69118e-11
-1.10018e-10
-8.71935e-11
-1.15014e-10
-8.74024e-11
-1.20016e-10
-8.75506e-11
-1.2549e-10
-8.72383e-11
-1.34936e-10
-8.35265e-11
-1.57496e-10
-7.00311e-11
-1.99009e-10
-4.71844e-11
-2.58825e-10
-1.94307e-11
-3.34135e-10
1.03897e-11
-4.2185e-10
4.07089e-11
-5.19135e-10
7.04127e-11
-6.2338e-10
9.86177e-11
-7.32653e-10
1.24708e-10
-8.45161e-10
1.48144e-10
-9.59562e-10
1.6858e-10
-1.07403e-09
1.85285e-10
2.00195e-10
-1.18928e-09
-1.02973e-13
-2.45076e-12
-4.0645e-13
-7.20751e-12
-9.0619e-13
-1.18184e-11
-1.59854e-12
-1.62829e-11
-2.47983e-12
-2.06009e-11
-3.54637e-12
-2.47724e-11
-4.79452e-12
-2.87975e-11
-6.22071e-12
-3.26758e-11
-7.82137e-12
-3.64076e-11
-9.59309e-12
-3.99925e-11
-1.15325e-11
-4.34307e-11
-1.36363e-11
-4.6722e-11
-1.59015e-11
-4.98663e-11
-1.83249e-11
-5.28636e-11
-2.09039e-11
-5.57137e-11
-2.36356e-11
-5.84164e-11
-2.65177e-11
-6.09718e-11
-2.95479e-11
-6.33794e-11
-3.27239e-11
-6.56395e-11
-3.60442e-11
-6.77515e-11
-3.95068e-11
-6.97156e-11
-4.31107e-11
-7.15312e-11
-4.68545e-11
-7.31986e-11
-5.07376e-11
-7.4717e-11
-5.47589e-11
-7.6087e-11
-5.89185e-11
-7.73075e-11
-6.32151e-11
-7.83801e-11
-6.76489e-11
-7.93027e-11
-7.22189e-11
-8.00773e-11
-7.69414e-11
-8.06876e-11
-8.18206e-11
-8.11484e-11
-9.9084e-11
-8.15951e-11
-1.07601e-10
-8.18912e-11
-1.12671e-10
-8.2123e-11
-1.1784e-10
-8.22338e-11
-1.24013e-10
-8.13777e-11
-1.36275e-10
-7.49761e-11
-1.65967e-10
-5.38342e-11
-2.17802e-10
-1.81963e-11
-2.87706e-10
2.27194e-11
-3.71027e-10
6.38907e-11
-4.64555e-10
1.03917e-10
-5.65803e-10
1.41956e-10
-6.72799e-10
1.77409e-10
-7.84016e-10
2.09835e-10
-8.98229e-10
2.38921e-10
-1.01462e-09
2.64532e-10
-1.13259e-09
2.8655e-10
-1.25242e-09
3.05114e-10
3.21857e-10
-1.37408e-09
-9.97206e-14
-2.35104e-12
-3.99343e-13
-6.90789e-12
-8.96256e-13
-1.13215e-11
-1.58646e-12
-1.55927e-11
-2.46611e-12
-1.97212e-11
-3.5314e-12
-2.37071e-11
-4.77867e-12
-2.75502e-11
-6.20431e-12
-3.12502e-11
-7.80478e-12
-3.48071e-11
-9.57652e-12
-3.82208e-11
-1.1516e-11
-4.14912e-11
-1.36197e-11
-4.46183e-11
-1.58841e-11
-4.7602e-11
-1.83054e-11
-5.04423e-11
-2.088e-11
-5.31391e-11
-2.3604e-11
-5.56923e-11
-2.64737e-11
-5.81021e-11
-2.94852e-11
-6.0368e-11
-3.26343e-11
-6.24904e-11
-3.59176e-11
-6.44682e-11
-3.93306e-11
-6.63026e-11
-4.28706e-11
-6.79911e-11
-4.6533e-11
-6.95362e-11
-5.03165e-11
-7.09335e-11
-5.42157e-11
-7.21877e-11
-5.82318e-11
-7.32914e-11
-6.2358e-11
-7.42539e-11
-6.65981e-11
-7.50626e-11
-7.09555e-11
-7.57199e-11
-7.53969e-11
-7.62463e-11
-1.00824e-10
-7.66911e-11
-1.07821e-10
-7.69585e-11
-1.12514e-10
-7.71979e-11
-1.17415e-10
-7.72222e-11
-1.2401e-10
-7.56389e-11
-1.38954e-10
-6.64335e-11
-1.73776e-10
-4.01538e-11
-2.30378e-10
2.76783e-12
-3.0031e-10
5.17352e-11
-3.77738e-10
1.00148e-10
-4.60526e-10
1.46679e-10
-5.47356e-10
1.90748e-10
-6.37359e-10
2.31959e-10
-7.30009e-10
2.70059e-10
-8.25016e-10
3.04842e-10
-9.22256e-10
3.3616e-10
-1.02161e-09
3.6389e-10
-1.12313e-09
3.88069e-10
-1.22649e-09
4.08472e-10
4.27547e-10
-1.33218e-09
-1.22705e-13
-2.22833e-12
-4.77007e-13
-6.55359e-12
-1.05358e-12
-1.07449e-11
-1.84551e-12
-1.48007e-11
-2.84647e-12
-1.87202e-11
-4.0505e-12
-2.25031e-11
-5.45217e-12
-2.61485e-11
-7.04627e-12
-2.96561e-11
-8.82808e-12
-3.30253e-11
-1.0793e-11
-3.62559e-11
-1.29366e-11
-3.93475e-11
-1.52548e-11
-4.23002e-11
-1.77433e-11
-4.51135e-11
-2.03979e-11
-4.77876e-11
-2.32146e-11
-5.03224e-11
-2.61891e-11
-5.27179e-11
-2.9317e-11
-5.49742e-11
-3.2594e-11
-5.70909e-11
-3.60158e-11
-5.90686e-11
-3.95783e-11
-6.09057e-11
-4.32768e-11
-6.2604e-11
-4.71085e-11
-6.41594e-11
-5.10687e-11
-6.55761e-11
-5.51563e-11
-6.68459e-11
-5.93667e-11
-6.79773e-11
-6.37007e-11
-6.89574e-11
-6.81533e-11
-6.98013e-11
-7.27347e-11
-7.04811e-11
-7.76305e-11
-7.10744e-11
-9.92819e-11
-7.15249e-11
-1.04244e-10
-7.18463e-11
-1.0911e-10
-7.20928e-11
-1.14286e-10
-7.20214e-11
-1.22189e-10
-6.9319e-11
-1.41017e-10
-5.68113e-11
-1.79983e-10
-2.74671e-11
-2.36847e-10
1.67099e-11
-3.00039e-10
6.59599e-11
-3.63058e-10
1.14755e-10
-4.24887e-10
1.61976e-10
-4.85496e-10
2.07287e-10
-5.4514e-10
2.50392e-10
-6.04273e-10
2.91092e-10
-6.63462e-10
3.29248e-10
-7.23327e-10
3.64707e-10
-7.84466e-10
3.97299e-10
-8.47503e-10
4.26927e-10
-9.1298e-10
4.53547e-10
-9.81844e-10
4.77337e-10
4.98598e-10
-1.0529e-09
-1.01859e-13
-2.12648e-12
-4.07012e-13
-6.24844e-12
-9.13806e-13
-1.02381e-11
-1.62e-12
-1.40945e-11
-2.52337e-12
-1.78169e-11
-3.62182e-12
-2.14047e-11
-4.91331e-12
-2.4857e-11
-6.39599e-12
-2.81734e-11
-8.06812e-12
-3.13531e-11
-9.92827e-12
-3.43958e-11
-1.19752e-11
-3.73006e-11
-1.42079e-11
-4.00674e-11
-1.66259e-11
-4.26955e-11
-1.92287e-11
-4.51847e-11
-2.20166e-11
-4.75345e-11
-2.499e-11
-4.97445e-11
-2.81498e-11
-5.18143e-11
-3.14973e-11
-5.37435e-11
-3.50343e-11
-5.55316e-11
-3.87625e-11
-5.71775e-11
-4.26852e-11
-5.86814e-11
-4.68038e-11
-6.00407e-11
-5.11233e-11
-6.12566e-11
-5.56441e-11
-6.23251e-11
-6.03703e-11
-6.32511e-11
-6.52981e-11
-6.40296e-11
-7.04417e-11
-6.46577e-11
-7.74974e-11
-6.51973e-11
-9.98091e-11
-6.57023e-11
-1.05358e-10
-6.6067e-11
-1.1085e-10
-6.63546e-11
-1.1702e-10
-6.59232e-11
-1.27896e-10
-6.11447e-11
-1.52473e-10
-4.47424e-11
-1.94971e-10
-1.43132e-11
-2.49284e-10
2.68462e-11
-3.03452e-10
7.08775e-11
-3.52013e-10
1.14521e-10
-3.9462e-10
1.57362e-10
-4.31821e-10
1.99177e-10
-4.64301e-10
2.39767e-10
-4.92856e-10
2.78947e-10
-5.18335e-10
3.16571e-10
-5.41605e-10
3.52518e-10
-5.63544e-10
3.86647e-10
-5.85036e-10
4.18791e-10
-6.06902e-10
4.48793e-10
-6.29893e-10
4.76538e-10
-6.54547e-10
5.01991e-10
5.25134e-10
-6.81083e-10
-6.59053e-14
-2.06057e-12
-2.70861e-13
-6.04348e-12
-6.20942e-13
-9.88805e-12
-1.12119e-12
-1.35943e-11
-1.77618e-12
-1.71619e-11
-2.59e-12
-2.05908e-11
-3.56646e-12
-2.38806e-11
-4.70907e-12
-2.70308e-11
-6.02103e-12
-3.00412e-11
-7.50564e-12
-3.29112e-11
-9.16611e-12
-3.56402e-11
-1.10059e-11
-3.82276e-11
-1.30287e-11
-4.06728e-11
-1.52385e-11
-4.29749e-11
-1.76399e-11
-4.51331e-11
-2.02379e-11
-4.71465e-11
-2.30385e-11
-4.90138e-11
-2.60477e-11
-5.07342e-11
-2.92734e-11
-5.23059e-11
-3.27232e-11
-5.37277e-11
-3.64073e-11
-5.49973e-11
-4.03351e-11
-5.6113e-11
-4.4519e-11
-5.70727e-11
-4.89652e-11
-5.78789e-11
-5.36825e-11
-5.85338e-11
-5.86927e-11
-5.90194e-11
-7.03767e-11
-5.94899e-11
-9.18818e-11
-5.99205e-11
-9.73495e-11
-6.02347e-11
-1.02856e-10
-6.05608e-11
-1.10168e-10
-5.90423e-11
-1.25562e-10
-5.05288e-11
-1.5573e-10
-3.09766e-11
-1.99909e-10
-5.64143e-13
-2.49941e-10
3.57194e-11
-2.95691e-10
7.25955e-11
-3.34135e-10
1.09322e-10
-3.65341e-10
1.45727e-10
-3.89648e-10
1.81669e-10
-4.07497e-10
2.17026e-10
-4.19407e-10
2.51677e-10
-4.25967e-10
2.85506e-10
-4.27801e-10
3.18406e-10
-4.2556e-10
3.50277e-10
-4.19924e-10
3.81011e-10
-4.11613e-10
4.10479e-10
-4.01366e-10
4.38545e-10
-3.89908e-10
4.6508e-10
-3.77895e-10
4.89978e-10
5.13161e-10
-3.65923e-10
-6.34153e-14
-1.99715e-12
-2.60784e-13
-5.84611e-12
-5.96416e-13
-9.55241e-12
-1.07352e-12
-1.31172e-11
-1.69489e-12
-1.65405e-11
-2.46361e-12
-1.98221e-11
-3.38228e-12
-2.29619e-11
-4.4536e-12
-2.59595e-11
-5.67989e-12
-2.88149e-11
-7.06351e-12
-3.15275e-11
-8.60613e-12
-3.40975e-11
-1.03096e-11
-3.65242e-11
-1.21746e-11
-3.88077e-11
-1.42024e-11
-4.09471e-11
-1.63922e-11
-4.29432e-11
-1.87443e-11
-4.47944e-11
-2.12558e-11
-4.65023e-11
-2.39256e-11
-4.80644e-11
-2.67478e-11
-4.94837e-11
-2.97194e-11
-5.07562e-11
-3.28287e-11
-5.1888e-11
-3.60691e-11
-5.28726e-11
-3.94253e-11
-5.37165e-11
-4.3005e-11
-5.42992e-11
-4.68173e-11
-5.47214e-11
-6.91309e-11
-5.5187e-11
-8.6364e-11
-5.55422e-11
-9.06369e-11
-5.56476e-11
-9.51875e-11
-5.5684e-11
-1.04189e-10
-5.15596e-11
-1.24794e-10
-3.84368e-11
-1.59091e-10
-1.62317e-11
-2.03558e-10
1.349e-11
-2.48871e-10
4.47485e-11
-2.89092e-10
7.59409e-11
-3.23424e-10
1.06928e-10
-3.517e-10
1.37597e-10
-3.73844e-10
1.67871e-10
-3.89851e-10
1.97677e-10
-3.99779e-10
2.26954e-10
-4.03753e-10
2.55651e-10
-4.01966e-10
2.83719e-10
-3.9467e-10
3.11109e-10
-3.82166e-10
3.37773e-10
-3.64808e-10
3.63653e-10
-3.43008e-10
3.8868e-10
-3.17235e-10
4.12772e-10
-2.88001e-10
4.35846e-10
-2.55843e-10
4.5782e-10
4.78621e-10
-2.21303e-10
-1.0828e-13
-1.88887e-12
-4.20205e-13
-5.53419e-12
-9.27263e-13
-9.04535e-12
-1.6237e-12
-1.24207e-11
-2.50451e-12
-1.56597e-11
-3.56533e-12
-1.87613e-11
-4.80194e-12
-2.17253e-11
-6.21084e-12
-2.45506e-11
-7.78806e-12
-2.72377e-11
-9.53033e-12
-2.97853e-11
-1.14333e-11
-3.21946e-11
-1.34933e-11
-3.44642e-11
-1.57047e-11
-3.65963e-11
-1.80629e-11
-3.8589e-11
-2.05597e-11
-4.04464e-11
-2.31887e-11
-4.21655e-11
-2.59377e-11
-4.37532e-11
-2.87972e-11
-4.52049e-11
-3.1749e-11
-4.65319e-11
-3.47789e-11
-4.77264e-11
-3.78598e-11
-4.88071e-11
-4.09728e-11
-4.97595e-11
-4.4084e-11
-5.06053e-11
-4.69187e-11
-5.1572e-11
-9.7247e-11
-5.19325e-11
-1.05106e-10
-5.22413e-11
-1.0857e-10
-5.20776e-11
-1.13169e-10
-5.10493e-11
-1.26821e-10
-4.20321e-11
-1.52937e-10
-2.54432e-11
-1.91122e-10
-2.52309e-13
-2.35077e-10
2.77241e-11
-2.77355e-10
5.57681e-11
-3.16134e-10
8.35267e-11
-3.50999e-10
1.10807e-10
-3.81584e-10
1.37512e-10
-4.07566e-10
1.63579e-10
-4.28657e-10
1.88963e-10
-4.4462e-10
2.13639e-10
-4.55267e-10
2.37601e-10
-4.6047e-10
2.60854e-10
-4.60158e-10
2.83406e-10
-4.54314e-10
3.05266e-10
-4.42976e-10
3.26436e-10
-4.26236e-10
3.46913e-10
-4.04242e-10
3.66686e-10
-3.77202e-10
3.85733e-10
-3.45381e-10
4.04026e-10
-3.09094e-10
4.21533e-10
4.3822e-10
-2.68694e-10
-1.10796e-13
-1.77808e-12
-4.36739e-13
-5.20825e-12
-9.73213e-13
-8.50888e-12
-1.7165e-12
-1.16775e-11
-2.66303e-12
-1.47132e-11
-3.80936e-12
-1.7615e-11
-5.15215e-12
-2.03825e-11
-6.68847e-12
-2.30143e-11
-8.41562e-12
-2.55105e-11
-1.03314e-11
-2.78695e-11
-1.2434e-11
-3.0092e-11
-1.4722e-11
-3.21761e-11
-1.7195e-11
-3.41233e-11
-1.98527e-11
-3.59313e-11
-2.26962e-11
-3.76029e-11
-2.57268e-11
-3.91348e-11
-2.89479e-11
-4.05321e-11
-3.23627e-11
-4.17901e-11
-3.59777e-11
-4.29169e-11
-3.97977e-11
-4.39064e-11
-4.38339e-11
-4.47709e-11
-4.80971e-11
-4.54963e-11
-5.3664e-11
-4.61675e-11
-9.39815e-11
-4.68306e-11
-9.87654e-11
-4.73481e-11
-1.03442e-10
-4.75645e-11
-1.12486e-10
-4.30338e-11
-1.34064e-10
-2.94711e-11
-1.67956e-10
-8.14069e-12
-2.11715e-10
1.83165e-11
-2.56954e-10
4.4986e-11
-3.00622e-10
7.13929e-11
-3.4207e-10
9.72153e-11
-3.80803e-10
1.2226e-10
-4.16411e-10
1.46415e-10
-4.48515e-10
1.69616e-10
-4.7677e-10
1.91834e-10
-5.00872e-10
2.13065e-10
-5.20559e-10
2.33327e-10
-5.35611e-10
2.52653e-10
-5.45842e-10
2.71085e-10
-5.51105e-10
2.88669e-10
-5.51291e-10
3.05451e-10
-5.46325e-10
3.2147e-10
-5.36176e-10
3.36764e-10
-5.2085e-10
3.5136e-10
-5.00399e-10
3.65281e-10
-4.74916e-10
3.78542e-10
-4.44536e-10
3.91153e-10
4.03118e-10
-4.09434e-10
-6.59965e-14
-1.71208e-12
-2.78395e-13
-4.99585e-12
-6.46572e-13
-8.1407e-12
-1.17684e-12
-1.11472e-11
-1.87524e-12
-1.40148e-11
-2.74692e-12
-1.67433e-11
-3.79711e-12
-1.93323e-11
-5.03033e-12
-2.17811e-11
-6.45171e-12
-2.40891e-11
-8.06565e-12
-2.62556e-11
-9.87787e-12
-2.82798e-11
-1.18932e-11
-3.01608e-11
-1.41187e-11
-3.18978e-11
-1.65603e-11
-3.34897e-11
-1.92274e-11
-3.49358e-11
-2.21277e-11
-3.62346e-11
-2.52743e-11
-3.73855e-11
-2.86772e-11
-3.83872e-11
-3.23541e-11
-3.92399e-11
-3.63189e-11
-3.99416e-11
-4.0601e-11
-4.04889e-11
-4.93218e-11
-4.09684e-11
-8.75882e-11
-4.15613e-11
-9.24582e-11
-4.19606e-11
-9.81412e-11
-4.16652e-11
-1.1407e-10
-3.16359e-11
-1.4285e-10
-1.42538e-11
-1.8355e-10
1.12295e-11
-2.2926e-10
3.75686e-11
-2.74527e-10
6.35834e-11
-3.18479e-10
8.89383e-11
-3.60475e-10
1.13389e-10
-4.00051e-10
1.36792e-10
-4.36846e-10
1.59054e-10
-4.70562e-10
1.80131e-10
-5.00953e-10
2.00008e-10
-5.27814e-10
2.18695e-10
-5.50967e-10
2.36218e-10
-5.70258e-10
2.52618e-10
-5.85552e-10
2.67946e-10
-5.96726e-10
2.8226e-10
-6.03674e-10
2.95618e-10
-6.06305e-10
3.08081e-10
-6.04541e-10
3.19706e-10
-5.98326e-10
3.30549e-10
-5.87622e-10
3.40656e-10
-5.72415e-10
3.50074e-10
-5.52714e-10
3.58841e-10
-5.28551e-10
3.66991e-10
3.74553e-10
-4.99986e-10
-6.99235e-14
-2.83879e-13
-6.47145e-13
-1.16576e-12
-1.84532e-12
-2.69161e-12
-3.71028e-12
-4.90663e-12
-6.28607e-12
-7.85351e-12
-9.61412e-12
-1.15724e-11
-1.37334e-11
-1.61013e-11
-1.86809e-11
-2.1476e-11
-2.44912e-11
-2.77298e-11
-3.1198e-11
-3.48999e-11
-4.80451e-11
-8.41813e-11
-8.80136e-11
-9.55088e-11
-1.16277e-10
-1.49277e-10
-1.91077e-10
-2.33163e-10
-2.73904e-10
-3.12601e-10
-3.48779e-10
-3.82119e-10
-4.12403e-10
-4.3948e-10
-4.63249e-10
-4.83644e-10
-5.00614e-10
-5.14123e-10
-5.24141e-10
-5.30638e-10
-5.33583e-10
-5.32945e-10
-5.28691e-10
-5.20787e-10
-5.09201e-10
-4.93907e-10
-4.7488e-10
-4.52104e-10
-4.2557e-10
-3.95279e-10
1.88519e-10
-8.52988e-11
2.25951e-10
-1.8458e-11
1.46933e-10
-2.39489e-12
1.16232e-10
9.40683e-12
9.77561e-11
7.91071e-12
8.06978e-11
4.18094e-12
7.5312e-11
4.73814e-12
8.21099e-11
1.08085e-11
9.87488e-11
2.21947e-11
1.23907e-10
3.87659e-11
1.5813e-10
6.05497e-11
2.02523e-10
8.717e-11
2.57871e-10
1.18981e-10
3.24622e-10
1.56546e-10
4.02546e-10
2.00016e-10
4.89366e-10
2.48773e-10
5.77917e-10
2.98382e-10
6.62122e-10
3.45837e-10
7.58246e-10
3.88621e-10
8.67399e-10
4.44651e-10
1.00398e-09
5.06159e-10
1.17216e-09
5.76543e-10
1.37261e-09
6.56537e-10
1.59457e-09
7.5419e-10
1.84206e-09
8.52137e-10
2.12133e-09
9.45311e-10
2.42254e-09
1.04608e-09
2.73708e-09
1.152e-09
3.05618e-09
1.26099e-09
3.37313e-09
1.36908e-09
3.68253e-09
1.47364e-09
3.97979e-09
1.57292e-09
4.26102e-09
1.66571e-09
4.52314e-09
1.75109e-09
4.7639e-09
1.82839e-09
4.98189e-09
1.89724e-09
5.1765e-09
1.95751e-09
5.34784e-09
2.00927e-09
5.49661e-09
2.05282e-09
5.62402e-09
2.08859e-09
5.7316e-09
2.11712e-09
5.82113e-09
2.13906e-09
5.89451e-09
2.15509e-09
5.95364e-09
2.16589e-09
6.00044e-09
2.17209e-09
6.03675e-09
2.17434e-09
6.06437e-09
2.17311e-09
6.08519e-09
2.16865e-09
6.10047e-09
2.16179e-09
2.15283e-09
6.11119e-09
2.63233e-10
-3.00072e-11
2.6176e-10
-1.69847e-11
2.61727e-10
-2.36183e-12
2.48983e-10
2.21506e-11
2.4754e-10
9.35359e-12
2.4212e-10
9.60171e-12
2.33022e-10
1.38353e-11
2.20085e-10
2.37458e-11
2.05401e-10
3.68787e-11
1.92088e-10
5.20787e-11
1.83569e-10
6.90694e-11
1.82421e-10
8.83171e-11
1.91589e-10
1.09814e-10
2.13942e-10
1.34193e-10
2.52212e-10
1.61746e-10
3.08056e-10
1.92928e-10
3.78757e-10
2.27681e-10
4.5987e-10
2.64724e-10
5.44544e-10
3.03947e-10
6.45921e-10
3.43273e-10
7.71004e-10
3.81076e-10
9.07036e-10
4.40512e-10
1.05155e-09
5.12022e-10
1.21894e-09
5.86804e-10
1.41273e-09
6.58346e-10
1.63706e-09
7.20983e-10
1.89851e-09
7.84624e-10
2.19066e-09
8.59852e-10
2.506e-09
9.45649e-10
2.83589e-09
1.03919e-09
3.17326e-09
1.13627e-09
3.51261e-09
1.23357e-09
3.84926e-09
1.32907e-09
4.17879e-09
1.42155e-09
4.49726e-09
1.50993e-09
4.80123e-09
1.59328e-09
5.08785e-09
1.67088e-09
5.35492e-09
1.7422e-09
5.60086e-09
1.80688e-09
5.82473e-09
1.86472e-09
6.02614e-09
1.91572e-09
6.20516e-09
1.96004e-09
6.36221e-09
1.99803e-09
6.49789e-09
2.03022e-09
6.61356e-09
2.05642e-09
6.71122e-09
2.07668e-09
6.79539e-09
2.08895e-09
6.86716e-09
2.09687e-09
6.92751e-09
2.10144e-09
2.10265e-09
6.97769e-09
4.14014e-10
-5.23765e-11
4.41837e-10
-4.48074e-11
4.78304e-10
-3.88296e-11
5.46912e-10
-4.64571e-11
5.67197e-10
-1.0931e-11
5.64958e-10
1.18409e-11
5.41769e-10
3.70238e-11
5.03316e-10
6.21991e-11
4.55511e-10
8.46834e-11
4.02284e-10
1.05306e-10
3.47398e-10
1.23955e-10
2.93931e-10
1.41784e-10
2.444e-10
1.59345e-10
2.03192e-10
1.75401e-10
1.71861e-10
1.93077e-10
1.52916e-10
2.11873e-10
1.48383e-10
2.32214e-10
1.5845e-10
2.54658e-10
1.84003e-10
2.78394e-10
2.23179e-10
3.04098e-10
2.70243e-10
3.34013e-10
3.39014e-10
3.71741e-10
4.36208e-10
4.14828e-10
5.67295e-10
4.55717e-10
7.31117e-10
4.94524e-10
9.23021e-10
5.29078e-10
1.13986e-09
5.67786e-10
1.38739e-09
6.1232e-10
1.66542e-09
6.67622e-10
1.96807e-09
7.3654e-10
2.29009e-09
8.14243e-10
2.62739e-09
8.96276e-10
2.97608e-09
9.8037e-10
3.33231e-09
1.06532e-09
3.69195e-09
1.15029e-09
4.05094e-09
1.23429e-09
4.40537e-09
1.31645e-09
4.75159e-09
1.39598e-09
5.08629e-09
1.47217e-09
5.4066e-09
1.54441e-09
5.71005e-09
1.61227e-09
5.99467e-09
1.67542e-09
6.25921e-09
1.73349e-09
6.50375e-09
1.78567e-09
6.72904e-09
1.83112e-09
6.93613e-09
1.86958e-09
7.12591e-09
1.89917e-09
7.2968e-09
1.92598e-09
7.44883e-09
1.94941e-09
1.96862e-09
7.58286e-09
2.57997e-10
-5.82959e-11
2.59916e-10
-4.67258e-11
2.59936e-10
-3.88503e-11
2.38337e-10
-2.48579e-11
2.29934e-10
-2.52779e-12
2.1867e-10
2.31045e-11
2.0653e-10
4.91643e-11
1.96149e-10
7.25795e-11
1.84116e-10
9.67167e-11
1.759e-10
1.13522e-10
1.66677e-10
1.33178e-10
1.57223e-10
1.51238e-10
1.4857e-10
1.67998e-10
1.40367e-10
1.83604e-10
1.34778e-10
1.98667e-10
1.33083e-10
2.13568e-10
1.36798e-10
2.28499e-10
1.47777e-10
2.43678e-10
1.67149e-10
2.59022e-10
1.95833e-10
2.75414e-10
2.36257e-10
2.93589e-10
2.95313e-10
3.12684e-10
3.77575e-10
3.32566e-10
4.79561e-10
3.53731e-10
6.00197e-10
3.73887e-10
7.34455e-10
3.94821e-10
8.87653e-10
4.14588e-10
1.05692e-09
4.43051e-10
1.23968e-09
4.84862e-10
1.44427e-09
5.31952e-10
1.67296e-09
5.85558e-10
1.92589e-09
6.43338e-10
2.20174e-09
7.04524e-10
2.49856e-09
7.68501e-10
2.81373e-09
8.35111e-10
3.1442e-09
9.0383e-10
3.48662e-09