/*--------------------------------*- C++ -*----------------------------------*\
| =========                 |                                                 |
| \\      /  F ield         | OpenFOAM: The Open Source CFD Toolbox           |
|  \\    /   O peration     | Version:  2.4.0                                 |
|   \\  /    A nd           | Web:      www.OpenFOAM.org                      |
|    \\/     M anipulation  |                                                 |
\*---------------------------------------------------------------------------*/
FoamFile
{
    version     2.0;
    format      ascii;
    class       volScalarField;
    location    "2.2";
    object      H;
}
// * * * * * * * * * * * * * * * * * * * * * * * * * * * * * * * * * * * * * //

dimensions      [0 2 -2 0 0 0 0];

internalField   nonuniform List<scalar> 
500
(
-11892.9
-11892.9
-11892.9
-11892.9
-11892.9
-11215
-11215
-11215
-11215
-11215
-10529.5
-10529.5
-10529.5
-10529.5
-10529.5
-9836.17
-9836.16
-9836.15
-9836.16
-9836.17
-9134.99
-9134.98
-9134.97
-9134.98
-9134.99
-8425.79
-8425.77
-8425.76
-8425.77
-8425.79
-7708.44
-7708.41
-7708.4
-7708.41
-7708.44
-6982.78
-6982.75
-6982.74
-6982.75
-6982.78
-6248.68
-6248.65
-6248.63
-6248.65
-6248.68
-5505.98
-5505.94
-5505.92
-5505.94
-5505.98
-4754.53
-4754.49
-4754.47
-4754.49
-4754.53
-3994.18
-3994.13
-3994.1
-3994.13
-3994.18
-3224.75
-3224.7
-3224.67
-3224.7
-3224.75
-2446.09
-2446.03
-2446
-2446.03
-2446.09
-1658.03
-1657.97
-1657.93
-1657.97
-1658.03
-860.389
-860.321
-860.279
-860.321
-860.39
-15.1474
-15.1441
-15.1421
-15.1441
-15.1474
-11.2803
-11.2779
-11.2764
-11.2779
-11.2803
-11.3093
-11.3069
-11.3055
-11.3069
-11.3093
-11.3362
-11.3339
-11.3325
-11.3339
-11.3362
-11.361
-11.3587
-11.3573
-11.3587
-11.361
-11.3835
-11.3813
-11.3799
-11.3813
-11.3836
-11.4037
-11.4016
-11.4002
-11.4015
-11.4038
-11.4215
-11.4194
-11.4181
-11.4194
-11.4215
-11.4368
-11.4347
-11.4334
-11.4347
-11.4368
-11.4494
-11.4473
-11.4461
-11.4473
-11.4494
-11.4593
-11.4573
-11.456
-11.4573
-11.4593
-11.4663
-11.4644
-11.4632
-11.4644
-11.4664
-11.4704
-11.4685
-11.4673
-11.4685
-11.4705
-11.4715
-11.4696
-11.4685
-11.4696
-11.4715
-11.4694
-11.4676
-11.4665
-11.4676
-11.4695
-11.4641
-11.4623
-11.4612
-11.4623
-11.4641
-11.4554
-11.4536
-11.4525
-11.4536
-11.4554
-11.4432
-11.4415
-11.4404
-11.4415
-11.4432
-11.4274
-11.4258
-11.4247
-11.4258
-11.4275
-11.408
-11.4063
-11.4053
-11.4063
-11.408
-11.3847
-11.3831
-11.3821
-11.3831
-11.3848
-11.3576
-11.356
-11.355
-11.356
-11.3576
-11.3264
-11.3248
-11.3239
-11.3248
-11.3264
-11.291
-11.2895
-11.2886
-11.2895
-11.2911
-11.2515
-11.25
-11.2491
-11.25
-11.2515
-11.2076
-11.2061
-11.2052
-11.2061
-11.2076
-11.1592
-11.1578
-11.1569
-11.1578
-11.1592
-11.1063
-11.1049
-11.1041
-11.1049
-11.1063
-11.0487
-11.0473
-11.0465
-11.0473
-11.0487
-10.9863
-10.985
-10.9842
-10.985
-10.9863
-10.9191
-10.9178
-10.9171
-10.9178
-10.9191
-10.8469
-10.8457
-10.8449
-10.8457
-10.8469
-10.7697
-10.7685
-10.7678
-10.7685
-10.7697
-10.6873
-10.6861
-10.6854
-10.6861
-10.6873
-10.5997
-10.5986
-10.5979
-10.5986
-10.5997
-10.5067
-10.5057
-10.505
-10.5057
-10.5068
-10.4084
-10.4074
-10.4067
-10.4074
-10.4084
-10.3046
-10.3036
-10.3029
-10.3036
-10.3046
-10.1953
-10.1943
-10.1936
-10.1943
-10.1953
-10.0803
-10.0793
-10.0787
-10.0793
-10.0803
-9.95965
-9.95871
-9.95813
-9.95871
-9.95967
-9.83329
-9.83238
-9.83181
-9.83238
-9.8333
-9.70115
-9.70027
-9.69972
-9.70027
-9.70117
-9.56321
-9.56235
-9.56182
-9.56235
-9.56322
-9.41941
-9.41859
-9.41807
-9.41859
-9.41943
-9.26975
-9.26895
-9.26845
-9.26895
-9.26976
-9.1142
-9.11342
-9.11294
-9.11343
-9.11421
-8.95275
-8.952
-8.95154
-8.952
-8.95276
-8.7854
-8.78468
-8.78423
-8.78468
-8.78541
-8.61217
-8.61148
-8.61104
-8.61148
-8.61218
-8.43307
-8.43241
-8.43199
-8.43241
-8.43309
-8.24814
-8.2475
-8.2471
-8.2475
-8.24816
-8.05742
-8.0568
-8.05642
-8.0568
-8.05743
-7.86096
-7.86037
-7.85999
-7.86037
-7.86097
-7.65883
-7.65825
-7.6579
-7.65826
-7.65884
-7.4511
-7.45055
-7.45021
-7.45055
-7.45111
-7.23786
-7.23734
-7.23701
-7.23734
-7.23787
-7.01923
-7.01872
-7.01841
-7.01873
-7.01924
-6.79531
-6.79483
-6.79453
-6.79483
-6.79532
-6.56624
-6.56578
-6.56549
-6.56578
-6.56624
-6.33216
-6.33172
-6.33145
-6.33173
-6.33217
-6.09324
-6.09282
-6.09256
-6.09282
-6.09324
-5.84964
-5.84925
-5.84901
-5.84925
-5.84965
-5.60157
-5.6012
-5.60097
-5.6012
-5.60158
-5.34923
-5.34888
-5.34866
-5.34888
-5.34924
-5.09284
-5.09251
-5.09231
-5.09252
-5.09285
-4.83265
-4.83234
-4.83214
-4.83234
-4.83265
-4.56889
-4.5686
-4.56842
-4.56861
-4.5689
-4.30186
-4.30159
-4.30142
-4.30159
-4.30187
-4.03183
-4.03158
-4.03143
-4.03159
-4.03184
-3.75912
-3.75889
-3.75874
-3.75889
-3.75913
-3.48404
-3.48383
-3.48369
-3.48383
-3.48404
-3.20693
-3.20674
-3.20661
-3.20674
-3.20693
-2.92815
-2.92797
-2.92786
-2.92797
-2.92815
-2.64806
-2.6479
-2.6478
-2.6479
-2.64806
-2.36706
-2.36691
-2.36683
-2.36692
-2.36706
-2.08554
-2.08541
-2.08533
-2.08541
-2.08554
-1.80392
-1.80381
-1.80374
-1.80381
-1.80392
-1.52263
-1.52254
-1.52248
-1.52254
-1.52263
-1.24212
-1.24205
-1.242
-1.24205
-1.24212
-0.962848
-0.962792
-0.962757
-0.962792
-0.962849
-0.685283
-0.685243
-0.685218
-0.685243
-0.685283
-0.409908
-0.409884
-0.409869
-0.409884
-0.409908
-0.137216
-0.137208
-0.137203
-0.137208
-0.137216
)
;

boundaryField
{
    BotWall
    {
        type            zeroGradient;
    }
    FreeStream
    {
        type            zeroGradient;
    }
    FrontNBack
    {
        type            empty;
    }
    LeftSide
    {
        type            symmetryPlane;
    }
    RightSide
    {
        type            symmetryPlane;
    }
}


// ************************************************************************* //
