/*--------------------------------*- C++ -*----------------------------------*\
| =========                 |                                                 |
| \\      /  F ield         | OpenFOAM: The Open Source CFD Toolbox           |
|  \\    /   O peration     | Version:  2.4.0                                 |
|   \\  /    A nd           | Web:      www.OpenFOAM.org                      |
|    \\/     M anipulation  |                                                 |
\*---------------------------------------------------------------------------*/
FoamFile
{
    version     2.0;
    format      ascii;
    class       volScalarField;
    location    "2.2";
    object      p;
}
// * * * * * * * * * * * * * * * * * * * * * * * * * * * * * * * * * * * * * //

dimensions      [1 -1 -2 0 0 0 0];

internalField   nonuniform List<scalar> 
500
(
0.523597
0.523671
0.523668
0.523671
0.523597
0.493767
0.493842
0.493842
0.493842
0.493766
0.463635
0.463709
0.463708
0.463709
0.463634
0.433127
0.433202
0.433201
0.433201
0.433126
0.402296
0.402372
0.402372
0.402372
0.402295
0.371198
0.371275
0.371276
0.371275
0.371197
0.340179
0.340258
0.340259
0.340257
0.340178
0.309037
0.309116
0.309118
0.309116
0.309036
0.274895
0.274972
0.274974
0.274971
0.274893
0.2303
0.230371
0.230373
0.23037
0.230299
0.179056
0.179131
0.17913
0.17913
0.179055
0.195698
0.195826
0.195829
0.195826
0.195697
0.466277
0.466523
0.466555
0.466523
0.466275
0.890507
0.890728
0.890838
0.890729
0.890503
-0.428026
-0.428519
-0.428455
-0.428519
-0.428028
-8.18073
-8.18271
-8.18334
-8.18272
-8.18071
-19.5407
-19.5428
-19.5451
-19.5428
-19.5406
-0.0153706
-0.0153702
-0.0153702
-0.0153702
-0.0153706
-0.00832537
-0.00832567
-0.00832571
-0.00832567
-0.00832537
-0.00999529
-0.00999527
-0.00999527
-0.00999527
-0.00999529
-0.0112159
-0.0112159
-0.0112159
-0.0112159
-0.0112159
-0.0119302
-0.0119302
-0.0119302
-0.0119302
-0.0119302
-0.0125151
-0.0125151
-0.0125151
-0.0125151
-0.0125151
-0.0131217
-0.0131218
-0.0131218
-0.0131218
-0.0131217
-0.0137554
-0.0137554
-0.0137554
-0.0137554
-0.0137554
-0.0144013
-0.0144013
-0.0144013
-0.0144013
-0.0144013
-0.0150538
-0.0150538
-0.0150538
-0.0150538
-0.0150538
-0.0157127
-0.0157127
-0.0157127
-0.0157127
-0.0157127
-0.0163788
-0.0163788
-0.0163788
-0.0163788
-0.0163788
-0.0170524
-0.0170524
-0.0170524
-0.0170524
-0.0170524
-0.0177335
-0.0177335
-0.0177335
-0.0177335
-0.0177335
-0.0184222
-0.0184222
-0.0184222
-0.0184222
-0.0184222
-0.0191186
-0.0191186
-0.0191186
-0.0191186
-0.0191186
-0.0198228
-0.0198228
-0.0198228
-0.0198228
-0.0198228
-0.0205348
-0.0205348
-0.0205348
-0.0205348
-0.0205348
-0.0212548
-0.0212548
-0.0212548
-0.0212548
-0.0212548
-0.0219828
-0.0219828
-0.0219828
-0.0219828
-0.0219828
-0.0227189
-0.0227189
-0.0227189
-0.0227189
-0.0227189
-0.0234633
-0.0234633
-0.0234633
-0.0234633
-0.0234633
-0.0242159
-0.0242159
-0.0242159
-0.0242159
-0.0242159
-0.024977
-0.024977
-0.024977
-0.024977
-0.024977
-0.0257465
-0.0257465
-0.0257465
-0.0257465
-0.0257465
-0.0265246
-0.0265246
-0.0265246
-0.0265246
-0.0265246
-0.0273114
-0.0273114
-0.0273114
-0.0273114
-0.0273114
-0.028107
-0.028107
-0.028107
-0.028107
-0.028107
-0.0289115
-0.0289115
-0.0289115
-0.0289115
-0.0289115
-0.0297249
-0.0297249
-0.0297249
-0.0297249
-0.0297249
-0.0305475
-0.0305475
-0.0305475
-0.0305475
-0.0305475
-0.0313792
-0.0313792
-0.0313792
-0.0313792
-0.0313792
-0.0322202
-0.0322202
-0.0322202
-0.0322202
-0.0322202
-0.0330705
-0.0330705
-0.0330705
-0.0330705
-0.0330705
-0.0339304
-0.0339304
-0.0339304
-0.0339304
-0.0339304
-0.0347998
-0.0347998
-0.0347998
-0.0347998
-0.0347998
-0.035679
-0.035679
-0.035679
-0.035679
-0.035679
-0.036568
-0.036568
-0.036568
-0.036568
-0.036568
-0.0374668
-0.0374668
-0.0374668
-0.0374668
-0.0374668
-0.0383757
-0.0383757
-0.0383758
-0.0383757
-0.0383757
-0.0392948
-0.0392948
-0.0392948
-0.0392948
-0.0392948
-0.0402241
-0.0402241
-0.0402241
-0.0402241
-0.0402241
-0.0411638
-0.0411638
-0.0411638
-0.0411638
-0.0411638
-0.042114
-0.042114
-0.042114
-0.042114
-0.042114
-0.0430747
-0.0430747
-0.0430747
-0.0430747
-0.0430747
-0.0440462
-0.0440462
-0.0440462
-0.0440462
-0.0440462
-0.0450286
-0.0450286
-0.0450286
-0.0450286
-0.0450286
-0.0460219
-0.0460219
-0.0460219
-0.0460219
-0.0460219
-0.0470262
-0.0470262
-0.0470262
-0.0470262
-0.0470262
-0.0480418
-0.0480418
-0.0480418
-0.0480418
-0.0480418
-0.0490688
-0.0490688
-0.0490688
-0.0490688
-0.0490688
-0.0501071
-0.0501071
-0.0501071
-0.0501071
-0.0501071
-0.0511571
-0.0511571
-0.0511571
-0.0511571
-0.0511571
-0.0522188
-0.0522188
-0.0522188
-0.0522188
-0.0522188
-0.0532923
-0.0532923
-0.0532923
-0.0532923
-0.0532923
-0.0543778
-0.0543778
-0.0543778
-0.0543778
-0.0543778
-0.0554754
-0.0554754
-0.0554754
-0.0554754
-0.0554754
-0.0565853
-0.0565853
-0.0565853
-0.0565853
-0.0565853
-0.0577076
-0.0577076
-0.0577076
-0.0577076
-0.0577076
-0.0588423
-0.0588423
-0.0588423
-0.0588423
-0.0588423
-0.0599898
-0.0599898
-0.0599898
-0.0599898
-0.0599898
-0.06115
-0.06115
-0.06115
-0.06115
-0.06115
-0.0623232
-0.0623232
-0.0623232
-0.0623232
-0.0623232
-0.0635095
-0.0635095
-0.0635095
-0.0635095
-0.0635095
-0.064709
-0.064709
-0.064709
-0.064709
-0.064709
-0.0659219
-0.0659219
-0.0659219
-0.0659219
-0.0659219
-0.0671484
-0.0671484
-0.0671484
-0.0671484
-0.0671484
-0.0683885
-0.0683885
-0.0683885
-0.0683885
-0.0683885
-0.0696425
-0.0696425
-0.0696425
-0.0696425
-0.0696425
-0.0709104
-0.0709104
-0.0709104
-0.0709104
-0.0709104
-0.0721925
-0.0721925
-0.0721925
-0.0721925
-0.0721925
-0.073489
-0.073489
-0.073489
-0.073489
-0.073489
-0.0747998
-0.0747998
-0.0747998
-0.0747998
-0.0747998
-0.0761254
-0.0761254
-0.0761254
-0.0761254
-0.0761254
-0.0774657
-0.0774657
-0.0774657
-0.0774657
-0.0774657
-0.0788209
-0.0788209
-0.0788209
-0.0788209
-0.0788209
-0.0801913
-0.0801913
-0.0801913
-0.0801913
-0.0801913
-0.081577
-0.081577
-0.081577
-0.081577
-0.081577
-0.0829781
-0.0829781
-0.0829781
-0.0829781
-0.0829781
-0.0843949
-0.0843949
-0.0843949
-0.0843949
-0.0843949
-0.0858275
-0.0858275
-0.0858275
-0.0858275
-0.0858275
-0.087276
-0.087276
-0.087276
-0.087276
-0.087276
-0.0887407
-0.0887407
-0.0887407
-0.0887407
-0.0887407
)
;

boundaryField
{
    BotWall
    {
        type            calculated;
        value           nonuniform List<scalar> 5(0.538418 0.538491 0.538489 0.538491 0.538418);
    }
    FreeStream
    {
        type            calculated;
        value           nonuniform List<scalar> 5(-0.0894772 -0.0894772 -0.0894772 -0.0894772 -0.0894772);
    }
    FrontNBack
    {
        type            empty;
    }
    LeftSide
    {
        type            symmetryPlane;
    }
    RightSide
    {
        type            symmetryPlane;
    }
}


// ************************************************************************* //
