/*--------------------------------*- C++ -*----------------------------------*\
| =========                 |                                                 |
| \\      /  F ield         | OpenFOAM: The Open Source CFD Toolbox           |
|  \\    /   O peration     | Version:  2.4.0                                 |
|   \\  /    A nd           | Web:      www.OpenFOAM.org                      |
|    \\/     M anipulation  |                                                 |
\*---------------------------------------------------------------------------*/
FoamFile
{
    version     2.0;
    format      ascii;
    class       volScalarField;
    location    "2.2";
    object      p_rgh;
}
// * * * * * * * * * * * * * * * * * * * * * * * * * * * * * * * * * * * * * //

dimensions      [1 -1 -2 0 0 0 0];

internalField   nonuniform List<scalar> 
500
(
0.538418
0.538491
0.538489
0.538491
0.538418
0.538393
0.538468
0.538468
0.538468
0.538392
0.538399
0.538474
0.538473
0.538473
0.538399
0.538367
0.538442
0.538441
0.538441
0.538366
0.538351
0.538427
0.538427
0.538426
0.538349
0.538412
0.538489
0.53849
0.538489
0.538411
0.5389
0.538978
0.538979
0.538978
0.538898
0.539616
0.539695
0.539697
0.539694
0.539615
0.537686
0.537764
0.537766
0.537763
0.537685
0.525665
0.525736
0.525738
0.525735
0.525664
0.507357
0.507432
0.507432
0.507432
0.507356
0.557304
0.557432
0.557434
0.557431
0.557303
0.861558
0.861805
0.861836
0.861805
0.861557
1.31984
1.32006
1.32017
1.32006
1.31984
0.0357386
0.0352454
0.0353097
0.0352457
0.0357364
-7.68215
-7.68413
-7.68476
-7.68414
-7.68213
-19.0652
-19.0673
-19.0694
-19.0673
-19.0652
-0.00593948
-0.00593914
-0.00593909
-0.00593914
-0.00593948
0.00170192
0.00170162
0.00170158
0.00170162
0.00170192
0.00063485
0.000634876
0.000634871
0.000634876
0.00063485
2.37805e-05
2.38317e-05
2.38337e-05
2.38319e-05
2.37805e-05
-7.40937e-05
-7.40872e-05
-7.40861e-05
-7.40871e-05
-7.40937e-05
-3.56851e-05
-3.56932e-05
-3.56932e-05
-3.5693e-05
-3.56851e-05
-1.21662e-05
-1.21702e-05
-1.21704e-05
-1.217e-05
-1.21662e-05
-8.59977e-06
-8.59976e-06
-8.59996e-06
-8.59959e-06
-8.59977e-06
-1.01222e-05
-1.01215e-05
-1.01217e-05
-1.01214e-05
-1.01222e-05
-1.10443e-05
-1.1044e-05
-1.10442e-05
-1.10438e-05
-1.10443e-05
-1.11725e-05
-1.11725e-05
-1.11727e-05
-1.11724e-05
-1.11725e-05
-1.11011e-05
-1.11011e-05
-1.11013e-05
-1.11009e-05
-1.11011e-05
-1.10541e-05
-1.10541e-05
-1.10543e-05
-1.1054e-05
-1.10541e-05
-1.10386e-05
-1.10386e-05
-1.10388e-05
-1.10385e-05
-1.10386e-05
-1.10308e-05
-1.10309e-05
-1.10311e-05
-1.10307e-05
-1.10308e-05
-1.1022e-05
-1.1022e-05
-1.10222e-05
-1.10218e-05
-1.10219e-05
-1.10117e-05
-1.10117e-05
-1.10119e-05
-1.10116e-05
-1.10117e-05
-1.1001e-05
-1.10011e-05
-1.10012e-05
-1.10009e-05
-1.1001e-05
-1.09902e-05
-1.09903e-05
-1.09905e-05
-1.09901e-05
-1.09902e-05
-1.09794e-05
-1.09795e-05
-1.09796e-05
-1.09793e-05
-1.09794e-05
-1.09684e-05
-1.09685e-05
-1.09687e-05
-1.09684e-05
-1.09684e-05
-1.09574e-05
-1.09574e-05
-1.09576e-05
-1.09573e-05
-1.09573e-05
-1.09462e-05
-1.09462e-05
-1.09464e-05
-1.09461e-05
-1.09461e-05
-1.09348e-05
-1.09349e-05
-1.09351e-05
-1.09348e-05
-1.09348e-05
-1.09234e-05
-1.09234e-05
-1.09236e-05
-1.09233e-05
-1.09233e-05
-1.09118e-05
-1.09119e-05
-1.0912e-05
-1.09117e-05
-1.09118e-05
-1.09001e-05
-1.09001e-05
-1.09003e-05
-1.09e-05
-1.09e-05
-1.08882e-05
-1.08883e-05
-1.08885e-05
-1.08882e-05
-1.08882e-05
-1.08762e-05
-1.08763e-05
-1.08765e-05
-1.08762e-05
-1.08762e-05
-1.08641e-05
-1.08642e-05
-1.08644e-05
-1.08641e-05
-1.08641e-05
-1.08519e-05
-1.08519e-05
-1.08521e-05
-1.08518e-05
-1.08518e-05
-1.08395e-05
-1.08396e-05
-1.08397e-05
-1.08394e-05
-1.08394e-05
-1.0827e-05
-1.0827e-05
-1.08272e-05
-1.08269e-05
-1.08269e-05
-1.08143e-05
-1.08144e-05
-1.08145e-05
-1.08142e-05
-1.08143e-05
-1.08015e-05
-1.08015e-05
-1.08017e-05
-1.08014e-05
-1.08014e-05
-1.07885e-05
-1.07886e-05
-1.07887e-05
-1.07885e-05
-1.07885e-05
-1.07754e-05
-1.07755e-05
-1.07756e-05
-1.07754e-05
-1.07754e-05
-1.07622e-05
-1.07623e-05
-1.07624e-05
-1.07621e-05
-1.07622e-05
-1.07488e-05
-1.07489e-05
-1.0749e-05
-1.07488e-05
-1.07488e-05
-1.07353e-05
-1.07353e-05
-1.07354e-05
-1.07352e-05
-1.07352e-05
-1.07216e-05
-1.07216e-05
-1.07217e-05
-1.07215e-05
-1.07216e-05
-1.07078e-05
-1.07078e-05
-1.07079e-05
-1.07077e-05
-1.07077e-05
-1.06938e-05
-1.06938e-05
-1.06939e-05
-1.06937e-05
-1.06937e-05
-1.06796e-05
-1.06796e-05
-1.06797e-05
-1.06796e-05
-1.06796e-05
-1.06653e-05
-1.06653e-05
-1.06654e-05
-1.06652e-05
-1.06653e-05
-1.06509e-05
-1.06509e-05
-1.0651e-05
-1.06508e-05
-1.06508e-05
-1.06362e-05
-1.06363e-05
-1.06363e-05
-1.06362e-05
-1.06362e-05
-1.06215e-05
-1.06215e-05
-1.06215e-05
-1.06214e-05
-1.06214e-05
-1.06065e-05
-1.06065e-05
-1.06066e-05
-1.06064e-05
-1.06065e-05
-1.05914e-05
-1.05914e-05
-1.05915e-05
-1.05913e-05
-1.05914e-05
-1.05761e-05
-1.05761e-05
-1.05762e-05
-1.0576e-05
-1.05761e-05
-1.05607e-05
-1.05607e-05
-1.05607e-05
-1.05606e-05
-1.05606e-05
-1.0545e-05
-1.0545e-05
-1.05451e-05
-1.0545e-05
-1.0545e-05
-1.05293e-05
-1.05292e-05
-1.05293e-05
-1.05292e-05
-1.05292e-05
-1.05133e-05
-1.05133e-05
-1.05133e-05
-1.05132e-05
-1.05133e-05
-1.04971e-05
-1.04971e-05
-1.04972e-05
-1.04971e-05
-1.04971e-05
-1.04808e-05
-1.04808e-05
-1.04808e-05
-1.04807e-05
-1.04808e-05
-1.04643e-05
-1.04643e-05
-1.04643e-05
-1.04642e-05
-1.04643e-05
-1.04476e-05
-1.04476e-05
-1.04476e-05
-1.04476e-05
-1.04476e-05
-1.04308e-05
-1.04307e-05
-1.04308e-05
-1.04307e-05
-1.04307e-05
-1.04137e-05
-1.04137e-05
-1.04137e-05
-1.04136e-05
-1.04137e-05
-1.03965e-05
-1.03964e-05
-1.03965e-05
-1.03964e-05
-1.03964e-05
-1.0379e-05
-1.0379e-05
-1.0379e-05
-1.0379e-05
-1.0379e-05
-1.03614e-05
-1.03614e-05
-1.03614e-05
-1.03613e-05
-1.03614e-05
-1.03436e-05
-1.03436e-05
-1.03436e-05
-1.03435e-05
-1.03436e-05
-1.03256e-05
-1.03255e-05
-1.03256e-05
-1.03255e-05
-1.03255e-05
-1.03074e-05
-1.03073e-05
-1.03073e-05
-1.03073e-05
-1.03073e-05
-1.02889e-05
-1.02889e-05
-1.02889e-05
-1.02889e-05
-1.02889e-05
-1.02703e-05
-1.02703e-05
-1.02703e-05
-1.02703e-05
-1.02703e-05
-1.02515e-05
-1.02515e-05
-1.02515e-05
-1.02514e-05
-1.02515e-05
-1.02325e-05
-1.02324e-05
-1.02324e-05
-1.02324e-05
-1.02324e-05
-1.02132e-05
-1.02132e-05
-1.02132e-05
-1.02132e-05
-1.02132e-05
-1.01938e-05
-1.01937e-05
-1.01937e-05
-1.01937e-05
-1.01937e-05
-1.01741e-05
-1.01741e-05
-1.01741e-05
-1.0174e-05
-1.01741e-05
-1.01542e-05
-1.01542e-05
-1.01542e-05
-1.01542e-05
-1.01542e-05
-1.01341e-05
-1.01341e-05
-1.01341e-05
-1.01341e-05
-1.01341e-05
-1.01138e-05
-1.01137e-05
-1.01138e-05
-1.01137e-05
-1.01137e-05
-1.00932e-05
-1.00932e-05
-1.00932e-05
-1.00932e-05
-1.00932e-05
-1.00724e-05
-1.00724e-05
-1.00724e-05
-1.00724e-05
-1.00724e-05
-1.00514e-05
-1.00514e-05
-1.00514e-05
-1.00514e-05
-1.00514e-05
-1.00301e-05
-1.00302e-05
-1.00302e-05
-1.00301e-05
-1.00301e-05
-1.00087e-05
-1.00087e-05
-1.00087e-05
-1.00087e-05
-1.00087e-05
-9.98697e-06
-9.98696e-06
-9.98695e-06
-9.98696e-06
-9.98697e-06
)
;

boundaryField
{
    BotWall
    {
        type            fixedFluxPressure;
        gradient        uniform 0;
        value           nonuniform List<scalar> 5(0.538418 0.538491 0.538489 0.538491 0.538418);
    }
    FreeStream
    {
        type            totalPressure;
        rho             rho;
        psi             none;
        gamma           1;
        p0              uniform 0;
        value           nonuniform List<scalar> 5(-9.97608e-06 -9.97604e-06 -9.97601e-06 -9.97603e-06 -9.97608e-06);
    }
    FrontNBack
    {
        type            empty;
    }
    LeftSide
    {
        type            symmetryPlane;
    }
    RightSide
    {
        type            symmetryPlane;
    }
}


// ************************************************************************* //
