/*--------------------------------*- C++ -*----------------------------------*\
| =========                 |                                                 |
| \\      /  F ield         | OpenFOAM: The Open Source CFD Toolbox           |
|  \\    /   O peration     | Version:  2.4.0                                 |
|   \\  /    A nd           | Web:      www.OpenFOAM.org                      |
|    \\/     M anipulation  |                                                 |
\*---------------------------------------------------------------------------*/
FoamFile
{
    version     2.0;
    format      ascii;
    class       surfaceScalarField;
    location    "2.2";
    object      phi;
}
// * * * * * * * * * * * * * * * * * * * * * * * * * * * * * * * * * * * * * //

dimensions      [0 3 -1 0 0 0 0];

internalField   nonuniform List<scalar> 
895
(
2.15274e-18
-2.15289e-18
1.40437e-18
7.47693e-19
-1.40243e-18
2.80587e-18
-2.1802e-18
7.76895e-19
-2.18099e-18
6.63212e-18
-8.79157e-18
4.28859e-18
3.08023e-18
-4.28253e-18
1.13614e-17
-6.71583e-18
3.19783e-18
-8.90583e-18
1.13233e-17
-2.01226e-17
7.29037e-18
7.10082e-18
-7.28146e-18
2.59163e-17
-1.1466e-17
7.36921e-18
-2.03811e-17
1.62359e-17
-3.63672e-17
1.04241e-17
1.28995e-17
-1.04132e-17
4.67357e-17
-1.64419e-17
1.33842e-17
-3.68323e-17
2.13668e-17
-5.77431e-17
1.36906e-17
2.0562e-17
-1.36784e-17
7.40863e-17
-2.16385e-17
2.13305e-17
-5.848e-17
2.67431e-17
-8.44955e-17
1.71031e-17
3.01881e-17
-1.70901e-17
1.08261e-16
-2.70829e-17
3.13095e-17
-8.5572e-17
3.23594e-17
-1.16864e-16
2.06606e-17
4.1873e-17
-2.06473e-17
1.49551e-16
-3.27703e-17
4.34189e-17
-1.18351e-16
3.82468e-17
-1.5512e-16
2.43792e-17
5.57272e-17
-2.4366e-17
1.98278e-16
-3.8732e-17
5.77719e-17
-1.57091e-16
4.43995e-17
-1.99529e-16
2.82562e-17
7.18576e-17
-2.82436e-17
2.54761e-16
-4.49625e-17
7.44785e-17
-2.02062e-16
5.08518e-17
-2.50389e-16
3.23093e-17
9.03879e-17
-3.2298e-17
3.19353e-16
-5.14962e-17
9.36652e-17
-2.53565e-16
5.75843e-17
-3.07982e-16
3.65376e-17
1.11423e-16
-3.65281e-17
3.92404e-16
-5.8314e-17
1.15441e-16
-3.11885e-16
6.46144e-17
-3.72604e-16
4.0965e-17
1.35063e-16
-4.0958e-17
4.74315e-16
-6.54331e-17
1.39907e-16
-3.77323e-16
7.19601e-17
-4.4457e-16
4.55919e-17
1.61423e-16
-4.55884e-17
5.65484e-16
-7.28719e-17
1.67183e-16
-4.502e-16
7.98612e-17
-5.24437e-16
5.04613e-17
1.90816e-16
-5.04622e-17
6.664e-16
-8.08702e-17
1.97586e-16
-5.31073e-16
8.86185e-17
-6.13058e-16
5.53632e-17
2.24067e-16
-5.53693e-17
7.77127e-16
-8.97309e-17
2.31944e-16
-6.20805e-16
9.79282e-17
-7.9822e-16
6.09908e-17
2.61004e-16
-6.09932e-17
8.99111e-16
-9.91709e-17
2.70121e-16
-8.08314e-16
1.05048e-16
-2.95819e-10
6.75424e-17
-2.9582e-10
-6.75175e-17
-2.95821e-10
-1.06456e-16
-2.9582e-10
-2.95819e-10
1.06982e-16
-2.95819e-10
6.73418e-17
-2.9582e-10
-6.73574e-17
-2.95821e-10
-1.08348e-16
-2.9582e-10
-2.95819e-10
1.11589e-16
-2.95819e-10
6.648e-17
-2.9582e-10
-6.63948e-17
-2.95821e-10
-1.12917e-16
-2.9582e-10
-2.95819e-10
1.021e-16
-2.95819e-10
6.46313e-17
-2.9582e-10
-6.44558e-17
-2.95821e-10
-1.03345e-16
-2.9582e-10
-2.95819e-10
9.73383e-17
-2.95819e-10
6.19891e-17
-2.9582e-10
-6.17202e-17
-2.95821e-10
-9.85084e-17
-2.9582e-10
-2.95819e-10
9.43258e-17
-2.95819e-10
5.94966e-17
-2.9582e-10
-5.9134e-17
-2.9582e-10
-9.54267e-17
-2.9582e-10
-2.95819e-10
9.10349e-17
-2.95819e-10
5.72565e-17
-2.9582e-10
-5.6802e-17
-2.9582e-10
-9.20675e-17
-2.9582e-10
-2.95819e-10
8.7381e-17
-2.95819e-10
5.50731e-17
-2.9582e-10
-5.4529e-17
-2.9582e-10
-8.83452e-17
-2.9582e-10
-2.95819e-10
8.37117e-17
-2.9582e-10
5.28801e-17
-2.9582e-10
-5.22486e-17
-2.9582e-10
-8.46077e-17
-2.9582e-10
-2.9582e-10
8.01454e-17
-2.9582e-10
5.06965e-17
-2.9582e-10
-4.99798e-17
-2.9582e-10
-8.09734e-17
-2.9582e-10
-2.9582e-10
7.6662e-17
-2.9582e-10
4.85434e-17
-2.9582e-10
-4.77439e-17
-2.9582e-10
-7.74227e-17
-2.9582e-10
-2.9582e-10
7.32359e-17
-2.9582e-10
4.64262e-17
-2.9582e-10
-4.55461e-17
-2.9582e-10
-7.39297e-17
-2.9582e-10
-2.9582e-10
6.98625e-17
-2.9582e-10
4.43439e-17
-2.9582e-10
-4.33857e-17
-2.9582e-10
-7.04901e-17
-2.9582e-10
-2.9582e-10
6.65456e-17
-2.9582e-10
4.22961e-17
-2.9582e-10
-4.12624e-17
-2.9582e-10
-6.71075e-17
-2.9582e-10
-2.9582e-10
6.32884e-17
-2.9582e-10
4.02835e-17
-2.9582e-10
-3.91769e-17
-2.9582e-10
-6.37855e-17
-2.9582e-10
-2.9582e-10
6.00927e-17
-2.9582e-10
3.83072e-17
-2.9582e-10
-3.71304e-17
-2.95819e-10
-6.05258e-17
-2.9582e-10
-2.9582e-10
5.69597e-17
-2.9582e-10
3.63681e-17
-2.9582e-10
-3.51238e-17
-2.95819e-10
-5.73296e-17
-2.9582e-10
-2.9582e-10
5.38906e-17
-2.9582e-10
3.44671e-17
-2.9582e-10
-3.31582e-17
-2.95819e-10
-5.41983e-17
-2.9582e-10
-2.9582e-10
5.08867e-17
-2.9582e-10
3.2605e-17
-2.9582e-10
-3.12343e-17
-2.95819e-10
-5.11331e-17
-2.9582e-10
-2.9582e-10
4.79492e-17
-2.9582e-10
3.07825e-17
-2.9582e-10
-2.9353e-17
-2.95819e-10
-4.81354e-17
-2.9582e-10
-2.9582e-10
4.5079e-17
-2.9582e-10
2.90003e-17
-2.9582e-10
-2.7515e-17
-2.95819e-10
-4.52061e-17
-2.9582e-10
-2.9582e-10
4.22772e-17
-2.9582e-10
2.72591e-17
-2.9582e-10
-2.5721e-17
-2.95819e-10
-4.23465e-17
-2.9582e-10
-2.9582e-10
3.95449e-17
-2.9582e-10
2.55596e-17
-2.9582e-10
-2.39717e-17
-2.95819e-10
-3.95575e-17
-2.9582e-10
-2.9582e-10
3.68827e-17
-2.9582e-10
2.39022e-17
-2.9582e-10
-2.22678e-17
-2.95819e-10
-3.684e-17
-2.9582e-10
-2.9582e-10
3.42916e-17
-2.9582e-10
2.22876e-17
-2.9582e-10
-2.06097e-17
-2.95819e-10
-3.41949e-17
-2.9582e-10
-2.9582e-10
3.17722e-17
-2.95821e-10
2.07161e-17
-2.9582e-10
-1.8998e-17
-2.95819e-10
-3.16229e-17
-2.9582e-10
-2.95821e-10
2.93251e-17
-2.95821e-10
1.91883e-17
-2.9582e-10
-1.74331e-17
-2.95819e-10
-2.91247e-17
-2.9582e-10
-2.95821e-10
2.69509e-17
-2.95821e-10
1.77045e-17
-2.9582e-10
-1.59154e-17
-2.95819e-10
-2.67009e-17
-2.9582e-10
-2.95821e-10
2.465e-17
-2.95821e-10
1.62649e-17
-2.9582e-10
-1.44453e-17
-2.95819e-10
-2.4352e-17
-2.9582e-10
-2.95821e-10
2.24227e-17
-2.95821e-10
1.487e-17
-2.9582e-10
-1.3023e-17
-2.95819e-10
-2.20784e-17
-2.95819e-10
-2.95821e-10
2.02695e-17
-2.95821e-10
1.35199e-17
-2.9582e-10
-1.16488e-17
-2.95819e-10
-1.98804e-17
-2.95819e-10
-2.95821e-10
1.81903e-17
-2.95821e-10
1.22148e-17
-2.9582e-10
-1.03228e-17
-2.95819e-10
-1.77583e-17
-2.95819e-10
-2.95821e-10
1.61855e-17
-2.95821e-10
1.09548e-17
-2.9582e-10
-9.04504e-18
-2.95819e-10
-1.57121e-17
-2.95819e-10
-2.95821e-10
1.42549e-17
-2.95821e-10
9.73999e-18
-2.9582e-10
-7.81567e-18
-2.95819e-10
-1.3742e-17
-2.95819e-10
-2.95821e-10
1.23985e-17
-2.95821e-10
8.57034e-18
-2.9582e-10
-6.63464e-18
-2.95819e-10
-1.1848e-17
-2.95819e-10
-2.95821e-10
1.06162e-17
-2.95821e-10
7.44583e-18
-2.9582e-10
-5.50188e-18
-2.95819e-10
-1.00298e-17
-2.95819e-10
-2.95821e-10
8.90766e-18
-2.95821e-10
6.36637e-18
-2.95819e-10
-4.41724e-18
-2.95819e-10
-8.28729e-18
-2.95819e-10
-2.95821e-10
7.27265e-18
-2.95821e-10
5.33181e-18
-2.95819e-10
-3.38053e-18
-2.95819e-10
-6.62016e-18
-2.95819e-10
-2.95821e-10
5.71071e-18
-2.95821e-10
4.34196e-18
-2.95819e-10
-2.39149e-18
-2.95819e-10
-5.02801e-18
-2.95819e-10
-2.95821e-10
4.22135e-18
-2.95821e-10
3.39654e-18
-2.95819e-10
-1.44981e-18
-2.95819e-10
-3.51035e-18
-2.95819e-10
-2.95821e-10
2.80399e-18
-2.95821e-10
2.49527e-18
-2.95819e-10
-5.55113e-19
-2.95819e-10
-2.0666e-18
-2.95819e-10
-2.95821e-10
1.45795e-18
-2.95821e-10
1.63779e-18
-2.95819e-10
2.93034e-19
-2.95819e-10
-6.96106e-19
-2.95819e-10
-2.95821e-10
1.82491e-19
-2.95821e-10
8.23678e-19
-2.95819e-10
1.09513e-18
-2.95819e-10
6.01896e-19
-2.95819e-10
-2.95821e-10
-1.02323e-18
-2.95821e-10
5.2481e-20
-2.95819e-10
1.85171e-18
-2.95819e-10
1.82824e-18
-2.95819e-10
-2.95821e-10
-2.16014e-18
-2.95821e-10
-6.76315e-19
-2.95819e-10
2.56341e-18
-2.95819e-10
2.98387e-18
-2.95819e-10
-2.95821e-10
-3.22923e-18
-2.95821e-10
-1.36327e-18
-2.9582e-10
3.23088e-18
-2.95819e-10
4.06978e-18
-2.95819e-10
-2.95821e-10
-4.23158e-18
-2.95821e-10
-2.00901e-18
-2.9582e-10
3.85485e-18
-2.95819e-10
5.08709e-18
-2.95819e-10
-2.95821e-10
-5.16836e-18
-2.95821e-10
-2.61419e-18
-2.9582e-10
4.43609e-18
-2.95819e-10
6.03698e-18
-2.95819e-10
-2.95821e-10
-6.04081e-18
-2.95821e-10
-3.17952e-18
-2.9582e-10
4.97546e-18
-2.95819e-10
6.92072e-18
-2.95819e-10
-2.95821e-10
-6.85025e-18
-2.95821e-10
-3.70577e-18
-2.9582e-10
5.47383e-18
-2.95819e-10
7.73967e-18
-2.95819e-10
-2.95821e-10
-7.59808e-18
-2.95821e-10
-4.19376e-18
-2.9582e-10
5.93217e-18
-2.95819e-10
8.49526e-18
-2.95819e-10
-2.95821e-10
-8.28577e-18
-2.95821e-10
-4.64433e-18
-2.9582e-10
6.35146e-18
-2.95819e-10
9.18903e-18
-2.95819e-10
-2.95821e-10
-8.91488e-18
-2.95821e-10
-5.05841e-18
-2.9582e-10
6.73278e-18
-2.95819e-10
9.82256e-18
-2.95819e-10
-2.95821e-10
-9.48704e-18
-2.95821e-10
-5.43695e-18
-2.9582e-10
7.07722e-18
-2.95819e-10
1.03975e-17
-2.95819e-10
-2.95821e-10
-1.00039e-17
-2.95821e-10
-5.78095e-18
-2.9582e-10
7.38595e-18
-2.95819e-10
1.09157e-17
-2.95819e-10
-2.95821e-10
-1.04674e-17
-2.95821e-10
-6.09148e-18
-2.9582e-10
7.66019e-18
-2.95819e-10
1.1379e-17
-2.95819e-10
-2.95821e-10
-1.08792e-17
-2.95821e-10
-6.36964e-18
-2.9582e-10
7.9012e-18
-2.95819e-10
1.17893e-17
-2.95819e-10
-2.95821e-10
-1.12414e-17
-2.95821e-10
-6.61657e-18
-2.9582e-10
8.11032e-18
-2.95819e-10
1.21486e-17
-2.95819e-10
-2.95821e-10
-1.15559e-17
-2.95821e-10
-6.83347e-18
-2.9582e-10
8.28891e-18
-2.95819e-10
1.24589e-17
-2.95819e-10
-2.95821e-10
-1.18248e-17
-2.95821e-10
-7.02161e-18
-2.9582e-10
8.4384e-18
-2.95819e-10
1.27226e-17
-2.95819e-10
-2.95821e-10
-1.20503e-17
-2.95821e-10
-7.18229e-18
-2.9582e-10
8.56028e-18
-2.95819e-10
1.29418e-17
-2.95819e-10
-2.95821e-10
-1.22347e-17
-2.95821e-10
-7.31684e-18
-2.9582e-10
8.65608e-18
-2.95819e-10
1.31188e-17
-2.95819e-10
-2.95821e-10
-1.23802e-17
-2.95821e-10
-7.4267e-18
-2.9582e-10
8.7274e-18
-2.95819e-10
1.32562e-17
-2.9582e-10
-2.95821e-10
-1.24894e-17
-2.95821e-10
-7.51332e-18
-2.9582e-10
8.77588e-18
-2.95819e-10
1.33564e-17
-2.9582e-10
-2.95821e-10
-1.25646e-17
-2.95821e-10
-7.57821e-18
-2.9582e-10
8.80323e-18
-2.95819e-10
1.34221e-17
-2.9582e-10
-2.95821e-10
-1.26085e-17
-2.95821e-10
-7.62297e-18
-2.9582e-10
8.81123e-18
-2.95819e-10
1.34559e-17
-2.9582e-10
-2.95821e-10
-1.26239e-17
-2.95821e-10
-7.64924e-18
-2.9582e-10
8.8017e-18
-2.95819e-10
1.34608e-17
-2.9582e-10
-2.9582e-10
-1.26135e-17
-2.95821e-10
-7.65872e-18
-2.9582e-10
8.77655e-18
-2.95819e-10
1.34395e-17
-2.9582e-10
-2.9582e-10
-1.25802e-17
-2.9582e-10
-7.65321e-18
-2.9582e-10
8.73773e-18
-2.95819e-10
1.33952e-17
-2.9582e-10
-2.9582e-10
-1.2527e-17
-2.9582e-10
-7.63455e-18
-2.9582e-10
8.68731e-18
-2.95819e-10
1.33311e-17
-2.9582e-10
-2.9582e-10
-1.24572e-17
-2.9582e-10
-7.6047e-18
-2.9582e-10
8.62738e-18
-2.95819e-10
1.32504e-17
-2.9582e-10
-2.9582e-10
-1.2374e-17
-2.9582e-10
-7.56567e-18
-2.9582e-10
8.56017e-18
-2.95819e-10
1.31566e-17
-2.9582e-10
-2.9582e-10
-1.22809e-17
-2.9582e-10
-7.51958e-18
-2.9582e-10
8.48797e-18
-2.95819e-10
1.30532e-17
-2.9582e-10
-2.9582e-10
-1.21814e-17
-2.9582e-10
-7.46867e-18
-2.9582e-10
8.41317e-18
-2.95819e-10
1.29441e-17
-2.9582e-10
-2.9582e-10
-1.20794e-17
-2.9582e-10
-7.41526e-18
-2.9582e-10
8.33827e-18
-2.95819e-10
1.28331e-17
-2.9582e-10
-2.9582e-10
-1.19788e-17
-2.9582e-10
-7.36181e-18
-2.9582e-10
8.26589e-18
-2.95819e-10
1.27244e-17
-2.9582e-10
-2.9582e-10
-1.18839e-17
-2.9582e-10
-7.31092e-18
-2.9582e-10
8.19878e-18
-2.95819e-10
1.26224e-17
-2.9582e-10
-2.9582e-10
-1.1799e-17
-2.9582e-10
-7.26532e-18
-2.9582e-10
8.13982e-18
-2.95819e-10
1.25317e-17
-2.9582e-10
-2.9582e-10
-1.17288e-17
-2.9582e-10
-7.22791e-18
-2.9582e-10
8.09205e-18
-2.95819e-10
1.24571e-17
-2.9582e-10
-2.9582e-10
-1.16783e-17
-2.9582e-10
-7.20173e-18
-2.9582e-10
8.05864e-18
-2.95819e-10
1.24037e-17
-2.9582e-10
-2.9582e-10
-1.16526e-17
-2.9582e-10
-7.18996e-18
-2.9582e-10
8.04289e-18
-2.95819e-10
1.23769e-17
-2.9582e-10
-2.9582e-10
-1.16574e-17
-2.9582e-10
-7.19618e-18
-2.9582e-10
8.04847e-18
-2.95819e-10
1.23826e-17
-2.9582e-10
-2.9582e-10
-1.17005e-17
-2.9582e-10
-7.22519e-18
-2.9582e-10
8.08031e-18
-2.95819e-10
1.24288e-17
-2.9582e-10
-2.9582e-10
-1.17926e-17
-7.28421e-18
8.1451e-18
1.25273e-17
)
;

boundaryField
{
    BotWall
    {
        type            calculated;
        value           nonuniform List<scalar> 5(2.89406e-22 4.78067e-22 7.69117e-22 6.13438e-22 4.94154e-22);
    }
    FreeStream
    {
        type            calculated;
        value           nonuniform List<scalar> 5(-2.9582e-10 -2.9582e-10 -2.95819e-10 -2.9582e-10 -2.9582e-10);
    }
    FrontNBack
    {
        type            empty;
        value           nonuniform 0();
    }
    LeftSide
    {
        type            symmetryPlane;
        value           uniform 0;
    }
    RightSide
    {
        type            symmetryPlane;
        value           uniform 0;
    }
}


// ************************************************************************* //
