/*--------------------------------*- C++ -*----------------------------------*\
| =========                 |                                                 |
| \\      /  F ield         | OpenFOAM: The Open Source CFD Toolbox           |
|  \\    /   O peration     | Version:  2.4.0                                 |
|   \\  /    A nd           | Web:      www.OpenFOAM.org                      |
|    \\/     M anipulation  |                                                 |
\*---------------------------------------------------------------------------*/
FoamFile
{
    version     2.0;
    format      ascii;
    class       volVectorField;
    location    "2.2";
    object      U;
}
// * * * * * * * * * * * * * * * * * * * * * * * * * * * * * * * * * * * * * //

dimensions      [0 1 -1 0 0 0 0];

internalField   nonuniform List<vector> 
500
(
(5.69168e-10 2.92734e-10 0)
(1.01237e-09 3.00186e-10 0)
(4.64614e-12 3.02124e-10 0)
(-1.02022e-09 3.00218e-10 0)
(-5.81375e-10 2.92718e-10 0)
(1.73306e-09 -7.25656e-10 0)
(3.06723e-09 -7.07768e-10 0)
(1.40242e-11 -6.86297e-10 0)
(-3.0909e-09 -7.07474e-10 0)
(-1.76988e-09 -7.25964e-10 0)
(2.92876e-09 1.27819e-09 0)
(5.16376e-09 1.38929e-09 0)
(2.33064e-11 1.4515e-09 0)
(-5.2039e-09 1.39019e-09 0)
(-2.99075e-09 1.27736e-09 0)
(4.16053e-09 -2.02147e-09 0)
(7.30671e-09 -1.86795e-09 0)
(3.25411e-11 -1.74161e-09 0)
(-7.36412e-09 -1.86616e-09 0)
(-4.24844e-09 -2.02321e-09 0)
(5.42554e-09 1.10878e-09 0)
(9.49381e-09 1.45562e-09 0)
(4.18073e-11 1.66775e-09 0)
(-9.56895e-09 1.45867e-09 0)
(-5.53987e-09 1.10588e-09 0)
(6.7305e-09 -5.02097e-09 0)
(1.17323e-08 -4.59314e-09 0)
(5.11181e-11 -4.26979e-09 0)
(-1.18255e-08 -4.58851e-09 0)
(-6.87167e-09 -5.02543e-09 0)
(8.07137e-09 6.18061e-09 0)
(1.40188e-08 6.91596e-09 0)
(6.04852e-11 7.3738e-09 0)
(-1.41306e-08 6.92256e-09 0)
(-8.23991e-09 6.17431e-09 0)
(9.45615e-09 2.05138e-08 0)
(1.63617e-08 2.13864e-08 0)
(6.99256e-11 2.20087e-08 0)
(-1.64926e-08 2.13954e-08 0)
(-9.65267e-09 2.05052e-08 0)
(1.088e-08 5.0525e-08 0)
(1.8757e-08 5.1794e-08 0)
(7.94687e-11 5.26067e-08 0)
(-1.89074e-08 5.18057e-08 0)
(-1.11051e-08 5.05137e-08 0)
(1.23514e-08 -9.20215e-08 0)
(2.12135e-08 -9.0721e-08 0)
(8.91154e-11 -8.96988e-08 0)
(-2.13842e-08 -9.07064e-08 0)
(-1.26059e-08 -9.20357e-08 0)
(1.38635e-08 -6.58275e-07 0)
(2.37252e-08 -6.56708e-07 0)
(9.8868e-11 -6.555e-07 0)
(-2.39167e-08 -6.56691e-07 0)
(-1.41482e-08 -6.58291e-07 0)
(1.54257e-08 -1.21748e-06 0)
(2.63011e-08 -1.21538e-06 0)
(1.0874e-10 -1.21399e-06 0)
(-2.6514e-08 -1.21535e-06 0)
(-1.57412e-08 -1.2175e-06 0)
(1.7042e-08 2.28556e-06 0)
(2.89461e-08 2.29092e-06 0)
(1.18746e-10 2.29283e-06 0)
(-2.91811e-08 2.29095e-06 0)
(-1.73893e-08 2.28553e-06 0)
(1.87494e-08 1.73705e-05 0)
(3.17031e-08 1.73808e-05 0)
(1.28952e-10 1.73845e-05 0)
(-3.1961e-08 1.73809e-05 0)
(-1.91295e-08 1.73704e-05 0)
(2.05457e-08 3.14139e-05 0)
(3.45695e-08 3.14222e-05 0)
(1.39417e-10 3.14294e-05 0)
(-3.48512e-08 3.14223e-05 0)
(-2.09599e-08 3.14137e-05 0)
(2.23297e-08 -6.14428e-05 0)
(3.75088e-08 -6.14738e-05 0)
(1.50669e-10 -6.1475e-05 0)
(-3.78163e-08 -6.14738e-05 0)
(-2.27807e-08 -6.14427e-05 0)
(2.36641e-08 -0.000452082 0)
(3.9916e-08 -0.000452133 0)
(1.61286e-10 -0.000452151 0)
(-4.02474e-08 -0.000452133 0)
(-2.41495e-08 -0.000452081 0)
(2.409e-08 -0.00107397 0)
(4.04846e-08 -0.00107394 0)
(1.62652e-10 -0.00107394 0)
(-4.08193e-08 -0.00107394 0)
(-2.45801e-08 -0.00107398 0)
(2.43456e-08 -0.00247865 0)
(4.02208e-08 -0.0024786 0)
(1.77544e-10 -0.00247859 0)
(-4.0529e-08 -0.0024786 0)
(-2.48228e-08 -0.00247865 0)
(2.267e-08 -0.00153794 0)
(3.78121e-08 -0.00153799 0)
(1.90617e-10 -0.001538 0)
(-3.80893e-08 -0.00153799 0)
(-2.31278e-08 -0.00153794 0)
(2.13899e-08 -0.00142919 0)
(3.58176e-08 -0.00142921 0)
(2.02801e-10 -0.00142921 0)
(-3.60646e-08 -0.00142921 0)
(-2.18286e-08 -0.00142919 0)
(2.03827e-08 -0.00144932 0)
(3.41257e-08 -0.00144932 0)
(2.14402e-10 -0.00144932 0)
(-3.43436e-08 -0.00144932 0)
(-2.08027e-08 -0.00144932 0)
(1.94183e-08 -0.00147582 0)
(3.25007e-08 -0.00147582 0)
(2.25342e-10 -0.00147582 0)
(-3.26905e-08 -0.00147582 0)
(-1.98201e-08 -0.00147582 0)
(1.84372e-08 -0.00148137 0)
(3.08776e-08 -0.00148137 0)
(2.35579e-10 -0.00148137 0)
(-3.10402e-08 -0.00148137 0)
(-1.8821e-08 -0.00148137 0)
(1.74683e-08 -0.00148029 0)
(2.92845e-08 -0.00148029 0)
(2.45109e-10 -0.00148029 0)
(-2.94207e-08 -0.00148029 0)
(-1.78344e-08 -0.00148029 0)
(1.65315e-08 -0.00147923 0)
(2.77412e-08 -0.00147923 0)
(2.53943e-10 -0.00147923 0)
(-2.78519e-08 -0.00147923 0)
(-1.68801e-08 -0.00147923 0)
(1.56283e-08 -0.001479 0)
(2.62496e-08 -0.001479 0)
(2.6209e-10 -0.001479 0)
(-2.63357e-08 -0.001479 0)
(-1.59598e-08 -0.001479 0)
(1.4756e-08 -0.00147905 0)
(2.48068e-08 -0.00147905 0)
(2.69558e-10 -0.00147905 0)
(-2.48691e-08 -0.00147905 0)
(-1.50706e-08 -0.00147905 0)
(1.39129e-08 -0.00147909 0)
(2.34108e-08 -0.00147909 0)
(2.76355e-10 -0.00147909 0)
(-2.34503e-08 -0.00147909 0)
(-1.42107e-08 -0.00147909 0)
(1.30984e-08 -0.0014791 0)
(2.20611e-08 -0.0014791 0)
(2.82492e-10 -0.0014791 0)
(-2.20786e-08 -0.0014791 0)
(-1.33799e-08 -0.0014791 0)
(1.23123e-08 -0.0014791 0)
(2.07573e-08 -0.0014791 0)
(2.87977e-10 -0.0014791 0)
(-2.07536e-08 -0.0014791 0)
(-1.25779e-08 -0.0014791 0)
(1.15545e-08 -0.0014791 0)
(1.94988e-08 -0.0014791 0)
(2.92822e-10 -0.0014791 0)
(-1.94749e-08 -0.0014791 0)
(-1.18043e-08 -0.0014791 0)
(1.08243e-08 -0.0014791 0)
(1.82852e-08 -0.0014791 0)
(2.97038e-10 -0.0014791 0)
(-1.82419e-08 -0.0014791 0)
(-1.10587e-08 -0.0014791 0)
(1.01214e-08 -0.0014791 0)
(1.71156e-08 -0.0014791 0)
(3.00638e-10 -0.0014791 0)
(-1.70539e-08 -0.0014791 0)
(-1.03408e-08 -0.0014791 0)
(9.44539e-09 -0.0014791 0)
(1.59896e-08 -0.0014791 0)
(3.03634e-10 -0.0014791 0)
(-1.59103e-08 -0.0014791 0)
(-9.64999e-09 -0.0014791 0)
(8.79576e-09 -0.0014791 0)
(1.49064e-08 -0.0014791 0)
(3.06039e-10 -0.0014791 0)
(-1.48104e-08 -0.0014791 0)
(-8.98597e-09 -0.0014791 0)
(8.17207e-09 -0.0014791 0)
(1.38654e-08 -0.0014791 0)
(3.07867e-10 -0.0014791 0)
(-1.37535e-08 -0.0014791 0)
(-8.34824e-09 -0.0014791 0)
(7.57386e-09 -0.0014791 0)
(1.28659e-08 -0.0014791 0)
(3.09134e-10 -0.0014791 0)
(-1.2739e-08 -0.0014791 0)
(-7.73633e-09 -0.0014791 0)
(7.00063e-09 -0.0014791 0)
(1.19071e-08 -0.0014791 0)
(3.09854e-10 -0.0014791 0)
(-1.17661e-08 -0.0014791 0)
(-7.14978e-09 -0.0014791 0)
(6.45191e-09 -0.0014791 0)
(1.09883e-08 -0.0014791 0)
(3.10043e-10 -0.0014791 0)
(-1.08341e-08 -0.0014791 0)
(-6.58811e-09 -0.0014791 0)
(5.92721e-09 -0.0014791 0)
(1.01089e-08 -0.0014791 0)
(3.09718e-10 -0.00147909 0)
(-9.94216e-09 -0.0014791 0)
(-6.05083e-09 -0.0014791 0)
(5.42603e-09 -0.0014791 0)
(9.2679e-09 -0.0014791 0)
(3.08894e-10 -0.00147909 0)
(-9.0896e-09 -0.0014791 0)
(-5.53744e-09 -0.0014791 0)
(4.94785e-09 -0.0014791 0)
(8.46469e-09 -0.0014791 0)
(3.0759e-10 -0.00147909 0)
(-8.2756e-09 -0.0014791 0)
(-5.04745e-09 -0.0014791 0)
(4.49217e-09 -0.0014791 0)
(7.69844e-09 -0.0014791 0)
(3.05824e-10 -0.00147909 0)
(-7.49937e-09 -0.0014791 0)
(-4.58033e-09 -0.0014791 0)
(4.05846e-09 -0.0014791 0)
(6.96835e-09 -0.0014791 0)
(3.03612e-10 -0.00147909 0)
(-6.76009e-09 -0.0014791 0)
(-4.13558e-09 -0.0014791 0)
(3.64621e-09 -0.0014791 0)
(6.2736e-09 -0.0014791 0)
(3.00975e-10 -0.00147909 0)
(-6.05694e-09 -0.0014791 0)
(-3.71267e-09 -0.0014791 0)
(3.25488e-09 -0.0014791 0)
(5.61338e-09 -0.0014791 0)
(2.97931e-10 -0.00147909 0)
(-5.38909e-09 -0.0014791 0)
(-3.31108e-09 -0.0014791 0)
(2.88393e-09 -0.0014791 0)
(4.98685e-09 -0.0014791 0)
(2.94499e-10 -0.00147909 0)
(-4.75568e-09 -0.0014791 0)
(-2.93028e-09 -0.0014791 0)
(2.53285e-09 -0.0014791 0)
(4.39319e-09 -0.0014791 0)
(2.90699e-10 -0.00147909 0)
(-4.15587e-09 -0.0014791 0)
(-2.56973e-09 -0.0014791 0)
(2.20108e-09 -0.0014791 0)
(3.83153e-09 -0.0014791 0)
(2.86551e-10 -0.00147909 0)
(-3.58879e-09 -0.0014791 0)
(-2.22889e-09 -0.0014791 0)
(1.88809e-09 -0.0014791 0)
(3.30104e-09 -0.0014791 0)
(2.82075e-10 -0.00147909 0)
(-3.05358e-09 -0.0014791 0)
(-1.90723e-09 -0.0014791 0)
(1.59334e-09 -0.0014791 0)
(2.80084e-09 -0.0014791 0)
(2.77291e-10 -0.00147909 0)
(-2.54934e-09 -0.0014791 0)
(-1.6042e-09 -0.0014791 0)
(1.31627e-09 -0.0014791 0)
(2.33009e-09 -0.0014791 0)
(2.72221e-10 -0.00147909 0)
(-2.07522e-09 -0.0014791 0)
(-1.31926e-09 -0.0014791 0)
(1.05636e-09 -0.0014791 0)
(1.88791e-09 -0.0014791 0)
(2.66884e-10 -0.00147909 0)
(-1.63031e-09 -0.0014791 0)
(-1.05186e-09 -0.0014791 0)
(8.13051e-10 -0.0014791 0)
(1.47344e-09 -0.0014791 0)
(2.61302e-10 -0.00147909 0)
(-1.21373e-09 -0.0014791 0)
(-8.01461e-10 -0.0014791 0)
(5.85806e-10 -0.0014791 0)
(1.0858e-09 -0.0014791 0)
(2.55496e-10 -0.00147909 0)
(-8.24581e-10 -0.0014791 0)
(-5.67511e-10 -0.0014791 0)
(3.74081e-10 -0.0014791 0)
(7.24123e-10 -0.0014791 0)
(2.49486e-10 -0.00147909 0)
(-4.61979e-10 -0.0014791 0)
(-3.49468e-10 -0.0014791 0)
(1.77338e-10 -0.0014791 0)
(3.87541e-10 -0.0014791 0)
(2.43294e-10 -0.00147909 0)
(-1.25027e-10 -0.0014791 0)
(-1.46786e-10 -0.0014791 0)
(-4.96144e-12 -0.0014791 0)
(7.51829e-11 -0.0014791 0)
(2.36941e-10 -0.00147909 0)
(1.8717e-10 -0.0014791 0)
(4.10758e-11 -0.0014791 0)
(-1.73353e-10 -0.0014791 0)
(-2.13821e-10 -0.0014791 0)
(2.30447e-10 -0.00147909 0)
(4.75504e-10 -0.0014791 0)
(2.14659e-10 -0.0014791 0)
(-3.28368e-10 -0.0014791 0)
(-4.80335e-10 -0.0014791 0)
(2.23833e-10 -0.00147909 0)
(7.40865e-10 -0.0014791 0)
(3.74501e-10 -0.0014791 0)
(-4.70537e-10 -0.0014791 0)
(-7.25223e-10 -0.0014791 0)
(2.17121e-10 -0.00147909 0)
(9.84142e-10 -0.0014791 0)
(5.21137e-10 -0.0014791 0)
(-6.00383e-10 -0.0014791 0)
(-9.49343e-10 -0.0014791 0)
(2.10329e-10 -0.00147909 0)
(1.20622e-09 -0.0014791 0)
(6.551e-10 -0.0014791 0)
(-7.18427e-10 -0.0014791 0)
(-1.15355e-09 -0.0014791 0)
(2.03479e-10 -0.00147909 0)
(1.40797e-09 -0.0014791 0)
(7.76916e-10 -0.0014791 0)
(-8.25186e-10 -0.0014791 0)
(-1.33869e-09 -0.0014791 0)
(1.96591e-10 -0.00147909 0)
(1.59028e-09 -0.0014791 0)
(8.87111e-10 -0.0014791 0)
(-9.2117e-10 -0.0014791 0)
(-1.5056e-09 -0.0014791 0)
(1.89684e-10 -0.00147909 0)
(1.75401e-09 -0.0014791 0)
(9.86204e-10 -0.0014791 0)
(-1.00689e-09 -0.0014791 0)
(-1.65513e-09 -0.0014791 0)
(1.82778e-10 -0.00147909 0)
(1.90002e-09 -0.0014791 0)
(1.07471e-09 -0.0014791 0)
(-1.08283e-09 -0.0014791 0)
(-1.7881e-09 -0.0014791 0)
(1.75891e-10 -0.00147909 0)
(2.02918e-09 -0.0014791 0)
(1.15314e-09 -0.0014791 0)
(-1.1495e-09 -0.0014791 0)
(-1.90532e-09 -0.0014791 0)
(1.69042e-10 -0.00147909 0)
(2.14232e-09 -0.0014791 0)
(1.22199e-09 -0.0014791 0)
(-1.20739e-09 -0.0014791 0)
(-2.00762e-09 -0.0014791 0)
(1.6225e-10 -0.00147909 0)
(2.24029e-09 -0.0014791 0)
(1.28177e-09 -0.0014791 0)
(-1.25697e-09 -0.0014791 0)
(-2.0958e-09 -0.0014791 0)
(1.55532e-10 -0.00147909 0)
(2.32391e-09 -0.0014791 0)
(1.33297e-09 -0.0014791 0)
(-1.29873e-09 -0.0014791 0)
(-2.17065e-09 -0.0014791 0)
(1.48905e-10 -0.00147909 0)
(2.39402e-09 -0.0014791 0)
(1.37608e-09 -0.0014791 0)
(-1.33313e-09 -0.0014791 0)
(-2.23295e-09 -0.0014791 0)
(1.42386e-10 -0.00147909 0)
(2.45142e-09 -0.0014791 0)
(1.41157e-09 -0.0014791 0)
(-1.36063e-09 -0.0014791 0)
(-2.28349e-09 -0.0014791 0)
(1.3599e-10 -0.00147909 0)
(2.49692e-09 -0.0014791 0)
(1.43993e-09 -0.0014791 0)
(-1.38169e-09 -0.0014791 0)
(-2.32303e-09 -0.0014791 0)
(1.29734e-10 -0.00147909 0)
(2.53131e-09 -0.0014791 0)
(1.46161e-09 -0.0014791 0)
(-1.39677e-09 -0.0014791 0)
(-2.35232e-09 -0.0014791 0)
(1.23632e-10 -0.00147909 0)
(2.55537e-09 -0.0014791 0)
(1.47709e-09 -0.0014791 0)
(-1.40629e-09 -0.0014791 0)
(-2.37212e-09 -0.0014791 0)
(1.17698e-10 -0.00147909 0)
(2.56988e-09 -0.0014791 0)
(1.48682e-09 -0.0014791 0)
(-1.41071e-09 -0.0014791 0)
(-2.38316e-09 -0.0014791 0)
(1.11945e-10 -0.00147909 0)
(2.5756e-09 -0.0014791 0)
(1.49126e-09 -0.0014791 0)
(-1.41046e-09 -0.0014791 0)
(-2.38617e-09 -0.0014791 0)
(1.06386e-10 -0.00147909 0)
(2.57329e-09 -0.0014791 0)
(1.49083e-09 -0.0014791 0)
(-1.40595e-09 -0.0014791 0)
(-2.38187e-09 -0.0014791 0)
(1.01033e-10 -0.00147909 0)
(2.56369e-09 -0.0014791 0)
(1.486e-09 -0.0014791 0)
(-1.39761e-09 -0.0014791 0)
(-2.37097e-09 -0.0014791 0)
(9.58972e-11 -0.00147909 0)
(2.54754e-09 -0.0014791 0)
(1.47718e-09 -0.0014791 0)
(-1.38585e-09 -0.0014791 0)
(-2.35417e-09 -0.0014791 0)
(9.09882e-11 -0.00147909 0)
(2.52556e-09 -0.0014791 0)
(1.46481e-09 -0.0014791 0)
(-1.37109e-09 -0.0014791 0)
(-2.33216e-09 -0.0014791 0)
(8.63157e-11 -0.00147909 0)
(2.49847e-09 -0.0014791 0)
(1.44931e-09 -0.0014791 0)
(-1.35371e-09 -0.0014791 0)
(-2.30564e-09 -0.0014791 0)
(8.1888e-11 -0.00147909 0)
(2.46699e-09 -0.0014791 0)
(1.43111e-09 -0.0014791 0)
(-1.33414e-09 -0.0014791 0)
(-2.27528e-09 -0.0014791 0)
(7.77126e-11 -0.00147909 0)
(2.4318e-09 -0.0014791 0)
(1.41061e-09 -0.0014791 0)
(-1.31276e-09 -0.0014791 0)
(-2.24175e-09 -0.0014791 0)
(7.37961e-11 -0.00147909 0)
(2.39362e-09 -0.0014791 0)
(1.38824e-09 -0.0014791 0)
(-1.28998e-09 -0.0014791 0)
(-2.20574e-09 -0.0014791 0)
(7.01441e-11 -0.00147909 0)
(2.35314e-09 -0.0014791 0)
(1.3644e-09 -0.0014791 0)
(-1.26618e-09 -0.0014791 0)
(-2.16789e-09 -0.0014791 0)
(6.67611e-11 -0.0014791 0)
(2.31103e-09 -0.0014791 0)
(1.33951e-09 -0.0014791 0)
(-1.24176e-09 -0.0014791 0)
(-2.12888e-09 -0.0014791 0)
(6.36506e-11 -0.0014791 0)
(2.26799e-09 -0.0014791 0)
(1.31397e-09 -0.0014791 0)
(-1.21711e-09 -0.0014791 0)
(-2.08937e-09 -0.0014791 0)
(6.0815e-11 -0.0014791 0)
(2.22469e-09 -0.0014791 0)
(1.28819e-09 -0.0014791 0)
(-1.19263e-09 -0.0014791 0)
(-2.05003e-09 -0.0014791 0)
(5.82557e-11 -0.0014791 0)
(2.18183e-09 -0.0014791 0)
(1.26259e-09 -0.0014791 0)
(-1.16871e-09 -0.0014791 0)
(-2.01152e-09 -0.0014791 0)
(5.5973e-11 -0.0014791 0)
(2.14008e-09 -0.0014791 0)
(1.23758e-09 -0.0014791 0)
(-1.14576e-09 -0.0014791 0)
(-1.97451e-09 -0.0014791 0)
(5.39657e-11 -0.0014791 0)
(2.10014e-09 -0.0014791 0)
(1.21359e-09 -0.0014791 0)
(-1.12418e-09 -0.0014791 0)
(-1.93969e-09 -0.0014791 0)
(5.22318e-11 -0.0014791 0)
(2.0627e-09 -0.0014791 0)
(1.19103e-09 -0.0014791 0)
(-1.1044e-09 -0.0014791 0)
(-1.90773e-09 -0.0014791 0)
(5.07678e-11 -0.0014791 0)
(2.02846e-09 -0.0014791 0)
(1.17034e-09 -0.0014791 0)
(-1.08683e-09 -0.0014791 0)
(-1.87934e-09 -0.0014791 0)
(4.95691e-11 -0.0014791 0)
(1.99814e-09 -0.0014791 0)
(1.15196e-09 -0.0014791 0)
(-1.0719e-09 -0.0014791 0)
(-1.85522e-09 -0.0014791 0)
(4.86294e-11 -0.0014791 0)
(1.97245e-09 -0.0014791 0)
(1.13635e-09 -0.0014791 0)
(-1.06009e-09 -0.0014791 0)
(-1.83615e-09 -0.0014791 0)
(4.79414e-11 -0.0014791 0)
(1.95219e-09 -0.0014791 0)
(1.124e-09 -0.0014791 0)
(-1.05196e-09 -0.0014791 0)
(-1.82303e-09 -0.0014791 0)
(4.74963e-11 -0.0014791 0)
(1.93829e-09 -0.0014791 0)
(1.11549e-09 -0.0014791 0)
(-1.04802e-09 -0.0014791 0)
(-1.8167e-09 -0.0014791 0)
(4.7283e-11 -0.0014791 0)
(1.93157e-09 -0.0014791 0)
(1.11136e-09 -0.0014791 0)
)
;

boundaryField
{
    BotWall
    {
        type            fixedValue;
        value           uniform (0 0 0);
    }
    FreeStream
    {
        type            zeroGradient;
    }
    FrontNBack
    {
        type            empty;
    }
    LeftSide
    {
        type            symmetryPlane;
    }
    RightSide
    {
        type            symmetryPlane;
    }
}


// ************************************************************************* //
