/*--------------------------------*- C++ -*----------------------------------*\
| =========                 |                                                 |
| \\      /  F ield         | OpenFOAM: The Open Source CFD Toolbox           |
|  \\    /   O peration     | Version:  2.4.0                                 |
|   \\  /    A nd           | Web:      www.OpenFOAM.org                      |
|    \\/     M anipulation  |                                                 |
\*---------------------------------------------------------------------------*/
FoamFile
{
    version     2.0;
    format      ascii;
    class       volScalarField;
    location    "3.7";
    object      H;
}
// * * * * * * * * * * * * * * * * * * * * * * * * * * * * * * * * * * * * * //

dimensions      [0 2 -2 0 0 0 0];

internalField   nonuniform List<scalar> 
8000
(
-11901.8
-11242.3
-10572.8
-9888.49
-9185.81
-8462.55
-7717.7
-6951.48
-6165.19
-5361.18
-4542.99
-3715.82
-2888.1
-2070.18
-1274.51
-423.101
-6.23042
-6.44216
-6.32606
-6.18903
-5.65812
-5.23157
-4.72537
-4.39695
-3.94643
-3.73944
-3.47228
-3.19995
-2.93637
-2.68491
-2.44661
-2.22204
-2.01166
-1.81597
-1.6353
-1.4698
-1.31935
-1.1836
-1.06198
-0.95374
-0.858008
-0.773809
-0.700118
-0.635895
-0.58011
-0.531765
-0.48992
-0.453752
-0.422446
-0.395291
-11893.3
-11215.5
-10525.1
-9815.86
-9082.95
-8323.05
-7534.35
-6716.52
-5870.8
-5000.43
-4111.17
-3211.88
-2314.34
-1424.38
-543.793
-17.4279
-9.1883
-6.58428
-6.42077
-6.06159
-5.63926
-5.22054
-4.93446
-4.68406
-4.41046
-4.1116
-3.80821
-3.50957
-3.21942
-2.93972
-2.67199
-2.41767
-2.17795
-1.9542
-1.74789
-1.5599
-1.39044
-1.23918
-1.10538
-0.988016
-0.885844
-0.797504
-0.721581
-0.65666
-0.601372
-0.554427
-0.514631
-0.480904
-0.452279
-0.427916
-11889.3
-11205.2
-10512.6
-9805.53
-9078.85
-8327.81
-7548.6
-6738.7
-5897.06
-5023.99
-4120.59
-3186.25
-2210.84
-1161.6
-14.3758
-7.78532
-4.80365
-4.3831
-4.40518
-4.06909
-3.83753
-3.68542
-3.52381
-3.36063
-3.16446
-2.93598
-2.69058
-2.44398
-2.20755
-1.98766
-1.78679
-1.60525
-1.44233
-1.29673
-1.16733
-1.05311
-0.95282
-0.865418
-0.789728
-0.724575
-0.668808
-0.621317
-0.581064
-0.547081
-0.518475
-0.494441
-0.474255
-0.45728
-0.442956
-0.430797
-11895.5
-11226.2
-10554.9
-9877.64
-9189.72
-8486.26
-7762.69
-7015.45
-6242.48
-5443.91
-4622.35
-3782.78
-2930.69
-2067.42
-1181.73
-23.5744
-2.85234
-0.33197
-1.06959
-1.29006
-1.3425
-1.39305
-1.43253
-1.42301
-1.36888
-1.28671
-1.19149
-1.09378
-1.00022
-0.914458
-0.838089
-0.771409
-0.714069
-0.665532
-0.624743
-0.590466
-0.561696
-0.537568
-0.517374
-0.500532
-0.486557
-0.475021
-0.465596
-0.457961
-0.451846
-0.447008
-0.44323
-0.440324
-0.438115
-0.436449
-11930.3
-11332.6
-10738.4
-10146.7
-9554.75
-8958.82
-8354.49
-7737.03
-7101.91
-6444.52
-5760.74
-5045.8
-4294.78
-3500.02
-2648.71
-1701.26
-688.013
-298.391
-8.43653
-0.875426
-0.248903
-0.0789593
-0.424179
-0.61295
-0.695252
-0.726851
-0.739039
-0.738847
-0.728058
-0.708868
-0.683898
-0.655649
-0.626148
-0.597008
-0.569409
-0.544091
-0.521423
-0.501535
-0.484457
-0.470131
-0.458435
-0.449181
-0.442167
-0.437211
-0.434078
-0.432545
-0.432364
-0.433359
-0.435319
-0.438057
-11962
-11427.4
-10896.7
-10370.5
-9848.5
-9329.21
-8810.41
-8289.18
-7762.15
-7225.56
-6675.64
-6108.81
-5522.14
-4913.02
-4278.86
-3619.96
-2943.25
-2247.95
-1540.14
-835.04
-154.492
-2.88082
-0.480866
-0.348571
-0.388674
-0.521147
-0.490927
-0.487158
-0.517412
-0.553113
-0.578853
-0.590057
-0.588919
-0.578557
-0.561941
-0.541416
-0.518743
-0.495347
-0.472568
-0.451721
-0.433907
-0.419528
-0.408646
-0.401041
-0.396391
-0.394419
-0.394811
-0.397259
-0.401477
-0.40719
-11992
-11517.9
-11048.6
-10585.4
-10129
-9678.95
-9234.62
-8794.73
-8357.76
-7921.93
-7485.32
-7045.87
-6601.53
-6150.23
-5690.05
-5219.22
-4736.4
-4240.73
-3732.04
-3210.65
-2676.92
-2130.71
-1573.49
-1002.35
-336.524
-64.1704
-1.36068
-0.17459
-0.232112
-0.207772
-0.266849
-0.283774
-0.290147
-0.296019
-0.300292
-0.304044
-0.305209
-0.303705
-0.300902
-0.298426
-0.297456
-0.297873
-0.299485
-0.302616
-0.307424
-0.313828
-0.321679
-0.330839
-0.341211
-0.352687
-12010.1
-11571.6
-11136.9
-10707.4
-10284.2
-9867.76
-9458.12
-9055.21
-8658.8
-8268.52
-7883.92
-7504.42
-7129.32
-6757.77
-6388.74
-6021.06
-5653.33
-5284
-4911.38
-4533.65
-4148.87
-3755.07
-3350.26
-2932.35
-2498.71
-2045.33
-1564.57
-1046.4
-506.915
-203.997
-2.90793
-0.0983975
-0.0520069
-0.00765373
-0.0837303
-0.102639
-0.108689
-0.114041
-0.123592
-0.134705
-0.147085
-0.160736
-0.175329
-0.190816
-0.207019
-0.223667
-0.240681
-0.258145
-0.276098
-0.294495
-12007.8
-11563.3
-11118.9
-10675.3
-10233.3
-9793.97
-9358.53
-8928.19
-8504.24
-8087.94
-7680.55
-7283.14
-6896.6
-6521.54
-6158.31
-5806.91
-5467.02
-5137.95
-4818.7
-4507.91
-4203.94
-3904.84
-3608.48
-3312.51
-3014.51
-2711.99
-2402.52
-2083.84
-1754.07
-1411.98
-1056.71
-690.163
-325.313
-4.42456
-0.116903
-0.0237842
-0.0174396
-0.0392277
-0.0501327
-0.0620662
-0.0729103
-0.0842245
-0.0986118
-0.114826
-0.132089
-0.150138
-0.169003
-0.188741
-0.20916
-0.230118
-11987.2
-11500.6
-11011.4
-10519.7
-10026.1
-9532.23
-9040.05
-8551.96
-8070.53
-7598.4
-7138.15
-6692.13
-6262.39
-5850.58
-5457.91
-5085.14
-4732.55
-4400.01
-4086.98
-3792.53
-3515.38
-3253.91
-3006.14
-2770.03
-2544.48
-2327.31
-2116.74
-1911.2
-1709.19
-1509.34
-1310.67
-1112.62
-915.064
-718.297
-523.412
-333.081
-154.181
-2.04459
-0.0582115
-0.0116772
-0.00122933
-0.0154752
-0.0347947
-0.0536163
-0.0710576
-0.0899028
-0.110056
-0.131261
-0.153403
-0.176234
-11957.6
-11411.6
-10862.6
-10310.3
-9755.75
-9200.99
-8648.69
-8102.01
-7564.41
-7039.39
-6530.29
-6040.18
-5571.69
-5126.92
-4707.39
-4314.06
-3947.29
-3606.9
-3292.25
-3002.3
-2735.67
-2490.78
-2265.88
-2059.13
-1868.71
-1692.8
-1529.7
-1377.82
-1235.71
-1102.05
-975.694
-855.636
-741.087
-631.518
-526.751
-426.985
-332.761
-245.21
-163.681
-85.0869
-6.23721
-0.0992514
-0.0179598
-0.00931429
-0.0223448
-0.0380362
-0.0595234
-0.0812626
-0.102294
-0.125416
-11930.4
-11330.4
-10728.8
-10125.9
-9523.2
-8923.18
-8328.89
-7743.85
-7171.78
-6616.35
-6081.05
-5568.94
-5082.62
-4624.08
-4194.66
-3795.13
-3425.62
-3085.73
-2774.62
-2491.04
-2233.47
-2000.17
-1789.29
-1598.92
-1427.17
-1272.2
-1132.27
-1005.74
-891.145
-787.138
-692.54
-606.316
-527.58
-455.587
-389.717
-329.469
-274.445
-224.337
-178.904
-137.873
-100.698
-67.3581
-36.4544
-10.4894
-0.138665
-0.0136938
-0.023087
-0.0338607
-0.0565595
-0.0845671
-11916.4
-11289.3
-10662.9
-10038.7
-9418.61
-8805.25
-8201.63
-7610.99
-7036.62
-6481.69
-5949.13
-5441.48
-4960.78
-4508.6
-4085.9
-3693.13
-3330.22
-2996.64
-2691.47
-2413.46
-2161.13
-1932.82
-1726.76
-1541.16
-1374.21
-1224.17
-1089.38
-968.266
-859.393
-761.435
-673.2
-593.617
-521.736
-456.717
-397.816
-344.375
-295.811
-251.606
-211.298
-174.471
-140.697
-109.939
-81.8364
-55.7946
-31.7127
-12.0246
-0.145909
-0.00204591
-0.0207719
-0.0460145
-11916.7
-11291.1
-10668.2
-10050.1
-9439.21
-8838.04
-8249.25
-7675.55
-7119.59
-6583.8
-6070.39
-5581.21
-5117.76
-4681.08
-4271.83
-3890.19
-3535.99
-3208.69
-2907.43
-2631.13
-2378.46
-2147.99
-1938.18
-1747.44
-1574.21
-1416.93
-1274.13
-1144.38
-1026.31
-918.796
-820.761
-731.233
-649.36
-574.393
-505.662
-442.579
-384.639
-331.418
-282.557
-237.758
-196.779
-159.429
-125.556
-95.0433
-67.7578
-43.3698
-21.1401
-0.243457
-0.00321717
-0.0345512
-11924.7
-11315.3
-10709.5
-10109.6
-9518.07
-8937.42
-8370.06
-7818.32
-7284.42
-6770.29
-6277.64
-5807.86
-5362.03
-4940.85
-4544.72
-4173.66
-3827.38
-3505.32
-3206.68
-2930.44
-2675.42
-2440.34
-2223.85
-2024.55
-1841.06
-1672.04
-1516.18
-1372.28
-1239.22
-1115.97
-1001.6
-895.279
-796.351
-704.206
-618.35
-538.39
-464.035
-395.053
-331.258
-272.498
-218.694
-169.792
-125.655
-86.2504
-52.0038
-21.9466
-0.222786
-0.00267072
-0.0336408
-0.0681338
-11932.8
-11339.8
-10751.1
-10169.3
-9597.11
-9036.77
-8490.56
-7960.5
-7448.46
-6955.97
-6484.31
-6034.47
-5607.13
-5202.65
-4821.1
-4462.27
-4125.65
-3810.56
-3516.11
-3241.25
-2984.83
-2745.65
-2522.45
-2313.99
-2119.04
-1936.44
-1765.11
-1604.04
-1452.34
-1309.21
-1173.99
-1046.12
-925.161
-810.809
-702.858
-601.188
-505.764
-416.686
-334.056
-257.736
-188.212
-126.394
-70.0288
-18.1474
-0.193207
-0.00352418
-0.000395042
-0.0343187
-0.0881471
-0.166678
-11939.4
-11359.9
-10785.3
-10218.5
-9662.28
-9119
-8590.76
-8079.43
-7586.53
-7113.25
-6660.48
-6228.77
-5818.36
-5429.2
-5060.96
-4713.1
-4384.81
-4075.18
-3783.16
-3507.62
-3247.38
-3001.26
-2768.1
-2546.79
-2336.3
-2135.69
-1944.1
-1760.8
-1585.15
-1416.66
-1254.95
-1099.84
-951.322
-809.577
-675.02
-547.98
-428.431
-318.104
-219.026
-123.692
-36.2599
-0.410082
-0.00916864
-0.00165635
-0.0254351
-0.063043
-0.133713
-0.222441
-0.321594
-0.425929
-11945.7
-11379.1
-10818.1
-10266
-9725.5
-9198.95
-8688.25
-8195.06
-7720.43
-7265.11
-6829.47
-6413.55
-6017.08
-5639.51
-5280.12
-4937.97
-4612
-4301.11
-4004.13
-3719.91
-3447.35
-3185.39
-2933.08
-2689.57
-2454.12
-2226.12
-2005.02
-1790.41
-1581.94
-1379.34
-1182.5
-991.798
-807.822
-631.505
-466.867
-315.904
-160.904
-23.1179
-0.287358
-0.0116653
-0.00321436
-0.0347761
-0.0826949
-0.159667
-0.260592
-0.33463
-0.440474
-0.542377
-0.64821
-0.755969
-11954.1
-11404.5
-10861.2
-10327.5
-9806.09
-9299.05
-8807.8
-8333.47
-7876.43
-7436.88
-7014.56
-6608.95
-6219.31
-5844.72
-5484.13
-5136.39
-4800.39
-4475.02
-4159.24
-3852.12
-3552.85
-3260.75
-2975.31
-2696.15
-2422.99
-2155.71
-1894.16
-1638.17
-1387.46
-1141.15
-897.552
-661.511
-431.914
-192.044
-2.16822
-0.0449095
-0.0121838
-0.00282741
-0.0656389
-0.147737
-0.240518
-0.360555
-0.435579
-0.533797
-0.641804
-0.743882
-0.839151
-0.931263
-1.02015
-1.10915
-11962
-11428.2
-10900.3
-10381.4
-9873.83
-9379.06
-8898.07
-8431.42
-7979.03
-7540.63
-7115.53
-6702.91
-6301.78
-5911.06
-5529.64
-5156.48
-4790.65
-4431.35
-4077.96
-3730.11
-3387.63
-3050.56
-2719.14
-2393.76
-2074.84
-1762.97
-1458.29
-1160.45
-872.569
-587.642
-244.33
-2.31437
-0.0532366
-0.0164463
-0.00238519
-0.123196
-0.246703
-0.393513
-0.469524
-0.584429
-0.683528
-0.786233
-0.889195
-0.984951
-1.07311
-1.15574
-1.2337
-1.30957
-1.38453
-1.45829
-0.371646
-0.350934
-0.332692
-0.316512
-0.302026
-0.288912
-0.276917
-0.26583
-0.255481
-0.245729
-0.236462
-0.227591
-0.219046
-0.210772
-0.202729
-0.194887
-0.187224
-0.179726
-0.172385
-0.165194
-0.158153
-0.151262
-0.144524
-0.137943
-0.131521
-0.125264
-0.119176
-0.113261
-0.107523
-0.101965
-0.0965898
-0.0913999
-0.0863966
-0.0815805
-0.0769519
-0.0725101
-0.0682539
-0.0641816
-0.0602908
-0.0565788
-0.0530421
-0.049677
-0.0464796
-0.0434454
-0.0405699
-0.0378482
-0.0352751
-0.0328451
-0.0305517
-0.0283873
-0.407087
-0.389152
-0.373567
-0.359872
-0.347681
-0.336691
-0.326636
-0.317302
-0.308515
-0.300131
-0.292047
-0.284182
-0.276465
-0.268844
-0.261295
-0.253779
-0.246296
-0.238833
-0.231385
-0.223953
-0.216542
-0.20916
-0.201815
-0.194518
-0.187282
-0.180116
-0.173034
-0.166047
-0.159165
-0.152401
-0.145764
-0.139263
-0.132908
-0.126706
-0.120664
-0.114788
-0.109083
-0.103553
-0.0982014
-0.0930305
-0.0880417
-0.0832359
-0.0786128
-0.0741719
-0.0699117
-0.0658301
-0.0619245
-0.058191
-0.0546236
-0.051213
-0.420392
-0.411382
-0.403463
-0.39638
-0.38992
-0.383905
-0.37819
-0.372655
-0.367204
-0.361761
-0.356263
-0.350662
-0.344928
-0.339036
-0.332969
-0.326717
-0.320278
-0.313651
-0.30684
-0.299863
-0.292729
-0.285445
-0.278035
-0.270518
-0.262909
-0.255226
-0.247488
-0.239715
-0.231925
-0.224137
-0.21637
-0.208641
-0.200967
-0.193364
-0.185848
-0.178433
-0.171132
-0.163957
-0.15692
-0.15003
-0.143296
-0.136727
-0.130328
-0.124106
-0.118065
-0.112209
-0.10654
-0.101061
-0.0957664
-0.0906483
-0.435187
-0.434206
-0.433395
-0.432655
-0.431901
-0.431057
-0.430058
-0.428848
-0.427382
-0.425619
-0.423529
-0.421088
-0.418276
-0.415082
-0.411499
-0.407521
-0.403153
-0.398397
-0.393259
-0.387756
-0.381898
-0.375703
-0.369187
-0.362365
-0.355267
-0.347913
-0.340324
-0.332526
-0.324541
-0.316394
-0.30811
-0.299712
-0.291226
-0.282673
-0.274078
-0.265462
-0.256846
-0.248252
-0.239697
-0.231202
-0.222782
-0.214454
-0.206232
-0.19813
-0.190161
-0.182335
-0.174662
-0.167149
-0.159798
-0.1526
-0.4414
-0.445187
-0.44927
-0.453514
-0.457796
-0.462008
-0.466053
-0.469847
-0.473317
-0.4764
-0.479046
-0.48121
-0.482858
-0.483963
-0.484506
-0.484472
-0.483854
-0.482649
-0.480857
-0.478486
-0.475544
-0.472044
-0.467998
-0.463428
-0.458353
-0.452796
-0.446779
-0.440326
-0.433467
-0.426231
-0.418643
-0.410734
-0.402531
-0.394065
-0.385364
-0.376456
-0.36737
-0.358135
-0.348777
-0.339322
-0.329797
-0.320225
-0.310631
-0.301037
-0.291464
-0.281932
-0.27246
-0.263063
-0.253752
-0.244522
-0.414129
-0.422046
-0.430713
-0.439922
-0.44948
-0.459212
-0.468964
-0.478599
-0.487997
-0.497053
-0.505676
-0.513794
-0.521343
-0.528272
-0.534539
-0.54011
-0.54496
-0.549072
-0.552431
-0.555032
-0.556873
-0.557958
-0.558295
-0.557893
-0.556768
-0.554936
-0.552415
-0.54923
-0.545403
-0.540958
-0.535923
-0.530329
-0.524203
-0.517577
-0.51048
-0.502943
-0.494998
-0.486676
-0.478009
-0.469028
-0.459764
-0.450247
-0.440506
-0.430569
-0.420465
-0.410219
-0.399857
-0.389403
-0.378871
-0.368263
-0.365143
-0.378442
-0.392438
-0.406984
-0.421928
-0.437113
-0.452372
-0.467563
-0.482573
-0.4973
-0.511653
-0.525553
-0.538934
-0.551733
-0.563892
-0.575367
-0.586119
-0.596113
-0.605322
-0.613724
-0.621303
-0.628043
-0.633937
-0.638982
-0.643178
-0.646529
-0.649043
-0.65073
-0.6516
-0.651671
-0.650961
-0.649488
-0.647275
-0.644348
-0.640732
-0.636449
-0.631532
-0.626009
-0.619907
-0.613258
-0.606091
-0.598437
-0.590327
-0.581792
-0.57286
-0.563563
-0.553928
-0.543983
-0.533751
-0.523239
-0.313277
-0.332368
-0.351709
-0.371234
-0.390875
-0.410569
-0.430253
-0.449862
-0.469333
-0.488599
-0.507597
-0.526266
-0.544546
-0.562382
-0.579718
-0.596505
-0.612695
-0.628243
-0.643105
-0.657244
-0.670627
-0.683223
-0.695009
-0.705961
-0.716062
-0.725298
-0.733659
-0.741136
-0.747727
-0.753433
-0.758257
-0.762203
-0.765282
-0.767504
-0.768884
-0.769438
-0.769182
-0.768137
-0.766324
-0.763764
-0.760483
-0.756501
-0.751848
-0.746549
-0.740631
-0.734117
-0.727038
-0.71942
-0.711281
-0.702636
-0.251566
-0.273446
-0.295736
-0.318365
-0.341297
-0.364484
-0.387876
-0.411419
-0.435056
-0.45872
-0.482334
-0.505818
-0.529104
-0.552131
-0.574838
-0.597162
-0.619048
-0.640437
-0.661273
-0.681504
-0.701084
-0.719967
-0.738115
-0.755491
-0.772058
-0.787789
-0.802661
-0.816652
-0.829745
-0.841929
-0.85319
-0.863521
-0.87292
-0.881388
-0.888922
-0.895529
-0.901216
-0.905992
-0.909867
-0.912856
-0.914971
-0.916231
-0.916651
-0.916251
-0.915051
-0.913074
-0.910337
-0.906866
-0.902683
-0.897799
-0.19961
-0.223442
-0.247746
-0.27258
-0.297807
-0.323504
-0.34961
-0.376076
-0.402854
-0.429889
-0.457124
-0.484497
-0.51194
-0.539376
-0.566714
-0.593871
-0.620773
-0.647349
-0.673536
-0.699271
-0.724495
-0.749152
-0.773194
-0.796574
-0.81925
-0.841181
-0.86233
-0.882666
-0.902161
-0.92079
-0.938534
-0.955369
-0.971281
-0.986259
-1.00029
-1.01337
-1.0255
-1.03666
-1.04687
-1.05612
-1.06442
-1.07177
-1.07819
-1.08367
-1.08824
-1.09191
-1.09468
-1.09657
-1.09759
-1.09777
-0.151215
-0.178313
-0.206039
-0.234308
-0.262952
-0.292022
-0.321512
-0.351356
-0.381537
-0.412006
-0.442724
-0.473643
-0.504714
-0.535881
-0.567087
-0.598273
-0.62938
-0.660342
-0.691089
-0.721538
-0.751622
-0.781282
-0.810465
-0.839124
-0.867207
-0.894669
-0.92147
-0.947568
-0.972924
-0.997501
-1.02127
-1.04419
-1.06625
-1.08742
-1.10767
-1.12698
-1.14535
-1.16276
-1.17919
-1.19465
-1.20911
-1.22259
-1.23508
-1.24658
-1.25709
-1.26662
-1.27518
-1.28276
-1.2894
-1.29509
-0.109799
-0.137979
-0.170668
-0.204662
-0.238879
-0.273162
-0.307481
-0.341891
-0.376394
-0.411003
-0.445724
-0.480557
-0.515492
-0.550511
-0.585588
-0.620692
-0.655783
-0.690812
-0.725719
-0.760441
-0.79492
-0.8291
-0.862925
-0.89634
-0.929289
-0.961719
-0.99358
-1.02482
-1.05539
-1.08524
-1.11433
-1.14263
-1.17008
-1.19666
-1.22234
-1.24708
-1.27087
-1.29367
-1.31548
-1.33627
-1.35603
-1.37476
-1.39246
-1.40911
-1.42471
-1.43927
-1.4528
-1.46529
-1.47676
-1.48723
-0.0782327
-0.110342
-0.140542
-0.180097
-0.220925
-0.26149
-0.301801
-0.341926
-0.381952
-0.421945
-0.461961
-0.502032
-0.542176
-0.582396
-0.622676
-0.662991
-0.703305
-0.743573
-0.783748
-0.823773
-0.863588
-0.90312
-0.942283
-0.980995
-1.01919
-1.05679
-1.09374
-1.12999
-1.16548
-1.20015
-1.23397
-1.26687
-1.29881
-1.32977
-1.35969
-1.38856
-1.41635
-1.44303
-1.4686
-1.49303
-1.51632
-1.53847
-1.55947
-1.57932
-1.59804
-1.61563
-1.63211
-1.64748
-1.66177
-1.67499
-0.066221
-0.106433
-0.143846
-0.194449
-0.247725
-0.299905
-0.351103
-0.401407
-0.451071
-0.500142
-0.548805
-0.597088
-0.645074
-0.692779
-0.74021
-0.787353
-0.834155
-0.880542
-0.926449
-0.971818
-1.01659
-1.0607
-1.1041
-1.14672
-1.18851
-1.2294
-1.26934
-1.30827
-1.34613
-1.38288
-1.41847
-1.45286
-1.48603
-1.51795
-1.54859
-1.57795
-1.606
-1.63275
-1.65819
-1.68234
-1.70519
-1.72677
-1.74709
-1.76617
-1.78403
-1.8007
-1.81621
-1.83059
-1.84387
-1.85609
-0.113931
-0.169915
-0.223121
-0.29868
-0.372862
-0.445122
-0.515375
-0.583584
-0.649728
-0.713842
-0.775972
-0.836198
-0.894587
-0.951225
-1.00619
-1.05954
-1.11136
-1.16169
-1.21057
-1.25802
-1.30402
-1.34855
-1.39161
-1.43318
-1.47326
-1.51182
-1.54886
-1.58436
-1.61834
-1.65079
-1.68171
-1.71112
-1.73902
-1.76542
-1.79034
-1.81382
-1.83586
-1.8565
-1.87577
-1.89371
-1.91034
-1.92572
-1.93988
-1.95285
-1.9647
-1.97545
-1.98515
-1.99385
-2.00158
-2.0084
-0.239099
-0.338798
-0.433937
-0.529884
-0.622983
-0.712781
-0.79898
-0.881407
-0.960002
-1.03479
-1.10586
-1.17332
-1.23733
-1.29804
-1.3556
-1.41018
-1.46193
-1.51098
-1.55747
-1.60151
-1.64317
-1.68251
-1.71958
-1.75442
-1.78707
-1.81762
-1.84612
-1.87265
-1.89728
-1.92007
-1.94109
-1.96041
-1.9781
-1.9942
-2.0088
-2.02196
-2.03373
-2.04418
-2.05337
-2.06137
-2.06822
-2.07399
-2.07875
-2.08253
-2.0854
-2.08741
-2.08862
-2.08907
-2.08881
-2.08789
-0.534115
-0.640006
-0.743607
-0.844279
-0.941541
-1.035
-1.12435
-1.20937
-1.2899
-1.36588
-1.43728
-1.50416
-1.56661
-1.62475
-1.67874
-1.72875
-1.77497
-1.81756
-1.85669
-1.89249
-1.92512
-1.95474
-1.9815
-2.00559
-2.02718
-2.04642
-2.06343
-2.07836
-2.09132
-2.10243
-2.1118
-2.11953
-2.12572
-2.13048
-2.13388
-2.13601
-2.13696
-2.1368
-2.13561
-2.13346
-2.13042
-2.12654
-2.1219
-2.11655
-2.11054
-2.10393
-2.09678
-2.08912
-2.08101
-2.07249
-0.862071
-0.963624
-1.06184
-1.15688
-1.2482
-1.33541
-1.41823
-1.49646
-1.56995
-1.63862
-1.70245
-1.76146
-1.81573
-1.86536
-1.91051
-1.95134
-1.98803
-2.02076
-2.04971
-2.07505
-2.09702
-2.11586
-2.13182
-2.1451
-2.1559
-2.1644
-2.17077
-2.17518
-2.17776
-2.17865
-2.17798
-2.17587
-2.17242
-2.16773
-2.1619
-2.15501
-2.14716
-2.13841
-2.12883
-2.1185
-2.10749
-2.09585
-2.08364
-2.07092
-2.05772
-2.04409
-2.03009
-2.01578
-2.00122
-1.98646
-1.19863
-1.28668
-1.37217
-1.45437
-1.53272
-1.60685
-1.67652
-1.74156
-1.80188
-1.85746
-1.90833
-1.95455
-1.99623
-2.03353
-2.06659
-2.0956
-2.12074
-2.14214
-2.16002
-2.17465
-2.1863
-2.19519
-2.20155
-2.20557
-2.20743
-2.2073
-2.20533
-2.20166
-2.1964
-2.18969
-2.18162
-2.17229
-2.1618
-2.15023
-2.13766
-2.12416
-2.1098
-2.09463
-2.07872
-2.06219
-2.04511
-2.02754
-2.00952
-1.99111
-1.97236
-1.95331
-1.93401
-1.9145
-1.89482
-1.875
-1.53033
-1.60003
-1.66683
-1.73027
-1.79002
-1.84585
-1.89762
-1.94527
-1.9888
-2.02828
-2.06377
-2.09541
-2.12332
-2.14764
-2.16845
-2.18588
-2.2001
-2.21137
-2.2199
-2.2259
-2.22953
-2.23096
-2.23032
-2.22773
-2.22332
-2.21719
-2.20942
-2.20012
-2.18935
-2.17719
-2.1637
-2.149
-2.1332
-2.11637
-2.09859
-2.07992
-2.06043
-2.04018
-2.01924
-1.99768
-1.97555
-1.95292
-1.92986
-1.90642
-1.88266
-1.85865
-1.83444
-1.81009
-1.78565
-1.76118
-0.0267021
-0.0255782
-0.024501
-0.0234669
-0.0224728
-0.021516
-0.0205945
-0.0197065
-0.0188504
-0.0180251
-0.0172293
-0.0164619
-0.015722
-0.0150088
-0.0143214
-0.0136591
-0.0130212
-0.0124069
-0.0118157
-0.0112468
-0.0106998
-0.0101739
-0.00966864
-0.00918343
-0.00871771
-0.00827093
-0.00784255
-0.00743205
-0.00703889
-0.00666257
-0.00630256
-0.00595837
-0.0056295
-0.00531546
-0.00501576
-0.00472993
-0.00445751
-0.00419802
-0.00395102
-0.00371606
-0.00349271
-0.00328052
-0.00307909
-0.00288799
-0.00270683
-0.0025352
-0.00237273
-0.00221904
-0.00207376
-0.00193652
-0.00180699
-0.00168482
-0.00156968
-0.00146125
-0.00135922
-0.00126329
-0.00117317
-0.00108857
-0.00100923
-0.000934869
-0.000865245
-0.000800108
-0.000739222
-0.000682361
-0.000629304
-0.000579843
-0.000533776
-0.000490909
-0.000451057
-0.000414044
-0.000379701
-0.000347865
-0.000318383
-0.000291108
-0.000265901
-0.000242627
-0.000221163
-0.000201386
-0.000183186
-0.000166452
-0.000151085
-0.000136988
-0.000124071
-0.000112248
-0.000101439
-9.15689e-05
-8.25661e-05
-7.43643e-05
-6.69013e-05
-6.01186e-05
-5.39619e-05
-4.83803e-05
-4.33263e-05
-3.87559e-05
-3.4628e-05
-3.09046e-05
-2.75504e-05
-2.45326e-05
-2.18212e-05
-1.93882e-05
-1.72079e-05
-1.52566e-05
-1.35126e-05
-1.1956e-05
-1.05685e-05
-9.33331e-06
-8.2352e-06
-7.26023e-06
-6.39575e-06
-5.63015e-06
-4.95307e-06
-4.35493e-06
-3.82726e-06
-3.36222e-06
-2.9529e-06
-2.59297e-06
-2.27687e-06
-1.99946e-06
-1.75628e-06
-1.54324e-06
-1.35675e-06
-1.19364e-06
-1.051e-06
-9.26357e-07
-8.17415e-07
-7.22274e-07
-6.3912e-07
-5.66446e-07
-5.02906e-07
-4.47328e-07
-3.98655e-07
-3.55995e-07
-3.18535e-07
-2.85636e-07
-2.56673e-07
-2.31105e-07
-2.0851e-07
-1.88509e-07
-1.70734e-07
-1.54911e-07
-1.4078e-07
-1.28153e-07
-1.16795e-07
-1.06596e-07
-9.73917e-08
-8.90707e-08
-8.15129e-08
-7.46504e-08
-6.83994e-08
-6.27064e-08
-5.74748e-08
-5.27121e-08
-4.83413e-08
-4.43057e-08
-4.06236e-08
-3.7227e-08
-3.41034e-08
-3.12237e-08
-2.85843e-08
-2.61206e-08
-2.38867e-08
-2.18128e-08
-1.99066e-08
-1.81497e-08
-1.65459e-08
-1.50397e-08
-1.36996e-08
-1.24364e-08
-1.12865e-08
-1.02289e-08
-9.26721e-09
-8.3807e-09
-7.5793e-09
-6.83662e-09
-6.16417e-09
-5.55316e-09
-4.99763e-09
-4.49137e-09
-4.02939e-09
-3.60962e-09
-3.22923e-09
-2.89307e-09
-2.5808e-09
-2.31147e-09
-2.04984e-09
-1.82565e-09
-1.62474e-09
-1.44749e-09
-1.28217e-09
-1.13921e-09
-1.0041e-09
-8.89799e-10
-7.87549e-10
-6.96066e-10
-6.15879e-10
-5.52124e-10
-4.72406e-10
-4.32757e-10
-3.66356e-10
-3.39982e-10
-2.87389e-10
-2.59373e-10
-2.354e-10
-2.03136e-10
-1.77763e-10
-1.52828e-10
-1.58122e-10
-1.39036e-10
-1.23767e-10
-1.0804e-10
-9.30842e-11
-8.01123e-11
-6.98844e-11
-6.2445e-11
-5.73688e-11
-5.42745e-11
-5.32943e-11
-5.39651e-11
-5.25323e-11
-5.28614e-11
-5.35176e-11
-5.20076e-11
-5.32642e-11
-5.34015e-11
-5.17196e-11
-5.20339e-11
-5.17052e-11
-4.8881e-11
-5.61575e-11
-4.73081e-11
-5.47233e-11
-5.14756e-11
-4.99609e-11
-5.06487e-11
-4.96687e-11
-5.06434e-11
-4.98229e-11
-5.11498e-11
-5.02498e-11
-4.97989e-11
-4.95883e-11
-4.95047e-11
-4.95432e-11
-4.97118e-11
-4.98479e-11
-4.99187e-11
-4.99574e-11
-4.99795e-11
-4.99846e-11
-4.99548e-11
-4.98477e-11
-4.95987e-11
-4.91417e-11
-4.8469e-11
-4.77034e-11
-4.70652e-11
-4.66852e-11
-4.65029e-11
-4.64226e-11
-4.63872e-11
-4.63716e-11
-4.63655e-11
-4.63643e-11
-4.63656e-11
-4.6368e-11
-4.6371e-11
-4.6374e-11
-4.63768e-11
-4.63796e-11
-4.63821e-11
-4.63843e-11
-4.63865e-11
-4.63884e-11
-4.63902e-11
-4.6392e-11
-4.63937e-11
-4.63953e-11
-4.6397e-11
-4.63988e-11
-4.64006e-11
-4.64026e-11
-4.64048e-11
-4.64071e-11
-4.64095e-11
-4.64121e-11
-4.64147e-11
-4.64174e-11
-4.64199e-11
-4.64223e-11
-4.64245e-11
-4.64263e-11
-4.6428e-11
-4.64293e-11
-4.64305e-11
-4.64314e-11
-4.64322e-11
-4.64328e-11
-4.64335e-11
-4.6434e-11
-4.64345e-11
-0.048559
-0.0467701
-0.0450398
-0.0433652
-0.0417431
-0.0401708
-0.0386461
-0.0371672
-0.0357323
-0.0343402
-0.0329895
-0.0316792
-0.0304082
-0.0291757
-0.0279807
-0.0268224
-0.0257001
-0.024613
-0.0235605
-0.0225419
-0.0215565
-0.0206036
-0.0196826
-0.0187929
-0.0179338
-0.0171047
-0.016305
-0.015534
-0.0147912
-0.0140758
-0.0133873
-0.012725
-0.0120883
-0.0114766
-0.0108893
-0.0103256
-0.00978503
-0.00926693
-0.00877066
-0.00829562
-0.00784119
-0.00740676
-0.00699171
-0.00659546
-0.00621739
-0.00585694
-0.0055135
-0.00518651
-0.0048754
-0.0045796
-0.00429858
-0.00403178
-0.00377867
-0.00353874
-0.00331147
-0.00309635
-0.0028929
-0.00270063
-0.00251908
-0.00234778
-0.00218629
-0.00203418
-0.00189101
-0.00175639
-0.0016299
-0.00151116
-0.0013998
-0.00129545
-0.00119776
-0.00110638
-0.001021
-0.000941283
-0.000866938
-0.000797666
-0.000733187
-0.000673227
-0.000617527
-0.000565839
-0.000517923
-0.000473551
-0.000432506
-0.000394579
-0.000359573
-0.000327298
-0.000297576
-0.000270237
-0.000245118
-0.000222068
-0.000200941
-0.0001816
-0.000163916
-0.000147769
-0.000133042
-0.000119629
-0.000107428
-9.63443e-05
-8.62894e-05
-7.71801e-05
-6.89389e-05
-6.14935e-05
-5.47765e-05
-4.87253e-05
-4.32819e-05
-3.83924e-05
-3.4007e-05
-3.00795e-05
-2.65675e-05
-2.34319e-05
-2.06366e-05
-1.81486e-05
-1.59377e-05
-1.3976e-05
-1.22382e-05
-1.07013e-05
-9.34433e-06
-8.14804e-06
-7.0952e-06
-6.17012e-06
-5.35859e-06
-4.6479e-06
-4.02651e-06
-3.48406e-06
-3.01131e-06
-2.59997e-06
-2.24263e-06
-1.93266e-06
-1.66422e-06
-1.43207e-06
-1.2316e-06
-1.05875e-06
-9.09864e-07
-7.8184e-07
-6.71832e-07
-5.77431e-07
-4.96513e-07
-4.27179e-07
-3.67841e-07
-3.17067e-07
-2.73625e-07
-2.36508e-07
-2.04742e-07
-1.77592e-07
-1.54342e-07
-1.34442e-07
-1.17378e-07
-1.02724e-07
-9.01239e-08
-7.92779e-08
-6.99283e-08
-6.18107e-08
-5.47887e-08
-4.8668e-08
-4.33476e-08
-3.86675e-08
-3.4586e-08
-3.09596e-08
-2.77778e-08
-2.49559e-08
-2.24477e-08
-2.02047e-08
-1.82126e-08
-1.64086e-08
-1.48146e-08
-1.33642e-08
-1.2054e-08
-1.08846e-08
-9.81201e-09
-8.85663e-09
-7.99011e-09
-7.1968e-09
-6.48399e-09
-5.84398e-09
-5.25202e-09
-4.7187e-09
-4.24829e-09
-3.80297e-09
-3.42018e-09
-3.04957e-09
-2.74511e-09
-2.44117e-09
-2.19629e-09
-1.95025e-09
-1.73808e-09
-1.55066e-09
-1.39026e-09
-1.22459e-09
-1.0795e-09
-9.77711e-10
-8.59499e-10
-7.65739e-10
-6.7506e-10
-5.93431e-10
-5.38121e-10
-4.61608e-10
-4.25353e-10
-3.5996e-10
-3.35876e-10
-2.84507e-10
-2.56154e-10
-2.349e-10
-2.02793e-10
-1.77591e-10
-1.52613e-10
-1.58618e-10
-1.39509e-10
-1.24536e-10
-1.09029e-10
-9.4286e-11
-8.13826e-11
-7.1141e-11
-6.37149e-11
-5.88021e-11
-5.59084e-11
-5.44577e-11
-5.38739e-11
-5.37146e-11
-5.37485e-11
-5.38537e-11
-5.39816e-11
-5.40379e-11
-5.38738e-11
-5.34113e-11
-5.27365e-11
-5.27147e-11
-5.38063e-11
-5.25112e-11
-4.98699e-11
-5.58064e-11
-5.2607e-11
-4.67755e-11
-5.44726e-11
-5.15047e-11
-5.02468e-11
-5.13924e-11
-5.03012e-11
-4.99255e-11
-5.15178e-11
-5.07342e-11
-5.03288e-11
-5.01906e-11
-5.01229e-11
-5.00257e-11
-4.98955e-11
-4.97446e-11
-4.95855e-11
-4.94144e-11
-4.93393e-11
-4.9387e-11
-4.95614e-11
-4.96687e-11
-4.96586e-11
-4.95083e-11
-4.91579e-11
-4.85675e-11
-4.7834e-11
-4.71963e-11
-4.68205e-11
-4.66513e-11
-4.65867e-11
-4.65654e-11
-4.65613e-11
-4.65645e-11
-4.65709e-11
-4.65786e-11
-4.65867e-11
-4.65947e-11
-4.66023e-11
-4.66094e-11
-4.66161e-11
-4.66222e-11
-4.66279e-11
-4.66332e-11
-4.66382e-11
-4.6643e-11
-4.66477e-11
-4.66523e-11
-4.66571e-11
-4.66622e-11
-4.66678e-11
-4.6674e-11
-4.6681e-11
-4.6689e-11
-4.66982e-11
-4.67083e-11
-4.67195e-11
-4.67313e-11
-4.67435e-11
-4.67557e-11
-4.67675e-11
-4.67785e-11
-4.67887e-11
-4.67979e-11
-4.68062e-11
-4.68137e-11
-4.68204e-11
-4.68267e-11
-4.68339e-11
-4.68441e-11
-4.68607e-11
-4.68852e-11
-0.0866616
-0.0839458
-0.0812932
-0.0787028
-0.0761726
-0.0737006
-0.071285
-0.0689244
-0.0666176
-0.0643636
-0.0621615
-0.0600106
-0.0579101
-0.0558594
-0.0538579
-0.0519051
-0.0500005
-0.0481437
-0.0463341
-0.0445713
-0.0428548
-0.0411843
-0.0395591
-0.0379789
-0.0364431
-0.0349513
-0.033503
-0.0320976
-0.0307345
-0.0294133
-0.0281333
-0.0268939
-0.0256946
-0.0245347
-0.0234135
-0.0223304
-0.0212848
-0.0202759
-0.019303
-0.0183655
-0.0174626
-0.0165935
-0.0157576
-0.0149541
-0.0141823
-0.0134413
-0.0127305
-0.012049
-0.0113961
-0.0107711
-0.0101731
-0.00960143
-0.00905526
-0.00853387
-0.00803648
-0.00756235
-0.00711073
-0.00668087
-0.00627205
-0.00588354
-0.00551462
-0.00516458
-0.00483274
-0.00451839
-0.00422087
-0.00393952
-0.00367368
-0.00342271
-0.00318601
-0.00296294
-0.00275292
-0.00255537
-0.00236972
-0.00219542
-0.00203193
-0.00187873
-0.00173531
-0.00160119
-0.00147589
-0.00135895
-0.00124993
-0.0011484
-0.00105395
-0.000966172
-0.000884698
-0.000809156
-0.000739195
-0.000674479
-0.000614685
-0.000559505
-0.000508645
-0.000461825
-0.000418779
-0.000379253
-0.000343005
-0.000309809
-0.000279447
-0.000251715
-0.00022642
-0.000203381
-0.000182425
-0.000163392
-0.000146131
-0.000130499
-0.000116365
-0.000103603
-9.20996e-05
-8.17457e-05
-7.24414e-05
-6.40938e-05
-5.66168e-05
-4.99305e-05
-4.39614e-05
-3.86415e-05
-3.39083e-05
-2.97045e-05
-2.59773e-05
-2.26787e-05
-1.97645e-05
-1.71947e-05
-1.49327e-05
-1.29453e-05
-1.12025e-05
-9.67702e-06
-8.34433e-06
-7.18235e-06
-6.17109e-06
-5.29277e-06
-4.5314e-06
-3.87272e-06
-3.30399e-06
-2.8139e-06
-2.39244e-06
-2.0307e-06
-1.72083e-06
-1.45594e-06
-1.22994e-06
-1.03749e-06
-8.73934e-07
-7.35204e-07
-6.17725e-07
-5.18467e-07
-4.34727e-07
-3.64216e-07
-3.04915e-07
-2.55152e-07
-2.13456e-07
-1.78519e-07
-1.4937e-07
-1.24968e-07
-1.04651e-07
-8.7716e-08
-7.35829e-08
-6.18243e-08
-5.20445e-08
-4.38974e-08
-3.70796e-08
-3.14252e-08
-2.67031e-08
-2.27399e-08
-1.94298e-08
-1.66544e-08
-1.43139e-08
-1.23438e-08
-1.06757e-08
-9.25357e-09
-8.05956e-09
-7.02559e-09
-6.13966e-09
-5.38302e-09
-4.71344e-09
-4.16041e-09
-3.65379e-09
-3.23799e-09
-2.83935e-09
-2.52432e-09
-2.218e-09
-1.97823e-09
-1.74173e-09
-1.54361e-09
-1.37631e-09
-1.20017e-09
-1.08343e-09
-9.50158e-10
-8.4105e-10
-7.47055e-10
-6.71404e-10
-5.76609e-10
-5.2059e-10
-4.70011e-10
-4.02719e-10
-3.61995e-10
-3.24586e-10
-2.7455e-10
-2.62415e-10
-2.27637e-10
-2.00414e-10
-1.76405e-10
-1.52012e-10
-1.59106e-10
-1.3977e-10
-1.24774e-10
-1.09493e-10
-9.48926e-11
-8.22471e-11
-7.22068e-11
-6.49132e-11
-6.00692e-11
-5.72047e-11
-5.57701e-11
-5.51836e-11
-5.49536e-11
-5.47788e-11
-5.45296e-11
-5.42175e-11
-5.39328e-11
-5.37223e-11
-5.35562e-11
-5.3423e-11
-5.33012e-11
-5.31767e-11
-5.2955e-11
-5.25433e-11
-5.20803e-11
-5.23143e-11
-5.33034e-11
-4.87589e-11
-5.71666e-11