/*--------------------------------*- C++ -*----------------------------------*\
| =========                 |                                                 |
| \\      /  F ield         | OpenFOAM: The Open Source CFD Toolbox           |
|  \\    /   O peration     | Version:  2.4.0                                 |
|   \\  /    A nd           | Web:      www.OpenFOAM.org                      |
|    \\/     M anipulation  |                                                 |
\*---------------------------------------------------------------------------*/
FoamFile
{
    version     2.0;
    format      ascii;
    class       volScalarField;
    location    "3.9";
    object      H;
}
// * * * * * * * * * * * * * * * * * * * * * * * * * * * * * * * * * * * * * //

dimensions      [0 2 -2 0 0 0 0];

internalField   nonuniform List<scalar> 
125
(
-8.32884
-8.31453
-8.29863
-8.30784
-8.33128
-8.29612
-8.28208
-8.26657
-8.27558
-8.29844
-8.26201
-8.24826
-8.23313
-8.24194
-8.26423
-8.22649
-8.21301
-8.19826
-8.20687
-8.2286
-8.18951
-8.1763
-8.16192
-8.17033
-8.19151
-8.15102
-8.13809
-8.12406
-8.13228
-8.15292
-8.11098
-8.09832
-8.08466
-8.09268
-8.11278
-8.06936
-8.05696
-8.04365
-8.05148
-8.07106
-8.02609
-8.01396
-8.001
-8.00864
-8.0277
-7.98114
-7.96928
-7.95665
-7.96411
-7.98265
-7.93447
-7.92286
-7.91057
-7.91784
-7.93589
-7.88602
-7.87467
-7.86271
-7.8698
-7.88735
-7.83575
-7.82466
-7.81302
-7.81993
-7.837
-7.78362
-7.77278
-7.76146
-7.76819
-7.78478
-7.72957
-7.71898
-7.70798
-7.71454
-7.73065
-7.67356
-7.66322
-7.65253
-7.65891
-7.67456
-7.61555
-7.60546
-7.59506
-7.60128
-7.61648
-7.55549
-7.54563
-7.53554
-7.54158
-7.55634
-7.49332
-7.48371
-7.47391
-7.47979
-7.4941
-7.42901
-7.41964
-7.41012
-7.41584
-7.42972
-7.36251
-7.35337
-7.34414
-7.34969
-7.36316
-7.29378
-7.28487
-7.27591
-7.2813
-7.29436
-7.22276
-7.21408
-7.2054
-7.21063
-7.22328
-7.14942
-7.14097
-7.13254
-7.13763
-7.14987
-7.0737
-7.06548
-7.05732
-7.06225
-7.0741
)
;

boundaryField
{
    BotWall
    {
        type            zeroGradient;
    }
    FreeStream
    {
        type            zeroGradient;
    }
    FrontNBack
    {
        type            empty;
    }
    LeftSide
    {
        type            symmetryPlane;
    }
    RightSide
    {
        type            symmetryPlane;
    }
    procBoundary1to0
    {
        type            processor;
        value           nonuniform List<scalar> 5(-8.35994 -8.34535 -8.32906 -8.33848 -8.3625);
    }
    procBoundary1to2
    {
        type            processor;
        value           nonuniform List<scalar> 5(-6.99526 -6.98726 -6.97935 -6.98413 -6.9956);
    }
}


// ************************************************************************* //
