/*--------------------------------*- C++ -*----------------------------------*\
| =========                 |                                                 |
| \\      /  F ield         | OpenFOAM: The Open Source CFD Toolbox           |
|  \\    /   O peration     | Version:  2.4.0                                 |
|   \\  /    A nd           | Web:      www.OpenFOAM.org                      |
|    \\/     M anipulation  |                                                 |
\*---------------------------------------------------------------------------*/
FoamFile
{
    version     2.0;
    format      ascii;
    class       volVectorField;
    location    "3.9";
    object      U;
}
// * * * * * * * * * * * * * * * * * * * * * * * * * * * * * * * * * * * * * //

dimensions      [0 1 -1 0 0 0 0];

internalField   nonuniform List<vector> 
125
(
(1.48108e-07 -0.00106841 0)
(3.14816e-07 -0.00106842 0)
(6.13046e-08 -0.00106845 0)
(-3.59169e-07 -0.00106844 0)
(-2.50668e-07 -0.00106837 0)
(1.41628e-07 -0.00108311 0)
(3.00869e-07 -0.0010831 0)
(5.81583e-08 -0.00108311 0)
(-3.43318e-07 -0.0010831 0)
(-2.39016e-07 -0.00108307 0)
(1.35336e-07 -0.00110282 0)
(2.87355e-07 -0.0011028 0)
(5.51064e-08 -0.0011028 0)
(-3.28082e-07 -0.0011028 0)
(-2.27847e-07 -0.00110278 0)
(1.29167e-07 -0.00110699 0)
(2.74159e-07 -0.00110696 0)
(5.21501e-08 -0.00110696 0)
(-3.13226e-07 -0.00110696 0)
(-2.16979e-07 -0.00110695 0)
(1.2314e-07 -0.00110619 0)
(2.61289e-07 -0.00110617 0)
(4.92875e-08 -0.00110616 0)
(-2.98741e-07 -0.00110617 0)
(-2.0641e-07 -0.00110616 0)
(1.17273e-07 -0.00110541 0)
(2.48764e-07 -0.00110538 0)
(4.65181e-08 -0.00110537 0)
(-2.84651e-07 -0.00110538 0)
(-1.96161e-07 -0.00110538 0)
(1.11569e-07 -0.00110524 0)
(2.3659e-07 -0.00110521 0)
(4.38415e-08 -0.00110519 0)
(-2.7096e-07 -0.0011052 0)
(-1.86232e-07 -0.00110521 0)
(1.06024e-07 -0.00110528 0)
(2.24761e-07 -0.00110524 0)
(4.12565e-08 -0.00110522 0)
(-2.57664e-07 -0.00110524 0)
(-1.76619e-07 -0.00110525 0)
(1.00637e-07 -0.00110532 0)
(2.13273e-07 -0.00110528 0)
(3.87617e-08 -0.00110525 0)
(-2.44756e-07 -0.00110527 0)
(-1.67315e-07 -0.00110529 0)
(9.54057e-08 -0.00110533 0)
(2.02124e-07 -0.00110528 0)
(3.63557e-08 -0.00110525 0)
(-2.32234e-07 -0.00110527 0)
(-1.58316e-07 -0.0011053 0)
(9.03294e-08 -0.00110533 0)
(1.9131e-07 -0.00110528 0)
(3.40371e-08 -0.00110525 0)
(-2.20093e-07 -0.00110527 0)
(-1.49618e-07 -0.0011053 0)
(8.54068e-08 -0.00110533 0)
(1.80829e-07 -0.00110528 0)
(3.18044e-08 -0.00110524 0)
(-2.0833e-07 -0.00110526 0)
(-1.41216e-07 -0.0011053 0)
(8.06365e-08 -0.00110533 0)
(1.70677e-07 -0.00110528 0)
(2.96562e-08 -0.00110524 0)
(-1.9694e-07 -0.00110526 0)
(-1.33105e-07 -0.00110531 0)
(7.6017e-08 -0.00110533 0)
(1.60851e-07 -0.00110528 0)
(2.75911e-08 -0.00110524 0)
(-1.85919e-07 -0.00110526 0)
(-1.25281e-07 -0.00110531 0)
(7.15468e-08 -0.00110534 0)
(1.51347e-07 -0.00110528 0)
(2.56075e-08 -0.00110523 0)
(-1.75263e-07 -0.00110526 0)
(-1.1774e-07 -0.00110531 0)
(6.72242e-08 -0.00110534 0)
(1.42161e-07 -0.00110528 0)
(2.3704e-08 -0.00110523 0)
(-1.64966e-07 -0.00110526 0)
(-1.10475e-07 -0.00110532 0)
(6.30476e-08 -0.00110534 0)
(1.33291e-07 -0.00110528 0)
(2.18791e-08 -0.00110523 0)
(-1.55025e-07 -0.00110526 0)
(-1.03483e-07 -0.00110532 0)
(5.90154e-08 -0.00110534 0)
(1.24731e-07 -0.00110528 0)
(2.01312e-08 -0.00110522 0)
(-1.45434e-07 -0.00110525 0)
(-9.6758e-08 -0.00110532 0)
(5.51256e-08 -0.00110534 0)
(1.16478e-07 -0.00110528 0)
(1.84588e-08 -0.00110522 0)
(-1.36188e-07 -0.00110525 0)
(-9.02955e-08 -0.00110533 0)
(5.13765e-08 -0.00110535 0)
(1.08528e-07 -0.00110527 0)
(1.68604e-08 -0.00110522 0)
(-1.27283e-07 -0.00110525 0)
(-8.40904e-08 -0.00110533 0)
(4.77661e-08 -0.00110535 0)
(1.00875e-07 -0.00110527 0)
(1.53344e-08 -0.00110521 0)
(-1.18712e-07 -0.00110525 0)
(-7.81375e-08 -0.00110533 0)
(4.42925e-08 -0.00110535 0)
(9.35172e-08 -0.00110527 0)
(1.38791e-08 -0.00110521 0)
(-1.10471e-07 -0.00110525 0)
(-7.24318e-08 -0.00110533 0)
(4.09536e-08 -0.00110535 0)
(8.64482e-08 -0.00110527 0)
(1.24931e-08 -0.00110521 0)
(-1.02554e-07 -0.00110525 0)
(-6.6968e-08 -0.00110533 0)
(3.77472e-08 -0.00110535 0)
(7.9664e-08 -0.00110527 0)
(1.11748e-08 -0.00110521 0)
(-9.49553e-08 -0.00110525 0)
(-6.17407e-08 -0.00110534 0)
(3.46714e-08 -0.00110535 0)
(7.31597e-08 -0.00110527 0)
(9.92254e-09 -0.00110521 0)
(-8.76696e-08 -0.00110525 0)
(-5.67451e-08 -0.00110534 0)
)
;

boundaryField
{
    BotWall
    {
        type            fixedValue;
        value           nonuniform 0();
    }
    FreeStream
    {
        type            zeroGradient;
    }
    FrontNBack
    {
        type            empty;
    }
    LeftSide
    {
        type            symmetryPlane;
    }
    RightSide
    {
        type            symmetryPlane;
    }
    procBoundary1to0
    {
        type            processor;
        value           nonuniform List<vector> 5((1.54912e-07 -0.00114995 0) (3.29378e-07 -0.00115 0) (6.45363e-08 -0.00115004 0) (-3.75978e-07 -0.00115002 0) (-2.63095e-07 -0.00114991 0));
    }
    procBoundary1to2
    {
        type            processor;
        value           nonuniform List<vector> 5((3.17237e-08 -0.00110535 0) (6.69305e-08 -0.00110527 0) (8.73479e-09 -0.0011052 0) (-8.06909e-08 -0.00110525 0) (-5.19755e-08 -0.00110534 0));
    }
}


// ************************************************************************* //
