/*--------------------------------*- C++ -*----------------------------------*\
| =========                 |                                                 |
| \\      /  F ield         | OpenFOAM: The Open Source CFD Toolbox           |
|  \\    /   O peration     | Version:  2.4.0                                 |
|   \\  /    A nd           | Web:      www.OpenFOAM.org                      |
|    \\/     M anipulation  |                                                 |
\*---------------------------------------------------------------------------*/
FoamFile
{
    version     2.0;
    format      ascii;
    class       volScalarField;
    location    "0.016";
    object      p;
}
// * * * * * * * * * * * * * * * * * * * * * * * * * * * * * * * * * * * * * //

dimensions      [1 -1 -2 0 0 0 0];

internalField   nonuniform List<scalar> 
125
(
0.0301696
0.0430376
-0.0268718
0.154422
-0.855992
-0.108516
0.0292558
0.0102259
-0.00437739
-0.00739973
-0.00685856
-0.00647179
-0.00653154
-0.00672447
-0.00691144
-0.00708171
-0.00724754
-0.00741427
-0.00758228
-0.00775111
-0.00792054
-0.00809058
-0.00826123
-0.00843251
-0.00860442
-0.00877696
-0.00895014
-0.00912396
-0.00929842
-0.00947352
-0.00964926
-0.00982565
-0.0100027
-0.0101804
-0.0103587
-0.0105377
-0.0107174
-0.0108977
-0.0110787
-0.0112604
-0.0114427
-0.0116257
-0.0118093
-0.0119937
-0.0121787
-0.0123644
-0.0125508
-0.0127379
-0.0129256
-0.0131141
-0.0133032
-0.0134931
-0.0136836
-0.0138749
-0.0140668
-0.0142595
-0.0144528
-0.0146469
-0.0148417
-0.0150372
-0.0152334
-0.0154304
-0.015628
-0.0158264
-0.0160256
-0.0162254
-0.016426
-0.0166274
-0.0168294
-0.0170323
-0.0172358
-0.0174402
-0.0176452
-0.0178511
-0.0180576
-0.018265
-0.0184731
-0.018682
-0.0188916
-0.019102
-0.0193132
-0.0195252
-0.0197379
-0.0199515
-0.0201658
-0.0203809
-0.0205968
-0.0208135
-0.021031
-0.0212492
-0.0214683
-0.0216882
-0.0219089
-0.0221305
-0.0223528
-0.022576
-0.0227999
-0.0230247
-0.0232504
-0.0234768
-0.0237041
-0.0239323
-0.0241612
-0.024391
-0.0246217
-0.0248532
-0.0250856
-0.0253188
-0.0255529
-0.0257878
-0.0260236
-0.0262603
-0.0264978
-0.0267362
-0.0269755
-0.0272157
-0.0274568
-0.0276987
-0.0279415
-0.0281853
-0.0284299
-0.0286754
-0.0289219
-0.0291692
-0.0294174
)
;

boundaryField
{
    BotWall
    {
        type            calculated;
        value           uniform 0.035113;
    }
    FreeStream
    {
        type            calculated;
        value           nonuniform 0();
    }
    FrontNBack
    {
        type            empty;
    }
    LeftSide
    {
        type            symmetryPlane;
    }
    RightSide
    {
        type            symmetryPlane;
    }
    procBoundary11to8
    {
        type            processor;
        value           nonuniform List<scalar> 
50
(
-0.0182631
-0.0184712
-0.01868
-0.0188897
-0.0191001
-0.0193113
-0.0195232
-0.019736
-0.0199495
-0.0201638
-0.0203789
-0.0205948
-0.0208115
-0.021029
-0.0212472
-0.0214663
-0.0216862
-0.0219069
-0.0221284
-0.0223508
-0.0225739
-0.0227979
-0.0230227
-0.0232483
-0.0234748
-0.0237021
-0.0239302
-0.0241592
-0.024389
-0.0246196
-0.0248511
-0.0250835
-0.0253167
-0.0255508
-0.0257857
-0.0260215
-0.0262581
-0.0264957
-0.0267341
-0.0269734
-0.0272135
-0.0274546
-0.0276965
-0.0279394
-0.0281831
-0.0284277
-0.0286732
-0.0289197
-0.029167
-0.0294153
)
;
    }
    procBoundary11to9
    {
        type            processor;
        value           nonuniform List<scalar> 
75
(
0.0300052
0.0427494
-0.026909
0.153174
-0.851636
-0.108035
0.0291382
0.010181
-0.00437855
-0.00739328
-0.00685465
-0.00646953
-0.00652954
-0.00672238
-0.00690929
-0.00707956
-0.0072454
-0.00741213
-0.00758015
-0.00774898
-0.00791842
-0.00808845
-0.00825911
-0.00843039
-0.00860231
-0.00877486
-0.00894804
-0.00912187
-0.00929633
-0.00947143
-0.00964718
-0.00982358
-0.0100006
-0.0101783
-0.0103567
-0.0105357
-0.0107153
-0.0108957
-0.0110767
-0.0112583
-0.0114406
-0.0116236
-0.0118073
-0.0119917
-0.0121767
-0.0123624
-0.0125488
-0.0127359
-0.0129236
-0.0131121
-0.0133012
-0.0134911
-0.0136816
-0.0138729
-0.0140648
-0.0142575
-0.0144508
-0.0146449
-0.0148397
-0.0150352
-0.0152315
-0.0154284
-0.0156261
-0.0158245
-0.0160236
-0.0162235
-0.0164241
-0.0166254
-0.0168275
-0.0170304
-0.0172339
-0.0174383
-0.0176433
-0.0178492
-0.0180557
)
;
    }
    procBoundary11to10
    {
        type            processor;
        value           uniform -0.0296666;
    }
}


// ************************************************************************* //
