/*--------------------------------*- C++ -*----------------------------------*\
| =========                 |                                                 |
| \\      /  F ield         | OpenFOAM: The Open Source CFD Toolbox           |
|  \\    /   O peration     | Version:  2.4.0                                 |
|   \\  /    A nd           | Web:      www.OpenFOAM.org                      |
|    \\/     M anipulation  |                                                 |
\*---------------------------------------------------------------------------*/
FoamFile
{
    version     2.0;
    format      ascii;
    class       volScalarField;
    location    "0.016";
    object      p_rgh;
}
// * * * * * * * * * * * * * * * * * * * * * * * * * * * * * * * * * * * * * //

dimensions      [1 -1 -2 0 0 0 0];

internalField   nonuniform List<scalar> 
125
(
0.035113
0.0578859
-0.002082
0.18919
-0.834334
-0.107608
0.0303311
0.011469
-0.00296597
-0.00581935
-0.0051086
-0.00455162
-0.00444054
-0.00446202
-0.0044769
-0.00447444
-0.00446691
-0.00445964
-0.00445301
-0.00444656
-0.00444007
-0.00443353
-0.00442695
-0.00442036
-0.00441374
-0.00440709
-0.00440043
-0.00439373
-0.00438702
-0.00438028
-0.00437351
-0.00436672
-0.0043599
-0.00435306
-0.00434619
-0.0043393
-0.00433238
-0.00432544
-0.00431847
-0.00431148
-0.00430446
-0.00429742
-0.00429034
-0.00428325
-0.00427612
-0.00426897
-0.0042618
-0.0042546
-0.00424737
-0.00424011
-0.00423283
-0.00422552
-0.00421819
-0.00421082
-0.00420344
-0.00419602
-0.00418858
-0.0041811
-0.00417361
-0.00416608
-0.00415853
-0.00415094
-0.00414333
-0.0041357
-0.00412803
-0.00412034
-0.00411262
-0.00410486
-0.00409709
-0.00408928
-0.00408144
-0.00407358
-0.00406568
-0.00405776
-0.00404981
-0.00404183
-0.00403382
-0.00402578
-0.00401771
-0.00400961
-0.00400148
-0.00399332
-0.00398513
-0.00397691
-0.00396866
-0.00396038
-0.00395207
-0.00394373
-0.00393536
-0.00392696
-0.00391853
-0.00391006
-0.00390157
-0.00389304
-0.00388449
-0.0038759
-0.00386728
-0.00385863
-0.00384994
-0.00384123
-0.00383248
-0.0038237
-0.00381489
-0.00380604
-0.00379717
-0.00378826
-0.00377931
-0.00377034
-0.00376133
-0.00375229
-0.00374322
-0.00373411
-0.00372497
-0.00371579
-0.00370658
-0.00369734
-0.00368807
-0.00367875
-0.00366941
-0.00366003
-0.00365062
-0.00364117
-0.00363169
-0.00362217
-0.00361261
)
;

boundaryField
{
    BotWall
    {
        type            fixedFluxPressure;
        gradient        uniform 0;
        value           uniform 0.035113;
    }
    FreeStream
    {
        type            totalPressure;
        rho             rho;
        psi             none;
        gamma           1;
        p0              nonuniform 0();
        value           nonuniform 0();
    }
    FrontNBack
    {
        type            empty;
    }
    LeftSide
    {
        type            symmetryPlane;
    }
    RightSide
    {
        type            symmetryPlane;
    }
    procBoundary11to8
    {
        type            processor;
        value           nonuniform List<scalar> 
50
(
-0.00403992
-0.00403191
-0.00402386
-0.00401578
-0.00400768
-0.00399954
-0.00399137
-0.00398318
-0.00397495
-0.0039667
-0.00395841
-0.00395009
-0.00394175
-0.00393337
-0.00392496
-0.00391652
-0.00390805
-0.00389955
-0.00389102
-0.00388245
-0.00387386
-0.00386523
-0.00385657
-0.00384789
-0.00383916
-0.00383041
-0.00382162
-0.00381281
-0.00380396
-0.00379507
-0.00378616
-0.00377721
-0.00376823
-0.00375922
-0.00375017
-0.00374109
-0.00373198
-0.00372283
-0.00371365
-0.00370444
-0.00369519
-0.00368591
-0.00367659
-0.00366725
-0.00365786
-0.00364844
-0.00363899
-0.0036295
-0.00361998
-0.00361042
)
;
    }
    procBoundary11to9
    {
        type            processor;
        value           nonuniform List<scalar> 
75
(
0.0349486
0.0575978
-0.00211913
0.187942
-0.830126
-0.107127
0.0302135
0.0114241
-0.00296712
-0.0058129
-0.00510469
-0.00454936
-0.00443854
-0.00445992
-0.00447475
-0.00447229
-0.00446476
-0.0044575
-0.00445088
-0.00444443
-0.00443794
-0.00443141
-0.00442484
-0.00441825
-0.00441163
-0.00440499
-0.00439833
-0.00439164
-0.00438493
-0.00437819
-0.00437143
-0.00436464
-0.00435783
-0.00435099
-0.00434413
-0.00433724
-0.00433033
-0.00432339
-0.00431643
-0.00430944
-0.00430242
-0.00429538
-0.00428831
-0.00428122
-0.0042741
-0.00426696
-0.00425978
-0.00425259
-0.00424536
-0.00423811
-0.00423083
-0.00422353
-0.0042162
-0.00420884
-0.00420146
-0.00419404
-0.0041866
-0.00417914
-0.00417164
-0.00416412
-0.00415657
-0.00414899
-0.00414139
-0.00413376
-0.0041261
-0.00411841
-0.00411069
-0.00410294
-0.00409517
-0.00408737
-0.00407953
-0.00407167
-0.00406378
-0.00405586
-0.00404791
)
;
    }
    procBoundary11to10
    {
        type            processor;
        value           uniform -0.00360301;
    }
}


// ************************************************************************* //
