/*--------------------------------*- C++ -*----------------------------------*\
| =========                 |                                                 |
| \\      /  F ield         | OpenFOAM: The Open Source CFD Toolbox           |
|  \\    /   O peration     | Version:  2.4.0                                 |
|   \\  /    A nd           | Web:      www.OpenFOAM.org                      |
|    \\/     M anipulation  |                                                 |
\*---------------------------------------------------------------------------*/
FoamFile
{
    version     2.0;
    format      ascii;
    class       volVectorField;
    location    "1.9";
    object      U;
}
// * * * * * * * * * * * * * * * * * * * * * * * * * * * * * * * * * * * * * //

dimensions      [0 1 -1 0 0 0 0];

internalField   nonuniform List<vector> 
125
(
(7.93985e-09 -0.00157741 0)
(1.48031e-08 -0.00157741 0)
(2.68293e-09 -0.00157741 0)
(-1.61259e-08 -0.00157741 0)
(-1.17559e-08 -0.00157741 0)
(7.52437e-09 -0.00157746 0)
(1.40482e-08 -0.00157746 0)
(2.53801e-09 -0.00157747 0)
(-1.53512e-08 -0.00157747 0)
(-1.11691e-08 -0.00157746 0)
(7.11979e-09 -0.00157751 0)
(1.33128e-08 -0.00157751 0)
(2.39737e-09 -0.00157751 0)
(-1.45976e-08 -0.00157751 0)
(-1.05999e-08 -0.00157751 0)
(6.72605e-09 -0.00157752 0)
(1.25968e-08 -0.00157752 0)
(2.26096e-09 -0.00157752 0)
(-1.38646e-08 -0.00157752 0)
(-1.00478e-08 -0.00157752 0)
(6.34327e-09 -0.00157752 0)
(1.19003e-08 -0.00157752 0)
(2.12875e-09 -0.00157752 0)
(-1.31524e-08 -0.00157752 0)
(-9.51294e-09 -0.00157752 0)
(5.97149e-09 -0.00157752 0)
(1.12234e-08 -0.00157752 0)
(2.00066e-09 -0.00157752 0)
(-1.2461e-08 -0.00157752 0)
(-8.99511e-09 -0.00157752 0)
(5.61067e-09 -0.00157752 0)
(1.05659e-08 -0.00157752 0)
(1.87666e-09 -0.00157752 0)
(-1.17901e-08 -0.00157752 0)
(-8.49412e-09 -0.00157752 0)
(5.26073e-09 -0.00157752 0)
(9.9277e-09 -0.00157752 0)
(1.75669e-09 -0.00157752 0)
(-1.11395e-08 -0.00157752 0)
(-8.00972e-09 -0.00157752 0)
(4.92161e-09 -0.00157752 0)
(9.30875e-09 -0.00157752 0)
(1.64071e-09 -0.00157752 0)
(-1.05091e-08 -0.00157752 0)
(-7.54167e-09 -0.00157752 0)
(4.59323e-09 -0.00157752 0)
(8.70891e-09 -0.00157752 0)
(1.52864e-09 -0.00157752 0)
(-9.89868e-09 -0.00157752 0)
(-7.08974e-09 -0.00157752 0)
(4.27554e-09 -0.00157752 0)
(8.12807e-09 -0.00157752 0)
(1.42045e-09 -0.00157752 0)
(-9.30802e-09 -0.00157752 0)
(-6.65367e-09 -0.00157752 0)
(3.96844e-09 -0.00157752 0)
(7.56609e-09 -0.00157752 0)
(1.31607e-09 -0.00157752 0)
(-8.7369e-09 -0.00157752 0)
(-6.23321e-09 -0.00157752 0)
(3.67186e-09 -0.00157752 0)
(7.02284e-09 -0.00157752 0)
(1.21544e-09 -0.00157752 0)
(-8.1851e-09 -0.00157752 0)
(-5.8281e-09 -0.00157752 0)
(3.38571e-09 -0.00157752 0)
(6.49816e-09 -0.00157752 0)
(1.11852e-09 -0.00157752 0)
(-7.65239e-09 -0.00157752 0)
(-5.43809e-09 -0.00157752 0)
(3.10989e-09 -0.00157752 0)
(5.9919e-09 -0.00157752 0)
(1.02524e-09 -0.00157752 0)
(-7.13852e-09 -0.00157752 0)
(-5.0629e-09 -0.00157752 0)
(2.8443e-09 -0.00157752 0)
(5.50389e-09 -0.00157752 0)
(9.3555e-10 -0.00157752 0)
(-6.64326e-09 -0.00157752 0)
(-4.70227e-09 -0.00157752 0)
(2.58885e-09 -0.00157752 0)
(5.03396e-09 -0.00157752 0)
(8.49381e-10 -0.00157752 0)
(-6.16635e-09 -0.00157752 0)
(-4.35594e-09 -0.00157752 0)
(2.34341e-09 -0.00157752 0)
(4.58193e-09 -0.00157752 0)
(7.66678e-10 -0.00157751 0)
(-5.70752e-09 -0.00157752 0)
(-4.02362e-09 -0.00157752 0)
(2.10788e-09 -0.00157752 0)
(4.1476e-09 -0.00157752 0)
(6.87381e-10 -0.00157751 0)
(-5.26652e-09 -0.00157752 0)
(-3.70505e-09 -0.00157752 0)
(1.88214e-09 -0.00157752 0)
(3.73076e-09 -0.00157752 0)
(6.1143e-10 -0.00157751 0)
(-4.84308e-09 -0.00157752 0)
(-3.39995e-09 -0.00157752 0)
(1.66606e-09 -0.00157752 0)
(3.33122e-09 -0.00157752 0)
(5.38762e-10 -0.00157751 0)
(-4.43692e-09 -0.00157752 0)
(-3.10805e-09 -0.00157752 0)
(1.45951e-09 -0.00157752 0)
(2.94875e-09 -0.00157752 0)
(4.69317e-10 -0.00157751 0)
(-4.04775e-09 -0.00157752 0)
(-2.82907e-09 -0.00157752 0)
(1.26236e-09 -0.00157752 0)
(2.58313e-09 -0.00157752 0)
(4.03033e-10 -0.00157751 0)
(-3.6753e-09 -0.00157752 0)
(-2.56273e-09 -0.00157752 0)
(1.07447e-09 -0.00157752 0)
(2.23411e-09 -0.00157752 0)
(3.39845e-10 -0.00157751 0)
(-3.31926e-09 -0.00157752 0)
(-2.30874e-09 -0.00157752 0)
(8.95687e-10 -0.00157752 0)
(1.90146e-09 -0.00157752 0)
(2.79691e-10 -0.00157751 0)
(-2.97935e-09 -0.00157752 0)
(-2.06684e-09 -0.00157752 0)
)
;

boundaryField
{
    BotWall
    {
        type            fixedValue;
        value           nonuniform 0();
    }
    FreeStream
    {
        type            zeroGradient;
    }
    FrontNBack
    {
        type            empty;
    }
    LeftSide
    {
        type            symmetryPlane;
    }
    RightSide
    {
        type            symmetryPlane;
    }
    procBoundary1to0
    {
        type            processor;
        value           nonuniform List<vector> 5((8.36763e-09 -0.00157766 0) (1.55789e-08 -0.00157766 0) (2.83217e-09 -0.00157766 0) (-1.69227e-08 -0.00157766 0) (-1.23614e-08 -0.00157766 0));
    }
    procBoundary1to2
    {
        type            processor;
        value           nonuniform List<vector> 5((7.25876e-10 -0.00157752 0) (1.58491e-09 -0.00157752 0) (2.22506e-10 -0.00157751 0) (-2.65526e-09 -0.00157752 0) (-1.83674e-09 -0.00157752 0));
    }
}


// ************************************************************************* //
