/*--------------------------------*- C++ -*----------------------------------*\
| =========                 |                                                 |
| \\      /  F ield         | OpenFOAM: The Open Source CFD Toolbox           |
|  \\    /   O peration     | Version:  2.4.0                                 |
|   \\  /    A nd           | Web:      www.OpenFOAM.org                      |
|    \\/     M anipulation  |                                                 |
\*---------------------------------------------------------------------------*/
FoamFile
{
    version     2.0;
    format      ascii;
    class       volScalarField;
    location    "3.2";
    object      p;
}
// * * * * * * * * * * * * * * * * * * * * * * * * * * * * * * * * * * * * * //

dimensions      [1 -1 -2 0 0 0 0];

internalField   nonuniform List<scalar> 
125
(
-0.0145001
-0.0145008
-0.0145009
-0.0145011
-0.0145013
-0.0151079
-0.0151086
-0.0151086
-0.0151088
-0.015109
-0.0157464
-0.015747
-0.0157471
-0.0157473
-0.0157475
-0.0164105
-0.0164111
-0.0164111
-0.0164113
-0.0164115
-0.0170854
-0.017086
-0.0170861
-0.0170863
-0.0170865
-0.017767
-0.0177675
-0.0177676
-0.0177678
-0.017768
-0.0184554
-0.0184559
-0.018456
-0.0184562
-0.0184564
-0.0191513
-0.0191519
-0.019152
-0.0191522
-0.0191523
-0.0198551
-0.0198556
-0.0198557
-0.0198559
-0.0198561
-0.0205668
-0.0205673
-0.0205674
-0.0205675
-0.0205677
-0.0212864
-0.0212868
-0.021287
-0.0212871
-0.0212873
-0.022014
-0.0220145
-0.0220146
-0.0220147
-0.0220149
-0.0227497
-0.0227502
-0.0227503
-0.0227504
-0.0227506
-0.0234937
-0.0234941
-0.0234942
-0.0234944
-0.0234946
-0.0242459
-0.0242464
-0.0242465
-0.0242466
-0.0242468
-0.0250066
-0.025007
-0.0250071
-0.0250073
-0.0250074
-0.0257757
-0.0257761
-0.0257762
-0.0257764
-0.0257765
-0.0265534
-0.0265538
-0.0265539
-0.0265541
-0.0265542
-0.0273398
-0.0273402
-0.0273403
-0.0273405
-0.0273406
-0.028135
-0.0281353
-0.0281355
-0.0281356
-0.0281358
-0.028939
-0.0289394
-0.0289395
-0.0289396
-0.0289398
-0.029752
-0.0297524
-0.0297525
-0.0297526
-0.0297528
-0.0305741
-0.0305745
-0.0305746
-0.0305747
-0.0305749
-0.0314054
-0.0314057
-0.0314058
-0.031406
-0.0314061
-0.0322459
-0.0322462
-0.0322464
-0.0322465
-0.0322466
)
;

boundaryField
{
    BotWall
    {
        type            calculated;
        value           nonuniform 0();
    }
    FreeStream
    {
        type            calculated;
        value           nonuniform 0();
    }
    FrontNBack
    {
        type            empty;
    }
    LeftSide
    {
        type            symmetryPlane;
    }
    RightSide
    {
        type            symmetryPlane;
    }
    procBoundary1to0
    {
        type            processor;
        value           nonuniform List<scalar> 5(-0.0138046 -0.0138052 -0.0138053 -0.0138055 -0.0138057);
    }
    procBoundary1to2
    {
        type            processor;
        value           nonuniform List<scalar> 5(-0.0330958 -0.0330961 -0.0330963 -0.0330964 -0.0330965);
    }
}


// ************************************************************************* //
