/*--------------------------------*- C++ -*----------------------------------*\
| =========                 |                                                 |
| \\      /  F ield         | OpenFOAM: The Open Source CFD Toolbox           |
|  \\    /   O peration     | Version:  2.4.0                                 |
|   \\  /    A nd           | Web:      www.OpenFOAM.org                      |
|    \\/     M anipulation  |                                                 |
\*---------------------------------------------------------------------------*/
FoamFile
{
    version     2.0;
    format      ascii;
    class       surfaceScalarField;
    location    "3.2";
    object      phi;
}
// * * * * * * * * * * * * * * * * * * * * * * * * * * * * * * * * * * * * * //

dimensions      [0 3 -1 0 0 0 0];

internalField   nonuniform List<scalar> 
220
(
-3.00595e-17
-2.08018e-10
2.48478e-17
-2.08087e-10
2.90431e-17
-2.08165e-10
-1.11165e-17
-2.08119e-10
-2.08004e-10
-8.18937e-17
-2.08018e-10
-1.45007e-17
-2.08087e-10
6.10105e-17
-2.08165e-10
4.80987e-17
-2.08119e-10
-2.08004e-10
-1.28704e-16
-2.08018e-10
-4.96201e-17
-2.08087e-10
8.97403e-17
-2.08165e-10
1.00973e-16
-2.08119e-10
-2.08004e-10
-1.69697e-16
-2.08018e-10
-8.01274e-17
-2.08087e-10
1.14982e-16
-2.08166e-10
1.46608e-16
-2.08119e-10
-2.08004e-10
-2.04573e-16
-2.08018e-10
-1.05817e-16
-2.08087e-10
1.3656e-16
-2.08166e-10
1.84714e-16
-2.08119e-10
-2.08003e-10
-2.33206e-16
-2.08017e-10
-1.2655e-16
-2.08087e-10
1.54355e-16
-2.08166e-10
2.15171e-16
-2.08119e-10
-2.08003e-10
-2.55489e-16
-2.08017e-10
-1.4222e-16
-2.08087e-10
1.68278e-16
-2.08166e-10
2.37866e-16
-2.08119e-10
-2.08003e-10
-2.71323e-16
-2.08017e-10
-1.52755e-16
-2.08087e-10
1.78269e-16
-2.08167e-10
2.52704e-16
-2.08119e-10
-2.08003e-10
-2.80652e-16
-2.08016e-10
-1.58116e-16
-2.08088e-10
1.84296e-16
-2.08167e-10
2.59646e-16
-2.08119e-10
-2.08003e-10
-2.83467e-16
-2.08016e-10
-1.58307e-16
-2.08088e-10
1.86355e-16
-2.08167e-10
2.58718e-16
-2.08119e-10
-2.08002e-10
-2.79813e-16
-2.08016e-10
-1.53373e-16
-2.08088e-10
1.84476e-16
-2.08168e-10
2.50013e-16
-2.08119e-10
-2.08002e-10
-2.69788e-16
-2.08016e-10
-1.43401e-16
-2.08088e-10
1.7872e-16
-2.08168e-10
2.33688e-16
-2.08119e-10
-2.08002e-10
-2.53544e-16
-2.08015e-10
-1.28524e-16
-2.08088e-10
1.69182e-16
-2.08168e-10
2.09969e-16
-2.08119e-10
-2.08002e-10
-2.31287e-16
-2.08015e-10
-1.08919e-16
-2.08088e-10
1.5599e-16
-2.08169e-10
1.79144e-16
-2.08119e-10
-2.08001e-10
-2.03276e-16
-2.08015e-10
-8.48047e-17
-2.08088e-10
1.39302e-16
-2.08169e-10
1.41567e-16
-2.08119e-10
-2.08001e-10
-1.69826e-16
-2.08015e-10
-5.64454e-17
-2.08088e-10
1.19309e-16
-2.08169e-10
9.76504e-17
-2.08119e-10
-2.08001e-10
-1.31297e-16
-2.08015e-10
-2.41439e-17
-2.08089e-10
9.62311e-17
-2.08169e-10
4.78688e-17
-2.08119e-10
-2.08001e-10
-8.81025e-17
-2.08015e-10
1.17575e-17
-2.08089e-10
7.03175e-17
-2.08169e-10
-7.24991e-18
-2.08119e-10
-2.08001e-10
-4.06958e-17
-2.08015e-10
5.08816e-17
-2.08089e-10
4.18425e-17
-2.08169e-10
-6.71256e-17
-2.08119e-10
-2.08001e-10
1.04274e-17
-2.08015e-10
9.28202e-17
-2.08089e-10
1.11038e-17
-2.08169e-10
-1.31138e-16
-2.08119e-10
-2.08001e-10
6.47354e-17
-2.08015e-10
1.37138e-16
-2.08089e-10
-2.15799e-17
-2.08169e-10
-1.98627e-16
-2.08119e-10
-2.08001e-10
1.21672e-16
-2.08015e-10
1.83375e-16
-2.08089e-10
-5.5873e-17
-2.08169e-10
-2.68901e-16
-2.08119e-10
-2.08002e-10
1.80655e-16
-2.08015e-10
2.31058e-16
-2.08089e-10
-9.14252e-17
-2.08168e-10
-3.41244e-16
-2.08118e-10
-2.08002e-10
2.41089e-16
-2.08015e-10
2.79696e-16
-2.08089e-10
-1.27881e-16
-2.08168e-10
-4.14934e-16
-2.08118e-10
-2.08003e-10
3.02365e-16
3.28799e-16
-1.64874e-16
-4.89218e-16
)
;

boundaryField
{
    BotWall
    {
        type            calculated;
        value           nonuniform 0();
    }
    FreeStream
    {
        type            calculated;
        value           nonuniform 0();
    }
    FrontNBack
    {
        type            empty;
        value           nonuniform 0();
    }
    LeftSide
    {
        type            symmetryPlane;
        value           uniform 0;
    }
    RightSide
    {
        type            symmetryPlane;
        value           uniform 0;
    }
    procBoundary1to0
    {
        type            processor;
        value           nonuniform List<scalar> 5(2.08018e-10 2.08087e-10 2.08165e-10 2.08119e-10 2.08004e-10);
    }
    procBoundary1to2
    {
        type            processor;
        value           nonuniform List<scalar> 5(-2.08015e-10 -2.08089e-10 -2.08168e-10 -2.08118e-10 -2.08003e-10);
    }
}


// ************************************************************************* //
