/*--------------------------------*- C++ -*----------------------------------*\
| =========                 |                                                 |
| \\      /  F ield         | OpenFOAM: The Open Source CFD Toolbox           |
|  \\    /   O peration     | Version:  2.4.0                                 |
|   \\  /    A nd           | Web:      www.OpenFOAM.org                      |
|    \\/     M anipulation  |                                                 |
\*---------------------------------------------------------------------------*/
FoamFile
{
    version     2.0;
    format      ascii;
    class       volScalarField;
    location    "3.2";
    object      T;
}
// * * * * * * * * * * * * * * * * * * * * * * * * * * * * * * * * * * * * * //

dimensions      [0 0 0 1 0 0 0];

internalField   nonuniform List<scalar> 
125
(
297.934
297.934
297.934
297.934
297.934
297.934
297.934
297.935
297.935
297.934
297.935
297.935
297.935
297.935
297.935
297.936
297.936
297.936
297.936
297.936
297.937
297.937
297.937
297.937
297.937
297.938
297.938
297.938
297.938
297.938
297.939
297.939
297.939
297.939
297.939
297.94
297.94
297.94
297.94
297.94
297.941
297.941
297.942
297.942
297.941
297.943
297.943
297.943
297.943
297.943
297.944
297.944
297.944
297.944
297.944
297.946
297.946
297.946
297.946
297.946
297.947
297.947
297.947
297.947
297.947
297.949
297.949
297.949
297.949
297.949
297.951
297.951
297.951
297.951
297.951
297.952
297.952
297.952
297.952
297.952
297.954
297.954
297.954
297.954
297.954
297.956
297.956
297.956
297.956
297.956
297.958
297.958
297.958
297.958
297.958
297.959
297.959
297.96
297.959
297.959
297.961
297.961
297.961
297.961
297.961
297.963
297.963
297.963
297.963
297.963
297.965
297.965
297.965
297.965
297.965
297.967
297.967
297.967
297.967
297.967
297.969
297.969
297.969
297.969
297.969
)
;

boundaryField
{
    BotWall
    {
        type            fixedValue;
        value           nonuniform 0();
    }
    FreeStream
    {
        type            fixedValue;
        value           nonuniform 0();
    }
    FrontNBack
    {
        type            empty;
    }
    LeftSide
    {
        type            symmetryPlane;
    }
    RightSide
    {
        type            symmetryPlane;
    }
    procBoundary1to0
    {
        type            processor;
        value           nonuniform List<scalar> 5(297.933 297.933 297.934 297.933 297.933);
    }
    procBoundary1to2
    {
        type            processor;
        value           nonuniform List<scalar> 5(297.97 297.97 297.97 297.97 297.97);
    }
}


// ************************************************************************* //
