/*--------------------------------*- C++ -*----------------------------------*\
| =========                 |                                                 |
| \\      /  F ield         | OpenFOAM: The Open Source CFD Toolbox           |
|  \\    /   O peration     | Version:  2.4.0                                 |
|   \\  /    A nd           | Web:      www.OpenFOAM.org                      |
|    \\/     M anipulation  |                                                 |
\*---------------------------------------------------------------------------*/
FoamFile
{
    version     2.0;
    format      ascii;
    class       volScalarField;
    location    "3.1";
    object      H;
}
// * * * * * * * * * * * * * * * * * * * * * * * * * * * * * * * * * * * * * //

dimensions      [0 2 -2 0 0 0 0];

internalField   nonuniform List<scalar> 
125
(
-10.512
-10.5079
-10.504
-10.5067
-10.5124
-10.4252
-10.4212
-10.4174
-10.42
-10.4255
-10.3332
-10.3293
-10.3257
-10.3282
-10.3336
-10.236
-10.2323
-10.2287
-10.2312
-10.2364
-10.1336
-10.1299
-10.1264
-10.1288
-10.1339
-10.0257
-10.0221
-10.0187
-10.0211
-10.026
-9.9123
-9.9088
-9.90557
-9.90782
-9.91259
-9.79338
-9.78997
-9.78684
-9.78903
-9.79365
-9.66884
-9.66552
-9.66249
-9.66462
-9.66909
-9.53861
-9.53539
-9.53245
-9.53451
-9.53884
-9.40264
-9.39951
-9.39667
-9.39867
-9.40286
-9.26088
-9.25784
-9.25509
-9.25703
-9.26108
-9.11328
-9.11033
-9.10768
-9.10955
-9.11347
-8.95981
-8.95695
-8.95439
-8.9562
-8.95998
-8.80044
-8.79767
-8.7952
-8.79696
-8.8006
-8.63515
-8.63247
-8.63009
-8.63179
-8.6353
-8.46394
-8.46135
-8.45905
-8.46069
-8.46408
-8.28679
-8.28429
-8.28208
-8.28366
-8.28692
-8.10373
-8.10131
-8.09919
-8.10071
-8.10384
-7.91476
-7.91243
-7.91039
-7.91186
-7.91487
-7.71993
-7.71768
-7.71573
-7.71713
-7.72002
-7.51926
-7.5171
-7.51523
-7.51658
-7.51935
-7.31283
-7.31075
-7.30896
-7.31025
-7.31291
-7.10069
-7.09869
-7.09697
-7.09822
-7.10076
-6.88292
-6.88101
-6.87936
-6.88055
-6.88298
)
;

boundaryField
{
    BotWall
    {
        type            zeroGradient;
    }
    FreeStream
    {
        type            zeroGradient;
    }
    FrontNBack
    {
        type            empty;
    }
    LeftSide
    {
        type            symmetryPlane;
    }
    RightSide
    {
        type            symmetryPlane;
    }
    procBoundary2to1
    {
        type            processor;
        value           nonuniform List<scalar> 5(-10.593 -10.5889 -10.5849 -10.5876 -10.5935);
    }
    procBoundary2to3
    {
        type            processor;
        value           nonuniform List<scalar> 5(-6.65914 -6.65732 -6.65575 -6.65689 -6.6592);
    }
}


// ************************************************************************* //
