/*--------------------------------*- C++ -*----------------------------------*\
| =========                 |                                                 |
| \\      /  F ield         | OpenFOAM: The Open Source CFD Toolbox           |
|  \\    /   O peration     | Version:  2.4.0                                 |
|   \\  /    A nd           | Web:      www.OpenFOAM.org                      |
|    \\/     M anipulation  |                                                 |
\*---------------------------------------------------------------------------*/
FoamFile
{
    version     2.0;
    format      ascii;
    class       volScalarField;
    location    "3.1";
    object      p_rgh;
}
// * * * * * * * * * * * * * * * * * * * * * * * * * * * * * * * * * * * * * //

dimensions      [1 -1 -2 0 0 0 0];

internalField   nonuniform List<scalar> 
125
(
-7.38455e-06
-7.38255e-06
-7.38053e-06
-7.38177e-06
-7.38496e-06
-7.37663e-06
-7.37468e-06
-7.3727e-06
-7.37392e-06
-7.37702e-06
-7.36863e-06
-7.36673e-06
-7.3648e-06
-7.36599e-06
-7.36901e-06
-7.36055e-06
-7.3587e-06
-7.35682e-06
-7.35798e-06
-7.36092e-06
-7.35239e-06
-7.35059e-06
-7.34876e-06
-7.34988e-06
-7.35275e-06
-7.34414e-06
-7.34239e-06
-7.34061e-06
-7.3417e-06
-7.3445e-06
-7.33581e-06
-7.3341e-06
-7.33237e-06
-7.33344e-06
-7.33615e-06
-7.32739e-06
-7.32573e-06
-7.32405e-06
-7.32508e-06
-7.32772e-06
-7.31888e-06
-7.31727e-06
-7.31563e-06
-7.31664e-06
-7.3192e-06
-7.31028e-06
-7.30871e-06
-7.30713e-06
-7.3081e-06
-7.3106e-06
-7.30159e-06
-7.30007e-06
-7.29853e-06
-7.29948e-06
-7.3019e-06
-7.29281e-06
-7.29133e-06
-7.28984e-06
-7.29076e-06
-7.29311e-06
-7.28394e-06
-7.2825e-06
-7.28106e-06
-7.28194e-06
-7.28422e-06
-7.27497e-06
-7.27358e-06
-7.27218e-06
-7.27304e-06
-7.27524e-06
-7.2659e-06
-7.26456e-06
-7.2632e-06
-7.26403e-06
-7.26617e-06
-7.25674e-06
-7.25544e-06
-7.25413e-06
-7.25493e-06
-7.257e-06
-7.24748e-06
-7.24623e-06
-7.24496e-06
-7.24573e-06
-7.24773e-06
-7.23813e-06
-7.23691e-06
-7.23568e-06
-7.23643e-06
-7.23837e-06
-7.22867e-06
-7.2275e-06
-7.22631e-06
-7.22704e-06
-7.2289e-06
-7.21911e-06
-7.21798e-06
-7.21684e-06
-7.21754e-06
-7.21934e-06
-7.20945e-06
-7.20836e-06
-7.20726e-06
-7.20793e-06
-7.20967e-06
-7.19969e-06
-7.19864e-06
-7.19758e-06
-7.19822e-06
-7.19989e-06
-7.18982e-06
-7.18881e-06
-7.18779e-06
-7.18841e-06
-7.19002e-06
-7.17985e-06
-7.17888e-06
-7.17791e-06
-7.1785e-06
-7.18004e-06
-7.16979e-06
-7.16885e-06
-7.16792e-06
-7.16849e-06
-7.16997e-06
)
;

boundaryField
{
    BotWall
    {
        type            fixedFluxPressure;
        gradient        nonuniform 0();
        value           nonuniform 0();
    }
    FreeStream
    {
        type            totalPressure;
        rho             rho;
        psi             none;
        gamma           1;
        p0              nonuniform 0();
        value           nonuniform 0();
    }
    FrontNBack
    {
        type            empty;
    }
    LeftSide
    {
        type            symmetryPlane;
    }
    RightSide
    {
        type            symmetryPlane;
    }
    procBoundary2to1
    {
        type            processor;
        value           nonuniform List<scalar> 5(-7.39241e-06 -7.39036e-06 -7.38828e-06 -7.38956e-06 -7.39283e-06);
    }
    procBoundary2to3
    {
        type            processor;
        value           nonuniform List<scalar> 5(-7.15962e-06 -7.15873e-06 -7.15783e-06 -7.15838e-06 -7.1598e-06);
    }
}


// ************************************************************************* //
