/*--------------------------------*- C++ -*----------------------------------*\
| =========                 |                                                 |
| \\      /  F ield         | OpenFOAM: The Open Source CFD Toolbox           |
|  \\    /   O peration     | Version:  2.4.0                                 |
|   \\  /    A nd           | Web:      www.OpenFOAM.org                      |
|    \\/     M anipulation  |                                                 |
\*---------------------------------------------------------------------------*/
FoamFile
{
    version     2.0;
    format      ascii;
    class       volScalarField;
    location    "1";
    object      H;
}
// * * * * * * * * * * * * * * * * * * * * * * * * * * * * * * * * * * * * * //

dimensions      [0 2 -2 0 0 0 0];

internalField   nonuniform List<scalar> 
125
(
-24.8676
-24.867
-24.8667
-24.8668
-24.8677
-24.9846
-24.984
-24.9836
-24.9837
-24.9847
-25.0885
-25.0879
-25.0876
-25.0877
-25.0886
-25.1791
-25.1785
-25.1782
-25.1783
-25.1792
-25.2561
-25.2555
-25.2552
-25.2553
-25.2561
-25.3191
-25.3186
-25.3182
-25.3183
-25.3192
-25.368
-25.3674
-25.3671
-25.3672
-25.3681
-25.4024
-25.4019
-25.4015
-25.4016
-25.4025
-25.4221
-25.4216
-25.4213
-25.4214
-25.4222
-25.4269
-25.4264
-25.426
-25.4261
-25.4269
-25.4165
-25.416
-25.4156
-25.4157
-25.4165
-25.3907
-25.3902
-25.3899
-25.39
-25.3907
-25.3493
-25.3489
-25.3485
-25.3486
-25.3494
-25.2923
-25.2918
-25.2915
-25.2916
-25.2923
-25.2193
-25.2188
-25.2185
-25.2186
-25.2193
-25.1302
-25.1298
-25.1295
-25.1296
-25.1303
-25.0251
-25.0246
-25.0243
-25.0244
-25.0251
-24.9037
-24.9032
-24.9029
-24.903
-24.9037
-24.766
-24.7655
-24.7652
-24.7653
-24.766
-24.6119
-24.6115
-24.6112
-24.6113
-24.6119
-24.4414
-24.441
-24.4408
-24.4408
-24.4415
-24.2546
-24.2542
-24.254
-24.254
-24.2546
-24.0515
-24.0511
-24.0508
-24.0509
-24.0515
-23.832
-23.8316
-23.8314
-23.8315
-23.832
-23.5964
-23.596
-23.5958
-23.5958
-23.5964
)
;

boundaryField
{
    BotWall
    {
        type            zeroGradient;
    }
    FreeStream
    {
        type            zeroGradient;
    }
    FrontNBack
    {
        type            empty;
    }
    LeftSide
    {
        type            symmetryPlane;
    }
    RightSide
    {
        type            symmetryPlane;
    }
    procBoundary1to0
    {
        type            processor;
        value           nonuniform List<scalar> 5(-24.7357 -24.735 -24.7347 -24.7348 -24.7358);
    }
    procBoundary1to2
    {
        type            processor;
        value           nonuniform List<scalar> 5(-23.3427 -23.3423 -23.342 -23.3421 -23.3426);
    }
}


// ************************************************************************* //
