/*--------------------------------*- C++ -*----------------------------------*\
| =========                 |                                                 |
| \\      /  F ield         | OpenFOAM: The Open Source CFD Toolbox           |
|  \\    /   O peration     | Version:  2.4.0                                 |
|   \\  /    A nd           | Web:      www.OpenFOAM.org                      |
|    \\/     M anipulation  |                                                 |
\*---------------------------------------------------------------------------*/
FoamFile
{
    version     2.0;
    format      ascii;
    class       volScalarField;
    location    "1";
    object      p;
}
// * * * * * * * * * * * * * * * * * * * * * * * * * * * * * * * * * * * * * //

dimensions      [1 -1 -2 0 0 0 0];

internalField   nonuniform List<scalar> 
125
(
-0.014417
-0.014417
-0.014417
-0.014417
-0.014417
-0.0150685
-0.0150685
-0.0150685
-0.0150685
-0.0150685
-0.0157273
-0.0157273
-0.0157273
-0.0157273
-0.0157273
-0.0163934
-0.0163934
-0.0163934
-0.0163934
-0.0163934
-0.017067
-0.017067
-0.017067
-0.017067
-0.017067
-0.0177481
-0.0177481
-0.0177481
-0.0177481
-0.0177481
-0.0184368
-0.0184368
-0.0184368
-0.0184368
-0.0184368
-0.0191331
-0.0191331
-0.0191331
-0.0191331
-0.0191331
-0.0198373
-0.0198373
-0.0198373
-0.0198373
-0.0198373
-0.0205492
-0.0205492
-0.0205492
-0.0205492
-0.0205493
-0.0212692
-0.0212692
-0.0212692
-0.0212692
-0.0212692
-0.0219972
-0.0219972
-0.0219972
-0.0219972
-0.0219972
-0.0227333
-0.0227333
-0.0227333
-0.0227333
-0.0227333
-0.0234776
-0.0234776
-0.0234776
-0.0234776
-0.0234776
-0.0242302
-0.0242302
-0.0242302
-0.0242302
-0.0242302
-0.0249912
-0.0249912
-0.0249912
-0.0249912
-0.0249912
-0.0257607
-0.0257607
-0.0257607
-0.0257607
-0.0257607
-0.0265388
-0.0265388
-0.0265388
-0.0265388
-0.0265388
-0.0273256
-0.0273256
-0.0273256
-0.0273256
-0.0273256
-0.0281211
-0.0281211
-0.0281211
-0.0281211
-0.0281211
-0.0289255
-0.0289255
-0.0289255
-0.0289255
-0.0289255
-0.029739
-0.029739
-0.029739
-0.029739
-0.029739
-0.0305614
-0.0305614
-0.0305614
-0.0305614
-0.0305614
-0.0313931
-0.0313931
-0.0313931
-0.0313931
-0.0313931
-0.032234
-0.032234
-0.032234
-0.032234
-0.032234
)
;

boundaryField
{
    BotWall
    {
        type            calculated;
        value           nonuniform 0();
    }
    FreeStream
    {
        type            calculated;
        value           nonuniform 0();
    }
    FrontNBack
    {
        type            empty;
    }
    LeftSide
    {
        type            symmetryPlane;
    }
    RightSide
    {
        type            symmetryPlane;
    }
    procBoundary1to0
    {
        type            processor;
        value           nonuniform List<scalar> 5(-0.0137727 -0.0137727 -0.0137727 -0.0137727 -0.0137727);
    }
    procBoundary1to2
    {
        type            processor;
        value           nonuniform List<scalar> 5(-0.0330844 -0.0330844 -0.0330844 -0.0330844 -0.0330844);
    }
}


// ************************************************************************* //
