/*--------------------------------*- C++ -*----------------------------------*\
| =========                 |                                                 |
| \\      /  F ield         | OpenFOAM: The Open Source CFD Toolbox           |
|  \\    /   O peration     | Version:  2.4.0                                 |
|   \\  /    A nd           | Web:      www.OpenFOAM.org                      |
|    \\/     M anipulation  |                                                 |
\*---------------------------------------------------------------------------*/
FoamFile
{
    version     2.0;
    format      ascii;
    class       volScalarField;
    location    "1";
    object      p_rgh;
}
// * * * * * * * * * * * * * * * * * * * * * * * * * * * * * * * * * * * * * //

dimensions      [1 -1 -2 0 0 0 0];

internalField   nonuniform List<scalar> 
125
(
-2.58199e-05
-2.58193e-05
-2.58195e-05
-2.58196e-05
-2.58229e-05
-2.57833e-05
-2.57828e-05
-2.5783e-05
-2.5783e-05
-2.57862e-05
-2.57443e-05
-2.57438e-05
-2.5744e-05
-2.57441e-05
-2.57472e-05
-2.57029e-05
-2.57024e-05
-2.57026e-05
-2.57027e-05
-2.57057e-05
-2.56606e-05
-2.56601e-05
-2.56603e-05
-2.56604e-05
-2.56633e-05
-2.56179e-05
-2.56174e-05
-2.56176e-05
-2.56177e-05
-2.56205e-05
-2.55748e-05
-2.55743e-05
-2.55745e-05
-2.55746e-05
-2.55773e-05
-2.55312e-05
-2.55308e-05
-2.55309e-05
-2.55311e-05
-2.55337e-05
-2.54872e-05
-2.54867e-05
-2.54869e-05
-2.5487e-05
-2.54896e-05
-2.54426e-05
-2.54422e-05
-2.54424e-05
-2.54425e-05
-2.5445e-05
-2.53976e-05
-2.53972e-05
-2.53974e-05
-2.53975e-05
-2.54e-05
-2.53521e-05
-2.53517e-05
-2.53519e-05
-2.5352e-05
-2.53544e-05
-2.53061e-05
-2.53057e-05
-2.53059e-05
-2.5306e-05
-2.53084e-05
-2.52596e-05
-2.52593e-05
-2.52594e-05
-2.52595e-05
-2.52618e-05
-2.52126e-05
-2.52123e-05
-2.52124e-05
-2.52126e-05
-2.52148e-05
-2.51651e-05
-2.51648e-05
-2.51649e-05
-2.5165e-05
-2.51672e-05
-2.51171e-05
-2.51167e-05
-2.51169e-05
-2.5117e-05
-2.51192e-05
-2.50685e-05
-2.50682e-05
-2.50684e-05
-2.50685e-05
-2.50706e-05
-2.50195e-05
-2.50191e-05
-2.50193e-05
-2.50194e-05
-2.50214e-05
-2.49698e-05
-2.49695e-05
-2.49697e-05
-2.49698e-05
-2.49718e-05
-2.49197e-05
-2.49193e-05
-2.49195e-05
-2.49196e-05
-2.49216e-05
-2.4869e-05
-2.48686e-05
-2.48688e-05
-2.48689e-05
-2.48708e-05
-2.48177e-05
-2.48174e-05
-2.48176e-05
-2.48176e-05
-2.48195e-05
-2.47659e-05
-2.47655e-05
-2.47657e-05
-2.47658e-05
-2.47675e-05
-2.47135e-05
-2.47131e-05
-2.47133e-05
-2.47134e-05
-2.47149e-05
)
;

boundaryField
{
    BotWall
    {
        type            fixedFluxPressure;
        gradient        nonuniform 0();
        value           nonuniform 0();
    }
    FreeStream
    {
        type            totalPressure;
        rho             rho;
        psi             none;
        gamma           1;
        p0              nonuniform 0();
        value           nonuniform 0();
    }
    FrontNBack
    {
        type            empty;
    }
    LeftSide
    {
        type            symmetryPlane;
    }
    RightSide
    {
        type            symmetryPlane;
    }
    procBoundary1to0
    {
        type            processor;
        value           nonuniform List<scalar> 5(-2.58679e-05 -2.58674e-05 -2.58676e-05 -2.58676e-05 -2.58709e-05);
    }
    procBoundary1to2
    {
        type            processor;
        value           nonuniform List<scalar> 5(-2.46604e-05 -2.46601e-05 -2.46603e-05 -2.46604e-05 -2.46617e-05);
    }
}


// ************************************************************************* //
