/*--------------------------------*- C++ -*----------------------------------*\
| =========                 |                                                 |
| \\      /  F ield         | OpenFOAM: The Open Source CFD Toolbox           |
|  \\    /   O peration     | Version:  2.4.0                                 |
|   \\  /    A nd           | Web:      www.OpenFOAM.org                      |
|    \\/     M anipulation  |                                                 |
\*---------------------------------------------------------------------------*/
FoamFile
{
    version     2.0;
    format      ascii;
    class       surfaceScalarField;
    location    "1";
    object      phi;
}
// * * * * * * * * * * * * * * * * * * * * * * * * * * * * * * * * * * * * * //

dimensions      [0 3 -1 0 0 0 0];

internalField   nonuniform List<scalar> 
220
(
5.76278e-18
-4.30813e-10
1.50117e-18
-4.30813e-10
-1.24926e-17
-4.30813e-10
-2.03137e-17
-4.30813e-10
-4.30813e-10
4.8119e-18
-4.30813e-10
6.75768e-19
-4.30813e-10
-1.26086e-17
-4.30813e-10
-1.99782e-17
-4.30813e-10
-4.30813e-10
3.87752e-18
-4.30813e-10
-1.34701e-19
-4.30813e-10
-1.27122e-17
-4.30813e-10
-1.96308e-17
-4.30813e-10
-4.30813e-10
2.96042e-18
-4.30813e-10
-9.29355e-19
-4.30813e-10
-1.28036e-17
-4.30813e-10
-1.92716e-17
-4.30813e-10
-4.30813e-10
2.06151e-18
-4.30813e-10
-1.70735e-18
-4.30813e-10
-1.28827e-17
-4.30813e-10
-1.89013e-17
-4.30813e-10
-4.30813e-10
1.18169e-18
-4.30813e-10
-2.46788e-18
-4.30813e-10
-1.29496e-17
-4.30813e-10
-1.85204e-17
-4.30813e-10
-4.30813e-10
3.21878e-19
-4.30813e-10
-3.21011e-18
-4.30813e-10
-1.30045e-17
-4.30813e-10
-1.81297e-17
-4.30813e-10
-4.30813e-10
-5.17052e-19
-4.30813e-10
-3.93326e-18
-4.30813e-10
-1.30474e-17
-4.30813e-10
-1.77299e-17
-4.30813e-10
-4.30813e-10
-1.33423e-18
-4.30813e-10
-4.63656e-18
-4.30813e-10
-1.30784e-17
-4.30813e-10
-1.73217e-17
-4.30813e-10
-4.30813e-10
-2.1288e-18
-4.30813e-10
-5.31924e-18
-4.30813e-10
-1.30976e-17
-4.30813e-10
-1.69058e-17
-4.30813e-10
-4.30813e-10
-2.89993e-18
-4.30813e-10
-5.98056e-18
-4.30813e-10
-1.31054e-17
-4.30813e-10
-1.64832e-17
-4.30813e-10
-4.30813e-10
-3.6468e-18
-4.30813e-10
-6.61983e-18
-4.30813e-10
-1.31019e-17
-4.30813e-10
-1.60544e-17
-4.30813e-10
-4.30813e-10
-4.36863e-18
-4.30813e-10
-7.23635e-18
-4.30813e-10
-1.30872e-17
-4.30813e-10
-1.56205e-17
-4.30813e-10
-4.30813e-10
-5.06466e-18
-4.30813e-10
-7.82946e-18
-4.30813e-10
-1.30618e-17
-4.30813e-10
-1.51822e-17
-4.30813e-10
-4.30813e-10
-5.73413e-18
-4.30813e-10
-8.39854e-18
-4.30813e-10
-1.30258e-17
-4.30813e-10
-1.47405e-17
-4.30813e-10
-4.30813e-10
-6.37635e-18
-4.30813e-10
-8.94299e-18
-4.30813e-10
-1.29796e-17
-4.30813e-10
-1.42962e-17
-4.30813e-10
-4.30813e-10
-6.99065e-18
-4.30813e-10
-9.46224e-18
-4.30813e-10
-1.29236e-17
-4.30813e-10
-1.38503e-17
-4.30813e-10
-4.30813e-10
-7.57639e-18
-4.30813e-10
-9.95579e-18
-4.30813e-10
-1.28581e-17
-4.30813e-10
-1.34037e-17
-4.30813e-10
-4.30814e-10
-8.13296e-18
-4.30813e-10
-1.04231e-17
-4.30813e-10
-1.27836e-17
-4.30813e-10
-1.29576e-17
-4.30813e-10
-4.30814e-10
-8.65981e-18
-4.30813e-10
-1.08638e-17
-4.30813e-10
-1.27004e-17
-4.30813e-10
-1.25128e-17
-4.30813e-10
-4.30814e-10
-9.15642e-18
-4.30813e-10
-1.12775e-17
-4.30813e-10
-1.26092e-17
-4.30813e-10
-1.20705e-17
-4.30813e-10
-4.30814e-10
-9.62233e-18
-4.30813e-10
-1.16637e-17
-4.30813e-10
-1.25104e-17
-4.30813e-10
-1.16326e-17
-4.30813e-10
-4.30814e-10
-1.00571e-17
-4.30813e-10
-1.20222e-17
-4.30813e-10
-1.24034e-17
-4.30813e-10
-1.11995e-17
-4.30813e-10
-4.30814e-10
-1.04603e-17
-4.30813e-10
-1.23528e-17
-4.30813e-10
-1.22899e-17
-4.30813e-10
-1.07791e-17
-4.30813e-10
-4.30814e-10
-1.08317e-17
-1.26554e-17
-1.21689e-17
-1.03633e-17
)
;

boundaryField
{
    BotWall
    {
        type            calculated;
        value           nonuniform 0();
    }
    FreeStream
    {
        type            calculated;
        value           nonuniform 0();
    }
    FrontNBack
    {
        type            empty;
        value           nonuniform 0();
    }
    LeftSide
    {
        type            symmetryPlane;
        value           uniform 0;
    }
    RightSide
    {
        type            symmetryPlane;
        value           uniform 0;
    }
    procBoundary1to0
    {
        type            processor;
        value           nonuniform List<scalar> 5(4.30813e-10 4.30813e-10 4.30813e-10 4.30813e-10 4.30813e-10);
    }
    procBoundary1to2
    {
        type            processor;
        value           nonuniform List<scalar> 5(-4.30813e-10 -4.30813e-10 -4.30813e-10 -4.30813e-10 -4.30814e-10);
    }
}


// ************************************************************************* //
