/*--------------------------------*- C++ -*----------------------------------*\
| =========                 |                                                 |
| \\      /  F ield         | OpenFOAM: The Open Source CFD Toolbox           |
|  \\    /   O peration     | Version:  2.4.0                                 |
|   \\  /    A nd           | Web:      www.OpenFOAM.org                      |
|    \\/     M anipulation  |                                                 |
\*---------------------------------------------------------------------------*/
FoamFile
{
    version     2.0;
    format      ascii;
    class       volScalarField;
    location    "2.7";
    object      p_rgh;
}
// * * * * * * * * * * * * * * * * * * * * * * * * * * * * * * * * * * * * * //

dimensions      [1 -1 -2 0 0 0 0];

internalField   nonuniform List<scalar> 
125
(
-9.17821e-06
-9.17989e-06
-9.17817e-06
-9.17933e-06
-9.17931e-06
-6.2392e-06
-6.23717e-06
-6.23533e-06
-6.23656e-06
-6.24029e-06
-7.70817e-06
-7.70556e-06
-7.70359e-06
-7.7049e-06
-7.70926e-06
-8.54059e-06
-8.53841e-06
-8.53644e-06
-8.53775e-06
-8.54166e-06
-8.64549e-06
-8.64357e-06
-8.64166e-06
-8.64293e-06
-8.64652e-06
-8.57729e-06
-8.57544e-06
-8.57357e-06
-8.57482e-06
-8.5783e-06
-8.53499e-06
-8.53315e-06
-8.53131e-06
-8.53254e-06
-8.53597e-06
-8.52155e-06
-8.51974e-06
-8.51793e-06
-8.51914e-06
-8.52251e-06
-8.51482e-06
-8.51304e-06
-8.51127e-06
-8.51246e-06
-8.51576e-06
-8.50694e-06
-8.50519e-06
-8.50346e-06
-8.50462e-06
-8.50785e-06
-8.4978e-06
-8.49609e-06
-8.49439e-06
-8.49554e-06
-8.49869e-06
-8.4883e-06
-8.48663e-06
-8.48496e-06
-8.48608e-06
-8.48916e-06
-8.47874e-06
-8.4771e-06
-8.47547e-06
-8.47657e-06
-8.47958e-06
-8.46913e-06
-8.46752e-06
-8.46593e-06
-8.467e-06
-8.46995e-06
-8.45942e-06
-8.45785e-06
-8.45629e-06
-8.45734e-06
-8.46022e-06
-8.44961e-06
-8.44808e-06
-8.44655e-06
-8.44758e-06
-8.45039e-06
-8.43969e-06
-8.43819e-06
-8.4367e-06
-8.4377e-06
-8.44046e-06
-8.42967e-06
-8.4282e-06
-8.42674e-06
-8.42773e-06
-8.43041e-06
-8.41954e-06
-8.41811e-06
-8.41668e-06
-8.41764e-06
-8.42027e-06
-8.4093e-06
-8.4079e-06
-8.40651e-06
-8.40744e-06
-8.41001e-06
-8.39896e-06
-8.39759e-06
-8.39623e-06
-8.39714e-06
-8.39965e-06
-8.3885e-06
-8.38716e-06
-8.38584e-06
-8.38672e-06
-8.38917e-06
-8.37793e-06
-8.37663e-06
-8.37533e-06
-8.3762e-06
-8.37858e-06
-8.36725e-06
-8.36598e-06
-8.36472e-06
-8.36556e-06
-8.36785e-06
-8.35646e-06
-8.35521e-06
-8.35398e-06
-8.3548e-06
-8.35701e-06
)
;

boundaryField
{
    BotWall
    {
        type            fixedFluxPressure;
        gradient        nonuniform 0();
        value           nonuniform 0();
    }
    FreeStream
    {
        type            totalPressure;
        rho             rho;
        psi             none;
        gamma           1;
        p0              nonuniform 0();
        value           nonuniform 0();
    }
    FrontNBack
    {
        type            empty;
    }
    LeftSide
    {
        type            symmetryPlane;
    }
    RightSide
    {
        type            symmetryPlane;
    }
    procBoundary1to0
    {
        type            processor;
        value           nonuniform List<scalar> 5(-3.03987e-05 -3.04043e-05 -3.04017e-05 -3.04034e-05 -3.03999e-05);
    }
    procBoundary1to2
    {
        type            processor;
        value           nonuniform List<scalar> 5(-8.34554e-06 -8.34433e-06 -8.34313e-06 -8.34393e-06 -8.34604e-06);
    }
}


// ************************************************************************* //
