/*--------------------------------*- C++ -*----------------------------------*\
| =========                 |                                                 |
| \\      /  F ield         | OpenFOAM: The Open Source CFD Toolbox           |
|  \\    /   O peration     | Version:  2.4.0                                 |
|   \\  /    A nd           | Web:      www.OpenFOAM.org                      |
|    \\/     M anipulation  |                                                 |
\*---------------------------------------------------------------------------*/
FoamFile
{
    version     2.0;
    format      ascii;
    class       surfaceScalarField;
    location    "2.7";
    object      phi;
}
// * * * * * * * * * * * * * * * * * * * * * * * * * * * * * * * * * * * * * //

dimensions      [0 3 -1 0 0 0 0];

internalField   nonuniform List<scalar> 
220
(
1.50696e-16
-2.58675e-10
1.26182e-16
-2.58675e-10
-9.04527e-17
-2.58676e-10
-1.85456e-16
-2.58675e-10
-2.58675e-10
1.44738e-16
-2.58675e-10
1.21353e-16
-2.58675e-10
-8.68993e-17
-2.58675e-10
-1.78019e-16
-2.58675e-10
-2.58675e-10
1.38876e-16
-2.58675e-10
1.16547e-16
-2.58675e-10
-8.335e-17
-2.58675e-10
-1.70704e-16
-2.58675e-10
-2.58675e-10
1.33092e-16
-2.58675e-10
1.11788e-16
-2.58675e-10
-7.98288e-17
-2.58675e-10
-1.63496e-16
-2.58675e-10
-2.58675e-10
1.27361e-16
-2.58675e-10
1.07084e-16
-2.58675e-10
-7.63416e-17
-2.58675e-10
-1.56371e-16
-2.58675e-10
-2.58675e-10
1.21681e-16
-2.58675e-10
1.02435e-16
-2.58675e-10
-7.2888e-17
-2.58675e-10
-1.49325e-16
-2.58675e-10
-2.58675e-10
1.16058e-16
-2.58675e-10
9.78408e-17
-2.58675e-10
-6.94687e-17
-2.58675e-10
-1.42364e-16
-2.58675e-10
-2.58676e-10
1.10497e-16
-2.58676e-10
9.33045e-17
-2.58675e-10
-6.60856e-17
-2.58674e-10
-1.35495e-16
-2.58675e-10
-2.58676e-10
1.05003e-16
-2.58676e-10
8.88287e-17
-2.58675e-10
-6.27409e-17
-2.58674e-10
-1.28722e-16
-2.58675e-10
-2.58676e-10
9.95776e-17
-2.58676e-10
8.4416e-17
-2.58675e-10
-5.94368e-17
-2.58674e-10
-1.22047e-16
-2.58675e-10
-2.58676e-10
9.42248e-17
-2.58676e-10
8.0069e-17
-2.58675e-10
-5.61753e-17
-2.58674e-10
-1.15474e-16
-2.58675e-10
-2.58676e-10
8.8948e-17
-2.58676e-10
7.57901e-17
-2.58675e-10
-5.29587e-17
-2.58674e-10
-1.09007e-16
-2.58675e-10
-2.58676e-10
8.37506e-17
-2.58676e-10
7.15818e-17
-2.58675e-10
-4.97888e-17
-2.58674e-10
-1.02649e-16
-2.58674e-10
-2.58676e-10
7.86358e-17
-2.58676e-10
6.74464e-17
-2.58675e-10
-4.66678e-17
-2.58674e-10
-9.64044e-17
-2.58674e-10
-2.58676e-10
7.36069e-17
-2.58676e-10
6.33862e-17
-2.58675e-10
-4.35976e-17
-2.58674e-10
-9.02756e-17
-2.58674e-10
-2.58676e-10
6.86673e-17
-2.58676e-10
5.94036e-17
-2.58675e-10
-4.05803e-17
-2.58673e-10
-8.42662e-17
-2.58674e-10
-2.58677e-10
6.382e-17
-2.58676e-10
5.55008e-17
-2.58675e-10
-3.76178e-17
-2.58673e-10
-7.83795e-17
-2.58674e-10
-2.58677e-10
5.90683e-17
-2.58676e-10
5.168e-17
-2.58675e-10
-3.47122e-17
-2.58673e-10
-7.26187e-17
-2.58674e-10
-2.58677e-10
5.44151e-17
-2.58676e-10
4.79433e-17
-2.58675e-10
-3.18652e-17
-2.58673e-10
-6.69867e-17
-2.58674e-10
-2.58677e-10
4.98635e-17
-2.58676e-10
4.42927e-17
-2.58675e-10
-2.90788e-17
-2.58673e-10
-6.14867e-17
-2.58674e-10
-2.58677e-10
4.54165e-17
-2.58677e-10
4.07303e-17
-2.58675e-10
-2.63549e-17
-2.58673e-10
-5.61215e-17
-2.58674e-10
-2.58677e-10
4.10768e-17
-2.58677e-10
3.7258e-17
-2.58675e-10
-2.36952e-17
-2.58673e-10
-5.08941e-17
-2.58674e-10
-2.58677e-10
3.68473e-17
-2.58677e-10
3.38776e-17
-2.58675e-10
-2.11013e-17
-2.58673e-10
-4.58071e-17
-2.58674e-10
-2.58677e-10
3.27306e-17
-2.58677e-10
3.05908e-17
-2.58675e-10
-1.85751e-17
-2.58673e-10
-4.08647e-17
-2.58674e-10
-2.58677e-10
2.87292e-17
2.73993e-17
-1.6118e-17
-3.60671e-17
)
;

boundaryField
{
    BotWall
    {
        type            calculated;
        value           nonuniform 0();
    }
    FreeStream
    {
        type            calculated;
        value           nonuniform 0();
    }
    FrontNBack
    {
        type            empty;
        value           nonuniform 0();
    }
    LeftSide
    {
        type            symmetryPlane;
        value           uniform 0;
    }
    RightSide
    {
        type            symmetryPlane;
        value           uniform 0;
    }
    procBoundary1to0
    {
        type            processor;
        value           nonuniform List<scalar> 5(2.58675e-10 2.58675e-10 2.58676e-10 2.58675e-10 2.58674e-10);
    }
    procBoundary1to2
    {
        type            processor;
        value           nonuniform List<scalar> 5(-2.58677e-10 -2.58675e-10 -2.58673e-10 -2.58674e-10 -2.58677e-10);
    }
}


// ************************************************************************* //
