/*--------------------------------*- C++ -*----------------------------------*\
| =========                 |                                                 |
| \\      /  F ield         | OpenFOAM: The Open Source CFD Toolbox           |
|  \\    /   O peration     | Version:  2.4.0                                 |
|   \\  /    A nd           | Web:      www.OpenFOAM.org                      |
|    \\/     M anipulation  |                                                 |
\*---------------------------------------------------------------------------*/
FoamFile
{
    version     2.0;
    format      ascii;
    class       surfaceScalarField;
    location    "1.2";
    object      phi;
}
// * * * * * * * * * * * * * * * * * * * * * * * * * * * * * * * * * * * * * //

dimensions      [0 3 -1 0 0 0 0];

internalField   nonuniform List<scalar> 
15580
(
-5.66264e-13
7.0601e-13
-2.18503e-12
1.98518e-12
-4.79435e-12
3.15097e-12
-8.33889e-12
4.21559e-12
-1.27767e-11
5.19343e-12
-1.80598e-11
6.08482e-12
-2.41548e-11
6.90182e-12
-3.101e-11
7.63383e-12
-3.85952e-11
8.29576e-12
-4.6887e-11
8.90056e-12
-5.59643e-11
9.51513e-12
-6.80633e-11
1.00601e-11
-1.4963e-10
9.81398e-12
-1.60362e-10
9.87807e-12
-1.56702e-10
-5.80858e-12
-1.30067e-10
-3.81765e-11
-1.31282e-10
-1.9787e-11
-1.07607e-10
-5.33727e-11
-6.45833e-11
-7.93158e-11
-2.39004e-11
-8.31729e-11
1.05803e-11
-8.28329e-11
3.52182e-11
-7.62763e-11
4.87099e-11
-6.73185e-11
4.9505e-11
-5.85776e-11
3.8812e-11
-5.13725e-11
1.83621e-11
-4.57633e-11
-7.67832e-12
-4.16731e-11
-3.81876e-11
-3.92464e-11
-7.24977e-11
-3.62568e-11
-1.09066e-10
-3.479e-11
-1.46806e-10
-3.43322e-11
-1.8466e-10
-3.47014e-11
-2.22316e-10
-3.5683e-11
-2.58951e-10
-3.72226e-11
-2.93921e-10
-3.90343e-11
-3.27237e-10
-4.1034e-11
-3.58712e-10
-4.31483e-11
-3.88036e-10
-4.52928e-11
-4.15304e-10
-4.73902e-11
-4.40489e-10
-4.94141e-11
-4.63584e-10
-5.13175e-11
-4.84634e-10
-5.30832e-11
-5.03735e-10
-5.46978e-11
-5.20962e-10
-5.61531e-11
-5.36386e-10
-5.74525e-11
-5.50106e-10
-5.85706e-11
-5.62242e-10
-5.94777e-11
-5.72849e-10
-6.0262e-11
-5.81961e-10
-6.09856e-11
-6.15769e-11
-5.89673e-10
-4.49612e-13
1.15562e-12
-1.82406e-12
3.35962e-12
-4.17856e-12
5.50547e-12
-7.60426e-12
7.64129e-12
-1.21925e-11
9.78168e-12
-1.80745e-11
1.19668e-11
-2.53706e-11
1.41979e-11
-3.4256e-11
1.65193e-11
-4.48699e-11
1.89096e-11
-5.73473e-11
2.1378e-11
-7.16642e-11
2.3832e-11
-2.74362e-10
2.63782e-11
-3.13918e-10
3.01351e-11
-3.40508e-10
3.64676e-11
-2.92836e-10
-5.34804e-11
-3.56818e-10
2.58058e-11
-4.0753e-10
3.09245e-11
-4.34822e-10
-2.60806e-11
-4.92479e-10
-2.16587e-11
-5.05796e-10
-6.98562e-11
-6.11213e-10
2.25848e-11
-7.74585e-10
8.70958e-11
-9.39555e-10
9.76513e-11
-1.08492e-09
8.67852e-11
-1.20389e-09
6.76042e-11
-1.29346e-09
4.38041e-11
-1.35545e-09
2.03117e-11
-1.3967e-09
2.00222e-12
-1.42244e-09
-1.05128e-11
-1.43853e-09
-1.86948e-11
-1.44811e-09
-2.4762e-11
-1.45288e-09
-2.99266e-11
-1.45393e-09
-3.4631e-11
-1.45217e-09
-3.89815e-11
-1.44811e-09
-4.3098e-11
-1.4421e-09
-4.70441e-11
-1.4344e-09
-5.08433e-11
-1.42522e-09
-5.44805e-11
-1.41471e-09
-5.78945e-11
-1.40308e-09
-6.1045e-11
-1.39048e-09
-6.39151e-11
-1.37707e-09
-6.64975e-11
-1.36298e-09
-6.87896e-11
-1.34831e-09
-7.082e-11
-1.33316e-09
-7.26039e-11
-1.31758e-09
-7.41535e-11
-1.30161e-09
-7.54421e-11
-1.28537e-09
-7.65006e-11
-1.26899e-09
-7.7372e-11
-7.79966e-11
-1.25257e-09
9.74797e-13
1.80824e-13
3.58661e-12
7.47815e-13
7.50049e-12
1.59159e-12
1.23862e-11
2.75559e-12
1.79135e-11
4.25433e-12
2.37743e-11
6.10605e-12
2.96449e-11
8.32735e-12
3.52274e-11
1.09367e-11
4.01835e-11
1.39536e-11
4.41611e-11
1.74004e-11
4.66617e-11
2.13315e-11
4.72779e-11
2.5762e-11
2.24226e-11
3.06156e-11
-5.3422e-11
3.66828e-11
-1.80424e-10
7.27868e-11
-1.39425e-10
-1.63753e-11
-2.10745e-10
1.02244e-10
-3.25106e-10
8.82802e-11
-3.73285e-10
2.6521e-11
-3.78868e-10
-6.42737e-11
-4.86575e-10
1.30292e-10
-5.73212e-10
1.73734e-10
-7.16883e-10
2.41322e-10
-8.10859e-10
1.80762e-10
-8.37588e-10
9.43331e-11
-9.10994e-10
1.1721e-10
-1.02638e-09
1.35693e-10
-1.15741e-09
1.33039e-10
-1.28889e-09
1.20969e-10
-1.40748e-09
9.98908e-11
-1.50318e-09
7.09402e-11
-1.5738e-09
4.06885e-11
-1.6223e-09
1.38742e-11
-1.65367e-09
-7.6134e-12
-1.67212e-09
-2.46503e-11
-1.67962e-09
-3.95473e-11
-1.67774e-09
-5.2721e-11
-1.66829e-09
-6.39236e-11
-1.65306e-09
-7.31331e-11
-1.63348e-09
-8.06177e-11
-1.61068e-09
-8.67228e-11
-1.5854e-09
-9.17695e-11
-1.55836e-09
-9.58349e-11
-1.5301e-09
-9.90779e-11
-1.50089e-09
-1.01812e-10
-1.47109e-09
-1.03951e-10
-1.44093e-09
-1.0561e-10
-1.4108e-09
-1.06631e-10
-1.38099e-09
-1.07177e-10
-1.07282e-10
-1.35171e-09
1.84049e-12
-1.65966e-12
6.75627e-12
-4.16797e-12
1.44068e-11
-6.05895e-12
2.46193e-11
-7.45693e-12
3.72291e-11
-8.35543e-12
5.21413e-11
-8.80615e-12
6.92466e-11
-8.77792e-12
8.85214e-11
-8.33815e-12
1.09901e-10
-7.42622e-12
1.33433e-10
-6.13112e-12
1.59119e-10
-4.35446e-12
1.8709e-10
-2.20897e-12
2.17255e-10
4.49676e-13
2.43669e-10
3.57349e-12
2.54177e-10
4.42662e-12
2.05626e-10
6.67286e-12
2.70068e-10
5.37376e-12
3.47464e-10
1.02574e-11
3.28667e-10
4.52571e-11
2.39215e-10
2.51784e-11
2.85254e-10
8.42522e-11
3.76066e-10
8.29222e-11
9.03107e-11
5.27077e-10
3.19641e-10
-4.85682e-11
4.55467e-10
-4.14934e-11
4.76042e-10
9.66358e-11
4.43701e-10
1.68033e-10
3.73862e-10
2.02878e-10
2.81849e-10
2.12982e-10
1.79005e-10
2.02735e-10
1.68985e-10
8.0961e-11
1.46812e-10
6.28616e-11
8.43861e-11
7.62997e-11
-1.44109e-11
9.11836e-11
-1.20337e-10
8.12755e-11
-2.09401e-10
4.95169e-11
-2.74984e-10
1.28622e-11
-3.33832e-10
-5.07613e-12
-3.87823e-10
-1.91413e-11
-4.34896e-10
-3.35454e-11
-4.75696e-10
-4.59228e-11
-5.10579e-10
-5.68855e-11
-5.39263e-10
-6.71509e-11
-5.63403e-10
-7.4938e-11
-5.84109e-10
-8.11064e-11
-6.01006e-10
-8.70543e-11
-6.14822e-10
-9.17937e-11
-6.25827e-10
-9.5626e-11
-6.3486e-10
-9.81443e-11
-1.00311e-10
-6.41831e-10
-5.58646e-14
-1.6038e-12
4.14818e-13
-4.63865e-12
1.70767e-12
-7.3518e-12
3.93761e-12
-9.68688e-12
7.22978e-12
-1.16476e-11
1.16853e-11
-1.32617e-11
1.74319e-11
-1.45245e-11
2.4566e-11
-1.54723e-11
3.32277e-11
-1.6088e-11
4.35171e-11
-1.64205e-11
5.55997e-11
-1.6437e-11
6.95952e-11
-1.62045e-11
8.57137e-11
-1.56688e-11
1.04199e-10
-1.49118e-11
1.22466e-10
-1.38407e-11
1.41704e-10
-1.25652e-11
1.55069e-10
-1.07237e-11
1.67257e-10
-8.58194e-12
1.72402e-10
-6.3126e-12
1.82175e-10
-3.97518e-12
2.66443e-10
-2.26749e-12
3.48689e-10
-5.40878e-14
8.71801e-10
3.61667e-12
7.63446e-10
5.96706e-11
7.30791e-10
-9.09367e-12
7.25538e-10
1.0189e-10
7.48549e-10
1.45022e-10
7.21958e-10
2.29469e-10
6.68436e-10
2.66504e-10
8.66157e-10
5.01349e-12
1.02577e-09
-7.86519e-11
1.05963e-09
2.89984e-11
1.00018e-09
1.35748e-10
9.09655e-10
1.81714e-10
8.61615e-10
1.29315e-10
8.84566e-10
2.65653e-11
9.04156e-10
-6.72707e-12
8.88694e-10
1.03852e-11
8.62543e-10
7.00997e-12
8.30816e-10
-1.8181e-12
7.93412e-10
-8.51915e-12
7.52217e-10
-1.56908e-11
7.08998e-10
-2.39317e-11
6.64588e-10
-3.05277e-11
6.16695e-10
-3.32132e-11
5.66802e-10
-3.71621e-11
5.16729e-10
-4.17205e-11
4.66757e-10
-4.56543e-11
4.17713e-10
-4.90999e-11
-5.22246e-11
3.69626e-10
4.0502e-13
-2.00882e-12
1.2912e-12
-5.52483e-12
2.58786e-12
-8.64846e-12
4.33761e-12
-1.14366e-11
6.58518e-12
-1.38952e-11
9.35434e-12
-1.60309e-11
1.26794e-11
-1.78495e-11
1.65658e-11
-1.93587e-11
2.1041e-11
-2.05631e-11
2.6092e-11
-2.14716e-11
3.17413e-11
-2.20862e-11
3.79554e-11
-2.24186e-11
4.47527e-11
-2.24661e-11
5.20862e-11
-2.22454e-11
5.99888e-11
-2.17434e-11
6.84108e-11
-2.09872e-11
7.76262e-11
-1.9939e-11
8.76827e-11
-1.86385e-11
9.84037e-11
-1.70336e-11
1.09614e-10
-1.5185e-11
1.20211e-10
-1.28623e-11
1.30194e-10
-1.00174e-11
1.35761e-10
-6.09468e-12
1.39484e-10
-2.24874e-12
1.32222e-10
3.14912e-12
2.11312e-10
7.23539e-12
3.42922e-10
1.2803e-11
5.51124e-10
2.10791e-11
7.79436e-10
3.81684e-11
7.61169e-10
2.32804e-11
6.86092e-10
-3.57479e-12
6.03904e-10
1.11187e-10
5.67204e-10
1.72448e-10
6.34622e-10
1.14296e-10
7.97293e-10
-3.33552e-11
8.69055e-10
-4.51973e-11
8.51794e-10
1.0534e-11
8.08084e-10
5.40953e-11
7.87379e-10
2.77157e-11
7.82079e-10
3.48169e-12
7.57049e-10
1.65101e-11
7.20622e-10
2.07371e-11
6.93282e-10
3.40761e-12
6.69344e-10
-6.5891e-12
6.44492e-10
-8.3617e-12
6.16208e-10
-8.87755e-12
5.83581e-10
-9.09345e-12
5.48289e-10
-1.03623e-11
5.11296e-10
-1.21073e-11
-1.41944e-11
4.73266e-10
-1.42531e-13
-1.86629e-12
-2.92767e-13
-5.3746e-12
-3.36198e-13
-8.60503e-12
-2.3826e-13
-1.15346e-11
3.38325e-14
-1.41673e-11
5.10412e-13
-1.65074e-11
1.21925e-12
-1.85583e-11
2.18483e-12
-2.03243e-11
3.42977e-12
-2.18081e-11
4.97203e-12
-2.30138e-11
6.82968e-12
-2.39439e-11
9.0132e-12
-2.46022e-11
1.15372e-11
-2.49901e-11
1.44034e-11
-2.51116e-11
1.76272e-11
-2.49671e-11
2.12004e-11
-2.45604e-11
2.51528e-11
-2.38915e-11
2.94787e-11
-2.29644e-11
3.42235e-11
-2.17783e-11
3.93783e-11
-2.03398e-11
4.51592e-11
-1.86432e-11
5.18387e-11
-1.6697e-11
6.0236e-11
-1.44919e-11
7.00396e-11
-1.20524e-11
8.26105e-11
-9.42174e-12
9.61322e-11
-6.49613e-12
1.0998e-10
-3.2032e-12
1.20565e-10
2.97556e-13
1.23722e-10
3.49073e-12
1.32746e-10
6.97908e-12
1.18248e-10
1.04442e-11
2.13277e-10
1.59539e-11
3.6657e-10
1.90912e-11
4.5415e-10
2.67152e-11
4.24787e-10
-3.99144e-12
3.18083e-10
6.15065e-11
2.16192e-10
1.12425e-10
1.82305e-10
8.79819e-11
2.34142e-10
-2.41219e-11
2.07783e-10
2.98419e-11
1.64272e-10
6.00212e-11
1.27837e-10
5.71718e-11
1.18459e-10
1.27855e-11
1.20671e-10
-8.80098e-12
1.0655e-10
5.75908e-12
8.86501e-11
9.02243e-12
7.6026e-11
3.53063e-12
6.51037e-11
5.60028e-13
5.45962e-11
-1.59978e-12
-4.36507e-12
4.47668e-11
-1.20129e-13
-1.74617e-12
-5.23049e-13
-4.97168e-12
-1.17661e-12
-7.95146e-12
-2.01432e-12
-1.06969e-11
-2.97288e-12
-1.32087e-11
-3.99197e-12
-1.54883e-11
-5.01345e-12
-1.75369e-11
-5.98145e-12
-1.93563e-11
-6.84157e-12
-2.09479e-11
-7.54107e-12
-2.23144e-11
-8.02787e-12
-2.34571e-11
-8.25085e-12
-2.43792e-11
-8.15867e-12
-2.50823e-11
-7.70019e-12
-2.557e-11
-6.82316e-12
-2.58441e-11
-5.47493e-12
-2.59087e-11
-3.60071e-12
-2.57657e-11
-1.14539e-12
-2.54198e-11
1.94963e-12
-2.48734e-11
5.74153e-12
-2.41317e-11
1.02964e-11
-2.31981e-11
1.56778e-11
-2.20784e-11
2.19639e-11
-2.0778e-11
2.92153e-11
-1.93037e-11
3.74591e-11
-1.76656e-11
4.68311e-11
-1.58681e-11
5.75504e-11
-1.39225e-11
6.96788e-11
-1.18308e-11
8.27817e-11
-9.61217e-12
9.6932e-11
-7.23927e-12
1.11886e-10
-4.60383e-12
1.27053e-10
-2.07182e-12
1.34127e-10
6.85015e-13
1.39109e-10
3.10256e-12
1.28041e-10
6.55813e-12
1.79021e-10
1.03544e-11
2.77693e-10
1.36965e-11
3.41253e-10
2.44215e-11
3.20318e-10
-3.18628e-12
3.1349e-10
3.66693e-11
2.91514e-10
8.19977e-11
3.07745e-10
4.09401e-11
3.61156e-10
-4.06248e-11
3.30951e-10
2.14039e-11
2.96418e-10
4.02929e-11
2.80118e-10
2.53221e-11
2.75691e-10
7.95752e-12
2.66746e-10
9.50534e-12
2.57889e-10
7.25695e-12
3.59539e-12
2.49928e-10
-1.06349e-13
-1.63982e-12
-3.60832e-13
-4.7172e-12
-7.21252e-13
-7.59104e-12
-1.15581e-12
-1.02623e-11
-1.63082e-12
-1.27337e-11
-2.11144e-12
-1.50077e-11
-2.5615e-12
-1.70868e-11
-2.94426e-12
-1.89735e-11
-3.22198e-12
-2.06702e-11
-3.3568e-12
-2.21795e-11
-3.31023e-12
-2.35036e-11
-3.04398e-12
-2.46454e-11
-2.51952e-12
-2.56068e-11
-1.69871e-12
-2.63908e-11
-5.43733e-13
-2.69991e-11
9.82728e-13
-2.74351e-11
2.9168e-12
-2.76997e-11
5.29428e-12
-2.77972e-11
8.14824e-12
-2.77273e-11
1.15119e-11
-2.74954e-11
1.54134e-11
-2.70995e-11
1.98816e-11
-2.65466e-11
2.4936e-11
-2.58324e-11
3.05983e-11
-2.4966e-11
3.68722e-11
-2.39395e-11
4.37696e-11
-2.27655e-11
5.12774e-11
-2.14304e-11
5.93986e-11
-1.99519e-11
6.8095e-11
-1.83086e-11
7.73814e-11
-1.65256e-11
8.7346e-11
-1.45685e-11
9.77442e-11
-1.247e-11
1.08606e-10
-1.0177e-11
1.19415e-10
-7.72092e-12
1.30954e-10
-4.99501e-12
1.42981e-10
-2.21125e-12
1.49672e-10
8.90585e-13
1.54484e-10
3.45246e-12
1.4383e-10
7.10565e-12
1.6958e-10
1.08422e-11
2.33555e-10
1.80213e-11
2.59089e-10
1.54054e-11
2.26236e-10
-7.7713e-12
1.95719e-10
5.19209e-11
1.99025e-10
3.69869e-11
2.44668e-10
-2.03201e-11
2.41912e-10
1.07131e-11
2.40275e-10
1.11428e-11
2.44647e-10
2.88427e-12
4.58038e-12
2.43662e-10
-2.19924e-13
-1.4199e-12
-8.25756e-13
-4.11136e-12
-1.76619e-12
-6.65061e-12
-2.99204e-12
-9.03645e-12
-4.45581e-12
-1.12699e-11
-6.11151e-12
-1.3352e-11
-7.91453e-12
-1.52838e-11
-9.82172e-12
-1.70664e-11
-1.1791e-11
-1.87009e-11
-1.37819e-11
-2.01886e-11
-1.57547e-11
-2.15309e-11
-1.76713e-11
-2.27289e-11
-1.9494e-11
-2.37841e-11
-2.11871e-11
-2.46977e-11
-2.2715e-11
-2.54712e-11
-2.40443e-11
-2.61058e-11
-2.51411e-11
-2.66029e-11
-2.59747e-11
-2.69637e-11
-2.65127e-11
-2.71893e-11
-2.67274e-11
-2.72808e-11
-2.65877e-11
-2.72391e-11
-2.60691e-11
-2.70652e-11
-2.51418e-11
-2.67597e-11
-2.37848e-11
-2.63231e-11
-2.19688e-11
-2.57554e-11
-1.96771e-11
-2.50572e-11
-1.68803e-11
-2.42273e-11
-1.35659e-11
-2.32664e-11
-9.70301e-12
-2.21714e-11
-5.2845e-12
-2.09441e-11
-2.74593e-13
-1.95784e-11
5.33306e-12
-1.80776e-11
1.15876e-11
-1.64315e-11
1.85136e-11
-1.4647e-11
2.62254e-11
-1.27068e-11
3.46374e-11
-1.06233e-11
4.38938e-11
-8.36583e-12
5.32804e-11
-5.94965e-12
6.367e-11
-3.29977e-12
7.4309e-11
-5.59705e-13
7.51657e-11
1.76938e-12
8.61737e-11
4.14466e-12
7.12378e-11
7.11988e-12
1.10636e-10
1.25225e-11
1.41201e-10
6.42112e-12
1.29709e-10
-8.82735e-12
1.22126e-10
1.82958e-11
1.43617e-10
-1.03486e-11
1.42182e-10
4.31977e-12
2.29322e-12
1.4447e-10
-2.10608e-13
-1.20929e-12
-8.20077e-13
-3.50189e-12
-1.79335e-12
-5.67734e-12
-3.09003e-12
-7.73978e-12
-4.67087e-12
-9.68907e-12
-6.49775e-12
-1.15251e-11
-8.53354e-12
-1.3248e-11
-1.07421e-11
-1.48578e-11
-1.30881e-11
-1.63548e-11
-1.55374e-11
-1.77394e-11
-1.80563e-11
-1.90119e-11
-2.06121e-11
-2.01731e-11
-2.31728e-11
-2.12234e-11
-2.57068e-11
-2.21636e-11
-2.81836e-11
-2.29945e-11
-3.05725e-11
-2.37169e-11
-3.28438e-11
-2.43317e-11
-3.49676e-11
-2.48398e-11
-3.69148e-11
-2.52421e-11
-3.86558e-11
-2.55398e-11
-4.01614e-11
-2.57336e-11
-4.14016e-11
-2.5825e-11
-4.23467e-11
-2.58146e-11
-4.2966e-11
-2.57038e-11
-4.32279e-11
-2.54935e-11
-4.31e-11
-2.51851e-11
-4.25479e-11
-2.47793e-11
-4.15367e-11
-2.42776e-11
-4.00275e-11
-2.36807e-11
-3.79814e-11
-2.29902e-11
-3.53529e-11
-2.22069e-11
-3.20981e-11
-2.13324e-11
-2.81622e-11
-2.03674e-11
-2.34954e-11
-1.93138e-11
-1.80294e-11
-1.81727e-11
-1.1707e-11
-1.69457e-11
-4.4383e-12
-1.56345e-11
3.85284e-12
-1.42408e-11
1.33198e-11
-1.27667e-11
2.3972e-11
-1.1212e-11
3.53142e-11
-9.57285e-12
4.72806e-11
-7.82749e-12
6.01968e-11
-6.0333e-12
6.93093e-11
-4.83031e-12
7.8985e-11
-3.42928e-12
7.08471e-11
-7.1347e-13
9.25641e-11
-3.42121e-12
9.0988e-11
-8.77277e-12
1.03894e-10
-8.58591e-12
-1.53804e-11
1.21567e-10
-2.53804e-13
-9.55489e-13
-9.39512e-13
-2.81619e-12
-2.00602e-12
-4.61083e-12
-3.41493e-12
-6.33087e-12
-5.12922e-12
-7.97479e-12
-7.1131e-12
-9.54126e-12
-9.33191e-12
-1.10292e-11
-1.17521e-11
-1.24377e-11
-1.43408e-11
-1.3766e-11
-1.70664e-11
-1.50138e-11
-1.98977e-11
-1.61806e-11
-2.28045e-11
-1.72663e-11
-2.57568e-11
-1.8271e-11
-2.87257e-11
-1.91948e-11
-3.16821e-11
-2.0038e-11
-3.45979e-11
-2.08011e-11
-3.74449e-11
-2.14846e-11
-4.01954e-11
-2.20893e-11
-4.28215e-11
-2.26159e-11
-4.52958e-11
-2.30655e-11
-4.75904e-11
-2.3439e-11
-4.96776e-11
-2.37378e-11
-5.15292e-11
-2.39629e-11
-5.3117e-11
-2.41161e-11
-5.44119e-11
-2.41986e-11
-5.53844e-11
-2.42125e-11
-5.60044e-11
-2.41593e-11
-5.62406e-11
-2.40413e-11
-5.6061e-11
-2.38603e-11
-5.5432e-11
-2.36192e-11
-5.43191e-11
-2.33198e-11
-5.26857e-11
-2.29657e-11
-5.04943e-11
-2.25588e-11
-4.77044e-11
-2.21038e-11
-4.42748e-11
-2.16023e-11
-4.01601e-11
-2.10604e-11
-3.53152e-11
-2.04794e-11
-2.96887e-11
-1.98673e-11
-2.32304e-11
-1.9225e-11
-1.58798e-11
-1.85626e-11
-7.5727e-12
-1.78799e-11
1.79046e-12
-1.71907e-11
1.22487e-11
-1.64915e-11
2.32115e-11
-1.57931e-11
3.4861e-11
-1.50791e-11
4.90185e-11
-1.488e-11
5.67074e-11
-1.46707e-11
6.26634e-11
-1.48589e-11
6.97508e-11
-1.56733e-11
-1.65967e-11
7.09672e-11
-1.41769e-13
-8.13721e-13
-5.8189e-13
-2.37607e-12
-1.30847e-12
-3.88425e-12
-2.29674e-12
-5.3426e-12
-3.52211e-12
-6.74942e-12
-4.96012e-12
-8.10324e-12
-6.58651e-12
-9.40281e-12
-8.37717e-12
-1.0647e-11
-1.03083e-11
-1.1835e-11
-1.23561e-11
-1.29659e-11
-1.44975e-11
-1.40393e-11
-1.67091e-11
-1.50547e-11
-1.89683e-11
-1.60119e-11
-2.12523e-11
-1.69108e-11
-2.35389e-11
-1.77514e-11
-2.5806e-11
-1.8534e-11
-2.80318e-11
-1.92589e-11
-3.01946e-11
-1.99265e-11
-3.22731e-11
-2.05374e-11
-3.42462e-11
-2.10924e-11
-3.60928e-11
-2.15924e-11
-3.77924e-11
-2.20382e-11
-3.93241e-11
-2.24312e-11
-4.06678e-11
-2.27724e-11
-4.18032e-11
-2.30633e-11
-4.27104e-11
-2.33054e-11
-4.33694e-11
-2.35003e-11
-4.37609e-11
-2.36498e-11
-4.38653e-11
-2.3756e-11
-4.36637e-11
-2.38207e-11
-4.31372e-11
-2.38464e-11
-4.22676e-11
-2.38353e-11
-4.10364e-11
-2.379e-11
-3.94269e-11
-2.37133e-11
-3.74212e-11
-2.3608e-11
-3.50042e-11
-2.34773e-11
-3.21594e-11
-2.33243e-11
-2.8874e-11
-2.31527e-11
-2.51331e-11
-2.29659e-11
-2.09273e-11
-2.27684e-11
-1.62437e-11
-2.25635e-11
-1.10776e-11
-2.23567e-11
-5.41806e-12
-2.21511e-11
7.42452e-13
-2.19537e-11
7.43094e-12
-2.17676e-11
1.41518e-11
-2.16008e-11
2.0941e-11
-2.14605e-11
2.75583e-11
-2.137e-11
3.03927e-11
-2.11095e-11
-2.13919e-11
3.50623e-11
-1.29345e-13
-6.84376e-13
-4.62152e-13
-2.04326e-12
-9.71131e-13
-3.37527e-12
-1.64236e-12
-4.67137e-12
-2.46158e-12
-5.9302e-12
-3.4143e-12
-7.15052e-12
-4.48587e-12
-8.33124e-12
-5.66153e-12
-9.47136e-12
-6.92642e-12
-1.05701e-11
-8.2657e-12
-1.16266e-11
-9.66451e-12
-1.26405e-11
-1.1108e-11
-1.36112e-11
-1.25815e-11
-1.45384e-11
-1.40703e-11
-1.5422e-11
-1.55599e-11
-1.62618e-11
-1.7036e-11
-1.7058e-11
-1.84843e-11
-1.78106e-11
-1.98908e-11
-1.852e-11
-2.12417e-11
-1.91865e-11
-2.25236e-11
-1.98106e-11
-2.37231e-11
-2.03928e-11
-2.48274e-11
-2.0934e-11
-2.58237e-11
-2.14348e-11
-2.66998e-11
-2.18962e-11
-2.7444e-11
-2.23191e-11
-2.80447e-11
-2.27046e-11
-2.84911e-11
-2.30539e-11
-2.87728e-11
-2.33681e-11
-2.88802e-11
-2.36486e-11
-2.88041e-11
-2.38968e-11
-2.85363e-11
-2.41142e-11
-2.80694e-11
-2.43022e-11
-2.73968e-11
-2.44626e-11
-2.65133e-11
-2.45969e-11
-2.54144e-11
-2.47068e-11
-2.40974e-11
-2.47943e-11
-2.25609e-11
-2.48608e-11
-2.08051e-11
-2.49085e-11
-1.88322e-11
-2.49388e-11
-1.66465e-11
-2.4954e-11
-1.42546e-11
-2.49554e-11
-1.16662e-11
-2.49452e-11
-8.89288e-12
-2.49244e-11
-5.95095e-12
-2.48956e-11
-2.85963e-12
-2.48589e-11
3.5661e-13
-2.48171e-11
3.66595e-12
-2.47698e-11
7.01642e-12
-2.47205e-11
1.06402e-11
-2.47315e-11
-2.47418e-11
1.3798e-11
-2.34878e-14
-6.60888e-13
-1.33363e-13
-1.93338e-12
-3.36853e-13
-3.17178e-12
-6.25657e-13
-4.38256e-12
-9.91663e-13
-5.56419e-12
-1.42687e-12
-6.71531e-12
-1.92337e-12
-7.83474e-12
-2.47332e-12
-8.92141e-12
-3.06898e-12
-9.9744e-12
-3.70267e-12
-1.09929e-11
-4.36679e-12
-1.19764e-11
-5.05381e-12
-1.29242e-11
-5.7563e-12
-1.38359e-11
-6.46688e-12
-1.47114e-11
-7.17826e-12
-1.55505e-11
-7.88324e-12
-1.6353e-11
-8.57472e-12
-1.71191e-11
-9.24569e-12
-1.7849e-11
-9.88929e-12
-1.85429e-11
-1.04987e-11
-1.92011e-11
-1.10674e-11
-1.98241e-11
-1.15889e-11
-2.04125e-11
-1.20569e-11
-2.09668e-11
-1.24654e-11
-2.14878e-11
-1.28083e-11
-2.19762e-11
-1.30802e-11
-2.24328e-11
-1.32755e-11
-2.28586e-11
-1.33891e-11
-2.32545e-11
-1.34162e-11
-2.36215e-11
-1.33523e-11
-2.39608e-11
-1.3193e-11
-2.42734e-11
-1.29345e-11
-2.45607e-11
-1.25733e-11
-2.48238e-11
-1.21062e-11
-2.5064e-11
-1.15302e-11
-2.52828e-11
-1.08432e-11
-2.54813e-11
-1.00427e-11
-2.56612e-11
-9.1274e-12
-2.58238e-11
-8.0955e-12
-2.59707e-11
-6.94622e-12
-2.61033e-11
-5.67833e-12
-2.62233e-11
-4.2915e-12
-2.6332e-11
-2.78464e-12
-2.64313e-11
-1.15782e-12
-2.65224e-11
5.90477e-13
-2.66072e-11
2.4605e-12
-2.66871e-11
4.45257e-12
-2.67619e-11
6.57434e-12
-2.68423e-11
8.76281e-12
-2.692e-11
-2.6988e-11
1.1009e-11
-2.16869e-14
-6.39201e-13
-3.21789e-14
-1.92289e-12
-1.56419e-14
-3.18832e-12
2.49487e-14
-4.42315e-12
8.67283e-14
-5.62597e-12
1.66928e-13
-6.79551e-12
2.62912e-13
-7.93072e-12
3.72224e-13
-9.03072e-12
4.92626e-13
-1.00948e-11
6.22129e-13
-1.11224e-11
7.5901e-13
-1.21132e-11
9.01833e-13
-1.3067e-11
1.04946e-12
-1.39836e-11
1.20104e-12
-1.4863e-11
1.35605e-12
-1.57055e-11
1.51422e-12
-1.65112e-11
1.67559e-12
-1.72805e-11
1.84045e-12
-1.80139e-11
2.00937e-12
-1.87118e-11
2.18312e-12
-1.93748e-11
2.36268e-12
-2.00037e-11
2.54922e-12
-2.0599e-11
2.74405e-12
-2.11617e-11
2.9486e-12
-2.16924e-11
3.16439e-12
-2.2192e-11
3.39301e-12
-2.26614e-11
3.63604e-12
-2.31016e-11
3.89508e-12
-2.35135e-11
4.17167e-12
-2.38981e-11
4.46727e-12
-2.42564e-11
4.78322e-12
-2.45894e-11
5.12075e-12
-2.48982e-11
5.48088e-12
-2.51839e-11
5.86447e-12
-2.54476e-11
6.27209e-12
-2.56904e-11
6.70416e-12
-2.59134e-11
7.16071e-12
-2.61178e-11
7.64161e-12
-2.63047e-11
8.14628e-12
-2.64754e-11
8.67401e-12
-2.66311e-11
9.22361e-12
-2.67729e-11
9.79379e-12
-2.69022e-11
1.03827e-11
-2.70202e-11
1.09886e-11
-2.71283e-11
1.1609e-11
-2.72277e-11
1.22417e-11
-2.73198e-11
1.28866e-11
-2.74068e-11
1.35373e-11
-2.74929e-11
1.41917e-11
-2.75743e-11
-2.76261e-11
1.48298e-11
1.10841e-13
-7.50041e-13
3.66264e-13
-2.17831e-12
7.35862e-13
-3.55792e-12
1.21081e-12
-4.8981e-12
1.78057e-12
-6.19573e-12
2.43363e-12
-7.44857e-12
3.15794e-12
-8.65504e-12
3.94134e-12
-9.81412e-12
4.77176e-12
-1.09252e-11
5.63752e-12
-1.19882e-11
6.52744e-12
-1.30032e-11
7.43102e-12
-1.39706e-11
8.33848e-12
-1.4891e-11
9.24087e-12
-1.57654e-11
1.013e-11
-1.65946e-11
1.09987e-11
-1.73798e-11
1.18404e-11
-1.81222e-11
1.26494e-11
-1.88229e-11
1.34209e-11
-1.94833e-11
1.41508e-11
-2.01047e-11
1.48354e-11
-2.06884e-11
1.54721e-11
-2.12357e-11
1.60584e-11
-2.1748e-11
1.65926e-11
-2.22265e-11
1.70732e-11
-2.26726e-11
1.74993e-11
-2.30875e-11
1.78702e-11
-2.34724e-11
1.81852e-11
-2.38286e-11
1.84442e-11
-2.41571e-11
1.86469e-11
-2.4459e-11
1.8793e-11
-2.47355e-11
1.88824e-11
-2.49876e-11
1.89146e-11
-2.52162e-11
1.88894e-11
-2.54224e-11
1.8806e-11
-2.5607e-11
1.86637e-11
-2.5771e-11
1.84612e-11
-2.59153e-11
1.81971e-11
-2.60407e-11
1.78696e-11
-2.6148e-11
1.74768e-11
-2.62382e-11
1.70159e-11
-2.6312e-11
1.64843e-11
-2.63706e-11
1.58787e-11
-2.64146e-11
1.51957e-11
-2.64452e-11
1.44313e-11
-2.64633e-11
1.35819e-11
-2.64704e-11
1.26423e-11
-2.64672e-11
1.16088e-11
-2.64594e-11
1.04665e-11
-2.6432e-11
-2.63944e-11
8.98545e-12
2.2773e-13
-9.77769e-13
9.36281e-13
-2.88687e-12
2.07399e-12
-4.69562e-12
3.55283e-12
-6.37695e-12
5.2955e-12
-7.9384e-12
7.23418e-12
-9.38725e-12
9.30957e-12
-1.07304e-11
1.147e-11
-1.19746e-11
1.3671e-11
-1.31262e-11
1.58742e-11
-1.41914e-11
1.8047e-11
-1.5176e-11
2.0162e-11
-1.60855e-11
2.21962e-11
-1.69253e-11
2.41309e-11
-1.77001e-11
2.59509e-11
-1.84146e-11
2.76443e-11
-1.90732e-11
2.92019e-11
-1.96798e-11
3.06172e-11
-2.02382e-11
3.18858e-11
-2.07519e-11
3.30051e-11
-2.1224e-11
3.39743e-11
-2.16576e-11
3.47939e-11
-2.20553e-11
3.54657e-11
-2.24198e-11
3.59924e-11
-2.27532e-11
3.63775e-11
-2.30577e-11
3.66252e-11
-2.33352e-11
3.67401e-11
-2.35874e-11
3.67272e-11
-2.38157e-11
3.65918e-11
-2.40217e-11
3.63391e-11
-2.42064e-11
3.59745e-11
-2.43709e-11
3.55031e-11
-2.45162e-11
3.49297e-11
-2.46429e-11
3.4259e-11
-2.47517e-11
3.3495e-11
-2.4843e-11
3.26412e-11
-2.49173e-11
3.17007e-11
-2.49748e-11
3.06756e-11
-2.50156e-11
2.95674e-11
-2.50397e-11
2.83766e-11
-2.50473e-11
2.71026e-11
-2.50381e-11
2.5744e-11
-2.5012e-11
2.42983e-11
-2.49688e-11
2.27616e-11
-2.49086e-11
2.11291e-11
-2.48308e-11
1.93942e-11
-2.47355e-11
1.75479e-11
-2.46209e-11
1.55731e-11
-2.44845e-11
1.35062e-11
-2.43652e-11
-2.4236e-11
7.01388e-12
8.32896e-13
-1.81066e-12
2.74021e-12
-4.79418e-12
5.36459e-12
-7.32e-12
8.48717e-12
-9.49953e-12
1.19309e-11
-1.13821e-11
1.55529e-11
-1.30092e-11
1.92387e-11
-1.44162e-11
2.28977e-11
-1.56336e-11
2.64591e-11
-1.66876e-11
2.98683e-11
-1.76006e-11
3.30841e-11
-1.83918e-11
3.60763e-11
-1.90778e-11
3.88239e-11
-1.96728e-11
4.13129e-11
-2.01891e-11
4.35356e-11
-2.06373e-11
4.54889e-11
-2.10265e-11
4.71736e-11
-2.13646e-11
4.85937e-11
-2.16582e-11
4.97552e-11
-2.19134e-11
5.06663e-11
-2.2135e-11
5.13361e-11
-2.23274e-11
5.17751e-11
-2.24943e-11
5.19939e-11
-2.26387e-11
5.20039e-11
-2.27632e-11
5.18161e-11
-2.28699e-11
5.14415e-11
-2.29606e-11
5.08908e-11
-2.30366e-11
5.01738e-11
-2.30987e-11
4.92997e-11
-2.31475e-11
4.82765e-11
-2.31832e-11
4.71111e-11
-2.32055e-11
4.58086e-11
-2.32137e-11
4.43724e-11
-2.32066e-11
4.28036e-11
-2.31829e-11
4.11007e-11
-2.31401e-11
3.9259e-11
-2.30756e-11
3.727e-11
-2.29858e-11
3.51209e-11
-2.28665e-11
3.27934e-11
-2.27122e-11
3.02628e-11
-2.25168e-11
2.74968e-11
-2.2272e-11
2.44541e-11
-2.19694e-11
2.10818e-11
-2.15965e-11
1.73149e-11
-2.11417e-11
1.30714e-11
-2.05872e-11
8.25214e-12
-1.99163e-11
2.73668e-12
-1.91054e-11
-3.64247e-12
-1.81053e-11
-1.21834e-11
-1.69405e-11
-1.66043e-11
-2.23603e-11
1.75893e-11
3.21952e-11
4.42752e-11
5.41756e-11
6.21935e-11
6.85843e-11
7.35681e-11
7.73344e-11
8.00468e-11
8.18462e-11
8.28545e-11
8.31767e-11
8.29039e-11
8.21148e-11
8.08775e-11
7.9251e-11
7.72865e-11
7.50282e-11
7.25148e-11
6.97798e-11
6.68524e-11
6.37581e-11
6.05194e-11
5.71563e-11
5.36863e-11
5.01257e-11
4.64891e-11
4.27904e-11
3.90428e-11
3.52596e-11
3.14541e-11
2.76405e-11
2.38338e-11
2.00509e-11
1.63109e-11
1.26352e-11
9.04948e-12
5.58294e-12
2.27079e-12
-8.46023e-13
-3.71801e-12
-6.28737e-12
-8.48392e-12
-1.02257e-11
-1.14132e-11
-1.19273e-11
-1.16289e-11
-1.03375e-11
-8.56352e-12
-1.23484e-11
-5.96063e-10
-6.20365e-11
-6.01345e-10
-6.22464e-11
-6.05549e-10
-6.23965e-11
-6.08469e-10
-6.26399e-11
-6.10518e-10
-6.27429e-11
-6.11589e-10
-6.28265e-11
-6.11909e-10
-6.25969e-11
-6.11632e-10
-6.21492e-11
-6.10692e-10
-6.16572e-11
-6.09401e-10
-6.07938e-11
-6.07711e-10
-5.99517e-11
-6.05531e-10
-5.92083e-11
-6.02879e-10
-5.83647e-11
-5.99765e-10
-5.75133e-11
-5.96555e-10
-5.63274e-11
-5.93229e-10
-5.50511e-11
-5.89854e-10
-5.37326e-11
-5.86577e-10
-5.22516e-11
-5.83253e-10
-5.09084e-11
-5.79918e-10
-4.9576e-11
-5.76653e-10
-4.82247e-11
-5.73487e-10
-4.68979e-11
-5.70438e-10
-4.55868e-11
-5.67632e-10
-4.41681e-11
-5.65096e-10
-4.2705e-11
-5.63011e-10
-4.10689e-11
-5.61436e-10
-3.93468e-11
-5.6069e-10
-3.73912e-11
-5.60561e-10
-3.5686e-11
-5.61001e-10
-3.40906e-11
-5.62529e-10
-3.22511e-11
-5.6466e-10
-3.07673e-11
-5.6751e-10
-2.92605e-11
-5.71081e-10
-2.78721e-11
-5.74993e-10
-2.67974e-11
-5.79211e-10
-2.57123e-11
-5.83223e-10
-2.49202e-11
-5.86967e-10
-2.41451e-11
-5.90888e-10
-2.29592e-11
-5.94799e-10
-2.19403e-11
-5.9836e-10
-2.12149e-11
-6.02235e-10
-1.99032e-11
-6.05605e-10
-1.92316e-11
-6.08292e-10
-1.88489e-11
-6.1036e-10
-1.83188e-11
-6.11486e-10
-1.78812e-11
-6.11587e-10
-1.76542e-11
-6.106e-10
-1.74423e-11
-6.08552e-10
-1.70596e-11
-1.66748e-11
-6.0557e-10
-1.23616e-09
-7.84392e-11
-1.21975e-09
-7.86649e-11
-1.20343e-09
-7.87101e-11
-1.18745e-09
-7.8624e-11
-1.17186e-09
-7.83308e-11
-1.15682e-09
-7.78662e-11
-1.14239e-09
-7.70286e-11
-1.12822e-09
-7.63156e-11
-1.1144e-09
-7.54835e-11
-1.10067e-09
-7.45239e-11
-1.08713e-09
-7.3487e-11
-1.07393e-09
-7.24097e-11
-1.06108e-09
-7.12091e-11
-1.0487e-09
-6.99019e-11
-1.03675e-09
-6.82752e-11
-1.02493e-09
-6.68714e-11
-1.01324e-09
-6.54231e-11
-1.00159e-09
-6.38983e-11
-9.90152e-10
-6.23477e-11
-9.78899e-10
-6.08284e-11
-9.679e-10
-5.92238e-11
-9.57498e-10
-5.72999e-11
-9.47413e-10
-5.5672e-11
-9.37558e-10
-5.40232e-11
-9.28264e-10
-5.19991e-11
-9.18993e-10
-5.03401e-11
-9.09589e-10
-4.87504e-11
-8.999e-10
-4.708e-11
-8.90163e-10
-4.5423e-11
-8.80363e-10
-4.3891e-11
-8.70271e-10
-4.2343e-11
-8.60181e-10
-4.08574e-11
-8.5033e-10
-3.91114e-11
-8.40361e-10
-3.7841e-11
-8.30401e-10
-3.67574e-11
-8.20638e-10
-3.54756e-11
-8.10879e-10
-3.46792e-11
-8.00989e-10
-3.40343e-11
-7.90681e-10
-3.32672e-11
-7.80094e-10
-3.25274e-11
-7.69459e-10
-3.18498e-11
-7.58134e-10
-3.12282e-11
-7.46702e-10
-3.06634e-11
-7.35316e-10
-3.02352e-11
-7.2374e-10
-2.9895e-11
-7.12024e-10
-2.95972e-11
-7.00327e-10
-2.93509e-11
-6.88634e-10
-2.91353e-11
-6.76758e-10
-2.8936e-11
-2.87276e-11
-6.64705e-10
-1.32309e-09
-1.0705e-10
-1.29524e-09
-1.06523e-10
-1.26822e-09
-1.05729e-10
-1.24215e-09
-1.04692e-10
-1.21703e-09
-1.03453e-10
-1.19286e-09
-1.02032e-10
-1.16937e-09
-1.00522e-10
-1.14679e-09
-9.88979e-11
-1.12506e-09
-9.72115e-11
-1.10411e-09
-9.54697e-11
-1.08393e-09
-9.36658e-11
-1.06455e-09
-9.17884e-11
-1.04589e-09
-8.98689e-11
-1.02791e-09
-8.78892e-11
-1.01025e-09
-8.59369e-11
-9.93147e-10
-8.39699e-11
-9.76547e-10
-8.20229e-11
-9.60343e-10
-8.01021e-11
-9.44504e-10
-7.81869e-11
-9.29083e-10
-7.6249e-11
-9.14011e-10
-7.42958e-11
-8.98912e-10
-7.23989e-11
-8.84098e-10
-7.0486e-11
-8.69515e-10
-6.86068e-11
-8.54684e-10
-6.68296e-11
-8.39947e-10
-6.50772e-11
-8.25268e-10
-6.34299e-11
-8.1049e-10
-6.18581e-11
-7.95586e-10
-6.03265e-11
-7.80646e-10
-5.88314e-11
-7.65609e-10
-5.73795e-11
-7.50543e-10
-5.59238e-11
-7.35101e-10
-5.4553e-11
-7.19737e-10
-5.32049e-11
-7.04569e-10
-5.19263e-11
-6.89274e-10
-5.07703e-11
-6.7429e-10
-4.96629e-11
-6.59685e-10
-4.86398e-11
-6.45275e-10
-4.76772e-11
-6.31067e-10
-4.67352e-11
-6.17104e-10
-4.58123e-11
-6.03416e-10
-4.49165e-11
-5.90044e-10
-4.40354e-11
-5.77108e-10
-4.31709e-11
-5.6468e-10
-4.23236e-11
-5.52787e-10
-4.14896e-11
-5.41472e-10
-4.06662e-11
-5.30755e-10
-3.98524e-11
-5.20645e-10
-3.9046e-11
-3.8249e-11
-5.11124e-10
-6.47101e-10
-1.0178e-10
-6.50948e-10
-1.02676e-10
-6.53587e-10
-1.0309e-10
-6.55186e-10
-1.03093e-10
-6.55887e-10
-1.02752e-10
-6.55791e-10
-1.02128e-10
-6.55042e-10
-1.01271e-10
-6.53717e-10
-1.00223e-10
-6.51911e-10
-9.90169e-11
-6.49701e-10
-9.76806e-11
-6.47127e-10
-9.62389e-11
-6.44203e-10
-9.47133e-11
-6.40952e-10
-9.31199e-11
-6.37365e-10
-9.14761e-11
-6.33507e-10
-8.97946e-11
-6.2939e-10
-8.80866e-11
-6.2505e-10
-8.63634e-11
-6.2052e-10
-8.46317e-11
-6.15809e-10
-8.28983e-11
-6.10887e-10
-8.11709e-11
-6.05729e-10
-7.94536e-11
-6.00378e-10
-7.775e-11
-5.94798e-10
-7.60655e-11
-5.89004e-10
-7.44011e-11
-5.83075e-10
-7.27587e-11
-5.77006e-10
-7.11459e-11
-5.70874e-10
-6.95617e-11
-5.64723e-10
-6.80099e-11
-5.58557e-10
-6.64917e-11
-5.52382e-10
-6.50062e-11
-5.46206e-10
-6.35559e-11
-5.39989e-10
-6.21406e-11
-5.33782e-10
-6.07605e-11
-5.27569e-10
-5.94176e-11