/*--------------------------------*- C++ -*----------------------------------*\
| =========                 |                                                 |
| \\      /  F ield         | OpenFOAM: The Open Source CFD Toolbox           |
|  \\    /   O peration     | Version:  2.4.0                                 |
|   \\  /    A nd           | Web:      www.OpenFOAM.org                      |
|    \\/     M anipulation  |                                                 |
\*---------------------------------------------------------------------------*/
FoamFile
{
    version     2.0;
    format      ascii;
    class       volScalarField;
    location    "3";
    object      H;
}
// * * * * * * * * * * * * * * * * * * * * * * * * * * * * * * * * * * * * * //

dimensions      [0 2 -2 0 0 0 0];

internalField   nonuniform List<scalar> 
125
(
-12.8077
-12.8039
-12.8003
-12.8028
-12.8079
-12.3684
-12.3647
-12.3614
-12.3637
-12.3686
-11.9181
-11.9147
-11.9115
-11.9137
-11.9183
-11.4573
-11.454
-11.451
-11.4531
-11.4575
-10.9863
-10.9832
-10.9803
-10.9823
-10.9864
-10.5055
-10.5026
-10.4998
-10.5018
-10.5057
-10.0154
-10.0127
-10.0101
-10.0119
-10.0156
-9.51654
-9.51392
-9.51151
-9.51322
-9.51666
-9.00932
-9.00686
-9.0046
-9.00621
-9.00943
-8.49431
-8.492
-8.4899
-8.4914
-8.49441
-7.97206
-7.96992
-7.96797
-7.96936
-7.97216
-7.44318
-7.44119
-7.43939
-7.44068
-7.44326
-6.90826
-6.90643
-6.90477
-6.90596
-6.90834
-6.36795
-6.36628
-6.36476
-6.36585
-6.36802
-5.82292
-5.8214
-5.82002
-5.82101
-5.82298
-5.27385
-5.27248
-5.27124
-5.27213
-5.2739
-4.72146
-4.72024
-4.71914
-4.71993
-4.72151
-4.16649
-4.16542
-4.16445
-4.16514
-4.16653
-3.6097
-3.60878
-3.60795
-3.60854
-3.60974
-3.05189
-3.05112
-3.05042
-3.05092
-3.05192
-2.49387
-2.49324
-2.49267
-2.49308
-2.4939
-1.93649
-1.936
-1.93556
-1.93587
-1.9365
-1.38059
-1.38024
-1.37993
-1.38015
-1.3806
-0.827074
-0.826865
-0.826678
-0.826812
-0.827081
-0.276844
-0.276774
-0.276712
-0.276757
-0.276847
)
;

boundaryField
{
    BotWall
    {
        type            zeroGradient;
    }
    FreeStream
    {
        type            zeroGradient;
    }
    FrontNBack
    {
        type            empty;
    }
    LeftSide
    {
        type            symmetryPlane;
    }
    RightSide
    {
        type            symmetryPlane;
    }
    procBoundary3to2
    {
        type            processor;
        value           nonuniform List<scalar> 5(-13.2346 -13.2307 -13.227 -13.2296 -13.2349);
    }
}


// ************************************************************************* //
