/*--------------------------------*- C++ -*----------------------------------*\
| =========                 |                                                 |
| \\      /  F ield         | OpenFOAM: The Open Source CFD Toolbox           |
|  \\    /   O peration     | Version:  2.4.0                                 |
|   \\  /    A nd           | Web:      www.OpenFOAM.org                      |
|    \\/     M anipulation  |                                                 |
\*---------------------------------------------------------------------------*/
FoamFile
{
    version     2.0;
    format      ascii;
    class       volScalarField;
    location    "3";
    object      p;
}
// * * * * * * * * * * * * * * * * * * * * * * * * * * * * * * * * * * * * * //

dimensions      [1 -1 -2 0 0 0 0];

internalField   nonuniform List<scalar> 
125
(
-0.0577035
-0.0577039
-0.0577042
-0.0577045
-0.0577047
-0.0588383
-0.0588387
-0.058839
-0.0588393
-0.0588395
-0.0599858
-0.0599861
-0.0599864
-0.0599867
-0.0599869
-0.0611461
-0.0611464
-0.0611467
-0.0611469
-0.0611472
-0.0623193
-0.0623196
-0.0623199
-0.0623201
-0.0623203
-0.0635056
-0.0635059
-0.0635062
-0.0635064
-0.0635066
-0.0647052
-0.0647055
-0.0647057
-0.0647059
-0.0647061
-0.0659181
-0.0659184
-0.0659186
-0.0659188
-0.065919
-0.0671446
-0.0671448
-0.0671451
-0.0671453
-0.0671454
-0.0683848
-0.068385
-0.0683852
-0.0683854
-0.0683855
-0.0696388
-0.069639
-0.0696392
-0.0696393
-0.0696395
-0.0709068
-0.070907
-0.0709071
-0.0709073
-0.0709074
-0.0721889
-0.0721891
-0.0721892
-0.0721894
-0.0721895
-0.0734854
-0.0734855
-0.0734857
-0.0734858
-0.0734859
-0.0747963
-0.0747964
-0.0747966
-0.0747967
-0.0747968
-0.0761218
-0.0761219
-0.0761221
-0.0761222
-0.0761223
-0.0774621
-0.0774623
-0.0774624
-0.0774625
-0.0774626
-0.0788174
-0.0788175
-0.0788176
-0.0788177
-0.0788178
-0.0801879
-0.0801879
-0.080188
-0.0801881
-0.0801882
-0.0815736
-0.0815736
-0.0815737
-0.0815738
-0.0815738
-0.0829747
-0.0829748
-0.0829749
-0.0829749
-0.082975
-0.0843915
-0.0843916
-0.0843916
-0.0843917
-0.0843917
-0.0858242
-0.0858242
-0.0858242
-0.0858243
-0.0858243
-0.0872728
-0.0872728
-0.0872728
-0.0872728
-0.0872728
-0.0887375
-0.0887375
-0.0887375
-0.0887375
-0.0887375
)
;

boundaryField
{
    BotWall
    {
        type            calculated;
        value           nonuniform 0();
    }
    FreeStream
    {
        type            calculated;
        value           nonuniform List<scalar> 5(-0.089474 -0.089474 -0.089474 -0.089474 -0.089474);
    }
    FrontNBack
    {
        type            empty;
    }
    LeftSide
    {
        type            symmetryPlane;
    }
    RightSide
    {
        type            symmetryPlane;
    }
    procBoundary3to2
    {
        type            processor;
        value           nonuniform List<scalar> 5(-0.0565812 -0.0565816 -0.0565819 -0.0565822 -0.0565825);
    }
}


// ************************************************************************* //
