/*--------------------------------*- C++ -*----------------------------------*\
| =========                 |                                                 |
| \\      /  F ield         | OpenFOAM: The Open Source CFD Toolbox           |
|  \\    /   O peration     | Version:  2.4.0                                 |
|   \\  /    A nd           | Web:      www.OpenFOAM.org                      |
|    \\/     M anipulation  |                                                 |
\*---------------------------------------------------------------------------*/
FoamFile
{
    version     2.0;
    format      ascii;
    class       volScalarField;
    location    "3";
    object      p_rgh;
}
// * * * * * * * * * * * * * * * * * * * * * * * * * * * * * * * * * * * * * //

dimensions      [1 -1 -2 0 0 0 0];

internalField   nonuniform List<scalar> 
125
(
-6.41316e-06
-6.76226e-06
-7.07661e-06
-7.35652e-06
-7.61924e-06
-6.42871e-06
-6.76214e-06
-7.06525e-06
-7.33512e-06
-7.58631e-06
-6.44411e-06
-6.76204e-06
-7.05378e-06
-7.31348e-06
-7.5533e-06
-6.45936e-06
-6.76197e-06
-7.0422e-06
-7.29161e-06
-7.52021e-06
-6.47445e-06
-6.76193e-06
-7.03051e-06
-7.26952e-06
-7.48703e-06
-6.48938e-06
-6.76192e-06
-7.01871e-06
-7.2472e-06
-7.45373e-06
-6.50416e-06
-6.76193e-06
-7.0068e-06
-7.22466e-06
-7.42031e-06
-6.5188e-06
-6.76197e-06
-6.99479e-06
-7.2019e-06
-7.38675e-06
-6.53331e-06
-6.76204e-06
-6.98266e-06
-7.17891e-06
-7.35304e-06
-6.5477e-06
-6.76212e-06
-6.97041e-06
-7.1557e-06
-7.31917e-06
-6.56197e-06
-6.76222e-06
-6.95805e-06
-7.13226e-06
-7.28514e-06
-6.57614e-06
-6.76233e-06
-6.94558e-06
-7.10858e-06
-7.25092e-06
-6.59021e-06
-6.76246e-06
-6.93299e-06
-7.08467e-06
-7.2165e-06
-6.60421e-06
-6.76259e-06
-6.92027e-06
-7.06053e-06
-7.18189e-06
-6.61814e-06
-6.76274e-06
-6.90743e-06
-7.03614e-06
-7.14705e-06
-6.63203e-06
-6.76289e-06
-6.89447e-06
-7.0115e-06
-7.11198e-06
-6.64587e-06
-6.76305e-06
-6.88138e-06
-6.98662e-06
-7.07667e-06
-6.65969e-06
-6.76321e-06
-6.86817e-06
-6.96149e-06
-7.04109e-06
-6.67351e-06
-6.76337e-06
-6.85481e-06
-6.93609e-06
-7.00524e-06
-6.68734e-06
-6.76354e-06
-6.84133e-06
-6.91044e-06
-6.9691e-06
-6.70119e-06
-6.76371e-06
-6.8277e-06
-6.88452e-06
-6.93265e-06
-6.7151e-06
-6.76388e-06
-6.81393e-06
-6.85832e-06
-6.89587e-06
-6.72907e-06
-6.76406e-06
-6.80003e-06
-6.83185e-06
-6.85873e-06
-6.74314e-06
-6.76423e-06
-6.78596e-06
-6.80509e-06
-6.82124e-06
-6.75733e-06
-6.76439e-06
-6.77165e-06
-6.77802e-06
-6.78344e-06
)
;

boundaryField
{
    BotWall
    {
        type            fixedFluxPressure;
        gradient        nonuniform 0();
        value           nonuniform 0();
    }
    FreeStream
    {
        type            totalPressure;
        rho             rho;
        psi             none;
        gamma           1;
        p0              uniform 0;
        value           nonuniform List<scalar> 5(-6.76448e-06 -6.76446e-06 -6.7644e-06 -6.7644e-06 -6.76448e-06);
    }
    FrontNBack
    {
        type            empty;
    }
    LeftSide
    {
        type            symmetryPlane;
    }
    RightSide
    {
        type            symmetryPlane;
    }
    procBoundary3to2
    {
        type            processor;
        value           nonuniform List<scalar> 5(-6.39749e-06 -6.7624e-06 -7.0878e-06 -7.37766e-06 -7.65217e-06);
    }
}


// ************************************************************************* //
