/*--------------------------------*- C++ -*----------------------------------*\
| =========                 |                                                 |
| \\      /  F ield         | OpenFOAM: The Open Source CFD Toolbox           |
|  \\    /   O peration     | Version:  2.4.0                                 |
|   \\  /    A nd           | Web:      www.OpenFOAM.org                      |
|    \\/     M anipulation  |                                                 |
\*---------------------------------------------------------------------------*/
FoamFile
{
    version     2.0;
    format      ascii;
    class       surfaceScalarField;
    location    "3";
    object      phi;
}
// * * * * * * * * * * * * * * * * * * * * * * * * * * * * * * * * * * * * * //

dimensions      [0 3 -1 0 0 0 0];

internalField   nonuniform List<scalar> 
220
(
-4.96327e-17
-2.43594e-10
-3.52671e-17
-2.43592e-10
2.20054e-17
-2.4359e-10
4.23057e-17
-2.43591e-10
-2.43595e-10
-5.01224e-17
-2.43594e-10
-3.57362e-17
-2.43592e-10
2.22519e-17
-2.43591e-10
4.29614e-17
-2.43591e-10
-2.43594e-10
-5.04386e-17
-2.43594e-10
-3.60748e-17
-2.43592e-10
2.24012e-17
-2.43591e-10
4.34302e-17
-2.43591e-10
-2.43594e-10
-5.05891e-17
-2.43594e-10
-3.62889e-17
-2.43592e-10
2.24582e-17
-2.43591e-10
4.37209e-17
-2.43591e-10
-2.43594e-10
-5.05827e-17
-2.43594e-10
-3.63854e-17
-2.43592e-10
2.24282e-17
-2.43591e-10
4.38431e-17
-2.43592e-10
-2.43594e-10
-5.0429e-17
-2.43594e-10
-3.63714e-17
-2.43592e-10
2.23166e-17
-2.43591e-10
4.38075e-17
-2.43592e-10
-2.43594e-10
-5.01388e-17
-2.43594e-10
-3.62547e-17
-2.43592e-10
2.21297e-17
-2.43591e-10
4.36251e-17
-2.43592e-10
-2.43594e-10
-4.97234e-17
-2.43594e-10
-3.60437e-17
-2.43592e-10
2.18739e-17
-2.43591e-10
4.33084e-17
-2.43592e-10
-2.43594e-10
-4.91956e-17
-2.43593e-10
-3.57474e-17
-2.43592e-10
2.15563e-17
-2.43591e-10
4.28702e-17
-2.43592e-10
-2.43594e-10
-4.85686e-17
-2.43593e-10
-3.53755e-17
-2.43592e-10
2.11845e-17
-2.43591e-10
4.23248e-17
-2.43592e-10
-2.43594e-10
-4.78569e-17
-2.43593e-10
-3.49384e-17
-2.43592e-10
2.07666e-17
-2.43591e-10
4.16869e-17
-2.43592e-10
-2.43594e-10
-4.7076e-17
-2.43593e-10
-3.44471e-17
-2.43592e-10
2.03111e-17
-2.43591e-10
4.09727e-17
-2.43592e-10
-2.43594e-10
-4.62422e-17
-2.43593e-10
-3.39134e-17
-2.43593e-10
1.98273e-17
-2.43591e-10
4.01989e-17
-2.43592e-10
-2.43594e-10
-4.53729e-17
-2.43593e-10
-3.33497e-17
-2.43593e-10
1.93249e-17
-2.43591e-10
3.93836e-17
-2.43592e-10
-2.43594e-10
-4.44867e-17
-2.43593e-10
-3.27693e-17
-2.43593e-10
1.88142e-17
-2.43591e-10
3.85458e-17
-2.43592e-10
-2.43594e-10
-4.36031e-17
-2.43593e-10
-3.21862e-17
-2.43593e-10
1.8306e-17
-2.43591e-10
3.77058e-17
-2.43592e-10
-2.43594e-10
-4.27428e-17
-2.43593e-10
-3.1615e-17
-2.43593e-10
1.7812e-17
-2.43591e-10
3.68848e-17
-2.43592e-10
-2.43594e-10
-4.19276e-17
-2.43593e-10
-3.10713e-17
-2.43593e-10
1.73442e-17
-2.43591e-10
3.61054e-17
-2.43592e-10
-2.43594e-10
-4.11805e-17
-2.43593e-10
-3.05715e-17
-2.43593e-10
1.69155e-17
-2.43591e-10
3.53913e-17
-2.43592e-10
-2.43594e-10
-4.05256e-17
-2.43593e-10
-3.01328e-17
-2.43593e-10
1.65392e-17
-2.43592e-10
3.47678e-17
-2.43592e-10
-2.43594e-10
-3.99881e-17
-2.43593e-10
-2.9773e-17
-2.43593e-10
1.62296e-17
-2.43592e-10
3.42612e-17
-2.43592e-10
-2.43594e-10
-3.95944e-17
-2.43593e-10
-2.95109e-17
-2.43593e-10
1.60011e-17
-2.43592e-10
3.3899e-17
-2.43592e-10
-2.43594e-10
-3.9373e-17
-2.43593e-10
-2.93667e-17
-2.43593e-10
1.58698e-17
-2.43592e-10
3.37113e-17
-2.43592e-10
-2.43594e-10
-3.9359e-17
-2.43593e-10
-2.93656e-17
-2.43593e-10
1.58545e-17
-2.43592e-10
3.37346e-17
-2.43592e-10
-2.43594e-10
-3.9592e-17
-2.95516e-17
1.59572e-17
3.40069e-17
)
;

boundaryField
{
    BotWall
    {
        type            calculated;
        value           nonuniform 0();
    }
    FreeStream
    {
        type            calculated;
        value           nonuniform List<scalar> 5(-2.43593e-10 -2.43593e-10 -2.43592e-10 -2.43592e-10 -2.43594e-10);
    }
    FrontNBack
    {
        type            empty;
        value           nonuniform 0();
    }
    LeftSide
    {
        type            symmetryPlane;
        value           uniform 0;
    }
    RightSide
    {
        type            symmetryPlane;
        value           uniform 0;
    }
    procBoundary3to2
    {
        type            processor;
        value           nonuniform List<scalar> 5(2.43594e-10 2.43592e-10 2.4359e-10 2.43591e-10 2.43595e-10);
    }
}


// ************************************************************************* //
