/*--------------------------------*- C++ -*----------------------------------*\
| =========                 |                                                 |
| \\      /  F ield         | OpenFOAM: The Open Source CFD Toolbox           |
|  \\    /   O peration     | Version:  2.4.0                                 |
|   \\  /    A nd           | Web:      www.OpenFOAM.org                      |
|    \\/     M anipulation  |                                                 |
\*---------------------------------------------------------------------------*/
FoamFile
{
    version     2.0;
    format      ascii;
    class       volVectorField;
    location    "3";
    object      U;
}
// * * * * * * * * * * * * * * * * * * * * * * * * * * * * * * * * * * * * * //

dimensions      [0 1 -1 0 0 0 0];

internalField   nonuniform List<vector> 
125
(
(-5.85201e-09 -0.00121797 0)
(-1.00288e-08 -0.00121796 0)
(-1.22257e-09 -0.00121795 0)
(8.18737e-09 -0.00121796 0)
(5.49918e-09 -0.00121797 0)
(-5.82572e-09 -0.00121797 0)
(-1.00258e-08 -0.00121796 0)
(-1.24762e-09 -0.00121795 0)
(8.2148e-09 -0.00121796 0)
(5.51671e-09 -0.00121797 0)
(-5.78101e-09 -0.00121797 0)
(-9.98626e-09 -0.00121796 0)
(-1.26684e-09 -0.00121795 0)
(8.20532e-09 -0.00121796 0)
(5.51041e-09 -0.00121797 0)
(-5.71937e-09 -0.00121797 0)
(-9.91293e-09 -0.00121796 0)
(-1.28061e-09 -0.00121795 0)
(8.16178e-09 -0.00121796 0)
(5.48214e-09 -0.00121797 0)
(-5.64227e-09 -0.00121797 0)
(-9.80872e-09 -0.00121796 0)
(-1.28934e-09 -0.00121795 0)
(8.08707e-09 -0.00121796 0)
(5.43379e-09 -0.00121797 0)
(-5.55126e-09 -0.00121797 0)
(-9.67658e-09 -0.00121796 0)
(-1.2934e-09 -0.00121795 0)
(7.98414e-09 -0.00121796 0)
(5.36726e-09 -0.00121797 0)
(-5.44791e-09 -0.00121797 0)
(-9.51951e-09 -0.00121796 0)
(-1.29321e-09 -0.00121795 0)
(7.85599e-09 -0.00121796 0)
(5.28448e-09 -0.00121797 0)
(-5.33382e-09 -0.00121797 0)
(-9.3406e-09 -0.00121796 0)
(-1.28914e-09 -0.00121795 0)
(7.70566e-09 -0.00121796 0)
(5.1874e-09 -0.00121797 0)
(-5.21065e-09 -0.00121797 0)
(-9.14298e-09 -0.00121796 0)
(-1.2816e-09 -0.00121795 0)
(7.53623e-09 -0.00121796 0)
(5.07801e-09 -0.00121797 0)
(-5.08007e-09 -0.00121797 0)
(-8.92982e-09 -0.00121796 0)
(-1.27099e-09 -0.00121795 0)
(7.35085e-09 -0.00121796 0)
(4.95829e-09 -0.00121797 0)
(-4.94379e-09 -0.00121797 0)
(-8.70435e-09 -0.00121796 0)
(-1.25769e-09 -0.00121796 0)
(7.15268e-09 -0.00121796 0)
(4.83029e-09 -0.00121797 0)
(-4.80355e-09 -0.00121797 0)
(-8.46985e-09 -0.00121796 0)
(-1.24211e-09 -0.00121796 0)
(6.94494e-09 -0.00121796 0)
(4.69603e-09 -0.00121797 0)
(-4.66112e-09 -0.00121797 0)
(-8.22964e-09 -0.00121796 0)
(-1.22464e-09 -0.00121796 0)
(6.73086e-09 -0.00121796 0)
(4.55761e-09 -0.00121797 0)
(-4.5183e-09 -0.00121797 0)
(-7.98708e-09 -0.00121796 0)
(-1.20569e-09 -0.00121796 0)
(6.51375e-09 -0.00121796 0)
(4.41711e-09 -0.00121797 0)
(-4.37691e-09 -0.00121797 0)
(-7.74557e-09 -0.00121796 0)
(-1.18565e-09 -0.00121796 0)
(6.29691e-09 -0.00121796 0)
(4.27666e-09 -0.00121797 0)
(-4.2388e-09 -0.00121797 0)
(-7.50854e-09 -0.00121796 0)
(-1.16494e-09 -0.00121796 0)
(6.08372e-09 -0.00121796 0)
(4.13842e-09 -0.00121797 0)
(-4.10586e-09 -0.00121797 0)
(-7.27946e-09 -0.00121796 0)
(-1.14396e-09 -0.00121796 0)
(5.87755e-09 -0.00121796 0)
(4.00456e-09 -0.00121797 0)
(-3.97998e-09 -0.00121797 0)
(-7.06183e-09 -0.00121796 0)
(-1.12311e-09 -0.00121796 0)
(5.68183e-09 -0.00121796 0)
(3.8773e-09 -0.00121797 0)
(-3.8631e-09 -0.00121797 0)
(-6.85919e-09 -0.00121796 0)
(-1.10282e-09 -0.00121796 0)
(5.50003e-09 -0.00121796 0)
(3.75889e-09 -0.00121797 0)
(-3.75717e-09 -0.00121796 0)
(-6.67509e-09 -0.00121796 0)
(-1.08351e-09 -0.00121796 0)
(5.33565e-09 -0.00121796 0)
(3.65163e-09 -0.00121797 0)
(-3.66415e-09 -0.00121796 0)
(-6.5131e-09 -0.00121796 0)
(-1.06559e-09 -0.00121796 0)
(5.19219e-09 -0.00121796 0)
(3.55782e-09 -0.00121797 0)
(-3.58606e-09 -0.00121796 0)
(-6.37683e-09 -0.00121796 0)
(-1.04949e-09 -0.00121796 0)
(5.07325e-09 -0.00121796 0)
(3.47985e-09 -0.00121797 0)
(-3.525e-09 -0.00121796 0)
(-6.27007e-09 -0.00121796 0)
(-1.03568e-09 -0.00121796 0)
(4.98256e-09 -0.00121796 0)
(3.42023e-09 -0.00121797 0)
(-3.48336e-09 -0.00121796 0)
(-6.19706e-09 -0.00121796 0)
(-1.02472e-09 -0.00121796 0)
(4.9242e-09 -0.00121796 0)
(3.38175e-09 -0.00121797 0)
(-3.46411e-09 -0.00121796 0)
(-6.16321e-09 -0.00121796 0)
(-1.01865e-09 -0.00121796 0)
(4.90044e-09 -0.00121796 0)
(3.36624e-09 -0.00121797 0)
)
;

boundaryField
{
    BotWall
    {
        type            fixedValue;
        value           nonuniform 0();
    }
    FreeStream
    {
        type            zeroGradient;
    }
    FrontNBack
    {
        type            empty;
    }
    LeftSide
    {
        type            symmetryPlane;
    }
    RightSide
    {
        type            symmetryPlane;
    }
    procBoundary3to2
    {
        type            processor;
        value           nonuniform List<vector> 5((-5.85857e-09 -0.00121797 0) (-9.99244e-09 -0.00121796 0) (-1.19128e-09 -0.00121795 0) (8.12027e-09 -0.00121796 0) (5.45599e-09 -0.00121797 0));
    }
}


// ************************************************************************* //
