/*--------------------------------*- C++ -*----------------------------------*\
| =========                 |                                                 |
| \\      /  F ield         | OpenFOAM: The Open Source CFD Toolbox           |
|  \\    /   O peration     | Version:  2.4.0                                 |
|   \\  /    A nd           | Web:      www.OpenFOAM.org                      |
|    \\/     M anipulation  |                                                 |
\*---------------------------------------------------------------------------*/
FoamFile
{
    version     2.0;
    format      ascii;
    class       volScalarField;
    location    "3.6";
    object      H;
}
// * * * * * * * * * * * * * * * * * * * * * * * * * * * * * * * * * * * * * //

dimensions      [0 2 -2 0 0 0 0];

internalField   nonuniform List<scalar> 
125
(
-11982.5
-11982.5
-11982.5
-11982.5
-11982.5
-11484.7
-11484.7
-11484.8
-11484.8
-11484.7
-10981.5
-10981.6
-10981.7
-10981.6
-10981.5
-10473
-10473.1
-10473.2
-10473.2
-10473
-9959.28
-9959.42
-9959.53
-9959.49
-9959.2
-9440.32
-9440.49
-9440.61
-9440.56
-9440.23
-8916.2
-8916.39
-8916.52
-8916.47
-8916.09
-8386.94
-8387.15
-8387.28
-8387.23
-8386.82
-7852.57
-7852.78
-7852.92
-7852.87
-7852.44
-7313.07
-7313.29
-7313.42
-7313.38
-7312.93
-6768.42
-6768.64
-6768.76
-6768.72
-6768.28
-6218.55
-6218.76
-6218.86
-6218.83
-6218.41
-5663.36
-5663.55
-5663.62
-5663.61
-5663.22
-5102.72
-5102.88
-5102.92
-5102.92
-5102.58
-4536.44
-4536.58
-4536.57
-4536.59
-4536.32
-3964.32
-3964.41
-3964.35
-3964.4
-3964.21
-3386.08
-3386.12
-3386
-3386.08
-3385.98
-2801.41
-2801.4
-2801.22
-2801.32
-2801.33
-2209.97
-2209.9
-2209.64
-2209.78
-2209.92
-1611.36
-1611.22
-1610.89
-1611.06
-1611.33
-1005.16
-1004.95
-1004.54
-1004.75
-1005.16
-65.3108
-65.1676
-64.9594
-65.0633
-65.3292
-50.091
-49.9793
-49.817
-49.8978
-50.1038
-50.5483
-50.4379
-50.2773
-50.3569
-50.559
-50.9681
-50.8592
-50.7003
-50.7787
-50.9768
)
;

boundaryField
{
    BotWall
    {
        type            zeroGradient;
    }
    FreeStream
    {
        type            zeroGradient;
    }
    FrontNBack
    {
        type            empty;
    }
    LeftSide
    {
        type            symmetryPlane;
    }
    RightSide
    {
        type            symmetryPlane;
    }
    procBoundary0to1
    {
        type            processor;
        value           nonuniform List<scalar> 5(-51.3399 -51.2325 -51.0755 -51.1526 -51.3464);
    }
}


// ************************************************************************* //
