/*--------------------------------*- C++ -*----------------------------------*\
| =========                 |                                                 |
| \\      /  F ield         | OpenFOAM: The Open Source CFD Toolbox           |
|  \\    /   O peration     | Version:  2.4.0                                 |
|   \\  /    A nd           | Web:      www.OpenFOAM.org                      |
|    \\/     M anipulation  |                                                 |
\*---------------------------------------------------------------------------*/
FoamFile
{
    version     2.0;
    format      ascii;
    class       volScalarField;
    location    "3.6";
    object      T;
}
// * * * * * * * * * * * * * * * * * * * * * * * * * * * * * * * * * * * * * //

dimensions      [0 0 0 1 0 0 0];

internalField   nonuniform List<scalar> 
125
(
293.101
293.101
293.101
293.101
293.101
293.305
293.305
293.305
293.305
293.305
293.51
293.51
293.51
293.51
293.51
293.718
293.718
293.718
293.718
293.718
293.928
293.928
293.928
293.928
293.928
294.141
294.14
294.14
294.14
294.141
294.355
294.355
294.355
294.355
294.355
294.571
294.571
294.571
294.571
294.571
294.79
294.79
294.789
294.79
294.79
295.01
295.01
295.01
295.01
295.01
295.233
295.233
295.233
295.233
295.233
295.458
295.458
295.458
295.458
295.458
295.685
295.685
295.685
295.685
295.685
295.914
295.914
295.914
295.914
295.914
296.145
296.145
296.145
296.145
296.145
296.379
296.379
296.379
296.379
296.379
296.616
296.616
296.616
296.616
296.616
296.855
296.855
296.855
296.855
296.855
297.096
297.097
297.097
297.097
297.097
297.341
297.341
297.341
297.341
297.341
297.589
297.589
297.589
297.589
297.589
297.973
297.973
297.973
297.973
297.973
297.972
297.973
297.973
297.973
297.972
297.972
297.972
297.972
297.972
297.972
297.972
297.972
297.972
297.972
297.972
)
;

boundaryField
{
    BotWall
    {
        type            fixedValue;
        value           uniform 293;
    }
    FreeStream
    {
        type            fixedValue;
        value           nonuniform 0();
    }
    FrontNBack
    {
        type            empty;
    }
    LeftSide
    {
        type            symmetryPlane;
    }
    RightSide
    {
        type            symmetryPlane;
    }
    procBoundary0to1
    {
        type            processor;
        value           nonuniform List<scalar> 5(297.972 297.972 297.972 297.972 297.972);
    }
}


// ************************************************************************* //
