/*--------------------------------*- C++ -*----------------------------------*\
| =========                 |                                                 |
| \\      /  F ield         | OpenFOAM: The Open Source CFD Toolbox           |
|  \\    /   O peration     | Version:  2.4.0                                 |
|   \\  /    A nd           | Web:      www.OpenFOAM.org                      |
|    \\/     M anipulation  |                                                 |
\*---------------------------------------------------------------------------*/
FoamFile
{
    version     2.0;
    format      ascii;
    class       volVectorField;
    location    "3.6";
    object      U;
}
// * * * * * * * * * * * * * * * * * * * * * * * * * * * * * * * * * * * * * //

dimensions      [0 1 -1 0 0 0 0];

internalField   nonuniform List<vector> 
125
(
(1.26472e-09 -3.90285e-10 0)
(2.81772e-09 -3.93709e-10 0)
(6.92851e-10 -3.87749e-10 0)
(-2.87034e-09 -3.91489e-10 0)
(-1.96808e-09 -3.90909e-10 0)
(3.84393e-09 9.35425e-10 0)
(8.60196e-09 1.02705e-09 0)
(2.13209e-09 1.09861e-09 0)
(-8.77816e-09 1.05589e-09 0)
(-6.02551e-09 9.2505e-10 0)
(6.49356e-09 -1.88352e-09 0)
(1.45771e-08 -1.72718e-09 0)
(3.63465e-09 -1.51217e-09 0)
(-1.48969e-08 -1.63984e-09 0)
(-1.02361e-08 -1.91457e-09 0)
(9.20967e-09 2.01163e-09 0)
(2.07438e-08 2.47102e-09 0)
(5.20288e-09 2.91071e-09 0)
(-2.12284e-08 2.65142e-09 0)
(-1.45996e-08 1.94555e-09 0)
(1.20045e-08 -3.68658e-09 0)
(2.71193e-08 -3.07928e-09 0)
(6.8394e-09 -2.32834e-09 0)
(-2.77908e-08 -2.76998e-09 0)
(-1.9132e-08 -3.79939e-09 0)
(1.48693e-08 2.93053e-09 0)
(3.37003e-08 4.06074e-09 0)
(8.54755e-09 5.21142e-09 0)
(-3.45818e-08 4.53768e-09 0)
(-2.38294e-08 2.75353e-09 0)
(1.7821e-08 -5.93319e-09 0)
(4.05099e-08 -4.56175e-09 0)
(1.03306e-08 -2.91461e-09 0)
(-4.16264e-08 -3.87668e-09 0)
(-2.87139e-08 -6.18708e-09 0)
(2.0847e-08 3.72421e-09 0)
(4.75409e-08 5.85585e-09 0)
(1.21915e-08 8.09829e-09 0)
(-4.89184e-08 6.79339e-09 0)
(-3.37776e-08 3.37213e-09 0)
(2.39682e-08 -8.75578e-09 0)
(5.48205e-08 -6.27463e-09 0)
(1.41338e-08 -3.32866e-09 0)
(-5.64868e-08 -5.03878e-09 0)
(-3.90468e-08 -9.22002e-09 0)
(2.71693e-08 4.20342e-09 0)
(6.23396e-08 7.70065e-09 0)
(1.61608e-08 1.14603e-08 0)
(-6.43234e-08 9.28516e-09 0)
(-4.4511e-08 3.60138e-09 0)
(3.04737e-08 -1.23087e-08 0)
(7.01287e-08 -8.33702e-09 0)
(1.82763e-08 -3.64133e-09 0)
(-7.24611e-08 -6.35109e-09 0)
(-5.02004e-08 -1.30639e-08 0)
(3.38648e-08 6.28837e-09 0)
(7.81776e-08 1.15522e-08 0)
(2.04838e-08 1.73153e-08 0)
(-8.08911e-08 1.40012e-08 0)
(-5.61038e-08 5.34954e-09 0)
(3.73675e-08 -1.07216e-08 0)
(8.65197e-08 -4.83439e-09 0)
(2.27881e-08 2.14487e-09 0)
(-8.96491e-08 -1.85575e-09 0)
(-6.22536e-08 -1.18617e-08 0)
(4.09648e-08 1.1281e-08 0)
(9.5145e-08 1.87582e-08 0)
(2.51931e-08 2.70734e-08 0)
(-9.87266e-08 2.23224e-08 0)
(-6.8639e-08 9.90192e-09 0)
(4.46826e-08 -5.32046e-08 0)
(1.04088e-07 -4.50104e-08 0)
(2.77033e-08 -3.53208e-08 0)
(-1.08161e-07 -4.08518e-08 0)
(-7.5294e-08 -5.48337e-08 0)
(4.85027e-08 -1.3721e-07 0)
(1.13337e-07 -1.27364e-07 0)
(3.03227e-08 -1.16384e-07 0)
(-1.17942e-07 -1.22658e-07 0)
(-8.22066e-08 -1.39103e-07 0)
(5.24496e-08 -1.67412e-07 0)
(1.22925e-07 -1.56677e-07 0)
(3.30555e-08 -1.44031e-07 0)
(-1.28104e-07 -1.51241e-07 0)
(-8.94092e-08 -1.69582e-07 0)
(5.65113e-08 8.39742e-07 0)
(1.32854e-07 8.54489e-07 0)
(3.59103e-08 8.7176e-07 0)
(-1.38652e-07 8.62138e-07 0)
(-9.69003e-08 8.37028e-07 0)
(6.07401e-08 3.81627e-06 0)
(1.43224e-07 3.83868e-06 0)
(3.8909e-08 3.8675e-06 0)
(-1.49655e-07 3.85201e-06 0)
(-1.04725e-07 3.81223e-06 0)
(6.5166e-08 2.92924e-06 0)
(1.53968e-07 2.95747e-06 0)
(4.19195e-08 2.99073e-06 0)
(-1.61358e-07 2.97289e-06 0)
(-1.13094e-07 2.92379e-06 0)
(6.97388e-08 -1.72623e-05 0)
(1.65391e-07 -1.7264e-05 0)
(4.53749e-08 -1.72876e-05 0)
(-1.73431e-07 -1.72773e-05 0)
(-1.21757e-07 -1.72647e-05 0)
(7.5726e-08 -0.000135543 0)
(1.79926e-07 -0.000135756 0)
(4.96849e-08 -0.000136096 0)
(-1.88878e-07 -0.000135929 0)
(-1.32969e-07 -0.000135514 0)
(7.75793e-08 -0.000855295 0)
(1.8473e-07 -0.000855235 0)
(5.11834e-08 -0.000855146 0)
(-1.93941e-07 -0.000855196 0)
(-1.36579e-07 -0.00085528 0)
(7.28282e-08 -0.00194755 0)
(1.74788e-07 -0.00194758 0)
(4.87525e-08 -0.00194753 0)
(-1.82206e-07 -0.00194756 0)
(-1.28039e-07 -0.00194749 0)
(6.53376e-08 -0.0010839 0)
(1.58496e-07 -0.00108406 0)
(4.45623e-08 -0.00108422 0)
(-1.64374e-07 -0.00108415 0)
(-1.15268e-07 -0.00108385 0)
)
;

boundaryField
{
    BotWall
    {
        type            fixedValue;
        value           uniform (0 0 0);
    }
    FreeStream
    {
        type            zeroGradient;
    }
    FrontNBack
    {
        type            empty;
    }
    LeftSide
    {
        type            symmetryPlane;
    }
    RightSide
    {
        type            symmetryPlane;
    }
    procBoundary0to1
    {
        type            processor;
        value           nonuniform List<vector> 5((5.86498e-08 -0.00101241 0) (1.43441e-07 -0.00101253 0) (4.05951e-08 -0.00101265 0) (-1.47915e-07 -0.0010126 0) (-1.03672e-07 -0.00101237 0));
    }
}


// ************************************************************************* //
