/*--------------------------------*- C++ -*----------------------------------*\
| =========                 |                                                 |
| \\      /  F ield         | OpenFOAM: The Open Source CFD Toolbox           |
|  \\    /   O peration     | Version:  2.4.0                                 |
|   \\  /    A nd           | Web:      www.OpenFOAM.org                      |
|    \\/     M anipulation  |                                                 |
\*---------------------------------------------------------------------------*/
FoamFile
{
    version     2.0;
    format      ascii;
    class       surfaceScalarField;
    location    "1.3";
    object      phi;
}
// * * * * * * * * * * * * * * * * * * * * * * * * * * * * * * * * * * * * * //

dimensions      [0 3 -1 0 0 0 0];

internalField   nonuniform List<scalar> 
15580
(
-8.8794e-14
-2.26303e-12
-2.93787e-13
-6.66271e-12
-5.86989e-13
-1.09235e-11
-9.57351e-13
-1.50393e-11
-1.39522e-12
-1.90106e-11
-1.89214e-12
-2.28377e-11
-2.44073e-12
-2.65208e-11
-3.03449e-12
-3.00601e-11
-3.66772e-12
-3.34558e-11
-4.33534e-12
-3.67082e-11
-5.03285e-12
-3.98174e-11
-5.75615e-12
-4.27836e-11
-6.50158e-12
-4.5607e-11
-7.2657e-12
-4.82876e-11
-8.04536e-12
-5.08256e-11
-8.83752e-12
-5.32211e-11
-9.63927e-12
-5.54741e-11
-1.04477e-11
-5.75848e-11
-1.126e-11
-5.95531e-11
-1.2073e-11
-6.13791e-11
-1.28839e-11
-6.30628e-11
-1.3689e-11
-6.46042e-11
-1.44851e-11
-6.60034e-11
-1.5268e-11
-6.72601e-11
-1.60335e-11
-6.83745e-11
-1.67766e-11
-6.93465e-11
-1.74924e-11
-7.01759e-11
-1.81754e-11
-7.08622e-11
-1.88193e-11
-7.14048e-11
-1.9408e-11
-7.18046e-11
-1.99076e-11
-7.20713e-11
-4.07454e-11
-7.22287e-11
-4.12751e-11
-7.22691e-11
-4.16759e-11
-7.22742e-11
-4.20996e-11
-7.22621e-11
-4.2634e-11
-7.21728e-11
-4.31517e-11
-7.21085e-11
-4.366e-11
-7.20344e-11
-4.41704e-11
-7.19535e-11
-4.46872e-11
-7.1866e-11
-4.52112e-11
-7.17707e-11
-4.5743e-11
-7.1666e-11
-4.62829e-11
-7.15506e-11
-4.6831e-11
-7.14231e-11
-4.7387e-11
-7.12825e-11
-4.79501e-11
-7.11281e-11
-4.85199e-11
-7.09594e-11
-4.90958e-11
-7.07761e-11
-4.96772e-11
-7.05782e-11
-7.03656e-11
-5.02635e-11
-3.82132e-14
-2.22481e-12
-1.69979e-13
-6.53094e-12
-3.94569e-13
-1.06989e-11
-7.03079e-13
-1.47308e-11
-1.08755e-12
-1.86262e-11
-1.54079e-12
-2.23845e-11
-2.05631e-12
-2.60052e-11
-2.62821e-12
-2.94882e-11
-3.25111e-12
-3.28329e-11
-3.92008e-12
-3.60392e-11
-4.63058e-12
-3.91069e-11
-5.37839e-12
-4.20358e-11
-6.15959e-12
-4.48258e-11
-6.97042e-12
-4.74768e-11
-7.80736e-12
-4.99887e-11
-8.66693e-12
-5.23615e-11
-9.54579e-12
-5.45953e-11
-1.04406e-11
-5.669e-11
-1.13479e-11
-5.86458e-11
-1.22643e-11
-6.04627e-11
-1.31862e-11
-6.21409e-11
-1.41098e-11
-6.36806e-11
-1.50313e-11
-6.50819e-11
-1.59461e-11
-6.63452e-11
-1.68499e-11
-6.74708e-11
-1.77374e-11
-6.84589e-11
-1.86033e-11
-6.931e-11
-1.9441e-11
-7.00246e-11
-2.02424e-11
-7.06033e-11
-2.09996e-11
-7.10474e-11
-2.20143e-11
-7.13579e-11
-4.1495e-11
-7.15409e-11
-4.2174e-11
-7.159e-11
-4.28244e-11
-7.16238e-11
-4.34315e-11
-7.1655e-11
-4.39888e-11
-7.16156e-11
-4.45429e-11
-7.15543e-11
-4.50942e-11
-7.14832e-11
-4.56461e-11
-7.14016e-11
-4.62026e-11
-7.13095e-11
-4.67667e-11
-7.12066e-11
-4.73402e-11
-7.10925e-11
-4.79244e-11
-7.09664e-11
-4.852e-11
-7.08275e-11
-4.91271e-11
-7.06754e-11
-4.97456e-11
-7.05096e-11
-5.03751e-11
-7.03299e-11
-5.10149e-11
-7.01363e-11
-5.16644e-11
-6.99287e-11
-6.97073e-11
-5.23227e-11
-2.57557e-14
-2.19906e-12
-8.98295e-14
-6.46687e-12
-1.88104e-13
-1.06006e-11
-3.20707e-13
-1.45982e-11
-4.87433e-13
-1.84594e-11
-6.87837e-13
-2.21841e-11
-9.21286e-13
-2.57718e-11
-1.18701e-12
-2.92224e-11
-1.48413e-12
-3.25358e-11
-1.81168e-12
-3.57117e-11
-2.16867e-12
-3.87499e-11
-2.55406e-12
-4.16504e-11
-2.96682e-12
-4.44131e-11
-3.40591e-12
-4.70377e-11
-3.87031e-12
-4.95243e-11
-4.35906e-12
-5.18728e-11
-4.8712e-12
-5.40831e-11
-5.40586e-12
-5.61554e-11
-5.9622e-12
-5.80894e-11
-6.5395e-12
-5.98854e-11
-7.13708e-12
-6.15433e-11
-7.75439e-12
-6.30633e-11
-8.39097e-12
-6.44454e-11
-9.04652e-12
-6.56897e-11
-9.72084e-12
-6.67964e-11
-1.04139e-11
-6.77658e-11
-1.1126e-11
-6.8598e-11
-1.18575e-11
-6.92931e-11
-1.26095e-11
-6.98514e-11
-1.33836e-11
-7.02733e-11
-1.45156e-11
-7.05612e-11
-3.36311e-11
-7.07436e-11
-3.44429e-11
-7.07783e-11
-3.52618e-11
-7.08048e-11
-3.61567e-11
-7.07601e-11
-3.7056e-11
-7.07163e-11
-3.79404e-11
-7.06699e-11
-3.88103e-11
-7.06133e-11
-3.96667e-11
-7.05451e-11
-4.05114e-11
-7.04648e-11
-4.13461e-11
-7.03719e-11
-4.21726e-11
-7.0266e-11
-4.29925e-11
-7.01465e-11
-4.38071e-11
-7.00129e-11
-4.46177e-11
-6.98649e-11
-4.54249e-11
-6.97024e-11
-4.62295e-11
-6.95253e-11
-4.7032e-11
-6.93339e-11
-4.78325e-11
-6.91282e-11
-6.89085e-11
-4.86313e-11
-8.28678e-15
-2.19077e-12
-4.05161e-14
-6.43464e-12
-9.91456e-14
-1.0542e-11
-1.84227e-13
-1.45131e-11
-2.95831e-13
-1.83478e-11
-4.34036e-13
-2.20459e-11
-5.98926e-13
-2.56069e-11
-7.90597e-13
-2.90308e-11
-1.00916e-12
-3.23172e-11
-1.25475e-12
-3.54661e-11
-1.52753e-12
-3.84772e-11
-1.8277e-12
-4.13503e-11
-2.15549e-12
-4.40853e-11
-2.51122e-12
-4.6682e-11
-2.89524e-12
-4.91403e-11
-3.30798e-12
-5.146e-11
-3.74999e-12
-5.36411e-11
-4.22188e-12
-5.56835e-11
-4.72439e-12
-5.75869e-11
-5.25841e-12
-5.93514e-11
-5.82495e-12
-6.09768e-11
-6.4252e-12
-6.2463e-11
-7.06053e-12
-6.381e-11
-7.73254e-12
-6.50177e-11
-8.443e-12
-6.6086e-11
-9.19403e-12
-6.70148e-11
-9.98804e-12
-6.7804e-11
-1.08279e-11
-6.84532e-11
-1.17163e-11
-6.8963e-11
-1.26544e-11
-6.93352e-11
-1.58053e-11
-6.95746e-11
-3.28833e-11
-6.9702e-11
-3.39486e-11
-6.9713e-11
-3.50235e-11
-6.97298e-11
-3.60536e-11
-6.97301e-11
-3.70518e-11
-6.97181e-11
-3.80263e-11
-6.96953e-11
-3.89804e-11
-6.96592e-11
-3.99166e-11
-6.9609e-11
-4.08365e-11
-6.95448e-11
-4.17419e-11
-6.94665e-11
-4.26344e-11
-6.93734e-11
-4.35158e-11
-6.92651e-11
-4.43873e-11
-6.91413e-11
-4.52504e-11
-6.90018e-11
-4.61061e-11
-6.88466e-11
-4.69554e-11
-6.8676e-11
-4.77992e-11
-6.84902e-11
-4.8638e-11
-6.82894e-11
-6.80741e-11
-4.94724e-11
2.56805e-15
-2.19334e-12
9.60807e-15
-6.44168e-12
1.85857e-14
-1.05509e-11
2.62374e-14
-1.45208e-11
2.9639e-14
-1.83512e-11
2.61534e-14
-2.20424e-11
1.33886e-14
-2.55941e-11
-1.08355e-14
-2.90065e-11
-4.85233e-14
-3.22795e-11
-1.01531e-13
-3.54131e-11
-1.71601e-13
-3.84071e-11
-2.60381e-13
-4.12615e-11
-3.69463e-13
-4.39762e-11
-5.00396e-13
-4.6551e-11
-6.54721e-13
-4.8986e-11
-8.33986e-13
-5.12808e-11
-1.03979e-12
-5.34353e-11
-1.27376e-12
-5.54495e-11
-1.53767e-12
-5.7323e-11
-1.83334e-12
-5.90557e-11
-2.16279e-12
-6.06473e-11
-2.52818e-12
-6.20976e-11
-2.9319e-12
-6.34063e-11
-3.37656e-12
-6.4573e-11
-3.86508e-12
-6.55975e-11
-4.40057e-12
-6.64793e-11
-4.98643e-12
-6.72181e-11
-5.6265e-12
-6.78132e-11
-6.32705e-12
-6.82624e-11
-7.09903e-12
-6.85632e-11
-1.14985e-11
-6.87202e-11
-2.63001e-11
-6.88089e-11
-2.72312e-11
-6.87819e-11
-2.81953e-11
-6.87657e-11
-2.92448e-11
-6.86807e-11
-3.03094e-11
-6.86534e-11
-3.13812e-11
-6.86235e-11
-3.24576e-11
-6.85828e-11
-3.35369e-11
-6.85297e-11
-3.46172e-11
-6.84645e-11
-3.56971e-11
-6.83867e-11
-3.67748e-11
-6.82957e-11
-3.78492e-11
-6.81908e-11
-3.89189e-11
-6.80716e-11
-3.99831e-11
-6.79377e-11
-4.10407e-11
-6.7789e-11
-4.20912e-11
-6.76255e-11
-4.31338e-11
-6.74475e-11
-4.41682e-11
-6.7255e-11
-6.70483e-11
-4.5194e-11
-2.69341e-15
-2.19065e-12
-1.51231e-14
-6.42925e-12
-3.943e-14
-1.05266e-11
-7.66717e-14
-1.44835e-11
-1.27883e-13
-1.83e-11
-1.94062e-13
-2.19762e-11
-2.76176e-13
-2.5512e-11
-3.75151e-13
-2.89076e-11
-4.9188e-13
-3.21628e-11
-6.27209e-13
-3.52778e-11
-7.81957e-13
-3.82523e-11
-9.56886e-13
-4.10866e-11
-1.15274e-12
-4.37803e-11
-1.37018e-12
-4.63336e-11
-1.60988e-12
-4.87463e-11
-1.87241e-12
-5.10182e-11
-2.15833e-12
-5.31494e-11
-2.4681e-12
-5.51397e-11
-2.80219e-12
-5.69889e-11
-3.1609e-12
-5.8697e-11
-3.54459e-12
-6.02636e-11
-3.95337e-12
-6.16888e-11
-4.38743e-12
-6.29722e-11
-4.84662e-12
-6.41138e-11
-5.33093e-12
-6.51132e-11
-5.83993e-12
-6.59703e-11
-6.37353e-12
-6.66845e-11
-6.93087e-12
-6.72558e-11
-7.50982e-12
-6.76835e-11
-8.10368e-12
-6.79694e-11
-2.52193e-11
-6.81223e-11
-3.27858e-11
-6.81493e-11
-3.34487e-11
-6.8119e-11
-3.41084e-11
-6.8106e-11
-3.47371e-11
-6.8052e-11
-3.53979e-11
-6.79926e-11
-3.60917e-11
-6.79297e-11
-3.68161e-11
-6.78585e-11
-3.75686e-11
-6.77772e-11
-3.83471e-11
-6.7686e-11
-3.91492e-11
-6.75846e-11
-3.99725e-11
-6.74723e-11
-4.08146e-11
-6.73487e-11
-4.16729e-11
-6.72132e-11
-4.25451e-11
-6.70655e-11
-4.34288e-11
-6.69053e-11
-4.43219e-11
-6.67324e-11
-4.52224e-11
-6.65469e-11
-4.61287e-11
-6.63487e-11
-6.61379e-11
-4.70391e-11
-2.01997e-14
-2.17045e-12
-7.58724e-14
-6.37358e-12
-1.64457e-13
-1.0438e-11
-2.84678e-13
-1.43633e-11
-4.35508e-13
-1.81492e-11
-6.16133e-13
-2.17956e-11
-8.25915e-13
-2.53022e-11
-1.06437e-12
-2.86691e-11
-1.33112e-12
-3.18961e-11
-1.62589e-12
-3.4983e-11
-1.94846e-12
-3.79298e-11
-2.29864e-12
-4.07364e-11
-2.67628e-12
-4.34027e-11
-3.08117e-12
-4.59287e-11
-3.51311e-12
-4.83143e-11
-3.97179e-12
-5.05596e-11
-4.45684e-12
-5.26644e-11
-4.96775e-12
-5.46288e-11
-5.50385e-12
-5.64528e-11
-6.06432e-12
-5.81365e-11
-6.64805e-12
-5.96799e-11
-7.25376e-12
-6.10831e-11
-7.87978e-12
-6.23462e-11
-8.52415e-12
-6.34695e-11
-9.18447e-12
-6.44528e-11
-9.85799e-12
-6.52968e-11
-1.05414e-11
-6.60011e-11
-1.12306e-11
-6.65666e-11
-1.19197e-11
-6.69944e-11
-1.2946e-11
-6.72878e-11
-3.50835e-11
-6.74655e-11
-3.57532e-11
-6.74795e-11
-3.63847e-11
-6.74875e-11
-3.70385e-11
-6.74523e-11
-3.76826e-11
-6.74079e-11
-3.83236e-11
-6.73515e-11
-3.89702e-11
-6.72831e-11
-3.96265e-11
-6.72022e-11
-4.02948e-11
-6.71089e-11
-4.09769e-11
-6.7004e-11
-4.16737e-11
-6.68878e-11
-4.23855e-11
-6.67605e-11
-4.31121e-11
-6.6622e-11
-4.38532e-11
-6.64722e-11
-4.46078e-11
-6.63109e-11
-4.53752e-11
-6.6138e-11
-4.61542e-11
-6.59534e-11
-4.69439e-11
-6.57572e-11
-4.77431e-11
-6.55495e-11
-6.53302e-11
-4.85509e-11
-1.38494e-14
-2.1566e-12
-5.53024e-14
-6.33212e-12
-1.24123e-13
-1.03692e-11
-2.2005e-13
-1.42674e-11
-3.42913e-13
-1.80263e-11
-4.92625e-13
-2.16459e-11
-6.69172e-13
-2.51257e-11
-8.72606e-13
-2.84657e-11
-1.10303e-12
-3.16656e-11
-1.36061e-12
-3.47254e-11
-1.64555e-12
-3.76448e-11
-1.95807e-12
-4.04238e-11
-2.29845e-12
-4.30623e-11
-2.66696e-12
-4.55602e-11
-3.06393e-12
-4.79174e-11
-3.48965e-12
-5.01338e-11
-3.94446e-12
-5.22096e-11
-4.42869e-12
-5.41446e-11
-4.94264e-12
-5.59389e-11
-5.48665e-12
-5.75925e-11
-6.06101e-12
-5.91055e-11
-6.66606e-12
-6.04781e-11
-7.30204e-12
-6.17103e-11
-7.9693e-12
-6.28022e-11
-8.66803e-12
-6.37541e-11
-9.39861e-12
-6.45662e-11
-1.01612e-11
-6.52386e-11
-1.09561e-11
-6.57717e-11
-1.17837e-11
-6.61667e-11
-1.38114e-11
-6.64264e-11
-3.32716e-11
-6.65785e-11
-3.41552e-11
-6.65959e-11
-3.50279e-11
-6.66148e-11
-3.59008e-11
-6.65794e-11
-3.676e-11
-6.65487e-11
-3.76062e-11
-6.65053e-11
-3.84428e-11
-6.64466e-11
-3.92723e-11
-6.63726e-11
-4.00966e-11
-6.62845e-11
-4.09173e-11
-6.61833e-11
-4.17359e-11
-6.60693e-11
-4.25536e-11
-6.59428e-11
-4.33716e-11
-6.58041e-11
-4.41906e-11
-6.56532e-11
-4.50112e-11
-6.54903e-11
-4.58338e-11
-6.53153e-11
-4.66586e-11
-6.51286e-11
-4.74858e-11
-6.493e-11
-4.83154e-11
-6.47199e-11
-6.44983e-11
-4.91472e-11
1.40563e-15
-2.158e-12
1.39682e-15
-6.33211e-12
-3.237e-15
-1.03646e-11
-1.50765e-14
-1.42555e-11
-3.64416e-14
-1.8005e-11
-6.94382e-14
-2.16129e-11
-1.15985e-13
-2.50792e-11
-1.77854e-13
-2.84038e-11
-2.56693e-13
-3.15868e-11
-3.54062e-13
-3.4628e-11
-4.71447e-13
-3.75275e-11
-6.10312e-13
-4.0285e-11
-7.72088e-13
-4.29005e-11
-9.58244e-13
-4.5374e-11
-1.17026e-12
-4.77053e-11
-1.40972e-12
-4.98944e-11
-1.67826e-12
-5.1941e-11
-1.97769e-12
-5.38452e-11
-2.30992e-12
-5.56066e-11
-2.67711e-12
-5.72253e-11
-3.08161e-12
-5.87011e-11
-3.52607e-12
-6.00336e-11
-4.0134e-12
-6.12229e-11
-4.54697e-12
-6.22686e-11
-5.13043e-12
-6.31707e-11
-5.7681e-12
-6.39285e-11
-6.46482e-12
-6.45418e-11
-7.22651e-12
-6.501e-11
-8.05872e-12
-6.53345e-11
-1.19566e-11
-6.55224e-11
-2.90042e-11
-6.56105e-11
-3.00139e-11
-6.55863e-11
-3.10498e-11
-6.55789e-11
-3.21284e-11
-6.55008e-11
-3.32093e-11
-6.54678e-11
-3.42866e-11
-6.54281e-11
-3.53583e-11
-6.53748e-11
-3.64239e-11
-6.5307e-11
-3.74827e-11
-6.52258e-11
-3.85342e-11
-6.51318e-11
-3.95781e-11
-6.50254e-11
-4.06141e-11
-6.49068e-11
-4.1642e-11
-6.47762e-11
-4.26617e-11
-6.46336e-11
-4.36729e-11
-6.4479e-11
-4.46757e-11
-6.43126e-11
-4.567e-11
-6.41343e-11
-4.66558e-11
-6.39442e-11
-4.76334e-11
-6.37424e-11
-6.3529e-11
-4.86027e-11
-3.38675e-15
-2.15462e-12
-1.57861e-14
-6.31971e-12
-3.90464e-14
-1.03413e-11
-7.47496e-14
-1.42198e-11
-1.2432e-13
-1.79554e-11
-1.89055e-13
-2.15481e-11
-2.70129e-13
-2.49981e-11
-3.68627e-13
-2.83053e-11
-4.85542e-13
-3.14699e-11
-6.21813e-13
-3.44918e-11
-7.78316e-13
-3.7371e-11
-9.55903e-13
-4.01074e-11
-1.15539e-12
-4.27011e-11
-1.37761e-12
-4.51518e-11
-1.62337e-12
-4.74596e-11
-1.89355e-12
-4.96242e-11
-2.189e-12
-5.16456e-11
-2.51071e-12
-5.35234e-11
-2.85966e-12
-5.52577e-11
-3.23699e-12
-5.6848e-11
-3.64387e-12
-5.82942e-11
-4.08168e-12
-5.95958e-11
-4.55185e-12
-6.07527e-11
-5.05612e-12
-6.17644e-11
-5.59615e-12
-6.26306e-11
-6.17381e-12
-6.33509e-11
-6.79108e-12
-6.39246e-11
-7.45237e-12
-6.43487e-11
-8.1673e-12
-6.46196e-11
-1.74542e-11
-6.47413e-11
-2.9594e-11
-6.48004e-11
-3.04254e-11
-6.47548e-11
-3.12845e-11
-6.47197e-11
-3.21532e-11
-6.4632e-11
-3.3062e-11
-6.4559e-11
-3.40025e-11
-6.44876e-11
-3.49677e-11
-6.44096e-11
-3.59517e-11
-6.43231e-11
-3.69494e-11
-6.42281e-11
-3.79564e-11
-6.41247e-11
-3.89694e-11
-6.40124e-11
-3.99857e-11
-6.38905e-11
-4.1003e-11
-6.37588e-11
-4.20199e-11
-6.36167e-11
-4.3035e-11
-6.3464e-11
-4.40472e-11
-6.33004e-11
-4.50556e-11
-6.31258e-11
-4.60595e-11
-6.29402e-11
-4.70583e-11
-6.27436e-11
-6.2536e-11
-4.80514e-11
-2.02906e-14
-2.13433e-12
-7.9021e-14
-6.26098e-12
-1.74348e-13
-1.0246e-11
-3.04671e-13
-1.40895e-11
-4.68574e-13
-1.77915e-11
-6.64777e-13
-2.13519e-11
-8.92132e-13
-2.47707e-11
-1.14957e-12
-2.80479e-11
-1.43612e-12
-3.11833e-11
-1.75082e-12
-3.41771e-11
-2.09278e-12
-3.7029e-11
-2.46109e-12
-3.97391e-11
-2.85485e-12
-4.23073e-11
-3.2731e-12
-4.47336e-11
-3.71485e-12
-4.70178e-11
-4.17901e-12
-4.916e-11
-4.66442e-12
-5.11602e-11
-5.16976e-12
-5.30181e-11
-5.6936e-12
-5.47339e-11
-6.23425e-12
-5.63073e-11
-6.78991e-12
-5.77385e-11
-7.35838e-12
-5.90273e-11
-7.9373e-12
-6.01738e-11
-8.52379e-12
-6.11779e-11
-9.11492e-12
-6.20395e-11
-9.70735e-12
-6.27584e-11
-1.02971e-11
-6.33348e-11
-1.08757e-11
-6.37701e-11
-1.1426e-11
-6.40693e-11
-3.78879e-11
-6.42457e-11
-3.85977e-11
-6.4248e-11
-3.91157e-11
-6.42369e-11
-3.96724e-11
-6.4163e-11
-4.02384e-11
-6.40661e-11
-4.08327e-11
-6.39647e-11
-4.14583e-11
-6.38619e-11
-4.21111e-11
-6.37569e-11
-4.27857e-11
-6.36485e-11
-4.34782e-11
-6.35356e-11
-4.41857e-11
-6.34172e-11
-4.49064e-11
-6.32917e-11
-4.56391e-11
-6.31578e-11
-4.6383e-11
-6.30149e-11
-4.71375e-11
-6.28622e-11
-4.79021e-11
-6.26994e-11
-4.86761e-11
-6.25265e-11
-4.94586e-11
-6.23433e-11
-5.0249e-11
-6.21499e-11
-5.10463e-11
-6.19463e-11
-6.17327e-11
-5.18495e-11
-2.61104e-14
-2.10822e-12
-9.99043e-14
-6.18719e-12
-2.18424e-13
-1.01275e-11
-3.796e-13
-1.39283e-11
-5.81602e-13
-1.75895e-11
-8.22796e-13
-2.11107e-11
-1.10173e-12
-2.44918e-11
-1.4171e-12
-2.77325e-11
-1.76771e-12
-3.08327e-11
-2.1525e-12
-3.37923e-11
-2.57046e-12
-3.6611e-11
-3.02065e-12
-3.92889e-11
-3.50216e-12
-4.18258e-11
-4.01409e-12
-4.42216e-11
-4.55556e-12
-4.64764e-11
-5.12563e-12
-4.859e-11
-5.72334e-12
-5.05624e-11
-6.34765e-12
-5.23938e-11
-6.99744e-12
-5.40841e-11
-7.67146e-12
-5.56333e-11
-8.36835e-12
-5.70416e-11
-9.08654e-12
-5.83092e-11
-9.82435e-12
-5.9436e-11
-1.05798e-11
-6.04224e-11
-1.13507e-11
-6.12686e-11
-1.21343e-11
-6.19748e-11
-1.29279e-11
-6.25413e-11
-1.37289e-11
-6.29691e-11
-1.48955e-11
-6.32597e-11
-3.74442e-11
-6.34337e-11
-3.82333e-11
-6.34589e-11
-3.89924e-11
-6.34778e-11
-3.97451e-11
-6.34103e-11
-4.04838e-11
-6.33273e-11
-4.12121e-11
-6.32365e-11
-4.19355e-11
-6.31384e-11
-4.26582e-11
-6.30341e-11
-4.33823e-11
-6.29244e-11
-4.41089e-11
-6.2809e-11
-4.4839e-11
-6.26871e-11
-4.55734e-11
-6.25572e-11
-4.63128e-11
-6.24185e-11
-4.70574e-11
-6.22702e-11
-4.78077e-11
-6.21119e-11
-4.85637e-11
-6.19434e-11
-4.93253e-11
-6.17648e-11
-5.00925e-11
-6.15761e-11
-5.08649e-11
-6.13775e-11
-5.16422e-11
-6.1169e-11
-6.09509e-11
-5.2424e-11
-1.02374e-14
-2.09798e-12
-4.35351e-14
-6.15389e-12
-1.01266e-13
-1.00698e-11
-1.84172e-13
-1.38454e-11
-2.92922e-13
-1.74808e-11
-4.28124e-13
-2.09755e-11
-5.90335e-13
-2.43296e-11
-7.8008e-13
-2.75428e-11
-9.97852e-13
-3.06149e-11
-1.24414e-12
-3.3546e-11
-1.5194e-12
-3.63358e-11
-1.82413e-12
-3.89842e-11
-2.15881e-12
-4.14911e-11
-2.52394e-12
-4.38565e-11
-2.92004e-12
-4.60803e-11
-3.34771e-12
-4.81623e-11
-3.80752e-12
-5.01026e-11
-4.30017e-12
-5.19011e-11
-4.82636e-12
-5.35579e-11
-5.38692e-12
-5.50728e-11
-5.98271e-12
-5.64458e-11
-6.61478e-12
-5.76771e-11
-7.28419e-12
-5.87666e-11
-7.99227e-12
-5.97144e-11
-8.74041e-12
-6.05205e-11
-9.53039e-12
-6.11848e-11
-1.03641e-11
-6.17076e-11
-1.12434e-11
-6.20898e-11
-1.38822e-11
-6.23349e-11
-3.42742e-11
-6.24724e-11
-3.52535e-11
-6.24795e-11
-3.62423e-11
-6.2489e-11
-3.72664e-11
-6.23863e-11
-3.82737e-11
-6.23201e-11
-3.92605e-11
-6.22497e-11
-4.02276e-11
-6.21713e-11
-4.11774e-11
-6.20843e-11
-4.21125e-11
-6.19893e-11
-4.30353e-11
-6.18863e-11
-4.39479e-11
-6.17745e-11
-4.48518e-11
-6.16533e-11
-4.57482e-11
-6.15221e-11
-4.6638e-11
-6.13805e-11
-4.75217e-11
-6.12282e-11
-4.83998e-11
-6.10653e-11
-4.92728e-11
-6.08919e-11
-5.01409e-11
-6.0708e-11
-5.10043e-11
-6.0514e-11
-5.18634e-11
-6.03099e-11
-6.00961e-11
-5.27183e-11
-2.98697e-15
-2.09499e-12
-1.42879e-14
-6.14259e-12
-3.62797e-14
-1.00478e-11
-7.12412e-14
-1.38105e-11
-1.21246e-13
-1.74307e-11
-1.88193e-13
-2.09086e-11
-2.73838e-13
-2.42439e-11
-3.79811e-13
-2.74368e-11
-5.07656e-13
-3.04871e-11
-6.58837e-13
-3.33948e-11
-8.34784e-13
-3.61598e-11
-1.03688e-12
-3.87821e-11
-1.26654e-12
-4.12615e-11
-1.52516e-12
-4.35979e-11
-1.81423e-12
-4.57912e-11
-2.13522e-12
-4.78413e-11
-2.48979e-12
-4.97481e-11
-2.87962e-12
-5.15113e-11
-3.30661e-12
-5.31309e-11
-3.77273e-12
-5.46066e-11
-4.28028e-12
-5.59383e-11
-4.8316e-12
-5.71258e-11
-5.42952e-12
-5.81687e-11
-6.07692e-12
-5.9067e-11
-6.77734e-12
-5.982e-11
-7.53456e-12
-6.04276e-11
-8.35348e-12
-6.08886e-11
-9.23837e-12
-6.12049e-11
-1.41888e-11
-6.13838e-11
-3.21401e-11
-6.14663e-11
-3.31825e-11
-6.14372e-11
-3.42474e-11
-6.14241e-11
-3.53236e-11
-6.13101e-11
-3.63969e-11
-6.12468e-11
-3.74607e-11
-6.11859e-11
-3.85144e-11
-6.11175e-11
-3.95592e-11
-6.10395e-11
-4.05957e-11
-6.09528e-11
-4.16242e-11
-6.08577e-11
-4.26449e-11
-6.07538e-11
-4.36575e-11
-6.06407e-11
-4.46618e-11
-6.05178e-11
-4.56575e-11
-6.03848e-11
-4.66443e-11
-6.02414e-11
-4.7622e-11
-6.00876e-11
-4.85906e-11
-5.99233e-11
-4.95499e-11
-5.97487e-11
-5.04999e-11
-5.9564e-11
-5.14407e-11
-5.93691e-11
-5.91645e-11
-5.23723e-11
-7.76538e-15
-2.08722e-12
-3.3308e-14
-6.11705e-12
-7.80508e-14
-1.0003e-11
-1.42963e-13
-1.37456e-11
-2.28913e-13
-1.73448e-11
-3.36675e-13
-2.08008e-11
-4.66946e-13
-2.41137e-11
-6.20354e-13
-2.72834e-11
-7.97472e-13
-3.031e-11
-9.9882e-13
-3.31935e-11
-1.22489e-12
-3.59337e-11
-1.47613e-12
-3.85308e-11
-1.753e-12
-4.09846e-11
-2.05592e-12
-4.3295e-11
-2.38534e-12
-4.54618e-11
-2.74168e-12
-4.7485e-11
-3.12546e-12
-4.93643e-11
-3.53714e-12
-5.10996e-11
-3.97731e-12
-5.26907e-11
-4.44654e-12
-5.41374e-11
-4.94557e-12
-5.54393e-11
-5.4751e-12
-5.65962e-11
-6.03607e-12
-5.76077e-11
-6.6293e-12
-5.84737e-11
-7.2557e-12
-5.91936e-11
-7.91615e-12
-5.97671e-11
-8.61392e-12
-6.01909e-11
-9.35745e-12
-6.04614e-11
-2.05874e-11
-6.05827e-11
-3.32769e-11
-6.06458e-11
-3.41126e-11
-6.06014e-11
-3.49896e-11
-6.05471e-11
-3.5857e-11
-6.04427e-11
-3.67512e-11
-6.03526e-11
-3.7668e-11
-6.02692e-11
-3.86014e-11
-6.01841e-11
-3.95464e-11
-6.00945e-11
-4.04993e-11
-5.99999e-11
-4.14575e-11
-5.98995e-11
-4.2419e-11
-5.97924e-11
-4.33821e-11
-5.96776e-11
-4.43456e-11
-5.95543e-11
-4.53084e-11
-5.9422e-11
-4.62696e-11
-5.92803e-11
-4.72281e-11
-5.9129e-11
-4.81833e-11
-5.89681e-11
-4.91345e-11
-5.87975e-11
-5.0081e-11
-5.86174e-11
-5.10224e-11
-5.84278e-11
-5.82288e-11
-5.19581e-11
-2.34771e-14
-2.06375e-12
-9.10182e-14
-6.04951e-12
-2.00251e-13
-9.89378e-12
-3.49146e-13
-1.35967e-11
-5.35829e-13
-1.71581e-11
-7.58549e-13
-2.05781e-11
-1.01565e-12
-2.38566e-11
-1.30557e-12
-2.69935e-11
-1.62676e-12
-2.99888e-11
-1.97773e-12
-3.28425e-11
-2.35698e-12
-3.55545e-11
-2.76303e-12
-3.81248e-11
-3.19429e-12
-4.05533e-11
-3.64922e-12
-4.284e-11
-4.1261e-12
-4.49849e-11
-4.62322e-12
-4.69879e-11
-5.13863e-12
-4.88489e-11
-5.67041e-12
-5.05679e-11
-6.21627e-12
-5.21448e-11
-6.77396e-12
-5.35797e-11
-7.34074e-12
-5.48725e-11
-7.9139e-12
-5.60231e-11
-8.49008e-12
-5.70315e-11
-9.06614e-12
-5.78977e-11
-9.63835e-12
-5.86214e-11
-1.02027e-11
-5.92028e-11
-1.07501e-11
-5.96435e-11
-1.12631e-11
-5.99485e-11
-4.05478e-11
-6.01305e-11
-4.12332e-11
-6.01354e-11
-4.17076e-11
-6.01271e-11
-4.22579e-11
-5.99968e-11
-4.28385e-11
-5.98621e-11
-4.34537e-11
-5.97374e-11
-4.40998e-11
-5.96231e-11
-4.47678e-11
-5.95161e-11
-4.54504e-11
-5.9412e-11
-4.61433e-11
-5.9307e-11
-4.6845e-11
-5.91978e-11
-4.75551e-11
-5.90823e-11
-4.82738e-11
-5.89589e-11
-4.90012e-11
-5.88269e-11
-4.97372e-11
-5.86859e-11
-5.04816e-11
-5.85359e-11
-5.12338e-11
-5.83768e-11
-5.19931e-11
-5.82088e-11
-5.27588e-11
-5.80319e-11
-5.353e-11
-5.78462e-11
-5.43058e-11
-5.7652e-11
-5.74492e-11
-5.50853e-11
-2.86618e-14
-2.03509e-12
-1.09927e-13
-5.96824e-12
-2.4049e-13
-9.76322e-12
-4.17868e-13
-1.34193e-11
-6.39818e-13
-1.69362e-11
-9.0431e-13
-2.03136e-11
-1.20949e-12
-2.35514e-11
-1.55367e-12
-2.66493e-11
-1.93526e-12
-2.96072e-11
-2.35282e-12
-3.24249e-11
-2.80494e-12
-3.51024e-11
-3.29029e-12
-3.76394e-11
-3.80758e-12
-4.0036e-11
-4.35554e-12
-4.22921e-11
-4.93286e-12
-4.44076e-11
-5.53826e-12
-4.63825e-11
-6.17036e-12
-4.82168e-11
-6.82775e-12
-4.99105e-11
-7.50891e-12
-5.14637e-11
-8.21224e-12
-5.28764e-11
-8.93598e-12
-5.41488e-11
-9.67823e-12
-5.52808e-11
-1.04369e-11
-5.62728e-11
-1.12097e-11
-5.71249e-11
-1.19938e-11
-5.78373e-11
-1.27863e-11
-5.84103e-11
-1.35848e-11
-5.8845e-11
-1.47622e-11
-5.91425e-11
-3.95161e-11
-5.93211e-11
-4.03034e-11
-5.93481e-11
-4.1062e-11
-5.93686e-11
-4.18063e-11
-5.92524e-11
-4.25417e-11
-5.91268e-11
-4.32697e-11
-5.90093e-11
-4.39934e-11
-5.88993e-11
-4.47153e-11
-5.87942e-11
-4.54365e-11
-5.86907e-11
-4.61582e-11
-5.85853e-11
-4.68812e-11
-5.84747e-11
-4.76067e-11
-5.83568e-11
-4.83354e-11
-5.82303e-11
-4.90678e-11
-5.80945e-11
-4.98043e-11
-5.79494e-11
-5.05452e-11
-5.7795e-11
-5.12904e-11
-5.76316e-11
-5.20399e-11
-5.74593e-11
-5.27934e-11
-5.72783e-11
-5.35507e-11
-5.7089e-11
-5.43114e-11
-5.68913e-11
-5.66856e-11
-5.5075e-11
-1.20259e-14
-2.02306e-12
-5.02126e-14
-5.93006e-12
-1.15684e-13
-9.69775e-12
-2.09046e-13
-1.33259e-11
-3.30828e-13
-1.68144e-11
-4.815e-13
-2.01629e-11
-6.61484e-13
-2.33714e-11
-8.71172e-13
-2.64396e-11
-1.11093e-12
-2.93674e-11
-1.38113e-12
-3.21547e-11
-1.68212e-12
-3.48014e-11
-2.01428e-12
-3.73073e-11
-2.378e-12
-3.96723e-11
-2.77369e-12
-4.18964e-11
-3.20183e-12
-4.39794e-11
-3.66289e-12
-4.59214e-11
-4.15745e-12
-4.77222e-11
-4.68609e-12
-4.93818e-11
-5.24953e-12
-5.09002e-11
-5.84848e-12
-5.22774e-11
-6.48384e-12
-5.35134e-11
-7.15649e-12
-5.46082e-11
-7.86755e-12
-5.55618e-11
-8.61813e-12
-5.63743e-11
-9.4097e-12
-5.70457e-11
-1.02438e-11
-5.75762e-11
-1.1122e-11
-5.79667e-11
-1.35269e-11
-5.82201e-11
-3.60985e-11
-5.8365e-11
-3.70702e-11
-5.83764e-11
-3.8053e-11
-5.83858e-11
-3.9093e-11
-5.82124e-11
-4.01062e-11
-5.81135e-11
-4.10933e-11
-5.80222e-11
-4.20586e-11
-5.79341e-11
-4.30066e-11
-5.78463e-11
-4.39406e-11
-5.77567e-11
-4.4863e-11
-5.76629e-11
-4.57754e-11
-5.75623e-11
-4.66789e-11
-5.74534e-11
-4.75739e-11
-5.73352e-11
-4.8461e-11
-5.72074e-11
-4.93406e-11
-5.70698e-11
-5.0213e-11
-5.69226e-11
-5.10787e-11
-5.6766e-11
-5.19378e-11
-5.66002e-11
-5.27907e-11
-5.64254e-11
-5.36377e-11
-5.6242e-11
-5.44789e-11
-5.60501e-11
-5.58498e-11
-5.53147e-11
-3.31017e-15
-2.01975e-12
-1.61265e-14
-5.91724e-12
-4.10226e-14
-9.67285e-12
-8.02883e-14
-1.32867e-11
-1.35998e-13
-1.67587e-11
-2.10041e-13
-2.00889e-11
-3.04165e-13
-2.32773e-11
-4.19991e-13
-2.63238e-11
-5.59065e-13
-2.92284e-11
-7.22863e-13
-3.19909e-11
-9.12847e-13
-3.46114e-11
-1.13046e-12
-3.70897e-11
-1.37721e-12
-3.94256e-11
-1.6546e-12
-4.1619e-11
-1.96431e-12
-4.36697e-11
-2.30807e-12
-4.55776e-11
-2.68782e-12
-4.73425e-11
-3.10565e-12
-4.8964e-11
-3.56394e-12
-5.04419e-11
-4.0653e-12
-5.17761e-11
-4.61275e-12
-5.29659e-11
-5.20957e-12
-5.40113e-11
-5.85968e-12
-5.49117e-11
-6.56739e-12
-5.56666e-11
-7.33817e-12
-5.62749e-11
-8.17764e-12
-5.67367e-11
-9.08992e-12
-5.70545e-11
-1.35979e-11
-5.7239e-11
-3.39978e-11
-5.7319e-11
-3.50886e-11
-5.72856e-11
-3.61984e-11
-5.72761e-11
-3.72696e-11
-5.71411e-11
-3.83394e-11
-5.70438e-11
-3.93998e-11
-5.69618e-11
-4.0449e-11
-5.68848e-11
-4.1487e-11
-5.68083e-11
-4.25139e-11
-5.67299e-11
-4.35297e-11
-5.6647e-11
-4.45345e-11
-5.65574e-11
-4.55284e-11
-5.64595e-11
-4.65112e-11
-5.63524e-11
-4.7483e-11
-5.62356e-11
-4.84437e-11
-5.61091e-11
-4.93933e-11
-5.59729e-11
-5.03321e-11
-5.58272e-11
-5.12601e-11
-5.56721e-11
-5.21776e-11
-5.55079e-11
-5.30848e-11
-5.53348e-11
-5.3982e-11
-5.51529e-11
-5.49624e-11
-5.48694e-11
-6.14221e-15
-2.65411e-14
-6.28644e-14
-1.16562e-13
-1.88954e-13
-2.81255e-13
-3.94584e-13
-5.29983e-13
-6.88423e-13
-8.70832e-13
-1.07809e-12
-1.31106e-12
-1.57058e-12
-1.85749e-12
-2.17267e-12
-2.51698e-12
-2.89136e-12
-3.2968e-12
-3.73436e-12
-4.20519e-12
-4.7106e-12
-5.25202e-12
-5.83088e-12
-6.44846e-12
-7.10632e-12
-7.81038e-12
-8.57733e-12
-1.7873e-11
-3.37622e-11
-3.46317e-11
-3.55992e-11
-3.65803e-11
-3.75702e-11
-3.85639e-11
-3.95584e-11
-4.05528e-11
-4.15467e-11
-4.25397e-11
-4.35311e-11
-4.452e-11
-4.55054e-11
-4.64866e-11
-4.74628e-11
-4.84331e-11
-4.9397e-11
-5.0354e-11
-5.13036e-11
-5.22454e-11
-5.31792e-11
-5.41045e-11
-5.0854e-11
-7.01384e-11
-5.14479e-11
-6.98966e-11
-5.20444e-11
-6.96404e-11
-5.26429e-11
-6.93699e-11
-5.32425e-11
-6.90854e-11
-5.38426e-11
-6.87869e-11
-5.44425e-11
-6.84748e-11
-5.50416e-11
-6.81492e-11
-5.56391e-11
-6.78104e-11
-5.62347e-11
-6.74586e-11
-5.68276e-11
-6.70942e-11
-5.74175e-11
-6.67173e-11
-5.80038e-11
-6.63283e-11
-5.8586e-11
-6.59274e-11
-5.91638e-11
-6.55151e-11
-5.97367e-11
-6.50916e-11
-6.03043e-11
-6.46572e-11
-6.08662e-11
-6.42123e-11
-6.14221e-11
-6.37572e-11
-6.19716e-11
-6.32923e-11
-6.25145e-11
-6.28179e-11
-6.30504e-11
-6.23344e-11
-6.35789e-11
-6.18423e-11
-6.40999e-11
-6.13417e-11
-6.4613e-11
-6.08332e-11
-6.5118e-11
-6.03171e-11
-6.56147e-11
-5.97938e-11
-6.61028e-11
-5.92637e-11
-6.6582e-11
-5.87271e-11
-6.70522e-11
-5.81845e-11
-6.75132e-11
-5.76362e-11
-6.79648e-11
-5.70827e-11
-6.84068e-11
-5.65242e-11
-6.88391e-11
-5.59613e-11
-6.92614e-11
-5.53943e-11
-6.96737e-11
-5.48235e-11
-7.00758e-11
-5.42493e-11
-7.04676e-11
-5.36722e-11
-7.0849e-11
-5.30925e-11
-7.12198e-11
-5.25105e-11
-7.158e-11
-5.19267e-11
-7.19296e-11
-5.13414e-11
-7.22684e-11
-5.07551e-11
-7.25963e-11
-5.01681e-11
-7.29135e-11
-4.95809e-11
-7.32197e-11
-4.89938e-11
-7.3515e-11
-4.84074e-11
-7.37994e-11
-4.7822e-11
-7.40728e-11
-4.72382e-11
-4.6658e-11
-7.43317e-11
-5.29889e-11
-6.94722e-11
-5.36621e-11
-6.92234e-11
-5.43413e-11
-6.89613e-11
-5.50254e-11
-6.86858e-11
-5.57136e-11
-6.83972e-11
-5.64048e-11
-6.80957e-11
-5.70982e-11
-6.77814e-11
-5.77929e-11
-6.74545e-11
-5.8488e-11
-6.71153e-11
-5.91828e-11
-6.67639e-11
-5.98764e-11
-6.64005e-11
-6.05681e-11
-6.60255e-11
-6.12572e-11
-6.56391e-11
-6.19431e-11
-6.52415e-11
-6.26251e-11
-6.48331e-11
-6.33026e-11
-6.44141e-11
-6.3975e-11
-6.39848e-11
-6.46417e-11
-6.35455e-11
-6.53022e-11
-6.30967e-11
-6.5956e-11
-6.26385e-11
-6.66026e-11
-6.21713e-11
-6.72415e-11
-6.16956e-11
-6.78722e-11
-6.12115e-11
-6.84943e-11
-6.07196e-11
-6.91075e-11
-6.02201e-11
-6.97112e-11
-5.97134e-11
-7.03052e-11
-5.91998e-11
-7.0889e-11
-5.86798e-11
-7.14624e-11
-5.81538e-11
-7.20249e-11
-5.7622e-11
-7.25762e-11
-5.70848e-11
-7.31162e-11
-5.65427e-11
-7.36444e-11
-5.5996e-11
-7.41607e-11
-5.5445e-11
-7.46647e-11
-5.48902e-11
-7.51563e-11
-5.43319e-11
-7.56352e-11
-5.37704e-11
-7.61012e-11
-5.32062e-11
-7.65542e-11
-5.26395e-11
-7.69939e-11
-5.20708e-11
-7.74202e-11
-5.15004e-11
-7.7833e-11
-5.09286e-11
-7.82322e-11
-5.0356e-11
-7.86175e-11
-4.97827e-11
-7.89889e-11
-4.92094e-11
-7.93464e-11
-4.86364e-11
-7.96898e-11
-4.8064e-11
-8.00191e-11
-4.74927e-11
-8.03342e-11
-4.69231e-11
-4.63541e-11
-8.0638e-11
-4.94284e-11
-6.8675e-11
-5.02239e-11
-6.8428e-11
-5.10175e-11
-6.81676e-11
-5.18092e-11
-6.78941e-11
-5.25986e-11
-6.76078e-11
-5.33856e-11
-6.73087e-11
-5.41698e-11
-6.69972e-11
-5.49509e-11
-6.66734e-11
-5.57285e-11
-6.63377e-11
-5.65022e-11
-6.59901e-11
-5.72717e-11
-6.56311e-11
-5.80365e-11
-6.52608e-11
-5.87962e-11
-6.48794e-11
-5.95504e-11
-6.44873e-11
-6.02986e-11
-6.40848e-11
-6.10406e-11
-6.36721e-11
-6.17758e-11
-6.32496e-11
-6.25038e-11
-6.28175e-11
-6.32243e-11
-6.23762e-11
-6.39369e-11
-6.19259e-11
-6.46412e-11
-6.14671e-11
-6.53367e-11
-6.1e-11
-6.60233e-11
-6.0525e-11
-6.67004e-11
-6.00424e-11
-6.73679e-11
-5.95526e-11
-6.80253e-11
-5.90559e-11
-6.86724e-11
-5.85527e-11
-6.93088e-11
-5.80434e-11
-6.99344e-11
-5.75282e-11
-7.05488e-11
-5.70076e-11
-7.11517e-11
-5.64819e-11
-7.1743e-11
-5.59514e-11
-7.23224e-11
-5.54166e-11
-7.28897e-11
-5.48778e-11
-7.34446e-11
-5.43352e-11
-7.39871e-11
-5.37894e-11
-7.4517e-11
-5.32406e-11
-7.5034e-11
-5.26892e-11
-7.5538e-11
-5.21355e-11
-7.60289e-11
-5.15799e-11
-7.65066e-11
-5.10227e-11
-7.69709e-11
-5.04643e-11
-7.74217e-11
-4.99051e-11
-7.78591e-11
-4.93454e-11
-7.82828e-11
-4.87857e-11
-7.86928e-11
-4.82263e-11
-7.90891e-11
-4.76677e-11
-7.94716e-11
-4.71102e-11
-7.98403e-11
-4.65544e-11
-4.60015e-11
-8.0193e-11
-5.03029e-11
-6.78446e-11
-5.11297e-11
-6.76011e-11
-5.19532e-11
-6.73442e-11
-5.27734e-11
-6.70739e-11
-5.35904e-11
-6.67907e-11
-5.44042e-11
-6.64949e-11