/*--------------------------------*- C++ -*----------------------------------*\
| =========                 |                                                 |
| \\      /  F ield         | OpenFOAM: The Open Source CFD Toolbox           |
|  \\    /   O peration     | Version:  2.4.0                                 |
|   \\  /    A nd           | Web:      www.OpenFOAM.org                      |
|    \\/     M anipulation  |                                                 |
\*---------------------------------------------------------------------------*/
FoamFile
{
    version     2.0;
    format      ascii;
    class       volScalarField;
    location    "0.1";
    object      H;
}
// * * * * * * * * * * * * * * * * * * * * * * * * * * * * * * * * * * * * * //

dimensions      [0 2 -2 0 0 0 0];

internalField   nonuniform List<scalar> 
500
(
-10607.6
-10607.6
-10607.6
-10607.6
-10607.6
-7342.18
-7342.14
-7342.15
-7342.14
-7342.19
-4032.28
-4032.22
-4032.23
-4032.22
-4032.29
-87.8975
-87.8915
-87.8926
-87.8917
-87.8983
-65.5002
-65.4957
-65.4966
-65.4959
-65.5008
-65.3992
-65.3947
-65.3958
-65.3949
-65.3998
-65.2382
-65.2337
-65.235
-65.2339
-65.2388
-65.0168
-65.0123
-65.0137
-65.0125
-65.0174
-64.7346
-64.7301
-64.7317
-64.7303
-64.7351
-64.3914
-64.387
-64.3887
-64.3872
-64.3919
-63.9873
-63.9829
-63.9847
-63.9831
-63.9878
-63.5223
-63.518
-63.52
-63.5182
-63.5228
-62.997
-62.9927
-62.9948
-62.9928
-62.9974
-62.4117
-62.4075
-62.4097
-62.4076
-62.4121
-61.7672
-61.763
-61.7653
-61.7632
-61.7676
-61.0644
-61.0603
-61.0627
-61.0604
-61.0648
-60.3043
-60.3003
-60.3028
-60.3004
-60.3047
-59.4882
-59.4843
-59.4869
-59.4844
-59.4886
-58.6177
-58.6138
-58.6165
-58.6139
-58.618
-57.6942
-57.6904
-57.6932
-57.6905
-57.6945
-56.7196
-56.7159
-56.7187
-56.716
-56.7199
-55.6959
-55.6923
-55.6952
-55.6924
-55.6961
-54.6252
-54.6218
-54.6247
-54.6219
-54.6255
-53.5099
-53.5066
-53.5095
-53.5067
-53.5102
-52.3525
-52.3493
-52.3523
-52.3494
-52.3527
-51.1556
-51.1525
-51.1555
-51.1525
-51.1558
-49.9219
-49.919
-49.922
-49.919
-49.9221
-48.6545
-48.6516
-48.6546
-48.6517
-48.6547
-47.3563
-47.3535
-47.3565
-47.3536
-47.3564
-46.0304
-46.0278
-46.0308
-46.0278
-46.0306
-44.6802
-44.6777
-44.6807
-44.6777
-44.6803
-43.3089
-43.3066
-43.3095
-43.3066
-43.309
-41.92
-41.9177
-41.9206
-41.9177
-41.92
-40.5168
-40.5147
-40.5176
-40.5147
-40.5169
-39.1029
-39.1009
-39.1037
-39.1009
-39.103
-37.6818
-37.6799
-37.6827
-37.6799
-37.6818
-36.2569
-36.2551
-36.2579
-36.2551
-36.2569
-34.8318
-34.8301
-34.8328
-34.8301
-34.8318
-33.4099
-33.4084
-33.411
-33.4083
-33.4099
-31.9946
-31.9932
-31.9957
-31.9932
-31.9946
-30.5893
-30.588
-30.5904
-30.5879
-30.5892
-29.1971
-29.1959
-29.1983
-29.1959
-29.1971
-27.8214
-27.8203
-27.8225
-27.8202
-27.8213
-26.465
-26.464
-26.4662
-26.4639
-26.4649
-25.1308
-25.1299
-25.1321
-25.1299
-25.1308
-23.8217
-23.8209
-23.823
-23.8209
-23.8217
-22.5402
-22.5395
-22.5415
-22.5395
-22.5402
-21.2888
-21.2881
-21.29
-21.2881
-21.2887
-20.0695
-20.0689
-20.0707
-20.0689
-20.0694
-18.8845
-18.884
-18.8857
-18.884
-18.8844
-17.7356
-17.7352
-17.7368
-17.7351
-17.7355
-16.6244
-16.624
-16.6255
-16.624
-16.6243
-15.5522
-15.5519
-15.5533
-15.5518
-15.5521
-14.5203
-14.52
-14.5213
-14.52
-14.5202
-13.5295
-13.5293
-13.5306
-13.5293
-13.5294
-12.5807
-12.5805
-12.5817
-12.5805
-12.5806
-11.6743
-11.6742
-11.6753
-11.6741
-11.6742
-10.8106
-10.8105
-10.8115
-10.8105
-10.8105
-9.98972
-9.98968
-9.99061
-9.98965
-9.98963
-9.2115
-9.21149
-9.21235
-9.21146
-9.21142
-8.47565
-8.47567
-8.47646
-8.47564
-8.47557
-7.78166
-7.7817
-7.78242
-7.78167
-7.78158
-7.12886
-7.12891
-7.12958
-7.12889
-7.12878
-6.51642
-6.51649
-6.5171
-6.51646
-6.51634
-5.94336
-5.94344
-5.94399
-5.94342
-5.94329
-5.40857
-5.40866
-5.40916
-5.40864
-5.4085
-4.91082
-4.91093
-4.91138
-4.91091
-4.91076
-4.44879
-4.44891
-4.44931
-4.44889
-4.44874
-4.02107
-4.02118
-4.02155
-4.02116
-4.02101
-3.62615
-3.62627
-3.62659
-3.62625
-3.6261
-3.26251
-3.26262
-3.26292
-3.26261
-3.26246
-2.92855
-2.92867
-2.92893
-2.92866
-2.92851
-2.62268
-2.62279
-2.62302
-2.62278
-2.62264
-2.34327
-2.34338
-2.34358
-2.34337
-2.34323
-2.0887
-2.08881
-2.08898
-2.0888
-2.08867
-1.85737
-1.85747
-1.85763
-1.85746
-1.85734
-1.64769
-1.64779
-1.64792
-1.64778
-1.64767
-1.45813
-1.45822
-1.45833
-1.45821
-1.4581
-1.28716
-1.28725
-1.28735
-1.28724
-1.28714
-1.13336
-1.13344
-1.13352
-1.13343
-1.13334
-0.995306
-0.995379
-0.995452
-0.995374
-0.995289
-0.871682
-0.87175
-0.871811
-0.871745
-0.871668
-0.76122
-0.761281
-0.761333
-0.761277
-0.761207
-0.662723
-0.662778
-0.662821
-0.662775
-0.662712
-0.575068
-0.575117
-0.575152
-0.575114
-0.575058
-0.497203
-0.497246
-0.497276
-0.497244
-0.497195
-0.42815
-0.428188
-0.428212
-0.428186
-0.428143
-0.367002
-0.367035
-0.367054
-0.367034
-0.366997
-0.312923
-0.312951
-0.312966
-0.31295
-0.312918
-0.265143
-0.265167
-0.265179
-0.265167
-0.26514
-0.222961
-0.222981
-0.222989
-0.22298
-0.222958
-0.185734
-0.18575
-0.185756
-0.18575
-0.185731
-0.152881
-0.152894
-0.152898
-0.152894
-0.152879
-0.123876
-0.123886
-0.123888
-0.123886
-0.123874
-0.0982428
-0.0982505
-0.0982519
-0.0982504
-0.0982419
-0.0755557
-0.0755612
-0.0755618
-0.0755612
-0.0755551
-0.0554311
-0.0554348
-0.0554349
-0.0554349
-0.0554308
-0.0375263
-0.0375285
-0.0375283
-0.0375286
-0.0375261
-0.021535
-0.0215362
-0.0215359
-0.0215362
-0.0215349
-0.00718452
-0.00718491
-0.00718483
-0.00718493
-0.00718449
)
;

boundaryField
{
    BotWall
    {
        type            zeroGradient;
    }
    FreeStream
    {
        type            zeroGradient;
    }
    FrontNBack
    {
        type            empty;
    }
    LeftSide
    {
        type            symmetryPlane;
    }
    RightSide
    {
        type            symmetryPlane;
    }
}


// ************************************************************************* //
