/*--------------------------------*- C++ -*----------------------------------*\
| =========                 |                                                 |
| \\      /  F ield         | OpenFOAM: The Open Source CFD Toolbox           |
|  \\    /   O peration     | Version:  2.4.0                                 |
|   \\  /    A nd           | Web:      www.OpenFOAM.org                      |
|    \\/     M anipulation  |                                                 |
\*---------------------------------------------------------------------------*/
FoamFile
{
    version     2.0;
    format      ascii;
    class       volScalarField;
    location    "0.1";
    object      p;
}
// * * * * * * * * * * * * * * * * * * * * * * * * * * * * * * * * * * * * * //

dimensions      [1 -1 -2 0 0 0 0];

internalField   nonuniform List<scalar> 
500
(
5.52485
5.52581
5.52576
5.5258
5.52481
-3.32803
-3.33006
-3.33006
-3.33006
-3.32804
-37.8304
-37.8356
-37.8352
-37.8355
-37.8301
-83.0551
-83.0572
-83.0562
-83.057
-83.0543
-0.0370747
-0.0370737
-0.0370737
-0.0370737
-0.0370747
0.00685509
0.00685404
0.00685403
0.00685404
0.00685511
-8.33987e-05
-8.32518e-05
-8.32696e-05
-8.32497e-05
-8.33951e-05
-0.00409864
-0.00409845
-0.00409847
-0.00409845
-0.00409864
-0.00515254
-0.00515254
-0.00515256
-0.00515254
-0.00515254
-0.00546471
-0.00546476
-0.00546478
-0.00546476
-0.0054647
-0.00587906
-0.00587909
-0.00587911
-0.00587909
-0.00587905
-0.00641142
-0.00641144
-0.00641146
-0.00641144
-0.00641142
-0.00697668
-0.00697669
-0.00697671
-0.00697669
-0.00697667
-0.00754429
-0.00754431
-0.00754433
-0.0075443
-0.00754428
-0.00811386
-0.00811388
-0.0081139
-0.00811388
-0.00811385
-0.00868877
-0.00868879
-0.00868881
-0.00868879
-0.00868877
-0.00927027
-0.00927029
-0.00927031
-0.00927028
-0.00927026
-0.00985841
-0.00985843
-0.00985845
-0.00985843
-0.00985841
-0.0104532
-0.0104532
-0.0104532
-0.0104532
-0.0104532
-0.0110545
-0.0110546
-0.0110546
-0.0110546
-0.0110545
-0.0116626
-0.0116626
-0.0116627
-0.0116626
-0.0116626
-0.0122775
-0.0122775
-0.0122775
-0.0122775
-0.0122775
-0.0128992
-0.0128992
-0.0128993
-0.0128992
-0.0128992
-0.0135279
-0.0135279
-0.0135279
-0.0135279
-0.0135279
-0.0141636
-0.0141636
-0.0141636
-0.0141636
-0.0141636
-0.0148063
-0.0148064
-0.0148064
-0.0148064
-0.0148063
-0.0154563
-0.0154563
-0.0154563
-0.0154563
-0.0154563
-0.0161135
-0.0161135
-0.0161135
-0.0161135
-0.0161135
-0.016778
-0.0167781
-0.0167781
-0.0167781
-0.016778
-0.01745
-0.01745
-0.01745
-0.01745
-0.01745
-0.0181294
-0.0181295
-0.0181295
-0.0181295
-0.0181294
-0.0188165
-0.0188165
-0.0188165
-0.0188165
-0.0188165
-0.0195112
-0.0195112
-0.0195112
-0.0195112
-0.0195112
-0.0202136
-0.0202136
-0.0202137
-0.0202136
-0.0202136
-0.0209239
-0.0209239
-0.0209239
-0.0209239
-0.0209239
-0.0216421
-0.0216421
-0.0216422
-0.0216421
-0.0216421
-0.0223683
-0.0223684
-0.0223684
-0.0223684
-0.0223683
-0.0231027
-0.0231027
-0.0231027
-0.0231027
-0.0231027
-0.0238452
-0.0238452
-0.0238453
-0.0238452
-0.0238452
-0.024596
-0.024596
-0.0245961
-0.024596
-0.024596
-0.0253552
-0.0253552
-0.0253553
-0.0253552
-0.0253552
-0.0261229
-0.0261229
-0.0261229
-0.0261229
-0.0261229
-0.0268991
-0.0268991
-0.0268991
-0.0268991
-0.0268991
-0.027684
-0.027684
-0.027684
-0.027684
-0.027684
-0.0284776
-0.0284777
-0.0284777
-0.0284777
-0.0284776
-0.0292801
-0.0292802
-0.0292802
-0.0292802
-0.0292801
-0.0300916
-0.0300916
-0.0300916
-0.0300916
-0.0300916
-0.0309121
-0.0309121
-0.0309122
-0.0309121
-0.0309121
-0.0317418
-0.0317418
-0.0317418
-0.0317418
-0.0317418
-0.0325807
-0.0325807
-0.0325808
-0.0325807
-0.0325807
-0.033429
-0.033429
-0.0334291
-0.033429
-0.033429
-0.0342867
-0.0342868
-0.0342868
-0.0342868
-0.0342867
-0.0351541
-0.0351541
-0.0351541
-0.0351541
-0.0351541
-0.0360311
-0.0360311
-0.0360311
-0.0360311
-0.0360311
-0.0369179
-0.0369179
-0.0369179
-0.0369179
-0.0369179
-0.0378146
-0.0378146
-0.0378146
-0.0378146
-0.0378146
-0.0387213
-0.0387213
-0.0387213
-0.0387213
-0.0387212
-0.0396381
-0.0396381
-0.0396381
-0.0396381
-0.0396381
-0.0405651
-0.0405651
-0.0405652
-0.0405651
-0.0405651
-0.0415025
-0.0415025
-0.0415026
-0.0415025
-0.0415025
-0.0424503
-0.0424504
-0.0424504
-0.0424504
-0.0424503
-0.0434088
-0.0434088
-0.0434088
-0.0434088
-0.0434088
-0.0443779
-0.0443779
-0.044378
-0.0443779
-0.0443779
-0.0453578
-0.0453579
-0.0453579
-0.0453579
-0.0453578
-0.0463487
-0.0463487
-0.0463488
-0.0463487
-0.0463487
-0.0473506
-0.0473507
-0.0473507
-0.0473507
-0.0473506
-0.0483637
-0.0483638
-0.0483638
-0.0483638
-0.0483637
-0.0493881
-0.0493882
-0.0493882
-0.0493882
-0.0493881
-0.050424
-0.050424
-0.0504241
-0.050424
-0.050424
-0.0514714
-0.0514714
-0.0514715
-0.0514714
-0.0514714
-0.0525305
-0.0525305
-0.0525306
-0.0525305
-0.0525305
-0.0536014
-0.0536014
-0.0536015
-0.0536014
-0.0536014
-0.0546842
-0.0546843
-0.0546843
-0.0546843
-0.0546842
-0.0557792
-0.0557792
-0.0557793
-0.0557792
-0.0557792
-0.0568863
-0.0568864
-0.0568864
-0.0568864
-0.0568863
-0.0580058
-0.0580059
-0.0580059
-0.0580059
-0.0580058
-0.0591378
-0.0591379
-0.059138
-0.0591379
-0.0591378
-0.0602825
-0.0602825
-0.0602826
-0.0602825
-0.0602825
-0.0614399
-0.06144
-0.06144
-0.0614399
-0.0614399
-0.0626102
-0.0626103
-0.0626103
-0.0626103
-0.0626102
-0.0637936
-0.0637937
-0.0637937
-0.0637937
-0.0637936
-0.0649902
-0.0649903
-0.0649903
-0.0649903
-0.0649902
-0.0662001
-0.0662002
-0.0662003
-0.0662002
-0.0662001
-0.0674236
-0.0674237
-0.0674237
-0.0674236
-0.0674236
-0.0686607
-0.0686608
-0.0686608
-0.0686607
-0.0686607
-0.0699116
-0.0699117
-0.0699117
-0.0699117
-0.0699116
-0.0711764
-0.0711765
-0.0711766
-0.0711765
-0.0711764
-0.0724554
-0.0724555
-0.0724556
-0.0724555
-0.0724554
-0.0737487
-0.0737488
-0.0737488
-0.0737487
-0.0737487
-0.0750564
-0.0750564
-0.0750565
-0.0750564
-0.0750563
-0.0763786
-0.0763787
-0.0763788
-0.0763787
-0.0763786
-0.0777156
-0.0777157
-0.0777158
-0.0777157
-0.0777156
-0.0790676
-0.0790677
-0.0790678
-0.0790677
-0.0790676
-0.0804346
-0.0804347
-0.0804348
-0.0804347
-0.0804346
-0.0818169
-0.081817
-0.0818171
-0.081817
-0.0818169
-0.0832146
-0.0832147
-0.0832148
-0.0832147
-0.0832146
-0.0846279
-0.084628
-0.0846281
-0.084628
-0.0846279
-0.086057
-0.0860571
-0.0860572
-0.0860571
-0.086057
-0.087502
-0.0875021
-0.0875022
-0.0875021
-0.087502
-0.0889632
-0.0889633
-0.0889634
-0.0889633
-0.0889632
)
;

boundaryField
{
    BotWall
    {
        type            calculated;
        value           nonuniform List<scalar> 5(5.53968 5.54063 5.54058 5.54062 5.53963);
    }
    FreeStream
    {
        type            calculated;
        value           nonuniform List<scalar> 5(-0.0896978 -0.0896979 -0.089698 -0.0896979 -0.0896978);
    }
    FrontNBack
    {
        type            empty;
    }
    LeftSide
    {
        type            symmetryPlane;
    }
    RightSide
    {
        type            symmetryPlane;
    }
}


// ************************************************************************* //
