/*--------------------------------*- C++ -*----------------------------------*\
| =========                 |                                                 |
| \\      /  F ield         | OpenFOAM: The Open Source CFD Toolbox           |
|  \\    /   O peration     | Version:  2.4.0                                 |
|   \\  /    A nd           | Web:      www.OpenFOAM.org                      |
|    \\/     M anipulation  |                                                 |
\*---------------------------------------------------------------------------*/
FoamFile
{
    version     2.0;
    format      ascii;
    class       volScalarField;
    location    "0.1";
    object      p_rgh;
}
// * * * * * * * * * * * * * * * * * * * * * * * * * * * * * * * * * * * * * //

dimensions      [1 -1 -2 0 0 0 0];

internalField   nonuniform List<scalar> 
500
(
5.53968
5.54063
5.54058
5.54062
5.53963
-3.2834
-3.28543
-3.28543
-3.28543
-3.28341
-37.7556
-37.7608
-37.7604
-37.7607
-37.7553
-82.9878
-82.99
-82.9889
-82.9897
-82.987
-0.0348211
-0.0348202
-0.0348202
-0.0348202
-0.0348211
0.00962478
0.00962372
0.00962372
0.00962373
0.00962479
0.00320815
0.0032083
0.00320828
0.0032083
0.00320816
-0.000279398
-0.000279214
-0.000279234
-0.000279212
-0.000279396
-0.000799722
-0.000799723
-0.000799742
-0.000799721
-0.000799718
-0.000572357
-0.00057241
-0.000572429
-0.000572408
-0.000572353
-0.000441152
-0.000441185
-0.000441204
-0.000441183
-0.000441147
-0.00042188
-0.000421898
-0.000421916
-0.000421895
-0.000421875
-0.000429336
-0.000429352
-0.000429371
-0.000429349
-0.000429331
-0.000432926
-0.000432944
-0.000432964
-0.000432942
-0.000432921
-0.000432183
-0.000432202
-0.000432222
-0.000432199
-0.000432178
-0.000430419
-0.000430439
-0.000430459
-0.000430437
-0.000430414
-0.000428796
-0.000428817
-0.000428837
-0.000428814
-0.000428791
-0.000427324
-0.000427344
-0.000427365
-0.000427342
-0.000427319
-0.000425873
-0.000425894
-0.000425915
-0.000425891
-0.000425868
-0.000424399
-0.00042442
-0.000424442
-0.000424418
-0.000424394
-0.000422902
-0.000422924
-0.000422946
-0.000422921
-0.000422897
-0.000421388
-0.00042141
-0.000421432
-0.000421407
-0.000421382
-0.000419856
-0.000419879
-0.000419901
-0.000419876
-0.000419851
-0.000418308
-0.000418331
-0.000418353
-0.000418328
-0.000418302
-0.000416742
-0.000416765
-0.000416788
-0.000416762
-0.000416736
-0.000415159
-0.000415183
-0.000415206
-0.000415179
-0.000415153
-0.000413558
-0.000413582
-0.000413606
-0.000413579
-0.000413552
-0.000411939
-0.000411964
-0.000411987
-0.00041196
-0.000411933
-0.000410303
-0.000410327
-0.000410351
-0.000410324
-0.000410296
-0.000408647
-0.000408673
-0.000408697
-0.000408669
-0.000408641
-0.000406974
-0.000406999
-0.000407024
-0.000406996
-0.000406967
-0.000405282
-0.000405307
-0.000405332
-0.000405304
-0.000405275
-0.00040357
-0.000403596
-0.000403622
-0.000403593
-0.000403563
-0.00040184
-0.000401866
-0.000401892
-0.000401863
-0.000401833
-0.00040009
-0.000400117
-0.000400143
-0.000400113
-0.000400083
-0.000398321
-0.000398348
-0.000398374
-0.000398344
-0.000398314
-0.000396532
-0.00039656
-0.000396586
-0.000396556
-0.000396525
-0.000394723
-0.000394751
-0.000394778
-0.000394747
-0.000394715
-0.000392894
-0.000392922
-0.000392949
-0.000392918
-0.000392886
-0.000391044
-0.000391073
-0.0003911
-0.000391069
-0.000391036
-0.000389174
-0.000389203
-0.00038923
-0.000389199
-0.000389166
-0.000387282
-0.000387312
-0.00038734
-0.000387308
-0.000387274
-0.00038537
-0.0003854
-0.000385428
-0.000385396
-0.000385362
-0.000383436
-0.000383467
-0.000383495
-0.000383462
-0.000383428
-0.000381481
-0.000381512
-0.000381541
-0.000381507
-0.000381473
-0.000379504
-0.000379535
-0.000379564
-0.00037953
-0.000379495
-0.000377504
-0.000377536
-0.000377566
-0.000377532
-0.000377496
-0.000375483
-0.000375515
-0.000375545
-0.00037551
-0.000375474
-0.000373439
-0.000373471
-0.000373502
-0.000373466
-0.00037343
-0.000371372
-0.000371405
-0.000371436
-0.0003714
-0.000371363
-0.000369282
-0.000369315
-0.000369346
-0.00036931
-0.000369272
-0.000367168
-0.000367202
-0.000367234
-0.000367197
-0.000367159
-0.000365031
-0.000365066
-0.000365098
-0.000365061
-0.000365022
-0.00036287
-0.000362905
-0.000362938
-0.0003629
-0.000362861
-0.000360685
-0.000360721
-0.000360754
-0.000360715
-0.000360675
-0.000358476
-0.000358512
-0.000358545
-0.000358506
-0.000358466
-0.000356242
-0.000356279
-0.000356312
-0.000356273
-0.000356231
-0.000353983
-0.00035402
-0.000354054
-0.000354014
-0.000353972
-0.000351698
-0.000351736
-0.000351771
-0.000351731
-0.000351688
-0.000349388
-0.000349427
-0.000349462
-0.000349421
-0.000349378
-0.000347053
-0.000347092
-0.000347128
-0.000347086
-0.000347042
-0.000344691
-0.000344731
-0.000344767
-0.000344725
-0.00034468
-0.000342303
-0.000342344
-0.000342381
-0.000342338
-0.000342292
-0.000339888
-0.00033993
-0.000339967
-0.000339924
-0.000339877
-0.000337447
-0.000337489
-0.000337527
-0.000337483
-0.000337435
-0.000334978
-0.000335021
-0.00033506
-0.000335015
-0.000334966
-0.000332481
-0.000332526
-0.000332565
-0.000332519
-0.000332469
-0.000329957
-0.000330002
-0.000330042
-0.000329995
-0.000329945
-0.000327404
-0.00032745
-0.000327491
-0.000327443
-0.000327392
-0.000324823
-0.00032487
-0.000324912
-0.000324863
-0.00032481
-0.000322213
-0.000322262
-0.000322303
-0.000322254
-0.0003222
-0.000319574
-0.000319624
-0.000319666
-0.000319616
-0.000319561
-0.000316906
-0.000316956
-0.000317
-0.000316949
-0.000316892
-0.000314208
-0.000314259
-0.000314304
-0.000314252
-0.000314194
-0.000311479
-0.000311532
-0.000311577
-0.000311524
-0.000311465
-0.00030872
-0.000308775
-0.000308821
-0.000308767
-0.000308706
-0.000305931
-0.000305986
-0.000306033
-0.000305978
-0.000305916
-0.00030311
-0.000303167
-0.000303215
-0.000303159
-0.000303095
-0.000300257
-0.000300316
-0.000300365
-0.000300308
-0.000300242
-0.000297373
-0.000297433
-0.000297484
-0.000297425
-0.000297358
-0.000294457
-0.000294519
-0.00029457
-0.00029451
-0.000294441
-0.000291508
-0.000291572
-0.000291624
-0.000291563
-0.000291492
-0.000288526
-0.000288592
-0.000288646
-0.000288583
-0.00028851
-0.000285511
-0.000285578
-0.000285634
-0.000285569
-0.000285494
-0.000282462
-0.000282532
-0.000282589
-0.000282522
-0.000282445
-0.000279379
-0.000279451
-0.000279509
-0.000279441
-0.000279362
-0.000276261
-0.000276336
-0.000276396
-0.000276326
-0.000276244
-0.000273109
-0.000273186
-0.000273248
-0.000273176
-0.000273091
-0.000269922
-0.000270001
-0.000270065
-0.000269991
-0.000269904
-0.000266699
-0.000266781
-0.000266846
-0.00026677
-0.00026668
-0.00026344
-0.000263525
-0.000263592
-0.000263514
-0.000263421
-0.000260144
-0.000260232
-0.000260301
-0.000260221
-0.000260125
-0.000256812
-0.000256903
-0.000256974
-0.000256892
-0.000256792
-0.000253443
-0.000253537
-0.00025361
-0.000253526
-0.000253422
-0.000250036
-0.000250133
-0.000250209
-0.000250122
-0.000250015
-0.00024659
-0.000246692
-0.00024677
-0.00024668
-0.000246569
-0.000243107
-0.000243212
-0.000243294
-0.0002432
-0.000243085
-0.000239584
-0.000239695
-0.00023978
-0.000239682
-0.000239562
-0.000236021
-0.000236136
-0.000236224
-0.000236123
-0.000235998
-0.000232411
-0.000232522
-0.000232606
-0.00023251
-0.00023239
)
;

boundaryField
{
    BotWall
    {
        type            fixedFluxPressure;
        gradient        uniform 0;
        value           nonuniform List<scalar> 5(5.53968 5.54063 5.54058 5.54062 5.53963);
    }
    FreeStream
    {
        type            totalPressure;
        rho             rho;
        psi             none;
        gamma           1;
        p0              uniform 0;
        value           nonuniform List<scalar> 5(-0.000230597 -0.000230698 -0.000230774 -0.000230688 -0.000230579);
    }
    FrontNBack
    {
        type            empty;
    }
    LeftSide
    {
        type            symmetryPlane;
    }
    RightSide
    {
        type            symmetryPlane;
    }
}


// ************************************************************************* //
