/*--------------------------------*- C++ -*----------------------------------*\
| =========                 |                                                 |
| \\      /  F ield         | OpenFOAM: The Open Source CFD Toolbox           |
|  \\    /   O peration     | Version:  2.4.0                                 |
|   \\  /    A nd           | Web:      www.OpenFOAM.org                      |
|    \\/     M anipulation  |                                                 |
\*---------------------------------------------------------------------------*/
FoamFile
{
    version     2.0;
    format      ascii;
    class       surfaceScalarField;
    location    "0.1";
    object      phi;
}
// * * * * * * * * * * * * * * * * * * * * * * * * * * * * * * * * * * * * * //

dimensions      [0 3 -1 0 0 0 0];

internalField   nonuniform List<scalar> 
895
(
2.93706e-18
-2.93748e-18
1.49816e-18
1.43827e-18
-1.84933e-18
3.34746e-18
-3.29336e-18
1.44378e-18
-3.294e-18
1.10988e-17
-1.40362e-17
4.18019e-18
8.35692e-18
-5.26787e-18
1.27956e-17
-1.22266e-17
8.4026e-18
-1.55206e-17
1.91907e-17
-5.20245e-17
6.1408e-18
2.14067e-17
-7.9831e-18
2.69203e-17
-2.1187e-17
2.16065e-17
-5.74745e-17
2.3169e-17
-1.4225e-09
7.38173e-18
-1.42251e-09
-9.9536e-18
-1.4225e-09
-2.62338e-17
-1.42251e-09
-1.42249e-09
2.44384e-17
-1.4225e-09
1.05013e-17
-1.42251e-09
-1.33611e-17
-1.4225e-09
-2.74143e-17
-1.42251e-09
-1.42249e-09
4.32833e-18
-1.4225e-09
-1.18851e-17
-1.42251e-09
2.21985e-17
-1.4225e-09
7.98649e-19
-1.42251e-09
-1.42249e-09
-4.65939e-17
-1.4225e-09
-3.22996e-17
-1.42251e-09
5.57377e-17
-1.4225e-09
5.99356e-17
-1.42251e-09
-1.42249e-09
-8.4214e-17
-1.4225e-09
-5.49253e-17
-1.42251e-09
9.14001e-17
-1.4225e-09
1.05667e-16
-1.42251e-09
-1.42249e-09
-1.17308e-16
-1.42249e-09
-7.71016e-17
-1.42251e-09
1.26548e-16
-1.4225e-09
1.46824e-16
-1.42251e-09
-1.42249e-09
-1.5106e-16
-1.42249e-09
-9.84444e-17
-1.42251e-09
1.60832e-16
-1.42251e-09
1.88627e-16
-1.42251e-09
-1.42249e-09
-1.85616e-16
-1.42249e-09
-1.1951e-16
-1.42251e-09
1.94841e-16
-1.42251e-09
2.31246e-16
-1.42251e-09
-1.42249e-09
-2.20213e-16
-1.42249e-09
-1.40578e-16
-1.42251e-09
2.28881e-16
-1.42251e-09
2.73936e-16
-1.42251e-09
-1.42249e-09
-2.54749e-16
-1.42249e-09
-1.61707e-16
-1.42251e-09
2.63044e-16
-1.42251e-09
3.16615e-16
-1.42251e-09
-1.42249e-09
-2.89466e-16
-1.42249e-09
-1.8295e-16
-1.42251e-09
2.97407e-16
-1.42251e-09
3.59543e-16
-1.42251e-09
-1.42249e-09
-3.24599e-16
-1.42249e-09
-2.04391e-16
-1.42251e-09
3.32085e-16
-1.42251e-09
4.02973e-16
-1.42251e-09
-1.42249e-09
-3.60318e-16
-1.42249e-09
-2.2613e-16
-1.42251e-09
3.67203e-16
-1.42251e-09
4.47097e-16
-1.42251e-09
-1.42249e-09
-3.96771e-16
-1.42249e-09
-2.48257e-16
-1.42251e-09
4.0288e-16
-1.42251e-09
4.92078e-16
-1.42251e-09
-1.42249e-09
-4.34097e-16
-1.42249e-09
-2.7086e-16
-1.42251e-09
4.39229e-16
-1.42251e-09
5.38075e-16
-1.42251e-09
-1.42249e-09
-4.72435e-16
-1.42249e-09
-2.94017e-16
-1.42251e-09
4.76354e-16
-1.42251e-09
5.85244e-16
-1.42251e-09
-1.42249e-09
-5.11914e-16
-1.42249e-09
-3.17804e-16
-1.42251e-09
5.14356e-16
-1.42251e-09
6.33729e-16
-1.42251e-09
-1.42249e-09
-5.52655e-16
-1.42249e-09
-3.42292e-16
-1.42251e-09
5.53328e-16
-1.42251e-09
6.8367e-16
-1.42251e-09
-1.42249e-09
-5.94771e-16
-1.42249e-09
-3.67545e-16
-1.42251e-09
5.93358e-16
-1.42251e-09
7.35192e-16
-1.42251e-09
-1.42249e-09
-6.38363e-16
-1.42249e-09
-3.93622e-16
-1.42251e-09
6.34527e-16
-1.42251e-09
7.88412e-16
-1.42251e-09
-1.42249e-09
-6.83523e-16
-1.42249e-09
-4.20577e-16
-1.42251e-09
6.76906e-16
-1.42251e-09
8.43435e-16
-1.42251e-09
-1.42249e-09
-7.30333e-16
-1.42249e-09
-4.48456e-16
-1.42251e-09
7.20563e-16
-1.42252e-09
9.00356e-16
-1.42251e-09
-1.42248e-09
-7.78861e-16
-1.42249e-09
-4.77297e-16
-1.42251e-09
7.65553e-16
-1.42252e-09
9.59256e-16
-1.42251e-09
-1.42248e-09
-8.29168e-16
-1.42249e-09
-5.07136e-16
-1.42251e-09
8.11927e-16
-1.42252e-09
1.0202e-15
-1.42251e-09
-1.42248e-09
-8.813e-16
-1.42249e-09
-5.37996e-16
-1.42251e-09
8.59724e-16
-1.42252e-09
1.08326e-15
-1.42251e-09
-1.42248e-09
-9.35291e-16
-1.42248e-09
-5.69898e-16
-1.42251e-09
9.08976e-16
-1.42252e-09
1.14845e-15
-1.42251e-09
-1.42248e-09
-9.91163e-16
-1.42248e-09
-6.02852e-16
-1.42251e-09
9.59705e-16
-1.42252e-09
1.21583e-15
-1.42251e-09
-1.42248e-09
-1.04893e-15
-1.42248e-09
-6.36861e-16
-1.42251e-09
1.01193e-15
-1.42252e-09
1.2854e-15
-1.42251e-09
-1.42248e-09
-1.10858e-15
-1.42248e-09
-6.71923e-16
-1.42251e-09
1.06564e-15
-1.42253e-09
1.35717e-15
-1.42251e-09
-1.42248e-09
-1.1701e-15
-1.42248e-09
-7.08024e-16
-1.42251e-09
1.12085e-15
-1.42253e-09
1.43111e-15
-1.42251e-09
-1.42248e-09
-1.23347e-15
-1.42248e-09
-7.45146e-16
-1.42251e-09
1.17752e-15
-1.42253e-09
1.50721e-15
-1.42251e-09
-1.42247e-09
-1.29863e-15
-1.42248e-09
-7.83261e-16
-1.42251e-09
1.23565e-15
-1.42253e-09
1.58543e-15
-1.42251e-09
-1.42247e-09
-1.36555e-15
-1.42248e-09
-8.22334e-16
-1.42251e-09
1.29519e-15
-1.42253e-09
1.6657e-15
-1.42251e-09
-1.42247e-09
-1.43413e-15
-1.42248e-09
-8.62322e-16
-1.42251e-09
1.3561e-15
-1.42254e-09
1.74796e-15
-1.42251e-09
-1.42247e-09
-1.50432e-15
-1.42247e-09
-9.03174e-16
-1.42251e-09
1.41832e-15
-1.42254e-09
1.83213e-15
-1.42251e-09
-1.42247e-09
-1.576e-15
-1.42247e-09
-9.44831e-16
-1.42252e-09
1.4818e-15
-1.42254e-09
1.91809e-15
-1.42251e-09
-1.42247e-09
-1.64907e-15
-1.42247e-09
-9.87227e-16
-1.42252e-09
1.54645e-15
-1.42254e-09
2.00575e-15
-1.42251e-09
-1.42246e-09
-1.72342e-15
-1.42247e-09
-1.03029e-15
-1.42252e-09
1.6122e-15
-1.42255e-09
2.09498e-15
-1.42251e-09
-1.42246e-09
-1.79891e-15
-1.42247e-09
-1.07394e-15
-1.42252e-09
1.67894e-15
-1.42255e-09
2.18563e-15
-1.42251e-09
-1.42246e-09
-1.8754e-15
-1.42246e-09
-1.11808e-15
-1.42252e-09
1.7466e-15
-1.42255e-09
2.27754e-15
-1.42251e-09
-1.42246e-09
-1.95273e-15
-1.42246e-09
-1.16263e-15
-1.42252e-09
1.81504e-15
-1.42255e-09
2.37057e-15
-1.42251e-09
-1.42245e-09
-2.03074e-15
-1.42246e-09
-1.20748e-15
-1.42252e-09
1.88416e-15
-1.42256e-09
2.46452e-15
-1.42251e-09
-1.42245e-09
-2.10925e-15
-1.42246e-09
-1.25252e-15
-1.42252e-09
1.95383e-15
-1.42256e-09
2.55921e-15
-1.42252e-09
-1.42245e-09
-2.18807e-15
-1.42246e-09
-1.29765e-15
-1.42252e-09
2.02391e-15
-1.42256e-09
2.65444e-15
-1.42252e-09
-1.42245e-09
-2.26702e-15
-1.42245e-09
-1.34274e-15
-1.42252e-09
2.09427e-15
-1.42257e-09
2.74999e-15
-1.42252e-09
-1.42244e-09
-2.34588e-15
-1.42245e-09
-1.38767e-15
-1.42252e-09
2.16476e-15
-1.42257e-09
2.84566e-15
-1.42252e-09
-1.42244e-09
-2.42446e-15
-1.42245e-09
-1.43232e-15
-1.42252e-09
2.23524e-15
-1.42258e-09
2.94121e-15
-1.42252e-09
-1.42244e-09
-2.50253e-15
-1.42245e-09
-1.47655e-15
-1.42253e-09
2.30553e-15
-1.42258e-09
3.0364e-15
-1.42252e-09
-1.42243e-09
-2.57987e-15
-1.42244e-09
-1.52024e-15
-1.42253e-09
2.37549e-15
-1.42258e-09
3.131e-15
-1.42252e-09
-1.42243e-09
-2.65626e-15
-1.42244e-09
-1.56324e-15
-1.42253e-09
2.44494e-15
-1.42259e-09
3.22475e-15
-1.42252e-09
-1.42243e-09
-2.73146e-15
-1.42244e-09
-1.60541e-15
-1.42253e-09
2.51373e-15
-1.42259e-09
3.31742e-15
-1.42252e-09
-1.42243e-09
-2.80525e-15
-1.42244e-09
-1.64663e-15
-1.42253e-09
2.58168e-15
-1.4226e-09
3.40875e-15
-1.42252e-09
-1.42242e-09
-2.8774e-15
-1.42243e-09
-1.68674e-15
-1.42253e-09
2.64861e-15
-1.4226e-09
3.49848e-15
-1.42252e-09
-1.42242e-09
-2.94767e-15
-1.42243e-09
-1.72561e-15
-1.42253e-09
2.71437e-15
-1.4226e-09
3.58636e-15
-1.42252e-09
-1.42241e-09
-3.01583e-15
-1.42243e-09
-1.76311e-15
-1.42253e-09
2.77878e-15
-1.42261e-09
3.67213e-15
-1.42252e-09
-1.42241e-09
-3.08166e-15
-1.42242e-09
-1.79909e-15
-1.42253e-09
2.84167e-15
-1.42261e-09
3.75556e-15
-1.42253e-09
-1.42241e-09
-3.14493e-15
-1.42242e-09
-1.83343e-15
-1.42254e-09
2.90288e-15
-1.42262e-09
3.83638e-15
-1.42253e-09
-1.4224e-09
-3.20543e-15
-1.42242e-09
-1.86599e-15
-1.42254e-09
2.96224e-15
-1.42262e-09
3.91437e-15
-1.42253e-09
-1.4224e-09
-3.26295e-15
-1.42241e-09
-1.89666e-15
-1.42254e-09
3.0196e-15
-1.42263e-09
3.98928e-15
-1.42253e-09
-1.4224e-09
-3.31728e-15
-1.42241e-09
-1.9253e-15
-1.42254e-09
3.07481e-15
-1.42263e-09
4.06091e-15
-1.42253e-09
-1.42239e-09
-3.36824e-15
-1.42241e-09
-1.95181e-15
-1.42254e-09
3.12772e-15
-1.42264e-09
4.12902e-15
-1.42253e-09
-1.42239e-09
-3.41565e-15
-1.4224e-09
-1.97609e-15
-1.42254e-09
3.17821e-15
-1.42264e-09
4.19343e-15
-1.42253e-09
-1.42238e-09
-3.45933e-15
-1.4224e-09
-1.99804e-15
-1.42254e-09
3.22613e-15
-1.42265e-09
4.25394e-15
-1.42253e-09
-1.42238e-09
-3.49914e-15
-1.4224e-09
-2.01756e-15
-1.42255e-09
3.27138e-15
-1.42265e-09
4.31039e-15
-1.42253e-09
-1.42237e-09
-3.53495e-15
-1.42239e-09
-2.03459e-15
-1.42255e-09
3.31385e-15
-1.42266e-09
4.36261e-15
-1.42253e-09
-1.42237e-09
-3.56663e-15
-1.42239e-09
-2.04906e-15
-1.42255e-09
3.35345e-15
-1.42266e-09
4.41048e-15
-1.42254e-09
-1.42237e-09
-3.59409e-15
-1.42239e-09
-2.0609e-15
-1.42255e-09
3.39009e-15
-1.42267e-09
4.45388e-15
-1.42254e-09
-1.42236e-09
-3.61725e-15
-1.42238e-09
-2.0701e-15
-1.42255e-09
3.42373e-15
-1.42268e-09
4.49272e-15
-1.42254e-09
-1.42236e-09
-3.63606e-15
-1.42238e-09
-2.0766e-15
-1.42255e-09
3.45431e-15
-1.42268e-09
4.52693e-15
-1.42254e-09
-1.42235e-09
-3.65049e-15
-1.42238e-09
-2.08042e-15
-1.42256e-09
3.48179e-15
-1.42269e-09
4.55646e-15
-1.42254e-09
-1.42235e-09
-3.66053e-15
-1.42237e-09
-2.08154e-15
-1.42256e-09
3.50618e-15
-1.42269e-09
4.58131e-15
-1.42254e-09
-1.42234e-09
-3.66622e-15
-1.42237e-09
-2.08e-15
-1.42256e-09
3.52747e-15
-1.4227e-09
4.60149e-15
-1.42254e-09
-1.42234e-09
-3.6676e-15
-1.42237e-09
-2.07583e-15
-1.42256e-09
3.5457e-15
-1.4227e-09
4.61705e-15
-1.42254e-09
-1.42233e-09
-3.66476e-15
-1.42236e-09
-2.0691e-15
-1.42256e-09
3.56093e-15
-1.42271e-09
4.62807e-15
-1.42254e-09
-1.42233e-09
-3.65781e-15
-1.42236e-09
-2.05987e-15
-1.42256e-09
3.57321e-15
-1.42271e-09
4.63465e-15
-1.42255e-09
-1.42232e-09
-3.64692e-15
-1.42235e-09
-2.04827e-15
-1.42256e-09
3.58267e-15
-1.42272e-09
4.63697e-15
-1.42255e-09
-1.42232e-09
-3.63226e-15
-1.42235e-09
-2.03441e-15
-1.42257e-09
3.58942e-15
-1.42273e-09
4.6352e-15
-1.42255e-09
-1.42232e-09
-3.61408e-15
-1.42235e-09
-2.01843e-15
-1.42257e-09
3.59362e-15
-1.42273e-09
4.62959e-15
-1.42255e-09
-1.42231e-09
-3.59263e-15
-1.42234e-09
-2.00052e-15
-1.42257e-09
3.59544e-15
-1.42274e-09
4.62041e-15
-1.42255e-09
-1.42231e-09
-3.56823e-15
-1.42234e-09
-1.98086e-15
-1.42257e-09
3.59512e-15
-1.42274e-09
4.60798e-15
-1.42255e-09
-1.4223e-09
-3.54124e-15
-1.42234e-09
-1.95969e-15
-1.42257e-09
3.59289e-15
-1.42275e-09
4.59268e-15
-1.42255e-09
-1.4223e-09
-3.51205e-15
-1.42233e-09
-1.93725e-15
-1.42257e-09
3.58902e-15
-1.42275e-09
4.57492e-15
-1.42255e-09
-1.42229e-09
-3.48112e-15
-1.42233e-09
-1.91384e-15
-1.42258e-09
3.58384e-15
-1.42276e-09
4.55519e-15
-1.42255e-09
-1.42229e-09
-3.44894e-15
-1.42233e-09
-1.88976e-15
-1.42258e-09
3.5777e-15
-1.42276e-09
4.53401e-15
-1.42255e-09
-1.42228e-09
-3.41608e-15
-1.42232e-09
-1.86536e-15
-1.42258e-09
3.57097e-15
-1.42277e-09
4.51197e-15
-1.42256e-09
-1.42228e-09
-3.38315e-15
-1.42232e-09
-1.84102e-15
-1.42258e-09
3.5641e-15
-1.42278e-09
4.48971e-15
-1.42256e-09
-1.42227e-09
-3.3508e-15
-1.42232e-09
-1.81714e-15
-1.42258e-09
3.55754e-15
-1.42278e-09
4.46794e-15
-1.42256e-09
-1.42227e-09
-3.31978e-15
-1.42231e-09
-1.79418e-15
-1.42258e-09
3.55181e-15
-1.42279e-09
4.44745e-15
-1.42256e-09
-1.42227e-09
-3.29086e-15
-1.42231e-09
-1.77262e-15
-1.42259e-09
3.54746e-15
-1.42279e-09
4.42906e-15
-1.42256e-09
-1.42226e-09
-3.26491e-15
-1.42231e-09
-1.75298e-15
-1.42259e-09
3.54509e-15
-1.4228e-09
4.41369e-15
-1.42256e-09
-1.42226e-09
-3.24285e-15
-1.4223e-09
-1.73583e-15
-1.42259e-09
3.54536e-15
-1.4228e-09
4.40233e-15
-1.42256e-09
-1.42225e-09
-3.22566e-15
-1.4223e-09
-1.72177e-15
-1.42259e-09
3.54895e-15
-1.42281e-09
4.39604e-15
-1.42256e-09
-1.42225e-09
-3.21439e-15
-1.4223e-09
-1.71142e-15
-1.42259e-09
3.5566e-15
-1.42281e-09
4.39593e-15
-1.42256e-09
-1.42224e-09
-3.21014e-15
-1.42229e-09
-1.70542e-15
-1.42259e-09
3.56906e-15
-1.42282e-09
4.40316e-15
-1.42256e-09
-1.42224e-09
-3.21415e-15
-1.42229e-09
-1.70452e-15
-1.42259e-09
3.5872e-15
-1.42282e-09
4.41911e-15
-1.42256e-09
-1.42223e-09
-3.22821e-15
-1.42229e-09
-1.70987e-15
-1.4226e-09
3.61238e-15
-1.42283e-09
4.44568e-15
-1.42256e-09
-1.42223e-09
-3.24855e-15
-1.71739e-15
3.63988e-15
4.47876e-15
)
;

boundaryField
{
    BotWall
    {
        type            calculated;
        value           nonuniform List<scalar> 5(-1.1033e-24 -1.09023e-23 8.85827e-24 -1.99731e-24 -1.66363e-24);
    }
    FreeStream
    {
        type            calculated;
        value           nonuniform List<scalar> 5(-1.42228e-09 -1.4226e-09 -1.42283e-09 -1.42257e-09 -1.42223e-09);
    }
    FrontNBack
    {
        type            empty;
        value           nonuniform 0();
    }
    LeftSide
    {
        type            symmetryPlane;
        value           uniform 0;
    }
    RightSide
    {
        type            symmetryPlane;
        value           uniform 0;
    }
}


// ************************************************************************* //
