/*--------------------------------*- C++ -*----------------------------------*\
| =========                 |                                                 |
| \\      /  F ield         | OpenFOAM: The Open Source CFD Toolbox           |
|  \\    /   O peration     | Version:  2.4.0                                 |
|   \\  /    A nd           | Web:      www.OpenFOAM.org                      |
|    \\/     M anipulation  |                                                 |
\*---------------------------------------------------------------------------*/
FoamFile
{
    version     2.0;
    format      ascii;
    class       volVectorField;
    location    "0.1";
    object      U;
}
// * * * * * * * * * * * * * * * * * * * * * * * * * * * * * * * * * * * * * //

dimensions      [0 1 -1 0 0 0 0];

internalField   nonuniform List<vector> 
500
(
(1.25685e-09 5.92885e-05 0)
(1.04841e-09 5.92987e-05 0)
(-4.89187e-11 5.92981e-05 0)
(-1.20495e-09 5.92986e-05 0)
(-1.36441e-09 5.9288e-05 0)
(4.06289e-09 0.000118361 0)
(3.42204e-09 0.000118366 0)
(-1.50596e-10 0.000118364 0)
(-3.90448e-09 0.000118365 0)
(-4.39454e-09 0.00011836 0)
(6.6122e-09 -0.00024989 0)
(5.52651e-09 -0.000249978 0)
(-2.55113e-10 -0.000249976 0)
(-6.34464e-09 -0.000249978 0)
(-7.17492e-09 -0.000249888 0)
(8.30589e-09 -0.00194929 0)
(6.76497e-09 -0.00194944 0)
(-3.61675e-10 -0.00194942 0)
(-7.92609e-09 -0.00194943 0)
(-9.10501e-09 -0.00194928 0)
(9.33784e-09 -0.0052437 0)
(7.70394e-09 -0.00524363 0)
(-3.82572e-10 -0.00524363 0)
(-8.93287e-09 -0.00524363 0)
(-1.01839e-08 -0.00524369 0)
(5.06136e-09 -0.0121164 0)
(-7.55289e-09 -0.0121163 0)
(2.07977e-09 -0.0121163 0)
(1.04962e-08 -0.0121163 0)
(-4.43918e-09 -0.0121164 0)
(-3.87705e-09 -0.00735655 0)
(-2.70551e-08 -0.00735676 0)
(4.47899e-09 -0.00735675 0)
(3.40824e-08 -0.00735676 0)
(5.95096e-09 -0.00735654 0)
(-1.1201e-08 -0.00685774 0)
(-4.45255e-08 -0.00685781 0)
(6.80717e-09 -0.0068578 0)
(5.55135e-08 -0.00685781 0)
(1.46824e-08 -0.00685773 0)
(-1.75479e-08 -0.00696933 0)
(-6.06552e-08 -0.00696936 0)
(9.07147e-09 -0.00696935 0)
(7.54943e-08 -0.00696936 0)
(2.23989e-08 -0.00696932 0)
(-2.36694e-08 -0.00709881 0)
(-7.62288e-08 -0.00709886 0)
(1.12792e-08 -0.00709885 0)
(9.48244e-08 -0.00709885 0)
(2.98591e-08 -0.0070988 0)
(-2.9756e-08 -0.0071238 0)
(-9.14735e-08 -0.00712386 0)
(1.34368e-08 -0.00712385 0)
(1.13743e-07 -0.00712385 0)
(3.72589e-08 -0.00712379 0)
(-3.57524e-08 -0.00711798 0)
(-1.0637e-07 -0.00711804 0)
(1.55499e-08 -0.00711804 0)
(1.32241e-07 -0.00711804 0)
(4.45469e-08 -0.00711797 0)
(-4.16428e-08 -0.007113 0)
(-1.20936e-07 -0.00711306 0)
(1.7624e-08 -0.00711306 0)
(1.50345e-07 -0.00711306 0)
(5.17114e-08 -0.00711299 0)
(-4.74641e-08 -0.00711201 0)
(-1.35241e-07 -0.00711207 0)
(1.96641e-08 -0.00711207 0)
(1.68135e-07 -0.00711207 0)
(5.87929e-08 -0.007112 0)
(-5.32619e-08 -0.00711225 0)
(-1.4936e-07 -0.00711232 0)
(2.16753e-08 -0.00711232 0)
(1.85695e-07 -0.00711231 0)
(6.58407e-08 -0.00711224 0)
(-5.90747e-08 -0.00711245 0)
(-1.63359e-07 -0.00711252 0)
(2.3662e-08 -0.00711252 0)
(2.03099e-07 -0.00711251 0)
(7.28964e-08 -0.00711244 0)
(-6.49339e-08 -0.00711248 0)
(-1.77296e-07 -0.00711255 0)
(2.56288e-08 -0.00711256 0)
(2.20412e-07 -0.00711255 0)
(7.99947e-08 -0.00711247 0)
(-7.08677e-08 -0.00711247 0)
(-1.91223e-07 -0.00711255 0)
(2.75796e-08 -0.00711255 0)
(2.37693e-07 -0.00711254 0)
(8.71666e-08 -0.00711246 0)
(-7.69015e-08 -0.00711246 0)
(-2.05186e-07 -0.00711254 0)
(2.95181e-08 -0.00711255 0)
(2.54995e-07 -0.00711253 0)
(9.44399e-08 -0.00711245 0)
(-8.30578e-08 -0.00711246 0)
(-2.19227e-07 -0.00711254 0)
(3.14479e-08 -0.00711255 0)
(2.72367e-07 -0.00711253 0)
(1.0184e-07 -0.00711245 0)
(-8.93562e-08 -0.00711246 0)
(-2.33384e-07 -0.00711254 0)
(3.3372e-08 -0.00711256 0)
(2.89851e-07 -0.00711253 0)
(1.09388e-07 -0.00711244 0)
(-9.58135e-08 -0.00711245 0)
(-2.47686e-07 -0.00711254 0)
(3.52934e-08 -0.00711256 0)
(3.07484e-07 -0.00711253 0)
(1.17103e-07 -0.00711244 0)
(-1.02443e-07 -0.00711245 0)
(-2.62162e-07 -0.00711254 0)
(3.72145e-08 -0.00711257 0)
(3.25296e-07 -0.00711254 0)
(1.25e-07 -0.00711244 0)
(-1.09256e-07 -0.00711245 0)
(-2.76833e-07 -0.00711254 0)
(3.91376e-08 -0.00711257 0)
(3.43313e-07 -0.00711254 0)
(1.33091e-07 -0.00711243 0)
(-1.16261e-07 -0.00711244 0)
(-2.91715e-07 -0.00711254 0)
(4.10648e-08 -0.00711258 0)
(3.61555e-07 -0.00711254 0)
(1.41386e-07 -0.00711243 0)
(-1.23462e-07 -0.00711244 0)
(-3.06821e-07 -0.00711255 0)
(4.29976e-08 -0.00711258 0)
(3.80037e-07 -0.00711254 0)
(1.49891e-07 -0.00711242 0)
(-1.30861e-07 -0.00711243 0)
(-3.22157e-07 -0.00711255 0)
(4.49374e-08 -0.00711259 0)
(3.98769e-07 -0.00711254 0)
(1.58608e-07 -0.00711242 0)
(-1.3846e-07 -0.00711243 0)
(-3.37725e-07 -0.00711255 0)
(4.68854e-08 -0.0071126 0)
(4.17753e-07 -0.00711254 0)
(1.67539e-07 -0.00711241 0)
(-1.46254e-07 -0.00711243 0)
(-3.53525e-07 -0.00711255 0)
(4.88423e-08 -0.0071126 0)
(4.36991e-07 -0.00711254 0)
(1.7668e-07 -0.00711241 0)
(-1.5424e-07 -0.00711242 0)
(-3.6955e-07 -0.00711255 0)
(5.08086e-08 -0.00711261 0)
(4.56476e-07 -0.00711254 0)
(1.86027e-07 -0.0071124 0)
(-1.62408e-07 -0.00711242 0)
(-3.85789e-07 -0.00711255 0)
(5.27846e-08 -0.00711262 0)
(4.76198e-07 -0.00711254 0)
(1.95572e-07 -0.00711239 0)
(-1.7075e-07 -0.00711241 0)
(-4.02228e-07 -0.00711256 0)
(5.47703e-08 -0.00711263 0)
(4.96142e-07 -0.00711255 0)
(2.05305e-07 -0.00711239 0)
(-1.79253e-07 -0.0071124 0)
(-4.18849e-07 -0.00711256 0)
(5.67654e-08 -0.00711264 0)
(5.1629e-07 -0.00711255 0)
(2.15213e-07 -0.00711238 0)
(-1.87904e-07 -0.0071124 0)
(-4.3563e-07 -0.00711256 0)
(5.87695e-08 -0.00711265 0)
(5.36618e-07 -0.00711255 0)
(2.2528e-07 -0.00711237 0)
(-1.96686e-07 -0.00711239 0)
(-4.52546e-07 -0.00711256 0)
(6.07817e-08 -0.00711266 0)
(5.571e-07 -0.00711255 0)
(2.35492e-07 -0.00711237 0)
(-2.05581e-07 -0.00711239 0)
(-4.69568e-07 -0.00711257 0)
(6.28011e-08 -0.00711267 0)
(5.77705e-07 -0.00711255 0)
(2.45827e-07 -0.00711236 0)
(-2.14569e-07 -0.00711238 0)
(-4.86665e-07 -0.00711257 0)
(6.48266e-08 -0.00711268 0)
(5.98399e-07 -0.00711255 0)
(2.56266e-07 -0.00711235 0)
(-2.23631e-07 -0.00711237 0)
(-5.03803e-07 -0.00711257 0)
(6.68566e-08 -0.00711269 0)
(6.19146e-07 -0.00711256 0)
(2.66785e-07 -0.00711234 0)
(-2.32743e-07 -0.00711236 0)
(-5.20944e-07 -0.00711258 0)
(6.88896e-08 -0.0071127 0)
(6.39904e-07 -0.00711256 0)
(2.77362e-07 -0.00711233 0)
(-2.4188e-07 -0.00711236 0)
(-5.38051e-07 -0.00711258 0)
(7.09239e-08 -0.00711271 0)
(6.60633e-07 -0.00711256 0)
(2.87969e-07 -0.00711232 0)
(-2.51019e-07 -0.00711235 0)
(-5.5508e-07 -0.00711258 0)
(7.29575e-08 -0.00711272 0)
(6.81285e-07 -0.00711256 0)
(2.98581e-07 -0.00711231 0)
(-2.60134e-07 -0.00711234 0)
(-5.7199e-07 -0.00711259 0)
(7.49882e-08 -0.00711274 0)
(7.01815e-07 -0.00711257 0)
(3.09169e-07 -0.0071123 0)
(-2.69196e-07 -0.00711233 0)
(-5.88736e-07 -0.00711259 0)
(7.70139e-08 -0.00711275 0)
(7.22173e-07 -0.00711257 0)
(3.19704e-07 -0.00711229 0)
(-2.78179e-07 -0.00711232 0)
(-6.05272e-07 -0.00711259 0)
(7.90321e-08 -0.00711277 0)
(7.4231e-07 -0.00711257 0)
(3.30157e-07 -0.00711228 0)
(-2.87055e-07 -0.00711231 0)
(-6.21552e-07 -0.0071126 0)
(8.10404e-08 -0.00711278 0)
(7.62172e-07 -0.00711257 0)
(3.40496e-07 -0.00711226 0)
(-2.95795e-07 -0.0071123 0)
(-6.37526e-07 -0.0071126 0)
(8.30362e-08 -0.0071128 0)
(7.81708e-07 -0.00711258 0)
(3.50692e-07 -0.00711225 0)
(-3.0437e-07 -0.00711229 0)
(-6.53148e-07 -0.00711261 0)
(8.50169e-08 -0.00711281 0)
(8.00865e-07 -0.00711258 0)
(3.60713e-07 -0.00711224 0)
(-3.12752e-07 -0.00711228 0)
(-6.68369e-07 -0.00711261 0)
(8.69796e-08 -0.00711283 0)
(8.19588e-07 -0.00711258 0)
(3.70528e-07 -0.00711223 0)
(-3.20911e-07 -0.00711227 0)
(-6.8314e-07 -0.00711262 0)
(8.89217e-08 -0.00711285 0)
(8.37824e-07 -0.00711259 0)
(3.80105e-07 -0.00711221 0)
(-3.2882e-07 -0.00711225 0)
(-6.97415e-07 -0.00711262 0)
(9.08403e-08 -0.00711287 0)
(8.5552e-07 -0.00711259 0)
(3.89415e-07 -0.0071122 0)
(-3.3645e-07 -0.00711224 0)
(-7.11145e-07 -0.00711263 0)
(9.27325e-08 -0.00711289 0)
(8.72624e-07 -0.00711259 0)
(3.98425e-07 -0.00711218 0)
(-3.43773e-07 -0.00711223 0)
(-7.24284e-07 -0.00711263 0)
(9.45956e-08 -0.0071129 0)
(8.89084e-07 -0.0071126 0)
(4.07106e-07 -0.00711217 0)
(-3.50763e-07 -0.00711222 0)
(-7.36788e-07 -0.00711264 0)
(9.64267e-08 -0.00711292 0)
(9.04848e-07 -0.0071126 0)
(4.15429e-07 -0.00711215 0)
(-3.57394e-07 -0.0071122 0)
(-7.48613e-07 -0.00711264 0)
(9.8223e-08 -0.00711294 0)
(9.1987e-07 -0.0071126 0)
(4.23365e-07 -0.00711213 0)
(-3.63641e-07 -0.00711219 0)
(-7.59717e-07 -0.00711265 0)
(9.99817e-08 -0.00711297 0)
(9.34101e-07 -0.00711261 0)
(4.30888e-07 -0.00711212 0)
(-3.6948e-07 -0.00711217 0)
(-7.70061e-07 -0.00711265 0)
(1.017e-07 -0.00711299 0)
(9.47497e-07 -0.00711261 0)
(4.37971e-07 -0.0071121 0)
(-3.74889e-07 -0.00711216 0)
(-7.79607e-07 -0.00711266 0)
(1.03376e-07 -0.00711301 0)
(9.60015e-07 -0.00711262 0)
(4.4459e-07 -0.00711208 0)
(-3.79847e-07 -0.00711215 0)
(-7.8832e-07 -0.00711267 0)
(1.05006e-07 -0.00711303 0)
(9.71617e-07 -0.00711262 0)
(4.50721e-07 -0.00711206 0)
(-3.84335e-07 -0.00711213 0)
(-7.96168e-07 -0.00711267 0)
(1.06589e-07 -0.00711305 0)
(9.82265e-07 -0.00711263 0)
(4.56344e-07 -0.00711205 0)
(-3.88335e-07 -0.00711211 0)
(-8.03123e-07 -0.00711268 0)
(1.08121e-07 -0.00711308 0)
(9.91926e-07 -0.00711263 0)
(4.61438e-07 -0.00711203 0)
(-3.91831e-07 -0.0071121 0)
(-8.09158e-07 -0.00711268 0)
(1.09601e-07 -0.0071131 0)
(1.00057e-06 -0.00711264 0)
(4.65986e-07 -0.00711201 0)
(-3.9481e-07 -0.00711208 0)
(-8.14252e-07 -0.00711269 0)
(1.11027e-07 -0.00711313 0)
(1.00817e-06 -0.00711264 0)
(4.69973e-07 -0.00711199 0)
(-3.97259e-07 -0.00711207 0)
(-8.18385e-07 -0.0071127 0)
(1.12396e-07 -0.00711315 0)
(1.01471e-06 -0.00711264 0)
(4.73384e-07 -0.00711197 0)
(-3.9917e-07 -0.00711205 0)
(-8.21543e-07 -0.00711271 0)
(1.13707e-07 -0.00711318 0)
(1.02016e-06 -0.00711265 0)
(4.76211e-07 -0.00711195 0)
(-4.00534e-07 -0.00711203 0)
(-8.23716e-07 -0.00711271 0)
(1.14959e-07 -0.0071132 0)
(1.02452e-06 -0.00711265 0)
(4.78442e-07 -0.00711193 0)
(-4.01348e-07 -0.00711201 0)
(-8.24896e-07 -0.00711272 0)
(1.1615e-07 -0.00711323 0)
(1.02777e-06 -0.00711266 0)
(4.80073e-07 -0.00711191 0)
(-4.01607e-07 -0.007112 0)
(-8.25082e-07 -0.00711273 0)
(1.17278e-07 -0.00711325 0)
(1.02991e-06 -0.00711267 0)
(4.81101e-07 -0.00711188 0)
(-4.01313e-07 -0.00711198 0)
(-8.24275e-07 -0.00711273 0)
(1.18343e-07 -0.00711328 0)
(1.03094e-06 -0.00711267 0)
(4.81523e-07 -0.00711186 0)
(-4.00468e-07 -0.00711196 0)
(-8.22484e-07 -0.00711274 0)
(1.19345e-07 -0.00711331 0)
(1.03087e-06 -0.00711268 0)
(4.81342e-07 -0.00711184 0)
(-3.99076e-07 -0.00711194 0)
(-8.19718e-07 -0.00711275 0)
(1.20281e-07 -0.00711333 0)
(1.02971e-06 -0.00711268 0)
(4.80564e-07 -0.00711182 0)
(-3.97146e-07 -0.00711193 0)
(-8.15995e-07 -0.00711276 0)
(1.21153e-07 -0.00711336 0)
(1.02746e-06 -0.00711269 0)
(4.79194e-07 -0.0071118 0)
(-3.94688e-07 -0.00711191 0)
(-8.11337e-07 -0.00711277 0)
(1.21959e-07 -0.00711339 0)
(1.02416e-06 -0.00711269 0)
(4.77245e-07 -0.00711177 0)
(-3.91716e-07 -0.00711189 0)
(-8.05768e-07 -0.00711277 0)
(1.22701e-07 -0.00711342 0)
(1.01983e-06 -0.0071127 0)
(4.74729e-07 -0.00711175 0)
(-3.88245e-07 -0.00711187 0)
(-7.9932e-07 -0.00711278 0)
(1.23377e-07 -0.00711345 0)
(1.01451e-06 -0.0071127 0)
(4.71662e-07 -0.00711173 0)
(-3.84294e-07 -0.00711185 0)
(-7.9203e-07 -0.00711279 0)
(1.2399e-07 -0.00711347 0)
(1.00822e-06 -0.00711271 0)
(4.68065e-07 -0.0071117 0)
(-3.79885e-07 -0.00711183 0)
(-7.83938e-07 -0.0071128 0)
(1.24538e-07 -0.0071135 0)
(1.00101e-06 -0.00711271 0)
(4.6396e-07 -0.00711168 0)
(-3.75044e-07 -0.00711182 0)
(-7.75092e-07 -0.0071128 0)
(1.25025e-07 -0.00711353 0)
(9.92936e-07 -0.00711272 0)
(4.59373e-07 -0.00711166 0)
(-3.69797e-07 -0.0071118 0)
(-7.65543e-07 -0.00711281 0)
(1.2545e-07 -0.00711356 0)
(9.84045e-07 -0.00711272 0)
(4.54332e-07 -0.00711164 0)
(-3.64175e-07 -0.00711178 0)
(-7.55347e-07 -0.00711282 0)
(1.25815e-07 -0.00711359 0)
(9.744e-07 -0.00711273 0)
(4.4887e-07 -0.00711161 0)
(-3.58212e-07 -0.00711176 0)
(-7.44567e-07 -0.00711283 0)
(1.26123e-07 -0.00711361 0)
(9.64065e-07 -0.00711273 0)
(4.43022e-07 -0.00711159 0)
(-3.51944e-07 -0.00711174 0)
(-7.33269e-07 -0.00711284 0)
(1.26375e-07 -0.00711364 0)
(9.53112e-07 -0.00711274 0)
(4.36827e-07 -0.00711157 0)
(-3.45411e-07 -0.00711173 0)
(-7.21526e-07 -0.00711284 0)
(1.26573e-07 -0.00711367 0)
(9.41617e-07 -0.00711274 0)
(4.30326e-07 -0.00711154 0)
(-3.38656e-07 -0.00711171 0)
(-7.09415e-07 -0.00711285 0)
(1.26721e-07 -0.0071137 0)
(9.29663e-07 -0.00711275 0)
(4.23564e-07 -0.00711152 0)
(-3.31724e-07 -0.00711169 0)
(-6.97019e-07 -0.00711286 0)
(1.2682e-07 -0.00711373 0)
(9.17339e-07 -0.00711275 0)
(4.1659e-07 -0.0071115 0)
(-3.24664e-07 -0.00711167 0)
(-6.84425e-07 -0.00711287 0)
(1.26875e-07 -0.00711375 0)
(9.04738e-07 -0.00711276 0)
(4.09456e-07 -0.00711147 0)
(-3.17528e-07 -0.00711165 0)
(-6.71727e-07 -0.00711288 0)
(1.26888e-07 -0.00711378 0)
(8.9196e-07 -0.00711276 0)
(4.02217e-07 -0.00711145 0)
(-3.10372e-07 -0.00711164 0)
(-6.59022e-07 -0.00711288 0)
(1.26864e-07 -0.00711381 0)
(8.7911e-07 -0.00711277 0)
(3.94931e-07 -0.00711143 0)
(-3.03253e-07 -0.00711162 0)
(-6.46414e-07 -0.00711289 0)
(1.26806e-07 -0.00711384 0)
(8.66299e-07 -0.00711277 0)
(3.8766e-07 -0.00711141 0)
(-2.96233e-07 -0.0071116 0)
(-6.34009e-07 -0.0071129 0)
(1.26719e-07 -0.00711386 0)
(8.53644e-07 -0.00711278 0)
(3.8047e-07 -0.00711138 0)
(-2.89377e-07 -0.00711159 0)
(-6.21922e-07 -0.00711291 0)
(1.26608e-07 -0.00711389 0)
(8.41266e-07 -0.00711278 0)
(3.73429e-07 -0.00711136 0)
(-2.82752e-07 -0.00711157 0)
(-6.10271e-07 -0.00711291 0)
(1.26477e-07 -0.00711392 0)
(8.29293e-07 -0.00711279 0)
(3.66611e-07 -0.00711134 0)
(-2.76431e-07 -0.00711155 0)
(-5.99177e-07 -0.00711292 0)
(1.26331e-07 -0.00711394 0)
(8.17858e-07 -0.00711279 0)
(3.6009e-07 -0.00711132 0)
(-2.70486e-07 -0.00711154 0)
(-5.88769e-07 -0.00711293 0)
(1.26177e-07 -0.00711397 0)
(8.07099e-07 -0.0071128 0)
(3.53946e-07 -0.00711129 0)
(-2.64995e-07 -0.00711152 0)
(-5.7918e-07 -0.00711294 0)
(1.2602e-07 -0.007114 0)
(7.97161e-07 -0.0071128 0)
(3.48262e-07 -0.00711127 0)
(-2.6004e-07 -0.0071115 0)
(-5.70546e-07 -0.00711295 0)
(1.25866e-07 -0.00711402 0)
(7.88191e-07 -0.00711281 0)
(3.43123e-07 -0.00711125 0)
(-2.55702e-07 -0.00711149 0)
(-5.63006e-07 -0.00711295 0)
(1.25722e-07 -0.00711405 0)
(7.80342e-07 -0.00711281 0)
(3.38618e-07 -0.00711123 0)
(-2.52067e-07 -0.00711147 0)
(-5.56704e-07 -0.00711296 0)
(1.25595e-07 -0.00711408 0)
(7.73769e-07 -0.00711281 0)
(3.34839e-07 -0.00711121 0)
(-2.49233e-07 -0.00711146 0)
(-5.51805e-07 -0.00711297 0)
(1.25492e-07 -0.0071141 0)
(7.68651e-07 -0.00711282 0)
(3.3189e-07 -0.00711118 0)
(-2.47322e-07 -0.00711144 0)
(-5.48515e-07 -0.00711298 0)
(1.25425e-07 -0.00711414 0)
(7.65219e-07 -0.00711283 0)
(3.29903e-07 -0.00711116 0)
(-2.46449e-07 -0.00711142 0)
(-5.47028e-07 -0.00711298 0)
(1.25405e-07 -0.00711415 0)
(7.63685e-07 -0.00711282 0)
(3.29003e-07 -0.00711113 0)
)
;

boundaryField
{
    BotWall
    {
        type            fixedValue;
        value           uniform (0 0 0);
    }
    FreeStream
    {
        type            zeroGradient;
    }
    FrontNBack
    {
        type            empty;
    }
    LeftSide
    {
        type            symmetryPlane;
    }
    RightSide
    {
        type            symmetryPlane;
    }
}


// ************************************************************************* //
