/*--------------------------------*- C++ -*----------------------------------*\
| =========                 |                                                 |
| \\      /  F ield         | OpenFOAM: The Open Source CFD Toolbox           |
|  \\    /   O peration     | Version:  2.4.0                                 |
|   \\  /    A nd           | Web:      www.OpenFOAM.org                      |
|    \\/     M anipulation  |                                                 |
\*---------------------------------------------------------------------------*/
FoamFile
{
    version     2.0;
    format      ascii;
    class       volScalarField;
    location    "5";
    object      alpha1;
}
// * * * * * * * * * * * * * * * * * * * * * * * * * * * * * * * * * * * * * //

dimensions      [0 0 0 0 0 0 0];

internalField   nonuniform List<scalar> 
8000
(
1
1
0.999999
0.999998
0.999998
0.999997
0.999997
0.999997
0.999997
0.999997
0.999998
0.999998
0.999998
0.999998
0.999998
0.999998
0.999998
0.999999
0.999999
0.999999
0.999999
0.999999
0.999999
0.999999
0.999999
0.999999
1
1
1
1
1
1
1
1
1
1
1
1
1
0.999999
1
1
0.999999
0.999998
0.999999
0.999997
0.999984
0.99997
0.962023
0.82129
1
1
0.999999
0.999998
0.999998
0.999997
0.999997
0.999997
0.999997
0.999998
0.999998
0.999998
0.999999
0.999999
0.999999
0.999999
0.999999
0.999999
0.999999
0.999999
0.999999
0.999999
0.999999
0.999999
0.999999
0.999999
0.999999
1
1
1
1
1
1
1
1
0.999999
1
1
0.999999
0.999998
1
0.999997
0.999986
0.99996
0.97536
0.891839
0.739991
0.632862
0.390748
0.0902581
1
1
0.999999
0.999998
0.999998
0.999997
0.999997
0.999997
0.999998
0.999998
0.999999
0.999999
0.999999
0.999999
0.999999
0.999999
0.999999
0.999999
0.999998
0.999999
0.999998
0.999998
0.999998
0.999999
0.999999
0.999999
0.999999
0.999999
0.999999
0.999999
0.999999
0.999999
0.999999
0.999999
0.999999
0.999998
0.999999
0.999998
0.999989
0.999962
0.974227
0.900896
0.769301
0.602783
0.472326
0.219584
0.0564442
0.016041
0.00492671
0.000603844
1
1
0.999999
0.999998
0.999997
0.999997
0.999997
0.999998
0.999998
0.999999
0.999999
1
1
0.999999
0.999999
0.999999
0.999998
0.999998
0.999998
0.999999
0.999998
0.999998
0.999998
0.999998
0.999998
0.999998
0.999999
0.999999
0.999999
0.999999
0.999999
0.999999
0.999998
0.999999
0.999997
0.999981
0.998298
0.930066
0.80583
0.626743
0.455842
0.266772
0.0889043
0.0254961
0.00986018
0.00198077
0.000178823
8.16821e-05
4.65666e-05
1.59479e-05
1
1
0.999999
0.999998
0.999997
0.999997
0.999997
0.999998
0.999999
0.999999
1
1
1
0.999999
0.999999
0.999998
0.999998
0.999998
0.999997
0.999999
0.999998
0.999998
0.999998
0.999998
0.999998
0.999998
0.999998
0.999998
0.999998
0.999998
0.999998
0.999999
0.999988
0.999939
0.917544
0.749437
0.528605
0.325207
0.139425
0.040105
0.012772
0.00408155
0.00034484
6.2379e-05
7.04651e-05
2.21726e-05
7.55135e-06
2.5943e-06
1.5727e-06
1.57194e-06
1
1
0.999998
0.999997
0.999997
0.999997
0.999997
0.999998
0.999999
1
1
1
0.999999
0.999999
0.999998
0.999998
0.999998
0.999998
0.999997
0.999997
0.999997
0.999997
0.999998
0.999998
0.999998
0.999998
0.999998
0.999998
0.999998
0.999997
0.999984
0.988124
0.807385
0.538275
0.282114
0.107356
0.0252634
0.00722433
0.00156181
0.000161836
3.82366e-05
2.32172e-05
9.93963e-06
3.49696e-06
2.37183e-06
7.4794e-06
1.26378e-05
1.07991e-05
3.97357e-06
1.57118e-06
1
1
0.999998
0.999997
0.999997
0.999997
0.999998
0.999999
1
1
1
1
0.999999
0.999998
0.999998
0.999997
0.999997
0.999997
0.999997
0.999997
0.999997
0.999997
0.999998
0.999998
0.999998
0.999998
0.999998
0.999997
0.999997
0.999918
0.765977
0.3972
0.148056
0.0343998
0.00478094
0.00104927
0.000152909
2.77729e-05
5.32033e-06
2.52671e-06
2.00012e-06
1.83367e-06
1.61253e-06
1.59667e-06
2.20893e-06
3.73076e-06
1.26352e-05
7.07243e-06
2.24993e-06
1.57219e-06
1
0.999999
0.999998
0.999997
0.999996
0.999996
0.999998
1
1
1
1
0.999999
0.999998
0.999998
0.999997
0.999997
0.999997
0.999997
0.999997
0.999997
0.999997
0.999997
0.999997
0.999998
0.999998
0.999998
0.999997
0.999985
0.903944
0.436397
0.0954057
0.0139512
0.001481
0.000252408
3.01055e-05
3.22876e-06
1.61826e-06
1.37613e-06
1.51099e-06
1.48595e-06
1.45574e-06
1.43662e-06
1.41504e-06
1.38345e-06
1.4796e-06
2.05874e-06
4.10583e-06
1.46952e-06
1.31461e-06
1.31121e-06
1
0.999999
0.999997
0.999996
0.999996
0.999996
0.999998
1
1
1
1
0.999999
0.999998
0.999997
0.999997
0.999997
0.999997
0.999997
0.999997
0.999997
0.999997
0.999997
0.999997
0.999997
0.999998
0.999998
0.999964
0.762529
0.172588
0.0119106
0.000898997
8.51406e-05
7.70549e-06
2.72459e-06
2.27895e-06
2.14926e-06
1.40977e-06
1.29552e-06
1.14168e-06
1.04748e-06
9.95803e-07
9.65825e-07
9.4646e-07
9.28558e-07
8.83319e-07
8.36629e-07
7.95136e-07
8.57663e-07
9.0607e-07
9.50302e-07
1
0.999999
0.999997
0.999996
0.999995
0.999996
0.999998
1
1
1
1
0.999999
0.999998
0.999997
0.999997
0.999997
0.999997
0.999997
0.999997
0.999997
0.999997
0.999997
0.999997
0.999997
0.999997
0.999966
0.708646
0.0863967
0.00282342
0.00011969
6.10986e-06
3.11661e-06
3.15742e-06
2.22025e-06
1.69175e-06
1.45687e-06
1.18781e-06
9.92478e-07
8.53882e-07
7.52507e-07
6.74963e-07
6.1254e-07
5.60795e-07
5.17964e-07
4.82603e-07
4.56194e-07
4.44915e-07
4.58596e-07
4.86867e-07
5.25109e-07
1
0.999999
0.999997
0.999995
0.999994
0.999995
0.999998
1
1
1
1
0.999999
0.999998
0.999997
0.999997
0.999997
0.999997
0.999997
0.999997
0.999997
0.999997
0.999997
0.999997
0.999997
0.999993
0.851587
0.151727
0.00379715
0.00014438
8.56429e-06
3.85383e-06
3.01979e-06
2.32415e-06
1.90577e-06
1.46645e-06
1.14251e-06
9.10043e-07
7.40635e-07
6.12859e-07
5.14063e-07
4.37309e-07
3.78291e-07
3.3371e-07
3.01043e-07
2.78501e-07
2.64717e-07
2.58923e-07
2.6103e-07
2.70442e-07
2.86427e-07
1
0.999999
0.999997
0.999994
0.999992
0.999995
0.999999
1
1
1
1
0.999999
0.999998
0.999998
0.999997
0.999997
0.999997
0.999997
0.999997
0.999997
0.999997
0.999997
0.999997
0.999997
0.996395
0.376059
0.0132332
0.000386947
1.98429e-05
4.13802e-06
3.41142e-06
2.7832e-06
2.24393e-06
1.72465e-06
1.31821e-06
1.01455e-06
7.8833e-07
6.1868e-07
4.91297e-07
3.96638e-07
3.28138e-07
2.80431e-07
2.48469e-07
2.27764e-07
2.14862e-07
2.07384e-07
2.03827e-07
2.0335e-07
2.05487e-07
2.09912e-07
1
0.999999
0.999996
0.999993
0.999991
0.999995
0.999999
1
1
1
1
0.999999
0.999998
0.999998
0.999998
0.999997
0.999997
0.999997
0.999997
0.999997
0.999997
0.999997
0.999997
0.999979
0.717851
0.0617058
0.00129078
5.4264e-05
5.38762e-06
3.75875e-06
3.18518e-06
2.53805e-06
1.99954e-06
1.55436e-06
1.19826e-06
9.16748e-07
6.98458e-07
5.34098e-07
4.14422e-07
3.3054e-07
2.74254e-07
2.38151e-07
2.15847e-07
2.02342e-07
1.94168e-07
1.89181e-07
1.86184e-07
1.8461e-07
1.84364e-07
1.8585e-07
1
0.999999
0.999996
0.999991
0.99999
0.999995
0.999999
1
1
1
1
0.999999
0.999999
0.999998
0.999998
0.999998
0.999997
0.999997
0.999997
0.999997
0.999997
0.999997
0.999997
0.941151
0.197972
0.00379301
0.000120779
8.20279e-06
4.17422e-06
3.36325e-06
2.72271e-06
2.19353e-06
1.77322e-06
1.41491e-06
1.10537e-06
8.46112e-07
6.39544e-07
4.83845e-07
3.7285e-07
2.97948e-07
2.49969e-07
2.20573e-07
2.03058e-07
1.92608e-07
1.86076e-07
1.81554e-07
1.77963e-07
1.74865e-07
1.72321e-07
1.69692e-07
1
0.999999
0.999995
0.999989
0.999989
0.999995
1
1
1
1
1
0.999999
0.999999
0.999999
0.999998
0.999998
0.999998
0.999997
0.999997
0.999997
0.999996
0.999996
0.999903
0.411432
0.0115789
0.000245524
1.22123e-05
4.4712e-06
3.33037e-06
2.73907e-06
2.2612e-06
1.91679e-06
1.61709e-06
1.33081e-06
1.06145e-06
8.2253e-07
6.25213e-07
4.73618e-07
3.64898e-07
2.91729e-07
2.45154e-07
2.16757e-07
1.99844e-07
1.89719e-07
1.83398e-07
1.79121e-07
1.75888e-07
1.73179e-07
1.70865e-07
1.69117e-07
1
0.999999
0.999994
0.999987
0.99999
0.999997
1
1
1
1
1
1
0.999999
0.999999
0.999999
0.999998
0.999998
0.999997
0.999997
0.999996
0.999995
0.999976
0.625543
0.0270434
0.000373708
1.41854e-05
4.50039e-06
3.20756e-06
2.53339e-06
2.15685e-06
1.90853e-06
1.70781e-06
1.50305e-06
1.28192e-06
1.05402e-06
8.3762e-07
6.49263e-07
4.9829e-07
3.86058e-07
3.07982e-07
2.56587e-07
2.24106e-07
2.04026e-07
1.91604e-07
1.83726e-07
1.78504e-07
1.74848e-07
1.72148e-07
1.70079e-07
1.68516e-07
1
0.999999
0.999993
0.999986
0.999992
0.999998
1
1
1
1
1
1
1
0.999999
0.999999
0.999998
0.999998
0.999997
0.999997
0.999996
0.999995
0.796302
0.0513087
0.000459376
1.31529e-05
4.15119e-06
2.93406e-06
2.23607e-06
1.92178e-06
1.75561e-06
1.64593e-06
1.54281e-06
1.41731e-06
1.26197e-06
1.08391e-06
8.98981e-07
7.2439e-07
5.73279e-07
4.52144e-07
3.6123e-07
2.96585e-07
2.52465e-07
2.23141e-07
2.03871e-07
1.91158e-07
1.82633e-07
1.76782e-07
1.72675e-07
1.69748e-07
1.67665e-07
1
0.999998
0.999992
0.999987
0.999994
0.999999
1
1
1
1
1
1
1
0.999999
0.999999
0.999999
0.999998
0.999997
0.999997
0.999997
0.923556
0.0951014
0.00053114
1.08226e-05
3.86458e-06
2.51758e-06
1.91539e-06
1.64258e-06
1.51522e-06
1.45252e-06
1.41388e-06
1.37375e-06
1.31544e-06
1.23079e-06
1.11913e-06
9.87162e-07
8.46063e-07
7.07898e-07
5.82549e-07
4.76113e-07
3.90698e-07
3.25297e-07
2.76951e-07
2.42428e-07
2.18081e-07
2.01008e-07
1.89039e-07
1.80619e-07
1.74677e-07
1.70492e-07
1
0.999998
0.999992
0.999989
0.999996
1
1
1
1
1
1
1
1
1
0.999999
0.999999
0.999998
0.999997
0.999997
0.999771
0.166378
0.000670782
8.77189e-06
3.45344e-06
2.12101e-06
1.61219e-06
1.37987e-06
1.26811e-06
1.21453e-06
1.18903e-06
1.17636e-06
1.16605e-06
1.15011e-06
1.12209e-06
1.07746e-06
1.01496e-06
9.36122e-07
8.45127e-07
7.47766e-07
6.50177e-07
5.57799e-07
4.74669e-07
4.03155e-07
3.44052e-07
2.9687e-07
2.60304e-07
2.32639e-07
2.12088e-07
1.97007e-07
1.86006e-07
1
0.999998
0.999992
0.999992
0.999998
1
1
1
1
1
1
1
1
1
0.999999
0.999998
0.999997
0.999994
0.99992
0.307594
0.0012218
7.90782e-06
3.02875e-06
1.78633e-06
1.35951e-06
1.16424e-06
1.06069e-06
1.00833e-06
9.80201e-07
9.64914e-07
9.56761e-07
9.51948e-07
9.47569e-07
9.40974e-07
9.29476e-07
9.10622e-07
8.82579e-07
8.44517e-07
7.9678e-07
7.40818e-07
6.78939e-07
6.13945e-07
5.48737e-07
4.85962e-07
4.27744e-07
3.75533e-07
3.30061e-07
2.9141e-07
2.59178e-07
2.32722e-07
0.737006
0.427227
0.0638903
0.00977425
0.00189749
0.000143776
1.54598e-05
8.26592e-06
2.22271e-05
4.96761e-05
1.77246e-05
2.6679e-06
2.6874e-06
2.17772e-05
7.23621e-05
0.000112778
6.25351e-05
0.000124178
0.0003508
0.000385161
0.000385108
0.000296161
0.000160602
0.000132548
0.000295818
0.000490597
0.000368497
0.000185969
7.43833e-05
7.44268e-05
0.000148873
0.000453584
0.000683418
0.00025117
6.91941e-05
6.87426e-05
0.000103809
0.000256968
0.000333805
0.000153578
0.000162269
0.000161518
0.000109225
6.13542e-05
6.43465e-05
0.000136044
0.000275585
0.000210543
6.30836e-05
4.46248e-05
0.0172854
0.00523646
0.000677896
5.55604e-05
1.20818e-05
4.08576e-06
4.08707e-06
8.27437e-06
2.8552e-05
4.96995e-05
2.3569e-05
3.01012e-06
1.76451e-06
2.04021e-06
7.33228e-06
1.51666e-05
2.21651e-05
1.39987e-05
2.31277e-05
7.33852e-05
0.000117225
0.000146649
0.000164011
0.000129435
9.06966e-05
0.000138001
0.00022272
0.00030119
0.000155105
7.43836e-05
0.000114617
0.000137978
0.000128946
0.00018117
0.000130682
6.86466e-05
4.94023e-05
0.000112603
0.000144824
5.49717e-05
4.43035e-05
4.91318e-05
6.40321e-05
6.27793e-05
4.47067e-05
1.65307e-05
1.40249e-05
3.89005e-05
4.09932e-05
1.70404e-05
8.86875e-05
7.58544e-05
3.17659e-05
5.11258e-06
3.42638e-06
3.42649e-06
4.23735e-06
1.83031e-05
4.0504e-05
3.53294e-05
1.69107e-05
2.45506e-06
1.0207e-06
1.30027e-06
3.91604e-06
2.47688e-06
2.003e-06
1.24717e-06
1.35504e-06
1.92089e-06
4.80466e-06
1.06565e-05
2.7567e-05
5.18955e-05
4.97621e-05
2.37372e-05
4.16999e-05
9.88266e-05
0.000155138
8.02007e-05
3.8009e-05
5.10222e-05
7.76881e-05
4.82428e-05
5.0215e-05
3.80693e-05
1.89568e-05
3.31944e-05
6.82082e-05
3.97747e-05
2.00778e-05
9.64582e-06
7.00551e-06
1.27248e-05
1.79661e-05
1.16272e-05
4.82567e-06
2.45163e-06
4.32382e-06
5.36854e-06
6.92269e-06
6.9218e-06
7.34073e-06
3.42611e-06
3.42596e-06
3.42661e-06
9.53381e-06
2.61801e-05
4.05021e-05
1.23833e-05
3.16313e-06
8.2847e-07
8.33758e-07
1.39229e-06
3.2446e-06
1.39853e-06
2.47045e-07
1.64484e-07
1.19415e-07
1.16614e-07
1.21341e-07
1.62015e-07
5.71413e-07
3.02315e-06
6.60235e-06
3.342e-06
4.28073e-06
8.59596e-06
4.01834e-05
3.16724e-05
1.07835e-05
9.01689e-06
1.9924e-05
2.33323e-05
1.26307e-05
7.29496e-06
3.07336e-06
5.54012e-06
1.143e-05
1.91458e-05
9.30567e-06
3.3526e-06
1.74616e-06
8.84104e-07
8.88077e-07
1.84266e-06
1.4999e-06
3.91693e-07
1.96536e-07
3.78143e-07
2.2495e-06
1.05066e-05
2.59068e-05
1.9826e-05
3.42638e-06
9.36589e-06
3.04478e-05
4.59672e-05
1.2848e-05
1.19799e-06
7.04039e-07
6.01417e-07
8.00446e-07
1.67552e-06
3.24489e-06
5.25192e-07
2.76651e-07
1.75116e-07
1.2785e-07
1.15712e-07
1.18342e-07
1.21252e-07
1.28187e-07
1.30141e-07
1.76618e-07
1.85298e-07
2.1299e-07
2.76483e-07
2.61175e-06
4.29855e-06
1.40613e-06
4.35609e-07
1.36496e-06
4.07398e-06
2.57257e-06
8.70706e-07
2.13902e-07
4.61653e-07
1.25073e-06
3.8216e-06
1.94943e-06
4.6683e-07
3.74204e-07
2.39277e-07
1.51801e-07
1.36903e-07
1.5824e-07
2.02825e-07
1.51551e-07
1.62902e-07
1.57863e-06
6.03026e-06
2.9784e-05
3.57792e-05
2.85718e-05
8.98425e-06
2.16159e-05
4.59665e-05
2.18121e-05
2.83929e-06
8.11582e-07
5.02821e-07
5.96844e-07
1.27638e-06
2.37365e-06
1.81266e-06
8.99931e-07
2.41443e-07
1.70794e-07
1.3575e-07
1.25833e-07
1.2427e-07
1.3112e-07
1.26356e-07
1.28794e-07
1.32938e-07
1.41086e-07
1.60725e-07
1.26484e-07
1.78421e-07
1.63525e-07
1.33844e-07
1.2583e-07
1.90727e-07
2.08189e-07
2.04554e-07
1.65276e-07
1.52422e-07
1.54871e-07
2.94738e-07
2.39662e-07
1.66028e-07
1.33216e-07
1.77883e-07
1.13802e-07
9.63496e-08
9.06411e-08
1.08068e-07
1.01673e-07
9.63457e-08
1.74673e-06
3.11839e-06
1.68983e-05
2.90196e-05
3.21254e-05
2.72696e-05
3.62427e-05
4.59673e-05
3.48238e-05
5.23573e-06
1.0596e-06
6.18733e-07
5.61339e-07
8.73808e-07
1.77847e-06
4.68922e-06
5.80726e-06
1.68508e-06
3.06405e-07
1.59266e-07
1.35271e-07
1.35019e-07
1.40438e-07
1.3599e-07
1.28433e-07
1.22684e-07
1.20967e-07
1.19843e-07
1.08318e-07
1.10569e-07
1.20158e-07
1.04561e-07
9.80772e-08
1.03136e-07
1.08646e-07
1.45738e-07
1.17033e-07
1.05463e-07
9.90954e-08
1.28926e-07
1.32055e-07
1.09127e-07
9.48635e-08
1.02609e-07
7.45893e-08
6.29267e-08
5.72003e-08
5.92578e-08
6.0274e-08
5.76028e-08
1.22496e-06
1.34647e-06
5.6526e-06
1.31938e-05
2.5861e-05
4.44142e-05
4.59667e-05
4.59665e-05
3.29537e-05
5.07761e-06
1.56186e-06
1.00247e-06
8.13177e-07
7.74912e-07
1.31383e-06
4.91966e-06
6.77925e-06
6.01756e-06
1.64518e-06
6.16355e-07
4.24955e-07
2.69161e-07
1.90732e-07
1.52592e-07
1.39383e-07
1.23507e-07
1.13592e-07
1.06005e-07
9.88001e-08
9.3365e-08
9.31163e-08
8.3457e-08
7.53684e-08
7.23423e-08
7.15615e-08
8.79783e-08
7.7209e-08
6.661e-08
6.06649e-08
6.36857e-08
6.79952e-08
6.26669e-08
5.68848e-08
5.6259e-08
4.65427e-08
4.01181e-08
3.61753e-08
3.46955e-08
3.45992e-08
3.34373e-08
9.53452e-07
9.49853e-07
8.83129e-07
2.41412e-06
8.35805e-06
1.95665e-05
3.05854e-05
4.54124e-05
2.99192e-05
1.22246e-05
6.5376e-06
3.0075e-06
1.75849e-06
1.46514e-06
1.34572e-06
3.09731e-06
5.31028e-06
6.3885e-06
6.37921e-06
1.2385e-05
7.30705e-06
2.69727e-06
1.04492e-06
5.80857e-07
3.62499e-07
2.08134e-07
1.57513e-07
1.21283e-07
9.97606e-08
9.18152e-08
1.09893e-07
6.54884e-08
6.46922e-08
6.24341e-08
5.95469e-08
6.14857e-08
5.64554e-08
4.92908e-08
4.34802e-08
4.01555e-08
3.93366e-08
3.71967e-08
3.45335e-08
3.27247e-08
2.90898e-08
2.58144e-08
2.33127e-08
2.16254e-08
2.06847e-08
1.97609e-08
5.70915e-07
6.25126e-07
6.85855e-07
7.62023e-07
9.58815e-07
2.33293e-06
5.63066e-06
1.18725e-05
1.5146e-05
1.43437e-05
1.28732e-05
1.19523e-05
8.31586e-06
4.37847e-06
2.28912e-06
1.18214e-06
2.46333e-06
4.38568e-06
1.12853e-05
1.3748e-05
1.3749e-05
1.35933e-05
7.7274e-06
2.70523e-06
5.88437e-07
5.09738e-07
1.74454e-06
3.12526e-06
1.72979e-06
5.01446e-07
9.45359e-08
7.0382e-08
6.45722e-08
6.45239e-08
6.37925e-08
6.22992e-08
5.82476e-08
5.25611e-08
4.66486e-08
4.13062e-08
3.70515e-08
3.32782e-08
2.98245e-08
2.68146e-08
2.37849e-08
2.09938e-08
1.86044e-08
1.66526e-08
1.51311e-08
1.38695e-08
3.09856e-07
3.41723e-07
3.8389e-07
4.40893e-07
5.25137e-07
5.59894e-07
6.70353e-07
9.35305e-07
1.63072e-06
3.677e-06
5.57002e-06
8.02441e-06
1.04693e-05
8.99637e-06
3.53362e-06
1.13798e-06
6.45104e-07
1.54536e-06
4.82135e-06
1.18127e-05
1.37486e-05
1.37498e-05
1.37486e-05
1.15514e-05
4.2962e-06
1.1412e-06
1.24729e-06
2.88476e-06
7.56766e-06
9.35063e-06
6.5279e-06
1.93292e-06
3.12449e-07
6.52934e-08
6.79463e-08
7.09335e-08
6.92962e-08
6.57283e-08
6.15224e-08
5.68684e-08
5.17392e-08
4.61653e-08
4.05017e-08
3.51442e-08
3.04877e-08
2.66587e-08
2.34927e-08
2.07853e-08
1.84148e-08
1.63058e-08
2.16559e-07
2.25639e-07
2.3945e-07
2.67258e-07
3.00148e-07
3.40436e-07
3.88833e-07
4.47498e-07
5.6005e-07
7.26588e-07
9.02923e-07
1.18587e-06
3.10021e-06
6.81744e-06
3.24104e-06
7.96407e-07
6.4442e-07
6.44449e-07
8.66548e-07
2.50545e-06
4.63624e-06
6.76364e-06
1.37506e-05
1.37484e-05
1.375e-05
8.12509e-06
2.55174e-06
1.65758e-06
2.387e-06
8.04918e-06
1.65041e-05
1.65077e-05
1.00823e-05
2.89346e-06
5.16001e-07
7.19216e-08
7.42497e-08
7.45998e-08
7.34288e-08
7.0684e-08
6.54581e-08
5.55118e-08
4.86837e-08
4.62072e-08
4.58737e-08
4.55322e-08
4.23158e-08
3.80142e-08
3.35471e-08
2.93616e-08
1.89586e-07
1.91571e-07
3.84328e-07
1.80927e-07
2.19492e-07
2.3706e-07
2.57661e-07
2.82215e-07
3.15232e-07
3.72993e-07
4.30631e-07
4.92492e-07
5.67563e-07
9.9417e-07
1.07517e-06
6.75515e-07
6.44085e-07
6.44029e-07
6.44712e-07
6.45278e-07
6.64005e-07
1.01748e-06
3.02856e-06
1.18895e-05
1.37477e-05
1.32835e-05
5.07019e-06
1.65731e-06
1.65646e-06
2.50496e-06
1.26604e-05
1.65033e-05
1.65076e-05
1.29541e-05
4.03009e-06
4.07764e-07
7.51481e-08
7.60317e-08
7.73098e-08
7.52112e-08
8.3901e-08
9.55172e-07
1.80442e-06
1.03886e-06
2.23591e-07
4.63788e-08
5.2986e-08
5.19674e-08
4.86073e-08
4.47029e-08
2.38903e-07
1.68763e-07
1.77876e-07
1.69634e-07
3.02209e-07
1.76279e-07
2.04012e-07
2.16873e-07
2.33782e-07
2.57726e-07
2.88001e-07
2.88181e-07
6.73814e-07
3.53497e-07
4.39625e-07
4.77942e-07
6.95487e-07
6.89277e-07
6.44749e-07
6.59348e-07
7.54635e-07
1.02801e-06
2.71746e-06
1.19025e-05
9.25413e-06
4.14345e-06
1.66039e-06
1.6564e-06
1.6564e-06
1.92458e-06
1.12761e-05
1.65077e-05
1.39271e-05
5.26408e-06
1.10541e-06
2.0623e-07
1.66893e-07
5.12054e-07
5.15409e-06
2.73743e-05
1.66131e-05
6.3793e-06
1.81355e-06
4.32375e-07
7.03459e-08
6.43372e-08
6.38712e-08
6.28775e-08
6.09469e-08
5.83852e-08
1.68155e-07
1.68406e-07
1.68717e-07
1.68836e-07
1.71886e-07
1.73397e-07
1.78438e-07
1.82769e-07
1.89004e-07
1.99432e-07
2.1753e-07
4.5452e-07
2.21171e-07
2.77228e-07
6.21059e-07
2.79691e-07
4.92294e-07
5.92415e-07
7.23825e-07
8.7444e-07
9.61809e-07
1.18806e-06
1.90736e-06
2.86632e-06
2.64702e-06
3.08629e-06
3.88361e-06
4.47271e-06
4.93236e-06
5.93172e-06
8.66976e-06
1.48377e-05
9.21046e-06
6.18481e-06
9.99325e-06
2.06447e-05
3.19684e-05
3.2016e-05
3.19679e-05
2.94455e-05
1.37718e-05
3.69395e-06
6.41456e-07
8.78831e-08
8.52936e-08
7.39951e-08
7.56179e-08
7.64509e-08
7.62083e-08
7.4939e-08
1.67495e-07
1.67049e-07
1.66921e-07
1.67147e-07
1.68043e-07
1.6944e-07
1.71414e-07
1.73842e-07
1.77201e-07
1.82445e-07
1.90524e-07
2.01962e-07
1.97141e-07
2.14848e-07
2.38154e-07
2.28689e-07
2.80936e-07
3.22808e-07
3.80536e-07
4.58179e-07
5.65502e-07
7.04441e-07
8.88998e-07
1.31799e-06
2.213e-06
3.34994e-06
4.14261e-06
4.49778e-06
4.80515e-06
5.38262e-06
6.11936e-06
7.53736e-06
1.10814e-05
1.98308e-05
2.1985e-05
2.19695e-05
1.76464e-05
1.41784e-05
1.0909e-05
6.58321e-06
2.27296e-06
4.90232e-07
1.21379e-07
1.20497e-07
8.56811e-08
2.05414e-07
1.04332e-07
1.01102e-07
9.76751e-08
9.26594e-08
1.66241e-07
1.65392e-07
1.64993e-07
1.64915e-07
1.65453e-07
1.65922e-07
1.68511e-07
1.66486e-07
1.78892e-07
1.73423e-07
1.80703e-07
1.75051e-07
2.40057e-07
1.79333e-07
1.8197e-07
2.66542e-07
1.94191e-07
2.14577e-07
2.28199e-07
2.45637e-07
2.69863e-07
3.04639e-07
3.67213e-07
5.23168e-07
8.32593e-07
1.16333e-06
1.20952e-06
1.17716e-06
1.16888e-06
1.13963e-06
1.21007e-06
1.8401e-06
3.54761e-06
4.50165e-06
3.46748e-06
2.29827e-06
1.4586e-06
1.02274e-06
6.1537e-07
3.45734e-07
2.8807e-07
3.2234e-07
1.98032e-07
1.75755e-07
2.31711e-07
2.17651e-07
1.50362e-07
1.5056e-07
1.55738e-07
1.66216e-07
1.67589e-07
1.65661e-07
1.64508e-07
1.63983e-07
1.63946e-07
1.6434e-07
1.65305e-07
1.66261e-07
1.66858e-07
1.69647e-07
1.72023e-07
1.73823e-07
1.75039e-07
1.75539e-07
1.82892e-07
1.86068e-07
1.89578e-07
1.93964e-07
1.9426e-07
1.99088e-07
2.01743e-07
2.08611e-07
2.21148e-07
2.41265e-07
2.76641e-07
3.35588e-07
3.99218e-07
4.33183e-07
4.33806e-07
4.19919e-07
3.93785e-07
3.70268e-07
4.00126e-07
3.16243e-07
8.85406e-07
7.0951e-07
3.61098e-07
3.85059e-07
3.48497e-07
3.06498e-07
2.74225e-07
2.63665e-07
2.46648e-07
2.37102e-07
2.31721e-07
2.22032e-07
2.07825e-07
1.87098e-07
4.31933e-07
1.65213e-06
1.78e-07
1.72208e-07
1.6811e-07
1.65374e-07
1.63741e-07
1.63119e-07
1.63136e-07
1.63639e-07
1.64641e-07
1.66351e-07
1.66408e-07
1.69649e-07
1.6408e-07
2.91451e-07
1.64374e-07
1.67413e-07
1.7064e-07
1.6858e-07
3.34196e-07
1.69666e-07
1.70911e-07
1.75679e-07
1.80549e-07
1.85932e-07
1.91252e-07
1.98734e-07
2.2184e-07
2.61802e-07
2.91079e-07
2.98731e-07
2.94344e-07
2.86692e-07
2.85594e-07
2.9243e-07
3.12416e-07
3.31599e-07
3.34799e-07
3.26404e-07
3.07465e-07
2.87279e-07
2.71587e-07
2.62746e-07
2.4693e-07
5.19736e-07
5.38047e-07
3.74668e-07
1.79417e-07
1.788e-07
2.51011e-07
3.13693e-06
2.11406e-07
1.94752e-07
1.8238e-07
1.74105e-07
1.68539e-07
1.63821e-07
1.65776e-07
1.64639e-07
1.63504e-07
1.63453e-07
1.64467e-07
1.64437e-07
1.6404e-07
1.63997e-07
1.63665e-07
1.64859e-07
1.66731e-07
1.68529e-07
1.69325e-07
1.67874e-07
2.39756e-07
1.63498e-07
1.66393e-07
1.69463e-07
1.71501e-07
1.7449e-07
1.81876e-07
1.93976e-07
2.10873e-07
1.56784e-07
4.45099e-07
2.29701e-07
2.29872e-07
2.31759e-07
2.33506e-07
2.33576e-07
2.30974e-07
2.27601e-07
2.22974e-07
2.17159e-07
2.11114e-07
2.06934e-07
2.10817e-07
2.26294e-07
2.31341e-07
2.15598e-07
1.98458e-07
1.82973e-07
1.66648e-07
5.03745e-07
8.32627e-05
3.88019e-05
2.81533e-05
5.01825e-05
0.000106923
0.000122028
5.97496e-05
1.27358e-05
8.86535e-06
4.30984e-05
9.04959e-05
6.31041e-05
1.83982e-05
4.16511e-06
4.93925e-06
1.74446e-05
2.7246e-05
1.17925e-05
9.05722e-06
1.15163e-05
6.87031e-06
1.48242e-06
1.48286e-06
3.78145e-06
5.74881e-06
6.83058e-06
2.58748e-06
5.52113e-07
1.57985e-07
1.76388e-07
1.68398e-07
8.13155e-08
8.14693e-08
7.83773e-08
7.71569e-08
8.18444e-08
9.64737e-08
1.28204e-07
1.01866e-07
8.67847e-08
8.55119e-08
8.64927e-08
8.76611e-08
8.88206e-08
8.98948e-08
8.92465e-08
8.75843e-08
8.63389e-08
8.5277e-08
8.43121e-08
8.337e-08
8.22474e-08
8.05947e-08
7.8902e-08
7.72727e-08
7.56927e-08
7.42727e-08
7.29431e-08
7.17479e-08
7.07974e-08
7.02831e-08
7.06201e-08
7.12994e-08
1.13556e-07
3.91308e-07
4.75176e-07
3.96868e-07
8.74636e-08
7.30885e-08
7.72463e-08
8.84862e-08
2.29145e-07
2.52599e-07
5.77257e-08
5.76778e-08
5.66692e-08
5.54335e-08
5.42599e-08
5.31565e-08
5.2124e-08
5.11637e-08
5.0274e-08
4.94471e-08
4.86695e-08
4.79326e-08
4.72427e-08
4.66344e-08
4.61414e-08
4.57381e-08
4.53401e-08
4.4839e-08
4.42959e-08
4.38628e-08
4.33215e-08
4.26399e-08
4.19353e-08
4.12946e-08
4.07928e-08
4.03752e-08
3.99726e-08
3.9756e-08
3.96218e-08
3.92768e-08
3.87708e-08
3.83947e-08
3.81907e-08
3.78136e-08
3.75107e-08
3.73081e-08
3.70892e-08
3.68928e-08
3.65788e-08
3.62676e-08
3.59864e-08
3.57511e-08
3.55751e-08
3.54479e-08
3.53605e-08
3.52744e-08
3.50626e-08
3.48637e-08
3.49297e-08
3.52197e-08
3.46072e-08
3.43403e-08
3.50195e-08
3.52699e-08
3.50185e-08
3.45314e-08
3.64322e-08
3.58515e-08
3.74415e-08
3.79524e-08
3.95281e-08
3.81167e-08
3.63102e-08
3.52704e-08
3.54068e-08
3.73092e-08
3.67099e-08
3.5654e-08
3.55217e-08
3.55105e-08
3.58329e-08
3.6377e-08
3.70861e-08
3.72282e-08
3.67609e-08
3.74e-08
3.53641e-08
3.47761e-08
3.64733e-08
3.84477e-08
4.18999e-08
4.72619e-08
4.88373e-08
4.68164e-08
4.23585e-08
3.53823e-08
3.05786e-08
3.01059e-08
3.12594e-08
3.277e-08
3.25078e-08
3.23854e-08
3.2364e-08
3.18969e-08
3.09477e-08
3.02296e-08
2.99534e-08
2.99273e-08
2.97265e-08
2.89935e-08
2.77482e-08
2.6546e-08
2.57662e-08
2.53663e-08
2.5214e-08
2.51759e-08
2.51199e-08
2.49454e-08
2.45974e-08
2.41114e-08
2.36308e-08
2.32531e-08
2.29406e-08
2.26375e-08
2.24162e-08
2.24237e-08
2.27545e-08
2.33016e-08
2.27764e-08
2.23257e-08
2.21157e-08
2.16802e-08
2.13165e-08
2.11537e-08
2.0997e-08
2.19083e-08
2.02881e-08
1.98649e-08
2.00828e-08
2.01295e-08
1.98189e-08
1.92657e-08
1.8887e-08
1.82089e-08
1.74068e-08
1.65198e-08
1.58697e-08
1.5469e-08
1.51135e-08
1.4782e-08
1.4463e-08
1.4104e-08
1.37325e-08
1.33487e-08
1.2994e-08
1.26499e-08
1.23144e-08
1.19877e-08
1.16721e-08
1.13684e-08
1.10783e-08
1.08032e-08
1.05456e-08
1.0307e-08
1.0089e-08
9.89273e-09
9.7198e-09
9.57125e-09
9.44784e-09
9.34976e-09
9.27742e-09
9.23053e-09
9.20855e-09
9.21012e-09
9.23358e-09
9.27642e-09
9.33565e-09
9.40733e-09
9.48672e-09
9.56769e-09
9.64434e-09
9.70888e-09
9.75346e-09
9.76978e-09
9.74925e-09
9.68343e-09
9.5643e-09
9.38486e-09
9.13962e-09
8.82503e-09
8.44008e-09
7.98666e-09
7.46981e-09
6.89778e-09
6.28165e-09
5.63516e-09
4.97425e-09
4.31639e-09
3.67786e-09
3.07334e-09
2.5157e-09
2.01489e-09
1.57703e-09
1.20509e-09
8.97963e-10
6.51563e-10
4.59857e-10
3.15232e-10
2.0965e-10
1.35085e-10
8.42238e-11
5.07369e-11
2.94899e-11
1.65165e-11
8.90102e-12
4.60897e-12
2.2899e-12
1.09019e-12
4.96333e-13
2.15675e-13
8.92295e-14
3.50611e-14
1.30475e-14
4.584e-15
1.5153e-15
4.69198e-16
1.35323e-16
3.61163e-17
8.84641e-18
1.96722e-18
3.91603e-19
6.84546e-20
1.02278e-20
1.25458e-21
1.18377e-22
7.62621e-24
2.51288e-25
1.55109e-05
2.71446e-05
1.98943e-05
1.05597e-05
4.61212e-06
6.3752e-06
1.00942e-05
7.69345e-06
2.08815e-06
7.09877e-07
3.98039e-06
1.02608e-05
1.21244e-05
2.63023e-06
9.96414e-07
1.73167e-06
3.63561e-06
6.617e-07
3.06231e-07
9.60855e-07
1.34224e-06
7.37058e-07
2.24787e-07
1.14156e-07
1.22468e-07
2.49704e-07
3.27375e-07
1.53282e-07
9.48555e-08
7.97281e-08
7.07195e-08
7.02738e-08
7.03562e-08
7.13612e-08
7.28536e-08
7.47396e-08
7.69047e-08
7.95035e-08
8.12667e-08
8.2506e-08
8.398e-08
8.54403e-08
8.66917e-08
8.77567e-08
8.86351e-08
8.91811e-08
8.93171e-08
8.92712e-08
8.91081e-08
8.88038e-08
8.83124e-08
8.76064e-08
8.6672e-08
8.55196e-08
8.41606e-08
8.25997e-08
8.08236e-08
7.87812e-08
7.64617e-08
7.39777e-08
7.17701e-08
7.09651e-08
9.24891e-08
7.42691e-08
9.58918e-08
3.8173e-07
5.20298e-07
3.91674e-07
8.43749e-08
9.61852e-08
1.15118e-07
2.98122e-07
3.29901e-07
5.79301e-08
6.21102e-08
5.92655e-08
5.72983e-08
5.5535e-08
5.39666e-08
5.25905e-08
5.13599e-08
5.02386e-08
4.92018e-08
4.82336e-08
4.73236e-08
4.64656e-08
4.56565e-08
4.48951e-08
4.41792e-08
4.35041e-08
4.28621e-08
4.22503e-08
4.16715e-08
4.11129e-08
4.05663e-08
4.00361e-08
3.95322e-08
3.9059e-08
3.86115e-08
3.81861e-08
3.77899e-08
3.74159e-08
3.70445e-08
3.66764e-08
3.63343e-08
3.60143e-08
3.56953e-08
3.53954e-08
3.51136e-08
3.48414e-08
3.45784e-08
3.43154e-08
3.40616e-08
3.38199e-08
3.35905e-08
3.33725e-08
3.31638e-08
3.29606e-08
3.27607e-08
3.25626e-08
3.23731e-08
3.2202e-08
3.20517e-08
3.18866e-08
3.17442e-08
3.1624e-08
3.15073e-08
3.14256e-08
3.13359e-08
3.13548e-08
3.13043e-08
3.13725e-08
3.13239e-08
3.13644e-08
3.12561e-08
3.11132e-08
3.10102e-08
3.09998e-08
3.10828e-08
3.09936e-08
3.08966e-08
3.08752e-08
3.08652e-08
3.08807e-08
3.09084e-08
3.09246e-08
3.08817e-08
3.07552e-08
3.05893e-08
3.03261e-08
3.02101e-08
3.03153e-08
3.05034e-08
3.08172e-08
3.11694e-08
3.11699e-08
3.07805e-08
3.01345e-08
2.93036e-08
2.8734e-08
2.85682e-08
2.85652e-08
2.85886e-08
2.8565e-08
2.84929e-08
2.83611e-08
2.81534e-08
2.79028e-08
2.76685e-08
2.74742e-08
2.72963e-08
2.70948e-08
2.68435e-08
2.65568e-08
2.62931e-08
2.60862e-08
2.59215e-08
2.57771e-08
2.56373e-08
2.54903e-08
2.53235e-08
2.51205e-08
2.48653e-08
2.45485e-08
2.41669e-08
2.3726e-08
2.32423e-08
2.27444e-08
2.22659e-08
2.18323e-08
2.14481e-08
2.10777e-08
2.07333e-08
2.04299e-08
2.01422e-08
1.98553e-08
1.95564e-08
1.92308e-08
1.89232e-08
1.85103e-08
1.8123e-08
1.77565e-08
1.73936e-08
1.70204e-08
1.66367e-08
1.62529e-08
1.58455e-08
1.54277e-08
1.50069e-08
1.45956e-08
1.41898e-08
1.37842e-08
1.33783e-08
1.29733e-08
1.25693e-08
1.21679e-08
1.17696e-08
1.13767e-08
1.09905e-08
1.06122e-08
1.02434e-08
9.8856e-09
9.54032e-09
9.20911e-09
8.8935e-09
8.59501e-09
8.31501e-09
8.05478e-09
7.81542e-09
7.59789e-09
7.40289e-09
7.23084e-09
7.08183e-09
6.95563e-09
6.85157e-09
6.76854e-09
6.7049e-09
6.65851e-09
6.62665e-09
6.60602e-09
6.59273e-09
6.58232e-09
6.56985e-09
6.54997e-09
6.51705e-09
6.46538e-09
6.38935e-09
6.28374e-09
6.14399e-09
5.96651e-09
5.74898e-09
5.49067e-09
5.1926e-09
4.85771e-09
4.49083e-09
4.0986e-09
3.68912e-09
3.27159e-09
2.85573e-09
2.45119e-09
2.0669e-09
1.71064e-09
1.38879e-09
1.10508e-09
8.61096e-10
6.56549e-10
4.89458e-10
3.56558e-10
2.53624e-10
1.76004e-10
1.19083e-10
7.84926e-11
5.0373e-11
3.14518e-11
1.90931e-11
1.12601e-11
6.44578e-12
3.57852e-12
1.92465e-12
1.00162e-12
5.03683e-13
2.44332e-13
1.14101e-13
5.1179e-14
2.19897e-14
9.02265e-15
3.52255e-15
1.30294e-15
4.5427e-16
1.48345e-16
4.50187e-17
1.2573e-17
3.19221e-18
7.2535e-19
1.44501e-19
2.45359e-20
3.40655e-21
3.61873e-22
2.60686e-23
9.53638e-25
4.25118e-06
4.21704e-06
4.35508e-06
3.28325e-06
2.93293e-06
1.91586e-06
5.92477e-07
4.67613e-07
4.06841e-07
2.47188e-07
1.63902e-07
1.95746e-07
4.37253e-07
3.64229e-07
2.37331e-07
2.53329e-07
2.00522e-07
1.57534e-07
1.22996e-07
8.36685e-08
6.84848e-08
7.32538e-08
6.91292e-08
6.10837e-08
5.59835e-08
5.4538e-08
5.18555e-08
5.62706e-08
5.4917e-08
5.43578e-08
5.51175e-08
5.69872e-08
5.93246e-08
6.18603e-08
6.45862e-08
6.74143e-08
7.02518e-08
7.30568e-08
7.58011e-08
7.84323e-08
8.09178e-08
8.32056e-08
8.52485e-08
8.70361e-08
8.85728e-08
8.98466e-08
9.08402e-08
9.159e-08
9.2129e-08
9.2477e-08
9.26477e-08
9.26503e-08
9.24871e-08
9.2155e-08
9.16468e-08
9.09525e-08
9.00536e-08
8.89215e-08
8.7538e-08
8.59601e-08
8.44793e-08
8.38357e-08
8.52105e-08
8.50574e-08
1.01548e-07
1.77678e-07
5.19614e-07
4.78342e-07
1.34127e-07
1.14363e-07
1.30478e-07
2.0835e-07
3.36889e-07
8.33761e-08
9.0365e-08
7.30853e-08
6.47422e-08
5.99258e-08
5.67513e-08
5.44307e-08
5.25964e-08
5.10612e-08
4.97202e-08
4.85103e-08
4.73935e-08
4.63484e-08
4.53636e-08