/*--------------------------------*- C++ -*----------------------------------*\
| =========                 |                                                 |
| \\      /  F ield         | OpenFOAM: The Open Source CFD Toolbox           |
|  \\    /   O peration     | Version:  2.4.0                                 |
|   \\  /    A nd           | Web:      www.OpenFOAM.org                      |
|    \\/     M anipulation  |                                                 |
\*---------------------------------------------------------------------------*/
FoamFile
{
    version     2.0;
    format      ascii;
    class       volScalarField;
    location    "5";
    object      H;
}
// * * * * * * * * * * * * * * * * * * * * * * * * * * * * * * * * * * * * * //

dimensions      [0 2 -2 0 0 0 0];

internalField   nonuniform List<scalar> 
8000
(
-12039.8
-11659.6
-11279.8
-10900.8
-10522.6
-10145.4
-9769.02
-9393.56
-9018.98
-8645.42
-8273.15
-7902.57
-7534.3
-7169.07
-6807.76
-6451.33
-6100.83
-5757.29
-5421.75
-5095.2
-4778.51
-4472.48
-4177.76
-3894.86
-3624.15
-3365.84
-3120.02
-2886.6
-2665.39
-2456.05
-2258.16
-2071.19
-1894.55
-1727.58
-1569.61
-1419.95
-1277.91
-1142.83
-1014.01
-890.936
-773.313
-660.225
-550.056
-443.488
-344.516
-247.321
-136.824
-35.2589
-0.0520261
-1.32732
-12030.2
-11629.9
-11228
-10824
-10417.6
-10008.6
-9597.37
-9184.19
-8769.76
-8354.99
-7941.01
-7529.14
-7120.82
-6717.61
-6321.1
-5932.85
-5554.37
-5187.02
-4832.05
-4490.5
-4163.2
-3850.79
-3553.66
-3272.03
-3005.89
-2755.03
-2519.09
-2297.55
-2089.73
-1894.86
-1712.06
-1540.43
-1379.01
-1226.9
-1083.23
-947.16
-818.094
-695.488
-577.577
-464.352
-360.441
-260.098
-146.04
-25.8608
-0.0374524
-0.00184548
-0.00111654
-0.000347719
-0.027675
-0.0727487
-12011.5
-11573.3
-11132.7
-10688.8
-10241.2
-9790.18
-9336.34
-8880.73
-8424.73
-7969.99
-7518.37
-7071.87
-6632.55
-6202.41
-5783.38
-5377.23
-4985.51
-4609.52
-4250.29
-3908.58
-3584.83
-3279.25
-2991.75
-2722.03
-2469.56
-2233.62
-2013.3
-1807.58
-1615.27
-1435.13
-1265.86
-1106.21
-955.056
-811.435
-674.683
-543.317
-418.448
-304.717
-181.819
-48.6442
-0.0702582
-0.00197411
-0.00116236
-0.00024548
-0.00218914
-0.0069115
-0.0158004
-0.0272602
-0.0393996
-0.0518972
-11987.8
-11502.6
-11015.1
-10525
-10032.2
-9537.49
-9042.05
-8547.47
-8055.71
-7568.93
-7089.41
-6619.46
-6161.33
-5717.09
-5288.58
-4877.37
-4484.7
-4111.48
-3758.27
-3425.3
-3112.48
-2819.45
-2545.58
-2290.03
-2051.76
-1829.51
-1621.89
-1427.32
-1244.09
-1070.45
-904.66
-745.299
-591.502
-442.398
-301.918
-148.297
-0.212649
-0.00246373
-0.00140569
-0.000445714
-0.00161749
-0.00385121
-0.00826333
-0.01426
-0.0208798
-0.0268254
-0.0336459
-0.0412216
-0.0488326
-0.0564352
-11963.7
-11430.5
-10896.5
-10361.8
-9827.16
-9293.74
-8763.23
-8237.65
-7719.24
-7210.34
-6713.34
-6230.48
-5763.85
-5315.24
-4886.13
-4477.61
-4090.41
-3724.88
-3381
-3058.43
-2756.54
-2474.45
-2211.04
-1965.02
-1734.89
-1518.95
-1315.26
-1121.61
-935.577
-754.509
-575.92
-398.419
-222.083
-31.3954
-0.0446751
-0.00126142
-7.66228e-06
-0.00266203
-0.00611201
-0.010921
-0.0160368
-0.0210883
-0.0259444
-0.031753
-0.0375051
-0.0429368
-0.0480426
-0.0528118
-0.0573677
-0.0617507
-11942.1
-11366.3
-10791.4
-10218.3
-9648.31
-9083.17
-8524.9
-7975.73
-7437.99
-6914.05
-6406.12
-5916.23
-5446.1
-4997.1
-4570.19
-4165.91
-3784.41
-3425.47
-3088.49
-2772.64
-2476.81
-2199.69
-1939.83
-1695.56
-1465.02
-1246.01
-1035.93
-831.642
-629.187
-422.883
-207.228
-0.249108
-0.00203021
-0.000325163
-0.00472061
-0.0101395
-0.0170374
-0.0233057
-0.0288458
-0.0347359
-0.0406942
-0.0460785
-0.050761
-0.054775
-0.0582807
-0.0613924
-0.0641028
-0.0664667
-0.0685447
-0.0703925
-11923.9
-11312.5
-10703.3
-10098
-9498.55
-8907.1
-8325.96
-7757.54
-7204.24
-6668.36
-6151.93
-5656.67
-5183.87
-4734.41
-4308.71
-3906.73
-3528.05
-3171.87
-2837.13
-2522.55
-2226.66
-1947.86
-1684.44
-1434.49
-1195.83
-965.691
-740.687
-516.417
-284.837
-23.962
-0.0314431
-0.00311115
-0.0106562
-0.0233887
-0.0340665
-0.0444604
-0.0548888
-0.0647355
-0.0732896
-0.0802813
-0.0856488
-0.0897534
-0.0927659
-0.0948243
-0.0960639
-0.0965835
-0.0964595
-0.0957275
-0.0945309
-0.0929994
-11910.6
-11272.9
-10638.2
-10008.7
-9386.97
-8775.48
-8176.87
-7593.75
-7028.57
-6483.53
-5960.43
-5460.61
-4984.94
-4533.76
-4106.93
-3703.87
-3323.61
-2964.93
-2626.39
-2306.44
-2003.39
-1715.48
-1440.73
-1177.13
-922.824
-674.913
-430.659
-189.894
-0.215213
-0.000683303
-0.0219621
-0.0448128
-0.0625363
-0.081386
-0.0990114
-0.114349
-0.126931
-0.136716
-0.144024
-0.14922
-0.152507
-0.154034
-0.153958
-0.152473
-0.149792
-0.146129
-0.141691
-0.136639
-0.131201
-0.125542
-11902.8
-11249.5
-10599.8
-9956.23
-9321.61
-8698.81
-8090.66
-7499.82
-6928.63
-6379.06
-5852.56
-5350.03
-4871.81
-4417.73
-3987.13
-3578.99
-3191.99
-2824.64
-2475.38
-2142.62
-1824.79
-1520.29
-1227.44
-944.689
-671.286
-407.578
-150.448
-0.189291
-0.200629
-0.175573
-0.160239
-0.16432
-0.173001
-0.183249
-0.193839
-0.203669
-0.21238
-0.219511
-0.224633
-0.227522
-0.228164
-0.226696
-0.223354
-0.218418
-0.212176
-0.204899
-0.196836
-0.188208
-0.179212
-0.170023
-11900.4
-11242.6
-10588.8
-9941.72
-9304.49
-8680.01
-8071.08
-7480.17
-6909.35
-6360.15
-5833.58
-5330.02
-4849.34
-4390.91
-3953.73
-3536.52
-3137.83
-2756.19
-2390.12
-2038.25
-1699.22
-1371.68
-1054.39
-747.197
-452.543
-171.905
-0.226166
-0.255656
-0.223886
-0.227807
-0.240138
-0.252312
-0.263658
-0.274245
-0.283952
-0.292314
-0.298829
-0.303143
-0.305084
-0.304651
-0.301977
-0.297286
-0.290854
-0.282971
-0.273926
-0.263983
-0.253381
-0.242326
-0.230992
-0.219528
-11903.5
-11251.9
-10604.5
-9964.12
-9333.79
-8716.31
-8114.18
-7529.54
-6964.03
-6418.7
-5894.08
-5390.13
-4906.33
-4441.79
-3995.36
-3565.71
-3151.49
-2751.41
-2364.29
-1989.08
-1624.74
-1270.07
-923.718
-585.877
-264.102
-0.308932
-0.323139
-0.26888
-0.264002
-0.275983
-0.290035
-0.304749
-0.319411
-0.333143
-0.345095
-0.3546
-0.361229
-0.364801
-0.365355
-0.363091
-0.35832
-0.351412
-0.342754
-0.332722
-0.321661
-0.309878
-0.297632
-0.285138
-0.272566
-0.260047
-11910.1
-11271.6
-10637.3
-10010.1
-9392.46
-8787.07
-8195.97
-7620.83
-7062.81
-6522.48
-5999.93
-5494.79
-5006.3
-4533.45
-4075.06
-3629.95
-3196.99
-2775.19
-2363.75
-1962.08
-1569.85
-1186.77
-810.45
-427.274
-0.454714
-0.00104852
-0.082775
-0.164657
-0.235369
-0.289613
-0.33021
-0.360823
-0.384048
-0.401427
-0.41384
-0.42183
-0.425807
-0.42615
-0.423253
-0.417532
-0.409418
-0.399341
-0.387715
-0.374925
-0.361318
-0.347196
-0.332819
-0.3184
-0.304113
-0.290092
-11918.3
-11296.3
-10678.2
-10066.6
-9463.84
-8871.94
-8292.55
-7726.82
-7175.43
-6638.53
-6115.87
-5606.81
-5110.49
-4625.88
-4151.94
-3687.69
-3232.33
-2785.25
-2345.97
-1914.13
-1489.45
-1072.81
-669.051
-289.468
-0.375569
-0.400252
-0.347587
-0.364985
-0.388474
-0.41037
-0.430869
-0.449478
-0.465465
-0.478189
-0.487206
-0.492292
-0.493439
-0.490822
-0.484758
-0.475661
-0.464
-0.450262
-0.434929
-0.41845
-0.401233
-0.383635
-0.365962
-0.348461
-0.33133
-0.314711
-11927.1
-11322.4
-10721.1
-10125.4
-9537.15
-8957.84
-8388.62
-7830.13
-7282.64
-6745.92
-6219.49
-5702.56
-5194.26
-4693.68
-4199.99
-3712.53
-3230.92
-2755.08
-2285.19
-1821.21
-1361.46
-901.168
-438.068
-0.482561
-0.431243
-0.349094
-0.344851
-0.369982
-0.402544
-0.43788
-0.472557
-0.503904
-0.53005
-0.54989
-0.562999
-0.569481
-0.569815
-0.564709
-0.55498
-0.541469
-0.524989
-0.506288
-0.486031
-0.464796
-0.443075
-0.421274
-0.39972
-0.378671
-0.358324
-0.338818
-11935.5
-11347.3
-10761.7
-10180.4
-9604.56
-9035.23
-8473
-7918.06
-7370.27
-6829.17
-6294.1
-5764.28
-5238.91
-4717.32
-4198.98
-3683.61
-3171.19
-2662.17
-2157.81
-1660.63
-1173.49
-694.293
-199.604
-0.381687
-0.402499
-0.423559
-0.477808
-0.524039
-0.562469
-0.594704
-0.621263
-0.642099
-0.657031
-0.665979
-0.669043
-0.66652
-0.65888
-0.646718
-0.630706
-0.611548
-0.589938
-0.566531
-0.541924
-0.516644
-0.491145
-0.465806
-0.440935
-0.416777
-0.393517
-0.371291
-11942.7
-11368.6
-10796.1
-10226.1
-9659.28
-9095.99
-8536.34
-7980.14
-7426.92
-6876.08
-6326.9
-5778.71
-5230.96
-4683.28
-4135.57
-3587.87
-3040.36
-2493.59
-1949.4
-1412.9
-894.063
-404.376
-0.576457
-0.582511
-0.531785
-0.572475
-0.612509
-0.648248
-0.679852
-0.707014
-0.729225
-0.746001
-0.757007
-0.762111
-0.761406
-0.755188
-0.743926
-0.728208
-0.708692
-0.686066
-0.661007
-0.63416
-0.606116
-0.577406
-0.548492
-0.519772
-0.491574
-0.464166
-0.437759
-0.41251
-11948
-11384.2
-10820.7
-10257.7
-9695.1
-9132.81
-8570.42
-8007.41
-7443.1
-6876.82
-6307.95
-5736.04
-5160.89
-4582.65
-4001.67
-3418.33
-2832.64
-2244.18
-1654
-1069.82
-512.981
-0.626224
-0.658335
-0.580995
-0.629616
-0.678974
-0.723904
-0.764468
-0.800328
-0.830863
-0.855404
-0.873405
-0.884544
-0.888758
-0.886239
-0.877401
-0.862824
-0.843204
-0.819299
-0.791887
-0.761735
-0.729574
-0.696081
-0.661869
-0.627476
-0.593369
-0.559938
-0.527501
-0.496308
-0.466546
-11950.9
-11392.2
-10832.5
-10271.1
-9707.29
-9140.4
-8569.59
-7994.09
-7413.1
-6825.99
-6232.33
-5632.02
-5025.35
-4413.12
-3796.45
-3176.19
-2551.71
-1919.58
-1275.19
-623.497
-0.695401
-0.752999
-0.640964
-0.695047
-0.753505
-0.809676
-0.863329
-0.913467
-0.958647
-0.997358
-1.0283
-1.05055
-1.06365
-1.06759
-1.06276
-1.04984
-1.02972
-1.00343
-0.972029
-0.936575
-0.898077
-0.857465
-0.81557
-0.773181
-0.730952
-0.689395
-0.648931
-0.609895
-0.572542
-0.537055
-11950.6
-11390.9
-10828.7
-10262.7
-9691.59
-9114.02
-8528.91
-7935.24
-7332.22
-6719.31
-6096.34
-5463.59
-4822
-4173.23
-3519.68
-2863.83
-2206.04
-1539.08
-835.291
-18.3804
-0.0713929
-0.296112
-0.537392
-0.730014
-0.881562
-1.0014
-1.09653
-1.17161
-1.22957
-1.2723
-1.30111
-1.31705
-1.32113
-1.3144
-1.29797
-1.27311
-1.24109
-1.20316
-1.16054
-1.11435
-1.06565
-1.01538
-0.96436
-0.913323
-0.862873
-0.813514
-0.765649
-0.719597
-0.675595
-0.633813
-11946.7
-11378.8
-10807.2
-10229.9
-9644.72
-9050.19
-8444.86
-7827.61
-7197.67
-6554.66
-5898.65
-5230.29
-4551.1
-3863.75
-3172.38
-2482.44
-1799.23
-1123.84
-444.977
-1.06101
-0.923542
-1.01907
-1.1191
-1.20964
-1.29255
-1.36708
-1.43199
-1.48619
-1.52889
-1.5596
-1.57817
-1.58478
-1.58004
-1.5648
-1.54011
-1.50713
-1.46709
-1.42125
-1.37083
-1.31695
-1.26068
-1.20294
-1.14456
-1.08625
-1.02861
-0.972132
-0.917233
-0.86423
-0.813376
-0.764857
-1.68521
-1.7088
-1.54015
-1.2073
-0.938018
-0.731567
-0.545407
-0.379936
-0.252669
-0.16605
-0.110283
-0.0746665
-0.0518394
-0.0369451
-0.0268912
-0.0198954
-0.0148797
-0.0112451
-0.00860017
-0.0066908
-0.00529647
-0.00429607
-0.00358458
-0.00309056
-0.00275365
-0.00252515
-0.00236553
-0.00225638
-0.00218525
-0.00214552
-0.00212767
-0.00212991
-0.00214732
-0.00217261
-0.00222111
-0.00228916
-0.00236933
-0.00246322
-0.0025666
-0.00267935
-0.00280932
-0.00295406
-0.00311278
-0.00328576
-0.00347244
-0.00367003
-0.00388552
-0.00411611
-0.00436769
-0.00464858
-0.124592
-0.164396
-0.195863
-0.236263
-0.282859
-0.309319
-0.310917
-0.288247
-0.249829
-0.207692
-0.168427
-0.134336
-0.105707
-0.0826195
-0.0650171
-0.0512844
-0.0404511
-0.0318545
-0.0249964
-0.0195101
-0.0151816
-0.0117863
-0.00917862
-0.00719794
-0.00571413
-0.00462896
-0.00384342
-0.00327652
-0.00285289
-0.00254515
-0.00232009
-0.00214747
-0.00201433
-0.0019153
-0.00184104
-0.00179042
-0.00176131
-0.00175214
-0.00176007
-0.00178418
-0.00182739
-0.00188605
-0.00196187
-0.00205553
-0.00216807
-0.00229948
-0.00245147
-0.00262526
-0.00282347
-0.00305094
-0.0673196
-0.0850029
-0.10408
-0.125018
-0.147577
-0.166913
-0.179136
-0.18263
-0.177771
-0.166676
-0.15167
-0.134627
-0.117245
-0.100381
-0.0847596
-0.0706669
-0.0582267
-0.047454
-0.0382821
-0.0305829
-0.0242168
-0.0190385
-0.0148983
-0.0116482
-0.00913756
-0.00722924
-0.00580086
-0.00473642
-0.00394396
-0.00334416
-0.00289171
-0.00254488
-0.0022715
-0.00205083
-0.00187242
-0.00172716
-0.00160999
-0.0015181
-0.00144951
-0.00140263
-0.00137803
-0.00137462
-0.00139191
-0.0014301
-0.00149015
-0.00157309
-0.00168
-0.00181217
-0.00197209
-0.00216331
-0.0641109
-0.0719362
-0.0799131
-0.0880018
-0.0960263
-0.103334
-0.109125
-0.112704
-0.113659
-0.111921
-0.107777
-0.10149
-0.0935021
-0.0842622
-0.074322
-0.0642242
-0.054455
-0.0453843
-0.0372551
-0.0301881
-0.0242051
-0.019257
-0.0152498
-0.0120656
-0.00957689
-0.00765808
-0.00619429
-0.00508052
-0.00423224
-0.00357816
-0.00306914
-0.00266706
-0.00234251
-0.00207532
-0.00185286
-0.00166718
-0.0015128
-0.0013863
-0.00128563
-0.00120969
-0.00115759
-0.0011287
-0.00112231
-0.00113803
-0.00117601
-0.00123677
-0.00132104
-0.00142971
-0.00156411
-0.00172592
-0.0659403
-0.0699009
-0.0735722
-0.0768486
-0.0796556
-0.081943
-0.0835306
-0.0842148
-0.0838091
-0.0823521
-0.0797727
-0.0759924
-0.071044
-0.0650781
-0.0583582
-0.0512123
-0.044032
-0.0371498
-0.0308246
-0.0252243
-0.0204252
-0.0164264
-0.0131718
-0.0105732
-0.00852903
-0.00693733
-0.0057039
-0.00474683
-0.00399932
-0.00340844
-0.00293449
-0.00254829
-0.00222832
-0.00195986
-0.00173317
-0.001542
-0.00138208
-0.00125044
-0.00114511
-0.00106479
-0.00100834
-0.000974787
-0.000963249
-0.000973047
-0.00100383
-0.00105557
-0.00112853
-0.00122323
-0.00134049
-0.00148121
-0.0720388
-0.073501
-0.0747924
-0.0758184
-0.0765201
-0.0768217
-0.0766993
-0.076014
-0.0745994
-0.0724927
-0.0696633
-0.066051
-0.0616678
-0.0565961
-0.0509865
-0.04506
-0.0390792
-0.0332943
-0.0279163
-0.0230934
-0.0189071
-0.0153763
-0.01247
-0.0101241
-0.00825727
-0.00678459
-0.00562609
-0.00471201
-0.00398491
-0.00339965
-0.00292207
-0.00252699
-0.00219613
-0.00191671
-0.00168
-0.00148007
-0.00131271
-0.00117487
-0.00106424
-0.00097901
-0.000917658
-0.000878848
-0.000861407
-0.000864368
-0.000887017
-0.000928918
-0.000989918
-0.00107015
-0.00116996
-0.00128966
-0.0912472
-0.0893748
-0.0874725
-0.0855396
-0.0835465
-0.0814561
-0.0792524
-0.0768467
-0.0741254
-0.0710306
-0.0675692
-0.0636656
-0.0593057
-0.0545253
-0.0494107
-0.0440954
-0.0387422
-0.0335253
-0.0286103
-0.024119
-0.0201303
-0.0166788
-0.0137593
-0.0113362
-0.00935443
-0.00774946
-0.00645612
-0.0054141
-0.00457111
-0.00388405
-0.00331882
-0.00284928
-0.00245579
-0.00212391
-0.00184315
-0.00160594
-0.00140671
-0.00124126
-0.00110629
-0.000999179
-0.000917701
-0.000859968
-0.000824349
-0.000809456
-0.000814158
-0.000837587
-0.000879139
-0.000938446
-0.00101529
-0.00110934
-0.119811
-0.114134
-0.108616
-0.103314
-0.098254
-0.0934293
-0.0887663
-0.0842394
-0.0797568
-0.0752436
-0.0706937
-0.0660332
-0.0612633
-0.0563753
-0.0513905
-0.0463624
-0.0413637
-0.0364877
-0.0318323
-0.0274927
-0.0235372
-0.0200085
-0.0169198
-0.0142601
-0.0120008
-0.0101015
-0.00851632
-0.0071986
-0.00610421
-0.00519385
-0.00443388
-0.00379653
-0.00325944
-0.002805
-0.00241946
-0.00209218
-0.00181492
-0.00158124
-0.00138604
-0.00122518
-0.00109525
-0.000993382
-0.000917128
-0.000864411
-0.000833469
-0.000822837
-0.000831312
-0.00085791
-0.000901755
-0.000961856
-0.16079
-0.151644
-0.142692
-0.134027
-0.125713
-0.117779
-0.110199
-0.102946
-0.0959164
-0.0891302
-0.0825896
-0.076245
-0.070101
-0.0642081
-0.0585442
-0.0531
-0.0478743
-0.0428787
-0.0381401
-0.0337004
-0.0295869
-0.0258305
-0.0224459
-0.0194321
-0.0167763
-0.0144568
-0.0124457
-0.0107116
-0.00922233
-0.00794612
-0.00685321
-0.00591682
-0.00511363
-0.00442372
-0.00383043
-0.00331992
-0.00288081
-0.00250372
-0.00218095
-0.00190611
-0.00167386
-0.00147968
-0.00131975
-0.00119078
-0.00108995
-0.00101485
-0.000963395
-0.000933777
-0.000924363
-0.000933518
-0.208053
-0.196668
-0.185457
-0.174486
-0.163805
-0.15345
-0.143434
-0.133754
-0.124371
-0.11529
-0.106523
-0.0980707
-0.0899011
-0.0821911
-0.0749484
-0.0681659
-0.0618279
-0.055911
-0.0504031
-0.0452828
-0.0405442
-0.0361784
-0.032173
-0.0285245
-0.0252244
-0.0222583
-0.0196076
-0.0172505
-0.0151625
-0.0133194
-0.0116968
-0.0102704
-0.00901732
-0.00791668
-0.00694985
-0.0061005
-0.00535448
-0.00469958
-0.00412531
-0.00362266
-0.00318386
-0.00280221
-0.00247189
-0.00218787
-0.00194572
-0.00174159
-0.00157211
-0.00143437
-0.0013259
-0.00124479
-0.247679
-0.23553
-0.223644
-0.212045
-0.200743
-0.189737
-0.179015
-0.16856
-0.158352
-0.148363
-0.138603
-0.129149
-0.11998
-0.111096
-0.102527
-0.0943304
-0.0865515
-0.0792237
-0.0723659
-0.0659773
-0.060027
-0.0544947
-0.049361
-0.0446049
-0.0402129
-0.0361833
-0.0325066
-0.0291672
-0.0261463
-0.0234186
-0.0209591
-0.018745
-0.0167558
-0.0149701
-0.0133679
-0.0119307
-0.0106416
-0.00948577
-0.00844989
-0.00752216
-0.00669215
-0.00595063
-0.00528939
-0.00470117
-0.0041795
-0.00371864
-0.00331359
-0.00296013
-0.00265524
-0.00239825
-0.276436
-0.263215
-0.25047
-0.238218
-0.226453
-0.21522
-0.204498
-0.194228
-0.184359
-0.174843
-0.165634
-0.156696
-0.147995
-0.139494
-0.131151
-0.123
-0.11507
-0.107397
-0.100012
-0.0929437
-0.0862035
-0.0797903
-0.0737035
-0.0679289
-0.0624717
-0.0573236
-0.052494
-0.0479942
-0.0438242
-0.039979
-0.0364395
-0.0331821
-0.030183
-0.0274252
-0.0248941
-0.0225736
-0.0204488
-0.0185051
-0.0167289
-0.0151074
-0.0136287
-0.0122816
-0.011056
-0.0099428
-0.00893339
-0.0080201
-0.00719605
-0.00645568
-0.00579615
-0.00522136
-0.298696
-0.283382
-0.268856
-0.25513
-0.242203
-0.230057
-0.218658
-0.207959
-0.197909
-0.188448
-0.179515
-0.171048
-0.162986
-0.155272
-0.147846
-0.140669
-0.133711
-0.126951
-0.120375
-0.113973
-0.107744
-0.101687
-0.0958077
-0.090117
-0.084592
-0.0792339
-0.0740405
-0.0690424
-0.0642615
-0.0597169
-0.0554268
-0.0513749
-0.0475499
-0.0439345
-0.0405188
-0.0373039
-0.0342871
-0.0314642
-0.0288307
-0.0263813
-0.0241102
-0.0220106
-0.0200728
-0.0182868
-0.0166431
-0.0151327
-0.0137473
-0.0124809
-0.0113322
-0.0103141
-0.320251
-0.302677
-0.286124
-0.270577
-0.256024
-0.242448
-0.229803
-0.218038
-0.207093
-0.196907
-0.187417
-0.17856
-0.170275
-0.162499
-0.155178
-0.148258
-0.14169
-0.13543
-0.129439
-0.123683
-0.118132
-0.112761
-0.107554
-0.102505
-0.0975604
-0.0927227
-0.0879917
-0.0833681
-0.0788603
-0.0744825
-0.0702568
-0.0661688
-0.0622087
-0.0583749
-0.054673
-0.0511062
-0.0476827
-0.0444128
-0.0413105
-0.038383
-0.0356097
-0.0329974
-0.030544
-0.0282431
-0.0260883
-0.0240734
-0.0221933
-0.0204452
-0.0188332
-0.0173831
-0.350189
-0.330264
-0.31154
-0.294012
-0.277659
-0.26244
-0.248306
-0.235197
-0.223049
-0.211792
-0.201357
-0.191664
-0.182642
-0.174237
-0.166383
-0.159016
-0.152083
-0.145532
-0.139315
-0.133395
-0.127736
-0.12231
-0.117096
-0.112071
-0.107215
-0.102516
-0.0979602
-0.09354
-0.0892492
-0.0850871
-0.0810518
-0.0771366
-0.0733195
-0.0696064
-0.0659969
-0.0624953
-0.0590966
-0.0558076
-0.05265
-0.0496166
-0.0466989
-0.0438989
-0.0412154
-0.0386487
-0.0362
-0.0338704
-0.0316606
-0.0295737
-0.0276212
-0.0258413
-0.388529
-0.365888
-0.344623
-0.324739
-0.306219
-0.289027
-0.273111
-0.258407
-0.244846
-0.232351
-0.220842
-0.21024
-0.200464
-0.191436
-0.183079
-0.175319
-0.16808
-0.161296
-0.154911
-0.148868
-0.143115
-0.137608
-0.132309
-0.127189
-0.122225
-0.117399
-0.112698
-0.108116
-0.103649
-0.0992982
-0.0950615
-0.0909386
-0.086928
-0.0830293
-0.0792271
-0.0755327
-0.0719428
-0.0684643
-0.0650948
-0.0618362
-0.0586849
-0.0556387
-0.0526984
-0.0498672
-0.0471484
-0.044544
-0.0420562
-0.0396905
-0.0374622
-0.0354155
-0.438346
-0.41179
-0.386917
-0.363732
-0.342209
-0.322303
-0.303948
-0.287066
-0.271572
-0.257374
-0.244376
-0.232484
-0.221598
-0.211633
-0.202502
-0.194118
-0.186401
-0.179276
-0.17267
-0.166516
-0.160751
-0.15532
-0.15017
-0.145254
-0.140529
-0.135958
-0.131504
-0.127142
-0.122852
-0.118619
-0.114435
-0.110292
-0.106188
-0.102114
-0.0980701
-0.0940644
-0.0901169
-0.0862356
-0.0824284
-0.0787043
-0.0750724
-0.0715412
-0.0681188
-0.0648128
-0.0616294
-0.0585737
-0.0556513
-0.0528711
-0.0502519
-0.0478383
-0.503558
-0.472118
-0.44276
-0.41547
-0.390206
-0.366902
-0.345473
-0.325824
-0.30785
-0.291439
-0.27648
-0.262858
-0.250462
-0.239183
-0.228917
-0.219562
-0.211025
-0.203216
-0.196053
-0.189458
-0.183359
-0.177693
-0.172399
-0.167423
-0.162715
-0.15823
-0.153928
-0.149772
-0.145733
-0.141783
-0.137901
-0.134066
-0.130261
-0.126469
-0.12268
-0.118885
-0.115085
-0.111281
-0.107475
-0.103673
-0.0998824
-0.0961152
-0.0923838
-0.0887022
-0.0850857
-0.0815506
-0.078115
-0.0748011
-0.0716407
-0.0686866
-0.594362
-0.557302
-0.522652
-0.490396
-0.460492
-0.432876
-0.407465
-0.384165
-0.362871
-0.343473
-0.325854
-0.309894
-0.295474
-0.282474
-0.27077
-0.260248
-0.250791
-0.242287
-0.234629
-0.227712
-0.221439
-0.215717
-0.210461
-0.205589
-0.20103
-0.196716
-0.192588
-0.188593
-0.184687
-0.180829
-0.176991
-0.173146
-0.169277
-0.165372
-0.161423
-0.157427
-0.153387
-0.149305
-0.145191
-0.141051
-0.136897
-0.132738
-0.128586
-0.124454
-0.120355
-0.116304
-0.112321
-0.108433
-0.104679
-0.101131
-0.718809
-0.67532
-0.634442
-0.596192
-0.560561
-0.527517
-0.497008
-0.468967
-0.443311
-0.419947
-0.398771
-0.379672
-0.362531
-0.347225
-0.333626
-0.321606
-0.311033
-0.301777
-0.29371
-0.286706
-0.280641
-0.275395
-0.270855
-0.26691
-0.263455
-0.260392
-0.257626
-0.255068
-0.252635
-0.250247
-0.247835
-0.245327
-0.242666
-0.239796
-0.236671
-0.23325
-0.229504
-0.225413
-0.220967
-0.21617
-0.211036
-0.205592
-0.199874
-0.193925
-0.187797
-0.181549
-0.175247
-0.168967
-0.162807
-0.156912
-0.00492642
-0.00511367
-0.00530766
-0.00550987
-0.00572386
-0.00594808
-0.0061803
-0.00642702
-0.00668919
-0.00696496
-0.00725518
-0.00755429
-0.00786568
-0.0081956
-0.00854283
-0.00890591
-0.00928428
-0.00967626
-0.0100849
-0.0105092
-0.0109473
-0.0113998
-0.0118668
-0.0123471
-0.0128402
-0.0133457
-0.0138625
-0.0143906
-0.0149294
-0.0154779
-0.0160352
-0.0166008
-0.0171742
-0.017755
-0.0183427
-0.0189367
-0.0195363
-0.0201405
-0.0207484
-0.0213591
-0.0219721
-0.0225867
-0.0232022
-0.0238177
-0.0244322
-0.0250451
-0.0256554
-0.0262625
-0.0268658
-0.0274645
-0.028058
-0.0286455
-0.0292264
-0.0298001
-0.030366
-0.0309237
-0.0314728
-0.0320129
-0.0325435
-0.0330645
-0.0335757
-0.0340768
-0.0345678
-0.0350487
-0.0355197
-0.0359807
-0.0364319
-0.0368735
-0.037306
-0.0377298
-0.0381453
-0.0385528
-0.0389529
-0.039346
-0.0397329
-0.0401141
-0.0404902
-0.0408619
-0.0412297
-0.0415944
-0.0419566
-0.0423169
-0.042676
-0.0430344
-0.0433928
-0.0437518
-0.0441119
-0.0444736
-0.0448376
-0.0452043
-0.0455742
-0.0459477
-0.0463253
-0.0467074
-0.0470944
-0.0474866
-0.0478843
-0.0482879
-0.0486976
-0.0491136
-0.0495362
-0.0499654
-0.0504014
-0.0508443
-0.0512942
-0.0517511
-0.052215
-0.052686
-0.053164
-0.0536489
-0.0541407
-0.0546394
-0.0551448
-0.0556569
-0.0561757
-0.056701
-0.0572326
-0.0577705
-0.0583148
-0.0588651
-0.0594215
-0.0599836
-0.0605511
-0.0611237
-0.0617009
-0.0622826
-0.0628687
-0.0634588
-0.0640526
-0.0646495
-0.0652496
-0.0658523
-0.0664571
-0.067063
-0.0676688
-0.068274
-0.0688779
-0.0694803
-0.0700811
-0.0706797
-0.0712749
-0.0718655
-0.072451
-0.0730303
-0.0736011
-0.0741602
-0.074706
-0.0752382
-0.0757562
-0.0762573
-0.0767369
-0.0771913
-0.0776183
-0.078017
-0.0783862
-0.0787234
-0.0790251
-0.0792881
-0.0795107
-0.0796901
-0.0798226
-0.0799064
-0.0799415
-0.0799271
-0.0798609
-0.0797401
-0.0795638
-0.0793321
-0.0790454
-0.0787036
-0.0783068
-0.0778552
-0.0773494
-0.0767904
-0.076179
-0.0755165
-0.0748043
-0.0740436
-0.0732361
-0.0723834
-0.0714874
-0.07055
-0.0695731
-0.0685589
-0.0675095
-0.0664271
-0.065314
-0.0641722
-0.0630041
-0.0618117
-0.0605972
-0.0593626
-0.05811
-0.0568412
-0.0555583
-0.0542629
-0.0529569
-0.0516415
-0.0503183
-0.0489888
-0.0476543
-0.0463162
-0.0449755
-0.0436334
-0.0422912
-0.0409502
-0.0396119
-0.038278
-0.0369502
-0.0356301
-0.0343195
-0.0330201
-0.0317334
-0.0304614
-0.0292059
-0.0279693
-0.0267536
-0.0255608
-0.0243929
-0.023252
-0.0221396
-0.0210586
-0.0200109
-0.0189981
-0.018022
-0.0170842
-0.016186
-0.0153284
-0.0145125
-0.0137388
-0.0130078
-0.0123193
-0.0116733
-0.0110691
-0.0105058
-0.00998217
-0.00949651
-0.00904691
-0.00863106
-0.00824635
-0.00788987
-0.00755845
-0.00724871
-0.00695707
-0.0066799
-0.00641354
-0.00615438
-0.00589901
-0.00564428
-0.00538742
-0.00512616
-0.00485878
-0.00458424
-0.00430222
-0.00401315
-0.00371818
-0.0034192
-0.00311861
-0.00281932
-0.00252478
-0.0022388
-0.00196464
-0.00170515
-0.001463
-0.00124034
-0.00103863
-0.000858813
-0.000700954
-0.000564503
-0.000448448
-0.000351316
-0.000271359
-0.000206614
-0.000155051
-0.000114662
-8.35498e-05
-5.99827e-05
-4.24281e-05
-2.9569e-05
-2.03057e-05
-1.37425e-05
-9.16763e-06
-6.02978e-06
-3.91167e-06
-2.50425e-06
-1.58336e-06
-9.8973e-07
-6.12443e-07
-3.75765e-07
-2.29009e-07
-1.38905e-07
-8.40036e-08
-5.07221e-08
-3.05946e-08
-1.84183e-08
-1.10354e-08
-6.53761e-09
-3.77527e-09
-2.05858e-09
-9.3925e-10
-0.00326671
-0.00342488
-0.00359113
-0.00376719
-0.00395465
-0.00415476
-0.00436754
-0.00459351
-0.00483305
-0.00508652
-0.00535438
-0.00563737
-0.00593594
-0.00625015
-0.0065814
-0.00692905
-0.00729335
-0.00767375
-0.00807092
-0.00848445
-0.00891411
-0.00935959
-0.00982056
-0.0102966
-0.0107872
-0.011292
-0.0118106
-0.0123423
-0.0128869
-0.0134434
-0.0140115
-0.0145903
-0.0151792
-0.0157775
-0.0163844
-0.0169992
-0.017621
-0.0182487
-0.0188814
-0.0195181
-0.0201578
-0.0207995
-0.0214422
-0.0220847
-0.0227261
-0.0233652
-0.024001
-0.0246325
-0.0252588
-0.0258788
-0.0264917
-0.0270967
-0.0276928
-0.0282793
-0.0288555
-0.0294209
-0.0299748
-0.0305168
-0.0310464
-0.0315633
-0.0320674
-0.0325583
-0.0330361
-0.0335006
-0.0339521
-0.0343906
-0.0348164
-0.0352297
-0.0356307
-0.0360203
-0.0363988
-0.0367667
-0.0371246
-0.0374729
-0.0378127
-0.0381446
-0.0384692
-0.0387873
-0.0390998
-0.0394074
-0.0397109
-0.0400111
-0.0403088
-0.0406049
-0.0409001
-0.0411952
-0.0414909
-0.041788
-0.0420872
-0.0423892
-0.0426947
-0.0430042
-0.0433185
-0.043638
-0.0439634
-0.0442952
-0.0446338
-0.0449797
-0.0453334
-0.0456953
-0.0460657
-0.046445
-0.0468335
-0.0472316
-0.0476394
-0.0480572
-0.0484853
-0.0489238
-0.049373
-0.0498329
-0.0503038
-0.0507858
-0.0512789
-0.0517832
-0.0522989
-0.0528259
-0.0533643
-0.0539141
-0.0544753
-0.0550479
-0.0556319
-0.0562273
-0.0568337
-0.0574512
-0.0580797
-0.0587189
-0.0593689
-0.0600293
-0.0606999
-0.0613805
-0.0620708
-0.0627705
-0.063479
-0.0641958
-0.0649205
-0.0656527
-0.0663918
-0.0671374
-0.0678887
-0.068645
-0.0694054
-0.0701689
-0.0709345
-0.071701
-0.0724672
-0.0732316
-0.0739929
-0.0747497
-0.0755003
-0.0762427
-0.0769751
-0.0776954
-0.0784015
-0.0790911
-0.0797619
-0.0804115
-0.0810376
-0.0816376
-0.0822089
-0.0827489
-0.083255
-0.0837246
-0.0841551
-0.0845439
-0.0848885
-0.0851866
-0.0854361
-0.0856346
-0.0857803
-0.0858712
-0.0859058
-0.0858825
-0.0858
-0.0856572
-0.0854532
-0.0851872
-0.0848587
-0.0844675
-0.0840133
-0.0834963
-0.0829168
-0.0822752
-0.0815724
-0.0808091
-0.0799865
-0.0791058
-0.0781684
-0.0771758
-0.0761296
-0.0750317
-0.0738838
-0.0726879
-0.0714461
-0.0701603
-0.0688327
-0.0674655
-0.066061
-0.0646214
-0.0631491
-0.0616462
-0.0601153
-0.0585586
-0.0569785
-0.0553776
-0.0537584
-0.0521235
-0.0504756
-0.0488175
-0.0471518
-0.0454815
-0.0438094
-0.0421386
-0.0404722
-0.0388132
-0.0371648
-0.0355304
-0.0339133
-0.0323166
-0.0307437
-0.0291978
-0.0276823
-0.0262002
-0.0247547
-0.0233487
-0.021985
-0.0206663
-0.019395
-0.0181732
-0.0170029
-0.0158856
-0.0148226
-0.0138146
-0.0128623
-0.0119657
-0.0111244
-0.0103377
-0.00960436
-0.00892273
-0.00829081
-0.00770616
-0.00716603
-0.00666734
-0.00620678
-0.00578085
-0.00538597
-0.00501852
-0.00467497
-0.00435195
-0.00404636
-0.00375545
-0.00347686
-0.00320874
-0.00294974
-0.00269903
-0.00245629
-0.00222167
-0.0019957
-0.00177922
-0.00157328
-0.001379
-0.00119748
-0.0010297
-0.00087663
-0.000738625
-0.000615714
-0.000507638
-0.000413856
-0.000333578
-0.000265772
-0.000209259
-0.000162803
-0.000125135
-9.50151e-05
-7.12631e-05
-5.27909e-05
-3.86224e-05
-2.79045e-05
-1.99088e-05
-1.40262e-05
-9.75809e-06
-6.70416e-06
-4.54913e-06
-3.04926e-06
-2.01968e-06
-1.32249e-06
-8.56679e-07
-5.49494e-07
-3.49401e-07
-2.20545e-07
-1.38399e-07
-8.64696e-08
-5.38602e-08
-3.34777e-08
-2.07621e-08
-1.28372e-08
-7.89061e-09
-4.79503e-09
-2.84521e-09
-1.60267e-09
-7.78873e-10
-0.00233754
-0.00246875
-0.00261024
-0.00276228
-0.00292537
-0.00309983
-0.0032861
-0.00348473
-0.00369601
-0.00392031
-0.00415801
-0.00440962
-0.00467563
-0.00495643
-0.00525232
-0.00556355
-0.00589035
-0.00623298
-0.0065916
-0.00696631
-0.00735714
-0.00776412
-0.00818718
-0.00862622
-0.00908108
-0.00955159
-0.0100375
-0.0105385
-0.0110543
-0.0115844
-0.0121284
-0.0126857
-0.0132557
-0.0138378
-0.0144312
-0.0150351
-0.0156485
-0.0162706
-0.0169003
-0.0175366
-0.0181783
-0.0188242
-0.0194733
-0.0201242
-0.0207757
-0.0214266
-0.0220756
-0.0227215
-0.0233629
-0.0239987
-0.0246277
-0.0252487
-0.0258606
-0.0264624
-0.0270531
-0.0276317
-0.0281974
-0.0287495
-0.0292873
-0.0298102
-0.0303176
-0.0308093
-0.0312849
-0.0317442
-0.0321871
-0.0326137
-0.0330241
-0.0334183
-0.0337965
-0.0341595
-0.0345075
-0.0348411
-0.0351609
-0.0354672
-0.0357613
-0.0360436
-0.036315
-0.0365764
-0.0368286
-0.0370726
-0.0373092
-0.0375394
-0.0377642
-0.0379844
-0.0382011
-0.0384152
-0.0386275
-0.0388391
-0.0390507
-0.0392632
-0.0394776
-0.0396945
-0.0399147
-0.040139
-0.0403682
-0.0406029
-0.0408437
-0.0410913
-0.0413463
-0.0416092
-0.0418806
-0.042161
-0.0424509
-0.0427507
-0.0430609
-0.0433818
-0.0437139
-0.0440576
-0.0444131
-0.0447809
-0.0451613
-0.0455545
-0.0459609
-0.0463807
-0.0468143
-0.0472618
-0.0477235
-0.0481997
-0.0486906
-0.0491965
-0.0497174
-0.0502536
-0.0508053
-0.0513726
-0.0519558
-0.0525549
-0.0531701
-0.0538014
-0.054449
-0.0551128
-0.0557931
-0.0564897
-0.0572026
-0.0579318
-0.0586772
-0.0594386
-0.0602159
-0.0610088
-0.0618171
-0.0626405
-0.0634784
-0.0643306
-0.0651963
-0.0660749
-0.0669657
-0.0678678
-0.0687805
-0.0697025
-0.0706329
-0.0715703
-0.0725134
-0.0734605
-0.0744103
-0.0753608
-0.0763102
-0.0772566
-0.0781977
-0.0791313
-0.0800551
-0.0809665
-0.0818629
-0.0827416
-0.0835999
-0.0844349
-0.0852435
-0.086023
-0.0867701
-0.087482
-0.0881554
-0.0887875
-0.0893751
-0.0899153
-0.0904052
-0.090842
-0.0912228
-0.0915452
-0.0918065
-0.0920045
-0.0921369
-0.0922017
-0.0921971
-0.0921214
-0.0919732
-0.0917512
-0.0914544
-0.0910819
-0.0906333
-0.0901081
-0.0895062
-0.0888276
-0.0880727
-0.0872419
-0.0863359