/*--------------------------------*- C++ -*----------------------------------*\
| =========                 |                                                 |
| \\      /  F ield         | OpenFOAM: The Open Source CFD Toolbox           |
|  \\    /   O peration     | Version:  2.4.0                                 |
|   \\  /    A nd           | Web:      www.OpenFOAM.org                      |
|    \\/     M anipulation  |                                                 |
\*---------------------------------------------------------------------------*/
FoamFile
{
    version     2.0;
    format      ascii;
    class       volScalarField;
    location    "5";
    object      p;
}
// * * * * * * * * * * * * * * * * * * * * * * * * * * * * * * * * * * * * * //

dimensions      [1 -1 -2 0 0 0 0];

internalField   nonuniform List<scalar> 
8000
(
2.33019
2.33714
2.34561
2.35401
2.3622
2.37032
2.37842
2.38653
2.39457
2.40259
2.41058
2.41855
2.42648
2.43439
2.44227
2.45013
2.45797
2.46579
2.47362
2.48144
2.48927
2.49713
2.50501
2.51294
2.52093
2.52899
2.53713
2.54539
2.55377
2.56229
2.57099
2.57988
2.58897
2.59832
2.60793
2.61786
2.62812
2.63896
2.65075
2.66479
2.68302
2.70373
2.71428
2.70615
2.63632
2.41389
1.96903
1.59034
-1.16239
-2.07529
1.44718
1.45116
1.45585
1.46083
1.46616
1.47191
1.47813
1.48465
1.49155
1.49881
1.50642
1.51437
1.52268
1.53132
1.54034
1.54968
1.55945
1.56955
1.58005
1.59096
1.60247
1.61411
1.62636
1.63911
1.65244
1.66634
1.68087
1.69606
1.71195
1.72861
1.74607
1.7644
1.78365
1.80395
1.82573
1.84993
1.87718
1.90597
1.92685
1.94047
1.90431
1.68503
1.17737
0.668776
-1.56326
-3.08701
-4.11768
-5.64718
-5.78111
-3.30912
0.691287
0.696531
0.702923
0.70959
0.716523
0.72381
0.731504
0.739424
0.747782
0.756485
0.765535
0.774937
0.784733
0.794857
0.805336
0.81627
0.827794
0.839655
0.851532
0.864373
0.877794
0.891773
0.906446
0.921823
0.937963
0.954929
0.972782
0.991585
1.01138
1.03219
1.05411
1.07759
1.10359
1.13271
1.1612
1.17772
1.1741
1.00339
0.504571
-0.137861
-2.23543
-3.59366
-4.56555
-5.65869
-6.04805
-5.04396
-2.54559
0.243377
1.22084
1.22404
-0.189827
-0.177748
-0.163866
-0.150462
-0.137553
-0.124742
-0.112243
-0.0998521
-0.0876052
-0.0755023
-0.0635374
-0.0516722
-0.0399553
-0.0284804
-0.0170087
-0.00564221
0.00562727
0.0168379
0.0280278
0.0390991
0.049866
0.0607928
0.0716292
0.0824451
0.0932566
0.104066
0.114862
0.125633
0.13652
0.148375
0.162442
0.177564
0.18098
0.148878
-0.0984307
-0.695391
-1.48862
-3.71426
-4.58416
-5.30942
-5.8548
-5.17949
-3.47987
-0.788489
0.637865
1.03899
1.06284
1.06227
1.06752
1.06783
-1.2742
-1.25489
-1.23452
-1.21632
-1.2
-1.18503
-1.17154
-1.15916
-1.14803
-1.13814
-1.12947
-1.12185
-1.11575
-1.1106
-1.10656
-1.10361
-1.10173
-1.10083
-1.10075
-1.1014
-1.10396
-1.10694
-1.11076
-1.11531
-1.12064
-1.12699
-1.13465
-1.1424
-1.14415
-1.12962
-1.12467
-1.28568
-1.9831
-3.13586
-4.50303
-4.86286
-5.12481
-5.07982
-3.74909
-1.58196
0.167092
0.812577
0.929454
0.942375
0.940598
0.942786
0.942072
0.942162
0.943131
0.944208
-1.68844
-1.6693
-1.64803
-1.62872
-1.61129
-1.59569
-1.58154
-1.56879
-1.55747
-1.54757
-1.53896
-1.53182
-1.52611
-1.52177
-1.5188
-1.51718
-1.51692
-1.51802
-1.52047
-1.52414
-1.52935
-1.53582
-1.54368
-1.55319
-1.56457
-1.57653
-1.58262
-1.57647
-1.59128
-1.78074
-2.4506
-4.15379
-4.66036
-4.4758
-4.0783
-2.92418
-0.776868
0.42198
0.788212
0.841748
0.849078
0.853172
0.8536
0.853464
0.854603
0.85379
0.857188
0.8574
0.858375
0.86035
-2.43596
-2.41156
-2.38682
-2.36629
-2.34945
-2.33604
-2.32556
-2.31803
-2.31348
-2.3119
-2.31323
-2.31752
-2.32474
-2.33489
-2.34798
-2.36401
-2.38301
-2.40499
-2.42994
-2.45791
-2.48888
-2.52311
-2.56136
-2.60391
-2.64517
-2.66541
-2.6593
-2.77728
-3.5114
-5.04897
-4.06564
-3.16898
-2.2686
-0.91001
0.380687
0.72313
0.771312
0.775639
0.778074
0.778431
0.778625
0.779198
0.77998
0.780745
0.781349
0.781962
0.786933
0.784545
0.784835
0.785447
-2.15547
-2.14101
-2.12626
-2.11466
-2.10599
-2.10034
-2.09718
-2.09657
-2.09852
-2.10328
-2.11034
-2.12006
-2.13241
-2.14741
-2.1651
-2.18554
-2.20877
-2.23484
-2.26385
-2.29591
-2.33136
-2.37055
-2.41235
-2.45057
-2.47905
-2.53252
-2.766
-3.34194
-3.47104
-2.33486
-1.21383
-0.0677718
0.604997
0.710288
0.713609
0.714331
0.714833
0.715086
0.715494
0.715966
0.716405
0.716797
0.717145
0.717452
0.717673
0.717874
0.718982
0.717853
0.717906
0.717919
-1.62671
-1.6308
-1.63595
-1.64191
-1.64833
-1.65618
-1.66476
-1.67425
-1.68438
-1.69588
-1.7082
-1.72147
-1.7357
-1.75092
-1.76713
-1.78433
-1.80252
-1.82169
-1.84199
-1.86375
-1.88703
-1.90918
-1.92087
-1.92035
-1.98097
-2.33333
-3.02479
-2.11107
-0.562213
0.237893
0.603102
0.657331
0.660603
0.661141
0.661351
0.661702
0.662052
0.662427
0.66276
0.66306
0.663328
0.663564
0.663768
0.663939
0.664078
0.664192
0.664279
0.664313
0.664329
0.664322
-0.854757
-0.873506
-0.893789
-0.912836
-0.930253
-0.948059
-0.965032
-0.981578
-0.997786
-1.01346
-1.0288
-1.04375
-1.05834
-1.07255
-1.08638
-1.09982
-1.11284
-1.12553
-1.13821
-1.15088
-1.16103
-1.16018
-1.14704
-1.18956
-1.49771
-2.09595
-1.15832
0.309543
0.576391
0.607509
0.611797
0.612014
0.612081
0.612239
0.612508
0.612734
0.612935
0.613124
0.613302
0.613467
0.613619
0.613758
0.613882
0.613992
0.614086
0.614165
0.614229
0.614269
0.614292
0.614298
-0.316235
-0.341297
-0.368393
-0.393498
-0.41595
-0.438692
-0.459709
-0.479704
-0.49895
-0.516838
-0.53381
-0.549794
-0.564799
-0.578825
-0.591866
-0.603909
-0.614981
-0.625242
-0.634849
-0.642925
-0.64506
-0.636869
-0.642043
-0.76738
-1.12038
-1.14284
0.217654
0.545406
0.563574
0.564932
0.565001
0.565123
0.56527
0.565402
0.565528
0.565654
0.565779
0.565903
0.566027
0.566149
0.566269
0.566386
0.566501
0.566612
0.56672
0.566825
0.566926
0.56702
0.567109
0.567192
0.0362566
0.0120919
-0.0140447
-0.0383777
-0.0599981
-0.0827877
-0.103482
-0.123266
-0.142556
-0.160418
-0.177495
-0.19369
-0.20901
-0.223457
-0.237016
-0.249695
-0.261712
-0.273624
-0.285234
-0.291235
-0.277464
-0.24885
-0.34232
-0.91729
-1.83016
-0.14533
0.488403
0.515734
0.516871
0.516989
0.517091
0.517202
0.517316
0.517428
0.517536
0.517643
0.517749
0.517853
0.517956
0.518057
0.518157
0.518256
0.518353
0.518448
0.518543
0.518636
0.518729
0.518819
0.518907
0.518993
0.205424
0.18427
0.161316
0.139784
0.120583
0.0994278
0.0807038
0.0626738
0.0448732
0.0283639
0.0124343
-0.0027977
-0.0173304
-0.0311586
-0.0442699
-0.0567353
-0.0688123
-0.0806555
-0.0905693
-0.0917627
-0.0806543
-0.103075
-0.32564
-0.833224
-0.611337
0.354724
0.464886
0.468337
0.468545
0.468682
0.46882
0.46896
0.469092
0.469214
0.469328
0.469434
0.469531
0.469621
0.469702
0.469776
0.469842
0.469901
0.469952
0.469995
0.470031
0.47006
0.470081
0.470095
0.470101
0.470099
0.274215
0.256784
0.237913
0.220153
0.204013
0.185432
0.169722
0.154513
0.139342
0.12526
0.111562
0.0983694
0.0856905
0.0735401
0.0618967
0.0505335
0.03897
0.0277002
0.0223035
0.0349032
0.0526671
-0.0645501
-0.621388
-1.34095
0.110185
0.415273
0.421714
0.421953
0.422035
0.422125
0.422218
0.422302
0.422373
0.422433
0.42248
0.422514
0.422535
0.422543
0.422537
0.422517
0.422483
0.422434
0.42237
0.422291
0.422195
0.422083
0.421955
0.421809
0.421646
0.421465
0.258462
0.244436
0.229235
0.217625
0.203663
0.189999
0.176889
0.164104
0.151352
0.139313
0.127509
0.116062
0.105008
0.0943627
0.0838863
0.0728734
0.0612775
0.0553181
0.0736838
0.116899
0.0249846
-0.677945
-1.98561
-0.331667
0.356707
0.376508
0.377272
0.377373
0.377499
0.377637
0.377764
0.377874
0.377967
0.378044
0.378104
0.378149
0.378177
0.378189
0.378185
0.378164
0.378127
0.378072
0.378001
0.377911
0.377804
0.377679
0.377536
0.377373
0.377192
0.37699
0.191645
0.180899
0.169149
0.161271
0.148623
0.137361
0.12605
0.114675
0.10324
0.0918214
0.0803725
0.0689056
0.0574301
0.0458633
0.033903
0.0213174
0.00997502
0.00758385
0.0194012
-0.00483917
-0.258011
-0.862257
-0.670882
0.285406
0.333882
0.335306
0.335344
0.335459
0.335609
0.335751
0.335875
0.335983
0.336077
0.336156
0.336221
0.336272
0.336309
0.336331
0.33634
0.336334
0.336313
0.336279
0.33623
0.336167
0.33609
0.335998
0.335892
0.335771
0.335636
0.335486
0.123429
0.114452
0.104481
0.0981804
0.0854362
0.0752748
0.0648846
0.0540896
0.0432179
0.0321246
0.0207954
0.00923887
-0.00258615
-0.0149191
-0.0281815
-0.0417069
-0.0498792
-0.0427658
-0.0393791
-0.18029
-0.707324
-1.19732
0.191569
0.293794
0.295778
0.295733
0.295818
0.295956
0.296091
0.296211
0.296318
0.296414
0.296499
0.296574
0.296638
0.296691
0.296733
0.296764
0.296784
0.296793
0.296791
0.296779
0.296755
0.296721
0.296676
0.296621
0.296555
0.296479
0.296392
0.296295
0.17095
0.161296
0.151074
0.144036
0.131362
0.122393
0.113626
0.104846
0.096517
0.0883781
0.0804926
0.0728428
0.0651337
0.0567145
0.0482039
0.0470428
0.0697884
0.101515
-0.0429365
-0.782165
-1.79231
0.0616473
0.255776
0.257947
0.257861
0.257933
0.258062
0.258189
0.258304
0.258409
0.258504
0.258591
0.25867
0.25874
0.258803
0.258858
0.258905
0.258945
0.258977
0.259002
0.259019
0.25903
0.259034
0.259031
0.259022
0.259006
0.258985
0.258958
0.258926
0.258888
0.139167
0.13019
0.12098
0.113888
0.10246
0.0951961
0.0883819
0.0819178
0.07611
0.0708112
0.0661053
0.0615153
0.0555856
0.0482705
0.0522127
0.105052
0.207659
0.0359273
-1.37927
-4.00132
-0.297601
0.217702
0.221147
0.220902
0.22096
0.221087
0.22121
0.22132
0.221421
0.221515
0.2216
0.221676
0.221744
0.221803
0.221855
0.2219
0.221938
0.221968
0.221992
0.222009
0.222019
0.222023
0.22202
0.222012
0.221998
0.221979
0.221955
0.221926
0.221893
0.221856
0.00323134
-0.00315177
-0.00756658
-0.0142017
-0.0213783
-0.0280776
-0.0349101
-0.0419065
-0.0489533
-0.0561131
-0.0635634
-0.0719333
-0.0813556
-0.0867778
-0.0723772
-0.0356952
-0.106411
-0.688219
-1.81668
-0.512068
0.179501
0.185252
0.185228
0.185257
0.185348
0.185446
0.185534
0.185613
0.185684
0.185747
0.185801
0.185847
0.185885
0.185914
0.185934
0.185945
0.185949
0.185945
0.185934
0.185916
0.18589
0.185856
0.185816
0.185769
0.185715
0.185655
0.185588
0.185516
0.185437
0.185353
-3.78126
-5.01986
-1.80084
1.16129
1.75117
1.72304
1.73498
1.73721
1.73271
1.74798
1.73524
1.74288
1.7402
1.73484
1.72863
1.73164
1.72238
1.69721
1.68148
1.68395
1.67439
1.66475
1.6777
1.67932
1.60325
1.68015
1.61056
1.60539
1.59784
1.5857
1.53145
1.5127
1.60908
1.39829
1.39474
1.38213
1.34851
1.3354
1.35709
1.26513
1.25456
1.243
1.23254
1.23457
1.22023
1.19798
1.25244
1.21156
1.20206
1.19492
0.413911
1.51344
1.45652
1.44913
1.45714
1.45729
1.45858
1.46042
1.46364
1.47605
1.46264
1.46051
1.458
1.45373
1.44852
1.44268
1.43709
1.42963
1.41992
1.41048
1.40143
1.39392
1.39307
1.37025
1.37857
1.3455
1.33321
1.36192
1.28166
1.31072
1.2803
1.27059
1.25755
1.26715
1.23684
1.22796
1.22679
1.18936
1.19424
1.14733
1.14208
1.13006
1.12395
1.11397
1.10252
1.09922
1.0912
1.0794
1.07146
1.06485
1.23539
1.23906
1.23705
1.23428
1.23673
1.23928
1.24135
1.2437
1.25627
1.25352
1.25134
1.2489
1.24701
1.24375
1.24073
1.23529
1.2297
1.22381
1.21745
1.21087
1.20399
1.19671
1.189
1.18919
1.1808
1.18115
1.16485
1.15555
1.17537
1.13017
1.13778
1.12304
1.12293
1.1023
1.09441
1.08601
1.08667
1.07136
1.07937
1.05788
1.05026
1.04339
1.03672
1.02663
1.02109
1.0106
1.00314
0.99628
0.987889
0.980449
1.06714
1.06808
1.06958
1.07091
1.07248
1.07372
1.07484
1.07574
1.08271
1.06781
1.06612
1.06455
1.06281
1.06051
1.05904
1.05547
1.05261
1.04966
1.04667
1.04364
1.04059
1.03752
1.03437
1.03126
1.02904
1.02554
1.02161
1.01736
1.02314
1.01518
1.00811
1.0045
0.995813
0.992682
0.983736
0.978797
0.975499
0.968901
0.963326
0.96142
0.951229
0.94547
0.939616
0.933782
0.92761
0.921524
0.915104
0.908658
0.902296
0.895693
0.945078
0.945813
0.953957
0.95141
0.959445
0.956646
0.95663
0.963986
0.946607
0.945275
0.943911
0.942499
0.940786
0.939021
0.937903
0.934544
0.932477
0.930393
0.928302
0.926221
0.924147
0.922074
0.919981
0.917844
0.915626
0.913283
0.910776
0.908095
0.90559
0.903368
0.899243
0.89634
0.892443
0.889728
0.885275
0.881157
0.8773
0.87288
0.868397
0.864922
0.859465
0.854674
0.849845
0.844912
0.839903
0.834803
0.829614
0.824365
0.819037
0.813627
0.860994
0.861554
0.862057
0.865289
0.861745
0.871578
0.865004
0.876659
0.864153
0.863451
0.862565
0.861656
0.860375
0.858973
0.857932
0.855973
0.854167
0.852218
0.850125
0.847904
0.845567
0.84312
0.840565
0.837908
0.835152
0.832301
0.829349
0.826298
0.82315
0.81993
0.816625
0.813229
0.809739
0.806164
0.80251
0.798771
0.794942
0.79104
0.787054
0.783029
0.778893
0.774692
0.770441
0.766121
0.761724
0.757282
0.752785
0.748231
0.74363
0.738981
0.785589
0.785754
0.78585
0.785854
0.786
0.78581
0.785138
0.789664
0.78376
0.783249
0.782693
0.782075
0.781386
0.7804
0.779452
0.778544
0.777929
0.774757
0.773246
0.771563
0.76971
0.767685
0.765494
0.763143
0.760643
0.758007
0.755245
0.752369
0.749392
0.746319
0.743164
0.739923
0.73661
0.733224
0.729778
0.726287
0.72271
0.719091
0.715417
0.711688
0.707912
0.704082
0.700212
0.696298
0.69234
0.688344
0.684309
0.680237
0.676134
0.671998
0.717927
0.717822
0.717717
0.717557
0.717369
0.717271
0.717855
0.717464
0.716768
0.716063
0.715481
0.714921
0.714362
0.713648
0.712799
0.711879
0.711739
0.710119
0.708821
0.707418
0.705814
0.703993
0.701979
0.699793
0.697446
0.694947
0.692308
0.689542
0.686662
0.683681
0.680609
0.677457
0.674236
0.670951
0.667608
0.664219
0.660773
0.657288
0.653764
0.6502
0.646602
0.642969
0.639307
0.635615
0.631896
0.628151
0.624383
0.620592
0.616782
0.612952
0.664279
0.664202
0.66411
0.663947
0.663773
0.663593
0.663404
0.670451
0.662242
0.661592
0.661111
0.660663
0.660168
0.659712
0.659083
0.658273
0.657366
0.656322
0.6552
0.657073
0.653074
0.651363
0.649517
0.647499
0.645294
0.642915
0.640376
0.637693
0.634875
0.631927
0.628868
0.625706
0.622465
0.619152
0.615777
0.612349
0.608876
0.605365
0.601822
0.598249
0.594652
0.591034
0.587396
0.583743
0.580075
0.576394
0.572702
0.569001
0.565291
0.561573
0.614285
0.614252
0.614199
0.614122
0.614012
0.613857
0.613669
0.613498
0.613968
0.613329
0.61266
0.612372
0.611981
0.611565
0.611077
0.611053
0.609783
0.609091
0.608357
0.607481
0.606324
0.604847
0.603159
0.601313
0.599365
0.597291
0.594434
0.592669
0.589315
0.586533
0.583652
0.58061
0.577437
0.574158
0.570791
0.567352
0.563851
0.560299
0.556708
0.553083
0.549433
0.545764
0.54208
0.538385
0.534683
0.530976
0.527266
0.523556
0.519846
0.516138
0.567269
0.567339
0.567401
0.567453
0.567497
0.567526
0.567534
0.567502
0.567403
0.567259
0.567146
0.567008
0.568045
0.567071
0.56668
0.566239
0.565984
0.565002
0.564411
0.563739
0.562913
0.561774
0.560443
0.558897
0.55713
0.555304
0.55328
0.550441
0.548241
0.546665
0.542551
0.53967
0.536675
0.533575
0.530334
0.526977
0.523527
0.520001
0.516413
0.512773
0.509092
0.505381
0.501647
0.497898
0.49414
0.490378
0.486615
0.482854
0.4791
0.475353
0.519077
0.519158
0.519236
0.519309
0.519376
0.519436
0.519486
0.519525
0.519551
0.519562
0.519538
0.519476
0.519393
0.521154
0.519161
0.518889
0.518655
0.518295
0.517832
0.517291
0.516633
0.515899
0.515108
0.51414
0.512917
0.511408
0.5097
0.508378
0.506241
0.504463
0.503191
0.500958
0.49552
0.492645
0.489739
0.486787
0.483724
0.480538
0.477245
0.473861
0.470401
0.46688
0.463304
0.459688
0.456036
0.452357
0.448661
0.444954
0.441242
0.437529
0.470089
0.470071
0.47014
0.470006
0.469943
0.46988
0.469813
0.469733
0.469638
0.469527
0.469398
0.469247
0.469072
0.468933
0.468731
0.468334
0.46803
0.467674
0.467254
0.466756
0.466164
0.465478
0.4648
0.464138
0.464223
0.462796
0.461297
0.459782
0.458311
0.456475
0.455084
0.453827
0.451854
0.448016
0.445415
0.44283
0.440292
0.437693
0.434993
0.432271
0.429514
0.426484
0.423845
0.420308
0.417076
0.413806
0.410492
0.407137
0.403743
0.400319
0.421296
0.421043
0.420798
0.42054
0.420319
0.419954
0.419612
0.419253
0.418875
0.41847
0.418038
0.417578
0.417265
0.416611
0.416016
0.415412
0.41479
0.414122
0.413408
0.412639
0.411822
0.410972
0.410147
0.41294
0.410517
0.408684
0.407324
0.406011
0.404678
0.40334
0.402101
0.403292
0.400128
0.397909
0.395786
0.393953
0.392006
0.389927
0.387895
0.396856
0.389075
0.38594
0.383064
0.380374
0.377712
0.374989
0.372196
0.369344
0.366439
0.36348
0.376769
0.376527
0.376263
0.375977
0.375669
0.375338
0.374983
0.374604
0.3742
0.373771
0.373315
0.372949
0.372435
0.371872
0.371468
0.37087
0.370152
0.369507
0.368837
0.368141
0.367419
0.366676
0.365928
0.365236
0.36439
0.363479
0.362604
0.361738
0.360859
0.359993
0.359172
0.361288
0.357338
0.357613
0.354842
0.354282
0.353894
0.353002
0.351641
0.349791
0.347436
0.345132
0.343174
0.341393
0.339562
0.337624
0.335589
0.33347
0.331263
0.328969
0.335321
0.335142
0.334947
0.334737
0.334512
0.334271
0.334015
0.333742
0.333453
0.333148
0.332827
0.332489
0.332134
0.33176
0.331369
0.33096
0.330529
0.330081
0.329614
0.329127
0.32862
0.328093
0.327546
0.326978
0.32639
0.325797
0.325195
0.324559
0.323892
0.323205
0.3225
0.321781
0.321114
0.320577
0.320892
0.319906
0.318438
0.317109
0.315743
0.314246
0.312715
0.311301
0.309975
0.308634
0.307243
0.305819
0.30422
0.302588
0.300872
0.299064
0.296188
0.29607
0.295942
0.295804
0.295656
0.295497
0.295329
0.295151
0.294963
0.294764
0.294556
0.294338
0.294139
0.293899
0.293649
0.293425
0.293129
0.29284
0.292544
0.292242
0.291928
0.291602
0.291263
0.290911
0.290551
0.290206
0.289818
0.289396
0.288961
0.288512
0.288024
0.287496
0.287097
0.286926
0.28592
0.28525
0.284616
0.283958
0.283281
0.282605
0.281925
0.28125
0.280545
0.279846
0.279118
0.27836
0.277577
0.276761
0.275906
0.275006
0.258846
0.2588
0.258749
0.258694
0.258636
0.258574
0.25851
0.258443
0.258373
0.258302
0.258229
0.258155
0.258079
0.258003
0.257926
0.257849
0.257771
0.257694
0.257617
0.257541
0.257465
0.25739
0.257315
0.257241
0.257168
0.257096
0.257026
0.256957
0.256881
0.2568
0.256717
0.256627
0.256523
0.256432
0.256437
0.256241
0.256062
0.255915
0.255752
0.255569
0.255367
0.255141
0.254889
0.254608
0.254294
0.253941
0.253549
0.25311
0.252615
0.252116
0.221815
0.221771
0.221724
0.221675
0.221624
0.221571
0.221517
0.221462
0.221407
0.221352
0.221298
0.221245
0.221194
0.221208
0.221097
0.221052
0.221009
0.220972
0.221021
0.22091
0.220884
0.220862
0.220848
0.220838
0.220834
0.220834
0.22084
0.22085
0.220867
0.220888
0.220908
0.22093
0.220953
0.220972
0.220989
0.221002
0.221005
0.22099
0.220958
0.220903
0.220818
0.220701
0.220545
0.220334
0.220067
0.21963
0.219186
0.218645
0.217996
0.217474
0.185264
0.18517
0.185071
0.184968
0.184861
0.18475
0.184635
0.184516
0.184395
0.184271
0.184144
0.184016
0.183886
0.183754
0.183622
0.183488
0.183354
0.18322
0.183085
0.182951
0.18285
0.18268
0.182544
0.182409
0.182275
0.182141
0.182006
0.181874
0.181736
0.181618
0.181615
0.181365
0.181214
0.181056
0.180892
0.180719
0.180534
0.180335
0.18012
0.179886
0.17963
0.179349
0.179037
0.178694
0.178312
0.177882
0.177407
0.176889
0.176319
0.175714
1.19329
1.18742
1.19115
1.17108
1.16836
1.17741
1.12252
1.11931
1.11763
1.08342
1.11896
1.08936
1.08443
1.08459
1.07786
1.06743
1.06892
1.05107
1.0447
1.0383
1.0317
1.02644
1.01958
1.01151
1.00499
0.998672
0.989852
0.982641
0.975295
0.967742
0.960094
0.95231
0.944439
0.936464
0.928403
0.920328
0.912215
0.904055
0.895818
0.8875
0.87911
0.870641
0.862107
0.853521
0.844871
0.836145
0.827344
0.818475
0.809535
0.800525
0.791447
0.782302
0.773092
0.763821
0.754486
0.745089
0.735632
0.726116
0.716543
0.706911
0.697226
0.687487
0.677698
0.667861
0.65798
0.648106
0.638083
0.628069
0.618027
0.607942
0.597827
0.587734
0.577578
0.567332
0.557121
0.546898
0.536666
0.526431
0.516197
0.50597
0.495756
0.485562
0.475394
0.46526
0.455168
0.445127
0.435145
0.425232
0.415398
0.40565
0.396
0.386457
0.377031
0.367732
0.358573
0.349563
0.340715
0.332042
0.323559
0.315279
0.307219
0.299395
0.291823
0.28452
0.277507
0.270799
0.264415
0.258371
0.252686
0.247381
0.242474
0.237985
0.233932
0.230332
0.227194
0.224521
0.222347
0.22071
0.219606
0.219038
0.219033
0.21961
0.220781
0.222546
0.224907
0.22785
0.231392
0.235529
0.24027
0.245618
0.251568
0.258105
0.265212
0.272872
0.281077
0.289815
0.299076
0.308838
0.319079
0.329782
0.340921
0.352462
0.364373
0.376618
0.38916
0.40196
0.41499
0.428221
0.441611
0.455106
0.468644
0.482171
0.495648
0.509036
0.522282
0.535329
0.54813
0.560657
0.572879
0.584758
0.59626
0.607356
0.618018
0.628217
0.637926
0.647127
0.655796
0.663915
0.671466
0.678433
0.684802
0.69056
0.695696
0.700201
0.704071
0.707302
0.709892
0.711843
0.71316
0.713845
0.713902
0.71334
0.71217
0.710403
0.708048
0.705109
0.7016
0.69752
0.692873
0.68767
0.681922
0.675629
0.668788
0.661395
0.653459
0.645004
0.636069
0.626632
0.616712
0.606363
0.595628
0.584542
0.573136
0.561428
0.549426
0.537128
0.524521
0.511581
0.498278
0.48459
0.470513
0.45606
0.44123
0.426038
0.410508
0.394671
0.37856
0.362211
0.345661
0.328946
0.312103
0.295167
0.278164
0.261119
0.244054
0.226989
0.209944
0.192934
0.175977
0.159086
0.142276
0.125559
0.108948
0.0924534
0.0760865
0.0598577
0.0437767
0.0278525
0.0120937
-0.00349174
-0.0188967
-0.0341145
-0.0491392
-0.0639657
-0.0785895
-0.0930068
-0.107215
-0.12121
-0.134993
-0.14856
-0.161913
-0.175051
-0.187975
-0.200685
-0.213185
-0.225472
-0.237558
-0.249441
-0.26112
-0.272584
-0.283873
-0.295002
-0.305951
-0.316724
-0.327324
-0.337755
-0.348023
-0.358131
-0.368087
-0.377895
-0.387561
-0.397093
-0.406495
-0.415774
-0.424938
-0.433992
-0.442944
-0.4518
-0.460566
-0.469251
-0.477861
-0.486405
-0.494889
-0.503323
-0.511713
-0.52007
-0.528401
-0.536716
-0.545024
-0.553335
-0.561658
-0.570003
-0.578379
-0.586797
-0.595267
-0.603797
-0.612399
-0.621095
-0.629913
-0.638819
1.05857
1.06165
1.05023
1.04562
1.04356
1.03704
1.03351
1.02645
1.02122
1.01705
1.00901
1.00554
1.00175
0.991683
0.987592
0.981552
0.977418
0.96991
0.964587
0.958463
0.953012
0.946814
0.940993
0.935135
0.929155
0.923115
0.917072
0.910843
0.904642
0.898382
0.892064
0.88569
0.879263
0.872782
0.866247
0.859659
0.853022
0.846336
0.839598
0.832811
0.825976
0.81909
0.812154
0.805167
0.798131
0.791046
0.783914
0.776735
0.769509
0.762238
0.754921
0.747559
0.740153
0.732703
0.725213
0.717682
0.710113
0.702506
0.694864
0.687188
0.679481
0.671743
0.663978
0.656187
0.64837
0.640534
0.632769
0.624814
0.616929
0.609027
0.601115
0.593314
0.585427
0.577509
0.569613
0.56173
0.553862
0.546014
0.53819
0.530395
0.522633
0.51491
0.50723
0.499598
0.492021
0.484503
0.47705
0.469667
0.462362
0.455141
0.448009
0.440974
0.434042
0.42722
0.420516
0.413938
0.407493
0.401188
0.395033
0.389034
0.383201
0.377542
0.372065
0.366779
0.361692
0.356813
0.352151
0.347716
0.343515
0.339559
0.335856
0.332415
0.329247
0.32636
0.323764
0.321466
0.319475
0.317798
0.316443
0.315416
0.314721
0.314363
0.314347
0.314676
0.315355
0.316383
0.317762
0.319492
0.321569
0.32399
0.326755
0.329857
0.333292
0.33705
0.341123
0.345502
0.350174
0.35513
0.360357
0.365842
0.371569
0.377523
0.383688
0.390046
0.396577
0.403262
0.410081
0.417015
0.424043
0.431145
0.438298
0.44548
0.452667
0.459836
0.466967
0.474039
0.481026
0.487908
0.49466
0.501261
0.507687
0.513918
0.519932
0.52571
0.531233
0.536482
0.541441
0.546095
0.550428
0.554426
0.558078
0.561372
0.564297
0.566844
0.569006
0.570776
0.572148
0.573118
0.57368
0.573834
0.573575
0.572903
0.571816
0.570314
0.568396
0.566063
0.563316
0.560155
0.556582
0.552596
0.548199
0.543394
0.538182
0.532567
0.526551
0.520137
0.513333
0.506144
0.49858
0.490649
0.482359
0.47372
0.464741
0.455431
0.445796
0.435845
0.425582
0.415013
0.404144
0.39298
0.381525
0.369786
0.357771
0.345492
0.332961
0.320191
0.307198
0.293999
0.28061
0.267048
0.25333
0.239475
0.225499
0.211418
0.197249
0.183008
0.168709
0.154368
0.139998
0.125612
0.111225
0.0968469
0.0824912
0.0681688
0.0538905
0.0396668
0.0255075
0.0114218
-0.00258124
-0.0164935
-0.0303071
-0.044015
-0.0576106
-0.0710879
-0.0844415
-0.0976667
-0.110759
-0.123716
-0.136534
-0.14921
-0.161744
-0.174133
-0.186377
-0.198476
-0.21043
-0.222239
-0.233905
-0.245427
-0.256807
-0.268047
-0.279148
-0.290104
-0.300941
-0.311657
-0.322248
-0.332716
-0.343065
-0.353298
-0.363418
-0.373429
-0.383335
-0.393141
-0.402851
-0.412469
-0.422001
-0.431451
-0.440825
-0.450128
-0.459365
-0.468544
-0.477669
-0.486747
-0.495785
-0.50479
-0.513769
-0.522729
-0.531679
-0.540626
-0.54958
-0.558547
-0.567538
-0.57656
-0.585623
-0.594735
-0.603907
-0.613144
-0.622456
-0.631868
-0.641411
-0.651038
0.974438
0.970224
0.966
0.961412
0.957071
0.952726
0.948407
0.943962
0.939441
0.934866
0.930304
0.925636
0.920992
0.916232
0.911435
0.906627
0.901784
0.896893
0.891965
0.887007
0.882004
0.876957
0.871869
0.866742
0.861579
0.856379
0.851143
0.845871
0.840563
0.835222
0.829846
0.824437
0.818995
0.813521
0.808015
0.802476
0.796905
0.791301
0.785667
0.780001
0.774304
0.768577
0.762819
0.75703
0.751211
0.745362
0.739483
0.733575
0.727639
0.721673
0.71568
0.709659
0.703612
0.697539
0.69144
0.685317
0.679172
0.673004
0.666815
0.660606
0.65438
0.648137
0.641879
0.635607
0.629323
0.62303
0.616939
0.610606
0.60429
0.597996
0.591683
0.585385
0.579175
0.572743
0.566476
0.560227
0.553996
0.547787
0.541602
0.535446
0.529322
0.523233
0.517183
0.511175
0.505214
0.499302
0.493444
0.487645
0.481907
0.476235
0.470633
0.465107
0.459659
0.454295
0.449018
0.443834
0.438747
0.433762
0.428883
0.424115
0.419463
0.414931
0.410525
0.406249
0.402108
0.398106
0.39425
0.390542
0.386989
0.383595
0.380363
0.3773
0.374409
0.371695
0.369161
0.366811
0.36465
0.36268
0.360904
0.359326
0.357948
0.356772
0.355799
0.355032
0.35447
0.354114
0.353964
0.354019
0.354279
0.354741
0.355403
0.356263
0.357318
0.358563
0.359994
0.361607
0.363396
0.365355
0.367477
0.369755
0.372182
0.374749
0.377447
0.380268
0.383202
0.386239
0.389367
0.392577
0.395856
0.399193
0.402576
0.405993
0.40943
0.412874
0.416314
0.419734
0.423123
0.426466
0.42975
0.432962
0.436089
0.439117
0.442033
0.444824
0.44748
0.449986
0.452333
0.454507
0.4565
0.458299
0.459896
0.46128
0.462443
0.463376
0.464071
0.46452
0.464717
0.464656
0.464329
0.463733
0.462861
0.461709
0.460274
0.45855
0.456537
0.454229
0.451626
0.448724
0.445522
0.442019
0.438213
0.434105
0.429693
0.424978
0.41996
0.414642
0.409023
0.403106
0.396894
0.390389
0.383594
0.376513
0.36915
0.361509
0.353594
0.345411
0.336963
0.328255
0.319294
0.310084
0.300631
0.290942
0.281025
0.270886
0.260533
0.249975
0.239221
0.228282
0.217166
0.205884
0.194448
0.182867
0.171153
0.159317
0.147371
0.135324
0.123189
0.110975
0.0986936
0.0863551
0.0739697
0.0615474
0.0490978
0.0366305
0.0241546
0.011679
-0.000787672
-0.0132372
-0.0256617
-0.0380536
-0.0504059
-0.0627118
-0.0749649
-0.0871596
-0.0992905
-0.111353
-0.123342
-0.135253
-0.147085
-0.158833
-0.170495
-0.182068
-0.193552
-0.204944
-0.216245
-0.227452
-0.238566
-0.249586
-0.260513
-0.271347
-0.282088
-0.292738
-0.303294
-0.313766
-0.324152
-0.334457
-0.344682
-0.354827
-0.364896
-0.37489
-0.384813
-0.394667
-0.404455
-0.41418
-0.423847
-0.433458
-0.443018
-0.452532
-0.462002
-0.471435
-0.480835
-0.490208
-0.499558
-0.508892
-0.518216
-0.527536
-0.536859
-0.546192
-0.555542
-0.564916
-0.574321
-0.583764
-0.593255
-0.6028
-0.612407
-0.622082
-0.631832
-0.641682
-0.651668
-0.661732
0.890603
0.88731
0.883383
0.879785
0.876072
0.872382
0.86851
0.864705
0.860862
0.856982
0.853067
0.84912
0.845136
0.841117
0.837063
0.83298
0.828863
0.824716
0.820537
0.816329
0.812091
0.807824
0.803528
0.799205
0.794854
0.790476
0.786072
0.781642
0.777186
0.772706
0.768201
0.763672
0.759119
0.754543
0.749943
0.74532
0.740674
0.736006
0.731315
0.726602
0.721868
0.717111
0.712333
0.707534
0.702714
0.697873
0.693011
0.688128
0.683226
0.678304
0.673363
0.668402
0.663423
0.658427
0.653412
0.648381
0.643334
0.638271
0.633195
0.628104
0.623001
0.617887
0.612764
0.607631
0.602489
0.597342
0.59219
0.587038
0.581882
0.576695
0.571541
0.566388
0.561242
0.556069
0.550938
0.545818
0.540711
0.53562
0.530547
0.525494
0.520463
0.515457
0.510478
0.505529
0.500613
0.495731
0.490888
0.486084
0.481324
0.476609
0.471944
0.467329
0.462769
0.458266
0.453823
0.449442
0.445128
0.440883
0.436709
0.43261
0.428589
0.424648
0.42079
0.417019
0.413338
0.409748
0.406254
0.402857
0.39956
0.396367
0.393279
0.390299
0.387429
0.384672
0.38203
0.379504
0.377097
0.37481
0.372645
0.370603
0.368686
0.366893
0.365227
0.363688
0.362275
0.360989
0.35983
0.358798
0.357891
0.357108
0.356449
0.355912
0.355495
0.355195
0.355011
0.354938
0.354975
0.355118
0.355362
0.355705
0.35614
0.356665
0.357273
0.357959
0.358718
0.359544
0.36043
0.36137
0.362357
0.363385
0.364446
0.365532
0.366637
0.367752
0.36887
0.369982
0.37108
0.372157
0.373204
0.374213
0.375175
0.376082
0.376927
0.3777
0.378395
0.379002
0.379514
0.379923
0.380222
0.380403
0.380459
0.380383
0.380168
0.379808
0.379296
0.378625
0.377791
0.376787
0.375608
0.374249
0.372705
0.370972
0.369044
0.366919
0.364591
0.362059
0.359317
0.356364
0.353197
0.349812
0.346209
0.342385
0.338337
0.334066
0.32957
0.324848
0.319903
0.314725
0.309324
0.303697
0.297845
0.29177
0.285471
0.278952
0.272214
0.265258
0.258089
0.250708
0.243118
0.235324
0.227328
0.219135
0.21075
0.202178
0.193423
0.184491
0.175387
0.166119
0.156692
0.147114
0.13739
0.127528
0.117536
0.107421
0.097191
0.0868527
0.0764143
0.0658835
0.0552681
0.0445757
0.033814
0.0229905
0.0121127
0.00118798
-0.00977645
-0.0207735
-0.0317964
-0.0428384
-0.0538929
-0.0649539
-0.0760152
-0.0870713
-0.0981166
-0.109146
-0.120155
-0.131139
-0.142093
-0.153014
-0.163899
-0.174744
-0.185546
-0.196303
-0.207013
-0.217673
-0.228283
-0.238839
-0.249342
-0.259791
-0.270184
-0.28052
-0.2908
-0.301023
-0.311188
-0.321294
-0.331355
-0.341381
-0.351354
-0.361277
-0.371151
-0.380977
-0.390759
-0.400498
-0.410197
-0.419858
-0.429484
-0.439079
-0.448645
-0.458185
-0.467703
-0.477203
-0.486688
-0.496162
-0.505631
-0.515098
-0.524569
-0.53405
-0.543544
-0.553059
-0.5626
-0.572172
-0.581783
-0.591438
-0.601143
-0.610906
-0.620734
-0.630629
-0.640598
-0.650665
-0.660867
-0.671143
0.809418
0.806423
0.803446
0.800351
0.797269
0.794153
0.791006
0.787827
0.78462
0.781383
0.778117
0.774822
0.771499
0.768149
0.764771
0.761366
0.757935
0.754478
0.750996
0.747489
0.743957
0.7404
0.73682
0.733217
0.72959
0.725942
0.722271
0.718578
0.714864
0.711129
0.707373
0.703597
0.6998
0.695984
0.692149
0.688295
0.684421
0.680529
0.676618
0.67269
0.668743
0.664779
0.660796
0.656797
0.65278
0.648746
0.644695
0.640628