/*--------------------------------*- C++ -*----------------------------------*\
| =========                 |                                                 |
| \\      /  F ield         | OpenFOAM: The Open Source CFD Toolbox           |
|  \\    /   O peration     | Version:  2.4.0                                 |
|   \\  /    A nd           | Web:      www.OpenFOAM.org                      |
|    \\/     M anipulation  |                                                 |
\*---------------------------------------------------------------------------*/
FoamFile
{
    version     2.0;
    format      ascii;
    class       volScalarField;
    location    "5";
    object      p_rgh;
}
// * * * * * * * * * * * * * * * * * * * * * * * * * * * * * * * * * * * * * //

dimensions      [1 -1 -2 0 0 0 0];

internalField   nonuniform List<scalar> 
8000
(
30.0123
30.0192
30.0277
30.0361
30.0442
30.0524
30.0605
30.0686
30.0766
30.0846
30.0926
30.1006
30.1085
30.1164
30.1243
30.1322
30.14
30.1479
30.1557
30.1635
30.1713
30.1792
30.1871
30.195
30.203
30.2111
30.2192
30.2275
30.2359
30.2444
30.2531
30.262
30.2711
30.2804
30.29
30.3
30.3102
30.3211
30.3328
30.3469
30.3651
30.3858
30.3964
30.3882
30.3184
30.0959
29.6507
29.2716
25.4858
20.7417
30.4796
30.4836
30.4883
30.4932
30.4985
30.5043
30.5105
30.517
30.5239
30.5312
30.5388
30.5468
30.5551
30.5637
30.5728
30.5821
30.5919
30.602
30.6125
30.6234
30.6349
30.6465
30.6588
30.6715
30.6849
30.6988
30.7133
30.7285
30.7444
30.761
30.7785
30.7968
30.8161
30.8364
30.8582
30.8824
30.9096
30.9384
30.9593
30.9729
30.9368
30.7174
30.2094
29.7001
26.7657
22.8573
17.4911
12.9029
5.85624
-0.25122
31.0741
31.0793
31.0857
31.0923
31.0993
31.1065
31.1142
31.1221
31.1305
31.1392
31.1483
31.1577
31.1675
31.1776
31.1881
31.199
31.2105
31.2224
31.2343
31.2471
31.2605
31.2745
31.2892
31.3046
31.3207
31.3377
31.3555
31.3744
31.3942
31.415
31.4369
31.4604
31.4864
31.5155
31.544
31.5605
31.5569
31.3861
30.887
30.2438
27.3773
23.8279
18.9241
12.8554
8.56809
2.02037
-0.355809
1.22593
1.87131
1.74533
31.5433
31.5554
31.5692
31.5826
31.5955
31.6083
31.6208
31.6332
31.6455
31.6576
31.6696
31.6815
31.6932
31.7046
31.7161
31.7275
31.7387
31.7499
31.7611
31.7722
31.783
31.7939
31.8047
31.8155
31.8263
31.8372
31.848
31.8587
31.8696
31.8815
31.8955
31.9107
31.9141
31.882
31.6346
31.0371
30.1914
25.8364
21.0894
14.7753
8.89653
3.67144
-0.179771
0.532799
1.4712
1.62643
1.59404
1.59044
1.5946
1.59395
31.8093
31.8286
31.8489
31.8671
31.8834
31.8984
31.9119
31.9243
31.9354
31.9453
31.954
31.9616
31.9677
31.9729
31.9769
31.9798
31.9817
31.9826
31.9827
31.982
31.9795
31.9765
31.9727
31.9681
31.9628
31.9564
31.9488
31.941
31.9393
31.9538
31.9588
31.7978
31.1
29.9457
25.8977
20.0684
12.6216
6.04893
1.33516
0.270867
1.13062
1.49336
1.48866
1.49239
1.49088
1.49149
1.4903
1.49023
1.49117
1.49225
32.7454
32.7645
32.7858
32.805
32.8224
32.838
32.8522
32.865
32.8763
32.8863
32.8949
32.902
32.9077
32.912
32.915
32.9166
32.9168
32.9157
32.9133
32.9096
32.9044
32.8979
32.8901
32.8806
32.8692
32.8572
32.8511
32.8573
32.8425
32.653
31.9827
29.8779
23.2509
14.3224
6.04543
1.28162
0.648992
1.23697
1.41145
1.41758
1.42073
1.42431
1.42429
1.42394
1.42504
1.4244
1.42797
1.42812
1.42886
1.43076
33.3482
33.3726
33.3973
33.4178
33.4346
33.448
33.4585
33.4661
33.4707
33.4723
33.471
33.4667
33.4594
33.4492
33.4361
33.4201
33.4011
33.3791
33.3541
33.3262
33.2952
33.261
33.2227
33.1802
33.1389
33.1187
33.1248
33.0068
32.2727
30.7323
23.4829
11.4018
3.53443
0.89329
1.14166
1.35278
1.36941
1.36934
1.37098
1.37124
1.37142
1.37198
1.37276
1.37352
1.37415
1.37481
1.3801
1.37751
1.37763
1.37822
34.9791
34.9935
35.0082
35.0197
35.0284
35.0341
35.0373
35.0379
35.036
35.0313
35.0242
35.0144
35.0021
34.987
34.9693
34.9489
34.9256
34.8996
34.8706
34.8385
34.8031
34.7639
34.7221
34.6839
34.6554
34.6019
34.3684
33.792
30.1556
14.2172
2.88542
1.05681
1.27417
1.33459
1.3298
1.32954
1.32998
1.33022
1.33064
1.33111
1.33154
1.33194
1.33228
1.33259
1.33281
1.33304
1.33422
1.33299
1.33304
1.33305
36.8582
36.8541
36.8488
36.8428
36.8364
36.8285
36.82
36.8106
36.8005
36.789
36.7767
36.7634
36.7491
36.7339
36.7176
36.7004
36.6822
36.6631
36.6428
36.621
36.5977
36.5756
36.5639
36.5644
36.5038
36.1515
35.4587
27.3861
6.60725
1.32613
1.27458
1.29801
1.29835
1.2987
1.29889
1.29924
1.29956
1.29993
1.30026
1.30055
1.30082
1.30105
1.30126
1.30143
1.30157
1.30168
1.30176
1.3018
1.30182
1.30181
38.9805
38.9617
38.9413
38.9222
38.9048
38.887
38.8701
38.8537
38.8375
38.8218
38.8064
38.7914
38.7768
38.7626
38.7487
38.7353
38.7223
38.7096
38.6969
38.6842
38.6741
38.6749
38.6881
38.6456
38.3374
37.7379
27.263
4.35399
1.34682
1.27202
1.27186
1.27196
1.27203
1.27215
1.2724
1.27261
1.2728
1.27298
1.27316
1.27332
1.27347
1.2736
1.27372
1.27383
1.27393
1.274
1.27407
1.27411
1.27413
1.27414
40.8693
40.8442
40.817
40.7919
40.7694
40.7467
40.7258
40.7059
40.6866
40.6688
40.6518
40.6357
40.6207
40.6066
40.5936
40.5815
40.5705
40.5602
40.5506
40.5425
40.5404
40.5486
40.5434
40.4181
40.0649
34.0315
7.04528
1.38139
1.25161
1.24747
1.24734
1.24743
1.24755
1.24767
1.24778
1.24789
1.248
1.24812
1.24824
1.24836
1.24847
1.24859
1.2487
1.24881
1.24892
1.24902
1.24912
1.24922
1.24931
1.24939
42.5722
42.548
42.5217
42.4973
42.4756
42.4529
42.4324
42.4127
42.3934
42.3755
42.3584
42.3422
42.3268
42.3124
42.2988
42.2861
42.2741
42.2622
42.2505
42.2445
42.2583
42.2869
42.1935
41.6185
40.5549
16.2903
1.74652
1.23647
1.22225
1.22172
1.22179
1.22187
1.22196
1.22205
1.22215
1.22224
1.22234
1.22243
1.22253
1.22263
1.22273
1.22282
1.22292
1.22301
1.22311
1.2232
1.22329
1.22338
1.22347
1.22356
44.0917
44.0705
44.0474
44.0257
44.0065
43.9855
43.9669
43.949
43.9312
43.9147
43.8987
43.8834
43.8689
43.855
43.8419
43.8294
43.8173
43.8055
43.7956
43.7944
43.8055
43.7831
43.5605
43.0521
31.0975
3.74483
1.24752
1.1976
1.1957
1.19576
1.19588
1.19599
1.1961
1.1962
1.1963
1.19639
1.19648
1.19656
1.19664
1.19671
1.19678
1.19683
1.19688
1.19692
1.19696
1.19699
1.19701
1.19702
1.19703
1.19703
45.5108
45.4933
45.4743
45.4564
45.4402
45.4218
45.4063
45.3912
45.376
45.3619
45.3482
45.3349
45.3222
45.3101
45.2984
45.287
45.2755
45.2642
45.2588
45.2714
45.2891
45.1719
44.6151
41.2776
9.66672
1.3333
1.17637
1.17161
1.17151
1.17156
1.17163
1.17169
1.17174
1.17178
1.17182
1.17184
1.17185
1.17185
1.17184
1.17182
1.17178
1.17173
1.17167
1.17159
1.17149
1.17138
1.17125
1.1711
1.17094
1.17076
46.8454
46.8313
46.816
46.8041
46.7901
46.7767
46.7638
46.7511
46.7383
46.7263
46.7145
46.703
46.6919
46.6813
46.6708
46.6597
46.6481
46.6421
46.6605
46.7037
46.6118
45.9088
44.5969
19.2899
1.65885
1.15941
1.14949
1.14923
1.14931
1.14942
1.14952
1.14962
1.1497
1.14976
1.14981
1.14984
1.14986
1.14987
1.14986
1.14983
1.14979
1.14974
1.14966
1.14957
1.14947
1.14934
1.1492
1.14904
1.14885
1.14865
48.1289
48.1181
48.1062
48.098
48.0855
48.0745
48.0634
48.052
48.0406
48.0292
48.0177
48.0062
47.9947
47.9831
47.9711
47.9585
47.9472
47.9448
47.9565
47.9323
47.6791
47.0739
29.6133
2.35434
1.14552
1.13
1.12958
1.12963
1.12975
1.12987
1.12999
1.13008
1.13017
1.13024
1.13029
1.13033
1.13036
1.13038
1.13038
1.13037
1.13035
1.13031
1.13026
1.1302
1.13012
1.13003
1.12992
1.1298
1.12967
1.12952
49.4111
49.402
49.3918
49.3852
49.3727
49.3628
49.3526
49.3418
49.3309
49.3198
49.3085
49.2969
49.285
49.2727
49.2594
49.2459
49.2377
49.2448
49.2481
49.1072
48.5801
38.2168
3.49495
1.13245
1.1128
1.11232
1.11235
1.11245
1.11257
1.11268
1.11279
1.11288
1.11296
1.11302
1.11308
1.11312
1.11316
1.11318
1.11319
1.1132
1.11319
1.11318
1.11315
1.11312
1.11307
1.11302
1.11295
1.11288
1.11279
1.11269
50.8089
50.7992
50.7887
50.7814
50.7691
50.7603
50.7517
50.7429
50.7345
50.7264
50.7185
50.7108
50.7031
50.6947
50.6862
50.685
50.7077
50.7394
50.5949
49.8557
45.0388
5.63638
1.12098
1.09724
1.09681
1.09681
1.09691
1.09703
1.09713
1.09724
1.09733
1.09741
1.09749
1.09756
1.09761
1.09766
1.0977
1.09774
1.09776
1.09778
1.09779
1.0978
1.0978
1.0978
1.09779
1.09777
1.09775
1.09772
1.09769
1.09765
52.1275
52.1184
52.1089
52.1017
52.0906
52.0835
52.0768
52.0703
52.0645
52.0592
52.0545
52.0499
52.0439
52.0366
52.0405
52.0933
52.1959
52.0241
50.6089
47.9753
9.06995
1.11312
1.08272
1.0822
1.08219
1.08229
1.0824
1.08251
1.08261
1.0827
1.08278
1.08286
1.08292
1.08298
1.08303
1.08307
1.08311
1.08313
1.08315
1.08316
1.08317
1.08317
1.08316
1.08315
1.08314
1.08311
1.08309
1.08306
1.08302
1.08299
53.3419
53.3354
53.3307
53.3241
53.3172
53.3106
53.3038
53.2968
53.2898
53.2826
53.2751
53.2668
53.2573
53.2519
53.2663
53.3029
53.2321
52.6501
51.5178
16.5063
1.12708
1.06916
1.06888
1.06884
1.06891
1.069
1.06908
1.06915
1.06922
1.06929
1.06934
1.06939
1.06942
1.06945
1.06947
1.06948
1.06948
1.06948
1.06946
1.06944
1.06941
1.06938
1.06933
1.06928
1.06923
1.06916
1.06909
1.06902
1.06894
1.06885
16.7412
7.06931
0.396998
1.8859
2.26134
2.18547
2.19392
2.19595
2.19184
2.20786
2.19424
2.20148
2.19879
2.19395
2.18912
2.19323
2.1826
2.15911
2.14955
2.15295
2.1434
2.13133
2.14059
2.14144
2.06982
2.15202
2.07912
2.06897
2.05839
2.04625
1.99402
1.98357
2.0862
1.86365
1.85514
1.84252
1.80985
1.80092
1.8247
1.72783
1.7175
1.70592
1.69404
1.69476
1.6805
1.66021
1.71846
1.67581
1.6623
1.65465
1.38832
2.14383
1.95676
1.9316
1.93837
1.93829
1.93959
1.94154
1.94534
1.95836
1.9442
1.94148
1.93893
1.93467
1.92962
1.924
1.91861
1.91091
1.90147
1.89346
1.88567
1.87899
1.87864
1.85483
1.86205
1.83033
1.82045
1.85141
1.76697
1.79373
1.76446
1.75541
1.74212
1.75321
1.72146
1.7108
1.70909
1.67347
1.67926
1.62979
1.62423
1.61235
1.60666
1.59664
1.58469
1.58058
1.57248
1.5614
1.55351
1.54622
1.7413
1.74458
1.74125
1.73768
1.74008
1.74263
1.74473
1.7475
1.76074
1.75783
1.7551
1.75222
1.7503
1.74705
1.7441
1.73861
1.73301
1.7271
1.72074
1.71418
1.70739
1.70028
1.69308
1.694
1.68554
1.68512
1.66935
1.66176
1.68326
1.63582
1.64216
1.62782
1.62851
1.60699
1.59916
1.5904
1.59049
1.5756
1.58466
1.56232
1.55411
1.54693
1.54018
1.53026
1.52488
1.5142
1.50653
1.49961
1.49127
1.48386
1.59297
1.59391
1.59543
1.59664
1.59821
1.59945
1.60076
1.60217
1.60959
1.59382
1.59183
1.5902
1.58846
1.58617
1.58476
1.58113
1.57823
1.57529
1.5723
1.56926
1.56622
1.56315
1.56001
1.55697
1.55487
1.55126
1.54737
1.54325
1.55001
1.54179
1.53407
1.5304
1.52206
1.51903
1.50975
1.50464
1.50121
1.49469
1.4893
1.48764
1.47714
1.47119
1.46529
1.45943
1.45326
1.4472
1.44077
1.43429
1.42792
1.42133
1.49314
1.49414
1.50279
1.50004
1.50754
1.50494
1.50561
1.51347
1.49501
1.4933
1.49192
1.49051
1.4888
1.48706
1.486
1.48255
1.48047
1.47839
1.47629
1.47421
1.47214
1.47006
1.46797
1.46583
1.46362
1.46128
1.45877
1.45609
1.45366
1.45149
1.44728
1.44434
1.44047
1.43785
1.43335
1.42917
1.42529
1.42088
1.41642
1.41303
1.40751
1.40268
1.39784
1.39291
1.38789
1.38279
1.37761
1.37236
1.36703
1.36162
1.4314
1.43211
1.43342
1.43685
1.43307
1.44224
1.43609
1.44857
1.43524
1.4339
1.43295
1.43203
1.43075
1.42937
1.42837
1.42639
1.42455
1.42258
1.42048
1.41826
1.41593
1.41348
1.41092
1.40827
1.40551
1.40266
1.39971
1.39666
1.39351
1.39029
1.38698
1.38359
1.3801
1.37652
1.37287
1.36913
1.3653
1.3614
1.35741
1.35339
1.34925
1.34505
1.3408
1.33648
1.33208
1.32764
1.32314
1.31859
1.31399
1.30934
1.37837
1.37858
1.37917
1.3796
1.37985
1.37949
1.37913
1.384
1.37771
1.37615
1.37545
1.37482
1.37413
1.37315
1.37224
1.37143
1.37085
1.36754
1.36598
1.36429
1.36243
1.36041
1.35822
1.35587
1.35337
1.35073
1.34797
1.34509
1.34212
1.33904
1.33589
1.33265
1.32933
1.32595
1.3225
1.31901
1.31543
1.31182
1.30814
1.30441
1.30064
1.29681
1.29294
1.28902
1.28506
1.28107
1.27703
1.27296
1.26886
1.26472
1.33306
1.33296
1.33301
1.33313
1.3334
1.33398
1.33462
1.33423
1.33306
1.33134
1.33063
1.33004
1.32948
1.32876
1.32793
1.32715
1.32707
1.32543
1.32397
1.32253
1.32092
1.31909
1.31707
1.31489
1.31254
1.31004
1.3074
1.30463
1.30175
1.29877
1.2957
1.29255
1.28933
1.28604
1.2827
1.27931
1.27586
1.27238
1.26885
1.26529
1.26169
1.25806
1.2544
1.2507
1.24698
1.24324
1.23947
1.23568
1.23187
1.22804
1.30177
1.30169
1.3016
1.30149
1.30154
1.30179
1.30202
1.30962
1.30083
1.29951
1.29881
1.29823
1.29769
1.29722
1.29659
1.29584
1.29502
1.29402
1.2929
1.295
1.2908
1.28892
1.28701
1.28498
1.28276
1.28038
1.27784
1.27515
1.27233
1.26938
1.26633
1.26316
1.25992
1.25661
1.25323
1.24981
1.24633
1.24282
1.23928
1.2357
1.23211
1.22849
1.22485
1.2212
1.21753
1.21385
1.21016
1.20646
1.20275
1.19903
1.27413
1.2741
1.27405
1.27397
1.27387
1.27377
1.27371
1.27378
1.27438
1.27371
1.27299
1.27266
1.27213
1.27156
1.27099
1.27092
1.2697
1.26908
1.26862
1.26784
1.26668
1.2652
1.26328
1.26124
1.25921
1.25713
1.25432
1.25261
1.2492
1.24637
1.24348
1.24043
1.23726
1.23398
1.23061
1.22717
1.22367
1.22012
1.21653
1.21291
1.20926
1.20559
1.2019
1.19821
1.1945
1.1908
1.18709
1.18338
1.17967
1.17596
1.24947
1.24954
1.2496
1.24966
1.24971
1.24974
1.24975
1.24973
1.24966
1.2496
1.24956
1.24952
1.25066
1.24962
1.24901
1.24847
1.2482
1.24725
1.24679
1.2464
1.24566
1.24452
1.24319
1.24155
1.23949
1.23754
1.23552
1.23275
1.23073
1.22923
1.225
1.22194
1.21888
1.21577
1.21252
1.20917
1.20572
1.20219
1.1986
1.19496
1.19128
1.18757
1.18384
1.18009
1.17633
1.17257
1.1688
1.16504
1.16129
1.15754
1.22364
1.22372
1.2238
1.22387
1.22394
1.224
1.22406
1.2241
1.22413
1.22415
1.22413
1.22408
1.22408
1.22599
1.22385
1.22348
1.22324
1.22288
1.22242
1.22195
1.22138
1.22074
1.22024
1.21927
1.21805
1.2163
1.21436
1.213
1.21089
1.20935
1.20844
1.2062
1.2005
1.19732
1.19431
1.19134
1.18828
1.1851
1.1818
1.17842
1.17496
1.17144
1.16786
1.16424
1.16059
1.15691
1.15322
1.14951
1.1458
1.14208
1.19702
1.197
1.19708
1.19694
1.19687
1.19681
1.19675
1.19667
1.19657
1.19646
1.19634
1.19619
1.19602
1.1959
1.1957
1.19528
1.19498
1.19462
1.1942
1.1937
1.19311
1.19244
1.19185
1.19157
1.19174
1.19029
1.18844
1.18677
1.1853
1.1835
1.18255
1.18146
1.17949
1.1755
1.17251
1.16977
1.16722
1.16462
1.16192
1.1592
1.15644
1.15345
1.15084
1.14727
1.14401
1.14073
1.13742
1.13406
1.13067
1.12724
1.17059
1.17034
1.17009
1.16984
1.16962
1.16925
1.16891
1.16855
1.16817
1.16777
1.16734
1.16688
1.16658
1.16591
1.16532
1.16472
1.16411
1.16344
1.16272
1.16196
1.16114
1.16031
1.15956
1.16276
1.16022
1.15816
1.15669
1.15537
1.15404
1.15271
1.15189
1.15331
1.15004
1.14743
1.14512
1.14325
1.1413
1.13924
1.13741
1.14736
1.1391
1.13551
1.13243
1.12968
1.127
1.12428
1.12149
1.11864
1.11573
1.11277
1.14843
1.14819
1.14793
1.14764
1.14733
1.147
1.14665
1.14627
1.14586
1.14543
1.14498
1.14462
1.1441
1.14354
1.14315
1.14254
1.14183
1.14119
1.14052
1.13984
1.13912
1.13838
1.13767
1.13702
1.13617
1.13527
1.13444
1.1336
1.13274
1.13192
1.13122
1.13362
1.12941
1.12955
1.12695
1.12688
1.12701
1.12612
1.12476
1.1228
1.11972
1.11696
1.11486
1.11305
1.11122
1.10928
1.10725
1.10513
1.10292
1.10063
1.12935
1.12917
1.12898
1.12877
1.12854
1.1283
1.12804
1.12777
1.12748
1.12718
1.12686
1.12652
1.12617
1.12579
1.1254
1.12499
1.12456
1.12412
1.12365
1.12317
1.12267
1.12215
1.12161
1.12106
1.12052
1.11998
1.11941
1.11879
1.11814
1.11748
1.11681
1.11616
1.11566
1.11553
1.11595
1.11496
1.11329
1.1118
1.11028
1.10858
1.10684
1.10535
1.104
1.10266
1.10127
1.09985
1.09825
1.09661
1.0949
1.09309
1.11258
1.11247
1.11234
1.1122
1.11205
1.11189
1.11173
1.11155
1.11136
1.11116
1.11095
1.11073
1.11054
1.1103
1.11005
1.10983
1.10953
1.10924
1.10894
1.10864
1.10833
1.108
1.10767
1.10732
1.10698
1.10665
1.10627
1.10584
1.10541
1.10496
1.10447
1.10397
1.10366
1.10353
1.10248
1.10175
1.10107
1.1004
1.0997
1.09901
1.09833
1.09765
1.09694
1.09624
1.09552
1.09476
1.09397
1.09316
1.0923
1.0914
1.09761
1.09756
1.09751
1.09746
1.0974
1.09734
1.09727
1.09721
1.09714
1.09707
1.09699
1.09692
1.09684
1.09677
1.09669
1.09661
1.09654
1.09646
1.09638
1.09631
1.09623
1.09616
1.09608
1.09601
1.09594
1.09587
1.0958
1.09573
1.09566
1.09558
1.09549
1.0954
1.0953
1.0952
1.09524
1.09503
1.09484
1.09469
1.09452
1.09434
1.09414
1.09391
1.09366
1.09338
1.09306
1.09271
1.09231
1.09187
1.09139
1.09095
1.08295
1.0829
1.08285
1.08281
1.08275
1.0827
1.08265
1.08259
1.08254
1.08248
1.08243
1.08237
1.08232
1.08234
1.08223
1.08218
1.08214
1.0821
1.08216
1.08204
1.08201
1.08199
1.08198
1.08197
1.08197
1.08197
1.08197
1.08199
1.082
1.08203
1.08204
1.08207
1.08209
1.08211
1.08213
1.08214
1.08214
1.08213
1.0821
1.08204
1.08195
1.08184
1.08168
1.08148
1.08122
1.08077
1.08032
1.07978
1.07913
1.07876
1.06876
1.06867
1.06857
1.06847
1.06836
1.06825
1.06813
1.06801
1.06789
1.06777
1.06764
1.06751
1.06738
1.06725
1.06712
1.06699
1.06685
1.06672
1.06658
1.06645
1.06635
1.06618
1.06604
1.06591
1.06577
1.06564
1.0655
1.06537
1.06524
1.06511
1.06513
1.06487
1.06471
1.06456
1.06439
1.06422
1.06403
1.06384
1.06362
1.06339
1.06313
1.06285
1.06254
1.06219
1.06181
1.06138
1.06091
1.06039
1.05982
1.05923
1.65408
1.647
1.65044
1.63096
1.62979
1.63925
1.58267
1.57818
1.57639
1.54312
1.57995
1.54959
1.54345
1.54322
1.53652
1.52643
1.52818
1.50991
1.50347
1.49713
1.49041
1.485
1.47814
1.47013
1.46366
1.45738
1.44844
1.44118
1.43382
1.42627
1.41862
1.41083
1.40296
1.39499
1.38692
1.37885
1.37074
1.36258
1.35434
1.34602
1.33763
1.32916
1.32063
1.31204
1.30339
1.29467
1.28587
1.277
1.26806
1.25905
1.24997
1.24082
1.23161
1.22234
1.21301
1.20361
1.19415
1.18464
1.17506
1.16543
1.15575
1.14601
1.13622
1.12638
1.11651
1.10664
1.09661
1.08659
1.07655
1.06646
1.05635
1.04626
1.0361
1.02585
1.01564
1.00542
0.995187
0.984952
0.974718
0.964491
0.954277
0.944083
0.933915
0.923781
0.913689
0.903648
0.893666
0.883753
0.873918
0.864171
0.854521
0.844977
0.835551
0.826253
0.817093
0.808083
0.799235
0.790563
0.782079
0.7738
0.76574
0.757915
0.750343
0.743041
0.736027
0.72932
0.722935
0.716891
0.711207
0.705902
0.700995
0.696505
0.692452
0.688853
0.685714
0.683041
0.680867
0.679231
0.678126
0.677558
0.677553
0.678131
0.679301
0.681067
0.683428
0.68637
0.689912
0.69405
0.698791
0.704138
0.710088
0.716626
0.723733
0.731392
0.739598
0.748335
0.757596
0.767358
0.777599
0.788303
0.799442
0.810982
0.822894
0.835139
0.847681
0.86048
0.87351
0.886741
0.900132
0.913626
0.927164
0.940691
0.954169
0.967556
0.980803
0.99385
1.00665
1.01918
1.0314
1.04328
1.05478
1.06588
1.07654
1.08674
1.09645
1.10565
1.11432
1.12243
1.12999
1.13695
1.14332
1.14908
1.15422
1.15872
1.16259
1.16582
1.16841
1.17036
1.17168
1.17237
1.17242
1.17186
1.17069
1.16892
1.16657
1.16363
1.16012
1.15604
1.15139
1.14619
1.14044
1.13415
1.12731
1.11992
1.11198
1.10352
1.09459
1.08515
1.07523
1.06488
1.05415
1.04306
1.03166
1.01995
1.00795
0.995648
0.983041
0.970101
0.956798
0.94311
0.929033
0.914579
0.89975
0.884557
0.869028
0.853191
0.83708
0.82073
0.804181
0.787466
0.770622
0.753687
0.736684
0.719639
0.702574
0.685509
0.668463
0.651454
0.634497
0.617606
0.600796
0.584079
0.567468
0.550973
0.534606
0.518377
0.502296
0.486372
0.470613
0.455028
0.439623
0.424405
0.40938
0.394554
0.37993
0.365513
0.351305
0.337309
0.323527
0.309959
0.296607
0.283469
0.270545
0.257834
0.245335
0.233048
0.220962
0.209079
0.197399
0.185935
0.174647
0.163518
0.152568
0.141796
0.131195
0.120764
0.110497
0.100388
0.0904328
0.0806246
0.0709581
0.0614269
0.0520247
0.0427449
0.0335812
0.0245269
0.0155754
0.00671987
-0.00204675
-0.0107316
-0.019342
-0.0278855
-0.0363699
-0.0448033
-0.0531938
-0.0615503
-0.0698814
-0.0781965
-0.0865046
-0.0948155
-0.103139
-0.111483
-0.11986
-0.128278
-0.136748
-0.145278
-0.15388
-0.162575
-0.171394
-0.180299
1.5399
1.54331
1.53168
1.52681
1.52458
1.51811
1.51468
1.50755
1.50217
1.49796
1.49001
1.48672
1.48298
1.47264
1.46851
1.46249
1.45841
1.45082
1.44548
1.43938
1.43394
1.42772
1.42189
1.41602
1.41005
1.40401
1.39797
1.39173
1.38553
1.37927
1.37295
1.36658
1.36015
1.35367
1.34714
1.34055
1.33391
1.32722
1.32049
1.3137
1.30686
1.29998
1.29304
1.28606
1.27902
1.27193
1.2648
1.25762
1.2504
1.24313
1.23581
1.22845
1.22104
1.21359
1.2061
1.19857
1.191
1.18339
1.17575
1.16808
1.16037
1.15263
1.14487
1.13708
1.12926
1.12143
1.11367
1.10571
1.09782
1.08992
1.082
1.07421
1.06632
1.0584
1.0505
1.04262
1.03475
1.0269
1.01908
1.01128
1.00352
0.995798
0.988118
0.980486
0.972908
0.96539
0.957937
0.950555
0.94325
0.936028
0.928896
0.921861
0.914929
0.908108
0.901404
0.894825
0.88838
0.882075
0.87592
0.869922
0.864089
0.858429
0.852952
0.847666
0.842579
0.8377
0.833038
0.828603
0.824402
0.820446
0.816743
0.813303
0.810134
0.807248
0.804652
0.802354
0.800362
0.798685
0.797331
0.796303
0.795608
0.79525
0.795234
0.795564
0.796242
0.79727
0.798649
0.800379
0.802456
0.804877
0.807642
0.810745
0.814179
0.817937
0.82201
0.826389
0.831061
0.836017
0.841245
0.84673
0.852456
0.85841
0.864575
0.870933
0.877464
0.884149
0.890968
0.897902
0.90493
0.912032
0.919185
0.926367
0.933554
0.940723
0.947854
0.954926
0.961914
0.968795
0.975547
0.982148
0.988574
0.994805
1.00082
1.0066
1.01212
1.01737
1.02233
1.02698
1.03131
1.03531
1.03897
1.04226
1.04518
1.04773
1.04989
1.05166
1.05304
1.054
1.05457
1.05472
1.05446
1.05379
1.0527
1.0512
1.04928
1.04695
1.0442
1.04104
1.03747
1.03348
1.02909
1.02428
1.01907
1.01345
1.00744
1.00102
0.994219
0.98703
0.979467
0.971535
0.963246
0.954607
0.945628
0.936318
0.926683
0.916732
0.906469
0.8959
0.885031
0.873866
0.862411
0.850672
0.838658
0.826379
0.813847
0.801078
0.788085
0.774885
0.761496
0.747934
0.734217
0.720362
0.706385
0.692305
0.678136
0.663895
0.649596
0.635254
0.620884
0.606499
0.592111
0.577733
0.563378
0.549055
0.534777
0.520553
0.506394
0.492308
0.478305
0.464393
0.450579
0.436871
0.423276
0.409799
0.396445
0.38322
0.370127
0.35717
0.344353
0.331676
0.319143
0.306753
0.294509
0.28241
0.270456
0.258647
0.246982
0.235459
0.224079
0.212839
0.201738
0.190783
0.179946
0.169229
0.158639
0.14817
0.137821
0.127588
0.117468
0.107457
0.0975509
0.0877452
0.0780355
0.0684173
0.0588856
0.0494354
0.0400616
0.0307586
0.0215209
0.0123425
0.00321742
-0.00586081
-0.0148988
-0.0239036
-0.0328824
-0.0418428
-0.0507926
-0.0597401
-0.0686935
-0.0776612
-0.0866519
-0.0956742
-0.104737
-0.113849
-0.123021
-0.132258
-0.14157
-0.150982
-0.160525
-0.170152
1.47782
1.4736
1.46938
1.46476
1.46041
1.45604
1.45168
1.44723
1.44271
1.43813
1.43356
1.42889
1.42426
1.4195
1.41469
1.40989
1.40504
1.40015
1.39522
1.39026
1.38526
1.38021
1.37512
1.37
1.36483
1.35963
1.3544
1.34913
1.34382
1.33848
1.3331
1.32769
1.32225
1.31678
1.31127
1.30573
1.30016
1.29456
1.28892
1.28326
1.27756
1.27183
1.26607
1.26029
1.25447
1.24862
1.24274
1.23683
1.23089
1.22493
1.21894
1.21292
1.20687
1.20079
1.1947
1.18857
1.18243
1.17626
1.17007
1.16386
1.15764
1.15139
1.14513
1.13886
1.13258
1.12629
1.12021
1.11387
1.10755
1.10125
1.09494
1.08864
1.08244
1.076
1.06973
1.06348
1.05725
1.05104
1.04486
1.0387
1.03258
1.02649
1.02044
1.01443
1.00847
1.00256
0.996699
0.990899
0.985161
0.979489
0.973888
0.968361
0.962913
0.957549
0.952272
0.947088
0.942001
0.937016
0.932137
0.927369
0.922717
0.918185
0.913779
0.909503
0.905362
0.90136
0.897504
0.893796
0.890243
0.886849
0.883617
0.880554
0.877663
0.874949
0.872415
0.870065
0.867904
0.865934
0.864158
0.86258
0.861202
0.860026
0.859053
0.858285
0.857724
0.857368
0.857218
0.857273
0.857533
0.857995
0.858657
0.859517
0.860572
0.861817
0.863248
0.864861
0.86665
0.868609
0.870731
0.873009
0.875436
0.878002
0.880701
0.883522
0.886456
0.889493
0.892621
0.895831
0.89911
0.902447
0.90583
0.909246
0.912684
0.916128
0.919567
0.922988
0.926377
0.92972
0.933004
0.936216
0.939343
0.94237
0.945286
0.948078
0.950733
0.95324
0.955587
0.957761
0.959754
0.961553
0.96315
0.964534
0.965697
0.966629
0.967324
0.967774
0.967971
0.96791
0.967583
0.966987
0.966115
0.964963
0.963527
0.961804
0.95979
0.957483
0.954879
0.951978
0.948776
0.945273
0.941467
0.937358
0.932947
0.928232
0.923214
0.917895
0.912277
0.90636
0.900148
0.893642
0.886847
0.879766
0.872403
0.864762
0.856848
0.848664
0.840216
0.831509
0.822547
0.813337
0.803884
0.794196
0.784278
0.774139
0.763786
0.753228
0.742475
0.731535
0.720419
0.709138
0.697701
0.68612
0.674406
0.662571
0.650624
0.638577
0.626442
0.614228
0.601947
0.589608
0.577223
0.564801
0.552351
0.539884
0.527408
0.514932
0.502465
0.490016
0.477591
0.4652
0.452847
0.440541
0.428288
0.416093
0.403963
0.391901
0.379912
0.368
0.356168
0.34442
0.332759
0.321185
0.309701
0.298309
0.287008
0.275801
0.264687
0.253667
0.24274
0.231906
0.221165
0.210515
0.199959
0.189487
0.179101
0.168796
0.158571
0.148426
0.138357
0.128363
0.11844
0.108586
0.0987981
0.0890726
0.079406
0.0697948
0.0602347
0.0507215
0.0412508
0.0318178
0.0224178
0.0130453
0.00369489
-0.00563921
-0.0149632
-0.0242833
-0.0336064
-0.0429392
-0.0522888
-0.0616625
-0.0710676
-0.0805114
-0.0900017
-0.0995466
-0.109154
-0.118829
-0.128579
-0.138429
-0.148415
-0.158479
1.41624
1.41296
1.40902
1.40542
1.4017
1.39802
1.39414
1.39033
1.38649
1.38261
1.37869
1.37474
1.37076
1.36674
1.36269
1.3586
1.35448
1.35034
1.34616
1.34195
1.33771
1.33344
1.32915
1.32483
1.32047
1.3161
1.31169
1.30726
1.30281
1.29833
1.29382
1.28929
1.28474
1.28016
1.27556
1.27094
1.2663
1.26163
1.25694
1.25222
1.24749
1.24273
1.23796
1.23316
1.22834
1.2235
1.21863
1.21375
1.20885
1.20393
1.19899
1.19403
1.18905
1.18405
1.17904
1.174
1.16896
1.16389
1.15882
1.15373
1.14862
1.14351
1.13839
1.13325
1.12811
1.12297
1.11782
1.11267
1.10751
1.10232
1.09717
1.09201
1.08687
1.08169
1.07656
1.07144
1.06633
1.06124
1.05617
1.05112
1.04608
1.04108
1.0361
1.03115
1.02623
1.02135
1.01651
1.01171
1.00695
1.00223
0.997565
0.99295
0.98839
0.983887
0.979444
0.975063
0.970749
0.966504
0.96233
0.958231
0.954209
0.950269
0.946411
0.94264
0.938959
0.935369
0.931875
0.928478
0.925181
0.921988
0.9189
0.91592
0.91305
0.910293
0.90765
0.905125
0.902718
0.900431
0.898266
0.896224
0.894306
0.892514
0.890848
0.889308
0.887896
0.88661
0.885451
0.884418
0.883511
0.882729
0.88207
0.881533
0.881115
0.880816
0.880631
0.880559
0.880596
0.880738
0.880983
0.881325
0.881761
0.882285
0.882893
0.88358
0.884339
0.885164
0.88605
0.88699
0.887978
0.889006
0.890066
0.891153
0.892258
0.893373
0.89449
0.895602
0.896701
0.897778
0.898825
0.899833
0.900796
0.901703
0.902548
0.903321
0.904015
0.904622
0.905135
0.905544
0.905843
0.906024
0.90608
0.906004
0.905789
0.905429
0.904916
0.904246
0.903412
0.902408
0.901229
0.89987
0.898326
0.896592
0.894665
0.892539
0.890212
0.887679
0.884938
0.881985
0.878817
0.875433
0.87183
0.868005
0.863958
0.859687
0.855191
0.850469
0.845525
0.840345
0.834944
0.829318
0.823466
0.81739
0.811092
0.804573
0.797834
0.790879
0.783709
0.776328
0.768738
0.760944
0.752948
0.744756
0.736371
0.727798
0.719043
0.710111
0.701008
0.691739
0.682312
0.672734
0.66301
0.653149
0.643157
0.633042
0.622811
0.612473
0.602034
0.591504
0.580888
0.570196
0.559434
0.54861
0.537733
0.526808
0.515844
0.504846
0.493824
0.482782
0.471727
0.460666
0.449605
0.438549
0.427503
0.416474
0.405465
0.394481
0.383527
0.372606
0.361721
0.350876
0.340074
0.329317
0.318607
0.307947
0.297337
0.286781
0.276277
0.265829
0.255436
0.245099
0.23482
0.224597
0.214432
0.204326
0.194264
0.184238
0.174265
0.164343
0.154469
0.144643
0.134861
0.125122
0.115423
0.105762
0.0961354
0.0865408
0.076975
0.0674348
0.0579168
0.0484172
0.0389323
0.0294577
0.019989
0.0105216
0.00105035
-0.00842982
-0.0179244
-0.0274392
-0.0369798
-0.0465525
-0.0561631
-0.0658179
-0.0755234
-0.0852867
-0.0951142
-0.105009
-0.114978
-0.125045
-0.135247
-0.145523
1.35741
1.35442
1.35144
1.34834
1.34526
1.34214
1.339
1.33582
1.33261
1.32937
1.32611
1.32281
1.31949
1.31614
1.31276
1.30935
1.30592
1.30247
1.29898
1.29548
1.29194
1.28839
1.28481
1.2812
1.27758
1.27393
1.27026
1.26657
1.26285
1.25912
1.25536
1.25158
1.24779
1.24397
1.24014
1.23628
1.23241
1.22852
1.22461
1.22068
1.21673
1.21277
1.20879
1.20479
1.20077
1.19674
1.19268
1.18862
1.18453
1.18043
1.17632
1.17218
1.16804
1.16387
1.1597
1.1555
1.1513
1.14708
1.14284
1.1386
1.13434
1.13007
1.12579
1.1215
1.11724
1.11293
1.10861
1.10429
1.09997
1.09564
1.09133
1.08697
1.08264
1.07831
1.07398
1.06966
1.06535
1.06104
1.05674
1.05245
1.04817
1.04391
1.03967
1.03544
1.03123
1.02704
1.02287
1.01873
1.01462
1.01053
1.00648
1.00245
0.998464
0.99451
0.990595
0.986719
0.982885
0.979095
0.97535
0.971653
0.968005
0.964409
0.960866
0.957378
0.953946
0.950573
0.947261
0.94401
0.940824
0.937702
0.934647
0.931661
0.928745
0.925899
0.923126
0.920426
0.917801
0.915252
0.912779
0.910384
0.908067
0.905828
0.903668
0.901587
0.899586
0.897664
0.895822
0.894058
0.892373
0.890766
0.889236
0.887782
0.886403
0.885098
0.883865
0.882702
0.881608
0.88058
0.879617
0.878715
0.877872
0.877086
0.876353
0.875669
0.875033
0.874439
0.873885
0.873366
0.872878
0.872418
0.87198
0.871561
0.871155
0.870757
0.870364
0.869969
0.869569
0.869157
0.868728
0.868277
0.867799
0.867288
0.86674
0.866147
0.865506
0.86481
0.864055
0.863234
0.862343
0.861377
0.860329
0.859196
0.857972
0.856652
0.855231
0.853704
0.852068
0.850317
0.848448
0.846455
0.844336
0.842085
0.8397
0.837177
0.834512
0.831702
0.828744
0.825636
0.822373
0.818955
0.815378
0.811639
0.807737
0.803672
0.79944
0.795046
0.790471
0.785733
0.780824
0.775743
0.77049
0.765066
0.75947
0.753702
0.747763
0.741656
0.735375
0.728928
0.722315
0.715537
0.708595
0.701493
0.694232
0.686816
0.679246
0.671527
0.663662
0.655654
0.647507
0.639226
0.630814
0.622277
0.613618
0.604844
0.595958
0.586965
0.577872
0.568684
0.559405
0.550041
0.540598
0.531082
0.521497
0.511849
0.502145
0.492388
0.482584
0.472739
0.462858
0.452945
0.443005
0.433043
0.423064
0.413071
0.403069
0.393061
0.383051
0.373043
0.363039
0.353043
0.343057
0.333084
0.323127
0.313186
0.303265
0.293364
0.283486
0.273631
0.263801
0.253997
0.244219
0.234467
0.224743
0.215045
0.205375
0.195735
0.186118
0.176524
0.166954
0.157406
0.14788
0.138372
0.128883
0.119411
0.109952
0.100506
0.0910703
0.0816416
0.0722178
0.062796
0.0533732
0.043946
0.034511
0.0250644
0.0156024
0.00612069
-0.00338506
-0.0129194
-0.0224871
-0.0320931
-0.0417422
-0.0514395
-0.0611904
-0.0710009
-0.0808764
-0.0908186
-0.100832
-0.110941
-0.121183
-0.131494
1.30572
1.30316
1.30057
1.29796
1.29532
1.29266
1.28998
1.28727
1.28454
1.28178
1.279
1.2762
1.27338
1.27054
1.26767
1.26478
1.26187
1.25894
1.25599
1.25302
1.25003
1.24702
1.24399
1.24095
1.23788
1.23479
1.23169
1.22857
1.22543
1.22227
1.21909
1.2159
1.21269
1.20947
1.20623
1.20297
1.19969
1.1964
1.19309
1.18977