/*--------------------------------*- C++ -*----------------------------------*\
| =========                 |                                                 |
| \\      /  F ield         | OpenFOAM: The Open Source CFD Toolbox           |
|  \\    /   O peration     | Version:  2.4.0                                 |
|   \\  /    A nd           | Web:      www.OpenFOAM.org                      |
|    \\/     M anipulation  |                                                 |
\*---------------------------------------------------------------------------*/
FoamFile
{
    version     2.0;
    format      ascii;
    class       surfaceScalarField;
    location    "5";
    object      phi;
}
// * * * * * * * * * * * * * * * * * * * * * * * * * * * * * * * * * * * * * //

dimensions      [0 3 -1 0 0 0 0];

internalField   nonuniform List<scalar> 
15580
(
5.16846e-14
-1.86362e-12
2.30978e-13
-5.53469e-12
5.45732e-13
-9.14245e-12
9.96003e-13
-1.26821e-11
1.58192e-12
-1.61512e-11
2.30355e-12
-1.95482e-11
3.16071e-12
-2.28729e-11
4.15297e-12
-2.61254e-11
5.27969e-12
-2.93058e-11
6.54003e-12
-3.24138e-11
7.933e-12
-3.54494e-11
9.4575e-12
-3.84124e-11
1.11123e-11
-4.13026e-11
1.28961e-11
-4.41198e-11
1.48076e-11
-4.68636e-11
1.68453e-11
-4.95339e-11
1.90076e-11
-5.21304e-11
2.1293e-11
-5.46526e-11
2.36999e-11
-5.71003e-11
2.62265e-11
-5.94729e-11
2.88712e-11
-6.177e-11
3.1632e-11
-6.39911e-11
3.45071e-11
-6.61354e-11
3.74946e-11
-6.82025e-11
4.05925e-11
-7.01915e-11
4.37988e-11
-7.21016e-11
4.71113e-11
-7.39318e-11
5.0528e-11
-7.56812e-11
5.40466e-11
-7.73486e-11
5.76649e-11
-7.89327e-11
6.13808e-11
-8.04322e-11
6.5192e-11
-8.18455e-11
6.90963e-11
-8.31709e-11
7.30916e-11
-8.44066e-11
7.71759e-11
-8.55505e-11
8.13475e-11
-8.66004e-11
8.56051e-11
-8.75541e-11
8.99505e-11
-8.84115e-11
9.43903e-11
-8.91745e-11
9.89382e-11
-8.98459e-11
1.03637e-10
-9.04515e-11
1.08578e-10
-9.10392e-11
1.13604e-10
-9.13578e-11
1.18393e-10
-9.12409e-11
1.22245e-10
-9.07248e-11
1.24159e-10
-8.98077e-11
1.21683e-10
-9.03149e-11
1.12034e-10
-8.82267e-11
1.08262e-10
-8.3477e-11
-7.72484e-11
1.02638e-10
3.54499e-14
-1.89907e-12
1.39266e-13
-5.63851e-12
3.15872e-13
-9.31905e-12
5.72943e-13
-1.29392e-11
9.17753e-13
-1.6496e-11
1.35708e-12
-1.99875e-11
1.89711e-12
-2.34129e-11
2.54341e-12
-2.67717e-11
3.30101e-12
-3.00634e-11
4.1745e-12
-3.32873e-11
5.16809e-12
-3.6443e-11
6.28572e-12
-3.95301e-11
7.53108e-12
-4.2548e-11
8.90771e-12
-4.54964e-11
1.04191e-11
-4.8375e-11
1.20686e-11
-5.11835e-11
1.38597e-11
-5.39215e-11
1.57959e-11
-5.65888e-11
1.78808e-11
-5.91852e-11
2.01184e-11
-6.17105e-11
2.25127e-11
-6.41643e-11
2.50681e-11
-6.65465e-11
2.77895e-11
-6.88568e-11
3.0682e-11
-7.10951e-11
3.37515e-11
-7.3261e-11
3.70042e-11
-7.53543e-11
4.04471e-11
-7.73746e-11
4.40877e-11
-7.93218e-11
4.79345e-11
-8.11954e-11
5.19967e-11
-8.29949e-11
5.62845e-11
-8.472e-11
6.08091e-11
-8.63701e-11
6.55829e-11
-8.79448e-11
7.062e-11
-8.94438e-11
7.59388e-11
-9.08693e-11
8.15647e-11
-9.22263e-11
8.75312e-11
-9.35206e-11
9.39184e-11
-9.47988e-11
1.00554e-10
-9.58103e-11
1.0721e-10
-9.6502e-11
1.13444e-10
-9.68465e-11
1.17971e-10
-9.69264e-11
1.18577e-10
-9.79626e-11
1.08909e-10
-9.82558e-11
1.1049e-10
-9.48938e-11
1.11241e-10
-9.06748e-11
1.02939e-10
-8.20711e-11
6.22683e-11
-4.75717e-11
4.11591e-11
-6.23678e-11
-1.35712e-10
9.96224e-11
4.14951e-14
-1.94057e-12
1.76812e-13
-5.77382e-12
4.14633e-13
-9.55687e-12
7.6243e-13
-1.3287e-11
1.2274e-12
-1.69609e-11
1.81646e-12
-2.05766e-11
2.53616e-12
-2.41326e-11
3.39267e-12
-2.76283e-11
4.39186e-12
-3.10626e-11
5.53939e-12
-3.44349e-11
6.84082e-12
-3.77445e-11
8.30171e-12
-4.09909e-11
9.92767e-12
-4.41739e-11
1.17245e-11
-4.72932e-11
1.36982e-11
-5.03487e-11
1.5855e-11
-5.33403e-11
1.82016e-11
-5.62681e-11
2.07452e-11
-5.91325e-11
2.34935e-11
-6.19336e-11
2.64548e-11
-6.46718e-11
2.96381e-11
-6.73475e-11
3.30531e-11
-6.99615e-11
3.67105e-11
-7.25142e-11
4.06218e-11
-7.50064e-11
4.47997e-11
-7.74388e-11
4.92577e-11
-7.98123e-11
5.40109e-11
-8.21278e-11
5.90752e-11
-8.43861e-11
6.4468e-11
-8.65882e-11
7.0208e-11
-8.87349e-11
7.63152e-11
-9.08272e-11
8.28128e-11
-9.28677e-11
8.97313e-11
-9.48633e-11
9.71113e-11
-9.68238e-11
1.05009e-10
-9.8767e-11
1.12983e-10
-1.002e-10
1.20937e-10
-1.01475e-10
1.27583e-10
-1.02221e-10
1.3072e-10
-1.0371e-10
1.2243e-10
-1.0405e-10
1.22606e-10
-1.01862e-10
1.24537e-10
-9.89828e-11
1.20205e-10
-9.36942e-11
9.7825e-11
-7.58863e-11
5.72654e-11
-5.43342e-11
7.86017e-11
-1.12011e-10
1.08902e-10
-1.12371e-10
1.23423e-11
4.89877e-11
-1.53478e-10
1.03452e-10
1.8666e-10
-4.75849e-10
1.0396e-13
-2.04453e-12
4.24586e-13
-6.09445e-12
9.62364e-13
-1.00947e-11
1.71416e-12
-1.40388e-11
2.67742e-12
-1.79242e-11
3.85011e-12
-2.17493e-11
5.23067e-12
-2.55132e-11
6.81784e-12
-2.92154e-11
8.61075e-12
-3.28555e-11
1.0609e-11
-3.64331e-11
1.28126e-11
-3.99481e-11
1.52223e-11
-4.34006e-11
1.78392e-11
-4.67908e-11
2.06652e-11
-5.01192e-11
2.37029e-11
-5.33864e-11
2.69556e-11
-5.6593e-11
3.04276e-11
-5.97401e-11
3.41238e-11
-6.28287e-11
3.80505e-11
-6.58602e-11
4.22146e-11
-6.8836e-11
4.66247e-11
-7.17576e-11
5.12901e-11
-7.46269e-11
5.62218e-11
-7.74459e-11
6.14323e-11
-8.02168e-11
6.69353e-11
-8.29419e-11
7.27468e-11
-8.56238e-11
7.8884e-11
-8.8265e-11
8.53666e-11
-9.08687e-11
9.22163e-11
-9.3438e-11
9.94601e-11
-9.59787e-11
1.07132e-10
-9.84991e-11
1.15282e-10
-1.01018e-10
1.23472e-10
-1.03054e-10
1.31635e-10
-1.04987e-10
1.38357e-10
-1.06544e-10
1.39565e-10
-1.09477e-10
1.31438e-10
-1.08315e-10
1.35378e-10
-1.06323e-10
1.34712e-10
-1.03123e-10
1.2602e-10
-9.53784e-11
9.59875e-11
-7.18295e-11
8.53828e-11
-8.83781e-11
1.18016e-10
-1.26327e-10
3.95935e-11
2.5362e-12
-4.42076e-11
2.9467e-11
-2.20423e-10
6.42042e-11
-4.68604e-10
1.3581e-10
-6.94207e-10
2.74591e-10
-9.88052e-10
3.97297e-10
4.94607e-10
-1.296e-09
1.9625e-13
-2.24078e-12
7.39024e-13
-6.63722e-12
1.60062e-12
-1.09562e-11
2.76279e-12
-1.5201e-11
4.20856e-12
-1.937e-11
5.92201e-12
-2.34627e-11
7.88811e-12
-2.74793e-11
1.00926e-11
-3.14199e-11
1.25218e-11
-3.52847e-11
1.51629e-11
-3.90742e-11
1.80038e-11
-4.2789e-11
2.10329e-11
-4.64297e-11
2.42393e-11
-4.99973e-11
2.76129e-11
-5.34928e-11
3.1144e-11
-5.69175e-11
3.48237e-11
-6.02727e-11
3.86437e-11
-6.35601e-11
4.25963e-11
-6.67813e-11
4.66745e-11
-6.99383e-11
5.08718e-11
-7.30333e-11
5.51827e-11
-7.60685e-11
5.9602e-11
-7.90463e-11
6.41255e-11
-8.19694e-11
6.87494e-11
-8.48407e-11
7.34707e-11
-8.76632e-11
7.82869e-11
-9.044e-11
8.31961e-11
-9.31742e-11
8.81981e-11
-9.58707e-11
9.3298e-11
-9.85379e-11
9.85046e-11
-1.01185e-10
1.03535e-10
-1.03529e-10
1.07848e-10
-1.0581e-10
1.08963e-10
-1.09149e-10
8.74812e-11
-1.08682e-10
8.57894e-11
-1.07764e-10
8.17259e-11
-1.05481e-10
7.19803e-11
-9.85701e-11
4.09233e-11
-7.52662e-11
3.79455e-11
-1.00146e-10
4.21262e-11
-9.95591e-11
-4.64121e-11
1.67089e-11
-1.80438e-10
4.56475e-11
-4.06219e-10
9.94539e-11
-5.93464e-10
1.89781e-10
-8.35964e-10
2.71967e-10
-1.09232e-09
3.20557e-10
-1.34355e-09
3.87044e-10
-1.51315e-09
4.44191e-10
-1.60443e-09
4.88578e-10
5.27612e-10
-1.63744e-09
1.71866e-13
-2.41265e-12
6.91541e-13
-7.1569e-12
1.54174e-12
-1.18064e-11
2.69525e-12
-1.63545e-11
4.12532e-12
-2.08e-11
5.80556e-12
-2.5143e-11
7.70982e-12
-2.93835e-11
9.81215e-12
-3.35222e-11
1.20869e-11
-3.75594e-11
1.45084e-11
-4.14958e-11
1.70516e-11
-4.53322e-11
1.96913e-11
-4.90694e-11
2.24026e-11
-5.27086e-11
2.51609e-11
-5.62511e-11
2.79416e-11
-5.96981e-11
3.07202e-11
-6.30513e-11
3.34724e-11
-6.63123e-11
3.61741e-11
-6.9483e-11
3.8801e-11
-7.25653e-11
4.13292e-11
-7.55614e-11
4.37345e-11
-7.84738e-11
4.59929e-11
-8.13047e-11
4.80804e-11
-8.40569e-11
4.9973e-11
-8.67332e-11
5.16464e-11
-8.93366e-11
5.30777e-11
-9.18713e-11
5.42454e-11
-9.43419e-11
5.51243e-11
-9.67496e-11
5.53873e-11
-9.88009e-11
5.49568e-11
-1.00755e-10
4.81213e-11
-1.03247e-10
2.8411e-11
-1.03457e-10
2.21051e-11
-1.02959e-10
1.39606e-11
-1.0055e-10
-8.71644e-12
-8.50872e-11
-5.93839e-11
-5.48132e-11
-5.51671e-11
-1.02787e-10
-1.00536e-10
-2.98973e-11
-2.16266e-10
1.55842e-11
-3.67674e-10
5.1849e-11
-4.90759e-10
1.39794e-10
-6.46749e-10
2.01638e-10
-8.02052e-10
2.54758e-10
-9.11028e-10
2.98757e-10
-9.66272e-10
3.2721e-10
-9.88328e-10
3.42613e-10
-9.57892e-10
3.56608e-10
-8.9069e-10
3.76989e-10
-8.06627e-10
4.04514e-10
4.40599e-10
-7.19613e-10
2.61692e-13
-2.67434e-12
9.66861e-13
-7.86207e-12
2.05748e-12
-1.28971e-11
3.4871e-12
-1.77841e-11
5.21112e-12
-2.25241e-11
7.18653e-12
-2.71184e-11
9.37163e-12
-3.15687e-11
1.17259e-11
-3.58764e-11
1.42097e-11
-4.00432e-11
1.67842e-11
-4.40703e-11
1.94113e-11
-4.79592e-11
2.20531e-11
-5.17113e-11
2.46723e-11
-5.53278e-11
2.72314e-11
-5.88102e-11
2.96931e-11
-6.21598e-11
3.20198e-11
-6.53781e-11
3.41738e-11
-6.84663e-11
3.61168e-11
-7.1426e-11
3.78101e-11
-7.42585e-11
3.92141e-11
-7.69654e-11
4.02886e-11
-7.95482e-11
4.09925e-11
-8.20086e-11
4.12835e-11
-8.4348e-11
4.11188e-11
-8.65685e-11
4.04542e-11
-8.86721e-11
3.92449e-11
-9.0662e-11
3.74422e-11
-9.25392e-11
3.49911e-11
-9.42985e-11
3.17186e-11
-9.66551e-11
-4.46994e-12
-9.67005e-11
-1.2858e-11
-9.65755e-11
-2.25961e-11
-9.3719e-11
-5.21825e-11
-7.3373e-11
-7.96981e-11
-7.30341e-11
-8.05357e-11
-8.42496e-11
-1.45118e-10
9.76876e-12
-2.88764e-10
4.08595e-11
-4.12161e-10
9.34994e-11
-5.45526e-10
1.4895e-10
-6.76973e-10
1.83296e-10
-7.39614e-10
2.02434e-10
-7.51626e-10
2.1365e-10
-7.20184e-10
2.23316e-10
-6.55229e-10
2.33802e-10
-5.74503e-10
2.46484e-10
-4.94242e-10
2.62352e-10
-4.17976e-10
2.80342e-10
-3.52399e-10
3.11413e-10
-2.9444e-10
3.46555e-10
3.87995e-10
-2.41837e-10
1.52585e-13
-2.82692e-12
5.74481e-13
-8.28396e-12
1.22502e-12
-1.35476e-11
2.06216e-12
-1.86212e-11
3.04542e-12
-2.35073e-11
4.13555e-12
-2.82085e-11
5.2942e-12
-3.27273e-11
6.48375e-12
-3.7066e-11
7.66712e-12
-4.12266e-11
8.8075e-12
-4.52107e-11
9.86816e-12
-4.90199e-11
1.08122e-11
-5.26553e-11
1.16025e-11
-5.61181e-11
1.22012e-11
-5.94089e-11
1.25698e-11
-6.25284e-11
1.26687e-11
-6.54769e-11
1.24569e-11
-6.82545e-11
1.18921e-11
-7.08612e-11
1.09301e-11
-7.32965e-11
9.52447e-12
-7.55598e-11
7.6264e-12
-7.76502e-11
5.18436e-12
-7.95665e-11
2.14383e-12
-8.13075e-11
-1.55319e-12
-8.28715e-11
-5.96949e-12
-8.42558e-11
-1.11754e-11
-8.54561e-11
-1.72451e-11
-8.64695e-11
-3.02702e-11
-8.74303e-11
-5.25839e-11
-8.8066e-11
-6.06483e-11
-8.86577e-11
-7.7166e-11
-8.00578e-11
-9.4848e-11
-7.6037e-11
-1.3031e-10
-3.79113e-11
-2.28545e-10
2.5201e-11
-3.6359e-10
5.07961e-11
-4.70906e-10
1.17085e-10
-5.88495e-10
1.58449e-10
-6.71432e-10
1.76436e-10
-7.07979e-10
1.85497e-10
-7.1662e-10
1.91937e-10
-7.12723e-10
1.98537e-10
-7.05908e-10
2.06835e-10
-6.99778e-10
2.17186e-10
-6.95667e-10
2.29691e-10
-6.93803e-10
2.4462e-10
-6.93746e-10
2.62295e-10
-6.96883e-10
2.83479e-10
-6.9384e-10
3.08369e-10
-6.85101e-10
3.37816e-10
3.71106e-10
-6.68212e-10
-2.35416e-14
-2.80338e-12
-1.13781e-13
-8.19372e-12
-2.86757e-13
-1.33746e-11
-5.57043e-13
-1.83509e-11
-9.39696e-13
-2.31247e-11
-1.45028e-12
-2.76979e-11
-2.10487e-12
-3.20727e-11
-2.92003e-12
-3.62508e-11
-3.91284e-12
-4.02338e-11
-5.10077e-12
-4.40228e-11
-6.50182e-12
-4.76188e-11
-8.13447e-12
-5.10227e-11
-1.00177e-11
-5.42348e-11
-1.2171e-11
-5.72556e-11
-1.46143e-11
-6.0085e-11
-1.73683e-11
-6.27229e-11
-2.04541e-11
-6.51688e-11
-2.38934e-11
-6.74219e-11
-2.77087e-11
-6.94813e-11
-3.19229e-11
-7.13456e-11
-3.65598e-11
-7.30133e-11
-4.16438e-11
-7.44826e-11
-4.72003e-11
-7.57509e-11
-5.32576e-11
-7.68142e-11
-5.98458e-11
-7.76676e-11
-6.69826e-11
-7.83192e-11
-8.8882e-11
-7.88854e-11
-1.07129e-10
-7.94063e-11
-1.14707e-10
-8.04881e-11
-1.20696e-10
-8.26688e-11
-1.55653e-10
-4.51001e-11
-2.50681e-10
1.89912e-11
-3.71301e-10
8.27083e-11
-4.86343e-10
1.40243e-10
-6.05851e-10
1.70304e-10
-6.72507e-10
1.8374e-10
-7.05843e-10
1.91785e-10
-7.27217e-10
1.97809e-10
-7.45671e-10
2.03951e-10
-7.64804e-10
2.1107e-10
-7.85653e-10
2.19385e-10
-8.0768e-10
2.28861e-10
-8.29908e-10
2.39414e-10
-8.51322e-10
2.51105e-10
-8.70795e-10
2.64094e-10
-8.87098e-10
2.78598e-10
-8.98451e-10
2.94832e-10
-9.03178e-10
3.13097e-10
-8.99197e-10
3.33835e-10
3.57593e-10
-8.85683e-10
-1.73349e-13
-2.63003e-12
-6.75967e-13
-7.69111e-12
-1.49666e-12
-1.25539e-11
-2.62808e-12
-1.72195e-11
-4.06424e-12
-2.16885e-11
-5.80045e-12
-2.59617e-11
-7.83314e-12
-3.004e-11
-1.01597e-11
-3.39243e-11
-1.27784e-11
-3.76151e-11
-1.56881e-11
-4.1113e-11
-1.88884e-11
-4.44186e-11
-2.23792e-11
-4.75319e-11
-2.61607e-11
-5.04534e-11
-3.02333e-11
-5.3183e-11
-3.45974e-11
-5.57209e-11
-3.92535e-11
-5.80668e-11
-4.42016e-11
-6.02207e-11
-4.94414e-11
-6.21821e-11
-5.4972e-11
-6.39506e-11
-6.07919e-11
-6.55257e-11
-6.68987e-11
-6.69065e-11
-7.32893e-11
-6.80919e-11
-7.99589e-11
-6.90813e-11
-8.6895e-11
-6.9878e-11
-9.40701e-11
-7.04924e-11
-1.14866e-10
-7.09464e-11
-1.33837e-10
-7.12831e-11
-1.41834e-10
-7.14097e-11
-1.53944e-10
-6.83772e-11
-2.06341e-10
-3.02724e-11
-3.01898e-10
5.04569e-11
-4.08409e-10
1.25503e-10
-4.93078e-10
1.67377e-10
-5.41967e-10
1.89132e-10
-5.72873e-10
2.0121e-10
-5.97989e-10
2.08856e-10
-6.21454e-10
2.1525e-10
-6.45362e-10
2.21718e-10
-6.70095e-10
2.28684e-10
-6.95243e-10
2.36218e-10
-7.20149e-10
2.44291e-10
-7.44168e-10
2.5288e-10
-7.66773e-10
2.62019e-10
-7.87468e-10
2.718e-10
-8.05741e-10
2.82367e-10
-8.21031e-10
2.93888e-10
-8.32728e-10
3.06529e-10
-8.40079e-10
3.20448e-10
-8.42229e-10
3.35985e-10
3.53477e-10
-8.38113e-10
-2.31318e-13
-2.39872e-12
-9.05373e-13
-7.01705e-12
-2.00336e-12
-1.14559e-11
-3.50782e-12
-1.57151e-11
-5.40261e-12
-1.97937e-11
-7.67277e-12
-2.36916e-11
-1.03044e-11
-2.74084e-11
-1.32845e-11
-3.09442e-11
-1.66009e-11
-3.42987e-11
-2.02422e-11
-3.74717e-11
-2.41977e-11
-4.04631e-11
-2.84569e-11
-4.32727e-11
-3.30101e-11
-4.59001e-11
-3.78479e-11
-4.83453e-11
-4.29609e-11
-5.06079e-11
-4.83401e-11
-5.26876e-11
-5.39766e-11
-5.45842e-11
-5.98613e-11
-5.62973e-11
-6.59853e-11
-5.78267e-11
-7.23389e-11
-5.9172e-11
-7.89122e-11
-6.03332e-11
-8.56944e-11
-6.13098e-11
-9.26769e-11
-6.20988e-11
-9.98616e-11
-6.26934e-11
-1.10231e-10
-6.30979e-11
-1.36269e-10
-6.34874e-11
-1.43961e-10
-6.35917e-11
-1.52901e-10
-6.24694e-11
-1.83262e-10
-3.80159e-11
-2.62812e-10
4.9277e-11
-3.43246e-10
1.30891e-10
-3.94877e-10
1.77134e-10
-4.28691e-10
2.01191e-10
-4.53163e-10
2.13604e-10
-4.72796e-10
2.20844e-10
-4.90165e-10
2.26225e-10
-5.06171e-10
2.31256e-10
-5.20962e-10
2.36508e-10
-5.34402e-10
2.42123e-10
-5.46273e-10
2.4809e-10
-5.56356e-10
2.54374e-10
-5.64448e-10
2.60972e-10
-5.70357e-10
2.67928e-10
-5.73886e-10
2.75329e-10
-5.74819e-10
2.83301e-10
-5.72922e-10
2.91991e-10
-5.67949e-10
3.01556e-10
-5.59667e-10
3.12165e-10
-5.47694e-10
3.24012e-10
3.37322e-10
-5.31539e-10
-2.21538e-13
-2.17718e-12
-8.67821e-13
-6.37077e-12
-1.92159e-12
-1.04022e-11
-3.36644e-12
-1.42702e-11
-5.18641e-12
-1.79738e-11
-7.36589e-12
-2.15121e-11
-9.88967e-12
-2.48846e-11
-1.27429e-11
-2.8091e-11
-1.59109e-11
-3.11306e-11
-1.93794e-11
-3.40032e-11
-2.31345e-11
-3.6708e-11
-2.71624e-11
-3.92448e-11
-3.14495e-11
-4.16131e-11
-3.59823e-11
-4.38124e-11
-4.07478e-11
-4.58424e-11
-4.57325e-11
-4.77029e-11
-5.09233e-11
-4.93934e-11
-5.63069e-11
-5.09138e-11
-6.18698e-11
-5.22638e-11
-6.75984e-11
-5.34433e-11
-7.34798e-11
-5.44518e-11
-7.95004e-11
-5.52892e-11
-8.56392e-11
-5.59599e-11
-9.18524e-11
-5.64802e-11
-1.2995e-10
-5.69075e-11
-1.36385e-10
-5.70815e-11
-1.43092e-10
-5.68844e-11
-1.5815e-10
-4.74114e-11
-2.16693e-10
2.05264e-11
-2.80337e-10
1.12921e-10
-3.1854e-10
1.69094e-10
-3.39852e-10
1.98447e-10
-3.51875e-10
2.13214e-10
-3.59255e-10
2.20984e-10
-3.64316e-10
2.25905e-10
-3.68057e-10
2.29966e-10
-3.70768e-10
2.33966e-10
-3.72388e-10
2.38128e-10
-3.72707e-10
2.42442e-10
-3.71459e-10
2.46842e-10
-3.68363e-10
2.51279e-10
-3.63142e-10
2.55751e-10
-3.55518e-10
2.60304e-10
-3.45215e-10
2.65026e-10
-3.31948e-10
2.70033e-10
-3.15422e-10
2.75465e-10
-2.95337e-10
2.81471e-10
-2.7138e-10
2.88208e-10
-2.43207e-10
2.95839e-10
3.04541e-10
-2.10426e-10
-1.90953e-13
-1.98622e-12
-7.52249e-13
-5.80947e-12
-1.67181e-12
-9.48261e-12
-2.93746e-12
-1.30046e-11
-4.53723e-12
-1.6374e-11
-6.45939e-12
-1.95899e-11
-8.69239e-12
-2.26516e-11
-1.12249e-11
-2.55585e-11
-1.40458e-11
-2.83098e-11
-1.71441e-11
-3.09048e-11
-2.05092e-11
-3.33429e-11
-2.41307e-11
-3.56234e-11
-2.79982e-11
-3.77455e-11
-3.21018e-11
-3.97087e-11
-3.64319e-11
-4.15124e-11
-4.0979e-11
-4.31558e-11
-4.5734e-11
-4.46384e-11
-5.06882e-11
-4.59596e-11
-5.58332e-11
-4.71188e-11
-6.11611e-11
-4.81154e-11
-6.66633e-11
-4.89496e-11
-7.23285e-11
-4.9624e-11
-7.81463e-11
-5.01421e-11
-9.24427e-11
-5.04986e-11
-1.17626e-10
-5.08329e-11
-1.23854e-10
-5.08543e-11
-1.33257e-10
-4.74804e-11
-1.76617e-10
-4.05161e-12
-2.41331e-10
8.52399e-11
-2.77821e-10
1.49412e-10
-2.92704e-10
1.83977e-10
-2.95897e-10
2.0164e-10
-2.93522e-10
2.10839e-10
-2.88866e-10
2.16328e-10
-2.83412e-10
2.2045e-10
-2.77623e-10
2.24178e-10
-2.7145e-10
2.27794e-10
-2.64619e-10
2.31297e-10
-2.56785e-10
2.34608e-10
-2.47604e-10
2.37662e-10
-2.36765e-10
2.40439e-10
-2.23983e-10
2.4297e-10
-2.09002e-10
2.45323e-10
-1.91571e-10
2.47595e-10
-1.71435e-10
2.49897e-10
-1.48318e-10
2.52348e-10
-1.21915e-10
2.55068e-10
-9.18829e-11
2.58176e-10
-5.78369e-11
2.61793e-10
2.66032e-10
-1.93285e-11
-1.56203e-13
-1.83002e-12
-6.1618e-13
-5.3495e-12
-1.3715e-12
-8.72729e-12
-2.41381e-12
-1.19623e-11
-3.73496e-12
-1.50528e-11
-5.32683e-12
-1.7998e-11
-7.18148e-12
-2.0797e-11
-9.29088e-12
-2.34491e-11
-1.1647e-11
-2.59537e-11
-1.42417e-11
-2.83101e-11
-1.70669e-11
-3.05177e-11
-2.01144e-11
-3.25759e-11
-2.3376e-11
-3.44839e-11
-2.68433e-11
-3.62414e-11
-3.05079e-11
-3.78477e-11
-3.43614e-11
-3.93023e-11
-3.83951e-11
-4.06047e-11
-4.26001e-11
-4.17546e-11
-4.69669e-11
-4.2752e-11
-5.14862e-11
-4.35961e-11
-5.61528e-11
-4.4283e-11
-6.09731e-11
-4.48037e-11
-6.69631e-11
-4.51678e-11
-1.03872e-10
-4.55989e-11
-1.09012e-10
-4.56936e-11
-1.15308e-10
-4.45577e-11
-1.44935e-10
-1.78539e-11
-2.09764e-10
6.07781e-11
-2.54656e-10
1.30132e-10
-2.7468e-10
1.69436e-10
-2.81099e-10
1.90396e-10
-2.81253e-10
2.01793e-10
-2.79135e-10
2.08721e-10
-2.76558e-10
2.13751e-10
-2.74086e-10
2.17979e-10
-2.71667e-10
2.21759e-10
-2.69001e-10
2.25128e-10
-2.65736e-10
2.28032e-10
-2.61553e-10
2.30425e-10
-2.56195e-10
2.32304e-10
-2.49468e-10
2.33712e-10
-2.41223e-10
2.34724e-10
-2.31336e-10
2.35436e-10
-2.19693e-10
2.35952e-10
-2.06171e-10
2.36375e-10
-1.90622e-10
2.36799e-10
-1.72867e-10
2.37313e-10
-1.52683e-10
2.37992e-10
-1.29797e-10
2.38907e-10
2.40124e-10
-1.03889e-10
-1.23809e-13
-1.70621e-12
-4.90002e-13
-4.9833e-12
-1.09346e-12
-8.12383e-12
-1.92921e-12
-1.11265e-11
-2.99191e-12
-1.39901e-11
-4.27635e-12
-1.67136e-11
-5.77697e-12
-1.92963e-11
-7.4881e-12
-2.17379e-11
-9.40386e-12
-2.40379e-11
-1.15181e-11
-2.61959e-11
-1.38245e-11
-2.82114e-11
-1.63161e-11
-3.00842e-11
-1.89861e-11
-3.1814e-11
-2.18266e-11
-3.34008e-11
-2.48299e-11
-3.48445e-11
-2.79872e-11
-3.6145e-11
-3.12894e-11
-3.73026e-11
-3.47266e-11
-3.83174e-11
-3.82894e-11
-3.91892e-11
-4.19672e-11
-3.99183e-11
-4.5741e-11
-4.05092e-11
-4.95641e-11
-4.09806e-11
-9.05455e-11
-4.14094e-11
-1.05856e-10
-4.16174e-11
-1.10325e-10
-4.12249e-11
-1.31839e-10
-2.30442e-11
-1.93334e-10
4.36416e-11
-2.47868e-10
1.15312e-10
-2.76165e-10
1.58429e-10
-2.89256e-10
1.82527e-10
-2.95138e-10
1.96277e-10
-2.98245e-10
2.04901e-10
-3.0063e-10
2.11106e-10
-3.02989e-10
2.1611e-10
-3.05367e-10
2.20356e-10
-3.07563e-10
2.23955e-10
-3.09343e-10
2.26907e-10
-3.10517e-10
2.29206e-10
-3.10968e-10
2.30876e-10
-3.10642e-10
2.31978e-10
-3.09525e-10
2.32595e-10
-3.07627e-10
2.32826e-10
-3.04964e-10
2.32773e-10
-3.01544e-10
2.32532e-10
-2.97356e-10
2.32187e-10
-2.92367e-10
2.31811e-10
-2.86522e-10
2.31467e-10
-2.79737e-10
2.31206e-10
-2.719e-10
2.3107e-10
2.31097e-10
-2.62873e-10
-9.13447e-14
-1.61487e-12
-3.65963e-13
-4.70868e-12
-8.24637e-13
-7.66515e-12
-1.46801e-12
-1.04831e-11
-2.29645e-12
-1.31617e-11
-3.30993e-12
-1.57001e-11
-4.5082e-12
-1.80981e-11
-5.89085e-12
-2.03553e-11
-7.45732e-12
-2.24714e-11
-9.20696e-12
-2.44462e-11
-1.11391e-11
-2.62793e-11
-1.32528e-11
-2.79704e-11
-1.55476e-11
-2.95193e-11
-1.80225e-11
-3.09259e-11
-2.06768e-11
-3.21901e-11
-2.35101e-11
-3.33118e-11
-2.65217e-11
-3.42909e-11
-2.97115e-11
-3.51276e-11
-3.30777e-11
-3.5823e-11
-3.66154e-11
-3.63807e-11
-4.03183e-11
-3.68063e-11
-5.37024e-11
-3.71099e-11
-8.33207e-11
-3.74322e-11
-8.76572e-11
-3.72808e-11
-1.05889e-10
-2.29927e-11
-1.65122e-10
3.61881e-11
-2.28312e-10
1.06832e-10
-2.63948e-10
1.50948e-10
-2.8193e-10
1.76411e-10
-2.90777e-10
1.91374e-10
-2.95411e-10
2.0091e-10
-2.98238e-10
2.07728e-10
-3.00227e-10
2.13095e-10
-3.01649e-10
2.17532e-10
-3.02511e-10
2.21218e-10
-3.02763e-10
2.24207e-10
-3.02388e-10
2.26532e-10
-3.01418e-10
2.28235e-10
-2.99921e-10
2.29379e-10
-2.97985e-10
2.30042e-10
-2.95699e-10
2.30309e-10
-2.93139e-10
2.30266e-10
-2.90356e-10
2.29991e-10
-2.8738e-10
2.29555e-10
-2.84211e-10
2.29018e-10
-2.80829e-10
2.28429e-10
-2.77191e-10
2.2783e-10
-2.7324e-10
2.27255e-10
-2.68906e-10
2.26736e-10
2.26301e-10
-2.64109e-10
-7.17634e-14
-1.54311e-12
-2.95112e-13
-4.48534e-12
-6.74871e-13
-7.28539e-12
-1.21417e-12
-9.94384e-12
-1.91591e-12
-1.246e-11
-2.78274e-12
-1.48333e-11
-3.81722e-12
-1.70636e-11
-5.02194e-12
-1.91506e-11
-6.39962e-12
-2.10938e-11
-7.9532e-12
-2.28926e-11
-9.68599e-12
-2.45465e-11
-1.16017e-11
-2.60547e-11
-1.37047e-11
-2.74164e-11
-1.59999e-11
-2.86307e-11
-1.84931e-11
-2.96968e-11
-2.11913e-11
-3.06136e-11
-2.41027e-11
-3.13795e-11
-2.72357e-11
-3.19947e-11
-3.05943e-11
-3.24644e-11
-3.41769e-11
-3.27981e-11
-4.0055e-11
-3.2979e-11
-7.91224e-11
-3.32972e-11
-8.34082e-11
-3.31464e-11
-9.94461e-11
-2.12429e-11
-1.5558e-10
3.31413e-11
-2.20428e-10
1.01036e-10
-2.57336e-10
1.4374e-10
-2.74945e-10
1.68557e-10
-2.8169e-10
1.83157e-10
-2.82685e-10
1.92369e-10
-2.8061e-10
1.98835e-10
-2.76737e-10
2.03855e-10
-2.71637e-10
2.07996e-10
-2.65583e-10
2.11478e-10
-2.58753e-10
2.14388e-10
-2.51312e-10
2.16766e-10
-2.4343e-10
2.18651e-10
-2.35277e-10
2.20083e-10
-2.27011e-10
2.21113e-10
-2.18761e-10
2.21792e-10
-2.10624e-10
2.22172e-10
-2.0266e-10
2.22302e-10
-1.94893e-10
2.22224e-10
-1.87314e-10
2.21976e-10
-1.79885e-10
2.21589e-10
-1.72547e-10
2.21091e-10
-1.65225e-10
2.20507e-10
-1.57829e-10
2.19859e-10
-1.50262e-10
2.1917e-10
2.18461e-10
-1.42423e-10
-8.50962e-14
-1.45801e-12
-3.34305e-13
-4.23613e-12
-7.43336e-13
-6.87636e-12
-1.30884e-12
-9.37834e-12
-2.02784e-12
-1.1741e-11
-2.8973e-12
-1.39638e-11
-3.9143e-12
-1.60466e-11
-5.07597e-12
-1.79889e-11
-6.37945e-12
-1.97903e-11
-7.82189e-12
-2.14502e-11
-9.40046e-12
-2.29679e-11
-1.11123e-11
-2.43428e-11
-1.29545e-11
-2.55741e-11
-1.49242e-11
-2.6661e-11
-1.70181e-11
-2.7603e-11
-1.92316e-11
-2.84e-11
-2.15602e-11
-2.90509e-11
-2.40086e-11
-2.95462e-11
-2.66095e-11
-2.98635e-11
-3.06891e-11
-3.00029e-11
-7.84805e-11
-3.04639e-11
-8.13708e-11
-3.04069e-11
-9.32748e-11
-2.12424e-11
-1.43187e-10
2.86695e-11
-2.02745e-10
9.26989e-11
-2.33793e-10
1.32084e-10
-2.44512e-10
1.54459e-10
-2.43088e-10
1.67133e-10
-2.34698e-10
1.74767e-10
-2.22254e-10
1.79924e-10
-2.07293e-10
1.83874e-10
-1.90655e-10
1.87218e-10
-1.72872e-10
1.90212e-10
-1.54325e-10
1.92932e-10
-1.35323e-10
1.95385e-10
-1.16128e-10
1.97571e-10
-9.69662e-11
1.99489e-10
-7.80236e-11
2.0114e-10
-5.94429e-11
2.02532e-10
-4.13242e-11
2.03673e-10
-2.37262e-11
2.04574e-10
-6.67069e-12
2.05246e-10
9.85294e-12
2.057e-10
2.58816e-11
2.05947e-10
4.14731e-11
2.05998e-10
5.67013e-11
2.05863e-10
7.16518e-11
2.05557e-10
8.64194e-11
2.05092e-10
1.01105e-10
2.04484e-10
2.0375e-10
1.15816e-10
-8.06983e-14
-1.37731e-12
-3.13446e-13
-4.00338e-12
-6.90241e-13
-6.49957e-12
-1.20414e-12
-8.86444e-12
-1.84806e-12
-1.1097e-11
-2.61525e-12
-1.31966e-11
-3.49866e-12
-1.51632e-11
-4.49096e-12
-1.69966e-11
-5.58434e-12
-1.86969e-11
-6.7704e-12
-2.02641e-11
-8.03999e-12
-2.16983e-11
-9.38299e-12
-2.29998e-11
-1.07881e-11
-2.4169e-11
-1.22427e-11
-2.52064e-11
-1.3733e-11
-2.61127e-11
-1.52458e-11
-2.68872e-11
-1.67683e-11
-2.75285e-11
-1.82732e-11
-2.80413e-11
-1.96694e-11
-2.84673e-11
-1.08376e-10
-2.9084e-11
-1.10663e-10
-2.91012e-11
-1.17005e-10
-2.40655e-11
-1.58178e-10
1.99308e-11
-2.07968e-10
7.846e-11
-2.28303e-10
1.13033e-10
-2.2772e-10
1.31502e-10
-2.14247e-10
1.40985e-10
-1.93151e-10
1.46037e-10
-1.67547e-10
1.49163e-10
-1.39209e-10
1.51587e-10
-1.09169e-10
1.53834e-10
-7.80627e-11
1.56111e-10
-4.6333e-11
1.58482e-10
-1.43249e-11
1.60924e-10
1.76815e-11
1.63379e-10
4.94671e-11
1.65786e-10
8.08681e-11
1.68088e-10
1.11766e-10
1.70242e-10
1.42082e-10
1.72216e-10
1.71767e-10
1.73988e-10
2.008e-10
1.75541e-10
2.29183e-10
1.76863e-10
2.56935e-10
1.77949e-10
2.84088e-10
1.78794e-10
3.10687e-10
1.79399e-10
3.36785e-10
1.79764e-10
3.62447e-10
1.79895e-10
3.87744e-10
1.79795e-10
4.12754e-10
1.79474e-10
1.78939e-10
4.37565e-10
-5.06907e-14
-2.03407e-13
-4.59956e-13
-8.22436e-13
-1.29255e-12
-1.87172e-12
-2.56123e-12
-3.36219e-12
-4.27556e-12
-5.30216e-12
-6.44271e-12
-7.69783e-12
-9.06809e-12
-1.05543e-11
-1.21575e-11
-1.38778e-11
-1.5709e-11
-1.76303e-11
-5.03236e-11
-7.64919e-11
-8.12708e-11
-1.16221e-10
-1.58675e-10
-1.70979e-10
-1.62125e-10
-1.40225e-10
-1.10681e-10
-7.67291e-11
-4.0236e-11
-2.28338e-12
3.64768e-11
7.56461e-11
1.14986e-10
1.54342e-10
1.936e-10
2.32674e-10
2.71499e-10
3.10027e-10
3.48223e-10
3.86059e-10
4.23515e-10
4.60572e-10
4.97216e-10
5.33436e-10
5.69225e-10
6.04582e-10
6.39513e-10
6.74033e-10
7.08168e-10
7.41959e-10
7.00642e-11
-4.92287e-11
1.76692e-11
-2.63553e-11
6.30714e-11
-1.19311e-10
1.21458e-11
1.28765e-11
-3.38833e-10
3.15713e-10
-9.96296e-10
6.142e-10
-1.7537e-09
1.09015e-09
-2.60115e-09
1.71254e-09
-3.1711e-09
2.16324e-09
-3.37715e-09
2.48986e-09
-3.30881e-09
2.78152e-09
-3.08508e-09
3.0967e-09
-2.88442e-09
3.36753e-09
-2.8161e-09
3.53267e-09
-2.89484e-09
3.61248e-09
-3.12111e-09
3.63847e-09
-3.46489e-09
3.62655e-09
-3.8797e-09
3.55944e-09
-4.32681e-09
3.49561e-09
-4.74692e-09
3.4181e-09
-5.14866e-09
3.35782e-09
-5.57083e-09
3.30833e-09
-6.00505e-09
3.25132e-09
-6.42964e-09
3.18493e-09
-6.88765e-09
3.11482e-09
-7.314e-09
3.01876e-09
-7.72774e-09
2.96094e-09
-8.11069e-09
2.90869e-09
-8.46988e-09
2.8614e-09
-8.8213e-09
2.78445e-09
-9.17882e-09
2.69173e-09
-9.5347e-09
2.603e-09
-9.86686e-09
2.52342e-09
-1.01319e-08
2.46062e-09
-1.03478e-08
2.44255e-09
-1.05622e-08
2.42911e-09
-1.07855e-08
2.38908e-09
-1.1031e-08
2.33936e-09
-1.1249e-08
2.2888e-09
-1.14221e-08
2.27792e-09
-1.15279e-08
2.26811e-09
-1.15465e-08
2.21572e-09
-1.15373e-08
2.17665e-09
-1.1516e-08
2.14962e-09
-1.15028e-08
2.10791e-09
-1.15333e-08
2.06234e-09
-1.15622e-08
2.01267e-09
-1.15406e-08
1.94852e-09
-1.14652e-08
1.90924e-09
1.89146e-09
-1.14075e-08
3.68673e-11
1.35264e-11
-1.58764e-10
1.69276e-10
-5.77439e-10
2.99364e-10
-1.01762e-09
4.53054e-10
-1.54869e-09
8.46786e-10
-2.13598e-09
1.20149e-09
-2.53026e-09
1.48442e-09
-2.54813e-09
1.73041e-09
-2.29741e-09
1.91252e-09
-1.86164e-09
2.05408e-09
-1.28028e-09
2.20017e-09
-5.74261e-10
2.39068e-09
1.82596e-10
2.61067e-09
8.98987e-10
2.81628e-09
1.51821e-09
2.99325e-09
2.01106e-09
3.14563e-09
2.36539e-09
3.27221e-09
2.55587e-09
3.36897e-09
2.6238e-09
3.42768e-09
2.58535e-09
3.45654e-09
2.47428e-09
3.46889e-09
2.32419e-09
3.45843e-09
2.14516e-09
3.43035e-09
1.92314e-09
3.40696e-09
1.65905e-09
3.37891e-09
1.35271e-09
3.32509e-09
1.0716e-09
3.24205e-09
8.18685e-10
3.16161e-09
5.71826e-10
3.10825e-09
2.79029e-10
3.07724e-09
-4.69539e-11
3.01772e-09
-3.82906e-10
2.93896e-09
-7.18987e-10
2.8595e-09
-1.04987e-09
2.7915e-09
-1.3415e-09
2.73418e-09
-1.59411e-09
2.68171e-09
-1.83488e-09
2.62986e-09
-2.03248e-09
2.53696e-09
-2.20287e-09
2.45919e-09
-2.34807e-09
2.42311e-09
-2.46749e-09
2.38753e-09
-2.59589e-09
2.34412e-09
-2.71591e-09
2.29667e-09
-2.80784e-09
2.24156e-09
-2.89881e-09
2.19888e-09
-3.00516e-09
2.1687e-09
-3.12563e-09
2.13314e-09
-3.27148e-09
2.09436e-09
-3.41847e-09
2.05623e-09
2.02585e-09
-3.55286e-09
-7.61183e-10
2.9886e-10
-1.10286e-09
5.10952e-10
-1.47768e-09
6.74187e-10
-1.85128e-09
8.26656e-10
-1.98905e-09
9.84549e-10
-1.91487e-09
1.12731e-09
-1.68619e-09
1.25574e-09
-1.32176e-09
1.36599e-09
-8.69348e-10
1.4601e-09
-3.74557e-10
1.55929e-09
1.47474e-10
1.67814e-09
7.15516e-10
1.82264e-09
1.33679e-09
1.9894e-09
1.98771e-09
2.16536e-09
2.6379e-09
2.34307e-09
3.26163e-09
2.5219e-09
3.8326e-09
2.70123e-09
4.32799e-09
2.87358e-09
4.72644e-09
3.02923e-09
5.02156e-09
3.16142e-09
5.22315e-09
3.2673e-09
5.33545e-09
3.34614e-09
5.36908e-09
3.39672e-09
5.35404e-09
3.42199e-09
5.30342e-09
3.42954e-09
5.19853e-09
3.42998e-09
5.05627e-09
3.3843e-09
4.89238e-09
3.3255e-09
4.74119e-09
3.25945e-09
4.58259e-09
3.23585e-09
4.38707e-09
3.21323e-09
4.16956e-09
3.15646e-09
3.95036e-09
3.07869e-09
3.72506e-09
3.0168e-09
3.50004e-09
2.9592e-09
3.28119e-09
2.90056e-09
3.0684e-09
2.84265e-09
2.84551e-09
2.75984e-09
2.61832e-09
2.68639e-09
2.40841e-09
2.63302e-09
2.19661e-09
2.59934e-09
1.97805e-09
2.56268e-09
1.75103e-09
2.52369e-09
1.5119e-09
2.48068e-09
1.27235e-09
2.43842e-09
1.03924e-09
2.40181e-09
8.01357e-10
2.37102e-09
5.54302e-10
2.34141e-09
2.99171e-10
2.31136e-09
2.28193e-09
4.30899e-11
-1.57861e-09
5.81476e-10
-1.72162e-09
6.53956e-10
-1.76036e-09
7.12923e-10
-1.69735e-09
7.63651e-10
-1.53655e-09
8.23751e-10
-1.3128e-09
9.0356e-10
-1.04113e-09
9.84068e-10
-7.35855e-10
1.06072e-09
-4.16348e-10
1.1406e-09
-1.02254e-10
1.24519e-09
1.96837e-10
1.37905e-09
4.93156e-10
1.52632e-09
8.01431e-10
1.68112e-09
1.12627e-09
1.84052e-09
1.46717e-09
2.00216e-09
1.82019e-09
2.16888e-09
2.17988e-09
2.34153e-09
2.53916e-09
2.51431e-09
2.88643e-09
2.68197e-09
3.20871e-09
2.83914e-09
3.49573e-09
2.98028e-09
3.74194e-09
3.09993e-09
3.944e-09
3.19466e-09
4.10156e-09
3.26443e-09
4.21917e-09
3.31193e-09
4.31157e-09
3.33757e-09
4.35669e-09
3.33919e-09
4.36466e-09
3.31752e-09
4.33323e-09
3.29088e-09
4.30239e-09
3.26669e-09
4.26739e-09
3.24824e-09
4.20998e-09
3.21387e-09
4.12865e-09
3.16002e-09
4.03986e-09
3.10559e-09
3.93649e-09
3.06257e-09
3.81845e-09
3.01861e-09
3.68904e-09
2.97207e-09
3.53196e-09
2.91691e-09
3.35592e-09
2.86243e-09
3.17447e-09
2.81448e-09
2.99074e-09
2.78306e-09
2.80156e-09
2.75186e-09