/*--------------------------------*- C++ -*----------------------------------*\
| =========                 |                                                 |
| \\      /  F ield         | OpenFOAM: The Open Source CFD Toolbox           |
|  \\    /   O peration     | Version:  2.4.0                                 |
|   \\  /    A nd           | Web:      www.OpenFOAM.org                      |
|    \\/     M anipulation  |                                                 |
\*---------------------------------------------------------------------------*/
FoamFile
{
    version     2.0;
    format      ascii;
    class       volVectorField;
    location    "5";
    object      U;
}
// * * * * * * * * * * * * * * * * * * * * * * * * * * * * * * * * * * * * * //

dimensions      [0 1 -1 0 0 0 0];

internalField   nonuniform List<vector> 
8000
(
(3.51653e-08 -0.000186802 0)
(9.01597e-07 -0.000553204 0)
(2.84333e-06 -0.000912313 0)
(5.89286e-06 -0.00126399 0)
(1.00388e-05 -0.00160804 0)
(1.52703e-05 -0.00194439 0)
(2.15864e-05 -0.0022731 0)
(2.89852e-05 -0.00259423 0)
(3.74625e-05 -0.00290783 0)
(4.70126e-05 -0.00321394 0)
(5.76279e-05 -0.0035126 0)
(6.93001e-05 -0.00380381 0)
(8.20198e-05 -0.00408758 0)
(9.57771e-05 -0.00436392 0)
(0.000110561 -0.00463282 0)
(0.000126361 -0.00489427 0)
(0.000143164 -0.00514825 0)
(0.000160958 -0.00539473 0)
(0.00017973 -0.00563367 0)
(0.000199468 -0.00586504 0)
(0.000220156 -0.00608878 0)
(0.000241782 -0.00630484 0)
(0.000264329 -0.00651313 0)
(0.000287784 -0.00671359 0)
(0.00031213 -0.00690611 0)
(0.00033735 -0.0070906 0)
(0.00036343 -0.00726694 0)
(0.000390351 -0.00743498 0)
(0.000418096 -0.00759457 0)
(0.000446648 -0.00774555 0)
(0.00047599 -0.00788772 0)
(0.000506102 -0.00802087 0)
(0.000536968 -0.00814474 0)
(0.000568571 -0.00825908 0)
(0.000600893 -0.00836356 0)
(0.00063392 -0.00845787 0)
(0.000667634 -0.0085416 0)
(0.000702033 -0.00861433 0)
(0.000737136 -0.00867556 0)
(0.000773042 -0.00872476 0)
(0.000810029 -0.00876137 0)
(0.000848576 -0.00878499 0)
(0.000888959 -0.0087956 0)
(0.000930092 -0.00879392 0)
(0.000967202 -0.0087816 0)
(0.000990962 -0.00877139 0)
(0.000986081 -0.00878134 0)
(0.000942771 -0.00862132 0)
(0.000895555 -0.00832325 0)
(0.000838826 -0.00804711 0)
(6.36344e-08 -0.000186946 0)
(5.73301e-07 -0.000555262 0)
(1.66661e-06 -0.000917707 0)
(3.3848e-06 -0.00127398 0)
(5.7803e-06 -0.00162374 0)
(8.90411e-06 -0.00196679 0)
(1.28099e-05 -0.00230304 0)
(1.75445e-05 -0.00263243 0)
(2.31504e-05 -0.00295491 0)
(2.9666e-05 -0.00327041 0)
(3.71262e-05 -0.00357889 0)
(4.55634e-05 -0.00388029 0)
(5.5008e-05 -0.00417456 0)
(6.5489e-05 -0.00446166 0)
(7.70342e-05 -0.00474155 0)
(8.96709e-05 -0.00501418 0)
(0.000103426 -0.00527951 0)
(0.000118328 -0.0055375 0)
(0.000134405 -0.0057881 0)
(0.000151687 -0.00603128 0)
(0.000170206 -0.00626698 0)
(0.000189996 -0.00649516 0)
(0.000211093 -0.00671576 0)
(0.000233538 -0.00692874 0)
(0.000257374 -0.00713404 0)
(0.000282649 -0.0073316 0)
(0.000309417 -0.00752134 0)
(0.000337735 -0.00770321 0)
(0.000367666 -0.00787713 0)
(0.000399283 -0.00804302 0)
(0.000432662 -0.00820079 0)
(0.000467888 -0.00835035 0)
(0.000505053 -0.00849161 0)
(0.000544259 -0.00862447 0)
(0.000585634 -0.0087488 0)
(0.00062936 -0.0088645 0)
(0.000675729 -0.00897144 0)
(0.000725084 -0.00906969 0)
(0.000777587 -0.00915978 0)
(0.000832666 -0.00924328 0)
(0.000887086 -0.00932324 0)
(0.000931455 -0.00941229 0)
(0.000946531 -0.00952653 0)
(0.000914133 -0.00955274 0)
(0.000887501 -0.00940126 0)
(0.000894284 -0.00922086 0)
(0.000848722 -0.00907123 0)
(0.000675209 -0.00873155 0)
(0.000477215 -0.00834961 0)
(0.000430565 -0.00764712 0)
(4.90266e-08 -0.000192421 0)
(6.99034e-07 -0.000571771 0)
(2.15575e-06 -0.000945435 0)
(4.47868e-06 -0.00131319 0)
(7.71738e-06 -0.00167479 0)
(1.19206e-05 -0.00203004 0)
(1.71431e-05 -0.00237888 0)
(2.34359e-05 -0.00272125 0)
(3.0847e-05 -0.0030571 0)
(3.94227e-05 -0.00338638 0)
(4.92074e-05 -0.00370905 0)
(6.02455e-05 -0.00402505 0)
(7.25815e-05 -0.00433436 0)
(8.62608e-05 -0.00463694 0)
(0.00010133 -0.00493277 0)
(0.000117839 -0.00522183 0)
(0.000135839 -0.0055041 0)
(0.000155385 -0.00577958 0)
(0.000176537 -0.00604825 0)
(0.000199358 -0.00631012 0)
(0.000223918 -0.00656517 0)
(0.00025029 -0.00681342 0)
(0.000278558 -0.00705487 0)
(0.000308808 -0.00728953 0)
(0.000341139 -0.0075174 0)
(0.000375654 -0.00773849 0)
(0.000412468 -0.0079528 0)
(0.000451705 -0.00816034 0)
(0.000493497 -0.00836111 0)
(0.000537987 -0.00855512 0)
(0.000585326 -0.00874234 0)
(0.000635684 -0.00892278 0)
(0.000689302 -0.00909638 0)
(0.000746522 -0.00926315 0)
(0.000807639 -0.00942319 0)
(0.000872759 -0.00957736 0)
(0.000939803 -0.00972752 0)
(0.00100047 -0.00987873 0)
(0.00103469 -0.010049 0)
(0.00101606 -0.0101322 0)
(0.000988173 -0.0100813 0)
(0.000994717 -0.0100048 0)
(0.000982038 -0.00994925 0)
(0.000867365 -0.00978668 0)
(0.000662289 -0.00942119 0)
(0.000539336 -0.00899217 0)
(0.000627164 -0.00775731 0)
(0.000625156 -0.00391847 0)
(-0.000163472 -0.00499901 0)
(-0.00206459 -0.0131088 0)
(1.35864e-07 -0.00019556 0)
(1.74195e-06 -0.000582785 0)
(5.12352e-06 -0.000965713 0)
(1.02748e-05 -0.00134396 0)
(1.71431e-05 -0.00171714 0)
(2.56926e-05 -0.00208499 0)
(3.5909e-05 -0.00244735 0)
(4.77819e-05 -0.00280408 0)
(6.13034e-05 -0.00315507 0)
(7.64684e-05 -0.00350022 0)
(9.32753e-05 -0.00383946 0)
(0.000111727 -0.00417273 0)
(0.00013183 -0.0045 0)
(0.000153597 -0.00482126 0)
(0.000177046 -0.00513649 0)
(0.0002022 -0.00544573 0)
(0.00022909 -0.00574901 0)
(0.000257751 -0.00604638 0)
(0.00028823 -0.0063379 0)
(0.000320577 -0.00662366 0)
(0.000354856 -0.00690374 0)
(0.000391138 -0.00717826 0)
(0.000429503 -0.00744733 0)
(0.000470046 -0.0077111 0)
(0.00051287 -0.00796971 0)
(0.000558096 -0.00822331 0)
(0.000605854 -0.00847208 0)
(0.000656286 -0.00871621 0)
(0.000709553 -0.00895587 0)
(0.000765868 -0.00919127 0)
(0.000825536 -0.00942252 0)
(0.000888997 -0.00964978 0)
(0.00095628 -0.00987358 0)
(0.0010252 -0.0100963 0)
(0.00108531 -0.0103241 0)
(0.00111257 -0.0105658 0)
(0.00109039 -0.0106139 0)
(0.00107466 -0.0105952 0)
(0.00108234 -0.0105898 0)
(0.00103972 -0.0104712 0)
(0.000907008 -0.0101316 0)
(0.000762914 -0.00976619 0)
(0.000739606 -0.00901147 0)
(0.000712602 -0.00669975 0)
(0.000172136 -0.00443153 0)
(-0.000726354 -0.00997649 0)
(-0.00313683 -0.0116191 0)
(-0.00489945 0.0163918 0)
(-0.0050533 0.0272701 0)
(-0.0100188 0.0403206 0)
(3.53554e-07 -0.000214878 0)
(3.18504e-06 -0.000638375 0)
(8.74237e-06 -0.00105548 0)
(1.68583e-05 -0.00146605 0)
(2.73304e-05 -0.00186996 0)
(4.00019e-05 -0.00226712 0)
(5.475e-05 -0.00265756 0)
(7.14597e-05 -0.00304129 0)
(9.00206e-05 -0.00341833 0)
(0.000110327 -0.00378872 0)
(0.000132279 -0.00415251 0)
(0.000155781 -0.00450977 0)
(0.000180744 -0.00486058 0)
(0.000207084 -0.00520504 0)
(0.000234721 -0.00554327 0)
(0.000263582 -0.0058754 0)
(0.000293597 -0.00620159 0)
(0.000324702 -0.006522 0)
(0.000356838 -0.00683683 0)
(0.000389952 -0.00714628 0)
(0.000423995 -0.00745058 0)
(0.000458926 -0.00774999 0)
(0.000494705 -0.00804478 0)
(0.000531302 -0.00833525 0)
(0.000568696 -0.00862173 0)
(0.000606845 -0.00890456 0)
(0.000645706 -0.00918413 0)
(0.000685231 -0.00946086 0)
(0.000725611 -0.00973507 0)
(0.000767986 -0.0100073 0)
(0.000813225 -0.0102783 0)
(0.000855456 -0.0105513 0)
(0.000867253 -0.0108362 0)
(0.000792005 -0.0109417 0)
(0.000702565 -0.0110084 0)
(0.000666501 -0.0110964 0)
(0.000608736 -0.0109166 0)
(0.000483721 -0.0105548 0)
(0.000341538 -0.010127 0)
(0.000276122 -0.00904092 0)
(9.1531e-05 -0.00643229 0)
(-0.000605866 -0.00785635 0)
(-0.00204955 -0.012427 0)
(-0.00520387 0.00699159 0)
(-0.00434937 0.0136417 0)
(-0.00770028 0.018457 0)
(-0.0104372 0.0333382 0)
(-0.0116405 0.0443999 0)
(-0.0124728 0.0513994 0)
(-0.0130512 0.0564508 0)
(2.26987e-07 -0.000231516 0)
(2.88353e-06 -0.00068647 0)
(8.31269e-06 -0.00113319 0)
(1.63583e-05 -0.00157157 0)
(2.67507e-05 -0.00200147 0)
(3.92487e-05 -0.00242285 0)
(5.36396e-05 -0.00283571 0)
(6.97175e-05 -0.00324008 0)
(8.72767e-05 -0.00363599 0)
(0.000106113 -0.00402347 0)
(0.000126022 -0.0044026 0)
(0.000146803 -0.00477344 0)
(0.000168257 -0.0051361 0)
(0.000190185 -0.00549069 0)
(0.00021239 -0.00583733 0)
(0.000234675 -0.00617618 0)
(0.000256847 -0.0065074 0)
(0.000278711 -0.00683116 0)
(0.000300074 -0.00714766 0)
(0.000320742 -0.00745711 0)
(0.000340524 -0.00775975 0)
(0.00035923 -0.0080558 0)
(0.000376666 -0.00834554 0)
(0.000392629 -0.00862922 0)
(0.000406896 -0.00890715 0)
(0.000419235 -0.00917962 0)
(0.000429798 -0.00944688 0)
(0.000439215 -0.00970898 0)
(0.000447835 -0.00996635 0)
(0.000448431 -0.0102212 0)
(0.000411997 -0.0104811 0)
(0.000313158 -0.0106339 0)
(0.000210306 -0.0107863 0)
(0.000140846 -0.0107068 0)
(3.44997e-05 -0.0104632 0)
(-0.000175724 -0.0100628 0)
(-0.000464099 -0.00921799 0)
(-0.000659745 -0.00674857 0)
(-0.00107996 -0.00873924 0)
(-0.00248369 -0.00907511 0)
(-0.00343183 0.0113199 0)
(-0.00363315 0.0170215 0)
(-0.00648823 0.0266572 0)
(-0.00692227 0.0363889 0)
(-0.00752502 0.0414143 0)
(-0.0078794 0.0428594 0)
(-0.00784408 0.0440186 0)
(-0.00743653 0.045323 0)
(-0.00682449 0.0472861 0)
(-0.0061061 0.0500416 0)
(4.85516e-07 -0.000253401 0)
(4.23682e-06 -0.000748424 0)
(1.13784e-05 -0.00123157 0)
(2.15301e-05 -0.00170277 0)
(3.42415e-05 -0.00216197 0)
(4.91295e-05 -0.00260917 0)
(6.58545e-05 -0.00304442 0)
(8.40917e-05 -0.00346779 0)
(0.000103522 -0.00387935 0)
(0.000123832 -0.00427917 0)
(0.000144715 -0.00466736 0)
(0.000165866 -0.00504401 0)
(0.000186984 -0.00540925 0)
(0.000207772 -0.00576321 0)
(0.00022793 -0.00610605 0)
(0.000247159 -0.00643791 0)
(0.000265158 -0.00675899 0)
(0.000281623 -0.00706945 0)
(0.000296246 -0.00736952 0)
(0.000308715 -0.00765941 0)
(0.000318719 -0.00793936 0)
(0.000325923 -0.00820962 0)
(0.000329965 -0.00847048 0)
(0.000330388 -0.00872223 0)
(0.000326868 -0.00896516 0)
(0.000320222 -0.00919956 0)
(0.000312628 -0.00942574 0)
(0.00030256 -0.00964466 0)
(0.000262883 -0.00985866 0)
(0.000115323 -0.00995551 0)
(-5.62983e-05 -0.0100501 0)
(-0.000148928 -0.00999932 0)
(-0.000261537 -0.00983394 0)
(-0.000457293 -0.00944809 0)
(-0.000684313 -0.00772975 0)
(-0.000922548 -0.00372057 0)
(-0.00171125 -0.00885058 0)
(-0.00238518 0.0032026 0)
(-0.00371062 0.0105111 0)
(-0.0052665 0.0170355 0)
(-0.00575685 0.0205817 0)
(-0.0059954 0.022165 0)
(-0.00595512 0.0230924 0)
(-0.00553725 0.023866 0)
(-0.00493585 0.0248112 0)
(-0.00425255 0.0260015 0)
(-0.00362995 0.0275855 0)
(-0.00308207 0.0302926 0)
(-0.00257483 0.0338238 0)
(-0.00213142 0.0382139 0)
(2.52046e-07 -0.000280099 0)
(2.50779e-06 -0.000821963 0)
(6.79206e-06 -0.00134583 0)
(1.28076e-05 -0.00185203 0)
(2.01735e-05 -0.00234083 0)
(2.85484e-05 -0.0028125 0)
(3.76201e-05 -0.00326729 0)
(4.70874e-05 -0.00370548 0)
(5.66529e-05 -0.00412727 0)
(6.60214e-05 -0.00453287 0)
(7.48991e-05 -0.00492245 0)
(8.29922e-05 -0.00529619 0)
(9.00046e-05 -0.00565425 0)
(9.56371e-05 -0.00599675 0)
(9.95844e-05 -0.00632382 0)
(0.000101535 -0.00663559 0)
(0.000101166 -0.00693215 0)
(9.81466e-05 -0.0072136 0)
(9.21324e-05 -0.00748003 0)
(8.27605e-05 -0.00773151 0)
(6.96422e-05 -0.00796811 0)
(5.23433e-05 -0.00818991 0)
(3.04038e-05 -0.00839695 0)
(3.69586e-06 -0.00858929 0)
(-2.74165e-05 -0.00876684 0)
(-6.30244e-05 -0.00892978 0)
(-0.000110444 -0.00907914 0)
(-0.000194546 -0.0092181 0)
(-0.000316803 -0.00934884 0)
(-0.000433357 -0.00934715 0)
(-0.000522336 -0.00927103 0)
(-0.000656711 -0.00886775 0)
(-0.000858201 -0.00660439 0)
(-0.00147178 -0.00552623 0)
(-0.00239877 -0.00657917 0)
(-0.00296938 0.00770608 0)
(-0.00437193 0.014197 0)
(-0.00513754 0.0172953 0)
(-0.00555638 0.0186546 0)
(-0.00572853 0.0193402 0)
(-0.00572821 0.0198764 0)
(-0.00567616 0.0205927 0)
(-0.00561741 0.0215694 0)
(-0.00557652 0.0228288 0)
(-0.00555292 0.0244034 0)
(-0.00554885 0.0263217 0)
(-0.00556809 0.0285824 0)
(-0.00557277 0.0316884 0)
(-0.00553053 0.0351657 0)
(-0.00543145 0.0390503 0)
(-1.24658e-08 -0.000285274 0)
(-4.11123e-07 -0.000834843 0)
(-1.4236e-06 -0.00136374 0)
(-3.1643e-06 -0.0018723 0)
(-5.74621e-06 -0.00236075 0)
(-9.28795e-06 -0.00282935 0)
(-1.39161e-05 -0.00327833 0)
(-1.97615e-05 -0.0037079 0)
(-2.69588e-05 -0.00411823 0)
(-3.56463e-05 -0.00450947 0)
(-4.59657e-05 -0.00488173 0)
(-5.80631e-05 -0.00523507 0)
(-7.2088e-05 -0.00556956 0)
(-8.81947e-05 -0.00588522 0)
(-0.000106541 -0.00618203 0)
(-0.000127289 -0.00645995 0)
(-0.000150605 -0.00671889 0)
(-0.000176657 -0.00695874 0)
(-0.000205627 -0.00717934 0)
(-0.00023771 -0.00738048 0)
(-0.000273145 -0.00756191 0)
(-0.000312118 -0.00772335 0)
(-0.00035424 -0.00786438 0)
(-0.000398562 -0.00798454 0)
(-0.000445988 -0.0080834 0)
(-0.000509982 -0.00816136 0)
(-0.000624561 -0.00822006 0)
(-0.000754897 -0.00826299 0)
(-0.000855089 -0.00830318 0)
(-0.00094011 -0.00833661 0)
(-0.0010672 -0.00741383 0)
(-0.00163599 -0.0060539 0)
(-0.00228408 0.00148097 0)
(-0.00338187 0.0112258 0)
(-0.00445338 0.0149946 0)
(-0.00517588 0.0168799 0)
(-0.00554655 0.0177685 0)
(-0.00574766 0.0182496 0)
(-0.00589333 0.0187084 0)
(-0.00603814 0.019297 0)
(-0.00619841 0.0200667 0)
(-0.00637174 0.021008 0)
(-0.00655079 0.0221071 0)
(-0.00672763 0.0233592 0)
(-0.00689351 0.0247808 0)
(-0.00703912 0.0264011 0)
(-0.00715464 0.0282392 0)
(-0.00722164 0.0303495 0)
(-0.00722699 0.0327773 0)
(-0.00715958 0.0355764 0)
(-2.8003e-07 -0.000274564 0)
(-2.84727e-06 -0.000802659 0)
(-8.06658e-06 -0.00130995 0)
(-1.58737e-05 -0.00179666 0)
(-2.61608e-05 -0.00226297 0)
(-3.88621e-05 -0.00270902 0)
(-5.39444e-05 -0.003135 0)
(-7.13856e-05 -0.00354105 0)
(-9.11693e-05 -0.00392731 0)
(-0.000113285 -0.00429387 0)
(-0.000137725 -0.00464083 0)
(-0.000164489 -0.00496825 0)
(-0.000193578 -0.00527618 0)
(-0.000224993 -0.00556467 0)
(-0.000258739 -0.00583374 0)
(-0.00029482 -0.00608339 0)
(-0.000333233 -0.00631361 0)
(-0.000373983 -0.00652438 0)
(-0.000417078 -0.00671564 0)
(-0.000462557 -0.00688736 0)
(-0.000510392 -0.00703945 0)
(-0.000560029 -0.00717182 0)
(-0.000610372 -0.00728434 0)
(-0.000662074 -0.00737695 0)
(-0.000727437 -0.00744987 0)
(-0.00083627 -0.00750409 0)
(-0.000958306 -0.00754677 0)
(-0.00105622 -0.00759061 0)
(-0.00116494 -0.00770883 0)
(-0.00144807 -0.00785335 0)
(-0.00208679 -0.000458829 0)
(-0.00289731 0.00941982 0)
(-0.00363859 0.0146377 0)
(-0.00417383 0.0174982 0)
(-0.00447957 0.0190295 0)
(-0.00469337 0.0199311 0)
(-0.00487815 0.0206452 0)
(-0.00506511 0.0213523 0)
(-0.00526011 0.022115 0)
(-0.00546093 0.0229455 0)
(-0.00566255 0.0238403 0)
(-0.00585945 0.0247944 0)
(-0.00604697 0.0258093 0)
(-0.00622113 0.0268953 0)
(-0.00637803 0.028069 0)
(-0.00651342 0.0293489 0)
(-0.0066227 0.0307501 0)
(-0.00670051 0.0322922 0)
(-0.0067404 0.0340178 0)
(-0.00673479 0.035972 0)
(-3.62861e-07 -0.000251525 0)
(-3.81345e-06 -0.000735683 0)
(-1.08134e-05 -0.00120096 0)
(-2.12349e-05 -0.00164736 0)
(-3.48708e-05 -0.00207486 0)
(-5.15644e-05 -0.00248344 0)
(-7.11993e-05 -0.00287312 0)
(-9.3671e-05 -0.00324391 0)
(-0.000118881 -0.00359583 0)
(-0.000146734 -0.00392886 0)
(-0.000177142 -0.004243 0)
(-0.000210021 -0.00453826 0)
(-0.00024529 -0.00481461 0)
(-0.000282873 -0.00507205 0)
(-0.000322694 -0.00531055 0)
(-0.000364679 -0.0055301 0)
(-0.000408757 -0.00573065 0)
(-0.000454863 -0.00591216 0)
(-0.000502948 -0.0060746 0)
(-0.000552959 -0.00621791 0)
(-0.000604609 -0.00634202 0)
(-0.000657208 -0.0064468 0)
(-0.000710396 -0.00653209 0)
(-0.000768885 -0.00659796 0)
(-0.000848761 -0.00664593 0)
(-0.000954146 -0.00668184 0)
(-0.00106785 -0.00670335 0)
(-0.00116985 -0.00670195 0)
(-0.00137811 -0.00608329 0)
(-0.00185585 0.000884327 0)
(-0.00247654 0.0104051 0)
(-0.00298384 0.0159812 0)
(-0.00331612 0.018919 0)
(-0.00354146 0.0204406 0)
(-0.00371052 0.0213142 0)
(-0.00385498 0.0219409 0)
(-0.00398751 0.0225116 0)
(-0.00411084 0.023103 0)
(-0.00422422 0.0237378 0)
(-0.00432596 0.0244182 0)
(-0.00441421 0.0251421 0)
(-0.00448731 0.0259096 0)
(-0.0045437 0.0267253 0)
(-0.00458185 0.0275985 0)
(-0.00460013 0.0285421 0)
(-0.00459671 0.0295713 0)
(-0.0045697 0.0307015 0)
(-0.00451729 0.0319471 0)
(-0.00443707 0.0333317 0)
(-0.00432557 0.0348798 0)
(-3.48163e-07 -0.000228223 0)
(-3.65193e-06 -0.000667722 0)
(-1.03669e-05 -0.00109021 0)
(-2.03733e-05 -0.00149562 0)
(-3.34716e-05 -0.00188384 0)
(-4.9505e-05 -0.00225482 0)
(-6.8349e-05 -0.0026085 0)
(-8.9886e-05 -0.00294485 0)
(-0.000114 -0.00326384 0)
(-0.000140574 -0.00356542 0)
(-0.000169496 -0.00384955 0)
(-0.000200656 -0.00411621 0)
(-0.000233943 -0.00436535 0)
(-0.000269249 -0.00459694 0)
(-0.000306468 -0.00481096 0)
(-0.000345489 -0.00500737 0)
(-0.000386212 -0.00518615 0)
(-0.000428566 -0.00534728 0)
(-0.000472521 -0.00549073 0)
(-0.000517861 -0.0056165 0)
(-0.00056355 -0.00572456 0)
(-0.000607616 -0.00581487 0)
(-0.000652575 -0.00588746 0)
(-0.000722417 -0.00594283 0)
(-0.000861432 -0.00598246 0)
(-0.0010183 -0.00601099 0)
(-0.00110065 -0.00601755 0)
(-0.00123065 -0.00580058 0)
(-0.0015405 -0.0016174 0)
(-0.00205378 0.00887817 0)
(-0.00243593 0.0157604 0)
(-0.00265515 0.0194292 0)
(-0.00277918 0.021289 0)
(-0.00285089 0.0222491 0)
(-0.00289754 0.0228247 0)
(-0.00293156 0.0232743 0)
(-0.00295725 0.0237095 0)
(-0.00297492 0.0241682 0)
(-0.0029832 0.0246563 0)
(-0.00298005 0.0251692 0)
(-0.00296324 0.0257022 0)
(-0.00293053 0.0262545 0)
(-0.00287969 0.02683 0)
(-0.00280854 0.0274372 0)
(-0.00271482 0.0280884 0)
(-0.00259623 0.0287981 0)
(-0.00245038 0.0295825 0)
(-0.00227484 0.0304582 0)
(-0.00206703 0.0314435 0)
(-0.00182399 0.032558 0)
(-2.94871e-07 -0.000207359 0)
(-3.15337e-06 -0.000606647 0)
(-8.9989e-06 -0.000990434 0)
(-1.77461e-05 -0.00135863 0)
(-2.92379e-05 -0.00171111 0)
(-4.33531e-05 -0.0020478 0)
(-5.99972e-05 -0.00236863 0)
(-7.90815e-05 -0.00267355 0)
(-0.000100517 -0.0029625 0)
(-0.000124215 -0.00323542 0)
(-0.00015009 -0.00349226 0)
(-0.000178057 -0.00373296 0)
(-0.000208034 -0.00395747 0)
(-0.000239938 -0.00416574 0)
(-0.000273689 -0.00435774 0)
(-0.000309213 -0.00453341 0)
(-0.000346446 -0.00469273 0)
(-0.000385354 -0.00483567 0)
(-0.000425878 -0.00496223 0)
(-0.000467576 -0.00507238 0)
(-0.00050949 -0.00516609 0)
(-0.000551655 -0.00524335 0)
(-0.000602804 -0.00530445 0)
(-0.000686785 -0.00535089 0)
(-0.000796154 -0.00538837 0)
(-0.000908542 -0.00540357 0)
(-0.00103392 -0.00536437 0)
(-0.0013137 -0.00370604 0)
(-0.0017567 0.00566524 0)
(-0.00213491 0.0136131 0)
(-0.00230924 0.0179592 0)
(-0.00236854 0.0201633 0)
(-0.00236441 0.0212607 0)
(-0.00233216 0.0218583 0)
(-0.00228995 0.0222703 0)
(-0.00224468 0.0226364 0)
(-0.00219726 0.0230044 0)
(-0.00214592 0.023381 0)
(-0.00208797 0.0237584 0)
(-0.00202058 0.0241278 0)
(-0.00194109 0.0244842 0)
(-0.00184714 0.0248281 0)
(-0.00173658 0.0251647 0)
(-0.00160743 0.0255028 0)
(-0.00145768 0.0258539 0)
(-0.00128523 0.026231 0)
(-0.00108778 0.026648 0)
(-0.000862758 0.0271193 0)
(-0.000607268 0.0276596 0)
(-0.000317975 0.0282842 0)
(-2.41309e-07 -0.000189915 0)
(-2.57923e-06 -0.000555288 0)
(-7.37395e-06 -0.000906125 0)
(-1.45666e-05 -0.00124232 0)
(-2.40419e-05 -0.00156372 0)
(-3.57135e-05 -0.00187022 0)
(-4.95161e-05 -0.00216173 0)
(-6.53881e-05 -0.00243818 0)
(-8.3266e-05 -0.00269949 0)
(-0.000103085 -0.00294557 0)
(-0.000124781 -0.00317635 0)
(-0.000148289 -0.00339173 0)
(-0.000173542 -0.00359165 0)
(-0.000200473 -0.00377601 0)
(-0.000229012 -0.00394474 0)
(-0.000259099 -0.00409775 0)
(-0.0002907 -0.00423494 0)
(-0.000323805 -0.00435625 0)
(-0.000358192 -0.00446158 0)
(-0.000392862 -0.00455077 0)
(-0.000426297 -0.00462357 0)
(-0.000462128 -0.00468002 0)
(-0.000524171 -0.00472195 0)
(-0.000645278 -0.00475481 0)
(-0.00079451 -0.00477496 0)
(-0.000895442 -0.00476797 0)
(-0.00108568 -0.00413499 0)
(-0.00149084 0.00287362 0)
(-0.00192376 0.011343 0)
(-0.00214893 0.0162232 0)
(-0.00223895 0.0187865 0)
(-0.00225645 0.020111 0)
(-0.00224366 0.0208494 0)
(-0.00222276 0.0213452 0)
(-0.0022022 0.0217533 0)
(-0.0021831 0.0221281 0)
(-0.00216347 0.0224784 0)
(-0.00214044 0.0227975 0)
(-0.00211121 0.0230771 0)
(-0.00207348 0.0233131 0)
(-0.00202547 0.0235063 0)
(-0.00196583 0.0236626 0)
(-0.00189351 0.0237903 0)
(-0.00180762 0.0238999 0)
(-0.00170721 0.0240021 0)
(-0.00159124 0.0241076 0)
(-0.00145842 0.0242264 0)
(-0.00130714 0.0243682 0)
(-0.00113545 0.0245418 0)
(-0.000940933 0.0247556 0)
(-1.89806e-07 -0.000176147 0)
(-2.04553e-06 -0.000514696 0)
(-5.86862e-06 -0.000839418 0)
(-1.16245e-05 -0.00115021 0)
(-1.9233e-05 -0.00144692 0)
(-2.8635e-05 -0.00172945 0)
(-3.97869e-05 -0.00199772 0)
(-5.26452e-05 -0.00225169 0)
(-6.71646e-05 -0.00249131 0)
(-8.32973e-05 -0.00271651 0)
(-0.000100993 -0.00292725 0)
(-0.000120199 -0.00312348 0)
(-0.000140859 -0.00330518 0)
(-0.00016291 -0.00347231 0)
(-0.000186294 -0.00362483 0)
(-0.000210983 -0.00376274 0)
(-0.000237017 -0.00388603 0)
(-0.000264227 -0.00399468 0)
(-0.000291416 -0.0040887 0)
(-0.000315955 -0.00416804 0)
(-0.000339901 -0.00423277 0)
(-0.000392165 -0.00428357 0)
(-0.00053622 -0.00432225 0)
(-0.000718956 -0.00435385 0)
(-0.00083928 -0.004362 0)
(-0.00100266 -0.00414827 0)
(-0.00139719 0.000544164 0)
(-0.00183338 0.00928551 0)
(-0.0021277 0.0146952 0)
(-0.00227809 0.0176776 0)
(-0.00234579 0.0193073 0)
(-0.00237646 0.0202636 0)
(-0.00239591 0.0209124 0)
(-0.00241426 0.0214241 0)
(-0.00243348 0.0218634 0)
(-0.00245228 0.0222466 0)
(-0.00246863 0.0225722 0)
(-0.00248075 0.0228362 0)
(-0.00248741 0.0230377 0)
(-0.00248796 0.0231802 0)
(-0.00248216 0.0232712 0)
(-0.00247006 0.0233203 0)
(-0.00245179 0.023338 0)
(-0.00242744 0.023335 0)
(-0.00239704 0.0233207 0)
(-0.00236041 0.0233038 0)
(-0.00231721 0.0232913 0)
(-0.00226688 0.0232895 0)
(-0.00220863 0.0233033 0)
(-0.00214147 0.023337 0)
(-1.36594e-07 -0.000165184 0)
(-1.51229e-06 -0.000482094 0)
(-4.39625e-06 -0.000785474 0)
(-8.79573e-06 -0.00107523 0)
(-1.46858e-05 -0.00135124 0)
(-2.20556e-05 -0.0016134 0)
(-3.09035e-05 -0.00186168 0)
(-4.1228e-05 -0.00209602 0)
(-5.30257e-05 -0.00231641 0)
(-6.62915e-05 -0.0025228 0)
(-8.10202e-05 -0.00271516 0)
(-9.72051e-05 -0.00289349 0)
(-0.000114838 -0.00305778 0)
(-0.000133913 -0.00320801 0)
(-0.000154438 -0.00334422 0)
(-0.000176453 -0.00346642 0)
(-0.000199962 -0.00357466 0)
(-0.000224559 -0.00366899 0)
(-0.000249175 -0.00374941 0)
(-0.000273733 -0.00381603 0)
(-0.000308092 -0.0038693 0)
(-0.000379578 -0.00391071 0)
(-0.000489582 -0.00394634 0)
(-0.000618625 -0.00396222 0)
(-0.000776457 -0.00388501 0)
(-0.00121297 -0.000475828 0)
(-0.0016356 0.0081788 0)
(-0.0019996 0.0137844 0)
(-0.00220278 0.0170004 0)
(-0.00230262 0.0188374 0)
(-0.0023504 0.0199571 0)
(-0.00237693 0.0207252 0)
(-0.00239503 0.0213174 0)
(-0.00240853 0.0218062 0)
(-0.00241779 0.0222161 0)
(-0.00242234 0.0225527 0)
(-0.00242184 0.0228176 0)
(-0.00241635 0.0230137 0)
(-0.00240632 0.0231467 0)
(-0.0023924 0.0232249 0)
(-0.00237534 0.023258 0)
(-0.00235582 0.0232561 0)
(-0.00233436 0.0232288 0)
(-0.00231129 0.0231848 0)
(-0.00228673 0.0231314 0)
(-0.00226059 0.0230749 0)
(-0.00223261 0.0230204 0)
(-0.00220238 0.0229722 0)
(-0.00216939 0.0229337 0)
(-0.00213303 0.0229081 0)
(-9.67803e-08 -0.000157995 0)
(-1.19934e-06 -0.000459948 0)
(-3.56689e-06 -0.000747862 0)
(-7.23018e-06 -0.00102171 0)
(-1.21911e-05 -0.00128141 0)
(-1.84617e-05 -0.00152694 0)
(-2.60621e-05 -0.00175826 0)
(-3.50135e-05 -0.00197536 0)
(-4.53374e-05 -0.00217821 0)
(-5.70565e-05 -0.00236678 0)
(-7.0195e-05 -0.00254104 0)
(-8.47795e-05 -0.00270094 0)
(-0.00010084 -0.00284646 0)
(-0.000118421 -0.00297755 0)
(-0.000137599 -0.00309419 0)
(-0.000158476 -0.00319635 0)
(-0.000180913 -0.00328401 0)
(-0.000204107 -0.00335705 0)
(-0.000227041 -0.00341535 0)
(-0.000254516 -0.00345912 0)
(-0.000308523 -0.00349057 0)
(-0.000417388 -0.00351582 0)
(-0.000568483 -0.00353041 0)
(-0.00072752 -0.00349621 0)
(-0.00117944 -0.000730891 0)
(-0.00155692 0.00769387 0)
(-0.00193957 0.0132026 0)
(-0.00215093 0.0164248 0)
(-0.00224187 0.0183015 0)
(-0.00226613 0.0194573 0)
(-0.00225775 0.020245 0)
(-0.00223216 0.0208409 0)
(-0.00219556 0.021323 0)
(-0.00215058 0.0217222 0)
(-0.00209874 0.02205 0)
(-0.00204133 0.022312 0)
(-0.00197969 0.0225127 0)
(-0.00191522 0.0226579 0)
(-0.00184925 0.0227542 0)
(-0.00178296 0.0228092 0)
(-0.00171725 0.0228301 0)
(-0.00165277 0.0228239 0)
(-0.00158983 0.0227968 0)
(-0.00152849 0.0227543 0)
(-0.00146856 0.0227006 0)
(-0.00140963 0.0226397 0)
(-0.00135116 0.0225746 0)
(-0.00129247 0.0225083 0)
(-0.00123282 0.0224431 0)
(-0.0011714 0.0223818 0)
(-1.34597e-07 -0.000150282 0)
(-1.40135e-06 -0.000436614 0)
(-3.99672e-06 -0.000708721 0)
(-7.89388e-06 -0.000966573 0)
(-1.3041e-05 -0.00121009 0)
(-1.94024e-05 -0.00143924 0)
(-2.69544e-05 -0.00165398 0)
(-3.56747e-05 -0.00185427 0)
(-4.55414e-05 -0.00204005 0)
(-5.65307e-05 -0.00221124 0)
(-6.86189e-05 -0.00236775 0)
(-8.17787e-05 -0.00250947 0)
(-9.59963e-05 -0.00263627 0)
(-0.000111296 -0.00274803 0)
(-0.000127736 -0.00284462 0)
(-0.000145098 -0.00292588 0)
(-0.000162116 -0.00299146 0)
(-0.000176761 -0.00304082 0)
(-0.000193647 -0.00307387 0)
(-0.000244454 -0.00309461 0)
(-0.000375215 -0.00311409 0)
(-0.000556373 -0.00312365 0)
(-0.000703353 -0.0030998 0)
(-0.0011072 -0.00077202 0)
(-0.00142949 0.00733209 0)
(-0.00177486 0.0125474 0)
(-0.00193795 0.0155827 0)
(-0.00196858 0.0173228 0)
(-0.00192207 0.0183655 0)
(-0.00183408 0.0190522 0)
(-0.00172209 0.0195577 0)
(-0.00159446 0.0199654 0)
(-0.00145597 0.0203114 0)
(-0.00131001 0.0206093 0)
(-0.00115926 0.0208641 0)
(-0.00100599 0.0210786 0)
(-0.000852156 0.0212555 0)
(-0.000699415 0.0213977 0)
(-0.000549082 0.0215083 0)
(-0.000402129 0.0215904 0)
(-0.000259186 0.0216469 0)
(-0.000120564 0.0216806 0)
(1.37001e-05 0.0216937 0)
(0.000143806 0.0216885 0)
(0.000270149 0.0216667 0)
(0.000393262 0.0216303 0)
(0.000513792 0.0215808 0)
(0.000632465 0.0215202 0)
(0.000750068 0.0214502 0)
(0.000867437 0.021373 0)
(-1.30322e-07 -0.000141277 0)
(-1.32673e-06 -0.000410548 0)
(-3.73635e-06 -0.000666496 0)
(-7.30584e-06 -0.000909032 0)
(-1.19536e-05 -0.00113805 0)
(-1.76137e-05 -0.00135347 0)
(-2.42306e-05 -0.00155528 0)
(-3.17493e-05 -0.00174344 0)
(-4.01083e-05 -0.00191793 0)
(-4.92419e-05 -0.0020787 0)
(-5.90688e-05 -0.00222573 0)
(-6.95231e-05 -0.00235898 0)
(-8.06033e-05 -0.00247842 0)
(-9.24231e-05 -0.00258405 0)
(-0.000104699 -0.00267583 0)
(-0.000115059 -0.00275369 0)
(-0.000118255 -0.00281748 0)
(-0.000118543 -0.00286725 0)
(-0.000175034 -0.00290471 0)
(-0.000411479 -0.00293389 0)
(-0.000751678 -0.00295839 0)
(-0.000956958 -0.00295819 0)
(-0.00138349 -0.00117084 0)
(-0.00148169 0.00645168 0)
(-0.00176893 0.0111945 0)
(-0.00184976 0.0138575 0)
(-0.00178817 0.015296 0)
(-0.00164186 0.0160911 0)
(-0.00144972 0.0165762 0)
(-0.00123113 0.016922 0)
(-0.000996089 0.017208 0)
(-0.000750518 0.0174702 0)
(-0.000498436 0.0177232 0)
(-0.000242896 0.0179692 0)
(1.36344e-05 0.0182057 0)
(0.000269169 0.0184292 0)
(0.000522188 0.0186364 0)
(0.000771574 0.0188249 0)
(0.00101655 0.0189929 0)
(0.00125661 0.0191392 0)
(0.0014915 0.019263 0)
(0.00172114 0.0193639 0)
(0.00194562 0.0194415 0)
(0.00216516 0.0194959 0)
(0.00238006 0.0195275 0)
(0.00259073 0.0195368 0)
(0.00279764 0.0195244 0)
(0.00300132 0.0194916 0)
(0.00320237 0.0194394 0)
(0.00340147 0.0193693 0)
(-7.69128e-08 -0.000134346 0)
(-8.37613e-07 -0.00039036 0)
(-2.44487e-06 -0.000633631 0)
(-4.91316e-06 -0.000864059 0)
(-8.24213e-06 -0.00108155 0)
(-1.24375e-05 -0.00128605 0)
(-1.75103e-05 -0.00147755 0)
(-2.34704e-05 -0.00165608 0)
(-3.03249e-05 -0.00182166 0)
(-3.80775e-05 -0.00197434 0)
(-4.67364e-05 -0.00211417 0)
(-5.63425e-05 -0.00224124 0)
(-6.69891e-05 -0.00235564 0)
(-7.86212e-05 -0.00245751 0)
(-9.03285e-05 -0.00254694 0)
(-9.99318e-05 -0.00262406 0)
(-0.000108908 -0.00268914 0)
(-0.000141266 -0.00274339 0)
(-0.000249094 -0.00278908 0)
(-0.000411764 -0.0028381 0)
(-0.000580925 -0.00285435 0)
(-0.00100002 -0.00187557 0)
(-0.00118856 0.0051106 0)
(-0.00135392 0.00926707 0)
(-0.00135685 0.0114376 0)
(-0.00122801 0.0124647 0)
(-0.00101543 0.0129213 0)
(-0.000756332 0.0131356 0)
(-0.000471557 0.0132746 0)
(-0.00017214 0.0134124 0)
(0.000135654 0.0135752 0)
(0.000447956 0.0137686 0)
(0.000762374 0.0139896 0)
(0.00107741 0.0142311 0)
(0.00139205 0.0144845 0)
(0.00170551 0.0147412 0)
(0.00201721 0.0149935 0)
(0.0023267 0.0152352 0)
(0.00263365 0.0154615 0)
(0.00293782 0.0156689 0)
(0.00323902 0.015855 0)
(0.0035371 0.0160181 0)
(0.00383193 0.0161571 0)
(0.0041234 0.0162711 0)
(0.00441145 0.0163598 0)
(0.00469602 0.0164231 0)
(0.00497715 0.0164608 0)
(0.00525491 0.0164732 0)
(0.00552946 0.0164604 0)
(0.00580107 0.0164229 0)
(0.000686796 -0.00771093 0)
(0.000455875 -0.00736645 0)
(0.000253121 -0.00688032 0)
(0.0002612 -0.00290946 0)
(-0.000406999 -0.00072123 0)
(-0.00397468 0.000967562 0)
(-0.0117318 0.0730092 0)
(-0.0179955 0.157537 0)
(-0.0238721 0.220678 0)
(-0.026457 0.266304 0)
(-0.0269597 0.306408 0)
(-0.0257688 0.346262 0)
(-0.0237272 0.374567 0)
(-0.0225801 0.385479 0)
(-0.0227531 0.384289 0)
(-0.0236561 0.377289 0)
(-0.0256969 0.366928 0)
(-0.0295605 0.349055 0)
(-0.0331893 0.336091 0)
(-0.036284 0.328454 0)
(-0.0395467 0.322519 0)
(-0.0426483 0.316147 0)
(-0.0459381 0.309375 0)
(-0.0498896 0.302101 0)
(-0.0537443 0.291976 0)
(-0.0569352 0.284789 0)
(-0.0599741 0.279943 0)
(-0.063117 0.275474 0)
(-0.0662432 0.270917 0)
(-0.0690838 0.262814 0)
(-0.072188 0.25134 0)
(-0.0754272 0.241151 0)
(-0.0775543 0.234686 0)
(-0.07948 0.231177 0)
(-0.08201 0.231777 0)
(-0.0838429 0.233213 0)
(-0.0855581 0.23012 0)
(-0.0874751 0.22445 0)
(-0.0890766 0.221698 0)
(-0.0906894 0.223162 0)
(-0.0919841 0.223036 0)
(-0.0923617 0.220616 0)
(-0.0923739 0.218076 0)
(-0.0922452 0.217287 0)
(-0.0920858 0.213599 0)
(-0.0921648 0.204172 0)
(-0.092453 0.197913 0)
(-0.0924289 0.193435 0)
(-0.0920834 0.190415 0)
(-0.0914319 0.18781 0)
(0.000571727 -0.00435685 0)
(-1.62842e-05 -0.00133907 0)
(-0.00204018 -0.0104589 0)
(-0.00656792 0.00806832 0)
(-0.0107503 0.0655825 0)
(-0.0152551 0.11228 0)
(-0.0191339 0.153634 0)
(-0.0207966 0.189656 0)
(-0.0195441 0.216026 0)
(-0.0169239 0.235074 0)
(-0.0130607 0.253699 0)
(-0.00765994 0.277501 0)
(-0.00147802 0.303577 0)
(0.00446171 0.325475 0)
(0.009857 0.341908 0)
(0.0143714 0.353377 0)
(0.0177369 0.361515 0)
(0.0199404 0.364407 0)